# vtk DataFile Version 2.0
Test
ASCII
DATASET POLYDATA
POINTS 3011 float
0.000000 0.000000 0.000000
2.000000 0.000000 0.000000
2.000000 4.000000 0.000000
0.000000 4.000000 0.000000
0.000000 0.500000 0.000000
1.500000 2.000000 0.000000
2.000000 2.500000 0.000000
0.285714 0.000000 0.000000
0.571429 0.000000 0.000000
0.857143 0.000000 0.000000
1.142857 0.000000 0.000000
1.428571 0.000000 0.000000
1.714286 0.000000 0.000000
2.000000 0.276366 0.000000
2.000000 0.523709 0.000000
2.000000 0.745076 0.000000
2.000000 0.943195 0.000000
2.000000 1.120508 0.000000
2.000000 1.279199 0.000000
2.000000 1.421225 0.000000
2.000000 1.548336 0.000000
2.000000 1.662097 0.000000
2.000000 1.763911 0.000000
2.000000 1.855033 0.000000
2.000000 1.936585 0.000000
2.000000 2.009573 0.000000
2.000000 2.074896 0.000000
2.000000 2.133358 0.000000
2.000000 2.185681 0.000000
2.000000 2.232509 0.000000
2.000000 2.274419 0.000000
2.000000 2.311927 0.000000
2.000000 2.345497 0.000000
2.000000 2.375541 0.000000
2.000000 2.402430 0.000000
2.000000 2.426495 0.000000
2.000000 2.448033 0.000000
2.000000 2.467309 0.000000
2.000000 2.484560 0.000000
2.000000 2.516256 0.000000
2.000000 2.535859 0.000000
2.000000 2.559499 0.000000
2.000000 2.588006 0.000000
2.000000 2.622383 0.000000
2.000000 2.663839 0.000000
2.000000 2.713831 0.000000
2.000000 2.774116 0.000000
2.000000 2.846815 0.000000
2.000000 2.934483 0.000000
2.000000 3.040202 0.000000
2.000000 3.167691 0.000000
2.000000 3.321430 0.000000
2.000000 3.506825 0.000000
2.000000 3.730395 0.000000
1.714286 4.000000 0.000000
1.428571 4.000000 0.000000
1.142857 4.000000 0.000000
0.857143 4.000000 0.000000
0.571429 4.000000 0.000000
0.285714 4.000000 0.000000
0.000000 3.713462 0.000000
0.000000 3.449209 0.000000
0.000000 3.205508 0.000000
0.000000 2.980761 0.000000
0.000000 2.773493 0.000000
0.000000 2.582346 0.000000
0.000000 2.406065 0.000000
0.000000 2.243495 0.000000
0.000000 2.093568 0.000000
0.000000 1.955302 0.000000
0.000000 1.827789 0.000000
0.000000 1.710194 0.000000
0.000000 1.601745 0.000000
0.000000 1.501730 0.000000
0.000000 1.409494 0.000000
0.000000 1.324431 0.000000
0.000000 1.245984 0.000000
0.000000 1.173639 0.000000
0.000000 1.106920 0.000000
0.000000 1.045390 0.000000
0.000000 0.988645 0.000000
0.000000 0.936314 0.000000
0.000000 0.888053 0.000000
0.000000 0.843545 0.000000
0.000000 0.802499 0.000000
0.000000 0.764646 0.000000
0.000000 0.729736 0.000000
0.000000 0.697541 0.000000
0.000000 0.667851 0.000000
0.000000 0.640469 0.000000
0.000000 0.615217 0.000000
0.000000 0.591929 0.000000
0.000000 0.570453 0.000000
0.000000 0.550646 0.000000
0.000000 0.532380 0.000000
0.000000 0.515535 0.000000
0.000000 0.483768 0.000000
0.000000 0.461535 0.000000
0.000000 0.431083 0.000000
0.000000 0.389372 0.000000
0.000000 0.332241 0.000000
0.000000 0.253989 0.000000
0.000000 0.146807 0.000000
0.010563 0.510563 0.000000
0.021127 0.521127 0.000000
0.031690 0.531690 0.000000
0.042254 0.542254 0.000000
0.052817 0.552817 0.000000
0.063380 0.563380 0.000000
0.073944 0.573944 0.000000
0.084507 0.584507 0.000000
0.095070 0.595070 0.000000
0.105634 0.605634 0.000000
0.116197 0.616197 0.000000
0.126761 0.626761 0.000000
0.137324 0.637324 0.000000
0.147887 0.647887 0.000000
0.158451 0.658451 0.000000
0.169014 0.669014 0.000000
0.179577 0.679577 0.000000
0.190141 0.690141 0.000000
0.200704 0.700704 0.000000
0.211268 0.711268 0.000000
0.221831 0.721831 0.000000
0.232394 0.732394 0.000000
0.242958 0.742958 0.000000
0.253521 0.753521 0.000000
0.264085 0.764085 0.000000
0.274648 0.774648 0.000000
0.285211 0.785211 0.000000
0.295775 0.795775 0.000000
0.306338 0.806338 0.000000
0.316901 0.816901 0.000000
0.327465 0.827465 0.000000
0.338028 0.838028 0.000000
0.348592 0.848592 0.000000
0.359155 0.859155 0.000000
0.369718 0.869718 0.000000
0.380282 0.880282 0.000000
0.390845 0.890845 0.000000
0.401408 0.901408 0.000000
0.411972 0.911972 0.000000
0.422535 0.922535 0.000000
0.433099 0.933099 0.000000
0.443662 0.943662 0.000000
0.454225 0.954225 0.000000
0.464789 0.964789 0.000000
0.475352 0.975352 0.000000
0.485915 0.985915 0.000000
0.496479 0.996479 0.000000
0.507042 1.007042 0.000000
0.517606 1.017606 0.000000
0.528169 1.028169 0.000000
0.538732 1.038732 0.000000
0.549296 1.049296 0.000000
0.559859 1.059859 0.000000
0.570423 1.070423 0.000000
0.580986 1.080986 0.000000
0.591549 1.091549 0.000000
0.602113 1.102113 0.000000
0.612676 1.112676 0.000000
0.623239 1.123239 0.000000
0.633803 1.133803 0.000000
0.644366 1.144366 0.000000
0.654930 1.154930 0.000000
0.665493 1.165493 0.000000
0.676056 1.176056 0.000000
0.686620 1.186620 0.000000
0.697183 1.197183 0.000000
0.707746 1.207746 0.000000
0.718310 1.218310 0.000000
0.728873 1.228873 0.000000
0.739437 1.239437 0.000000
0.750000 1.250000 0.000000
0.760563 1.260563 0.000000
0.771127 1.271127 0.000000
0.781690 1.281690 0.000000
0.792254 1.292254 0.000000
0.802817 1.302817 0.000000
0.813380 1.313380 0.000000
0.823944 1.323944 0.000000
0.834507 1.334507 0.000000
0.845070 1.345070 0.000000
0.855634 1.355634 0.000000
0.866197 1.366197 0.000000
0.876761 1.376761 0.000000
0.887324 1.387324 0.000000
0.897887 1.397887 0.000000
0.908451 1.408451 0.000000
0.919014 1.419014 0.000000
0.929577 1.429577 0.000000
0.940141 1.440141 0.000000
0.950704 1.450704 0.000000
0.961268 1.461268 0.000000
0.971831 1.471831 0.000000
0.982394 1.482394 0.000000
0.992958 1.492958 0.000000
1.003521 1.503521 0.000000
1.014085 1.514085 0.000000
1.024648 1.524648 0.000000
1.035211 1.535211 0.000000
1.045775 1.545775 0.000000
1.056338 1.556338 0.000000
1.066901 1.566901 0.000000
1.077465 1.577465 0.000000
1.088028 1.588028 0.000000
1.098592 1.598592 0.000000
1.109155 1.609155 0.000000
1.119718 1.619718 0.000000
1.130282 1.630282 0.000000
1.140845 1.640845 0.000000
1.151408 1.651408 0.000000
1.161972 1.661972 0.000000
1.172535 1.672535 0.000000
1.183099 1.683099 0.000000
1.193662 1.693662 0.000000
1.204225 1.704225 0.000000
1.214789 1.714789 0.000000
1.225352 1.725352 0.000000
1.235915 1.735915 0.000000
1.246479 1.746479 0.000000
1.257042 1.757042 0.000000
1.267606 1.767606 0.000000
1.278169 1.778169 0.000000
1.288732 1.788732 0.000000
1.299296 1.799296 0.000000
1.309859 1.809859 0.000000
1.320423 1.820423 0.000000
1.330986 1.830986 0.000000
1.341549 1.841549 0.000000
1.352113 1.852113 0.000000
1.362676 1.862676 0.000000
1.373239 1.873239 0.000000
1.383803 1.883803 0.000000
1.394366 1.894366 0.000000
1.404930 1.904930 0.000000
1.415493 1.915493 0.000000
1.426056 1.926056 0.000000
1.436620 1.936620 0.000000
1.447183 1.947183 0.000000
1.457746 1.957746 0.000000
1.468310 1.968310 0.000000
1.478873 1.978873 0.000000
1.489437 1.989437 0.000000
1.510417 2.010417 0.000000
1.520833 2.020833 0.000000
1.531250 2.031250 0.000000
1.541667 2.041667 0.000000
1.552083 2.052083 0.000000
1.562500 2.062500 0.000000
1.572917 2.072917 0.000000
1.583333 2.083333 0.000000
1.593750 2.093750 0.000000
1.604167 2.104167 0.000000
1.614583 2.114583 0.000000
1.625000 2.125000 0.000000
1.635417 2.135417 0.000000
1.645833 2.145833 0.000000
1.656250 2.156250 0.000000
1.666667 2.166667 0.000000
1.677083 2.177083 0.000000
1.687500 2.187500 0.000000
1.697917 2.197917 0.000000
1.708333 2.208333 0.000000
1.718750 2.218750 0.000000
1.729167 2.229167 0.000000
1.739583 2.239583 0.000000
1.750000 2.250000 0.000000
1.760417 2.260417 0.000000
1.770833 2.270833 0.000000
1.781250 2.281250 0.000000
1.791667 2.291667 0.000000
1.802083 2.302083 0.000000
1.812500 2.312500 0.000000
1.822917 2.322917 0.000000
1.833333 2.333333 0.000000
1.843750 2.343750 0.000000
1.854167 2.354167 0.000000
1.864583 2.364583 0.000000
1.875000 2.375000 0.000000
1.885417 2.385417 0.000000
1.895833 2.395833 0.000000
1.906250 2.406250 0.000000
1.916667 2.416667 0.000000
1.927083 2.427083 0.000000
1.937500 2.437500 0.000000
1.947917 2.447917 0.000000
1.958333 2.458333 0.000000
1.968750 2.468750 0.000000
1.979167 2.479167 0.000000
1.989583 2.489583 0.000000
0.206561 0.791563 0.000000
0.205359 0.816165 0.000000
0.186354 0.798211 0.000000
0.221961 0.800924 0.000000
0.280649 1.360489 0.000000
0.304015 1.400469 0.000000
0.229142 1.396096 0.000000
0.275922 1.451476 0.000000
1.869084 2.391788 0.000000
1.857928 2.378421 0.000000
1.238669 2.061899 0.000000
1.278787 2.082276 0.000000
1.238298 2.096047 0.000000
1.277579 2.032995 0.000000
0.402536 1.205823 0.000000
0.415290 1.176040 0.000000
0.428330 1.201952 0.000000
0.387294 1.172617 0.000000
0.146930 1.050586 0.000000
0.109488 1.087198 0.000000
0.102742 1.042403 0.000000
0.157178 1.091184 0.000000
0.588967 1.178581 0.000000
0.593116 1.153718 0.000000
0.608054 1.166752 0.000000
0.612180 1.145944 0.000000
0.860304 1.543784 0.000000
0.868821 1.521840 0.000000
0.878420 1.536650 0.000000
0.845380 1.517623 0.000000
1.129525 1.764330 0.000000
1.142005 1.751560 0.000000
1.145757 1.773681 0.000000
1.159368 1.759106 0.000000
1.968150 2.518865 0.000000
1.986105 2.509269 0.000000
1.986696 2.531115 0.000000
0.668964 1.191005 0.000000
0.683291 1.201259 0.000000
0.557625 1.074830 0.000000
0.569760 1.084377 0.000000
0.557769 1.089278 0.000000
0.707567 1.266174 0.000000
0.719026 1.281845 0.000000
0.700768 1.282275 0.000000
0.722329 1.266956 0.000000
0.468225 2.149688 0.000000
0.419106 2.064198 0.000000
0.523878 2.082648 0.000000
0.838546 1.421191 0.000000
0.823708 1.410355 0.000000
0.840477 1.404206 0.000000
0.818500 1.425973 0.000000
0.953187 1.488222 0.000000
0.959780 1.473222 0.000000
0.967054 1.485637 0.000000
1.047418 1.769126 0.000000
1.080240 1.782403 0.000000
1.047768 1.802712 0.000000
0.971392 1.693320 0.000000
0.949208 1.720793 0.000000
0.940644 1.684781 0.000000
0.381391 2.160909 0.000000
0.944091 1.477800 0.000000
0.530075 1.477351 0.000000
0.521303 1.516669 0.000000
0.474240 1.491166 0.000000
0.489489 1.546185 0.000000
1.537370 2.239326 0.000000
1.555275 2.267640 0.000000
1.532966 2.278201 0.000000
0.962010 1.661716 0.000000
0.986804 1.643200 0.000000
0.986259 1.672729 0.000000
1.049149 1.737940 0.000000
1.075111 1.737123 0.000000
[...]
POINT_DATA 3011
SCALARS UX float 1
LOOKUP_TABLE default
-0.067433
0.079921
0.000000
-0.000000
-0.070778
0.042378
0.076523
-0.046519
-0.025554
-0.004552
0.016496
0.037597
0.058737
0.079952
0.080031
0.080168
0.080339
0.080537
0.080748
0.080955
0.081111
0.081163
0.081094
0.080863
0.080535
0.080118
0.079690
0.079257
0.078845
0.078470
0.078137
0.077847
0.077593
0.077373
0.077181
0.077015
0.076867
0.076737
0.076623
0.076418
0.076289
0.076135
0.075943
0.075720
0.075424
0.075041
0.074541
0.073806
0.072761
0.071203
0.068643
0.064275
0.056266
0.041659
-0.000000
0.000000
0.000000
-0.000000
-0.000000
0.000000
-0.040901
-0.058527
-0.066444
-0.070572
-0.072530
-0.073341
-0.073564
-0.073583
-0.073513
-0.073422
-0.073350
-0.073316
-0.073307
-0.073321
-0.073352
-0.073392
-0.073439
-0.073490
-0.073545
-0.073601
-0.073660
-0.073716
-0.073770
-0.073820
-0.073865
-0.073903
-0.073935
-0.073960
-0.073982
-0.074012
-0.074053
-0.074075
-0.074032
-0.073927
-0.074103
-0.073614
-0.067708
-0.067449
-0.067322
-0.067350
-0.067371
-0.067397
-0.067418
-0.069771
-0.069084
-0.068193
-0.067588
-0.067062
-0.066044
-0.065302
-0.064469
-0.063715
-0.062837
-0.062054
-0.061701
-0.060712
-0.059680
-0.058645
-0.058001
-0.057500
-0.056775
-0.055718
-0.055100
-0.053870
-0.053496
-0.052546
-0.051863
-0.051071
-0.050152
-0.049694
-0.048652
-0.048398
-0.047322
-0.046778
-0.045582
-0.044824
-0.044083
-0.043317
-0.042497
-0.041639
-0.041081
-0.040259
-0.039329
-0.038661
-0.037631
-0.036610
-0.036571
-0.035747
-0.034491
-0.033964
-0.032995
-0.032431
-0.031597
-0.030534
-0.029678
-0.028759
-0.028149
-0.027439
-0.026822
-0.026034
-0.025254
-0.024153
-0.023669
-0.023125
-0.022042
-0.021138
-0.020270
-0.019563
-0.018782
-0.018449
-0.017431
-0.016216
-0.015531
-0.014485
-0.014120
-0.013029
-0.012570
-0.012016
-0.011293
-0.010249
-0.009665
-0.008879
-0.008063
-0.007437
-0.006471
-0.005803
-0.005052
-0.003813
-0.003087
-0.002618
-0.001529
-0.000414
-0.000166
0.000569
0.001206
0.002138
0.002891
0.003698
0.004656
0.005364
0.006193
0.006798
0.007745
0.008368
0.009353
0.010536
0.010679
0.011930
0.012804
0.013801
0.014209
0.014912
0.015994
0.016736
0.017585
0.018070
0.019054
0.019936
0.020563
0.021686
0.022493
0.022841
0.023905
0.024994
0.025179
0.026588
0.027154
0.027840
0.028862
0.029627
0.030511
0.031346
0.031896
0.032816
0.033365
0.034472
0.035109
0.036121
0.036893
0.037869
0.038612
0.039528
0.040339
0.041092
0.043270
0.043489
0.044193
0.044865
0.045595
0.046326
0.047052
0.047786
0.048535
0.049276
0.050019
0.050760
0.051504
0.052245
0.052985
0.053724
0.054463
0.055198
0.055933
0.056665
0.057397
0.058127
0.058856
0.059581
0.060306
0.061029
0.061751
0.062470
0.063188
0.063904
0.064617
0.065330
0.066039
0.066750
0.067457
0.068163
0.068867
0.069571
0.070273
0.070973
0.071672
0.072370
0.073066
0.073760
0.074453
0.075144
0.075834
-0.058741
-0.058822
-0.060211
-0.057630
-0.052745
-0.051003
-0.056507
-0.053040
0.067622
0.066877
0.020217
0.023428
0.020281
0.023142
-0.043926
-0.043019
-0.042038
-0.045076
-0.062803
-0.065517
-0.066057
-0.062012
-0.030285
-0.029964
-0.028917
-0.028532
-0.009909
-0.009313
-0.008589
-0.011040
0.010522
0.011367
0.011773
0.012694
0.074099
0.075457
0.075363
-0.024541
-0.023074
-0.032552
-0.031160
-0.032639
-0.021443
-0.020607
-0.021936
-0.020368
-0.039113
-0.042674
-0.034834
-0.011664
-0.012776
-0.011576
-0.013129
-0.003125
-0.002230
-0.001952
0.004467
0.006960
0.004620
-0.001396
-0.002972
-0.003696
-0.045629
-0.003747
-0.034319
-0.034937
-0.038423
-0.037266
0.043169
0.044467
0.042743
-0.002167
-0.000378
-0.000347
0.004480
0.006391
0.006039
0.045552
0.005762
0.011446
0.012278
0.012707
0.010961
0.030723
0.033533
0.033043
0.037789
0.035288
0.035185
-0.030057
-0.030516
-0.027878
-0.039746
-0.035098
-0.037990
-0.028312
-0.034091
-0.051390
-0.049101
-0.051606
-0.049597
0.003839
-0.000015
0.003879
-0.002609
-0.043844
-0.042884
-0.038714
0.042170
0.043501
0.041311
-0.048629
-0.058144
-0.062259
-0.060876
-0.025715
-0.023658
-0.023174
-0.021405
-0.065332
-0.060858
-0.057565
-0.065731
0.063653
0.064958
0.065719
-0.002138
0.000170
0.002277
-0.042183
-0.040131
0.005435
-0.017512
-0.017224
-0.020086
-0.015249
0.040559
0.040271
0.038711
-0.011846
-0.011313
-0.013542
0.042054
-0.061880
-0.061280
-0.060886
-0.033658
-0.033046
-0.031533
-0.069682
-0.069503
-0.031740
-0.012248
-0.011969
-0.008769
-0.069637
-0.008138
0.004470
0.007364
-0.060812
-0.059562
-0.058022
-0.031582
-0.031700
-0.030498
-0.032627
-0.032447
0.047155
0.048213
0.047210
0.016174
0.014259
0.013787
0.010726
0.012494
0.010073
0.003306
0.003390
0.002310
0.009144
-0.042738
-0.043632
-0.044116
-0.011570
-0.013005
-0.012587
-0.005614
-0.011542
-0.066031
-0.064201
-0.067057
-0.031152
-0.032616
0.063509
0.001817
0.061061
0.060555
0.059533
-0.013475
-0.011948
-0.021041
-0.021966
0.054297
0.055295
0.051806
-0.022799
-0.024674
-0.023407
0.024313
0.023529
0.026840
0.020496
0.061923
0.062766
0.043967
0.018367
0.015634
0.016396
0.003410
0.004525
0.004840
0.037369
0.042302
0.029918
0.034081
0.038970
0.040689
0.039113
-0.029629
-0.031684
-0.032213
-0.033896
-0.033584
0.004644
0.058548
0.056503
0.058490
0.044109
0.040842
0.043438
0.041681
0.043165
0.045595
0.044989
0.055750
0.055520
-0.005710
-0.004373
-0.004084
-0.005906
-0.010721
-0.009646
-0.010077
-0.008946
0.027174
0.025509
0.027628
0.025792
0.026683
0.025234
0.040452
0.042021
0.040940
0.058047
0.057174
-0.017340
-0.017149
-0.018943
-0.016454
-0.016680
-0.014669
-0.014549
-0.018578
-0.018944
-0.017593
-0.006695
-0.007917
-0.007115
-0.007784
0.017812
0.018084
0.019244
0.016572
-0.005407
-0.015992
-0.015731
-0.016230
-0.015476
-0.014049
-0.016827
0.051562
0.050266
0.050008
0.048758
0.012183
0.013335
-0.007204
-0.007070
-0.005233
0.009823
0.009978
0.008580
0.008999
0.007699
0.008560
0.008551
0.000062
-0.000674
0.000803
-0.001565
0.035235
0.035915
-0.019100
-0.017749
-0.019140
0.006150
0.006305
0.005159
0.031686
0.028529
0.027110
0.007400
0.003653
0.004691
0.003063
0.040256
0.040418
0.034526
0.036064
0.034465
0.036145
0.023343
0.023914
0.022127
0.023069
-0.067650
-0.068890
-0.070888
-0.064038
-0.042710
-0.041508
-0.041618
-0.025469
-0.021363
-0.038845
0.041811
-0.043889
-0.044408
-0.046359
-0.046667
0.009781
0.013092
0.013856
0.016959
-0.024186
-0.019992
-0.019290
-0.016300
0.054137
0.055157
0.055342
0.056161
0.042090
0.039376
-0.063272
-0.067832
-0.068777
-0.066050
-0.067638
-0.066465
-0.067243
-0.063042
-0.061299
0.003996
0.002030
0.002754
0.028887
0.026099
-0.037739
-0.037185
-0.039453
-0.038591
-0.040865
-0.008989
-0.008242
-0.010989
-0.010410
-0.045202
-0.046449
-0.046904
-0.045427
-0.018275
-0.014520
-0.060167
-0.059231
-0.057730
-0.058595
-0.060840
-0.067016
-0.068491
-0.067377
-0.066519
-0.065963
-0.057641
-0.056236
-0.055816
-0.057102
-0.055277
-0.013996
-0.012083
-0.012745
0.012878
-0.012284
-0.022319
-0.011304
-0.026890
-0.039222
0.069697
0.068452
0.071176
0.066672
0.064393
0.066306
-0.051643
-0.052398
-0.053673
-0.058500
-0.053152
-0.053758
-0.060547
0.060810
0.065909
0.065210
0.060971
0.002587
0.002393
-0.041860
-0.040239
-0.041667
-0.039690
-0.060295
-0.061294
-0.071797
-0.070631
-0.070059
-0.071404
0.067725
0.067462
0.065487
0.066775
-0.047062
-0.045309
0.022998
0.025659
0.022043
0.017766
0.026736
0.020836
0.012390
0.013352
0.001899
-0.020876
-0.021137
-0.018750
-0.070951
-0.070873
-0.072380
-0.069618
0.072732
0.040025
-0.054523
-0.054954
-0.057061
-0.073070
-0.072800
-0.056459
0.061190
0.060458
0.062095
-0.060760
-0.059691
-0.061278
-0.066918
-0.059678
-0.058698
0.071554
0.073139
0.072097
0.072544
0.073373
0.017315
0.020123
-0.056553
-0.056302
-0.054448
0.073769
0.030464
0.032277
0.034316
-0.041516
-0.038557
-0.037147
-0.040389
-0.035882
-0.034630
-0.025891
-0.024135
-0.066861
-0.067133
-0.071107
-0.069171
-0.068459
-0.067136
-0.039876
0.043632
-0.041118
-0.069544
-0.071014
-0.069761
-0.068759
0.072884
0.070356
-0.063658
-0.065327
-0.064705
0.074192
-0.070555
0.062668
0.064807
0.062613
-0.054451
-0.055883
-0.053920
-0.014708
-0.008515
-0.008259
-0.002646
-0.001732
-0.061912
-0.060662
-0.062788
-0.063853
0.028818
0.025250
-0.052831
-0.052189
-0.054118
-0.052729
-0.037109
-0.037159
-0.039893
-0.037480
-0.040437
-0.045120
-0.041193
-0.041561
-0.045803
-0.070700
-0.071910
0.061580
0.063135
-0.046357
-0.045113
-0.048332
-0.049081
-0.051817
0.042122
0.042576
0.041315
-0.030968
-0.032435
-0.044820
-0.046997
-0.030473
-0.028263
0.012974
0.007917
0.008179
0.011532
-0.068804
-0.051163
-0.050711
-0.051518
-0.049641
0.011188
0.063316
0.062667
0.061503
0.061003
-0.010321
-0.010165
-0.005482
-0.005586
-0.001694
-0.000966
0.058854
0.060234
0.073808
0.071167
-0.001937
0.001529
0.065221
0.067685
-0.067611
-0.043089
-0.047487
-0.053499
-0.053767
-0.052285
-0.054406
-0.054748
0.024855
-0.067280
-0.072518
0.026650
0.009087
0.006319
0.071604
0.071465
0.072027
-0.071475
-0.061322
-0.063238
-0.068424
0.008586
0.006610
0.005038
0.007316
0.060042
-0.059974
-0.059010
-0.056897
-0.055725
0.022948
0.021519
0.019073
0.020971
0.064443
-0.071223
-0.072166
-0.070174
-0.055350
-0.066908
-0.048455
-0.054984
-0.045006
-0.049111
-0.060895
-0.068231
-0.068816
0.012437
0.013137
0.005670
0.019810
-0.013475
-0.019978
0.001729
-0.067541
-0.021406
-0.065135
0.002005
-0.011739
-0.009204
-0.063632
-0.065173
-0.063880
-0.068515
-0.065898
-0.020981
-0.007488
-0.011416
-0.016391
-0.062902
-0.000455
-0.001260
-0.001963
-0.022569
-0.023740
-0.019496
-0.054375
-0.054624
-0.057488
-0.047871
-0.047115
-0.048464
-0.049276
-0.022171
-0.019141
-0.018997
-0.015737
-0.015748
0.016159
0.012429
0.001571
-0.004251
-0.005980
-0.004372
-0.002980
0.018127
0.012309
0.007360
0.007025
0.002411
-0.060261
-0.051014
-0.047458
-0.040606
-0.064188
-0.063756
-0.065007
-0.042985
0.074682
-0.051212
-0.052397
-0.054978
-0.053502
-0.034103
-0.039309
-0.030219
-0.027701
-0.025030
-0.069669
-0.050375
-0.049723
-0.066359
0.052493
0.052532
-0.005324
-0.055557
0.053585
0.069425
-0.051617
-0.058525
-0.052387
0.015224
-0.060387
-0.063463
-0.066598
-0.071295
-0.068713
0.063698
-0.061644
0.005629
0.000683
0.009065
-0.065441
-0.068069
0.068301
-0.050701
-0.050530
-0.051792
-0.064751
0.057060
0.053556
0.056932
0.065439
0.065313
0.066389
-0.063111
-0.060614
-0.060197
-0.061553
-0.065299
0.047146
0.036188
0.036089
0.026522
-0.048454
-0.048672
-0.023065
-0.022072
-0.041824
-0.035371
0.043378
-0.016509
-0.070251
-0.035029
-0.036426
-0.035300
0.002811
-0.030407
-0.028435
-0.028744
-0.062285
-0.053729
-0.048141
-0.047854
-0.042411
-0.060056
-0.025402
-0.028066
-0.027627
0.054834
0.063462
0.058729
0.005537
-0.043632
-0.043733
-0.041321
-0.065790
-0.061277
-0.062189
-0.064839
-0.033796
0.017815
-0.049396
-0.057126
-0.033447
-0.030745
-0.065917
-0.059116
-0.027017
-0.026836
-0.038922
0.010827
0.070395
0.069316
-0.063033
-0.045524
-0.017645
-0.067982
-0.056121
-0.052218
-0.057449
0.023197
-0.070138
0.020550
0.020950
0.019498
-0.026615
-0.016813
-0.065422
-0.029413
-0.041893
-0.045024
-0.046916
0.063746
-0.008960
-0.010456
-0.008037
-0.052117
-0.052833
-0.030882
-0.043454
-0.042986
-0.041681
-0.064939
-0.066197
-0.044619
-0.058676
0.055780
0.056652
-0.038688
-0.039180
-0.040350
0.054194
-0.013969
-0.013138
0.059340
0.060107
0.019938
-0.002665
-0.007769
-0.059439
-0.061343
0.004090
0.006197
0.016145
0.017512
-0.035841
-0.041760
-0.051630
-0.049982
-0.050651
0.046844
0.046419
0.005274
0.009834
-0.044483
-0.063374
-0.059052
-0.034126
-0.034762
-0.032647
-0.056667
-0.066626
-0.054633
-0.019979
-0.023166
-0.051565
-0.052938
-0.052673
0.062846
-0.026809
-0.025658
-0.029433
-0.063177
-0.062178
-0.048397
-0.046535
-0.035534
-0.029709
0.001686
-0.008173
0.023700
0.066322
-0.066102
-0.032410
-0.029882
-0.039540
-0.046447
-0.049061
-0.030195
-0.032080
-0.032568
0.052019
-0.016235
-0.025279
-0.027511
-0.005248
-0.015891
-0.037660
-0.037868
-0.036599
0.015290
0.016189
0.019503
0.001975
-0.025849
-0.048222
-0.048934
-0.050148
-0.050488
0.022829
0.024058
0.023167
-0.031649
-0.028239
-0.067069
-0.031353
-0.032563
-0.030739
-0.033451
0.012457
0.070722
0.070159
0.008871
0.021724
0.006278
0.015073
-0.057494
-0.057055
-0.056377
-0.048840
-0.047740
-0.047775
-0.032924
0.048917
0.046150
-0.013012
0.000909
-0.000873
-0.049944
-0.002390
-0.049612
-0.048420
-0.058763
-0.058607
-0.057638
-0.037548
-0.002906
-0.000913
-0.003280
0.000074
0.069692
-0.055501
-0.056578
0.050080
-0.054408
-0.054996
0.061002
0.058447
0.057341
0.054115
0.055160
0.050212
0.054447
-0.062661
-0.061677
-0.062812
-0.044056
-0.048223
-0.049888
-0.007018
-0.011248
-0.037540
-0.058030
-0.045378
-0.037659
-0.028051
-0.059606
-0.059499
0.011767
-0.036055
-0.035643
-0.050179
-0.063070
0.069258
-0.017017
-0.059293
-0.064711
-0.054719
-0.014792
-0.019259
0.002537
-0.013396
-0.016609
-0.018582
-0.022637
-0.028487
-0.003756
-0.008886
-0.000317
-0.008202
0.003189
-0.042758
-0.053598
0.050050
0.050997
-0.048476
-0.037983
-0.023305
-0.025616
-0.027893
0.052000
0.044817
-0.006057
-0.008108
-0.008151
-0.006527
0.015339
0.016459
-0.046477
-0.047017
-0.045915
-0.057919
-0.006168
0.003536
-0.041337
0.039673
0.042633
-0.044077
-0.030217
-0.024932
-0.028144
0.070328
0.053550
0.057400
0.057470
-0.048589
-0.050748
0.069198
-0.035813
-0.021864
-0.037275
0.038290
-0.042943
-0.043509
-0.041907
-0.044411
-0.048544
-0.029093
-0.045215
0.034850
0.031923
0.030565
0.037854
0.039124
0.038158
0.036193
0.037744
0.018057
0.050264
0.048841
-0.045561
0.024383
0.019304
-0.036508
-0.036290
-0.035421
0.053145
0.049451
-0.022840
-0.035895
-0.027144
-0.042844
-0.039092
-0.019554
-0.019140
-0.021165
0.069526
0.068961
-0.029467
-0.020106
-0.035099
0.027672
0.048025
0.050130
0.051664
0.037897
0.038035
0.047442
-0.048373
-0.056294
-0.055173
-0.006647
-0.010276
-0.019927
-0.072873
-0.017980
0.033810
0.025246
0.027720
0.030095
-0.033792
-0.034495
-0.033456
-0.035103
0.035545
-0.040190
-0.040714
-0.039256
-0.021663
0.033655
0.034314
-0.072985
0.052884
0.052851
-0.046314
-0.003827
-0.072478
0.051426
-0.004707
0.031216
-0.035506
0.052892
-0.053155
0.035794
-0.034199
-0.030827
-0.016525
-0.020862
-0.051578
0.057985
0.059301
0.050784
0.065562
0.014785
0.015905
0.015827
-0.017787
-0.038597
-0.016566
-0.013061
0.014760
0.016871
-0.038987
0.017105
-0.026455
-0.028030
-0.026754
-0.024969
-0.026177
-0.025106
-0.024342
-0.023429
-0.022856
-0.055761
0.010594
-0.017087
0.069003
0.016750
0.018217
-0.034047
0.014989
-0.001269
-0.001057
-0.048356
-0.047922
-0.048858
0.003898
0.005248
0.002440
0.044842
0.045558
0.040156
0.041738
0.044556
0.046205
0.045781
0.045661
-0.048769
-0.070213
0.006586
0.006747
0.005386
0.010548
-0.031254
0.019765
0.021437
0.021525
-0.002106
0.000032
-0.023406
-0.022395
0.022972
0.021909
0.023634
-0.002344
-0.003347
0.009216
0.000856
0.001462
-0.045481
-0.044547
0.054661
0.056348
-0.002212
-0.000585
-0.000736
0.055478
0.053747
0.047404
0.045556
-0.046456
0.028443
0.047388
-0.022711
-0.021514
-0.021148
0.032801
0.034438
0.032507
-0.026153
-0.042117
0.034425
-0.038837
-0.038942
-0.040198
0.036433
0.032218
-0.003272
-0.004305
-0.018225
-0.017016
-0.018111
0.037706
0.037736
0.036285
-0.005299
-0.004225
-0.019498
-0.005684
-0.017312
-0.015728
-0.014952
0.043756
0.042310
-0.056457
-0.057398
-0.013332
-0.012338
-0.011382
-0.012711
-0.011463
-0.068356
-0.005058
-0.033984
-0.034801
-0.033555
0.040654
-0.029756
-0.035906
-0.036489
-0.037242
0.024442
-0.013522
-0.053499
0.023838
0.044457
0.043264
0.028560
0.029516
0.030177
0.031240
0.010061
0.010506
0.011238
0.009354
0.009929
0.027624
0.052654
0.051337
-0.015984
-0.015211
-0.015125
-0.022394
-0.020783
-0.008509
-0.007420
-0.008628
0.012231
-0.027948
0.012989
0.013590
0.014310
0.012218
0.053782
0.007191
0.007693
0.049956
0.049832
0.051412
0.048258
0.021656
0.038156
-0.021161
-0.020158
0.022213
0.025027
0.024602
0.002282
0.001593
-0.026485
-0.027293
-0.027953
-0.026072
-0.025312
-0.006181
-0.005320
-0.006600
0.020153
0.020559
0.018716
0.020376
0.021518
0.046812
0.046341
0.039818
0.036547
0.031167
0.031732
0.032937
0.032667
0.033953
0.032967
-0.033943
0.043781
0.045071
0.045559
0.049403
0.048027
0.054376
0.054862
-0.007535
-0.027107
-0.027022
0.055892
0.057506
-0.043272
0.056629
0.045952
0.049350
0.035012
0.058559
-0.072103
-0.072395
-0.072079
-0.072492
-0.069182
0.010482
-0.014606
0.000775
-0.027085
-0.026697
-0.027727
-0.070081
-0.022678
0.034404
0.037128
0.023735
0.018172
0.029904
0.029994
0.028640
-0.027188
0.029062
0.000326
0.000986
0.001807
-0.027326
0.052346
0.001893
0.030356
0.029475
0.058986
0.060303
0.045163
0.046039
0.047269
0.048585
0.048597
0.008199
0.009267
-0.056874
0.026746
0.046421
0.047525
0.048473
-0.004646
-0.003786
-0.003296
-0.024119
-0.023425
-0.016988
-0.018374
-0.008633
-0.010027
0.013623
0.011995
0.011466
0.036206
-0.026344
-0.025311
-0.028360
0.057071
0.055686
0.030398
0.023849
0.021736
0.014926
-0.020090
-0.022707
-0.025561
0.059292
0.019954
0.018043
0.017986
0.058106
0.058431
0.057100
-0.046147
0.032430
-0.043176
-0.013418
-0.013858
-0.014748
-0.046940
0.015562
-0.033971
-0.064802
-0.025353
0.010382
0.009971
-0.005642
-0.002604
0.014740
-0.014566
-0.013964
-0.012817
0.013931
0.032079
-0.025674
-0.019268
-0.020221
-0.013244
-0.014581
0.016186
-0.013989
-0.062337
-0.062523
0.038980
0.013475
-0.037817
0.003196
0.002907
0.027283
0.007501
0.053939
0.047470
0.048960
-0.040646
0.013139
-0.024338
0.022413
-0.058476
-0.021895
-0.024393
0.019327
0.020489
0.019057
0.006554
0.007519
0.028980
0.026861
-0.051873
-0.051789
0.001604
-0.003735
0.024905
0.006944
0.002715
-0.015791
0.049375
-0.014402
0.050264
0.049835
0.001871
-0.029395
-0.028443
0.053759
0.051921
0.027888
0.027599
-0.001272
0.043401
0.045242
0.044368
0.030564
0.031874
0.057730
0.058384
0.022201
0.036530
0.038604
0.026373
-0.060067
0.046422
0.032156
0.026340
-0.028966
0.015985
0.034752
-0.041503
-0.034244
0.037648
0.006718
0.048893
0.051734
-0.025972
0.000946
-0.062842
-0.040075
-0.006318
-0.007436
-0.008674
-0.012060
-0.044320
-0.024936
-0.015968
-0.005718
0.030610
0.015469
0.016087
0.017545
0.009168
0.048904
-0.009148
0.040136
0.037869
0.037190
-0.037408
-0.022227
-0.006246
0.000441
0.001125
0.054377
0.040630
-0.036577
0.019261
0.018173
-0.005414
0.029260
0.059597
0.036180
0.040726
0.040296
-0.027938
0.039370
-0.010979
0.028693
0.058594
0.021733
-0.010531
-0.009595
-0.008839
-0.011614
-0.011031
-0.009856
-0.010002
0.007902
0.007451
0.019368
-0.002722
0.024857
0.025563
0.026447
-0.008124
0.005715
0.031695
0.042459
0.013097
-0.009431
0.013875
0.017746
0.018220
0.031057
-0.009535
0.005902
0.004595
0.034236
0.016718
0.034297
-0.010412
0.004834
0.000514
0.057360
0.043281
0.019858
0.027344
0.027807
0.046411
0.013835
0.024478
0.029963
-0.034909
-0.019896
0.037772
0.024692
0.044512
0.051369
0.052367
-0.010163
-0.004683
0.017400
-0.040676
-0.039691
-0.038585
-0.039890
-0.038614
-0.038607
-0.016477
-0.017431
-0.016366
0.069673
0.066353
0.066374
0.038671
0.037159
0.038680
0.063512
0.070867
0.005044
0.004058
-0.007227
0.045648
0.057310
0.056011
-0.019716
-0.021850
-0.020213
0.072143
0.070297
0.073468
0.069789
-0.020595
-0.039936
-0.037633
-0.022411
-0.022403
-0.020840
-0.018584
-0.017372
-0.022716
-0.024368
0.033449
0.031509
0.031785
0.032305
-0.020820
-0.012762
-0.024458
-0.026725
-0.024877
-0.008284
-0.001506
0.029263
0.025236
0.027907
0.025804
-0.031938
-0.030401
-0.032252
0.017081
0.018014
0.016943
-0.000621
-0.001931
-0.001340
-0.003077
0.072998
0.071598
-0.030949
-0.025856
-0.019959
-0.045859
-0.041561
-0.041568
-0.009271
-0.007457
-0.007724
-0.036805
-0.028449
-0.025877
-0.025455
-0.005499
0.025961
0.028775
0.029482
0.023097
0.049939
0.050170
0.056324
0.043992
0.000450
0.006538
0.005543
0.036007
0.037418
0.038572
0.040392
-0.016002
-0.024912
-0.019434
-0.057981
-0.060702
-0.006778
-0.007639
-0.005931
-0.007930
0.051550
0.053068
0.051841
0.053789
0.015694
0.014717
0.019050
0.012567
0.035875
0.036708
0.035319
0.037366
0.048527
0.048863
0.050255
0.047405
-0.017680
-0.016144
-0.038083
-0.038844
-0.048430
-0.047402
-0.049427
-0.033802
-0.035831
-0.034972
0.039187
0.038508
-0.013975
-0.013515
-0.014918
-0.014453
-0.043740
-0.022534
-0.023879
-0.022427
-0.023851
-0.044156
-0.043719
-0.042661
-0.041658
-0.032807
-0.034103
-0.034421
-0.052800