# vtk DataFile Version 2.0
Test
ASCII
DATASET POLYDATA
POINTS 3011 float
0.000000 0.000000 0.000000
2.000000 0.000000 0.000000
2.000000 4.000000 0.000000
0.000000 4.000000 0.000000
0.000000 0.500000 0.000000
1.500000 2.000000 0.000000
2.000000 2.500000 0.000000
0.285714 0.000000 0.000000
0.571429 0.000000 0.000000
0.857143 0.000000 0.000000
1.142857 0.000000 0.000000
1.428571 0.000000 0.000000
1.714286 0.000000 0.000000
2.000000 0.276366 0.000000
2.000000 0.523709 0.000000
2.000000 0.745076 0.000000
2.000000 0.943195 0.000000
2.000000 1.120508 0.000000
2.000000 1.279199 0.000000
2.000000 1.421225 0.000000
2.000000 1.548336 0.000000
2.000000 1.662097 0.000000
2.000000 1.763911 0.000000
2.000000 1.855033 0.000000
2.000000 1.936585 0.000000
2.000000 2.009573 0.000000
2.000000 2.074896 0.000000
2.000000 2.133358 0.000000
2.000000 2.185681 0.000000
2.000000 2.232509 0.000000
2.000000 2.274419 0.000000
2.000000 2.311927 0.000000
2.000000 2.345497 0.000000
2.000000 2.375541 0.000000
2.000000 2.402430 0.000000
2.000000 2.426495 0.000000
2.000000 2.448033 0.000000
2.000000 2.467309 0.000000
2.000000 2.484560 0.000000
2.000000 2.516256 0.000000
2.000000 2.535859 0.000000
2.000000 2.559499 0.000000
2.000000 2.588006 0.000000
2.000000 2.622383 0.000000
2.000000 2.663839 0.000000
2.000000 2.713831 0.000000
2.000000 2.774116 0.000000
2.000000 2.846815 0.000000
2.000000 2.934483 0.000000
2.000000 3.040202 0.000000
2.000000 3.167691 0.000000
2.000000 3.321430 0.000000
2.000000 3.506825 0.000000
2.000000 3.730395 0.000000
1.714286 4.000000 0.000000
1.428571 4.000000 0.000000
1.142857 4.000000 0.000000
0.857143 4.000000 0.000000
0.571429 4.000000 0.000000
0.285714 4.000000 0.000000
0.000000 3.713462 0.000000
0.000000 3.449209 0.000000
0.000000 3.205508 0.000000
0.000000 2.980761 0.000000
0.000000 2.773493 0.000000
0.000000 2.582346 0.000000
0.000000 2.406065 0.000000
0.000000 2.243495 0.000000
0.000000 2.093568 0.000000
0.000000 1.955302 0.000000
0.000000 1.827789 0.000000
0.000000 1.710194 0.000000
0.000000 1.601745 0.000000
0.000000 1.501730 0.000000
0.000000 1.409494 0.000000
0.000000 1.324431 0.000000
0.000000 1.245984 0.000000
0.000000 1.173639 0.000000
0.000000 1.106920 0.000000
0.000000 1.045390 0.000000
0.000000 0.988645 0.000000
0.000000 0.936314 0.000000
0.000000 0.888053 0.000000
0.000000 0.843545 0.000000
0.000000 0.802499 0.000000
0.000000 0.764646 0.000000
0.000000 0.729736 0.000000
0.000000 0.697541 0.000000
0.000000 0.667851 0.000000
0.000000 0.640469 0.000000
0.000000 0.615217 0.000000
0.000000 0.591929 0.000000
0.000000 0.570453 0.000000
0.000000 0.550646 0.000000
0.000000 0.532380 0.000000
0.000000 0.515535 0.000000
0.000000 0.483768 0.000000
0.000000 0.461535 0.000000
0.000000 0.431083 0.000000
0.000000 0.389372 0.000000
0.000000 0.332241 0.000000
0.000000 0.253989 0.000000
0.000000 0.146807 0.000000
0.010563 0.510563 0.000000
0.021127 0.521127 0.000000
0.031690 0.531690 0.000000
0.042254 0.542254 0.000000
0.052817 0.552817 0.000000
0.063380 0.563380 0.000000
0.073944 0.573944 0.000000
0.084507 0.584507 0.000000
0.095070 0.595070 0.000000
0.105634 0.605634 0.000000
0.116197 0.616197 0.000000
0.126761 0.626761 0.000000
0.137324 0.637324 0.000000
0.147887 0.647887 0.000000
0.158451 0.658451 0.000000
0.169014 0.669014 0.000000
0.179577 0.679577 0.000000
0.190141 0.690141 0.000000
0.200704 0.700704 0.000000
0.211268 0.711268 0.000000
0.221831 0.721831 0.000000
0.232394 0.732394 0.000000
0.242958 0.742958 0.000000
0.253521 0.753521 0.000000
0.264085 0.764085 0.000000
0.274648 0.774648 0.000000
0.285211 0.785211 0.000000
0.295775 0.795775 0.000000
0.306338 0.806338 0.000000
0.316901 0.816901 0.000000
0.327465 0.827465 0.000000
0.338028 0.838028 0.000000
0.348592 0.848592 0.000000
0.359155 0.859155 0.000000
0.369718 0.869718 0.000000
0.380282 0.880282 0.000000
0.390845 0.890845 0.000000
0.401408 0.901408 0.000000
0.411972 0.911972 0.000000
0.422535 0.922535 0.000000
0.433099 0.933099 0.000000
0.443662 0.943662 0.000000
0.454225 0.954225 0.000000
0.464789 0.964789 0.000000
0.475352 0.975352 0.000000
0.485915 0.985915 0.000000
0.496479 0.996479 0.000000
0.507042 1.007042 0.000000
0.517606 1.017606 0.000000
0.528169 1.028169 0.000000
0.538732 1.038732 0.000000
0.549296 1.049296 0.000000
0.559859 1.059859 0.000000
0.570423 1.070423 0.000000
0.580986 1.080986 0.000000
0.591549 1.091549 0.000000
0.602113 1.102113 0.000000
0.612676 1.112676 0.000000
0.623239 1.123239 0.000000
0.633803 1.133803 0.000000
0.644366 1.144366 0.000000
0.654930 1.154930 0.000000
0.665493 1.165493 0.000000
0.676056 1.176056 0.000000
0.686620 1.186620 0.000000
0.697183 1.197183 0.000000
0.707746 1.207746 0.000000
0.718310 1.218310 0.000000
0.728873 1.228873 0.000000
0.739437 1.239437 0.000000
0.750000 1.250000 0.000000
0.760563 1.260563 0.000000
0.771127 1.271127 0.000000
0.781690 1.281690 0.000000
0.792254 1.292254 0.000000
0.802817 1.302817 0.000000
0.813380 1.313380 0.000000
0.823944 1.323944 0.000000
0.834507 1.334507 0.000000
0.845070 1.345070 0.000000
0.855634 1.355634 0.000000
0.866197 1.366197 0.000000
0.876761 1.376761 0.000000
0.887324 1.387324 0.000000
0.897887 1.397887 0.000000
0.908451 1.408451 0.000000
0.919014 1.419014 0.000000
0.929577 1.429577 0.000000
0.940141 1.440141 0.000000
0.950704 1.450704 0.000000
0.961268 1.461268 0.000000
0.971831 1.471831 0.000000
0.982394 1.482394 0.000000
0.992958 1.492958 0.000000
1.003521 1.503521 0.000000
1.014085 1.514085 0.000000
1.024648 1.524648 0.000000
1.035211 1.535211 0.000000
1.045775 1.545775 0.000000
1.056338 1.556338 0.000000
1.066901 1.566901 0.000000
1.077465 1.577465 0.000000
1.088028 1.588028 0.000000
1.098592 1.598592 0.000000
1.109155 1.609155 0.000000
1.119718 1.619718 0.000000
1.130282 1.630282 0.000000
1.140845 1.640845 0.000000
1.151408 1.651408 0.000000
1.161972 1.661972 0.000000
1.172535 1.672535 0.000000
1.183099 1.683099 0.000000
1.193662 1.693662 0.000000
1.204225 1.704225 0.000000
1.214789 1.714789 0.000000
1.225352 1.725352 0.000000
1.235915 1.735915 0.000000
1.246479 1.746479 0.000000
1.257042 1.757042 0.000000
1.267606 1.767606 0.000000
1.278169 1.778169 0.000000
1.288732 1.788732 0.000000
1.299296 1.799296 0.000000
1.309859 1.809859 0.000000
1.320423 1.820423 0.000000
1.330986 1.830986 0.000000
1.341549 1.841549 0.000000
1.352113 1.852113 0.000000
1.362676 1.862676 0.000000
1.373239 1.873239 0.000000
1.383803 1.883803 0.000000
1.394366 1.894366 0.000000
1.404930 1.904930 0.000000
1.415493 1.915493 0.000000
1.426056 1.926056 0.000000
1.436620 1.936620 0.000000
1.447183 1.947183 0.000000
1.457746 1.957746 0.000000
1.468310 1.968310 0.000000
1.478873 1.978873 0.000000
1.489437 1.989437 0.000000
1.510417 2.010417 0.000000
1.520833 2.020833 0.000000
1.531250 2.031250 0.000000
1.541667 2.041667 0.000000
1.552083 2.052083 0.000000
1.562500 2.062500 0.000000
1.572917 2.072917 0.000000
1.583333 2.083333 0.000000
1.593750 2.093750 0.000000
1.604167 2.104167 0.000000
1.614583 2.114583 0.000000
1.625000 2.125000 0.000000
1.635417 2.135417 0.000000
1.645833 2.145833 0.000000
1.656250 2.156250 0.000000
1.666667 2.166667 0.000000
1.677083 2.177083 0.000000
1.687500 2.187500 0.000000
1.697917 2.197917 0.000000
1.708333 2.208333 0.000000
1.718750 2.218750 0.000000
1.729167 2.229167 0.000000
1.739583 2.239583 0.000000
1.750000 2.250000 0.000000
1.760417 2.260417 0.000000
1.770833 2.270833 0.000000
1.781250 2.281250 0.000000
1.791667 2.291667 0.000000
1.802083 2.302083 0.000000
1.812500 2.312500 0.000000
1.822917 2.322917 0.000000
1.833333 2.333333 0.000000
1.843750 2.343750 0.000000
1.854167 2.354167 0.000000
1.864583 2.364583 0.000000
1.875000 2.375000 0.000000
1.885417 2.385417 0.000000
1.895833 2.395833 0.000000
1.906250 2.406250 0.000000
1.916667 2.416667 0.000000
1.927083 2.427083 0.000000
1.937500 2.437500 0.000000
1.947917 2.447917 0.000000
1.958333 2.458333 0.000000
1.968750 2.468750 0.000000
1.979167 2.479167 0.000000
1.989583 2.489583 0.000000
0.206561 0.791563 0.000000
0.205359 0.816165 0.000000
0.186354 0.798211 0.000000
0.221961 0.800924 0.000000
0.280649 1.360489 0.000000
0.304015 1.400469 0.000000
0.229142 1.396096 0.000000
0.275922 1.451476 0.000000
1.869084 2.391788 0.000000
1.857928 2.378421 0.000000
1.238669 2.061899 0.000000
1.278787 2.082276 0.000000
1.238298 2.096047 0.000000
1.277579 2.032995 0.000000
0.402536 1.205823 0.000000
0.415290 1.176040 0.000000
0.428330 1.201952 0.000000
0.387294 1.172617 0.000000
0.146930 1.050586 0.000000
0.109488 1.087198 0.000000
0.102742 1.042403 0.000000
0.157178 1.091184 0.000000
0.588967 1.178581 0.000000
0.593116 1.153718 0.000000
0.608054 1.166752 0.000000
0.612180 1.145944 0.000000
0.860304 1.543784 0.000000
0.868821 1.521840 0.000000
0.878420 1.536650 0.000000
0.845380 1.517623 0.000000
1.129525 1.764330 0.000000
1.142005 1.751560 0.000000
1.145757 1.773681 0.000000
1.159368 1.759106 0.000000
1.968150 2.518865 0.000000
1.986105 2.509269 0.000000
1.986696 2.531115 0.000000
0.668964 1.191005 0.000000
0.683291 1.201259 0.000000
0.557625 1.074830 0.000000
0.569760 1.084377 0.000000
0.557769 1.089278 0.000000
0.707567 1.266174 0.000000
0.719026 1.281845 0.000000
0.700768 1.282275 0.000000
0.722329 1.266956 0.000000
0.468225 2.149688 0.000000
0.419106 2.064198 0.000000
0.523878 2.082648 0.000000
0.838546 1.421191 0.000000
0.823708 1.410355 0.000000
0.840477 1.404206 0.000000
0.818500 1.425973 0.000000
0.953187 1.488222 0.000000
0.959780 1.473222 0.000000
0.967054 1.485637 0.000000
1.047418 1.769126 0.000000
1.080240 1.782403 0.000000
1.047768 1.802712 0.000000
0.971392 1.693320 0.000000
0.949208 1.720793 0.000000
0.940644 1.684781 0.000000
0.381391 2.160909 0.000000
0.944091 1.477800 0.000000
0.530075 1.477351 0.000000
0.521303 1.516669 0.000000
0.474240 1.491166 0.000000
0.489489 1.546185 0.000000
1.537370 2.239326 0.000000
1.555275 2.267640 0.000000
1.532966 2.278201 0.000000
0.962010 1.661716 0.000000
0.986804 1.643200 0.000000
0.986259 1.672729 0.000000
1.049149 1.737940 0.000000
1.075111 1.737123 0.000000
[...]
POINT_DATA 3011
SCALARS UX float 1
LOOKUP_TABLE default
-0.036754
0.042463
0.000000
-0.000000
-0.038414
0.022438
0.040835
-0.025493
-0.014212
-0.002916
0.008398
0.019737
0.031091
0.042480
0.042523
0.042593
0.042678
0.042774
0.042876
0.042974
0.043049
0.043074
0.043039
0.042921
0.042744
0.042521
0.042292
0.042069
0.041865
0.041686
0.041533
0.041403
0.041291
0.041195
0.041113
0.041042
0.040980
0.040925
0.040877
0.040791
0.040737
0.040672
0.040590
0.040496
0.040370
0.040205
0.039988
0.039661
0.039189
0.038464
0.037233
0.035051
0.030886
0.022854
-0.000000
0.000000
0.000000
-0.000000
-0.000000
0.000000
-0.022755
-0.032207
-0.036281
-0.038267
-0.039153
-0.039494
-0.039580
-0.039586
-0.039565
-0.039543
-0.039534
-0.039541
-0.039556
-0.039578
-0.039604
-0.039631
-0.039659
-0.039687
-0.039714
-0.039741
-0.039768
-0.039795
-0.039820
-0.039843
-0.039864
-0.039882
-0.039897
-0.039909
-0.039920
-0.039932
-0.039948
-0.039959
-0.039946
-0.039890
-0.039982
-0.039818
-0.036802
-0.036751
-0.036703
-0.036716
-0.036726
-0.036738
-0.036747
-0.037851
-0.037484
-0.036996
-0.036682
-0.036393
-0.035836
-0.035446
-0.034991
-0.034585
-0.034105
-0.033671
-0.033514
-0.032978
-0.032429
-0.031867
-0.031531
-0.031266
-0.030879
-0.030300
-0.029980
-0.029307
-0.029120
-0.028590
-0.028243
-0.027807
-0.027305
-0.027056
-0.026487
-0.026356
-0.025773
-0.025487
-0.024833
-0.024442
-0.024037
-0.023629
-0.023189
-0.022726
-0.022430
-0.021980
-0.021473
-0.021120
-0.020569
-0.020007
-0.020014
-0.019566
-0.018884
-0.018605
-0.018079
-0.017789
-0.017358
-0.016787
-0.016327
-0.015830
-0.015503
-0.015118
-0.014785
-0.014353
-0.013929
-0.013332
-0.013074
-0.012788
-0.012207
-0.011729
-0.011265
-0.010890
-0.010465
-0.010286
-0.009742
-0.009082
-0.008731
-0.008162
-0.007973
-0.007375
-0.007118
-0.006809
-0.006407
-0.005833
-0.005521
-0.005091
-0.004644
-0.004310
-0.003788
-0.003433
-0.003043
-0.002374
-0.001986
-0.001740
-0.001154
-0.000550
-0.000425
-0.000013
0.000349
0.000851
0.001258
0.001681
0.002198
0.002580
0.003033
0.003356
0.003859
0.004190
0.004713
0.005354
0.005412
0.006091
0.006551
0.007076
0.007282
0.007661
0.008253
0.008656
0.009113
0.009370
0.009901
0.010375
0.010705
0.011309
0.011745
0.011930
0.012502
0.013089
0.013177
0.013948
0.014246
0.014612
0.015163
0.015567
0.016033
0.016479
0.016782
0.017286
0.017578
0.018183
0.018516
0.019057
0.019469
0.020000
0.020397
0.020892
0.021322
0.021726
0.022907
0.023003
0.023371
0.023727
0.024114
0.024502
0.024889
0.025281
0.025679
0.026074
0.026471
0.026867
0.027264
0.027661
0.028056
0.028452
0.028848
0.029243
0.029637
0.030031
0.030424
0.030817
0.031210
0.031601
0.031992
0.032382
0.032772
0.033161
0.033550
0.033938
0.034325
0.034712
0.035097
0.035484
0.035869
0.036253
0.036638
0.037022
0.037405
0.037788
0.038171
0.038553
0.038935
0.039316
0.039696
0.040076
0.040456
-0.031723
-0.031768
-0.032516
-0.031124
-0.028540
-0.027602
-0.030561
-0.028695
0.035973
0.035566
0.010584
0.012298
0.010615
0.012151
-0.023790
-0.023299
-0.022773
-0.024406
-0.033938
-0.035400
-0.035687
-0.033516
-0.016437
-0.016267
-0.015696
-0.015502
-0.005496
-0.005174
-0.004784
-0.006104
0.005458
0.005920
0.006125
0.006630
0.039541
0.040267
0.040233
-0.013401
-0.012642
-0.017719
-0.017001
-0.017707
-0.011685
-0.011234
-0.011953
-0.011099
-0.021068
-0.023002
-0.018798
-0.006429
-0.007027
-0.006376
-0.007219
-0.001848
-0.001441
-0.001266
0.002200
0.003535
0.002273
-0.000936
-0.001787
-0.002171
-0.024556
-0.002185
-0.018631
-0.018963
-0.020837
-0.020213
0.022852
0.023545
0.022620
-0.001344
-0.000378
-0.000368
0.002215
0.003244
0.003049
0.024127
0.002911
0.005996
0.006389
0.006629
0.005730
0.016182
0.017689
0.017424
0.019969
0.018627
0.018573
-0.016337
-0.016583
-0.015164
-0.021542
-0.019045
-0.020594
-0.015396
-0.018496
-0.027806
-0.026575
-0.027924
-0.026839
0.001848
-0.000203
0.001868
-0.001577
-0.023718
-0.023219
-0.020972
0.022323
0.023033
0.021860
-0.026294
-0.031441
-0.033654
-0.032909
-0.013999
-0.012890
-0.012632
-0.011677
-0.035305
-0.032843
-0.031058
-0.035440
0.033859
0.034549
0.034968
-0.001336
-0.000110
0.001015
-0.022853
-0.021746
0.002695
-0.009593
-0.009439
-0.010978
-0.008376
0.021469
0.021310
0.020477
-0.006541
-0.006256
-0.007456
0.022268
-0.033419
-0.033173
-0.032937
-0.018261
-0.017929
-0.017116
-0.037641
-0.037546
-0.017224
-0.006767
-0.006618
-0.004902
-0.037614
-0.004562
0.002186
0.003738
-0.032865
-0.032197
-0.031365
-0.017140
-0.017239
-0.016616
-0.017692
-0.017604
0.024963
0.025520
0.024999
0.008433
0.007407
0.007158
0.005548
0.006489
0.005189
0.001626
0.001659
0.001080
0.004701
-0.023132
-0.023614
-0.023875
-0.006385
-0.007159
-0.006932
-0.003205
-0.006372
-0.035654
-0.034672
-0.036209
-0.016906
-0.017694
0.033767
0.000812
0.032412
0.032152
0.031600
-0.007408
-0.006585
-0.011472
-0.011955
0.028825
0.029369
0.027491
-0.012413
-0.013422
-0.012724
0.012749
0.012330
0.014100
0.010711
0.032878
0.033332
0.023285
0.009600
0.008139
0.008548
0.001641
0.002216
0.002390
0.019868
0.022599
0.015927
0.018312
0.020617
0.021551
0.020715
-0.016090
-0.017193
-0.017478
-0.018384
-0.018218
0.002339
0.031117
0.030011
0.031073
0.023352
0.021599
0.022991
0.022049
0.022846
0.024149
0.023824
0.029552
0.029425
-0.003233
-0.002512
-0.002359
-0.003335
-0.005924
-0.005343
-0.005578
-0.004966
0.014299
0.013414
0.014548
0.013624
0.014096
0.013314
0.021420
0.022257
0.021678
0.030784
0.030314
-0.009479
-0.009380
-0.010343
-0.009020
-0.009139
-0.008057
-0.007989
-0.010143
-0.010339
-0.009609
-0.003760
-0.004421
-0.003989
-0.004349
0.009361
0.009517
0.010140
0.008701
-0.003071
-0.008745
-0.008618
-0.008902
-0.008495
-0.007727
-0.009196
0.027331
0.026643
0.026504
0.025839
0.006334
0.006960
-0.004037
-0.003969
-0.002980
0.005006
0.005126
0.004447
0.004673
0.003970
0.004438
0.004424
-0.000124
-0.000521
0.000277
-0.001002
0.018600
0.018964
-0.010503
-0.009812
-0.010464
0.003141
0.003219
0.002603
0.016700
0.015008
0.014247
0.003813
0.001790
0.002355
0.001476
0.021289
0.021373
0.018250
0.019075
0.018216
0.019116
0.012315
0.012603
0.011649
0.012137
-0.036539
-0.037210
-0.038280
-0.034598
-0.023119
-0.022470
-0.022537
-0.013831
-0.011747
-0.021137
0.022150
-0.023760
-0.024041
-0.025090
-0.025259
0.005013
0.006781
0.007187
0.008845
-0.013140
-0.010900
-0.010513
-0.008923
0.028704
0.029242
0.029347
0.029776
0.022290
0.020838
-0.034175
-0.036612
-0.037132
-0.035654
-0.036507
-0.035875
-0.036295
-0.034057
-0.033123
0.001963
0.000904
0.001300
0.015226
0.013734
-0.020453
-0.020157
-0.021377
-0.020915
-0.022139
-0.005005
-0.004607
-0.006085
-0.005777
-0.024460
-0.025133
-0.025376
-0.024581
-0.010001
-0.007978
-0.032503
-0.031996
-0.031191
-0.031661
-0.032869
-0.036164
-0.036959
-0.036356
-0.035897
-0.035591
-0.031134
-0.030375
-0.030151
-0.030848
-0.029864
-0.007684
-0.006667
-0.007027
0.006667
-0.007066
-0.012635
-0.006488
-0.015282
-0.021699
0.037227
0.036528
0.038013
0.035590
0.034331
0.035346
-0.027933
-0.028341
-0.029026
-0.031611
-0.028745
-0.029057
-0.032697
0.032449
0.035211
0.034875
0.032580
0.001200
0.001089
-0.022667
-0.021795
-0.022565
-0.021500
-0.032596
-0.033097
-0.038742
-0.038219
-0.037889
-0.038517
0.036052
0.035929
0.034856
0.035528
-0.025467
-0.024523
0.012047
0.013469
0.011539
0.009257
0.014046
0.011060
0.006587
0.007008
0.000921
-0.011400
-0.011542
-0.010254
-0.038287
-0.038246
-0.039058
-0.037569
0.038883
0.022069
-0.029476
-0.029711
-0.030842
-0.039417
-0.039273
-0.030512
0.032527
0.032123
0.033000
-0.032809
-0.032236
-0.033089
-0.036101
-0.032230
-0.031703
0.038142
0.038995
0.038446
0.038666
0.039136
0.009033
0.010537
-0.030580
-0.030442
-0.029445
0.039382
0.016039
0.017012
0.018102
-0.022488
-0.020903
-0.020148
-0.021892
-0.019463
-0.018791
-0.014092
-0.013144
-0.036125
-0.036268
-0.038385
-0.037341
-0.036960
-0.036245
-0.021601
0.023111
-0.022272
-0.037526
-0.038318
-0.037644
-0.037110
0.039002
0.037658
-0.034363
-0.035263
-0.034929
0.039567
-0.038071
0.033360
0.034522
0.033350
-0.029431
-0.030196
-0.029137
-0.007986
-0.004706
-0.004559
-0.001588
-0.001096
-0.033432
-0.032760
-0.033906
-0.034477
0.015170
0.013263
-0.028557
-0.028204
-0.029232
-0.028483
-0.020130
-0.020158
-0.021628
-0.020331
-0.021921
-0.024438
-0.022327
-0.022522
-0.024801
-0.038143
-0.038793
0.032750
0.033596
-0.025098
-0.024430
-0.026163
-0.026568
-0.028039
0.022302
0.022548
0.021888
-0.016825
-0.017616
-0.024266
-0.025439
-0.016556
-0.015367
0.006704
0.004015
0.004154
0.005938
-0.037206
-0.027658
-0.027402
-0.027828
-0.026825
0.005805
0.033632
0.033295
0.032664
0.032407
-0.005715
-0.005639
-0.003137
-0.003187
-0.001111
-0.000726
0.031323
0.032054
0.039433
0.037985
-0.001245
0.000607
0.034730
0.036072
-0.036587
-0.023335
-0.025705
-0.028891
-0.029088
-0.028331
-0.029381
-0.029573
0.013043
-0.036380
-0.039133
0.014006
0.004643
0.003166
0.038144
0.038081
0.038425
-0.038572
-0.033147
-0.034171
-0.036953
0.004376
0.003320
0.002481
0.003699
0.031888
-0.032407
-0.031893
-0.030757
-0.030141
0.012028
0.011271
0.009962
0.010970
0.034243
-0.038440
-0.038946
-0.037873
-0.029895
-0.036115
-0.026006
-0.029534
-0.024174
-0.026347
-0.032711
-0.036820
-0.037135
0.006432
0.006822
0.002846
0.010362
-0.007345
-0.010800
0.000722
-0.036447
-0.011539
-0.035274
0.000865
-0.006442
-0.005084
-0.034352
-0.035181
-0.034483
-0.036984
-0.035577
-0.011334
-0.004110
-0.006237
-0.008849
-0.033963
-0.000408
-0.000836
-0.001214
-0.012311
-0.012942
-0.010659
-0.029412
-0.029548
-0.031086
-0.025895
-0.025486
-0.026213
-0.026652
-0.012092
-0.010467
-0.010387
-0.008639
-0.008643
0.008399
0.006414
0.000667
-0.002462
-0.003389
-0.002520
-0.001764
0.009448
0.006355
0.003722
0.003551
0.001098
-0.032494
-0.027426
-0.025583
-0.021823
-0.034650
-0.034419
-0.035093
-0.023277
0.039840
-0.027706
-0.028346
-0.029734
-0.028938
-0.018492
-0.021273
-0.016413
-0.015070
-0.013633
-0.037621
-0.027251
-0.026898
-0.035842
0.027804
0.027830
-0.003068
-0.030038
0.028389
0.037110
-0.027746
-0.031468
-0.028197
0.007903
-0.032497
-0.034271
-0.035983
-0.038482
-0.037089
0.033856
-0.033295
0.003294
0.000416
0.005184
-0.035314
-0.036735
0.036346
-0.027486
-0.027347
-0.027979
-0.034982
0.030326
0.028442
0.030270
0.034784
0.034728
0.035298
-0.034137
-0.032725
-0.032505
-0.033233
-0.035294
0.025563
0.019886
0.019598
0.014597
-0.026218
-0.026337
-0.012577
-0.012041
-0.022495
-0.019018
0.022963
-0.009055
-0.037928
-0.018998
-0.019750
-0.019142
0.001304
-0.016518
-0.015454
-0.015624
-0.033565
-0.028977
-0.026007
-0.025826
-0.022919
-0.032275
-0.013835
-0.015268
-0.015032
0.029562
0.034253
0.031851
0.003134
-0.023637
-0.023689
-0.022391
-0.035552
-0.033126
-0.033577
-0.035004
-0.018348
0.009288
-0.026626
-0.030772
-0.018162
-0.016708
-0.035601
-0.031961
-0.014693
-0.014593
-0.021089
0.005568
0.037531
0.036969
-0.034047
-0.024425
-0.009651
-0.036710
-0.030354
-0.028256
-0.031028
0.012156
-0.037848
0.010818
0.011025
0.010244
-0.014289
-0.009075
-0.035331
-0.015813
-0.022703
-0.024388
-0.025404
0.034143
-0.005000
-0.005806
-0.004509
-0.028209
-0.028527
-0.016782
-0.023524
-0.023269
-0.022569
-0.034908
-0.035609
-0.024149
-0.031694
0.029587
0.030044
-0.020959
-0.021224
-0.021854
0.028741
-0.007690
-0.007244
0.031519
0.031971
0.010469
-0.001624
-0.004344
-0.032103
-0.033130
0.001976
0.003105
0.009003
0.009972
-0.019364
-0.022546
-0.027916
-0.027029
-0.027391
0.024822
0.024596
0.002608
0.005042
-0.024087
-0.034252
-0.031930
-0.018525
-0.018865
-0.017727
-0.030714
-0.035965
-0.029509
-0.010919
-0.012630
-0.027884
-0.028621
-0.028481
0.033521
-0.014585
-0.013971
-0.015997
-0.034123
-0.033650
-0.026185
-0.025181
-0.019226
-0.016090
0.000857
-0.004550
0.012891
0.035276
-0.035587
-0.017570
-0.016224
-0.021431
-0.025153
-0.026559
-0.016401
-0.017418
-0.017683
0.028380
-0.008781
-0.013582
-0.014781
-0.003016
-0.008687
-0.020400
-0.020560
-0.019903
0.007945
0.008420
0.010184
0.000849
-0.014064
-0.026088
-0.026469
-0.027125
-0.027307
0.012017
0.012660
0.012240
-0.017190
-0.015360
-0.036238
-0.017024
-0.017674
-0.016691
-0.018154
0.006433
0.037663
0.037354
0.004523
0.011470
0.003144
0.007834
-0.031056
-0.030864
-0.030510
-0.026416
-0.025821
-0.025842
-0.017754
0.025932
0.024447
-0.007172
0.000276
-0.000675
-0.027012
-0.001487
-0.026850
-0.026295
-0.031738
-0.031697
-0.031191
-0.020358
-0.001760
-0.000693
-0.001962
-0.000160
0.037134
-0.030042
-0.030569
0.026559
-0.029440
-0.029699
0.032501
0.031138
0.030522
0.028785
0.029330
0.026659
0.028995
-0.033826
-0.033298
-0.033909
-0.023868
-0.026107
-0.026998
-0.003935
-0.006191
-0.020351
-0.031375
-0.024556
-0.020215
-0.015092
-0.032228
-0.032133
0.006075
-0.019328
-0.019331
-0.027138
-0.034087
0.036866
-0.009243
-0.032047
-0.034956
-0.029594
-0.008128
-0.010521
0.001146
-0.007345
-0.009044
-0.010112
-0.012265
-0.015453
-0.002131
-0.004862
-0.000318
-0.004508
0.001576
-0.022933
-0.029254
0.026504
0.027006
-0.026287
-0.020581
-0.012708
-0.013951
-0.015175
0.027890
0.024120
-0.003438
-0.004542
-0.004563
-0.003687
0.008028
0.008606
-0.025153
-0.025449
-0.024920
-0.031291
-0.003509
0.001682
-0.022380
0.020973
0.022566
-0.023855
-0.016342
-0.013520
-0.015215
0.037461
0.028552
0.030624
0.030707
-0.026295
-0.027454
0.037085
-0.019416
-0.011921
-0.020202
0.020230
-0.023257
-0.023580
-0.022781
-0.024032
-0.026263
-0.015805
-0.024539
0.018386
0.016820
0.016092
0.020022
0.020705
0.020184
0.019134
0.019969
0.009425
0.026625
0.025872
-0.024655
0.012887
0.010129
-0.019781
-0.019720
-0.019254
0.028231
0.026237
-0.012433
-0.019457
-0.014748
-0.023216
-0.021195
-0.010682
-0.010462
-0.011551
0.037021
0.036727
-0.016004
-0.010937
-0.018832
0.014544
0.025452
0.026580
0.027405
0.020023
0.020095
0.025138
-0.026179
-0.030404
-0.029846
-0.003745
-0.005708
-0.010879
-0.039324
-0.009832
0.017849
0.013274
0.014578
0.015891
-0.018316
-0.018703
-0.018193
-0.019027
0.018762
-0.021760
-0.022081
-0.021348
-0.011726
0.017759
0.018110
-0.039431
0.028036
0.028012
-0.025055
-0.002239
-0.039232
0.027255
-0.002727
0.016451
-0.019246
0.028045
-0.028742
0.018906
-0.018554
-0.016730
-0.009053
-0.011391
-0.027893
0.031060
0.031873
0.027108
0.035250
0.007746
0.008353
0.008306
-0.009715
-0.020997
-0.009062
-0.007191
0.007751
0.008873
-0.021125
0.009000
-0.014266
-0.015129
-0.014544
-0.013586
-0.014243
-0.013665
-0.013255
-0.012761
-0.012396
-0.030112
0.005451
-0.009350
0.037058
0.008786
0.009542
-0.018370
0.007847
-0.000866
-0.000796
-0.026194
-0.025927
-0.026412
0.001930
0.002658
0.001144
0.023759
0.024156
0.021246
0.022116
0.023600
0.024475
0.024251
0.024186
-0.026379
-0.037927
0.003365
0.003447
0.002715
0.005461
-0.016981
0.010363
0.011265
0.011302
-0.001326
-0.000174
-0.012736
-0.012222
0.012076
0.011502
0.012423
-0.001421
-0.001963
0.004720
0.000291
0.000613
-0.024603
-0.024109
0.028996
0.029896
-0.001354
-0.000477
-0.000563
0.029439
0.028513
0.025114
0.024131
-0.025128
0.014959
0.025102
-0.012375
-0.011728
-0.011532
0.017321
0.018197
0.017167
-0.014232
-0.022811
0.018184
-0.021034
-0.021097
-0.021771
0.019256
0.016999
-0.001918
-0.002471
-0.009997
-0.009370
-0.009895
0.019961
0.019940
0.019200
-0.003006
-0.002425
-0.010631
-0.003216
-0.009475
-0.008619
-0.008203
0.023175
0.022401
-0.030493
-0.031000
-0.007339
-0.006848
-0.006351
-0.006988
-0.006356
-0.036895
-0.002911
-0.018429
-0.018866
-0.018192
0.021506
-0.016156
-0.019462
-0.019775
-0.020181
0.012882
-0.007429
-0.028930
0.012597
0.023535
0.022916
0.015058
0.015578
0.015922
0.016510
0.005245
0.005476
0.005861
0.004846
0.005146
0.014567
0.027901
0.027202
-0.008748
-0.008398
-0.008320
-0.012201
-0.011332
-0.004779
-0.004213
-0.004794
0.006394
-0.015179
0.006824
0.007121
0.007525
0.006409
0.028501
0.003660
0.003948
0.026468
0.026407
0.027236
0.025571
0.011359
0.020175
-0.011569
-0.011050
0.011717
0.013194
0.012995
0.001072
0.000700
-0.014394
-0.014831
-0.015186
-0.014173
-0.013760
-0.003523
-0.003071
-0.003704
0.010617
0.010852
0.009835
0.010761
0.011337
0.024801
0.024550
0.021057
0.019299
0.016449
0.016756
0.017398
0.017246
0.017928
0.017429
-0.018408
0.023190
0.023869
0.024128
0.026157
0.025447
0.028810
0.029072
-0.004203
-0.014805
-0.014716
0.029676
0.030536
-0.023423
0.030019
0.024349
0.026175
0.018481
0.031093
-0.038907
-0.039061
-0.038960
-0.039109
-0.037337
0.006114
-0.008233
0.000232
-0.014716
-0.014519
-0.015054
-0.037869
-0.012358
0.018147
0.019607
0.013434
0.010434
0.015763
0.015832
0.015141
-0.014882
0.015356
0.000017
0.000317
0.000758
-0.014851
0.027776
0.000852
0.016010
0.015533
0.031301
0.032002
0.023907
0.024367
0.025036
0.025731
0.025729
0.004247
0.004817
-0.030716
0.014071
0.024591
0.025182
0.025690
-0.002673
-0.002292
-0.002015
-0.013131
-0.012755
-0.009296
-0.010041
-0.004809
-0.005562
0.007086
0.006205
0.005929
0.019124
-0.014321
-0.013765
-0.015406
0.030295
0.029558
0.016006
0.012534
0.011404
0.007776
-0.010963
-0.012373
-0.013908
0.031479
0.010455
0.009431
0.009405
0.030843
0.031010
0.030302
-0.024989
0.017090
-0.023460
-0.007371
-0.007606
-0.008087
-0.025463
0.008193
-0.018295
-0.034990
-0.013783
0.005373
0.005204
-0.003162
-0.001571
0.007695
-0.007989
-0.007669
-0.007050
0.007269
0.016917
-0.014026
-0.010515
-0.011029
-0.007337
-0.007997
0.008463
-0.007738
-0.033652
-0.033773
0.020611
0.007036
-0.020491
0.001506
0.001337
0.014364
0.003848
0.028627
0.025244
0.026008
-0.022112
0.007177
-0.013245
0.011741
-0.031582
-0.012028
-0.013264
0.010156
0.010760
0.010054
0.003368
0.003884
0.015277
0.014143
-0.028055
-0.028007
0.000862
-0.002112
0.013124
0.003496
0.001255
-0.008650
0.026170
-0.007902
0.026647
0.026420
0.000821
-0.016031
-0.015526
0.028525
0.027538
0.014696
0.014585
-0.000836
0.023102
0.023962
0.023495
0.016155
0.016824
0.030632
0.030975
0.011915
0.019325
0.020472
0.013920
-0.032443
0.024574
0.017045
0.013891
-0.015728
0.008414
0.018383
-0.022558
-0.018620
0.019924
0.003417
0.025904
0.027400
-0.014121
0.000348
-0.033927
-0.021701
-0.003563
-0.004162
-0.004827
-0.006640
-0.024054
-0.013621
-0.008814
-0.003239
0.016149
0.008095
0.008391
0.009179
0.004726
0.025930
-0.005084
0.021235
0.020019
0.019636
-0.020374
-0.012110
-0.003606
-0.000004
0.000359
0.028823
0.021486
-0.019823
0.010085
0.009582
-0.003077
0.015403
0.031619
0.019117
0.021570
0.021346
-0.015475
0.020840
-0.006065
0.015133
0.031081
0.011407
-0.005813
-0.005402
-0.005001
-0.006399
-0.006097
-0.005548
-0.005524
0.004053
0.003820
0.010137
-0.001617
0.013076
0.013460
0.013924
-0.004528
0.002914
0.016715
0.022474
0.006872
-0.005252
0.007272
0.009344
0.009554
0.016388
-0.005287
0.002955
0.002307
0.018073
0.008763
0.018108
-0.005761
0.002422
0.000112
0.030427
0.022916
0.010406
0.014440
0.014683
0.024578
0.007243
0.012885
0.015788
-0.018928
-0.010854
0.019975
0.012983
0.023578
0.027233
0.027771
-0.005630
-0.002681
0.009122
-0.022382
-0.021847
-0.021255
-0.021918
-0.021288
-0.021276
-0.009362
-0.009836
-0.009316
0.036902
0.035122
0.035131
0.020310
0.019491
0.020314
0.033599
0.037541
0.002241
0.001708
-0.004358
0.024062
0.030327
0.029627
-0.011107
-0.012257
-0.011374
0.038274
0.037270
0.038971
0.037019
-0.011582
-0.021997
-0.020749
-0.012558
-0.012554
-0.011712
-0.010485
-0.009836
-0.012713
-0.013611
0.017497
0.016446
0.016599
0.016872
-0.011701
-0.007351
-0.013661
-0.014883
-0.013884
-0.004931
-0.001287
0.015261
0.013098
0.014532
0.013403
-0.017690
-0.016861
-0.017865
0.008678
0.009185
0.008631
-0.000830
-0.001535
-0.001217
-0.002150
0.038701
0.037966
-0.017164
-0.014397
-0.011221
-0.025151
-0.022836
-0.022846
-0.005485
-0.004507
-0.004653
-0.020280
-0.015806
-0.014417
-0.014193
-0.003453
0.013486
0.014996
0.015377
0.011946
0.026357
0.026485
0.029783
0.023167
-0.000238
0.003038
0.002502
0.018876
0.019632
0.020251
0.021225
-0.009086
-0.013880
-0.010926
-0.031665
-0.033135
-0.004142
-0.004611
-0.003687
-0.004753
0.027226
0.028032
0.027393
0.028425
0.007963
0.007436
0.009768
0.006279
0.018796
0.019244
0.018488
0.019603
0.025601
0.025780
0.026518
0.025008
-0.009947
-0.009161
-0.020924
-0.021334
-0.026558
-0.026003
-0.027001
-0.018687
-0.019664
-0.019277
0.020626
0.020254
-0.008028
-0.007776
-0.008531
-0.008256
-0.023962
-0.012563
-0.013262
-0.012572
-0.013267
-0.024244
-0.024020
-0.023453
-0.022906
-0.018153
-0.018758
-0.018931