# vtk DataFile Version 2.0
Test
ASCII
DATASET POLYDATA
POINTS 3011 float
0.000000 0.000000 0.000000
2.000000 0.000000 0.000000
2.000000 4.000000 0.000000
0.000000 4.000000 0.000000
0.000000 0.500000 0.000000
1.500000 2.000000 0.000000
2.000000 2.500000 0.000000
0.285714 0.000000 0.000000
0.571429 0.000000 0.000000
0.857143 0.000000 0.000000
1.142857 0.000000 0.000000
1.428571 0.000000 0.000000
1.714286 0.000000 0.000000
2.000000 0.276366 0.000000
2.000000 0.523709 0.000000
2.000000 0.745076 0.000000
2.000000 0.943195 0.000000
2.000000 1.120508 0.000000
2.000000 1.279199 0.000000
2.000000 1.421225 0.000000
2.000000 1.548336 0.000000
2.000000 1.662097 0.000000
2.000000 1.763911 0.000000
2.000000 1.855033 0.000000
2.000000 1.936585 0.000000
2.000000 2.009573 0.000000
2.000000 2.074896 0.000000
2.000000 2.133358 0.000000
2.000000 2.185681 0.000000
2.000000 2.232509 0.000000
2.000000 2.274419 0.000000
2.000000 2.311927 0.000000
2.000000 2.345497 0.000000
2.000000 2.375541 0.000000
2.000000 2.402430 0.000000
2.000000 2.426495 0.000000
2.000000 2.448033 0.000000
2.000000 2.467309 0.000000
2.000000 2.484560 0.000000
2.000000 2.516256 0.000000
2.000000 2.535859 0.000000
2.000000 2.559499 0.000000
2.000000 2.588006 0.000000
2.000000 2.622383 0.000000
2.000000 2.663839 0.000000
2.000000 2.713831 0.000000
2.000000 2.774116 0.000000
2.000000 2.846815 0.000000
2.000000 2.934483 0.000000
2.000000 3.040202 0.000000
2.000000 3.167691 0.000000
2.000000 3.321430 0.000000
2.000000 3.506825 0.000000
2.000000 3.730395 0.000000
1.714286 4.000000 0.000000
1.428571 4.000000 0.000000
1.142857 4.000000 0.000000
0.857143 4.000000 0.000000
0.571429 4.000000 0.000000
0.285714 4.000000 0.000000
0.000000 3.713462 0.000000
0.000000 3.449209 0.000000
0.000000 3.205508 0.000000
0.000000 2.980761 0.000000
0.000000 2.773493 0.000000
0.000000 2.582346 0.000000
0.000000 2.406065 0.000000
0.000000 2.243495 0.000000
0.000000 2.093568 0.000000
0.000000 1.955302 0.000000
0.000000 1.827789 0.000000
0.000000 1.710194 0.000000
0.000000 1.601745 0.000000
0.000000 1.501730 0.000000
0.000000 1.409494 0.000000
0.000000 1.324431 0.000000
0.000000 1.245984 0.000000
0.000000 1.173639 0.000000
0.000000 1.106920 0.000000
0.000000 1.045390 0.000000
0.000000 0.988645 0.000000
0.000000 0.936314 0.000000
0.000000 0.888053 0.000000
0.000000 0.843545 0.000000
0.000000 0.802499 0.000000
0.000000 0.764646 0.000000
0.000000 0.729736 0.000000
0.000000 0.697541 0.000000
0.000000 0.667851 0.000000
0.000000 0.640469 0.000000
0.000000 0.615217 0.000000
0.000000 0.591929 0.000000
0.000000 0.570453 0.000000
0.000000 0.550646 0.000000
0.000000 0.532380 0.000000
0.000000 0.515535 0.000000
0.000000 0.483768 0.000000
0.000000 0.461535 0.000000
0.000000 0.431083 0.000000
0.000000 0.389372 0.000000
0.000000 0.332241 0.000000
0.000000 0.253989 0.000000
0.000000 0.146807 0.000000
0.010563 0.510563 0.000000
0.021127 0.521127 0.000000
0.031690 0.531690 0.000000
0.042254 0.542254 0.000000
0.052817 0.552817 0.000000
0.063380 0.563380 0.000000
0.073944 0.573944 0.000000
0.084507 0.584507 0.000000
0.095070 0.595070 0.000000
0.105634 0.605634 0.000000
0.116197 0.616197 0.000000
0.126761 0.626761 0.000000
0.137324 0.637324 0.000000
0.147887 0.647887 0.000000
0.158451 0.658451 0.000000
0.169014 0.669014 0.000000
0.179577 0.679577 0.000000
0.190141 0.690141 0.000000
0.200704 0.700704 0.000000
0.211268 0.711268 0.000000
0.221831 0.721831 0.000000
0.232394 0.732394 0.000000
0.242958 0.742958 0.000000
0.253521 0.753521 0.000000
0.264085 0.764085 0.000000
0.274648 0.774648 0.000000
0.285211 0.785211 0.000000
0.295775 0.795775 0.000000
0.306338 0.806338 0.000000
0.316901 0.816901 0.000000
0.327465 0.827465 0.000000
0.338028 0.838028 0.000000
0.348592 0.848592 0.000000
0.359155 0.859155 0.000000
0.369718 0.869718 0.000000
0.380282 0.880282 0.000000
0.390845 0.890845 0.000000
0.401408 0.901408 0.000000
0.411972 0.911972 0.000000
0.422535 0.922535 0.000000
0.433099 0.933099 0.000000
0.443662 0.943662 0.000000
0.454225 0.954225 0.000000
0.464789 0.964789 0.000000
0.475352 0.975352 0.000000
0.485915 0.985915 0.000000
0.496479 0.996479 0.000000
0.507042 1.007042 0.000000
0.517606 1.017606 0.000000
0.528169 1.028169 0.000000
0.538732 1.038732 0.000000
0.549296 1.049296 0.000000
0.559859 1.059859 0.000000
0.570423 1.070423 0.000000
0.580986 1.080986 0.000000
0.591549 1.091549 0.000000
0.602113 1.102113 0.000000
0.612676 1.112676 0.000000
0.623239 1.123239 0.000000
0.633803 1.133803 0.000000
0.644366 1.144366 0.000000
0.654930 1.154930 0.000000
0.665493 1.165493 0.000000
0.676056 1.176056 0.000000
0.686620 1.186620 0.000000
0.697183 1.197183 0.000000
0.707746 1.207746 0.000000
0.718310 1.218310 0.000000
0.728873 1.228873 0.000000
0.739437 1.239437 0.000000
0.750000 1.250000 0.000000
0.760563 1.260563 0.000000
0.771127 1.271127 0.000000
0.781690 1.281690 0.000000
0.792254 1.292254 0.000000
0.802817 1.302817 0.000000
0.813380 1.313380 0.000000
0.823944 1.323944 0.000000
0.834507 1.334507 0.000000
0.845070 1.345070 0.000000
0.855634 1.355634 0.000000
0.866197 1.366197 0.000000
0.876761 1.376761 0.000000
0.887324 1.387324 0.000000
0.897887 1.397887 0.000000
0.908451 1.408451 0.000000
0.919014 1.419014 0.000000
0.929577 1.429577 0.000000
0.940141 1.440141 0.000000
0.950704 1.450704 0.000000
0.961268 1.461268 0.000000
0.971831 1.471831 0.000000
0.982394 1.482394 0.000000
0.992958 1.492958 0.000000
1.003521 1.503521 0.000000
1.014085 1.514085 0.000000
1.024648 1.524648 0.000000
1.035211 1.535211 0.000000
1.045775 1.545775 0.000000
1.056338 1.556338 0.000000
1.066901 1.566901 0.000000
1.077465 1.577465 0.000000
1.088028 1.588028 0.000000
1.098592 1.598592 0.000000
1.109155 1.609155 0.000000
1.119718 1.619718 0.000000
1.130282 1.630282 0.000000
1.140845 1.640845 0.000000
1.151408 1.651408 0.000000
1.161972 1.661972 0.000000
1.172535 1.672535 0.000000
1.183099 1.683099 0.000000
1.193662 1.693662 0.000000
1.204225 1.704225 0.000000
1.214789 1.714789 0.000000
1.225352 1.725352 0.000000
1.235915 1.735915 0.000000
1.246479 1.746479 0.000000
1.257042 1.757042 0.000000
1.267606 1.767606 0.000000
1.278169 1.778169 0.000000
1.288732 1.788732 0.000000
1.299296 1.799296 0.000000
1.309859 1.809859 0.000000
1.320423 1.820423 0.000000
1.330986 1.830986 0.000000
1.341549 1.841549 0.000000
1.352113 1.852113 0.000000
1.362676 1.862676 0.000000
1.373239 1.873239 0.000000
1.383803 1.883803 0.000000
1.394366 1.894366 0.000000
1.404930 1.904930 0.000000
1.415493 1.915493 0.000000
1.426056 1.926056 0.000000
1.436620 1.936620 0.000000
1.447183 1.947183 0.000000
1.457746 1.957746 0.000000
1.468310 1.968310 0.000000
1.478873 1.978873 0.000000
1.489437 1.989437 0.000000
1.510417 2.010417 0.000000
1.520833 2.020833 0.000000
1.531250 2.031250 0.000000
1.541667 2.041667 0.000000
1.552083 2.052083 0.000000
1.562500 2.062500 0.000000
1.572917 2.072917 0.000000
1.583333 2.083333 0.000000
1.593750 2.093750 0.000000
1.604167 2.104167 0.000000
1.614583 2.114583 0.000000
1.625000 2.125000 0.000000
1.635417 2.135417 0.000000
1.645833 2.145833 0.000000
1.656250 2.156250 0.000000
1.666667 2.166667 0.000000
1.677083 2.177083 0.000000
1.687500 2.187500 0.000000
1.697917 2.197917 0.000000
1.708333 2.208333 0.000000
1.718750 2.218750 0.000000
1.729167 2.229167 0.000000
1.739583 2.239583 0.000000
1.750000 2.250000 0.000000
1.760417 2.260417 0.000000
1.770833 2.270833 0.000000
1.781250 2.281250 0.000000
1.791667 2.291667 0.000000
1.802083 2.302083 0.000000
1.812500 2.312500 0.000000
1.822917 2.322917 0.000000
1.833333 2.333333 0.000000
1.843750 2.343750 0.000000
1.854167 2.354167 0.000000
1.864583 2.364583 0.000000
1.875000 2.375000 0.000000
1.885417 2.385417 0.000000
1.895833 2.395833 0.000000
1.906250 2.406250 0.000000
1.916667 2.416667 0.000000
1.927083 2.427083 0.000000
1.937500 2.437500 0.000000
1.947917 2.447917 0.000000
1.958333 2.458333 0.000000
1.968750 2.468750 0.000000
1.979167 2.479167 0.000000
1.989583 2.489583 0.000000
0.206561 0.791563 0.000000
0.205359 0.816165 0.000000
0.186354 0.798211 0.000000
0.221961 0.800924 0.000000
0.280649 1.360489 0.000000
0.304015 1.400469 0.000000
0.229142 1.396096 0.000000
0.275922 1.451476 0.000000
1.869084 2.391788 0.000000
1.857928 2.378421 0.000000
1.238669 2.061899 0.000000
1.278787 2.082276 0.000000
1.238298 2.096047 0.000000
1.277579 2.032995 0.000000
0.402536 1.205823 0.000000
0.415290 1.176040 0.000000
0.428330 1.201952 0.000000
0.387294 1.172617 0.000000
0.146930 1.050586 0.000000
0.109488 1.087198 0.000000
0.102742 1.042403 0.000000
0.157178 1.091184 0.000000
0.588967 1.178581 0.000000
0.593116 1.153718 0.000000
0.608054 1.166752 0.000000
0.612180 1.145944 0.000000
0.860304 1.543784 0.000000
0.868821 1.521840 0.000000
0.878420 1.536650 0.000000
0.845380 1.517623 0.000000
1.129525 1.764330 0.000000
1.142005 1.751560 0.000000
1.145757 1.773681 0.000000
1.159368 1.759106 0.000000
1.968150 2.518865 0.000000
1.986105 2.509269 0.000000
1.986696 2.531115 0.000000
0.668964 1.191005 0.000000
0.683291 1.201259 0.000000
0.557625 1.074830 0.000000
0.569760 1.084377 0.000000
0.557769 1.089278 0.000000
0.707567 1.266174 0.000000
0.719026 1.281845 0.000000
0.700768 1.282275 0.000000
0.722329 1.266956 0.000000
0.468225 2.149688 0.000000
0.419106 2.064198 0.000000
0.523878 2.082648 0.000000
0.838546 1.421191 0.000000
0.823708 1.410355 0.000000
0.840477 1.404206 0.000000
0.818500 1.425973 0.000000
0.953187 1.488222 0.000000
0.959780 1.473222 0.000000
0.967054 1.485637 0.000000
1.047418 1.769126 0.000000
1.080240 1.782403 0.000000
1.047768 1.802712 0.000000
0.971392 1.693320 0.000000
0.949208 1.720793 0.000000
0.940644 1.684781 0.000000
0.381391 2.160909 0.000000
0.944091 1.477800 0.000000
0.530075 1.477351 0.000000
0.521303 1.516669 0.000000
0.474240 1.491166 0.000000
0.489489 1.546185 0.000000
1.537370 2.239326 0.000000
1.555275 2.267640 0.000000
1.532966 2.278201 0.000000
0.962010 1.661716 0.000000
0.986804 1.643200 0.000000
0.986259 1.672729 0.000000
1.049149 1.737940 0.000000
1.075111 1.737123 0.000000
[...]
POINT_DATA 3011
SCALARS UX float 1
LOOKUP_TABLE default
-0.028999
0.031575
0.000000
-0.000000
-0.030663
0.016890
0.031177
-0.020681
-0.012073
-0.003490
0.005061
0.013895
0.022707
0.031614
0.031758
0.031964
0.032159
0.032335
0.032492
0.032630
0.032740
0.032805
0.032775
0.032647
0.032588
0.032498
0.032363
0.032218
0.032088
0.031977
0.031882
0.031799
0.031722
0.031623
0.031504
0.031410
0.031334
0.031272
0.031220
0.031132
0.031080
0.031019
0.030947
0.030864
0.030757
0.030622
0.030445
0.030183
0.029805
0.029217
0.028232
0.026512
0.023353
0.017476
-0.000000
0.000000
0.000000
-0.000000
-0.000000
0.000000
-0.017442
-0.024650
-0.027870
-0.029509
-0.030294
-0.030670
-0.030888
-0.031079
-0.031292
-0.031365
-0.031406
-0.031451
-0.031493
-0.031527
-0.031540
-0.031519
-0.031451
-0.031355
-0.031314
-0.031331
-0.031378
-0.031450
-0.031522
-0.031593
-0.031661
-0.031719
-0.031766
-0.031802
-0.031830
-0.031870
-0.031909
-0.031918
-0.031911
-0.031852
-0.031900
-0.031763
-0.029382
-0.029320
-0.029226
-0.029231
-0.029187
-0.029078
-0.029004
-0.030228
-0.029955
-0.029589
-0.029364
-0.029152
-0.028722
-0.028425
-0.028074
-0.027768
-0.027399
-0.027070
-0.026966
-0.026552
-0.026125
-0.025688
-0.025433
-0.025235
-0.024933
-0.024476
-0.024233
-0.023704
-0.023562
-0.023147
-0.022886
-0.022551
-0.022163
-0.021971
-0.021528
-0.021432
-0.020977
-0.020757
-0.020242
-0.019937
-0.019625
-0.019313
-0.018976
-0.018625
-0.018404
-0.018059
-0.017670
-0.017408
-0.016989
-0.016556
-0.016574
-0.016232
-0.015701
-0.015490
-0.015086
-0.014864
-0.014535
-0.014088
-0.013735
-0.013352
-0.013098
-0.012797
-0.012534
-0.012192
-0.011855
-0.011380
-0.011172
-0.010952
-0.010492
-0.010112
-0.009752
-0.009459
-0.009126
-0.008988
-0.008556
-0.008029
-0.007747
-0.007297
-0.007154
-0.006682
-0.006477
-0.006227
-0.005900
-0.005435
-0.005180
-0.004834
-0.004475
-0.004206
-0.003791
-0.003512
-0.003202
-0.002669
-0.002356
-0.002160
-0.001695
-0.001212
-0.001116
-0.000791
-0.000500
-0.000100
0.000220
0.000551
0.000962
0.001266
0.001627
0.001887
0.002286
0.002547
0.002961
0.003467
0.003507
0.004041
0.004405
0.004820
0.004981
0.005282
0.005751
0.006068
0.006427
0.006630
0.007051
0.007426
0.007685
0.008159
0.008500
0.008639
0.009089
0.009550
0.009614
0.010218
0.010449
0.010735
0.011166
0.011480
0.011845
0.012195
0.012426
0.012819
0.013049
0.013526
0.013788
0.014214
0.014537
0.014958
0.015271
0.015663
0.016007
0.016326
0.017257
0.017317
0.017601
0.017874
0.018172
0.018475
0.018777
0.019084
0.019398
0.019711
0.020025
0.020339
0.020655
0.020970
0.021284
0.021598
0.021912
0.022225
0.022539
0.022851
0.023164
0.023476
0.023787
0.024098
0.024409
0.024720
0.025030
0.025340
0.025649
0.025958
0.026267
0.026575
0.026882
0.027190
0.027497
0.027802
0.028108
0.028413
0.028719
0.029004
0.029278
0.029549
0.029819
0.030089
0.030360
0.030631
0.030903
-0.025579
-0.025618
-0.026186
-0.025124
-0.022877
-0.022143
-0.024456
-0.022995
0.027596
0.027270
0.007778
0.009120
0.007814
0.008985
-0.019310
-0.018961
-0.018528
-0.019809
-0.026990
-0.028051
-0.028294
-0.026654
-0.013744
-0.013645
-0.013202
-0.013053
-0.004921
-0.004683
-0.004372
-0.005407
0.003705
0.004044
0.004229
0.004597
0.030203
0.030748
0.030708
-0.011400
-0.010811
-0.014813
-0.014258
-0.014799
-0.010022
-0.009660
-0.010198
-0.009560
-0.016833
-0.018353
-0.015072
-0.005765
-0.006224
-0.005748
-0.006342
-0.002175
-0.001889
-0.001742
0.001183
0.002231
0.001257
-0.001298
-0.001945
-0.002261
-0.019558
-0.002448
-0.015156
-0.015395
-0.016863
-0.016355
0.017320
0.017873
0.017165
-0.001632
-0.000891
-0.000868
0.001176
0.001975
0.001835
0.018309
0.001703
0.004032
0.004318
0.004511
0.003820
0.012156
0.013321
0.013116
0.015089
0.014058
0.014004
-0.013399
-0.013605
-0.012500
-0.017374
-0.015424
-0.016615
-0.012698
-0.014967
-0.022366
-0.021441
-0.022455
-0.021646
0.001044
-0.000567
0.001043
-0.001617
-0.019018
-0.018661
-0.016884
0.016848
0.017418
0.016513
-0.021052
-0.025084
-0.026755
-0.026186
-0.011589
-0.010750
-0.010522
-0.009802
-0.027979
-0.026170
-0.024738
-0.028182
0.025976
0.026496
0.026838
-0.001462
-0.000521
0.000366
-0.018555
-0.017724
0.001659
-0.008068
-0.007932
-0.009137
-0.007119
0.016147
0.016034
0.015409
-0.005724
-0.005485
-0.006419
0.016752
-0.026908
-0.026721
-0.026539
-0.015040
-0.014840
-0.014199
-0.029726
-0.029757
-0.014322
-0.005787
-0.005689
-0.004342
-0.029690
-0.004096
0.001203
0.002412
-0.026218
-0.025689
-0.025106
-0.014352
-0.014441
-0.013951
-0.014789
-0.014714
0.018844
0.019281
0.018880
0.006082
0.005285
0.005088
0.003823
0.004561
0.003546
0.000595
0.000634
0.000182
0.003155
-0.018996
-0.019361
-0.019552
-0.005659
-0.006253
-0.006093
-0.003052
-0.005634
-0.028469
-0.027714
-0.028845
-0.014161
-0.014751
0.025878
0.000011
0.024759
0.024570
0.024131
-0.006472
-0.005838
-0.009859
-0.010244
0.022040
0.022490
0.021025
-0.010587
-0.011367
-0.010858
0.009528
0.009185
0.010568
0.007948
0.025130
0.025489
0.017587
0.006996
0.005863
0.006174
0.000582
0.001024
0.001169
0.015304
0.017391
0.012243
0.014040
0.015468
0.016206
0.015563
-0.013520
-0.014344
-0.014545
-0.015265
-0.015100
0.001155
0.023847
0.022966
0.023777
0.017796
0.016423
0.017490
0.016797
0.017359
0.018372
0.018104
0.022488
0.022381
-0.003163
-0.002612
-0.002480
-0.003253
-0.005357
-0.004921
-0.005075
-0.004624
0.010684
0.009977
0.010856
0.009980
0.010347
0.009743
0.016102
0.016739
0.016299
0.023462
0.023088
-0.008207
-0.008082
-0.008852
-0.007674
-0.007787
-0.006940
-0.006909
-0.008739
-0.008925
-0.008355
-0.003598
-0.004109
-0.003792
-0.004045
0.006695
0.006788
0.007265
0.006182
-0.002800
-0.007666
-0.007527
-0.007548
-0.007251
-0.006645
-0.008053
0.020770
0.020244
0.020124
0.019620
0.004421
0.004875
-0.003789
-0.003721
-0.002951
0.003210
0.003317
0.002800
0.003009
0.002483
0.002806
0.002858
-0.000745
-0.001078
-0.000469
-0.001418
0.013866
0.014154
-0.009110
-0.008579
-0.009067
0.001806
0.001905
0.001433
0.012580
0.011257
0.010661
0.002328
0.000804
0.001226
0.000547
0.016124
0.016207
0.013626
0.014273
0.013656
0.014359
0.008960
0.009203
0.008482
0.008893
-0.028960
-0.029419
-0.030249
-0.027519
-0.018980
-0.018476
-0.018527
-0.010789
-0.009016
-0.016383
0.016656
-0.019422
-0.019599
-0.020399
-0.020492
0.003452
0.004815
0.005143
0.006421
-0.010700
-0.008963
-0.008645
-0.007421
0.021844
0.022255
0.022346
0.022671
0.016766
0.015674
-0.027277
-0.029175
-0.029605
-0.028633
-0.029267
-0.028807
-0.029108
-0.027170
-0.026444
0.000960
0.000139
0.000433
0.011360
0.010209
-0.016870
-0.016610
-0.017540
-0.017132
-0.018074
-0.004513
-0.004182
-0.005333
-0.005072
-0.020001
-0.020496
-0.020688
-0.020091
-0.008420
-0.006862
-0.026087
-0.025748
-0.025127
-0.025433
-0.026320
-0.029036
-0.029633
-0.029185
-0.028814
-0.028586
-0.025126
-0.024540
-0.024354
-0.024889
-0.024122
-0.006445
-0.005665
-0.005961
0.004716
-0.005369
-0.009569
-0.004924
-0.011620
-0.016578
0.028435
0.027932
0.029028
0.027217
0.026300
0.027073
-0.022553
-0.022831
-0.023364
-0.025260
-0.023018
-0.023239
-0.026089
0.024855
0.026914
0.026642
0.024927
0.000380
0.000309
-0.018617
-0.017951
-0.018516
-0.017713
-0.026267
-0.026651
-0.030984
-0.030575
-0.030322
-0.030817
0.027686
0.027565
0.026771
0.027261
-0.020704
-0.020006
0.009004
0.010124
0.008639
0.006844
0.010606
0.008459
0.005006
0.005298
0.000602
-0.009516
-0.009608
-0.008640
-0.030621
-0.030574
-0.031184
-0.030085
0.029660
0.016735
-0.023786
-0.023922
-0.024781
-0.031508
-0.031411
-0.024591
0.024921
0.024587
0.025268
-0.026422
-0.025972
-0.026630
-0.028739
-0.025977
-0.025567
0.029197
0.029830
0.029407
0.029600
0.029916
0.006579
0.007730
-0.024475
-0.024400
-0.023649
0.030068
0.012073
0.012811
0.013678
-0.018372
-0.016993
-0.016380
-0.017743
-0.015873
-0.015329
-0.011686
-0.010979
-0.028769
-0.028928
-0.030496
-0.029753
-0.029434
-0.028940
-0.017773
0.017399
-0.018247
-0.030068
-0.030670
-0.030140
-0.029731
0.029734
0.028722
-0.027641
-0.028336
-0.028075
0.030248
-0.030469
0.025621
0.026477
0.025590
-0.023783
-0.024385
-0.023565
-0.006584
-0.004039
-0.003900
-0.001600
-0.001192
-0.026871
-0.026356
-0.027207
-0.027649
0.011385
0.009892
-0.023106
-0.022869
-0.023666
-0.023097
-0.016360
-0.016370
-0.017512
-0.016488
-0.017727
-0.019664
-0.018028
-0.018161
-0.019938
-0.030530
-0.031041
0.025128
0.025808
-0.020321
-0.019776
-0.021121
-0.021382
-0.022528
0.016778
0.016969
0.016461
-0.013800
-0.014406
-0.019734
-0.020600
-0.013607
-0.012691
0.004823
0.002740
0.002831
0.004213
-0.029803
-0.022443
-0.022243
-0.022583
-0.021795
0.003862
0.025731
0.025480
0.024977
0.024793
-0.004902
-0.004857
-0.002909
-0.002934
-0.001323
-0.001034
0.024068
0.024638
0.030086
0.029023
-0.001448
-0.000004
0.026657
0.027635
-0.029329
-0.019021
-0.020788
-0.023405
-0.023556
-0.022971
-0.023786
-0.023938
0.009728
-0.029176
-0.031222
0.010479
0.003151
0.002012
0.029240
0.029172
0.029372
-0.030793
-0.026484
-0.027294
-0.029476
0.002928
0.002116
0.001455
0.002396
0.024379
-0.025944
-0.025527
-0.024682
-0.024123
0.008935
0.008336
0.007323
0.008115
0.026216
-0.030638
-0.031046
-0.030256
-0.024192
-0.028952
-0.020647
-0.023404
-0.019236
-0.020853
-0.025695
-0.029517
-0.029772
0.004707
0.005063
0.001931
0.007798
-0.006103
-0.008793
0.000052
-0.029233
-0.009349
-0.028333
0.000176
-0.005427
-0.004356
-0.027614
-0.028252
-0.027731
-0.029535
-0.028478
-0.008944
-0.003349
-0.004902
-0.007108
-0.027285
-0.001030
-0.001340
-0.001646
-0.010164
-0.010679
-0.008909
-0.023570
-0.023662
-0.024826
-0.021094
-0.020784
-0.021324
-0.021656
-0.009952
-0.008700
-0.008617
-0.007268
-0.007251
0.006154
0.004620
-0.000069
-0.002508
-0.003240
-0.002576
-0.002036
0.006951
0.004604
0.002536
0.002438
0.000505
-0.025222
-0.021467
-0.019984
-0.017185
-0.027857
-0.027689
-0.028206
-0.019008
0.030440
-0.022314
-0.022777
-0.023824
-0.023248
-0.014934
-0.017085
-0.013326
-0.012404
-0.011277
-0.029814
-0.022028
-0.021788
-0.028477
0.021096
0.021124
-0.002324
-0.024131
0.021561
0.028331
-0.022051
-0.024945
-0.022406
0.005740
-0.025751
-0.027451
-0.028477
-0.030620
-0.029651
0.025930
-0.026706
0.002497
0.000326
0.003933
-0.028371
-0.029454
0.027895
-0.022314
-0.022207
-0.022695
-0.028113
0.023265
0.021806
0.023265
0.026648
0.026618
0.027054
-0.027460
-0.026359
-0.026193
-0.026755
-0.028355
0.019429
0.015052
0.014894
0.011029
-0.021247
-0.021309
-0.010440
-0.010044
-0.017938
-0.015213
0.017528
-0.007613
-0.030104
-0.015638
-0.016237
-0.015829
0.000640
-0.013620
-0.012851
-0.012925
-0.026668
-0.023067
-0.020783
-0.020603
-0.018344
-0.025216
-0.011411
-0.012536
-0.012333
0.022506
0.026037
0.024148
0.002389
-0.019102
-0.019177
-0.018160
-0.028248
-0.026403
-0.027014
-0.028080
-0.014901
0.006909
-0.021195
-0.024437
-0.014817
-0.013669
-0.028337
-0.025486
-0.012239
-0.012207
-0.017368
0.003899
0.028723
0.028283
-0.027215
-0.019298
-0.008005
-0.029180
-0.024274
-0.022665
-0.025058
0.009040
-0.030301
0.007811
0.007996
0.007410
-0.011406
-0.007350
-0.028172
-0.012510
-0.018354
-0.019655
-0.020463
0.026068
-0.004371
-0.005027
-0.004005
-0.022876
-0.023120
-0.013699
-0.019275
-0.019077
-0.018542
-0.027506
-0.028151
-0.019751
-0.025547
0.022546
0.022889
-0.017297
-0.017503
-0.017984
0.021887
-0.006565
-0.006198
0.024105
0.024560
0.007613
-0.001709
-0.003821
-0.025857
-0.026615
0.001054
0.001927
0.006821
0.007531
-0.015533
-0.018024
-0.022611
-0.021955
-0.022212
0.018935
0.018784
0.001570
0.003451
-0.019366
-0.027331
-0.025514
-0.015117
-0.015384
-0.014507
-0.023743
-0.028811
-0.023560
-0.009072
-0.010389
-0.022596
-0.023161
-0.023040
0.025677
-0.011911
-0.011452
-0.013025
-0.027447
-0.027084
-0.021249
-0.020515
-0.015453
-0.012992
0.000581
-0.003489
0.009776
0.027054
-0.028207
-0.014189
-0.013160
-0.017438
-0.020236
-0.021338
-0.013566
-0.014310
-0.014485
0.021459
-0.007172
-0.010897
-0.011869
-0.002832
-0.007212
-0.016885
-0.017013
-0.016507
0.005752
0.006132
0.007511
0.000211
-0.011483
-0.021201
-0.021507
-0.021975
-0.022126
0.008721
0.009219
0.008902
-0.013969
-0.012550
-0.029069
-0.014050
-0.014563
-0.013837
-0.014880
0.004586
0.028894
0.028675
0.003104
0.008303
0.002023
0.005656
-0.025062
-0.024913
-0.024646
-0.021490
-0.021033
-0.021054
-0.014247
0.019773
0.018623
-0.006184
-0.000273
-0.001026
-0.021931
-0.001649
-0.021809
-0.021381
-0.025593
-0.025565
-0.025169
-0.016599
-0.001893
-0.001055
-0.002037
-0.000653
0.028454
-0.024287
-0.024690
0.020277
-0.023827
-0.024031
0.024933
0.023907
0.023457
0.022134
0.022562
0.020500
0.022282
-0.027220
-0.026809
-0.027279
-0.019231
-0.020972
-0.021661
-0.003487
-0.005246
-0.016633
-0.025098
-0.020065
-0.016132
-0.012137
-0.025982
-0.025901
0.004249
-0.015388
-0.015818
-0.022020
-0.027067
0.028307
-0.007598
-0.025620
-0.027904
-0.023696
-0.006833
-0.008697
0.000427
-0.006155
-0.007462
-0.008307
-0.009973
-0.012517
-0.001869
-0.004032
-0.000503
-0.003801
0.001054
-0.018242
-0.022496
0.020068
0.020464
-0.021377
-0.017006
-0.010522
-0.011482
-0.012428
0.021341
0.018452
-0.003251
-0.004100
-0.004129
-0.003458
0.005617
0.006064
-0.020511
-0.020733
-0.020329
-0.025243
-0.003245
0.000818
-0.018411
0.015988
0.017247
-0.019543
-0.013170
-0.010975
-0.012278
0.028724
0.021934
0.023481
0.023518
-0.021255
-0.022153
0.028275
-0.016093
-0.010029
-0.016707
0.015381
-0.019066
-0.019311
-0.018700
-0.019662
-0.021057
-0.013157
-0.020042
0.013965
0.012776
0.012166
0.015063
0.015572
0.015188
0.014398
0.015006
0.006895
0.020176
0.019586
-0.020128
0.009871
0.007685
-0.016403
-0.016366
-0.016003
0.021694
0.020119
-0.010171
-0.016130
-0.011992
-0.018736
-0.017187
-0.009022
-0.008824
-0.009679
0.028415
0.028176
-0.013345
-0.008962
-0.014929
0.010933
0.019382
0.020256
0.020909
0.015150
0.015225
0.019121
-0.021008
-0.024567
-0.024139
-0.003530
-0.004999
-0.009207
-0.031423
-0.008385
0.013668
0.010105
0.011072
0.012183
-0.015274
-0.015572
-0.015182
-0.015830
0.014176
-0.017931
-0.018178
-0.017615
-0.009540
0.013387
0.013648
-0.031490
0.021321
0.021288
-0.020449
-0.002177
-0.031319
0.020697
-0.002621
0.012388
-0.015993
0.021342
-0.023213
0.014244
-0.015210
-0.014025
-0.007739
-0.009526
-0.022588
0.023745
0.024305
0.020822
0.026849
0.005451
0.005885
0.005869
-0.008468
-0.017344
-0.007957
-0.006261
0.005417
0.006283
-0.017438
0.006388
-0.011509
-0.012195
-0.012203
-0.011451
-0.011861
-0.011443
-0.011104
-0.010749
-0.010087
-0.024348
0.003759
-0.008187
0.028229
0.006210
0.006796
-0.014392
0.005541
-0.001406
-0.001371
-0.021305
-0.021098
-0.021476
0.000878
0.001415
0.000281
0.018208
0.018570
0.016289
0.017023
0.017810
0.018490
0.018330
0.018251
-0.021460
-0.030140
0.002031
0.002109
0.001537
0.003735
-0.013826
0.007584
0.008233
0.008303
-0.001571
-0.000688
-0.010877
-0.010475
0.008886
0.008471
0.009175
-0.001753
-0.002161
0.003185
-0.000382
-0.000123
-0.020105
-0.019713
0.022099
0.022798
-0.001676
-0.000999
-0.001051
0.022459
0.021737
0.019008
0.018259
-0.020510
0.011220
0.018984
-0.010448
-0.009968
-0.009775
0.012987
0.013667
0.012842
-0.011817
-0.018730
0.013685
-0.017374
-0.017430
-0.017947
0.014500
0.012774
-0.002185
-0.002615
-0.008712
-0.008219
-0.008615
0.014964
0.014930
0.014356
-0.003021
-0.002609
-0.009189
-0.003207
-0.008082
-0.007441
-0.007095
0.017464
0.016880
-0.024654
-0.025025
-0.006358
-0.006184
-0.005791
-0.006260
-0.005780
-0.029539
-0.002802
-0.015359
-0.015694
-0.015180
0.016269
-0.013493
-0.016166
-0.016382
-0.016704
0.009392
-0.006617
-0.023324
0.009177
0.017726
0.017248
0.011161
0.011521
0.011811
0.012241
0.003448
0.003640
0.003957
0.003203
0.003457
0.010753
0.021190
0.020645
-0.007700
-0.007442
-0.007360
-0.010349
-0.009710
-0.004522
-0.004073
-0.004502
0.004369
-0.012797
0.004692
0.004929
0.005241
0.004358
0.021659
0.002165
0.002402
0.020069
0.020034
0.020659
0.019395
0.008361
0.015187
-0.009950
-0.009539
0.008495
0.009640
0.009490
0.000153
-0.000129
-0.012171
-0.012481
-0.012770
-0.011992
-0.011676
-0.003520
-0.003155
-0.003634
0.007640
0.007817
0.007073
0.007746
0.008193
0.018815
0.018601
0.016092
0.014707
0.012257
0.012452
0.012957
0.012804
0.013341
0.012965
-0.015309
0.017464
0.017988
0.018195
0.019790
0.019282
0.021892
0.022102
-0.004035
-0.012515
-0.012434
0.022684
0.023338
-0.019201
0.022852
0.018625
0.020027
0.014107
0.023759
-0.031091
-0.031223
-0.031138
-0.031269
-0.029888
0.004620
-0.006258
-0.000392
-0.012417
-0.012267
-0.012690
-0.030316
-0.010401
0.013753
0.014871
0.010126
0.007944
0.011631
0.011691
0.011156
-0.012580
0.011334
-0.000684
-0.000486
-0.000135
-0.012467
0.021218
-0.000035
0.011982
0.011633
0.023887
0.024432
0.018015
0.018373
0.018919
0.019464
0.019451
0.002656
0.003098
-0.024822
0.010317
0.018684
0.019125
0.019533
-0.002829
-0.002557
-0.002340
-0.011064
-0.010812
-0.007991
-0.008576
-0.004379
-0.004956
0.005030
0.004344
0.004126
0.014403
-0.012089
-0.011680
-0.012908
0.023133
0.022572
0.012022
0.009270
0.008394
0.005570
-0.009304
-0.010151
-0.011665
0.024050
0.007658
0.006859
0.006840
0.023550
0.023670
0.023124
-0.020176
0.012913
-0.019217
-0.006541
-0.006747
-0.007093
-0.020742
0.005756
-0.014661
-0.028008
-0.011676
0.003518
0.003408
-0.002783
-0.001828
0.005486
-0.007048
-0.006709
-0.006266
0.005130
0.012744
-0.011893
-0.009086
-0.009451
-0.006574
-0.007072
0.006091
-0.006898
-0.027088
-0.027183
0.015555
0.004832
-0.016957
0.000465
0.000322
0.010548
0.002786
0.021862
0.019454
0.020014
-0.018197
0.005445
-0.011272
0.008833
-0.025477
-0.010337
-0.011292
0.007270
0.007740
0.007202
0.001965
0.002373
0.011375
0.010510
-0.022666
-0.022655
0.000641
-0.001606
0.009624
0.002032
0.000455
-0.007503
0.019889
-0.006912
0.020272
0.020115
0.000322
-0.013488
-0.013087
0.021763
0.020989
0.010807
0.010727
-0.000943
0.017805
0.018165
0.017791
0.011955
0.012469
0.023368
0.023626
0.009124
0.014850
0.015755
0.010213
-0.026098
0.018536
0.013105
0.010216
-0.013199
0.005929
0.013712
-0.018536
-0.015514
0.014947
0.002410
0.019624
0.020776
-0.011908
-0.000364
-0.027311
-0.017890
-0.003503
-0.003969
-0.004440
-0.005975
-0.019674
-0.011573
-0.007778
-0.003267
0.012060
0.005755
0.006050
0.006669
0.003147
0.019807
-0.004622
0.015993
0.015073
0.014686
-0.016864
-0.010375
-0.003602
-0.000752
-0.000464
0.021921
0.016316
-0.016449
0.007209
0.006835
-0.003136
0.011572
0.024124
0.014395
0.016216
0.016052
-0.011796
0.015669
-0.005424
0.011141
0.023702
0.008239
-0.005325
-0.005037
-0.004721
-0.005778
-0.005556
-0.005157
-0.005078
0.002611
0.002411
0.007409
-0.001974
0.009680
0.009937
0.010328
-0.004267
0.001603
0.012381
0.017005
0.004718
-0.004899
0.005026
0.006646
0.006906
0.012257
-0.004821
0.001614
0.001132
0.013616
0.006268
0.013642
-0.005169
0.001300
-0.000534
0.023198
0.017250
0.007869
0.010612
0.010808
0.018549
0.005061
0.009478
0.011850
-0.015717
-0.009290
0.015035
0.009620
0.017771
0.020711
0.021147
-0.005055
-0.002823
0.006558
-0.018337
-0.017938
-0.017474
-0.017970
-0.017488
-0.017483
-0.008288
-0.008656
-0.008265
0.028108
0.026724
0.026730
0.015165
0.014521
0.015137
0.025538
0.028615
0.000405
0.000158
-0.004495
0.017596
0.022415
0.021958
-0.009722
-0.010586
-0.009933
0.029278
0.028472
0.029807
0.028301
-0.010054
-0.018039
-0.017075
-0.010834
-0.010837
-0.010187
-0.009086
-0.008616
-0.010827
-0.011638
0.012901
0.012129
0.012211
0.012467
-0.010169
-0.006757
-0.011677
-0.012624
-0.011823
-0.004924
-0.002136
0.011038
0.009340
0.010443
0.009599
-0.014741
-0.014111
-0.014877
0.006008
0.006420
0.005991
-0.001571
-0.002111
-0.001890
-0.002597
0.029312
0.028680
-0.014355
-0.012114
-0.009675
-0.020451
-0.018636
-0.018685
-0.005310
-0.004547
-0.004652
-0.016681
-0.013274
-0.012178
-0.012031
-0.003718
0.009596
0.010737
0.011071
0.008372
0.019593
0.019639
0.022255
0.017089
-0.001358
0.001187
0.000786
0.013972
0.014552
0.015043
0.015796
-0.008114
-0.011786
-0.009595
-0.025228
-0.026385
-0.004182
-0.004563
-0.003848
-0.004653
0.020587
0.021214
0.020723
0.021527
0.005265
0.004821
0.006657
0.003941
0.013970
0.014330
0.013743
0.014577
0.019316
0.019453
0.020027
0.018857
-0.008728
-0.008125
-0.017215
-0.017528
-0.021567
-0.021136
-0.021905
-0.015517
-0.016262
-0.015956
0.015433
0.015134
-0.007260
-0.007050
-0.007644
-0.007419
-0.019562
-0.010803
-0.011348
-0.010823
-0.011359
-0.019777
-0.019596
-0.019167
-0.018748
-0.015110