# vtk DataFile Version 2.0
Test
ASCII
DATASET POLYDATA
POINTS 3011 float
0.000000 0.000000 0.000000
2.000000 0.000000 0.000000
2.000000 4.000000 0.000000
0.000000 4.000000 0.000000
0.000000 0.500000 0.000000
1.500000 2.000000 0.000000
2.000000 2.500000 0.000000
0.285714 0.000000 0.000000
0.571429 0.000000 0.000000
0.857143 0.000000 0.000000
1.142857 0.000000 0.000000
1.428571 0.000000 0.000000
1.714286 0.000000 0.000000
2.000000 0.276366 0.000000
2.000000 0.523709 0.000000
2.000000 0.745076 0.000000
2.000000 0.943195 0.000000
2.000000 1.120508 0.000000
2.000000 1.279199 0.000000
2.000000 1.421225 0.000000
2.000000 1.548336 0.000000
2.000000 1.662097 0.000000
2.000000 1.763911 0.000000
2.000000 1.855033 0.000000
2.000000 1.936585 0.000000
2.000000 2.009573 0.000000
2.000000 2.074896 0.000000
2.000000 2.133358 0.000000
2.000000 2.185681 0.000000
2.000000 2.232509 0.000000
2.000000 2.274419 0.000000
2.000000 2.311927 0.000000
2.000000 2.345497 0.000000
2.000000 2.375541 0.000000
2.000000 2.402430 0.000000
2.000000 2.426495 0.000000
2.000000 2.448033 0.000000
2.000000 2.467309 0.000000
2.000000 2.484560 0.000000
2.000000 2.516256 0.000000
2.000000 2.535859 0.000000
2.000000 2.559499 0.000000
2.000000 2.588006 0.000000
2.000000 2.622383 0.000000
2.000000 2.663839 0.000000
2.000000 2.713831 0.000000
2.000000 2.774116 0.000000
2.000000 2.846815 0.000000
2.000000 2.934483 0.000000
2.000000 3.040202 0.000000
2.000000 3.167691 0.000000
2.000000 3.321430 0.000000
2.000000 3.506825 0.000000
2.000000 3.730395 0.000000
1.714286 4.000000 0.000000
1.428571 4.000000 0.000000
1.142857 4.000000 0.000000
0.857143 4.000000 0.000000
0.571429 4.000000 0.000000
0.285714 4.000000 0.000000
0.000000 3.713462 0.000000
0.000000 3.449209 0.000000
0.000000 3.205508 0.000000
0.000000 2.980761 0.000000
0.000000 2.773493 0.000000
0.000000 2.582346 0.000000
0.000000 2.406065 0.000000
0.000000 2.243495 0.000000
0.000000 2.093568 0.000000
0.000000 1.955302 0.000000
0.000000 1.827789 0.000000
0.000000 1.710194 0.000000
0.000000 1.601745 0.000000
0.000000 1.501730 0.000000
0.000000 1.409494 0.000000
0.000000 1.324431 0.000000
0.000000 1.245984 0.000000
0.000000 1.173639 0.000000
0.000000 1.106920 0.000000
0.000000 1.045390 0.000000
0.000000 0.988645 0.000000
0.000000 0.936314 0.000000
0.000000 0.888053 0.000000
0.000000 0.843545 0.000000
0.000000 0.802499 0.000000
0.000000 0.764646 0.000000
0.000000 0.729736 0.000000
0.000000 0.697541 0.000000
0.000000 0.667851 0.000000
0.000000 0.640469 0.000000
0.000000 0.615217 0.000000
0.000000 0.591929 0.000000
0.000000 0.570453 0.000000
0.000000 0.550646 0.000000
0.000000 0.532380 0.000000
0.000000 0.515535 0.000000
0.000000 0.483768 0.000000
0.000000 0.461535 0.000000
0.000000 0.431083 0.000000
0.000000 0.389372 0.000000
0.000000 0.332241 0.000000
0.000000 0.253989 0.000000
0.000000 0.146807 0.000000
0.010563 0.510563 0.000000
0.021127 0.521127 0.000000
0.031690 0.531690 0.000000
0.042254 0.542254 0.000000
0.052817 0.552817 0.000000
0.063380 0.563380 0.000000
0.073944 0.573944 0.000000
0.084507 0.584507 0.000000
0.095070 0.595070 0.000000
0.105634 0.605634 0.000000
0.116197 0.616197 0.000000
0.126761 0.626761 0.000000
0.137324 0.637324 0.000000
0.147887 0.647887 0.000000
0.158451 0.658451 0.000000
0.169014 0.669014 0.000000
0.179577 0.679577 0.000000
0.190141 0.690141 0.000000
0.200704 0.700704 0.000000
0.211268 0.711268 0.000000
0.221831 0.721831 0.000000
0.232394 0.732394 0.000000
0.242958 0.742958 0.000000
0.253521 0.753521 0.000000
0.264085 0.764085 0.000000
0.274648 0.774648 0.000000
0.285211 0.785211 0.000000
0.295775 0.795775 0.000000
0.306338 0.806338 0.000000
0.316901 0.816901 0.000000
0.327465 0.827465 0.000000
0.338028 0.838028 0.000000
0.348592 0.848592 0.000000
0.359155 0.859155 0.000000
0.369718 0.869718 0.000000
0.380282 0.880282 0.000000
0.390845 0.890845 0.000000
0.401408 0.901408 0.000000
0.411972 0.911972 0.000000
0.422535 0.922535 0.000000
0.433099 0.933099 0.000000
0.443662 0.943662 0.000000
0.454225 0.954225 0.000000
0.464789 0.964789 0.000000
0.475352 0.975352 0.000000
0.485915 0.985915 0.000000
0.496479 0.996479 0.000000
0.507042 1.007042 0.000000
0.517606 1.017606 0.000000
0.528169 1.028169 0.000000
0.538732 1.038732 0.000000
0.549296 1.049296 0.000000
0.559859 1.059859 0.000000
0.570423 1.070423 0.000000
0.580986 1.080986 0.000000
0.591549 1.091549 0.000000
0.602113 1.102113 0.000000
0.612676 1.112676 0.000000
0.623239 1.123239 0.000000
0.633803 1.133803 0.000000
0.644366 1.144366 0.000000
0.654930 1.154930 0.000000
0.665493 1.165493 0.000000
0.676056 1.176056 0.000000
0.686620 1.186620 0.000000
0.697183 1.197183 0.000000
0.707746 1.207746 0.000000
0.718310 1.218310 0.000000
0.728873 1.228873 0.000000
0.739437 1.239437 0.000000
0.750000 1.250000 0.000000
0.760563 1.260563 0.000000
0.771127 1.271127 0.000000
0.781690 1.281690 0.000000
0.792254 1.292254 0.000000
0.802817 1.302817 0.000000
0.813380 1.313380 0.000000
0.823944 1.323944 0.000000
0.834507 1.334507 0.000000
0.845070 1.345070 0.000000
0.855634 1.355634 0.000000
0.866197 1.366197 0.000000
0.876761 1.376761 0.000000
0.887324 1.387324 0.000000
0.897887 1.397887 0.000000
0.908451 1.408451 0.000000
0.919014 1.419014 0.000000
0.929577 1.429577 0.000000
0.940141 1.440141 0.000000
0.950704 1.450704 0.000000
0.961268 1.461268 0.000000
0.971831 1.471831 0.000000
0.982394 1.482394 0.000000
0.992958 1.492958 0.000000
1.003521 1.503521 0.000000
1.014085 1.514085 0.000000
1.024648 1.524648 0.000000
1.035211 1.535211 0.000000
1.045775 1.545775 0.000000
1.056338 1.556338 0.000000
1.066901 1.566901 0.000000
1.077465 1.577465 0.000000
1.088028 1.588028 0.000000
1.098592 1.598592 0.000000
1.109155 1.609155 0.000000
1.119718 1.619718 0.000000
1.130282 1.630282 0.000000
1.140845 1.640845 0.000000
1.151408 1.651408 0.000000
1.161972 1.661972 0.000000
1.172535 1.672535 0.000000
1.183099 1.683099 0.000000
1.193662 1.693662 0.000000
1.204225 1.704225 0.000000
1.214789 1.714789 0.000000
1.225352 1.725352 0.000000
1.235915 1.735915 0.000000
1.246479 1.746479 0.000000
1.257042 1.757042 0.000000
1.267606 1.767606 0.000000
1.278169 1.778169 0.000000
1.288732 1.788732 0.000000
1.299296 1.799296 0.000000
1.309859 1.809859 0.000000
1.320423 1.820423 0.000000
1.330986 1.830986 0.000000
1.341549 1.841549 0.000000
1.352113 1.852113 0.000000
1.362676 1.862676 0.000000
1.373239 1.873239 0.000000
1.383803 1.883803 0.000000
1.394366 1.894366 0.000000
1.404930 1.904930 0.000000
1.415493 1.915493 0.000000
1.426056 1.926056 0.000000
1.436620 1.936620 0.000000
1.447183 1.947183 0.000000
1.457746 1.957746 0.000000
1.468310 1.968310 0.000000
1.478873 1.978873 0.000000
1.489437 1.989437 0.000000
1.510417 2.010417 0.000000
1.520833 2.020833 0.000000
1.531250 2.031250 0.000000
1.541667 2.041667 0.000000
1.552083 2.052083 0.000000
1.562500 2.062500 0.000000
1.572917 2.072917 0.000000
1.583333 2.083333 0.000000
1.593750 2.093750 0.000000
1.604167 2.104167 0.000000
1.614583 2.114583 0.000000
1.625000 2.125000 0.000000
1.635417 2.135417 0.000000
1.645833 2.145833 0.000000
1.656250 2.156250 0.000000
1.666667 2.166667 0.000000
1.677083 2.177083 0.000000
1.687500 2.187500 0.000000
1.697917 2.197917 0.000000
1.708333 2.208333 0.000000
1.718750 2.218750 0.000000
1.729167 2.229167 0.000000
1.739583 2.239583 0.000000
1.750000 2.250000 0.000000
1.760417 2.260417 0.000000
1.770833 2.270833 0.000000
1.781250 2.281250 0.000000
1.791667 2.291667 0.000000
1.802083 2.302083 0.000000
1.812500 2.312500 0.000000
1.822917 2.322917 0.000000
1.833333 2.333333 0.000000
1.843750 2.343750 0.000000
1.854167 2.354167 0.000000
1.864583 2.364583 0.000000
1.875000 2.375000 0.000000
1.885417 2.385417 0.000000
1.895833 2.395833 0.000000
1.906250 2.406250 0.000000
1.916667 2.416667 0.000000
1.927083 2.427083 0.000000
1.937500 2.437500 0.000000
1.947917 2.447917 0.000000
1.958333 2.458333 0.000000
1.968750 2.468750 0.000000
1.979167 2.479167 0.000000
1.989583 2.489583 0.000000
0.206561 0.791563 0.000000
0.205359 0.816165 0.000000
0.186354 0.798211 0.000000
0.221961 0.800924 0.000000
0.280649 1.360489 0.000000
0.304015 1.400469 0.000000
0.229142 1.396096 0.000000
0.275922 1.451476 0.000000
1.869084 2.391788 0.000000
1.857928 2.378421 0.000000
1.238669 2.061899 0.000000
1.278787 2.082276 0.000000
1.238298 2.096047 0.000000
1.277579 2.032995 0.000000
0.402536 1.205823 0.000000
0.415290 1.176040 0.000000
0.428330 1.201952 0.000000
0.387294 1.172617 0.000000
0.146930 1.050586 0.000000
0.109488 1.087198 0.000000
0.102742 1.042403 0.000000
0.157178 1.091184 0.000000
0.588967 1.178581 0.000000
0.593116 1.153718 0.000000
0.608054 1.166752 0.000000
0.612180 1.145944 0.000000
0.860304 1.543784 0.000000
0.868821 1.521840 0.000000
0.878420 1.536650 0.000000
0.845380 1.517623 0.000000
1.129525 1.764330 0.000000
1.142005 1.751560 0.000000
1.145757 1.773681 0.000000
1.159368 1.759106 0.000000
1.968150 2.518865 0.000000
1.986105 2.509269 0.000000
1.986696 2.531115 0.000000
0.668964 1.191005 0.000000
0.683291 1.201259 0.000000
0.557625 1.074830 0.000000
0.569760 1.084377 0.000000
0.557769 1.089278 0.000000
0.707567 1.266174 0.000000
0.719026 1.281845 0.000000
0.700768 1.282275 0.000000
0.722329 1.266956 0.000000
0.468225 2.149688 0.000000
0.419106 2.064198 0.000000
0.523878 2.082648 0.000000
0.838546 1.421191 0.000000
0.823708 1.410355 0.000000
0.840477 1.404206 0.000000
0.818500 1.425973 0.000000
0.953187 1.488222 0.000000
0.959780 1.473222 0.000000
0.967054 1.485637 0.000000
1.047418 1.769126 0.000000
1.080240 1.782403 0.000000
1.047768 1.802712 0.000000
0.971392 1.693320 0.000000
0.949208 1.720793 0.000000
0.940644 1.684781 0.000000
0.381391 2.160909 0.000000
0.944091 1.477800 0.000000
0.530075 1.477351 0.000000
0.521303 1.516669 0.000000
0.474240 1.491166 0.000000
0.489489 1.546185 0.000000
1.537370 2.239326 0.000000
1.555275 2.267640 0.000000
1.532966 2.278201 0.000000
0.962010 1.661716 0.000000
0.986804 1.643200 0.000000
0.986259 1.672729 0.000000
1.049149 1.737940 0.000000
1.075111 1.737123 0.000000
[...]
POINT_DATA 3011
SCALARS UX float 1
LOOKUP_TABLE default
-0.025516
0.030014
0.000000
-0.000000
-0.026857
0.015881
0.028658
-0.017624
-0.009715
-0.001794
0.006139
0.014088
0.022046
0.030026
0.030058
0.030108
0.030168
0.030234
0.030305
0.030372
0.030421
0.030435
0.030404
0.030308
0.030162
0.029976
0.029785
0.029601
0.029435
0.029293
0.029173
0.029073
0.028988
0.028918
0.028857
0.028806
0.028761
0.028722
0.028688
0.028627
0.028590
0.028545
0.028490
0.028426
0.028342
0.028235
0.028094
0.027883
0.027579
0.027107
0.026296
0.024826
0.021970
0.016412
-0.000000
0.000000
0.000000
-0.000000
-0.000000
0.000000
-0.016340
-0.022872
-0.025621
-0.026895
-0.027433
-0.027623
-0.027661
-0.027656
-0.027645
-0.027639
-0.027646
-0.027662
-0.027683
-0.027707
-0.027732
-0.027758
-0.027783
-0.027807
-0.027830
-0.027853
-0.027877
-0.027900
-0.027921
-0.027939
-0.027955
-0.027969
-0.027981
-0.027993
-0.028003
-0.028014
-0.028029
-0.028043
-0.028038
-0.027981
-0.028024
-0.027895
-0.025646
-0.025578
-0.025497
-0.025494
-0.025495
-0.025504
-0.025512
-0.026446
-0.026188
-0.025843
-0.025632
-0.025433
-0.025032
-0.024759
-0.024434
-0.024150
-0.023808
-0.023505
-0.023414
-0.023032
-0.022638
-0.022232
-0.022001
-0.021828
-0.021557
-0.021141
-0.020925
-0.020440
-0.020318
-0.019938
-0.019702
-0.019394
-0.019036
-0.018866
-0.018458
-0.018378
-0.017959
-0.017763
-0.017289
-0.017012
-0.016729
-0.016445
-0.016135
-0.015811
-0.015610
-0.015292
-0.014930
-0.014689
-0.014299
-0.013896
-0.013922
-0.013604
-0.013109
-0.012918
-0.012545
-0.012348
-0.012046
-0.011635
-0.011314
-0.010967
-0.010742
-0.010472
-0.010237
-0.009932
-0.009631
-0.009202
-0.009027
-0.008840
-0.008422
-0.008078
-0.007754
-0.007496
-0.007197
-0.007086
-0.006695
-0.006215
-0.005970
-0.005563
-0.005446
-0.005018
-0.004846
-0.004634
-0.004350
-0.003937
-0.003723
-0.003422
-0.003107
-0.002877
-0.002509
-0.002269
-0.001999
-0.001516
-0.001242
-0.001081
-0.000663
-0.000229
-0.000161
0.000125
0.000377
0.000734
0.001017
0.001309
0.001676
0.001943
0.002261
0.002484
0.002842
0.003069
0.003442
0.003903
0.003923
0.004411
0.004734
0.005106
0.005236
0.005501
0.005925
0.006206
0.006528
0.006699
0.007080
0.007417
0.007645
0.008079
0.008384
0.008498
0.008907
0.009329
0.009372
0.009930
0.010130
0.010381
0.010772
0.011056
0.011385
0.011697
0.011899
0.012255
0.012456
0.012890
0.013119
0.013500
0.013784
0.014160
0.014434
0.014783
0.015086
0.015366
0.016211
0.016255
0.016508
0.016752
0.017021
0.017295
0.017565
0.017840
0.018118
0.018385
0.018656
0.018929
0.019203
0.019477
0.019750
0.020024
0.020298
0.020571
0.020844
0.021116
0.021389
0.021661
0.021933
0.022205
0.022476
0.022747
0.023018
0.023288
0.023559
0.023828
0.024098
0.024367
0.024636
0.024905
0.025174
0.025443
0.025711
0.025980
0.026248
0.026516
0.026785
0.027053
0.027320
0.027588
0.027856
0.028123
0.028391
-0.022252
-0.022286
-0.022808
-0.021834
-0.019984
-0.019324
-0.021398
-0.020087
0.025243
0.024959
0.007463
0.008666
0.007487
0.008558
-0.016663
-0.016321
-0.015950
-0.017097
-0.023786
-0.024808
-0.025012
-0.023488
-0.011510
-0.011387
-0.010988
-0.010827
-0.003827
-0.003601
-0.003328
-0.004253
0.003849
0.004172
0.004318
0.004671
0.027746
0.028258
0.028234
-0.009337
-0.008798
-0.012369
-0.011857
-0.012370
-0.008160
-0.007848
-0.008355
-0.007733
-0.014669
-0.016032
-0.013086
-0.004485
-0.004904
-0.004445
-0.005038
-0.001248
-0.000945
-0.000831
0.001568
0.002503
0.001622
-0.000630
-0.001225
-0.001495
-0.017110
-0.001482
-0.013033
-0.013263
-0.014578
-0.014137
0.016063
0.016542
0.015890
-0.000917
-0.000241
-0.000233
0.001577
0.002296
0.002161
0.016956
0.002063
0.004240
0.004543
0.004704
0.004065
0.011386
0.012447
0.012254
0.014042
0.013094
0.013064
-0.011428
-0.011601
-0.010606
-0.015064
-0.013314
-0.014395
-0.010770
-0.012924
-0.019480
-0.018616
-0.019561
-0.018803
0.001348
-0.000082
0.001365
-0.001043
-0.016572
-0.016233
-0.014653
0.015714
0.016207
0.015382
-0.018381
-0.022025
-0.023576
-0.023057
-0.009789
-0.009012
-0.008830
-0.008162
-0.024735
-0.022962
-0.021703
-0.024773
0.023752
0.024241
0.024533
-0.000873
-0.000017
0.000770
-0.016005
-0.015231
0.001944
-0.006696
-0.006586
-0.007664
-0.005843
0.015125
0.015009
0.014422
-0.004559
-0.004359
-0.005199
0.015689
-0.023420
-0.023227
-0.023069
-0.012786
-0.012554
-0.011983
-0.026375
-0.026304
-0.012060
-0.004703
-0.004603
-0.003400
-0.026360
-0.003166
0.001564
0.002649
-0.023036
-0.022564
-0.021984
-0.011982
-0.012040
-0.011593
-0.012382
-0.012327
0.017601
0.017991
0.017619
0.005941
0.005226
0.005048
0.003914
0.004573
0.003664
0.001179
0.001185
0.000776
0.003321
-0.016208
-0.016549
-0.016730
-0.004450
-0.004993
-0.004834
-0.002218
-0.004440
-0.025004
-0.024314
-0.025391
-0.011835
-0.012390
0.023692
0.000590
0.022761
0.022573
0.022189
-0.005170
-0.004593
-0.007991
-0.008342
0.020219
0.020594
0.019276
-0.008677
-0.009392
-0.008898
0.008962
0.008676
0.009911
0.007535
0.023085
0.023402
0.016393
0.006766
0.005745
0.006026
0.001202
0.001614
0.001732
0.013921
0.015860
0.011176
0.012896
0.014531
0.015206
0.014590
-0.011242
-0.012038
-0.012239
-0.012874
-0.012757
0.001688
0.021824
0.021051
0.021800
0.016376
0.015151
0.016133
0.015459
0.016038
0.016950
0.016731
0.020775
0.020690
-0.002243
-0.001736
-0.001630
-0.002313
-0.004129
-0.003715
-0.003884
-0.003452
0.010070
0.009447
0.010243
0.009606
0.009933
0.009361
0.015085
0.015676
0.015270
0.021632
0.021306
-0.006625
-0.006551
-0.007229
-0.006297
-0.006381
-0.005622
-0.005576
-0.007090
-0.007223
-0.006713
-0.002610
-0.003071
-0.002766
-0.003023
0.006581
0.006693
0.007127
0.006120
-0.002084
-0.006100
-0.006015
-0.006213
-0.005928
-0.005390
-0.006415
0.019213
0.018726
0.018634
0.018163
0.004464
0.004903
-0.002805
-0.002758
-0.002065
0.003586
0.003661
0.003173
0.003300
0.002807
0.003140
0.003121
-0.000066
-0.000343
0.000221
-0.000681
0.013105
0.013356
-0.007287
-0.006796
-0.007270
0.002229
0.002281
0.001850
0.011755
0.010565
0.010025
0.002700
0.001279
0.001676
0.001059
0.014962
0.015012
0.012823
0.013410
0.012811
0.013448
0.008655
0.008857
0.008186
0.008529
-0.025613
-0.026080
-0.026832
-0.024252
-0.016201
-0.015739
-0.015773
-0.009712
-0.008312
-0.014891
0.015601
-0.016648
-0.016844
-0.017581
-0.017697
0.003564
0.004798
0.005085
0.006244
-0.009145
-0.007581
-0.007304
-0.006197
0.020172
0.020554
0.020622
0.020928
0.015706
0.014677
-0.023914
-0.025616
-0.025988
-0.025005
-0.025605
-0.025164
-0.025455
-0.023876
-0.023219
0.001400
0.000659
0.000936
0.010712
0.009666
-0.014327
-0.014118
-0.014974
-0.014649
-0.015507
-0.003483
-0.003204
-0.004238
-0.004021
-0.017143
-0.017615
-0.017787
-0.017229
-0.006984
-0.005567
-0.022793
-0.022441
-0.021874
-0.022200
-0.023046
-0.025373
-0.025931
-0.025506
-0.025160
-0.024956
-0.021841
-0.021310
-0.021154
-0.021638
-0.020950
-0.005325
-0.004619
-0.004877
0.004713
-0.005124
-0.009101
-0.004705
-0.011021
-0.015448
0.026117
0.025621
0.026670
0.024961
0.024072
0.024789
-0.019577
-0.019862
-0.020343
-0.022117
-0.020112
-0.020323
-0.022870
0.022749
0.024698
0.024469
0.022850
0.000866
0.000790
-0.015882
-0.015269
-0.015809
-0.015062
-0.022830
-0.023196
-0.027161
-0.026774
-0.026540
-0.027012
0.025293
0.025203
0.024450
0.024928
-0.017847
-0.017185
0.008464
0.009454
0.008101
0.006511
0.009848
0.007766
0.004643
0.004920
0.000664
-0.007965
-0.008063
-0.007163
-0.026858
-0.026827
-0.027397
-0.026355
0.027287
0.015753
-0.020665
-0.020827
-0.021622
-0.027660
-0.027562
-0.021394
0.022819
0.022540
0.023157
-0.023009
-0.022608
-0.023208
-0.025247
-0.022599
-0.022227
0.026760
0.027362
0.026974
0.027130
0.027460
0.006378
0.007426
-0.021429
-0.021335
-0.020636
0.027634
0.011268
0.011957
0.012712
-0.015753
-0.014637
-0.014105
-0.015328
-0.013627
-0.013155
-0.009856
-0.009192
-0.025302
-0.025397
-0.026917
-0.026186
-0.025919
-0.025420
-0.015133
0.016281
-0.015602
-0.026325
-0.026885
-0.026388
-0.026008
0.027377
0.026432
-0.024098
-0.024731
-0.024494
0.027765
-0.026709
0.023393
0.024210
0.023383
-0.020638
-0.021177
-0.020439
-0.005516
-0.003227
-0.003128
-0.001055
-0.000716
-0.023450
-0.022980
-0.023782
-0.024182
0.010682
0.009343
-0.020029
-0.019787
-0.020512
-0.019983
-0.014090
-0.014107
-0.015139
-0.014226
-0.015342
-0.017101
-0.015624
-0.015756
-0.017352
-0.026751
-0.027222
0.022971
0.023563
-0.017581
-0.017111
-0.018325
-0.018606
-0.019639
0.015740
0.015905
0.015427
-0.011772
-0.012326
-0.017000
-0.017822
-0.011585
-0.010751
0.004738
0.002859
0.002960
0.004207
-0.026064
-0.019400
-0.019203
-0.019511
-0.018793
0.004131
0.023610
0.023369
0.022930
0.022744
-0.003943
-0.003897
-0.002147
-0.002175
-0.000725
-0.000460
0.021955
0.022472
0.027672
0.026649
-0.000828
0.000468
0.024358
0.025301
-0.025623
-0.016347
-0.018007
-0.020249
-0.020371
-0.019828
-0.020597
-0.020749
0.009185
-0.025484
-0.027448
0.009863
0.003301
0.002271
0.026764
0.026718
0.026959
-0.027053
-0.023209
-0.023922
-0.025870
0.003105
0.002372
0.001780
0.002628
0.022382
-0.022720
-0.022356
-0.021560
-0.021108
0.008476
0.007947
0.007028
0.007731
0.024036
-0.026958
-0.027313
-0.026561
-0.020972
-0.025328
-0.018114
-0.020590
-0.016831
-0.018358
-0.022825
-0.025814
-0.026051
0.004527
0.004791
0.002023
0.007263
-0.005068
-0.007478
0.000538
-0.025552
-0.007995
-0.024701
0.000641
-0.004439
-0.003490
-0.024093
-0.024674
-0.024184
-0.025937
-0.024952
-0.007915
-0.002852
-0.004368
-0.006147
-0.023820
-0.000235
-0.000561
-0.000813
-0.008597
-0.009042
-0.007444
-0.020605
-0.020698
-0.021780
-0.018150
-0.017863
-0.018376
-0.018684
-0.008435
-0.007301
-0.007240
-0.006019
-0.006017
0.005919
0.004530
0.000492
-0.001701
-0.002351
-0.001743
-0.001212
0.006658
0.004481
0.002648
0.002522
0.000815
-0.022754
-0.019161
-0.017912
-0.015236
-0.024282
-0.024129
-0.024608
-0.016307
0.027957
-0.019413
-0.019860
-0.020834
-0.020278
-0.012913
-0.014854
-0.011461
-0.010538
-0.009531
-0.026374
-0.019098
-0.018852
-0.025127
0.019567
0.019580
-0.002229
-0.021054
0.019971
0.026037
-0.019340
-0.021953
-0.019667
0.005581
-0.022683
-0.024036
-0.025214
-0.026986
-0.026010
0.023760
-0.023350
0.002407
0.000312
0.003761
-0.024762
-0.025769
0.025503
-0.019231
-0.019146
-0.019598
-0.024513
0.021263
0.019937
0.021218
0.024413
0.024370
0.024773
-0.023904
-0.022938
-0.022791
-0.023306
-0.024730
0.018074
0.014170
0.013875
0.010409
-0.018372
-0.018455
-0.008790
-0.008415
-0.015660
-0.013223
0.016093
-0.006314
-0.026595
-0.013304
-0.013831
-0.013406
0.000965
-0.011560
-0.010815
-0.010932
-0.023449
-0.020235
-0.018167
-0.018028
-0.015997
-0.022538
-0.009671
-0.010676
-0.010509
0.020825
0.024133
0.022502
0.002274
-0.016552
-0.016590
-0.015680
-0.024904
-0.023202
-0.023548
-0.024551
-0.012830
0.006524
-0.018578
-0.021482
-0.012707
-0.011686
-0.024961
-0.022395
-0.010279
-0.010210
-0.014773
0.003953
0.026329
0.025932
-0.023873
-0.017027
-0.006713
-0.025739
-0.021260
-0.019788
-0.021760
0.008559
-0.026553
0.007604
0.007749
0.007202
-0.009933
-0.006290
-0.024774
-0.011024
-0.015894
-0.017075
-0.017789
0.023968
-0.003454
-0.004028
-0.003117
-0.019752
-0.019993
-0.011735
-0.016484
-0.016307
-0.015816
-0.024366
-0.024862
-0.016924
-0.022232
0.020784
0.021111
-0.014682
-0.014870
-0.015313
0.020191
-0.005360
-0.005046
0.022119
0.022418
0.007361
-0.001079
-0.002979
-0.022519
-0.023238
0.001422
0.002209
0.006461
0.007212
-0.013493
-0.015726
-0.019575
-0.018954
-0.019204
0.017407
0.017242
0.001877
0.003575
-0.016848
-0.023987
-0.022360
-0.012964
-0.013204
-0.012406
-0.021590
-0.025223
-0.020629
-0.007621
-0.008815
-0.019549
-0.020067
-0.019967
0.023502
-0.010184
-0.009758
-0.011176
-0.023902
-0.023557
-0.018351
-0.017648
-0.013409
-0.011207
0.000620
-0.003224
0.009142
0.024753
-0.024856
-0.012259
-0.011324
-0.015008
-0.017608
-0.018596
-0.011479
-0.012192
-0.012376
0.020125
-0.006075
-0.009429
-0.010259
-0.002069
-0.006021
-0.014274
-0.014374
-0.013903
0.005616
0.005947
0.007177
0.000650
-0.009814
-0.018285
-0.018553
-0.019012
-0.019141
0.008488
0.008945
0.008631
-0.012014
-0.010733
-0.025392
-0.011917
-0.012373
-0.011684
-0.012709
0.004556
0.026427
0.026210
0.003221
0.008080
0.002258
0.005539
-0.021764
-0.021608
-0.021364
-0.018518
-0.018101
-0.018115
-0.012349
0.018195
0.017152
-0.005000
0.000232
-0.000437
-0.018936
-0.001002
-0.018788
-0.018375
-0.022242
-0.022196
-0.021835
-0.014256
-0.001201
-0.000453
-0.001340
-0.000082
0.026051
-0.021032
-0.021417
0.018628
-0.020615
-0.020817
0.022782
0.021822
0.021389
0.020166
0.020552
0.018673
0.020314
-0.023723
-0.023350
-0.023782
-0.016705
-0.018273
-0.018894
-0.002689
-0.004267
-0.014252
-0.021963
-0.017210
-0.014057
-0.010476
-0.022574
-0.022518
0.004294
-0.013441
-0.013536
-0.019024
-0.023885
0.025868
-0.006393
-0.022429
-0.024467
-0.020712
-0.005652
-0.007326
0.000851
-0.005077
-0.006259
-0.007011
-0.008511
-0.010770
-0.001459
-0.003357
-0.000187
-0.003103
0.001124
-0.015961
-0.020665
0.018664
0.019014
-0.018383
-0.014418
-0.008880
-0.009750
-0.010607
0.019597
0.016986
-0.002383
-0.003155
-0.003171
-0.002558
0.005694
0.006107
-0.017610
-0.017811
-0.017423
-0.021923
-0.002423
0.001214
-0.015684
0.014697
0.015809
-0.016718
-0.011374
-0.009401
-0.010578
0.026283
0.020011
0.021467
0.021536
-0.018423
-0.019238
0.026041
-0.013599
-0.008334
-0.014152
0.014184
-0.016270
-0.016494
-0.015916
-0.016833
-0.018368
-0.011063
-0.017161
0.012888
0.011786
0.011287
0.014096
0.014579
0.014213
0.013467
0.014053
0.006653
0.018740
0.018213
-0.017257
0.009028
0.007096
-0.013832
-0.013781
-0.013447
0.019782
0.018383
-0.008659
-0.013631
-0.010285
-0.016251
-0.014838
-0.007464
-0.007309
-0.008072
0.025975
0.025766
-0.011203
-0.007594
-0.013115
0.010214
0.017864
0.018656
0.019230
0.014070
0.014110
0.017652
-0.018315
-0.021306
-0.020901
-0.002601
-0.003970
-0.007603
-0.027576
-0.006868
0.012491
0.009292
0.010210
0.011121
-0.012808
-0.013073
-0.012700
-0.013323
0.013182
-0.015229
-0.015448
-0.014917
-0.008130
0.012503
0.012747
-0.027637
0.019705
0.019695
-0.017563
-0.001506
-0.027476
0.019165
-0.001871
0.011582
-0.013454
0.019705
-0.020148
0.013311
-0.012991
-0.011693
-0.006322
-0.007959
-0.019553
0.021807
0.022413
0.019007
0.024787
0.005455
0.005886
0.005847
-0.006778
-0.014670
-0.006304
-0.005015
0.005459
0.006248
-0.014771
0.006365
-0.009901
-0.010509
-0.010179
-0.009503
-0.009963
-0.009558
-0.009269
-0.008924
-0.008609
-0.021107
0.003854
-0.006500
0.026044
0.006224
0.006763
-0.012857
0.005523
-0.000557
-0.000497
-0.018330
-0.018150
-0.018502
0.001376
0.001888
0.000825
0.016640
0.016913
0.014873
0.015479
0.016623
0.017239
0.017074
0.017043
-0.018489
-0.026566
0.002381
0.002437
0.001925
0.003853
-0.011871
0.007288
0.007918
0.007945
-0.000900
-0.000096
-0.008883
-0.008515
0.008486
0.008086
0.008731
-0.000974
-0.001354
0.003339
0.000227
0.000454
-0.017238
-0.016870
0.020364
0.020996
-0.000927
-0.000313
-0.000372
0.020668
0.020019
0.017677
0.016981
-0.017612
0.010518
0.017676
-0.008653
-0.008199
-0.008062
0.012188
0.012805
0.012068
-0.009954
-0.015964
0.012799
-0.014726
-0.014782
-0.015257
0.013558
0.011967
-0.001317
-0.001706
-0.006944
-0.006498
-0.006888
0.014052
0.014049
0.013513
-0.002081
-0.001669
-0.007413
-0.002223
-0.006618
-0.006018
-0.005727
0.016330
0.015777
-0.021394
-0.021749
-0.005119
-0.004734
-0.004381
-0.004846
-0.004398
-0.025875
-0.002009
-0.012911
-0.013216
-0.012737
0.015124
-0.011310
-0.013628
-0.013854
-0.014136
0.009093
-0.005153
-0.020278
0.008869
0.016592
0.016143
0.010574
0.010938
0.011179
0.011607
0.003702
0.003856
0.004122
0.003413
0.003628
0.010226
0.019624
0.019135
-0.006088
-0.005816
-0.005775
-0.008532
-0.007921
-0.003291
-0.002886
-0.003310
0.004501
-0.010604
0.004817
0.005015
0.005321
0.004526
0.020043
0.002624
0.002824
0.018623
0.018573
0.019165
0.017983
0.007996
0.014207
-0.008044
-0.007677
0.008236
0.009308
0.009146
0.000791
0.000510
-0.010072
-0.010380
-0.010628
-0.009892
-0.009606
-0.002407
-0.002089
-0.002552
0.007464
0.007642
0.006914
0.007593
0.008006
0.017435
0.017267
0.014748
0.013520
0.011555
0.011767
0.012219
0.012141
0.012625
0.012258
-0.012892
0.016343
0.016819
0.017007
0.018426
0.017902
0.020265
0.020445
-0.002894
-0.010317
-0.010267
0.020821
0.021429
-0.016404
0.021102
0.017062
0.018347
0.012941
0.021825
-0.027294
-0.027404
-0.027306
-0.027441
-0.026187
0.004453
-0.005908
0.000188
-0.010292
-0.010134
-0.010531
-0.026541
-0.008641
0.012729
0.013758
0.009677
0.007528
0.011116
0.011152
0.010656
-0.010357
0.010794
0.000055
0.000277
0.000586
-0.010396
0.019484
0.000646
0.011268
0.010936
0.021983
0.022476
0.016856
0.017183
0.017637
0.018122
0.018130
0.003012
0.003425
-0.021544
0.009940
0.017275
0.017696
0.018046
-0.001821
-0.001534
-0.001349
-0.009184
-0.008919
-0.006491
-0.007015
-0.003346
-0.003873
0.004992
0.004378
0.004183
0.013457
-0.010022
-0.009627
-0.010783
0.021266
0.020745
0.011257
0.008813
0.008021
0.005476
-0.007663
-0.008626
-0.009729
0.022099
0.007355
0.006640
0.006619
0.021654
0.021776
0.021277
-0.017501
0.011996
-0.016395
-0.005138
-0.005300
-0.005643
-0.017806
0.005799
-0.012722
-0.024541
-0.009648
0.003827
0.003691
-0.002159
-0.001078
0.005416
-0.005566
-0.005353
-0.004916
0.005118
0.011910
-0.009768
-0.007343
-0.007709
-0.005076
-0.005554
0.005954
-0.005355
-0.023596
-0.023663
0.014503
0.004990
-0.014355
0.001113
0.001000
0.010140
0.002713
0.020086
0.017678
0.018213
-0.015456
0.005111
-0.009240
0.008233
-0.022149
-0.008363
-0.009276
0.007180
0.007610
0.007094
0.002403
0.002764
0.010736
0.009945
-0.019664
-0.019632
0.000628
-0.001510
0.009221
0.002518
0.000908
-0.006038
0.018389
-0.005514
0.018718
0.018551
0.000617
-0.011177
-0.010820
0.020021
0.019332
0.010366
0.010272
-0.000542
0.016186
0.016847
0.016525
0.011368
0.011852
0.021513
0.021758
0.008400
0.013523
0.014331
0.009785
-0.022756
0.017323
0.011937
0.009755
-0.011011
0.005942
0.012933
-0.015770
-0.012998
0.014018
0.002417
0.018229
0.019286
-0.009884
0.000263
-0.023784
-0.015199
-0.002462
-0.002888
-0.003355
-0.004611
-0.016822
-0.009485
-0.006105
-0.002224
0.011353
0.005696
0.005909
0.006458
0.003337
0.018182
-0.003537
0.014950
0.014093
0.013842
-0.014223
-0.008443
-0.002452
0.000065
0.000315
0.020264
0.015080
-0.013880
0.007145
0.006769
-0.002119
0.010845
0.022211
0.013461
0.015191
0.015038
-0.011012
0.014673
-0.004226
0.010667
0.021836
0.008071
-0.004026
-0.003721
-0.003440
-0.004450
-0.004220
-0.003811
-0.003836
0.002863
0.002697
0.007137
-0.001090
0.009189
0.009454
0.009784
-0.003148
0.002089
0.011790
0.015807
0.004863
-0.003631
0.005151
0.006577
0.006719
0.011528
-0.003680
0.002134
0.001641
0.012725
0.006163
0.012748
-0.004012
0.001721
0.000100
0.021375
0.016161
0.007291
0.010148
0.010312
0.017324
0.005101
0.009052
0.011116
-0.013258
-0.007588
0.014066
0.009133
0.016616
0.019136
0.019505
-0.003920
-0.001841
0.006415
-0.015446
-0.015059
-0.014642
-0.015156
-0.014679
-0.014699
-0.006329
-0.006670
-0.006284
0.026050
0.024796
0.024821
0.014485
0.013899
0.014494
0.023736
0.026518
0.001823
0.001451
-0.002804
0.017125
0.021515
0.021025
-0.007527
-0.008336
-0.007713
0.026910
0.026218
0.027411
0.026025
-0.007862
-0.015180
-0.014282
-0.008543
-0.008538
-0.007949
-0.007091
-0.006634
-0.008652
-0.009279
0.012527
0.011789
0.011900
0.012086
-0.007940
-0.004893
-0.009313
-0.010169
-0.009470
-0.003203
-0.000647
0.010959
0.009443
0.010448
0.009658
-0.012136
-0.011557
-0.012273
0.006337
0.006693
0.006284
-0.000323
-0.000818
-0.000595
-0.001252
0.027377
0.026865
-0.011790
-0.009835
-0.007609
-0.017375
-0.015754
-0.015757
-0.003584
-0.002898
-0.003001
-0.013961
-0.010817
-0.009845
-0.009687
-0.002158
0.009714
0.010772
0.011039
0.008635
0.018732
0.018823
0.021133
0.016497
0.000091
0.002387
0.002013
0.013493
0.014022
0.014453
0.015134
-0.006115
-0.009475
-0.007408
-0.021950
-0.022979
-0.002654
-0.002982
-0.002330
-0.003101
0.019259
0.019815
0.019355
0.020070
0.005845
0.005475
0.007110
0.004664
0.013436
0.013742
0.013202
0.013999
0.018143
0.018286
0.018790
0.017732
-0.006760
-0.006194
-0.014468
-0.014755
-0.018403
-0.018016
-0.018744
-0.012882
-0.013594
-0.013294
0.014674
0.014415
-0.005372
-0.005205
-0.005749
-0.005567
-0.016607
-0.008595
-0.009099
-0.008583
-0.009091
-0.016791
-0.016605
-0.016219
-0.015805
-0.012505
-0.012958
-0.013068