# vtk DataFile Version 2.0
Test
ASCII
DATASET POLYDATA
POINTS 3011 float
0.000000 0.000000 0.000000
2.000000 0.000000 0.000000
2.000000 4.000000 0.000000
0.000000 4.000000 0.000000
0.000000 0.500000 0.000000
1.500000 2.000000 0.000000
2.000000 2.500000 0.000000
0.285714 0.000000 0.000000
0.571429 0.000000 0.000000
0.857143 0.000000 0.000000
1.142857 0.000000 0.000000
1.428571 0.000000 0.000000
1.714286 0.000000 0.000000
2.000000 0.276366 0.000000
2.000000 0.523709 0.000000
2.000000 0.745076 0.000000
2.000000 0.943195 0.000000
2.000000 1.120508 0.000000
2.000000 1.279199 0.000000
2.000000 1.421225 0.000000
2.000000 1.548336 0.000000
2.000000 1.662097 0.000000
2.000000 1.763911 0.000000
2.000000 1.855033 0.000000
2.000000 1.936585 0.000000
2.000000 2.009573 0.000000
2.000000 2.074896 0.000000
2.000000 2.133358 0.000000
2.000000 2.185681 0.000000
2.000000 2.232509 0.000000
2.000000 2.274419 0.000000
2.000000 2.311927 0.000000
2.000000 2.345497 0.000000
2.000000 2.375541 0.000000
2.000000 2.402430 0.000000
2.000000 2.426495 0.000000
2.000000 2.448033 0.000000
2.000000 2.467309 0.000000
2.000000 2.484560 0.000000
2.000000 2.516256 0.000000
2.000000 2.535859 0.000000
2.000000 2.559499 0.000000
2.000000 2.588006 0.000000
2.000000 2.622383 0.000000
2.000000 2.663839 0.000000
2.000000 2.713831 0.000000
2.000000 2.774116 0.000000
2.000000 2.846815 0.000000
2.000000 2.934483 0.000000
2.000000 3.040202 0.000000
2.000000 3.167691 0.000000
2.000000 3.321430 0.000000
2.000000 3.506825 0.000000
2.000000 3.730395 0.000000
1.714286 4.000000 0.000000
1.428571 4.000000 0.000000
1.142857 4.000000 0.000000
0.857143 4.000000 0.000000
0.571429 4.000000 0.000000
0.285714 4.000000 0.000000
0.000000 3.713462 0.000000
0.000000 3.449209 0.000000
0.000000 3.205508 0.000000
0.000000 2.980761 0.000000
0.000000 2.773493 0.000000
0.000000 2.582346 0.000000
0.000000 2.406065 0.000000
0.000000 2.243495 0.000000
0.000000 2.093568 0.000000
0.000000 1.955302 0.000000
0.000000 1.827789 0.000000
0.000000 1.710194 0.000000
0.000000 1.601745 0.000000
0.000000 1.501730 0.000000
0.000000 1.409494 0.000000
0.000000 1.324431 0.000000
0.000000 1.245984 0.000000
0.000000 1.173639 0.000000
0.000000 1.106920 0.000000
0.000000 1.045390 0.000000
0.000000 0.988645 0.000000
0.000000 0.936314 0.000000
0.000000 0.888053 0.000000
0.000000 0.843545 0.000000
0.000000 0.802499 0.000000
0.000000 0.764646 0.000000
0.000000 0.729736 0.000000
0.000000 0.697541 0.000000
0.000000 0.667851 0.000000
0.000000 0.640469 0.000000
0.000000 0.615217 0.000000
0.000000 0.591929 0.000000
0.000000 0.570453 0.000000
0.000000 0.550646 0.000000
0.000000 0.532380 0.000000
0.000000 0.515535 0.000000
0.000000 0.483768 0.000000
0.000000 0.461535 0.000000
0.000000 0.431083 0.000000
0.000000 0.389372 0.000000
0.000000 0.332241 0.000000
0.000000 0.253989 0.000000
0.000000 0.146807 0.000000
0.010563 0.510563 0.000000
0.021127 0.521127 0.000000
0.031690 0.531690 0.000000
0.042254 0.542254 0.000000
0.052817 0.552817 0.000000
0.063380 0.563380 0.000000
0.073944 0.573944 0.000000
0.084507 0.584507 0.000000
0.095070 0.595070 0.000000
0.105634 0.605634 0.000000
0.116197 0.616197 0.000000
0.126761 0.626761 0.000000
0.137324 0.637324 0.000000
0.147887 0.647887 0.000000
0.158451 0.658451 0.000000
0.169014 0.669014 0.000000
0.179577 0.679577 0.000000
0.190141 0.690141 0.000000
0.200704 0.700704 0.000000
0.211268 0.711268 0.000000
0.221831 0.721831 0.000000
0.232394 0.732394 0.000000
0.242958 0.742958 0.000000
0.253521 0.753521 0.000000
0.264085 0.764085 0.000000
0.274648 0.774648 0.000000
0.285211 0.785211 0.000000
0.295775 0.795775 0.000000
0.306338 0.806338 0.000000
0.316901 0.816901 0.000000
0.327465 0.827465 0.000000
0.338028 0.838028 0.000000
0.348592 0.848592 0.000000
0.359155 0.859155 0.000000
0.369718 0.869718 0.000000
0.380282 0.880282 0.000000
0.390845 0.890845 0.000000
0.401408 0.901408 0.000000
0.411972 0.911972 0.000000
0.422535 0.922535 0.000000
0.433099 0.933099 0.000000
0.443662 0.943662 0.000000
0.454225 0.954225 0.000000
0.464789 0.964789 0.000000
0.475352 0.975352 0.000000
0.485915 0.985915 0.000000
0.496479 0.996479 0.000000
0.507042 1.007042 0.000000
0.517606 1.017606 0.000000
0.528169 1.028169 0.000000
0.538732 1.038732 0.000000
0.549296 1.049296 0.000000
0.559859 1.059859 0.000000
0.570423 1.070423 0.000000
0.580986 1.080986 0.000000
0.591549 1.091549 0.000000
0.602113 1.102113 0.000000
0.612676 1.112676 0.000000
0.623239 1.123239 0.000000
0.633803 1.133803 0.000000
0.644366 1.144366 0.000000
0.654930 1.154930 0.000000
0.665493 1.165493 0.000000
0.676056 1.176056 0.000000
0.686620 1.186620 0.000000
0.697183 1.197183 0.000000
0.707746 1.207746 0.000000
0.718310 1.218310 0.000000
0.728873 1.228873 0.000000
0.739437 1.239437 0.000000
0.750000 1.250000 0.000000
0.760563 1.260563 0.000000
0.771127 1.271127 0.000000
0.781690 1.281690 0.000000
0.792254 1.292254 0.000000
0.802817 1.302817 0.000000
0.813380 1.313380 0.000000
0.823944 1.323944 0.000000
0.834507 1.334507 0.000000
0.845070 1.345070 0.000000
0.855634 1.355634 0.000000
0.866197 1.366197 0.000000
0.876761 1.376761 0.000000
0.887324 1.387324 0.000000
0.897887 1.397887 0.000000
0.908451 1.408451 0.000000
0.919014 1.419014 0.000000
0.929577 1.429577 0.000000
0.940141 1.440141 0.000000
0.950704 1.450704 0.000000
0.961268 1.461268 0.000000
0.971831 1.471831 0.000000
0.982394 1.482394 0.000000
0.992958 1.492958 0.000000
1.003521 1.503521 0.000000
1.014085 1.514085 0.000000
1.024648 1.524648 0.000000
1.035211 1.535211 0.000000
1.045775 1.545775 0.000000
1.056338 1.556338 0.000000
1.066901 1.566901 0.000000
1.077465 1.577465 0.000000
1.088028 1.588028 0.000000
1.098592 1.598592 0.000000
1.109155 1.609155 0.000000
1.119718 1.619718 0.000000
1.130282 1.630282 0.000000
1.140845 1.640845 0.000000
1.151408 1.651408 0.000000
1.161972 1.661972 0.000000
1.172535 1.672535 0.000000
1.183099 1.683099 0.000000
1.193662 1.693662 0.000000
1.204225 1.704225 0.000000
1.214789 1.714789 0.000000
1.225352 1.725352 0.000000
1.235915 1.735915 0.000000
1.246479 1.746479 0.000000
1.257042 1.757042 0.000000
1.267606 1.767606 0.000000
1.278169 1.778169 0.000000
1.288732 1.788732 0.000000
1.299296 1.799296 0.000000
1.309859 1.809859 0.000000
1.320423 1.820423 0.000000
1.330986 1.830986 0.000000
1.341549 1.841549 0.000000
1.352113 1.852113 0.000000
1.362676 1.862676 0.000000
1.373239 1.873239 0.000000
1.383803 1.883803 0.000000
1.394366 1.894366 0.000000
1.404930 1.904930 0.000000
1.415493 1.915493 0.000000
1.426056 1.926056 0.000000
1.436620 1.936620 0.000000
1.447183 1.947183 0.000000
1.457746 1.957746 0.000000
1.468310 1.968310 0.000000
1.478873 1.978873 0.000000
1.489437 1.989437 0.000000
1.510417 2.010417 0.000000
1.520833 2.020833 0.000000
1.531250 2.031250 0.000000
1.541667 2.041667 0.000000
1.552083 2.052083 0.000000
1.562500 2.062500 0.000000
1.572917 2.072917 0.000000
1.583333 2.083333 0.000000
1.593750 2.093750 0.000000
1.604167 2.104167 0.000000
1.614583 2.114583 0.000000
1.625000 2.125000 0.000000
1.635417 2.135417 0.000000
1.645833 2.145833 0.000000
1.656250 2.156250 0.000000
1.666667 2.166667 0.000000
1.677083 2.177083 0.000000
1.687500 2.187500 0.000000
1.697917 2.197917 0.000000
1.708333 2.208333 0.000000
1.718750 2.218750 0.000000
1.729167 2.229167 0.000000
1.739583 2.239583 0.000000
1.750000 2.250000 0.000000
1.760417 2.260417 0.000000
1.770833 2.270833 0.000000
1.781250 2.281250 0.000000
1.791667 2.291667 0.000000
1.802083 2.302083 0.000000
1.812500 2.312500 0.000000
1.822917 2.322917 0.000000
1.833333 2.333333 0.000000
1.843750 2.343750 0.000000
1.854167 2.354167 0.000000
1.864583 2.364583 0.000000
1.875000 2.375000 0.000000
1.885417 2.385417 0.000000
1.895833 2.395833 0.000000
1.906250 2.406250 0.000000
1.916667 2.416667 0.000000
1.927083 2.427083 0.000000
1.937500 2.437500 0.000000
1.947917 2.447917 0.000000
1.958333 2.458333 0.000000
1.968750 2.468750 0.000000
1.979167 2.479167 0.000000
1.989583 2.489583 0.000000
0.206561 0.791563 0.000000
0.205359 0.816165 0.000000
0.186354 0.798211 0.000000
0.221961 0.800924 0.000000
0.280649 1.360489 0.000000
0.304015 1.400469 0.000000
0.229142 1.396096 0.000000
0.275922 1.451476 0.000000
1.869084 2.391788 0.000000
1.857928 2.378421 0.000000
1.238669 2.061899 0.000000
1.278787 2.082276 0.000000
1.238298 2.096047 0.000000
1.277579 2.032995 0.000000
0.402536 1.205823 0.000000
0.415290 1.176040 0.000000
0.428330 1.201952 0.000000
0.387294 1.172617 0.000000
0.146930 1.050586 0.000000
0.109488 1.087198 0.000000
0.102742 1.042403 0.000000
0.157178 1.091184 0.000000
0.588967 1.178581 0.000000
0.593116 1.153718 0.000000
0.608054 1.166752 0.000000
0.612180 1.145944 0.000000
0.860304 1.543784 0.000000
0.868821 1.521840 0.000000
0.878420 1.536650 0.000000
0.845380 1.517623 0.000000
1.129525 1.764330 0.000000
1.142005 1.751560 0.000000
1.145757 1.773681 0.000000
1.159368 1.759106 0.000000
1.968150 2.518865 0.000000
1.986105 2.509269 0.000000
1.986696 2.531115 0.000000
0.668964 1.191005 0.000000
0.683291 1.201259 0.000000
0.557625 1.074830 0.000000
0.569760 1.084377 0.000000
0.557769 1.089278 0.000000
0.707567 1.266174 0.000000
0.719026 1.281845 0.000000
0.700768 1.282275 0.000000
0.722329 1.266956 0.000000
0.468225 2.149688 0.000000
0.419106 2.064198 0.000000
0.523878 2.082648 0.000000
0.838546 1.421191 0.000000
0.823708 1.410355 0.000000
0.840477 1.404206 0.000000
0.818500 1.425973 0.000000
0.953187 1.488222 0.000000
0.959780 1.473222 0.000000
0.967054 1.485637 0.000000
1.047418 1.769126 0.000000
1.080240 1.782403 0.000000
1.047768 1.802712 0.000000
0.971392 1.693320 0.000000
0.949208 1.720793 0.000000
0.940644 1.684781 0.000000
0.381391 2.160909 0.000000
0.944091 1.477800 0.000000
0.530075 1.477351 0.000000
0.521303 1.516669 0.000000
0.474240 1.491166 0.000000
0.489489 1.546185 0.000000
1.537370 2.239326 0.000000
1.555275 2.267640 0.000000
1.532966 2.278201 0.000000
0.962010 1.661716 0.000000
0.986804 1.643200 0.000000
0.986259 1.672729 0.000000
1.049149 1.737940 0.000000
1.075111 1.737123 0.000000
[...]
POINT_DATA 3011
SCALARS UX float 1
LOOKUP_TABLE default
-0.062176
0.073291
0.000000
-0.000000
-0.065188
0.038836
0.070247
-0.042942
-0.023665
-0.004356
0.014993
0.034389
0.053821
0.073319
0.073392
0.073517
0.073672
0.073851
0.074041
0.074228
0.074368
0.074415
0.074353
0.074143
0.073842
0.073459
0.073067
0.072673
0.072301
0.071965
0.071668
0.071411
0.071187
0.070993
0.070824
0.070678
0.070548
0.070435
0.070334
0.070154
0.070041
0.069907
0.069738
0.069542
0.069282
0.068944
0.068502
0.067850
0.066919
0.065524
0.063218
0.059255
0.051934
0.038447
-0.000000
0.000000
0.000000
-0.000000
-0.000000
0.000000
-0.037850
-0.054051
-0.061273
-0.064993
-0.066737
-0.067450
-0.067642
-0.067657
-0.067599
-0.067524
-0.067468
-0.067446
-0.067444
-0.067462
-0.067494
-0.067532
-0.067576
-0.067623
-0.067672
-0.067721
-0.067773
-0.067823
-0.067870
-0.067915
-0.067955
-0.067988
-0.068016
-0.068038
-0.068059
-0.068085
-0.068121
-0.068141
-0.068105
-0.068001
-0.068167
-0.067755
-0.062386
-0.062185
-0.062078
-0.062103
-0.062122
-0.062144
-0.062163
-0.064258
-0.063624
-0.062802
-0.062254
-0.061771
-0.060831
-0.060155
-0.059384
-0.058688
-0.057879
-0.057155
-0.056839
-0.055928
-0.054987
-0.054032
-0.053441
-0.052982
-0.052317
-0.051344
-0.050784
-0.049648
-0.049303
-0.048428
-0.047806
-0.047075
-0.046227
-0.045806
-0.044846
-0.044617
-0.043631
-0.043136
-0.042029
-0.041330
-0.040645
-0.039946
-0.039192
-0.038400
-0.037885
-0.037126
-0.036270
-0.035661
-0.034715
-0.033771
-0.033741
-0.032986
-0.031830
-0.031347
-0.030454
-0.029939
-0.029177
-0.028200
-0.027413
-0.026566
-0.026005
-0.025354
-0.024787
-0.024057
-0.023338
-0.022326
-0.021880
-0.021381
-0.020387
-0.019561
-0.018766
-0.018116
-0.017397
-0.017090
-0.016156
-0.015039
-0.014412
-0.013449
-0.013117
-0.012111
-0.011685
-0.011171
-0.010502
-0.009538
-0.009002
-0.008277
-0.007524
-0.006949
-0.006060
-0.005447
-0.004761
-0.003624
-0.002957
-0.002527
-0.001525
-0.000498
-0.000272
0.000409
0.001002
0.001858
0.002550
0.003289
0.004171
0.004821
0.005586
0.006142
0.007012
0.007585
0.008485
0.009572
0.009699
0.010850
0.011650
0.012566
0.012936
0.013583
0.014581
0.015267
0.016045
0.016487
0.017392
0.018205
0.018782
0.019814
0.020555
0.020875
0.021853
0.022857
0.023023
0.024319
0.024834
0.025468
0.026409
0.027109
0.027918
0.028684
0.029194
0.030043
0.030547
0.031568
0.032152
0.033080
0.033788
0.034687
0.035369
0.036212
0.036958
0.037648
0.039654
0.039849
0.040492
0.041109
0.041778
0.042449
0.043115
0.043789
0.044476
0.045156
0.045838
0.046519
0.047202
0.047883
0.048562
0.049242
0.049921
0.050596
0.051272
0.051945
0.052618
0.053289
0.053960
0.054627
0.055294
0.055959
0.056624
0.057285
0.057947
0.058605
0.059263
0.059919
0.060573
0.061227
0.061879
0.062530
0.063180
0.063829
0.064477
0.065123
0.065768
0.066412
0.067054
0.067695
0.068335
0.068973
0.069610
-0.054045
-0.054119
-0.055398
-0.053022
-0.048555
-0.046953
-0.052013
-0.048825
0.062037
0.061350
0.018488
0.021437
0.018547
0.021176
-0.040443
-0.039608
-0.038706
-0.041499
-0.057796
-0.060292
-0.060787
-0.057070
-0.027895
-0.027601
-0.026636
-0.026286
-0.009168
-0.008620
-0.007954
-0.010208
0.009605
0.010384
0.010753
0.011603
0.068023
0.069269
0.069189
-0.022633
-0.021295
-0.029997
-0.028730
-0.030060
-0.019766
-0.018998
-0.020221
-0.018776
-0.035974
-0.039254
-0.032051
-0.010777
-0.011799
-0.010693
-0.012124
-0.002930
-0.002136
-0.001871
0.004038
0.006328
0.004175
-0.001347
-0.002798
-0.003462
-0.041959
-0.003504
-0.031614
-0.032182
-0.035387
-0.034323
0.039565
0.040757
0.039173
-0.002055
-0.000408
-0.000382
0.004052
0.005810
0.005485
0.041754
0.005233
0.010470
0.011213
0.011614
0.010020
0.028131
0.030713
0.030262
0.034622
0.032325
0.032230
-0.027695
-0.028116
-0.025691
-0.036602
-0.032329
-0.034986
-0.026089
-0.031401
-0.047306
-0.045201
-0.047505
-0.045656
0.003455
-0.000081
0.003492
-0.002459
-0.040360
-0.039483
-0.035648
0.038649
0.039871
0.037859
-0.044760
-0.053517
-0.057300
-0.056028
-0.023701
-0.021809
-0.021365
-0.019737
-0.060124
-0.055993
-0.052961
-0.060465
0.058396
0.059591
0.060295
-0.002030
0.000086
0.002021
-0.038841
-0.036953
0.004918
-0.016162
-0.015898
-0.018529
-0.014081
0.037172
0.036906
0.035474
-0.010950
-0.010461
-0.012511
0.038544
-0.056937
-0.056410
-0.056039
-0.031000
-0.030436
-0.029046
-0.064122
-0.063959
-0.029234
-0.011324
-0.011068
-0.008127
-0.064079
-0.007547
0.004035
0.006695
-0.055963
-0.054816
-0.053398
-0.029089
-0.029209
-0.028111
-0.030048
-0.029884
0.043217
0.044185
0.043270
0.014780
0.013020
0.012589
0.009787
0.011409
0.009183
0.002986
0.003059
0.002068
0.008333
-0.039342
-0.040164
-0.040609
-0.010694
-0.012014
-0.011628
-0.005226
-0.010669
-0.060753
-0.059071
-0.061698
-0.028693
-0.030039
0.058258
0.001613
0.055993
0.055533
0.054591
-0.012444
-0.011040
-0.019398
-0.020245
0.049794
0.050714
0.047506
-0.021014
-0.022738
-0.021566
0.022243
0.021523
0.024564
0.018738
0.056786
0.057562
0.040300
0.016792
0.014282
0.014982
0.003069
0.004084
0.004376
0.034284
0.038846
0.027455
0.031331
0.035710
0.037296
0.035848
-0.027294
-0.029182
-0.029669
-0.031216
-0.030930
0.004214
0.053705
0.051822
0.053646
0.040429
0.037427
0.039812
0.038198
0.039561
0.041794
0.041237
0.051109
0.050896
-0.005306
-0.004075
-0.003811
-0.005484
-0.009911
-0.008922
-0.009320
-0.008278
0.024876
0.023349
0.025295
0.023623
0.024443
0.023112
0.037075
0.038515
0.037522
0.053220
0.052416
-0.015994
-0.015820
-0.017470
-0.015187
-0.015394
-0.013545
-0.013433
-0.017133
-0.017469
-0.016226
-0.006210
-0.007335
-0.006597
-0.007212
0.016305
0.016558
0.017625
0.015166
-0.005028
-0.014753
-0.014516
-0.014983
-0.014289
-0.012976
-0.015522
0.047269
0.046081
0.045844
0.044697
0.011127
0.012189
-0.006680
-0.006558
-0.004869
0.008933
0.009091
0.007828
0.008217
0.007020
0.007814
0.007803
0.000002
-0.000675
0.000684
-0.001495
0.032273
0.032899
-0.017640
-0.016411
-0.017656
0.005596
0.005737
0.004683
0.029016
0.026116
0.024812
0.006746
0.003298
0.004254
0.002757
0.036889
0.037037
0.031633
0.033047
0.031577
0.033121
0.021383
0.021899
0.020259
0.021118
-0.062249
-0.063391
-0.065226
-0.058929
-0.039316
-0.038210
-0.038316
-0.023463
-0.019728
-0.035799
0.038324
-0.040404
-0.040882
-0.042676
-0.042960
0.008908
0.011948
0.012649
0.015498
-0.022284
-0.018433
-0.017785
-0.015042
0.049633
0.050567
0.050739
0.051488
0.038578
0.036086
-0.058224
-0.062411
-0.063284
-0.060766
-0.062226
-0.061146
-0.061862
-0.058010
-0.056410
0.003610
0.001802
0.002470
0.026452
0.023892
-0.034751
-0.034242
-0.036327
-0.035536
-0.037626
-0.008324
-0.007639
-0.010164
-0.009634
-0.041607
-0.042755
-0.043172
-0.041813
-0.016862
-0.013408
-0.055363
-0.054501
-0.053122
-0.053920
-0.055984
-0.061649
-0.063006
-0.061980
-0.061193
-0.060678
-0.053034
-0.051739
-0.051356
-0.052542
-0.050864
-0.012923
-0.011168
-0.011778
0.011751
-0.011439
-0.020722
-0.010522
-0.024983
-0.036260
0.063996
0.062840
0.065352
0.061211
0.059104
0.060857
-0.047533
-0.048228
-0.049400
-0.053838
-0.048925
-0.049477
-0.055715
0.055826
0.060521
0.059892
0.055990
0.002313
0.002132
-0.038537
-0.037047
-0.038361
-0.036543
-0.055490
-0.056395
-0.066050
-0.065018
-0.064481
-0.065685
0.062141
0.061906
0.060086
0.061262
-0.043321
-0.041709
0.021036
0.023480
0.020160
0.016233
0.024469
0.019109
0.011367
0.012218
0.001712
-0.019254
-0.019495
-0.017298
-0.065270
-0.065199
-0.066585
-0.064044
0.066794
0.036974
-0.050178
-0.050576
-0.052512
-0.067216
-0.066969
-0.051956
0.056129
0.055452
0.056956
-0.055904
-0.054920
-0.056379
-0.061563
-0.054910
-0.054009
0.065671
0.067129
0.066176
0.066578
0.067349
0.015824
0.018403
-0.052051
-0.051818
-0.050114
0.067726
0.027892
0.029558
0.031431
-0.038224
-0.035507
-0.034212
-0.037193
-0.033047
-0.031897
-0.023863
-0.022246
-0.061530
-0.061780
-0.065421
-0.063639
-0.062985
-0.061767
-0.036714
0.039992
-0.037857
-0.063975
-0.065328
-0.064177
-0.063257
0.066946
0.064628
-0.058566
-0.060101
-0.059529
0.068099
-0.064905
0.057502
0.059473
0.057459
-0.050109
-0.051423
-0.049617
-0.013550
-0.007873
-0.007634
-0.002490
-0.001649
-0.056962
-0.055813
-0.057769
-0.058748
0.026384
0.023107
-0.048618
-0.048025
-0.049794
-0.048516
-0.034178
-0.034225
-0.036738
-0.034520
-0.037239
-0.041544
-0.037934
-0.038271
-0.042171
-0.065038
-0.066149
0.056493
0.057926
-0.042678
-0.041535
-0.044495
-0.045185
-0.047700
0.038604
0.039023
0.037870
-0.028532
-0.029881
-0.041262
-0.043264
-0.028075
-0.026043
0.011835
0.007196
0.007436
0.010513
-0.063328
-0.047081
-0.046663
-0.047403
-0.045676
0.010212
0.058069
0.057477
0.056405
0.055949
-0.009547
-0.009406
-0.005106
-0.005200
-0.001627
-0.000959
0.054001
0.055266
0.067772
0.065335
-0.001851
0.001332
0.059848
0.062120
-0.062236
-0.039671
-0.043717
-0.049219
-0.049496
-0.048150
-0.050052
-0.050371
0.022742
-0.061919
-0.066712
0.024390
0.008271
0.005730
0.065708
0.065585
0.066117
-0.065754
-0.056438
-0.058198
-0.062963
0.007811
0.005997
0.004554
0.006646
0.055065
-0.055189
-0.054305
-0.052362
-0.051294
0.020992
0.019682
0.017435
0.019176
0.059107
-0.065524
-0.066391
-0.064558
-0.050922
-0.061555
-0.044534
-0.050542
-0.041371
-0.045134
-0.055976
-0.062767
-0.063305
0.011348
0.011996
0.005144
0.018115
-0.012425
-0.018389
0.001518
-0.062132
-0.019692
-0.059964
0.001771
-0.010838
-0.008509
-0.058544
-0.059960
-0.058770
-0.063034
-0.060628
-0.019309
-0.006913
-0.010529
-0.015083
-0.057873
-0.000476
-0.001213
-0.001859
-0.020811
-0.021888
-0.017985
-0.050050
-0.050281
-0.052912
-0.044059
-0.043362
-0.044604
-0.045350
-0.020443
-0.017659
-0.017526
-0.014530
-0.014540
0.014757
0.011335
0.001383
-0.003969
-0.005559
-0.004078
-0.002795
0.016564
0.011227
0.006686
0.006381
0.002148
-0.055438
-0.046904
-0.043658
-0.037332
-0.059055
-0.058657
-0.059807
-0.039575
0.068553
-0.047140
-0.048231
-0.050603
-0.049245
-0.031408
-0.036189
-0.027841
-0.025528
-0.023073
-0.064103
-0.046368
-0.045767
-0.061061
0.048115
0.048153
-0.004959
-0.051131
0.049119
0.063755
-0.047455
-0.053807
-0.048175
0.013900
-0.055529
-0.058391
-0.061287
-0.065592
-0.063216
0.058428
-0.056719
0.005259
0.000643
0.008433
-0.060202
-0.062620
0.062664
-0.046701
-0.046525
-0.047657
-0.059583
0.052340
0.049119
0.052227
0.060025
0.059913
0.060900
-0.058088
-0.055770
-0.055388
-0.056633
-0.060089
0.043418
0.033410
0.033245
0.024494
-0.044602
-0.044804
-0.021267
-0.020352
-0.038457
-0.032521
0.039759
-0.015240
-0.064635
-0.032260
-0.033544
-0.032509
0.002513
-0.028013
-0.026199
-0.026485
-0.057290
-0.049428
-0.044303
-0.044030
-0.039033
-0.055212
-0.023415
-0.025865
-0.025461
0.050443
0.058393
0.054088
0.005142
-0.040175
-0.040266
-0.038049
-0.060546
-0.056398
-0.057217
-0.059653
-0.031133
0.016280
-0.045437
-0.052540
-0.030812
-0.028328
-0.060653
-0.054409
-0.024896
-0.024729
-0.035837
0.009867
0.064611
0.063626
-0.057999
-0.041839
-0.016280
-0.062550
-0.051657
-0.048070
-0.052858
0.021219
-0.064521
0.018815
0.019180
0.017845
-0.024464
-0.015471
-0.060196
-0.027044
-0.038576
-0.041455
-0.043195
0.058566
-0.008301
-0.009677
-0.007454
-0.047987
-0.048609
-0.028454
-0.040003
-0.039571
-0.038373
-0.059701
-0.060865
-0.041074
-0.053988
0.051143
0.051940
-0.035621
-0.036073
-0.037149
0.049687
-0.012905
-0.012142
0.054424
0.055143
0.018245
-0.002516
-0.007201
-0.054688
-0.056441
0.003684
0.005620
0.014948
0.016278
-0.032985
-0.038427
-0.047515
-0.045997
-0.046615
0.042943
0.042554
0.004771
0.008957
-0.040956
-0.058325
-0.054353
-0.031436
-0.032019
-0.030075
-0.052185
-0.061297
-0.050275
-0.018430
-0.021359
-0.047456
-0.048719
-0.048476
0.057690
-0.024707
-0.023650
-0.027120
-0.058131
-0.057233
-0.044548
-0.042835
-0.032712
-0.027355
0.001534
-0.007565
0.021839
0.060843
-0.060788
-0.029847
-0.027528
-0.036410
-0.042764
-0.045167
-0.027817
-0.029552
-0.030001
0.047961
-0.014945
-0.023240
-0.025292
-0.004892
-0.014660
-0.034673
-0.034882
-0.033723
0.013962
0.014787
0.017828
0.001743
-0.023823
-0.044386
-0.045038
-0.046156
-0.046468
0.020887
0.022017
0.021223
-0.029158
-0.026024
-0.061714
-0.028882
-0.029994
-0.028316
-0.030812
0.011362
0.064896
0.064376
0.008071
0.019900
0.005693
0.013765
-0.052903
-0.052514
-0.051896
-0.044950
-0.043937
-0.043971
-0.030289
0.044848
0.042304
-0.012024
0.000763
-0.000873
-0.045966
-0.002267
-0.045674
-0.044609
-0.054071
-0.053945
-0.053054
-0.034579
-0.002740
-0.000909
-0.003084
-0.000001
0.063958
-0.051094
-0.052064
0.045917
-0.050083
-0.050594
0.055984
0.053640
0.052615
0.049649
0.050604
0.046050
0.049966
-0.057650
-0.056746
-0.057789
-0.040567
-0.044397
-0.045927
-0.006509
-0.010391
-0.034570
-0.053411
-0.041771
-0.034613
-0.025795
-0.054860
-0.054749
0.010732
-0.033131
-0.032826
-0.046182
-0.058044
0.063546
-0.015679
-0.054570
-0.059550
-0.050367
-0.013661
-0.017764
0.002257
-0.012366
-0.015311
-0.017127
-0.020846
-0.026238
-0.003492
-0.008199
-0.000342
-0.007575
0.002885
-0.039294
-0.049424
0.045874
0.046742
-0.044644
-0.034973
-0.021488
-0.023612
-0.025706
0.047788
0.041214
-0.005632
-0.007518
-0.007557
-0.006063
0.014026
0.015047
-0.042781
-0.043281
-0.042292
-0.053297
-0.005738
0.003176
-0.038054
0.036353
0.039076
-0.040574
-0.027815
-0.022963
-0.025905
0.064537
0.049155
0.052695
0.052775
-0.044728
-0.046712
0.063581
-0.032979
-0.020158
-0.034323
0.035082
-0.039537
-0.040062
-0.038613
-0.040879
-0.044687
-0.026803
-0.041644
0.031921
0.029233
0.027985
0.034687
0.035855
0.034967
0.033162
0.034588
0.016504
0.046073
0.044769
-0.041935
0.022344
0.017664
-0.033613
-0.033433
-0.032633
0.048745
0.045346
-0.021052
-0.033053
-0.025010
-0.039452
-0.036001
-0.018035
-0.017655
-0.019517
0.063796
0.063281
-0.027146
-0.018530
-0.032258
0.025327
0.044027
0.045960
0.047372
0.034721
0.034847
0.043490
-0.044532
-0.051798
-0.050786
-0.006171
-0.009511
-0.018377
-0.067037
-0.016586
0.030974
0.023110
0.025376
0.027573
-0.031116
-0.031764
-0.030826
-0.032322
0.032560
-0.037000
-0.037494
-0.036173
-0.019945
0.030826
0.031431
-0.067155
0.048483
0.048450
-0.042627
-0.003582
-0.066718
0.047143
-0.004395
0.028585
-0.032693
0.048492
-0.048921
0.032792
-0.031498
-0.028394
-0.015250
-0.019240
-0.047469
0.053275
0.054520
0.046628
0.060279
0.013524
0.014555
0.014482
-0.016406
-0.035568
-0.015286
-0.012066
0.013506
0.015444
-0.035898
0.015658
-0.024338
-0.025792
-0.024651
-0.023011
-0.024124
-0.023139
-0.022436
-0.021596
-0.021051
-0.051302
0.009656
-0.015767
0.063428
0.015324
0.016662
-0.031326
0.013709
-0.001232
-0.001052
-0.044523
-0.044109
-0.044960
0.003526
0.004767
0.002184
0.041109
0.041772
0.036803
0.038265
0.040840
0.042352
0.041964
0.041852
-0.044884
-0.064611
0.005995
0.006141
0.004889
0.009625
-0.028796
0.018081
0.019619
0.019697
-0.002003
-0.000037
-0.021571
-0.020650
0.021025
0.020047
0.021630
-0.002211
-0.003134
0.008393
0.000728
0.001284
-0.041859
-0.041004
0.050119
0.051667
-0.002091
-0.000594
-0.000735
0.050871
0.049281
0.043453
0.041757
-0.042755
0.026036
0.043436
-0.020936
-0.019835
-0.019498
0.030047
0.031552
0.029779
-0.024103
-0.038777
0.031537
-0.035756
-0.035854
-0.037009
0.033381
0.029509
-0.003062
-0.004012
-0.016825
-0.015721
-0.016707
0.034558
0.034573
0.033250
-0.004925
-0.003936
-0.017977
-0.005280
-0.015973
-0.014514
-0.013802
0.040106
0.038779
-0.051942
-0.052808
-0.012316
-0.011418
-0.010545
-0.011738
-0.010606
-0.062887
-0.004717
-0.031296
-0.032046
-0.030899
0.037255
-0.027410
-0.033062
-0.033598
-0.034290
0.022378
-0.012485
-0.049238
0.021844
0.040743
0.039654
0.026155
0.027036
0.027640
0.028624
0.009194
0.009601
0.010269
0.008537
0.009062
0.025298
0.048267
0.047060
-0.014749
-0.014060
-0.013968
-0.020643
-0.019161
-0.007898
-0.006904
-0.007986
0.011182
-0.025746
0.011887
0.012429
0.013095
0.011179
0.049302
0.006538
0.007006
0.045793
0.045681
0.047126
0.044237
0.019812
0.034962
-0.019525
-0.018605
0.020347
0.022913
0.022540
0.002044
0.001410
-0.024402
-0.025146
-0.025752
-0.024022
-0.023325
-0.005753
-0.004963
-0.006122
0.018456
0.018837
0.017131
0.018666
0.019698
0.042911
0.042479
0.036489
0.033482
0.028547
0.029067
0.030173
0.029921
0.031100
0.030205
-0.031259
0.040129
0.041310
0.041758
0.045279
0.044025
0.049844
0.050291
-0.006981
-0.024997
-0.024904
0.051258
0.052739
-0.039834
0.051914
0.042127
0.045250
0.032074
0.053703
-0.066330
-0.066598
-0.066338
-0.066686
-0.063645
0.009786
-0.013551
0.000648
-0.024953
-0.024599
-0.025541
-0.064490
-0.020906
0.031511
0.034014
0.022035
0.016914
0.027382
0.027473
0.026240
-0.025082
0.026625
0.000245
0.000830
0.001584
-0.025177
0.048000
0.001681
0.027801
0.026990
0.054087
0.055295
0.041390
0.042192
0.043326
0.044532
0.044539
0.007482
0.008462
-0.052327
0.024478
0.042552
0.043565
0.044437
-0.004332
-0.003569
-0.003115
-0.022230
-0.021592
-0.015673
-0.016948
-0.007995
-0.009278
0.012444
0.010945
0.010461
0.033169
-0.024273
-0.023324
-0.026127
0.052336
0.051066
0.027832
0.021826
0.019886
0.013638
-0.018525
-0.020934
-0.023557
0.054374
0.018251
0.016495
0.016445
0.053284
0.053580
0.052359
-0.042487
0.029698
-0.039775
-0.012388
-0.012793
-0.013611
-0.043234
0.014245
-0.031245
-0.059621
-0.023360
0.009472
0.009112
-0.005232
-0.002453
0.013474
-0.013444
-0.012892
-0.011837
0.012733
0.029379
-0.023677
-0.017768
-0.018645
-0.012251
-0.013459
0.014800
-0.012939
-0.057352
-0.057530
0.035718
0.012309
-0.034819
0.002864
0.002592
0.024974
0.006833
0.049462
0.043551
0.044908
-0.037455
0.012117
-0.022430
0.020502
-0.053803
-0.020217
-0.022477
0.017686
0.018748
0.017454
0.005970
0.006857
0.026539
0.024593
-0.047743
-0.047665
0.001475
-0.003467
0.022805
0.006300
0.002426
-0.014572
0.045264
-0.013294
0.046082
0.045688
0.001657
-0.027098
-0.026226
0.049295
0.047605
0.025533
0.025284
-0.001222
0.039826
0.041470
0.040666
0.028002
0.029195
0.052935
0.053533
0.020405
0.033480
0.035398
0.024157
-0.055267
0.042544
0.029484
0.024123
-0.026682
0.014632
0.031843
-0.038240
-0.031551
0.034501
0.006110
0.044818
0.047418
-0.023931
0.000814
-0.057817
-0.036895
-0.005865
-0.006893
-0.008030
-0.011140
-0.040819
-0.022998
-0.014759
-0.005314
0.028035
0.014147
0.014702
0.016043
0.008359
0.044838
-0.008467
0.036781
0.034698
0.034068
-0.034481
-0.020487
-0.005832
0.000319
0.000947
0.049850
0.037232
-0.033679
0.017613
0.016641
-0.005034
0.026789
0.054645
0.033147
0.037328
0.036934
-0.025834
0.036081
-0.010149
0.026275
0.053723
0.019884
-0.009733
-0.008907
-0.008214
-0.010729
-0.010199
-0.009149
-0.009243
0.007198
0.006786
0.017711
-0.002555
0.022754
0.023404
0.024213
-0.007524
0.005197
0.029026
0.038914
0.011980
-0.008734
0.012686
0.016248
0.016669
0.028446
-0.008822
0.005349
0.004167
0.031361
0.015295
0.031417
-0.009628
0.004383
0.000415
0.052592
0.039666
0.018166
0.025048
0.025472
0.042539
0.012653
0.022409
0.027436
-0.032148
-0.018346
0.034611
0.022600
0.040799
0.047094
0.048012
-0.009401
-0.004361
0.015919
-0.037584
-0.036676
-0.035661
-0.036840
-0.035689
-0.035683
-0.015333
-0.016187
-0.015238
0.063856
0.060806
0.060824
0.035380
0.033987
0.035387
0.058197
0.064953
0.004465
0.003557
-0.006817
0.041791
0.052511
0.051316
-0.018313
-0.020276
-0.018769
0.066145
0.064443
0.067357
0.063985
-0.019124
-0.036907
-0.034787
-0.020790
-0.020783
-0.019345
-0.017266
-0.016153
-0.021067
-0.022590
0.030578
0.028793
0.029047
0.029522
-0.019328
-0.011913
-0.022675
-0.024761
-0.023059
-0.007790
-0.001559
0.026732
0.023030
0.025485
0.023553
-0.029556
-0.028143
-0.029849
0.015522
0.016384
0.015401
-0.000750
-0.001955
-0.001411
-0.003008
0.066915
0.065633
-0.028649
-0.023952
-0.018529
-0.042341
-0.038388
-0.038398
-0.008707
-0.007039
-0.007284
-0.034017
-0.026343
-0.023975
-0.023589
-0.005237
0.023696
0.026281
0.026932
0.021062
0.045733
0.045947
0.051601
0.040268
0.000237
0.005836
0.004920
0.032930
0.034227
0.035287
0.036958
-0.014888
-0.023081
-0.018041
-0.053484
-0.055988
-0.006412
-0.007208
-0.005635
-0.007467
0.047221
0.048613
0.047493
0.049278
0.014256
0.013356
0.017341
0.011380
0.032806
0.033571
0.032290
0.034178
0.044442
0.044750
0.046026
0.043413
-0.016410
-0.015014
-0.035174
-0.035876
-0.044710
-0.043766
-0.045588
-0.031268
-0.033083
-0.032314
0.035870
0.035242
-0.013038
-0.012611
-0.013900
-0.013462
-0.040370
-0.020875
-0.022105
-0.020811
-0.022082
-0.040775
-0.040379
-0.039407
-0.038483
-0.030350
-0.031505
-0.031795