# vtk DataFile Version 2.0
Test
ASCII
DATASET POLYDATA
POINTS 3011 float
0.000000 0.000000 0.000000
2.000000 0.000000 0.000000
2.000000 4.000000 0.000000
0.000000 4.000000 0.000000
0.000000 0.500000 0.000000
1.500000 2.000000 0.000000
2.000000 2.500000 0.000000
0.285714 0.000000 0.000000
0.571429 0.000000 0.000000
0.857143 0.000000 0.000000
1.142857 0.000000 0.000000
1.428571 0.000000 0.000000
1.714286 0.000000 0.000000
2.000000 0.276366 0.000000
2.000000 0.523709 0.000000
2.000000 0.745076 0.000000
2.000000 0.943195 0.000000
2.000000 1.120508 0.000000
2.000000 1.279199 0.000000
2.000000 1.421225 0.000000
2.000000 1.548336 0.000000
2.000000 1.662097 0.000000
2.000000 1.763911 0.000000
2.000000 1.855033 0.000000
2.000000 1.936585 0.000000
2.000000 2.009573 0.000000
2.000000 2.074896 0.000000
2.000000 2.133358 0.000000
2.000000 2.185681 0.000000
2.000000 2.232509 0.000000
2.000000 2.274419 0.000000
2.000000 2.311927 0.000000
2.000000 2.345497 0.000000
2.000000 2.375541 0.000000
2.000000 2.402430 0.000000
2.000000 2.426495 0.000000
2.000000 2.448033 0.000000
2.000000 2.467309 0.000000
2.000000 2.484560 0.000000
2.000000 2.516256 0.000000
2.000000 2.535859 0.000000
2.000000 2.559499 0.000000
2.000000 2.588006 0.000000
2.000000 2.622383 0.000000
2.000000 2.663839 0.000000
2.000000 2.713831 0.000000
2.000000 2.774116 0.000000
2.000000 2.846815 0.000000
2.000000 2.934483 0.000000
2.000000 3.040202 0.000000
2.000000 3.167691 0.000000
2.000000 3.321430 0.000000
2.000000 3.506825 0.000000
2.000000 3.730395 0.000000
1.714286 4.000000 0.000000
1.428571 4.000000 0.000000
1.142857 4.000000 0.000000
0.857143 4.000000 0.000000
0.571429 4.000000 0.000000
0.285714 4.000000 0.000000
0.000000 3.713462 0.000000
0.000000 3.449209 0.000000
0.000000 3.205508 0.000000
0.000000 2.980761 0.000000
0.000000 2.773493 0.000000
0.000000 2.582346 0.000000
0.000000 2.406065 0.000000
0.000000 2.243495 0.000000
0.000000 2.093568 0.000000
0.000000 1.955302 0.000000
0.000000 1.827789 0.000000
0.000000 1.710194 0.000000
0.000000 1.601745 0.000000
0.000000 1.501730 0.000000
0.000000 1.409494 0.000000
0.000000 1.324431 0.000000
0.000000 1.245984 0.000000
0.000000 1.173639 0.000000
0.000000 1.106920 0.000000
0.000000 1.045390 0.000000
0.000000 0.988645 0.000000
0.000000 0.936314 0.000000
0.000000 0.888053 0.000000
0.000000 0.843545 0.000000
0.000000 0.802499 0.000000
0.000000 0.764646 0.000000
0.000000 0.729736 0.000000
0.000000 0.697541 0.000000
0.000000 0.667851 0.000000
0.000000 0.640469 0.000000
0.000000 0.615217 0.000000
0.000000 0.591929 0.000000
0.000000 0.570453 0.000000
0.000000 0.550646 0.000000
0.000000 0.532380 0.000000
0.000000 0.515535 0.000000
0.000000 0.483768 0.000000
0.000000 0.461535 0.000000
0.000000 0.431083 0.000000
0.000000 0.389372 0.000000
0.000000 0.332241 0.000000
0.000000 0.253989 0.000000
0.000000 0.146807 0.000000
0.010563 0.510563 0.000000
0.021127 0.521127 0.000000
0.031690 0.531690 0.000000
0.042254 0.542254 0.000000
0.052817 0.552817 0.000000
0.063380 0.563380 0.000000
0.073944 0.573944 0.000000
0.084507 0.584507 0.000000
0.095070 0.595070 0.000000
0.105634 0.605634 0.000000
0.116197 0.616197 0.000000
0.126761 0.626761 0.000000
0.137324 0.637324 0.000000
0.147887 0.647887 0.000000
0.158451 0.658451 0.000000
0.169014 0.669014 0.000000
0.179577 0.679577 0.000000
0.190141 0.690141 0.000000
0.200704 0.700704 0.000000
0.211268 0.711268 0.000000
0.221831 0.721831 0.000000
0.232394 0.732394 0.000000
0.242958 0.742958 0.000000
0.253521 0.753521 0.000000
0.264085 0.764085 0.000000
0.274648 0.774648 0.000000
0.285211 0.785211 0.000000
0.295775 0.795775 0.000000
0.306338 0.806338 0.000000
0.316901 0.816901 0.000000
0.327465 0.827465 0.000000
0.338028 0.838028 0.000000
0.348592 0.848592 0.000000
0.359155 0.859155 0.000000
0.369718 0.869718 0.000000
0.380282 0.880282 0.000000
0.390845 0.890845 0.000000
0.401408 0.901408 0.000000
0.411972 0.911972 0.000000
0.422535 0.922535 0.000000
0.433099 0.933099 0.000000
0.443662 0.943662 0.000000
0.454225 0.954225 0.000000
0.464789 0.964789 0.000000
0.475352 0.975352 0.000000
0.485915 0.985915 0.000000
0.496479 0.996479 0.000000
0.507042 1.007042 0.000000
0.517606 1.017606 0.000000
0.528169 1.028169 0.000000
0.538732 1.038732 0.000000
0.549296 1.049296 0.000000
0.559859 1.059859 0.000000
0.570423 1.070423 0.000000
0.580986 1.080986 0.000000
0.591549 1.091549 0.000000
0.602113 1.102113 0.000000
0.612676 1.112676 0.000000
0.623239 1.123239 0.000000
0.633803 1.133803 0.000000
0.644366 1.144366 0.000000
0.654930 1.154930 0.000000
0.665493 1.165493 0.000000
0.676056 1.176056 0.000000
0.686620 1.186620 0.000000
0.697183 1.197183 0.000000
0.707746 1.207746 0.000000
0.718310 1.218310 0.000000
0.728873 1.228873 0.000000
0.739437 1.239437 0.000000
0.750000 1.250000 0.000000
0.760563 1.260563 0.000000
0.771127 1.271127 0.000000
0.781690 1.281690 0.000000
0.792254 1.292254 0.000000
0.802817 1.302817 0.000000
0.813380 1.313380 0.000000
0.823944 1.323944 0.000000
0.834507 1.334507 0.000000
0.845070 1.345070 0.000000
0.855634 1.355634 0.000000
0.866197 1.366197 0.000000
0.876761 1.376761 0.000000
0.887324 1.387324 0.000000
0.897887 1.397887 0.000000
0.908451 1.408451 0.000000
0.919014 1.419014 0.000000
0.929577 1.429577 0.000000
0.940141 1.440141 0.000000
0.950704 1.450704 0.000000
0.961268 1.461268 0.000000
0.971831 1.471831 0.000000
0.982394 1.482394 0.000000
0.992958 1.492958 0.000000
1.003521 1.503521 0.000000
1.014085 1.514085 0.000000
1.024648 1.524648 0.000000
1.035211 1.535211 0.000000
1.045775 1.545775 0.000000
1.056338 1.556338 0.000000
1.066901 1.566901 0.000000
1.077465 1.577465 0.000000
1.088028 1.588028 0.000000
1.098592 1.598592 0.000000
1.109155 1.609155 0.000000
1.119718 1.619718 0.000000
1.130282 1.630282 0.000000
1.140845 1.640845 0.000000
1.151408 1.651408 0.000000
1.161972 1.661972 0.000000
1.172535 1.672535 0.000000
1.183099 1.683099 0.000000
1.193662 1.693662 0.000000
1.204225 1.704225 0.000000
1.214789 1.714789 0.000000
1.225352 1.725352 0.000000
1.235915 1.735915 0.000000
1.246479 1.746479 0.000000
1.257042 1.757042 0.000000
1.267606 1.767606 0.000000
1.278169 1.778169 0.000000
1.288732 1.788732 0.000000
1.299296 1.799296 0.000000
1.309859 1.809859 0.000000
1.320423 1.820423 0.000000
1.330986 1.830986 0.000000
1.341549 1.841549 0.000000
1.352113 1.852113 0.000000
1.362676 1.862676 0.000000
1.373239 1.873239 0.000000
1.383803 1.883803 0.000000
1.394366 1.894366 0.000000
1.404930 1.904930 0.000000
1.415493 1.915493 0.000000
1.426056 1.926056 0.000000
1.436620 1.936620 0.000000
1.447183 1.947183 0.000000
1.457746 1.957746 0.000000
1.468310 1.968310 0.000000
1.478873 1.978873 0.000000
1.489437 1.989437 0.000000
1.510417 2.010417 0.000000
1.520833 2.020833 0.000000
1.531250 2.031250 0.000000
1.541667 2.041667 0.000000
1.552083 2.052083 0.000000
1.562500 2.062500 0.000000
1.572917 2.072917 0.000000
1.583333 2.083333 0.000000
1.593750 2.093750 0.000000
1.604167 2.104167 0.000000
1.614583 2.114583 0.000000
1.625000 2.125000 0.000000
1.635417 2.135417 0.000000
1.645833 2.145833 0.000000
1.656250 2.156250 0.000000
1.666667 2.166667 0.000000
1.677083 2.177083 0.000000
1.687500 2.187500 0.000000
1.697917 2.197917 0.000000
1.708333 2.208333 0.000000
1.718750 2.218750 0.000000
1.729167 2.229167 0.000000
1.739583 2.239583 0.000000
1.750000 2.250000 0.000000
1.760417 2.260417 0.000000
1.770833 2.270833 0.000000
1.781250 2.281250 0.000000
1.791667 2.291667 0.000000
1.802083 2.302083 0.000000
1.812500 2.312500 0.000000
1.822917 2.322917 0.000000
1.833333 2.333333 0.000000
1.843750 2.343750 0.000000
1.854167 2.354167 0.000000
1.864583 2.364583 0.000000
1.875000 2.375000 0.000000
1.885417 2.385417 0.000000
1.895833 2.395833 0.000000
1.906250 2.406250 0.000000
1.916667 2.416667 0.000000
1.927083 2.427083 0.000000
1.937500 2.437500 0.000000
1.947917 2.447917 0.000000
1.958333 2.458333 0.000000
1.968750 2.468750 0.000000
1.979167 2.479167 0.000000
1.989583 2.489583 0.000000
0.206561 0.791563 0.000000
0.205359 0.816165 0.000000
0.186354 0.798211 0.000000
0.221961 0.800924 0.000000
0.280649 1.360489 0.000000
0.304015 1.400469 0.000000
0.229142 1.396096 0.000000
0.275922 1.451476 0.000000
1.869084 2.391788 0.000000
1.857928 2.378421 0.000000
1.238669 2.061899 0.000000
1.278787 2.082276 0.000000
1.238298 2.096047 0.000000
1.277579 2.032995 0.000000
0.402536 1.205823 0.000000
0.415290 1.176040 0.000000
0.428330 1.201952 0.000000
0.387294 1.172617 0.000000
0.146930 1.050586 0.000000
0.109488 1.087198 0.000000
0.102742 1.042403 0.000000
0.157178 1.091184 0.000000
0.588967 1.178581 0.000000
0.593116 1.153718 0.000000
0.608054 1.166752 0.000000
0.612180 1.145944 0.000000
0.860304 1.543784 0.000000
0.868821 1.521840 0.000000
0.878420 1.536650 0.000000
0.845380 1.517623 0.000000
1.129525 1.764330 0.000000
1.142005 1.751560 0.000000
1.145757 1.773681 0.000000
1.159368 1.759106 0.000000
1.968150 2.518865 0.000000
1.986105 2.509269 0.000000
1.986696 2.531115 0.000000
0.668964 1.191005 0.000000
0.683291 1.201259 0.000000
0.557625 1.074830 0.000000
0.569760 1.084377 0.000000
0.557769 1.089278 0.000000
0.707567 1.266174 0.000000
0.719026 1.281845 0.000000
0.700768 1.282275 0.000000
0.722329 1.266956 0.000000
0.468225 2.149688 0.000000
0.419106 2.064198 0.000000
0.523878 2.082648 0.000000
0.838546 1.421191 0.000000
0.823708 1.410355 0.000000
0.840477 1.404206 0.000000
0.818500 1.425973 0.000000
0.953187 1.488222 0.000000
0.959780 1.473222 0.000000
0.967054 1.485637 0.000000
1.047418 1.769126 0.000000
1.080240 1.782403 0.000000
1.047768 1.802712 0.000000
0.971392 1.693320 0.000000
0.949208 1.720793 0.000000
0.940644 1.684781 0.000000
0.381391 2.160909 0.000000
0.944091 1.477800 0.000000
0.530075 1.477351 0.000000
0.521303 1.516669 0.000000
0.474240 1.491166 0.000000
0.489489 1.546185 0.000000
1.537370 2.239326 0.000000
1.555275 2.267640 0.000000
1.532966 2.278201 0.000000
0.962010 1.661716 0.000000
0.986804 1.643200 0.000000
0.986259 1.672729 0.000000
1.049149 1.737940 0.000000
1.075111 1.737123 0.000000
[...]
POINT_DATA 3011
SCALARS UX float 1
LOOKUP_TABLE default
-0.021981
0.025496
0.000000
-0.000000
-0.023062
0.013475
0.024426
-0.015233
-0.008470
-0.001698
0.005084
0.011880
0.018683
0.025506
0.025534
0.025577
0.025629
0.025687
0.025748
0.025805
0.025848
0.025860
0.025834
0.025754
0.025633
0.025481
0.025327
0.025179
0.025047
0.024934
0.024839
0.024759
0.024692
0.024635
0.024587
0.024545
0.024509
0.024478
0.024450
0.024401
0.024370
0.024333
0.024288
0.024235
0.024165
0.024075
0.023956
0.023777
0.023519
0.023116
0.022424
0.021170
0.018727
0.013854
-0.000000
0.000000
0.000000
-0.000000
-0.000000
0.000000
-0.013886
-0.019530
-0.021901
-0.023007
-0.023482
-0.023656
-0.023697
-0.023700
-0.023694
-0.023693
-0.023700
-0.023715
-0.023734
-0.023755
-0.023777
-0.023798
-0.023819
-0.023839
-0.023858
-0.023877
-0.023897
-0.023915
-0.023933
-0.023948
-0.023961
-0.023973
-0.023983
-0.023992
-0.024000
-0.024009
-0.024022
-0.024033
-0.024030
-0.023988
-0.024024
-0.023926
-0.022050
-0.022003
-0.021958
-0.021960
-0.021964
-0.021971
-0.021977
-0.022710
-0.022491
-0.022198
-0.022018
-0.021847
-0.021505
-0.021271
-0.020995
-0.020753
-0.020460
-0.020198
-0.020120
-0.019795
-0.019459
-0.019114
-0.018918
-0.018769
-0.018537
-0.018182
-0.017997
-0.017584
-0.017480
-0.017155
-0.016955
-0.016692
-0.016385
-0.016238
-0.015892
-0.015820
-0.015462
-0.015294
-0.014892
-0.014656
-0.014413
-0.014170
-0.013904
-0.013628
-0.013458
-0.013186
-0.012877
-0.012671
-0.012338
-0.011996
-0.012016
-0.011745
-0.011324
-0.011160
-0.010840
-0.010673
-0.010415
-0.010065
-0.009792
-0.009495
-0.009302
-0.009070
-0.008870
-0.008608
-0.008351
-0.007985
-0.007835
-0.007673
-0.007316
-0.007024
-0.006747
-0.006526
-0.006271
-0.006174
-0.005841
-0.005434
-0.005227
-0.004880
-0.004778
-0.004414
-0.004264
-0.004080
-0.003837
-0.003485
-0.003299
-0.003040
-0.002770
-0.002573
-0.002258
-0.002052
-0.001822
-0.001413
-0.001179
-0.001039
-0.000683
-0.000311
-0.000249
-0.000004
0.000213
0.000517
0.000759
0.001009
0.001322
0.001551
0.001823
0.002014
0.002318
0.002514
0.002831
0.003224
0.003243
0.003658
0.003935
0.004254
0.004364
0.004592
0.004955
0.005197
0.005472
0.005617
0.005942
0.006230
0.006424
0.006793
0.007054
0.007155
0.007504
0.007864
0.007903
0.008376
0.008549
0.008765
0.009099
0.009343
0.009625
0.009893
0.010065
0.010370
0.010542
0.010912
0.011107
0.011433
0.011677
0.012000
0.012236
0.012535
0.012794
0.013035
0.013764
0.013808
0.014015
0.014221
0.014447
0.014675
0.014903
0.015134
0.015369
0.015603
0.015838
0.016073
0.016308
0.016543
0.016778
0.017014
0.017249
0.017483
0.017718
0.017952
0.018186
0.018420
0.018654
0.018886
0.019120
0.019352
0.019585
0.019817
0.020049
0.020281
0.020513
0.020744
0.020975
0.021206
0.021437
0.021668
0.021898
0.022129
0.022359
0.022589
0.022819
0.023049
0.023279
0.023509
0.023738
0.023967
0.024197
-0.019086
-0.019114
-0.019561
-0.018729
-0.017152
-0.016588
-0.018361
-0.017240
0.021499
0.021255
0.006309
0.007336
0.006328
0.007246
-0.014312
-0.014019
-0.013702
-0.014682
-0.020400
-0.021275
-0.021448
-0.020145
-0.009904
-0.009802
-0.009461
-0.009341
-0.003338
-0.003145
-0.002911
-0.003702
0.003225
0.003502
0.003626
0.003928
0.023648
0.024085
0.024066
-0.008070
-0.007613
-0.010665
-0.010230
-0.010663
-0.007050
-0.006779
-0.007211
-0.006692
-0.012601
-0.013768
-0.011250
-0.003903
-0.004261
-0.003869
-0.004376
-0.001144
-0.000898
-0.000797
0.001275
0.002074
0.001320
-0.000604
-0.001113
-0.001344
-0.014687
-0.001344
-0.011210
-0.011406
-0.012531
-0.012154
0.013646
0.014058
0.013502
-0.000850
-0.000271
-0.000264
0.001283
0.001899
0.001782
0.014410
0.001699
0.003552
0.003800
0.003942
0.003397
0.009653
0.010558
0.010394
0.011920
0.011112
0.011085
-0.009837
-0.009986
-0.009135
-0.012946
-0.011450
-0.012374
-0.009275
-0.011116
-0.016720
-0.015981
-0.016789
-0.016141
0.001086
-0.000136
0.001099
-0.000955
-0.014235
-0.013945
-0.012594
0.013342
0.013765
0.013061
-0.015782
-0.018897
-0.020222
-0.019778
-0.008437
-0.007772
-0.007617
-0.007045
-0.021213
-0.019697
-0.018620
-0.021245
0.020229
0.020644
0.020895
-0.000813
-0.000083
0.000590
-0.013749
-0.013087
0.001593
-0.005791
-0.005696
-0.006619
-0.005061
0.012844
0.012741
0.012246
-0.003964
-0.003792
-0.004511
0.013321
-0.020096
-0.019943
-0.019803
-0.010996
-0.010798
-0.010309
-0.022614
-0.022554
-0.010375
-0.004087
-0.004002
-0.002973
-0.022601
-0.002773
0.001270
0.002198
-0.019758
-0.019356
-0.018859
-0.010328
-0.010380
-0.010001
-0.010663
-0.010604
0.014942
0.015272
0.014960
0.005011
0.004399
0.004247
0.003280
0.003843
0.003065
0.000931
0.000949
0.000599
0.002773
-0.013922
-0.014212
-0.014368
-0.003873
-0.004337
-0.004201
-0.001962
-0.003864
-0.021439
-0.020849
-0.021770
-0.010185
-0.010658
0.020175
0.000440
0.019368
0.019210
0.018881
-0.004488
-0.003995
-0.006918
-0.007214
0.017208
0.017532
0.016406
-0.007487
-0.008092
-0.007677
0.007588
0.007342
0.008397
0.006370
0.019646
0.019918
0.013921
0.005715
0.004842
0.005083
0.000945
0.001293
0.001397
0.011844
0.013500
0.009501
0.010971
0.012345
0.012926
0.012405
-0.009696
-0.010357
-0.010528
-0.011072
-0.010972
0.001363
0.018582
0.017920
0.018558
0.013925
0.012877
0.013714
0.013142
0.013631
0.014411
0.014221
0.017664
0.017589
-0.001983
-0.001550
-0.001459
-0.002043
-0.003599
-0.003248
-0.003390
-0.003022
0.008535
0.008004
0.008685
0.008132
0.008412
0.007935
0.012827
0.013330
0.012976
0.018398
0.018118
-0.005729
-0.005668
-0.006247
-0.005450
-0.005523
-0.004874
-0.004835
-0.006126
-0.006244
-0.005806
-0.002297
-0.002693
-0.002433
-0.002650
0.005561
0.005658
0.006027
0.005167
-0.001846
-0.005291
-0.005211
-0.005378
-0.005135
-0.004674
-0.005557
0.016334
0.015920
0.015840
0.015440
0.003750
0.004126
-0.002464
-0.002423
-0.001831
0.002973
0.003044
0.002630
0.002758
0.002335
0.002617
0.002604
-0.000121
-0.000357
0.000122
-0.000647
0.011119
0.011336
-0.006324
-0.005911
-0.006302
0.001840
0.001885
0.001516
0.009969
0.008953
0.008492
0.002242
0.001028
0.001367
0.000840
0.012707
0.012752
0.010900
0.011399
0.010886
0.011431
0.007332
0.007506
0.006933
0.007225
-0.021961
-0.022361
-0.023004
-0.020798
-0.013915
-0.013525
-0.013568
-0.008314
-0.007113
-0.012728
0.013273
-0.014298
-0.014466
-0.015096
-0.015195
0.002977
0.004032
0.004277
0.005267
-0.007884
-0.006547
-0.006309
-0.005364
0.017154
0.017477
0.017537
0.017796
0.013341
0.012470
-0.020512
-0.021967
-0.022286
-0.021439
-0.021951
-0.021572
-0.021823
-0.020476
-0.019915
0.001132
0.000498
0.000735
0.009088
0.008193
-0.012313
-0.012135
-0.012867
-0.012589
-0.013323
-0.003043
-0.002804
-0.003689
-0.003503
-0.014719
-0.015123
-0.015269
-0.014791
-0.006038
-0.004826
-0.019549
-0.019247
-0.018763
-0.019042
-0.019766
-0.021749
-0.022227
-0.021866
-0.021582
-0.021402
-0.018734
-0.018280
-0.018146
-0.018561
-0.017972
-0.004619
-0.004015
-0.004236
0.003960
-0.004396
-0.007785
-0.004031
-0.009442
-0.013195
0.022262
0.021837
0.022734
0.021275
0.020513
0.021123
-0.016801
-0.017045
-0.017456
-0.018976
-0.017262
-0.017442
-0.019619
0.019386
0.021051
0.020857
0.019473
0.000675
0.000610
-0.013643
-0.013119
-0.013580
-0.012942
-0.019597
-0.019902
-0.023293
-0.022972
-0.022772
-0.023162
0.021546
0.021472
0.020827
0.021231
-0.015322
-0.014756
0.007164
0.008011
0.006857
0.005498
0.008351
0.006592
0.003931
0.004160
0.000534
-0.006877
-0.006960
-0.006191
-0.023021
-0.022995
-0.023483
-0.022590
0.023262
0.013414
-0.017729
-0.017869
-0.018548
-0.023706
-0.023623
-0.018353
0.019430
0.019189
0.019716
-0.019733
-0.019390
-0.019902
-0.021651
-0.019385
-0.019068
0.022803
0.023317
0.022987
0.023118
0.023403
0.005381
0.006279
-0.018386
-0.018304
-0.017707
0.023555
0.009556
0.010142
0.010789
-0.013533
-0.012579
-0.012125
-0.013171
-0.011716
-0.011312
-0.008493
-0.007925
-0.021699
-0.021780
-0.023074
-0.022449
-0.022221
-0.021794
-0.013002
0.013841
-0.013404
-0.022567
-0.023044
-0.022631
-0.022308
0.023341
0.022535
-0.020664
-0.021204
-0.021003
0.023662
-0.022894
0.019927
0.020627
0.019922
-0.017706
-0.018167
-0.017535
-0.004771
-0.002819
-0.002730
-0.000962
-0.000670
-0.020110
-0.019708
-0.020393
-0.020735
0.009056
0.007913
-0.017185
-0.016978
-0.017596
-0.017147
-0.012113
-0.012128
-0.013010
-0.012230
-0.013184
-0.014688
-0.013425
-0.013538
-0.014902
-0.022938
-0.023332
0.019563
0.020070
-0.015096
-0.014695
-0.015733
-0.015974
-0.016857
0.013385
0.013524
0.013127
-0.010132
-0.010605
-0.014599
-0.015302
-0.009971
-0.009258
0.003981
0.002377
0.002462
0.003527
-0.022362
-0.016646
-0.016489
-0.016750
-0.016140
0.003449
0.020097
0.019894
0.019517
0.019361
-0.003438
-0.003398
-0.001902
-0.001927
-0.000688
-0.000461
0.018702
0.019142
0.023589
0.022714
-0.000775
0.000333
0.020751
0.021559
-0.021988
-0.014041
-0.015461
-0.017384
-0.017494
-0.017036
-0.017681
-0.017800
0.007776
-0.021867
-0.023526
0.008355
0.002753
0.001872
0.022803
0.022766
0.022976
-0.023189
-0.019910
-0.020520
-0.022185
0.002586
0.001959
0.001454
0.002179
0.019050
-0.019487
-0.019177
-0.018496
-0.018113
0.007171
0.006720
0.005934
0.006535
0.020462
-0.023108
-0.023412
-0.022769
-0.017992
-0.021715
-0.015534
-0.017655
-0.014442
-0.015736
-0.019560
-0.022140
-0.022332
0.003809
0.004040
0.001674
0.006148
-0.004392
-0.006450
0.000393
-0.021914
-0.006887
-0.021202
0.000481
-0.003858
-0.003046
-0.020659
-0.021155
-0.020737
-0.022236
-0.021393
-0.006789
-0.002471
-0.003755
-0.005290
-0.020426
-0.000281
-0.000546
-0.000768
-0.007416
-0.007797
-0.006430
-0.017682
-0.017762
-0.018686
-0.015579
-0.015334
-0.015771
-0.016035
-0.007277
-0.006308
-0.006256
-0.005212
-0.005210
0.004990
0.003805
0.000356
-0.001519
-0.002075
-0.001555
-0.001102
0.005620
0.003766
0.002199
0.002095
0.000636
-0.019472
-0.016404
-0.015324
-0.013046
-0.020830
-0.020695
-0.021103
-0.014007
0.023827
-0.016662
-0.017045
-0.017877
-0.017401
-0.011106
-0.012765
-0.009865
-0.009077
-0.008216
-0.022612
-0.016392
-0.016181
-0.021545
0.016626
0.016640
-0.001911
-0.018064
0.016973
0.022196
-0.016590
-0.018825
-0.016874
0.004699
-0.019452
-0.020611
-0.021622
-0.023133
-0.022299
0.020229
-0.020025
0.002069
0.000266
0.003213
-0.021236
-0.022089
0.021723
-0.016525
-0.016447
-0.016831
-0.021029
0.018105
0.016973
0.018070
0.020787
0.020752
0.021095
-0.020515
-0.019682
-0.019551
-0.019987
-0.021218
0.015387
0.012060
0.011808
0.008860
-0.015772
-0.015842
-0.007582
-0.007262
-0.013446
-0.011359
0.013687
-0.005464
-0.022799
-0.011439
-0.011890
-0.011526
0.000761
-0.009949
-0.009311
-0.009413
-0.020111
-0.017364
-0.015598
-0.015478
-0.013742
-0.019303
-0.008335
-0.009194
-0.009051
0.017740
0.020571
0.019176
0.001933
-0.014217
-0.014249
-0.013471
-0.021358
-0.019903
-0.020194
-0.021050
-0.011036
0.005512
-0.015945
-0.018428
-0.010931
-0.010058
-0.021403
-0.019212
-0.008855
-0.008795
-0.012695
0.003309
0.022437
0.022100
-0.020473
-0.014588
-0.005805
-0.022068
-0.018243
-0.016984
-0.018667
0.007242
-0.022760
0.006433
0.006558
0.006090
-0.008527
-0.005420
-0.021243
-0.009450
-0.013655
-0.014665
-0.015275
0.020429
-0.003020
-0.003510
-0.002731
-0.016966
-0.017165
-0.010100
-0.014157
-0.014005
-0.013586
-0.020885
-0.021314
-0.014533
-0.019068
0.017679
0.017954
-0.012617
-0.012777
-0.013156
0.017172
-0.004648
-0.004379
0.018828
0.019093
0.006226
-0.000989
-0.002613
-0.019314
-0.019928
0.001149
0.001821
0.005502
0.006167
-0.011600
-0.013509
-0.016796
-0.016265
-0.016480
0.014806
0.014667
0.001536
0.002988
-0.014471
-0.020574
-0.019184
-0.011150
-0.011355
-0.010673
-0.018458
-0.021626
-0.017703
-0.006581
-0.007603
-0.016775
-0.017218
-0.017132
0.020028
-0.008773
-0.008409
-0.009621
-0.020512
-0.020223
-0.015753
-0.015151
-0.011529
-0.009646
0.000505
-0.002770
0.007775
0.021081
-0.021312
-0.010547
-0.009748
-0.012896
-0.015121
-0.015966
-0.009879
-0.010489
-0.010647
0.017142
-0.005243
-0.008103
-0.008819
-0.001835
-0.005213
-0.012281
-0.012374
-0.011976
0.004729
0.005011
0.006062
0.000488
-0.008456
-0.015696
-0.015924
-0.016317
-0.016427
0.007172
0.007560
0.007301
-0.010338
-0.009243
-0.021783
-0.010253
-0.010643
-0.010053
-0.010931
0.003824
0.022514
0.022328
0.002684
0.006832
0.001862
0.004664
-0.018681
-0.018555
-0.018347
-0.015893
-0.015536
-0.015548
-0.010618
0.015477
0.014586
-0.004340
0.000132
-0.000440
-0.016250
-0.000923
-0.016141
-0.015800
-0.019090
-0.019056
-0.018750
-0.012253
-0.001093
-0.000454
-0.001212
-0.000136
0.022197
-0.018066
-0.018388
0.015850
-0.017703
-0.017870
0.019411
0.018592
0.018220
0.017175
0.017503
0.015897
0.017304
-0.020343
-0.020025
-0.020393
-0.014349
-0.015690
-0.016220
-0.002364
-0.003712
-0.012250
-0.018845
-0.014777
-0.012067
-0.009009
-0.019378
-0.019327
0.003603
-0.011531
-0.011638
-0.016326
-0.020486
0.022035
-0.005526
-0.019243
-0.020985
-0.017775
-0.004898
-0.006330
0.000660
-0.004405
-0.005414
-0.006058
-0.007339
-0.009273
-0.001289
-0.002913
-0.000209
-0.002701
0.000919
-0.013690
-0.017650
0.015853
0.016152
-0.015800
-0.012391
-0.007659
-0.008403
-0.009135
0.016692
0.014461
-0.002103
-0.002763
-0.002776
-0.002253
0.004784
0.005133
-0.015134
-0.015306
-0.014983
-0.018819
-0.002137
0.000971
-0.013472
0.012493
0.013446
-0.014356
-0.009788
-0.008102
-0.009106
0.022393
0.017046
0.018291
0.018350
-0.015816
-0.016512
0.022202
-0.011691
-0.007192
-0.012163
0.012053
-0.013994
-0.014188
-0.013701
-0.014461
-0.015771
-0.009522
-0.014759
0.010947
0.010007
0.009577
0.011982
0.012394
0.012077
0.011444
0.011949
0.005615
0.015922
0.015473
-0.014835
0.007666
0.006012
-0.011905
-0.011868
-0.011583
0.016843
0.015646
-0.007469
-0.011718
-0.008859
-0.013961
-0.012752
-0.006448
-0.006316
-0.006969
0.022128
0.021952
-0.009642
-0.006557
-0.011243
0.008658
0.015193
0.015869
0.016361
0.011946
0.011983
0.015009
-0.015725
-0.018291
-0.017949
-0.002289
-0.003460
-0.006567
-0.023647
-0.005939
0.010616
0.007884
0.008664
0.009449
-0.011033
-0.011262
-0.010948
-0.011459
0.011189
-0.013094
-0.013291
-0.012846
-0.007011
0.010608
0.010814
-0.023700
0.016755
0.016743
-0.015075
-0.001354
-0.023571
0.016291
-0.001666
0.009823
-0.011584
0.016757
-0.017288
0.011295
-0.011171
-0.010081
-0.005473
-0.006872
-0.016778
0.018581
0.019099
0.016188
0.021130
0.004598
0.004965
0.004933
-0.005867
-0.012635
-0.005476
-0.004355
0.004601
0.005275
-0.012712
0.005359
-0.008522
-0.009045
-0.008766
-0.008191
-0.008584
-0.008238
-0.007992
-0.007696
-0.007423
-0.018116
0.003227
-0.005647
0.022205
0.005237
0.005693
-0.011006
0.004656
-0.000558
-0.000513
-0.015751
-0.015592
-0.015890
0.001111
0.001549
0.000640
0.014158
0.014394
0.012650
0.013170
0.014115
0.014640
0.014502
0.014472
-0.015871
-0.022779
0.001972
0.002019
0.001581
0.003228
-0.010216
0.006163
0.006703
0.006726
-0.000835
-0.000147
-0.007678
-0.007364
0.007189
0.006846
0.007398
-0.000897
-0.001222
0.002787
0.000129
0.000323
-0.014803
-0.014508
0.017322
0.017862
-0.000858
-0.000332
-0.000383
0.017585
0.017031
0.015018
0.014425
-0.015119
0.008914
0.015014
-0.007464
-0.007076
-0.006959
0.010351
0.010879
0.010251
-0.008578
-0.013731
0.010871
-0.012665
-0.012704
-0.013108
0.011517
0.010158
-0.001192
-0.001525
-0.006027
-0.005649
-0.005975
0.011940
0.011929
0.011476
-0.001845
-0.001494
-0.006417
-0.001969
-0.005725
-0.005213
-0.004965
0.013865
0.013395
-0.018351
-0.018655
-0.004443
-0.004136
-0.003837
-0.004226
-0.003847
-0.022183
-0.001784
-0.011100
-0.011365
-0.010962
0.012843
-0.009734
-0.011718
-0.011909
-0.012150
0.007690
-0.004489
-0.017399
0.007507
0.014100
0.013731
0.008973
0.009284
0.009491
0.009849
0.003099
0.003232
0.003463
0.002855
0.003037
0.008678
0.016680
0.016263
-0.005288
-0.005065
-0.005024
-0.007360
-0.006837
-0.002899
-0.002556
-0.002911
0.003785
-0.009149
0.004045
0.004221
0.004473
0.003797
0.017038
0.002158
0.002331
0.015825
0.015785
0.016286
0.015283
0.006767
0.012059
-0.006967
-0.006657
0.006972
0.007876
0.007744
0.000598
0.000371
-0.008676
-0.008939
-0.009151
-0.008538
-0.008295
-0.002143
-0.001871
-0.002260
0.006314
0.006458
0.005844
0.006413
0.006762
0.014818
0.014672
0.012540
0.011489
0.009813
0.009993
0.010382
0.010299
0.010712
0.010404
-0.011087
0.013880
0.014292
0.014442
0.015649
0.015213
0.017224
0.017379
-0.002555
-0.008913
-0.008863
0.017721
0.018238
-0.014095
0.017943
0.014516
0.015613
0.010997
0.018574
-0.023394
-0.023488
-0.023421
-0.023519
-0.022448
0.003836
-0.005057
0.000095
-0.008869
-0.008744
-0.009074
-0.022765
-0.007454
0.010808
0.011685
0.008285
0.006492
0.009416
0.009451
0.009033
-0.008952
0.009155
-0.000030
0.000152
0.000415
-0.008951
0.016580
0.000472
0.009562
0.009276
0.018703
0.019123
0.014319
0.014591
0.014978
0.015393
0.015395
0.002505
0.002849
-0.018483
0.008411
0.014685
0.015042
0.015343
-0.001634
-0.001401
-0.001242
-0.007918
-0.007692
-0.005617
-0.006065
-0.002926
-0.003377
0.004200
0.003675
0.003509
0.011419
-0.008633
-0.008299
-0.009283
0.018096
0.017653
0.009544
0.007467
0.006790
0.004614
-0.006618
-0.007441
-0.008384
0.018807
0.006220
0.005609
0.005591
0.018426
0.018528
0.018103
-0.015028
0.010180
-0.014109
-0.004461
-0.004601
-0.004892
-0.015307
0.004877
-0.010935
-0.021042
-0.008311
0.003187
0.003080
-0.001900
-0.000987
0.004564
-0.004830
-0.004645
-0.004272
0.004309
0.010105
-0.008440
-0.006348
-0.006658
-0.004429
-0.004831
0.005023
-0.004669
-0.020237
-0.020304
0.012311
0.004186
-0.012336
0.000866
0.000766
0.008585
0.002270
0.017093
0.015052
0.015507
-0.013306
0.004340
-0.007983
0.006973
-0.018998
-0.007246
-0.008001
0.006055
0.006421
0.005988
0.001978
0.002289
0.009111
0.008434
-0.016874
-0.016847
0.000519
-0.001299
0.007818
0.002064
0.000711
-0.005230
0.015634
-0.004782
0.015917
0.015777
0.000470
-0.009647
-0.009343
0.017035
0.016445
0.008778
0.008701
-0.000516
0.013778
0.014315
0.014038
0.009641
0.010048
0.018303
0.018509
0.007137
0.011500
0.012192
0.008298
-0.019517
0.014712
0.010149
0.008274
-0.009478
0.005002
0.010981
-0.013571
-0.011203
0.011920
0.002013
0.015489
0.016385
-0.008513
0.000161
-0.020401
-0.013064
-0.002176
-0.002539
-0.002937
-0.004020
-0.014471
-0.008198
-0.005314
-0.001979
0.009639
0.004804
0.004984
0.005454
0.002787
0.015469
-0.003091
0.012691
0.011961
0.011748
-0.012257
-0.007300
-0.002188
-0.000034
0.000179
0.017228
0.012813
-0.011934
0.006018
0.005705
-0.001883
0.009193
0.018895
0.011427
0.012926
0.012793
-0.009413
0.012481
-0.003682
0.009034
0.018574
0.006811
-0.003522
-0.003272
-0.003033
-0.003877
-0.003691
-0.003352
-0.003355
0.002383
0.002242
0.006033
-0.001006
0.007789
0.008017
0.008297
-0.002761
0.001706
0.009989
0.013425
0.004082
-0.003187
0.004326
0.005556
0.005677
0.009787
-0.003216
0.001738
0.001337
0.010800
0.005202
0.010823
-0.003498
0.001407
0.000020
0.018182
0.013738
0.006175
0.008608
0.008749
0.014710
0.004296
0.007673
0.009429
-0.011399
-0.006553
0.011948
0.007739
0.014110
0.016271
0.016589
-0.003419
-0.001645
0.005417
-0.013366
-0.013041
-0.012684
-0.013100
-0.012709
-0.012713
-0.005561
-0.005849
-0.005525
0.022119
0.021048
0.021066
0.012230
0.011739
0.012234
0.020139
0.022516
0.001394
0.001076
-0.002562
0.014477
0.018230
0.017812
-0.006601
-0.007293
-0.006761
0.022891
0.022294
0.023314
0.022137
-0.006886
-0.013136
-0.012377
-0.007471
-0.007467
-0.006963
-0.006229
-0.005838
-0.007563
-0.008102
0.010551
0.009921
0.010015
0.010172
-0.006956
-0.004350
-0.008131
-0.008864
-0.008264
-0.002903
-0.000718
0.009210
0.007913
0.008772
0.008097
-0.010543
-0.010048
-0.010653
0.005264
0.005569
0.005225
-0.000438
-0.000861
-0.000671
-0.001231
0.023246
0.022807
-0.010235
-0.008575
-0.006671
-0.015021
-0.013635
-0.013639
-0.003229
-0.002643
-0.002730
-0.012102
-0.009415
-0.008584
-0.008448
-0.002010
0.008144
0.009048
0.009277
0.007221
0.015854
0.015931
0.017906
0.013943
-0.000087
0.001876
0.001556
0.011377
0.011829
0.012198
0.012781
-0.005393
-0.008267
-0.006498
-0.018932
-0.019812
-0.002428
-0.002709
-0.002154
-0.002798
0.016301
0.016783
0.016396
0.017012
0.004834
0.004518
0.005916
0.003825
0.011330
0.011598
0.011144
0.011812
0.015351
0.015479
0.015907
0.015007
-0.005919
-0.005444
-0.012506
-0.012753
-0.015881
-0.015549
-0.016159
-0.011160
-0.011755
-0.011511
0.012412
0.012190
-0.004756
-0.004609
-0.005067
-0.004904
-0.014336
-0.007491
-0.007918
-0.007490
-0.007915
-0.014504
-0.014354
-0.014021
-0.013678
-0.010838
-0.011213
-0.011311