# vtk DataFile Version 2.0
Test
ASCII
DATASET POLYDATA
POINTS 3011 float
0.000000 0.000000 0.000000
2.000000 0.000000 0.000000
2.000000 4.000000 0.000000
0.000000 4.000000 0.000000
0.000000 0.500000 0.000000
1.500000 2.000000 0.000000
2.000000 2.500000 0.000000
0.285714 0.000000 0.000000
0.571429 0.000000 0.000000
0.857143 0.000000 0.000000
1.142857 0.000000 0.000000
1.428571 0.000000 0.000000
1.714286 0.000000 0.000000
2.000000 0.276366 0.000000
2.000000 0.523709 0.000000
2.000000 0.745076 0.000000
2.000000 0.943195 0.000000
2.000000 1.120508 0.000000
2.000000 1.279199 0.000000
2.000000 1.421225 0.000000
2.000000 1.548336 0.000000
2.000000 1.662097 0.000000
2.000000 1.763911 0.000000
2.000000 1.855033 0.000000
2.000000 1.936585 0.000000
2.000000 2.009573 0.000000
2.000000 2.074896 0.000000
2.000000 2.133358 0.000000
2.000000 2.185681 0.000000
2.000000 2.232509 0.000000
2.000000 2.274419 0.000000
2.000000 2.311927 0.000000
2.000000 2.345497 0.000000
2.000000 2.375541 0.000000
2.000000 2.402430 0.000000
2.000000 2.426495 0.000000
2.000000 2.448033 0.000000
2.000000 2.467309 0.000000
2.000000 2.484560 0.000000
2.000000 2.516256 0.000000
2.000000 2.535859 0.000000
2.000000 2.559499 0.000000
2.000000 2.588006 0.000000
2.000000 2.622383 0.000000
2.000000 2.663839 0.000000
2.000000 2.713831 0.000000
2.000000 2.774116 0.000000
2.000000 2.846815 0.000000
2.000000 2.934483 0.000000
2.000000 3.040202 0.000000
2.000000 3.167691 0.000000
2.000000 3.321430 0.000000
2.000000 3.506825 0.000000
2.000000 3.730395 0.000000
1.714286 4.000000 0.000000
1.428571 4.000000 0.000000
1.142857 4.000000 0.000000
0.857143 4.000000 0.000000
0.571429 4.000000 0.000000
0.285714 4.000000 0.000000
0.000000 3.713462 0.000000
0.000000 3.449209 0.000000
0.000000 3.205508 0.000000
0.000000 2.980761 0.000000
0.000000 2.773493 0.000000
0.000000 2.582346 0.000000
0.000000 2.406065 0.000000
0.000000 2.243495 0.000000
0.000000 2.093568 0.000000
0.000000 1.955302 0.000000
0.000000 1.827789 0.000000
0.000000 1.710194 0.000000
0.000000 1.601745 0.000000
0.000000 1.501730 0.000000
0.000000 1.409494 0.000000
0.000000 1.324431 0.000000
0.000000 1.245984 0.000000
0.000000 1.173639 0.000000
0.000000 1.106920 0.000000
0.000000 1.045390 0.000000
0.000000 0.988645 0.000000
0.000000 0.936314 0.000000
0.000000 0.888053 0.000000
0.000000 0.843545 0.000000
0.000000 0.802499 0.000000
0.000000 0.764646 0.000000
0.000000 0.729736 0.000000
0.000000 0.697541 0.000000
0.000000 0.667851 0.000000
0.000000 0.640469 0.000000
0.000000 0.615217 0.000000
0.000000 0.591929 0.000000
0.000000 0.570453 0.000000
0.000000 0.550646 0.000000
0.000000 0.532380 0.000000
0.000000 0.515535 0.000000
0.000000 0.483768 0.000000
0.000000 0.461535 0.000000
0.000000 0.431083 0.000000
0.000000 0.389372 0.000000
0.000000 0.332241 0.000000
0.000000 0.253989 0.000000
0.000000 0.146807 0.000000
0.010563 0.510563 0.000000
0.021127 0.521127 0.000000
0.031690 0.531690 0.000000
0.042254 0.542254 0.000000
0.052817 0.552817 0.000000
0.063380 0.563380 0.000000
0.073944 0.573944 0.000000
0.084507 0.584507 0.000000
0.095070 0.595070 0.000000
0.105634 0.605634 0.000000
0.116197 0.616197 0.000000
0.126761 0.626761 0.000000
0.137324 0.637324 0.000000
0.147887 0.647887 0.000000
0.158451 0.658451 0.000000
0.169014 0.669014 0.000000
0.179577 0.679577 0.000000
0.190141 0.690141 0.000000
0.200704 0.700704 0.000000
0.211268 0.711268 0.000000
0.221831 0.721831 0.000000
0.232394 0.732394 0.000000
0.242958 0.742958 0.000000
0.253521 0.753521 0.000000
0.264085 0.764085 0.000000
0.274648 0.774648 0.000000
0.285211 0.785211 0.000000
0.295775 0.795775 0.000000
0.306338 0.806338 0.000000
0.316901 0.816901 0.000000
0.327465 0.827465 0.000000
0.338028 0.838028 0.000000
0.348592 0.848592 0.000000
0.359155 0.859155 0.000000
0.369718 0.869718 0.000000
0.380282 0.880282 0.000000
0.390845 0.890845 0.000000
0.401408 0.901408 0.000000
0.411972 0.911972 0.000000
0.422535 0.922535 0.000000
0.433099 0.933099 0.000000
0.443662 0.943662 0.000000
0.454225 0.954225 0.000000
0.464789 0.964789 0.000000
0.475352 0.975352 0.000000
0.485915 0.985915 0.000000
0.496479 0.996479 0.000000
0.507042 1.007042 0.000000
0.517606 1.017606 0.000000
0.528169 1.028169 0.000000
0.538732 1.038732 0.000000
0.549296 1.049296 0.000000
0.559859 1.059859 0.000000
0.570423 1.070423 0.000000
0.580986 1.080986 0.000000
0.591549 1.091549 0.000000
0.602113 1.102113 0.000000
0.612676 1.112676 0.000000
0.623239 1.123239 0.000000
0.633803 1.133803 0.000000
0.644366 1.144366 0.000000
0.654930 1.154930 0.000000
0.665493 1.165493 0.000000
0.676056 1.176056 0.000000
0.686620 1.186620 0.000000
0.697183 1.197183 0.000000
0.707746 1.207746 0.000000
0.718310 1.218310 0.000000
0.728873 1.228873 0.000000
0.739437 1.239437 0.000000
0.750000 1.250000 0.000000
0.760563 1.260563 0.000000
0.771127 1.271127 0.000000
0.781690 1.281690 0.000000
0.792254 1.292254 0.000000
0.802817 1.302817 0.000000
0.813380 1.313380 0.000000
0.823944 1.323944 0.000000
0.834507 1.334507 0.000000
0.845070 1.345070 0.000000
0.855634 1.355634 0.000000
0.866197 1.366197 0.000000
0.876761 1.376761 0.000000
0.887324 1.387324 0.000000
0.897887 1.397887 0.000000
0.908451 1.408451 0.000000
0.919014 1.419014 0.000000
0.929577 1.429577 0.000000
0.940141 1.440141 0.000000
0.950704 1.450704 0.000000
0.961268 1.461268 0.000000
0.971831 1.471831 0.000000
0.982394 1.482394 0.000000
0.992958 1.492958 0.000000
1.003521 1.503521 0.000000
1.014085 1.514085 0.000000
1.024648 1.524648 0.000000
1.035211 1.535211 0.000000
1.045775 1.545775 0.000000
1.056338 1.556338 0.000000
1.066901 1.566901 0.000000
1.077465 1.577465 0.000000
1.088028 1.588028 0.000000
1.098592 1.598592 0.000000
1.109155 1.609155 0.000000
1.119718 1.619718 0.000000
1.130282 1.630282 0.000000
1.140845 1.640845 0.000000
1.151408 1.651408 0.000000
1.161972 1.661972 0.000000
1.172535 1.672535 0.000000
1.183099 1.683099 0.000000
1.193662 1.693662 0.000000
1.204225 1.704225 0.000000
1.214789 1.714789 0.000000
1.225352 1.725352 0.000000
1.235915 1.735915 0.000000
1.246479 1.746479 0.000000
1.257042 1.757042 0.000000
1.267606 1.767606 0.000000
1.278169 1.778169 0.000000
1.288732 1.788732 0.000000
1.299296 1.799296 0.000000
1.309859 1.809859 0.000000
1.320423 1.820423 0.000000
1.330986 1.830986 0.000000
1.341549 1.841549 0.000000
1.352113 1.852113 0.000000
1.362676 1.862676 0.000000
1.373239 1.873239 0.000000
1.383803 1.883803 0.000000
1.394366 1.894366 0.000000
1.404930 1.904930 0.000000
1.415493 1.915493 0.000000
1.426056 1.926056 0.000000
1.436620 1.936620 0.000000
1.447183 1.947183 0.000000
1.457746 1.957746 0.000000
1.468310 1.968310 0.000000
1.478873 1.978873 0.000000
1.489437 1.989437 0.000000
1.510417 2.010417 0.000000
1.520833 2.020833 0.000000
1.531250 2.031250 0.000000
1.541667 2.041667 0.000000
1.552083 2.052083 0.000000
1.562500 2.062500 0.000000
1.572917 2.072917 0.000000
1.583333 2.083333 0.000000
1.593750 2.093750 0.000000
1.604167 2.104167 0.000000
1.614583 2.114583 0.000000
1.625000 2.125000 0.000000
1.635417 2.135417 0.000000
1.645833 2.145833 0.000000
1.656250 2.156250 0.000000
1.666667 2.166667 0.000000
1.677083 2.177083 0.000000
1.687500 2.187500 0.000000
1.697917 2.197917 0.000000
1.708333 2.208333 0.000000
1.718750 2.218750 0.000000
1.729167 2.229167 0.000000
1.739583 2.239583 0.000000
1.750000 2.250000 0.000000
1.760417 2.260417 0.000000
1.770833 2.270833 0.000000
1.781250 2.281250 0.000000
1.791667 2.291667 0.000000
1.802083 2.302083 0.000000
1.812500 2.312500 0.000000
1.822917 2.322917 0.000000
1.833333 2.333333 0.000000
1.843750 2.343750 0.000000
1.854167 2.354167 0.000000
1.864583 2.364583 0.000000
1.875000 2.375000 0.000000
1.885417 2.385417 0.000000
1.895833 2.395833 0.000000
1.906250 2.406250 0.000000
1.916667 2.416667 0.000000
1.927083 2.427083 0.000000
1.937500 2.437500 0.000000
1.947917 2.447917 0.000000
1.958333 2.458333 0.000000
1.968750 2.468750 0.000000
1.979167 2.479167 0.000000
1.989583 2.489583 0.000000
0.206561 0.791563 0.000000
0.205359 0.816165 0.000000
0.186354 0.798211 0.000000
0.221961 0.800924 0.000000
0.280649 1.360489 0.000000
0.304015 1.400469 0.000000
0.229142 1.396096 0.000000
0.275922 1.451476 0.000000
1.869084 2.391788 0.000000
1.857928 2.378421 0.000000
1.238669 2.061899 0.000000
1.278787 2.082276 0.000000
1.238298 2.096047 0.000000
1.277579 2.032995 0.000000
0.402536 1.205823 0.000000
0.415290 1.176040 0.000000
0.428330 1.201952 0.000000
0.387294 1.172617 0.000000
0.146930 1.050586 0.000000
0.109488 1.087198 0.000000
0.102742 1.042403 0.000000
0.157178 1.091184 0.000000
0.588967 1.178581 0.000000
0.593116 1.153718 0.000000
0.608054 1.166752 0.000000
0.612180 1.145944 0.000000
0.860304 1.543784 0.000000
0.868821 1.521840 0.000000
0.878420 1.536650 0.000000
0.845380 1.517623 0.000000
1.129525 1.764330 0.000000
1.142005 1.751560 0.000000
1.145757 1.773681 0.000000
1.159368 1.759106 0.000000
1.968150 2.518865 0.000000
1.986105 2.509269 0.000000
1.986696 2.531115 0.000000
0.668964 1.191005 0.000000
0.683291 1.201259 0.000000
0.557625 1.074830 0.000000
0.569760 1.084377 0.000000
0.557769 1.089278 0.000000
0.707567 1.266174 0.000000
0.719026 1.281845 0.000000
0.700768 1.282275 0.000000
0.722329 1.266956 0.000000
0.468225 2.149688 0.000000
0.419106 2.064198 0.000000
0.523878 2.082648 0.000000
0.838546 1.421191 0.000000
0.823708 1.410355 0.000000
0.840477 1.404206 0.000000
0.818500 1.425973 0.000000
0.953187 1.488222 0.000000
0.959780 1.473222 0.000000
0.967054 1.485637 0.000000
1.047418 1.769126 0.000000
1.080240 1.782403 0.000000
1.047768 1.802712 0.000000
0.971392 1.693320 0.000000
0.949208 1.720793 0.000000
0.940644 1.684781 0.000000
0.381391 2.160909 0.000000
0.944091 1.477800 0.000000
0.530075 1.477351 0.000000
0.521303 1.516669 0.000000
0.474240 1.491166 0.000000
0.489489 1.546185 0.000000
1.537370 2.239326 0.000000
1.555275 2.267640 0.000000
1.532966 2.278201 0.000000
0.962010 1.661716 0.000000
0.986804 1.643200 0.000000
0.986259 1.672729 0.000000
1.049149 1.737940 0.000000
1.075111 1.737123 0.000000
[...]
POINT_DATA 3011
SCALARS UX float 1
LOOKUP_TABLE default
-0.054481
0.063806
0.000000
-0.000000
-0.057070
0.033779
0.061219
-0.037680
-0.020844
-0.003981
0.012915
0.029849
0.046812
0.063831
0.063894
0.064001
0.064132
0.064282
0.064442
0.064598
0.064716
0.064755
0.064701
0.064520
0.064257
0.063923
0.063581
0.063241
0.062923
0.062639
0.062390
0.062176
0.061990
0.061830
0.061692
0.061572
0.061466
0.061373
0.061291
0.061143
0.061051
0.060941
0.060802
0.060641
0.060427
0.060149
0.059784
0.059242
0.058465
0.057292
0.055336
0.051941
0.045601
0.033753
-0.000000
0.000000
0.000000
-0.000000
-0.000000
0.000000
-0.033353
-0.047491
-0.053726
-0.056880
-0.058336
-0.058918
-0.059071
-0.059081
-0.059035
-0.058980
-0.058942
-0.058932
-0.058938
-0.058959
-0.058990
-0.059025
-0.059065
-0.059106
-0.059148
-0.059192
-0.059237
-0.059280
-0.059322
-0.059361
-0.059396
-0.059425
-0.059449
-0.059468
-0.059484
-0.059505
-0.059534
-0.059553
-0.059526
-0.059438
-0.059576
-0.059256
-0.054637
-0.054487
-0.054398
-0.054420
-0.054436
-0.054454
-0.054470
-0.056244
-0.055695
-0.054978
-0.054502
-0.054076
-0.053253
-0.052661
-0.051985
-0.051382
-0.050670
-0.050036
-0.049777
-0.048980
-0.048153
-0.047318
-0.046814
-0.046413
-0.045828
-0.044972
-0.044483
-0.043487
-0.043193
-0.042412
-0.041881
-0.041242
-0.040502
-0.040130
-0.039287
-0.039087
-0.038217
-0.037780
-0.036812
-0.036211
-0.035609
-0.035000
-0.034346
-0.033658
-0.033216
-0.032546
-0.031792
-0.031263
-0.030437
-0.029610
-0.029601
-0.028936
-0.027919
-0.027498
-0.026720
-0.026276
-0.025621
-0.024769
-0.024083
-0.023344
-0.022853
-0.022282
-0.021785
-0.021150
-0.020518
-0.019628
-0.019238
-0.018809
-0.017940
-0.017216
-0.016523
-0.015961
-0.015330
-0.015063
-0.014248
-0.013266
-0.012727
-0.011885
-0.011597
-0.010717
-0.010342
-0.009887
-0.009297
-0.008449
-0.007978
-0.007342
-0.006686
-0.006188
-0.005408
-0.004874
-0.004280
-0.003285
-0.002701
-0.002330
-0.001456
-0.000555
-0.000363
0.000240
0.000764
0.001508
0.002112
0.002754
0.003527
0.004095
0.004765
0.005248
0.006005
0.006499
0.007286
0.008241
0.008340
0.009342
0.010042
0.010842
0.011160
0.011724
0.012598
0.013194
0.013873
0.014262
0.015058
0.015770
0.016267
0.017170
0.017818
0.018097
0.018948
0.019821
0.019963
0.021106
0.021560
0.022107
0.022928
0.023536
0.024241
0.024911
0.025359
0.026101
0.026540
0.027433
0.027934
0.028748
0.029371
0.030157
0.030747
0.031479
0.032126
0.032732
0.034489
0.034650
0.035207
0.035743
0.036324
0.036908
0.037488
0.038075
0.038673
0.039266
0.039860
0.040453
0.041049
0.041642
0.042235
0.042827
0.043420
0.044009
0.044599
0.045187
0.045774
0.046361
0.046946
0.047529
0.048112
0.048693
0.049275
0.049853
0.050432
0.051008
0.051584
0.052158
0.052731
0.053304
0.053875
0.054446
0.055015
0.055584
0.056152
0.056719
0.057285
0.057850
0.058414
0.058977
0.059539
0.060099
0.060659
-0.047247
-0.047315
-0.048428
-0.046356
-0.042459
-0.041060
-0.045478
-0.042694
0.054020
0.053417
0.016035
0.018604
0.016084
0.018379
-0.035373
-0.034643
-0.033856
-0.036295
-0.050525
-0.052705
-0.053137
-0.049892
-0.024408
-0.024153
-0.023307
-0.023009
-0.008062
-0.007581
-0.007000
-0.008969
0.008315
0.008999
0.009317
0.010064
0.059281
0.060367
0.060304
-0.019835
-0.018679
-0.026275
-0.025179
-0.026300
-0.017309
-0.016639
-0.017708
-0.016442
-0.031423
-0.034295
-0.028009
-0.009461
-0.010353
-0.009385
-0.010639
-0.002613
-0.001950
-0.001710
0.003451
0.005449
0.003568
-0.001244
-0.002512
-0.003089
-0.036643
-0.003114
-0.027667
-0.028163
-0.030961
-0.030032
0.034408
0.035447
0.034065
-0.001858
-0.000418
-0.000399
0.003467
0.005003
0.004716
0.036317
0.004501
0.009082
0.009715
0.010064
0.008690
0.024433
0.026686
0.026292
0.030096
0.028091
0.028009
-0.024243
-0.024611
-0.022492
-0.032020
-0.028290
-0.030608
-0.022839
-0.027478
-0.041367
-0.039529
-0.041542
-0.039925
0.002934
-0.000145
0.002965
-0.002214
-0.035292
-0.034532
-0.031183
0.033612
0.034676
0.032922
-0.039135
-0.046791
-0.050094
-0.048983
-0.020755
-0.019100
-0.018714
-0.017290
-0.052560
-0.048933
-0.046280
-0.052828
0.050848
0.051887
0.052506
-0.001843
-0.000001
0.001685
-0.033975
-0.032325
0.004209
-0.014175
-0.013945
-0.016242
-0.012358
0.032327
0.032093
0.030845
-0.009620
-0.009195
-0.010984
0.033523
-0.049779
-0.049352
-0.049015
-0.027124
-0.026630
-0.025415
-0.056050
-0.055907
-0.025579
-0.009954
-0.009731
-0.007166
-0.056012
-0.006658
0.003443
0.005764
-0.048925
-0.047923
-0.046684
-0.025458
-0.025579
-0.024629
-0.026289
-0.026149
0.037585
0.038425
0.037633
0.012807
0.011271
0.010897
0.008466
0.009878
0.007935
0.002563
0.002617
0.001754
0.007197
-0.034402
-0.035120
-0.035510
-0.009391
-0.010545
-0.010207
-0.004631
-0.009370
-0.053106
-0.051638
-0.053932
-0.025108
-0.026284
0.050722
0.001353
0.048728
0.048331
0.047508
-0.010919
-0.009692
-0.016986
-0.017721
0.043336
0.044142
0.041340
-0.018397
-0.019905
-0.018877
0.019297
0.018669
0.021320
0.016242
0.049422
0.050100
0.035051
0.014558
0.012370
0.012981
0.002607
0.003483
0.003736
0.029850
0.033865
0.023912
0.027356
0.031060
0.032446
0.031181
-0.023890
-0.025534
-0.025959
-0.027313
-0.027062
0.003627
0.046753
0.045107
0.046697
0.035160
0.032540
0.034621
0.033213
0.034403
0.036351
0.035865
0.044462
0.044274
-0.004687
-0.003611
-0.003382
-0.004841
-0.008705
-0.007840
-0.008188
-0.007276
0.021601
0.020272
0.021970
0.020544
0.021256
0.020089
0.032246
0.033501
0.032635
0.046304
0.045602
-0.014016
-0.013864
-0.015305
-0.013320
-0.013499
-0.011884
-0.011785
-0.015010
-0.015305
-0.014217
-0.005474
-0.006458
-0.005813
-0.006351
0.014155
0.014382
0.015309
0.013166
-0.004453
-0.012928
-0.012725
-0.013143
-0.012536
-0.011390
-0.013602
0.041122
0.040088
0.039881
0.038882
0.009638
0.010568
-0.005887
-0.005783
-0.004307
0.007695
0.007853
0.006775
0.007116
0.006070
0.006766
0.006750
-0.000048
-0.000640
0.000549
-0.001358
0.028053
0.028593
-0.015487
-0.014428
-0.015475
0.004829
0.004949
0.004029
0.025207
0.022676
0.021538
0.005833
0.002818
0.003656
0.002347
0.032072
0.032201
0.027500
0.028731
0.027450
0.028796
0.018581
0.019028
0.017597
0.018341
-0.054413
-0.055411
-0.057012
-0.051514
-0.034381
-0.033414
-0.033508
-0.020543
-0.017330
-0.031361
0.033337
-0.035335
-0.035754
-0.037320
-0.037569
0.007685
0.010335
0.010944
0.013428
-0.019507
-0.016151
-0.015581
-0.013193
0.043181
0.043992
0.044145
0.044794
0.033554
0.031381
-0.050893
-0.054543
-0.055310
-0.053117
-0.054391
-0.053449
-0.054074
-0.050711
-0.049314
0.003085
0.001505
0.002091
0.022981
0.020747
-0.030400
-0.029956
-0.031777
-0.031087
-0.032913
-0.007328
-0.006732
-0.008937
-0.008476
-0.036383
-0.037386
-0.037751
-0.036563
-0.014784
-0.011766
-0.048400
-0.047647
-0.046443
-0.047139
-0.048942
-0.053886
-0.055071
-0.054174
-0.053486
-0.053038
-0.046369
-0.045240
-0.044903
-0.045937
-0.044470
-0.011343
-0.009815
-0.010349
0.010164
-0.010169
-0.018345
-0.009349
-0.022139
-0.031905
0.055786
0.054765
0.056967
0.053350
0.051497
0.053022
-0.041561
-0.042169
-0.043192
-0.047064
-0.042778
-0.043255
-0.048697
0.048653
0.052760
0.052228
0.048814
0.001949
0.001789
-0.033704
-0.032404
-0.033552
-0.031964
-0.048523
-0.049300
-0.057734
-0.056872
-0.056393
-0.057407
0.054120
0.053922
0.052329
0.053347
-0.037882
-0.036474
0.018244
0.020375
0.017481
0.014060
0.021237
0.016631
0.009897
0.010602
0.001457
-0.016873
-0.017084
-0.015163
-0.057049
-0.056988
-0.058198
-0.055979
0.058239
0.032504
-0.043871
-0.044219
-0.045910
-0.058744
-0.058531
-0.045423
0.048866
0.048271
0.049583
-0.048867
-0.048009
-0.049284
-0.053796
-0.047999
-0.047212
0.057215
0.058488
0.057660
0.058004
0.058687
0.013711
0.015962
-0.045509
-0.045304
-0.043817
0.059029
0.024222
0.025677
0.027309
-0.033434
-0.031063
-0.029933
-0.032537
-0.028914
-0.027910
-0.020895
-0.019482
-0.053787
-0.054003
-0.057183
-0.055627
-0.055056
-0.053992
-0.032114
0.034786
-0.033113
-0.055914
-0.057095
-0.056088
-0.055286
0.058387
0.056369
-0.051194
-0.052535
-0.052037
0.059338
-0.056727
0.050080
0.051806
0.050051
-0.043811
-0.044958
-0.043381
-0.011861
-0.006923
-0.006711
-0.002238
-0.001503
-0.049795
-0.048793
-0.050500
-0.051354
0.022912
0.020056
-0.042509
-0.041991
-0.043537
-0.042421
-0.029905
-0.029946
-0.032141
-0.030204
-0.032578
-0.036337
-0.033185
-0.033480
-0.036884
-0.056842
-0.057812
0.049189
0.050444
-0.037326
-0.036328
-0.038914
-0.039516
-0.041712
0.033578
0.033942
0.032943
-0.024973
-0.026152
-0.036087
-0.037836
-0.024572
-0.022798
0.010229
0.006190
0.006400
0.009078
-0.055375
-0.041168
-0.040799
-0.041448
-0.039940
0.008843
0.050544
0.050032
0.049094
0.048701
-0.008398
-0.008278
-0.004529
-0.004609
-0.001496
-0.000915
0.047029
0.048129
0.059082
0.056942
-0.001692
0.001082
0.052127
0.054118
-0.054440
-0.034698
-0.038232
-0.043036
-0.043280
-0.042117
-0.043766
-0.044044
0.019734
-0.054155
-0.058310
0.021173
0.007130
0.004916
0.057237
0.057134
0.057616
-0.057473
-0.049341
-0.050875
-0.055033
0.006730
0.005148
0.003891
0.005715
0.047928
-0.048248
-0.047476
-0.045779
-0.044850
0.018210
0.017071
0.015111
0.016626
0.051452
-0.057272
-0.058029
-0.056429
-0.044528
-0.053805
-0.038865
-0.044117
-0.036112
-0.039385
-0.048863
-0.054860
-0.055331
0.009809
0.010380
0.004413
0.015705
-0.010886
-0.016078
0.001249
-0.054304
-0.017204
-0.052467
0.001467
-0.009513
-0.007481
-0.051174
-0.052411
-0.051371
-0.055098
-0.052996
-0.016881
-0.006069
-0.009233
-0.013183
-0.050589
-0.000471
-0.001110
-0.001675
-0.018235
-0.019174
-0.015766
-0.043763
-0.043965
-0.046262
-0.038529
-0.037920
-0.039003
-0.039656
-0.017913
-0.015483
-0.015366
-0.012752
-0.012761
0.012774
0.009794
0.001144
-0.003528
-0.004914
-0.003619
-0.002493
0.014348
0.009701
0.005747
0.005484
0.001799
-0.048446
-0.040955
-0.038149
-0.032594
-0.051623
-0.051276
-0.052281
-0.034613
0.059738
-0.041220
-0.042174
-0.044245
-0.043058
-0.027481
-0.031648
-0.024369
-0.022351
-0.020207
-0.056032
-0.040544
-0.040019
-0.053375
0.041849
0.041884
-0.004411
-0.044704
0.042725
0.055588
-0.041430
-0.046979
-0.042072
0.012028
-0.048493
-0.051044
-0.053574
-0.057332
-0.055256
0.050865
-0.049584
0.004696
0.000580
0.007486
-0.052620
-0.054735
0.054570
-0.040846
-0.040677
-0.041668
-0.052092
0.045565
0.042752
0.045472
0.052256
0.052164
0.053021
-0.050804
-0.048748
-0.048416
-0.049504
-0.052550
0.038000
0.029345
0.029108
0.021523
-0.039002
-0.039179
-0.018630
-0.017830
-0.033579
-0.028394
0.034577
-0.013371
-0.056497
-0.028224
-0.029347
-0.028442
0.002115
-0.024517
-0.022931
-0.023183
-0.050048
-0.043188
-0.038727
-0.038479
-0.034123
-0.048203
-0.020507
-0.022646
-0.022294
0.044083
0.051045
0.047343
0.004552
-0.035142
-0.035220
-0.033283
-0.052928
-0.049307
-0.050015
-0.052144
-0.027247
0.014103
-0.039697
-0.045894
-0.026966
-0.024797
-0.053019
-0.047568
-0.021794
-0.021647
-0.031349
0.008519
0.056294
0.055441
-0.050702
-0.036512
-0.014276
-0.054676
-0.045168
-0.042036
-0.046208
0.018405
-0.056395
0.016346
0.016659
0.015494
-0.021352
-0.013522
-0.052620
-0.023613
-0.033746
-0.036260
-0.037779
0.051092
-0.007316
-0.008518
-0.006579
-0.041960
-0.042498
-0.024907
-0.034983
-0.034604
-0.033558
-0.052123
-0.053148
-0.035917
-0.047201
0.044500
0.045191
-0.031158
-0.031552
-0.032490
0.043231
-0.011332
-0.010667
0.047371
0.048016
0.015838
-0.002269
-0.006350
-0.047812
-0.049342
0.003133
0.004823
0.013181
0.014433
-0.028834
-0.033585
-0.041546
-0.040222
-0.040760
0.037355
0.037016
0.004080
0.007729
-0.035821
-0.050989
-0.047521
-0.027509
-0.028018
-0.026320
-0.045667
-0.053579
-0.043945
-0.016156
-0.018713
-0.041495
-0.042597
-0.042385
0.050271
-0.021635
-0.020713
-0.023742
-0.050824
-0.050066
-0.038953
-0.037457
-0.028606
-0.023928
0.001320
-0.006668
0.019130
0.052978
-0.053091
-0.026114
-0.024094
-0.031852
-0.037403
-0.039501
-0.024345
-0.025861
-0.026254
0.042046
-0.013069
-0.020287
-0.022078
-0.004344
-0.012854
-0.030322
-0.030531
-0.029530
0.012086
0.012802
0.015450
0.001441
-0.020861
-0.038811
-0.039382
-0.040358
-0.040631
0.018163
0.019130
0.018456
-0.025521
-0.022786
-0.053960
-0.025274
-0.026245
-0.024779
-0.026960
0.009819
0.056525
0.056068
0.006953
0.017304
0.004882
0.011916
-0.046245
-0.045922
-0.045387
-0.039305
-0.038420
-0.038449
-0.026465
0.039017
0.036797
-0.010561
0.000587
-0.000839
-0.040193
-0.002055
-0.039934
-0.039034
-0.047268
-0.047172
-0.046401
-0.030252
-0.002466
-0.000869
-0.002767
-0.000074
0.055716
-0.044689
-0.045515
0.039951
-0.043807
-0.044243
0.048770
0.046728
0.045824
0.043232
0.044059
0.040079
0.043522
-0.050392
-0.049603
-0.050514
-0.035484
-0.038829
-0.040163
-0.005744
-0.009127
-0.030243
-0.046697
-0.036526
-0.030208
-0.022525
-0.047972
-0.047859
0.009277
-0.028905
-0.028719
-0.040381
-0.050743
0.055343
-0.013725
-0.047707
-0.052053
-0.044040
-0.011992
-0.015572
0.001889
-0.010851
-0.013411
-0.014999
-0.018236
-0.022960
-0.003092
-0.007191
-0.000356
-0.006652
0.002465
-0.034286
-0.043333
0.039898
0.040653
-0.039053
-0.030593
-0.018824
-0.020680
-0.022508
0.041705
0.036001
-0.004983
-0.006631
-0.006663
-0.005357
0.012180
0.013052
-0.037416
-0.037852
-0.037011
-0.046592
-0.005082
0.002692
-0.033277
0.031604
0.033982
-0.035479
-0.024321
-0.020092
-0.022649
0.056216
0.042830
0.045922
0.046011
-0.039114
-0.040845
0.055475
-0.028853
-0.017656
-0.030026
0.030493
-0.034579
-0.035045
-0.033805
-0.035746
-0.039076
-0.023457
-0.036448
0.027736
0.025392
0.024303
0.030161
0.031180
0.030404
0.028831
0.030077
0.014302
0.040074
0.038940
-0.036675
0.019423
0.015326
-0.029402
-0.029273
-0.028576
0.042430
0.039459
-0.018438
-0.028916
-0.021893
-0.034511
-0.031496
-0.015803
-0.015474
-0.017099
0.055565
0.055119
-0.023755
-0.016227
-0.028150
0.021985
0.038300
0.039987
0.041219
0.030181
0.030290
0.037831
-0.038944
-0.045278
-0.044417
-0.005447
-0.008372
-0.016100
-0.058596
-0.014536
0.026917
0.020062
0.022030
0.023963
-0.027222
-0.027792
-0.026994
-0.028277
0.028295
-0.032357
-0.032808
-0.031676
-0.017444
0.026787
0.027314
-0.058722
0.042179
0.042148
-0.037274
-0.003196
-0.058361
0.041010
-0.003911
0.024831
-0.028602
0.042189
-0.042773
0.028502
-0.027560
-0.024848
-0.013372
-0.016859
-0.041506
0.046478
0.047607
0.040640
0.052640
0.011737
0.012641
0.012574
-0.014376
-0.031147
-0.013400
-0.010592
0.011729
0.013418
-0.031396
0.013608
-0.021266
-0.022541
-0.021577
-0.020145
-0.021121
-0.020260
-0.019647
-0.018912
-0.018420
-0.044851
0.008340
-0.013823
0.055372
0.013302
0.014456
-0.027379
0.011894
-0.001141
-0.001003
-0.038935
-0.038570
-0.039314
0.003022
0.004108
0.001849
0.035759
0.036342
0.032002
0.033286
0.035523
0.036839
0.036501
0.036404
-0.039249
-0.056476
0.005171
0.005296
0.004204
0.008329
-0.025206
0.015689
0.017034
0.017097
-0.001821
-0.000102
-0.018882
-0.018096
0.018256
0.017400
0.018780
-0.001983
-0.002791
0.007241
0.000578
0.001061
-0.036603
-0.035859
0.043609
0.044959
-0.001881
-0.000573
-0.000699
0.044268
0.042881
0.037797
0.036321
-0.037387
0.022604
0.037782
-0.018336
-0.017373
-0.017079
0.026115
0.027426
0.025883
-0.021104
-0.033914
0.027412
-0.031267
-0.031358
-0.032365
0.029019
0.025642
-0.002725
-0.003553
-0.014760
-0.013809
-0.014640
0.030049
0.030052
0.028914
-0.004350
-0.003485
-0.015744
-0.004661
-0.014002
-0.012726
-0.012106
0.034884
0.033726
-0.045417
-0.046172
-0.010812
-0.010048
-0.009296
-0.010297
-0.009329
-0.054969
-0.004189
-0.027382
-0.028035
-0.027031
0.032394
-0.023985
-0.028923
-0.029391
-0.029997
0.019447
-0.010948
-0.043051
0.018989
0.035434
0.034492
0.022723
0.023494
0.024017
0.024877
0.007968
0.008318
0.008899
0.007386
0.007843
0.021981
0.041986
0.040936
-0.012930
-0.012354
-0.012260
-0.018079
-0.016783
-0.006966
-0.006102
-0.007022
0.009698
-0.022532
0.010318
0.010791
0.011382
0.009697
0.042887
0.005630
0.006046
0.039833
0.039737
0.040991
0.038481
0.017191
0.030397
-0.017108
-0.016317
0.017681
0.019920
0.019594
0.001735
0.001181
-0.021356
-0.022007
-0.022537
-0.021023
-0.020413
-0.005094
-0.004406
-0.005394
0.016034
0.016367
0.014873
0.016226
0.017122
0.037326
0.036949
0.031725
0.029099
0.024810
0.025266
0.026230
0.026017
0.027041
0.026266
-0.027350
0.034905
0.035930
0.036320
0.039379
0.038296
0.043356
0.043747
-0.006141
-0.021910
-0.021811
0.044612
0.045901
-0.034833
0.045163
0.036645
0.039372
0.027872
0.046740
-0.057973
-0.058205
-0.058002
-0.058281
-0.055631
0.008731
-0.011983
0.000499
-0.021837
-0.021534
-0.022350
-0.056387
-0.018310
0.027378
0.029562
0.019506
0.015028
0.023795
0.023880
0.022820
-0.021997
0.023148
0.000163
0.000648
0.001305
-0.022036
0.041769
0.001415
0.024155
0.023446
0.047066
0.048118
0.035995
0.036691
0.037684
0.038732
0.038736
0.006478
0.007333
-0.045746
0.021264
0.037013
0.037896
0.038657
-0.003839
-0.003211
-0.002806
-0.019465
-0.018905
-0.013737
-0.014851
-0.007038
-0.008159
0.010777
0.009466
0.009047
0.028830
-0.021245
-0.020415
-0.022864
0.045547
0.044441
0.024171
0.018949
0.017258
0.011816
-0.016229
-0.018339
-0.020623
0.047322
0.015834
0.014302
0.014260
0.046371
0.046626
0.045564
-0.037160
0.025797
-0.034822
-0.010867
-0.011218
-0.011935
-0.037823
0.012380
-0.027291
-0.052118
-0.020446
0.008197
0.007902
-0.004617
-0.002202
0.011680
-0.011787
-0.011310
-0.010387
0.011037
0.025525
-0.020754
-0.015567
-0.016333
-0.010770
-0.011799
0.012833
-0.011371
-0.050133
-0.050301
0.031053
0.010679
-0.030457
0.002418
0.002179
0.021700
0.005895
0.043044
0.037921
0.039091
-0.032797
0.010627
-0.019636
0.017780
-0.047033
-0.017746
-0.019672
0.015357
0.016272
0.015175
0.005162
0.005933
0.023056
0.021359
-0.041745
-0.041676
0.001288
-0.003069
0.019814
0.005409
0.002042
-0.012774
0.039377
-0.011659
0.040090
0.039749
0.001375
-0.023747
-0.022985
0.042895
0.041421
0.022191
0.021988
-0.001125
0.034686
0.036069
0.035369
0.024346
0.025372
0.046063
0.046581
0.017810
0.029111
0.030799
0.020999
-0.048317
0.036999
0.025650
0.020963
-0.023349
0.012717
0.027693
-0.033477
-0.027630
0.030002
0.005259
0.038985
0.041242
-0.020947
0.000658
-0.050543
-0.032263
-0.005173
-0.006071
-0.007065
-0.009776
-0.035727
-0.020155
-0.012969
-0.004691
0.024362
0.012271
0.012741
0.013914
0.007225
0.039010
-0.007447
0.031983
0.030165
0.029606
-0.030202
-0.017944
-0.005177
0.000188
0.000736
0.043366
0.032370
-0.029462
0.015281
0.014470
-0.004448
0.023264
0.047549
0.028813
0.032468
0.032127
-0.022739
0.031379
-0.008914
0.022837
0.046745
0.017257
-0.008546
-0.007864
-0.007263
-0.009417
-0.008960
-0.008080
-0.008118
0.006213
0.005858
0.015360
-0.002279
0.019759
0.020329
0.021029
-0.006619
0.004487
0.025223
0.033841
0.010397
-0.007689
0.011016
0.014119
0.014465
0.024719
-0.007753
0.004588
0.003585
0.027255
0.013270
0.027305
-0.008460
0.003763
0.000307
0.045761
0.034500
0.015756
0.021776
0.022143
0.036998
0.010980
0.019464
0.023833
-0.028126
-0.016071
0.030093
0.019622
0.035488
0.040971
0.041774
-0.008263
-0.003860
0.013812
-0.033013
-0.032218
-0.031331
-0.032347
-0.031357
-0.031349
-0.013576
-0.014321
-0.013497
0.055536
0.052875
0.052890
0.030700
0.029484
0.030708
0.050598
0.056493
0.003721
0.002927
-0.006131
0.036309
0.045667
0.044623
-0.016187
-0.017903
-0.016586
0.057553
0.056062
0.058605
0.055671
-0.016893
-0.032421
-0.030565
-0.018353
-0.018344
-0.017089
-0.015262
-0.014291
-0.018583
-0.019924
0.026507
0.024944
0.025169
0.025581
-0.017071
-0.010586
-0.019992
-0.021815
-0.020325
-0.006983
-0.001542
0.023156
0.019924
0.022068
0.020380
-0.025997
-0.024764
-0.026254
0.013349
0.014106
0.013251
-0.000850
-0.001902
-0.001426
-0.002819
0.058215
0.057103
-0.025213
-0.021102
-0.016364
-0.037161
-0.033708
-0.033717
-0.007795
-0.006337
-0.006552
-0.029890
-0.023193
-0.021124
-0.020787
-0.004764
0.020507
0.022765
0.023332
0.018208
0.039742
0.039932
0.044864
0.034973
0.000027
0.004916
0.004116
0.028564
0.029695
0.030619
0.032078
-0.013182
-0.020338
-0.015934
-0.046889
-0.049078
-0.005795
-0.006493
-0.005116
-0.006712
0.041040
0.042250
0.041281
0.042833
0.012264
0.011479
0.014959
0.009752
0.028450
0.029119
0.027999
0.029651
0.038613
0.038880
0.039991
0.037719
-0.014497
-0.013296
-0.030883
-0.031491
-0.039237
-0.038409
-0.039982
-0.027491
-0.029038
-0.028402
0.031149
0.030599
-0.011581
-0.011209
-0.012335
-0.011942
-0.035437
-0.018405
-0.019468
-0.018364
-0.019462
-0.035800
-0.035458
-0.034611
-0.033799
-0.026692
-0.027665
-0.027927