# vtk DataFile Version 2.0
Test
ASCII
DATASET POLYDATA
POINTS 3011 float
0.000000 0.000000 0.000000
2.000000 0.000000 0.000000
2.000000 4.000000 0.000000
0.000000 4.000000 0.000000
0.000000 0.500000 0.000000
1.500000 2.000000 0.000000
2.000000 2.500000 0.000000
0.285714 0.000000 0.000000
0.571429 0.000000 0.000000
0.857143 0.000000 0.000000
1.142857 0.000000 0.000000
1.428571 0.000000 0.000000
1.714286 0.000000 0.000000
2.000000 0.276366 0.000000
2.000000 0.523709 0.000000
2.000000 0.745076 0.000000
2.000000 0.943195 0.000000
2.000000 1.120508 0.000000
2.000000 1.279199 0.000000
2.000000 1.421225 0.000000
2.000000 1.548336 0.000000
2.000000 1.662097 0.000000
2.000000 1.763911 0.000000
2.000000 1.855033 0.000000
2.000000 1.936585 0.000000
2.000000 2.009573 0.000000
2.000000 2.074896 0.000000
2.000000 2.133358 0.000000
2.000000 2.185681 0.000000
2.000000 2.232509 0.000000
2.000000 2.274419 0.000000
2.000000 2.311927 0.000000
2.000000 2.345497 0.000000
2.000000 2.375541 0.000000
2.000000 2.402430 0.000000
2.000000 2.426495 0.000000
2.000000 2.448033 0.000000
2.000000 2.467309 0.000000
2.000000 2.484560 0.000000
2.000000 2.516256 0.000000
2.000000 2.535859 0.000000
2.000000 2.559499 0.000000
2.000000 2.588006 0.000000
2.000000 2.622383 0.000000
2.000000 2.663839 0.000000
2.000000 2.713831 0.000000
2.000000 2.774116 0.000000
2.000000 2.846815 0.000000
2.000000 2.934483 0.000000
2.000000 3.040202 0.000000
2.000000 3.167691 0.000000
2.000000 3.321430 0.000000
2.000000 3.506825 0.000000
2.000000 3.730395 0.000000
1.714286 4.000000 0.000000
1.428571 4.000000 0.000000
1.142857 4.000000 0.000000
0.857143 4.000000 0.000000
0.571429 4.000000 0.000000
0.285714 4.000000 0.000000
0.000000 3.713462 0.000000
0.000000 3.449209 0.000000
0.000000 3.205508 0.000000
0.000000 2.980761 0.000000
0.000000 2.773493 0.000000
0.000000 2.582346 0.000000
0.000000 2.406065 0.000000
0.000000 2.243495 0.000000
0.000000 2.093568 0.000000
0.000000 1.955302 0.000000
0.000000 1.827789 0.000000
0.000000 1.710194 0.000000
0.000000 1.601745 0.000000
0.000000 1.501730 0.000000
0.000000 1.409494 0.000000
0.000000 1.324431 0.000000
0.000000 1.245984 0.000000
0.000000 1.173639 0.000000
0.000000 1.106920 0.000000
0.000000 1.045390 0.000000
0.000000 0.988645 0.000000
0.000000 0.936314 0.000000
0.000000 0.888053 0.000000
0.000000 0.843545 0.000000
0.000000 0.802499 0.000000
0.000000 0.764646 0.000000
0.000000 0.729736 0.000000
0.000000 0.697541 0.000000
0.000000 0.667851 0.000000
0.000000 0.640469 0.000000
0.000000 0.615217 0.000000
0.000000 0.591929 0.000000
0.000000 0.570453 0.000000
0.000000 0.550646 0.000000
0.000000 0.532380 0.000000
0.000000 0.515535 0.000000
0.000000 0.483768 0.000000
0.000000 0.461535 0.000000
0.000000 0.431083 0.000000
0.000000 0.389372 0.000000
0.000000 0.332241 0.000000
0.000000 0.253989 0.000000
0.000000 0.146807 0.000000
0.010563 0.510563 0.000000
0.021127 0.521127 0.000000
0.031690 0.531690 0.000000
0.042254 0.542254 0.000000
0.052817 0.552817 0.000000
0.063380 0.563380 0.000000
0.073944 0.573944 0.000000
0.084507 0.584507 0.000000
0.095070 0.595070 0.000000
0.105634 0.605634 0.000000
0.116197 0.616197 0.000000
0.126761 0.626761 0.000000
0.137324 0.637324 0.000000
0.147887 0.647887 0.000000
0.158451 0.658451 0.000000
0.169014 0.669014 0.000000
0.179577 0.679577 0.000000
0.190141 0.690141 0.000000
0.200704 0.700704 0.000000
0.211268 0.711268 0.000000
0.221831 0.721831 0.000000
0.232394 0.732394 0.000000
0.242958 0.742958 0.000000
0.253521 0.753521 0.000000
0.264085 0.764085 0.000000
0.274648 0.774648 0.000000
0.285211 0.785211 0.000000
0.295775 0.795775 0.000000
0.306338 0.806338 0.000000
0.316901 0.816901 0.000000
0.327465 0.827465 0.000000
0.338028 0.838028 0.000000
0.348592 0.848592 0.000000
0.359155 0.859155 0.000000
0.369718 0.869718 0.000000
0.380282 0.880282 0.000000
0.390845 0.890845 0.000000
0.401408 0.901408 0.000000
0.411972 0.911972 0.000000
0.422535 0.922535 0.000000
0.433099 0.933099 0.000000
0.443662 0.943662 0.000000
0.454225 0.954225 0.000000
0.464789 0.964789 0.000000
0.475352 0.975352 0.000000
0.485915 0.985915 0.000000
0.496479 0.996479 0.000000
0.507042 1.007042 0.000000
0.517606 1.017606 0.000000
0.528169 1.028169 0.000000
0.538732 1.038732 0.000000
0.549296 1.049296 0.000000
0.559859 1.059859 0.000000
0.570423 1.070423 0.000000
0.580986 1.080986 0.000000
0.591549 1.091549 0.000000
0.602113 1.102113 0.000000
0.612676 1.112676 0.000000
0.623239 1.123239 0.000000
0.633803 1.133803 0.000000
0.644366 1.144366 0.000000
0.654930 1.154930 0.000000
0.665493 1.165493 0.000000
0.676056 1.176056 0.000000
0.686620 1.186620 0.000000
0.697183 1.197183 0.000000
0.707746 1.207746 0.000000
0.718310 1.218310 0.000000
0.728873 1.228873 0.000000
0.739437 1.239437 0.000000
0.750000 1.250000 0.000000
0.760563 1.260563 0.000000
0.771127 1.271127 0.000000
0.781690 1.281690 0.000000
0.792254 1.292254 0.000000
0.802817 1.302817 0.000000
0.813380 1.313380 0.000000
0.823944 1.323944 0.000000
0.834507 1.334507 0.000000
0.845070 1.345070 0.000000
0.855634 1.355634 0.000000
0.866197 1.366197 0.000000
0.876761 1.376761 0.000000
0.887324 1.387324 0.000000
0.897887 1.397887 0.000000
0.908451 1.408451 0.000000
0.919014 1.419014 0.000000
0.929577 1.429577 0.000000
0.940141 1.440141 0.000000
0.950704 1.450704 0.000000
0.961268 1.461268 0.000000
0.971831 1.471831 0.000000
0.982394 1.482394 0.000000
0.992958 1.492958 0.000000
1.003521 1.503521 0.000000
1.014085 1.514085 0.000000
1.024648 1.524648 0.000000
1.035211 1.535211 0.000000
1.045775 1.545775 0.000000
1.056338 1.556338 0.000000
1.066901 1.566901 0.000000
1.077465 1.577465 0.000000
1.088028 1.588028 0.000000
1.098592 1.598592 0.000000
1.109155 1.609155 0.000000
1.119718 1.619718 0.000000
1.130282 1.630282 0.000000
1.140845 1.640845 0.000000
1.151408 1.651408 0.000000
1.161972 1.661972 0.000000
1.172535 1.672535 0.000000
1.183099 1.683099 0.000000
1.193662 1.693662 0.000000
1.204225 1.704225 0.000000
1.214789 1.714789 0.000000
1.225352 1.725352 0.000000
1.235915 1.735915 0.000000
1.246479 1.746479 0.000000
1.257042 1.757042 0.000000
1.267606 1.767606 0.000000
1.278169 1.778169 0.000000
1.288732 1.788732 0.000000
1.299296 1.799296 0.000000
1.309859 1.809859 0.000000
1.320423 1.820423 0.000000
1.330986 1.830986 0.000000
1.341549 1.841549 0.000000
1.352113 1.852113 0.000000
1.362676 1.862676 0.000000
1.373239 1.873239 0.000000
1.383803 1.883803 0.000000
1.394366 1.894366 0.000000
1.404930 1.904930 0.000000
1.415493 1.915493 0.000000
1.426056 1.926056 0.000000
1.436620 1.936620 0.000000
1.447183 1.947183 0.000000
1.457746 1.957746 0.000000
1.468310 1.968310 0.000000
1.478873 1.978873 0.000000
1.489437 1.989437 0.000000
1.510417 2.010417 0.000000
1.520833 2.020833 0.000000
1.531250 2.031250 0.000000
1.541667 2.041667 0.000000
1.552083 2.052083 0.000000
1.562500 2.062500 0.000000
1.572917 2.072917 0.000000
1.583333 2.083333 0.000000
1.593750 2.093750 0.000000
1.604167 2.104167 0.000000
1.614583 2.114583 0.000000
1.625000 2.125000 0.000000
1.635417 2.135417 0.000000
1.645833 2.145833 0.000000
1.656250 2.156250 0.000000
1.666667 2.166667 0.000000
1.677083 2.177083 0.000000
1.687500 2.187500 0.000000
1.697917 2.197917 0.000000
1.708333 2.208333 0.000000
1.718750 2.218750 0.000000
1.729167 2.229167 0.000000
1.739583 2.239583 0.000000
1.750000 2.250000 0.000000
1.760417 2.260417 0.000000
1.770833 2.270833 0.000000
1.781250 2.281250 0.000000
1.791667 2.291667 0.000000
1.802083 2.302083 0.000000
1.812500 2.312500 0.000000
1.822917 2.322917 0.000000
1.833333 2.333333 0.000000
1.843750 2.343750 0.000000
1.854167 2.354167 0.000000
1.864583 2.364583 0.000000
1.875000 2.375000 0.000000
1.885417 2.385417 0.000000
1.895833 2.395833 0.000000
1.906250 2.406250 0.000000
1.916667 2.416667 0.000000
1.927083 2.427083 0.000000
1.937500 2.437500 0.000000
1.947917 2.447917 0.000000
1.958333 2.458333 0.000000
1.968750 2.468750 0.000000
1.979167 2.479167 0.000000
1.989583 2.489583 0.000000
0.206561 0.791563 0.000000
0.205359 0.816165 0.000000
0.186354 0.798211 0.000000
0.221961 0.800924 0.000000
0.280649 1.360489 0.000000
0.304015 1.400469 0.000000
0.229142 1.396096 0.000000
0.275922 1.451476 0.000000
1.869084 2.391788 0.000000
1.857928 2.378421 0.000000
1.238669 2.061899 0.000000
1.278787 2.082276 0.000000
1.238298 2.096047 0.000000
1.277579 2.032995 0.000000
0.402536 1.205823 0.000000
0.415290 1.176040 0.000000
0.428330 1.201952 0.000000
0.387294 1.172617 0.000000
0.146930 1.050586 0.000000
0.109488 1.087198 0.000000
0.102742 1.042403 0.000000
0.157178 1.091184 0.000000
0.588967 1.178581 0.000000
0.593116 1.153718 0.000000
0.608054 1.166752 0.000000
0.612180 1.145944 0.000000
0.860304 1.543784 0.000000
0.868821 1.521840 0.000000
0.878420 1.536650 0.000000
0.845380 1.517623 0.000000
1.129525 1.764330 0.000000
1.142005 1.751560 0.000000
1.145757 1.773681 0.000000
1.159368 1.759106 0.000000
1.968150 2.518865 0.000000
1.986105 2.509269 0.000000
1.986696 2.531115 0.000000
0.668964 1.191005 0.000000
0.683291 1.201259 0.000000
0.557625 1.074830 0.000000
0.569760 1.084377 0.000000
0.557769 1.089278 0.000000
0.707567 1.266174 0.000000
0.719026 1.281845 0.000000
0.700768 1.282275 0.000000
0.722329 1.266956 0.000000
0.468225 2.149688 0.000000
0.419106 2.064198 0.000000
0.523878 2.082648 0.000000
0.838546 1.421191 0.000000
0.823708 1.410355 0.000000
0.840477 1.404206 0.000000
0.818500 1.425973 0.000000
0.953187 1.488222 0.000000
0.959780 1.473222 0.000000
0.967054 1.485637 0.000000
1.047418 1.769126 0.000000
1.080240 1.782403 0.000000
1.047768 1.802712 0.000000
0.971392 1.693320 0.000000
0.949208 1.720793 0.000000
0.940644 1.684781 0.000000
0.381391 2.160909 0.000000
0.944091 1.477800 0.000000
0.530075 1.477351 0.000000
0.521303 1.516669 0.000000
0.474240 1.491166 0.000000
0.489489 1.546185 0.000000
1.537370 2.239326 0.000000
1.555275 2.267640 0.000000
1.532966 2.278201 0.000000
0.962010 1.661716 0.000000
0.986804 1.643200 0.000000
0.986259 1.672729 0.000000
1.049149 1.737940 0.000000
1.075111 1.737123 0.000000
[...]
POINT_DATA 3011
SCALARS UX float 1
LOOKUP_TABLE default
-0.076575
0.091628
0.000000
-0.000000
-0.080517
0.048649
0.087579
-0.052717
-0.028795
-0.004823
0.019205
0.043296
0.067435
0.091664
0.091753
0.091913
0.092115
0.092350
0.092601
0.092850
0.093037
0.093099
0.093019
0.092752
0.092377
0.091899
0.091407
0.090904
0.090420
0.089971
0.089571
0.089217
0.088906
0.088634
0.088397
0.088190
0.088007
0.087846
0.087704
0.087449
0.087289
0.087099
0.086860
0.086585
0.086220
0.085749
0.085138
0.084246
0.082985
0.081123
0.078095
0.072994
0.063765
0.047221
-0.000000
0.000000
0.000000
-0.000000
-0.000000
0.000000
-0.046135
-0.066259
-0.075420
-0.080301
-0.082666
-0.083670
-0.083955
-0.083985
-0.083895
-0.083771
-0.083666
-0.083608
-0.083582
-0.083587
-0.083615
-0.083655
-0.083707
-0.083766
-0.083831
-0.083898
-0.083969
-0.084037
-0.084102
-0.084162
-0.084216
-0.084261
-0.084300
-0.084331
-0.084359
-0.084397
-0.084450
-0.084473
-0.084418
-0.084298
-0.084501
-0.083862
-0.076966
-0.076605
-0.076442
-0.076476
-0.076500
-0.076531
-0.076557
-0.079385
-0.078599
-0.077586
-0.076885
-0.076293
-0.075142
-0.074292
-0.073341
-0.072474
-0.071474
-0.070589
-0.070165
-0.069038
-0.067859
-0.066680
-0.065937
-0.065360
-0.064533
-0.063333
-0.062620
-0.061222
-0.060786
-0.059715
-0.058924
-0.058028
-0.056985
-0.056467
-0.055282
-0.054994
-0.053770
-0.053148
-0.051788
-0.050906
-0.050060
-0.049186
-0.048252
-0.047275
-0.046637
-0.045698
-0.044638
-0.043871
-0.042692
-0.041534
-0.041473
-0.040535
-0.039104
-0.038500
-0.037396
-0.036745
-0.035780
-0.034568
-0.033588
-0.032538
-0.031843
-0.031034
-0.030331
-0.029438
-0.028552
-0.027298
-0.026747
-0.026121
-0.024883
-0.023849
-0.022853
-0.022040
-0.021151
-0.020773
-0.019610
-0.018229
-0.017437
-0.016246
-0.015825
-0.014584
-0.014068
-0.013446
-0.012631
-0.011449
-0.010785
-0.009894
-0.008967
-0.008250
-0.007149
-0.006382
-0.005514
-0.004100
-0.003271
-0.002733
-0.001490
-0.000221
0.000066
0.000897
0.001609
0.002672
0.003534
0.004462
0.005554
0.006360
0.007303
0.007991
0.009078
0.009791
0.010920
0.012267
0.012442
0.013867
0.014875
0.016023
0.016498
0.017298
0.018525
0.019367
0.020336
0.020891
0.022013
0.023024
0.023746
0.025029
0.025946
0.026342
0.027556
0.028797
0.029014
0.030617
0.031267
0.032051
0.033217
0.034094
0.035109
0.036063
0.036688
0.037734
0.038360
0.039617
0.040348
0.041506
0.042394
0.043506
0.044354
0.045398
0.046328
0.047191
0.049676
0.049941
0.050749
0.051520
0.052356
0.053195
0.054025
0.054865
0.055723
0.056571
0.057421
0.058269
0.059120
0.059968
0.060814
0.061658
0.062503
0.063342
0.064181
0.065018
0.065853
0.066686
0.067518
0.068344
0.069171
0.069995
0.070817
0.071636
0.072453
0.073267
0.074079
0.074889
0.075696
0.076503
0.077306
0.078107
0.078907
0.079705
0.080502
0.081296
0.082089
0.082879
0.083667
0.084453
0.085238
0.086019
0.086800
-0.066960
-0.067052
-0.068637
-0.065694
-0.060077
-0.058088
-0.064373
-0.060416
0.077480
0.076636
0.023287
0.026963
0.023364
0.026631
-0.050019
-0.048987
-0.047866
-0.051333
-0.071570
-0.074666
-0.075286
-0.070664
-0.034465
-0.034098
-0.032908
-0.032456
-0.011193
-0.010516
-0.009689
-0.012484
0.012153
0.013110
0.013585
0.014629
0.084804
0.086358
0.086237
-0.027871
-0.026172
-0.037004
-0.035389
-0.037148
-0.024374
-0.023418
-0.024932
-0.023152
-0.044619
-0.048669
-0.039711
-0.013208
-0.014477
-0.013114
-0.014876
-0.003452
-0.002368
-0.002072
0.005245
0.008095
0.005426
-0.001460
-0.003255
-0.004087
-0.052070
-0.004160
-0.039044
-0.039749
-0.043728
-0.042409
0.049547
0.051031
0.049060
-0.002346
-0.000309
-0.000268
0.005253
0.007433
0.007036
0.052271
0.006710
0.013176
0.014167
0.014649
0.012627
0.035321
0.038532
0.037973
0.043397
0.040540
0.040421
-0.034182
-0.034707
-0.031698
-0.045243
-0.039936
-0.043242
-0.032194
-0.038790
-0.058536
-0.055923
-0.058781
-0.056492
0.004544
0.000128
0.004591
-0.002848
-0.049941
-0.048832
-0.044076
0.048401
0.049925
0.047420
-0.055401
-0.066242
-0.070940
-0.069363
-0.029230
-0.026886
-0.026331
-0.024315
-0.074449
-0.069383
-0.065634
-0.074965
0.072931
0.074431
0.075291
-0.002302
0.000343
0.002755
-0.048029
-0.045690
0.006372
-0.019861
-0.019531
-0.022798
-0.017278
0.046553
0.046227
0.044442
-0.013400
-0.012790
-0.015332
0.048264
-0.070538
-0.069791
-0.069363
-0.038306
-0.037610
-0.035884
-0.079418
-0.079212
-0.036122
-0.013847
-0.013528
-0.009872
-0.079369
-0.009153
0.005261
0.008567
-0.069300
-0.067869
-0.066115
-0.035939
-0.036050
-0.034660
-0.037138
-0.036929
0.054126
0.055343
0.054182
0.018655
0.016466
0.015924
0.012403
0.014427
0.011663
0.003879
0.003980
0.002747
0.010594
-0.048685
-0.049703
-0.050255
-0.013093
-0.014729
-0.014254
-0.006273
-0.013059
-0.075272
-0.073182
-0.076441
-0.035452
-0.037123
0.072780
0.002187
0.070019
0.069431
0.068266
-0.015268
-0.013527
-0.023913
-0.024976
0.062253
0.063386
0.059404
-0.025922
-0.028059
-0.026624
0.027994
0.027097
0.030884
0.023626
0.071001
0.071963
0.050457
0.021168
0.018041
0.018911
0.004029
0.005323
0.005675
0.042810
0.048377
0.034259
0.038899
0.044740
0.046703
0.044882
-0.033710
-0.036059
-0.036662
-0.038581
-0.038224
0.005410
0.067100
0.064771
0.067046
0.050619
0.046889
0.049855
0.047846
0.049544
0.052320
0.051628
0.063961
0.063702
-0.006406
-0.004882
-0.004549
-0.006633
-0.012128
-0.010905
-0.011394
-0.010106
0.031249
0.029341
0.031764
0.029617
0.030639
0.028987
0.046424
0.048221
0.046985
0.066586
0.065589
-0.019687
-0.019467
-0.021515
-0.018659
-0.018920
-0.016625
-0.016491
-0.021101
-0.021518
-0.019980
-0.007534
-0.008926
-0.008011
-0.008773
0.020488
0.020790
0.022116
0.019068
-0.006050
-0.018154
-0.017850
-0.018399
-0.017542
-0.015912
-0.019106
0.059153
0.057666
0.057374
0.055940
0.014064
0.015373
-0.008110
-0.007953
-0.005857
0.011416
0.011562
0.009912
0.010388
0.008906
0.009885
0.009883
0.000178
-0.000662
0.001023
-0.001676
0.040479
0.041256
-0.021642
-0.020066
-0.021732
0.007133
0.007316
0.006007
0.036420
0.032812
0.031192
0.008561
0.004292
0.005470
0.003615
0.046218
0.046404
0.039642
0.041399
0.039573
0.041495
0.026817
0.027481
0.025439
0.026527
-0.077107
-0.078520
-0.080803
-0.072984
-0.048650
-0.047281
-0.047398
-0.028964
-0.024188
-0.044140
0.047978
-0.049987
-0.050577
-0.052804
-0.053152
0.011346
0.015135
0.016011
0.019559
-0.027506
-0.022708
-0.021913
-0.018488
0.062103
0.063276
0.063483
0.064428
0.048303
0.045198
-0.072114
-0.077331
-0.078401
-0.075304
-0.077118
-0.075779
-0.076665
-0.071852
-0.069860
0.004694
0.002451
0.003272
0.033199
0.030011
-0.042966
-0.042333
-0.044920
-0.043935
-0.046529
-0.010139
-0.009281
-0.012417
-0.011752
-0.051492
-0.052914
-0.053436
-0.051750
-0.020734
-0.016452
-0.068577
-0.067513
-0.065798
-0.066781
-0.069343
-0.076413
-0.078095
-0.076827
-0.075843
-0.075215
-0.065702
-0.064102
-0.063622
-0.065085
-0.063004
-0.015858
-0.013665
-0.014418
0.014888
-0.013703
-0.025027
-0.012619
-0.030118
-0.044319
0.079731
0.078334
0.081428
0.076285
0.073712
0.075907
-0.058836
-0.059695
-0.061153
-0.066664
-0.060551
-0.061252
-0.069012
0.069582
0.075389
0.074557
0.069730
0.003091
0.002874
-0.047673
-0.045824
-0.047451
-0.045197
-0.068708
-0.069876
-0.081863
-0.080451
-0.079820
-0.081428
0.077578
0.077262
0.075015
0.076504
-0.053608
-0.051609
0.026488
0.029533
0.025394
0.020499
0.030763
0.023884
0.014192
0.015366
0.002240
-0.023703
-0.023999
-0.021279
-0.080899
-0.080809
-0.082529
-0.079379
0.083178
0.045291
-0.062131
-0.062619
-0.065026
-0.083329
-0.083019
-0.064344
0.070126
0.069298
0.071171
-0.069265
-0.068045
-0.069856
-0.076302
-0.068030
-0.066911
0.081923
0.083732
0.082533
0.083061
0.083986
0.019969
0.023177
-0.064434
-0.064150
-0.062034
0.084410
0.035027
0.037099
0.039431
-0.047273
-0.043889
-0.042279
-0.045977
-0.040838
-0.039408
-0.029433
-0.027431
-0.076195
-0.076508
-0.081065
-0.078858
-0.078042
-0.076535
-0.045406
0.050070
-0.046821
-0.079299
-0.080979
-0.079549
-0.078398
0.083321
0.080422
-0.072579
-0.074481
-0.073771
0.084929
-0.080452
0.071779
0.074211
0.071700
-0.062053
-0.063691
-0.061454
-0.016729
-0.009623
-0.009338
-0.002896
-0.001853
-0.070577
-0.069149
-0.071574
-0.072792
0.033137
0.029053
-0.060207
-0.059480
-0.061687
-0.060104
-0.042232
-0.042287
-0.045408
-0.042652
-0.046027
-0.051374
-0.046890
-0.047311
-0.052155
-0.080624
-0.082006
0.070559
0.072326
-0.052792
-0.051371
-0.055044
-0.055896
-0.059019
0.048353
0.048867
0.047411
-0.035225
-0.036897
-0.051044
-0.053526
-0.034662
-0.032141
0.015012
0.009218
0.009518
0.013359
-0.078398
-0.058303
-0.057797
-0.058721
-0.056573
0.012921
0.072587
0.071835
0.070510
0.069929
-0.011658
-0.011475
-0.006118
-0.006240
-0.001786
-0.000951
0.067412
0.068998
0.084431
0.081437
-0.002061
0.001904
0.074697
0.077496
-0.077012
-0.049068
-0.054084
-0.060986
-0.061256
-0.059532
-0.062020
-0.062405
0.028610
-0.076653
-0.082684
0.030660
0.010551
0.007384
0.082002
0.081833
0.082438
-0.081494
-0.069871
-0.072063
-0.077988
0.009977
0.007717
0.005919
0.008522
0.068835
-0.068350
-0.067246
-0.064834
-0.063479
0.026425
0.024784
0.021989
0.024165
0.073869
-0.081203
-0.082281
-0.080008
-0.063093
-0.076282
-0.055346
-0.062788
-0.051393
-0.056100
-0.069533
-0.077798
-0.078468
0.014387
0.015175
0.006625
0.022828
-0.015306
-0.022761
0.002125
-0.077013
-0.024411
-0.074164
0.002445
-0.013301
-0.010404
-0.072546
-0.074304
-0.072830
-0.078112
-0.075126
-0.023906
-0.008484
-0.012955
-0.018680
-0.071710
-0.000405
-0.001332
-0.002134
-0.025632
-0.026968
-0.022125
-0.061942
-0.062224
-0.065496
-0.054542
-0.053682
-0.055220
-0.056144
-0.025181
-0.021719
-0.021557
-0.017832
-0.017846
0.018660
0.014387
0.001918
-0.004726
-0.006702
-0.004871
-0.003291
0.020914
0.014248
0.008578
0.008188
0.002902
-0.068700
-0.058221
-0.054107
-0.046347
-0.073181
-0.072687
-0.074115
-0.048952
0.085481
-0.058337
-0.059687
-0.062633
-0.060952
-0.038813
-0.044769
-0.034372
-0.031494
-0.028446
-0.079416
-0.057388
-0.056647
-0.075636
0.060242
0.060281
-0.005936
-0.063303
0.061490
0.079396
-0.058929
-0.066809
-0.059780
0.017587
-0.068916
-0.072342
-0.075897
-0.081283
-0.078341
0.073007
-0.070265
0.006243
0.000746
0.010128
-0.074618
-0.077612
0.078249
-0.057723
-0.057561
-0.059034
-0.073803
0.065392
0.061393
0.065235
0.075001
0.074847
0.076084
-0.071899
-0.069105
-0.068624
-0.070173
-0.074409
0.053641
0.040990
0.041041
0.030023
-0.055195
-0.055441
-0.026202
-0.025072
-0.047738
-0.040374
0.049781
-0.018713
-0.080085
-0.039870
-0.041465
-0.040182
0.003364
-0.034590
-0.032343
-0.032693
-0.071047
-0.061269
-0.054863
-0.054556
-0.048327
-0.068558
-0.028868
-0.031909
-0.031406
0.062510
0.072320
0.066816
0.006207
-0.049678
-0.049795
-0.047043
-0.074971
-0.069818
-0.070898
-0.073919
-0.038448
0.020552
-0.056337
-0.065171
-0.038050
-0.034966
-0.075136
-0.067357
-0.030723
-0.030520
-0.044316
0.012547
0.080588
0.079341
-0.071847
-0.051997
-0.020020
-0.077493
-0.063931
-0.059476
-0.065486
0.026714
-0.079973
0.023625
0.024088
0.022431
-0.030392
-0.019163
-0.074573
-0.033570
-0.047691
-0.051263
-0.053424
0.072842
-0.010093
-0.011800
-0.009035
-0.059366
-0.060230
-0.035121
-0.049494
-0.048962
-0.047472
-0.074138
-0.075557
-0.050825
-0.066882
0.063978
0.064984
-0.044055
-0.044617
-0.045952
0.062162
-0.015815
-0.014864
0.068026
0.068866
0.022942
-0.002900
-0.008743
-0.067753
-0.069925
0.004833
0.007239
0.018193
0.019595
-0.040842
-0.047600
-0.058832
-0.056951
-0.057713
0.053742
0.053254
0.006188
0.011405
-0.050651
-0.072214
-0.067278
-0.038828
-0.039555
-0.037142
-0.064481
-0.075959
-0.062267
-0.022676
-0.026315
-0.058755
-0.060323
-0.060018
0.071926
-0.030475
-0.029158
-0.033470
-0.072013
-0.070823
-0.055132
-0.053010
-0.040472
-0.033824
0.001958
-0.009214
0.026937
0.075995
-0.075428
-0.036888
-0.033992
-0.045013
-0.052887
-0.055871
-0.034350
-0.036500
-0.037054
0.059063
-0.018492
-0.028861
-0.031410
-0.005847
-0.018032
-0.042887
-0.043087
-0.041617
0.017657
0.018690
0.022488
0.002412
-0.029383
-0.054936
-0.055751
-0.057133
-0.057523
0.026244
0.027663
0.026603
-0.035998
-0.032105
-0.076437
-0.035673
-0.037056
-0.034974
-0.038066
0.014416
0.081001
0.080364
0.010309
0.024951
0.007338
0.017406
-0.065534
-0.064999
-0.064217
-0.055648
-0.054394
-0.054432
-0.037543
0.056113
0.052952
-0.014726
0.001193
-0.000846
-0.056906
-0.002579
-0.056517
-0.055090
-0.066981
-0.066773
-0.065655
-0.042741
-0.003174
-0.000895
-0.003598
0.000229
0.079802
-0.063213
-0.064483
0.057438
-0.061981
-0.062693
0.069844
0.066919
0.065673
0.061993
0.063201
0.057561
0.062345
-0.071442
-0.070318
-0.071610
-0.050158
-0.054916
-0.056819
-0.007890
-0.012731
-0.042733
-0.066114
-0.051692
-0.043010
-0.032012
-0.067918
-0.067823
0.013615
-0.041195
-0.040568
-0.057172
-0.071869
0.079338
-0.019354
-0.067562
-0.073751
-0.062336
-0.016756
-0.021860
0.003057
-0.015184
-0.018873
-0.021120
-0.025769
-0.032415
-0.004203
-0.010080
-0.000251
-0.009287
0.003743
-0.048847
-0.060839
0.057442
0.058529
-0.055181
-0.043248
-0.026474
-0.029110
-0.031709
0.059386
0.051121
-0.006783
-0.009122
-0.009174
-0.007323
0.017672
0.018967
-0.052946
-0.053556
-0.052249
-0.066015
-0.006899
0.004196
-0.047082
0.045550
0.048928
-0.050209
-0.034420
-0.028373
-0.032063
0.080541
0.061288
0.065681
0.065725
-0.055344
-0.057811
0.079059
-0.040769
-0.024842
-0.042439
0.043973
-0.048901
-0.049535
-0.047653
-0.050593
-0.055293
-0.033096
-0.051454
0.040041
0.036694
0.035144
0.043457
0.044908
0.043807
0.041557
0.043327
0.020822
0.057681
0.056047
-0.051904
0.027993
0.022218
-0.041572
-0.041280
-0.040287
0.060915
0.056706
-0.025957
-0.040864
-0.030870
-0.048775
-0.044495
-0.022203
-0.021727
-0.024038
0.079633
0.078980
-0.033526
-0.022856
-0.040088
0.031835
0.055096
0.057501
0.059252
0.043522
0.043681
0.054430
-0.055092
-0.064169
-0.062856
-0.007467
-0.011596
-0.022632
-0.083092
-0.020411
0.038834
0.029039
0.031884
0.034564
-0.038472
-0.039269
-0.038045
-0.039965
0.040834
-0.045775
-0.046343
-0.044633
-0.024668
0.038668
0.039423
-0.083185
0.060668
0.060636
-0.052766
-0.004233
-0.082544
0.059002
-0.005228
0.035880
-0.040424
0.060672
-0.060567
0.041113
-0.038920
-0.035081
-0.018746
-0.023689
-0.058768
0.066253
0.067676
0.058097
0.074815
0.017021
0.018295
0.018212
-0.020200
-0.043879
-0.018801
-0.014790
0.016980
0.019398
-0.044391
0.019664
-0.030166
-0.031952
-0.030428
-0.028391
-0.029762
-0.028543
-0.027669
-0.026630
-0.026009
-0.063564
0.012271
-0.019390
0.078776
0.019279
0.020978
-0.038806
0.017263
-0.001317
-0.001038
-0.055064
-0.054597
-0.055674
0.004562
0.006100
0.002900
0.051443
0.052249
0.046089
0.047878
0.051130
0.053021
0.052534
0.052397
-0.055566
-0.080022
0.007641
0.007829
0.006276
0.012192
-0.035546
0.022754
0.024659
0.024768
-0.002262
0.000175
-0.026614
-0.025441
0.026422
0.025211
0.027184
-0.002566
-0.003707
0.010691
0.001094
0.001789
-0.051818
-0.050744
0.062692
0.064624
-0.002409
-0.000556
-0.000723
0.063621
0.061641
0.054394
0.052275
-0.052931
0.032716
0.054378
-0.025810
-0.024447
-0.024028
0.037674
0.039547
0.037336
-0.029734
-0.047961
0.039538
-0.044231
-0.044346
-0.045780
0.041837
0.037015
-0.003628
-0.004810
-0.020664
-0.019267
-0.020564
0.043273
0.043337
0.041650
-0.005944
-0.004722
-0.022157
-0.006381
-0.019646
-0.017843
-0.016954
0.050213
0.048559
-0.064354
-0.065427
-0.015096
-0.013933
-0.012828
-0.014409
-0.012948
-0.077935
-0.005634
-0.038683
-0.039620
-0.038198
0.046671
-0.033859
-0.040881
-0.041544
-0.042405
0.028089
-0.015329
-0.060957
0.027373
0.051030
0.049650
0.032817
0.033901
0.034666
0.035867
0.011598
0.012111
0.012953
0.010806
0.011470
0.031739
0.060415
0.058905
-0.018138
-0.017207
-0.017136
-0.025452
-0.023616
-0.009568
-0.008312
-0.009742
0.014088
-0.031798
0.014936
0.015642
0.016450
0.014056
0.061710
0.008354
0.008911
0.057321
0.057175
0.058997
0.055369
0.024928
0.043809
-0.024029
-0.022867
0.025521
0.028756
0.028252
0.002711
0.001924
-0.030128
-0.031048
-0.031802
-0.029658
-0.028790
-0.006914
-0.005926
-0.007426
0.023161
0.023615
0.021530
0.023401
0.024726
0.053713
0.053174
0.045711
0.041977
0.035802
0.036444
0.037825
0.037528
0.039006
0.037850
-0.038636
0.050241
0.051727
0.052284
0.056703
0.055106
0.062396
0.062949
-0.008497
-0.030779
-0.030719
0.064080
0.065930
-0.049289
0.064969
0.052717
0.056597
0.040219
0.067140
-0.082216
-0.082554
-0.082138
-0.082669
-0.078878
0.011640
-0.016400
0.001015
-0.030815
-0.030365
-0.031550
-0.079876
-0.025771
0.039532
0.042646
0.026620
0.020290
0.034368
0.034454
0.032882
-0.030846
0.033370
0.000481
0.001282
0.002221
-0.031084
0.060027
0.002280
0.034881
0.033878
0.067646
0.069157
0.051842
0.052850
0.054245
0.055758
0.055778
0.009470
0.010693
-0.064832
0.030756
0.053264
0.054527
0.055611
-0.005183
-0.004138
-0.003587
-0.027419
-0.026631
-0.019282
-0.020863
-0.009737
-0.011325
0.015725
0.013871
0.013260
0.041585
-0.029964
-0.028787
-0.032264
0.065440
0.063851
0.034951
0.027433
0.025016
0.017219
-0.022820
-0.025798
-0.029063
0.067983
0.022977
0.020793
0.020724
0.066628
0.067006
0.065480
-0.052548
0.037276
-0.049108
-0.015214
-0.015717
-0.016730
-0.053426
0.017888
-0.038755
-0.073872
-0.028836
0.012003
0.011493
-0.006343
-0.002851
0.016992
-0.016522
-0.015831
-0.014525
0.016062
0.036864
-0.029152
-0.021888
-0.022974
-0.014967
-0.016539
0.018652
-0.015819
-0.071072
-0.071265
0.044756
0.015528
-0.043062
0.003801
0.003486
0.031364
0.008700
0.061851
0.054380
0.056112
-0.046212
0.014908
-0.027674
0.025815
-0.066658
-0.024807
-0.027744
0.022231
0.023572
0.021890
0.007586
0.008691
0.033302
0.030881
-0.059101
-0.059008
0.001829
-0.004190
0.028621
0.008094
0.003247
-0.017919
0.056644
-0.016333
0.057661
0.057166
0.002275
-0.033396
-0.032304
0.061650
0.059550
0.032051
0.031688
-0.001337
0.049701
0.051917
0.050916
0.035092
0.036614
0.066208
0.066961
0.025349
0.041927
0.044267
0.030292
-0.068467
0.053286
0.036879
0.030264
-0.032960
0.018378
0.039894
-0.047196
-0.038941
0.043209
0.007815
0.056103
0.059373
-0.029539
0.001189
-0.071644
-0.045643
-0.007101
-0.008378
-0.009790
-0.013664
-0.050432
-0.028316
-0.018065
-0.006415
0.035167
0.017818
0.018551
0.020213
0.010612
0.056093
-0.010328
0.046075
0.043484
0.042721
-0.042509
-0.025265
-0.006952
0.000685
0.001468
0.062385
0.046647
-0.041647
0.022186
0.020880
-0.006068
0.033645
0.068353
0.041550
0.046736
0.046240
-0.031556
0.045187
-0.012421
0.032970
0.067207
0.025011
-0.011921
-0.010778
-0.009907
-0.013156
-0.012480
-0.011069
-0.011318
0.009159
0.008636
0.022310
-0.003006
0.028584
0.029386
0.030403
-0.009166
0.006632
0.036420
0.048734
0.015064
-0.010636
0.015967
0.020396
0.020975
0.035680
-0.010775
0.006890
0.005355
0.039330
0.019248
0.039397
-0.011772
0.005642
0.000700
0.065789
0.049678
0.022868
0.031402
0.031936
0.053264
0.015932
0.028141
0.034441
-0.039739
-0.022603
0.043367
0.028400
0.051079
0.058928
0.060066
-0.011487
-0.005236
0.020032
-0.046021
-0.044899
-0.043636
-0.045160
-0.043649
-0.043658
-0.018408
-0.019524
-0.018269
0.079977
0.076183
0.076209
0.044523
0.042802
0.044535
0.072936
0.081344
0.006132
0.005010
-0.007875
0.052488
0.065805
0.064323
-0.022094
-0.024528
-0.022662
0.082758
0.080660
0.084283
0.080062
-0.023096
-0.045166
-0.042542
-0.025171
-0.025162
-0.023378
-0.020820
-0.019433
-0.025531
-0.027405
0.038570
0.036359
0.036671
0.037271
-0.023357
-0.014176
-0.027506
-0.030091
-0.027986
-0.009076
-0.001338
0.033781
0.029183
0.032233
0.029832
-0.036037
-0.034286
-0.036391
0.019900
0.020965
0.019715
-0.000309
-0.001804
-0.001130
-0.003114
0.083762
0.082149
-0.034903
-0.029118
-0.022393
-0.051952
-0.047049
-0.047053
-0.010180
-0.008112
-0.008414
-0.041620
-0.032064
-0.029133
-0.028649
-0.005877
0.030012
0.033226
0.034032
0.026744
0.057397
0.057657
0.064690
0.050603
0.000896
0.007843
0.006710
0.041488
0.043101
0.044419
0.046500
-0.017881
-0.028049
-0.021804
-0.065792
-0.068893
-0.007333
-0.008310
-0.006366
-0.008658
0.059230
0.060972
0.059552
0.061789
0.018296
0.017182
0.022125
0.014729
0.041340
0.042289
0.040707
0.043039
0.055780
0.056169
0.057764
0.054493
-0.019834
-0.018044
-0.043120
-0.043987
-0.054868
-0.053698
-0.056077
-0.038175
-0.040583
-0.039539
0.045078
0.044309
-0.015537
-0.015017
-0.016618
-0.016110
-0.049580
-0.025361
-0.026914
-0.025188
-0.026865
-0.050005
-0.049492
-0.048286
-0.047143
-0.037040
-0.038594
-0.038952
-0.059868