# vtk DataFile Version 2.0
Test
ASCII
DATASET POLYDATA
POINTS 3011 float
0.000000 0.000000 0.000000
2.000000 0.000000 0.000000
2.000000 4.000000 0.000000
0.000000 4.000000 0.000000
0.000000 0.500000 0.000000
1.500000 2.000000 0.000000
2.000000 2.500000 0.000000
0.285714 0.000000 0.000000
0.571429 0.000000 0.000000
0.857143 0.000000 0.000000
1.142857 0.000000 0.000000
1.428571 0.000000 0.000000
1.714286 0.000000 0.000000
2.000000 0.276366 0.000000
2.000000 0.523709 0.000000
2.000000 0.745076 0.000000
2.000000 0.943195 0.000000
2.000000 1.120508 0.000000
2.000000 1.279199 0.000000
2.000000 1.421225 0.000000
2.000000 1.548336 0.000000
2.000000 1.662097 0.000000
2.000000 1.763911 0.000000
2.000000 1.855033 0.000000
2.000000 1.936585 0.000000
2.000000 2.009573 0.000000
2.000000 2.074896 0.000000
2.000000 2.133358 0.000000
2.000000 2.185681 0.000000
2.000000 2.232509 0.000000
2.000000 2.274419 0.000000
2.000000 2.311927 0.000000
2.000000 2.345497 0.000000
2.000000 2.375541 0.000000
2.000000 2.402430 0.000000
2.000000 2.426495 0.000000
2.000000 2.448033 0.000000
2.000000 2.467309 0.000000
2.000000 2.484560 0.000000
2.000000 2.516256 0.000000
2.000000 2.535859 0.000000
2.000000 2.559499 0.000000
2.000000 2.588006 0.000000
2.000000 2.622383 0.000000
2.000000 2.663839 0.000000
2.000000 2.713831 0.000000
2.000000 2.774116 0.000000
2.000000 2.846815 0.000000
2.000000 2.934483 0.000000
2.000000 3.040202 0.000000
2.000000 3.167691 0.000000
2.000000 3.321430 0.000000
2.000000 3.506825 0.000000
2.000000 3.730395 0.000000
1.714286 4.000000 0.000000
1.428571 4.000000 0.000000
1.142857 4.000000 0.000000
0.857143 4.000000 0.000000
0.571429 4.000000 0.000000
0.285714 4.000000 0.000000
0.000000 3.713462 0.000000
0.000000 3.449209 0.000000
0.000000 3.205508 0.000000
0.000000 2.980761 0.000000
0.000000 2.773493 0.000000
0.000000 2.582346 0.000000
0.000000 2.406065 0.000000
0.000000 2.243495 0.000000
0.000000 2.093568 0.000000
0.000000 1.955302 0.000000
0.000000 1.827789 0.000000
0.000000 1.710194 0.000000
0.000000 1.601745 0.000000
0.000000 1.501730 0.000000
0.000000 1.409494 0.000000
0.000000 1.324431 0.000000
0.000000 1.245984 0.000000
0.000000 1.173639 0.000000
0.000000 1.106920 0.000000
0.000000 1.045390 0.000000
0.000000 0.988645 0.000000
0.000000 0.936314 0.000000
0.000000 0.888053 0.000000
0.000000 0.843545 0.000000
0.000000 0.802499 0.000000
0.000000 0.764646 0.000000
0.000000 0.729736 0.000000
0.000000 0.697541 0.000000
0.000000 0.667851 0.000000
0.000000 0.640469 0.000000
0.000000 0.615217 0.000000
0.000000 0.591929 0.000000
0.000000 0.570453 0.000000
0.000000 0.550646 0.000000
0.000000 0.532380 0.000000
0.000000 0.515535 0.000000
0.000000 0.483768 0.000000
0.000000 0.461535 0.000000
0.000000 0.431083 0.000000
0.000000 0.389372 0.000000
0.000000 0.332241 0.000000
0.000000 0.253989 0.000000
0.000000 0.146807 0.000000
0.010563 0.510563 0.000000
0.021127 0.521127 0.000000
0.031690 0.531690 0.000000
0.042254 0.542254 0.000000
0.052817 0.552817 0.000000
0.063380 0.563380 0.000000
0.073944 0.573944 0.000000
0.084507 0.584507 0.000000
0.095070 0.595070 0.000000
0.105634 0.605634 0.000000
0.116197 0.616197 0.000000
0.126761 0.626761 0.000000
0.137324 0.637324 0.000000
0.147887 0.647887 0.000000
0.158451 0.658451 0.000000
0.169014 0.669014 0.000000
0.179577 0.679577 0.000000
0.190141 0.690141 0.000000
0.200704 0.700704 0.000000
0.211268 0.711268 0.000000
0.221831 0.721831 0.000000
0.232394 0.732394 0.000000
0.242958 0.742958 0.000000
0.253521 0.753521 0.000000
0.264085 0.764085 0.000000
0.274648 0.774648 0.000000
0.285211 0.785211 0.000000
0.295775 0.795775 0.000000
0.306338 0.806338 0.000000
0.316901 0.816901 0.000000
0.327465 0.827465 0.000000
0.338028 0.838028 0.000000
0.348592 0.848592 0.000000
0.359155 0.859155 0.000000
0.369718 0.869718 0.000000
0.380282 0.880282 0.000000
0.390845 0.890845 0.000000
0.401408 0.901408 0.000000
0.411972 0.911972 0.000000
0.422535 0.922535 0.000000
0.433099 0.933099 0.000000
0.443662 0.943662 0.000000
0.454225 0.954225 0.000000
0.464789 0.964789 0.000000
0.475352 0.975352 0.000000
0.485915 0.985915 0.000000
0.496479 0.996479 0.000000
0.507042 1.007042 0.000000
0.517606 1.017606 0.000000
0.528169 1.028169 0.000000
0.538732 1.038732 0.000000
0.549296 1.049296 0.000000
0.559859 1.059859 0.000000
0.570423 1.070423 0.000000
0.580986 1.080986 0.000000
0.591549 1.091549 0.000000
0.602113 1.102113 0.000000
0.612676 1.112676 0.000000
0.623239 1.123239 0.000000
0.633803 1.133803 0.000000
0.644366 1.144366 0.000000
0.654930 1.154930 0.000000
0.665493 1.165493 0.000000
0.676056 1.176056 0.000000
0.686620 1.186620 0.000000
0.697183 1.197183 0.000000
0.707746 1.207746 0.000000
0.718310 1.218310 0.000000
0.728873 1.228873 0.000000
0.739437 1.239437 0.000000
0.750000 1.250000 0.000000
0.760563 1.260563 0.000000
0.771127 1.271127 0.000000
0.781690 1.281690 0.000000
0.792254 1.292254 0.000000
0.802817 1.302817 0.000000
0.813380 1.313380 0.000000
0.823944 1.323944 0.000000
0.834507 1.334507 0.000000
0.845070 1.345070 0.000000
0.855634 1.355634 0.000000
0.866197 1.366197 0.000000
0.876761 1.376761 0.000000
0.887324 1.387324 0.000000
0.897887 1.397887 0.000000
0.908451 1.408451 0.000000
0.919014 1.419014 0.000000
0.929577 1.429577 0.000000
0.940141 1.440141 0.000000
0.950704 1.450704 0.000000
0.961268 1.461268 0.000000
0.971831 1.471831 0.000000
0.982394 1.482394 0.000000
0.992958 1.492958 0.000000
1.003521 1.503521 0.000000
1.014085 1.514085 0.000000
1.024648 1.524648 0.000000
1.035211 1.535211 0.000000
1.045775 1.545775 0.000000
1.056338 1.556338 0.000000
1.066901 1.566901 0.000000
1.077465 1.577465 0.000000
1.088028 1.588028 0.000000
1.098592 1.598592 0.000000
1.109155 1.609155 0.000000
1.119718 1.619718 0.000000
1.130282 1.630282 0.000000
1.140845 1.640845 0.000000
1.151408 1.651408 0.000000
1.161972 1.661972 0.000000
1.172535 1.672535 0.000000
1.183099 1.683099 0.000000
1.193662 1.693662 0.000000
1.204225 1.704225 0.000000
1.214789 1.714789 0.000000
1.225352 1.725352 0.000000
1.235915 1.735915 0.000000
1.246479 1.746479 0.000000
1.257042 1.757042 0.000000
1.267606 1.767606 0.000000
1.278169 1.778169 0.000000
1.288732 1.788732 0.000000
1.299296 1.799296 0.000000
1.309859 1.809859 0.000000
1.320423 1.820423 0.000000
1.330986 1.830986 0.000000
1.341549 1.841549 0.000000
1.352113 1.852113 0.000000
1.362676 1.862676 0.000000
1.373239 1.873239 0.000000
1.383803 1.883803 0.000000
1.394366 1.894366 0.000000
1.404930 1.904930 0.000000
1.415493 1.915493 0.000000
1.426056 1.926056 0.000000
1.436620 1.936620 0.000000
1.447183 1.947183 0.000000
1.457746 1.957746 0.000000
1.468310 1.968310 0.000000
1.478873 1.978873 0.000000
1.489437 1.989437 0.000000
1.510417 2.010417 0.000000
1.520833 2.020833 0.000000
1.531250 2.031250 0.000000
1.541667 2.041667 0.000000
1.552083 2.052083 0.000000
1.562500 2.062500 0.000000
1.572917 2.072917 0.000000
1.583333 2.083333 0.000000
1.593750 2.093750 0.000000
1.604167 2.104167 0.000000
1.614583 2.114583 0.000000
1.625000 2.125000 0.000000
1.635417 2.135417 0.000000
1.645833 2.145833 0.000000
1.656250 2.156250 0.000000
1.666667 2.166667 0.000000
1.677083 2.177083 0.000000
1.687500 2.187500 0.000000
1.697917 2.197917 0.000000
1.708333 2.208333 0.000000
1.718750 2.218750 0.000000
1.729167 2.229167 0.000000
1.739583 2.239583 0.000000
1.750000 2.250000 0.000000
1.760417 2.260417 0.000000
1.770833 2.270833 0.000000
1.781250 2.281250 0.000000
1.791667 2.291667 0.000000
1.802083 2.302083 0.000000
1.812500 2.312500 0.000000
1.822917 2.322917 0.000000
1.833333 2.333333 0.000000
1.843750 2.343750 0.000000
1.854167 2.354167 0.000000
1.864583 2.364583 0.000000
1.875000 2.375000 0.000000
1.885417 2.385417 0.000000
1.895833 2.395833 0.000000
1.906250 2.406250 0.000000
1.916667 2.416667 0.000000
1.927083 2.427083 0.000000
1.937500 2.437500 0.000000
1.947917 2.447917 0.000000
1.958333 2.458333 0.000000
1.968750 2.468750 0.000000
1.979167 2.479167 0.000000
1.989583 2.489583 0.000000
0.206561 0.791563 0.000000
0.205359 0.816165 0.000000
0.186354 0.798211 0.000000
0.221961 0.800924 0.000000
0.280649 1.360489 0.000000
0.304015 1.400469 0.000000
0.229142 1.396096 0.000000
0.275922 1.451476 0.000000
1.869084 2.391788 0.000000
1.857928 2.378421 0.000000
1.238669 2.061899 0.000000
1.278787 2.082276 0.000000
1.238298 2.096047 0.000000
1.277579 2.032995 0.000000
0.402536 1.205823 0.000000
0.415290 1.176040 0.000000
0.428330 1.201952 0.000000
0.387294 1.172617 0.000000
0.146930 1.050586 0.000000
0.109488 1.087198 0.000000
0.102742 1.042403 0.000000
0.157178 1.091184 0.000000
0.588967 1.178581 0.000000
0.593116 1.153718 0.000000
0.608054 1.166752 0.000000
0.612180 1.145944 0.000000
0.860304 1.543784 0.000000
0.868821 1.521840 0.000000
0.878420 1.536650 0.000000
0.845380 1.517623 0.000000
1.129525 1.764330 0.000000
1.142005 1.751560 0.000000
1.145757 1.773681 0.000000
1.159368 1.759106 0.000000
1.968150 2.518865 0.000000
1.986105 2.509269 0.000000
1.986696 2.531115 0.000000
0.668964 1.191005 0.000000
0.683291 1.201259 0.000000
0.557625 1.074830 0.000000
0.569760 1.084377 0.000000
0.557769 1.089278 0.000000
0.707567 1.266174 0.000000
0.719026 1.281845 0.000000
0.700768 1.282275 0.000000
0.722329 1.266956 0.000000
0.468225 2.149688 0.000000
0.419106 2.064198 0.000000
0.523878 2.082648 0.000000
0.838546 1.421191 0.000000
0.823708 1.410355 0.000000
0.840477 1.404206 0.000000
0.818500 1.425973 0.000000
0.953187 1.488222 0.000000
0.959780 1.473222 0.000000
0.967054 1.485637 0.000000
1.047418 1.769126 0.000000
1.080240 1.782403 0.000000
1.047768 1.802712 0.000000
0.971392 1.693320 0.000000
0.949208 1.720793 0.000000
0.940644 1.684781 0.000000
0.381391 2.160909 0.000000
0.944091 1.477800 0.000000
0.530075 1.477351 0.000000
0.521303 1.516669 0.000000
0.474240 1.491166 0.000000
0.489489 1.546185 0.000000
1.537370 2.239326 0.000000
1.555275 2.267640 0.000000
1.532966 2.278201 0.000000
0.962010 1.661716 0.000000
0.986804 1.643200 0.000000
0.986259 1.672729 0.000000
1.049149 1.737940 0.000000
1.075111 1.737123 0.000000
[...]
POINT_DATA 3011
SCALARS UX float 1
LOOKUP_TABLE default
-0.019527
0.022562
0.000000
-0.000000
-0.020462
0.011919
0.021644
-0.013543
-0.007547
-0.001544
0.004468
0.010492
0.016523
0.022572
0.022595
0.022633
0.022678
0.022729
0.022782
0.022833
0.022870
0.022881
0.022860
0.022791
0.022687
0.022556
0.022423
0.022295
0.022181
0.022083
0.022001
0.021933
0.021874
0.021825
0.021784
0.021748
0.021716
0.021689
0.021665
0.021622
0.021595
0.021563
0.021524
0.021478
0.021416
0.021337
0.021232
0.021075
0.020846
0.020490
0.019877
0.018766
0.016601
0.012281
-0.000000
0.000000
0.000000
-0.000000
-0.000000
0.000000
-0.012312
-0.017317
-0.019420
-0.020401
-0.020823
-0.020978
-0.021015
-0.021018
-0.021012
-0.021010
-0.021016
-0.021029
-0.021044
-0.021062
-0.021080
-0.021099
-0.021116
-0.021134
-0.021150
-0.021167
-0.021184
-0.021200
-0.021215
-0.021229
-0.021240
-0.021250
-0.021258
-0.021265
-0.021272
-0.021280
-0.021291
-0.021302
-0.021297
-0.021265
-0.021299
-0.021218
-0.019571
-0.019536
-0.019502
-0.019508
-0.019512
-0.019518
-0.019523
-0.020152
-0.019956
-0.019695
-0.019537
-0.019384
-0.019080
-0.018873
-0.018628
-0.018413
-0.018155
-0.017922
-0.017852
-0.017565
-0.017269
-0.016964
-0.016791
-0.016657
-0.016450
-0.016136
-0.015972
-0.015607
-0.015514
-0.015226
-0.015048
-0.014814
-0.014543
-0.014412
-0.014105
-0.014040
-0.013724
-0.013575
-0.013220
-0.013011
-0.012796
-0.012580
-0.012345
-0.012100
-0.011948
-0.011707
-0.011435
-0.011251
-0.010956
-0.010652
-0.010669
-0.010429
-0.010057
-0.009911
-0.009627
-0.009479
-0.009252
-0.008942
-0.008700
-0.008436
-0.008264
-0.008059
-0.007881
-0.007649
-0.007421
-0.007098
-0.006964
-0.006820
-0.006506
-0.006247
-0.006003
-0.005807
-0.005581
-0.005494
-0.005200
-0.004839
-0.004656
-0.004350
-0.004259
-0.003937
-0.003802
-0.003637
-0.003422
-0.003109
-0.002944
-0.002716
-0.002476
-0.002301
-0.002022
-0.001838
-0.001636
-0.001274
-0.001068
-0.000943
-0.000629
-0.000299
-0.000242
-0.000023
0.000170
0.000439
0.000654
0.000876
0.001152
0.001354
0.001594
0.001764
0.002035
0.002209
0.002489
0.002835
0.002855
0.003222
0.003466
0.003749
0.003847
0.004048
0.004370
0.004585
0.004828
0.004956
0.005244
0.005500
0.005673
0.005999
0.006231
0.006320
0.006628
0.006946
0.006981
0.007400
0.007554
0.007745
0.008041
0.008257
0.008506
0.008742
0.008896
0.009167
0.009321
0.009648
0.009822
0.010110
0.010327
0.010612
0.010821
0.011087
0.011316
0.011529
0.012173
0.012213
0.012397
0.012581
0.012782
0.012986
0.013188
0.013394
0.013603
0.013810
0.014019
0.014227
0.014437
0.014646
0.014854
0.015063
0.015272
0.015480
0.015688
0.015896
0.016104
0.016312
0.016520
0.016726
0.016933
0.017140
0.017347
0.017553
0.017759
0.017965
0.018170
0.018376
0.018581
0.018786
0.018991
0.019196
0.019401
0.019605
0.019810
0.020014
0.020218
0.020422
0.020626
0.020830
0.021034
0.021237
0.021440
-0.016917
-0.016942
-0.017338
-0.016600
-0.015206
-0.014707
-0.016279
-0.015286
0.019047
0.018830
0.005582
0.006491
0.005598
0.006412
-0.012687
-0.012427
-0.012146
-0.013015
-0.018084
-0.018860
-0.019013
-0.017858
-0.008778
-0.008689
-0.008386
-0.008283
-0.002960
-0.002789
-0.002582
-0.003283
0.002856
0.003101
0.003211
0.003479
0.020955
0.021342
0.021326
-0.007162
-0.006758
-0.009458
-0.009077
-0.009455
-0.006249
-0.006010
-0.006393
-0.005935
-0.011178
-0.012213
-0.009981
-0.003457
-0.003775
-0.003428
-0.003877
-0.001020
-0.000805
-0.000714
0.001127
0.001835
0.001166
-0.000538
-0.000990
-0.001194
-0.013028
-0.001198
-0.009939
-0.010114
-0.011111
-0.010777
0.012085
0.012450
0.011958
-0.000756
-0.000242
-0.000237
0.001135
0.001680
0.001577
0.012762
0.001504
0.003144
0.003359
0.003487
0.003004
0.008545
0.009347
0.009202
0.010554
0.009839
0.009814
-0.008722
-0.008853
-0.008099
-0.011480
-0.010154
-0.010973
-0.008223
-0.009858
-0.014822
-0.014167
-0.014884
-0.014309
0.000953
-0.000130
0.000964
-0.000856
-0.012624
-0.012366
-0.011169
0.011813
0.012188
0.011564
-0.013995
-0.016752
-0.017927
-0.017533
-0.007480
-0.006891
-0.006753
-0.006246
-0.018806
-0.017467
-0.016513
-0.018839
0.017923
0.018290
0.018513
-0.000730
-0.000083
0.000513
-0.012189
-0.011601
0.001402
-0.005136
-0.005053
-0.005870
-0.004489
0.011370
0.011280
0.010840
-0.003515
-0.003364
-0.004001
0.011793
-0.017817
-0.017686
-0.017559
-0.009748
-0.009571
-0.009139
-0.020048
-0.019995
-0.009197
-0.003628
-0.003551
-0.002640
-0.020035
-0.002462
0.001121
0.001943
-0.017515
-0.017158
-0.016717
-0.009156
-0.009206
-0.008871
-0.009452
-0.009400
0.013225
0.013518
0.013242
0.004434
0.003891
0.003758
0.002903
0.003402
0.002712
0.000821
0.000839
0.000530
0.002454
-0.012341
-0.012597
-0.012737
-0.003434
-0.003845
-0.003725
-0.001742
-0.003427
-0.019004
-0.018481
-0.019297
-0.009028
-0.009447
0.017873
0.000389
0.017155
0.017016
0.016724
-0.003978
-0.003541
-0.006136
-0.006397
0.015245
0.015533
0.014535
-0.006637
-0.007174
-0.006806
0.006716
0.006498
0.007433
0.005637
0.017402
0.017643
0.012325
0.005057
0.004283
0.004497
0.000831
0.001138
0.001231
0.010497
0.011966
0.008421
0.009725
0.010923
0.011434
0.010977
-0.008596
-0.009181
-0.009332
-0.009814
-0.009725
0.001202
0.016464
0.015876
0.016441
0.012336
0.011406
0.012148
0.011642
0.012073
0.012765
0.012595
0.015642
0.015575
-0.001758
-0.001374
-0.001293
-0.001812
-0.003189
-0.002880
-0.003005
-0.002680
0.007554
0.007084
0.007687
0.007198
0.007444
0.007027
0.011352
0.011797
0.011485
0.016293
0.016045
-0.005078
-0.005025
-0.005537
-0.004833
-0.004897
-0.004322
-0.004287
-0.005431
-0.005536
-0.005148
-0.002038
-0.002389
-0.002159
-0.002350
0.004926
0.005013
0.005340
0.004578
-0.001646
-0.004691
-0.004619
-0.004769
-0.004554
-0.004146
-0.004928
0.014465
0.014099
0.014027
0.013673
0.003321
0.003654
-0.002185
-0.002149
-0.001624
0.002623
0.002690
0.002324
0.002443
0.002069
0.002319
0.002307
-0.000109
-0.000317
0.000106
-0.000574
0.009839
0.010031
-0.005615
-0.005252
-0.005595
0.001629
0.001670
0.001342
0.008824
0.007924
0.007516
0.001986
0.000910
0.001210
0.000743
0.011253
0.011294
0.009650
0.010094
0.009637
0.010120
0.006496
0.006649
0.006140
0.006398
-0.019468
-0.019822
-0.020392
-0.018436
-0.012333
-0.011988
-0.012028
-0.007374
-0.006308
-0.011287
0.011745
-0.012673
-0.012822
-0.013381
-0.013469
0.002629
0.003565
0.003781
0.004659
-0.006996
-0.005810
-0.005600
-0.004762
0.015191
0.015477
0.015531
0.015760
0.011809
0.011037
-0.018188
-0.019478
-0.019760
-0.019003
-0.019457
-0.019120
-0.019344
-0.018151
-0.017653
0.001001
0.000439
0.000649
0.008045
0.007252
-0.010915
-0.010757
-0.011405
-0.011160
-0.011810
-0.002699
-0.002488
-0.003272
-0.003108
-0.013047
-0.013405
-0.013535
-0.013112
-0.005354
-0.004280
-0.017328
-0.017060
-0.016631
-0.016879
-0.017521
-0.019276
-0.019700
-0.019380
-0.019133
-0.018972
-0.016605
-0.016202
-0.016083
-0.016451
-0.015929
-0.004102
-0.003566
-0.003761
0.003502
-0.003898
-0.006903
-0.003574
-0.008372
-0.011700
0.019729
0.019351
0.020147
0.018854
0.018178
0.018718
-0.014893
-0.015109
-0.015474
-0.016826
-0.015306
-0.015466
-0.017397
0.017181
0.018657
0.018486
0.017259
0.000596
0.000537
-0.012092
-0.011628
-0.012037
-0.011471
-0.017374
-0.017643
-0.020651
-0.020371
-0.020191
-0.020532
0.019090
0.019025
0.018454
0.018810
-0.013581
-0.013079
0.006342
0.007093
0.006070
0.004865
0.007395
0.005842
0.003483
0.003685
0.000470
-0.006098
-0.006172
-0.005489
-0.020404
-0.020382
-0.020814
-0.020022
0.020616
0.011892
-0.015716
-0.015840
-0.016442
-0.021011
-0.020939
-0.016268
0.017214
0.017000
0.017466
-0.017492
-0.017188
-0.017642
-0.019199
-0.017184
-0.016903
0.020206
0.020661
0.020369
0.020484
0.020737
0.004759
0.005555
-0.016298
-0.016226
-0.015696
0.020873
0.008461
0.008980
0.009555
-0.011996
-0.011152
-0.010749
-0.011676
-0.010386
-0.010029
-0.007530
-0.007026
-0.019237
-0.019310
-0.020454
-0.019900
-0.019697
-0.019318
-0.011525
0.012249
-0.011881
-0.020002
-0.020425
-0.020063
-0.019777
0.020686
0.019972
-0.018316
-0.018795
-0.018618
0.020966
-0.020291
0.017657
0.018278
0.017653
-0.015695
-0.016103
-0.015542
-0.004238
-0.002507
-0.002428
-0.000862
-0.000602
-0.017825
-0.017469
-0.018076
-0.018379
0.008014
0.007002
-0.015233
-0.015047
-0.015595
-0.015197
-0.010739
-0.010753
-0.011535
-0.010843
-0.011689
-0.013023
-0.011903
-0.012004
-0.013214
-0.020333
-0.020679
0.017333
0.017783
-0.013382
-0.013027
-0.013948
-0.014161
-0.014944
0.011840
0.011964
0.011613
-0.008983
-0.009402
-0.012941
-0.013564
-0.008840
-0.008208
0.003519
0.002098
0.002172
0.003116
-0.019827
-0.014755
-0.014619
-0.014849
-0.014309
0.003049
0.017803
0.017623
0.017288
0.017151
-0.003055
-0.003019
-0.001694
-0.001716
-0.000618
-0.000416
0.016573
0.016962
0.020904
0.020128
-0.000694
0.000288
0.018387
0.019104
-0.019498
-0.012446
-0.013705
-0.015411
-0.015510
-0.015107
-0.015673
-0.015776
0.006881
-0.019388
-0.020853
0.007394
0.002431
0.001650
0.020205
0.020172
0.020360
-0.020554
-0.017652
-0.018193
-0.019670
0.002285
0.001728
0.001281
0.001925
0.016875
-0.017274
-0.016999
-0.016395
-0.016058
0.006345
0.005945
0.005249
0.005782
0.018127
-0.020484
-0.020753
-0.020183
-0.015947
-0.019248
-0.013779
-0.015659
-0.012811
-0.013957
-0.017348
-0.019625
-0.019793
0.003370
0.003576
0.001477
0.005444
-0.003902
-0.005726
0.000344
-0.019426
-0.006113
-0.018803
0.000421
-0.003429
-0.002709
-0.018312
-0.018752
-0.018381
-0.019710
-0.018963
-0.006022
-0.002194
-0.003332
-0.004695
-0.018106
-0.000255
-0.000482
-0.000682
-0.006577
-0.006914
-0.005703
-0.015675
-0.015746
-0.016565
-0.013811
-0.013593
-0.013981
-0.014215
-0.006456
-0.005595
-0.005550
-0.004624
-0.004624
0.004414
0.003364
0.000313
-0.001349
-0.001841
-0.001380
-0.000976
0.004971
0.003330
0.001941
0.001850
0.000555
-0.017267
-0.014548
-0.013590
-0.011571
-0.018468
-0.018346
-0.018705
-0.012416
0.021113
-0.014770
-0.015109
-0.015847
-0.015425
-0.009850
-0.011322
-0.008750
-0.008048
-0.007285
-0.020044
-0.014530
-0.014343
-0.019099
0.014720
0.014733
-0.001694
-0.016012
0.015028
0.019671
-0.014715
-0.016696
-0.014967
0.004155
-0.017252
-0.018270
-0.019168
-0.020506
-0.019766
0.017921
-0.017750
0.001834
0.000236
0.002849
-0.018824
-0.019578
0.019246
-0.014654
-0.014583
-0.014921
-0.018645
0.016042
0.015038
0.016011
0.018415
0.018385
0.018688
-0.018192
-0.017447
-0.017330
-0.017716
-0.018812
0.013640
0.010691
0.010467
0.007855
-0.013980
-0.014043
-0.006723
-0.006439
-0.011927
-0.010078
0.012125
-0.004847
-0.020210
-0.010140
-0.010540
-0.010217
0.000665
-0.008820
-0.008255
-0.008345
-0.017835
-0.015399
-0.013833
-0.013727
-0.012188
-0.017119
-0.007391
-0.008152
-0.008026
0.015726
0.018235
0.016999
0.001713
-0.012604
-0.012632
-0.011942
-0.018935
-0.017645
-0.017900
-0.018659
-0.009786
0.004879
-0.014143
-0.016344
-0.009692
-0.008918
-0.018972
-0.017031
-0.007850
-0.007797
-0.011253
0.002923
0.019882
0.019584
-0.018147
-0.012939
-0.005152
-0.019562
-0.016173
-0.015058
-0.016546
0.006408
-0.020172
0.005699
0.005809
0.005394
-0.007565
-0.004811
-0.018830
-0.008383
-0.012106
-0.013001
-0.013542
0.018108
-0.002684
-0.003117
-0.002427
-0.015043
-0.015216
-0.008956
-0.012549
-0.012413
-0.012041
-0.018522
-0.018902
-0.012881
-0.016901
0.015657
0.015901
-0.011183
-0.011325
-0.011661
0.015209
-0.004124
-0.003886
0.016679
0.016917
0.005514
-0.000886
-0.002325
-0.017119
-0.017664
0.001011
0.001609
0.004878
0.005468
-0.010290
-0.011982
-0.014889
-0.014417
-0.014608
0.013117
0.012994
0.001353
0.002640
-0.012832
-0.018241
-0.017008
-0.009886
-0.010067
-0.009463
-0.016367
-0.019169
-0.015699
-0.005838
-0.006744
-0.014870
-0.015263
-0.015187
0.017749
-0.007781
-0.007458
-0.008533
-0.018187
-0.017935
-0.013963
-0.013430
-0.010226
-0.008558
0.000446
-0.002457
0.006892
0.018676
-0.018900
-0.009355
-0.008646
-0.011432
-0.013406
-0.014155
-0.008759
-0.009299
-0.009439
0.015196
-0.004655
-0.007191
-0.007825
-0.001634
-0.004629
-0.010888
-0.010972
-0.010621
0.004181
0.004431
0.005363
0.000423
-0.007501
-0.013913
-0.014116
-0.014464
-0.014561
0.006346
0.006688
0.006461
-0.009168
-0.008197
-0.019313
-0.009090
-0.009435
-0.008913
-0.009690
0.003379
0.019948
0.019783
0.002369
0.006049
0.001640
0.004123
-0.016560
-0.016452
-0.016267
-0.014088
-0.013772
-0.013783
-0.009420
0.013710
0.012920
-0.003850
0.000110
-0.000396
-0.014405
-0.000825
-0.014313
-0.014015
-0.016924
-0.016896
-0.016627
-0.010862
-0.000973
-0.000407
-0.001079
-0.000125
0.019668
-0.016018
-0.016301
0.014041
-0.015696
-0.015840
0.017202
0.016477
0.016147
0.015221
0.015511
0.014087
0.015336
-0.018031
-0.017750
-0.018076
-0.012722
-0.013911
-0.014382
-0.002105
-0.003300
-0.010859
-0.016708
-0.013098
-0.010705
-0.007995
-0.017181
-0.017132
0.003186
-0.010229
-0.010317
-0.014472
-0.018161
0.019523
-0.004908
-0.017062
-0.018606
-0.015761
-0.004347
-0.005616
0.000576
-0.003914
-0.004808
-0.005378
-0.006514
-0.008227
-0.001148
-0.002588
-0.000191
-0.002401
0.000811
-0.012144
-0.015650
0.014035
0.014300
-0.014012
-0.010983
-0.006792
-0.007451
-0.008101
0.014796
0.012819
-0.001867
-0.002452
-0.002464
-0.001999
0.004232
0.004540
-0.013417
-0.013571
-0.013288
-0.016684
-0.001900
0.000855
-0.011941
0.011068
0.011913
-0.012725
-0.008684
-0.007189
-0.008080
0.019841
0.015108
0.016211
0.016265
-0.014020
-0.014637
0.019678
-0.010363
-0.006376
-0.010781
0.010676
-0.012408
-0.012581
-0.012153
-0.012820
-0.013985
-0.008442
-0.013089
0.009696
0.008864
0.008482
0.010604
0.010969
0.010689
0.010130
0.010578
0.004966
0.014097
0.013699
-0.013151
0.006793
0.005325
-0.010556
-0.010525
-0.010273
0.014925
0.013864
-0.006627
-0.010386
-0.007859
-0.012378
-0.011306
-0.005717
-0.005600
-0.006178
0.019606
0.019450
-0.008548
-0.005820
-0.009973
0.007666
0.013457
0.014057
0.014493
0.010579
0.010613
0.013293
-0.013944
-0.016214
-0.015913
-0.002030
-0.003070
-0.005822
-0.020963
-0.005265
0.009406
0.006984
0.007674
0.008373
-0.009778
-0.009984
-0.009709
-0.010156
0.009908
-0.011610
-0.011784
-0.011394
-0.006223
0.009389
0.009573
-0.021013
0.014838
0.014827
-0.013364
-0.001209
-0.020904
0.014426
-0.001483
0.008694
-0.010272
0.014841
-0.015325
0.009999
-0.009903
-0.008938
-0.004852
-0.006093
-0.014873
0.016470
0.016930
0.014349
0.018730
0.004073
0.004398
0.004370
-0.005203
-0.011207
-0.004857
-0.003862
0.004075
0.004674
-0.011273
0.004744
-0.007563
-0.008026
-0.007771
-0.007261
-0.007611
-0.007304
-0.007085
-0.006823
-0.006588
-0.016059
0.002853
-0.005010
0.019682
0.004635
0.005037
-0.009761
0.004124
-0.000500
-0.000464
-0.013966
-0.013824
-0.014088
0.000984
0.001371
0.000565
0.012545
0.012755
0.011209
0.011671
0.012496
0.012961
0.012840
0.012811
-0.014070
-0.020195
0.001747
0.001789
0.001400
0.002858
-0.009059
0.005457
0.005936
0.005955
-0.000744
-0.000134
-0.006812
-0.006535
0.006365
0.006061
0.006550
-0.000795
-0.001084
0.002464
0.000112
0.000284
-0.013123
-0.012862
0.015343
0.015820
-0.000762
-0.000296
-0.000341
0.015576
0.015085
0.013296
0.012772
-0.013402
0.007891
0.013292
-0.006618
-0.006274
-0.006169
0.009162
0.009630
0.009075
-0.007605
-0.012174
0.009622
-0.011227
-0.011259
-0.011617
0.010193
0.008991
-0.001058
-0.001352
-0.005351
-0.005016
-0.005300
0.010565
0.010556
0.010157
-0.001637
-0.001326
-0.005691
-0.001747
-0.005075
-0.004620
-0.004400
0.012274
0.011859
-0.016265
-0.016535
-0.003940
-0.003675
-0.003411
-0.003750
-0.003417
-0.019663
-0.001585
-0.009840
-0.010071
-0.009714
0.011372
-0.008629
-0.010386
-0.010555
-0.010769
0.006804
-0.003984
-0.015424
0.006646
0.012477
0.012151
0.007946
0.008221
0.008406
0.008720
0.002746
0.002864
0.003069
0.002529
0.002690
0.007685
0.014769
0.014400
-0.004690
-0.004497
-0.004458
-0.006525
-0.006062
-0.002578
-0.002276
-0.002586
0.003353
-0.008112
0.003580
0.003739
0.003959
0.003364
0.015086
0.001906
0.002059
0.014012
0.013977
0.014419
0.013533
0.005989
0.010675
-0.006181
-0.005908
0.006177
0.006970
0.006859
0.000526
0.000329
-0.007692
-0.007924
-0.008112
-0.007572
-0.007358
-0.001909
-0.001667
-0.002009
0.005594
0.005718
0.005177
0.005674
0.005984
0.013122
0.012992
0.011110
0.010178
0.008689
0.008851
0.009194
0.009116
0.009479
0.009211
-0.009828
0.012286
0.012649
0.012783
0.013852
0.013470
0.015251
0.015389
-0.002273
-0.007908
-0.007860
0.015699
0.016157
-0.012496
0.015889
0.012861
0.013833
0.009743
0.016454
-0.020734
-0.020818
-0.020768
-0.020845
-0.019898
0.003401
-0.004484
0.000082
-0.007863
-0.007755
-0.008044
-0.020182
-0.006608
0.009573
0.010350
0.007345
0.005755
0.008332
0.008365
0.007997
-0.007944
0.008106
-0.000032
0.000126
0.000359
-0.007935
0.014688
0.000408
0.008464
0.008210
0.016566
0.016938
0.012671
0.012913
0.013259
0.013626
0.013627
0.002217
0.002520
-0.016382
0.007440
0.013005
0.013322
0.013589
-0.001456
-0.001253
-0.001110
-0.007020
-0.006819
-0.004980
-0.005376
-0.002595
-0.002995
0.003718
0.003252
0.003105
0.010110
-0.007653
-0.007357
-0.008230
0.016030
0.015638
0.008449
0.006610
0.006010
0.004084
-0.005867
-0.006601
-0.007433
0.016659
0.005506
0.004964
0.004949
0.016321
0.016411
0.016035
-0.013323
0.009015
-0.012516
-0.003956
-0.004080
-0.004337
-0.013575
0.004317
-0.009702
-0.018652
-0.007368
0.002817
0.002724
-0.001691
-0.000876
0.004041
-0.004283
-0.004116
-0.003786
0.003816
0.008944
-0.007489
-0.005628
-0.005903
-0.003934
-0.004287
0.004448
-0.004146
-0.017938
-0.018001
0.010900
0.003701
-0.010933
0.000758
0.000667
0.007593
0.002008
0.015142
0.013340
0.013742
-0.011802
0.003847
-0.007081
0.006175
-0.016840
-0.006433
-0.007091
0.005357
0.005680
0.005300
0.001749
0.002023
0.008067
0.007466
-0.014958
-0.014934
0.000460
-0.001152
0.006922
0.001820
0.000626
-0.004636
0.013846
-0.004239
0.014097
0.013974
0.000409
-0.008557
-0.008288
0.015089
0.014566
0.007766
0.007702
-0.000464
0.012212
0.012677
0.012431
0.008534
0.008892
0.016211
0.016393
0.006326
0.010191
0.010805
0.007348
-0.017299
0.013021
0.008994
0.007328
-0.008400
0.004429
0.009719
-0.012036
-0.009936
0.010551
0.001779
0.013714
0.014507
-0.007547
0.000142
-0.018085
-0.011581
-0.001931
-0.002252
-0.002605
-0.003566
-0.012833
-0.007274
-0.004718
-0.001759
0.008534
0.004255
0.004411
0.004828
0.002467
0.013705
-0.002741
0.011236
0.010589
0.010395
-0.010873
-0.006474
-0.001952
-0.000040
0.000149
0.015256
0.011349
-0.010578
0.005323
0.005049
-0.001671
0.008136
0.016735
0.010115
0.011437
0.011317
-0.008347
0.011045
-0.003265
0.007994
0.016450
0.006022
-0.003126
-0.002909
-0.002698
-0.003437
-0.003277
-0.002982
-0.002978
0.002110
0.001986
0.005339
-0.000895
0.006896
0.007099
0.007346
-0.002449
0.001508
0.008839
0.011888
0.003612
-0.002832
0.003827
0.004924
0.005027
0.008664
-0.002851
0.001532
0.001183
0.009559
0.004608
0.009579
-0.003102
0.001245
0.000017
0.016103
0.012154
0.005469
0.007622
0.007749
0.013020
0.003805
0.006794
0.008345
-0.010104
-0.005809
0.010575
0.006851
0.012490
0.014410
0.014693
-0.003032
-0.001462
0.004798
-0.011889
-0.011602
-0.011285
-0.011646
-0.011306
-0.011306
-0.004966
-0.005219
-0.004938
0.019573
0.018625
0.018638
0.010800
0.010365
0.010802
0.017819
0.019922
0.001197
0.000914
-0.002310
0.012794
0.016121
0.015750
-0.005895
-0.006508
-0.006036
0.020271
0.019740
0.020644
0.019604
-0.006148
-0.011685
-0.011014
-0.006665
-0.006661
-0.006214
-0.005562
-0.005216
-0.006746
-0.007225
0.009309
0.008751
0.008833
0.008974
-0.006208
-0.003897
-0.007249
-0.007899
-0.007367
-0.002613
-0.000676
0.008122
0.006973
0.007734
0.007136
-0.009389
-0.008949
-0.009484
0.004627
0.004897
0.004595
-0.000431
-0.000806
-0.000636
-0.001132
0.020563
0.020175
-0.009113
-0.007643
-0.005955
-0.013357
-0.012128
-0.012132
-0.002906
-0.002386
-0.002463
-0.010770
-0.008388
-0.007651
-0.007531
-0.001825
0.007178
0.007980
0.008182
0.006360
0.014012
0.014081
0.015832
0.012318
-0.000117
0.001623
0.001339
0.010042
0.010443
0.010771
0.011287
-0.004821
-0.007369
-0.005800
-0.016823
-0.017603
-0.002193
-0.002443
-0.001951
-0.002516
0.014424
0.014850
0.014510
0.015055
0.004244
0.003963
0.005203
0.003349
0.010000
0.010238
0.009839
0.010427
0.013576
0.013685
0.014067
0.013270
-0.005278
-0.004860
-0.011119
-0.011338
-0.014117
-0.013821
-0.014357
-0.009930
-0.010450
-0.010240
0.010968
0.010769
-0.004260
-0.004128
-0.004528
-0.004384
-0.012738
-0.006672
-0.007047
-0.006674
-0.007046
-0.012892
-0.012767
-0.012467
-0.012167
-0.009644
-0.009970
-0.010058