# vtk DataFile Version 2.0
Test
ASCII
DATASET POLYDATA
POINTS 3011 float
0.000000 0.000000 0.000000
2.000000 0.000000 0.000000
2.000000 4.000000 0.000000
0.000000 4.000000 0.000000
0.000000 0.500000 0.000000
1.500000 2.000000 0.000000
2.000000 2.500000 0.000000
0.285714 0.000000 0.000000
0.571429 0.000000 0.000000
0.857143 0.000000 0.000000
1.142857 0.000000 0.000000
1.428571 0.000000 0.000000
1.714286 0.000000 0.000000
2.000000 0.276366 0.000000
2.000000 0.523709 0.000000
2.000000 0.745076 0.000000
2.000000 0.943195 0.000000
2.000000 1.120508 0.000000
2.000000 1.279199 0.000000
2.000000 1.421225 0.000000
2.000000 1.548336 0.000000
2.000000 1.662097 0.000000
2.000000 1.763911 0.000000
2.000000 1.855033 0.000000
2.000000 1.936585 0.000000
2.000000 2.009573 0.000000
2.000000 2.074896 0.000000
2.000000 2.133358 0.000000
2.000000 2.185681 0.000000
2.000000 2.232509 0.000000
2.000000 2.274419 0.000000
2.000000 2.311927 0.000000
2.000000 2.345497 0.000000
2.000000 2.375541 0.000000
2.000000 2.402430 0.000000
2.000000 2.426495 0.000000
2.000000 2.448033 0.000000
2.000000 2.467309 0.000000
2.000000 2.484560 0.000000
2.000000 2.516256 0.000000
2.000000 2.535859 0.000000
2.000000 2.559499 0.000000
2.000000 2.588006 0.000000
2.000000 2.622383 0.000000
2.000000 2.663839 0.000000
2.000000 2.713831 0.000000
2.000000 2.774116 0.000000
2.000000 2.846815 0.000000
2.000000 2.934483 0.000000
2.000000 3.040202 0.000000
2.000000 3.167691 0.000000
2.000000 3.321430 0.000000
2.000000 3.506825 0.000000
2.000000 3.730395 0.000000
1.714286 4.000000 0.000000
1.428571 4.000000 0.000000
1.142857 4.000000 0.000000
0.857143 4.000000 0.000000
0.571429 4.000000 0.000000
0.285714 4.000000 0.000000
0.000000 3.713462 0.000000
0.000000 3.449209 0.000000
0.000000 3.205508 0.000000
0.000000 2.980761 0.000000
0.000000 2.773493 0.000000
0.000000 2.582346 0.000000
0.000000 2.406065 0.000000
0.000000 2.243495 0.000000
0.000000 2.093568 0.000000
0.000000 1.955302 0.000000
0.000000 1.827789 0.000000
0.000000 1.710194 0.000000
0.000000 1.601745 0.000000
0.000000 1.501730 0.000000
0.000000 1.409494 0.000000
0.000000 1.324431 0.000000
0.000000 1.245984 0.000000
0.000000 1.173639 0.000000
0.000000 1.106920 0.000000
0.000000 1.045390 0.000000
0.000000 0.988645 0.000000
0.000000 0.936314 0.000000
0.000000 0.888053 0.000000
0.000000 0.843545 0.000000
0.000000 0.802499 0.000000
0.000000 0.764646 0.000000
0.000000 0.729736 0.000000
0.000000 0.697541 0.000000
0.000000 0.667851 0.000000
0.000000 0.640469 0.000000
0.000000 0.615217 0.000000
0.000000 0.591929 0.000000
0.000000 0.570453 0.000000
0.000000 0.550646 0.000000
0.000000 0.532380 0.000000
0.000000 0.515535 0.000000
0.000000 0.483768 0.000000
0.000000 0.461535 0.000000
0.000000 0.431083 0.000000
0.000000 0.389372 0.000000
0.000000 0.332241 0.000000
0.000000 0.253989 0.000000
0.000000 0.146807 0.000000
0.010563 0.510563 0.000000
0.021127 0.521127 0.000000
0.031690 0.531690 0.000000
0.042254 0.542254 0.000000
0.052817 0.552817 0.000000
0.063380 0.563380 0.000000
0.073944 0.573944 0.000000
0.084507 0.584507 0.000000
0.095070 0.595070 0.000000
0.105634 0.605634 0.000000
0.116197 0.616197 0.000000
0.126761 0.626761 0.000000
0.137324 0.637324 0.000000
0.147887 0.647887 0.000000
0.158451 0.658451 0.000000
0.169014 0.669014 0.000000
0.179577 0.679577 0.000000
0.190141 0.690141 0.000000
0.200704 0.700704 0.000000
0.211268 0.711268 0.000000
0.221831 0.721831 0.000000
0.232394 0.732394 0.000000
0.242958 0.742958 0.000000
0.253521 0.753521 0.000000
0.264085 0.764085 0.000000
0.274648 0.774648 0.000000
0.285211 0.785211 0.000000
0.295775 0.795775 0.000000
0.306338 0.806338 0.000000
0.316901 0.816901 0.000000
0.327465 0.827465 0.000000
0.338028 0.838028 0.000000
0.348592 0.848592 0.000000
0.359155 0.859155 0.000000
0.369718 0.869718 0.000000
0.380282 0.880282 0.000000
0.390845 0.890845 0.000000
0.401408 0.901408 0.000000
0.411972 0.911972 0.000000
0.422535 0.922535 0.000000
0.433099 0.933099 0.000000
0.443662 0.943662 0.000000
0.454225 0.954225 0.000000
0.464789 0.964789 0.000000
0.475352 0.975352 0.000000
0.485915 0.985915 0.000000
0.496479 0.996479 0.000000
0.507042 1.007042 0.000000
0.517606 1.017606 0.000000
0.528169 1.028169 0.000000
0.538732 1.038732 0.000000
0.549296 1.049296 0.000000
0.559859 1.059859 0.000000
0.570423 1.070423 0.000000
0.580986 1.080986 0.000000
0.591549 1.091549 0.000000
0.602113 1.102113 0.000000
0.612676 1.112676 0.000000
0.623239 1.123239 0.000000
0.633803 1.133803 0.000000
0.644366 1.144366 0.000000
0.654930 1.154930 0.000000
0.665493 1.165493 0.000000
0.676056 1.176056 0.000000
0.686620 1.186620 0.000000
0.697183 1.197183 0.000000
0.707746 1.207746 0.000000
0.718310 1.218310 0.000000
0.728873 1.228873 0.000000
0.739437 1.239437 0.000000
0.750000 1.250000 0.000000
0.760563 1.260563 0.000000
0.771127 1.271127 0.000000
0.781690 1.281690 0.000000
0.792254 1.292254 0.000000
0.802817 1.302817 0.000000
0.813380 1.313380 0.000000
0.823944 1.323944 0.000000
0.834507 1.334507 0.000000
0.845070 1.345070 0.000000
0.855634 1.355634 0.000000
0.866197 1.366197 0.000000
0.876761 1.376761 0.000000
0.887324 1.387324 0.000000
0.897887 1.397887 0.000000
0.908451 1.408451 0.000000
0.919014 1.419014 0.000000
0.929577 1.429577 0.000000
0.940141 1.440141 0.000000
0.950704 1.450704 0.000000
0.961268 1.461268 0.000000
0.971831 1.471831 0.000000
0.982394 1.482394 0.000000
0.992958 1.492958 0.000000
1.003521 1.503521 0.000000
1.014085 1.514085 0.000000
1.024648 1.524648 0.000000
1.035211 1.535211 0.000000
1.045775 1.545775 0.000000
1.056338 1.556338 0.000000
1.066901 1.566901 0.000000
1.077465 1.577465 0.000000
1.088028 1.588028 0.000000
1.098592 1.598592 0.000000
1.109155 1.609155 0.000000
1.119718 1.619718 0.000000
1.130282 1.630282 0.000000
1.140845 1.640845 0.000000
1.151408 1.651408 0.000000
1.161972 1.661972 0.000000
1.172535 1.672535 0.000000
1.183099 1.683099 0.000000
1.193662 1.693662 0.000000
1.204225 1.704225 0.000000
1.214789 1.714789 0.000000
1.225352 1.725352 0.000000
1.235915 1.735915 0.000000
1.246479 1.746479 0.000000
1.257042 1.757042 0.000000
1.267606 1.767606 0.000000
1.278169 1.778169 0.000000
1.288732 1.788732 0.000000
1.299296 1.799296 0.000000
1.309859 1.809859 0.000000
1.320423 1.820423 0.000000
1.330986 1.830986 0.000000
1.341549 1.841549 0.000000
1.352113 1.852113 0.000000
1.362676 1.862676 0.000000
1.373239 1.873239 0.000000
1.383803 1.883803 0.000000
1.394366 1.894366 0.000000
1.404930 1.904930 0.000000
1.415493 1.915493 0.000000
1.426056 1.926056 0.000000
1.436620 1.936620 0.000000
1.447183 1.947183 0.000000
1.457746 1.957746 0.000000
1.468310 1.968310 0.000000
1.478873 1.978873 0.000000
1.489437 1.989437 0.000000
1.510417 2.010417 0.000000
1.520833 2.020833 0.000000
1.531250 2.031250 0.000000
1.541667 2.041667 0.000000
1.552083 2.052083 0.000000
1.562500 2.062500 0.000000
1.572917 2.072917 0.000000
1.583333 2.083333 0.000000
1.593750 2.093750 0.000000
1.604167 2.104167 0.000000
1.614583 2.114583 0.000000
1.625000 2.125000 0.000000
1.635417 2.135417 0.000000
1.645833 2.145833 0.000000
1.656250 2.156250 0.000000
1.666667 2.166667 0.000000
1.677083 2.177083 0.000000
1.687500 2.187500 0.000000
1.697917 2.197917 0.000000
1.708333 2.208333 0.000000
1.718750 2.218750 0.000000
1.729167 2.229167 0.000000
1.739583 2.239583 0.000000
1.750000 2.250000 0.000000
1.760417 2.260417 0.000000
1.770833 2.270833 0.000000
1.781250 2.281250 0.000000
1.791667 2.291667 0.000000
1.802083 2.302083 0.000000
1.812500 2.312500 0.000000
1.822917 2.322917 0.000000
1.833333 2.333333 0.000000
1.843750 2.343750 0.000000
1.854167 2.354167 0.000000
1.864583 2.364583 0.000000
1.875000 2.375000 0.000000
1.885417 2.385417 0.000000
1.895833 2.395833 0.000000
1.906250 2.406250 0.000000
1.916667 2.416667 0.000000
1.927083 2.427083 0.000000
1.937500 2.437500 0.000000
1.947917 2.447917 0.000000
1.958333 2.458333 0.000000
1.968750 2.468750 0.000000
1.979167 2.479167 0.000000
1.989583 2.489583 0.000000
0.206561 0.791563 0.000000
0.205359 0.816165 0.000000
0.186354 0.798211 0.000000
0.221961 0.800924 0.000000
0.280649 1.360489 0.000000
0.304015 1.400469 0.000000
0.229142 1.396096 0.000000
0.275922 1.451476 0.000000
1.869084 2.391788 0.000000
1.857928 2.378421 0.000000
1.238669 2.061899 0.000000
1.278787 2.082276 0.000000
1.238298 2.096047 0.000000
1.277579 2.032995 0.000000
0.402536 1.205823 0.000000
0.415290 1.176040 0.000000
0.428330 1.201952 0.000000
0.387294 1.172617 0.000000
0.146930 1.050586 0.000000
0.109488 1.087198 0.000000
0.102742 1.042403 0.000000
0.157178 1.091184 0.000000
0.588967 1.178581 0.000000
0.593116 1.153718 0.000000
0.608054 1.166752 0.000000
0.612180 1.145944 0.000000
0.860304 1.543784 0.000000
0.868821 1.521840 0.000000
0.878420 1.536650 0.000000
0.845380 1.517623 0.000000
1.129525 1.764330 0.000000
1.142005 1.751560 0.000000
1.145757 1.773681 0.000000
1.159368 1.759106 0.000000
1.968150 2.518865 0.000000
1.986105 2.509269 0.000000
1.986696 2.531115 0.000000
0.668964 1.191005 0.000000
0.683291 1.201259 0.000000
0.557625 1.074830 0.000000
0.569760 1.084377 0.000000
0.557769 1.089278 0.000000
0.707567 1.266174 0.000000
0.719026 1.281845 0.000000
0.700768 1.282275 0.000000
0.722329 1.266956 0.000000
0.468225 2.149688 0.000000
0.419106 2.064198 0.000000
0.523878 2.082648 0.000000
0.838546 1.421191 0.000000
0.823708 1.410355 0.000000
0.840477 1.404206 0.000000
0.818500 1.425973 0.000000
0.953187 1.488222 0.000000
0.959780 1.473222 0.000000
0.967054 1.485637 0.000000
1.047418 1.769126 0.000000
1.080240 1.782403 0.000000
1.047768 1.802712 0.000000
0.971392 1.693320 0.000000
0.949208 1.720793 0.000000
0.940644 1.684781 0.000000
0.381391 2.160909 0.000000
0.944091 1.477800 0.000000
0.530075 1.477351 0.000000
0.521303 1.516669 0.000000
0.474240 1.491166 0.000000
0.489489 1.546185 0.000000
1.537370 2.239326 0.000000
1.555275 2.267640 0.000000
1.532966 2.278201 0.000000
0.962010 1.661716 0.000000
0.986804 1.643200 0.000000
0.986259 1.672729 0.000000
1.049149 1.737940 0.000000
1.075111 1.737123 0.000000
[...]
POINT_DATA 3011
SCALARS UX float 1
LOOKUP_TABLE default
0.006504
0.012040
0.000000
-0.000000
0.002946
0.006861
0.005008
0.007074
0.007759
0.008515
0.009342
0.010223
0.011124
0.012084
0.012186
0.012320
0.012448
0.012546
0.012596
0.012579
0.012458
0.012206
0.011803
0.011217
0.010519
0.009735
0.008980
0.008281
0.007666
0.007149
0.006720
0.006364
0.006070
0.005829
0.005627
0.005458
0.005316
0.005196
0.005095
0.004921
0.004820
0.004704
0.004577
0.004434
0.004272
0.004106
0.003923
0.003728
0.003536
0.003325
0.003093
0.002805
0.002403
0.001759
-0.000000
0.000000
-0.000000
-0.000000
-0.000000
0.000000
-0.001279
-0.001676
-0.001653
-0.001475
-0.001236
-0.001017
-0.000861
-0.000778
-0.000785
-0.000862
-0.001004
-0.001175
-0.001370
-0.001577
-0.001785
-0.001986
-0.002178
-0.002356
-0.002520
-0.002671
-0.002809
-0.002925
-0.003024
-0.003107
-0.003173
-0.003218
-0.003245
-0.003238
-0.003172
-0.003033
-0.002873
-0.002689
-0.002645
-0.002379
-0.001530
0.001284
0.005469
0.005977
0.006292
0.006394
0.006489
0.006519
0.006509
0.002329
0.002904
0.003219
0.003538
0.003157
0.003329
0.003417
0.003444
0.003278
0.003267
0.003384
0.003513
0.003627
0.003584
0.003745
0.003845
0.003678
0.003611
0.003756
0.003763
0.003825
0.003747
0.003757
0.003792
0.003770
0.003755
0.003702
0.003737
0.003563
0.003536
0.003383
0.003400
0.003524
0.003574
0.003648
0.003617
0.003776
0.003721
0.003877
0.003762
0.003830
0.004021
0.004047
0.004199
0.004084
0.004184
0.004204
0.004206
0.004353
0.004513
0.004590
0.004639
0.004688
0.004529
0.004642
0.004637
0.004682
0.004642
0.004729
0.004661
0.004697
0.004778
0.004825
0.004926
0.004846
0.004957
0.004677
0.004814
0.004860
0.005030
0.005043
0.004967
0.004852
0.004866
0.004589
0.004609
0.004654
0.004580
0.004631
0.004644
0.004645
0.004720
0.004962
0.004902
0.005005
0.005099
0.005132
0.005280
0.005349
0.005394
0.005418
0.005429
0.005065
0.005192
0.005257
0.005369
0.005384
0.005423
0.005401
0.005492
0.005592
0.005684
0.005788
0.005770
0.005895
0.005987
0.006091
0.006063
0.006085
0.006142
0.006119
0.006166
0.006144
0.006083
0.006140
0.006077
0.006195
0.006186
0.006227
0.006270
0.006211
0.006058
0.006038
0.006239
0.006110
0.006101
0.006250
0.006142
0.006207
0.006319
0.006308
0.006118
0.006216
0.006260
0.006340
0.006465
0.006458
0.006539
0.006674
0.006707
0.006771
0.006866
0.006833
0.006777
0.006701
0.006630
0.006566
0.006497
0.006434
0.006382
0.006326
0.006274
0.006222
0.006173
0.006126
0.006078
0.006029
0.005978
0.005928
0.005881
0.005834
0.005789
0.005745
0.005702
0.005658
0.005617
0.005576
0.005536
0.005496
0.005457
0.005419
0.005382
0.005346
0.005311
0.005279
0.005247
0.005217
0.005188
0.005162
0.005137
0.005114
0.005094
0.005075
0.005058
0.005044
0.005032
0.005021
0.005014
-0.002187
-0.002335
-0.002419
-0.002073
-0.001224
-0.001065
-0.001255
-0.001004
0.005064
0.005109
0.003388
0.003637
0.003407
0.003578
-0.001321
-0.001349
-0.001258
-0.001435
-0.002328
-0.002328
-0.002451
-0.002208
-0.000549
-0.000312
-0.000194
0.000388
0.000767
0.000782
0.000836
0.000675
0.002233
0.002304
0.002344
0.002439
0.004751
0.004889
0.004779
0.001434
0.001889
0.001448
0.001806
0.000349
0.000331
0.000344
0.000056
0.000648
0.000542
0.000379
0.000694
0.000772
0.000663
0.000901
0.000573
0.002184
0.003568
0.003149
0.001874
0.002034
0.001960
0.001433
0.001419
0.001310
0.000293
0.002204
-0.000326
-0.000244
-0.000424
-0.000247
0.004437
0.004348
0.004178
0.001337
0.001413
0.001449
0.001811
0.001920
0.001929
0.004554
0.001861
0.002713
0.003881
0.003665
0.002950
0.003846
0.004054
0.003865
0.004150
0.003894
0.004040
-0.000287
-0.000372
-0.000248
-0.000222
-0.000048
-0.000048
-0.000335
0.000146
-0.001630
-0.001519
-0.001559
-0.001628
0.002284
0.002186
0.002378
0.001972
-0.000050
-0.000188
0.000068
0.004826
0.004798
0.004617
-0.000291
-0.001756
-0.001885
-0.001968
-0.000138
-0.000100
-0.000018
0.000016
-0.002081
-0.000619
-0.000395
-0.000689
0.004613
0.004828
0.004746
0.002130
0.002252
0.002347
-0.001194
-0.001163
0.002525
0.000563
0.000654
0.000502
0.000665
0.005171
0.004898
0.004918
0.000690
0.000780
0.000672
0.005239
-0.001080
0.000235
-0.000167
-0.000848
-0.000828
-0.000735
-0.002292
-0.002120
-0.000736
0.001206
0.001110
0.001310
-0.002431
0.001234
0.002039
0.002164
-0.002327
-0.002191
-0.002231
0.000113
0.000764
0.001200
-0.000219
-0.000510
0.006115
0.006162
0.005921
0.002932
0.002843
0.002744
0.002311
0.002466
0.002324
0.002073
0.001852
0.001754
0.002200
-0.001010
-0.001324
-0.001298
0.000641
0.000545
0.000580
0.001284
0.000630
-0.002804
-0.002693
-0.002797
-0.000373
-0.000681
0.004804
0.001629
0.005349
0.005146
0.005189
0.000520
0.000666
0.000791
0.000378
0.004197
0.004065
0.003902
0.000030
-0.000216
0.000114
0.003080
0.003241
0.003266
0.002910
0.005307
0.005306
0.005034
0.003191
0.003023
0.003011
0.003005
0.003541
0.003370
0.001942
0.001990
0.001558
0.001535
0.006001
0.006158
0.005609
0.000268
-0.000645
-0.000745
-0.000869
-0.000865
0.002299
0.004271
0.004294
0.004526
0.003630
0.003579
0.003826
0.003430
0.003988
0.004075
0.004219
0.005620
0.005720
0.001026
0.001164
0.001143
0.001034
0.000830
0.001046
0.000866
0.001075
0.003935
0.003788
0.003973
0.004159
0.004183
0.003761
0.005513
0.005701
0.005418
0.005557
0.005611
0.000324
0.000271
0.000123
0.000412
0.000347
0.000465
0.000447
0.000222
0.000315
0.000466
0.000992
0.000892
0.001030
0.000885
0.002950
0.003052
0.003191
0.002801
0.001944
0.000712
0.000507
0.000542
0.000501
0.000597
0.000804
0.005199
0.005012
0.005141
0.004923
0.002393
0.002476
0.000926
0.000950
0.001059
0.004540
0.004089
0.002997
0.002265
0.002080
0.002332
0.002103
0.001525
0.001497
0.001761
0.001339
0.005665
0.005746
0.002160
0.002748
0.001435
0.002005
0.001939
0.001826
0.004069
0.003817
0.003577
0.002159
0.001687
0.001819
0.001665
0.004152
0.003964
0.004855
0.005108
0.004772
0.005018
0.003543
0.003536
0.003323
0.003400
-0.002583
-0.002525
-0.002674
-0.002470
-0.001234
-0.000785
-0.000419
-0.000230
-0.000329
-0.000769
0.005888
-0.001520
-0.001522
-0.001641
-0.001604
0.002751
0.002909
0.002989
0.003155
0.000987
0.001124
0.001235
0.001295
0.005284
0.005463
0.005332
0.005522
0.005453
0.005185
-0.001037
-0.001092
-0.001289
-0.002653
-0.002805
-0.002552
-0.002844
-0.002533
-0.002415
0.001739
0.001629
0.001637
0.004069
0.003811
-0.001132
-0.001088
-0.001218
-0.001133
-0.001247
0.000886
0.000997
0.000866
0.000988
-0.001556
-0.001682
-0.001703
-0.001495
0.000386
0.000508
-0.002490
-0.002455
-0.002366
-0.002397
-0.002488
-0.002496
-0.002674
-0.002228
-0.001571
-0.001863
-0.002297
-0.002044
-0.002118
-0.002313
-0.002152
0.001460
0.001477
0.001356
0.002826
-0.000422
-0.000665
-0.000377
-0.000883
-0.001067
0.004052
0.004123
0.004232
0.003847
0.003880
0.004148
-0.001959
-0.001942
-0.002047
-0.000845
-0.000735
-0.000576
-0.000765
0.003302
0.003626
0.003413
0.003143
0.001692
0.001736
-0.001386
-0.001271
-0.001388
-0.001255
-0.000462
-0.001311
-0.001569
0.000941
0.000428
-0.001636
0.004808
0.004603
0.004585
0.004905
-0.001706
-0.001610
0.002857
0.002845
0.002610
0.002596
0.002667
0.001267
0.000879
0.001190
0.000695
0.000245
0.000309
0.000285
-0.003025
-0.003075
-0.003143
-0.002924
0.004197
0.001644
-0.002181
-0.002178
-0.002295
-0.002552
-0.002237
-0.002295
0.004591
0.004721
0.004838
-0.002226
-0.002214
-0.002450
-0.000879
-0.001873
-0.001706
0.004783
0.004890
0.004728
0.004922
0.004795
0.003207
0.003347
-0.002034
-0.002117
-0.002013
0.004602
0.003398
0.003647
0.003544
-0.001313
-0.000970
-0.000834
-0.000966
-0.000879
-0.000767
-0.000209
-0.000167
-0.001798
-0.001618
-0.002995
-0.002963
-0.002894
-0.002883
-0.001278
0.005890
-0.001333
-0.002277
-0.002375
-0.001644
-0.001511
0.004053
0.003780
-0.002310
-0.002667
-0.002427
0.004925
-0.002684
0.004162
0.004194
0.003942
-0.002169
-0.002249
-0.002059
0.001307
0.001632
0.001488
0.001808
0.001691
-0.002582
-0.002519
-0.002667
-0.002725
0.004022
0.003747
-0.002002
-0.001812
-0.001921
-0.001759
-0.000715
-0.000609
-0.000758
-0.000511
-0.000671
-0.000657
-0.000574
-0.000435
-0.000569
-0.001805
-0.002267
0.004405
0.004379
-0.001404
-0.001291
-0.001393
-0.001286
-0.001451
0.006457
0.006355
0.006045
-0.000465
-0.000461
-0.001497
-0.001557
-0.000514
-0.000405
0.002685
0.002402
0.002530
0.002728
0.000156
-0.001764
-0.001412
-0.001424
-0.001231
0.003806
0.005244
0.005054
0.005106
0.004899
0.001680
0.001612
0.001831
0.001909
0.002081
0.002045
0.003695
0.003939
0.004437
0.004372
0.001915
0.002108
0.004384
0.004398
0.000752
-0.001398
-0.001515
-0.001250
-0.000734
0.000451
-0.001440
-0.001783
0.003570
0.000106
-0.003179
0.003783
0.002660
0.002547
0.004998
0.004887
0.004594
-0.003133
-0.001398
-0.001317
-0.001464
0.002500
0.002466
0.002304
0.002357
0.004934
-0.002414
-0.002326
-0.002239
-0.001390
0.003521
0.003478
0.003280
0.003333
0.005208
-0.003105
-0.003164
-0.003072
-0.001775
-0.002867
0.000050
-0.000103
0.000264
-0.000113
-0.000422
-0.001913
-0.002491
0.002000
0.001715
0.001651
0.002072
0.001473
0.001193
0.001847
-0.001951
0.001008
0.000996
0.001947
0.001668
0.001727
-0.002623
-0.002749
-0.002557
-0.002973
-0.002841
0.000107
0.000576
0.000189
0.000529
-0.002615
0.002199
0.001543
0.001677
0.000465
0.000297
0.000431
-0.001725
-0.001623
-0.001877
-0.001336
-0.001363
-0.001662
-0.001678
0.000704
0.000749
0.000873
0.000931
0.001045
0.002711
0.002484
0.001547
0.001205
0.001087
0.001136
0.001310
0.002962
0.002267
0.002204
0.001960
0.001928
-0.000974
-0.000560
-0.000702
-0.000311
-0.001614
-0.001911
-0.002314
-0.001432
0.004897
-0.001767
-0.001730
-0.001876
-0.001909
0.000301
0.000213
0.000372
-0.000156
-0.000021
-0.002752
-0.001866
-0.001873
-0.002612
0.005889
0.005759
-0.000195
-0.002156
0.005802
0.003883
0.000061
-0.000192
0.000031
0.002918
-0.000274
-0.002692
-0.002241
-0.003063
-0.002992
0.004984
-0.002586
0.000178
-0.000001
0.000338
-0.002079
-0.002789
0.005020
0.000429
-0.000341
-0.001064
-0.000746
0.004008
0.003761
0.003783
0.005155
0.005000
0.005156
-0.000537
-0.001523
-0.001759
-0.002177
-0.000307
0.001970
0.001449
0.001499
0.001069
-0.001754
-0.001713
0.000121
0.000085
0.000430
0.000636
0.003364
0.000784
-0.002887
-0.000940
-0.001023
-0.000972
0.002116
-0.000573
-0.000500
-0.000471
-0.000457
-0.000153
-0.000082
0.000058
0.000209
-0.000617
0.000063
-0.000079
0.000023
0.002401
0.002861
0.002539
0.000275
-0.001084
-0.001186
-0.001086
-0.001917
-0.001685
-0.002460
-0.002771
-0.000120
0.002321
0.000086
-0.000197
-0.000424
-0.000231
-0.002668
-0.002041
-0.000397
-0.000404
-0.001215
0.002818
0.004589
0.004365
-0.002603
-0.000207
0.001147
-0.002774
-0.001529
-0.001331
-0.001759
0.003382
-0.002848
0.003209
0.003230
0.003070
0.000389
0.000772
-0.002703
0.000045
-0.000919
-0.001001
-0.001157
0.003156
0.001590
0.001347
0.001528
-0.000300
-0.001431
-0.000108
-0.001489
-0.001404
-0.001322
-0.000459
-0.000483
-0.001559
-0.002416
0.005183
0.005414
-0.001132
-0.001108
-0.001216
0.005101
0.000814
0.000952
0.004755
0.004127
0.003112
0.002091
0.001854
-0.002450
-0.002582
0.002171
0.002202
0.000662
0.000665
0.000591
0.000331
-0.001933
-0.001678
-0.001861
0.003774
0.003585
0.002450
0.002632
-0.000407
-0.001597
-0.001474
-0.000568
-0.000685
-0.000577
-0.001186
-0.002880
-0.000436
0.000604
0.000565
-0.001976
-0.002073
-0.002066
0.003594
0.000440
0.000374
0.000276
-0.001157
0.000074
-0.001790
-0.001693
0.000497
0.000792
0.000442
0.000004
0.001043
0.004978
-0.000517
0.000493
0.000486
-0.001077
-0.000918
-0.001139
-0.000605
-0.000680
-0.000643
0.002175
0.001054
0.000623
0.000717
0.001722
0.001440
-0.000502
0.000450
0.000886
0.003060
0.003060
0.003154
0.002317
0.000598
-0.001809
-0.001844
-0.001916
-0.001938
0.004339
0.004655
0.003960
0.000118
0.000195
-0.000624
-0.000688
-0.000774
-0.000679
-0.000777
0.002856
0.005003
0.005031
0.002653
0.003560
0.002551
0.003066
-0.001288
-0.000197
-0.000057
-0.001799
-0.001654
-0.001722
0.000785
0.004084
0.003923
0.000757
0.001975
0.001798
-0.001857
0.001802
-0.000623
0.000778
-0.001184
-0.000236
-0.000071
-0.000990
0.001573
0.001705
0.001635
0.001675
0.004697
0.000110
-0.001001
0.003992
-0.000514
-0.001440
0.003648
0.003348
0.003436
0.003208
0.003470
0.003201
0.002989
-0.002272
-0.001856
-0.002447
-0.000746
-0.000857
-0.000772
0.001902
0.001706
-0.001042
-0.001150
-0.001600
0.000444
0.000845
-0.000377
-0.001180
0.002684
0.000285
-0.000929
-0.001915
-0.002140
0.005010
0.001407
-0.001033
-0.001227
-0.000948
0.001180
0.000997
0.002262
0.001596
0.001468
0.001367
0.001207
0.000746
0.000924
0.000908
0.001264
0.001145
0.000980
0.000179
-0.001334
0.005931
0.005947
0.000255
-0.001148
0.000195
0.000138
0.000093
0.002362
0.001946
0.001184
0.001141
0.001079
0.001108
0.003843
0.004145
-0.000722
-0.000569
0.000752
-0.001011
0.001493
0.002067
-0.001140
0.003164
0.003166
-0.001468
0.000844
0.001048
0.000972
0.004878
0.002774
0.003013
0.002877
-0.001656
-0.001828
0.003550
-0.001007
-0.000050
-0.001105
0.003306
-0.000289
0.000106
0.001482
-0.001119
-0.000460
-0.000570
0.000743
0.003054
0.002781
0.003001
0.005162
0.005314
0.005107
0.004960
0.005250
0.003250
0.005727
0.005650
-0.000678
0.001561
0.001657
-0.000362
0.000562
0.000759
0.003528
0.003414
0.000935
-0.000977
0.000681
-0.000824
-0.000836
0.000118
0.000194
0.000078
0.004917
0.004779
-0.000596
0.001264
0.000053
0.003114
0.004204
0.004335
0.004292
0.003939
0.003736
0.004353
-0.000587
-0.001204
-0.000537
0.001009
0.001088
0.000064
-0.002201
0.000183
0.002373
0.002047
0.002405
0.001979
-0.000067
-0.000032
0.001097
-0.000570
0.003757
-0.000441
-0.000076
0.001370
0.001234
0.004346
0.004235
-0.000445
0.005250
0.005440
-0.001526
0.002053
0.000486
0.005369
0.001649
0.004158
-0.000161
0.005067
-0.002095
0.004444
-0.000846
0.000119
0.000319
0.000178
-0.001998
0.002754
0.002716
0.002478
0.003093
0.002650
0.002865
0.002772
0.000734
0.001416
0.001223
0.000556
0.002714
0.002967
-0.000101
0.003364
0.001005
0.000981
-0.000405
-0.000280
-0.000324
-0.000285
-0.000218
-0.000180
0.001179
-0.001456
0.002543
0.001345
0.003391
0.003853
0.004299
-0.000321
0.002636
0.002393
0.003201
-0.000560
-0.000947
-0.001250
0.001809
0.002015
0.001643
0.003092
0.002913
0.002744
0.002553
0.005291
0.005497
0.005281
0.005631
-0.001436
-0.001995
0.001928
0.001933
0.001827
0.002261
0.000022
0.003122
0.003246
0.003273
0.001527
0.001568
0.000796
0.001266
0.003409
0.003333
0.003484
0.001291
0.001182
0.002365
0.001502
0.001543
-0.001138
-0.000425
0.004953
0.005074
0.001270
0.001407
0.001378
0.004818
0.004741
0.005367
0.005048
-0.001380
0.003472
0.005555
-0.000125
-0.000032
-0.000021
0.004523
0.004737
0.004496
-0.000278
-0.000369
0.004692
-0.000719
-0.000962
-0.001105
0.004879
0.004423
0.001413
0.001299
0.001793
0.002163
0.001092
0.005484
0.005926
0.005346
0.001184
0.001526
0.000582
0.001252
0.000241
0.000336
0.000405
0.005382
0.005030
-0.001909
-0.002161
0.000583
0.002401
0.002669
0.001233
0.002083
-0.002957
0.001413
-0.000717
-0.000708
-0.000352
0.004388
-0.000590
-0.000660
-0.000958
-0.000962
0.004460
0.001268
-0.002089
0.003846
0.006294
0.006100
0.003991
0.004148
0.004203
0.004492
0.002419
0.002341
0.002322
0.002132
0.002178
0.003882
0.005599
0.005534
0.001273
0.002275
0.001676
-0.000079
0.000110
0.002476
0.002810
0.001516
0.002413
0.000469
0.002646
0.002597
0.002971
0.002688
0.005652
0.003365
0.003115
0.005497
0.005308
0.005715
0.005077
0.003405
0.004691
0.001407
0.001794
0.003463
0.004388
0.003791
0.002145
0.001721
-0.000190
-0.000369
-0.000372
0.000352
0.000365
0.002663
0.002706
0.001538
0.003260
0.003452
0.003010
0.003671
0.004077
0.004789
0.004951
0.002956
0.002928
0.004326
0.004459
0.004616
0.005158
0.005367
0.004762
-0.000816
0.005618
0.006003
0.005859
0.006014
0.005240
0.005817
0.005750
0.001685
0.001809
0.000898
0.004432
0.004665
-0.000935
0.005674
0.003365
0.003627
0.002687
0.004862
-0.003013
-0.002802
0.000029
-0.002593
-0.002982
0.000400
-0.000362
0.001536
-0.000141
0.000418
-0.000126
-0.000652
-0.000108
0.003219
0.003463
0.000955
0.000768
0.005184
0.004784
0.004429
0.002350
0.004193
0.001981
0.003146
0.003270
-0.000427
0.004148
0.002517
0.004240
0.004148
0.005292
0.005404
0.006268
0.006292
0.005735
0.005814
0.006031
0.002450
0.002836
-0.001770
0.005009
0.004445
0.004682
0.004578
0.002171
0.003300
0.003251
-0.000226
-0.000143
0.000252
0.000153
0.000854
0.000803
0.002602
0.002566
0.002460
0.004266
-0.000258
-0.000015
-0.000493
0.004822
0.004615
0.003690
0.003538
0.003353
0.002741
0.000041
0.000802
-0.000322
0.005018
0.003184
0.003072
0.003020
0.004991
0.005141
0.005003
-0.001238
0.003286
0.001353
0.000779
0.000889
0.000558
0.000441
0.003271
0.000737
-0.002776
-0.000164
0.003781
0.002690
0.001419
0.001262
0.002640
0.000822
0.000500
0.000717
0.002542
0.004327
0.001612
0.000426
0.000138
0.002272
0.001084
0.002788
0.002154
-0.001821
-0.001116
0.004438
0.003734
-0.000899
0.003356
0.003590
0.004922
0.001310
0.004378
0.002554
0.002884
0.001391
0.000678
0.000556
0.002395
-0.001931
0.002464
0.000131
0.004247
0.004372
0.003444
0.002319
0.002389
0.004048
0.003842
-0.002002
-0.002013
0.000260
-0.000037
0.003620
0.003786
0.001826
0.000378
0.004814
0.000500
0.004727
0.004484
0.001698
0.001472
0.001611
0.004558
0.004531
0.004963
0.004316
0.001425
0.002217
0.004687
0.004738
0.004555
0.005092
0.005193
0.005351
0.001134
0.002303
0.002187
0.003910
-0.002507
0.006190
0.001834
0.003780
-0.000440
0.003120
0.005059
0.001393
0.001025
0.005330
0.001491
0.005475
0.005907
-0.000315
0.001561
-0.001700
-0.000751
0.001290
0.001101
0.000860
0.001123
0.000884
0.001597
0.002286
0.001740
0.004249
0.002680
0.002872
0.002935
0.002146
0.003792
0.000784
0.004713
0.004524
0.005999
0.001697
0.000791
0.003306
0.003537
0.003644
0.005519
0.003749
-0.000666
0.004617
0.003499
0.001554
0.003979
0.005479
0.004672
0.005742
0.005808
-0.000662
0.005486
0.000722
0.005048
0.005472
0.004774
0.001565
0.002990
0.003234
0.001114
0.001651
0.003048
0.001141
0.002028
0.001980
0.003200
0.001788
0.003605
0.003662
0.003760
0.001057
0.002413
0.005253
0.004582
0.003109
0.002245
0.003499
0.003064
0.002953
0.004310
0.000842
0.003465
0.002043
0.004509
0.002814
0.004589
0.000717
0.001777
0.001490
0.005317
0.006348
0.001864
0.004059
0.004023
0.005885
0.002550
0.003552
0.004171
-0.000909
0.000095
0.004946
0.003649
0.005601
0.004977
0.004815
0.000719
0.001679
0.002883
0.007420
0.007645
0.007665
0.006254
0.007405
0.006812
0.007624
0.007117
0.008223
0.009610
0.009249
0.009794
0.009146
0.009054
0.009587
0.009218
0.010262
0.008923
0.008980
0.008482
0.010914
0.011355
0.011383
0.008520
0.008224
0.008563
0.007137
0.007376
0.007550
0.006875
0.008276
0.007344
0.007655
0.008376
0.008475
0.008566
0.008486
0.008617
0.008410
0.008270
0.009894
0.009672
0.009836
0.009583
0.008597
0.008695
0.008401
0.008261
0.008407
0.008561
0.008863
0.010432
0.010318
0.010408
0.010317
0.007910
0.008017
0.007703
0.009473
0.009457
0.008775
0.009220
0.009028
0.009249
0.008949
0.012237
0.012225
0.007802
0.008225
0.008347
0.007393
0.007525
0.007601
0.009114
0.009198
0.009173
0.007730
0.008245
0.008339
0.008377
0.009275
0.010349
0.010421
0.010460
0.010251
0.011253
0.011243
0.011538
0.010994
0.009041
0.009197
0.009272
0.010195
0.010330
0.010265
0.010385
0.008376
0.008090
0.008118
0.006771
0.006717
0.008568
0.008578
0.008927
0.007868
0.007342
0.007475
0.007078
0.007238
0.010028
0.009972
0.010116
0.009928
0.009615
0.009475
0.009206
0.009695
0.007822
0.008324
0.008243
0.007870
0.006571
0.007293
0.005916
0.005886
0.006815
0.006807
0.005538
0.006985
0.005419
0.006500
0.008568
0.008866
0.008561
0.008373
0.007891
0.007636
0.005874
0.006600
0.006110
0.007662
0.006576
0.006484
0.007116
0.006998
0.007475
0.007081
0.005780
0.005937
0.006458
0.006599
0.007088
0.006678
0.006446
0.006963
0.006309
0.005771
0.007529
0.008253
0.006978
0.008231
0.008425
0.010051
0.009963
0.010186
0.008918
0.007486
0.007042
0.008068
0.006528
0.006345
0.008292
0.009301
0.009434
0.009177
0.009454
0.009333
0.009199
0.008848
0.008662
0.008386
0.009561
0.004981
0.004822
0.006043
0.007898
0.007094
0.007602
0.007875
0.007698
0.007682
0.007502
0.007934
0.009146
0.009461
0.009269
0.007098
0.006200
0.008395
0.008753
0.008801
0.009012
0.010531
0.010845
0.010654
0.009925
0.009662
0.009993
0.009285
0.009167
0.009308
0.009161
0.009357
0.009266
0.009345