# vtk DataFile Version 2.0
Test
ASCII
DATASET POLYDATA
POINTS 3011 float
0.000000 0.000000 0.000000
2.000000 0.000000 0.000000
2.000000 4.000000 0.000000
0.000000 4.000000 0.000000
0.000000 0.500000 0.000000
1.500000 2.000000 0.000000
2.000000 2.500000 0.000000
0.285714 0.000000 0.000000
0.571429 0.000000 0.000000
0.857143 0.000000 0.000000
1.142857 0.000000 0.000000
1.428571 0.000000 0.000000
1.714286 0.000000 0.000000
2.000000 0.276366 0.000000
2.000000 0.523709 0.000000
2.000000 0.745076 0.000000
2.000000 0.943195 0.000000
2.000000 1.120508 0.000000
2.000000 1.279199 0.000000
2.000000 1.421225 0.000000
2.000000 1.548336 0.000000
2.000000 1.662097 0.000000
2.000000 1.763911 0.000000
2.000000 1.855033 0.000000
2.000000 1.936585 0.000000
2.000000 2.009573 0.000000
2.000000 2.074896 0.000000
2.000000 2.133358 0.000000
2.000000 2.185681 0.000000
2.000000 2.232509 0.000000
2.000000 2.274419 0.000000
2.000000 2.311927 0.000000
2.000000 2.345497 0.000000
2.000000 2.375541 0.000000
2.000000 2.402430 0.000000
2.000000 2.426495 0.000000
2.000000 2.448033 0.000000
2.000000 2.467309 0.000000
2.000000 2.484560 0.000000
2.000000 2.516256 0.000000
2.000000 2.535859 0.000000
2.000000 2.559499 0.000000
2.000000 2.588006 0.000000
2.000000 2.622383 0.000000
2.000000 2.663839 0.000000
2.000000 2.713831 0.000000
2.000000 2.774116 0.000000
2.000000 2.846815 0.000000
2.000000 2.934483 0.000000
2.000000 3.040202 0.000000
2.000000 3.167691 0.000000
2.000000 3.321430 0.000000
2.000000 3.506825 0.000000
2.000000 3.730395 0.000000
1.714286 4.000000 0.000000
1.428571 4.000000 0.000000
1.142857 4.000000 0.000000
0.857143 4.000000 0.000000
0.571429 4.000000 0.000000
0.285714 4.000000 0.000000
0.000000 3.713462 0.000000
0.000000 3.449209 0.000000
0.000000 3.205508 0.000000
0.000000 2.980761 0.000000
0.000000 2.773493 0.000000
0.000000 2.582346 0.000000
0.000000 2.406065 0.000000
0.000000 2.243495 0.000000
0.000000 2.093568 0.000000
0.000000 1.955302 0.000000
0.000000 1.827789 0.000000
0.000000 1.710194 0.000000
0.000000 1.601745 0.000000
0.000000 1.501730 0.000000
0.000000 1.409494 0.000000
0.000000 1.324431 0.000000
0.000000 1.245984 0.000000
0.000000 1.173639 0.000000
0.000000 1.106920 0.000000
0.000000 1.045390 0.000000
0.000000 0.988645 0.000000
0.000000 0.936314 0.000000
0.000000 0.888053 0.000000
0.000000 0.843545 0.000000
0.000000 0.802499 0.000000
0.000000 0.764646 0.000000
0.000000 0.729736 0.000000
0.000000 0.697541 0.000000
0.000000 0.667851 0.000000
0.000000 0.640469 0.000000
0.000000 0.615217 0.000000
0.000000 0.591929 0.000000
0.000000 0.570453 0.000000
0.000000 0.550646 0.000000
0.000000 0.532380 0.000000
0.000000 0.515535 0.000000
0.000000 0.483768 0.000000
0.000000 0.461535 0.000000
0.000000 0.431083 0.000000
0.000000 0.389372 0.000000
0.000000 0.332241 0.000000
0.000000 0.253989 0.000000
0.000000 0.146807 0.000000
0.010563 0.510563 0.000000
0.021127 0.521127 0.000000
0.031690 0.531690 0.000000
0.042254 0.542254 0.000000
0.052817 0.552817 0.000000
0.063380 0.563380 0.000000
0.073944 0.573944 0.000000
0.084507 0.584507 0.000000
0.095070 0.595070 0.000000
0.105634 0.605634 0.000000
0.116197 0.616197 0.000000
0.126761 0.626761 0.000000
0.137324 0.637324 0.000000
0.147887 0.647887 0.000000
0.158451 0.658451 0.000000
0.169014 0.669014 0.000000
0.179577 0.679577 0.000000
0.190141 0.690141 0.000000
0.200704 0.700704 0.000000
0.211268 0.711268 0.000000
0.221831 0.721831 0.000000
0.232394 0.732394 0.000000
0.242958 0.742958 0.000000
0.253521 0.753521 0.000000
0.264085 0.764085 0.000000
0.274648 0.774648 0.000000
0.285211 0.785211 0.000000
0.295775 0.795775 0.000000
0.306338 0.806338 0.000000
0.316901 0.816901 0.000000
0.327465 0.827465 0.000000
0.338028 0.838028 0.000000
0.348592 0.848592 0.000000
0.359155 0.859155 0.000000
0.369718 0.869718 0.000000
0.380282 0.880282 0.000000
0.390845 0.890845 0.000000
0.401408 0.901408 0.000000
0.411972 0.911972 0.000000
0.422535 0.922535 0.000000
0.433099 0.933099 0.000000
0.443662 0.943662 0.000000
0.454225 0.954225 0.000000
0.464789 0.964789 0.000000
0.475352 0.975352 0.000000
0.485915 0.985915 0.000000
0.496479 0.996479 0.000000
0.507042 1.007042 0.000000
0.517606 1.017606 0.000000
0.528169 1.028169 0.000000
0.538732 1.038732 0.000000
0.549296 1.049296 0.000000
0.559859 1.059859 0.000000
0.570423 1.070423 0.000000
0.580986 1.080986 0.000000
0.591549 1.091549 0.000000
0.602113 1.102113 0.000000
0.612676 1.112676 0.000000
0.623239 1.123239 0.000000
0.633803 1.133803 0.000000
0.644366 1.144366 0.000000
0.654930 1.154930 0.000000
0.665493 1.165493 0.000000
0.676056 1.176056 0.000000
0.686620 1.186620 0.000000
0.697183 1.197183 0.000000
0.707746 1.207746 0.000000
0.718310 1.218310 0.000000
0.728873 1.228873 0.000000
0.739437 1.239437 0.000000
0.750000 1.250000 0.000000
0.760563 1.260563 0.000000
0.771127 1.271127 0.000000
0.781690 1.281690 0.000000
0.792254 1.292254 0.000000
0.802817 1.302817 0.000000
0.813380 1.313380 0.000000
0.823944 1.323944 0.000000
0.834507 1.334507 0.000000
0.845070 1.345070 0.000000
0.855634 1.355634 0.000000
0.866197 1.366197 0.000000
0.876761 1.376761 0.000000
0.887324 1.387324 0.000000
0.897887 1.397887 0.000000
0.908451 1.408451 0.000000
0.919014 1.419014 0.000000
0.929577 1.429577 0.000000
0.940141 1.440141 0.000000
0.950704 1.450704 0.000000
0.961268 1.461268 0.000000
0.971831 1.471831 0.000000
0.982394 1.482394 0.000000
0.992958 1.492958 0.000000
1.003521 1.503521 0.000000
1.014085 1.514085 0.000000
1.024648 1.524648 0.000000
1.035211 1.535211 0.000000
1.045775 1.545775 0.000000
1.056338 1.556338 0.000000
1.066901 1.566901 0.000000
1.077465 1.577465 0.000000
1.088028 1.588028 0.000000
1.098592 1.598592 0.000000
1.109155 1.609155 0.000000
1.119718 1.619718 0.000000
1.130282 1.630282 0.000000
1.140845 1.640845 0.000000
1.151408 1.651408 0.000000
1.161972 1.661972 0.000000
1.172535 1.672535 0.000000
1.183099 1.683099 0.000000
1.193662 1.693662 0.000000
1.204225 1.704225 0.000000
1.214789 1.714789 0.000000
1.225352 1.725352 0.000000
1.235915 1.735915 0.000000
1.246479 1.746479 0.000000
1.257042 1.757042 0.000000
1.267606 1.767606 0.000000
1.278169 1.778169 0.000000
1.288732 1.788732 0.000000
1.299296 1.799296 0.000000
1.309859 1.809859 0.000000
1.320423 1.820423 0.000000
1.330986 1.830986 0.000000
1.341549 1.841549 0.000000
1.352113 1.852113 0.000000
1.362676 1.862676 0.000000
1.373239 1.873239 0.000000
1.383803 1.883803 0.000000
1.394366 1.894366 0.000000
1.404930 1.904930 0.000000
1.415493 1.915493 0.000000
1.426056 1.926056 0.000000
1.436620 1.936620 0.000000
1.447183 1.947183 0.000000
1.457746 1.957746 0.000000
1.468310 1.968310 0.000000
1.478873 1.978873 0.000000
1.489437 1.989437 0.000000
1.510417 2.010417 0.000000
1.520833 2.020833 0.000000
1.531250 2.031250 0.000000
1.541667 2.041667 0.000000
1.552083 2.052083 0.000000
1.562500 2.062500 0.000000
1.572917 2.072917 0.000000
1.583333 2.083333 0.000000
1.593750 2.093750 0.000000
1.604167 2.104167 0.000000
1.614583 2.114583 0.000000
1.625000 2.125000 0.000000
1.635417 2.135417 0.000000
1.645833 2.145833 0.000000
1.656250 2.156250 0.000000
1.666667 2.166667 0.000000
1.677083 2.177083 0.000000
1.687500 2.187500 0.000000
1.697917 2.197917 0.000000
1.708333 2.208333 0.000000
1.718750 2.218750 0.000000
1.729167 2.229167 0.000000
1.739583 2.239583 0.000000
1.750000 2.250000 0.000000
1.760417 2.260417 0.000000
1.770833 2.270833 0.000000
1.781250 2.281250 0.000000
1.791667 2.291667 0.000000
1.802083 2.302083 0.000000
1.812500 2.312500 0.000000
1.822917 2.322917 0.000000
1.833333 2.333333 0.000000
1.843750 2.343750 0.000000
1.854167 2.354167 0.000000
1.864583 2.364583 0.000000
1.875000 2.375000 0.000000
1.885417 2.385417 0.000000
1.895833 2.395833 0.000000
1.906250 2.406250 0.000000
1.916667 2.416667 0.000000
1.927083 2.427083 0.000000
1.937500 2.437500 0.000000
1.947917 2.447917 0.000000
1.958333 2.458333 0.000000
1.968750 2.468750 0.000000
1.979167 2.479167 0.000000
1.989583 2.489583 0.000000
0.206561 0.791563 0.000000
0.205359 0.816165 0.000000
0.186354 0.798211 0.000000
0.221961 0.800924 0.000000
0.280649 1.360489 0.000000
0.304015 1.400469 0.000000
0.229142 1.396096 0.000000
0.275922 1.451476 0.000000
1.869084 2.391788 0.000000
1.857928 2.378421 0.000000
1.238669 2.061899 0.000000
1.278787 2.082276 0.000000
1.238298 2.096047 0.000000
1.277579 2.032995 0.000000
0.402536 1.205823 0.000000
0.415290 1.176040 0.000000
0.428330 1.201952 0.000000
0.387294 1.172617 0.000000
0.146930 1.050586 0.000000
0.109488 1.087198 0.000000
0.102742 1.042403 0.000000
0.157178 1.091184 0.000000
0.588967 1.178581 0.000000
0.593116 1.153718 0.000000
0.608054 1.166752 0.000000
0.612180 1.145944 0.000000
0.860304 1.543784 0.000000
0.868821 1.521840 0.000000
0.878420 1.536650 0.000000
0.845380 1.517623 0.000000
1.129525 1.764330 0.000000
1.142005 1.751560 0.000000
1.145757 1.773681 0.000000
1.159368 1.759106 0.000000
1.968150 2.518865 0.000000
1.986105 2.509269 0.000000
1.986696 2.531115 0.000000
0.668964 1.191005 0.000000
0.683291 1.201259 0.000000
0.557625 1.074830 0.000000
0.569760 1.084377 0.000000
0.557769 1.089278 0.000000
0.707567 1.266174 0.000000
0.719026 1.281845 0.000000
0.700768 1.282275 0.000000
0.722329 1.266956 0.000000
0.468225 2.149688 0.000000
0.419106 2.064198 0.000000
0.523878 2.082648 0.000000
0.838546 1.421191 0.000000
0.823708 1.410355 0.000000
0.840477 1.404206 0.000000
0.818500 1.425973 0.000000
0.953187 1.488222 0.000000
0.959780 1.473222 0.000000
0.967054 1.485637 0.000000
1.047418 1.769126 0.000000
1.080240 1.782403 0.000000
1.047768 1.802712 0.000000
0.971392 1.693320 0.000000
0.949208 1.720793 0.000000
0.940644 1.684781 0.000000
0.381391 2.160909 0.000000
0.944091 1.477800 0.000000
0.530075 1.477351 0.000000
0.521303 1.516669 0.000000
0.474240 1.491166 0.000000
0.489489 1.546185 0.000000
1.537370 2.239326 0.000000
1.555275 2.267640 0.000000
1.532966 2.278201 0.000000
0.962010 1.661716 0.000000
0.986804 1.643200 0.000000
0.986259 1.672729 0.000000
1.049149 1.737940 0.000000
1.075111 1.737123 0.000000
[...]
POINT_DATA 3011
SCALARS UX float 1
LOOKUP_TABLE default
-0.065779
0.077823
0.000000
-0.000000
-0.069019
0.041254
0.074539
-0.045395
-0.024962
-0.004495
0.016017
0.036579
0.057180
0.077853
0.077930
0.078064
0.078230
0.078421
0.078626
0.078826
0.078978
0.079028
0.078961
0.078736
0.078417
0.078010
0.077594
0.077173
0.076774
0.076411
0.076091
0.075811
0.075567
0.075355
0.075171
0.075011
0.074869
0.074745
0.074635
0.074438
0.074315
0.074167
0.073982
0.073768
0.073484
0.073115
0.072635
0.071926
0.070918
0.069412
0.066933
0.062694
0.054903
0.040648
-0.000000
0.000000
0.000000
-0.000000
-0.000000
0.000000
-0.039943
-0.057119
-0.064816
-0.068814
-0.070703
-0.071482
-0.071695
-0.071713
-0.071646
-0.071561
-0.071494
-0.071464
-0.071458
-0.071474
-0.071505
-0.071545
-0.071591
-0.071641
-0.071694
-0.071748
-0.071805
-0.071859
-0.071910
-0.071958
-0.072000
-0.072035
-0.072065
-0.072089
-0.072110
-0.072139
-0.072179
-0.072200
-0.072160
-0.072059
-0.072229
-0.071766
-0.066034
-0.065792
-0.065671
-0.065699
-0.065720
-0.065744
-0.065764
-0.068034
-0.067365
-0.066496
-0.065907
-0.065392
-0.064397
-0.063679
-0.062865
-0.062128
-0.061270
-0.060506
-0.060165
-0.059198
-0.058191
-0.057184
-0.056555
-0.056069
-0.055366
-0.054333
-0.053739
-0.052540
-0.052175
-0.051248
-0.050584
-0.049811
-0.048914
-0.048469
-0.047454
-0.047207
-0.046157
-0.045629
-0.044462
-0.043722
-0.043001
-0.042258
-0.041460
-0.040623
-0.040079
-0.039277
-0.038369
-0.037719
-0.036715
-0.035719
-0.035683
-0.034880
-0.033656
-0.033142
-0.032197
-0.031649
-0.030838
-0.029802
-0.028968
-0.028072
-0.027478
-0.026786
-0.026184
-0.025414
-0.024654
-0.023581
-0.023109
-0.022580
-0.021524
-0.020644
-0.019799
-0.019110
-0.018349
-0.018024
-0.017033
-0.015847
-0.015181
-0.014161
-0.013807
-0.012743
-0.012294
-0.011753
-0.011047
-0.010028
-0.009458
-0.008692
-0.007895
-0.007285
-0.006344
-0.005694
-0.004963
-0.003756
-0.003048
-0.002592
-0.001531
-0.000443
-0.000203
0.000516
0.001139
0.002047
0.002781
0.003565
0.004500
0.005190
0.005999
0.006588
0.007511
0.008117
0.009077
0.010230
0.010368
0.011589
0.012437
0.013409
0.013805
0.014491
0.015546
0.016270
0.017097
0.017571
0.018528
0.019388
0.019998
0.021092
0.021879
0.022218
0.023254
0.024317
0.024496
0.025870
0.026418
0.027087
0.028084
0.028829
0.029690
0.030503
0.031040
0.031938
0.032472
0.033553
0.034174
0.035158
0.035908
0.036859
0.037584
0.038477
0.039269
0.040000
0.042123
0.042335
0.043020
0.043675
0.044385
0.045098
0.045805
0.046520
0.047249
0.047971
0.048695
0.049417
0.050142
0.050864
0.051585
0.052305
0.053025
0.053741
0.054457
0.055172
0.055885
0.056596
0.057307
0.058013
0.058720
0.059425
0.060129
0.060830
0.061530
0.062228
0.062923
0.063618
0.064310
0.065003
0.065693
0.066381
0.067069
0.067755
0.068440
0.069124
0.069806
0.070486
0.071165
0.071843
0.072519
0.073193
0.073867
-0.057261
-0.057340
-0.058694
-0.056178
-0.051425
-0.049726
-0.055091
-0.051712
0.065856
0.065130
0.019669
0.022798
0.019732
0.022520
-0.042829
-0.041945
-0.040989
-0.043949
-0.061226
-0.063871
-0.064397
-0.060455
-0.029533
-0.029221
-0.028200
-0.027826
-0.009677
-0.009096
-0.008390
-0.010778
0.010231
0.011055
0.011449
0.012348
0.072179
0.073501
0.073412
-0.023940
-0.022515
-0.031749
-0.030396
-0.031828
-0.020916
-0.020101
-0.021396
-0.019867
-0.038123
-0.041595
-0.033956
-0.011386
-0.012469
-0.011300
-0.012814
-0.003065
-0.002203
-0.001929
0.004330
0.006759
0.004478
-0.001382
-0.002918
-0.003623
-0.044471
-0.003672
-0.033467
-0.034069
-0.037466
-0.036339
0.042029
0.043293
0.041613
-0.002133
-0.000389
-0.000360
0.004343
0.006206
0.005863
0.044350
0.005593
0.011137
0.011941
0.012361
0.010663
0.029902
0.032640
0.032162
0.036786
0.034350
0.034249
-0.029313
-0.029760
-0.027189
-0.038755
-0.034226
-0.037044
-0.027612
-0.033243
-0.050103
-0.047872
-0.050314
-0.048355
0.003716
-0.000038
0.003755
-0.002563
-0.042746
-0.041812
-0.037748
0.041056
0.042352
0.040218
-0.047409
-0.056686
-0.060696
-0.059348
-0.025081
-0.023077
-0.022605
-0.020880
-0.063691
-0.059324
-0.056112
-0.064069
0.061991
0.063261
0.064004
-0.002105
0.000142
0.002195
-0.041131
-0.039130
0.005270
-0.017088
-0.016807
-0.019596
-0.014882
0.039487
0.039206
0.037686
-0.011565
-0.011046
-0.013218
0.040944
-0.060317
-0.059738
-0.059353
-0.032822
-0.032224
-0.030750
-0.067930
-0.067756
-0.030951
-0.011958
-0.011686
-0.008568
-0.067886
-0.007953
0.004331
0.007151
-0.059284
-0.058067
-0.056565
-0.030797
-0.030916
-0.029747
-0.031815
-0.031640
0.045908
0.046938
0.045962
0.015732
0.013866
0.013407
0.010428
0.012149
0.009790
0.003204
0.003284
0.002233
0.008886
-0.041668
-0.042539
-0.043011
-0.011295
-0.012694
-0.012286
-0.005493
-0.011268
-0.064368
-0.062585
-0.065369
-0.030378
-0.031805
0.061848
0.001751
0.059458
0.058966
0.057969
-0.013151
-0.011663
-0.020524
-0.021424
0.052872
0.053846
0.050446
-0.022237
-0.024065
-0.022829
0.023657
0.022893
0.026119
0.019938
0.060298
0.061120
0.042807
0.017868
0.015205
0.015948
0.003301
0.004384
0.004692
0.036394
0.041210
0.029140
0.033213
0.037932
0.039612
0.038079
-0.028895
-0.030896
-0.031412
-0.033052
-0.032748
0.004508
0.057017
0.055022
0.056958
0.042944
0.039761
0.042290
0.040579
0.042025
0.044392
0.043802
0.054281
0.054057
-0.005584
-0.004280
-0.003999
-0.005774
-0.010467
-0.009419
-0.009840
-0.008737
0.026446
0.024825
0.026890
0.025107
0.025975
0.024563
0.039383
0.040911
0.039858
0.056520
0.055668
-0.016917
-0.016731
-0.018480
-0.016056
-0.016276
-0.014316
-0.014198
-0.018124
-0.018480
-0.017164
-0.006544
-0.007735
-0.006953
-0.007605
0.017334
0.017600
0.018731
0.016126
-0.005289
-0.015603
-0.015349
-0.015838
-0.015103
-0.013712
-0.016417
0.050203
0.048942
0.048690
0.047473
0.011848
0.012972
-0.007040
-0.006910
-0.005120
0.009540
0.009696
0.008341
0.008751
0.007483
0.008323
0.008313
0.000042
-0.000676
0.000765
-0.001544
0.034294
0.034959
-0.018641
-0.017329
-0.018674
0.005974
0.006124
0.005007
0.030841
0.027765
0.026382
0.007192
0.003540
0.004552
0.002965
0.039190
0.039348
0.033613
0.035113
0.033553
0.035189
0.022722
0.023276
0.021535
0.022452
-0.065948
-0.067158
-0.069104
-0.062428
-0.041641
-0.040469
-0.040578
-0.024837
-0.020849
-0.037885
0.040707
-0.042791
-0.043297
-0.045199
-0.045499
0.009504
0.012730
0.013473
0.016496
-0.023586
-0.019501
-0.018816
-0.015904
0.052712
0.053705
0.053886
0.054683
0.040979
0.038335
-0.061680
-0.066122
-0.067045
-0.064379
-0.065927
-0.064782
-0.065542
-0.061457
-0.059759
0.003873
0.001957
0.002663
0.028117
0.025401
-0.036798
-0.036258
-0.038468
-0.037629
-0.039845
-0.008781
-0.008053
-0.010730
-0.010167
-0.044069
-0.045285
-0.045729
-0.044288
-0.017830
-0.014171
-0.058653
-0.057741
-0.056278
-0.057122
-0.059310
-0.065318
-0.066756
-0.065670
-0.064834
-0.064291
-0.056189
-0.054819
-0.054411
-0.055665
-0.053886
-0.013659
-0.011795
-0.012441
0.012520
-0.012020
-0.021819
-0.011060
-0.026293
-0.038291
0.067896
0.066679
0.069336
0.064946
0.062722
0.064584
-0.050349
-0.051084
-0.052327
-0.057030
-0.051819
-0.052408
-0.059023
0.059235
0.064207
0.063530
0.059397
0.002499
0.002309
-0.040813
-0.039234
-0.040626
-0.038699
-0.058776
-0.059746
-0.069982
-0.068858
-0.068296
-0.069597
0.065959
0.065706
0.063779
0.065031
-0.045883
-0.044175
0.022376
0.024969
0.021446
0.017280
0.026018
0.020290
0.012066
0.012993
0.001839
-0.020366
-0.020620
-0.018293
-0.069155
-0.069079
-0.070548
-0.067856
0.070856
0.039065
-0.053154
-0.053575
-0.055628
-0.071220
-0.070958
-0.055040
0.059590
0.058874
0.060470
-0.059229
-0.058188
-0.059734
-0.065229
-0.058175
-0.057220
0.069694
0.071239
0.070226
0.070658
0.071469
0.016842
0.019578
-0.055135
-0.054889
-0.053083
0.071859
0.029649
0.031416
0.033402
-0.040479
-0.037596
-0.036223
-0.039382
-0.034989
-0.033770
-0.025253
-0.023540
-0.065181
-0.065446
-0.069315
-0.067427
-0.066734
-0.065443
-0.038880
0.042479
-0.040091
-0.067784
-0.069217
-0.067997
-0.067020
0.071008
0.068547
-0.062049
-0.063676
-0.063068
0.072266
-0.068769
0.061035
0.063121
0.060984
-0.053083
-0.054477
-0.052564
-0.014343
-0.008313
-0.008062
-0.002599
-0.001707
-0.060352
-0.059134
-0.061206
-0.062244
0.028047
0.024571
-0.051503
-0.050876
-0.052755
-0.051401
-0.036186
-0.036235
-0.038899
-0.036547
-0.039429
-0.043993
-0.040166
-0.040524
-0.044658
-0.068911
-0.070090
0.059971
0.061488
-0.045198
-0.043986
-0.047123
-0.047853
-0.050520
0.041006
0.041450
0.040224
-0.030201
-0.031631
-0.043699
-0.045821
-0.029718
-0.027564
0.012612
0.007688
0.007943
0.011208
-0.067074
-0.049875
-0.049434
-0.050221
-0.048389
0.010879
0.061656
0.061025
0.059890
0.059404
-0.010078
-0.009927
-0.005365
-0.005466
-0.001675
-0.000966
0.057320
0.058663
0.071901
0.069324
-0.001911
0.001465
0.063522
0.065926
-0.065913
-0.042012
-0.046300
-0.052151
-0.052421
-0.050980
-0.053036
-0.053369
0.024185
-0.065586
-0.070683
0.025934
0.008828
0.006131
0.069740
0.069606
0.070159
-0.069667
-0.059783
-0.061649
-0.066702
0.008339
0.006415
0.004884
0.007102
0.058468
-0.058466
-0.057527
-0.055468
-0.054328
0.022328
0.020937
0.018554
0.020402
0.062755
-0.069424
-0.070342
-0.068400
-0.053955
-0.065217
-0.047217
-0.053582
-0.043859
-0.047855
-0.059342
-0.066504
-0.067074
0.012091
0.012775
0.005503
0.019273
-0.013144
-0.019477
0.001661
-0.065830
-0.020865
-0.063500
0.001930
-0.011455
-0.008986
-0.062027
-0.063528
-0.062267
-0.066786
-0.064236
-0.020454
-0.007307
-0.011137
-0.015978
-0.061317
-0.000464
-0.001247
-0.001932
-0.022016
-0.023157
-0.019021
-0.053012
-0.053255
-0.056046
-0.046671
-0.045933
-0.047249
-0.048040
-0.021627
-0.018674
-0.018534
-0.015357
-0.015368
0.015714
0.012081
0.001511
-0.004164
-0.005849
-0.004281
-0.002923
0.017631
0.011966
0.007145
0.006820
0.002327
-0.058740
-0.049717
-0.046260
-0.039573
-0.062563
-0.062142
-0.063362
-0.041911
0.072745
-0.049929
-0.051084
-0.053599
-0.052161
-0.033254
-0.038326
-0.029470
-0.027017
-0.024414
-0.067916
-0.049113
-0.048477
-0.064690
0.051107
0.051146
-0.005210
-0.054162
0.052172
0.067634
-0.050303
-0.057035
-0.051057
0.014803
-0.058854
-0.061864
-0.064924
-0.069496
-0.066978
0.062031
-0.060092
0.005514
0.000671
0.008867
-0.063782
-0.066346
0.066518
-0.049436
-0.049265
-0.050489
-0.063113
0.055567
0.052153
0.055444
0.063726
0.063605
0.064653
-0.061520
-0.059085
-0.058681
-0.060000
-0.063651
0.045971
0.035314
0.035193
0.025884
-0.047241
-0.047453
-0.022499
-0.021531
-0.040761
-0.034471
0.042233
-0.016110
-0.068481
-0.034157
-0.035519
-0.034421
0.002716
-0.029654
-0.027731
-0.028033
-0.060709
-0.052372
-0.046931
-0.046648
-0.041346
-0.058527
-0.024777
-0.027373
-0.026945
0.053449
0.061863
0.057267
0.005413
-0.042543
-0.042641
-0.040290
-0.064138
-0.059740
-0.060621
-0.063204
-0.032957
0.017328
-0.048147
-0.055678
-0.032617
-0.029984
-0.064259
-0.057633
-0.026349
-0.026173
-0.037950
0.010522
0.068567
0.067518
-0.061447
-0.044361
-0.017216
-0.066270
-0.054714
-0.050911
-0.056001
0.022570
-0.068362
0.020001
0.020389
0.018974
-0.025936
-0.016390
-0.063775
-0.028666
-0.040848
-0.043899
-0.045743
0.062110
-0.008754
-0.010212
-0.007855
-0.050811
-0.051501
-0.030117
-0.042367
-0.041910
-0.040639
-0.063286
-0.064514
-0.043502
-0.057199
0.054313
0.055161
-0.037722
-0.038201
-0.039342
0.052768
-0.013635
-0.012825
0.057785
0.058537
0.019402
-0.002619
-0.007591
-0.057942
-0.059799
0.003960
0.006013
0.015769
0.017126
-0.034940
-0.040709
-0.050333
-0.048727
-0.049380
0.045610
0.045196
0.005114
0.009555
-0.043371
-0.061783
-0.057571
-0.033279
-0.033898
-0.031837
-0.055255
-0.064944
-0.053259
-0.019492
-0.022597
-0.050271
-0.051608
-0.051351
0.061216
-0.026147
-0.025026
-0.028705
-0.061579
-0.060611
-0.047184
-0.045369
-0.034644
-0.028967
0.001637
-0.007982
0.023114
0.064590
-0.064425
-0.031602
-0.029140
-0.038554
-0.045286
-0.047834
-0.029446
-0.031284
-0.031760
0.050741
-0.015828
-0.024635
-0.026811
-0.005137
-0.015504
-0.036719
-0.036928
-0.035694
0.014869
0.015744
0.018972
0.001900
-0.025211
-0.047014
-0.047707
-0.048890
-0.049222
0.022213
0.023411
0.022552
-0.030864
-0.027542
-0.065375
-0.030575
-0.031755
-0.029976
-0.032620
0.012110
0.068880
0.068331
0.008617
0.021147
0.006092
0.014658
-0.056046
-0.055623
-0.054964
-0.047616
-0.046542
-0.046577
-0.032093
0.047630
0.044933
-0.012702
0.000861
-0.000875
-0.048691
-0.002352
-0.048368
-0.047218
-0.057284
-0.057138
-0.056193
-0.036613
-0.002856
-0.000914
-0.003219
0.000049
0.067879
-0.054111
-0.055154
0.048763
-0.053043
-0.053608
0.059416
0.056928
0.055847
0.052703
0.053720
0.048896
0.053031
-0.061079
-0.060120
-0.061227
-0.042957
-0.047018
-0.048640
-0.006859
-0.010978
-0.036604
-0.056574
-0.044242
-0.036697
-0.027339
-0.058108
-0.058001
0.011438
-0.035131
-0.034756
-0.048920
-0.061487
0.067452
-0.016596
-0.057804
-0.063084
-0.053348
-0.014436
-0.018788
0.002447
-0.013072
-0.016200
-0.018124
-0.022072
-0.027778
-0.003674
-0.008670
-0.000326
-0.008005
0.003092
-0.041664
-0.052284
0.048728
0.049650
-0.047267
-0.037035
-0.022733
-0.024985
-0.027205
0.050670
0.043680
-0.005925
-0.007923
-0.007965
-0.006382
0.014924
0.016012
-0.045314
-0.045841
-0.044777
-0.056462
-0.006034
0.003420
-0.040303
0.038622
0.041508
-0.042973
-0.029459
-0.024311
-0.027438
0.068497
0.052161
0.055913
0.055987
-0.047373
-0.049476
0.067424
-0.034921
-0.021327
-0.036346
0.037274
-0.041870
-0.042424
-0.040871
-0.043298
-0.047328
-0.028372
-0.044093
0.033923
0.031071
0.029748
0.036851
0.038089
0.037148
0.035234
0.036745
0.017565
0.048937
0.047552
-0.044420
0.023738
0.018784
-0.035596
-0.035391
-0.034544
0.051754
0.048153
-0.022277
-0.035000
-0.026472
-0.041776
-0.038118
-0.019076
-0.018673
-0.020646
0.067714
0.067165
-0.028736
-0.019610
-0.034202
0.026929
0.046760
0.048811
0.050306
0.036891
0.037026
0.046191
-0.047162
-0.054875
-0.053789
-0.006499
-0.010036
-0.019439
-0.071031
-0.017542
0.032912
0.024570
0.026978
0.029297
-0.032950
-0.033636
-0.032629
-0.034228
0.034600
-0.039186
-0.039701
-0.038286
-0.021121
0.032759
0.033401
-0.071147
0.051492
0.051458
-0.045153
-0.003751
-0.070662
0.050071
-0.004610
0.030382
-0.034621
0.051500
-0.051821
0.034844
-0.033348
-0.030061
-0.016125
-0.020352
-0.050284
0.056498
0.057793
0.049471
0.063895
0.014385
0.015477
0.015401
-0.017353
-0.037644
-0.016164
-0.012749
0.014363
0.016419
-0.038014
0.016647
-0.025787
-0.027324
-0.026092
-0.024353
-0.025531
-0.024487
-0.023742
-0.022852
-0.022287
-0.054354
0.010296
-0.016672
0.067243
0.016298
0.017724
-0.033189
0.014583
-0.001259
-0.001057
-0.047150
-0.046721
-0.047629
0.003780
0.005095
0.002358
0.043661
0.044360
0.039095
0.040640
0.043380
0.044986
0.044573
0.044455
-0.047546
-0.068447
0.006398
0.006554
0.005228
0.010255
-0.030480
0.019232
0.020861
0.020947
-0.002075
0.000009
-0.022829
-0.021847
0.022356
0.021320
0.023000
-0.002304
-0.003282
0.008954
0.000814
0.001405
-0.044340
-0.043432
0.053224
0.054867
-0.002175
-0.000589
-0.000737
0.054021
0.052334
0.046154
0.044354
-0.045290
0.027681
0.046137
-0.022153
-0.020986
-0.020629
0.031930
0.033525
0.031645
-0.025508
-0.041065
0.033511
-0.037866
-0.037970
-0.039194
0.035467
0.031360
-0.003207
-0.004214
-0.017785
-0.016610
-0.017670
0.036715
0.036734
0.035326
-0.005183
-0.004136
-0.019020
-0.005558
-0.016891
-0.015347
-0.014591
0.042601
0.041193
-0.055033
-0.055952
-0.013013
-0.012050
-0.011120
-0.012406
-0.011194
-0.066628
-0.004952
-0.033138
-0.033934
-0.032719
0.039579
-0.029018
-0.035011
-0.035579
-0.036313
0.023788
-0.013196
-0.052157
0.023205
0.043281
0.042121
0.027800
0.028733
0.029375
0.030415
0.009785
0.010219
0.010930
0.009094
0.009654
0.026889
0.051265
0.049984
-0.015596
-0.014850
-0.014762
-0.021843
-0.020273
-0.008317
-0.007258
-0.008427
0.011899
-0.027256
0.012639
0.013222
0.013925
0.011888
0.052364
0.006985
0.007476
0.048639
0.048518
0.050056
0.046986
0.021072
0.037145
-0.020645
-0.019669
0.021621
0.024359
0.023948
0.002206
0.001534
-0.025829
-0.026618
-0.027261
-0.025427
-0.024687
-0.006047
-0.005209
-0.006451
0.019615
0.020013
0.018214
0.019835
0.020944
0.045578
0.045119
0.038765
0.035577
0.030338
0.030889
0.032063
0.031795
0.033045
0.032094
-0.033098
0.042626
0.043881
0.044356
0.048097
0.046761
0.052942
0.053415
-0.007362
-0.026444
-0.026356
0.054427
0.055998
-0.042189
0.055137
0.044742
0.048053
0.034082
0.057023
-0.070278
-0.070563
-0.070265
-0.070658
-0.067431
0.010265
-0.014276
0.000733
-0.026414
-0.026037
-0.027039
-0.068315
-0.022120
0.033488
0.036142
0.023203
0.017779
0.029106
0.029196
0.027881
-0.026527
0.028292
0.000299
0.000935
0.001735
-0.026650
0.050971
0.001825
0.029547
0.028689
0.057436
0.058719
0.043968
0.044821
0.046021
0.047302
0.047312
0.007971
0.009011
-0.055440
0.026029
0.045196
0.046272
0.047196
-0.004548
-0.003720
-0.003241
-0.023525
-0.022848
-0.016575
-0.017926
-0.008433
-0.009792
0.013249
0.011662
0.011147
0.035244
-0.025692
-0.024686
-0.027657
0.055573
0.054225
0.029585
0.023209
0.021150
0.014518
-0.019598
-0.022149
-0.024930
0.057736
0.019415
0.017553
0.017498
0.056580
0.056896
0.055601
-0.044994
0.031565
-0.042107
-0.013095
-0.013523
-0.014391
-0.045779
0.015145
-0.033111
-0.063169
-0.024726
0.010094
0.009699
-0.005514
-0.002557
0.014338
-0.014213
-0.013628
-0.012510
0.013551
0.031224
-0.025046
-0.018797
-0.019726
-0.012932
-0.014228
0.015747
-0.013659
-0.060762
-0.060943
0.037947
0.013109
-0.036873
0.003089
0.002806
0.026553
0.007289
0.052523
0.046231
0.047679
-0.039642
0.012817
-0.023737
0.021807
-0.057003
-0.021368
-0.023791
0.018807
0.019938
0.018550
0.006369
0.007309
0.028208
0.026144
-0.050572
-0.050490
0.001563
-0.003651
0.024241
0.006740
0.002622
-0.015408
0.048074
-0.014054
0.048941
0.048523
0.001802
-0.028673
-0.027747
0.052347
0.050555
0.027143
0.026867
-0.001257
0.042271
0.044048
0.043196
0.029755
0.031027
0.056213
0.056849
0.021634
0.035565
0.037590
0.025672
-0.058554
0.045194
0.031311
0.025639
-0.028247
0.015557
0.033832
-0.040476
-0.033397
0.036653
0.006525
0.047603
0.050368
-0.025330
0.000903
-0.061252
-0.039074
-0.006177
-0.007266
-0.008472
-0.011771
-0.043220
-0.024326
-0.015589
-0.005592
0.029796
0.015050
0.015648
0.017069
0.008911
0.047618
-0.008934
0.039074
0.036865
0.036200
-0.036487
-0.021681
-0.006117
0.000400
0.001066
0.052944
0.039555
-0.035665
0.018739
0.017688
-0.005295
0.028477
0.058030
0.035219
0.039651
0.039232
-0.027277
0.038329
-0.010719
0.027928
0.057053
0.021147
-0.010281
-0.009380
-0.008644
-0.011336
-0.010770
-0.009635
-0.009765
0.007678
0.007239
0.018843
-0.002671
0.024192
0.024881
0.025741
-0.007936
0.005551
0.030850
0.041337
0.012744
-0.009213
0.013501
0.017271
0.017729
0.030231
-0.009311
0.005726
0.004459
0.033326
0.016267
0.033385
-0.010166
0.004690
0.000481
0.055851
0.042136
0.019322
0.026618
0.027069
0.045185
0.013460
0.023823
0.029163
-0.034040
-0.019409
0.036771
0.024030
0.043337
0.050016
0.050989
-0.009924
-0.004583
0.016931
-0.039706
-0.038745
-0.037667
-0.038931
-0.037700
-0.037689
-0.016119
-0.017045
-0.016013
0.067831
0.064596
0.064616
0.037628
0.036154
0.037636
0.061829
0.068995
0.004856
0.003895
-0.007103
0.044425
0.055790
0.054524
-0.019277
-0.021358
-0.019762
0.070245
0.068444
0.071534
0.067952
-0.020134
-0.038983
-0.036741
-0.021905
-0.021897
-0.020373
-0.018174
-0.016993
-0.022202
-0.023812
0.032538
0.030647
0.030916
0.031422
-0.020354
-0.012500
-0.023900
-0.026110
-0.024308
-0.008133
-0.001528
0.028459
0.024535
0.027138
0.025089
-0.031190
-0.029692
-0.031496
0.016584
0.017494
0.016452
-0.000666
-0.001943
-0.001367
-0.003060
0.071073
0.069710
-0.030227
-0.025261
-0.019514
-0.044752
-0.040563
-0.040573
-0.009098
-0.007330
-0.007590
-0.035930
-0.027790
-0.025282
-0.024872
-0.005421
0.025242
0.027983
0.028672
0.022450
0.048606
0.048832
0.054828
0.042812
0.000377
0.006311
0.005341
0.035031
0.036406
0.037530
0.039303
-0.015656
-0.024340
-0.018999
-0.056567
-0.059220
-0.006667
-0.007508
-0.005842
-0.007789
0.050178
0.051657
0.050463
0.052360
0.015236
0.014283
0.018506
0.012188
0.034902
0.035714
0.034359
0.036356
0.047232
0.047559
0.048914
0.046139
-0.017284
-0.015792
-0.037171
-0.037913
-0.047266
-0.046260
-0.048220
-0.033005
-0.034969
-0.034141
0.038137
0.037473
-0.013683
-0.013235
-0.014602
-0.014145
-0.042681
-0.022015
-0.023323
-0.021920
-0.023300
-0.043094
-0.042670
-0.041639
-0.040663
-0.032035
-0.033288
-0.033599
-0.051513