# vtk DataFile Version 2.0
Test
ASCII
DATASET POLYDATA
POINTS 3011 float
0.000000 0.000000 0.000000
2.000000 0.000000 0.000000
2.000000 4.000000 0.000000
0.000000 4.000000 0.000000
0.000000 0.500000 0.000000
1.500000 2.000000 0.000000
2.000000 2.500000 0.000000
0.285714 0.000000 0.000000
0.571429 0.000000 0.000000
0.857143 0.000000 0.000000
1.142857 0.000000 0.000000
1.428571 0.000000 0.000000
1.714286 0.000000 0.000000
2.000000 0.276366 0.000000
2.000000 0.523709 0.000000
2.000000 0.745076 0.000000
2.000000 0.943195 0.000000
2.000000 1.120508 0.000000
2.000000 1.279199 0.000000
2.000000 1.421225 0.000000
2.000000 1.548336 0.000000
2.000000 1.662097 0.000000
2.000000 1.763911 0.000000
2.000000 1.855033 0.000000
2.000000 1.936585 0.000000
2.000000 2.009573 0.000000
2.000000 2.074896 0.000000
2.000000 2.133358 0.000000
2.000000 2.185681 0.000000
2.000000 2.232509 0.000000
2.000000 2.274419 0.000000
2.000000 2.311927 0.000000
2.000000 2.345497 0.000000
2.000000 2.375541 0.000000
2.000000 2.402430 0.000000
2.000000 2.426495 0.000000
2.000000 2.448033 0.000000
2.000000 2.467309 0.000000
2.000000 2.484560 0.000000
2.000000 2.516256 0.000000
2.000000 2.535859 0.000000
2.000000 2.559499 0.000000
2.000000 2.588006 0.000000
2.000000 2.622383 0.000000
2.000000 2.663839 0.000000
2.000000 2.713831 0.000000
2.000000 2.774116 0.000000
2.000000 2.846815 0.000000
2.000000 2.934483 0.000000
2.000000 3.040202 0.000000
2.000000 3.167691 0.000000
2.000000 3.321430 0.000000
2.000000 3.506825 0.000000
2.000000 3.730395 0.000000
1.714286 4.000000 0.000000
1.428571 4.000000 0.000000
1.142857 4.000000 0.000000
0.857143 4.000000 0.000000
0.571429 4.000000 0.000000
0.285714 4.000000 0.000000
0.000000 3.713462 0.000000
0.000000 3.449209 0.000000
0.000000 3.205508 0.000000
0.000000 2.980761 0.000000
0.000000 2.773493 0.000000
0.000000 2.582346 0.000000
0.000000 2.406065 0.000000
0.000000 2.243495 0.000000
0.000000 2.093568 0.000000
0.000000 1.955302 0.000000
0.000000 1.827789 0.000000
0.000000 1.710194 0.000000
0.000000 1.601745 0.000000
0.000000 1.501730 0.000000
0.000000 1.409494 0.000000
0.000000 1.324431 0.000000
0.000000 1.245984 0.000000
0.000000 1.173639 0.000000
0.000000 1.106920 0.000000
0.000000 1.045390 0.000000
0.000000 0.988645 0.000000
0.000000 0.936314 0.000000
0.000000 0.888053 0.000000
0.000000 0.843545 0.000000
0.000000 0.802499 0.000000
0.000000 0.764646 0.000000
0.000000 0.729736 0.000000
0.000000 0.697541 0.000000
0.000000 0.667851 0.000000
0.000000 0.640469 0.000000
0.000000 0.615217 0.000000
0.000000 0.591929 0.000000
0.000000 0.570453 0.000000
0.000000 0.550646 0.000000
0.000000 0.532380 0.000000
0.000000 0.515535 0.000000
0.000000 0.483768 0.000000
0.000000 0.461535 0.000000
0.000000 0.431083 0.000000
0.000000 0.389372 0.000000
0.000000 0.332241 0.000000
0.000000 0.253989 0.000000
0.000000 0.146807 0.000000
0.010563 0.510563 0.000000
0.021127 0.521127 0.000000
0.031690 0.531690 0.000000
0.042254 0.542254 0.000000
0.052817 0.552817 0.000000
0.063380 0.563380 0.000000
0.073944 0.573944 0.000000
0.084507 0.584507 0.000000
0.095070 0.595070 0.000000
0.105634 0.605634 0.000000
0.116197 0.616197 0.000000
0.126761 0.626761 0.000000
0.137324 0.637324 0.000000
0.147887 0.647887 0.000000
0.158451 0.658451 0.000000
0.169014 0.669014 0.000000
0.179577 0.679577 0.000000
0.190141 0.690141 0.000000
0.200704 0.700704 0.000000
0.211268 0.711268 0.000000
0.221831 0.721831 0.000000
0.232394 0.732394 0.000000
0.242958 0.742958 0.000000
0.253521 0.753521 0.000000
0.264085 0.764085 0.000000
0.274648 0.774648 0.000000
0.285211 0.785211 0.000000
0.295775 0.795775 0.000000
0.306338 0.806338 0.000000
0.316901 0.816901 0.000000
0.327465 0.827465 0.000000
0.338028 0.838028 0.000000
0.348592 0.848592 0.000000
0.359155 0.859155 0.000000
0.369718 0.869718 0.000000
0.380282 0.880282 0.000000
0.390845 0.890845 0.000000
0.401408 0.901408 0.000000
0.411972 0.911972 0.000000
0.422535 0.922535 0.000000
0.433099 0.933099 0.000000
0.443662 0.943662 0.000000
0.454225 0.954225 0.000000
0.464789 0.964789 0.000000
0.475352 0.975352 0.000000
0.485915 0.985915 0.000000
0.496479 0.996479 0.000000
0.507042 1.007042 0.000000
0.517606 1.017606 0.000000
0.528169 1.028169 0.000000
0.538732 1.038732 0.000000
0.549296 1.049296 0.000000
0.559859 1.059859 0.000000
0.570423 1.070423 0.000000
0.580986 1.080986 0.000000
0.591549 1.091549 0.000000
0.602113 1.102113 0.000000
0.612676 1.112676 0.000000
0.623239 1.123239 0.000000
0.633803 1.133803 0.000000
0.644366 1.144366 0.000000
0.654930 1.154930 0.000000
0.665493 1.165493 0.000000
0.676056 1.176056 0.000000
0.686620 1.186620 0.000000
0.697183 1.197183 0.000000
0.707746 1.207746 0.000000
0.718310 1.218310 0.000000
0.728873 1.228873 0.000000
0.739437 1.239437 0.000000
0.750000 1.250000 0.000000
0.760563 1.260563 0.000000
0.771127 1.271127 0.000000
0.781690 1.281690 0.000000
0.792254 1.292254 0.000000
0.802817 1.302817 0.000000
0.813380 1.313380 0.000000
0.823944 1.323944 0.000000
0.834507 1.334507 0.000000
0.845070 1.345070 0.000000
0.855634 1.355634 0.000000
0.866197 1.366197 0.000000
0.876761 1.376761 0.000000
0.887324 1.387324 0.000000
0.897887 1.397887 0.000000
0.908451 1.408451 0.000000
0.919014 1.419014 0.000000
0.929577 1.429577 0.000000
0.940141 1.440141 0.000000
0.950704 1.450704 0.000000
0.961268 1.461268 0.000000
0.971831 1.471831 0.000000
0.982394 1.482394 0.000000
0.992958 1.492958 0.000000
1.003521 1.503521 0.000000
1.014085 1.514085 0.000000
1.024648 1.524648 0.000000
1.035211 1.535211 0.000000
1.045775 1.545775 0.000000
1.056338 1.556338 0.000000
1.066901 1.566901 0.000000
1.077465 1.577465 0.000000
1.088028 1.588028 0.000000
1.098592 1.598592 0.000000
1.109155 1.609155 0.000000
1.119718 1.619718 0.000000
1.130282 1.630282 0.000000
1.140845 1.640845 0.000000
1.151408 1.651408 0.000000
1.161972 1.661972 0.000000
1.172535 1.672535 0.000000
1.183099 1.683099 0.000000
1.193662 1.693662 0.000000
1.204225 1.704225 0.000000
1.214789 1.714789 0.000000
1.225352 1.725352 0.000000
1.235915 1.735915 0.000000
1.246479 1.746479 0.000000
1.257042 1.757042 0.000000
1.267606 1.767606 0.000000
1.278169 1.778169 0.000000
1.288732 1.788732 0.000000
1.299296 1.799296 0.000000
1.309859 1.809859 0.000000
1.320423 1.820423 0.000000
1.330986 1.830986 0.000000
1.341549 1.841549 0.000000
1.352113 1.852113 0.000000
1.362676 1.862676 0.000000
1.373239 1.873239 0.000000
1.383803 1.883803 0.000000
1.394366 1.894366 0.000000
1.404930 1.904930 0.000000
1.415493 1.915493 0.000000
1.426056 1.926056 0.000000
1.436620 1.936620 0.000000
1.447183 1.947183 0.000000
1.457746 1.957746 0.000000
1.468310 1.968310 0.000000
1.478873 1.978873 0.000000
1.489437 1.989437 0.000000
1.510417 2.010417 0.000000
1.520833 2.020833 0.000000
1.531250 2.031250 0.000000
1.541667 2.041667 0.000000
1.552083 2.052083 0.000000
1.562500 2.062500 0.000000
1.572917 2.072917 0.000000
1.583333 2.083333 0.000000
1.593750 2.093750 0.000000
1.604167 2.104167 0.000000
1.614583 2.114583 0.000000
1.625000 2.125000 0.000000
1.635417 2.135417 0.000000
1.645833 2.145833 0.000000
1.656250 2.156250 0.000000
1.666667 2.166667 0.000000
1.677083 2.177083 0.000000
1.687500 2.187500 0.000000
1.697917 2.197917 0.000000
1.708333 2.208333 0.000000
1.718750 2.218750 0.000000
1.729167 2.229167 0.000000
1.739583 2.239583 0.000000
1.750000 2.250000 0.000000
1.760417 2.260417 0.000000
1.770833 2.270833 0.000000
1.781250 2.281250 0.000000
1.791667 2.291667 0.000000
1.802083 2.302083 0.000000
1.812500 2.312500 0.000000
1.822917 2.322917 0.000000
1.833333 2.333333 0.000000
1.843750 2.343750 0.000000
1.854167 2.354167 0.000000
1.864583 2.364583 0.000000
1.875000 2.375000 0.000000
1.885417 2.385417 0.000000
1.895833 2.395833 0.000000
1.906250 2.406250 0.000000
1.916667 2.416667 0.000000
1.927083 2.427083 0.000000
1.937500 2.437500 0.000000
1.947917 2.447917 0.000000
1.958333 2.458333 0.000000
1.968750 2.468750 0.000000
1.979167 2.479167 0.000000
1.989583 2.489583 0.000000
0.206561 0.791563 0.000000
0.205359 0.816165 0.000000
0.186354 0.798211 0.000000
0.221961 0.800924 0.000000
0.280649 1.360489 0.000000
0.304015 1.400469 0.000000
0.229142 1.396096 0.000000
0.275922 1.451476 0.000000
1.869084 2.391788 0.000000
1.857928 2.378421 0.000000
1.238669 2.061899 0.000000
1.278787 2.082276 0.000000
1.238298 2.096047 0.000000
1.277579 2.032995 0.000000
0.402536 1.205823 0.000000
0.415290 1.176040 0.000000
0.428330 1.201952 0.000000
0.387294 1.172617 0.000000
0.146930 1.050586 0.000000
0.109488 1.087198 0.000000
0.102742 1.042403 0.000000
0.157178 1.091184 0.000000
0.588967 1.178581 0.000000
0.593116 1.153718 0.000000
0.608054 1.166752 0.000000
0.612180 1.145944 0.000000
0.860304 1.543784 0.000000
0.868821 1.521840 0.000000
0.878420 1.536650 0.000000
0.845380 1.517623 0.000000
1.129525 1.764330 0.000000
1.142005 1.751560 0.000000
1.145757 1.773681 0.000000
1.159368 1.759106 0.000000
1.968150 2.518865 0.000000
1.986105 2.509269 0.000000
1.986696 2.531115 0.000000
0.668964 1.191005 0.000000
0.683291 1.201259 0.000000
0.557625 1.074830 0.000000
0.569760 1.084377 0.000000
0.557769 1.089278 0.000000
0.707567 1.266174 0.000000
0.719026 1.281845 0.000000
0.700768 1.282275 0.000000
0.722329 1.266956 0.000000
0.468225 2.149688 0.000000
0.419106 2.064198 0.000000
0.523878 2.082648 0.000000
0.838546 1.421191 0.000000
0.823708 1.410355 0.000000
0.840477 1.404206 0.000000
0.818500 1.425973 0.000000
0.953187 1.488222 0.000000
0.959780 1.473222 0.000000
0.967054 1.485637 0.000000
1.047418 1.769126 0.000000
1.080240 1.782403 0.000000
1.047768 1.802712 0.000000
0.971392 1.693320 0.000000
0.949208 1.720793 0.000000
0.940644 1.684781 0.000000
0.381391 2.160909 0.000000
0.944091 1.477800 0.000000
0.530075 1.477351 0.000000
0.521303 1.516669 0.000000
0.474240 1.491166 0.000000
0.489489 1.546185 0.000000
1.537370 2.239326 0.000000
1.555275 2.267640 0.000000
1.532966 2.278201 0.000000
0.962010 1.661716 0.000000
0.986804 1.643200 0.000000
0.986259 1.672729 0.000000
1.049149 1.737940 0.000000
1.075111 1.737123 0.000000
[...]
POINT_DATA 3011
SCALARS UX float 1
LOOKUP_TABLE default
-0.014323
0.016443
0.000000
-0.000000
-0.014976
0.008678
0.015809
-0.009948
-0.005565
-0.001177
0.003218
0.007621
0.012029
0.016449
0.016466
0.016493
0.016526
0.016562
0.016601
0.016637
0.016664
0.016673
0.016659
0.016611
0.016539
0.016447
0.016354
0.016265
0.016185
0.016117
0.016060
0.016012
0.015971
0.015936
0.015907
0.015882
0.015860
0.015840
0.015823
0.015793
0.015774
0.015751
0.015723
0.015690
0.015646
0.015590
0.015514
0.015400
0.015234
0.014974
0.014527
0.013716
0.012134
0.008976
-0.000000
0.000000
0.000000
-0.000000
-0.000000
0.000000
-0.009001
-0.012661
-0.014200
-0.014919
-0.015229
-0.015343
-0.015371
-0.015373
-0.015369
-0.015367
-0.015370
-0.015379
-0.015389
-0.015401
-0.015414
-0.015427
-0.015440
-0.015451
-0.015463
-0.015474
-0.015485
-0.015496
-0.015506
-0.015515
-0.015523
-0.015530
-0.015536
-0.015540
-0.015544
-0.015548
-0.015555
-0.015561
-0.015557
-0.015538
-0.015565
-0.015513
-0.014338
-0.014318
-0.014304
-0.014309
-0.014312
-0.014317
-0.014320
-0.014749
-0.014605
-0.014415
-0.014300
-0.014187
-0.013965
-0.013813
-0.013634
-0.013477
-0.013288
-0.013118
-0.013067
-0.012858
-0.012642
-0.012421
-0.012294
-0.012194
-0.012043
-0.011814
-0.011694
-0.011428
-0.011360
-0.011148
-0.011018
-0.010847
-0.010649
-0.010553
-0.010330
-0.010282
-0.010053
-0.009943
-0.009684
-0.009531
-0.009375
-0.009218
-0.009048
-0.008869
-0.008756
-0.008581
-0.008382
-0.008246
-0.008032
-0.007810
-0.007821
-0.007645
-0.007375
-0.007267
-0.007061
-0.006953
-0.006787
-0.006562
-0.006386
-0.006192
-0.006065
-0.005916
-0.005785
-0.005616
-0.005450
-0.005214
-0.005116
-0.005009
-0.004781
-0.004594
-0.004415
-0.004272
-0.004106
-0.004040
-0.003827
-0.003565
-0.003432
-0.003209
-0.003142
-0.002908
-0.002807
-0.002686
-0.002528
-0.002300
-0.002179
-0.002012
-0.001837
-0.001709
-0.001506
-0.001370
-0.001222
-0.000959
-0.000808
-0.000715
-0.000487
-0.000248
-0.000204
-0.000042
0.000100
0.000296
0.000453
0.000615
0.000818
0.000966
0.001142
0.001267
0.001463
0.001590
0.001792
0.002044
0.002060
0.002327
0.002505
0.002711
0.002783
0.002932
0.003166
0.003324
0.003501
0.003596
0.003805
0.003990
0.004116
0.004353
0.004523
0.004591
0.004815
0.005046
0.005073
0.005378
0.005491
0.005631
0.005846
0.006003
0.006185
0.006358
0.006473
0.006671
0.006783
0.007021
0.007149
0.007359
0.007518
0.007726
0.007879
0.008072
0.008240
0.008395
0.008862
0.008893
0.009030
0.009166
0.009314
0.009463
0.009612
0.009763
0.009916
0.010069
0.010222
0.010374
0.010528
0.010681
0.010834
0.010987
0.011140
0.011293
0.011445
0.011598
0.011750
0.011902
0.012055
0.012206
0.012358
0.012509
0.012661
0.012812
0.012963
0.013114
0.013264
0.013415
0.013565
0.013716
0.013866
0.014016
0.014166
0.014316
0.014466
0.014615
0.014765
0.014914
0.015064
0.015213
0.015362
0.015511
0.015660
-0.012361
-0.012379
-0.012669
-0.012128
-0.011120
-0.010755
-0.011904
-0.011178
0.013908
0.013749
0.004066
0.004730
0.004077
0.004673
-0.009277
-0.009086
-0.008882
-0.009516
-0.013221
-0.013788
-0.013900
-0.013056
-0.006419
-0.006354
-0.006132
-0.006058
-0.002167
-0.002042
-0.001890
-0.002403
0.002082
0.002262
0.002340
0.002537
0.015306
0.015588
0.015577
-0.005242
-0.004951
-0.006921
-0.006644
-0.006915
-0.004571
-0.004397
-0.004676
-0.004344
-0.008181
-0.008937
-0.007305
-0.002528
-0.002761
-0.002507
-0.002836
-0.000752
-0.000601
-0.000532
0.000818
0.001335
0.000845
-0.000398
-0.000729
-0.000877
-0.009533
-0.000882
-0.007269
-0.007398
-0.008126
-0.007882
0.008818
0.009085
0.008726
-0.000557
-0.000181
-0.000177
0.000824
0.001224
0.001147
0.009312
0.001095
0.002293
0.002445
0.002539
0.002189
0.006231
0.006816
0.006712
0.007699
0.007177
0.007158
-0.006379
-0.006475
-0.005923
-0.008397
-0.007427
-0.008027
-0.006014
-0.007212
-0.010837
-0.010359
-0.010883
-0.010462
0.000685
-0.000107
0.000693
-0.000637
-0.009235
-0.009045
-0.008171
0.008617
0.008891
0.008436
-0.010237
-0.012249
-0.013108
-0.012820
-0.005471
-0.005040
-0.004940
-0.004569
-0.013750
-0.012775
-0.012078
-0.013779
0.013088
0.013355
0.013519
-0.000545
-0.000072
0.000363
-0.008913
-0.008483
0.001012
-0.003758
-0.003698
-0.004296
-0.003286
0.008290
0.008226
0.007904
-0.002573
-0.002463
-0.002928
0.008599
-0.013022
-0.012932
-0.012837
-0.007128
-0.006999
-0.006683
-0.014657
-0.014620
-0.006725
-0.002659
-0.002602
-0.001937
-0.014648
-0.001805
0.000811
0.001412
-0.012804
-0.012544
-0.012221
-0.006696
-0.006734
-0.006492
-0.006912
-0.006874
0.009642
0.009856
0.009655
0.003231
0.002833
0.002737
0.002115
0.002479
0.001975
0.000595
0.000611
0.000387
0.001786
-0.009022
-0.009209
-0.009312
-0.002513
-0.002813
-0.002725
-0.001279
-0.002507
-0.013888
-0.013506
-0.014104
-0.006602
-0.006909
0.013051
0.000281
0.012522
0.012422
0.012207
-0.002910
-0.002590
-0.004490
-0.004680
0.011131
0.011343
0.010613
-0.004855
-0.005247
-0.004978
0.004897
0.004736
0.005421
0.004108
0.012703
0.012879
0.008990
0.003684
0.003118
0.003276
0.000600
0.000821
0.000890
0.007670
0.008745
0.006153
0.007108
0.007958
0.008329
0.007999
-0.006287
-0.006714
-0.006824
-0.007177
-0.007112
0.000871
0.012022
0.011592
0.012004
0.009006
0.008326
0.008867
0.008499
0.008812
0.009317
0.009192
0.011413
0.011363
-0.001288
-0.001008
-0.000949
-0.001327
-0.002333
-0.002108
-0.002198
-0.001960
0.005505
0.005163
0.005603
0.005248
0.005429
0.005126
0.008275
0.008599
0.008373
0.011890
0.011708
-0.003714
-0.003675
-0.004050
-0.003536
-0.003582
-0.003162
-0.003136
-0.003973
-0.004050
-0.003766
-0.001492
-0.001749
-0.001581
-0.001721
0.003595
0.003658
0.003898
0.003340
-0.001215
-0.003432
-0.003379
-0.003490
-0.003332
-0.003034
-0.003606
0.010554
0.010288
0.010234
0.009976
0.002420
0.002664
-0.001600
-0.001574
-0.001190
0.001900
0.001953
0.001691
0.001782
0.001509
0.001690
0.001684
-0.000081
-0.000234
0.000074
-0.000422
0.007170
0.007311
-0.004116
-0.003854
-0.004098
0.001187
0.001216
0.000977
0.006433
0.005776
0.005479
0.001447
0.000661
0.000881
0.000539
0.008210
0.008241
0.007040
0.007361
0.007028
0.007378
0.004739
0.004850
0.004479
0.004667
-0.014231
-0.014491
-0.014907
-0.013477
-0.009016
-0.008765
-0.008794
-0.005394
-0.004614
-0.008254
0.008560
-0.009266
-0.009375
-0.009783
-0.009848
0.001909
0.002593
0.002750
0.003392
-0.005122
-0.004256
-0.004103
-0.003490
0.011085
0.011293
0.011334
0.011500
0.008610
0.008047
-0.013301
-0.014245
-0.014450
-0.013888
-0.014219
-0.013973
-0.014136
-0.013267
-0.012904
0.000727
0.000316
0.000470
0.005866
0.005287
-0.007981
-0.007865
-0.008340
-0.008160
-0.008636
-0.001977
-0.001823
-0.002396
-0.002277
-0.009538
-0.009800
-0.009895
-0.009586
-0.003917
-0.003132
-0.012664
-0.012467
-0.012154
-0.012336
-0.012806
-0.014085
-0.014394
-0.014159
-0.013984
-0.013865
-0.012133
-0.011838
-0.011751
-0.012021
-0.011639
-0.003008
-0.002616
-0.002757
0.002548
-0.002850
-0.005047
-0.002613
-0.006121
-0.008555
0.014413
0.014136
0.014718
0.013774
0.013279
0.013673
-0.010888
-0.011046
-0.011312
-0.012305
-0.011194
-0.011312
-0.012723
0.012553
0.013631
0.013507
0.012611
0.000430
0.000387
-0.008841
-0.008502
-0.008801
-0.008387
-0.012701
-0.012894
-0.015094
-0.014895
-0.014763
-0.015005
0.013941
0.013895
0.013477
0.013736
-0.009929
-0.009562
0.004624
0.005174
0.004427
0.003545
0.005396
0.004267
0.002544
0.002690
0.000340
-0.004461
-0.004516
-0.004016
-0.014910
-0.014894
-0.015209
-0.014631
0.015061
0.008692
-0.011487
-0.011579
-0.012018
-0.015349
-0.015294
-0.011890
0.012570
0.012412
0.012752
-0.012783
-0.012559
-0.012891
-0.014041
-0.012558
-0.012353
0.014757
0.015090
0.014877
0.014960
0.015147
0.003465
0.004047
-0.011916
-0.011862
-0.011475
0.015247
0.006172
0.006550
0.006971
-0.008771
-0.008155
-0.007861
-0.008539
-0.007595
-0.007334
-0.005507
-0.005139
-0.014066
-0.014120
-0.014949
-0.014543
-0.014395
-0.014118
-0.008427
0.008929
-0.008687
-0.014613
-0.014920
-0.014662
-0.014454
0.015113
0.014593
-0.013386
-0.013735
-0.013606
0.015313
-0.014825
0.012897
0.013350
0.012895
-0.011470
-0.011767
-0.011356
-0.003108
-0.001843
-0.001785
-0.000640
-0.000450
-0.013025
-0.012764
-0.013209
-0.013431
0.005841
0.005102
-0.011130
-0.010992
-0.011394
-0.011103
-0.007853
-0.007864
-0.008435
-0.007930
-0.008548
-0.009524
-0.008705
-0.008780
-0.009664
-0.014857
-0.015107
0.012657
0.012987
-0.009785
-0.009525
-0.010199
-0.010355
-0.010927
0.008623
0.008716
0.008461
-0.006570
-0.006876
-0.009462
-0.009918
-0.006465
-0.006003
0.002560
0.001521
0.001575
0.002265
-0.014496
-0.010780
-0.010682
-0.010852
-0.010461
0.002219
0.012996
0.012866
0.012621
0.012522
-0.002244
-0.002217
-0.001248
-0.001265
-0.000462
-0.000315
0.012106
0.012389
0.015271
0.014703
-0.000517
0.000200
0.013429
0.013953
-0.014257
-0.009100
-0.010021
-0.011262
-0.011339
-0.011047
-0.011454
-0.011527
0.005014
-0.014175
-0.015239
0.005389
0.001765
0.001194
0.014755
0.014732
0.014872
-0.015021
-0.012908
-0.013304
-0.014384
0.001660
0.001252
0.000926
0.001397
0.012320
-0.012626
-0.012426
-0.011985
-0.011742
0.004622
0.004331
0.003822
0.004212
0.013234
-0.014970
-0.015166
-0.014750
-0.011652
-0.014067
-0.010081
-0.011456
-0.009374
-0.010211
-0.012690
-0.014342
-0.014462
0.002454
0.002607
0.001072
0.003972
-0.002863
-0.004196
0.000244
-0.014196
-0.004478
-0.013750
0.000299
-0.002518
-0.001991
-0.013382
-0.013704
-0.013432
-0.014404
-0.013858
-0.004407
-0.001609
-0.002439
-0.003438
-0.013231
-0.000193
-0.000356
-0.000505
-0.004813
-0.005059
-0.004173
-0.011461
-0.011514
-0.012112
-0.010097
-0.009937
-0.010220
-0.010390
-0.004725
-0.004096
-0.004063
-0.003386
-0.003387
0.003214
0.002447
0.000225
-0.000990
-0.001350
-0.001012
-0.000717
0.003621
0.002424
0.001408
0.001342
0.000396
-0.012629
-0.010641
-0.009939
-0.008464
-0.013499
-0.013409
-0.013670
-0.009078
0.015421
-0.010799
-0.011047
-0.011587
-0.011278
-0.007207
-0.008283
-0.006402
-0.005887
-0.005328
-0.014651
-0.010623
-0.010486
-0.013960
0.010737
0.010747
-0.001239
-0.011706
0.010963
0.014372
-0.010766
-0.012214
-0.010950
0.003024
-0.012620
-0.013351
-0.014014
-0.014986
-0.014445
0.013085
-0.012971
0.001341
0.000173
0.002083
-0.013757
-0.014307
0.014054
-0.010717
-0.010662
-0.010907
-0.013629
0.011715
0.010983
0.011694
0.013445
0.013424
0.013645
-0.013302
-0.012750
-0.012665
-0.012947
-0.013752
0.009970
0.007815
0.007651
0.005741
-0.010221
-0.010267
-0.004918
-0.004710
-0.008728
-0.007377
0.008853
-0.003548
-0.014771
-0.007415
-0.007707
-0.007471
0.000475
-0.006451
-0.006037
-0.006103
-0.013046
-0.011265
-0.010119
-0.010043
-0.008917
-0.012522
-0.005406
-0.005963
-0.005871
0.011493
0.013327
0.012424
0.001252
-0.009217
-0.009237
-0.008733
-0.013845
-0.012902
-0.013081
-0.013635
-0.007158
0.003557
-0.010347
-0.011956
-0.007088
-0.006523
-0.013867
-0.012452
-0.005742
-0.005703
-0.008228
0.002123
0.014522
0.014305
-0.013263
-0.009466
-0.003774
-0.014298
-0.011826
-0.011011
-0.012090
0.004670
-0.014739
0.004161
0.004238
0.003935
-0.005538
-0.003524
-0.013762
-0.006134
-0.008853
-0.009507
-0.009903
0.013232
-0.001971
-0.002286
-0.001782
-0.010998
-0.011121
-0.006551
-0.009174
-0.009075
-0.008803
-0.013549
-0.013827
-0.009417
-0.012350
0.011427
0.011603
-0.008177
-0.008280
-0.008525
0.011099
-0.003019
-0.002846
0.012177
0.012355
0.004021
-0.000659
-0.001711
-0.012509
-0.012908
0.000730
0.001167
0.003566
0.003997
-0.007531
-0.008767
-0.010881
-0.010536
-0.010678
0.009576
0.009488
0.000977
0.001918
-0.009385
-0.013338
-0.012437
-0.007230
-0.007362
-0.006920
-0.011969
-0.014008
-0.011482
-0.004272
-0.004935
-0.010869
-0.011155
-0.011101
0.012967
-0.005694
-0.005457
-0.006243
-0.013296
-0.013115
-0.010208
-0.009818
-0.007483
-0.006264
0.000324
-0.001798
0.005037
0.013637
-0.013825
-0.006846
-0.006327
-0.008360
-0.009804
-0.010351
-0.006405
-0.006800
-0.006903
0.011107
-0.003412
-0.005265
-0.005729
-0.001203
-0.003393
-0.007961
-0.008026
-0.007772
0.003042
0.003225
0.003906
0.000297
-0.005490
-0.010171
-0.010319
-0.010574
-0.010645
0.004623
0.004871
0.004710
-0.006707
-0.005997
-0.014118
-0.006647
-0.006900
-0.006518
-0.007086
0.002457
0.014568
0.014447
0.001719
0.004412
0.001186
0.003000
-0.012102
-0.012027
-0.011893
-0.010298
-0.010067
-0.010075
-0.006896
0.010009
0.009432
-0.002818
0.000072
-0.000297
-0.010530
-0.000612
-0.010464
-0.010253
-0.012368
-0.012352
-0.012156
-0.007943
-0.000718
-0.000305
-0.000796
-0.000098
0.014365
-0.011711
-0.011913
0.010251
-0.011475
-0.011576
0.012566
0.012038
0.011795
0.011119
0.011330
0.010290
0.011205
-0.013177
-0.012972
-0.013210
-0.009304
-0.010174
-0.010518
-0.001550
-0.002423
-0.007941
-0.012219
-0.009575
-0.007835
-0.005854
-0.012560
-0.012521
0.002318
-0.007486
-0.007544
-0.010579
-0.013278
0.014257
-0.003598
-0.012477
-0.013607
-0.011526
-0.003185
-0.004113
0.000410
-0.002871
-0.003525
-0.003942
-0.004772
-0.006022
-0.000845
-0.001898
-0.000147
-0.001763
0.000588
-0.008886
-0.011444
0.010235
0.010429
-0.010249
-0.008031
-0.004968
-0.005451
-0.005926
0.010813
0.009369
-0.001369
-0.001798
-0.001806
-0.001466
0.003079
0.003302
-0.009811
-0.009926
-0.009723
-0.012194
-0.001396
0.000616
-0.008729
0.008081
0.008699
-0.009302
-0.006357
-0.005265
-0.005916
0.014490
0.011039
0.011845
0.011885
-0.010250
-0.010701
0.014379
-0.007578
-0.004663
-0.007883
0.007793
-0.009074
-0.009201
-0.008893
-0.009373
-0.010229
-0.006174
-0.009576
0.007078
0.006470
0.006189
0.007730
0.007996
0.007792
0.007384
0.007711
0.003616
0.010282
0.009991
-0.009616
0.004962
0.003887
-0.007719
-0.007699
-0.007517
0.010901
0.010125
-0.004852
-0.007594
-0.005752
-0.009052
-0.008268
-0.004182
-0.004096
-0.004519
0.014318
0.014205
-0.006251
-0.004264
-0.007297
0.005591
0.009823
0.010261
0.010581
0.007719
0.007744
0.009702
-0.010198
-0.011848
-0.011632
-0.001488
-0.002250
-0.004258
-0.015321
-0.003851
0.006869
0.005099
0.005602
0.006115
-0.007151
-0.007302
-0.007105
-0.007427
0.007229
-0.008489
-0.008618
-0.008337
-0.004560
0.006845
0.006981
-0.015359
0.010827
0.010817
-0.009769
-0.000896
-0.015287
0.010525
-0.001092
0.006338
-0.007512
0.010830
-0.011202
0.007291
-0.007242
-0.006536
-0.003549
-0.004457
-0.010872
0.012036
0.012373
0.010485
0.013687
0.002970
0.003207
0.003187
-0.003808
-0.008200
-0.003555
-0.002826
0.002972
0.003409
-0.008245
0.003457
-0.005539
-0.005877
-0.005684
-0.005311
-0.005567
-0.005342
-0.005182
-0.004991
-0.004826
-0.011735
0.002076
-0.003669
0.014382
0.003374
0.003665
-0.007140
0.003008
-0.000375
-0.000351
-0.010215
-0.010110
-0.010301
0.000716
0.000999
0.000410
0.009162
0.009317
0.008186
0.008526
0.009114
0.009452
0.009365
0.009342
-0.010284
-0.014766
0.001273
0.001304
0.001020
0.002082
-0.006627
0.003979
0.004329
0.004343
-0.000550
-0.000103
-0.004983
-0.004782
0.004643
0.004420
0.004777
-0.000584
-0.000795
0.001792
0.000079
0.000204
-0.009594
-0.009404
0.011198
0.011547
-0.000559
-0.000218
-0.000252
0.011370
0.011011
0.009698
0.009317
-0.009798
0.005754
0.009694
-0.004840
-0.004589
-0.004513
0.006680
0.007020
0.006619
-0.005562
-0.008902
0.007014
-0.008208
-0.008231
-0.008493
0.007431
0.006553
-0.000777
-0.000990
-0.003920
-0.003678
-0.003880
0.007701
0.007692
0.007402
-0.001198
-0.000972
-0.004165
-0.001280
-0.003713
-0.003380
-0.003219
0.008951
0.008649
-0.011883
-0.012081
-0.002883
-0.002698
-0.002506
-0.002748
-0.002507
-0.014370
-0.001165
-0.007195
-0.007365
-0.007104
0.008296
-0.006310
-0.007595
-0.007718
-0.007875
0.004958
-0.002919
-0.011275
0.004846
0.009093
0.008855
0.005798
0.006000
0.006134
0.006361
0.002004
0.002093
0.002241
0.001846
0.001961
0.005608
0.010775
0.010505
-0.003433
-0.003299
-0.003266
-0.004773
-0.004435
-0.001894
-0.001676
-0.001898
0.002447
-0.005932
0.002611
0.002729
0.002886
0.002452
0.011006
0.001382
0.001496
0.010221
0.010197
0.010518
0.009874
0.004365
0.007785
-0.004525
-0.004327
0.004508
0.005078
0.005001
0.000381
0.000240
-0.005626
-0.005796
-0.005933
-0.005539
-0.005382
-0.001405
-0.001231
-0.001476
0.004084
0.004171
0.003778
0.004137
0.004363
0.009574
0.009478
0.008113
0.007431
0.006339
0.006457
0.006708
0.006645
0.006909
0.006716
-0.007186
0.008958
0.009221
0.009320
0.010101
0.009826
0.011126
0.011227
-0.001667
-0.005790
-0.005751
0.011462
0.011795
-0.009137
0.011594
0.009392
0.010101
0.007114
0.012011
-0.015150
-0.015210
-0.015182
-0.015229
-0.014541
0.002486
-0.003279
0.000055
-0.005751
-0.005673
-0.005883
-0.014752
-0.004834
0.006986
0.007553
0.005369
0.004207
0.006071
0.006099
0.005832
-0.005820
0.005914
-0.000028
0.000083
0.000254
-0.005803
0.010724
0.000293
0.006170
0.005984
0.012091
0.012362
0.009235
0.009412
0.009669
0.009937
0.009937
0.001615
0.001835
-0.011969
0.005419
0.009491
0.009721
0.009917
-0.001073
-0.000930
-0.000823
-0.005135
-0.004988
-0.003643
-0.003932
-0.001900
-0.002193
0.002710
0.002368
0.002261
0.007373
-0.005598
-0.005381
-0.006019
0.011702
0.011416
0.006161
0.004820
0.004382
0.002977
-0.004291
-0.004832
-0.005436
0.012161
0.004014
0.003617
0.003607
0.011914
0.011979
0.011704
-0.009742
0.006578
-0.009159
-0.002895
-0.002986
-0.003173
-0.009932
0.003144
-0.007102
-0.013630
-0.005388
0.002049
0.001986
-0.001245
-0.000644
0.002947
-0.003135
-0.003011
-0.002770
0.002783
0.006520
-0.005484
-0.004119
-0.004318
-0.002885
-0.003138
0.003244
-0.003040
-0.013110
-0.013159
0.007951
0.002694
-0.007994
0.000546
0.000478
0.005532
0.001462
0.011055
0.009747
0.010039
-0.008635
0.002811
-0.005180
0.004505
-0.012305
-0.004714
-0.005186
0.003904
0.004136
0.003866
0.001273
0.001473
0.005884
0.005445
-0.010935
-0.010917
0.000335
-0.000843
0.005051
0.001316
0.000451
-0.003392
0.010104
-0.003102
0.010288
0.010199
0.000290
-0.006264
-0.006068
0.011015
0.010633
0.005660
0.005618
-0.000348
0.008923
0.009249
0.009069
0.006224
0.006483
0.011832
0.011964
0.004623
0.007444
0.007894
0.005361
-0.012641
0.009492
0.006571
0.005347
-0.006143
0.003227
0.007085
-0.008806
-0.007271
0.007693
0.001294
0.010003
0.010581
-0.005519
0.000103
-0.013217
-0.008466
-0.001417
-0.001649
-0.001907
-0.002612
-0.009388
-0.005326
-0.003461
-0.001295
0.006223
0.003103
0.003215
0.003520
0.001797
0.010007
-0.002007
0.008195
0.007722
0.007574
-0.007958
-0.004737
-0.001440
-0.000043
0.000097
0.011131
0.008283
-0.007735
0.003874
0.003681
-0.001228
0.005931
0.012214
0.007375
0.008335
0.008246
-0.006104
0.008050
-0.002388
0.005828
0.012005
0.004384
-0.002290
-0.002140
-0.001986
-0.002517
-0.002402
-0.002195
-0.002179
0.001537
0.001448
0.003891
-0.000661
0.005030
0.005179
0.005359
-0.001790
0.001095
0.006441
0.008673
0.002632
-0.002077
0.002788
0.003592
0.003667
0.006317
-0.002085
0.001107
0.000862
0.006969
0.003362
0.006983
-0.002270
0.000906
0.000010
0.011752
0.008856
0.003992
0.005562
0.005655
0.009493
0.002775
0.004957
0.006082
-0.007388
-0.004250
0.007710
0.004995
0.009107
0.010516
0.010723
-0.002219
-0.001073
0.003500
-0.008743
-0.008533
-0.008303
-0.008553
-0.008315
-0.008307
-0.003678
-0.003860
-0.003659
0.014266
0.013574
0.013580
0.007845
0.007527
0.007846
0.012984
0.014517
0.000827
0.000620
-0.001737
0.009302
0.011734
0.011462
-0.004360
-0.004808
-0.004463
0.014791
0.014401
0.015061
0.014304
-0.004545
-0.008591
-0.008104
-0.004924
-0.004921
-0.004594
-0.004117
-0.003865
-0.004983
-0.005333
0.006753
0.006344
0.006404
0.006508
-0.004589
-0.002899
-0.005351
-0.005826
-0.005438
-0.001959
-0.000544
0.005886
0.005047
0.005603
0.005165
-0.006917
-0.006595
-0.006985
0.003330
0.003528
0.003312
-0.000365
-0.000638
-0.000514
-0.000876
0.014978
0.014695
-0.006713
-0.005637
-0.004403
-0.009815
-0.008916
-0.008919
-0.002174
-0.001794
-0.001851
-0.007923
-0.006185
-0.005645
-0.005558
-0.001384
0.005197
0.005783
0.005931
0.004599
0.010192
0.010242
0.011521
0.008954
-0.000136
0.001137
0.000929
0.007288
0.007582
0.007822
0.008199
-0.003574
-0.005436
-0.004288
-0.012346
-0.012917
-0.001651
-0.001835
-0.001476
-0.001886
0.010510
0.010821
0.010575
0.010973
0.003052
0.002847
0.003753
0.002398
0.007257
0.007432
0.007141
0.007571
0.009885
0.009960
0.010242
0.009660
-0.003899
-0.003598
-0.008167
-0.008325
-0.010363
-0.010145
-0.010530
-0.007303
-0.007674
-0.007529
0.007973
0.007826
-0.003164
-0.003065
-0.003357
-0.003247
-0.009348
-0.004917
-0.005188
-0.004924
-0.005191
-0.009462
-0.009377
-0.009157
-0.008945
-0.007095
-0.007325
-0.007390