# vtk DataFile Version 2.0
Test
ASCII
DATASET POLYDATA
POINTS 3011 float
0.000000 0.000000 0.000000
2.000000 0.000000 0.000000
2.000000 4.000000 0.000000
0.000000 4.000000 0.000000
0.000000 0.500000 0.000000
1.500000 2.000000 0.000000
2.000000 2.500000 0.000000
0.285714 0.000000 0.000000
0.571429 0.000000 0.000000
0.857143 0.000000 0.000000
1.142857 0.000000 0.000000
1.428571 0.000000 0.000000
1.714286 0.000000 0.000000
2.000000 0.276366 0.000000
2.000000 0.523709 0.000000
2.000000 0.745076 0.000000
2.000000 0.943195 0.000000
2.000000 1.120508 0.000000
2.000000 1.279199 0.000000
2.000000 1.421225 0.000000
2.000000 1.548336 0.000000
2.000000 1.662097 0.000000
2.000000 1.763911 0.000000
2.000000 1.855033 0.000000
2.000000 1.936585 0.000000
2.000000 2.009573 0.000000
2.000000 2.074896 0.000000
2.000000 2.133358 0.000000
2.000000 2.185681 0.000000
2.000000 2.232509 0.000000
2.000000 2.274419 0.000000
2.000000 2.311927 0.000000
2.000000 2.345497 0.000000
2.000000 2.375541 0.000000
2.000000 2.402430 0.000000
2.000000 2.426495 0.000000
2.000000 2.448033 0.000000
2.000000 2.467309 0.000000
2.000000 2.484560 0.000000
2.000000 2.516256 0.000000
2.000000 2.535859 0.000000
2.000000 2.559499 0.000000
2.000000 2.588006 0.000000
2.000000 2.622383 0.000000
2.000000 2.663839 0.000000
2.000000 2.713831 0.000000
2.000000 2.774116 0.000000
2.000000 2.846815 0.000000
2.000000 2.934483 0.000000
2.000000 3.040202 0.000000
2.000000 3.167691 0.000000
2.000000 3.321430 0.000000
2.000000 3.506825 0.000000
2.000000 3.730395 0.000000
1.714286 4.000000 0.000000
1.428571 4.000000 0.000000
1.142857 4.000000 0.000000
0.857143 4.000000 0.000000
0.571429 4.000000 0.000000
0.285714 4.000000 0.000000
0.000000 3.713462 0.000000
0.000000 3.449209 0.000000
0.000000 3.205508 0.000000
0.000000 2.980761 0.000000
0.000000 2.773493 0.000000
0.000000 2.582346 0.000000
0.000000 2.406065 0.000000
0.000000 2.243495 0.000000
0.000000 2.093568 0.000000
0.000000 1.955302 0.000000
0.000000 1.827789 0.000000
0.000000 1.710194 0.000000
0.000000 1.601745 0.000000
0.000000 1.501730 0.000000
0.000000 1.409494 0.000000
0.000000 1.324431 0.000000
0.000000 1.245984 0.000000
0.000000 1.173639 0.000000
0.000000 1.106920 0.000000
0.000000 1.045390 0.000000
0.000000 0.988645 0.000000
0.000000 0.936314 0.000000
0.000000 0.888053 0.000000
0.000000 0.843545 0.000000
0.000000 0.802499 0.000000
0.000000 0.764646 0.000000
0.000000 0.729736 0.000000
0.000000 0.697541 0.000000
0.000000 0.667851 0.000000
0.000000 0.640469 0.000000
0.000000 0.615217 0.000000
0.000000 0.591929 0.000000
0.000000 0.570453 0.000000
0.000000 0.550646 0.000000
0.000000 0.532380 0.000000
0.000000 0.515535 0.000000
0.000000 0.483768 0.000000
0.000000 0.461535 0.000000
0.000000 0.431083 0.000000
0.000000 0.389372 0.000000
0.000000 0.332241 0.000000
0.000000 0.253989 0.000000
0.000000 0.146807 0.000000
0.010563 0.510563 0.000000
0.021127 0.521127 0.000000
0.031690 0.531690 0.000000
0.042254 0.542254 0.000000
0.052817 0.552817 0.000000
0.063380 0.563380 0.000000
0.073944 0.573944 0.000000
0.084507 0.584507 0.000000
0.095070 0.595070 0.000000
0.105634 0.605634 0.000000
0.116197 0.616197 0.000000
0.126761 0.626761 0.000000
0.137324 0.637324 0.000000
0.147887 0.647887 0.000000
0.158451 0.658451 0.000000
0.169014 0.669014 0.000000
0.179577 0.679577 0.000000
0.190141 0.690141 0.000000
0.200704 0.700704 0.000000
0.211268 0.711268 0.000000
0.221831 0.721831 0.000000
0.232394 0.732394 0.000000
0.242958 0.742958 0.000000
0.253521 0.753521 0.000000
0.264085 0.764085 0.000000
0.274648 0.774648 0.000000
0.285211 0.785211 0.000000
0.295775 0.795775 0.000000
0.306338 0.806338 0.000000
0.316901 0.816901 0.000000
0.327465 0.827465 0.000000
0.338028 0.838028 0.000000
0.348592 0.848592 0.000000
0.359155 0.859155 0.000000
0.369718 0.869718 0.000000
0.380282 0.880282 0.000000
0.390845 0.890845 0.000000
0.401408 0.901408 0.000000
0.411972 0.911972 0.000000
0.422535 0.922535 0.000000
0.433099 0.933099 0.000000
0.443662 0.943662 0.000000
0.454225 0.954225 0.000000
0.464789 0.964789 0.000000
0.475352 0.975352 0.000000
0.485915 0.985915 0.000000
0.496479 0.996479 0.000000
0.507042 1.007042 0.000000
0.517606 1.017606 0.000000
0.528169 1.028169 0.000000
0.538732 1.038732 0.000000
0.549296 1.049296 0.000000
0.559859 1.059859 0.000000
0.570423 1.070423 0.000000
0.580986 1.080986 0.000000
0.591549 1.091549 0.000000
0.602113 1.102113 0.000000
0.612676 1.112676 0.000000
0.623239 1.123239 0.000000
0.633803 1.133803 0.000000
0.644366 1.144366 0.000000
0.654930 1.154930 0.000000
0.665493 1.165493 0.000000
0.676056 1.176056 0.000000
0.686620 1.186620 0.000000
0.697183 1.197183 0.000000
0.707746 1.207746 0.000000
0.718310 1.218310 0.000000
0.728873 1.228873 0.000000
0.739437 1.239437 0.000000
0.750000 1.250000 0.000000
0.760563 1.260563 0.000000
0.771127 1.271127 0.000000
0.781690 1.281690 0.000000
0.792254 1.292254 0.000000
0.802817 1.302817 0.000000
0.813380 1.313380 0.000000
0.823944 1.323944 0.000000
0.834507 1.334507 0.000000
0.845070 1.345070 0.000000
0.855634 1.355634 0.000000
0.866197 1.366197 0.000000
0.876761 1.376761 0.000000
0.887324 1.387324 0.000000
0.897887 1.397887 0.000000
0.908451 1.408451 0.000000
0.919014 1.419014 0.000000
0.929577 1.429577 0.000000
0.940141 1.440141 0.000000
0.950704 1.450704 0.000000
0.961268 1.461268 0.000000
0.971831 1.471831 0.000000
0.982394 1.482394 0.000000
0.992958 1.492958 0.000000
1.003521 1.503521 0.000000
1.014085 1.514085 0.000000
1.024648 1.524648 0.000000
1.035211 1.535211 0.000000
1.045775 1.545775 0.000000
1.056338 1.556338 0.000000
1.066901 1.566901 0.000000
1.077465 1.577465 0.000000
1.088028 1.588028 0.000000
1.098592 1.598592 0.000000
1.109155 1.609155 0.000000
1.119718 1.619718 0.000000
1.130282 1.630282 0.000000
1.140845 1.640845 0.000000
1.151408 1.651408 0.000000
1.161972 1.661972 0.000000
1.172535 1.672535 0.000000
1.183099 1.683099 0.000000
1.193662 1.693662 0.000000
1.204225 1.704225 0.000000
1.214789 1.714789 0.000000
1.225352 1.725352 0.000000
1.235915 1.735915 0.000000
1.246479 1.746479 0.000000
1.257042 1.757042 0.000000
1.267606 1.767606 0.000000
1.278169 1.778169 0.000000
1.288732 1.788732 0.000000
1.299296 1.799296 0.000000
1.309859 1.809859 0.000000
1.320423 1.820423 0.000000
1.330986 1.830986 0.000000
1.341549 1.841549 0.000000
1.352113 1.852113 0.000000
1.362676 1.862676 0.000000
1.373239 1.873239 0.000000
1.383803 1.883803 0.000000
1.394366 1.894366 0.000000
1.404930 1.904930 0.000000
1.415493 1.915493 0.000000
1.426056 1.926056 0.000000
1.436620 1.936620 0.000000
1.447183 1.947183 0.000000
1.457746 1.957746 0.000000
1.468310 1.968310 0.000000
1.478873 1.978873 0.000000
1.489437 1.989437 0.000000
1.510417 2.010417 0.000000
1.520833 2.020833 0.000000
1.531250 2.031250 0.000000
1.541667 2.041667 0.000000
1.552083 2.052083 0.000000
1.562500 2.062500 0.000000
1.572917 2.072917 0.000000
1.583333 2.083333 0.000000
1.593750 2.093750 0.000000
1.604167 2.104167 0.000000
1.614583 2.114583 0.000000
1.625000 2.125000 0.000000
1.635417 2.135417 0.000000
1.645833 2.145833 0.000000
1.656250 2.156250 0.000000
1.666667 2.166667 0.000000
1.677083 2.177083 0.000000
1.687500 2.187500 0.000000
1.697917 2.197917 0.000000
1.708333 2.208333 0.000000
1.718750 2.218750 0.000000
1.729167 2.229167 0.000000
1.739583 2.239583 0.000000
1.750000 2.250000 0.000000
1.760417 2.260417 0.000000
1.770833 2.270833 0.000000
1.781250 2.281250 0.000000
1.791667 2.291667 0.000000
1.802083 2.302083 0.000000
1.812500 2.312500 0.000000
1.822917 2.322917 0.000000
1.833333 2.333333 0.000000
1.843750 2.343750 0.000000
1.854167 2.354167 0.000000
1.864583 2.364583 0.000000
1.875000 2.375000 0.000000
1.885417 2.385417 0.000000
1.895833 2.395833 0.000000
1.906250 2.406250 0.000000
1.916667 2.416667 0.000000
1.927083 2.427083 0.000000
1.937500 2.437500 0.000000
1.947917 2.447917 0.000000
1.958333 2.458333 0.000000
1.968750 2.468750 0.000000
1.979167 2.479167 0.000000
1.989583 2.489583 0.000000
0.206561 0.791563 0.000000
0.205359 0.816165 0.000000
0.186354 0.798211 0.000000
0.221961 0.800924 0.000000
0.280649 1.360489 0.000000
0.304015 1.400469 0.000000
0.229142 1.396096 0.000000
0.275922 1.451476 0.000000
1.869084 2.391788 0.000000
1.857928 2.378421 0.000000
1.238669 2.061899 0.000000
1.278787 2.082276 0.000000
1.238298 2.096047 0.000000
1.277579 2.032995 0.000000
0.402536 1.205823 0.000000
0.415290 1.176040 0.000000
0.428330 1.201952 0.000000
0.387294 1.172617 0.000000
0.146930 1.050586 0.000000
0.109488 1.087198 0.000000
0.102742 1.042403 0.000000
0.157178 1.091184 0.000000
0.588967 1.178581 0.000000
0.593116 1.153718 0.000000
0.608054 1.166752 0.000000
0.612180 1.145944 0.000000
0.860304 1.543784 0.000000
0.868821 1.521840 0.000000
0.878420 1.536650 0.000000
0.845380 1.517623 0.000000
1.129525 1.764330 0.000000
1.142005 1.751560 0.000000
1.145757 1.773681 0.000000
1.159368 1.759106 0.000000
1.968150 2.518865 0.000000
1.986105 2.509269 0.000000
1.986696 2.531115 0.000000
0.668964 1.191005 0.000000
0.683291 1.201259 0.000000
0.557625 1.074830 0.000000
0.569760 1.084377 0.000000
0.557769 1.089278 0.000000
0.707567 1.266174 0.000000
0.719026 1.281845 0.000000
0.700768 1.282275 0.000000
0.722329 1.266956 0.000000
0.468225 2.149688 0.000000
0.419106 2.064198 0.000000
0.523878 2.082648 0.000000
0.838546 1.421191 0.000000
0.823708 1.410355 0.000000
0.840477 1.404206 0.000000
0.818500 1.425973 0.000000
0.953187 1.488222 0.000000
0.959780 1.473222 0.000000
0.967054 1.485637 0.000000
1.047418 1.769126 0.000000
1.080240 1.782403 0.000000
1.047768 1.802712 0.000000
0.971392 1.693320 0.000000
0.949208 1.720793 0.000000
0.940644 1.684781 0.000000
0.381391 2.160909 0.000000
0.944091 1.477800 0.000000
0.530075 1.477351 0.000000
0.521303 1.516669 0.000000
0.474240 1.491166 0.000000
0.489489 1.546185 0.000000
1.537370 2.239326 0.000000
1.555275 2.267640 0.000000
1.532966 2.278201 0.000000
0.962010 1.661716 0.000000
0.986804 1.643200 0.000000
0.986259 1.672729 0.000000
1.049149 1.737940 0.000000
1.075111 1.737123 0.000000
[...]
POINT_DATA 3011
SCALARS UX float 1
LOOKUP_TABLE default
-0.082836
0.099816
0.000000
-0.000000
-0.087216
0.053044
0.095281
-0.056941
-0.030970
-0.004941
0.021153
0.047318
0.073537
0.099855
0.099952
0.100129
0.100353
0.100616
0.100897
0.101177
0.101387
0.101458
0.101369
0.101077
0.100670
0.100149
0.099613
0.099059
0.098522
0.098018
0.097566
0.097163
0.096807
0.096496
0.096223
0.095985
0.095774
0.095588
0.095424
0.095130
0.094946
0.094727
0.094453
0.094137
0.093720
0.093181
0.092486
0.091475
0.090052
0.087967
0.084598
0.078972
0.068888
0.051023
-0.000000
0.000000
0.000000
-0.000000
-0.000000
0.000000
-0.049675
-0.071527
-0.081566
-0.086995
-0.089664
-0.090818
-0.091155
-0.091194
-0.091090
-0.090941
-0.090809
-0.090731
-0.090690
-0.090686
-0.090710
-0.090750
-0.090806
-0.090870
-0.090943
-0.091018
-0.091098
-0.091175
-0.091248
-0.091316
-0.091377
-0.091428
-0.091472
-0.091507
-0.091540
-0.091584
-0.091646
-0.091670
-0.091604
-0.091473
-0.091696
-0.090935
-0.083320
-0.082876
-0.082685
-0.082723
-0.082750
-0.082785
-0.082815
-0.085998
-0.085144
-0.084045
-0.083277
-0.082639
-0.081396
-0.080470
-0.079440
-0.078496
-0.077414
-0.076458
-0.075980
-0.074758
-0.073475
-0.072197
-0.071385
-0.070755
-0.069857
-0.068558
-0.067777
-0.066265
-0.065786
-0.064633
-0.063765
-0.062799
-0.061669
-0.061111
-0.059827
-0.059516
-0.058188
-0.057512
-0.056039
-0.055074
-0.054157
-0.053204
-0.052190
-0.051130
-0.050437
-0.049420
-0.048271
-0.047433
-0.046150
-0.044899
-0.044821
-0.043803
-0.042251
-0.041594
-0.040395
-0.039683
-0.038625
-0.037309
-0.036244
-0.035103
-0.034348
-0.033470
-0.032710
-0.031745
-0.030786
-0.029426
-0.028830
-0.028146
-0.026800
-0.025675
-0.024590
-0.023703
-0.022739
-0.022330
-0.021066
-0.019571
-0.018704
-0.017414
-0.016952
-0.015608
-0.015055
-0.014388
-0.013511
-0.012234
-0.011517
-0.010554
-0.009550
-0.008771
-0.007576
-0.006740
-0.005789
-0.004253
-0.003353
-0.002768
-0.001417
-0.000042
0.000273
0.001168
0.001930
0.003085
0.004022
0.005035
0.006219
0.007094
0.008114
0.008860
0.010044
0.010821
0.012050
0.013512
0.013710
0.015257
0.016359
0.017611
0.018134
0.019001
0.020328
0.021240
0.022292
0.022895
0.024113
0.025211
0.025998
0.027393
0.028386
0.028815
0.030133
0.031481
0.031720
0.033457
0.034165
0.035017
0.036283
0.037239
0.038345
0.039382
0.040058
0.041189
0.041869
0.043229
0.044027
0.045287
0.046255
0.047461
0.048383
0.049516
0.050530
0.051468
0.054166
0.054463
0.055346
0.056186
0.057098
0.058011
0.058914
0.059828
0.060762
0.061685
0.062610
0.063532
0.064457
0.065379
0.066298
0.067217
0.068134
0.069046
0.069958
0.070866
0.071773
0.072677
0.073580
0.074476
0.075373
0.076267
0.077159
0.078046
0.078932
0.079814
0.080693
0.081570
0.082443
0.083317
0.084186
0.085052
0.085917
0.086780
0.087641
0.088499
0.089355
0.090209
0.091060
0.091908
0.092755
0.093598
0.094440
-0.072646
-0.072744
-0.074465
-0.071272
-0.065138
-0.062978
-0.069804
-0.065507
0.084363
0.083451
0.025450
0.029450
0.025536
0.029084
-0.054224
-0.053106
-0.051887
-0.055652
-0.077630
-0.080989
-0.081665
-0.076644
-0.037349
-0.036950
-0.035662
-0.035162
-0.012065
-0.011332
-0.010435
-0.013467
0.013305
0.014340
0.014863
0.015991
0.092258
0.093950
0.093808
-0.030158
-0.028294
-0.040067
-0.038292
-0.040259
-0.026394
-0.025354
-0.026996
-0.025071
-0.048431
-0.052818
-0.043082
-0.014263
-0.015643
-0.014167
-0.016073
-0.003663
-0.002435
-0.002130
0.005808
0.008905
0.006010
-0.001484
-0.003429
-0.004336
-0.056532
-0.004429
-0.042297
-0.043063
-0.047383
-0.045951
0.054013
0.055627
0.053485
-0.002450
-0.000242
-0.000193
0.005810
0.008177
0.007750
0.056975
0.007388
0.014391
0.015500
0.016016
0.013799
0.038549
0.042038
0.041433
0.047327
0.044223
0.044092
-0.037022
-0.037592
-0.034326
-0.049031
-0.043268
-0.046861
-0.034866
-0.042026
-0.063471
-0.060634
-0.063735
-0.061253
0.005059
0.000252
0.005111
-0.002991
-0.054149
-0.052934
-0.047772
0.052765
0.054422
0.051699
-0.060077
-0.071836
-0.076938
-0.075226
-0.031647
-0.029105
-0.028500
-0.026315
-0.080750
-0.075279
-0.071215
-0.081356
0.079407
0.081044
0.081971
-0.002392
0.000488
0.003113
-0.052063
-0.049525
0.007049
-0.021468
-0.021109
-0.024656
-0.018664
0.050751
0.050399
0.048456
-0.014459
-0.013794
-0.016553
0.052613
-0.076525
-0.075665
-0.075216
-0.041512
-0.040758
-0.038884
-0.086147
-0.085922
-0.039145
-0.014933
-0.014586
-0.010613
-0.086097
-0.009834
0.005835
0.009427
-0.075167
-0.073610
-0.071709
-0.038945
-0.039045
-0.037521
-0.040251
-0.040022
0.059009
0.060339
0.059065
0.020406
0.018026
0.017434
0.013591
0.015794
0.012792
0.004290
0.004405
0.003066
0.011623
-0.052795
-0.053899
-0.054498
-0.014133
-0.015907
-0.015393
-0.006707
-0.014094
-0.081664
-0.079393
-0.082931
-0.038420
-0.040233
0.079253
0.002460
0.076284
0.075636
0.074373
-0.016496
-0.014607
-0.025891
-0.027051
0.067812
0.069037
0.064714
-0.028073
-0.030392
-0.028842
0.030584
0.029609
0.033728
0.025833
0.077348
0.078393
0.055000
0.023142
0.019742
0.020687
0.004479
0.005902
0.006278
0.046603
0.052597
0.037281
0.042232
0.048780
0.050910
0.048921
-0.036524
-0.039078
-0.039732
-0.041815
-0.041426
0.005956
0.073071
0.070547
0.073023
0.055176
0.051124
0.054347
0.052163
0.054010
0.057026
0.056275
0.069709
0.069430
-0.006871
-0.005219
-0.004855
-0.007122
-0.013089
-0.011763
-0.012292
-0.010897
0.034111
0.032033
0.034667
0.032296
0.033411
0.031618
0.050606
0.052562
0.051219
0.072561
0.071479
-0.021301
-0.021060
-0.023284
-0.020169
-0.020455
-0.017963
-0.017820
-0.022836
-0.023289
-0.021621
-0.008100
-0.009609
-0.008617
-0.009443
0.022368
0.022687
0.024130
0.020820
-0.006474
-0.019640
-0.019306
-0.019883
-0.018954
-0.017185
-0.020672
0.064466
0.062845
0.062528
0.060966
0.015391
0.016809
-0.008722
-0.008548
-0.006272
0.012555
0.012688
0.010853
0.011367
0.009760
0.010820
0.010824
0.000274
-0.000639
0.001190
-0.001736
0.044156
0.045000
-0.023380
-0.021641
-0.023512
0.007831
0.008034
0.006612
0.039742
0.035820
0.034061
0.009383
0.004753
0.006026
0.004014
0.050394
0.050597
0.043227
0.045136
0.043153
0.045244
0.029252
0.029983
0.027762
0.028955
-0.083645
-0.085177
-0.087658
-0.079169
-0.052756
-0.051272
-0.051390
-0.031364
-0.026111
-0.047771
0.052296
-0.054199
-0.054837
-0.057256
-0.057631
0.012461
0.016581
0.017536
0.021394
-0.029790
-0.024571
-0.023713
-0.019985
0.067677
0.068958
0.069179
0.070213
0.052653
0.049276
-0.078225
-0.083900
-0.085054
-0.081708
-0.083678
-0.082225
-0.083185
-0.077944
-0.075778
0.005198
0.002764
0.003651
0.036225
0.032760
-0.046574
-0.045885
-0.048693
-0.047622
-0.050438
-0.010916
-0.009981
-0.013386
-0.012661
-0.055841
-0.057382
-0.057950
-0.056121
-0.022419
-0.017773
-0.074393
-0.073240
-0.071377
-0.072441
-0.075221
-0.082918
-0.084743
-0.083368
-0.082295
-0.081618
-0.071278
-0.069542
-0.069019
-0.070605
-0.068347
-0.017128
-0.014740
-0.015556
0.016312
-0.014640
-0.026834
-0.013488
-0.032270
-0.047776
0.086711
0.085213
0.088561
0.082973
0.080201
0.082595
-0.063807
-0.064737
-0.066321
-0.072304
-0.065659
-0.066429
-0.074864
0.075685
0.081979
0.081050
0.075816
0.003462
0.003231
-0.051688
-0.049681
-0.051445
-0.048999
-0.074521
-0.075813
-0.088825
-0.087227
-0.086557
-0.088364
0.084452
0.084095
0.081663
0.083295
-0.058131
-0.055961
0.028946
0.032258
0.027756
0.022431
0.033594
0.026010
0.015448
0.016781
0.002488
-0.025643
-0.025962
-0.023013
-0.087785
-0.087685
-0.089553
-0.086135
0.090440
0.048877
-0.067389
-0.067917
-0.070532
-0.090429
-0.090091
-0.069795
0.076366
0.075474
0.077511
-0.075150
-0.073825
-0.075790
-0.082795
-0.073807
-0.072592
0.089150
0.091114
0.089805
0.090392
0.091380
0.021842
0.025328
-0.069879
-0.069574
-0.067276
0.091818
0.038232
0.040484
0.043020
-0.051247
-0.047567
-0.045816
-0.049831
-0.044256
-0.042702
-0.031869
-0.029699
-0.082645
-0.082987
-0.087953
-0.085558
-0.084671
-0.083037
-0.049225
0.054578
-0.050759
-0.086052
-0.087875
-0.086321
-0.085066
0.090570
0.087411
-0.078752
-0.080815
-0.080044
0.092411
-0.087303
0.078133
0.080766
0.078033
-0.067309
-0.069090
-0.066664
-0.018120
-0.010375
-0.010070
-0.003049
-0.001915
-0.076571
-0.075020
-0.077652
-0.078975
0.036169
0.031728
-0.065306
-0.064521
-0.066922
-0.065203
-0.045763
-0.045821
-0.049209
-0.046215
-0.049880
-0.055687
-0.050817
-0.051275
-0.056537
-0.087491
-0.088993
0.076826
0.078738
-0.057234
-0.055690
-0.059676
-0.060599
-0.063992
0.052716
0.053272
0.051678
-0.038157
-0.039970
-0.055342
-0.058035
-0.037548
-0.034810
0.016458
0.010150
0.010476
0.014657
-0.085023
-0.063240
-0.062697
-0.063702
-0.061368
0.014145
0.079066
0.078242
0.076806
0.076166
-0.012564
-0.012360
-0.006535
-0.006671
-0.001824
-0.000915
0.073379
0.075110
0.091820
0.088586
-0.002122
0.002190
0.081305
0.084333
-0.083500
-0.053196
-0.058639
-0.066164
-0.066429
-0.064530
-0.067287
-0.067701
0.031251
-0.083128
-0.089720
0.033479
0.011596
0.008150
0.089253
0.089062
0.089689
-0.088427
-0.075777
-0.078161
-0.084600
0.010969
0.008512
0.006556
0.009387
0.074980
-0.074141
-0.072939
-0.070320
-0.068833
0.028873
0.027084
0.024046
0.026416
0.080456
-0.088107
-0.089280
-0.086813
-0.068448
-0.082769
-0.060127
-0.068202
-0.055823
-0.060949
-0.075524
-0.084420
-0.085149
0.015770
0.016617
0.007312
0.024955
-0.016562
-0.024681
0.002424
-0.083570
-0.026489
-0.080391
0.002774
-0.014367
-0.011218
-0.078712
-0.080622
-0.079024
-0.084751
-0.081509
-0.025923
-0.009163
-0.014009
-0.020261
-0.077803
-0.000352
-0.001367
-0.002237
-0.027733
-0.029184
-0.023927
-0.067168
-0.067473
-0.071028
-0.059154
-0.058222
-0.059890
-0.060892
-0.027246
-0.023483
-0.023309
-0.019261
-0.019278
0.020429
0.015778
0.002178
-0.005036
-0.007183
-0.005199
-0.003491
0.022882
0.015624
0.009451
0.009022
0.003267
-0.074529
-0.063209
-0.058697
-0.050322
-0.079402
-0.078867
-0.080418
-0.053072
0.093005
-0.063259
-0.064722
-0.067922
-0.066098
-0.042057
-0.048536
-0.037230
-0.034102
-0.030794
-0.086156
-0.062233
-0.061431
-0.082051
0.065669
0.065707
-0.006340
-0.068657
0.067025
0.086327
-0.063998
-0.072554
-0.064901
0.019260
-0.074826
-0.078483
-0.082324
-0.088192
-0.085002
0.079509
-0.076227
0.006644
0.000785
0.010832
-0.080970
-0.084216
0.085193
-0.062563
-0.062415
-0.064040
-0.080062
0.071209
0.066866
0.071029
0.081681
0.081505
0.082855
-0.077969
-0.074978
-0.074453
-0.076136
-0.080705
0.058109
0.044265
0.044443
0.032408
-0.059852
-0.060117
-0.028356
-0.027132
-0.051835
-0.043841
0.054263
-0.020219
-0.086886
-0.043211
-0.044941
-0.043551
0.003774
-0.037473
-0.035035
-0.035412
-0.077114
-0.066485
-0.059507
-0.059189
-0.052413
-0.074448
-0.031249
-0.034551
-0.034004
0.067808
0.078431
0.072376
0.006653
-0.053848
-0.053977
-0.050990
-0.081316
-0.075718
-0.076923
-0.080202
-0.041650
0.022484
-0.061141
-0.070742
-0.041220
-0.037871
-0.081510
-0.073051
-0.033275
-0.033057
-0.048041
0.013769
0.087691
0.086323
-0.077941
-0.056485
-0.021646
-0.084071
-0.069325
-0.064486
-0.071045
0.029191
-0.086781
0.025781
0.026290
0.024491
-0.033011
-0.020786
-0.080901
-0.036447
-0.051689
-0.055568
-0.057915
0.079151
-0.010856
-0.012708
-0.009704
-0.064371
-0.065345
-0.038037
-0.053666
-0.053091
-0.051472
-0.080517
-0.082047
-0.055113
-0.072557
0.069713
0.070814
-0.047762
-0.048372
-0.049821
0.067736
-0.017073
-0.016039
0.074095
0.074978
0.025053
-0.003039
-0.009397
-0.073503
-0.075860
0.005374
0.007988
0.019573
0.020979
-0.044297
-0.051637
-0.063811
-0.061769
-0.062595
0.058568
0.058036
0.006850
0.012524
-0.054905
-0.078320
-0.072959
-0.042066
-0.042859
-0.040238
-0.069856
-0.082417
-0.067542
-0.024523
-0.028475
-0.063725
-0.065429
-0.065096
0.078246
-0.032995
-0.031563
-0.036247
-0.078123
-0.076791
-0.059786
-0.057484
-0.043879
-0.036662
0.002151
-0.009917
0.029157
0.082748
-0.081890
-0.039973
-0.036821
-0.048789
-0.057330
-0.060571
-0.037214
-0.039547
-0.040146
0.063890
-0.020049
-0.031343
-0.034113
-0.006239
-0.019498
-0.046499
-0.046685
-0.045071
0.019331
0.020458
0.024593
0.002741
-0.031811
-0.059576
-0.060464
-0.061960
-0.062385
0.028640
0.030194
0.029010
-0.038991
-0.034763
-0.082916
-0.038651
-0.040153
-0.037895
-0.041247
0.015807
0.088171
0.087483
0.011336
0.027210
0.008101
0.019055
-0.071095
-0.070487
-0.069631
-0.060354
-0.058995
-0.059034
-0.040738
0.061146
0.057712
-0.015893
0.001416
-0.000803
-0.061718
-0.002685
-0.061286
-0.059683
-0.072665
-0.072412
-0.071192
-0.046323
-0.003335
-0.000858
-0.003795
0.000361
0.086850
-0.068537
-0.069948
0.062583
-0.067211
-0.068016
0.076005
0.072819
0.071481
0.067487
0.068811
0.062692
0.067846
-0.077517
-0.076296
-0.077698
-0.054367
-0.059533
-0.061601
-0.008474
-0.013741
-0.046316
-0.071697
-0.056056
-0.046723
-0.034754
-0.073660
-0.073578
0.014926
-0.044764
-0.043966
-0.062006
-0.077950
0.086371
-0.020962
-0.073274
-0.079999
-0.067594
-0.018095
-0.023642
0.003443
-0.016406
-0.020427
-0.022864
-0.027928
-0.035120
-0.004499
-0.010896
-0.000186
-0.010026
0.004144
-0.053074
-0.065795
0.062620
0.063805
-0.059805
-0.046883
-0.028650
-0.031511
-0.034333
0.064502
0.055478
-0.007265
-0.009803
-0.009862
-0.007854
0.019309
0.020731
-0.057415
-0.058072
-0.056612
-0.071612
-0.007382
0.004680
-0.051053
0.049666
0.053333
-0.054446
-0.037321
-0.030743
-0.034768
0.087664
0.066672
0.071442
0.071461
-0.060010
-0.062690
0.085899
-0.044190
-0.026889
-0.046003
0.047955
-0.053016
-0.053694
-0.051605
-0.054867
-0.059951
-0.035855
-0.055752
0.043682
0.040042
0.038360
0.047383
0.048959
0.047763
0.045315
0.047238
0.022773
0.062874
0.061092
-0.056287
0.030520
0.024268
-0.045069
-0.044717
-0.043639
0.066340
0.061775
-0.028098
-0.044296
-0.033433
-0.052865
-0.048221
-0.024023
-0.023503
-0.026012
0.086684
0.085967
-0.036324
-0.024745
-0.043548
0.034762
0.060043
0.062657
0.064558
0.047465
0.047638
0.059321
-0.059728
-0.069615
-0.068163
-0.008015
-0.012489
-0.024490
-0.090161
-0.022080
0.042355
0.031704
0.034809
0.037694
-0.041703
-0.042564
-0.041204
-0.043322
0.044544
-0.049634
-0.050225
-0.048332
-0.026740
0.042184
0.043006
-0.090233
0.066115
0.066084
-0.057227
-0.004492
-0.089488
0.064305
-0.005566
0.039153
-0.043820
0.066115
-0.065690
0.044841
-0.042176
-0.038016
-0.020269
-0.025630
-0.063739
0.071987
0.073469
0.063180
0.081216
0.018593
0.019972
0.019886
-0.021858
-0.047512
-0.020335
-0.015971
0.018537
0.021170
-0.048123
0.021457
-0.032732
-0.034662
-0.032961
-0.030748
-0.032230
-0.030908
-0.029958
-0.028833
-0.028180
-0.068962
0.013463
-0.020970
0.085545
0.021054
0.022918
-0.042091
0.018861
-0.001330
-0.000999
-0.059695
-0.059210
-0.060387
0.005039
0.006706
0.003236
0.056060
0.056925
0.050242
0.052169
0.055733
0.057793
0.057261
0.057114
-0.060266
-0.086802
0.008391
0.008599
0.006914
0.013355
-0.038499
0.024856
0.026923
0.027048
-0.002348
0.000296
-0.028824
-0.027536
0.028847
0.027533
0.029678
-0.002704
-0.003939
0.011742
0.001277
0.002034
-0.056199
-0.055026
0.068308
0.070411
-0.002529
-0.000520
-0.000697
0.069314
0.067161
0.059287
0.056979
-0.057409
0.035719
0.059272
-0.027942
-0.026465
-0.026009
0.041091
0.043128
0.040721
-0.032197
-0.051997
0.043121
-0.047957
-0.048079
-0.049637
0.045624
0.040381
-0.003860
-0.005145
-0.022334
-0.020803
-0.022249
0.047172
0.047261
0.045408
-0.006377
-0.005053
-0.023988
-0.006850
-0.021247
-0.019294
-0.018326
0.054734
0.052935
-0.069817
-0.070981
-0.016301
-0.015015
-0.013805
-0.015572
-0.013959
-0.084562
-0.006009
-0.041927
-0.042946
-0.041404
0.050886
-0.036690
-0.044316
-0.045036
-0.045971
0.030647
-0.016568
-0.066112
0.029848
0.055635
0.054121
0.035804
0.036977
0.037815
0.039111
0.012680
0.013243
0.014163
0.011833
0.012560
0.034626
0.065848
0.064203
-0.019617
-0.018567
-0.018511
-0.027556
-0.025565
-0.010280
-0.008905
-0.010501
0.015396
-0.034453
0.016303
0.017084
0.017952
0.015347
0.067259
0.009184
0.009776
0.062477
0.062314
0.064307
0.060346
0.027231
0.047771
-0.026000
-0.024725
0.027839
0.031370
0.030809
0.003024
0.002168
-0.032641
-0.033637
-0.034457
-0.032131
-0.031188
-0.007402
-0.006325
-0.007985
0.025271
0.025755
0.023506
0.025519
0.026976
0.058543
0.057957
0.049837
0.045783
0.039053
0.039748
0.041252
0.040933
0.042545
0.041272
-0.041875
0.054764
0.056388
0.056994
0.061817
0.060062
0.068012
0.068612
-0.009150
-0.033300
-0.033265
0.069802
0.071817
-0.053447
0.070806
0.057449
0.061663
0.043869
0.073137
-0.089215
-0.089585
-0.089086
-0.089713
-0.085589
0.012396
-0.017600
0.001203
-0.033387
-0.032893
-0.034189
-0.086643
-0.027899
0.043130
0.046513
0.028549
0.021694
0.037501
0.037580
0.035853
-0.033352
0.036389
0.000604
0.001513
0.002533
-0.033674
0.065396
0.002566
0.038055
0.036969
0.073704
0.075349
0.056521
0.057622
0.059129
0.060781
0.060809
0.010367
0.011698
-0.070337
0.033572
0.058054
0.059428
0.060606
-0.005538
-0.004352
-0.003761
-0.029690
-0.028838
-0.020857
-0.022573
-0.010484
-0.012205
0.017209
0.015199
0.014530
0.045356
-0.032460
-0.031183
-0.034957
0.071290
0.069559
0.038147
0.029952
0.027324
0.018838
-0.024697
-0.027919
-0.031475
0.074059
0.025105
0.022731
0.022653
0.072586
0.073002
0.071340
-0.056966
0.040677
-0.053190
-0.016446
-0.016992
-0.018091
-0.057897
0.019518
-0.042066
-0.080146
-0.031237
0.013149
0.012563
-0.006813
-0.003004
0.018580
-0.017865
-0.017110
-0.015696
0.017564
0.040221
-0.031540
-0.023689
-0.024867
-0.016140
-0.017882
0.020388
-0.017064
-0.077115
-0.077310
0.048803
0.016974
-0.046685
0.004245
0.003915
0.034229
0.009553
0.067380
0.059197
0.061103
-0.050040
0.016117
-0.029972
0.028211
-0.072318
-0.026796
-0.030055
0.024270
0.025738
0.023873
0.008316
0.009519
0.036336
0.033703
-0.064097
-0.063997
0.001984
-0.004493
0.031229
0.008920
0.003640
-0.019380
0.061731
-0.017659
0.062835
0.062294
0.002579
-0.036145
-0.034956
0.067167
0.064885
0.034972
0.034552
-0.001363
0.054088
0.056589
0.055501
0.038265
0.039938
0.072137
0.072961
0.027530
0.045703
0.048222
0.033038
-0.074277
0.058094
0.040178
0.033016
-0.035716
0.020055
0.043497
-0.051114
-0.042175
0.047105
0.008599
0.061149
0.064722
-0.031997
0.001373
-0.077734
-0.049490
-0.007628
-0.009016
-0.010548
-0.014763
-0.054643
-0.030636
-0.019494
-0.006882
0.038364
0.019471
0.020290
0.022092
0.011635
0.061119
-0.011129
0.050235
0.047419
0.046598
-0.046014
-0.027357
-0.007413
0.000884
0.001736
0.067990
0.050862
-0.045149
0.024244
0.022776
-0.006506
0.036725
0.074479
0.045315
0.050944
0.050402
-0.034007
0.049260
-0.013405
0.035971
0.073233
0.027315
-0.012871
-0.011570
-0.010618
-0.014212
-0.013469
-0.011881
-0.012217
0.010053
0.009479
0.024382
-0.003190
0.031202
0.032071
0.033182
-0.009874
0.007283
0.039734
0.053128
0.016447
-0.011452
0.017437
0.022253
0.022912
0.038923
-0.011620
0.007601
0.005897
0.042902
0.021027
0.042973
-0.012700
0.006222
0.000845
0.071686
0.054159
0.024987
0.034246
0.034830
0.058063
0.017406
0.030712
0.037584
-0.043073
-0.024464
0.047287
0.031006
0.055677
0.064216
0.065451
-0.012388
-0.005604
0.021883
-0.049646
-0.048431
-0.047058
-0.048741
-0.047062
-0.047081
-0.019669
-0.020901
-0.019508
0.087204
0.083079
0.083109
0.048650
0.046785
0.048666
0.079550
0.088689
0.006957
0.005741
-0.008253
0.057301
0.071765
0.070156
-0.023663
-0.026304
-0.024280
0.090192
0.087921
0.091858
0.087255
-0.024750
-0.048712
-0.045866
-0.027003
-0.026995
-0.025058
-0.022295
-0.020786
-0.027406
-0.029429
0.042192
0.039793
0.040130
0.040786
-0.025037
-0.015083
-0.029540
-0.032344
-0.030064
-0.009553
-0.001150
0.036985
0.031991
0.035304
0.032696
-0.038800
-0.036899
-0.039180
0.021931
0.023084
0.021711
-0.000015
-0.001638
-0.000907
-0.003062
0.091305
0.089541
-0.037562
-0.031304
-0.024006
-0.056100
-0.050778
-0.050778
-0.010731
-0.008488
-0.008815
-0.044882
-0.034492
-0.031313
-0.030786
-0.006063
0.032893
0.036383
0.037259
0.029343
0.062640
0.062920
0.070563
0.055258
0.001278
0.008819
0.007591
0.045359
0.047112
0.048545
0.050808
-0.019111
-0.030151
-0.023375
-0.071132
-0.074494
-0.007639
-0.008695
-0.006588
-0.009086
0.064623
0.066522
0.064965
0.067406
0.020172
0.018963
0.024329
0.016300
0.045200
0.046229
0.044513
0.047043
0.060878
0.061303
0.063041
0.059474
-0.021259
-0.019287
-0.046541
-0.047481
-0.059252
-0.057983
-0.060620
-0.041128
-0.043814
-0.042633
0.049225
0.048395
-0.016538
-0.015977
-0.017717
-0.017183
-0.053555
-0.027249
-0.028952
-0.027022
-0.028884
-0.053982
-0.053415
-0.052105
-0.050866
-0.039895
-0.041641
-0.042027
-0.064689