# vtk DataFile Version 2.0
Test
ASCII
DATASET POLYDATA
POINTS 3011 float
0.000000 0.000000 0.000000
2.000000 0.000000 0.000000
2.000000 4.000000 0.000000
0.000000 4.000000 0.000000
0.000000 0.500000 0.000000
1.500000 2.000000 0.000000
2.000000 2.500000 0.000000
0.285714 0.000000 0.000000
0.571429 0.000000 0.000000
0.857143 0.000000 0.000000
1.142857 0.000000 0.000000
1.428571 0.000000 0.000000
1.714286 0.000000 0.000000
2.000000 0.276366 0.000000
2.000000 0.523709 0.000000
2.000000 0.745076 0.000000
2.000000 0.943195 0.000000
2.000000 1.120508 0.000000
2.000000 1.279199 0.000000
2.000000 1.421225 0.000000
2.000000 1.548336 0.000000
2.000000 1.662097 0.000000
2.000000 1.763911 0.000000
2.000000 1.855033 0.000000
2.000000 1.936585 0.000000
2.000000 2.009573 0.000000
2.000000 2.074896 0.000000
2.000000 2.133358 0.000000
2.000000 2.185681 0.000000
2.000000 2.232509 0.000000
2.000000 2.274419 0.000000
2.000000 2.311927 0.000000
2.000000 2.345497 0.000000
2.000000 2.375541 0.000000
2.000000 2.402430 0.000000
2.000000 2.426495 0.000000
2.000000 2.448033 0.000000
2.000000 2.467309 0.000000
2.000000 2.484560 0.000000
2.000000 2.516256 0.000000
2.000000 2.535859 0.000000
2.000000 2.559499 0.000000
2.000000 2.588006 0.000000
2.000000 2.622383 0.000000
2.000000 2.663839 0.000000
2.000000 2.713831 0.000000
2.000000 2.774116 0.000000
2.000000 2.846815 0.000000
2.000000 2.934483 0.000000
2.000000 3.040202 0.000000
2.000000 3.167691 0.000000
2.000000 3.321430 0.000000
2.000000 3.506825 0.000000
2.000000 3.730395 0.000000
1.714286 4.000000 0.000000
1.428571 4.000000 0.000000
1.142857 4.000000 0.000000
0.857143 4.000000 0.000000
0.571429 4.000000 0.000000
0.285714 4.000000 0.000000
0.000000 3.713462 0.000000
0.000000 3.449209 0.000000
0.000000 3.205508 0.000000
0.000000 2.980761 0.000000
0.000000 2.773493 0.000000
0.000000 2.582346 0.000000
0.000000 2.406065 0.000000
0.000000 2.243495 0.000000
0.000000 2.093568 0.000000
0.000000 1.955302 0.000000
0.000000 1.827789 0.000000
0.000000 1.710194 0.000000
0.000000 1.601745 0.000000
0.000000 1.501730 0.000000
0.000000 1.409494 0.000000
0.000000 1.324431 0.000000
0.000000 1.245984 0.000000
0.000000 1.173639 0.000000
0.000000 1.106920 0.000000
0.000000 1.045390 0.000000
0.000000 0.988645 0.000000
0.000000 0.936314 0.000000
0.000000 0.888053 0.000000
0.000000 0.843545 0.000000
0.000000 0.802499 0.000000
0.000000 0.764646 0.000000
0.000000 0.729736 0.000000
0.000000 0.697541 0.000000
0.000000 0.667851 0.000000
0.000000 0.640469 0.000000
0.000000 0.615217 0.000000
0.000000 0.591929 0.000000
0.000000 0.570453 0.000000
0.000000 0.550646 0.000000
0.000000 0.532380 0.000000
0.000000 0.515535 0.000000
0.000000 0.483768 0.000000
0.000000 0.461535 0.000000
0.000000 0.431083 0.000000
0.000000 0.389372 0.000000
0.000000 0.332241 0.000000
0.000000 0.253989 0.000000
0.000000 0.146807 0.000000
0.010563 0.510563 0.000000
0.021127 0.521127 0.000000
0.031690 0.531690 0.000000
0.042254 0.542254 0.000000
0.052817 0.552817 0.000000
0.063380 0.563380 0.000000
0.073944 0.573944 0.000000
0.084507 0.584507 0.000000
0.095070 0.595070 0.000000
0.105634 0.605634 0.000000
0.116197 0.616197 0.000000
0.126761 0.626761 0.000000
0.137324 0.637324 0.000000
0.147887 0.647887 0.000000
0.158451 0.658451 0.000000
0.169014 0.669014 0.000000
0.179577 0.679577 0.000000
0.190141 0.690141 0.000000
0.200704 0.700704 0.000000
0.211268 0.711268 0.000000
0.221831 0.721831 0.000000
0.232394 0.732394 0.000000
0.242958 0.742958 0.000000
0.253521 0.753521 0.000000
0.264085 0.764085 0.000000
0.274648 0.774648 0.000000
0.285211 0.785211 0.000000
0.295775 0.795775 0.000000
0.306338 0.806338 0.000000
0.316901 0.816901 0.000000
0.327465 0.827465 0.000000
0.338028 0.838028 0.000000
0.348592 0.848592 0.000000
0.359155 0.859155 0.000000
0.369718 0.869718 0.000000
0.380282 0.880282 0.000000
0.390845 0.890845 0.000000
0.401408 0.901408 0.000000
0.411972 0.911972 0.000000
0.422535 0.922535 0.000000
0.433099 0.933099 0.000000
0.443662 0.943662 0.000000
0.454225 0.954225 0.000000
0.464789 0.964789 0.000000
0.475352 0.975352 0.000000
0.485915 0.985915 0.000000
0.496479 0.996479 0.000000
0.507042 1.007042 0.000000
0.517606 1.017606 0.000000
0.528169 1.028169 0.000000
0.538732 1.038732 0.000000
0.549296 1.049296 0.000000
0.559859 1.059859 0.000000
0.570423 1.070423 0.000000
0.580986 1.080986 0.000000
0.591549 1.091549 0.000000
0.602113 1.102113 0.000000
0.612676 1.112676 0.000000
0.623239 1.123239 0.000000
0.633803 1.133803 0.000000
0.644366 1.144366 0.000000
0.654930 1.154930 0.000000
0.665493 1.165493 0.000000
0.676056 1.176056 0.000000
0.686620 1.186620 0.000000
0.697183 1.197183 0.000000
0.707746 1.207746 0.000000
0.718310 1.218310 0.000000
0.728873 1.228873 0.000000
0.739437 1.239437 0.000000
0.750000 1.250000 0.000000
0.760563 1.260563 0.000000
0.771127 1.271127 0.000000
0.781690 1.281690 0.000000
0.792254 1.292254 0.000000
0.802817 1.302817 0.000000
0.813380 1.313380 0.000000
0.823944 1.323944 0.000000
0.834507 1.334507 0.000000
0.845070 1.345070 0.000000
0.855634 1.355634 0.000000
0.866197 1.366197 0.000000
0.876761 1.376761 0.000000
0.887324 1.387324 0.000000
0.897887 1.397887 0.000000
0.908451 1.408451 0.000000
0.919014 1.419014 0.000000
0.929577 1.429577 0.000000
0.940141 1.440141 0.000000
0.950704 1.450704 0.000000
0.961268 1.461268 0.000000
0.971831 1.471831 0.000000
0.982394 1.482394 0.000000
0.992958 1.492958 0.000000
1.003521 1.503521 0.000000
1.014085 1.514085 0.000000
1.024648 1.524648 0.000000
1.035211 1.535211 0.000000
1.045775 1.545775 0.000000
1.056338 1.556338 0.000000
1.066901 1.566901 0.000000
1.077465 1.577465 0.000000
1.088028 1.588028 0.000000
1.098592 1.598592 0.000000
1.109155 1.609155 0.000000
1.119718 1.619718 0.000000
1.130282 1.630282 0.000000
1.140845 1.640845 0.000000
1.151408 1.651408 0.000000
1.161972 1.661972 0.000000
1.172535 1.672535 0.000000
1.183099 1.683099 0.000000
1.193662 1.693662 0.000000
1.204225 1.704225 0.000000
1.214789 1.714789 0.000000
1.225352 1.725352 0.000000
1.235915 1.735915 0.000000
1.246479 1.746479 0.000000
1.257042 1.757042 0.000000
1.267606 1.767606 0.000000
1.278169 1.778169 0.000000
1.288732 1.788732 0.000000
1.299296 1.799296 0.000000
1.309859 1.809859 0.000000
1.320423 1.820423 0.000000
1.330986 1.830986 0.000000
1.341549 1.841549 0.000000
1.352113 1.852113 0.000000
1.362676 1.862676 0.000000
1.373239 1.873239 0.000000
1.383803 1.883803 0.000000
1.394366 1.894366 0.000000
1.404930 1.904930 0.000000
1.415493 1.915493 0.000000
1.426056 1.926056 0.000000
1.436620 1.936620 0.000000
1.447183 1.947183 0.000000
1.457746 1.957746 0.000000
1.468310 1.968310 0.000000
1.478873 1.978873 0.000000
1.489437 1.989437 0.000000
1.510417 2.010417 0.000000
1.520833 2.020833 0.000000
1.531250 2.031250 0.000000
1.541667 2.041667 0.000000
1.552083 2.052083 0.000000
1.562500 2.062500 0.000000
1.572917 2.072917 0.000000
1.583333 2.083333 0.000000
1.593750 2.093750 0.000000
1.604167 2.104167 0.000000
1.614583 2.114583 0.000000
1.625000 2.125000 0.000000
1.635417 2.135417 0.000000
1.645833 2.145833 0.000000
1.656250 2.156250 0.000000
1.666667 2.166667 0.000000
1.677083 2.177083 0.000000
1.687500 2.187500 0.000000
1.697917 2.197917 0.000000
1.708333 2.208333 0.000000
1.718750 2.218750 0.000000
1.729167 2.229167 0.000000
1.739583 2.239583 0.000000
1.750000 2.250000 0.000000
1.760417 2.260417 0.000000
1.770833 2.270833 0.000000
1.781250 2.281250 0.000000
1.791667 2.291667 0.000000
1.802083 2.302083 0.000000
1.812500 2.312500 0.000000
1.822917 2.322917 0.000000
1.833333 2.333333 0.000000
1.843750 2.343750 0.000000
1.854167 2.354167 0.000000
1.864583 2.364583 0.000000
1.875000 2.375000 0.000000
1.885417 2.385417 0.000000
1.895833 2.395833 0.000000
1.906250 2.406250 0.000000
1.916667 2.416667 0.000000
1.927083 2.427083 0.000000
1.937500 2.437500 0.000000
1.947917 2.447917 0.000000
1.958333 2.458333 0.000000
1.968750 2.468750 0.000000
1.979167 2.479167 0.000000
1.989583 2.489583 0.000000
0.206561 0.791563 0.000000
0.205359 0.816165 0.000000
0.186354 0.798211 0.000000
0.221961 0.800924 0.000000
0.280649 1.360489 0.000000
0.304015 1.400469 0.000000
0.229142 1.396096 0.000000
0.275922 1.451476 0.000000
1.869084 2.391788 0.000000
1.857928 2.378421 0.000000
1.238669 2.061899 0.000000
1.278787 2.082276 0.000000
1.238298 2.096047 0.000000
1.277579 2.032995 0.000000
0.402536 1.205823 0.000000
0.415290 1.176040 0.000000
0.428330 1.201952 0.000000
0.387294 1.172617 0.000000
0.146930 1.050586 0.000000
0.109488 1.087198 0.000000
0.102742 1.042403 0.000000
0.157178 1.091184 0.000000
0.588967 1.178581 0.000000
0.593116 1.153718 0.000000
0.608054 1.166752 0.000000
0.612180 1.145944 0.000000
0.860304 1.543784 0.000000
0.868821 1.521840 0.000000
0.878420 1.536650 0.000000
0.845380 1.517623 0.000000
1.129525 1.764330 0.000000
1.142005 1.751560 0.000000
1.145757 1.773681 0.000000
1.159368 1.759106 0.000000
1.968150 2.518865 0.000000
1.986105 2.509269 0.000000
1.986696 2.531115 0.000000
0.668964 1.191005 0.000000
0.683291 1.201259 0.000000
0.557625 1.074830 0.000000
0.569760 1.084377 0.000000
0.557769 1.089278 0.000000
0.707567 1.266174 0.000000
0.719026 1.281845 0.000000
0.700768 1.282275 0.000000
0.722329 1.266956 0.000000
0.468225 2.149688 0.000000
0.419106 2.064198 0.000000
0.523878 2.082648 0.000000
0.838546 1.421191 0.000000
0.823708 1.410355 0.000000
0.840477 1.404206 0.000000
0.818500 1.425973 0.000000
0.953187 1.488222 0.000000
0.959780 1.473222 0.000000
0.967054 1.485637 0.000000
1.047418 1.769126 0.000000
1.080240 1.782403 0.000000
1.047768 1.802712 0.000000
0.971392 1.693320 0.000000
0.949208 1.720793 0.000000
0.940644 1.684781 0.000000
0.381391 2.160909 0.000000
0.944091 1.477800 0.000000
0.530075 1.477351 0.000000
0.521303 1.516669 0.000000
0.474240 1.491166 0.000000
0.489489 1.546185 0.000000
1.537370 2.239326 0.000000
1.555275 2.267640 0.000000
1.532966 2.278201 0.000000
0.962010 1.661716 0.000000
0.986804 1.643200 0.000000
0.986259 1.672729 0.000000
1.049149 1.737940 0.000000
1.075111 1.737123 0.000000
[...]
POINT_DATA 3011
SCALARS UX float 1
LOOKUP_TABLE default
-0.060553
0.071271
0.000000
-0.000000
-0.063466
0.037756
0.068328
-0.041835
-0.023076
-0.004285
0.014544
0.033418
0.052326
0.071299
0.071369
0.071491
0.071640
0.071813
0.071997
0.072176
0.072312
0.072357
0.072297
0.072093
0.071800
0.071428
0.071047
0.070664
0.070304
0.069979
0.069694
0.069446
0.069230
0.069044
0.068882
0.068742
0.068618
0.068508
0.068412
0.068240
0.068131
0.068002
0.067840
0.067652
0.067402
0.067077
0.066653
0.066025
0.065128
0.063781
0.061551
0.057710
0.050599
0.037456
-0.000000
0.000000
0.000000
-0.000000
-0.000000
0.000000
-0.036905
-0.052669
-0.059680
-0.063277
-0.064958
-0.065642
-0.065825
-0.065839
-0.065783
-0.065713
-0.065661
-0.065642
-0.065642
-0.065661
-0.065693
-0.065731
-0.065774
-0.065819
-0.065867
-0.065915
-0.065965
-0.066013
-0.066060
-0.066103
-0.066142
-0.066175
-0.066202
-0.066224
-0.066244
-0.066270
-0.066304
-0.066323
-0.066289
-0.066190
-0.066347
-0.065953
-0.060743
-0.060558
-0.060459
-0.060484
-0.060502
-0.060523
-0.060540
-0.062560
-0.061945
-0.061147
-0.060614
-0.060145
-0.059232
-0.058575
-0.057824
-0.057146
-0.056356
-0.055652
-0.055349
-0.054462
-0.053545
-0.052618
-0.052044
-0.051598
-0.050949
-0.050001
-0.049456
-0.048349
-0.048013
-0.047159
-0.046555
-0.045841
-0.045019
-0.044611
-0.043675
-0.043450
-0.042491
-0.042009
-0.040930
-0.040252
-0.039583
-0.038905
-0.038171
-0.037401
-0.036901
-0.036160
-0.035325
-0.034733
-0.033811
-0.032891
-0.032864
-0.032130
-0.031008
-0.030539
-0.029668
-0.029167
-0.028426
-0.027477
-0.026713
-0.025888
-0.025342
-0.024708
-0.024156
-0.023445
-0.022745
-0.021759
-0.021326
-0.020841
-0.019873
-0.019069
-0.018295
-0.017664
-0.016963
-0.016663
-0.015757
-0.014669
-0.014062
-0.013123
-0.012801
-0.011822
-0.011406
-0.010903
-0.010252
-0.009315
-0.008793
-0.008086
-0.007352
-0.006793
-0.005928
-0.005331
-0.004665
-0.003559
-0.002910
-0.002491
-0.001516
-0.000517
-0.000297
0.000368
0.000947
0.001781
0.002455
0.003172
0.004029
0.004664
0.005411
0.005950
0.006792
0.007350
0.008227
0.009285
0.009405
0.010523
0.011302
0.012195
0.012554
0.013185
0.014156
0.014819
0.015577
0.016009
0.016890
0.017681
0.018244
0.019248
0.019967
0.020280
0.021230
0.022206
0.022367
0.023630
0.024132
0.024748
0.025663
0.026344
0.027131
0.027876
0.028372
0.029201
0.029689
0.030679
0.031243
0.032150
0.032842
0.033717
0.034376
0.035198
0.035925
0.036599
0.038550
0.038738
0.039364
0.039963
0.040614
0.041267
0.041915
0.042570
0.043238
0.043900
0.044564
0.045226
0.045890
0.046553
0.047214
0.047875
0.048535
0.049193
0.049850
0.050506
0.051160
0.051814
0.052466
0.053115
0.053765
0.054412
0.055059
0.055703
0.056347
0.056989
0.057628
0.058268
0.058904
0.059542
0.060177
0.060810
0.061443
0.062075
0.062706
0.063336
0.063964
0.064592
0.065217
0.065842
0.066465
0.067087
0.067708
-0.052604
-0.052677
-0.053921
-0.051609
-0.047264
-0.045705
-0.050630
-0.047528
0.060332
0.059663
0.017964
0.020832
0.018020
0.020579
-0.039370
-0.038558
-0.037680
-0.040398
-0.056256
-0.058686
-0.059167
-0.055551
-0.027158
-0.026872
-0.025933
-0.025594
-0.008935
-0.008401
-0.007753
-0.009947
0.009329
0.010088
0.010446
0.011274
0.066165
0.067377
0.067301
-0.022041
-0.020742
-0.029212
-0.027981
-0.029266
-0.019248
-0.018500
-0.019691
-0.018283
-0.035010
-0.038204
-0.031195
-0.010498
-0.011493
-0.010416
-0.011810
-0.002865
-0.002100
-0.001839
0.003911
0.006139
0.004044
-0.001327
-0.002739
-0.003385
-0.040832
-0.003424
-0.030779
-0.031332
-0.034451
-0.033415
0.038467
0.039627
0.038085
-0.002015
-0.000412
-0.000388
0.003926
0.005637
0.005320
0.040596
0.005076
0.010175
0.010892
0.011277
0.009737
0.027342
0.029854
0.029416
0.033658
0.031422
0.031331
-0.026965
-0.027375
-0.025014
-0.035632
-0.031475
-0.034060
-0.025402
-0.030571
-0.046049
-0.044001
-0.046243
-0.044443
0.003341
-0.000098
0.003377
-0.002410
-0.039287
-0.038435
-0.034703
0.037576
0.038765
0.036807
-0.043569
-0.052093
-0.055775
-0.054536
-0.023079
-0.021237
-0.020805
-0.019220
-0.058523
-0.054498
-0.051545
-0.058847
0.056791
0.057953
0.058638
-0.001993
0.000065
0.001947
-0.037812
-0.035974
0.004765
-0.015743
-0.015486
-0.018046
-0.013718
0.036140
0.035880
0.034487
-0.010670
-0.010195
-0.012189
0.037475
-0.055422
-0.054920
-0.054555
-0.030181
-0.029631
-0.028278
-0.062413
-0.062254
-0.028462
-0.011036
-0.010786
-0.007925
-0.062371
-0.007361
0.003907
0.006495
-0.054473
-0.053357
-0.051977
-0.028322
-0.028441
-0.027375
-0.029254
-0.029094
0.042016
0.042958
0.042068
0.014359
0.012646
0.012227
0.009504
0.011082
0.008916
0.002893
0.002964
0.001999
0.008089
-0.038296
-0.039096
-0.039529
-0.010419
-0.011705
-0.011329
-0.005102
-0.010395
-0.059133
-0.057497
-0.060053
-0.027935
-0.029246
0.056655
0.001556
0.054447
0.054000
0.053084
-0.012122
-0.010755
-0.018890
-0.019712
0.048419
0.049316
0.046194
-0.020461
-0.022139
-0.020998
0.021614
0.020914
0.023872
0.018205
0.055219
0.055974
0.039182
0.016315
0.013873
0.014555
0.002968
0.003954
0.004239
0.033341
0.037788
0.026702
0.030489
0.034719
0.036257
0.034855
-0.026575
-0.028411
-0.028885
-0.030391
-0.030113
0.004088
0.052226
0.050393
0.052167
0.039307
0.036386
0.038706
0.037137
0.038463
0.040635
0.040093
0.049693
0.049485
-0.005176
-0.003978
-0.003721
-0.005349
-0.009657
-0.008695
-0.009082
-0.008068
0.024177
0.022692
0.024586
0.022966
0.023763
0.022469
0.036046
0.037447
0.036481
0.051747
0.050965
-0.015576
-0.015408
-0.017012
-0.014793
-0.014994
-0.013195
-0.013085
-0.016683
-0.017011
-0.015799
-0.006056
-0.007151
-0.006432
-0.007031
0.015846
0.016094
0.017132
0.014740
-0.004909
-0.014365
-0.014139
-0.014595
-0.013919
-0.012642
-0.015114
0.045960
0.044805
0.044574
0.043459
0.010809
0.011843
-0.006513
-0.006396
-0.004751
0.008664
0.008825
0.007601
0.007983
0.006817
0.007590
0.007578
-0.000011
-0.000669
0.000654
-0.001468
0.031364
0.031976
-0.017187
-0.015995
-0.017197
0.005431
0.005568
0.004542
0.028204
0.025382
0.024113
0.006550
0.003194
0.004125
0.002668
0.035863
0.036007
0.030752
0.032129
0.030698
0.032200
0.020786
0.021288
0.019692
0.020527
-0.060589
-0.061701
-0.063486
-0.057359
-0.038272
-0.037195
-0.037297
-0.022846
-0.019223
-0.034861
0.037261
-0.039332
-0.039797
-0.041543
-0.041819
0.008646
0.011603
0.012284
0.015056
-0.021697
-0.017951
-0.017319
-0.014652
0.048259
0.049167
0.049335
0.050063
0.037508
0.035083
-0.056672
-0.060744
-0.061595
-0.059147
-0.060567
-0.059517
-0.060214
-0.056464
-0.054907
0.003497
0.001737
0.002387
0.025712
0.023221
-0.033831
-0.033336
-0.035365
-0.034595
-0.036630
-0.008115
-0.007448
-0.009906
-0.009390
-0.040501
-0.041618
-0.042025
-0.040702
-0.016423
-0.013062
-0.053888
-0.053049
-0.051708
-0.052484
-0.054493
-0.060005
-0.061326
-0.060327
-0.059563
-0.059060
-0.051622
-0.050363
-0.049990
-0.051143
-0.049510
-0.012590
-0.010883
-0.011477
0.011412
-0.011174
-0.020225
-0.010278
-0.024389
-0.035344
0.062252
0.061125
0.063571
0.059541
0.057488
0.059192
-0.046269
-0.046946
-0.048086
-0.052404
-0.047623
-0.048160
-0.054228
0.054303
0.058873
0.058265
0.054466
0.002234
0.002057
-0.037516
-0.036066
-0.037344
-0.035575
-0.054017
-0.054894
-0.064291
-0.063295
-0.062773
-0.063932
0.060435
0.060208
0.058437
0.059579
-0.042170
-0.040601
0.020439
0.022817
0.019588
0.015768
0.023780
0.018582
0.011054
0.011874
0.001657
-0.018751
-0.018986
-0.016847
-0.063530
-0.063460
-0.064810
-0.062337
0.064977
0.036032
-0.048843
-0.049230
-0.051114
-0.065423
-0.065183
-0.050573
0.054584
0.053924
0.055388
-0.054414
-0.053456
-0.054876
-0.059918
-0.053447
-0.052569
0.063874
0.065292
0.064366
0.064756
0.065508
0.015372
0.017882
-0.050666
-0.050439
-0.048781
0.065878
0.027109
0.028730
0.030552
-0.037211
-0.034567
-0.033307
-0.036208
-0.032173
-0.031054
-0.023235
-0.021662
-0.059891
-0.060133
-0.063676
-0.061942
-0.061306
-0.060120
-0.035741
0.038882
-0.036854
-0.062270
-0.063588
-0.062468
-0.061572
0.065129
0.062875
-0.057005
-0.058499
-0.057943
0.066237
-0.063175
0.055924
0.057843
0.055885
-0.048776
-0.050054
-0.048297
-0.013193
-0.007674
-0.007440
-0.002439
-0.001621
-0.055444
-0.054325
-0.056229
-0.057181
0.025643
0.022455
-0.047325
-0.046747
-0.048468
-0.047225
-0.033274
-0.033320
-0.035766
-0.033607
-0.036253
-0.040442
-0.036929
-0.037257
-0.041052
-0.063302
-0.064384
0.054940
0.056335
-0.041546
-0.040433
-0.043314
-0.043985
-0.046433
0.037530
0.037938
0.036819
-0.027779
-0.029092
-0.040168
-0.042116
-0.027334
-0.025357
0.011491
0.006980
0.007213
0.010205
-0.061651
-0.045830
-0.045421
-0.046142
-0.044462
0.009919
0.056468
0.055893
0.054849
0.054407
-0.009305
-0.009169
-0.004986
-0.005077
-0.001602
-0.000953
0.052519
0.053748
0.065926
0.063552
-0.001820
0.001276
0.058207
0.060419
-0.060590
-0.038619
-0.042556
-0.047910
-0.048182
-0.046875
-0.048722
-0.049031
0.022099
-0.060277
-0.064933
0.023704
0.008026
0.005554
0.063907
0.063789
0.064311
-0.064000
-0.054936
-0.056648
-0.061284
0.007579
0.005814
0.004411
0.006446
0.053546
-0.053720
-0.052859
-0.050969
-0.049930
0.020398
0.019124
0.016938
0.018631
0.057478
-0.063776
-0.064620
-0.062837
-0.049568
-0.059914
-0.043332
-0.049180
-0.040256
-0.043915
-0.054468
-0.061095
-0.061617
0.011018
0.011650
0.004986
0.017600
-0.012100
-0.017900
0.001459
-0.060476
-0.019165
-0.058380
0.001704
-0.010559
-0.008293
-0.056983
-0.058361
-0.057204
-0.061353
-0.059012
-0.018795
-0.006735
-0.010256
-0.014681
-0.056330
-0.000477
-0.001193
-0.001821
-0.020267
-0.021314
-0.017517
-0.048720
-0.048944
-0.051505
-0.042888
-0.042210
-0.043418
-0.044145
-0.019909
-0.017200
-0.017070
-0.014155
-0.014165
0.014333
0.011005
0.001330
-0.003878
-0.005424
-0.003983
-0.002732
0.016090
0.010900
0.006483
0.006188
0.002072
-0.053957
-0.045643
-0.042492
-0.036328
-0.057482
-0.057094
-0.058215
-0.038525
0.066679
-0.045887
-0.046949
-0.049257
-0.047935
-0.030577
-0.035228
-0.027107
-0.024857
-0.022467
-0.062394
-0.045135
-0.044550
-0.059433
0.046780
0.046817
-0.004845
-0.049771
0.047756
0.062021
-0.046177
-0.052359
-0.046881
0.013499
-0.054037
-0.056834
-0.059654
-0.063842
-0.061530
0.056819
-0.055208
0.005142
0.000630
0.008235
-0.058596
-0.060950
0.060942
-0.045466
-0.045287
-0.046391
-0.057997
0.050899
0.047764
0.050791
0.058372
0.058265
0.059224
-0.056554
-0.054284
-0.053912
-0.055123
-0.058495
0.042272
0.032553
0.032370
0.023868
-0.043417
-0.043613
-0.020710
-0.019820
-0.037423
-0.031646
0.038656
-0.014846
-0.062912
-0.031406
-0.032657
-0.031649
0.002426
-0.027274
-0.025508
-0.025787
-0.055755
-0.048106
-0.043122
-0.042855
-0.037993
-0.053726
-0.022801
-0.025185
-0.024792
0.049096
0.056837
0.052661
0.005018
-0.039110
-0.039199
-0.037041
-0.058933
-0.054897
-0.055692
-0.058063
-0.030311
0.015815
-0.044221
-0.051131
-0.029999
-0.027581
-0.059036
-0.052961
-0.024240
-0.024077
-0.034888
0.009578
0.062843
0.061887
-0.056454
-0.040710
-0.015857
-0.060882
-0.050284
-0.046793
-0.051449
0.020618
-0.062801
0.018288
0.018642
0.017343
-0.023804
-0.015058
-0.058591
-0.026317
-0.037554
-0.040356
-0.042049
0.056980
-0.008095
-0.009433
-0.007271
-0.046713
-0.047312
-0.027704
-0.038942
-0.038520
-0.037355
-0.058094
-0.059229
-0.039983
-0.052551
0.049729
0.050503
-0.034677
-0.035117
-0.036164
0.048313
-0.012574
-0.011831
0.052923
0.053627
0.017732
-0.002466
-0.007022
-0.053231
-0.054937
0.003564
0.005448
0.014577
0.015893
-0.032106
-0.037401
-0.046251
-0.044775
-0.045376
0.041754
0.041375
0.004621
0.008694
-0.039869
-0.056772
-0.052906
-0.030605
-0.031173
-0.029280
-0.050807
-0.059662
-0.048935
-0.017950
-0.020800
-0.046195
-0.047423
-0.047187
0.056114
-0.024058
-0.023030
-0.026406
-0.056585
-0.055720
-0.043364
-0.041697
-0.031843
-0.026630
0.001488
-0.007377
0.021267
0.059170
-0.059156
-0.029058
-0.026802
-0.035446
-0.041630
-0.043968
-0.027083
-0.028771
-0.029209
0.046712
-0.014548
-0.022614
-0.024611
-0.004778
-0.014279
-0.033754
-0.033963
-0.032837
0.013561
0.014362
0.017319
0.001676
-0.023197
-0.043206
-0.043841
-0.044929
-0.045232
0.020305
0.021400
0.020632
-0.028389
-0.025340
-0.060074
-0.028119
-0.029201
-0.027568
-0.029997
0.011031
0.063116
0.062609
0.007831
0.019345
0.005518
0.013369
-0.051492
-0.051119
-0.050519
-0.043755
-0.042769
-0.042802
-0.029479
0.043606
0.041132
-0.011716
0.000723
-0.000868
-0.044744
-0.002224
-0.044459
-0.043435
-0.052632
-0.052513
-0.051647
-0.033663
-0.002684
-0.000903
-0.003019
-0.000019
0.062206
-0.049738
-0.050676
0.044647
-0.048759
-0.049250
0.054451
0.052171
0.051172
0.048285
0.049212
0.044780
0.048596
-0.056113
-0.055234
-0.056248
-0.039491
-0.043219
-0.044707
-0.006349
-0.010125
-0.033655
-0.051990
-0.040661
-0.033679
-0.025102
-0.053404
-0.053292
0.010421
-0.032234
-0.031957
-0.044954
-0.056498
0.061802
-0.015266
-0.053117
-0.057962
-0.049028
-0.013309
-0.017301
0.002176
-0.012047
-0.014910
-0.016677
-0.020294
-0.025545
-0.003408
-0.007987
-0.000347
-0.007381
0.002795
-0.038231
-0.048139
0.044600
0.045444
-0.043463
-0.034047
-0.020925
-0.022993
-0.025030
0.046498
0.040110
-0.005496
-0.007332
-0.007369
-0.005915
0.013626
0.014620
-0.041646
-0.042132
-0.041176
-0.051877
-0.005601
0.003070
-0.037044
0.035342
0.037992
-0.039495
-0.027076
-0.022355
-0.025216
0.062768
0.047811
0.051256
0.051339
-0.043540
-0.045470
0.061861
-0.032107
-0.019629
-0.033415
0.034104
-0.038487
-0.039000
-0.037597
-0.039792
-0.043499
-0.026095
-0.040545
0.031029
0.028414
0.027200
0.033723
0.034859
0.033994
0.032240
0.033627
0.016033
0.044795
0.043527
-0.040822
0.021722
0.017165
-0.032723
-0.032553
-0.031775
0.047402
0.044093
-0.020500
-0.032179
-0.024351
-0.038407
-0.035048
-0.017564
-0.017195
-0.019006
0.062046
0.061546
-0.026429
-0.018043
-0.031387
0.024614
0.042808
0.044689
0.046062
0.033754
0.033876
0.042285
-0.043349
-0.050416
-0.049435
-0.006019
-0.009272
-0.017896
-0.065252
-0.016154
0.030110
0.022460
0.024662
0.026804
-0.030293
-0.030925
-0.030017
-0.031468
0.031651
-0.036018
-0.036501
-0.035221
-0.019416
0.029965
0.030553
-0.065369
0.047141
0.047108
-0.041494
-0.003502
-0.064947
0.045837
-0.004295
0.027784
-0.031829
0.047150
-0.047619
0.031878
-0.030665
-0.027645
-0.014854
-0.018737
-0.046207
0.051833
0.053055
0.045356
0.058660
0.013143
0.014148
0.014075
-0.015976
-0.034634
-0.014888
-0.011756
0.013128
0.015012
-0.034948
0.015222
-0.023688
-0.025103
-0.024001
-0.022405
-0.023489
-0.022530
-0.021847
-0.021029
-0.020495
-0.049934
0.009374
-0.015358
0.061719
0.014894
0.016188
-0.030490
0.013322
-0.001214
-0.001044
-0.043341
-0.042937
-0.043765
0.003418
0.004626
0.002112
0.039970
0.040616
0.035781
0.037206
0.039708
0.041178
0.040800
0.040691
-0.043691
-0.062888
0.005818
0.005960
0.004742
0.009348
-0.028037
0.017572
0.019069
0.019144
-0.001966
-0.000053
-0.021003
-0.020110
0.020436
0.019484
0.021024
-0.002164
-0.003063
0.008146
0.000694
0.001235
-0.040746
-0.039915
0.048733
0.050239
-0.002048
-0.000592
-0.000729
0.049466
0.047919
0.042248
0.040599
-0.041619
0.025304
0.042232
-0.020386
-0.019314
-0.018986
0.029209
0.030673
0.028948
-0.023469
-0.037747
0.030658
-0.034809
-0.034905
-0.036028
0.032452
0.028685
-0.002992
-0.003915
-0.016391
-0.015319
-0.016271
0.033599
0.033608
0.032326
-0.004805
-0.003842
-0.017506
-0.005150
-0.015557
-0.014137
-0.013444
0.038994
0.037702
-0.050560
-0.051402
-0.011999
-0.011132
-0.010284
-0.011436
-0.010339
-0.061210
-0.004607
-0.030469
-0.031199
-0.030083
0.036220
-0.026686
-0.032187
-0.032709
-0.033383
0.021752
-0.012164
-0.047929
0.021234
0.039611
0.038553
0.025424
0.026281
0.026869
0.027826
0.008933
0.009327
0.009977
0.008291
0.008801
0.024594
0.046929
0.045755
-0.014363
-0.013702
-0.013615
-0.020101
-0.018659
-0.007705
-0.006740
-0.007785
0.010866
-0.025067
0.011553
0.012080
0.012729
0.010862
0.047935
0.006339
0.006796
0.044523
0.044415
0.045819
0.043012
0.019253
0.033989
-0.019014
-0.018126
0.019778
0.022274
0.021912
0.001976
0.001360
-0.023759
-0.024483
-0.025073
-0.023389
-0.022710
-0.005615
-0.004852
-0.005969
0.017938
0.018309
0.016649
0.018149
0.019146
0.041722
0.041301
0.035475
0.032548
0.027752
0.028260
0.029333
0.029085
0.030233
0.029371
-0.030433
0.039016
0.040163
0.040599
0.044021
0.042805
0.048462
0.048897
-0.006805
-0.024346
-0.024250
0.049844
0.051284
-0.038775
0.050476
0.040960
0.043999
0.031179
0.052221
-0.064562
-0.064823
-0.064574
-0.064908
-0.061948
0.009567
-0.013223
0.000615
-0.024295
-0.023951
-0.024867
-0.062782
-0.020357
0.030630
0.033065
0.021506
0.016521
0.026615
0.026700
0.025517
-0.024432
0.025889
0.000226
0.000789
0.001523
-0.024513
0.046674
0.001623
0.027024
0.026234
0.052592
0.053767
0.040240
0.041019
0.042124
0.043296
0.043302
0.007267
0.008221
-0.050932
0.023791
0.041372
0.042358
0.043207
-0.004230
-0.003498
-0.003054
-0.021646
-0.021024
-0.015265
-0.016505
-0.007794
-0.009042
0.012088
0.010628
0.010159
0.032244
-0.023633
-0.022709
-0.025437
0.050891
0.049656
0.027051
0.021214
0.019326
0.013249
-0.018040
-0.020386
-0.022936
0.052873
0.017736
0.016027
0.015979
0.051812
0.052100
0.050913
-0.041360
0.028866
-0.038728
-0.012068
-0.012462
-0.013258
-0.042090
0.013848
-0.030407
-0.058032
-0.022744
0.009199
0.008854
-0.005103
-0.002402
0.013091
-0.013096
-0.012558
-0.011531
0.012371
0.028557
-0.023060
-0.017303
-0.018156
-0.011944
-0.013112
0.014380
-0.012614
-0.055824
-0.056001
0.034724
0.011959
-0.033897
0.002768
0.002503
0.024274
0.006632
0.048097
0.042355
0.043671
-0.036469
0.011803
-0.021840
0.019921
-0.052369
-0.019695
-0.021884
0.017189
0.018220
0.016969
0.005797
0.006658
0.025796
0.023903
-0.046473
-0.046397
0.001435
-0.003384
0.022170
0.006109
0.002342
-0.014193
0.044010
-0.012949
0.044806
0.044424
0.001595
-0.026391
-0.025542
0.047933
0.046289
0.024818
0.024582
-0.001203
0.038734
0.040319
0.039538
0.027220
0.028374
0.051472
0.052053
0.019854
0.032550
0.034420
0.023487
-0.053795
0.041362
0.028668
0.023454
-0.025978
0.014226
0.030956
-0.037232
-0.030723
0.033545
0.005927
0.043575
0.046102
-0.023301
0.000779
-0.056277
-0.035917
-0.005721
-0.006720
-0.007827
-0.010853
-0.039743
-0.022398
-0.014384
-0.005185
0.027252
0.013747
0.014283
0.015589
0.008116
0.043597
-0.008253
0.035759
0.033732
0.033114
-0.033579
-0.019949
-0.005699
0.000289
0.000899
0.048469
0.036196
-0.032788
0.017113
0.016178
-0.004912
0.026037
0.053134
0.032223
0.036293
0.035910
-0.025183
0.035079
-0.009889
0.025539
0.052238
0.019322
-0.009484
-0.008690
-0.008017
-0.010453
-0.009939
-0.008927
-0.009003
0.006987
0.006588
0.017210
-0.002497
0.022116
0.022751
0.023535
-0.007334
0.005047
0.028203
0.037833
0.011641
-0.008516
0.012330
0.015794
0.016199
0.027651
-0.008597
0.005185
0.004043
0.030486
0.014863
0.030541
-0.009383
0.004249
0.000390
0.051138
0.038564
0.017652
0.024356
0.024769
0.041358
0.012296
0.021784
0.026668
-0.031298
-0.017864
0.033648
0.021965
0.039668
0.045790
0.046684
-0.009161
-0.004257
0.015469
-0.036625
-0.035740
-0.034753
-0.035892
-0.034777
-0.034776
-0.014968
-0.015798
-0.014876
0.062082
0.059115
0.059132
0.034380
0.033026
0.034387
0.056576
0.063149
0.004299
0.003415
-0.006680
0.040620
0.051051
0.049888
-0.017871
-0.019781
-0.018316
0.064315
0.062658
0.065493
0.062214
-0.018659
-0.035966
-0.033900
-0.020283
-0.020276
-0.018877
-0.016850
-0.015767
-0.020549
-0.022035
0.029705
0.027967
0.028215
0.028677
-0.018859
-0.011640
-0.022116
-0.024146
-0.022489
-0.007628
-0.001564
0.025965
0.022363
0.024752
0.022871
-0.028810
-0.027435
-0.029096
0.015052
0.015892
0.014937
-0.000780
-0.001952
-0.001423
-0.002977
0.065060
0.063815
-0.027930
-0.023357
-0.018079
-0.041253
-0.037405
-0.037415
-0.008522
-0.006898
-0.007138
-0.033151
-0.025684
-0.023379
-0.023004
-0.005145
0.023011
0.025527
0.026160
0.020449
0.044454
0.044663
0.050163
0.039136
0.000184
0.005632
0.004741
0.031995
0.033257
0.034288
0.035915
-0.014535
-0.022508
-0.017603
-0.052094
-0.054532
-0.006289
-0.007064
-0.005533
-0.007314
0.045902
0.047255
0.046167
0.047903
0.013825
0.012950
0.016827
0.011026
0.031875
0.032620
0.031373
0.033211
0.043196
0.043496
0.044737
0.042197
-0.016011
-0.014657
-0.034273
-0.034956
-0.043556
-0.042638
-0.044407
-0.030475
-0.032232
-0.031492
0.034857
0.034245
-0.012737
-0.012322
-0.013577
-0.013147
-0.039331
-0.020359
-0.021553
-0.020300
-0.021534
-0.039730
-0.039347
-0.038399
-0.037500
-0.029582
-0.030695
-0.030981