# vtk DataFile Version 2.0
Test
ASCII
DATASET POLYDATA
POINTS 3011 float
0.000000 0.000000 0.000000
2.000000 0.000000 0.000000
2.000000 4.000000 0.000000
0.000000 4.000000 0.000000
0.000000 0.500000 0.000000
1.500000 2.000000 0.000000
2.000000 2.500000 0.000000
0.285714 0.000000 0.000000
0.571429 0.000000 0.000000
0.857143 0.000000 0.000000
1.142857 0.000000 0.000000
1.428571 0.000000 0.000000
1.714286 0.000000 0.000000
2.000000 0.276366 0.000000
2.000000 0.523709 0.000000
2.000000 0.745076 0.000000
2.000000 0.943195 0.000000
2.000000 1.120508 0.000000
2.000000 1.279199 0.000000
2.000000 1.421225 0.000000
2.000000 1.548336 0.000000
2.000000 1.662097 0.000000
2.000000 1.763911 0.000000
2.000000 1.855033 0.000000
2.000000 1.936585 0.000000
2.000000 2.009573 0.000000
2.000000 2.074896 0.000000
2.000000 2.133358 0.000000
2.000000 2.185681 0.000000
2.000000 2.232509 0.000000
2.000000 2.274419 0.000000
2.000000 2.311927 0.000000
2.000000 2.345497 0.000000
2.000000 2.375541 0.000000
2.000000 2.402430 0.000000
2.000000 2.426495 0.000000
2.000000 2.448033 0.000000
2.000000 2.467309 0.000000
2.000000 2.484560 0.000000
2.000000 2.516256 0.000000
2.000000 2.535859 0.000000
2.000000 2.559499 0.000000
2.000000 2.588006 0.000000
2.000000 2.622383 0.000000
2.000000 2.663839 0.000000
2.000000 2.713831 0.000000
2.000000 2.774116 0.000000
2.000000 2.846815 0.000000
2.000000 2.934483 0.000000
2.000000 3.040202 0.000000
2.000000 3.167691 0.000000
2.000000 3.321430 0.000000
2.000000 3.506825 0.000000
2.000000 3.730395 0.000000
1.714286 4.000000 0.000000
1.428571 4.000000 0.000000
1.142857 4.000000 0.000000
0.857143 4.000000 0.000000
0.571429 4.000000 0.000000
0.285714 4.000000 0.000000
0.000000 3.713462 0.000000
0.000000 3.449209 0.000000
0.000000 3.205508 0.000000
0.000000 2.980761 0.000000
0.000000 2.773493 0.000000
0.000000 2.582346 0.000000
0.000000 2.406065 0.000000
0.000000 2.243495 0.000000
0.000000 2.093568 0.000000
0.000000 1.955302 0.000000
0.000000 1.827789 0.000000
0.000000 1.710194 0.000000
0.000000 1.601745 0.000000
0.000000 1.501730 0.000000
0.000000 1.409494 0.000000
0.000000 1.324431 0.000000
0.000000 1.245984 0.000000
0.000000 1.173639 0.000000
0.000000 1.106920 0.000000
0.000000 1.045390 0.000000
0.000000 0.988645 0.000000
0.000000 0.936314 0.000000
0.000000 0.888053 0.000000
0.000000 0.843545 0.000000
0.000000 0.802499 0.000000
0.000000 0.764646 0.000000
0.000000 0.729736 0.000000
0.000000 0.697541 0.000000
0.000000 0.667851 0.000000
0.000000 0.640469 0.000000
0.000000 0.615217 0.000000
0.000000 0.591929 0.000000
0.000000 0.570453 0.000000
0.000000 0.550646 0.000000
0.000000 0.532380 0.000000
0.000000 0.515535 0.000000
0.000000 0.483768 0.000000
0.000000 0.461535 0.000000
0.000000 0.431083 0.000000
0.000000 0.389372 0.000000
0.000000 0.332241 0.000000
0.000000 0.253989 0.000000
0.000000 0.146807 0.000000
0.010563 0.510563 0.000000
0.021127 0.521127 0.000000
0.031690 0.531690 0.000000
0.042254 0.542254 0.000000
0.052817 0.552817 0.000000
0.063380 0.563380 0.000000
0.073944 0.573944 0.000000
0.084507 0.584507 0.000000
0.095070 0.595070 0.000000
0.105634 0.605634 0.000000
0.116197 0.616197 0.000000
0.126761 0.626761 0.000000
0.137324 0.637324 0.000000
0.147887 0.647887 0.000000
0.158451 0.658451 0.000000
0.169014 0.669014 0.000000
0.179577 0.679577 0.000000
0.190141 0.690141 0.000000
0.200704 0.700704 0.000000
0.211268 0.711268 0.000000
0.221831 0.721831 0.000000
0.232394 0.732394 0.000000
0.242958 0.742958 0.000000
0.253521 0.753521 0.000000
0.264085 0.764085 0.000000
0.274648 0.774648 0.000000
0.285211 0.785211 0.000000
0.295775 0.795775 0.000000
0.306338 0.806338 0.000000
0.316901 0.816901 0.000000
0.327465 0.827465 0.000000
0.338028 0.838028 0.000000
0.348592 0.848592 0.000000
0.359155 0.859155 0.000000
0.369718 0.869718 0.000000
0.380282 0.880282 0.000000
0.390845 0.890845 0.000000
0.401408 0.901408 0.000000
0.411972 0.911972 0.000000
0.422535 0.922535 0.000000
0.433099 0.933099 0.000000
0.443662 0.943662 0.000000
0.454225 0.954225 0.000000
0.464789 0.964789 0.000000
0.475352 0.975352 0.000000
0.485915 0.985915 0.000000
0.496479 0.996479 0.000000
0.507042 1.007042 0.000000
0.517606 1.017606 0.000000
0.528169 1.028169 0.000000
0.538732 1.038732 0.000000
0.549296 1.049296 0.000000
0.559859 1.059859 0.000000
0.570423 1.070423 0.000000
0.580986 1.080986 0.000000
0.591549 1.091549 0.000000
0.602113 1.102113 0.000000
0.612676 1.112676 0.000000
0.623239 1.123239 0.000000
0.633803 1.133803 0.000000
0.644366 1.144366 0.000000
0.654930 1.154930 0.000000
0.665493 1.165493 0.000000
0.676056 1.176056 0.000000
0.686620 1.186620 0.000000
0.697183 1.197183 0.000000
0.707746 1.207746 0.000000
0.718310 1.218310 0.000000
0.728873 1.228873 0.000000
0.739437 1.239437 0.000000
0.750000 1.250000 0.000000
0.760563 1.260563 0.000000
0.771127 1.271127 0.000000
0.781690 1.281690 0.000000
0.792254 1.292254 0.000000
0.802817 1.302817 0.000000
0.813380 1.313380 0.000000
0.823944 1.323944 0.000000
0.834507 1.334507 0.000000
0.845070 1.345070 0.000000
0.855634 1.355634 0.000000
0.866197 1.366197 0.000000
0.876761 1.376761 0.000000
0.887324 1.387324 0.000000
0.897887 1.397887 0.000000
0.908451 1.408451 0.000000
0.919014 1.419014 0.000000
0.929577 1.429577 0.000000
0.940141 1.440141 0.000000
0.950704 1.450704 0.000000
0.961268 1.461268 0.000000
0.971831 1.471831 0.000000
0.982394 1.482394 0.000000
0.992958 1.492958 0.000000
1.003521 1.503521 0.000000
1.014085 1.514085 0.000000
1.024648 1.524648 0.000000
1.035211 1.535211 0.000000
1.045775 1.545775 0.000000
1.056338 1.556338 0.000000
1.066901 1.566901 0.000000
1.077465 1.577465 0.000000
1.088028 1.588028 0.000000
1.098592 1.598592 0.000000
1.109155 1.609155 0.000000
1.119718 1.619718 0.000000
1.130282 1.630282 0.000000
1.140845 1.640845 0.000000
1.151408 1.651408 0.000000
1.161972 1.661972 0.000000
1.172535 1.672535 0.000000
1.183099 1.683099 0.000000
1.193662 1.693662 0.000000
1.204225 1.704225 0.000000
1.214789 1.714789 0.000000
1.225352 1.725352 0.000000
1.235915 1.735915 0.000000
1.246479 1.746479 0.000000
1.257042 1.757042 0.000000
1.267606 1.767606 0.000000
1.278169 1.778169 0.000000
1.288732 1.788732 0.000000
1.299296 1.799296 0.000000
1.309859 1.809859 0.000000
1.320423 1.820423 0.000000
1.330986 1.830986 0.000000
1.341549 1.841549 0.000000
1.352113 1.852113 0.000000
1.362676 1.862676 0.000000
1.373239 1.873239 0.000000
1.383803 1.883803 0.000000
1.394366 1.894366 0.000000
1.404930 1.904930 0.000000
1.415493 1.915493 0.000000
1.426056 1.926056 0.000000
1.436620 1.936620 0.000000
1.447183 1.947183 0.000000
1.457746 1.957746 0.000000
1.468310 1.968310 0.000000
1.478873 1.978873 0.000000
1.489437 1.989437 0.000000
1.510417 2.010417 0.000000
1.520833 2.020833 0.000000
1.531250 2.031250 0.000000
1.541667 2.041667 0.000000
1.552083 2.052083 0.000000
1.562500 2.062500 0.000000
1.572917 2.072917 0.000000
1.583333 2.083333 0.000000
1.593750 2.093750 0.000000
1.604167 2.104167 0.000000
1.614583 2.114583 0.000000
1.625000 2.125000 0.000000
1.635417 2.135417 0.000000
1.645833 2.145833 0.000000
1.656250 2.156250 0.000000
1.666667 2.166667 0.000000
1.677083 2.177083 0.000000
1.687500 2.187500 0.000000
1.697917 2.197917 0.000000
1.708333 2.208333 0.000000
1.718750 2.218750 0.000000
1.729167 2.229167 0.000000
1.739583 2.239583 0.000000
1.750000 2.250000 0.000000
1.760417 2.260417 0.000000
1.770833 2.270833 0.000000
1.781250 2.281250 0.000000
1.791667 2.291667 0.000000
1.802083 2.302083 0.000000
1.812500 2.312500 0.000000
1.822917 2.322917 0.000000
1.833333 2.333333 0.000000
1.843750 2.343750 0.000000
1.854167 2.354167 0.000000
1.864583 2.364583 0.000000
1.875000 2.375000 0.000000
1.885417 2.385417 0.000000
1.895833 2.395833 0.000000
1.906250 2.406250 0.000000
1.916667 2.416667 0.000000
1.927083 2.427083 0.000000
1.937500 2.437500 0.000000
1.947917 2.447917 0.000000
1.958333 2.458333 0.000000
1.968750 2.468750 0.000000
1.979167 2.479167 0.000000
1.989583 2.489583 0.000000
0.206561 0.791563 0.000000
0.205359 0.816165 0.000000
0.186354 0.798211 0.000000
0.221961 0.800924 0.000000
0.280649 1.360489 0.000000
0.304015 1.400469 0.000000
0.229142 1.396096 0.000000
0.275922 1.451476 0.000000
1.869084 2.391788 0.000000
1.857928 2.378421 0.000000
1.238669 2.061899 0.000000
1.278787 2.082276 0.000000
1.238298 2.096047 0.000000
1.277579 2.032995 0.000000
0.402536 1.205823 0.000000
0.415290 1.176040 0.000000
0.428330 1.201952 0.000000
0.387294 1.172617 0.000000
0.146930 1.050586 0.000000
0.109488 1.087198 0.000000
0.102742 1.042403 0.000000
0.157178 1.091184 0.000000
0.588967 1.178581 0.000000
0.593116 1.153718 0.000000
0.608054 1.166752 0.000000
0.612180 1.145944 0.000000
0.860304 1.543784 0.000000
0.868821 1.521840 0.000000
0.878420 1.536650 0.000000
0.845380 1.517623 0.000000
1.129525 1.764330 0.000000
1.142005 1.751560 0.000000
1.145757 1.773681 0.000000
1.159368 1.759106 0.000000
1.968150 2.518865 0.000000
1.986105 2.509269 0.000000
1.986696 2.531115 0.000000
0.668964 1.191005 0.000000
0.683291 1.201259 0.000000
0.557625 1.074830 0.000000
0.569760 1.084377 0.000000
0.557769 1.089278 0.000000
0.707567 1.266174 0.000000
0.719026 1.281845 0.000000
0.700768 1.282275 0.000000
0.722329 1.266956 0.000000
0.468225 2.149688 0.000000
0.419106 2.064198 0.000000
0.523878 2.082648 0.000000
0.838546 1.421191 0.000000
0.823708 1.410355 0.000000
0.840477 1.404206 0.000000
0.818500 1.425973 0.000000
0.953187 1.488222 0.000000
0.959780 1.473222 0.000000
0.967054 1.485637 0.000000
1.047418 1.769126 0.000000
1.080240 1.782403 0.000000
1.047768 1.802712 0.000000
0.971392 1.693320 0.000000
0.949208 1.720793 0.000000
0.940644 1.684781 0.000000
0.381391 2.160909 0.000000
0.944091 1.477800 0.000000
0.530075 1.477351 0.000000
0.521303 1.516669 0.000000
0.474240 1.491166 0.000000
0.489489 1.546185 0.000000
1.537370 2.239326 0.000000
1.555275 2.267640 0.000000
1.532966 2.278201 0.000000
0.962010 1.661716 0.000000
0.986804 1.643200 0.000000
0.986259 1.672729 0.000000
1.049149 1.737940 0.000000
1.075111 1.737123 0.000000
[...]
POINT_DATA 3011
SCALARS UX float 1
LOOKUP_TABLE default
-0.049200
0.057381
0.000000
-0.000000
-0.051510
0.030358
0.055090
-0.034059
-0.018885
-0.003689
0.011534
0.026791
0.042073
0.057403
0.057460
0.057554
0.057671
0.057803
0.057945
0.058083
0.058187
0.058221
0.058173
0.058011
0.057773
0.057472
0.057165
0.056860
0.056577
0.056326
0.056108
0.055920
0.055759
0.055620
0.055500
0.055396
0.055304
0.055223
0.055152
0.055025
0.054945
0.054850
0.054730
0.054591
0.054406
0.054164
0.053848
0.053375
0.052696
0.051664
0.049936
0.046916
0.041237
0.030519
-0.000000
0.000000
0.000000
-0.000000
-0.000000
0.000000
-0.030231
-0.042963
-0.048538
-0.051326
-0.052598
-0.053101
-0.053231
-0.053239
-0.053201
-0.053158
-0.053130
-0.053126
-0.053136
-0.053158
-0.053188
-0.053222
-0.053258
-0.053296
-0.053334
-0.053372
-0.053412
-0.053450
-0.053487
-0.053520
-0.053550
-0.053574
-0.053595
-0.053611
-0.053625
-0.053644
-0.053672
-0.053692
-0.053674
-0.053600
-0.053709
-0.053448
-0.049328
-0.049205
-0.049126
-0.049145
-0.049159
-0.049176
-0.049190
-0.050758
-0.050262
-0.049614
-0.049188
-0.048799
-0.048053
-0.047519
-0.046909
-0.046364
-0.045721
-0.045148
-0.044924
-0.044205
-0.043453
-0.042697
-0.042243
-0.041887
-0.041361
-0.040589
-0.040161
-0.039259
-0.038997
-0.038294
-0.037820
-0.037241
-0.036568
-0.036229
-0.035470
-0.035290
-0.034508
-0.034119
-0.033243
-0.032702
-0.032164
-0.031616
-0.031023
-0.030405
-0.030007
-0.029408
-0.028727
-0.028246
-0.027504
-0.026760
-0.026755
-0.026155
-0.025236
-0.024856
-0.024152
-0.023755
-0.023164
-0.022390
-0.021775
-0.021113
-0.020674
-0.020157
-0.019707
-0.019129
-0.018557
-0.017756
-0.017405
-0.017021
-0.016236
-0.015583
-0.014964
-0.014460
-0.013892
-0.013650
-0.012914
-0.012025
-0.011537
-0.010778
-0.010529
-0.009736
-0.009395
-0.008983
-0.008448
-0.007679
-0.007254
-0.006682
-0.006089
-0.005643
-0.004943
-0.004464
-0.003931
-0.003034
-0.002508
-0.002177
-0.001387
-0.000567
-0.000397
0.000141
0.000620
0.001294
0.001829
0.002403
0.003104
0.003613
0.004214
0.004655
0.005338
0.005779
0.006491
0.007352
0.007439
0.008350
0.008973
0.009691
0.009970
0.010479
0.011271
0.011813
0.012426
0.012774
0.013491
0.014130
0.014575
0.015391
0.015980
0.016226
0.016997
0.017790
0.017910
0.018941
0.019345
0.019836
0.020576
0.021126
0.021764
0.022367
0.022765
0.023434
0.023831
0.024643
0.025098
0.025825
0.026380
0.027091
0.027624
0.028285
0.028869
0.029411
0.030996
0.031132
0.031633
0.032115
0.032638
0.033164
0.033686
0.034214
0.034752
0.035285
0.035820
0.036354
0.036890
0.037424
0.037958
0.038491
0.039024
0.039555
0.040086
0.040616
0.041145
0.041674
0.042202
0.042727
0.043253
0.043777
0.044301
0.044823
0.045345
0.045865
0.046384
0.046902
0.047419
0.047937
0.048453
0.048968
0.049482
0.049996
0.050510
0.051022
0.051533
0.052044
0.052554
0.053062
0.053571
0.054078
0.054584
-0.042606
-0.042666
-0.043670
-0.041802
-0.038297
-0.037036
-0.041017
-0.038508
0.048586
0.048042
0.014384
0.016695
0.014427
0.016495
-0.031910
-0.031252
-0.030543
-0.032740
-0.045564
-0.047529
-0.047917
-0.044994
-0.022027
-0.021797
-0.021035
-0.020765
-0.007302
-0.006868
-0.006344
-0.008119
0.007446
0.008064
0.008347
0.009021
0.053346
0.054324
0.054270
-0.017909
-0.016878
-0.023722
-0.022741
-0.023735
-0.015625
-0.015022
-0.015987
-0.014839
-0.028322
-0.030913
-0.025253
-0.008559
-0.009362
-0.008487
-0.009621
-0.002388
-0.001816
-0.001593
0.003064
0.004862
0.003166
-0.001162
-0.002306
-0.002825
-0.033021
-0.002844
-0.024968
-0.025415
-0.027937
-0.027099
0.030921
0.031857
0.030611
-0.001715
-0.000416
-0.000399
0.003081
0.004464
0.004204
0.032640
0.004014
0.008148
0.008701
0.009026
0.007795
0.021939
0.023968
0.023612
0.027038
0.025232
0.025159
-0.021882
-0.022213
-0.020303
-0.028889
-0.025529
-0.027616
-0.020616
-0.024796
-0.037312
-0.035656
-0.037470
-0.036013
0.002594
-0.000175
0.002623
-0.002034
-0.031832
-0.031151
-0.028132
0.030206
0.031164
0.029584
-0.035295
-0.042200
-0.045177
-0.044175
-0.018738
-0.017246
-0.016898
-0.015614
-0.047398
-0.044117
-0.041724
-0.047622
0.045733
0.046667
0.047226
-0.001703
-0.000046
0.001471
-0.030650
-0.029163
0.003741
-0.012813
-0.012606
-0.014675
-0.011175
0.029051
0.028839
0.027716
-0.008707
-0.008324
-0.009937
0.030128
-0.044878
-0.044508
-0.044202
-0.024475
-0.024030
-0.022935
-0.050543
-0.050414
-0.023083
-0.009011
-0.008810
-0.006499
-0.050508
-0.006042
0.003052
0.005142
-0.044122
-0.043220
-0.042103
-0.022972
-0.023086
-0.022232
-0.023724
-0.023596
0.033777
0.034532
0.033822
0.011479
0.010097
0.009760
0.007576
0.008847
0.007097
0.002267
0.002320
0.001540
0.006435
-0.031032
-0.031680
-0.032031
-0.008498
-0.009539
-0.009234
-0.004216
-0.008480
-0.047886
-0.046564
-0.048631
-0.022657
-0.023717
0.045616
0.001181
0.043811
0.043456
0.042714
-0.009875
-0.008769
-0.015334
-0.015999
0.038963
0.039691
0.037166
-0.016608
-0.017968
-0.017041
0.017314
0.016749
0.019135
0.014564
0.044437
0.045048
0.031502
0.013055
0.011085
0.011635
0.002307
0.003084
0.003322
0.026844
0.030480
0.021509
0.024646
0.027910
0.029164
0.028030
-0.021558
-0.023042
-0.023425
-0.024645
-0.024419
0.003231
0.042044
0.040559
0.041990
0.031598
0.029237
0.031112
0.029844
0.030915
0.032670
0.032233
0.039966
0.039796
-0.004261
-0.003290
-0.003085
-0.004396
-0.007879
-0.007097
-0.007413
-0.006591
0.019393
0.018198
0.019727
0.018460
0.019099
0.018044
0.028981
0.030110
0.029330
0.041625
0.040992
-0.012659
-0.012522
-0.013823
-0.012041
-0.012201
-0.010746
-0.010656
-0.013557
-0.013823
-0.012842
-0.004966
-0.005854
-0.005272
-0.005758
0.012702
0.012910
0.013743
0.011814
-0.004049
-0.011679
-0.011494
-0.011883
-0.011334
-0.010302
-0.012288
0.036964
0.036034
0.035847
0.034949
0.008633
0.009473
-0.005341
-0.005249
-0.003920
0.006872
0.007019
0.006065
0.006376
0.005433
0.006063
0.006043
-0.000083
-0.000614
0.000455
-0.001262
0.025200
0.025686
-0.013991
-0.013051
-0.013971
0.004317
0.004423
0.003595
0.022636
0.020357
0.019331
0.005221
0.002502
0.003259
0.002078
0.028817
0.028932
0.024708
0.025819
0.024664
0.025877
0.016685
0.017086
0.015797
0.016464
-0.049066
-0.049966
-0.051409
-0.046454
-0.031014
-0.030142
-0.030230
-0.018541
-0.015676
-0.028315
0.029964
-0.031874
-0.032252
-0.033663
-0.033888
0.006869
0.009254
0.009802
0.012038
-0.017608
-0.014587
-0.014071
-0.011923
0.038816
0.039545
0.039683
0.040266
0.030157
0.028200
-0.045891
-0.049176
-0.049870
-0.047887
-0.049036
-0.048186
-0.048751
-0.045730
-0.044471
0.002739
0.001315
0.001845
0.020638
0.018627
-0.027427
-0.027027
-0.028668
-0.028046
-0.029692
-0.006642
-0.006107
-0.008094
-0.007679
-0.032818
-0.033723
-0.034051
-0.032981
-0.013360
-0.010640
-0.043645
-0.042966
-0.041881
-0.042510
-0.044135
-0.048581
-0.049650
-0.048841
-0.048221
-0.047816
-0.041812
-0.040793
-0.040490
-0.041424
-0.040102
-0.010257
-0.008883
-0.009365
0.009100
-0.009270
-0.016677
-0.008520
-0.020141
-0.028890
0.050209
0.049282
0.051271
0.048012
0.046334
0.047706
-0.037486
-0.038034
-0.038956
-0.042441
-0.038581
-0.039009
-0.043910
0.043781
0.047487
0.047016
0.043936
0.001714
0.001568
-0.030404
-0.029231
-0.030267
-0.028835
-0.043754
-0.044445
-0.052056
-0.051294
-0.050859
-0.051760
0.048682
0.048507
0.047069
0.047982
-0.034170
-0.032901
0.016366
0.018284
0.015680
0.012601
0.019060
0.014952
0.008900
0.009513
0.001290
-0.015242
-0.015433
-0.013701
-0.051431
-0.051376
-0.052467
-0.050467
0.052425
0.029416
-0.039566
-0.039880
-0.041403
-0.052961
-0.052773
-0.040964
0.043945
0.043407
0.044588
-0.044064
-0.043292
-0.044441
-0.048499
-0.043282
-0.042573
0.051478
0.052625
0.051882
0.052186
0.052808
0.012292
0.014319
-0.041044
-0.040860
-0.039519
0.053124
0.021747
0.023057
0.024527
-0.030162
-0.028027
-0.027009
-0.029355
-0.026089
-0.025185
-0.018863
-0.017589
-0.048503
-0.048697
-0.051558
-0.050155
-0.049643
-0.048683
-0.028971
0.031265
-0.029872
-0.050409
-0.051474
-0.050567
-0.049848
0.052567
0.050752
-0.046153
-0.047363
-0.046912
0.053392
-0.051141
0.045048
0.046606
0.045026
-0.039510
-0.040543
-0.039121
-0.010704
-0.006266
-0.006073
-0.002054
-0.001392
-0.044901
-0.043999
-0.045537
-0.046306
0.020572
0.018001
-0.038336
-0.037869
-0.039259
-0.038253
-0.026984
-0.027022
-0.028999
-0.027254
-0.029394
-0.032780
-0.029940
-0.030205
-0.033272
-0.051248
-0.052123
0.044239
0.045372
-0.033670
-0.032771
-0.035102
-0.035645
-0.037624
0.030173
0.030505
0.029608
-0.022539
-0.023602
-0.032553
-0.034130
-0.022177
-0.020578
0.009155
0.005523
0.005711
0.008121
-0.049935
-0.037128
-0.036792
-0.037376
-0.036018
0.007913
0.045449
0.044990
0.044144
0.043792
-0.007604
-0.007498
-0.004124
-0.004195
-0.001393
-0.000871
0.042301
0.043290
0.053178
0.051244
-0.001571
0.000926
0.046892
0.048689
-0.049097
-0.031301
-0.034487
-0.038802
-0.039029
-0.037996
-0.039462
-0.039714
0.017708
-0.048833
-0.052568
0.019004
0.006370
0.004377
0.051492
0.051402
0.051846
-0.051814
-0.044497
-0.045878
-0.049623
0.006009
0.004586
0.003454
0.005096
0.043095
-0.043510
-0.042815
-0.041287
-0.040452
0.016338
0.015314
0.013549
0.014911
0.046268
-0.051635
-0.052316
-0.050874
-0.040150
-0.048509
-0.035007
-0.039744
-0.032531
-0.035473
-0.044020
-0.049457
-0.049883
0.008780
0.009298
0.003930
0.014084
-0.009831
-0.014499
0.001078
-0.048957
-0.015508
-0.047328
0.001273
-0.008601
-0.006771
-0.046140
-0.047254
-0.046316
-0.049677
-0.047785
-0.015222
-0.005487
-0.008342
-0.011887
-0.045615
-0.000466
-0.001036
-0.001543
-0.016470
-0.017317
-0.014246
-0.039472
-0.039654
-0.041724
-0.034751
-0.034201
-0.035178
-0.035767
-0.016179
-0.013991
-0.013885
-0.011531
-0.011538
0.011444
0.008764
0.000992
-0.003220
-0.004469
-0.003301
-0.002284
0.012860
0.008681
0.005124
0.004890
0.001576
-0.043673
-0.036901
-0.034389
-0.029366
-0.046537
-0.046226
-0.047132
-0.031224
0.053755
-0.037180
-0.038039
-0.039906
-0.038836
-0.024796
-0.028547
-0.021995
-0.020177
-0.018245
-0.050525
-0.036570
-0.036096
-0.048131
0.037613
0.037645
-0.004022
-0.040318
0.038401
0.050037
-0.037328
-0.042330
-0.037915
0.010774
-0.043700
-0.046027
-0.048312
-0.051691
-0.049818
0.045742
-0.044712
0.004294
0.000534
0.006817
-0.047439
-0.049346
0.049084
-0.036856
-0.036694
-0.037570
-0.046966
0.040975
0.038441
0.040894
0.046994
0.046913
0.047684
-0.045807
-0.043950
-0.043656
-0.044635
-0.047386
0.034290
0.026541
0.026273
0.019472
-0.035180
-0.035339
-0.016825
-0.016103
-0.030257
-0.025584
0.031072
-0.012089
-0.050942
-0.025467
-0.026479
-0.025662
0.001859
-0.022127
-0.020697
-0.020924
-0.045112
-0.038934
-0.034922
-0.034693
-0.030772
-0.043429
-0.018517
-0.020444
-0.020127
0.039739
0.046025
0.042722
0.004138
-0.031703
-0.031773
-0.030028
-0.047730
-0.044467
-0.045097
-0.047016
-0.024590
0.012641
-0.035783
-0.041365
-0.024336
-0.022381
-0.047809
-0.042901
-0.019673
-0.019539
-0.028282
0.007619
0.050651
0.049886
-0.045720
-0.032886
-0.012900
-0.049302
-0.040738
-0.037915
-0.041671
0.016512
-0.050842
0.014672
0.014953
0.013904
-0.019233
-0.012191
-0.047449
-0.021275
-0.030445
-0.032711
-0.034079
0.046005
-0.006634
-0.007717
-0.005970
-0.037848
-0.038318
-0.022482
-0.031558
-0.031216
-0.030273
-0.046962
-0.047891
-0.032399
-0.042563
0.040004
0.040624
-0.028108
-0.028463
-0.029310
0.038862
-0.010252
-0.009653
0.042595
0.043185
0.014212
-0.002088
-0.005759
-0.043114
-0.044493
0.002772
0.004293
0.011951
0.013135
-0.026002
-0.030282
-0.037469
-0.036277
-0.036762
0.033575
0.033270
0.003625
0.006908
-0.032314
-0.045982
-0.042858
-0.024825
-0.025283
-0.023752
-0.041205
-0.048308
-0.039626
-0.014598
-0.016901
-0.037425
-0.038417
-0.038227
0.045234
-0.019533
-0.018703
-0.021431
-0.045819
-0.045147
-0.035136
-0.033787
-0.025802
-0.021586
0.001178
-0.006044
0.017272
0.047648
-0.047847
-0.023562
-0.021745
-0.028737
-0.033741
-0.035632
-0.021972
-0.023338
-0.023693
0.037981
-0.011787
-0.018276
-0.019890
-0.003958
-0.011614
-0.027355
-0.027549
-0.026655
0.010828
0.011471
0.013852
0.001251
-0.018835
-0.035008
-0.035521
-0.036402
-0.036647
0.016309
0.017174
0.016579
-0.023034
-0.020571
-0.048653
-0.022809
-0.023684
-0.022362
-0.024329
0.008788
0.050849
0.050436
0.006209
0.015540
0.004347
0.010676
-0.041702
-0.041420
-0.040944
-0.035451
-0.034652
-0.034679
-0.023857
0.035071
0.033072
-0.009556
0.000480
-0.000803
-0.036251
-0.001898
-0.036016
-0.035224
-0.042623
-0.042548
-0.041854
-0.027295
-0.002266
-0.000829
-0.002538
-0.000112
0.050126
-0.040312
-0.041047
0.035914
-0.039502
-0.039892
0.043875
0.042037
0.041218
0.038882
0.039624
0.036035
0.039151
-0.045432
-0.044720
-0.045545
-0.032012
-0.035026
-0.036227
-0.005212
-0.008256
-0.027287
-0.042114
-0.032947
-0.027210
-0.020298
-0.043270
-0.043155
0.008301
-0.026030
-0.025914
-0.036421
-0.045761
0.049781
-0.012387
-0.043023
-0.046937
-0.039719
-0.010845
-0.014069
0.001652
-0.009809
-0.012110
-0.013542
-0.016452
-0.020719
-0.002812
-0.006499
-0.000354
-0.006016
0.002190
-0.030879
-0.039146
0.035857
0.036536
-0.035239
-0.027600
-0.017001
-0.018673
-0.020320
0.037562
0.032444
-0.004532
-0.006017
-0.006045
-0.004868
0.010923
0.011705
-0.033747
-0.034144
-0.033404
-0.042015
-0.004622
0.002375
-0.030021
0.028394
0.030537
-0.032004
-0.021936
-0.018129
-0.020426
0.050573
0.038536
0.041323
0.041413
-0.035281
-0.036841
0.049958
-0.026033
-0.015943
-0.027090
0.027394
-0.031196
-0.031622
-0.030518
-0.032243
-0.035245
-0.021171
-0.032893
0.024910
0.022800
0.021819
0.027102
0.028020
0.027320
0.025905
0.027029
0.012823
0.036018
0.034999
-0.033079
0.017450
0.013752
-0.026522
-0.026419
-0.025786
0.038152
0.035473
-0.016648
-0.026090
-0.019762
-0.031135
-0.028417
-0.014275
-0.013979
-0.015444
0.049984
0.049585
-0.021440
-0.014649
-0.025355
0.019733
0.034425
0.035945
0.037055
0.027114
0.027211
0.034003
-0.035127
-0.040832
-0.040058
-0.004948
-0.007585
-0.014541
-0.052838
-0.013131
0.024177
0.018007
0.019775
0.021524
-0.024561
-0.025073
-0.024365
-0.025513
0.025415
-0.029190
-0.029603
-0.028600
-0.015735
0.024060
0.024534
-0.052952
0.037915
0.037885
-0.033621
-0.002921
-0.052646
0.036862
-0.003568
0.022299
-0.025801
0.037925
-0.038577
0.025604
-0.024869
-0.022422
-0.012086
-0.015229
-0.037435
0.041851
0.042894
0.036573
0.047431
0.010528
0.011343
0.011281
-0.012986
-0.028122
-0.012106
-0.009582
0.010522
0.012043
-0.028328
0.012215
-0.019170
-0.020323
-0.019476
-0.018185
-0.019066
-0.018289
-0.017737
-0.017074
-0.016621
-0.040446
0.007459
-0.012489
0.049883
0.011937
0.012975
-0.024684
0.010667
-0.001079
-0.000963
-0.035130
-0.034787
-0.035455
0.002687
0.003666
0.001629
0.032139
0.032668
0.028755
0.029917
0.031927
0.033110
0.032807
0.032719
-0.035399
-0.050926
0.004621
0.004732
0.003748
0.007456
-0.022751
0.014076
0.015288
0.015343
-0.001684
-0.000135
-0.017048
-0.016336
0.016386
0.015615
0.016857
-0.001825
-0.002554
0.006470
0.000482
0.000918
-0.033015
-0.032347
0.039204
0.040418
-0.001735
-0.000555
-0.000669
0.039798
0.038550
0.033972
0.032644
-0.033721
0.020291
0.033958
-0.016555
-0.015687
-0.015422
0.023460
0.024642
0.023251
-0.019051
-0.030596
0.024626
-0.028209
-0.028290
-0.029199
0.026073
0.023032
-0.002489
-0.003233
-0.013342
-0.012487
-0.013226
0.027008
0.027005
0.025982
-0.003952
-0.003170
-0.014215
-0.004233
-0.012652
-0.011500
-0.010943
0.031353
0.030310
-0.040954
-0.041635
-0.009781
-0.009095
-0.008422
-0.009300
-0.008448
-0.049558
-0.003818
-0.024708
-0.025297
-0.024393
0.029108
-0.021646
-0.026094
-0.026518
-0.027061
0.017463
-0.009892
-0.038828
0.017054
0.031844
0.031001
0.020408
0.021104
0.021573
0.022354
0.007142
0.007457
0.007978
0.006614
0.007022
0.019739
0.037738
0.036794
-0.011683
-0.011175
-0.011080
-0.016322
-0.015155
-0.006318
-0.005544
-0.006357
0.008697
-0.020336
0.009262
0.009678
0.010214
0.008706
0.038548
0.005029
0.005411
0.035803
0.035717
0.036843
0.034588
0.015425
0.027312
-0.015447
-0.014732
0.015876
0.017891
0.017600
0.001526
0.001026
-0.019278
-0.019865
-0.020340
-0.018972
-0.018428
-0.004633
-0.004007
-0.004900
0.014394
0.014697
0.013347
0.014573
0.015381
0.033549
0.033209
0.028504
0.026139
0.022285
0.022696
0.023563
0.023369
0.024290
0.023597
-0.024678
0.031372
0.032292
0.032643
0.035390
0.034421
0.038969
0.039321
-0.005569
-0.019788
-0.019685
0.040111
0.041271
-0.031422
0.040597
0.032937
0.035393
0.025035
0.042025
-0.052264
-0.052473
-0.052307
-0.052542
-0.050153
0.007979
-0.010885
0.000409
-0.019709
-0.019432
-0.020170
-0.050842
-0.016532
0.024589
0.026555
0.017733
0.013696
0.021363
0.021455
0.020500
-0.019872
0.020793
0.000111
0.000530
0.001117
-0.019891
0.037551
0.001230
0.021695
0.021055
0.042314
0.043261
0.032348
0.032973
0.033869
0.034811
0.034812
0.005803
0.006573
-0.041254
0.019097
0.033266
0.034062
0.034747
-0.003496
-0.002942
-0.002582
-0.017572
-0.017066
-0.012409
-0.013413
-0.006379
-0.007391
0.009655
0.008472
0.008097
0.025899
-0.019178
-0.018430
-0.020637
0.040950
0.039956
0.021702
0.017008
0.015486
0.010588
-0.014656
-0.016562
-0.018617
0.042548
0.014204
0.012825
0.012788
0.041691
0.041920
0.040964
-0.033521
0.023165
-0.031438
-0.009817
-0.010133
-0.010781
-0.034132
0.011113
-0.024596
-0.046995
-0.018458
0.007331
0.007088
-0.004189
-0.002024
0.010470
-0.010648
-0.010224
-0.009390
0.009893
0.022925
-0.018740
-0.014059
-0.014750
-0.009749
-0.010656
0.011507
-0.010282
-0.045196
-0.045349
0.027901
0.009575
-0.027476
0.002131
0.001901
0.019489
0.005269
0.038699
0.034104
0.035150
-0.029614
0.009602
-0.017727
0.015950
-0.042413
-0.016042
-0.017761
0.013786
0.014613
0.013630
0.004619
0.005313
0.020706
0.019178
-0.037651
-0.037589
0.001160
-0.002789
0.017793
0.004822
0.001794
-0.011540
0.035394
-0.010535
0.036037
0.035730
0.001197
-0.021439
-0.020755
0.038564
0.037236
0.019930
0.019757
-0.001049
0.031199
0.032417
0.031787
0.021875
0.022800
0.041412
0.041877
0.016043
0.026157
0.027686
0.018863
-0.043570
0.033251
0.023055
0.018824
-0.021072
0.011411
0.024883
-0.030220
-0.024937
0.026965
0.004694
0.035040
0.037067
-0.018909
0.000555
-0.045565
-0.029108
-0.004697
-0.005507
-0.006402
-0.008832
-0.032251
-0.018203
-0.011731
-0.004265
0.021881
0.011005
0.011420
0.012478
0.006463
0.035066
-0.006746
0.028739
0.027102
0.026600
-0.027272
-0.016198
-0.004721
0.000105
0.000599
0.038981
0.029084
-0.026578
0.013711
0.012993
-0.004044
0.020887
0.042747
0.025886
0.029182
0.028879
-0.020594
0.028200
-0.008068
0.020507
0.042023
0.015488
-0.007727
-0.007145
-0.006604
-0.008512
-0.008102
-0.007339
-0.007347
0.005554
0.005236
0.013777
-0.002081
0.017737
0.018252
0.018881
-0.006002
0.004004
0.022662
0.030411
0.009335
-0.006968
0.009883
0.012675
0.012976
0.022203
-0.007022
0.004090
0.003192
0.024482
0.011903
0.024528
-0.007659
0.003353
0.000238
0.041139
0.031005
0.014135
0.019560
0.019887
0.033252
0.009846
0.017475
0.021402
-0.025378
-0.014514
0.027039
0.017614
0.031896
0.036829
0.037552
-0.007482
-0.003513
0.012390
-0.029856
-0.029141
-0.028341
-0.029251
-0.028373
-0.028363
-0.012343
-0.013004
-0.012274
0.049915
0.047518
0.047531
0.027557
0.026457
0.027564
0.045468
0.050777
0.003250
0.002534
-0.005628
0.032610
0.041041
0.040099
-0.014698
-0.016247
-0.015056
0.051741
0.050396
0.052685
0.050048
-0.015334
-0.029328
-0.027656
-0.016647
-0.016638
-0.015507
-0.013860
-0.012986
-0.016854
-0.018059
0.023775
0.022367
0.022570
0.022937
-0.015491
-0.009646
-0.018125
-0.019768
-0.018426
-0.006396
-0.001493
0.020759
0.017847
0.019778
0.018258
-0.023537
-0.022425
-0.023769
0.011923
0.012603
0.011842
-0.000879
-0.001826
-0.001396
-0.002650
0.052332
0.051335
-0.022834
-0.019123
-0.014852
-0.033589
-0.030477
-0.030488
-0.007135
-0.005820
-0.006015
-0.027039
-0.021010
-0.019145
-0.018842
-0.004402
0.018372
0.020406
0.020917
0.016300
0.035699
0.035872
0.040313
0.031404
-0.000081
0.004325
0.003604
0.025629
0.026648
0.027480
0.028793
-0.011984
-0.018432
-0.014462
-0.042358
-0.044331
-0.005335
-0.005968
-0.004724
-0.006157
0.036867
0.037956
0.037087
0.038482
0.010944
0.010237
0.013372
0.008680
0.025530
0.026134
0.025126
0.026612
0.034681
0.034922
0.035920
0.033878
-0.013151
-0.012082
-0.027925
-0.028480
-0.035473
-0.034726
-0.036117
-0.024880
-0.026260
-0.025705
0.027974
0.027475
-0.010553
-0.010216
-0.011234
-0.010869
-0.032020
-0.016685
-0.017633
-0.016658
-0.017639
-0.032366
-0.032061
-0.031296
-0.030565
-0.024160
-0.025023
-0.025256