# vtk DataFile Version 2.0
Test
ASCII
DATASET POLYDATA
POINTS 5816 float
0.000000 0.000000 0.000000
2.000000 0.000000 0.000000
2.000000 4.000000 0.000000
0.000000 4.000000 0.000000
0.000000 0.500000 0.000000
1.500000 2.000000 0.000000
2.000000 2.500000 0.000000
0.285714 0.000000 0.000000
0.571429 0.000000 0.000000
0.857143 0.000000 0.000000
1.142857 0.000000 0.000000
1.428571 0.000000 0.000000
1.714286 0.000000 0.000000
2.000000 0.275040 0.000000
2.000000 0.520628 0.000000
2.000000 0.739917 0.000000
2.000000 0.935725 0.000000
2.000000 1.110565 0.000000
2.000000 1.266683 0.000000
2.000000 1.406084 0.000000
2.000000 1.530557 0.000000
2.000000 1.641701 0.000000
2.000000 1.740944 0.000000
2.000000 1.829560 0.000000
2.000000 1.908686 0.000000
2.000000 1.979340 0.000000
2.000000 2.042428 0.000000
2.000000 2.098760 0.000000
2.000000 2.149060 0.000000
2.000000 2.193974 0.000000
2.000000 2.234078 0.000000
2.000000 2.269888 0.000000
2.000000 2.301863 0.000000
2.000000 2.330415 0.000000
2.000000 2.355908 0.000000
2.000000 2.378673 0.000000
2.000000 2.398999 0.000000
2.000000 2.417149 0.000000
2.000000 2.433355 0.000000
2.000000 2.447826 0.000000
2.000000 2.460747 0.000000
2.000000 2.472285 0.000000
2.000000 2.482587 0.000000
2.000000 2.491786 0.000000
2.000000 2.508637 0.000000
2.000000 2.519089 0.000000
2.000000 2.531737 0.000000
2.000000 2.547044 0.000000
2.000000 2.565568 0.000000
2.000000 2.587985 0.000000
2.000000 2.615113 0.000000
2.000000 2.647942 0.000000
2.000000 2.687670 0.000000
2.000000 2.735749 0.000000
2.000000 2.793931 0.000000
2.000000 2.864341 0.000000
2.000000 2.949549 0.000000
2.000000 3.052664 0.000000
2.000000 3.177450 0.000000
2.000000 3.328462 0.000000
2.000000 3.511210 0.000000
2.000000 3.732366 0.000000
1.714286 4.000000 0.000000
1.428571 4.000000 0.000000
1.142857 4.000000 0.000000
0.857143 4.000000 0.000000
0.571429 4.000000 0.000000
0.285714 4.000000 0.000000
0.000000 3.715673 0.000000
0.000000 3.453827 0.000000
0.000000 3.212685 0.000000
0.000000 2.990611 0.000000
0.000000 2.786096 0.000000
0.000000 2.597752 0.000000
0.000000 2.424300 0.000000
0.000000 2.264564 0.000000
0.000000 2.117457 0.000000
0.000000 1.981983 0.000000
0.000000 1.857220 0.000000
0.000000 1.742322 0.000000
0.000000 1.636510 0.000000
0.000000 1.539064 0.000000
0.000000 1.449323 0.000000
0.000000 1.366678 0.000000
0.000000 1.290567 0.000000
0.000000 1.220475 0.000000
0.000000 1.155925 0.000000
0.000000 1.096479 0.000000
0.000000 1.041733 0.000000
0.000000 0.991316 0.000000
0.000000 0.944886 0.000000
0.000000 0.902126 0.000000
0.000000 0.862748 0.000000
0.000000 0.826483 0.000000
0.000000 0.793086 0.000000
0.000000 0.762330 0.000000
0.000000 0.734005 0.000000
0.000000 0.707920 0.000000
0.000000 0.683898 0.000000
0.000000 0.661775 0.000000
0.000000 0.641402 0.000000
0.000000 0.622639 0.000000
0.000000 0.605360 0.000000
0.000000 0.589447 0.000000
0.000000 0.574792 0.000000
0.000000 0.561296 0.000000
0.000000 0.548868 0.000000
0.000000 0.537421 0.000000
0.000000 0.526881 0.000000
0.000000 0.517173 0.000000
0.000000 0.508233 0.000000
0.000000 0.491468 0.000000
0.000000 0.479827 0.000000
0.000000 0.463944 0.000000
0.000000 0.442273 0.000000
0.000000 0.412707 0.000000
0.000000 0.372368 0.000000
0.000000 0.317330 0.000000
0.000000 0.242238 0.000000
0.000000 0.139785 0.000000
0.005639 0.505639 0.000000
0.011278 0.511278 0.000000
0.016917 0.516917 0.000000
0.022556 0.522556 0.000000
0.028195 0.528195 0.000000
0.033835 0.533835 0.000000
0.039474 0.539474 0.000000
0.045113 0.545113 0.000000
0.050752 0.550752 0.000000
0.056391 0.556391 0.000000
0.062030 0.562030 0.000000
0.067669 0.567669 0.000000
0.073308 0.573308 0.000000
0.078947 0.578947 0.000000
0.084586 0.584586 0.000000
0.090226 0.590226 0.000000
0.095865 0.595865 0.000000
0.101504 0.601504 0.000000
0.107143 0.607143 0.000000
0.112782 0.612782 0.000000
0.118421 0.618421 0.000000
0.124060 0.624060 0.000000
0.129699 0.629699 0.000000
0.135338 0.635338 0.000000
0.140977 0.640977 0.000000
0.146617 0.646617 0.000000
0.152256 0.652256 0.000000
0.157895 0.657895 0.000000
0.163534 0.663534 0.000000
0.169173 0.669173 0.000000
0.174812 0.674812 0.000000
0.180451 0.680451 0.000000
0.186090 0.686090 0.000000
0.191729 0.691729 0.000000
0.197368 0.697368 0.000000
0.203008 0.703008 0.000000
0.208647 0.708647 0.000000
0.214286 0.714286 0.000000
0.219925 0.719925 0.000000
0.225564 0.725564 0.000000
0.231203 0.731203 0.000000
0.236842 0.736842 0.000000
0.242481 0.742481 0.000000
0.248120 0.748120 0.000000
0.253759 0.753759 0.000000
0.259398 0.759398 0.000000
0.265038 0.765038 0.000000
0.270677 0.770677 0.000000
0.276316 0.776316 0.000000
0.281955 0.781955 0.000000
0.287594 0.787594 0.000000
0.293233 0.793233 0.000000
0.298872 0.798872 0.000000
0.304511 0.804511 0.000000
0.310150 0.810150 0.000000
0.315789 0.815789 0.000000
0.321429 0.821429 0.000000
0.327068 0.827068 0.000000
0.332707 0.832707 0.000000
0.338346 0.838346 0.000000
0.343985 0.843985 0.000000
0.349624 0.849624 0.000000
0.355263 0.855263 0.000000
0.360902 0.860902 0.000000
0.366541 0.866541 0.000000
0.372180 0.872180 0.000000
0.377820 0.877820 0.000000
0.383459 0.883459 0.000000
0.389098 0.889098 0.000000
0.394737 0.894737 0.000000
0.400376 0.900376 0.000000
0.406015 0.906015 0.000000
0.411654 0.911654 0.000000
0.417293 0.917293 0.000000
0.422932 0.922932 0.000000
0.428571 0.928571 0.000000
0.434211 0.934211 0.000000
0.439850 0.939850 0.000000
0.445489 0.945489 0.000000
0.451128 0.951128 0.000000
0.456767 0.956767 0.000000
0.462406 0.962406 0.000000
0.468045 0.968045 0.000000
0.473684 0.973684 0.000000
0.479323 0.979323 0.000000
0.484962 0.984962 0.000000
0.490602 0.990602 0.000000
0.496241 0.996241 0.000000
0.501880 1.001880 0.000000
0.507519 1.007519 0.000000
0.513158 1.013158 0.000000
0.518797 1.018797 0.000000
0.524436 1.024436 0.000000
0.530075 1.030075 0.000000
0.535714 1.035714 0.000000
0.541353 1.041353 0.000000
0.546992 1.046992 0.000000
0.552632 1.052632 0.000000
0.558271 1.058271 0.000000
0.563910 1.063910 0.000000
0.569549 1.069549 0.000000
0.575188 1.075188 0.000000
0.580827 1.080827 0.000000
0.586466 1.086466 0.000000
0.592105 1.092105 0.000000
0.597744 1.097744 0.000000
0.603383 1.103383 0.000000
0.609023 1.109023 0.000000
0.614662 1.114662 0.000000
0.620301 1.120301 0.000000
0.625940 1.125940 0.000000
0.631579 1.131579 0.000000
0.637218 1.137218 0.000000
0.642857 1.142857 0.000000
0.648496 1.148496 0.000000
0.654135 1.154135 0.000000
0.659774 1.159774 0.000000
0.665414 1.165414 0.000000
0.671053 1.171053 0.000000
0.676692 1.176692 0.000000
0.682331 1.182331 0.000000
0.687970 1.187970 0.000000
0.693609 1.193609 0.000000
0.699248 1.199248 0.000000
0.704887 1.204887 0.000000
0.710526 1.210526 0.000000
0.716165 1.216165 0.000000
0.721805 1.221805 0.000000
0.727444 1.227444 0.000000
0.733083 1.233083 0.000000
0.738722 1.238722 0.000000
0.744361 1.244361 0.000000
0.750000 1.250000 0.000000
0.755639 1.255639 0.000000
0.761278 1.261278 0.000000
0.766917 1.266917 0.000000
0.772556 1.272556 0.000000
0.778195 1.278195 0.000000
0.783835 1.283835 0.000000
0.789474 1.289474 0.000000
0.795113 1.295113 0.000000
0.800752 1.300752 0.000000
0.806391 1.306391 0.000000
0.812030 1.312030 0.000000
0.817669 1.317669 0.000000
0.823308 1.323308 0.000000
0.828947 1.328947 0.000000
0.834586 1.334586 0.000000
0.840226 1.340226 0.000000
0.845865 1.345865 0.000000
0.851504 1.351504 0.000000
0.857143 1.357143 0.000000
0.862782 1.362782 0.000000
0.868421 1.368421 0.000000
0.874060 1.374060 0.000000
0.879699 1.379699 0.000000
0.885338 1.385338 0.000000
0.890977 1.390977 0.000000
0.896617 1.396617 0.000000
0.902256 1.402256 0.000000
0.907895 1.407895 0.000000
0.913534 1.413534 0.000000
0.919173 1.419173 0.000000
0.924812 1.424812 0.000000
0.930451 1.430451 0.000000
0.936090 1.436090 0.000000
0.941729 1.441729 0.000000
0.947368 1.447368 0.000000
0.953008 1.453008 0.000000
0.958647 1.458647 0.000000
0.964286 1.464286 0.000000
0.969925 1.469925 0.000000
0.975564 1.475564 0.000000
0.981203 1.481203 0.000000
0.986842 1.486842 0.000000
0.992481 1.492481 0.000000
0.998120 1.498120 0.000000
1.003759 1.503759 0.000000
1.009398 1.509398 0.000000
1.015038 1.515038 0.000000
1.020677 1.520677 0.000000
1.026316 1.526316 0.000000
1.031955 1.531955 0.000000
1.037594 1.537594 0.000000
1.043233 1.543233 0.000000
1.048872 1.548872 0.000000
1.054511 1.554511 0.000000
1.060150 1.560150 0.000000
1.065789 1.565789 0.000000
1.071429 1.571429 0.000000
1.077068 1.577068 0.000000
1.082707 1.582707 0.000000
1.088346 1.588346 0.000000
1.093985 1.593985 0.000000
1.099624 1.599624 0.000000
1.105263 1.605263 0.000000
1.110902 1.610902 0.000000
1.116541 1.616541 0.000000
1.122180 1.622180 0.000000
1.127820 1.627820 0.000000
1.133459 1.633459 0.000000
1.139098 1.639098 0.000000
1.144737 1.644737 0.000000
1.150376 1.650376 0.000000
1.156015 1.656015 0.000000
1.161654 1.661654 0.000000
1.167293 1.667293 0.000000
1.172932 1.672932 0.000000
1.178571 1.678571 0.000000
1.184211 1.684211 0.000000
1.189850 1.689850 0.000000
1.195489 1.695489 0.000000
1.201128 1.701128 0.000000
1.206767 1.706767 0.000000
1.212406 1.712406 0.000000
1.218045 1.718045 0.000000
1.223684 1.723684 0.000000
1.229323 1.729323 0.000000
1.234962 1.734962 0.000000
1.240602 1.740602 0.000000
1.246241 1.746241 0.000000
1.251880 1.751880 0.000000
1.257519 1.757519 0.000000
1.263158 1.763158 0.000000
1.268797 1.768797 0.000000
1.274436 1.774436 0.000000
1.280075 1.780075 0.000000
1.285714 1.785714 0.000000
1.291353 1.791353 0.000000
1.296992 1.796992 0.000000
1.302632 1.802632 0.000000
1.308271 1.808271 0.000000
1.313910 1.813910 0.000000
1.319549 1.819549 0.000000
1.325188 1.825188 0.000000
1.330827 1.830827 0.000000
1.336466 1.836466 0.000000
1.342105 1.842105 0.000000
1.347744 1.847744 0.000000
1.353383 1.853383 0.000000
1.359023 1.859023 0.000000
1.364662 1.864662 0.000000
1.370301 1.870301 0.000000
1.375940 1.875940 0.000000
1.381579 1.881579 0.000000
1.387218 1.887218 0.000000
1.392857 1.892857 0.000000
[...]
POINT_DATA 5816
SCALARS UX float 1
LOOKUP_TABLE default
-0.127334
0.046152
0.000000
-0.000000
-0.126185
0.034706
0.082230
-0.105744
-0.079827
-0.053515
-0.028041
-0.003188
0.021507
0.050577
0.054262
0.057422
0.060239
0.062827
0.065306
0.067651
0.069949
0.072135
0.074167
0.075927
0.077401
0.078618
0.079594
0.080353
0.080931
0.081356
0.081662
0.081862
0.082007
0.082097
0.082151
0.082188
0.082208
0.082220
0.082227
0.082230
0.082231
0.082232
0.082232
0.082231
0.082230
0.082229
0.082227
0.082225
0.082220
0.082218
0.082210
0.082207
0.082189
0.082145
0.082032
0.081809
0.081317
0.080299
0.078185
0.073727
0.064885
0.047240
-0.000000
0.000000
0.000000
-0.000000
-0.000000
0.000000
-0.050998
-0.074293
-0.085156
-0.091831
-0.096130
-0.099102
-0.101466
-0.103420
-0.105152
-0.106724
-0.108186
-0.109538
-0.110788
-0.111940
-0.113015
-0.114025
-0.114959
-0.115825
-0.116670
-0.117526
-0.118403
-0.119445
-0.120707
-0.122296
-0.124227
-0.126537
-0.129194
-0.132197
-0.135298
-0.138528
-0.141753
-0.144899
-0.147926
-0.150803
-0.153499
-0.155920
-0.157841
-0.159417
-0.160871
-0.160656
-0.161534
-0.158320
-0.135845
-0.120401
-0.117782
-0.117614
-0.117800
-0.118697
-0.120295
-0.121942
-0.124166
-0.125761
-0.132799
-0.129158
-0.130359
-0.128626
-0.127696
-0.125777
-0.125074
-0.124459
-0.123461
-0.123023
-0.120120
-0.121213
-0.120952
-0.120043
-0.119118
-0.118973
-0.116817
-0.116650
-0.115065
-0.113724
-0.112301
-0.111867
-0.110380
-0.109725
-0.110969
-0.108766
-0.107901
-0.108228
-0.107127
-0.105606
-0.105766
-0.103904
-0.104086
-0.101682
-0.101469
-0.100774
-0.098097
-0.097418
-0.096383
-0.095818
-0.095792
-0.096272
-0.096415
-0.096295
-0.096071
-0.095676
-0.095265
-0.094770
-0.094275
-0.093838
-0.093360
-0.092894
-0.092347
-0.091806
-0.091274
-0.090722
-0.090155
-0.089584
-0.089056
-0.088479
-0.087907
-0.087357
-0.086811
-0.086251
-0.085681
-0.085112
-0.084542
-0.083953
-0.083371
-0.082822
-0.082262
-0.081708
-0.081140
-0.080578
-0.080020
-0.079444
-0.078875
-0.078303
-0.077742
-0.077183
-0.076631
-0.076064
-0.075505
-0.074925
-0.074351
-0.073767
-0.073204
-0.072628
-0.072062
-0.071495
-0.070908
-0.070340
-0.069772
-0.069198
-0.068630
-0.068053
-0.067477
-0.066911
-0.066342
-0.065764
-0.065191
-0.064624
-0.064045
-0.063470
-0.062898
-0.062334
-0.061754
-0.061176
-0.060606
-0.060030
-0.059461
-0.058885
-0.058297
-0.057715
-0.057131
-0.056549
-0.055981
-0.055394
-0.054818
-0.054242
-0.053662
-0.053078
-0.052502
-0.051930
-0.051344
-0.050762
-0.050187
-0.049609
-0.049020
-0.048440
-0.047868
-0.047290
-0.046717
-0.046140
-0.045560
-0.044981
-0.044411
-0.043831
-0.043246
-0.042668
-0.042085
-0.041499
-0.040911
-0.040336
-0.039752
-0.039164
-0.038577
-0.038000
-0.037423
-0.036842
-0.036261
-0.035677
-0.035088
-0.034502
-0.033923
-0.033339
-0.032752
-0.032165
-0.031588
-0.031007
-0.030419
-0.029838
-0.029252
-0.028669
-0.028082
-0.027505
-0.026923
-0.026335
-0.025746
-0.025156
-0.024558
-0.023972
-0.023382
-0.022784
-0.022209
-0.021625
-0.021042
-0.020472
-0.019882
-0.019281
-0.018691
-0.018094
-0.017506
-0.016926
-0.016326
-0.015729
-0.015133
-0.014539
-0.013950
-0.013356
-0.012763
-0.012185
-0.011597
-0.011011
-0.010421
-0.009823
-0.009233
-0.008643
-0.008048
-0.007449
-0.006856
-0.006249
-0.005663
-0.005062
-0.004463
-0.003869
-0.003281
-0.002685
-0.002092
-0.001495
-0.000899
-0.000300
0.000294
0.000898
0.001500
0.002089
0.002683
0.003282
0.003894
0.004498
0.005098
0.005697
0.006303
0.006912
0.007523
0.008136
0.008749
0.009357
0.009972
0.010589
0.011188
0.011794
0.012410
0.013030
0.013643
0.014264
0.014875
0.015501
0.016137
0.016757
0.017376
0.017999
0.018619
0.019247
0.019886
0.020518
0.021171
0.021818
0.022475
0.023138
0.023804
0.024464
0.025136
0.025815
0.026497
0.027188
0.027894
0.028587
0.029299
0.030038
0.030778
0.031521
0.032301
0.033083
0.033882
0.035434
0.036040
0.036570
0.037084
0.037593
0.038103
0.038613
0.039130
0.039651
0.040171
0.040695
0.041224
0.041754
0.042287
0.042822
0.043360
0.043898
0.044440
0.044983
0.045528
0.046074
0.046621
0.047169
0.047718
0.048266
0.048815
0.049364
0.049913
0.050462
0.051011
0.051561
0.052110
0.052658
0.053206
0.053754
0.054301
0.054847
0.055392
0.055938
0.056483
0.057026
0.057570
0.058113
0.058654
0.059195
0.059736
0.060275
0.060813
0.061350
0.061887
0.062422
0.062957
0.063491
0.064024
0.064556
0.065087
0.065617
0.066146
0.066674
0.067201
0.067728
0.068254
0.068779
0.069303
0.069827
0.070350
0.070872
0.071393
0.071914
0.072434
0.072954
0.073473
0.073991
0.074509
0.075026
0.075543
0.076059
0.076575
0.077091
0.077606
0.078121
0.078635
0.079150
0.079664
0.080178
0.080691
0.081205
0.081718
0.016891
0.017170
0.016197
0.017913
-0.004900
-0.006270
-0.006833
-0.008322
0.002313
0.004540
0.006575
-0.030199
-0.032635
-0.028611
-0.035339
-0.017562
-0.014150
-0.016289
0.068369
0.069050
0.068982
0.068318
-0.037454
-0.036475
-0.036734
-0.037161
-0.016536
0.059851
0.061113
0.060493
0.061520
-0.031771
-0.030219
-0.029733
-0.028685
-0.018468
-0.019567
-0.020323
-0.021352
-0.023331
-0.022073
-0.021770
0.047009
0.045328
0.046580
0.044569
-0.023302
-0.007273
-0.008494
-0.006748
-0.007662
0.012697
0.010861
0.012298
0.013242
0.013761
0.012369
0.012990
-0.069867
-0.069070
-0.071016
-0.069389
0.011199
-0.020983
-0.021995
-0.077379
-0.076734
-0.076211
-0.077824
-0.082237
-0.081199
-0.081984
-0.020840
-0.005752
-0.007183
-0.012215
-0.108069
-0.108405
-0.106744
-0.107009
0.080809
0.079705
0.078954
0.080133
-0.041862
-0.040654
-0.051268
-0.031933
-0.106337
-0.105116
-0.101748
-0.099967
-0.099865
-0.098386
-0.111876
-0.112840
-0.110947
-0.113763
-0.100650
-0.099598
-0.102325
-0.097983
-0.137200
-0.135353
-0.138638
-0.134586
0.073733
0.076687
0.076947
-0.021416
-0.080936
-0.020177
-0.025902
-0.024844
-0.025524
-0.025463
-0.081776
-0.082760
-0.033764
-0.036069
-0.036116
-0.082568
-0.055561
-0.055275
-0.054417
-0.051269
-0.044826
-0.045980
-0.039391
-0.027789
-0.017764
-0.025838
-0.018611
-0.036424
-0.035178
-0.039707
-0.033421
-0.050785
-0.046710
-0.047738
-0.042932
-0.056613
-0.037316
-0.036062
-0.036587
0.079328
0.079421
0.080177
0.078200
-0.036028
0.013336
0.012601
0.012215
0.078534
0.077908
-0.025651
-0.024825
-0.020518
-0.029208
-0.052434
-0.064673
-0.065008
0.008610
-0.111764
-0.110985
-0.114389
-0.109172
-0.011703
-0.011884
-0.007555
-0.008427
-0.096395
-0.096712
0.013947
-0.024313
-0.025155
-0.024251
-0.007936
-0.004071
-0.028047
-0.027725
-0.025769
-0.003255
-0.084595
-0.085176
-0.083603
0.073545
0.071211
0.073541
0.073041
-0.085794
-0.011357
-0.010869
-0.010371
0.022498
0.021261
0.022840
0.002883
0.001609
0.001651
0.002525
-0.000981
-0.001639
0.000375
-0.023156
-0.022970
-0.022096
-0.049015
-0.050378
-0.051502
-0.047242
0.004545
0.008264
0.010292
0.000435
-0.004024
0.036987
0.035517
0.037360
0.029010
0.029094
0.030515
-0.058905
-0.058272
-0.059267
-0.076128
-0.075344
-0.075082
0.067331
0.066480
0.066757
0.067612
0.075339
0.075803
0.076272
0.029936
-0.039690
-0.039196
-0.044141
0.016345
0.014255
0.012704
-0.097064
-0.096128
-0.094659
-0.093877
-0.092968
-0.091888
-0.090910
-0.090083
0.020010
0.019239
0.020499
0.061460
0.060349
-0.041439
0.020247
0.069728
0.069176
0.068355
-0.057605
-0.057783
-0.058916
-0.058379
-0.024162
-0.023836
-0.019116
0.051374
0.053361
0.052731
0.021253
0.020713
-0.018995
0.021872
-0.032984
-0.034007
-0.033392
0.060630
0.062337
0.061369
0.062829
0.070727
0.071555
0.070354
-0.038278
-0.039001
-0.039302
0.028510
0.029532
0.030023
0.027944
-0.011896
-0.010761
-0.010216
-0.038150
-0.051417
-0.052796
-0.051822
0.041074
0.042948
0.043185
-0.051972
0.050773
-0.025926
-0.025471
0.045581
0.045574
0.046564
0.044563
-0.013253
-0.012467
-0.012256
0.054665
0.055563
0.056804
-0.011401
0.034026
0.033691
0.034816
0.057429
0.032722
-0.038465
-0.038550
-0.039620
-0.039137
-0.004964
-0.003736
-0.004571
0.015890
0.014418
0.015771
0.015091
-0.034330
-0.035600
-0.034113
-0.035259
-0.003637
-0.033274
-0.034357
-0.015012
-0.015827
-0.014504
-0.015756
-0.016318
-0.032873
0.048842
0.047729
0.049623
0.022674
0.023012
0.021968
-0.061565
-0.063338
-0.063400
0.017956
0.017195
0.018195
0.016937
-0.052736
-0.054251
-0.053247
-0.053805
0.034483
0.035578
0.035600
-0.026082
-0.026664
-0.024064
0.002698
0.004486
0.003363
-0.028768
0.005107
-0.063637
-0.064770
-0.064010
-0.065238
0.076912
-0.096863
-0.096522
-0.094441
-0.094706
-0.086279
-0.086580
-0.099741
-0.100739
-0.099231
-0.032499
-0.031976
-0.101349
0.053829
0.062518
0.062659
0.044578
0.044078
0.045307
0.034571
-0.039194
-0.038578
-0.040439
0.057160
0.017732
0.013604
0.009845
0.001687
0.043164
0.043238
0.062056
0.062487
0.062058
-0.033259
-0.035943
0.052390
-0.043796
-0.042196
-0.044905
-0.042033
-0.095081
-0.095519
-0.097689
-0.097931
-0.081929
-0.082342
-0.083903
0.035618
0.034524
0.034474
0.064393
0.065019
0.065660
0.033827
0.030081
0.033097
-0.054080
-0.053380
-0.052153
-0.051186
0.029024
-0.041829
-0.043964
-0.042734
-0.023974
0.005818
0.006841
0.007745
0.050143
0.051378
0.052485
-0.056651
-0.058081
-0.058254
0.049024
0.053662
0.056026
-0.044831
-0.042903
-0.037424
-0.038471
-0.016434
-0.017069
-0.017494
-0.061952
-0.060676
-0.060695
-0.061503
-0.083517
-0.091913
-0.092924
-0.091527
0.006994
0.005843
0.006002
0.004720
0.047278
0.047645
0.045889
0.041587
0.042204
-0.035093
-0.034722
-0.034503
-0.015259
-0.093802
-0.054943
-0.056392
0.050822
0.050083
0.050030
0.051306
-0.098273
-0.098229
-0.096316
-0.098835
-0.100817
0.031857
0.032681
0.031635
-0.054096
-0.024010
-0.024462
-0.025578
-0.092846
-0.094778
-0.087519
-0.087449
-0.086181
-0.025749
-0.020931
-0.022841
-0.025481
-0.025460
-0.035715
-0.034402
-0.035784
0.033455
0.032167
-0.112158
-0.113187
-0.113915
-0.047183
-0.046752
-0.048838
-0.048304
-0.033271
-0.034144
-0.032711
0.067394
0.067788
-0.136289
-0.133587
-0.109717
-0.110188
-0.113441
0.027121
0.025957
0.027417
-0.019029
-0.018680
-0.017847
0.062715
0.061418
0.063667
-0.020291
-0.019999
-0.018900
0.026457
-0.008731
-0.010798
-0.018446
-0.081713
-0.082413
-0.081167
0.047186
0.047598
-0.038262
-0.038738
-0.040872
-0.040577
-0.037335
-0.036007
0.046510
-0.033248
-0.034192
-0.035239
-0.036848
-0.031398
-0.011795
-0.011053
-0.036197
-0.096471
-0.097375
-0.085889
-0.087320
-0.082218
-0.083112
-0.036967
-0.083234
-0.026511
-0.024419
-0.025346
-0.028476
-0.030152
-0.031012
0.069635
0.070234
0.069365
0.070351
-0.095635
-0.093758
-0.095661
0.035191
0.035822
0.035154
-0.100465
-0.098041
0.046916
0.046980
0.046310
-0.082147
-0.083476
0.046223
-0.011000
0.065258
0.064685
-0.076899
-0.077964
-0.077260
-0.078523
-0.075733
-0.075637
-0.062014
-0.062960
-0.062444
-0.063592
-0.106979
-0.107902
-0.108774
0.066462
0.066148
0.065394
-0.060965
-0.061498
-0.060185
0.011874
0.005096
-0.012161
-0.000660
0.000407
-0.000971
0.058839
-0.091034
-0.093861
-0.019741
-0.019896
0.035485
0.036704
0.036866
-0.019558
-0.021115
-0.010056
-0.009433
-0.095449
-0.093520
0.028844
0.027706
0.028229
0.062844
0.063389
0.064072
0.060376
0.064706
0.027069
0.029954
0.030914
-0.038180
-0.055820
-0.055260
-0.056623
-0.037540
0.061692
-0.066686
-0.065364
-0.065178
-0.057835
-0.057772
-0.058805
-0.058767
-0.004010
-0.002979
-0.005368
-0.064051
-0.018821
-0.049999
-0.049160
-0.050503
-0.073465
-0.074733
-0.074571
-0.073524
0.058597
0.058579
0.057903
0.014418
0.015368
0.014941
0.064378
0.015866
0.013950
0.012945
-0.009159
-0.012196
-0.011051
0.035972
0.034924
0.035547
0.068265
-0.071875
-0.071146
-0.072149
-0.070789
-0.072526
-0.071455
-0.071805
0.062266
-0.017354
-0.016708
-0.138793
-0.140566
-0.139148
-0.049039
-0.050295
-0.018401
-0.019222
-0.016866
-0.021005
0.028201
0.027342
0.026624
0.025475
0.007163
-0.074545
0.058382
0.057850
0.058506
-0.131763
-0.133564
-0.132769
-0.060829
-0.059903
-0.060141
-0.061782
-0.062656
0.054267
0.053857
0.055243
-0.079843
-0.079736
-0.080944
-0.080097
0.002260
0.003403
0.001822
0.003802
0.019879
0.018159
0.019653
0.018783
0.004335
0.005369
0.005204
0.062897
0.061845
0.006311
-0.072247
-0.073286
-0.049402
-0.049642
-0.048579
-0.048823
0.029946
0.030951
0.031886
0.033019
0.028598
0.027757
-0.021916
0.026158
-0.001664
-0.000991
-0.002350
-0.004694
-0.005137
-0.008167
-0.008300
-0.000660
-0.003918
-0.086953
-0.086826
-0.088470
-0.002016
-0.086929
-0.085497
-0.085281
-0.064288
-0.062731
-0.044167
-0.043314
-0.044843
-0.018062
-0.056188
-0.056730
-0.057853
-0.055610
-0.061613
-0.061069
-0.060609
0.006735
0.007252
0.007570
-0.031026
-0.032027
-0.031618
-0.031431
0.040830
0.041772
0.041415
0.042462
-0.027321
-0.026716
-0.026439
0.022445
0.023910
0.006845
0.013529
0.014474
0.002056
0.003604
0.003419
0.002803
-0.015275
-0.014584
-0.014165
-0.013408
-0.049593
-0.050324
-0.050781
-0.052016
-0.050807
-0.051953
-0.043261
0.054608
0.055284
0.016350
0.016750
0.015130
0.018038
0.009371
0.009160
0.008453
0.011308
0.012004
0.010695
0.066906
-0.071858
-0.072862
-0.071476
-0.047578
-0.046501
-0.046546
-0.045482
-0.054850
-0.053723
-0.054316
-0.052920
-0.055350
-0.056802
0.019312
0.020358
0.020026
0.063629
0.063788
0.021288
0.025028
0.023160
0.024864
0.022876
-0.031786
-0.032057
-0.030972
-0.033073
-0.072391
-0.084609
-0.085310
-0.035751
-0.035013
-0.036387
0.010960
0.012031
0.012117
0.011226
-0.019526
-0.020352
-0.053864
-0.053056
-0.021579
-0.019672
-0.013147
-0.012590
0.004865
0.005848
-0.081701
-0.082834
-0.043297
-0.042408
-0.043056
0.001071
-0.000133
0.000248
-0.021478
-0.007828
-0.007079
-0.006606
-0.006965
-0.007707
-0.006353
-0.035893
-0.036491
-0.035537
-0.084119
-0.008953
-0.044821
-0.044385
-0.043872
-0.056893
-0.023603
-0.024141
-0.046414
-0.047534
-0.045550
-0.048359
-0.056767
-0.050472
-0.059605
-0.059599
-0.070279
-0.069555
-0.069342
-0.047545
0.007724
0.006108
0.005646
0.004000
0.004690
0.002183
0.002094
0.007197
0.001410
-0.053118
-0.053322
-0.052051
-0.052052
-0.050947
-0.051996
-0.025682
-0.026117
-0.024913
-0.026546
-0.027004
-0.027634
-0.044647
-0.043625
-0.042992
-0.042327
0.016840
0.018163
0.045191
-0.055678
-0.055140
-0.158725
-0.159489
0.015800
0.018702
0.020004
-0.067038
-0.067538
-0.068416
-0.084614
-0.066523
-0.065590
-0.065270
0.015164
0.014414
0.013120
-0.048520
-0.047229
-0.022190
-0.023324
-0.024387
-0.046444
-0.008342
-0.008234
-0.007180
-0.008964
-0.057067
-0.025173
-0.026601
-0.022960
-0.023254
0.040056
0.036286
0.039349
0.035714
0.042468
0.042594
0.011035
0.012096
0.011402
0.012712
0.011434
0.012504
0.010015
0.026687
0.027621
0.056043
0.056645
0.054655
0.057326
0.056857
0.015837
0.012801
0.041646
0.041566
-0.044569
-0.043788
-0.048898
0.011078
0.012121
-0.038107
-0.038899
-0.017612
-0.009263
0.046370
0.033385
0.033660
0.032035
0.018881
0.018272
0.017384
0.017069
0.030102
-0.037300
0.027018
-0.079522
-0.078822
-0.080023
-0.043663
-0.050705
-0.065951
-0.066986
-0.155789
-0.157764
-0.155501
0.004806
0.004009
0.005530
-0.066666
-0.065567
0.034792
0.033395
-0.003196
-0.000635
-0.032665
-0.028964
-0.007917
-0.008823
-0.020601
0.022425
0.022894
0.023615
-0.126928
-0.124748
-0.126461
0.021571
0.014001
0.013383
0.012985
-0.034161
-0.025174
-0.024408
-0.145819
-0.022771
0.024110
0.024921
0.025372
0.008500
0.009426
0.021241
0.021480
0.010102
0.008455
0.009513
0.045538
-0.023996
-0.018621
-0.020546
0.045525
-0.017203
-0.015938
-0.017709
0.019826
-0.026227
-0.013103
-0.010988
-0.013157
-0.151671
-0.141062
-0.154100
-0.010757
-0.008875
-0.068456
-0.069522
-0.152508
-0.150821
-0.151870
-0.015297
-0.143561
-0.151956
-0.153701
-0.151619
-0.023245
-0.009324
-0.031800
0.064803
0.065585
-0.150066
-0.154600
-0.030576
-0.029989
0.023795
0.020079
0.022182
-0.023354
-0.018110
-0.015495
-0.029616
-0.019286
-0.019892
-0.012940
0.056230
0.056620
0.057250
-0.016491
-0.017559
-0.028423
-0.028792
-0.029204
-0.030129
-0.005923
-0.004861
-0.005767
-0.016095
-0.145795
-0.148519
-0.147801
-0.078621
-0.078034
-0.079117
-0.077416
-0.078727
-0.079952
-0.080309
-0.070213
-0.068518
-0.070743
-0.077163
-0.022399
0.011418
0.011510
0.010572
-0.017232
0.011066
0.033474
0.034296
0.035841
-0.029517
-0.030488
0.031668
0.032567
0.033235
-0.057782
-0.057928
-0.027711
0.020975
-0.017280
0.019531
-0.143688
-0.145570
-0.153289
0.015308
0.015842
0.081223
0.081246
0.014976
0.045631
0.068021
-0.037915
0.081395
0.080863
0.081612
0.080924
0.051533
0.052002
0.052796
0.053240
0.000026
0.025969
0.026693
0.025903
-0.064278
-0.064090
-0.063164
0.025261
0.025233
0.044707
-0.146066
-0.147311
-0.136669
-0.150783
0.044674
-0.022371
0.022935
0.024074
0.023589
0.040740
0.040477
0.039631
0.039462
-0.001096
-0.004244
-0.077333
-0.078558
-0.032617
-0.079163
0.040988
0.041792
0.041812
-0.080262
-0.153636
-0.154008
0.066970
0.031132
-0.138382
-0.137021
-0.001095
-0.002434
-0.001839
-0.003397
0.074169
0.067967
0.071919
0.068506
0.032685
0.079077
-0.060169
-0.142218
-0.134688
-0.100748
-0.099747
-0.102707
-0.096537
-0.075952
-0.074823
-0.074681
-0.073748
-0.075921
-0.075148
-0.132485
-0.025850
-0.027079
-0.027425
-0.126440
-0.122952
-0.125386
-0.121966
-0.122150
-0.068750
-0.067828
-0.066083
-0.070895
-0.105282
-0.103049
-0.103668
-0.103760
-0.096914
-0.093794
-0.095565
-0.092460
-0.040262
-0.041351
-0.038854
-0.124899
-0.122981
-0.126597
-0.139639
-0.141426
-0.138922
-0.106326
-0.106357
-0.103997
-0.101953
-0.103981
-0.127296
-0.123345
-0.125839
-0.115833
-0.116607
-0.119698
-0.119468
0.041477
-0.109686
-0.109486
-0.012504
-0.015710
-0.130221
-0.128603
-0.132760
-0.131316
-0.126811
-0.130255
-0.127486
-0.042784
-0.139792
-0.138130
-0.039620
-0.073404
-0.075143
-0.075518
-0.074858
-0.073289
-0.107650
-0.110490
-0.106546
-0.002273
-0.001008
-0.000660
0.040739
-0.067969
-0.068399
-0.070336
-0.066513
-0.001933
-0.004006
-0.011841
-0.114859
-0.117377
-0.115296
-0.120710
-0.123813
-0.116302
-0.157232
-0.142556
-0.143859
0.042156
-0.100604
-0.098414
-0.131032
-0.097024
-0.143805
-0.142226
-0.143713
-0.142326
-0.141844
-0.106106
-0.108898
-0.108933
-0.111201
0.014751
0.015410
0.004471
-0.083311
-0.085655
0.001627
-0.085205
-0.086348
-0.087422
-0.084252
-0.083461
-0.082807
-0.147365
-0.148499
-0.146329
0.000090
-0.097164
0.023589
0.024042
-0.089114
-0.089147
-0.087106
-0.111892
-0.114212
-0.114589
-0.112271
-0.071923
-0.072859
-0.073506
-0.052453
-0.051409
-0.054533
-0.054720
-0.052242
-0.087872
-0.088884
-0.090148
0.073916
0.073217
-0.117383
-0.117057
0.072527
-0.026993
-0.036615
-0.074567
-0.077476
-0.079599
-0.084705
-0.080596
-0.001279
-0.010156
0.004069
-0.058130
-0.057645
0.071174
0.068348
0.068735
0.070865
-0.138369
-0.136896
-0.143176
-0.143208
-0.101747
-0.099574
-0.099612
-0.097696
-0.005891
-0.121710
-0.118855
-0.120431
-0.120107
-0.121910
-0.061398
-0.065483
-0.062863
-0.063739
-0.060644
-0.141900
-0.151216
-0.085581
-0.086846
-0.005463
-0.002535
-0.005629
-0.002616
-0.080548
-0.078458
-0.079104
-0.079562
-0.077936
0.063812
-0.035980
-0.036123
-0.037697
-0.032685
0.075026
0.074415
0.074251
-0.076555
-0.088482
-0.090056
-0.089100
-0.090287
-0.091568
-0.126082
-0.124356
-0.124098
0.080312
-0.122710
-0.124491
-0.121368
-0.123009
-0.145562
-0.145749
-0.147435
-0.119261
-0.081689
-0.083439
-0.084444
-0.084447
-0.081534
-0.079573
-0.021458
-0.018483
-0.110650
-0.110654
-0.109230
-0.107815
-0.108511
0.071173
0.071898
-0.013337
-0.013144
-0.011665
-0.011312
-0.081093
-0.082173
-0.100020
-0.096665
-0.104075
-0.070737
-0.065760
-0.069244
-0.074933
-0.102499
-0.104533
-0.100640
-0.106276
-0.107537
-0.057524
-0.050785
-0.065408
-0.072014
0.016167
0.018216
0.014767
-0.002612
-0.002560
-0.107383
-0.105174
-0.102833
-0.103708
-0.105564
-0.106395
-0.133625
-0.135081
-0.124455
-0.126223
-0.127548
-0.125916
-0.062028
-0.063506
-0.014600
-0.058984
-0.056814
-0.057288
-0.055111
-0.108013
-0.109336
-0.110206
-0.111223
0.003247
-0.091874
-0.092524
-0.128493
-0.129698
-0.136955
-0.104733
-0.113504
-0.125474
-0.121830
-0.118592
-0.127455
-0.128856
0.044177
0.044786
0.043923
-0.104276
-0.102373
-0.072209
-0.136772
-0.137300
-0.136898
-0.105362
-0.107358
-0.105260
-0.103338
-0.059615
-0.059470
-0.057482
-0.058067
-0.097003
-0.095182
0.077616
0.076403
0.072729
-0.081841
-0.101847
-0.103005
-0.079063
-0.091902
-0.094554
-0.093285
-0.092899
-0.070049
-0.072899
-0.092898
-0.095603
-0.065319
-0.063273
-0.060104
-0.057657
-0.061023
-0.135356
0.032684
-0.063032