# vtk DataFile Version 2.0
Test
ASCII
DATASET POLYDATA
POINTS 3011 float
0.000000 0.000000 0.000000
2.000000 0.000000 0.000000
2.000000 4.000000 0.000000
0.000000 4.000000 0.000000
0.000000 0.500000 0.000000
1.500000 2.000000 0.000000
2.000000 2.500000 0.000000
0.285714 0.000000 0.000000
0.571429 0.000000 0.000000
0.857143 0.000000 0.000000
1.142857 0.000000 0.000000
1.428571 0.000000 0.000000
1.714286 0.000000 0.000000
2.000000 0.276366 0.000000
2.000000 0.523709 0.000000
2.000000 0.745076 0.000000
2.000000 0.943195 0.000000
2.000000 1.120508 0.000000
2.000000 1.279199 0.000000
2.000000 1.421225 0.000000
2.000000 1.548336 0.000000
2.000000 1.662097 0.000000
2.000000 1.763911 0.000000
2.000000 1.855033 0.000000
2.000000 1.936585 0.000000
2.000000 2.009573 0.000000
2.000000 2.074896 0.000000
2.000000 2.133358 0.000000
2.000000 2.185681 0.000000
2.000000 2.232509 0.000000
2.000000 2.274419 0.000000
2.000000 2.311927 0.000000
2.000000 2.345497 0.000000
2.000000 2.375541 0.000000
2.000000 2.402430 0.000000
2.000000 2.426495 0.000000
2.000000 2.448033 0.000000
2.000000 2.467309 0.000000
2.000000 2.484560 0.000000
2.000000 2.516256 0.000000
2.000000 2.535859 0.000000
2.000000 2.559499 0.000000
2.000000 2.588006 0.000000
2.000000 2.622383 0.000000
2.000000 2.663839 0.000000
2.000000 2.713831 0.000000
2.000000 2.774116 0.000000
2.000000 2.846815 0.000000
2.000000 2.934483 0.000000
2.000000 3.040202 0.000000
2.000000 3.167691 0.000000
2.000000 3.321430 0.000000
2.000000 3.506825 0.000000
2.000000 3.730395 0.000000
1.714286 4.000000 0.000000
1.428571 4.000000 0.000000
1.142857 4.000000 0.000000
0.857143 4.000000 0.000000
0.571429 4.000000 0.000000
0.285714 4.000000 0.000000
0.000000 3.713462 0.000000
0.000000 3.449209 0.000000
0.000000 3.205508 0.000000
0.000000 2.980761 0.000000
0.000000 2.773493 0.000000
0.000000 2.582346 0.000000
0.000000 2.406065 0.000000
0.000000 2.243495 0.000000
0.000000 2.093568 0.000000
0.000000 1.955302 0.000000
0.000000 1.827789 0.000000
0.000000 1.710194 0.000000
0.000000 1.601745 0.000000
0.000000 1.501730 0.000000
0.000000 1.409494 0.000000
0.000000 1.324431 0.000000
0.000000 1.245984 0.000000
0.000000 1.173639 0.000000
0.000000 1.106920 0.000000
0.000000 1.045390 0.000000
0.000000 0.988645 0.000000
0.000000 0.936314 0.000000
0.000000 0.888053 0.000000
0.000000 0.843545 0.000000
0.000000 0.802499 0.000000
0.000000 0.764646 0.000000
0.000000 0.729736 0.000000
0.000000 0.697541 0.000000
0.000000 0.667851 0.000000
0.000000 0.640469 0.000000
0.000000 0.615217 0.000000
0.000000 0.591929 0.000000
0.000000 0.570453 0.000000
0.000000 0.550646 0.000000
0.000000 0.532380 0.000000
0.000000 0.515535 0.000000
0.000000 0.483768 0.000000
0.000000 0.461535 0.000000
0.000000 0.431083 0.000000
0.000000 0.389372 0.000000
0.000000 0.332241 0.000000
0.000000 0.253989 0.000000
0.000000 0.146807 0.000000
0.010563 0.510563 0.000000
0.021127 0.521127 0.000000
0.031690 0.531690 0.000000
0.042254 0.542254 0.000000
0.052817 0.552817 0.000000
0.063380 0.563380 0.000000
0.073944 0.573944 0.000000
0.084507 0.584507 0.000000
0.095070 0.595070 0.000000
0.105634 0.605634 0.000000
0.116197 0.616197 0.000000
0.126761 0.626761 0.000000
0.137324 0.637324 0.000000
0.147887 0.647887 0.000000
0.158451 0.658451 0.000000
0.169014 0.669014 0.000000
0.179577 0.679577 0.000000
0.190141 0.690141 0.000000
0.200704 0.700704 0.000000
0.211268 0.711268 0.000000
0.221831 0.721831 0.000000
0.232394 0.732394 0.000000
0.242958 0.742958 0.000000
0.253521 0.753521 0.000000
0.264085 0.764085 0.000000
0.274648 0.774648 0.000000
0.285211 0.785211 0.000000
0.295775 0.795775 0.000000
0.306338 0.806338 0.000000
0.316901 0.816901 0.000000
0.327465 0.827465 0.000000
0.338028 0.838028 0.000000
0.348592 0.848592 0.000000
0.359155 0.859155 0.000000
0.369718 0.869718 0.000000
0.380282 0.880282 0.000000
0.390845 0.890845 0.000000
0.401408 0.901408 0.000000
0.411972 0.911972 0.000000
0.422535 0.922535 0.000000
0.433099 0.933099 0.000000
0.443662 0.943662 0.000000
0.454225 0.954225 0.000000
0.464789 0.964789 0.000000
0.475352 0.975352 0.000000
0.485915 0.985915 0.000000
0.496479 0.996479 0.000000
0.507042 1.007042 0.000000
0.517606 1.017606 0.000000
0.528169 1.028169 0.000000
0.538732 1.038732 0.000000
0.549296 1.049296 0.000000
0.559859 1.059859 0.000000
0.570423 1.070423 0.000000
0.580986 1.080986 0.000000
0.591549 1.091549 0.000000
0.602113 1.102113 0.000000
0.612676 1.112676 0.000000
0.623239 1.123239 0.000000
0.633803 1.133803 0.000000
0.644366 1.144366 0.000000
0.654930 1.154930 0.000000
0.665493 1.165493 0.000000
0.676056 1.176056 0.000000
0.686620 1.186620 0.000000
0.697183 1.197183 0.000000
0.707746 1.207746 0.000000
0.718310 1.218310 0.000000
0.728873 1.228873 0.000000
0.739437 1.239437 0.000000
0.750000 1.250000 0.000000
0.760563 1.260563 0.000000
0.771127 1.271127 0.000000
0.781690 1.281690 0.000000
0.792254 1.292254 0.000000
0.802817 1.302817 0.000000
0.813380 1.313380 0.000000
0.823944 1.323944 0.000000
0.834507 1.334507 0.000000
0.845070 1.345070 0.000000
0.855634 1.355634 0.000000
0.866197 1.366197 0.000000
0.876761 1.376761 0.000000
0.887324 1.387324 0.000000
0.897887 1.397887 0.000000
0.908451 1.408451 0.000000
0.919014 1.419014 0.000000
0.929577 1.429577 0.000000
0.940141 1.440141 0.000000
0.950704 1.450704 0.000000
0.961268 1.461268 0.000000
0.971831 1.471831 0.000000
0.982394 1.482394 0.000000
0.992958 1.492958 0.000000
1.003521 1.503521 0.000000
1.014085 1.514085 0.000000
1.024648 1.524648 0.000000
1.035211 1.535211 0.000000
1.045775 1.545775 0.000000
1.056338 1.556338 0.000000
1.066901 1.566901 0.000000
1.077465 1.577465 0.000000
1.088028 1.588028 0.000000
1.098592 1.598592 0.000000
1.109155 1.609155 0.000000
1.119718 1.619718 0.000000
1.130282 1.630282 0.000000
1.140845 1.640845 0.000000
1.151408 1.651408 0.000000
1.161972 1.661972 0.000000
1.172535 1.672535 0.000000
1.183099 1.683099 0.000000
1.193662 1.693662 0.000000
1.204225 1.704225 0.000000
1.214789 1.714789 0.000000
1.225352 1.725352 0.000000
1.235915 1.735915 0.000000
1.246479 1.746479 0.000000
1.257042 1.757042 0.000000
1.267606 1.767606 0.000000
1.278169 1.778169 0.000000
1.288732 1.788732 0.000000
1.299296 1.799296 0.000000
1.309859 1.809859 0.000000
1.320423 1.820423 0.000000
1.330986 1.830986 0.000000
1.341549 1.841549 0.000000
1.352113 1.852113 0.000000
1.362676 1.862676 0.000000
1.373239 1.873239 0.000000
1.383803 1.883803 0.000000
1.394366 1.894366 0.000000
1.404930 1.904930 0.000000
1.415493 1.915493 0.000000
1.426056 1.926056 0.000000
1.436620 1.936620 0.000000
1.447183 1.947183 0.000000
1.457746 1.957746 0.000000
1.468310 1.968310 0.000000
1.478873 1.978873 0.000000
1.489437 1.989437 0.000000
1.510417 2.010417 0.000000
1.520833 2.020833 0.000000
1.531250 2.031250 0.000000
1.541667 2.041667 0.000000
1.552083 2.052083 0.000000
1.562500 2.062500 0.000000
1.572917 2.072917 0.000000
1.583333 2.083333 0.000000
1.593750 2.093750 0.000000
1.604167 2.104167 0.000000
1.614583 2.114583 0.000000
1.625000 2.125000 0.000000
1.635417 2.135417 0.000000
1.645833 2.145833 0.000000
1.656250 2.156250 0.000000
1.666667 2.166667 0.000000
1.677083 2.177083 0.000000
1.687500 2.187500 0.000000
1.697917 2.197917 0.000000
1.708333 2.208333 0.000000
1.718750 2.218750 0.000000
1.729167 2.229167 0.000000
1.739583 2.239583 0.000000
1.750000 2.250000 0.000000
1.760417 2.260417 0.000000
1.770833 2.270833 0.000000
1.781250 2.281250 0.000000
1.791667 2.291667 0.000000
1.802083 2.302083 0.000000
1.812500 2.312500 0.000000
1.822917 2.322917 0.000000
1.833333 2.333333 0.000000
1.843750 2.343750 0.000000
1.854167 2.354167 0.000000
1.864583 2.364583 0.000000
1.875000 2.375000 0.000000
1.885417 2.385417 0.000000
1.895833 2.395833 0.000000
1.906250 2.406250 0.000000
1.916667 2.416667 0.000000
1.927083 2.427083 0.000000
1.937500 2.437500 0.000000
1.947917 2.447917 0.000000
1.958333 2.458333 0.000000
1.968750 2.468750 0.000000
1.979167 2.479167 0.000000
1.989583 2.489583 0.000000
0.206561 0.791563 0.000000
0.205359 0.816165 0.000000
0.186354 0.798211 0.000000
0.221961 0.800924 0.000000
0.280649 1.360489 0.000000
0.304015 1.400469 0.000000
0.229142 1.396096 0.000000
0.275922 1.451476 0.000000
1.869084 2.391788 0.000000
1.857928 2.378421 0.000000
1.238669 2.061899 0.000000
1.278787 2.082276 0.000000
1.238298 2.096047 0.000000
1.277579 2.032995 0.000000
0.402536 1.205823 0.000000
0.415290 1.176040 0.000000
0.428330 1.201952 0.000000
0.387294 1.172617 0.000000
0.146930 1.050586 0.000000
0.109488 1.087198 0.000000
0.102742 1.042403 0.000000
0.157178 1.091184 0.000000
0.588967 1.178581 0.000000
0.593116 1.153718 0.000000
0.608054 1.166752 0.000000
0.612180 1.145944 0.000000
0.860304 1.543784 0.000000
0.868821 1.521840 0.000000
0.878420 1.536650 0.000000
0.845380 1.517623 0.000000
1.129525 1.764330 0.000000
1.142005 1.751560 0.000000
1.145757 1.773681 0.000000
1.159368 1.759106 0.000000
1.968150 2.518865 0.000000
1.986105 2.509269 0.000000
1.986696 2.531115 0.000000
0.668964 1.191005 0.000000
0.683291 1.201259 0.000000
0.557625 1.074830 0.000000
0.569760 1.084377 0.000000
0.557769 1.089278 0.000000
0.707567 1.266174 0.000000
0.719026 1.281845 0.000000
0.700768 1.282275 0.000000
0.722329 1.266956 0.000000
0.468225 2.149688 0.000000
0.419106 2.064198 0.000000
0.523878 2.082648 0.000000
0.838546 1.421191 0.000000
0.823708 1.410355 0.000000
0.840477 1.404206 0.000000
0.818500 1.425973 0.000000
0.953187 1.488222 0.000000
0.959780 1.473222 0.000000
0.967054 1.485637 0.000000
1.047418 1.769126 0.000000
1.080240 1.782403 0.000000
1.047768 1.802712 0.000000
0.971392 1.693320 0.000000
0.949208 1.720793 0.000000
0.940644 1.684781 0.000000
0.381391 2.160909 0.000000
0.944091 1.477800 0.000000
0.530075 1.477351 0.000000
0.521303 1.516669 0.000000
0.474240 1.491166 0.000000
0.489489 1.546185 0.000000
1.537370 2.239326 0.000000
1.555275 2.267640 0.000000
1.532966 2.278201 0.000000
0.962010 1.661716 0.000000
0.986804 1.643200 0.000000
0.986259 1.672729 0.000000
1.049149 1.737940 0.000000
1.075111 1.737123 0.000000
[...]
POINT_DATA 3011
SCALARS UX float 1
LOOKUP_TABLE default
-0.039639
0.045900
0.000000
-0.000000
-0.041450
0.024259
0.044121
-0.027482
-0.015301
-0.003104
0.009114
0.021357
0.033619
0.045918
0.045964
0.046039
0.046132
0.046236
0.046347
0.046454
0.046535
0.046562
0.046524
0.046396
0.046205
0.045963
0.045716
0.045473
0.045251
0.045056
0.044888
0.044746
0.044623
0.044518
0.044428
0.044350
0.044281
0.044220
0.044167
0.044072
0.044012
0.043941
0.043851
0.043747
0.043608
0.043427
0.043188
0.042830
0.042312
0.041519
0.040178
0.037807
0.033296
0.024638
-0.000000
0.000000
0.000000
-0.000000
-0.000000
0.000000
-0.024503
-0.034712
-0.039129
-0.041293
-0.042263
-0.042639
-0.042734
-0.042740
-0.042716
-0.042690
-0.042678
-0.042683
-0.042697
-0.042719
-0.042747
-0.042775
-0.042805
-0.042835
-0.042864
-0.042893
-0.042923
-0.042953
-0.042980
-0.043006
-0.043029
-0.043049
-0.043066
-0.043079
-0.043091
-0.043105
-0.043124
-0.043138
-0.043124
-0.043060
-0.043162
-0.042973
-0.039703
-0.039639
-0.039583
-0.039597
-0.039609
-0.039621
-0.039632
-0.040843
-0.040444
-0.039918
-0.039582
-0.039269
-0.038663
-0.038242
-0.037753
-0.037316
-0.036799
-0.036334
-0.036161
-0.035581
-0.034987
-0.034385
-0.034020
-0.033732
-0.033311
-0.032687
-0.032339
-0.031614
-0.031413
-0.030841
-0.030464
-0.029991
-0.029450
-0.029182
-0.028570
-0.028425
-0.027795
-0.027482
-0.026778
-0.026351
-0.025916
-0.025477
-0.025001
-0.024502
-0.024183
-0.023699
-0.023155
-0.022776
-0.022180
-0.021572
-0.021573
-0.021093
-0.020359
-0.020057
-0.019489
-0.019174
-0.018705
-0.018089
-0.017594
-0.017059
-0.016704
-0.016292
-0.015929
-0.015465
-0.015007
-0.014361
-0.014080
-0.013773
-0.013145
-0.012624
-0.012122
-0.011719
-0.011263
-0.011071
-0.010481
-0.009765
-0.009386
-0.008773
-0.008569
-0.007925
-0.007651
-0.007317
-0.006886
-0.006267
-0.005927
-0.005462
-0.004983
-0.004620
-0.004057
-0.003676
-0.003257
-0.002539
-0.002114
-0.001846
-0.001214
-0.000562
-0.000429
0.000016
0.000405
0.000946
0.001385
0.001842
0.002400
0.002813
0.003301
0.003650
0.004195
0.004556
0.005118
0.005810
0.005876
0.006606
0.007102
0.007674
0.007894
0.008308
0.008946
0.009381
0.009875
0.010149
0.010722
0.011235
0.011594
0.012245
0.012714
0.012916
0.013532
0.014165
0.014262
0.015094
0.015414
0.015809
0.016405
0.016844
0.017349
0.017830
0.018155
0.018697
0.019013
0.019665
0.020026
0.020610
0.021055
0.021627
0.022055
0.022591
0.023059
0.023493
0.024768
0.024873
0.025272
0.025656
0.026074
0.026494
0.026912
0.027335
0.027765
0.028192
0.028621
0.029049
0.029478
0.029906
0.030334
0.030761
0.031189
0.031615
0.032041
0.032466
0.032891
0.033315
0.033739
0.034161
0.034583
0.035004
0.035425
0.035845
0.036264
0.036683
0.037100
0.037518
0.037934
0.038351
0.038766
0.039181
0.039596
0.040010
0.040424
0.040836
0.041249
0.041661
0.042072
0.042483
0.042893
0.043303
0.043712
-0.034240
-0.034289
-0.035095
-0.033593
-0.030799
-0.029787
-0.032981
-0.030967
0.038878
0.038439
0.011455
0.013307
0.011489
0.013148
-0.025670
-0.025141
-0.024572
-0.026336
-0.036627
-0.038206
-0.038515
-0.036171
-0.017732
-0.017548
-0.016934
-0.016721
-0.005918
-0.005570
-0.005149
-0.006574
0.005911
0.006409
0.006633
0.007176
0.042723
0.043507
0.043469
-0.014443
-0.013623
-0.019109
-0.018334
-0.019102
-0.012599
-0.012114
-0.012889
-0.011966
-0.022744
-0.024831
-0.020290
-0.006927
-0.007571
-0.006867
-0.007779
-0.001978
-0.001532
-0.001347
0.002395
0.003836
0.002475
-0.000993
-0.001912
-0.002327
-0.026511
-0.002342
-0.020100
-0.020458
-0.022483
-0.021809
0.024707
0.025457
0.024458
-0.001435
-0.000391
-0.000380
0.002410
0.003521
0.003311
0.026085
0.003161
0.006490
0.006923
0.007181
0.006203
0.017504
0.019131
0.018845
0.021594
0.020144
0.020087
-0.017624
-0.017889
-0.016356
-0.023244
-0.020548
-0.022221
-0.016607
-0.019956
-0.030006
-0.028677
-0.030134
-0.028963
0.002015
-0.000201
0.002037
-0.001686
-0.025597
-0.025056
-0.022630
0.024136
0.024903
0.023636
-0.028378
-0.033931
-0.036320
-0.035516
-0.015099
-0.013902
-0.013623
-0.012592
-0.038103
-0.035451
-0.033525
-0.038257
0.036593
0.037339
0.037791
-0.001425
-0.000100
0.001115
-0.024659
-0.023464
0.002932
-0.010342
-0.010175
-0.011837
-0.009028
0.023213
0.023042
0.022142
-0.007046
-0.006739
-0.008034
0.024076
-0.036072
-0.035800
-0.035545
-0.019701
-0.019343
-0.018464
-0.040625
-0.040523
-0.018582
-0.007290
-0.007129
-0.005276
-0.040597
-0.004909
0.002381
0.004057
-0.035469
-0.034747
-0.033848
-0.018487
-0.018593
-0.017919
-0.019089
-0.018990
0.026991
0.027593
0.027029
0.009131
0.008023
0.007754
0.006011
0.007029
0.005624
0.001770
0.001806
0.001182
0.005096
-0.024958
-0.025479
-0.025762
-0.006878
-0.007714
-0.007469
-0.003443
-0.006864
-0.038483
-0.037422
-0.039082
-0.018238
-0.019089
0.036495
0.000892
0.035035
0.034753
0.034157
-0.007983
-0.007095
-0.012366
-0.012893
0.031158
0.031745
0.029717
-0.013386
-0.014477
-0.013727
0.013796
0.013343
0.015255
0.011593
0.035538
0.036029
0.025175
0.010392
0.008814
0.009255
0.001791
0.002418
0.002602
0.021474
0.024416
0.017213
0.019775
0.022293
0.023299
0.022396
-0.017355
-0.018548
-0.018856
-0.019834
-0.019654
0.002538
0.033633
0.032439
0.033585
0.025248
0.023354
0.024858
0.023841
0.024701
0.026108
0.025758
0.031948
0.031811
-0.003476
-0.002696
-0.002531
-0.003585
-0.006382
-0.005755
-0.006007
-0.005346
0.015468
0.014512
0.015737
0.014740
0.015249
0.014403
0.023160
0.024064
0.023438
0.033278
0.032771
-0.010220
-0.010112
-0.011153
-0.009723
-0.009851
-0.008683
-0.008610
-0.010937
-0.011149
-0.010362
-0.004044
-0.004757
-0.004290
-0.004679
0.010128
0.010296
0.010967
0.009415
-0.003300
-0.009431
-0.009289
-0.009596
-0.009156
-0.008327
-0.009915
0.029547
0.028803
0.028653
0.027935
0.006860
0.007535
-0.004343
-0.004270
-0.003202
0.005429
0.005562
0.004814
0.005062
0.004303
0.004808
0.004794
-0.000120
-0.000548
0.000312
-0.001068
0.020113
0.020510
-0.011311
-0.010565
-0.011277
0.003407
0.003492
0.002827
0.018064
0.016236
0.015413
0.004132
0.001949
0.002558
0.001610
0.023020
0.023111
0.019734
0.020626
0.019699
0.020670
0.013321
0.013635
0.012603
0.013132
-0.039437
-0.040160
-0.041316
-0.037340
-0.024943
-0.024240
-0.024315
-0.014922
-0.012662
-0.022802
0.023948
-0.025638
-0.025942
-0.027075
-0.027256
0.005436
0.007347
0.007785
0.009577
-0.014175
-0.011755
-0.011338
-0.009620
0.031030
0.031612
0.031725
0.032190
0.024100
0.022532
-0.036886
-0.039519
-0.040079
-0.038485
-0.039406
-0.038724
-0.039177
-0.036757
-0.035748
0.002137
0.000994
0.001421
0.016469
0.014857
-0.022068
-0.021748
-0.023065
-0.022567
-0.023888
-0.005388
-0.004959
-0.006554
-0.006221
-0.026393
-0.027120
-0.027383
-0.026524
-0.010782
-0.008598
-0.035081
-0.034534
-0.033664
-0.034170
-0.035475
-0.039037
-0.039896
-0.039246
-0.038753
-0.038419
-0.033605
-0.032787
-0.032545
-0.033296
-0.032234
-0.008282
-0.007183
-0.007571
0.007224
-0.007588
-0.013587
-0.006969
-0.016428
-0.023378
0.040220
0.039467
0.041070
0.038453
0.037096
0.038194
-0.030143
-0.030584
-0.031323
-0.034118
-0.031022
-0.031361
-0.035291
0.035060
0.038041
0.037675
0.035198
0.001314
0.001195
-0.024458
-0.023516
-0.024348
-0.023198
-0.035180
-0.035721
-0.041825
-0.041248
-0.040888
-0.041581
0.038961
0.038826
0.037669
0.038396
-0.027481
-0.026462
0.013037
0.014573
0.012488
0.010022
0.015196
0.011955
0.007120
0.007582
0.001004
-0.012293
-0.012446
-0.011056
-0.041329
-0.041284
-0.042160
-0.040554
0.042006
0.023782
-0.031809
-0.032063
-0.033284
-0.042551
-0.042398
-0.032929
0.035156
0.034721
0.035668
-0.035412
-0.034792
-0.035714
-0.038968
-0.034785
-0.034216
0.041214
0.042136
0.041542
0.041781
0.042287
0.009779
0.011404
-0.033001
-0.032851
-0.031776
0.042550
0.017349
0.018400
0.019577
-0.024265
-0.022554
-0.021737
-0.023621
-0.020998
-0.020273
-0.015200
-0.014176
-0.038989
-0.039144
-0.041431
-0.040304
-0.039893
-0.039122
-0.023307
0.024987
-0.024031
-0.040508
-0.041363
-0.040636
-0.040057
0.042131
0.040679
-0.037090
-0.038062
-0.037702
0.042753
-0.041096
0.036051
0.037306
0.036040
-0.031762
-0.032590
-0.031447
-0.008615
-0.005069
-0.004911
-0.001700
-0.001168
-0.036084
-0.035360
-0.036596
-0.037212
0.016410
0.014350
-0.030819
-0.030441
-0.031555
-0.030746
-0.021718
-0.021749
-0.023336
-0.021936
-0.023653
-0.026370
-0.024091
-0.024302
-0.026763
-0.041176
-0.041877
0.035396
0.036308
-0.027083
-0.026362
-0.028233
-0.028670
-0.030258
0.024113
0.024379
0.023665
-0.018150
-0.019004
-0.026184
-0.027451
-0.017860
-0.016576
0.007263
0.004358
0.004508
0.006436
-0.040152
-0.029848
-0.029576
-0.030041
-0.028951
0.006295
0.036352
0.035987
0.035306
0.035028
-0.006155
-0.006073
-0.003370
-0.003424
-0.001181
-0.000764
0.033851
0.034641
0.042602
0.041041
-0.001325
0.000676
0.037531
0.038979
-0.039484
-0.025179
-0.027738
-0.031188
-0.031392
-0.030566
-0.031717
-0.031922
0.014113
-0.039264
-0.042241
0.015153
0.005036
0.003441
0.041219
0.041150
0.041518
-0.041636
-0.035774
-0.036881
-0.039885
0.004748
0.003607
0.002701
0.004016
0.034467
-0.034975
-0.034419
-0.033192
-0.032528
0.013016
0.012198
0.010783
0.011873
0.037011
-0.041492
-0.042039
-0.040881
-0.032270
-0.038982
-0.028083
-0.031891
-0.026103
-0.028453
-0.035322
-0.039746
-0.040086
0.006968
0.007388
0.003091
0.011214
-0.007921
-0.011655
0.000799
-0.039343
-0.012456
-0.038069
0.000955
-0.006943
-0.005477
-0.037078
-0.037973
-0.037220
-0.039920
-0.038400
-0.012233
-0.004430
-0.006726
-0.009551
-0.036657
-0.000425
-0.000887
-0.001294
-0.013277
-0.013958
-0.011493
-0.031741
-0.031887
-0.033548
-0.027942
-0.027500
-0.028286
-0.028759
-0.013041
-0.011286
-0.011200
-0.009312
-0.009317
0.009095
0.006950
0.000737
-0.002642
-0.003644
-0.002705
-0.001888
0.010229
0.006886
0.004040
0.003855
0.001203
-0.035079
-0.029615
-0.027619
-0.023565
-0.037402
-0.037152
-0.037880
-0.025117
0.043047
-0.029899
-0.030590
-0.032088
-0.031228
-0.019952
-0.022957
-0.017707
-0.016255
-0.014704
-0.040605
-0.029407
-0.029026
-0.038684
0.030060
0.030088
-0.003294
-0.032416
0.030692
0.040091
-0.029959
-0.033977
-0.030443
0.008559
-0.035086
-0.036991
-0.038835
-0.041537
-0.040033
0.036592
-0.035936
0.003532
0.000445
0.005570
-0.038119
-0.039653
0.039279
-0.029647
-0.029505
-0.030201
-0.037755
0.032777
0.030743
0.032716
0.037595
0.037533
0.038150
-0.036844
-0.035320
-0.035083
-0.035869
-0.038091
0.027585
0.021435
0.021146
0.015733
-0.028292
-0.028421
-0.013564
-0.012985
-0.024287
-0.020534
0.024827
-0.009761
-0.040938
-0.020496
-0.021308
-0.020652
0.001427
-0.017819
-0.016670
-0.016853
-0.036235
-0.031279
-0.028070
-0.027877
-0.024736
-0.034851
-0.014922
-0.016469
-0.016214
0.031916
0.036977
0.034371
0.003371
-0.025505
-0.025561
-0.024160
-0.038369
-0.035751
-0.036241
-0.037782
-0.019795
0.010055
-0.028743
-0.033220
-0.019593
-0.018024
-0.038425
-0.034492
-0.015849
-0.015740
-0.022754
0.006036
0.040554
0.039946
-0.036747
-0.026377
-0.010405
-0.039622
-0.032758
-0.030493
-0.033488
0.013154
-0.040855
0.011704
0.011927
0.011085
-0.015430
-0.009796
-0.038134
-0.017074
-0.024497
-0.026316
-0.027413
0.036881
-0.005381
-0.006252
-0.004851
-0.030437
-0.030797
-0.018104
-0.025383
-0.025107
-0.024352
-0.037692
-0.038446
-0.026058
-0.034210
0.031984
0.032478
-0.022614
-0.022900
-0.023580
0.031069
-0.008286
-0.007806
0.034068
0.034552
0.011329
-0.001735
-0.004675
-0.034651
-0.035759
0.002155
0.003374
0.009693
0.010719
-0.020899
-0.024335
-0.030125
-0.029168
-0.029558
0.026835
0.026591
0.002838
0.005468
-0.025993
-0.036966
-0.034459
-0.019986
-0.020353
-0.019124
-0.033144
-0.038820
-0.031850
-0.011774
-0.013621
-0.030090
-0.030886
-0.030734
0.036220
-0.015733
-0.015069
-0.017257
-0.036833
-0.036316
-0.028256
-0.027172
-0.020748
-0.017363
0.000930
-0.004899
0.013907
0.038125
-0.038420
-0.018958
-0.017504
-0.023123
-0.027142
-0.028660
-0.017693
-0.018790
-0.019076
0.030610
-0.009476
-0.014666
-0.015960
-0.003238
-0.009366
-0.022011
-0.022179
-0.021466
0.008604
0.009118
0.011024
0.000937
-0.015170
-0.028152
-0.028562
-0.029271
-0.029467
0.013002
0.013695
0.013237
-0.018545
-0.016569
-0.039112
-0.018365
-0.019066
-0.018005
-0.019585
0.006971
0.040700
0.040367
0.004907
0.012406
0.003417
0.008484
-0.033517
-0.033308
-0.032925
-0.028505
-0.027863
-0.027885
-0.019164
0.028034
0.026430
-0.007728
0.000319
-0.000709
-0.029148
-0.001587
-0.028967
-0.028358
-0.034255
-0.034208
-0.033661
-0.021965
-0.001882
-0.000729
-0.002100
-0.000153
0.040127
-0.032419
-0.032991
0.028711
-0.031769
-0.032055
0.035121
0.033649
0.032985
0.031109
0.031700
0.028816
0.031334
-0.036510
-0.035939
-0.036600
-0.025754
-0.028173
-0.029136
-0.004234
-0.006671
-0.021958
-0.033861
-0.026497
-0.021829
-0.016294
-0.034781
-0.034680
0.006584
-0.020874
-0.020856
-0.029285
-0.036788
0.039841
-0.009971
-0.034588
-0.037728
-0.031938
-0.008760
-0.011345
0.001258
-0.007917
-0.009755
-0.010907
-0.013234
-0.016673
-0.002291
-0.005242
-0.000330
-0.004859
0.001714
-0.024767
-0.031551
0.028655
0.029198
-0.028349
-0.022206
-0.013705
-0.015047
-0.016369
0.030123
0.026044
-0.003696
-0.004888
-0.004910
-0.003965
0.008691
0.009320
-0.027139
-0.027456
-0.026880
-0.033771
-0.003771
0.001837
-0.024147
0.022678
0.024398
-0.025739
-0.017637
-0.014587
-0.016420
0.040482
0.030853
0.033090
0.033176
-0.028375
-0.029626
0.040056
-0.020948
-0.012856
-0.021797
0.021875
-0.025096
-0.025442
-0.024575
-0.025931
-0.028343
-0.017049
-0.026471
0.019884
0.018193
0.017406
0.021650
0.022388
0.021825
0.020690
0.021592
0.010203
0.028786
0.027971
-0.026600
0.013935
0.010959
-0.021341
-0.021269
-0.020765
0.030514
0.028361
-0.013410
-0.020993
-0.015910
-0.025051
-0.022869
-0.011517
-0.011280
-0.012455
0.040007
0.039689
-0.017264
-0.011798
-0.020337
0.015735
0.027516
0.028734
0.029625
0.021653
0.021730
0.027177
-0.028251
-0.032813
-0.032208
-0.004028
-0.006147
-0.011731
-0.042451
-0.010599
0.019302
0.014359
0.015770
0.017185
-0.019759
-0.020177
-0.019623
-0.020528
0.020290
-0.023475
-0.023819
-0.023026
-0.012653
0.019206
0.019586
-0.042559
0.030309
0.030283
-0.027035
-0.002401
-0.042339
0.029465
-0.002926
0.017794
-0.020763
0.030318
-0.031016
0.020446
-0.020018
-0.018047
-0.009759
-0.012283
-0.030099
0.033551
0.034420
0.029289
0.038065
0.008384
0.009040
0.008988
-0.010474
-0.022649
-0.009767
-0.007749
0.008386
0.009600
-0.022791
0.009740
-0.015399
-0.016329
-0.015688
-0.014653
-0.015362
-0.014738
-0.014295
-0.013762
-0.013374
-0.032499
0.005910
-0.010078
0.040020
0.009513
0.010330
-0.019830
0.008493
-0.000917
-0.000836
-0.028258
-0.027973
-0.028505
0.002100
0.002887
0.001251
0.025686
0.026113
0.022972
0.023910
0.025515
0.026462
0.026219
0.026149
-0.028464
-0.040934
0.003651
0.003739
0.002948
0.005916
-0.018319
0.011215
0.012190
0.012231
-0.001414
-0.000170
-0.013735
-0.013174
0.013066
0.012446
0.013442
-0.001519
-0.002105
0.005119
0.000330
0.000678
-0.026547
-0.026011
0.031345
0.032317
-0.001447
-0.000500
-0.000592
0.031823
0.030822
0.027152
0.026089
-0.027114
0.016182
0.027139
-0.013345
-0.012647
-0.012436
0.018732
0.019679
0.018565
-0.015351
-0.024614
0.019664
-0.022695
-0.022762
-0.023491
0.020823
0.018385
-0.002055
-0.002653
-0.010768
-0.010094
-0.010664
0.021582
0.021564
0.020760
-0.003230
-0.002603
-0.011464
-0.003457
-0.010214
-0.009289
-0.008841
0.025056
0.024220
-0.032913
-0.033461
-0.007908
-0.007371
-0.006831
-0.007530
-0.006842
-0.039824
-0.003126
-0.019883
-0.020355
-0.019628
0.023253
-0.017428
-0.020996
-0.021336
-0.021773
0.013937
-0.008003
-0.031219
0.013623
0.025446
0.024776
0.016287
0.016849
0.017220
0.017855
0.005680
0.005930
0.006344
0.005250
0.005574
0.015756
0.030164
0.029409
-0.009429
-0.009044
-0.008960
-0.013158
-0.012219
-0.005143
-0.004528
-0.005164
0.006920
-0.016372
0.007381
0.007705
0.008139
0.006937
0.030812
0.003973
0.004280
0.028616
0.028548
0.029446
0.027645
0.012292
0.021816
-0.012463
-0.011903
0.012672
0.014276
0.014055
0.001171
0.000771
-0.015525
-0.015997
-0.016380
-0.015283
-0.014841
-0.003779
-0.003293
-0.003981
0.011485
0.011735
0.010642
0.011638
0.012269
0.026813
0.026542
0.022768
0.020870
0.017789
0.018120
0.018814
0.018651
0.019388
0.018847
-0.019860
0.025072
0.025806
0.026087
0.028281
0.027511
0.031147
0.031430
-0.004523
-0.015959
-0.015865
0.032078
0.033006
-0.025274
0.032453
0.026324
0.028295
0.019986
0.033609
-0.041998
-0.042165
-0.042051
-0.042218
-0.040302
0.006558
-0.008856
0.000268
-0.015872
-0.015654
-0.016240
-0.040868
-0.013328
0.019626
0.021203
0.014446
0.011206
0.017047
0.017123
0.016376
-0.016038
0.016608
0.000034
0.000361
0.000839
-0.016019
0.030025
0.000934
0.017315
0.016801
0.033835
0.034593
0.025848
0.026346
0.027068
0.027820
0.027818
0.004601
0.005218
-0.033151
0.015226
0.026586
0.027224
0.027773
-0.002868
-0.002450
-0.002152
-0.014162
-0.013756
-0.010020
-0.010826
-0.005177
-0.005989
0.007674
0.006723
0.006425
0.020681
-0.015446
-0.014845
-0.016618
0.032747
0.031951
0.017314
0.013561
0.012341
0.008421
-0.011822
-0.013345
-0.015000
0.034026
0.011315
0.010209
0.010181
0.033339
0.033521
0.032756
-0.026965
0.018485
-0.025307
-0.007942
-0.008196
-0.008715
-0.027467
0.008863
-0.019751
-0.037766
-0.014868
0.005823
0.005633
-0.003402
-0.001681
0.008331
-0.008609
-0.008264
-0.007595
0.007870
0.018297
-0.015117
-0.011337
-0.011893
-0.007891
-0.008619
0.009161
-0.008331
-0.036322
-0.036454
0.022287
0.007619
-0.022107
0.001649
0.001463
0.015540
0.004171
0.030944
0.027283
0.028112
-0.023846
0.007741
-0.014280
0.012705
-0.034086
-0.012961
-0.014307
0.010992
0.011643
0.010876
0.003653
0.004208
0.016524
0.015299
-0.030274
-0.030223
0.000931
-0.002272
0.014198
0.003801
0.001375
-0.009323
0.028292
-0.008516
0.028807
0.028562
0.000904
-0.017286
-0.016740
0.030834
0.029769
0.015898
0.015776
-0.000889
0.024966
0.025907
0.025402
0.017471
0.018195
0.033112
0.033483
0.012868
0.020895
0.022131
0.015058
-0.035018
0.026570
0.018427
0.015026
-0.016966
0.009101
0.019874
-0.024334
-0.020083
0.021543
0.003707
0.028005
0.029623
-0.015232
0.000391
-0.036620
-0.023414
-0.003829
-0.004476
-0.005195
-0.007151
-0.025947
-0.014676
-0.009491
-0.003479
0.017466
0.008762
0.009086
0.009935
0.005122
0.028031
-0.005473
0.022960
0.021647
0.021238
-0.021975
-0.013055
-0.003866
0.000017
0.000410
0.031160
0.023232
-0.021386
0.010916
0.010364
-0.003305
0.016662
0.034179
0.020673
0.023322
0.023077
-0.016670
0.022533
-0.006533
0.016367
0.033599
0.012342
-0.006258
-0.005806
-0.005377
-0.006891
-0.006564
-0.005963
-0.005950
0.004395
0.004143
0.010972
-0.001731
0.014147
0.014561
0.015063
-0.004871
0.003161
0.018078
0.024299
0.007438
-0.005655
0.007870
0.010109
0.010339
0.017724
-0.005692
0.003212
0.002507
0.019546
0.009483
0.019583
-0.006205
0.002631
0.000136
0.032892
0.024777
0.011260
0.015619
0.015881
0.026574
0.007839
0.013941
0.017077
-0.020421
-0.011705
0.021599
0.014046
0.025491
0.029441
0.030021
-0.006062
-0.002878
0.009872
-0.024121
-0.023543
-0.022903
-0.023619
-0.022935
-0.022924
-0.010062
-0.010580
-0.010009
0.039896
0.037973
0.037984
0.021975
0.021089
0.021979
0.036329
0.040587
0.002466
0.001890
-0.004660
0.026028
0.032793
0.032037
-0.011948
-0.013189
-0.012236
0.041373
0.040290
0.042127
0.040017
-0.012460
-0.023701
-0.022354
-0.013514
-0.013509
-0.012600
-0.011274
-0.010573
-0.013679
-0.014651
0.018939
0.017806
0.017970
0.018266
-0.012588
-0.007890
-0.014703
-0.016023
-0.014944
-0.005278
-0.001344
0.016523
0.014186
0.015735
0.014516
-0.019052
-0.018158
-0.019242
0.009418
0.009965
0.009360
-0.000851
-0.001612
-0.001269
-0.002277
0.041840
0.041044
-0.018485
-0.015498
-0.012069
-0.027110
-0.024611
-0.024620
-0.005877
-0.004821
-0.004978
-0.021850
-0.017018
-0.015519
-0.015277
-0.003683
0.014606
0.016237
0.016648
0.012942
0.028506
0.028645
0.032206
0.025061
-0.000211
0.003327
0.002747
0.020427
0.021244
0.021912
0.022965
-0.009764
-0.014941
-0.011752
-0.034146
-0.035731
-0.004429
-0.004936
-0.003938
-0.005088
0.029442
0.030313
0.029622
0.030737
0.008642
0.008073
0.010592
0.006824
0.020344
0.020827
0.020012
0.021213
0.027688
0.027882
0.028680
0.027047
-0.010694
-0.009845
-0.022549
-0.022990
-0.028626
-0.028029
-0.029118
-0.020131
-0.021195
-0.020770
0.022312
0.021909
-0.008622
-0.008352
-0.009167
-0.008872
-0.025831
-0.013524
-0.014283
-0.013528
-0.014287
-0.026134
-0.025889
-0.025278
-0.024686
-0.019553
-0.020216
-0.020404