# vtk DataFile Version 2.0
Test
ASCII
DATASET POLYDATA
POINTS 3011 float
0.000000 0.000000 0.000000
2.000000 0.000000 0.000000
2.000000 4.000000 0.000000
0.000000 4.000000 0.000000
0.000000 0.500000 0.000000
1.500000 2.000000 0.000000
2.000000 2.500000 0.000000
0.285714 0.000000 0.000000
0.571429 0.000000 0.000000
0.857143 0.000000 0.000000
1.142857 0.000000 0.000000
1.428571 0.000000 0.000000
1.714286 0.000000 0.000000
2.000000 0.276366 0.000000
2.000000 0.523709 0.000000
2.000000 0.745076 0.000000
2.000000 0.943195 0.000000
2.000000 1.120508 0.000000
2.000000 1.279199 0.000000
2.000000 1.421225 0.000000
2.000000 1.548336 0.000000
2.000000 1.662097 0.000000
2.000000 1.763911 0.000000
2.000000 1.855033 0.000000
2.000000 1.936585 0.000000
2.000000 2.009573 0.000000
2.000000 2.074896 0.000000
2.000000 2.133358 0.000000
2.000000 2.185681 0.000000
2.000000 2.232509 0.000000
2.000000 2.274419 0.000000
2.000000 2.311927 0.000000
2.000000 2.345497 0.000000
2.000000 2.375541 0.000000
2.000000 2.402430 0.000000
2.000000 2.426495 0.000000
2.000000 2.448033 0.000000
2.000000 2.467309 0.000000
2.000000 2.484560 0.000000
2.000000 2.516256 0.000000
2.000000 2.535859 0.000000
2.000000 2.559499 0.000000
2.000000 2.588006 0.000000
2.000000 2.622383 0.000000
2.000000 2.663839 0.000000
2.000000 2.713831 0.000000
2.000000 2.774116 0.000000
2.000000 2.846815 0.000000
2.000000 2.934483 0.000000
2.000000 3.040202 0.000000
2.000000 3.167691 0.000000
2.000000 3.321430 0.000000
2.000000 3.506825 0.000000
2.000000 3.730395 0.000000
1.714286 4.000000 0.000000
1.428571 4.000000 0.000000
1.142857 4.000000 0.000000
0.857143 4.000000 0.000000
0.571429 4.000000 0.000000
0.285714 4.000000 0.000000
0.000000 3.713462 0.000000
0.000000 3.449209 0.000000
0.000000 3.205508 0.000000
0.000000 2.980761 0.000000
0.000000 2.773493 0.000000
0.000000 2.582346 0.000000
0.000000 2.406065 0.000000
0.000000 2.243495 0.000000
0.000000 2.093568 0.000000
0.000000 1.955302 0.000000
0.000000 1.827789 0.000000
0.000000 1.710194 0.000000
0.000000 1.601745 0.000000
0.000000 1.501730 0.000000
0.000000 1.409494 0.000000
0.000000 1.324431 0.000000
0.000000 1.245984 0.000000
0.000000 1.173639 0.000000
0.000000 1.106920 0.000000
0.000000 1.045390 0.000000
0.000000 0.988645 0.000000
0.000000 0.936314 0.000000
0.000000 0.888053 0.000000
0.000000 0.843545 0.000000
0.000000 0.802499 0.000000
0.000000 0.764646 0.000000
0.000000 0.729736 0.000000
0.000000 0.697541 0.000000
0.000000 0.667851 0.000000
0.000000 0.640469 0.000000
0.000000 0.615217 0.000000
0.000000 0.591929 0.000000
0.000000 0.570453 0.000000
0.000000 0.550646 0.000000
0.000000 0.532380 0.000000
0.000000 0.515535 0.000000
0.000000 0.483768 0.000000
0.000000 0.461535 0.000000
0.000000 0.431083 0.000000
0.000000 0.389372 0.000000
0.000000 0.332241 0.000000
0.000000 0.253989 0.000000
0.000000 0.146807 0.000000
0.010563 0.510563 0.000000
0.021127 0.521127 0.000000
0.031690 0.531690 0.000000
0.042254 0.542254 0.000000
0.052817 0.552817 0.000000
0.063380 0.563380 0.000000
0.073944 0.573944 0.000000
0.084507 0.584507 0.000000
0.095070 0.595070 0.000000
0.105634 0.605634 0.000000
0.116197 0.616197 0.000000
0.126761 0.626761 0.000000
0.137324 0.637324 0.000000
0.147887 0.647887 0.000000
0.158451 0.658451 0.000000
0.169014 0.669014 0.000000
0.179577 0.679577 0.000000
0.190141 0.690141 0.000000
0.200704 0.700704 0.000000
0.211268 0.711268 0.000000
0.221831 0.721831 0.000000
0.232394 0.732394 0.000000
0.242958 0.742958 0.000000
0.253521 0.753521 0.000000
0.264085 0.764085 0.000000
0.274648 0.774648 0.000000
0.285211 0.785211 0.000000
0.295775 0.795775 0.000000
0.306338 0.806338 0.000000
0.316901 0.816901 0.000000
0.327465 0.827465 0.000000
0.338028 0.838028 0.000000
0.348592 0.848592 0.000000
0.359155 0.859155 0.000000
0.369718 0.869718 0.000000
0.380282 0.880282 0.000000
0.390845 0.890845 0.000000
0.401408 0.901408 0.000000
0.411972 0.911972 0.000000
0.422535 0.922535 0.000000
0.433099 0.933099 0.000000
0.443662 0.943662 0.000000
0.454225 0.954225 0.000000
0.464789 0.964789 0.000000
0.475352 0.975352 0.000000
0.485915 0.985915 0.000000
0.496479 0.996479 0.000000
0.507042 1.007042 0.000000
0.517606 1.017606 0.000000
0.528169 1.028169 0.000000
0.538732 1.038732 0.000000
0.549296 1.049296 0.000000
0.559859 1.059859 0.000000
0.570423 1.070423 0.000000
0.580986 1.080986 0.000000
0.591549 1.091549 0.000000
0.602113 1.102113 0.000000
0.612676 1.112676 0.000000
0.623239 1.123239 0.000000
0.633803 1.133803 0.000000
0.644366 1.144366 0.000000
0.654930 1.154930 0.000000
0.665493 1.165493 0.000000
0.676056 1.176056 0.000000
0.686620 1.186620 0.000000
0.697183 1.197183 0.000000
0.707746 1.207746 0.000000
0.718310 1.218310 0.000000
0.728873 1.228873 0.000000
0.739437 1.239437 0.000000
0.750000 1.250000 0.000000
0.760563 1.260563 0.000000
0.771127 1.271127 0.000000
0.781690 1.281690 0.000000
0.792254 1.292254 0.000000
0.802817 1.302817 0.000000
0.813380 1.313380 0.000000
0.823944 1.323944 0.000000
0.834507 1.334507 0.000000
0.845070 1.345070 0.000000
0.855634 1.355634 0.000000
0.866197 1.366197 0.000000
0.876761 1.376761 0.000000
0.887324 1.387324 0.000000
0.897887 1.397887 0.000000
0.908451 1.408451 0.000000
0.919014 1.419014 0.000000
0.929577 1.429577 0.000000
0.940141 1.440141 0.000000
0.950704 1.450704 0.000000
0.961268 1.461268 0.000000
0.971831 1.471831 0.000000
0.982394 1.482394 0.000000
0.992958 1.492958 0.000000
1.003521 1.503521 0.000000
1.014085 1.514085 0.000000
1.024648 1.524648 0.000000
1.035211 1.535211 0.000000
1.045775 1.545775 0.000000
1.056338 1.556338 0.000000
1.066901 1.566901 0.000000
1.077465 1.577465 0.000000
1.088028 1.588028 0.000000
1.098592 1.598592 0.000000
1.109155 1.609155 0.000000
1.119718 1.619718 0.000000
1.130282 1.630282 0.000000
1.140845 1.640845 0.000000
1.151408 1.651408 0.000000
1.161972 1.661972 0.000000
1.172535 1.672535 0.000000
1.183099 1.683099 0.000000
1.193662 1.693662 0.000000
1.204225 1.704225 0.000000
1.214789 1.714789 0.000000
1.225352 1.725352 0.000000
1.235915 1.735915 0.000000
1.246479 1.746479 0.000000
1.257042 1.757042 0.000000
1.267606 1.767606 0.000000
1.278169 1.778169 0.000000
1.288732 1.788732 0.000000
1.299296 1.799296 0.000000
1.309859 1.809859 0.000000
1.320423 1.820423 0.000000
1.330986 1.830986 0.000000
1.341549 1.841549 0.000000
1.352113 1.852113 0.000000
1.362676 1.862676 0.000000
1.373239 1.873239 0.000000
1.383803 1.883803 0.000000
1.394366 1.894366 0.000000
1.404930 1.904930 0.000000
1.415493 1.915493 0.000000
1.426056 1.926056 0.000000
1.436620 1.936620 0.000000
1.447183 1.947183 0.000000
1.457746 1.957746 0.000000
1.468310 1.968310 0.000000
1.478873 1.978873 0.000000
1.489437 1.989437 0.000000
1.510417 2.010417 0.000000
1.520833 2.020833 0.000000
1.531250 2.031250 0.000000
1.541667 2.041667 0.000000
1.552083 2.052083 0.000000
1.562500 2.062500 0.000000
1.572917 2.072917 0.000000
1.583333 2.083333 0.000000
1.593750 2.093750 0.000000
1.604167 2.104167 0.000000
1.614583 2.114583 0.000000
1.625000 2.125000 0.000000
1.635417 2.135417 0.000000
1.645833 2.145833 0.000000
1.656250 2.156250 0.000000
1.666667 2.166667 0.000000
1.677083 2.177083 0.000000
1.687500 2.187500 0.000000
1.697917 2.197917 0.000000
1.708333 2.208333 0.000000
1.718750 2.218750 0.000000
1.729167 2.229167 0.000000
1.739583 2.239583 0.000000
1.750000 2.250000 0.000000
1.760417 2.260417 0.000000
1.770833 2.270833 0.000000
1.781250 2.281250 0.000000
1.791667 2.291667 0.000000
1.802083 2.302083 0.000000
1.812500 2.312500 0.000000
1.822917 2.322917 0.000000
1.833333 2.333333 0.000000
1.843750 2.343750 0.000000
1.854167 2.354167 0.000000
1.864583 2.364583 0.000000
1.875000 2.375000 0.000000
1.885417 2.385417 0.000000
1.895833 2.395833 0.000000
1.906250 2.406250 0.000000
1.916667 2.416667 0.000000
1.927083 2.427083 0.000000
1.937500 2.437500 0.000000
1.947917 2.447917 0.000000
1.958333 2.458333 0.000000
1.968750 2.468750 0.000000
1.979167 2.479167 0.000000
1.989583 2.489583 0.000000
0.206561 0.791563 0.000000
0.205359 0.816165 0.000000
0.186354 0.798211 0.000000
0.221961 0.800924 0.000000
0.280649 1.360489 0.000000
0.304015 1.400469 0.000000
0.229142 1.396096 0.000000
0.275922 1.451476 0.000000
1.869084 2.391788 0.000000
1.857928 2.378421 0.000000
1.238669 2.061899 0.000000
1.278787 2.082276 0.000000
1.238298 2.096047 0.000000
1.277579 2.032995 0.000000
0.402536 1.205823 0.000000
0.415290 1.176040 0.000000
0.428330 1.201952 0.000000
0.387294 1.172617 0.000000
0.146930 1.050586 0.000000
0.109488 1.087198 0.000000
0.102742 1.042403 0.000000
0.157178 1.091184 0.000000
0.588967 1.178581 0.000000
0.593116 1.153718 0.000000
0.608054 1.166752 0.000000
0.612180 1.145944 0.000000
0.860304 1.543784 0.000000
0.868821 1.521840 0.000000
0.878420 1.536650 0.000000
0.845380 1.517623 0.000000
1.129525 1.764330 0.000000
1.142005 1.751560 0.000000
1.145757 1.773681 0.000000
1.159368 1.759106 0.000000
1.968150 2.518865 0.000000
1.986105 2.509269 0.000000
1.986696 2.531115 0.000000
0.668964 1.191005 0.000000
0.683291 1.201259 0.000000
0.557625 1.074830 0.000000
0.569760 1.084377 0.000000
0.557769 1.089278 0.000000
0.707567 1.266174 0.000000
0.719026 1.281845 0.000000
0.700768 1.282275 0.000000
0.722329 1.266956 0.000000
0.468225 2.149688 0.000000
0.419106 2.064198 0.000000
0.523878 2.082648 0.000000
0.838546 1.421191 0.000000
0.823708 1.410355 0.000000
0.840477 1.404206 0.000000
0.818500 1.425973 0.000000
0.953187 1.488222 0.000000
0.959780 1.473222 0.000000
0.967054 1.485637 0.000000
1.047418 1.769126 0.000000
1.080240 1.782403 0.000000
1.047768 1.802712 0.000000
0.971392 1.693320 0.000000
0.949208 1.720793 0.000000
0.940644 1.684781 0.000000
0.381391 2.160909 0.000000
0.944091 1.477800 0.000000
0.530075 1.477351 0.000000
0.521303 1.516669 0.000000
0.474240 1.491166 0.000000
0.489489 1.546185 0.000000
1.537370 2.239326 0.000000
1.555275 2.267640 0.000000
1.532966 2.278201 0.000000
0.962010 1.661716 0.000000
0.986804 1.643200 0.000000
0.986259 1.672729 0.000000
1.049149 1.737940 0.000000
1.075111 1.737123 0.000000
[...]
POINT_DATA 3011
SCALARS UX float 1
LOOKUP_TABLE default
-0.029416
0.034034
0.000000
-0.000000
-0.030683
0.017935
0.032635
-0.020387
-0.011347
-0.002298
0.006764
0.015843
0.024933
0.034046
0.034077
0.034126
0.034186
0.034253
0.034323
0.034390
0.034437
0.034447
0.034412
0.034310
0.034163
0.033979
0.033792
0.033611
0.033447
0.033305
0.033183
0.033080
0.032992
0.032917
0.032852
0.032797
0.032748
0.032705
0.032668
0.032601
0.032559
0.032509
0.032447
0.032374
0.032274
0.032078
0.031842
0.031529
0.031119
0.030495
0.029478
0.027738
0.024412
0.018090
-0.000000
0.000000
0.000000
-0.000000
-0.000000
0.000000
-0.017975
-0.025437
-0.028698
-0.030326
-0.031095
-0.031542
-0.031639
-0.031640
-0.031618
-0.031599
-0.031591
-0.031596
-0.031607
-0.031624
-0.031643
-0.031664
-0.031684
-0.031703
-0.031722
-0.031740
-0.031759
-0.031777
-0.031795
-0.031812
-0.031828
-0.031842
-0.031852
-0.031858
-0.031864
-0.031872
-0.031886
-0.031894
-0.031890
-0.031836
-0.031908
-0.031789
-0.029395
-0.029368
-0.029328
-0.029368
-0.029398
-0.029406
-0.029411
-0.030223
-0.029930
-0.029543
-0.029301
-0.029073
-0.028624
-0.028312
-0.027944
-0.027622
-0.027235
-0.026888
-0.026771
-0.026342
-0.025899
-0.025446
-0.025179
-0.024972
-0.024660
-0.024192
-0.023941
-0.023398
-0.023250
-0.022822
-0.022548
-0.022199
-0.021797
-0.021596
-0.021140
-0.021037
-0.020568
-0.020340
-0.019813
-0.019499
-0.019177
-0.018854
-0.018503
-0.018134
-0.017900
-0.017538
-0.017130
-0.016852
-0.016411
-0.015956
-0.015966
-0.015607
-0.015055
-0.014831
-0.014410
-0.014180
-0.013840
-0.013381
-0.013016
-0.012621
-0.012358
-0.012051
-0.011784
-0.011437
-0.011096
-0.010614
-0.010406
-0.010185
-0.009718
-0.009332
-0.008966
-0.008667
-0.008323
-0.008182
-0.007747
-0.007215
-0.006933
-0.006477
-0.006334
-0.005857
-0.005652
-0.005403
-0.005078
-0.004615
-0.004365
-0.004021
-0.003664
-0.003398
-0.002981
-0.002703
-0.002392
-0.001855
-0.001544
-0.001352
-0.000883
-0.000395
-0.000299
0.000030
0.000324
0.000727
0.001048
0.001381
0.001798
0.002102
0.002465
0.002725
0.003128
0.003390
0.003809
0.004324
0.004361
0.004904
0.005270
0.005694
0.005854
0.006159
0.006634
0.006953
0.007315
0.007517
0.007943
0.008322
0.008582
0.009065
0.009413
0.009555
0.010015
0.010488
0.010553
0.011170
0.011404
0.011695
0.012135
0.012455
0.012828
0.013186
0.013422
0.013824
0.014057
0.014542
0.014807
0.015237
0.015560
0.015985
0.016299
0.016695
0.017041
0.017362
0.018309
0.018369
0.018662
0.018945
0.019254
0.019566
0.019876
0.020189
0.020507
0.020823
0.021139
0.021455
0.021772
0.022089
0.022405
0.022721
0.023037
0.023351
0.023666
0.023980
0.024294
0.024608
0.024921
0.025233
0.025546
0.025857
0.026169
0.026480
0.026790
0.027100
0.027410
0.027719
0.028028
0.028337
0.028645
0.028953
0.029262
0.029569
0.029877
0.030184
0.030491
0.030798
0.031105
0.031411
0.031718
0.032023
0.032329
-0.025302
-0.025335
-0.025936
-0.024821
-0.022775
-0.022025
-0.024396
-0.022902
0.028729
0.028403
0.008477
0.009842
0.008497
0.009733
-0.018965
-0.018572
-0.018151
-0.019458
-0.027091
-0.028264
-0.028491
-0.026755
-0.013073
-0.012942
-0.012489
-0.012331
-0.004323
-0.004064
-0.003752
-0.004809
0.004420
0.004790
0.004953
0.005358
0.031596
0.032179
0.032153
-0.010656
-0.010051
-0.014114
-0.013544
-0.014094
-0.009269
-0.008910
-0.009485
-0.008799
-0.016794
-0.018340
-0.014979
-0.005066
-0.005539
-0.005026
-0.005696
-0.001404
-0.001103
-0.000959
0.001816
0.002880
0.001869
-0.000686
-0.001369
-0.001673
-0.019582
-0.001679
-0.014838
-0.015104
-0.016606
-0.016107
0.018252
0.018803
0.018064
-0.001010
-0.000234
-0.000230
0.001833
0.002657
0.002497
0.019269
0.002392
0.004851
0.005155
0.005345
0.004642
0.012926
0.014131
0.013916
0.015950
0.014876
0.014836
-0.012999
-0.013195
-0.012058
-0.017172
-0.015172
-0.016413
-0.012243
-0.014734
-0.022183
-0.021197
-0.022278
-0.021407
0.001481
-0.000149
0.001503
-0.001252
-0.018916
-0.018516
-0.016717
0.017836
0.018401
0.017465
-0.020979
-0.025097
-0.026870
-0.026272
-0.011126
-0.010236
-0.010031
-0.009265
-0.028192
-0.026226
-0.024795
-0.028308
0.027035
0.027588
0.027923
-0.001047
-0.000064
0.000828
-0.018216
-0.017329
0.002174
-0.007606
-0.007485
-0.008715
-0.006632
0.017160
0.017030
0.016367
-0.005160
-0.004934
-0.005894
0.017796
-0.026667
-0.026486
-0.026294
-0.014537
-0.014270
-0.013620
-0.030063
-0.029990
-0.013706
-0.005356
-0.005234
-0.003865
-0.030039
-0.003590
0.001795
0.003036
-0.026229
-0.025696
-0.025027
-0.013641
-0.013730
-0.013232
-0.014084
-0.014012
0.019939
0.020382
0.019969
0.006774
0.005953
0.005758
0.004486
0.005237
0.004196
0.001370
0.001391
0.000932
0.003809
-0.018431
-0.018816
-0.019027
-0.005030
-0.005651
-0.005467
-0.002502
-0.005021
-0.028453
-0.027667
-0.028900
-0.013454
-0.014083
0.026962
0.000723
0.025881
0.025672
0.025231
-0.005848
-0.005189
-0.009098
-0.009487
0.023010
0.023443
0.021944
-0.009853
-0.010662
-0.010105
0.010178
0.009846
0.011257
0.008550
0.026253
0.026616
0.018604
0.007699
0.006532
0.006862
0.001370
0.001822
0.001964
0.015891
0.018081
0.012740
0.014630
0.016476
0.017228
0.016563
-0.012801
-0.013680
-0.013908
-0.014635
-0.014501
0.001937
0.024841
0.023958
0.024807
0.018640
0.017241
0.018355
0.017599
0.018241
0.019281
0.019024
0.023598
0.023496
-0.002511
-0.001933
-0.001812
-0.002591
-0.004661
-0.004198
-0.004381
-0.003899
0.011439
0.010738
0.011644
0.010915
0.011292
0.010670
0.017108
0.017780
0.017323
0.024581
0.024206
-0.007504
-0.007419
-0.008194
-0.007142
-0.007236
-0.006370
-0.006314
-0.008038
-0.008197
-0.007612
-0.002931
-0.003460
-0.003115
-0.003402
0.007534
0.007649
0.008143
0.007007
-0.002436
-0.006918
-0.006817
-0.007051
-0.006723
-0.006110
-0.007284
0.021827
0.021278
0.021167
0.020637
0.005116
0.005618
-0.003154
-0.003102
-0.002311
0.004038
0.004146
0.003607
0.003798
0.003238
0.003611
0.003606
-0.000028
-0.000348
0.000289
-0.000730
0.014861
0.015150
-0.008335
-0.007790
-0.008297
0.002573
0.002638
0.002146
0.013344
0.011992
0.011379
0.003110
0.001496
0.001950
0.001247
0.017002
0.017067
0.014586
0.015245
0.014579
0.015297
0.009868
0.010111
0.009351
0.009740
-0.029172
-0.029712
-0.030567
-0.027616
-0.018418
-0.017899
-0.017960
-0.011093
-0.009349
-0.016910
0.017687
-0.018934
-0.019162
-0.020001
-0.020138
0.004028
0.005444
0.005762
0.007091
-0.010455
-0.008664
-0.008358
-0.007086
0.022921
0.023351
0.023434
0.023777
0.017813
0.016657
-0.027294
-0.029248
-0.029664
-0.028452
-0.029133
-0.028629
-0.028965
-0.027179
-0.026433
0.001633
0.000786
0.001103
0.012191
0.010998
-0.016292
-0.016054
-0.017032
-0.016662
-0.017643
-0.003933
-0.003618
-0.004800
-0.004557
-0.019494
-0.020032
-0.020227
-0.019591
-0.007929
-0.006309
-0.025930
-0.025521
-0.024878
-0.025257
-0.026225
-0.028864
-0.029490
-0.029018
-0.028653
-0.028407
-0.024827
-0.024222
-0.024038
-0.024599
-0.023808
-0.006099
-0.005284
-0.005569
0.005358
-0.005518
-0.009864
-0.005078
-0.011980
-0.017159
0.029738
0.029173
0.030369
0.028421
0.027409
0.028224
-0.022277
-0.022605
-0.023153
-0.025240
-0.022943
-0.023193
-0.026109
0.025913
0.028124
0.027876
0.026055
0.001020
0.000929
-0.018057
-0.017359
-0.017979
-0.017127
-0.026015
-0.026406
-0.030932
-0.030526
-0.030257
-0.030751
0.028792
0.028692
0.027833
0.028372
-0.020301
-0.019545
0.009615
0.010750
0.009208
0.007387
0.011209
0.008839
0.005246
0.005593
0.000712
-0.009048
-0.009163
-0.008130
-0.030556
-0.030526
-0.031174
-0.029981
0.031073
0.017446
-0.023507
-0.023698
-0.024603
-0.031462
-0.031359
-0.024335
0.025970
0.025648
0.026349
-0.026175
-0.025714
-0.026397
-0.028838
-0.025711
-0.025289
0.030469
0.031155
0.030714
0.030889
0.031269
0.007235
0.008445
-0.024401
-0.024288
-0.023491
0.031469
0.012805
0.013584
0.014452
-0.017921
-0.016655
-0.016050
-0.017447
-0.015500
-0.014963
-0.011200
-0.010440
-0.028854
-0.028970
-0.030643
-0.029805
-0.029501
-0.028927
-0.017209
0.018462
-0.017747
-0.029953
-0.030582
-0.030043
-0.029619
0.031170
0.030099
-0.027418
-0.028138
-0.027872
0.031615
-0.030380
0.026632
0.027563
0.026623
-0.023467
-0.024079
-0.023230
-0.006378
-0.003754
-0.003646
-0.001270
-0.000882
-0.026670
-0.026131
-0.027050
-0.027508
0.012129
0.010607
-0.022762
-0.022495
-0.023316
-0.022724
-0.016036
-0.016060
-0.017237
-0.016199
-0.017473
-0.019490
-0.017799
-0.017956
-0.019782
-0.030447
-0.030968
0.026147
0.026823
-0.020014
-0.019480
-0.020868
-0.021194
-0.022372
0.017813
0.018010
0.017486
-0.013389
-0.014023
-0.019344
-0.020284
-0.013172
-0.012220
0.005355
0.003208
0.003323
0.004748
-0.029706
-0.022057
-0.021851
-0.022198
-0.021390
0.004692
0.026856
0.026585
0.026082
0.025875
-0.004529
-0.004465
-0.002468
-0.002512
-0.000854
-0.000542
0.025001
0.025587
0.031514
0.030345
-0.000953
0.000524
0.027730
0.028807
-0.029217
-0.018599
-0.020499
-0.023042
-0.023206
-0.022606
-0.023433
-0.023589
0.010422
-0.029050
-0.031237
0.011195
0.003738
0.002556
0.030470
0.030419
0.030698
-0.030790
-0.026468
-0.027290
-0.029520
0.003533
0.002686
0.002020
0.002996
0.025460
-0.025857
-0.025448
-0.024538
-0.024058
0.009616
0.009017
0.007967
0.008767
0.027344
-0.030686
-0.031091
-0.030231
-0.023848
-0.028821
-0.020755
-0.023565
-0.019282
-0.021056
-0.026115
-0.029387
-0.029635
0.005128
0.005439
0.002261
0.008269
-0.005857
-0.008614
0.000628
-0.029086
-0.009218
-0.028170
0.000739
-0.005124
-0.004047
-0.027409
-0.028073
-0.027514
-0.029519
-0.028390
-0.009113
-0.003320
-0.005016
-0.007116
-0.027096
-0.000259
-0.000598
-0.000894
-0.009783
-0.010286
-0.008458
-0.023470
-0.023580
-0.024811
-0.020651
-0.020321
-0.020897
-0.021247
-0.009611
-0.008311
-0.008249
-0.006850
-0.006856
0.006705
0.005120
0.000599
-0.001902
-0.002643
-0.001946
-0.001335
0.007546
0.005069
0.002969
0.002828
0.000872
-0.025941
-0.021987
-0.020513
-0.017513
-0.027653
-0.027468
-0.028006
-0.018551
0.031835
-0.022100
-0.022614
-0.023725
-0.023085
-0.014732
-0.016958
-0.013067
-0.011984
-0.010834
-0.030036
-0.021732
-0.021448
-0.028611
0.022204
0.022225
-0.002415
-0.023963
0.022671
0.029646
-0.022134
-0.025118
-0.022498
0.006316
-0.025945
-0.027344
-0.028734
-0.030720
-0.029602
0.027034
-0.026562
0.002585
0.000324
0.004040
-0.028181
-0.029314
0.029027
-0.021929
-0.021816
-0.022315
-0.027924
0.024207
0.022701
0.024160
0.027777
0.027732
0.028189
-0.027253
-0.026106
-0.025933
-0.026515
-0.028181
0.020372
0.015733
0.015601
0.011515
-0.020904
-0.021002
-0.009990
-0.009559
-0.017937
-0.015166
0.018327
-0.007179
-0.030279
-0.015126
-0.015729
-0.015242
0.001042
-0.013142
-0.012289
-0.012426
-0.026804
-0.023126
-0.020749
-0.020603
-0.018275
-0.025852
-0.010998
-0.012144
-0.011957
0.023599
0.027221
0.025295
0.002417
-0.018846
-0.018886
-0.017846
-0.028392
-0.026449
-0.026788
-0.027931
-0.014613
0.007410
-0.021242
-0.024563
-0.014460
-0.013297
-0.028416
-0.025509
-0.011680
-0.011599
-0.016800
0.004463
0.029979
0.029527
-0.027168
-0.019568
-0.007665
-0.029303
-0.024228
-0.022547
-0.024750
0.009711
-0.030202
0.008684
0.008856
0.008237
-0.011461
-0.007282
-0.028197
-0.012702
-0.018098
-0.019448
-0.020262
0.027302
-0.003951
-0.004590
-0.003556
-0.022505
-0.022751
-0.013358
-0.018744
-0.018538
-0.017978
-0.027881
-0.028442
-0.019244
-0.025277
0.023625
0.023990
-0.016692
-0.016899
-0.017404
0.022950
-0.006086
-0.005732
0.025165
0.025521
0.008410
-0.001268
-0.003440
-0.025604
-0.026428
0.001620
0.002526
0.007014
0.007759
-0.015431
-0.017977
-0.022250
-0.021556
-0.021834
0.019813
0.019631
0.002114
0.004061
-0.019211
-0.027353
-0.025492
-0.014751
-0.015022
-0.014111
-0.024459
-0.028701
-0.023554
-0.008670
-0.010040
-0.022231
-0.022818
-0.022710
0.026762
-0.011604
-0.011111
-0.012734
-0.027231
-0.026863
-0.020876
-0.020071
-0.015320
-0.012814
0.000651
-0.003617
0.010230
0.028170
-0.028425
-0.013995
-0.012918
-0.017076
-0.020062
-0.021188
-0.013048
-0.013862
-0.014075
0.022544
-0.007027
-0.010874
-0.011813
-0.002366
-0.006903
-0.016241
-0.016384
-0.015861
0.006358
0.006733
0.008136
0.000707
-0.011189
-0.020798
-0.021102
-0.021629
-0.021773
0.009633
0.010141
0.009816
-0.013687
-0.012222
-0.028930
-0.013546
-0.014067
-0.013279
-0.014452
0.005148
0.030084
0.029836
0.003623
0.009204
0.002527
0.006274
-0.024770
-0.024626
-0.024347
-0.021058
-0.020582
-0.020599
-0.014148
0.020702
0.019516
-0.005669
0.000265
-0.000491
-0.021533
-0.001143
-0.021408
-0.020973
-0.025321
-0.025296
-0.024890
-0.016217
-0.001353
-0.000502
-0.001518
-0.000072
0.029660
-0.023973
-0.024383
0.021201
-0.023489
-0.023689
0.025943
0.024857
0.024363
0.022977
0.023409
0.021277
0.023157
-0.026989
-0.026566
-0.027055
-0.019033
-0.020827
-0.021542
-0.003120
-0.004918
-0.016211
-0.025049
-0.019570
-0.016134
-0.012042
-0.025723
-0.025638
0.004890
-0.015461
-0.015394
-0.021637
-0.027214
0.029445
-0.007363
-0.025589
-0.027919
-0.023622
-0.006446
-0.008358
0.000949
-0.005835
-0.007197
-0.008043
-0.009765
-0.012303
-0.001731
-0.003915
-0.000274
-0.003623
0.001239
-0.018317
-0.023245
0.021168
0.021568
-0.020967
-0.016393
-0.010096
-0.011091
-0.012072
0.022308
0.019271
-0.002686
-0.003571
-0.003585
-0.002883
0.006461
0.006917
-0.020055
-0.020292
-0.019881
-0.024962
-0.002753
0.001389
-0.017826
0.016739
0.018010
-0.019008
-0.013016
-0.010761
-0.012118
0.029922
0.022819
0.024474
0.024553
-0.020969
-0.021896
0.029584
-0.015461
-0.009459
-0.016090
0.016147
-0.018541
-0.018800
-0.018174
-0.019151
-0.020954
-0.012570
-0.019578
0.014674
0.013424
0.012843
0.016023
0.016553
0.016142
0.015316
0.015974
0.007543
0.021265
0.020665
-0.019652
0.010302
0.008089
-0.015748
-0.015714
-0.015340
0.022531
0.020939
-0.009888
-0.015494
-0.011738
-0.018510
-0.016890
-0.008468
-0.008294
-0.009165
0.029568
0.029333
-0.012730
-0.008700
-0.015103
0.011610
0.020321
0.021222
0.021879
0.015990
0.016044
0.020073
-0.020886
-0.024248
-0.023813
-0.002926
-0.004504
-0.008625
-0.031390
-0.007786
0.014251
0.010599
0.011636
0.012697
-0.014583
-0.014892
-0.014495
-0.015152
0.014982
-0.017337
-0.017601
-0.017022
-0.009341
0.014193
0.014470
-0.031481
0.022389
0.022370
-0.019970
-0.001763
-0.031325
0.021766
-0.002131
0.013149
-0.015325
0.022395
-0.022922
0.015108
-0.014772
-0.013312
-0.007165
-0.009039
-0.022240
0.024841
0.025440
0.021680
0.028076
0.006246
0.006721
0.006693
-0.007700
-0.016739
-0.007179
-0.005678
0.006241
0.007137
-0.016824
0.007243
-0.011372
-0.012054
-0.011561
-0.010793
-0.011319
-0.010857
-0.010528
-0.010133
-0.009866
-0.024016
0.004396
-0.007412
0.029514
0.007061
0.007663
-0.014753
0.006326
-0.000632
-0.000586
-0.020891
-0.020670
-0.021061
0.001610
0.002188
0.000986
0.018962
0.019282
0.016959
0.017661
0.018856
0.019553
0.019375
0.019323
-0.021036
-0.030296
0.002757
0.002822
0.002236
0.004420
-0.013519
0.008320
0.009043
0.009071
-0.001003
-0.000080
-0.010115
-0.009709
0.009688
0.009228
0.009964
-0.001062
-0.001499
0.003816
0.000304
0.000558
-0.019610
-0.019217
0.023153
0.023871
-0.001013
-0.000310
-0.000380
0.023505
0.022766
0.020062
0.019277
-0.020031
0.011945
0.020052
-0.009823
-0.009307
-0.009148
0.013863
0.014565
0.013746
-0.011311
-0.018181
0.014550
-0.016748
-0.016801
-0.017340
0.015401
0.013600
-0.001457
-0.001900
-0.007937
-0.007437
-0.007845
0.015957
0.015932
0.015346
-0.002327
-0.001862
-0.008428
-0.002497
-0.007502
-0.006814
-0.006484
0.018518
0.017901
-0.024326
-0.024721
-0.005799
-0.005418
-0.005023
-0.005512
-0.005022
-0.029446
-0.002271
-0.014673
-0.015022
-0.014483
0.017179
-0.012851
-0.015500
-0.015749
-0.016074
0.010318
-0.005866
-0.023074
0.010096
0.018795
0.018302
0.012068
0.012468
0.012743
0.013209
0.004253
0.004430
0.004736
0.003940
0.004175
0.011675
0.022282
0.021725
-0.006927
-0.006656
-0.006587
-0.009685
-0.008991
-0.003764
-0.003311
-0.003758
0.005162
-0.012073
0.005508
0.005742
0.006068
0.005175
0.022760
0.002972
0.003208
0.021140
0.021091
0.021752
0.020424
0.009106
0.016123
-0.009182
-0.008769
0.009395
0.010570
0.010414
0.000925
0.000628
-0.011444
-0.011791
-0.012074
-0.011262
-0.010938
-0.002761
-0.002396
-0.002894
0.008521
0.008711
0.007914
0.008639
0.009095
0.019809
0.019610
0.016805
0.015402
0.013171
0.013399
0.013908
0.013786
0.014328
0.013940
-0.014654
0.018529
0.019066
0.019275
0.020891
0.020326
0.023006
0.023215
-0.003288
-0.011782
-0.011705
0.023692
0.024379
-0.018667
0.023971
0.019433
0.020891
0.014751
0.024825
-0.031051
-0.031173
-0.031108
-0.031214
-0.029799
0.004775
-0.006471
0.000249
-0.011699
-0.011540
-0.011972
-0.030238
-0.009810
0.014485
0.015652
0.010534
0.008202
0.012606
0.012664
0.012120
-0.011844
0.012295
0.000084
0.000300
0.000652
-0.011807
0.022173
0.000744
0.012813
0.012428
0.024993
0.025553
0.019093
0.019461
0.019999
0.020553
0.020550
0.003457
0.003913
-0.024499
0.011263
0.019638
0.020111
0.020515
-0.002069
-0.001783
-0.001562
-0.010429
-0.010127
-0.007356
-0.007952
-0.003774
-0.004377
0.005709
0.005001
0.004785
0.015278
-0.011382
-0.010939
-0.012251
0.024188
0.023599
0.012783
0.010049
0.009147
0.006257
-0.008692
-0.009838
-0.011051
0.025134
0.008390
0.007570
0.007553
0.024626
0.024761
0.024195
-0.019928
0.013642
-0.018716
-0.005818
-0.006009
-0.006394
-0.020310
0.006596
-0.014583
-0.027920
-0.010952
0.004345
0.004224
-0.002538
-0.001188
0.006200
-0.006316
-0.006053
-0.005558
0.005862
0.013525
-0.011156
-0.008339
-0.008749
-0.005807
-0.006319
0.006811
-0.006124
-0.026850
-0.026954
0.016466
0.005669
-0.016321
0.001256
0.001116
0.011500
0.003059
0.022854
0.020171
0.020765
-0.017634
0.005643
-0.010522
0.009369
-0.025192
-0.009562
-0.010538
0.008149
0.008632
0.008078
0.002757
0.003167
0.012241
0.011331
-0.022373
-0.022334
0.000635
-0.001685
0.010527
0.002841
0.001058
-0.006839
0.020899
-0.006240
0.021279
0.021096
0.000645
-0.012764
-0.012359
0.022774
0.021987
0.011764
0.011681
-0.000684
0.018473
0.019139
0.018768
0.012928
0.013452
0.024459
0.024733
0.009505
0.015436
0.016362
0.011149
-0.025878
0.019627
0.013628
0.011139
-0.012508
0.006769
0.014696
-0.017997
-0.014836
0.015929
0.002715
0.020690
0.021882
-0.011222
0.000349
-0.027073
-0.017284
-0.002778
-0.003261
-0.003785
-0.005232
-0.019190
-0.010833
-0.006991
-0.002521
0.012934
0.006522
0.006744
0.007376
0.003833
0.020697
-0.003992
0.016968
0.015996
0.015689
-0.016240
-0.009614
-0.002832
0.000040
0.000331
0.023017
0.017153
-0.015790
0.008088
0.007703
-0.002391
0.012311
0.025247
0.015279
0.017225
0.017061
-0.012237
0.016659
-0.004771
0.012107
0.024818
0.009145
-0.004577
-0.004270
-0.003951
-0.005043
-0.004804
-0.004384
-0.004344
0.003301
0.003120
0.008132
-0.001215
0.010484
0.010793
0.011162
-0.003552
0.002392
0.013368
0.017953
0.005544
-0.004143
0.005860
0.007507
0.007683
0.013120
-0.004148
0.002414
0.001906
0.014448
0.007055
0.014481
-0.004531
0.002001
0.000161
0.024296
0.018300
0.008306
0.011561
0.011756
0.019634
0.005847
0.010335
0.012628
-0.015070
-0.008607
0.015968
0.010403
0.018838
0.021747
0.022175
-0.004428
-0.002073
0.007340
-0.017883
-0.017476
-0.016995
-0.017492
-0.017004
-0.016994
-0.007462
-0.007837
-0.007434
0.029478
0.028052
0.028062
0.016226
0.015567
0.016224
0.026834
0.029995
0.001831
0.001401
-0.003456
0.019292
0.024310
0.023745
-0.008885
-0.009787
-0.009099
0.030571
0.029767
0.031129
0.029566
-0.009247
-0.017572
-0.016581
-0.010040
-0.010042
-0.009369
-0.008376
-0.007858
-0.010163
-0.010872
0.013975
0.013145
0.013261
0.013483
-0.009357
-0.005866
-0.010926
-0.011904
-0.011105
-0.003918
-0.001001
0.012218
0.010488
0.011639
0.010729
-0.014144
-0.013484
-0.014277
0.006945
0.007357
0.006915
-0.000649
-0.001211
-0.000958
-0.001701
0.030966
0.030391
-0.013722
-0.011510
-0.008963
-0.020126
-0.018269
-0.018279
-0.004376
-0.003593
-0.003708
-0.016221
-0.012649
-0.011532
-0.011354
-0.002748
0.010806
0.012019
0.012319
0.009575
0.021109
0.021219
0.023852
0.018559
-0.000164
0.002463
0.002029
0.015082
0.015691
0.016183
0.016964
-0.007250
-0.011091
-0.008720
-0.025336
-0.026517
-0.003299
-0.003676
-0.002937
-0.003784
0.021735
0.022378
0.021870
0.022693
0.006387
0.005968
0.007834
0.005040
0.015017
0.015377
0.014774
0.015655
0.020434
0.020579
0.021168
0.019961
-0.007914
-0.007296
-0.016700
-0.017029
-0.021223
-0.020777
-0.021561
-0.014928
-0.015688
-0.015386
0.016489
0.016188
-0.006407
-0.006197
-0.006803
-0.006573
-0.019130
-0.010017
-0.010571
-0.010035
-0.010581
-0.019362
-0.019188
-0.018735
-0.018316
-0.014498
-0.014965
-0.015106