# vtk DataFile Version 2.0
Test
ASCII
DATASET POLYDATA
POINTS 3011 float
0.000000 0.000000 0.000000
2.000000 0.000000 0.000000
2.000000 4.000000 0.000000
0.000000 4.000000 0.000000
0.000000 0.500000 0.000000
1.500000 2.000000 0.000000
2.000000 2.500000 0.000000
0.285714 0.000000 0.000000
0.571429 0.000000 0.000000
0.857143 0.000000 0.000000
1.142857 0.000000 0.000000
1.428571 0.000000 0.000000
1.714286 0.000000 0.000000
2.000000 0.276366 0.000000
2.000000 0.523709 0.000000
2.000000 0.745076 0.000000
2.000000 0.943195 0.000000
2.000000 1.120508 0.000000
2.000000 1.279199 0.000000
2.000000 1.421225 0.000000
2.000000 1.548336 0.000000
2.000000 1.662097 0.000000
2.000000 1.763911 0.000000
2.000000 1.855033 0.000000
2.000000 1.936585 0.000000
2.000000 2.009573 0.000000
2.000000 2.074896 0.000000
2.000000 2.133358 0.000000
2.000000 2.185681 0.000000
2.000000 2.232509 0.000000
2.000000 2.274419 0.000000
2.000000 2.311927 0.000000
2.000000 2.345497 0.000000
2.000000 2.375541 0.000000
2.000000 2.402430 0.000000
2.000000 2.426495 0.000000
2.000000 2.448033 0.000000
2.000000 2.467309 0.000000
2.000000 2.484560 0.000000
2.000000 2.516256 0.000000
2.000000 2.535859 0.000000
2.000000 2.559499 0.000000
2.000000 2.588006 0.000000
2.000000 2.622383 0.000000
2.000000 2.663839 0.000000
2.000000 2.713831 0.000000
2.000000 2.774116 0.000000
2.000000 2.846815 0.000000
2.000000 2.934483 0.000000
2.000000 3.040202 0.000000
2.000000 3.167691 0.000000
2.000000 3.321430 0.000000
2.000000 3.506825 0.000000
2.000000 3.730395 0.000000
1.714286 4.000000 0.000000
1.428571 4.000000 0.000000
1.142857 4.000000 0.000000
0.857143 4.000000 0.000000
0.571429 4.000000 0.000000
0.285714 4.000000 0.000000
0.000000 3.713462 0.000000
0.000000 3.449209 0.000000
0.000000 3.205508 0.000000
0.000000 2.980761 0.000000
0.000000 2.773493 0.000000
0.000000 2.582346 0.000000
0.000000 2.406065 0.000000
0.000000 2.243495 0.000000
0.000000 2.093568 0.000000
0.000000 1.955302 0.000000
0.000000 1.827789 0.000000
0.000000 1.710194 0.000000
0.000000 1.601745 0.000000
0.000000 1.501730 0.000000
0.000000 1.409494 0.000000
0.000000 1.324431 0.000000
0.000000 1.245984 0.000000
0.000000 1.173639 0.000000
0.000000 1.106920 0.000000
0.000000 1.045390 0.000000
0.000000 0.988645 0.000000
0.000000 0.936314 0.000000
0.000000 0.888053 0.000000
0.000000 0.843545 0.000000
0.000000 0.802499 0.000000
0.000000 0.764646 0.000000
0.000000 0.729736 0.000000
0.000000 0.697541 0.000000
0.000000 0.667851 0.000000
0.000000 0.640469 0.000000
0.000000 0.615217 0.000000
0.000000 0.591929 0.000000
0.000000 0.570453 0.000000
0.000000 0.550646 0.000000
0.000000 0.532380 0.000000
0.000000 0.515535 0.000000
0.000000 0.483768 0.000000
0.000000 0.461535 0.000000
0.000000 0.431083 0.000000
0.000000 0.389372 0.000000
0.000000 0.332241 0.000000
0.000000 0.253989 0.000000
0.000000 0.146807 0.000000
0.010563 0.510563 0.000000
0.021127 0.521127 0.000000
0.031690 0.531690 0.000000
0.042254 0.542254 0.000000
0.052817 0.552817 0.000000
0.063380 0.563380 0.000000
0.073944 0.573944 0.000000
0.084507 0.584507 0.000000
0.095070 0.595070 0.000000
0.105634 0.605634 0.000000
0.116197 0.616197 0.000000
0.126761 0.626761 0.000000
0.137324 0.637324 0.000000
0.147887 0.647887 0.000000
0.158451 0.658451 0.000000
0.169014 0.669014 0.000000
0.179577 0.679577 0.000000
0.190141 0.690141 0.000000
0.200704 0.700704 0.000000
0.211268 0.711268 0.000000
0.221831 0.721831 0.000000
0.232394 0.732394 0.000000
0.242958 0.742958 0.000000
0.253521 0.753521 0.000000
0.264085 0.764085 0.000000
0.274648 0.774648 0.000000
0.285211 0.785211 0.000000
0.295775 0.795775 0.000000
0.306338 0.806338 0.000000
0.316901 0.816901 0.000000
0.327465 0.827465 0.000000
0.338028 0.838028 0.000000
0.348592 0.848592 0.000000
0.359155 0.859155 0.000000
0.369718 0.869718 0.000000
0.380282 0.880282 0.000000
0.390845 0.890845 0.000000
0.401408 0.901408 0.000000
0.411972 0.911972 0.000000
0.422535 0.922535 0.000000
0.433099 0.933099 0.000000
0.443662 0.943662 0.000000
0.454225 0.954225 0.000000
0.464789 0.964789 0.000000
0.475352 0.975352 0.000000
0.485915 0.985915 0.000000
0.496479 0.996479 0.000000
0.507042 1.007042 0.000000
0.517606 1.017606 0.000000
0.528169 1.028169 0.000000
0.538732 1.038732 0.000000
0.549296 1.049296 0.000000
0.559859 1.059859 0.000000
0.570423 1.070423 0.000000
0.580986 1.080986 0.000000
0.591549 1.091549 0.000000
0.602113 1.102113 0.000000
0.612676 1.112676 0.000000
0.623239 1.123239 0.000000
0.633803 1.133803 0.000000
0.644366 1.144366 0.000000
0.654930 1.154930 0.000000
0.665493 1.165493 0.000000
0.676056 1.176056 0.000000
0.686620 1.186620 0.000000
0.697183 1.197183 0.000000
0.707746 1.207746 0.000000
0.718310 1.218310 0.000000
0.728873 1.228873 0.000000
0.739437 1.239437 0.000000
0.750000 1.250000 0.000000
0.760563 1.260563 0.000000
0.771127 1.271127 0.000000
0.781690 1.281690 0.000000
0.792254 1.292254 0.000000
0.802817 1.302817 0.000000
0.813380 1.313380 0.000000
0.823944 1.323944 0.000000
0.834507 1.334507 0.000000
0.845070 1.345070 0.000000
0.855634 1.355634 0.000000
0.866197 1.366197 0.000000
0.876761 1.376761 0.000000
0.887324 1.387324 0.000000
0.897887 1.397887 0.000000
0.908451 1.408451 0.000000
0.919014 1.419014 0.000000
0.929577 1.429577 0.000000
0.940141 1.440141 0.000000
0.950704 1.450704 0.000000
0.961268 1.461268 0.000000
0.971831 1.471831 0.000000
0.982394 1.482394 0.000000
0.992958 1.492958 0.000000
1.003521 1.503521 0.000000
1.014085 1.514085 0.000000
1.024648 1.524648 0.000000
1.035211 1.535211 0.000000
1.045775 1.545775 0.000000
1.056338 1.556338 0.000000
1.066901 1.566901 0.000000
1.077465 1.577465 0.000000
1.088028 1.588028 0.000000
1.098592 1.598592 0.000000
1.109155 1.609155 0.000000
1.119718 1.619718 0.000000
1.130282 1.630282 0.000000
1.140845 1.640845 0.000000
1.151408 1.651408 0.000000
1.161972 1.661972 0.000000
1.172535 1.672535 0.000000
1.183099 1.683099 0.000000
1.193662 1.693662 0.000000
1.204225 1.704225 0.000000
1.214789 1.714789 0.000000
1.225352 1.725352 0.000000
1.235915 1.735915 0.000000
1.246479 1.746479 0.000000
1.257042 1.757042 0.000000
1.267606 1.767606 0.000000
1.278169 1.778169 0.000000
1.288732 1.788732 0.000000
1.299296 1.799296 0.000000
1.309859 1.809859 0.000000
1.320423 1.820423 0.000000
1.330986 1.830986 0.000000
1.341549 1.841549 0.000000
1.352113 1.852113 0.000000
1.362676 1.862676 0.000000
1.373239 1.873239 0.000000
1.383803 1.883803 0.000000
1.394366 1.894366 0.000000
1.404930 1.904930 0.000000
1.415493 1.915493 0.000000
1.426056 1.926056 0.000000
1.436620 1.936620 0.000000
1.447183 1.947183 0.000000
1.457746 1.957746 0.000000
1.468310 1.968310 0.000000
1.478873 1.978873 0.000000
1.489437 1.989437 0.000000
1.510417 2.010417 0.000000
1.520833 2.020833 0.000000
1.531250 2.031250 0.000000
1.541667 2.041667 0.000000
1.552083 2.052083 0.000000
1.562500 2.062500 0.000000
1.572917 2.072917 0.000000
1.583333 2.083333 0.000000
1.593750 2.093750 0.000000
1.604167 2.104167 0.000000
1.614583 2.114583 0.000000
1.625000 2.125000 0.000000
1.635417 2.135417 0.000000
1.645833 2.145833 0.000000
1.656250 2.156250 0.000000
1.666667 2.166667 0.000000
1.677083 2.177083 0.000000
1.687500 2.187500 0.000000
1.697917 2.197917 0.000000
1.708333 2.208333 0.000000
1.718750 2.218750 0.000000
1.729167 2.229167 0.000000
1.739583 2.239583 0.000000
1.750000 2.250000 0.000000
1.760417 2.260417 0.000000
1.770833 2.270833 0.000000
1.781250 2.281250 0.000000
1.791667 2.291667 0.000000
1.802083 2.302083 0.000000
1.812500 2.312500 0.000000
1.822917 2.322917 0.000000
1.833333 2.333333 0.000000
1.843750 2.343750 0.000000
1.854167 2.354167 0.000000
1.864583 2.364583 0.000000
1.875000 2.375000 0.000000
1.885417 2.385417 0.000000
1.895833 2.395833 0.000000
1.906250 2.406250 0.000000
1.916667 2.416667 0.000000
1.927083 2.427083 0.000000
1.937500 2.437500 0.000000
1.947917 2.447917 0.000000
1.958333 2.458333 0.000000
1.968750 2.468750 0.000000
1.979167 2.479167 0.000000
1.989583 2.489583 0.000000
0.206561 0.791563 0.000000
0.205359 0.816165 0.000000
0.186354 0.798211 0.000000
0.221961 0.800924 0.000000
0.280649 1.360489 0.000000
0.304015 1.400469 0.000000
0.229142 1.396096 0.000000
0.275922 1.451476 0.000000
1.869084 2.391788 0.000000
1.857928 2.378421 0.000000
1.238669 2.061899 0.000000
1.278787 2.082276 0.000000
1.238298 2.096047 0.000000
1.277579 2.032995 0.000000
0.402536 1.205823 0.000000
0.415290 1.176040 0.000000
0.428330 1.201952 0.000000
0.387294 1.172617 0.000000
0.146930 1.050586 0.000000
0.109488 1.087198 0.000000
0.102742 1.042403 0.000000
0.157178 1.091184 0.000000
0.588967 1.178581 0.000000
0.593116 1.153718 0.000000
0.608054 1.166752 0.000000
0.612180 1.145944 0.000000
0.860304 1.543784 0.000000
0.868821 1.521840 0.000000
0.878420 1.536650 0.000000
0.845380 1.517623 0.000000
1.129525 1.764330 0.000000
1.142005 1.751560 0.000000
1.145757 1.773681 0.000000
1.159368 1.759106 0.000000
1.968150 2.518865 0.000000
1.986105 2.509269 0.000000
1.986696 2.531115 0.000000
0.668964 1.191005 0.000000
0.683291 1.201259 0.000000
0.557625 1.074830 0.000000
0.569760 1.084377 0.000000
0.557769 1.089278 0.000000
0.707567 1.266174 0.000000
0.719026 1.281845 0.000000
0.700768 1.282275 0.000000
0.722329 1.266956 0.000000
0.468225 2.149688 0.000000
0.419106 2.064198 0.000000
0.523878 2.082648 0.000000
0.838546 1.421191 0.000000
0.823708 1.410355 0.000000
0.840477 1.404206 0.000000
0.818500 1.425973 0.000000
0.953187 1.488222 0.000000
0.959780 1.473222 0.000000
0.967054 1.485637 0.000000
1.047418 1.769126 0.000000
1.080240 1.782403 0.000000
1.047768 1.802712 0.000000
0.971392 1.693320 0.000000
0.949208 1.720793 0.000000
0.940644 1.684781 0.000000
0.381391 2.160909 0.000000
0.944091 1.477800 0.000000
0.530075 1.477351 0.000000
0.521303 1.516669 0.000000
0.474240 1.491166 0.000000
0.489489 1.546185 0.000000
1.537370 2.239326 0.000000
1.555275 2.267640 0.000000
1.532966 2.278201 0.000000
0.962010 1.661716 0.000000
0.986804 1.643200 0.000000
0.986259 1.672729 0.000000
1.049149 1.737940 0.000000
1.075111 1.737123 0.000000
[...]
POINT_DATA 3011
SCALARS UX float 1
LOOKUP_TABLE default
-0.040515
0.046943
0.000000
-0.000000
-0.042369
0.024814
0.045119
-0.028086
-0.015632
-0.003161
0.009331
0.021849
0.034386
0.046961
0.047008
0.047086
0.047180
0.047287
0.047401
0.047510
0.047593
0.047621
0.047583
0.047451
0.047256
0.047008
0.046756
0.046508
0.046280
0.046081
0.045908
0.045761
0.045635
0.045528
0.045435
0.045354
0.045283
0.045221
0.045167
0.045069
0.045007
0.044934
0.044842
0.044735
0.044591
0.044405
0.044160
0.043792
0.043260
0.042446
0.041071
0.038642
0.034025
0.025178
-0.000000
0.000000
0.000000
-0.000000
-0.000000
0.000000
-0.025032
-0.035471
-0.039992
-0.042211
-0.043207
-0.043594
-0.043692
-0.043698
-0.043673
-0.043646
-0.043632
-0.043637
-0.043651
-0.043673
-0.043701
-0.043730
-0.043760
-0.043790
-0.043821
-0.043851
-0.043882
-0.043912
-0.043941
-0.043967
-0.043991
-0.044011
-0.044028
-0.044042
-0.044053
-0.044068
-0.044087
-0.044102
-0.044087
-0.044022
-0.044126
-0.043931
-0.040581
-0.040516
-0.040458
-0.040473
-0.040484
-0.040497
-0.040508
-0.041750
-0.041341
-0.040805
-0.040462
-0.040141
-0.039524
-0.039091
-0.038591
-0.038144
-0.037615
-0.037140
-0.036963
-0.036371
-0.035763
-0.035146
-0.034773
-0.034479
-0.034049
-0.033411
-0.033056
-0.032314
-0.032106
-0.031523
-0.031138
-0.030654
-0.030099
-0.029826
-0.029201
-0.029053
-0.028409
-0.028090
-0.027370
-0.026932
-0.026489
-0.026040
-0.025554
-0.025043
-0.024717
-0.024223
-0.023666
-0.023280
-0.022671
-0.022047
-0.022050
-0.021558
-0.020808
-0.020499
-0.019917
-0.019594
-0.019114
-0.018484
-0.017979
-0.017432
-0.017070
-0.016648
-0.016276
-0.015801
-0.015334
-0.014674
-0.014386
-0.014072
-0.013430
-0.012897
-0.012384
-0.011971
-0.011506
-0.011310
-0.010706
-0.009975
-0.009585
-0.008958
-0.008751
-0.008093
-0.007811
-0.007471
-0.007031
-0.006400
-0.006053
-0.005576
-0.005084
-0.004713
-0.004138
-0.003749
-0.003320
-0.002585
-0.002152
-0.001876
-0.001230
-0.000564
-0.000427
0.000026
0.000423
0.000976
0.001424
0.001892
0.002463
0.002884
0.003383
0.003740
0.004296
0.004666
0.005243
0.005950
0.006017
0.006764
0.007271
0.007857
0.008081
0.008503
0.009157
0.009601
0.010106
0.010385
0.010973
0.011498
0.011864
0.012530
0.013010
0.013216
0.013846
0.014494
0.014594
0.015443
0.015771
0.016176
0.016784
0.017231
0.017749
0.018242
0.018572
0.019129
0.019452
0.020118
0.020486
0.021083
0.021538
0.022123
0.022562
0.023109
0.023588
0.024032
0.025334
0.025442
0.025849
0.026243
0.026670
0.027100
0.027527
0.027960
0.028400
0.028836
0.029274
0.029712
0.030151
0.030589
0.031026
0.031463
0.031901
0.032336
0.032772
0.033206
0.033641
0.034074
0.034507
0.034939
0.035371
0.035801
0.036232
0.036661
0.037089
0.037517
0.037944
0.038371
0.038796
0.039222
0.039646
0.040071
0.040494
0.040918
0.041341
0.041763
0.042184
0.042605
0.043026
0.043445
0.043865
0.044283
0.044701
-0.035005
-0.035055
-0.035880
-0.034344
-0.031484
-0.030450
-0.033716
-0.031657
0.039760
0.039312
0.011720
0.013613
0.011754
0.013450
-0.026241
-0.025699
-0.025118
-0.026921
-0.037444
-0.039058
-0.039375
-0.036978
-0.018124
-0.017936
-0.017308
-0.017090
-0.006046
-0.005690
-0.005260
-0.006717
0.006049
0.006558
0.006787
0.007342
0.043690
0.044492
0.044452
-0.014761
-0.013922
-0.019534
-0.018737
-0.019527
-0.012876
-0.012380
-0.013173
-0.012229
-0.023254
-0.025387
-0.020744
-0.007078
-0.007736
-0.007017
-0.007949
-0.002016
-0.001559
-0.001370
0.002453
0.003928
0.002535
-0.001010
-0.001950
-0.002374
-0.027106
-0.002388
-0.020546
-0.020913
-0.022982
-0.022294
0.025271
0.026037
0.025016
-0.001463
-0.000396
-0.000384
0.002469
0.003605
0.003390
0.026680
0.003237
0.006640
0.007086
0.007348
0.006346
0.017906
0.019570
0.019277
0.022088
0.020605
0.020547
-0.018014
-0.018285
-0.016718
-0.023761
-0.021004
-0.022715
-0.016974
-0.020400
-0.030674
-0.029315
-0.030804
-0.029607
0.002066
-0.000200
0.002089
-0.001720
-0.026167
-0.025614
-0.023134
0.024687
0.025471
0.024176
-0.029011
-0.034687
-0.037129
-0.036307
-0.015433
-0.014209
-0.013924
-0.012870
-0.038952
-0.036243
-0.034274
-0.039112
0.037424
0.038187
0.038649
-0.001452
-0.000097
0.001146
-0.025207
-0.023985
0.003004
-0.010569
-0.010399
-0.012098
-0.009225
0.023743
0.023568
0.022648
-0.007199
-0.006885
-0.008209
0.024625
-0.036876
-0.036596
-0.036336
-0.020138
-0.019771
-0.018873
-0.041532
-0.041427
-0.018993
-0.007449
-0.007284
-0.005390
-0.041502
-0.005014
0.002440
0.004154
-0.036260
-0.035521
-0.034603
-0.018896
-0.019004
-0.018314
-0.019512
-0.019411
0.027607
0.028223
0.027646
0.009342
0.008209
0.007934
0.006151
0.007192
0.005756
0.001810
0.001851
0.001211
0.005216
-0.025513
-0.026046
-0.026336
-0.007028
-0.007883
-0.007632
-0.003516
-0.007013
-0.039343
-0.038258
-0.039955
-0.018641
-0.019511
0.037324
0.000916
0.035833
0.035544
0.034935
-0.008158
-0.007250
-0.012640
-0.013179
0.031867
0.032467
0.030394
-0.013682
-0.014797
-0.014030
0.014114
0.013651
0.015606
0.011862
0.036347
0.036848
0.025749
0.010632
0.009019
0.009470
0.001836
0.002477
0.002671
0.021962
0.024968
0.017603
0.020219
0.022804
0.023831
0.022908
-0.017739
-0.018958
-0.019273
-0.020274
-0.020090
0.002601
0.034397
0.033177
0.034349
0.025824
0.023888
0.025426
0.024386
0.025265
0.026704
0.026345
0.032676
0.032536
-0.003549
-0.002752
-0.002583
-0.003660
-0.006521
-0.005880
-0.006138
-0.005463
0.015824
0.014846
0.016098
0.015076
0.015597
0.014732
0.023688
0.024613
0.023973
0.034036
0.033517
-0.010445
-0.010334
-0.011398
-0.009936
-0.010068
-0.008873
-0.008799
-0.011178
-0.011394
-0.010590
-0.004130
-0.004858
-0.004381
-0.004779
0.010360
0.010532
0.011218
0.009631
-0.003370
-0.009638
-0.009492
-0.009806
-0.009356
-0.008509
-0.010132
0.030221
0.029460
0.029306
0.028572
0.007019
0.007709
-0.004436
-0.004361
-0.003269
0.005560
0.005694
0.004928
0.005179
0.004404
0.004919
0.004906
-0.000119
-0.000556
0.000323
-0.001087
0.020576
0.020979
-0.011556
-0.010794
-0.011524
0.003488
0.003574
0.002894
0.018478
0.016609
0.015768
0.004229
0.001997
0.002620
0.001651
0.023546
0.023639
0.020184
0.021097
0.020149
0.021143
0.013625
0.013947
0.012891
0.013433
-0.040317
-0.041056
-0.042239
-0.038173
-0.025498
-0.024779
-0.024856
-0.015254
-0.012939
-0.023307
0.024495
-0.026208
-0.026519
-0.027677
-0.027862
0.005565
0.007518
0.007967
0.009799
-0.014490
-0.012015
-0.011589
-0.009832
0.031738
0.032333
0.032448
0.032923
0.024650
0.023046
-0.037709
-0.040401
-0.040974
-0.039344
-0.040286
-0.039589
-0.040052
-0.037577
-0.036545
0.002190
0.001021
0.001457
0.016846
0.015198
-0.022558
-0.022230
-0.023577
-0.023068
-0.024419
-0.005504
-0.005065
-0.006696
-0.006356
-0.026981
-0.027724
-0.027993
-0.027115
-0.011019
-0.008786
-0.035864
-0.035305
-0.034416
-0.034933
-0.036267
-0.039909
-0.040787
-0.040123
-0.039618
-0.039278
-0.034356
-0.033519
-0.033272
-0.034040
-0.032954
-0.008464
-0.007340
-0.007737
0.007393
-0.007745
-0.013873
-0.007114
-0.016773
-0.023886
0.041130
0.040361
0.041998
0.039323
0.037937
0.039059
-0.030814
-0.031265
-0.032021
-0.034879
-0.031714
-0.032060
-0.036079
0.035854
0.038901
0.038526
0.035994
0.001348
0.001227
-0.025001
-0.024038
-0.024889
-0.023713
-0.035965
-0.036518
-0.042760
-0.042168
-0.041800
-0.042510
0.039845
0.039706
0.038524
0.039267
-0.028092
-0.027050
0.013338
0.014909
0.012776
0.010255
0.015546
0.012228
0.007281
0.007757
0.001029
-0.012564
-0.012720
-0.011299
-0.042252
-0.042206
-0.043102
-0.041460
0.042955
0.024300
-0.032519
-0.032778
-0.034027
-0.043502
-0.043345
-0.033664
0.035955
0.035510
0.036479
-0.036203
-0.035569
-0.036512
-0.039839
-0.035561
-0.034980
0.042148
0.043090
0.042483
0.042728
0.043244
0.010006
0.011667
-0.033736
-0.033584
-0.032484
0.043512
0.017748
0.018822
0.020026
-0.024804
-0.023054
-0.022220
-0.024146
-0.021464
-0.020723
-0.015536
-0.014490
-0.039859
-0.040017
-0.042357
-0.041205
-0.040785
-0.039996
-0.023825
0.025557
-0.024565
-0.041413
-0.042287
-0.041543
-0.040952
0.043082
0.041596
-0.037918
-0.038912
-0.038544
0.043721
-0.042014
0.036869
0.038151
0.036857
-0.032471
-0.033317
-0.032150
-0.008807
-0.005179
-0.005018
-0.001733
-0.001190
-0.036891
-0.036150
-0.037414
-0.038044
0.016787
0.014681
-0.031507
-0.031121
-0.032260
-0.031434
-0.022200
-0.022232
-0.023855
-0.022423
-0.024178
-0.026957
-0.024627
-0.024843
-0.027359
-0.042096
-0.042813
0.036200
0.037132
-0.027685
-0.026948
-0.028861
-0.029308
-0.030932
0.024663
0.024936
0.024205
-0.018552
-0.019425
-0.026766
-0.028061
-0.018255
-0.016943
0.007434
0.004462
0.004616
0.006587
-0.041047
-0.030515
-0.030236
-0.030713
-0.029598
0.006443
0.037179
0.036805
0.036109
0.035824
-0.006289
-0.006204
-0.003440
-0.003496
-0.001202
-0.000776
0.034619
0.035428
0.043565
0.041970
-0.001350
0.000696
0.038382
0.039862
-0.040363
-0.025738
-0.028355
-0.031885
-0.032089
-0.031246
-0.032425
-0.032635
0.014438
-0.040137
-0.043185
0.015501
0.005156
0.003524
0.042153
0.042082
0.042458
-0.042566
-0.036571
-0.037703
-0.040775
0.004861
0.003694
0.002767
0.004113
0.035251
-0.035756
-0.035187
-0.033933
-0.033252
0.013317
0.012480
0.011033
0.012148
0.037852
-0.042419
-0.042978
-0.041794
-0.032991
-0.039853
-0.028715
-0.032608
-0.026690
-0.029093
-0.036116
-0.040633
-0.040980
0.007132
0.007560
0.003166
0.011474
-0.008097
-0.011915
0.000822
-0.040221
-0.012735
-0.038916
0.000981
-0.007096
-0.005596
-0.037907
-0.038821
-0.038051
-0.040812
-0.039258
-0.012506
-0.004527
-0.006874
-0.009765
-0.037476
-0.000429
-0.000902
-0.001318
-0.013570
-0.014266
-0.011746
-0.032447
-0.032597
-0.034295
-0.028565
-0.028114
-0.028917
-0.029401
-0.013329
-0.011535
-0.011447
-0.009517
-0.009521
0.009307
0.007114
0.000758
-0.002697
-0.003721
-0.002762
-0.001926
0.010467
0.007047
0.004137
0.003948
0.001236
-0.035864
-0.030280
-0.028237
-0.024094
-0.038236
-0.037981
-0.038725
-0.025675
0.044021
-0.030564
-0.031271
-0.032802
-0.031923
-0.020396
-0.023469
-0.018100
-0.016615
-0.015029
-0.041512
-0.030062
-0.029673
-0.039548
0.030746
0.030774
-0.003362
-0.033138
0.031392
0.040996
-0.030631
-0.034739
-0.031125
0.008759
-0.035872
-0.037817
-0.039701
-0.042465
-0.040927
0.037424
-0.036738
0.003604
0.000453
0.005686
-0.038971
-0.040539
0.040170
-0.030307
-0.030165
-0.030876
-0.038599
0.033522
0.031442
0.033459
0.038450
0.038386
0.039017
-0.037663
-0.036109
-0.035867
-0.036671
-0.038941
0.028199
0.021905
0.021615
0.016077
-0.028921
-0.029053
-0.013863
-0.013271
-0.024832
-0.020995
0.025394
-0.009975
-0.041852
-0.020951
-0.021781
-0.021110
0.001465
-0.018213
-0.017039
-0.017227
-0.037046
-0.031978
-0.028697
-0.028500
-0.025288
-0.035633
-0.015252
-0.016833
-0.016573
0.032630
0.037804
0.035135
0.003442
-0.026072
-0.026129
-0.024697
-0.039225
-0.036547
-0.037050
-0.038626
-0.020235
0.010289
-0.029386
-0.033964
-0.020028
-0.018424
-0.039283
-0.035260
-0.016199
-0.016088
-0.023259
0.006178
0.041473
0.040850
-0.037567
-0.026971
-0.010635
-0.040507
-0.033487
-0.031171
-0.034237
0.013458
-0.041767
0.011971
0.012201
0.011339
-0.015777
-0.010014
-0.038986
-0.017457
-0.025041
-0.026901
-0.028023
0.037712
-0.005497
-0.006387
-0.004955
-0.031115
-0.031485
-0.018506
-0.025948
-0.025666
-0.024894
-0.038538
-0.039308
-0.026638
-0.034973
0.032712
0.033218
-0.023116
-0.023408
-0.024104
0.031777
-0.008468
-0.007976
0.034843
0.035337
0.011589
-0.001769
-0.004775
-0.035424
-0.036557
0.002209
0.003456
0.009902
0.010943
-0.021366
-0.024879
-0.030797
-0.029819
-0.030217
0.027447
0.027197
0.002908
0.005597
-0.026571
-0.037790
-0.035227
-0.020429
-0.020804
-0.019548
-0.033882
-0.039687
-0.032561
-0.012034
-0.013922
-0.030761
-0.031575
-0.031420
0.037040
-0.016081
-0.015402
-0.017640
-0.037654
-0.037124
-0.028885
-0.027777
-0.021210
-0.017750
0.000952
-0.005005
0.014215
0.038991
-0.039281
-0.019379
-0.017893
-0.023636
-0.027746
-0.029297
-0.018085
-0.019206
-0.019499
0.031286
-0.009687
-0.014995
-0.016319
-0.003306
-0.009573
-0.022501
-0.022670
-0.021941
0.008805
0.009331
0.011279
0.000964
-0.015506
-0.028779
-0.029199
-0.029923
-0.030124
0.013300
0.014014
0.013540
-0.018957
-0.016936
-0.039983
-0.018772
-0.019489
-0.018404
-0.020019
0.007134
0.041623
0.041283
0.005024
0.012686
0.003500
0.008681
-0.034265
-0.034049
-0.033658
-0.029141
-0.028484
-0.028507
-0.019593
0.028673
0.027033
-0.007897
0.000331
-0.000720
-0.029798
-0.001617
-0.029613
-0.028985
-0.035020
-0.034970
-0.034408
-0.022453
-0.001919
-0.000740
-0.002142
-0.000152
0.041037
-0.033142
-0.033728
0.029365
-0.032475
-0.032772
0.035917
0.034412
0.033734
0.031816
0.032420
0.029472
0.032045
-0.037325
-0.036741
-0.037418
-0.026327
-0.028799
-0.029784
-0.004324
-0.006817
-0.022445
-0.034615
-0.027087
-0.022320
-0.016660
-0.035557
-0.035457
0.006738
-0.021344
-0.021319
-0.029938
-0.037608
0.040745
-0.010192
-0.035359
-0.038570
-0.032649
-0.008952
-0.011595
0.001292
-0.008091
-0.009971
-0.011148
-0.013528
-0.017044
-0.002340
-0.005357
-0.000333
-0.004965
0.001756
-0.025324
-0.032248
0.029309
0.029865
-0.028980
-0.022699
-0.014007
-0.015380
-0.016731
0.030801
0.026628
-0.003774
-0.004993
-0.005016
-0.004049
0.008893
0.009536
-0.027744
-0.028069
-0.027476
-0.034523
-0.003851
0.001884
-0.024684
0.023197
0.024955
-0.026312
-0.018030
-0.014911
-0.016787
0.041400
0.031552
0.033839
0.033926
-0.029006
-0.030286
0.040959
-0.021413
-0.013139
-0.022280
0.022376
-0.025657
-0.026008
-0.025122
-0.026510
-0.028974
-0.017426
-0.027059
0.020340
0.018610
0.017806
0.022145
0.022899
0.022324
0.021164
0.022085
0.010440
0.029442
0.028610
-0.027195
0.014254
0.011212
-0.021813
-0.021739
-0.021223
0.031208
0.029007
-0.013707
-0.021459
-0.016263
-0.025607
-0.023377
-0.011770
-0.011528
-0.012730
0.040914
0.040589
-0.017646
-0.012059
-0.020794
0.016097
0.028143
0.029389
0.030300
0.022148
0.022227
0.027797
-0.028880
-0.033549
-0.032922
-0.004114
-0.006280
-0.011989
-0.043400
-0.010832
0.019744
0.014690
0.016133
0.017578
-0.020199
-0.020624
-0.020058
-0.020984
0.020755
-0.023997
-0.024348
-0.023537
-0.012935
0.019647
0.020035
-0.043508
0.030999
0.030974
-0.027639
-0.002450
-0.043281
0.030137
-0.002987
0.018202
-0.021223
0.031009
-0.031708
0.020914
-0.020461
-0.018446
-0.009973
-0.012553
-0.030770
0.034307
0.035192
0.029952
0.038919
0.008577
0.009247
0.009194
-0.010704
-0.023152
-0.009981
-0.007918
0.008578
0.009820
-0.023297
0.009963
-0.015744
-0.016694
-0.016035
-0.014977
-0.015702
-0.015064
-0.014611
-0.014066
-0.013671
-0.033225
0.006049
-0.010298
0.040919
0.009732
0.010571
-0.020273
0.008689
-0.000932
-0.000849
-0.028888
-0.028597
-0.029141
0.002152
0.002956
0.001283
0.026271
0.026708
0.023496
0.024455
0.026098
0.027065
0.026817
0.026745
-0.029099
-0.041847
0.003737
0.003827
0.003019
0.006054
-0.018725
0.011474
0.012470
0.012512
-0.001441
-0.000169
-0.014038
-0.013464
0.013366
0.012733
0.013751
-0.001549
-0.002148
0.005240
0.000342
0.000698
-0.027140
-0.026593
0.032058
0.033053
-0.001476
-0.000507
-0.000602
0.032547
0.031524
0.027771
0.026684
-0.027720
0.016554
0.027758
-0.013640
-0.012926
-0.012710
0.019161
0.020129
0.018989
-0.015690
-0.025163
0.020115
-0.023200
-0.023269
-0.024013
0.021300
0.018807
-0.002095
-0.002707
-0.011005
-0.010311
-0.010899
0.022075
0.022061
0.021231
-0.003297
-0.002656
-0.011716
-0.003529
-0.010438
-0.009493
-0.009035
0.025628
0.024773
-0.033648
-0.034208
-0.008081
-0.007528
-0.006973
-0.007693
-0.006988
-0.040714
-0.003191
-0.020324
-0.020807
-0.020063
0.023785
-0.017814
-0.021462
-0.021809
-0.022256
0.014258
-0.008179
-0.031915
0.013934
0.026027
0.025341
0.016660
0.017235
0.017614
0.018263
0.005812
0.006068
0.006491
0.005372
0.005704
0.016117
0.030852
0.030080
-0.009636
-0.009241
-0.009156
-0.013448
-0.012488
-0.005249
-0.004622
-0.005275
0.007080
-0.016734
0.007551
0.007883
0.008327
0.007097
0.031515
0.004068
0.004384
0.029268
0.029199
0.030118
0.028276
0.012575
0.022315
-0.012737
-0.012163
0.012963
0.014602
0.014375
0.001202
0.000791
-0.015868
-0.016351
-0.016742
-0.015620
-0.015168
-0.003855
-0.003359
-0.004068
0.011747
0.012003
0.010885
0.011904
0.012551
0.027425
0.027147
0.023288
0.021347
0.018196
0.018534
0.019243
0.019078
0.019831
0.019276
-0.020300
0.025644
0.026395
0.026682
0.028926
0.028138
0.031857
0.032146
-0.004621
-0.016311
-0.016215
0.032807
0.033757
-0.025838
0.033192
0.026924
0.028940
0.020444
0.034374
-0.042936
-0.043106
-0.042989
-0.043161
-0.041202
0.006692
-0.009044
0.000279
-0.016223
-0.015999
-0.016598
-0.041780
-0.013622
0.020076
0.021689
0.014751
0.011438
0.017443
0.017516
0.016751
-0.016391
0.016988
0.000040
0.000375
0.000863
-0.016374
0.030708
0.000960
0.017712
0.017186
0.034605
0.035380
0.026439
0.026948
0.027685
0.028454
0.028453
0.004708
0.005339
-0.033893
0.015576
0.027193
0.027845
0.028406
-0.002925
-0.002495
-0.002191
-0.014475
-0.014059
-0.010240
-0.011064
-0.005288
-0.006119
0.007852
0.006880
0.006575
0.021154
-0.015787
-0.015173
-0.016985
0.033492
0.032678
0.017711
0.013873
0.012626
0.008616
-0.012083
-0.013640
-0.015332
0.034801
0.011576
0.010445
0.010416
0.034098
0.034284
0.033501
-0.027565
0.018909
-0.025868
-0.008114
-0.008375
-0.008906
-0.028078
0.009067
-0.020194
-0.038610
-0.015196
0.005959
0.005762
-0.003475
-0.001714
0.008523
-0.008798
-0.008444
-0.007760
0.008052
0.018716
-0.015450
-0.011586
-0.012155
-0.008063
-0.008808
0.009372
-0.008513
-0.037133
-0.037266
0.022796
0.007795
-0.022598
0.001692
0.001501
0.015900
0.004270
0.031649
0.027903
0.028751
-0.024373
0.007912
-0.014594
0.012999
-0.034848
-0.013245
-0.014623
0.011247
0.011912
0.011125
0.003739
0.004307
0.016903
0.015650
-0.030949
-0.030897
0.000952
-0.002320
0.014523
0.003894
0.001411
-0.009527
0.028937
-0.008701
0.029464
0.029213
0.000929
-0.017667
-0.017109
0.031537
0.030447
0.016263
0.016136
-0.000904
0.025533
0.026498
0.025982
0.017871
0.018612
0.033866
0.034246
0.013157
0.021373
0.022635
0.015402
-0.035800
0.027176
0.018847
0.015370
-0.017341
0.009309
0.020327
-0.024876
-0.020528
0.022036
0.003795
0.028644
0.030299
-0.015568
0.000403
-0.037438
-0.023935
-0.003910
-0.004572
-0.005307
-0.007306
-0.026525
-0.015000
-0.009697
-0.003553
0.017865
0.008964
0.009296
0.010165
0.005241
0.028670
-0.005591
0.023485
0.022142
0.021728
-0.022462
-0.013343
-0.003945
0.000024
0.000425
0.031870
0.023763
-0.021860
0.011170
0.010600
-0.003374
0.017045
0.034957
0.021146
0.023854
0.023604
-0.017031
0.023047
-0.006675
0.016743
0.034364
0.012630
-0.006393
-0.005929
-0.005491
-0.007040
-0.006705
-0.006089
-0.006080
0.004498
0.004240
0.011225
-0.001764
0.014472
0.014896
0.015408
-0.004977
0.003237
0.018493
0.024854
0.007609
-0.005777
0.008054
0.010340
0.010577
0.018130
-0.005816
0.003292
0.002568
0.019994
0.009701
0.020032
-0.006339
0.002695
0.000143
0.033641
0.025343
0.011520
0.015977
0.016245
0.027180
0.008020
0.014260
0.017469
-0.020874
-0.011963
0.022093
0.014369
0.026073
0.030112
0.030705
-0.006194
-0.002937
0.010099
-0.024649
-0.024058
-0.023403
-0.024137
-0.023436
-0.023423
-0.010275
-0.010805
-0.010221
0.040806
0.038840
0.038851
0.022482
0.021576
0.022486
0.037159
0.041513
0.002533
0.001944
-0.004753
0.026624
0.033541
0.032768
-0.012203
-0.013472
-0.012497
0.042315
0.041208
0.043086
0.040928
-0.012727
-0.024219
-0.022843
-0.013804
-0.013798
-0.012869
-0.011514
-0.010797
-0.013973
-0.014966
0.019377
0.018219
0.018386
0.018689
-0.012856
-0.008055
-0.015019
-0.016368
-0.015265
-0.005384
-0.001361
0.016905
0.014516
0.016100
0.014854
-0.019466
-0.018552
-0.019660
0.009642
0.010201
0.009583
-0.000857
-0.001635
-0.001285
-0.002315
0.042793
0.041979
-0.018885
-0.015833
-0.012327
-0.027705
-0.025151
-0.025160
-0.005996
-0.004917
-0.005077
-0.022328
-0.017387
-0.015854
-0.015606
-0.003753
0.014945
0.016613
0.017033
0.013245
0.029158
0.029300
0.032942
0.025635
-0.000203
0.003414
0.002821
0.020898
0.021734
0.022417
0.023493
-0.009971
-0.015263
-0.012003
-0.034899
-0.036520
-0.004516
-0.005035
-0.004014
-0.005189
0.030116
0.031007
0.030299
0.031440
0.008848
0.008267
0.010841
0.006989
0.020814
0.021308
0.020477
0.021703
0.028322
0.028521
0.029337
0.027667
-0.010922
-0.010053
-0.023044
-0.023494
-0.029256
-0.028644
-0.029759
-0.020569
-0.021660
-0.021223
0.022825
0.022414
-0.008803
-0.008528
-0.009361
-0.009060
-0.026399
-0.013814
-0.014594
-0.013818
-0.014596
-0.026708
-0.026457
-0.025832
-0.025227
-0.019977
-0.020660
-0.020854