# vtk DataFile Version 2.0
Test
ASCII
DATASET POLYDATA
POINTS 3011 float
0.000000 0.000000 0.000000
2.000000 0.000000 0.000000
2.000000 4.000000 0.000000
0.000000 4.000000 0.000000
0.000000 0.500000 0.000000
1.500000 2.000000 0.000000
2.000000 2.500000 0.000000
0.285714 0.000000 0.000000
0.571429 0.000000 0.000000
0.857143 0.000000 0.000000
1.142857 0.000000 0.000000
1.428571 0.000000 0.000000
1.714286 0.000000 0.000000
2.000000 0.276366 0.000000
2.000000 0.523709 0.000000
2.000000 0.745076 0.000000
2.000000 0.943195 0.000000
2.000000 1.120508 0.000000
2.000000 1.279199 0.000000
2.000000 1.421225 0.000000
2.000000 1.548336 0.000000
2.000000 1.662097 0.000000
2.000000 1.763911 0.000000
2.000000 1.855033 0.000000
2.000000 1.936585 0.000000
2.000000 2.009573 0.000000
2.000000 2.074896 0.000000
2.000000 2.133358 0.000000
2.000000 2.185681 0.000000
2.000000 2.232509 0.000000
2.000000 2.274419 0.000000
2.000000 2.311927 0.000000
2.000000 2.345497 0.000000
2.000000 2.375541 0.000000
2.000000 2.402430 0.000000
2.000000 2.426495 0.000000
2.000000 2.448033 0.000000
2.000000 2.467309 0.000000
2.000000 2.484560 0.000000
2.000000 2.516256 0.000000
2.000000 2.535859 0.000000
2.000000 2.559499 0.000000
2.000000 2.588006 0.000000
2.000000 2.622383 0.000000
2.000000 2.663839 0.000000
2.000000 2.713831 0.000000
2.000000 2.774116 0.000000
2.000000 2.846815 0.000000
2.000000 2.934483 0.000000
2.000000 3.040202 0.000000
2.000000 3.167691 0.000000
2.000000 3.321430 0.000000
2.000000 3.506825 0.000000
2.000000 3.730395 0.000000
1.714286 4.000000 0.000000
1.428571 4.000000 0.000000
1.142857 4.000000 0.000000
0.857143 4.000000 0.000000
0.571429 4.000000 0.000000
0.285714 4.000000 0.000000
0.000000 3.713462 0.000000
0.000000 3.449209 0.000000
0.000000 3.205508 0.000000
0.000000 2.980761 0.000000
0.000000 2.773493 0.000000
0.000000 2.582346 0.000000
0.000000 2.406065 0.000000
0.000000 2.243495 0.000000
0.000000 2.093568 0.000000
0.000000 1.955302 0.000000
0.000000 1.827789 0.000000
0.000000 1.710194 0.000000
0.000000 1.601745 0.000000
0.000000 1.501730 0.000000
0.000000 1.409494 0.000000
0.000000 1.324431 0.000000
0.000000 1.245984 0.000000
0.000000 1.173639 0.000000
0.000000 1.106920 0.000000
0.000000 1.045390 0.000000
0.000000 0.988645 0.000000
0.000000 0.936314 0.000000
0.000000 0.888053 0.000000
0.000000 0.843545 0.000000
0.000000 0.802499 0.000000
0.000000 0.764646 0.000000
0.000000 0.729736 0.000000
0.000000 0.697541 0.000000
0.000000 0.667851 0.000000
0.000000 0.640469 0.000000
0.000000 0.615217 0.000000
0.000000 0.591929 0.000000
0.000000 0.570453 0.000000
0.000000 0.550646 0.000000
0.000000 0.532380 0.000000
0.000000 0.515535 0.000000
0.000000 0.483768 0.000000
0.000000 0.461535 0.000000
0.000000 0.431083 0.000000
0.000000 0.389372 0.000000
0.000000 0.332241 0.000000
0.000000 0.253989 0.000000
0.000000 0.146807 0.000000
0.010563 0.510563 0.000000
0.021127 0.521127 0.000000
0.031690 0.531690 0.000000
0.042254 0.542254 0.000000
0.052817 0.552817 0.000000
0.063380 0.563380 0.000000
0.073944 0.573944 0.000000
0.084507 0.584507 0.000000
0.095070 0.595070 0.000000
0.105634 0.605634 0.000000
0.116197 0.616197 0.000000
0.126761 0.626761 0.000000
0.137324 0.637324 0.000000
0.147887 0.647887 0.000000
0.158451 0.658451 0.000000
0.169014 0.669014 0.000000
0.179577 0.679577 0.000000
0.190141 0.690141 0.000000
0.200704 0.700704 0.000000
0.211268 0.711268 0.000000
0.221831 0.721831 0.000000
0.232394 0.732394 0.000000
0.242958 0.742958 0.000000
0.253521 0.753521 0.000000
0.264085 0.764085 0.000000
0.274648 0.774648 0.000000
0.285211 0.785211 0.000000
0.295775 0.795775 0.000000
0.306338 0.806338 0.000000
0.316901 0.816901 0.000000
0.327465 0.827465 0.000000
0.338028 0.838028 0.000000
0.348592 0.848592 0.000000
0.359155 0.859155 0.000000
0.369718 0.869718 0.000000
0.380282 0.880282 0.000000
0.390845 0.890845 0.000000
0.401408 0.901408 0.000000
0.411972 0.911972 0.000000
0.422535 0.922535 0.000000
0.433099 0.933099 0.000000
0.443662 0.943662 0.000000
0.454225 0.954225 0.000000
0.464789 0.964789 0.000000
0.475352 0.975352 0.000000
0.485915 0.985915 0.000000
0.496479 0.996479 0.000000
0.507042 1.007042 0.000000
0.517606 1.017606 0.000000
0.528169 1.028169 0.000000
0.538732 1.038732 0.000000
0.549296 1.049296 0.000000
0.559859 1.059859 0.000000
0.570423 1.070423 0.000000
0.580986 1.080986 0.000000
0.591549 1.091549 0.000000
0.602113 1.102113 0.000000
0.612676 1.112676 0.000000
0.623239 1.123239 0.000000
0.633803 1.133803 0.000000
0.644366 1.144366 0.000000
0.654930 1.154930 0.000000
0.665493 1.165493 0.000000
0.676056 1.176056 0.000000
0.686620 1.186620 0.000000
0.697183 1.197183 0.000000
0.707746 1.207746 0.000000
0.718310 1.218310 0.000000
0.728873 1.228873 0.000000
0.739437 1.239437 0.000000
0.750000 1.250000 0.000000
0.760563 1.260563 0.000000
0.771127 1.271127 0.000000
0.781690 1.281690 0.000000
0.792254 1.292254 0.000000
0.802817 1.302817 0.000000
0.813380 1.313380 0.000000
0.823944 1.323944 0.000000
0.834507 1.334507 0.000000
0.845070 1.345070 0.000000
0.855634 1.355634 0.000000
0.866197 1.366197 0.000000
0.876761 1.376761 0.000000
0.887324 1.387324 0.000000
0.897887 1.397887 0.000000
0.908451 1.408451 0.000000
0.919014 1.419014 0.000000
0.929577 1.429577 0.000000
0.940141 1.440141 0.000000
0.950704 1.450704 0.000000
0.961268 1.461268 0.000000
0.971831 1.471831 0.000000
0.982394 1.482394 0.000000
0.992958 1.492958 0.000000
1.003521 1.503521 0.000000
1.014085 1.514085 0.000000
1.024648 1.524648 0.000000
1.035211 1.535211 0.000000
1.045775 1.545775 0.000000
1.056338 1.556338 0.000000
1.066901 1.566901 0.000000
1.077465 1.577465 0.000000
1.088028 1.588028 0.000000
1.098592 1.598592 0.000000
1.109155 1.609155 0.000000
1.119718 1.619718 0.000000
1.130282 1.630282 0.000000
1.140845 1.640845 0.000000
1.151408 1.651408 0.000000
1.161972 1.661972 0.000000
1.172535 1.672535 0.000000
1.183099 1.683099 0.000000
1.193662 1.693662 0.000000
1.204225 1.704225 0.000000
1.214789 1.714789 0.000000
1.225352 1.725352 0.000000
1.235915 1.735915 0.000000
1.246479 1.746479 0.000000
1.257042 1.757042 0.000000
1.267606 1.767606 0.000000
1.278169 1.778169 0.000000
1.288732 1.788732 0.000000
1.299296 1.799296 0.000000
1.309859 1.809859 0.000000
1.320423 1.820423 0.000000
1.330986 1.830986 0.000000
1.341549 1.841549 0.000000
1.352113 1.852113 0.000000
1.362676 1.862676 0.000000
1.373239 1.873239 0.000000
1.383803 1.883803 0.000000
1.394366 1.894366 0.000000
1.404930 1.904930 0.000000
1.415493 1.915493 0.000000
1.426056 1.926056 0.000000
1.436620 1.936620 0.000000
1.447183 1.947183 0.000000
1.457746 1.957746 0.000000
1.468310 1.968310 0.000000
1.478873 1.978873 0.000000
1.489437 1.989437 0.000000
1.510417 2.010417 0.000000
1.520833 2.020833 0.000000
1.531250 2.031250 0.000000
1.541667 2.041667 0.000000
1.552083 2.052083 0.000000
1.562500 2.062500 0.000000
1.572917 2.072917 0.000000
1.583333 2.083333 0.000000
1.593750 2.093750 0.000000
1.604167 2.104167 0.000000
1.614583 2.114583 0.000000
1.625000 2.125000 0.000000
1.635417 2.135417 0.000000
1.645833 2.145833 0.000000
1.656250 2.156250 0.000000
1.666667 2.166667 0.000000
1.677083 2.177083 0.000000
1.687500 2.187500 0.000000
1.697917 2.197917 0.000000
1.708333 2.208333 0.000000
1.718750 2.218750 0.000000
1.729167 2.229167 0.000000
1.739583 2.239583 0.000000
1.750000 2.250000 0.000000
1.760417 2.260417 0.000000
1.770833 2.270833 0.000000
1.781250 2.281250 0.000000
1.791667 2.291667 0.000000
1.802083 2.302083 0.000000
1.812500 2.312500 0.000000
1.822917 2.322917 0.000000
1.833333 2.333333 0.000000
1.843750 2.343750 0.000000
1.854167 2.354167 0.000000
1.864583 2.364583 0.000000
1.875000 2.375000 0.000000
1.885417 2.385417 0.000000
1.895833 2.395833 0.000000
1.906250 2.406250 0.000000
1.916667 2.416667 0.000000
1.927083 2.427083 0.000000
1.937500 2.437500 0.000000
1.947917 2.447917 0.000000
1.958333 2.458333 0.000000
1.968750 2.468750 0.000000
1.979167 2.479167 0.000000
1.989583 2.489583 0.000000
0.206561 0.791563 0.000000
0.205359 0.816165 0.000000
0.186354 0.798211 0.000000
0.221961 0.800924 0.000000
0.280649 1.360489 0.000000
0.304015 1.400469 0.000000
0.229142 1.396096 0.000000
0.275922 1.451476 0.000000
1.869084 2.391788 0.000000
1.857928 2.378421 0.000000
1.238669 2.061899 0.000000
1.278787 2.082276 0.000000
1.238298 2.096047 0.000000
1.277579 2.032995 0.000000
0.402536 1.205823 0.000000
0.415290 1.176040 0.000000
0.428330 1.201952 0.000000
0.387294 1.172617 0.000000
0.146930 1.050586 0.000000
0.109488 1.087198 0.000000
0.102742 1.042403 0.000000
0.157178 1.091184 0.000000
0.588967 1.178581 0.000000
0.593116 1.153718 0.000000
0.608054 1.166752 0.000000
0.612180 1.145944 0.000000
0.860304 1.543784 0.000000
0.868821 1.521840 0.000000
0.878420 1.536650 0.000000
0.845380 1.517623 0.000000
1.129525 1.764330 0.000000
1.142005 1.751560 0.000000
1.145757 1.773681 0.000000
1.159368 1.759106 0.000000
1.968150 2.518865 0.000000
1.986105 2.509269 0.000000
1.986696 2.531115 0.000000
0.668964 1.191005 0.000000
0.683291 1.201259 0.000000
0.557625 1.074830 0.000000
0.569760 1.084377 0.000000
0.557769 1.089278 0.000000
0.707567 1.266174 0.000000
0.719026 1.281845 0.000000
0.700768 1.282275 0.000000
0.722329 1.266956 0.000000
0.468225 2.149688 0.000000
0.419106 2.064198 0.000000
0.523878 2.082648 0.000000
0.838546 1.421191 0.000000
0.823708 1.410355 0.000000
0.840477 1.404206 0.000000
0.818500 1.425973 0.000000
0.953187 1.488222 0.000000
0.959780 1.473222 0.000000
0.967054 1.485637 0.000000
1.047418 1.769126 0.000000
1.080240 1.782403 0.000000
1.047768 1.802712 0.000000
0.971392 1.693320 0.000000
0.949208 1.720793 0.000000
0.940644 1.684781 0.000000
0.381391 2.160909 0.000000
0.944091 1.477800 0.000000
0.530075 1.477351 0.000000
0.521303 1.516669 0.000000
0.474240 1.491166 0.000000
0.489489 1.546185 0.000000
1.537370 2.239326 0.000000
1.555275 2.267640 0.000000
1.532966 2.278201 0.000000
0.962010 1.661716 0.000000
0.986804 1.643200 0.000000
0.986259 1.672729 0.000000
1.049149 1.737940 0.000000
1.075111 1.737123 0.000000
[...]
POINT_DATA 3011
SCALARS UX float 1
LOOKUP_TABLE default
-0.056380
0.066130
0.000000
-0.000000
-0.059071
0.035015
0.063434
-0.038982
-0.021545
-0.004080
0.013418
0.030958
0.048527
0.066155
0.066221
0.066332
0.066468
0.066625
0.066793
0.066956
0.067079
0.067120
0.067064
0.066876
0.066603
0.066257
0.065904
0.065550
0.065220
0.064923
0.064663
0.064439
0.064244
0.064077
0.063931
0.063805
0.063693
0.063595
0.063509
0.063354
0.063257
0.063141
0.062995
0.062827
0.062601
0.062309
0.061926
0.061358
0.060544
0.059318
0.057278
0.053745
0.047166
0.034912
-0.000000
0.000000
0.000000
-0.000000
-0.000000
0.000000
-0.034468
-0.049113
-0.055588
-0.058879
-0.060403
-0.061016
-0.061178
-0.061189
-0.061140
-0.061081
-0.061039
-0.061026
-0.061030
-0.061050
-0.061081
-0.061118
-0.061158
-0.061200
-0.061243
-0.061288
-0.061335
-0.061380
-0.061423
-0.061463
-0.061499
-0.061530
-0.061555
-0.061575
-0.061593
-0.061617
-0.061650
-0.061670
-0.061640
-0.061544
-0.061695
-0.061351
-0.056547
-0.056386
-0.056294
-0.056317
-0.056333
-0.056353
-0.056369
-0.058221
-0.057652
-0.056910
-0.056419
-0.055980
-0.055130
-0.054518
-0.053814
-0.053181
-0.052446
-0.051793
-0.051519
-0.050694
-0.049840
-0.048979
-0.048450
-0.048035
-0.047429
-0.046545
-0.046038
-0.045007
-0.044701
-0.043897
-0.043340
-0.042679
-0.041915
-0.041531
-0.040658
-0.040452
-0.039554
-0.039100
-0.038098
-0.037473
-0.036848
-0.036218
-0.035541
-0.034827
-0.034368
-0.033676
-0.032894
-0.032347
-0.031492
-0.030632
-0.030621
-0.029934
-0.028884
-0.028446
-0.027639
-0.027178
-0.026499
-0.025618
-0.024907
-0.024140
-0.023631
-0.023039
-0.022526
-0.021870
-0.021217
-0.020296
-0.019892
-0.019445
-0.018548
-0.017798
-0.017080
-0.016497
-0.015843
-0.015565
-0.014721
-0.013708
-0.013149
-0.012276
-0.011978
-0.011065
-0.010677
-0.010207
-0.009598
-0.008723
-0.008235
-0.007578
-0.006895
-0.006376
-0.005572
-0.005020
-0.004404
-0.003374
-0.002770
-0.002382
-0.001476
-0.000546
-0.000345
0.000277
0.000819
0.001593
0.002219
0.002883
0.003684
0.004274
0.004966
0.005469
0.006252
0.006765
0.007581
0.008569
0.008672
0.009709
0.010434
0.011264
0.011595
0.012178
0.013080
0.013696
0.014401
0.014803
0.015627
0.016362
0.016880
0.017816
0.018486
0.018777
0.019658
0.020562
0.020710
0.021892
0.022361
0.022926
0.023778
0.024407
0.025136
0.025831
0.026294
0.027063
0.027518
0.028441
0.028962
0.029803
0.030449
0.031264
0.031876
0.032637
0.033308
0.033935
0.035751
0.035921
0.036499
0.037055
0.037658
0.038264
0.038865
0.039473
0.040093
0.040707
0.041323
0.041938
0.042555
0.043170
0.043784
0.044398
0.045011
0.045622
0.046232
0.046842
0.047450
0.048057
0.048664
0.049267
0.049871
0.050473
0.051075
0.051674
0.052273
0.052870
0.053465
0.054060
0.054653
0.055246
0.055837
0.056427
0.057017
0.057605
0.058193
0.058780
0.059365
0.059950
0.060533
0.061115
0.061696
0.062276
0.062855
-0.048917
-0.048987
-0.050141
-0.047993
-0.043959
-0.042510
-0.047086
-0.044203
0.055985
0.055362
0.016634
0.019296
0.016685
0.019063
-0.036620
-0.035864
-0.035049
-0.037575
-0.052312
-0.054570
-0.055017
-0.051657
-0.025264
-0.025000
-0.024124
-0.023815
-0.008335
-0.007838
-0.007236
-0.009275
0.008629
0.009337
0.009668
0.010440
0.061425
0.062551
0.062484
-0.020528
-0.019327
-0.027192
-0.026054
-0.027227
-0.017915
-0.017222
-0.018329
-0.017017
-0.032543
-0.035515
-0.029004
-0.009786
-0.010710
-0.009709
-0.011006
-0.002692
-0.001998
-0.001751
0.003593
0.005663
0.003714
-0.001271
-0.002585
-0.003182
-0.037950
-0.003212
-0.028639
-0.029153
-0.032051
-0.031089
0.035671
0.036748
0.035315
-0.001908
-0.000417
-0.000396
0.003609
0.005199
0.004903
0.037648
0.004679
0.009422
0.010080
0.010440
0.009015
0.025337
0.027671
0.027263
0.031204
0.029127
0.029042
-0.025094
-0.025474
-0.023280
-0.033148
-0.029285
-0.031686
-0.023640
-0.028444
-0.042827
-0.040924
-0.043009
-0.041335
0.003059
-0.000132
0.003092
-0.002277
-0.036540
-0.035751
-0.032282
0.034845
0.035948
0.034130
-0.040520
-0.048445
-0.051866
-0.050715
-0.021481
-0.019769
-0.019367
-0.017894
-0.054420
-0.050670
-0.047923
-0.054707
0.052699
0.053776
0.054415
-0.001892
0.000018
0.001765
-0.035172
-0.033463
0.004380
-0.014665
-0.014426
-0.016806
-0.012783
0.033513
0.033271
0.031978
-0.009948
-0.009507
-0.011361
0.034752
-0.051540
-0.051092
-0.050745
-0.028077
-0.027566
-0.026308
-0.058034
-0.057887
-0.026478
-0.010293
-0.010061
-0.007404
-0.057995
-0.006878
0.003586
0.005990
-0.050655
-0.049618
-0.048334
-0.026351
-0.026473
-0.025489
-0.027211
-0.027068
0.038963
0.039835
0.039013
0.013288
0.011698
0.011310
0.008788
0.010252
0.008239
0.002664
0.002725
0.001829
0.007474
-0.035614
-0.036359
-0.036762
-0.009712
-0.010908
-0.010558
-0.004779
-0.009691
-0.054985
-0.053465
-0.055840
-0.025990
-0.027207
0.052569
0.001416
0.050508
0.050096
0.049244
-0.011296
-0.010025
-0.017583
-0.018342
0.044918
0.045753
0.042851
-0.019042
-0.020602
-0.019536
0.020017
0.019366
0.022113
0.016851
0.051226
0.051928
0.036336
0.015103
0.012836
0.013469
0.002720
0.003630
0.003895
0.030937
0.035088
0.024781
0.028333
0.032198
0.033631
0.032324
-0.024728
-0.026431
-0.026871
-0.028272
-0.028013
0.003772
0.048457
0.046752
0.048400
0.036451
0.033736
0.035892
0.034434
0.035666
0.037684
0.037181
0.046090
0.045896
-0.004840
-0.003726
-0.003488
-0.004999
-0.009004
-0.008108
-0.008468
-0.007525
0.022402
0.021024
0.022783
0.021296
0.022035
0.020828
0.033428
0.034728
0.033831
0.047997
0.047271
-0.014505
-0.014348
-0.015840
-0.013780
-0.013966
-0.012294
-0.012191
-0.015535
-0.015839
-0.014713
-0.005656
-0.006675
-0.006007
-0.006564
0.014682
0.014915
0.015877
0.013656
-0.004596
-0.013380
-0.013169
-0.013597
-0.012968
-0.011781
-0.014076
0.042627
0.041556
0.041341
0.040306
0.010001
0.010964
-0.006083
-0.005975
-0.004446
0.007996
0.008156
0.007033
0.007386
0.006302
0.007022
0.007007
-0.000037
-0.000649
0.000581
-0.001392
0.029085
0.029646
-0.016023
-0.014921
-0.016014
0.005016
0.005141
0.004188
0.026138
0.023517
0.022338
0.006055
0.002934
0.003802
0.002447
0.033251
0.033384
0.028513
0.029789
0.028461
0.029855
0.019267
0.019730
0.018248
0.019020
-0.056339
-0.057372
-0.059031
-0.053336
-0.035593
-0.034593
-0.034687
-0.021263
-0.017923
-0.032456
0.034557
-0.036581
-0.037015
-0.038636
-0.038895
0.007982
0.010728
0.011360
0.013933
-0.020191
-0.016713
-0.016124
-0.013649
0.044761
0.045602
0.045760
0.046434
0.034784
0.032532
-0.052697
-0.056479
-0.057272
-0.054999
-0.056318
-0.055342
-0.055989
-0.052505
-0.051058
0.003212
0.001576
0.002182
0.023830
0.021516
-0.031470
-0.031010
-0.032896
-0.032181
-0.034072
-0.007574
-0.006956
-0.009240
-0.008762
-0.037666
-0.038705
-0.039083
-0.037853
-0.015296
-0.012171
-0.050111
-0.049331
-0.048084
-0.048805
-0.050672
-0.055794
-0.057022
-0.056094
-0.055386
-0.054916
-0.048007
-0.046838
-0.046489
-0.047560
-0.046041
-0.011734
-0.010150
-0.010702
0.010551
-0.010486
-0.018937
-0.009642
-0.022848
-0.032983
0.057801
0.056747
0.059024
0.055279
0.053363
0.054944
-0.043029
-0.043658
-0.044718
-0.048731
-0.044291
-0.044787
-0.050424
0.050413
0.054666
0.054110
0.050576
0.002036
0.001871
-0.034892
-0.033545
-0.034735
-0.033090
-0.050239
-0.051045
-0.059786
-0.058886
-0.058392
-0.059447
0.056086
0.055880
0.054231
0.055287
-0.039219
-0.037760
0.018926
0.021134
0.018136
0.014590
0.022027
0.017238
0.010257
0.010997
0.001518
-0.017460
-0.017678
-0.015689
-0.059070
-0.059006
-0.060260
-0.057962
0.060339
0.033609
-0.045421
-0.045781
-0.047532
-0.060832
-0.060611
-0.047028
0.050647
0.050031
0.051390
-0.050597
-0.049708
-0.051028
-0.055707
-0.049699
-0.048883
0.059289
0.060608
0.059749
0.060107
0.060812
0.014227
0.016558
-0.047117
-0.046905
-0.045365
0.061163
0.025120
0.026626
0.028317
-0.034612
-0.032157
-0.030986
-0.033683
-0.029931
-0.028892
-0.021627
-0.020164
-0.055691
-0.055916
-0.059207
-0.057596
-0.057004
-0.055903
-0.033245
0.036060
-0.034280
-0.057898
-0.059124
-0.058083
-0.057249
0.060489
0.058397
-0.053007
-0.054396
-0.053879
0.061487
-0.058740
0.051900
0.053686
0.051868
-0.045358
-0.046547
-0.044914
-0.012277
-0.007158
-0.006940
-0.002302
-0.001542
-0.051556
-0.050518
-0.052286
-0.053171
0.023761
0.020802
-0.044010
-0.043473
-0.045074
-0.043919
-0.030957
-0.031000
-0.033273
-0.031267
-0.033726
-0.037619
-0.034355
-0.034660
-0.038185
-0.058862
-0.059867
0.050980
0.052278
-0.038643
-0.037609
-0.040287
-0.040911
-0.043186
0.034807
0.035185
0.034148
-0.025850
-0.027071
-0.037360
-0.039171
-0.025435
-0.023598
0.010620
0.006434
0.006651
0.009427
-0.057341
-0.042621
-0.042239
-0.042911
-0.041348
0.009177
0.052388
0.051856
0.050885
0.050477
-0.008682
-0.008558
-0.004674
-0.004757
-0.001531
-0.000929
0.048739
0.049879
0.061215
0.059002
-0.001734
0.001141
0.054021
0.056081
-0.056360
-0.035921
-0.039581
-0.044557
-0.044810
-0.043603
-0.045312
-0.045599
0.020468
-0.056066
-0.060375
0.021959
0.007408
0.005113
0.059315
0.059207
0.059702
-0.059508
-0.051087
-0.052677
-0.056984
0.006993
0.005354
0.004051
0.005941
0.049677
-0.049954
-0.049154
-0.047397
-0.046436
0.018890
0.017709
0.015678
0.017248
0.053328
-0.059300
-0.060084
-0.058427
-0.046100
-0.055710
-0.040258
-0.045696
-0.037404
-0.040798
-0.050611
-0.056805
-0.057292
0.010184
0.010774
0.004590
0.016293
-0.011266
-0.016647
0.001313
-0.056231
-0.017817
-0.054315
0.001539
-0.009840
-0.007736
-0.052985
-0.054267
-0.053190
-0.057048
-0.054872
-0.017479
-0.006278
-0.009553
-0.013651
-0.052379
-0.000472
-0.001136
-0.001720
-0.018870
-0.019843
-0.016313
-0.045310
-0.045519
-0.047897
-0.039888
-0.039257
-0.040379
-0.041055
-0.018536
-0.016019
-0.015899
-0.013191
-0.013200
0.013257
0.010169
0.001201
-0.003638
-0.005074
-0.003733
-0.002568
0.014889
0.010072
0.005974
0.005702
0.001882
-0.050167
-0.042418
-0.039505
-0.033759
-0.053454
-0.053092
-0.054133
-0.035833
0.061900
-0.042676
-0.043663
-0.045808
-0.044579
-0.028448
-0.032766
-0.025224
-0.023134
-0.020913
-0.058016
-0.041975
-0.041431
-0.055264
0.043383
0.043419
-0.004548
-0.046284
0.044290
0.057593
-0.042911
-0.048657
-0.043573
0.012484
-0.050222
-0.052849
-0.055470
-0.059362
-0.057213
0.052718
-0.051338
0.004837
0.000596
0.007722
-0.054484
-0.056673
0.056554
-0.042288
-0.042114
-0.043141
-0.053939
0.047226
0.044313
0.047128
0.054160
0.054063
0.054952
-0.052603
-0.050475
-0.050131
-0.051257
-0.054406
0.039335
0.030349
0.030128
0.022257
-0.040378
-0.040562
-0.019280
-0.018452
-0.034778
-0.029409
0.035846
-0.013832
-0.058497
-0.029217
-0.030379
-0.029442
0.002210
-0.025378
-0.023736
-0.023996
-0.051829
-0.044723
-0.040099
-0.039845
-0.035331
-0.049926
-0.021224
-0.023439
-0.023075
0.045648
0.052854
0.049005
0.004699
-0.036380
-0.036462
-0.034456
-0.054802
-0.051051
-0.051785
-0.053990
-0.028204
0.014634
-0.041109
-0.047528
-0.027914
-0.025667
-0.054895
-0.049250
-0.022559
-0.022406
-0.032453
0.008847
0.058334
0.057449
-0.052495
-0.037821
-0.014770
-0.056611
-0.046764
-0.043520
-0.047842
0.019092
-0.058393
0.016950
0.017275
0.016069
-0.022117
-0.014002
-0.054481
-0.024456
-0.034935
-0.037539
-0.039112
0.052928
-0.007561
-0.008805
-0.006796
-0.043444
-0.044000
-0.025781
-0.036217
-0.035824
-0.034741
-0.053985
-0.055045
-0.037184
-0.048869
0.046127
0.046844
-0.032255
-0.032663
-0.033635
0.044812
-0.011720
-0.011031
0.049099
0.049763
0.016427
-0.002332
-0.006561
-0.049502
-0.051086
0.003266
0.005016
0.013619
0.014893
-0.029856
-0.034776
-0.043012
-0.041641
-0.042199
0.038724
0.038373
0.004247
0.008028
-0.037086
-0.052794
-0.049202
-0.028477
-0.029003
-0.027245
-0.047273
-0.055476
-0.045503
-0.016717
-0.019365
-0.042959
-0.044101
-0.043882
0.052091
-0.022392
-0.021437
-0.024574
-0.052624
-0.051834
-0.040328
-0.038778
-0.029617
-0.024772
0.001372
-0.006890
0.019798
0.054906
-0.054983
-0.027033
-0.024940
-0.032973
-0.038723
-0.040896
-0.025200
-0.026769
-0.027177
0.043506
-0.013531
-0.021013
-0.022868
-0.004481
-0.013300
-0.031392
-0.031601
-0.030563
0.012543
0.013286
0.016030
0.001513
-0.021591
-0.040181
-0.040771
-0.041783
-0.042065
0.018830
0.019833
0.019132
-0.026417
-0.023584
-0.055869
-0.026162
-0.027168
-0.025649
-0.027908
0.010195
0.058577
0.058105
0.007225
0.017942
0.005078
0.012367
-0.047882
-0.047545
-0.046989
-0.040692
-0.039775
-0.039805
-0.027406
0.040445
0.038145
-0.010922
0.000627
-0.000850
-0.041611
-0.002109
-0.041344
-0.040407
-0.048942
-0.048839
-0.048039
-0.031316
-0.002535
-0.000881
-0.002847
-0.000059
0.057738
-0.046264
-0.047124
0.041413
-0.045354
-0.045805
0.050539
0.048423
0.047489
0.044806
0.045664
0.041543
0.045103
-0.052177
-0.051360
-0.052302
-0.036736
-0.040200
-0.041582
-0.005934
-0.009440
-0.031308
-0.048349
-0.037814
-0.031291
-0.023329
-0.049667
-0.049554
0.009631
-0.029943
-0.029730
-0.041806
-0.052538
0.057354
-0.014206
-0.049396
-0.053897
-0.045597
-0.012404
-0.016113
0.001977
-0.011225
-0.013880
-0.015524
-0.018879
-0.023768
-0.003192
-0.007440
-0.000355
-0.006880
0.002567
-0.035516
-0.044836
0.041360
0.042143
-0.040428
-0.031670
-0.019481
-0.021403
-0.023296
0.043200
0.037283
-0.005144
-0.006850
-0.006884
-0.005532
0.012630
0.013539
-0.038734
-0.039186
-0.038310
-0.048242
-0.005245
0.002808
-0.034451
0.032767
0.035229
-0.036731
-0.025181
-0.020799
-0.023450
0.058256
0.044382
0.047584
0.047672
-0.040494
-0.042287
0.057466
-0.029867
-0.018273
-0.031082
0.031616
-0.035798
-0.036278
-0.034988
-0.037007
-0.040458
-0.024280
-0.037727
0.028760
0.026331
0.025203
0.031269
0.032324
0.031521
0.029891
0.031181
0.014839
0.041542
0.040367
-0.037968
0.020139
0.015897
-0.030437
-0.030297
-0.029576
0.043978
0.040901
-0.019082
-0.029933
-0.022661
-0.035728
-0.032605
-0.016354
-0.016012
-0.017695
0.057583
0.057121
-0.024589
-0.016795
-0.029160
0.022802
0.039703
0.041450
0.042726
0.031292
0.031405
0.039217
-0.040319
-0.046880
-0.045982
-0.005626
-0.008653
-0.016662
-0.060676
-0.015042
0.027910
0.020807
0.022848
0.024846
-0.028180
-0.028770
-0.027939
-0.029272
0.029338
-0.033499
-0.033961
-0.032783
-0.018060
0.027775
0.028321
-0.060799
0.043723
0.043691
-0.038589
-0.003293
-0.060423
0.042512
-0.004032
0.025749
-0.029609
0.043733
-0.044284
0.029552
-0.028529
-0.025721
-0.013835
-0.017446
-0.042971
0.048148
0.049307
0.042110
0.054518
0.012174
0.013110
0.013041
-0.014877
-0.032235
-0.013866
-0.010956
0.012165
0.013913
-0.032504
0.014110
-0.022022
-0.023341
-0.022334
-0.020851
-0.021862
-0.020970
-0.020335
-0.019574
-0.019068
-0.046434
0.008661
-0.014304
0.057352
0.013795
0.014996
-0.028351
0.012338
-0.001164
-0.001016
-0.040309
-0.039930
-0.040700
0.003145
0.004269
0.001931
0.037069
0.037673
0.033178
0.034506
0.036825
0.038188
0.037839
0.037737
-0.040633
-0.058477
0.005372
0.005502
0.004370
0.008645
-0.026090
0.016274
0.017666
0.017733
-0.001868
-0.000088
-0.019545
-0.018727
0.018933
0.018048
0.019478
-0.002039
-0.002876
0.007521
0.000614
0.001114
-0.037895
-0.037124
0.045204
0.046602
-0.001934
-0.000579
-0.000708
0.045886
0.044449
0.039182
0.037652
-0.038706
0.023443
0.039166
-0.018977
-0.017980
-0.017676
0.027078
0.028436
0.026837
-0.021844
-0.035108
0.028421
-0.032367
-0.032463
-0.033505
0.030087
0.026588
-0.002808
-0.003666
-0.015272
-0.014280
-0.015151
0.031154
0.031157
0.029979
-0.004492
-0.003596
-0.016297
-0.004814
-0.014488
-0.013168
-0.012524
0.036162
0.034963
-0.047020
-0.047803
-0.011183
-0.010385
-0.009601
-0.010655
-0.009645
-0.056916
-0.004321
-0.028343
-0.029021
-0.027982
0.033584
-0.024827
-0.029941
-0.030426
-0.031052
0.020164
-0.011332
-0.044571
0.019689
0.036733
0.035755
0.023563
0.024361
0.024903
0.025793
0.008268
0.008631
0.009233
0.007667
0.008140
0.022794
0.043524
0.042435
-0.013379
-0.012776
-0.012685
-0.018712
-0.017370
-0.007195
-0.006304
-0.007262
0.010061
-0.023321
0.010702
0.011191
0.011800
0.010058
0.044457
0.005849
0.006280
0.041292
0.041192
0.042493
0.039891
0.017832
0.031514
-0.017706
-0.016885
0.018333
0.020651
0.020315
0.001811
0.001238
-0.022104
-0.022779
-0.023327
-0.021760
-0.021128
-0.005256
-0.004548
-0.005572
0.016627
0.016972
0.015426
0.016824
0.017752
0.038694
0.038303
0.032891
0.030172
0.025725
0.026197
0.027196
0.026971
0.028037
0.027231
-0.028311
0.036184
0.037247
0.037651
0.040823
0.039698
0.044944
0.045349
-0.006350
-0.022671
-0.022575
0.046240
0.047576
-0.036061
0.046816
0.037988
0.040812
0.028900
0.048446
-0.060029
-0.060272
-0.060058
-0.060352
-0.057601
0.008996
-0.012373
0.000534
-0.022603
-0.022289
-0.023133
-0.058390
-0.018950
0.028390
0.030651
0.020135
0.015499
0.024671
0.024757
0.023658
-0.022759
0.024001
0.000183
0.000693
0.001374
-0.022808
0.043296
0.001478
0.025047
0.024313
0.048786
0.049876
0.037316
0.038037
0.039065
0.040152
0.040156
0.006723
0.007610
-0.047362
0.022046
0.038369
0.039285
0.040073
-0.003963
-0.003301
-0.002885
-0.020147
-0.019568
-0.014216
-0.015369
-0.007274
-0.008435
0.011184
0.009827
0.009392
0.029891
-0.021990
-0.021130
-0.023666
0.047210
0.046064
0.025066
0.019653
0.017900
0.012261
-0.016796
-0.018979
-0.021346
0.049050
0.016425
0.014838
0.014794
0.048064
0.048330
0.047229
-0.038471
0.026751
-0.036041
-0.011243
-0.011609
-0.012350
-0.039155
0.012839
-0.028263
-0.053962
-0.021162
0.008509
0.008198
-0.004770
-0.002264
0.012119
-0.012199
-0.011700
-0.010745
0.011452
0.026468
-0.021478
-0.016110
-0.016904
-0.011137
-0.012212
0.013314
-0.011758
-0.051909
-0.052081
0.032195
0.011076
-0.031529
0.002532
0.002281
0.022498
0.006123
0.044617
0.039302
0.040517
-0.033942
0.010995
-0.020324
0.018445
-0.048697
-0.018356
-0.020361
0.015930
0.016879
0.015734
0.005358
0.006158
0.023908
0.022150
-0.043219
-0.043148
0.001334
-0.003168
0.020546
0.005630
0.002134
-0.013219
0.040819
-0.012063
0.041558
0.041204
0.001442
-0.024574
-0.023785
0.044463
0.042936
0.023007
0.022795
-0.001151
0.035947
0.037392
0.036666
0.025242
0.026303
0.047746
0.048284
0.018448
0.030181
0.031926
0.021772
-0.050025
0.038356
0.026589
0.021737
-0.024168
0.013187
0.028708
-0.034649
-0.028597
0.031104
0.005465
0.040413
0.042754
-0.021681
0.000696
-0.052332
-0.033401
-0.005345
-0.006273
-0.007303
-0.010114
-0.036981
-0.020857
-0.013412
-0.004846
0.025261
0.012730
0.013220
0.014434
0.007501
0.040437
-0.007699
0.033157
0.031275
0.030697
-0.031255
-0.018571
-0.005343
0.000220
0.000787
0.044954
0.033560
-0.030499
0.015852
0.015001
-0.004594
0.024126
0.049287
0.029874
0.033658
0.033304
-0.023505
0.032530
-0.009219
0.023676
0.048454
0.017899
-0.008840
-0.008123
-0.007500
-0.009742
-0.009266
-0.008345
-0.008396
0.006453
0.006084
0.015935
-0.002347
0.020491
0.021082
0.021808
-0.006842
0.004662
0.026150
0.035083
0.010782
-0.007949
0.011426
0.014641
0.015004
0.025632
-0.008017
0.004773
0.003728
0.028260
0.013766
0.028311
-0.008748
0.003913
0.000333
0.047434
0.035764
0.016345
0.022578
0.022960
0.038354
0.011389
0.020185
0.024714
-0.029114
-0.016633
0.031199
0.020350
0.036788
0.042471
0.043302
-0.008543
-0.003984
0.014328
-0.034146
-0.033322
-0.032404
-0.033456
-0.032429
-0.032424
-0.014016
-0.014788
-0.013935
0.057572
0.054815
0.054830
0.031843
0.030583
0.031850
0.052457
0.058563
0.003897
0.003075
-0.006307
0.037648
0.047341
0.046260
-0.016719
-0.018496
-0.017133
0.059656
0.058114
0.060748
0.057707
-0.017450
-0.033531
-0.031611
-0.018963
-0.018955
-0.017654
-0.015762
-0.014757
-0.019201
-0.020590
0.027499
0.025880
0.026114
0.026541
-0.017635
-0.010920
-0.020661
-0.022548
-0.021006
-0.007188
-0.001553
0.024027
0.020680
0.022900
0.021152
-0.026881
-0.025603
-0.027148
0.013871
0.014654
0.013769
-0.000833
-0.001922
-0.001431
-0.002874
0.060344
0.059191
-0.026066
-0.021810
-0.016903
-0.038442
-0.034866
-0.034875
-0.008028
-0.006519
-0.006742
-0.030911
-0.023975
-0.021833
-0.021484
-0.004890
0.021283
0.023621
0.024209
0.018902
0.041206
0.041402
0.046511
0.036267
0.000071
0.005135
0.004306
0.029628
0.030800
0.031758
0.033268
-0.013609
-0.021019
-0.016460
-0.048518
-0.050784
-0.005955
-0.006678
-0.005253
-0.006906
0.042551
0.043806
0.042800
0.044409
0.012745
0.011932
0.015536
0.010144
0.029511
0.030205
0.029045
0.030754
0.040037
0.040314
0.041465
0.039110
-0.014974
-0.013726
-0.031945
-0.032574
-0.040590
-0.039733
-0.041368
-0.028427
-0.030036
-0.029370
0.032300
0.031729
-0.011948
-0.011563
-0.012729
-0.012323
-0.036658
-0.019015
-0.020120
-0.018974
-0.020113
-0.037030
-0.036676
-0.035799
-0.034959
-0.027601
-0.028614
-0.028883