# vtk DataFile Version 2.0
Test
ASCII
DATASET POLYDATA
POINTS 6577 float
0.000000 0.000000 0.000000
2.000000 0.000000 0.000000
2.000000 4.000000 0.000000
0.000000 4.000000 0.000000
0.000000 0.500000 0.000000
1.500000 2.000000 0.000000
2.000000 2.500000 0.000000
0.040000 0.000000 0.000000
0.080000 0.000000 0.000000
0.120000 0.000000 0.000000
0.160000 0.000000 0.000000
0.200000 0.000000 0.000000
0.240000 0.000000 0.000000
0.280000 0.000000 0.000000
0.320000 0.000000 0.000000
0.360000 0.000000 0.000000
0.400000 0.000000 0.000000
0.440000 0.000000 0.000000
0.480000 0.000000 0.000000
0.520000 0.000000 0.000000
0.560000 0.000000 0.000000
0.600000 0.000000 0.000000
0.640000 0.000000 0.000000
0.680000 0.000000 0.000000
0.720000 0.000000 0.000000
0.760000 0.000000 0.000000
0.800000 0.000000 0.000000
0.840000 0.000000 0.000000
0.880000 0.000000 0.000000
0.920000 0.000000 0.000000
0.960000 0.000000 0.000000
1.000000 0.000000 0.000000
1.040000 0.000000 0.000000
1.080000 0.000000 0.000000
1.120000 0.000000 0.000000
1.160000 0.000000 0.000000
1.200000 0.000000 0.000000
1.240000 0.000000 0.000000
1.280000 0.000000 0.000000
1.320000 0.000000 0.000000
1.360000 0.000000 0.000000
1.400000 0.000000 0.000000
1.440000 0.000000 0.000000
1.480000 0.000000 0.000000
1.520000 0.000000 0.000000
1.560000 0.000000 0.000000
1.600000 0.000000 0.000000
1.640000 0.000000 0.000000
1.680000 0.000000 0.000000
1.720000 0.000000 0.000000
1.760000 0.000000 0.000000
1.800000 0.000000 0.000000
1.840000 0.000000 0.000000
1.880000 0.000000 0.000000
1.920000 0.000000 0.000000
1.960000 0.000000 0.000000
2.000000 0.039683 0.000000
2.000000 0.079365 0.000000
2.000000 0.119048 0.000000
2.000000 0.158730 0.000000
2.000000 0.198413 0.000000
2.000000 0.238095 0.000000
2.000000 0.277778 0.000000
2.000000 0.317460 0.000000
2.000000 0.357143 0.000000
2.000000 0.396825 0.000000
2.000000 0.436508 0.000000
2.000000 0.476190 0.000000
2.000000 0.515873 0.000000
2.000000 0.555556 0.000000
2.000000 0.595238 0.000000
2.000000 0.634921 0.000000
2.000000 0.674603 0.000000
2.000000 0.714286 0.000000
2.000000 0.753968 0.000000
2.000000 0.793651 0.000000
2.000000 0.833333 0.000000
2.000000 0.873016 0.000000
2.000000 0.912698 0.000000
2.000000 0.952381 0.000000
2.000000 0.992063 0.000000
2.000000 1.031746 0.000000
2.000000 1.071429 0.000000
2.000000 1.111111 0.000000
2.000000 1.150794 0.000000
2.000000 1.190476 0.000000
2.000000 1.230159 0.000000
2.000000 1.269841 0.000000
2.000000 1.309524 0.000000
2.000000 1.349206 0.000000
2.000000 1.388889 0.000000
2.000000 1.428571 0.000000
2.000000 1.468254 0.000000
2.000000 1.507937 0.000000
2.000000 1.547619 0.000000
2.000000 1.587302 0.000000
2.000000 1.626984 0.000000
2.000000 1.666667 0.000000
2.000000 1.706349 0.000000
2.000000 1.746032 0.000000
2.000000 1.785714 0.000000
2.000000 1.825397 0.000000
2.000000 1.865079 0.000000
2.000000 1.904762 0.000000
2.000000 1.944444 0.000000
2.000000 1.984127 0.000000
2.000000 2.023810 0.000000
2.000000 2.063492 0.000000
2.000000 2.103175 0.000000
2.000000 2.142857 0.000000
2.000000 2.182540 0.000000
2.000000 2.222222 0.000000
2.000000 2.261905 0.000000
2.000000 2.301587 0.000000
2.000000 2.341270 0.000000
2.000000 2.380952 0.000000
2.000000 2.420635 0.000000
2.000000 2.460317 0.000000
2.000000 2.539474 0.000000
2.000000 2.578947 0.000000
2.000000 2.618421 0.000000
2.000000 2.657895 0.000000
2.000000 2.697368 0.000000
2.000000 2.736842 0.000000
2.000000 2.776316 0.000000
2.000000 2.815789 0.000000
2.000000 2.855263 0.000000
2.000000 2.894737 0.000000
2.000000 2.934211 0.000000
2.000000 2.973684 0.000000
2.000000 3.013158 0.000000
2.000000 3.052632 0.000000
2.000000 3.092105 0.000000
2.000000 3.131579 0.000000
2.000000 3.171053 0.000000
2.000000 3.210526 0.000000
2.000000 3.250000 0.000000
2.000000 3.289474 0.000000
2.000000 3.328947 0.000000
2.000000 3.368421 0.000000
2.000000 3.407895 0.000000
2.000000 3.447368 0.000000
2.000000 3.486842 0.000000
2.000000 3.526316 0.000000
2.000000 3.565789 0.000000
2.000000 3.605263 0.000000
2.000000 3.644737 0.000000
2.000000 3.684211 0.000000
2.000000 3.723684 0.000000
2.000000 3.763158 0.000000
2.000000 3.802632 0.000000
2.000000 3.842105 0.000000
2.000000 3.881579 0.000000
2.000000 3.921053 0.000000
2.000000 3.960526 0.000000
1.960000 4.000000 0.000000
1.920000 4.000000 0.000000
1.880000 4.000000 0.000000
1.840000 4.000000 0.000000
1.800000 4.000000 0.000000
1.760000 4.000000 0.000000
1.720000 4.000000 0.000000
1.680000 4.000000 0.000000
1.640000 4.000000 0.000000
1.600000 4.000000 0.000000
1.560000 4.000000 0.000000
1.520000 4.000000 0.000000
1.480000 4.000000 0.000000
1.440000 4.000000 0.000000
1.400000 4.000000 0.000000
1.360000 4.000000 0.000000
1.320000 4.000000 0.000000
1.280000 4.000000 0.000000
1.240000 4.000000 0.000000
1.200000 4.000000 0.000000
1.160000 4.000000 0.000000
1.120000 4.000000 0.000000
1.080000 4.000000 0.000000
1.040000 4.000000 0.000000
1.000000 4.000000 0.000000
0.960000 4.000000 0.000000
0.920000 4.000000 0.000000
0.880000 4.000000 0.000000
0.840000 4.000000 0.000000
0.800000 4.000000 0.000000
0.760000 4.000000 0.000000
0.720000 4.000000 0.000000
0.680000 4.000000 0.000000
0.640000 4.000000 0.000000
0.600000 4.000000 0.000000
0.560000 4.000000 0.000000
0.520000 4.000000 0.000000
0.480000 4.000000 0.000000
0.440000 4.000000 0.000000
0.400000 4.000000 0.000000
0.360000 4.000000 0.000000
0.320000 4.000000 0.000000
0.280000 4.000000 0.000000
0.240000 4.000000 0.000000
0.200000 4.000000 0.000000
0.160000 4.000000 0.000000
0.120000 4.000000 0.000000
0.080000 4.000000 0.000000
0.040000 4.000000 0.000000
0.000000 3.960227 0.000000
0.000000 3.920455 0.000000
0.000000 3.880682 0.000000
0.000000 3.840909 0.000000
0.000000 3.801136 0.000000
0.000000 3.761364 0.000000
0.000000 3.721591 0.000000
0.000000 3.681818 0.000000
0.000000 3.642045 0.000000
0.000000 3.602273 0.000000
0.000000 3.562500 0.000000
0.000000 3.522727 0.000000
0.000000 3.482955 0.000000
0.000000 3.443182 0.000000
0.000000 3.403409 0.000000
0.000000 3.363636 0.000000
0.000000 3.323864 0.000000
0.000000 3.284091 0.000000
0.000000 3.244318 0.000000
0.000000 3.204545 0.000000
0.000000 3.164773 0.000000
0.000000 3.125000 0.000000
0.000000 3.085227 0.000000
0.000000 3.045455 0.000000
0.000000 3.005682 0.000000
0.000000 2.965909 0.000000
0.000000 2.926136 0.000000
0.000000 2.886364 0.000000
0.000000 2.846591 0.000000
0.000000 2.806818 0.000000
0.000000 2.767045 0.000000
0.000000 2.727273 0.000000
0.000000 2.687500 0.000000
0.000000 2.647727 0.000000
0.000000 2.607955 0.000000
0.000000 2.568182 0.000000
0.000000 2.528409 0.000000
0.000000 2.488636 0.000000
0.000000 2.448864 0.000000
0.000000 2.409091 0.000000
0.000000 2.369318 0.000000
0.000000 2.329545 0.000000
0.000000 2.289773 0.000000
0.000000 2.250000 0.000000
0.000000 2.210227 0.000000
0.000000 2.170455 0.000000
0.000000 2.130682 0.000000
0.000000 2.090909 0.000000
0.000000 2.051136 0.000000
0.000000 2.011364 0.000000
0.000000 1.971591 0.000000
0.000000 1.931818 0.000000
0.000000 1.892045 0.000000
0.000000 1.852273 0.000000
0.000000 1.812500 0.000000
0.000000 1.772727 0.000000
0.000000 1.732955 0.000000
0.000000 1.693182 0.000000
0.000000 1.653409 0.000000
0.000000 1.613636 0.000000
0.000000 1.573864 0.000000
0.000000 1.534091 0.000000
0.000000 1.494318 0.000000
0.000000 1.454545 0.000000
0.000000 1.414773 0.000000
0.000000 1.375000 0.000000
0.000000 1.335227 0.000000
0.000000 1.295455 0.000000
0.000000 1.255682 0.000000
0.000000 1.215909 0.000000
0.000000 1.176136 0.000000
0.000000 1.136364 0.000000
0.000000 1.096591 0.000000
0.000000 1.056818 0.000000
0.000000 1.017045 0.000000
0.000000 0.977273 0.000000
0.000000 0.937500 0.000000
0.000000 0.897727 0.000000
0.000000 0.857955 0.000000
0.000000 0.818182 0.000000
0.000000 0.778409 0.000000
0.000000 0.738636 0.000000
0.000000 0.698864 0.000000
0.000000 0.659091 0.000000
0.000000 0.619318 0.000000
0.000000 0.579545 0.000000
0.000000 0.539773 0.000000
0.000000 0.461538 0.000000
0.000000 0.423077 0.000000
0.000000 0.384615 0.000000
0.000000 0.346154 0.000000
0.000000 0.307692 0.000000
0.000000 0.269231 0.000000
0.000000 0.230769 0.000000
0.000000 0.192308 0.000000
0.000000 0.153846 0.000000
0.000000 0.115385 0.000000
0.000000 0.076923 0.000000
0.000000 0.038462 0.000000
0.027778 0.527778 0.000000
0.055556 0.555556 0.000000
0.083333 0.583333 0.000000
0.111111 0.611111 0.000000
0.138889 0.638889 0.000000
0.166667 0.666667 0.000000
0.194444 0.694444 0.000000
0.222222 0.722222 0.000000
0.250000 0.750000 0.000000
0.277778 0.777778 0.000000
0.305556 0.805556 0.000000
0.333333 0.833333 0.000000
0.361111 0.861111 0.000000
0.388889 0.888889 0.000000
0.416667 0.916667 0.000000
0.444444 0.944444 0.000000
0.472222 0.972222 0.000000
0.500000 1.000000 0.000000
0.527778 1.027778 0.000000
0.555556 1.055556 0.000000
0.583333 1.083333 0.000000
0.611111 1.111111 0.000000
0.638889 1.138889 0.000000
0.666667 1.166667 0.000000
0.694444 1.194444 0.000000
0.722222 1.222222 0.000000
0.750000 1.250000 0.000000
0.777778 1.277778 0.000000
0.805556 1.305556 0.000000
0.833333 1.333333 0.000000
0.861111 1.361111 0.000000
0.888889 1.388889 0.000000
0.916667 1.416667 0.000000
0.944444 1.444444 0.000000
0.972222 1.472222 0.000000
1.000000 1.500000 0.000000
1.027778 1.527778 0.000000
1.055556 1.555556 0.000000
1.083333 1.583333 0.000000
1.111111 1.611111 0.000000
1.138889 1.638889 0.000000
1.166667 1.666667 0.000000
1.194444 1.694444 0.000000
1.222222 1.722222 0.000000
1.250000 1.750000 0.000000
1.277778 1.777778 0.000000
1.305556 1.805556 0.000000
1.333333 1.833333 0.000000
1.361111 1.861111 0.000000
1.388889 1.888889 0.000000
1.416667 1.916667 0.000000
1.444444 1.944444 0.000000
1.472222 1.972222 0.000000
1.527778 2.027778 0.000000
1.555556 2.055556 0.000000
1.583333 2.083333 0.000000
1.611111 2.111111 0.000000
1.638889 2.138889 0.000000
1.666667 2.166667 0.000000
1.694444 2.194444 0.000000
1.722222 2.222222 0.000000
1.750000 2.250000 0.000000
1.777778 2.277778 0.000000
1.805556 2.305556 0.000000
[...]
POINT_DATA 6577
SCALARS UX float 1
LOOKUP_TABLE default
-0.000001
0.000000
0.000132
-0.009731
-0.005133
-0.000240
0.001220
0.000000
-0.000000
-0.000000
0.000000
0.000000
-0.000000
0.000000
0.000000
0.000000
0.000000
0.000000
0.000000
0.000000
0.000000
0.000000
0.000000
0.000000
0.000000
0.000000
-0.000000
-0.000000
0.000000
-0.000000
0.000000
0.000000
0.000000
-0.000000
0.000000
0.000000
-0.000000
0.000000
0.000000
-0.000000
0.000000
0.000000
-0.000000
0.000000
0.000000
0.000000
-0.000000
-0.000000
-0.000000
-0.000000
-0.000001
0.000000
0.000000
0.000000
-0.000000
0.000000
0.000497
0.001348
0.001835
0.002257
0.002600
0.002910
0.003176
0.003421
0.003641
0.003835
0.004009
0.004162
0.004308
0.004442
0.004563
0.004670
0.004771
0.004860
0.004943
0.005014
0.005080
0.005139
0.005200
0.005240
0.005283
0.005324
0.005350
0.005374
0.005396
0.005404
0.005412
0.005416
0.005415
0.005404
0.005376
0.005366
0.005333
0.005302
0.005254
0.005199
0.005133
0.005055
0.004956
0.004853
0.004721
0.004571
0.004402
0.004213
0.004005
0.003767
0.003526
0.003287
0.003040
0.002797
0.002564
0.002330
0.002136
0.001936
0.001759
0.001606
0.001467
0.001337
0.001115
0.001024
0.000952
0.000868
0.000812
0.000748
0.000678
0.000642
0.000595
0.000556
0.000519
0.000483
0.000448
0.000423
0.000400
0.000357
0.000343
0.000330
0.000311
0.000280
0.000257
0.000258
0.000236
0.000220
0.000208
0.000199
0.000187
0.000179
0.000172
0.000159
0.000149
0.000149
0.000147
0.000139
0.000138
0.000133
0.000134
-0.000080
-0.000294
-0.000506
-0.000718
-0.000930
-0.001141
-0.001349
-0.001558
-0.001767
-0.001974
-0.002181
-0.002387
-0.002589
-0.002791
-0.002994
-0.003196
-0.003397
-0.003596
-0.003794
-0.003991
-0.004187
-0.004383
-0.004580
-0.004775
-0.004968
-0.005162
-0.005355
-0.005547
-0.005739
-0.005931
-0.006124
-0.006316
-0.006504
-0.006695
-0.006887
-0.007079
-0.007268
-0.007459
-0.007650
-0.007841
-0.008031
-0.008221
-0.008411
-0.008601
-0.008791
-0.008979
-0.009168
-0.009355
-0.009542
-0.009729
-0.009728
-0.009725
-0.009722
-0.009709
-0.009701
-0.009692
-0.009679
-0.009669
-0.009653
-0.009641
-0.009619
-0.009597
-0.009587
-0.009554
-0.009537
-0.009510
-0.009484
-0.009470
-0.009429
-0.009406
-0.009380
-0.009346
-0.009316
-0.009290
-0.009255
-0.009229
-0.009187
-0.009169
-0.009128
-0.009103
-0.009065
-0.009045
-0.009019
-0.008983
-0.008963
-0.008936
-0.008913
-0.008899
-0.008882
-0.008859
-0.008849
-0.008840
-0.008838
-0.008826
-0.008830
-0.008832
-0.008839
-0.008849
-0.008862
-0.008877
-0.008903
-0.008936
-0.008960
-0.008999
-0.009041
-0.009084
-0.009136
-0.009190
-0.009236
-0.009313
-0.009378
-0.009451
-0.009527
-0.009610
-0.009685
-0.009775
-0.009852
-0.009935
-0.010012
-0.010083
-0.010135
-0.010179
-0.010200
-0.010185
-0.010138
-0.010052
-0.009913
-0.009717
-0.009471
-0.009211
-0.008995
-0.008825
-0.008760
-0.008164
-0.007387
-0.006269
-0.003625
-0.003611
-0.003395
-0.003211
-0.003036
-0.002823
-0.002587
-0.002327
-0.002024
-0.001661
-0.001242
-0.000592
-0.004676
-0.004848
-0.004882
-0.005646
-0.004813
-0.003719
-0.005549
-0.004779
-0.004976
-0.005847
-0.005358
-0.005853
-0.004827
-0.004139
-0.003683
-0.003218
-0.003868
-0.003659
-0.003488
-0.003694
-0.004603
-0.003384
-0.003023
-0.004228
-0.003428
-0.004032
-0.001783
-0.003014
-0.003311
-0.003408
-0.002392
-0.003097
-0.002215
-0.001885
-0.003498
-0.002440
-0.002538
-0.002052
-0.002061
-0.002005
-0.001386
-0.001348
-0.000389
-0.001117
-0.001348
-0.000831
-0.000602
-0.000610
-0.000462
-0.000813
0.000067
-0.000144
-0.000091
0.000222
0.000292
0.000335
0.000386
0.000439
0.000490
0.000536
0.000570
0.000623
0.000669
0.000717
0.000768
0.000829
0.000886
0.000958
0.001042
0.001131
0.000862
0.000815
-0.009606
-0.009603
-0.000055
-0.000033
0.000962
0.000970
0.000783
0.000606
0.000490
-0.001752
-0.001896
-0.001913
-0.003472
-0.003414
-0.003237
-0.002033
-0.007009
-0.006852
-0.006887
-0.002355
-0.002206
-0.002159
-0.008785
-0.008843
-0.008682
-0.008950
-0.009157
-0.009089
-0.002344
-0.000978
-0.000809
-0.000897
-0.002348
-0.002506
-0.002301
-0.008796
-0.008760
-0.008613
-0.007030
-0.002966
-0.002955
-0.003140
-0.003028
-0.003170
-0.003210
-0.002515
-0.002474
-0.002660
-0.002582
-0.007168
-0.007338
-0.007282
-0.007286
-0.007063
-0.007243
-0.007106
-0.007304
-0.002730
-0.002529
-0.002671
-0.003055
-0.004772
-0.004785
-0.004633
0.000528
0.000614
-0.004544
-0.007810
-0.007841
-0.007630
-0.008022
-0.007400
-0.007381
-0.007192
-0.004634
-0.004778
-0.004773
-0.004634
-0.001450
-0.001411
-0.001177
-0.001243
-0.006744
-0.006947
-0.006933
-0.006790
-0.003519
-0.003351
-0.003492
-0.007044
-0.006808
-0.006848
0.000452
0.000648
0.000426
0.000596
0.000463
0.000591
0.000342
-0.007496
-0.007652
-0.007678
-0.001954
-0.002123
-0.002111
-0.002302
-0.003406
-0.008966
-0.009121
-0.008996
-0.005612
-0.005456
-0.005457
-0.005668
-0.007683
-0.007847
-0.007685
-0.007826
-0.007272
-0.007144
-0.007311
-0.004850
-0.004894
-0.005038
-0.001006
-0.001177
-0.001148
-0.000830
-0.000572
-0.000377
0.000587
-0.005329
-0.005221
-0.005373
-0.005412
-0.005529
-0.005559
-0.006927
-0.006706
-0.007186
-0.007229
-0.007054
-0.008225
-0.008135
-0.008094
-0.007361
-0.004760
-0.004956
-0.004743
-0.008598
-0.008534
-0.008684
-0.007101
-0.005907
-0.005820
-0.006010
-0.004855
-0.004702
-0.004872
-0.007797
-0.008107
-0.008349
-0.000512
-0.000269
-0.000510
-0.000212
-0.002559
-0.002674
-0.002711
-0.002852
0.000620
0.000715
-0.004350
-0.004253
-0.004395
-0.004145
-0.008787
-0.008957
-0.008872
-0.005177
-0.005032
-0.005158
-0.005475
-0.005673
-0.005480
-0.005104
-0.009089
-0.006820
-0.006608
-0.006710
-0.006598
-0.006739
-0.006794
-0.006959
-0.006738
-0.008870
-0.008857
-0.005740
-0.005647
-0.005842
-0.008774
-0.008831
-0.004224
-0.004128
-0.004352
-0.008627
-0.008806
-0.008697
-0.008666
-0.008522
-0.008458
-0.008262
-0.008471
-0.008377
-0.008331
-0.008076
-0.008284
-0.008191
-0.004065
-0.004183
-0.003010
-0.004177
-0.008907
-0.009079
-0.008992
-0.009174
-0.009488
-0.009454
-0.000200
-0.000228
-0.001967
-0.001956
-0.001748
-0.002140
-0.006285
-0.006277
-0.006132
-0.007961
-0.008123
-0.008099
-0.006089
-0.002221
-0.002135
-0.002298
-0.008117
-0.008257
-0.009256
-0.009214
-0.009124
-0.004598
-0.004466
0.000010
0.000017
0.000259
0.000290
-0.007795
-0.007979
-0.007956
-0.008128
-0.009520
-0.009358
-0.009523
-0.009282
-0.008666
-0.008822
-0.008616
-0.008999
-0.008861
-0.009843
-0.009914
-0.009990
-0.008622
-0.008607
-0.008912
-0.009146
-0.008922
-0.008107
-0.008069
-0.000620
-0.000401
-0.008287
-0.008494
-0.008441
-0.009072
-0.007215
-0.007407
-0.007248
-0.008668
-0.008745
-0.001213
-0.001329
-0.001416
-0.001106
-0.002133
-0.001960
-0.002008
-0.005164
-0.005204
-0.005337
-0.004358
-0.004316
-0.001252
-0.001088
-0.001133
-0.005059
-0.004556
-0.004647
-0.004722
-0.009265
-0.009505
-0.009335
-0.007780
-0.007818
-0.007649
-0.001733
-0.007947
-0.008130
-0.007936
-0.007909
-0.007883
-0.008124
-0.008249
-0.008493
-0.001594
-0.008143
-0.007255
-0.007705
-0.007891
-0.007877
-0.007759
-0.007759
-0.009130
-0.009188
-0.008853
-0.009411
-0.007490
-0.007417
-0.007589
-0.000371
-0.000268
-0.007957
-0.007937
-0.007920
-0.007728
-0.007737
-0.006927
-0.009556
-0.009400
-0.009238
-0.009299
-0.009114
-0.009133
-0.000030
-0.006556
-0.006397
-0.009380
-0.009327
-0.007589
-0.007625
-0.000323
-0.000220
-0.004903
-0.004680
-0.008316
-0.002682
-0.002618
-0.002545
-0.002434
-0.008881
-0.008713
-0.007111
-0.007283
-0.007120
-0.008396
-0.008697
-0.008782
-0.008517
-0.009376
-0.007293
-0.000800
-0.005811
-0.006001
-0.005882
-0.008908
-0.009347
-0.009081
-0.009624
-0.009283
-0.009584
-0.009375
-0.009470
-0.006085
-0.005979
-0.000640
-0.000493
-0.000538
-0.008181
-0.007639
-0.004213
-0.003987
-0.009129
-0.009168
-0.009038
-0.006561
-0.006429
-0.008478
-0.008937
-0.008999
-0.008131
-0.007602
-0.007961
-0.008147
-0.001365
-0.001405
-0.001195
-0.008357
-0.008542
-0.009196
-0.009098
-0.008767
-0.009546
-0.006416
-0.004572
-0.004528
-0.008944
-0.009572
-0.009480
-0.009248
-0.009791
-0.009274
-0.009217
-0.002848
-0.002850
-0.002627
-0.007739
-0.000030
-0.000327
-0.000163
-0.000426
-0.008807
-0.008969
-0.009125
-0.008552
-0.007786
-0.007764
-0.007509
-0.007599
-0.007553
-0.007562
-0.007566
-0.009668
-0.007650
-0.007612
-0.007432
-0.000955
-0.007818
-0.007832
-0.007966
-0.008770
-0.002664
-0.000765
-0.000774
-0.000603
-0.009555
-0.009342
-0.009908
-0.008922
-0.008937
-0.009069
-0.008825
-0.008978
-0.009179
-0.008612
-0.009759
-0.001524
-0.001578
-0.007323
-0.007572
-0.002652
0.000175
0.000358
0.000371
-0.009502
-0.009407
-0.009208
-0.009118
-0.000217
-0.000062
-0.001645
-0.001520
-0.001637
-0.001804
-0.008158
-0.008140
-0.007975
-0.007395
-0.000427
-0.000530
-0.009576
-0.009372
-0.009983
-0.008729
-0.008932
-0.009160
-0.008656
-0.007405
-0.000964
-0.001126
-0.001832
-0.008765
-0.008613
-0.003442
-0.003306
-0.003489
-0.009755
-0.000941
-0.000737
-0.008770
-0.008944
-0.009361
-0.009917
-0.008179
-0.009024
0.000792
0.000617
-0.008593
-0.003684
-0.001371
-0.001577
-0.001409
-0.008704
-0.008891
-0.009127
-0.008613
-0.001459
-0.001305
-0.001399
-0.009319
-0.003346
-0.001583
-0.009119
-0.009012
-0.009419
-0.000291
-0.000129
-0.004149
-0.004005
-0.003983
-0.000515
-0.000645
-0.009723
-0.004179
-0.004112
-0.000294
-0.000074
-0.000266
-0.008193
-0.008346
-0.008225
-0.008411
-0.001459
-0.006191
0.000470
0.000667
-0.001297
-0.007818
-0.008005
-0.009298
-0.008691
-0.008226
-0.008412
-0.008830
-0.009048
-0.008419
-0.001128
0.000018
-0.002906
-0.002728
-0.002767
-0.008603
-0.002862
-0.006059
-0.005951
-0.006183
-0.001107
-0.000895
-0.001298
-0.008615
-0.008791
-0.008455
-0.009090
-0.009687
-0.009271
-0.002390
-0.002325
-0.002161
-0.002518
-0.001191
-0.009168
-0.008654
-0.008674
-0.008842
-0.000989
-0.008120
-0.008172
-0.007990
-0.008763
-0.008960
-0.008056
-0.008012
-0.007580
0.000144
-0.000483
-0.000502
-0.000321
-0.004322
-0.004474
-0.004285
-0.004395
0.000240
-0.000920
-0.000994
-0.009201
-0.008333
-0.003807
-0.003807
-0.003645
-0.009005
-0.008932
-0.009369
-0.000389
-0.007639
-0.007618
-0.000630
-0.000728
-0.000162
-0.003693
-0.003869
-0.003400
-0.003405
-0.003601
-0.007400
-0.007399
-0.007385
-0.003609
-0.007280
-0.001327
-0.007226
-0.007232
-0.008043
-0.008436
-0.001701
-0.008918
-0.002634
-0.002459
-0.002634
-0.001263
-0.002460
-0.001491
-0.008477
-0.002799
-0.002587
-0.008270
-0.002747
-0.005027
-0.004992
-0.005143
-0.007531
0.000239
-0.008470
-0.005462
-0.005255
-0.005368
-0.004874
-0.004112
-0.004050
-0.004212
-0.003292
-0.003114
-0.007674
-0.007868
-0.009238
-0.009170
-0.009008
-0.004156
-0.008706
-0.008706
-0.008094
-0.008288
-0.003431
-0.003260
-0.009020
-0.009208
-0.008541
-0.008721
-0.008898
-0.009049
-0.008817
-0.000346
-0.000437
-0.000267
-0.000522
-0.007427
0.000302
0.000300
0.000093
-0.007490
-0.007471
-0.007246
-0.007222
0.000095
-0.003667
-0.003503
-0.003661
-0.007225
-0.006230
-0.006368
-0.001363
-0.009703
-0.009587
-0.009511
-0.007077
-0.007090
-0.006396
-0.008924
-0.004902
-0.004880
-0.004690
-0.008644
-0.008816
-0.007905
-0.006521
-0.003607
-0.003823
-0.002208
-0.002357
-0.002232
-0.003868
-0.007026
-0.007033
-0.007176
-0.006841
-0.000737
-0.000647
0.000092
0.000363
-0.004115
-0.004261
-0.004310
-0.000778
-0.000984
-0.000813
-0.004480
-0.003515
-0.003153
-0.003303
-0.003149
-0.008268
-0.008477
-0.008540
-0.007532
-0.007714
-0.002976
-0.002811
-0.002997
-0.007520
-0.007404
-0.007556
-0.008859
-0.008345
-0.007962
-0.008148
-0.008436
-0.008627
-0.008623
-0.005163
-0.004974
-0.005113
-0.007347
-0.007304
-0.007279
-0.008240
-0.008341
-0.008365
-0.009262
-0.009387
-0.009445
-0.009186
-0.007107
-0.007078
-0.007240
-0.007444
-0.008206
-0.008141
-0.008023
-0.007074
-0.009385
-0.008555
-0.008725
-0.008460
-0.006937
0.000168
-0.006946
-0.007774
-0.007398
-0.007586
-0.001103
-0.001166
-0.001248
-0.008083
-0.008314
-0.007840
-0.008031
-0.008233
-0.008990
-0.008232
-0.008307
-0.008381
-0.008178
-0.008339
-0.008573
0.000066
-0.000037
-0.000116
-0.000291
-0.007212
-0.007162
-0.007133
-0.006967
-0.006963
-0.008795
-0.008746
-0.005267
-0.005058
-0.005090
-0.005114
-0.003405
-0.003171
-0.003289
-0.001469
-0.006937
-0.006789
-0.006802
-0.007651
-0.007270
-0.007461
-0.008308
-0.003598
-0.003786
-0.003621
-0.003260
-0.007736
-0.007910
-0.008115
-0.008224
-0.008474
-0.008656
-0.007080
-0.007026
-0.002762
-0.002596
-0.002712
-0.002600
-0.006987
-0.008516
-0.008395
-0.001331
-0.001172
-0.001349
-0.003472
-0.000466
-0.000609
-0.000402
-0.000232
-0.007660
-0.007766
-0.006816
-0.006814
-0.000248
-0.000024
-0.000244
-0.007895
-0.008084
-0.007876
-0.009162
-0.009089
-0.002782
-0.002850
-0.002741
-0.007141
-0.007255
-0.007091
-0.007227
-0.007145
-0.007337
-0.007531
-0.002899
-0.007634
-0.007786
-0.008133
-0.008074
-0.002423
-0.004025
-0.002308
-0.002386
-0.002125
-0.007991
-0.002403
-0.002301
-0.008111
-0.008374
-0.006951
-0.006890
-0.002090
-0.002045
-0.002292
-0.007694
-0.007682
-0.007490
-0.002477
-0.000571
-0.000472
-0.007898
-0.001801
-0.001634
-0.006843
-0.001923
-0.006983
-0.006663
-0.006639
-0.005627
-0.005413
-0.005660
-0.003579
-0.003487
-0.003848
-0.003738
-0.003899
-0.003625
-0.004510
-0.004495
-0.004668
-0.004631
-0.007852
-0.007363
-0.007440
-0.007617
-0.000979
-0.001067
-0.001290
-0.008207
-0.002002
-0.002115
-0.007022
-0.007219
-0.004778
-0.004750
-0.004911
-0.004883
-0.007425
-0.002838
-0.002794
-0.007564
-0.007832
-0.003685
-0.001394
-0.001209
-0.001214
-0.001971
-0.001969
-0.008950
-0.007742
-0.007759
-0.006825
-0.006756
-0.002529
-0.008060
-0.007939
-0.001513
-0.001733
-0.001514
-0.006702
-0.002456
-0.002438
-0.006510
-0.006473
-0.008573
-0.008386
-0.008257
-0.007203
-0.007410
-0.007386
-0.008963
-0.008646
-0.005228
-0.005014
-0.005078
-0.006904
-0.007103
-0.008058
-0.007936
-0.001278
-0.007314
-0.005889
-0.005786
-0.005981
-0.005878
-0.001700
-0.004487
-0.004551
-0.004689
-0.007759
-0.007607
-0.007750
-0.007551
-0.001942
-0.002098
-0.001911
-0.002147
-0.007463
-0.007716
-0.006899
-0.007021
-0.002560
-0.002677
-0.004649
-0.004752
-0.008646
-0.000295
-0.000441
-0.000494
-0.000705
-0.004583
-0.004632
-0.004759
-0.002926
-0.003107
-0.002889
0.000053
0.000055
-0.000135
-0.007150
-0.007308
-0.007292
-0.006702
-0.006626
-0.002255
-0.002053
-0.002149
-0.003166
0.000044
-0.000129
-0.006561
-0.006361
-0.006309
-0.006792
-0.006597
-0.006524
-0.006412
-0.006786
-0.006993
-0.002411
-0.002594
-0.002434
-0.003471
-0.003061
-0.003046
-0.007210
-0.007365
-0.007618
-0.006581
-0.006499
-0.002963
-0.004529
-0.004683
-0.004534
-0.006427
-0.004733
-0.002271
-0.002416
-0.002429
-0.006213
-0.006148
-0.006676
-0.006884
-0.006943
-0.006824
-0.007103
-0.007263
-0.007457
-0.000044
-0.000109
-0.000430
-0.000326
-0.008606
-0.008725
-0.008531
-0.006467
-0.006374
-0.006456
-0.006355
-0.006441
-0.000186
-0.000406
-0.000154
-0.000049
-0.000305
-0.000485
-0.000560
-0.002580
-0.006289
-0.006068
-0.005997
-0.002089
-0.001912
-0.003313
-0.003160
-0.003318
-0.003202
-0.006564
-0.006782
-0.007021
-0.006616
-0.007143
-0.007347
-0.006358
-0.006256
-0.002250
-0.002287
-0.002044
-0.000600
-0.000641
-0.000814
-0.002319
-0.002358
-0.004892
-0.004790
-0.005932
-0.006036
-0.007440
-0.007457
-0.007625
-0.006150
-0.005906
-0.005847
-0.004821
-0.007759
-0.007776
-0.007912
-0.000313
-0.000081
-0.006461
-0.006685
-0.002233
-0.002879
-0.002814
-0.003022
-0.006915
-0.007030
-0.002956
-0.003171
-0.007789
-0.007835
-0.001789
-0.001865
-0.003545
-0.006248
-0.006139
-0.007039
-0.006530
-0.006367
-0.006488
-0.006041
-0.005859
-0.008340
-0.008522
-0.006397
-0.006583
-0.001828
-0.008222
-0.008379
-0.007942
-0.008496
-0.008321
-0.006176
-0.006027
-0.000800
-0.004430
-0.004936
-0.007605
-0.004541
-0.004502
-0.004645
-0.005918
-0.005737
-0.004389
-0.004184
-0.007875
-0.007684
-0.007645
-0.006333
-0.006542
-0.004367
-0.001650
-0.001880
-0.005210
-0.005251
-0.005088
-0.002011
-0.008661
-0.003969
-0.005068
-0.005264
-0.005047
-0.004014
-0.007377
-0.007554
-0.005449
-0.005032
-0.005460
-0.005241
-0.006961
-0.006988
-0.006786
-0.005038
-0.005195
-0.006105
-0.005963
-0.007377
-0.005815
-0.005607
-0.006217
-0.006460
-0.006776
-0.006910
-0.008383
-0.001044
-0.000727
-0.001160
-0.001407
-0.000810
-0.000683
-0.000633
-0.007972
-0.004811
-0.004934
-0.004744
-0.004964
-0.004777
-0.007607
-0.007610
-0.007396
-0.003988
-0.003946
-0.004114
0.000121
0.000174
-0.000022
-0.006095
-0.003813
-0.005617
-0.005559
-0.005745
-0.005705
-0.005290
-0.005451
-0.005356
-0.005368
-0.002857
-0.009114
-0.009272
-0.009127
-0.001968
-0.001987
-0.002138
-0.005559
-0.002628
-0.002799
-0.002604
-0.002836
-0.002942
-0.005896
-0.000873
-0.000690
-0.000614
-0.003898
-0.008497
-0.008295
-0.008380
-0.008402
-0.000957
-0.004624
-0.004481
-0.004464
-0.004642
-0.002549
-0.002663
-0.002530
0.000095
-0.002746
-0.007669
-0.007782
-0.007802
-0.007942
-0.008915
-0.008711
-0.008083
-0.007968
-0.007771
-0.008656
-0.003539
-0.007081
-0.007234
-0.007077
-0.007186
-0.006857
-0.006736
-0.006747
-0.006902
-0.006920
-0.007068
-0.006913
-0.007112
-0.005776
-0.005624
-0.005796
-0.002524
-0.003081
-0.000620
-0.000369
-0.000484
-0.000491
-0.000364
-0.000558
-0.006028
-0.006196
-0.006080
-0.006274
-0.005588
-0.008908
-0.008930
-0.009088
-0.001834
-0.001963
-0.009056
-0.004986
-0.002670
-0.002747
-0.002558
-0.002743
-0.002512
-0.005252
-0.005444
-0.001816
-0.007937
-0.007734
-0.007833
-0.007674
-0.008358
-0.000031
-0.000071
-0.004318
-0.001011
-0.001053
-0.001174
-0.001344
-0.001125
-0.001237
-0.000868
-0.003614
-0.003488
-0.003653
-0.003515
-0.001829
-0.004048
-0.004235
-0.004200
-0.007531
-0.007406
-0.004796
-0.004897
-0.005010
-0.005067
-0.007510
-0.007601
-0.007454
-0.007622
-0.007717
-0.003114
-0.003283
-0.006002
-0.005926
-0.005820
-0.006059
-0.006229
-0.006337
-0.006396
-0.006042
-0.006107
-0.005966
-0.006219
-0.005414
-0.005238
-0.001065
-0.001290
-0.000969
-0.003502
-0.003642
-0.003731
-0.005378
-0.003476
-0.000804
-0.000960
-0.007244
-0.007444
-0.007327
-0.007379
-0.006395
-0.002919
-0.002921
-0.003601
-0.003785
-0.003868
-0.008411
-0.008454
-0.008207
-0.008331
-0.008149
-0.002203
-0.006373
-0.006147
-0.000224
-0.000116
-0.000021
-0.000282
-0.000416
-0.004359
-0.004471
-0.005108
-0.005272
-0.005146
-0.004656
-0.004461
-0.004632
-0.004890
-0.004422
-0.003659
-0.003736
-0.003533
-0.007488
-0.003593
-0.007411
-0.003894
-0.003753
-0.004050
-0.002488
-0.002381
-0.002380
-0.005342
-0.005337
-0.005185
-0.005507
-0.005381
-0.005535
-0.002870
-0.002700
-0.002660
-0.004483
-0.004478
-0.004304
-0.004356
-0.004877
-0.008617
-0.008473
-0.001980
-0.002089
-0.002202
-0.002047
-0.007280
-0.007212
-0.006816
-0.006952
-0.003181
-0.007584
-0.007501
-0.007683
-0.007773
-0.007863
-0.007958
-0.007236
-0.007421
-0.007186
-0.006617
-0.006791
-0.007095
-0.005866
-0.006056
-0.006029
-0.006214
-0.006370
-0.006484
-0.006321
-0.006572
-0.000669
-0.000788
-0.007630
-0.000195
-0.000931
-0.001038
-0.001166
-0.001258
-0.001386
-0.007734
-0.007652
-0.007794
-0.008515
-0.008415
-0.008576
-0.003522
-0.003470
-0.003658
-0.006297
-0.006463
-0.004529
-0.004317
-0.006117
-0.006234
-0.006100
-0.001458
-0.001643
-0.001464
-0.001703
-0.005686
-0.005883
-0.005736
-0.005827
-0.004034
-0.003876
-0.003720
-0.004207
-0.004155
-0.004292
-0.008271
-0.001215
-0.001077
-0.001257
-0.001067
-0.001379
-0.001146
-0.003179
-0.003071
-0.003078
-0.003238
-0.003094
-0.006020
-0.006086
-0.005943
-0.005963
-0.006189
-0.006068
-0.001681
-0.001629
-0.006230
-0.006332
-0.006379
0.000166
-0.000108
-0.006494
-0.003229
-0.003342
-0.003315
-0.006129
-0.000864
-0.001480
-0.001281
-0.001433
-0.001657
-0.001500
-0.001471
-0.000575
-0.000728
-0.000605
-0.000453
-0.007391
-0.007277
-0.004152
-0.004090
-0.003980
-0.004299
-0.003847
-0.003882
-0.003740
-0.008120
-0.008177
-0.008202
-0.002545
-0.002518
-0.002728
-0.004914
-0.005058
-0.008670
-0.008673
-0.004780
-0.006524
-0.006427
-0.006566
-0.006507
-0.006351
-0.006336
-0.006217
-0.008746
-0.008711
-0.008859
-0.008597
-0.008762
-0.008653
-0.009052
-0.008973
-0.009160
-0.009007
-0.005500
-0.005445
-0.003592
-0.005559
-0.005340
-0.008167
-0.008333
-0.006642
-0.006472
-0.006833
-0.006690
-0.008482
-0.008552
-0.008259
-0.008032
-0.008144
-0.006890
-0.006541
-0.001677