# vtk DataFile Version 2.0
Test
ASCII
DATASET POLYDATA
POINTS 6577 float
0.000000 0.000000 0.000000
2.000000 0.000000 0.000000
2.000000 4.000000 0.000000
0.000000 4.000000 0.000000
0.000000 0.500000 0.000000
1.500000 2.000000 0.000000
2.000000 2.500000 0.000000
0.040000 0.000000 0.000000
0.080000 0.000000 0.000000
0.120000 0.000000 0.000000
0.160000 0.000000 0.000000
0.200000 0.000000 0.000000
0.240000 0.000000 0.000000
0.280000 0.000000 0.000000
0.320000 0.000000 0.000000
0.360000 0.000000 0.000000
0.400000 0.000000 0.000000
0.440000 0.000000 0.000000
0.480000 0.000000 0.000000
0.520000 0.000000 0.000000
0.560000 0.000000 0.000000
0.600000 0.000000 0.000000
0.640000 0.000000 0.000000
0.680000 0.000000 0.000000
0.720000 0.000000 0.000000
0.760000 0.000000 0.000000
0.800000 0.000000 0.000000
0.840000 0.000000 0.000000
0.880000 0.000000 0.000000
0.920000 0.000000 0.000000
0.960000 0.000000 0.000000
1.000000 0.000000 0.000000
1.040000 0.000000 0.000000
1.080000 0.000000 0.000000
1.120000 0.000000 0.000000
1.160000 0.000000 0.000000
1.200000 0.000000 0.000000
1.240000 0.000000 0.000000
1.280000 0.000000 0.000000
1.320000 0.000000 0.000000
1.360000 0.000000 0.000000
1.400000 0.000000 0.000000
1.440000 0.000000 0.000000
1.480000 0.000000 0.000000
1.520000 0.000000 0.000000
1.560000 0.000000 0.000000
1.600000 0.000000 0.000000
1.640000 0.000000 0.000000
1.680000 0.000000 0.000000
1.720000 0.000000 0.000000
1.760000 0.000000 0.000000
1.800000 0.000000 0.000000
1.840000 0.000000 0.000000
1.880000 0.000000 0.000000
1.920000 0.000000 0.000000
1.960000 0.000000 0.000000
2.000000 0.039683 0.000000
2.000000 0.079365 0.000000
2.000000 0.119048 0.000000
2.000000 0.158730 0.000000
2.000000 0.198413 0.000000
2.000000 0.238095 0.000000
2.000000 0.277778 0.000000
2.000000 0.317460 0.000000
2.000000 0.357143 0.000000
2.000000 0.396825 0.000000
2.000000 0.436508 0.000000
2.000000 0.476190 0.000000
2.000000 0.515873 0.000000
2.000000 0.555556 0.000000
2.000000 0.595238 0.000000
2.000000 0.634921 0.000000
2.000000 0.674603 0.000000
2.000000 0.714286 0.000000
2.000000 0.753968 0.000000
2.000000 0.793651 0.000000
2.000000 0.833333 0.000000
2.000000 0.873016 0.000000
2.000000 0.912698 0.000000
2.000000 0.952381 0.000000
2.000000 0.992063 0.000000
2.000000 1.031746 0.000000
2.000000 1.071429 0.000000
2.000000 1.111111 0.000000
2.000000 1.150794 0.000000
2.000000 1.190476 0.000000
2.000000 1.230159 0.000000
2.000000 1.269841 0.000000
2.000000 1.309524 0.000000
2.000000 1.349206 0.000000
2.000000 1.388889 0.000000
2.000000 1.428571 0.000000
2.000000 1.468254 0.000000
2.000000 1.507937 0.000000
2.000000 1.547619 0.000000
2.000000 1.587302 0.000000
2.000000 1.626984 0.000000
2.000000 1.666667 0.000000
2.000000 1.706349 0.000000
2.000000 1.746032 0.000000
2.000000 1.785714 0.000000
2.000000 1.825397 0.000000
2.000000 1.865079 0.000000
2.000000 1.904762 0.000000
2.000000 1.944444 0.000000
2.000000 1.984127 0.000000
2.000000 2.023810 0.000000
2.000000 2.063492 0.000000
2.000000 2.103175 0.000000
2.000000 2.142857 0.000000
2.000000 2.182540 0.000000
2.000000 2.222222 0.000000
2.000000 2.261905 0.000000
2.000000 2.301587 0.000000
2.000000 2.341270 0.000000
2.000000 2.380952 0.000000
2.000000 2.420635 0.000000
2.000000 2.460317 0.000000
2.000000 2.539474 0.000000
2.000000 2.578947 0.000000
2.000000 2.618421 0.000000
2.000000 2.657895 0.000000
2.000000 2.697368 0.000000
2.000000 2.736842 0.000000
2.000000 2.776316 0.000000
2.000000 2.815789 0.000000
2.000000 2.855263 0.000000
2.000000 2.894737 0.000000
2.000000 2.934211 0.000000
2.000000 2.973684 0.000000
2.000000 3.013158 0.000000
2.000000 3.052632 0.000000
2.000000 3.092105 0.000000
2.000000 3.131579 0.000000
2.000000 3.171053 0.000000
2.000000 3.210526 0.000000
2.000000 3.250000 0.000000
2.000000 3.289474 0.000000
2.000000 3.328947 0.000000
2.000000 3.368421 0.000000
2.000000 3.407895 0.000000
2.000000 3.447368 0.000000
2.000000 3.486842 0.000000
2.000000 3.526316 0.000000
2.000000 3.565789 0.000000
2.000000 3.605263 0.000000
2.000000 3.644737 0.000000
2.000000 3.684211 0.000000
2.000000 3.723684 0.000000
2.000000 3.763158 0.000000
2.000000 3.802632 0.000000
2.000000 3.842105 0.000000
2.000000 3.881579 0.000000
2.000000 3.921053 0.000000
2.000000 3.960526 0.000000
1.960000 4.000000 0.000000
1.920000 4.000000 0.000000
1.880000 4.000000 0.000000
1.840000 4.000000 0.000000
1.800000 4.000000 0.000000
1.760000 4.000000 0.000000
1.720000 4.000000 0.000000
1.680000 4.000000 0.000000
1.640000 4.000000 0.000000
1.600000 4.000000 0.000000
1.560000 4.000000 0.000000
1.520000 4.000000 0.000000
1.480000 4.000000 0.000000
1.440000 4.000000 0.000000
1.400000 4.000000 0.000000
1.360000 4.000000 0.000000
1.320000 4.000000 0.000000
1.280000 4.000000 0.000000
1.240000 4.000000 0.000000
1.200000 4.000000 0.000000
1.160000 4.000000 0.000000
1.120000 4.000000 0.000000
1.080000 4.000000 0.000000
1.040000 4.000000 0.000000
1.000000 4.000000 0.000000
0.960000 4.000000 0.000000
0.920000 4.000000 0.000000
0.880000 4.000000 0.000000
0.840000 4.000000 0.000000
0.800000 4.000000 0.000000
0.760000 4.000000 0.000000
0.720000 4.000000 0.000000
0.680000 4.000000 0.000000
0.640000 4.000000 0.000000
0.600000 4.000000 0.000000
0.560000 4.000000 0.000000
0.520000 4.000000 0.000000
0.480000 4.000000 0.000000
0.440000 4.000000 0.000000
0.400000 4.000000 0.000000
0.360000 4.000000 0.000000
0.320000 4.000000 0.000000
0.280000 4.000000 0.000000
0.240000 4.000000 0.000000
0.200000 4.000000 0.000000
0.160000 4.000000 0.000000
0.120000 4.000000 0.000000
0.080000 4.000000 0.000000
0.040000 4.000000 0.000000
0.000000 3.960227 0.000000
0.000000 3.920455 0.000000
0.000000 3.880682 0.000000
0.000000 3.840909 0.000000
0.000000 3.801136 0.000000
0.000000 3.761364 0.000000
0.000000 3.721591 0.000000
0.000000 3.681818 0.000000
0.000000 3.642045 0.000000
0.000000 3.602273 0.000000
0.000000 3.562500 0.000000
0.000000 3.522727 0.000000
0.000000 3.482955 0.000000
0.000000 3.443182 0.000000
0.000000 3.403409 0.000000
0.000000 3.363636 0.000000
0.000000 3.323864 0.000000
0.000000 3.284091 0.000000
0.000000 3.244318 0.000000
0.000000 3.204545 0.000000
0.000000 3.164773 0.000000
0.000000 3.125000 0.000000
0.000000 3.085227 0.000000
0.000000 3.045455 0.000000
0.000000 3.005682 0.000000
0.000000 2.965909 0.000000
0.000000 2.926136 0.000000
0.000000 2.886364 0.000000
0.000000 2.846591 0.000000
0.000000 2.806818 0.000000
0.000000 2.767045 0.000000
0.000000 2.727273 0.000000
0.000000 2.687500 0.000000
0.000000 2.647727 0.000000
0.000000 2.607955 0.000000
0.000000 2.568182 0.000000
0.000000 2.528409 0.000000
0.000000 2.488636 0.000000
0.000000 2.448864 0.000000
0.000000 2.409091 0.000000
0.000000 2.369318 0.000000
0.000000 2.329545 0.000000
0.000000 2.289773 0.000000
0.000000 2.250000 0.000000
0.000000 2.210227 0.000000
0.000000 2.170455 0.000000
0.000000 2.130682 0.000000
0.000000 2.090909 0.000000
0.000000 2.051136 0.000000
0.000000 2.011364 0.000000
0.000000 1.971591 0.000000
0.000000 1.931818 0.000000
0.000000 1.892045 0.000000
0.000000 1.852273 0.000000
0.000000 1.812500 0.000000
0.000000 1.772727 0.000000
0.000000 1.732955 0.000000
0.000000 1.693182 0.000000
0.000000 1.653409 0.000000
0.000000 1.613636 0.000000
0.000000 1.573864 0.000000
0.000000 1.534091 0.000000
0.000000 1.494318 0.000000
0.000000 1.454545 0.000000
0.000000 1.414773 0.000000
0.000000 1.375000 0.000000
0.000000 1.335227 0.000000
0.000000 1.295455 0.000000
0.000000 1.255682 0.000000
0.000000 1.215909 0.000000
0.000000 1.176136 0.000000
0.000000 1.136364 0.000000
0.000000 1.096591 0.000000
0.000000 1.056818 0.000000
0.000000 1.017045 0.000000
0.000000 0.977273 0.000000
0.000000 0.937500 0.000000
0.000000 0.897727 0.000000
0.000000 0.857955 0.000000
0.000000 0.818182 0.000000
0.000000 0.778409 0.000000
0.000000 0.738636 0.000000
0.000000 0.698864 0.000000
0.000000 0.659091 0.000000
0.000000 0.619318 0.000000
0.000000 0.579545 0.000000
0.000000 0.539773 0.000000
0.000000 0.461538 0.000000
0.000000 0.423077 0.000000
0.000000 0.384615 0.000000
0.000000 0.346154 0.000000
0.000000 0.307692 0.000000
0.000000 0.269231 0.000000
0.000000 0.230769 0.000000
0.000000 0.192308 0.000000
0.000000 0.153846 0.000000
0.000000 0.115385 0.000000
0.000000 0.076923 0.000000
0.000000 0.038462 0.000000
0.027778 0.527778 0.000000
0.055556 0.555556 0.000000
0.083333 0.583333 0.000000
0.111111 0.611111 0.000000
0.138889 0.638889 0.000000
0.166667 0.666667 0.000000
0.194444 0.694444 0.000000
0.222222 0.722222 0.000000
0.250000 0.750000 0.000000
0.277778 0.777778 0.000000
0.305556 0.805556 0.000000
0.333333 0.833333 0.000000
0.361111 0.861111 0.000000
0.388889 0.888889 0.000000
0.416667 0.916667 0.000000
0.444444 0.944444 0.000000
0.472222 0.972222 0.000000
0.500000 1.000000 0.000000
0.527778 1.027778 0.000000
0.555556 1.055556 0.000000
0.583333 1.083333 0.000000
0.611111 1.111111 0.000000
0.638889 1.138889 0.000000
0.666667 1.166667 0.000000
0.694444 1.194444 0.000000
0.722222 1.222222 0.000000
0.750000 1.250000 0.000000
0.777778 1.277778 0.000000
0.805556 1.305556 0.000000
0.833333 1.333333 0.000000
0.861111 1.361111 0.000000
0.888889 1.388889 0.000000
0.916667 1.416667 0.000000
0.944444 1.444444 0.000000
0.972222 1.472222 0.000000
1.000000 1.500000 0.000000
1.027778 1.527778 0.000000
1.055556 1.555556 0.000000
1.083333 1.583333 0.000000
1.111111 1.611111 0.000000
1.138889 1.638889 0.000000
1.166667 1.666667 0.000000
1.194444 1.694444 0.000000
1.222222 1.722222 0.000000
1.250000 1.750000 0.000000
1.277778 1.777778 0.000000
1.305556 1.805556 0.000000
1.333333 1.833333 0.000000
1.361111 1.861111 0.000000
1.388889 1.888889 0.000000
1.416667 1.916667 0.000000
1.444444 1.944444 0.000000
1.472222 1.972222 0.000000
1.527778 2.027778 0.000000
1.555556 2.055556 0.000000
1.583333 2.083333 0.000000
1.611111 2.111111 0.000000
1.638889 2.138889 0.000000
1.666667 2.166667 0.000000
1.694444 2.194444 0.000000
1.722222 2.222222 0.000000
1.750000 2.250000 0.000000
1.777778 2.277778 0.000000
1.805556 2.305556 0.000000
[...]
POINT_DATA 6577
SCALARS UX float 1
LOOKUP_TABLE default
-0.000012
0.000039
0.000625
-0.145950
-0.077917
-0.009746
0.016188
0.000000
-0.000001
-0.000001
0.000001
0.000002
-0.000007
0.000001
0.000001
0.000001
-0.000000
0.000001
0.000000
0.000001
0.000001
-0.000000
0.000001
0.000001
0.000001
0.000000
-0.000000
-0.000001
0.000000
-0.000000
0.000001
0.000000
0.000000
-0.000000
0.000000
0.000000
-0.000000
0.000000
0.000000
-0.000001
0.000001
0.000000
-0.000001
0.000001
0.000001
-0.000001
-0.000002
-0.000000
-0.000000
-0.000003
0.000002
-0.000003
0.000003
0.000003
-0.000017
0.000011
0.014161
0.022114
0.028611
0.034461
0.038455
0.042948
0.047624
0.050788
0.053438
0.056288
0.059092
0.061193
0.063402
0.065167
0.067388
0.068438
0.070577
0.071805
0.072578
0.073682
0.074730
0.075771
0.076574
0.077441
0.077831
0.078668
0.078511
0.079417
0.079244
0.079535
0.079476
0.078944
0.079226
0.079136
0.078524
0.077854
0.077743
0.077442
0.076733
0.075829
0.074761
0.074296
0.072994
0.071839
0.069950
0.067305
0.064656
0.061664
0.058184
0.055076
0.052008
0.047699
0.043321
0.040127
0.036683
0.032256
0.028588
0.025203
0.022874
0.021367
0.019747
0.016702
0.013976
0.012573
0.011755
0.009702
0.009830
0.008878
0.007316
0.006465
0.006219
0.005607
0.005430
0.004378
0.003979
0.004122
0.003566
0.003949
0.003086
0.003789
0.002746
0.001920
0.002162
0.001980
0.001834
0.001875
0.002170
0.002004
0.001240
0.001201
0.000752
0.001167
0.000520
0.000684
0.000545
0.000584
0.000984
0.000781
0.000846
-0.002337
-0.005317
-0.008325
-0.011478
-0.014474
-0.017677
-0.021238
-0.024183
-0.027318
-0.030291
-0.033288
-0.036388
-0.039399
-0.042190
-0.045372
-0.048321
-0.051477
-0.054267
-0.056930
-0.059949
-0.062709
-0.065712
-0.068813
-0.071739
-0.074671
-0.077783
-0.080400
-0.083413
-0.086311
-0.089417
-0.092275
-0.095155
-0.097874
-0.100439
-0.103468
-0.106323
-0.109131
-0.112039
-0.114776
-0.117543
-0.120383
-0.123502
-0.126058
-0.128830
-0.131805
-0.134716
-0.137537
-0.140279
-0.143274
-0.146021
-0.145645
-0.145656
-0.145567
-0.145410
-0.144974
-0.144878
-0.144655
-0.144439
-0.144403
-0.144187
-0.143937
-0.144088
-0.143680
-0.142804
-0.142565
-0.142207
-0.141852
-0.142426
-0.141629
-0.141332
-0.140772
-0.140455
-0.140023
-0.139554
-0.138907
-0.138742
-0.138806
-0.138642
-0.137925
-0.137430
-0.137535
-0.137180
-0.136760
-0.136308
-0.135948
-0.135656
-0.135061
-0.135272
-0.135262
-0.134891
-0.134967
-0.134719
-0.134850
-0.134567
-0.134384
-0.134389
-0.134467
-0.133774
-0.134088
-0.134361
-0.134383
-0.134839
-0.134881
-0.135123
-0.135992
-0.136396
-0.136477
-0.137839
-0.137771
-0.138428
-0.139057
-0.139752
-0.140668
-0.141898
-0.142319
-0.143221
-0.144157
-0.145156
-0.146496
-0.146845
-0.147167
-0.147821
-0.148195
-0.147917
-0.147224
-0.146010
-0.144086
-0.141757
-0.138022
-0.134381
-0.131430
-0.128834
-0.128045
-0.118128
-0.106468
-0.089359
-0.051929
-0.052193
-0.049198
-0.046544
-0.043776
-0.040920
-0.038263
-0.035361
-0.030609
-0.026041
-0.019711
-0.012812
-0.069983
-0.072287
-0.072367
-0.082562
-0.074192
-0.049103
-0.078911
-0.063599
-0.069557
-0.072564
-0.066230
-0.073000
-0.061013
-0.059681
-0.045769
-0.049498
-0.051720
-0.050983
-0.046607
-0.056116
-0.073642
-0.058890
-0.052935
-0.065944
-0.058701
-0.062164
-0.032650
-0.044852
-0.047518
-0.056362
-0.038713
-0.048099
-0.036589
-0.031744
-0.058368
-0.039241
-0.036732
-0.032666
-0.034313
-0.030831
-0.022839
-0.025938
-0.011110
-0.021438
-0.024649
-0.017290
-0.013573
-0.012134
-0.017377
-0.018034
-0.004596
-0.009299
-0.007174
-0.003207
-0.001041
0.001208
0.001473
0.002160
0.003790
0.003927
0.004067
0.005114
0.005166
0.006395
0.006831
0.008109
0.009049
0.010597
0.012783
0.014192
0.010711
0.009757
-0.143923
-0.143755
-0.001726
-0.002072
0.011634
0.011507
0.007956
0.006595
0.004918
-0.027229
-0.029428
-0.029841
-0.053730
-0.052662
-0.050491
-0.031568
-0.106933
-0.104566
-0.105177
-0.035777
-0.033734
-0.032869
-0.131502
-0.132523
-0.130032
-0.134061
-0.136936
-0.135975
-0.035960
-0.015825
-0.013234
-0.014410
-0.035898
-0.038284
-0.035144
-0.132027
-0.131519
-0.129540
-0.106974
-0.044784
-0.044792
-0.047410
-0.047792
-0.050120
-0.050742
-0.038835
-0.037641
-0.040451
-0.038953
-0.107923
-0.110711
-0.109321
-0.109895
-0.106128
-0.108840
-0.107233
-0.110017
-0.041862
-0.038861
-0.041234
-0.048347
-0.072701
-0.072406
-0.070265
0.003772
0.005063
-0.068706
-0.118542
-0.118614
-0.115780
-0.121625
-0.111467
-0.111267
-0.108517
-0.071226
-0.073396
-0.073433
-0.071293
-0.025848
-0.024790
-0.021620
-0.022481
-0.102665
-0.105595
-0.105035
-0.103357
-0.053835
-0.051015
-0.053118
-0.106934
-0.103476
-0.103558
0.003485
0.006619
0.003180
0.005699
0.004049
0.006286
0.002173
-0.113045
-0.115579
-0.115594
-0.032721
-0.035006
-0.034754
-0.037683
-0.052076
-0.134012
-0.136567
-0.134667
-0.084382
-0.082280
-0.082386
-0.085453
-0.116247
-0.118673
-0.116151
-0.118535
-0.109949
-0.108542
-0.111357
-0.073045
-0.073590
-0.075881
-0.016877
-0.019377
-0.018430
-0.016793
-0.012066
-0.010220
0.004612
-0.080424
-0.079111
-0.081578
-0.082352
-0.084064
-0.084395
-0.105301
-0.101911
-0.108714
-0.109386
-0.106568
-0.123923
-0.122781
-0.121917
-0.111383
-0.071617
-0.074770
-0.071560
-0.129065
-0.127885
-0.130028
-0.108039
-0.089887
-0.088827
-0.091812
-0.074026
-0.071861
-0.073912
-0.112945
-0.116657
-0.122903
-0.011433
-0.007407
-0.011631
-0.007721
-0.040854
-0.042285
-0.042899
-0.045067
0.006062
0.007375
-0.065999
-0.064649
-0.066632
-0.063207
-0.131887
-0.134434
-0.133120
-0.080098
-0.077475
-0.079314
-0.083246
-0.086430
-0.083727
-0.078099
-0.136148
-0.102702
-0.099628
-0.100921
-0.100853
-0.102948
-0.103962
-0.106473
-0.101469
-0.134828
-0.134059
-0.086420
-0.084965
-0.087757
-0.131632
-0.132496
-0.065658
-0.063983
-0.067612
-0.126076
-0.129005
-0.127351
-0.131005
-0.128984
-0.128155
-0.120711
-0.123895
-0.122431
-0.126110
-0.117352
-0.120510
-0.119012
-0.062120
-0.063576
-0.044316
-0.063086
-0.133625
-0.136576
-0.134812
-0.137288
-0.142058
-0.141741
-0.004397
-0.004784
-0.032901
-0.032583
-0.029458
-0.035299
-0.094725
-0.094462
-0.092375
-0.114722
-0.117704
-0.116900
-0.091553
-0.036560
-0.035126
-0.037551
-0.118630
-0.120017
-0.139213
-0.138654
-0.137349
-0.069974
-0.067760
-0.003911
-0.004456
-0.000159
-0.000453
-0.118521
-0.121257
-0.120843
-0.123313
-0.137455
-0.134981
-0.137434
-0.133911
-0.125818
-0.128091
-0.125013
-0.131589
-0.129998
-0.143136
-0.144664
-0.145271
-0.125706
-0.126046
-0.130449
-0.133520
-0.130757
-0.118673
-0.118046
-0.010274
-0.006863
-0.121302
-0.124934
-0.123506
-0.136073
-0.110191
-0.112950
-0.110508
-0.127234
-0.126624
-0.022271
-0.023695
-0.025213
-0.020630
-0.032956
-0.030040
-0.031017
-0.078745
-0.079618
-0.081521
-0.066103
-0.065697
-0.019561
-0.017164
-0.017903
-0.077614
-0.069737
-0.070948
-0.071904
-0.136231
-0.139308
-0.136504
-0.116656
-0.117275
-0.114896
-0.027260
-0.120950
-0.123720
-0.120528
-0.115001
-0.114801
-0.118507
-0.118967
-0.123887
-0.024881
-0.118656
-0.096921
-0.110922
-0.113565
-0.112759
-0.112205
-0.111920
-0.133120
-0.134216
-0.129020
-0.137323
-0.113943
-0.112802
-0.115299
-0.006629
-0.004454
-0.115461
-0.116237
-0.116387
-0.112704
-0.112470
-0.105626
-0.143426
-0.136070
-0.133520
-0.134887
-0.131821
-0.132432
-0.001963
-0.100394
-0.097882
-0.140443
-0.139958
-0.109729
-0.109535
-0.005982
-0.004761
-0.073688
-0.070325
-0.122083
-0.041804
-0.041548
-0.040022
-0.038772
-0.130641
-0.128071
-0.107127
-0.109603
-0.107400
-0.123053
-0.125561
-0.127508
-0.122282
-0.136340
-0.109797
-0.012892
-0.089024
-0.091780
-0.089840
-0.133639
-0.135700
-0.132089
-0.139931
-0.139353
-0.140302
-0.137504
-0.139242
-0.093035
-0.091335
-0.010616
-0.008170
-0.009201
-0.117519
-0.109009
-0.065407
-0.062085
-0.136951
-0.137460
-0.135411
-0.098721
-0.096822
-0.121432
-0.129583
-0.130809
-0.111200
-0.108260
-0.117221
-0.120097
-0.020963
-0.021723
-0.018366
-0.123415
-0.125524
-0.135201
-0.133944
-0.129501
-0.138653
-0.096510
-0.071158
-0.069556
-0.131631
-0.143556
-0.137336
-0.133937
-0.142113
-0.139067
-0.138471
-0.045886
-0.045304
-0.042298
-0.113209
-0.001942
-0.006188
-0.003872
-0.008054
-0.128416
-0.129533
-0.132013
-0.122491
-0.114427
-0.113736
-0.107447
-0.108717
-0.109369
-0.110418
-0.110327
-0.140192
-0.116680
-0.115757
-0.113104
-0.014895
-0.119362
-0.119278
-0.121662
-0.131409
-0.043367
-0.012408
-0.012570
-0.009907
-0.138427
-0.135040
-0.143731
-0.133884
-0.133962
-0.136378
-0.126978
-0.129501
-0.132779
-0.122706
-0.141421
-0.023921
-0.024340
-0.104316
-0.107694
-0.042845
-0.001119
0.001323
0.001463
-0.142267
-0.141293
-0.138119
-0.136710
-0.004683
-0.002086
-0.025344
-0.023438
-0.025734
-0.027917
-0.122564
-0.122154
-0.119469
-0.106948
-0.007393
-0.009028
-0.138448
-0.135548
-0.144686
-0.126425
-0.129022
-0.132390
-0.125827
-0.106850
-0.015188
-0.017382
-0.028668
-0.131465
-0.129215
-0.052419
-0.050070
-0.052811
-0.141174
-0.015245
-0.011893
-0.131760
-0.134196
-0.135357
-0.143672
-0.120954
-0.132688
0.008474
0.005389
-0.126790
-0.055449
-0.023871
-0.026668
-0.024360
-0.125762
-0.127907
-0.131689
-0.122928
-0.022358
-0.020732
-0.021890
-0.139474
-0.050456
-0.026835
-0.136664
-0.135056
-0.140864
-0.005490
-0.003440
-0.064329
-0.062075
-0.061651
-0.008706
-0.011057
-0.140453
-0.064825
-0.063480
-0.008586
-0.004861
-0.006637
-0.123152
-0.125339
-0.123711
-0.126450
-0.023044
-0.093216
0.004497
0.007410
-0.020093
-0.115234
-0.118118
-0.139739
-0.124393
-0.121628
-0.124286
-0.127025
-0.130657
-0.120898
-0.018008
-0.004172
-0.046188
-0.044349
-0.044185
-0.129132
-0.046157
-0.092669
-0.091197
-0.094717
-0.017490
-0.014435
-0.020249
-0.129242
-0.131855
-0.126801
-0.133864
-0.140188
-0.136281
-0.039109
-0.038317
-0.036318
-0.041582
-0.018584
-0.132290
-0.127799
-0.124539
-0.130205
-0.015647
-0.121743
-0.122761
-0.120007
-0.126258
-0.129286
-0.121224
-0.120733
-0.111005
0.000770
-0.009157
-0.009721
-0.006651
-0.066098
-0.068296
-0.065674
-0.067436
0.000464
-0.014658
-0.015915
-0.137664
-0.125042
-0.058629
-0.058351
-0.056046
-0.135011
-0.133840
-0.140033
-0.007280
-0.112682
-0.111933
-0.010607
-0.011932
-0.003878
-0.057518
-0.059918
-0.053856
-0.053751
-0.056484
-0.108238
-0.107945
-0.107478
-0.055912
-0.104059
-0.020498
-0.104880
-0.104591
-0.118878
-0.126677
-0.026430
-0.131765
-0.040614
-0.038008
-0.040528
-0.019842
-0.037678
-0.022966
-0.127058
-0.042848
-0.039848
-0.124121
-0.041848
-0.076486
-0.075671
-0.077899
-0.114889
0.001057
-0.125691
-0.081555
-0.078383
-0.080382
-0.073802
-0.064197
-0.062980
-0.065650
-0.049641
-0.047143
-0.113713
-0.116580
-0.138300
-0.137420
-0.134885
-0.064668
-0.131931
-0.132336
-0.119771
-0.122942
-0.051877
-0.049178
-0.133515
-0.135548
-0.126779
-0.128987
-0.133368
-0.135576
-0.132275
-0.006636
-0.007999
-0.005229
-0.009195
-0.109141
0.002188
0.001336
-0.001606
-0.110944
-0.109969
-0.106511
-0.105782
-0.001002
-0.056409
-0.053853
-0.056227
-0.105337
-0.095239
-0.097471
-0.021630
-0.141251
-0.139126
-0.138132
-0.103167
-0.102645
-0.097762
-0.133778
-0.075558
-0.075174
-0.072385
-0.129803
-0.131928
-0.116914
-0.099749
-0.056725
-0.059698
-0.033644
-0.036411
-0.034546
-0.060246
-0.106733
-0.106714
-0.108914
-0.103858
-0.011928
-0.010730
-0.002714
0.001000
-0.063958
-0.066413
-0.066747
-0.012909
-0.015562
-0.013443
-0.069585
-0.054236
-0.048430
-0.050589
-0.048185
-0.124219
-0.127110
-0.127988
-0.111841
-0.114328
-0.045728
-0.043496
-0.046202
-0.112975
-0.111359
-0.113477
-0.131390
-0.123809
-0.118387
-0.120818
-0.125533
-0.128362
-0.129767
-0.078920
-0.076137
-0.078458
-0.109082
-0.108030
-0.107285
-0.125530
-0.127165
-0.127917
-0.139059
-0.140625
-0.141852
-0.137801
-0.104621
-0.104031
-0.110011
-0.112902
-0.125092
-0.124033
-0.122581
-0.103636
-0.140908
-0.128138
-0.131010
-0.126642
-0.101278
-0.000555
-0.100790
-0.115636
-0.109951
-0.112768
-0.017849
-0.018420
-0.020033
-0.123206
-0.126685
-0.117020
-0.119746
-0.122726
-0.134651
-0.123572
-0.124892
-0.125939
-0.122828
-0.124426
-0.127654
-0.000266
-0.001407
-0.003139
-0.005782
-0.107524
-0.106344
-0.105719
-0.103208
-0.102633
-0.131596
-0.130993
-0.080299
-0.077490
-0.077440
-0.078279
-0.051309
-0.047722
-0.049744
-0.022919
-0.101770
-0.099471
-0.098794
-0.113965
-0.108301
-0.111258
-0.124717
-0.055845
-0.058739
-0.056450
-0.048944
-0.115539
-0.117955
-0.121065
-0.122689
-0.126335
-0.129471
-0.105506
-0.104801
-0.041803
-0.039380
-0.041005
-0.039713
-0.103684
-0.127874
-0.125559
-0.021145
-0.018860
-0.021320
-0.052161
-0.009857
-0.012011
-0.009069
-0.006569
-0.116428
-0.118147
-0.101194
-0.100640
-0.007284
-0.004385
-0.008248
-0.118656
-0.121362
-0.118406
-0.137360
-0.136352
-0.041845
-0.043020
-0.042081
-0.107277
-0.108862
-0.106352
-0.108814
-0.106934
-0.109840
-0.112556
-0.043958
-0.114379
-0.116717
-0.122078
-0.121297
-0.039488
-0.062614
-0.035570
-0.036719
-0.033193
-0.119703
-0.039422
-0.037775
-0.120908
-0.124892
-0.103955
-0.102963
-0.032298
-0.031676
-0.035481
-0.115660
-0.115842
-0.112751
-0.040504
-0.010001
-0.008494
-0.118368
-0.028027
-0.025387
-0.102019
-0.029854
-0.104908
-0.099274
-0.098764
-0.086459
-0.082988
-0.086675
-0.053908
-0.052896
-0.058121
-0.056279
-0.058709
-0.054778
-0.069703
-0.069432
-0.072257
-0.071662
-0.118327
-0.110710
-0.111739
-0.114530
-0.016204
-0.017324
-0.020597
-0.123025
-0.033216
-0.034848
-0.105239
-0.108163
-0.073494
-0.073601
-0.075699
-0.075244
-0.111020
-0.043250
-0.042368
-0.113622
-0.117160
-0.057208
-0.022775
-0.020085
-0.020079
-0.031077
-0.030476
-0.134373
-0.116376
-0.116249
-0.102272
-0.101160
-0.039019
-0.121158
-0.119212
-0.024036
-0.026997
-0.023975
-0.100021
-0.037282
-0.037111
-0.097430
-0.096483
-0.128565
-0.125850
-0.123671
-0.108379
-0.111237
-0.110957
-0.134320
-0.130100
-0.078788
-0.075428
-0.076579
-0.103811
-0.106523
-0.121234
-0.119468
-0.020684
-0.109942
-0.088885
-0.087062
-0.090018
-0.088450
-0.026783
-0.069513
-0.070405
-0.072457
-0.116300
-0.114113
-0.116111
-0.113557
-0.029891
-0.032184
-0.029237
-0.033134
-0.111979
-0.115558
-0.103572
-0.105750
-0.038949
-0.040985
-0.072089
-0.073499
-0.129504
-0.005866
-0.007880
-0.009089
-0.011528
-0.069473
-0.069812
-0.071819
-0.046786
-0.049248
-0.046087
-0.001117
-0.000995
-0.003878
-0.107608
-0.109817
-0.109719
-0.100999
-0.099732
-0.035420
-0.031989
-0.033569
-0.050345
-0.000139
-0.003084
-0.098723
-0.095462
-0.094376
-0.102190
-0.100814
-0.099808
-0.098195
-0.102217
-0.105114
-0.037406
-0.039801
-0.038067
-0.052441
-0.048565
-0.048390
-0.108244
-0.110433
-0.114190
-0.099555
-0.098073
-0.046911
-0.070346
-0.072524
-0.069822
-0.096743
-0.072908
-0.037381
-0.039147
-0.039565
-0.093791
-0.092369
-0.101136
-0.103733
-0.104630
-0.102905
-0.106650
-0.109417
-0.112088
-0.003962
-0.006324
-0.010993
-0.008958
-0.129334
-0.130748
-0.128127
-0.098040
-0.096469
-0.097261
-0.095800
-0.097046
-0.004383
-0.007547
-0.006032
-0.004038
-0.008432
-0.010323
-0.012362
-0.041685
-0.095173
-0.091551
-0.090568
-0.034881
-0.031987
-0.050836
-0.048623
-0.051195
-0.049426
-0.099892
-0.102983
-0.106052
-0.099678
-0.108039
-0.110607
-0.096657
-0.094543
-0.034581
-0.035334
-0.031713
-0.010036
-0.010998
-0.013386
-0.037815
-0.038371
-0.074853
-0.073515
-0.089324
-0.090937
-0.111868
-0.112075
-0.114846
-0.093255
-0.089887
-0.088605
-0.074213
-0.117400
-0.117038
-0.119326
-0.007391
-0.003922
-0.098347
-0.101354
-0.036737
-0.046028
-0.045463
-0.048393
-0.105011
-0.106476
-0.047328
-0.050583
-0.117410
-0.118141
-0.027920
-0.029363
-0.053639
-0.095072
-0.093133
-0.106068
-0.098471
-0.095793
-0.097421
-0.091556
-0.088644
-0.124950
-0.127934
-0.097096
-0.100010
-0.028069
-0.123463
-0.125708
-0.119350
-0.127320
-0.124839
-0.093982
-0.091548
-0.013516
-0.068635
-0.074785
-0.115002
-0.070240
-0.068880
-0.071224
-0.089762
-0.087238
-0.068031
-0.064598
-0.118650
-0.115879
-0.115295
-0.096335
-0.099444
-0.067604
-0.026270
-0.029416
-0.079924
-0.080908
-0.078119
-0.031502
-0.131068
-0.061824
-0.076908
-0.080137
-0.077523
-0.062081
-0.111500
-0.114048
-0.080283
-0.074913
-0.081379
-0.077755
-0.106020
-0.106463
-0.103370
-0.077709
-0.079956
-0.092861
-0.090729
-0.111968
-0.088296
-0.085137
-0.094725
-0.098267
-0.103265
-0.105070
-0.126008
-0.019921
-0.014851
-0.021532
-0.025288
-0.014441
-0.012356
-0.011692
-0.119938
-0.074391
-0.075650
-0.073259
-0.075953
-0.073113
-0.115736
-0.115972
-0.112741
-0.062357
-0.061603
-0.064318
0.000219
0.001220
-0.001983
-0.092837
-0.059712
-0.084610
-0.083827
-0.086799
-0.085908
-0.081051
-0.083403
-0.081525
-0.081730
-0.043773
-0.136640
-0.139224
-0.136902
-0.031874
-0.032198
-0.034541
-0.084720
-0.042574
-0.044623
-0.042333
-0.045271
-0.046989
-0.088657
-0.017047
-0.014003
-0.013433
-0.060915
-0.128358
-0.125251
-0.126737
-0.126852
-0.017689
-0.071440
-0.069186
-0.069486
-0.071996
-0.039533
-0.040933
-0.038801
-0.003126
-0.042089
-0.116951
-0.118311
-0.118922
-0.120991
-0.134952
-0.132019
-0.122329
-0.120657
-0.117888
-0.130891
-0.053917
-0.106666
-0.109124
-0.106780
-0.108410
-0.103571
-0.101700
-0.101432
-0.103824
-0.105378
-0.107645
-0.105529
-0.108625
-0.088610
-0.086330
-0.088864
-0.040559
-0.045174
-0.012710
-0.008552
-0.010618
-0.010393
-0.008381
-0.011218
-0.090788
-0.093516
-0.092037
-0.094633
-0.085843
-0.134028
-0.134427
-0.136577
-0.030490
-0.032465
-0.136201
-0.075364
-0.043030
-0.044201
-0.041547
-0.044126
-0.040709
-0.080086
-0.083081
-0.030350
-0.119244
-0.116503
-0.117776
-0.115407
-0.126757
-0.004489
-0.004619
-0.065167
-0.016533
-0.017338
-0.019134
-0.024203
-0.020876
-0.022136
-0.014561
-0.056799
-0.054763
-0.057344
-0.055212
-0.029552
-0.061358
-0.064057
-0.063633
-0.114511
-0.112965
-0.074043
-0.075542
-0.077259
-0.077992
-0.114813
-0.116135
-0.114051
-0.116485
-0.117978
-0.047483
-0.050026
-0.091814
-0.090993
-0.089152
-0.093007
-0.095104
-0.097087
-0.097461
-0.091696
-0.092794
-0.090666
-0.094186
-0.083133
-0.080658
-0.019441
-0.022797
-0.018328
-0.053746
-0.055440
-0.056678
-0.074353
-0.053330
-0.013691
-0.016570
-0.110071
-0.112826
-0.111117
-0.111923
-0.089180
-0.044271
-0.044778
-0.054625
-0.057270
-0.058679
-0.126517
-0.127501
-0.123304
-0.125136
-0.122377
-0.033865
-0.097561
-0.094384
-0.005796
-0.004373
-0.002726
-0.006445
-0.008701
-0.066020
-0.067414
-0.077028
-0.079602
-0.077825
-0.071581
-0.068982
-0.071426
-0.074450
-0.068580
-0.056982
-0.058297
-0.055099
-0.112787
-0.056418
-0.112586
-0.060753
-0.058535
-0.063154
-0.038412
-0.036677
-0.036942
-0.081927
-0.082165
-0.079741
-0.084640
-0.082648
-0.084888
-0.045518
-0.043152
-0.042727
-0.069098
-0.068857
-0.066474
-0.067569
-0.075150
-0.130927
-0.128846
-0.031176
-0.032677
-0.034179
-0.031642
-0.111098
-0.110087
-0.103571
-0.105635
-0.049500
-0.115014
-0.113740
-0.115998
-0.117552
-0.119081
-0.120521
-0.110011
-0.112924
-0.109209
-0.100052
-0.102436
-0.108273
-0.090184
-0.092913
-0.092502
-0.095100
-0.097067
-0.098802
-0.096402
-0.099933
-0.014091
-0.016232
-0.115364
-0.007181
-0.015222
-0.016854
-0.018972
-0.020641
-0.022094
-0.117258
-0.115999
-0.118132
-0.128949
-0.127425
-0.129652
-0.055046
-0.054276
-0.057330
-0.095809
-0.098209
-0.070137
-0.067103
-0.093099
-0.095202
-0.093000
-0.024764
-0.027072
-0.024445
-0.027645
-0.085898
-0.088917
-0.086875
-0.087459
-0.062817
-0.060362
-0.058037
-0.065157
-0.064282
-0.066420
-0.126430
-0.021437
-0.019865
-0.022140
-0.019528
-0.023239
-0.019993
-0.048696
-0.046957
-0.046670
-0.049646
-0.047557
-0.090865
-0.091687
-0.089715
-0.089677
-0.093181
-0.091296
-0.028551
-0.027357
-0.094162
-0.095440
-0.096191
0.000443
-0.003566
-0.098158
-0.049633
-0.051411
-0.050960
-0.092472
-0.015219
-0.025356
-0.022651
-0.024803
-0.028087
-0.025518
-0.025427
-0.010670
-0.013202
-0.011199
-0.009186
-0.111728
-0.110509
-0.062997
-0.062103
-0.060313
-0.065302
-0.057920
-0.058974
-0.056499
-0.122842
-0.123805
-0.123917
-0.041158
-0.040530
-0.043379
-0.075786
-0.077824
-0.131974
-0.132280
-0.073640
-0.098236
-0.096868
-0.098974
-0.098420
-0.095851
-0.095762
-0.093924
-0.131720
-0.131469
-0.133674
-0.129253
-0.131892
-0.130250
-0.135987
-0.134751
-0.137602
-0.135730
-0.082801
-0.082203
-0.055241
-0.083705
-0.080421
-0.122401
-0.125079
-0.100429
-0.097666
-0.103036
-0.100734
-0.128485
-0.129485
-0.125148
-0.121880
-0.123206
-0.103961