# vtk DataFile Version 2.0
Test
ASCII
DATASET POLYDATA
POINTS 6577 float
0.000000 0.000000 0.000000
2.000000 0.000000 0.000000
2.000000 4.000000 0.000000
0.000000 4.000000 0.000000
0.000000 0.500000 0.000000
1.500000 2.000000 0.000000
2.000000 2.500000 0.000000
0.040000 0.000000 0.000000
0.080000 0.000000 0.000000
0.120000 0.000000 0.000000
0.160000 0.000000 0.000000
0.200000 0.000000 0.000000
0.240000 0.000000 0.000000
0.280000 0.000000 0.000000
0.320000 0.000000 0.000000
0.360000 0.000000 0.000000
0.400000 0.000000 0.000000
0.440000 0.000000 0.000000
0.480000 0.000000 0.000000
0.520000 0.000000 0.000000
0.560000 0.000000 0.000000
0.600000 0.000000 0.000000
0.640000 0.000000 0.000000
0.680000 0.000000 0.000000
0.720000 0.000000 0.000000
0.760000 0.000000 0.000000
0.800000 0.000000 0.000000
0.840000 0.000000 0.000000
0.880000 0.000000 0.000000
0.920000 0.000000 0.000000
0.960000 0.000000 0.000000
1.000000 0.000000 0.000000
1.040000 0.000000 0.000000
1.080000 0.000000 0.000000
1.120000 0.000000 0.000000
1.160000 0.000000 0.000000
1.200000 0.000000 0.000000
1.240000 0.000000 0.000000
1.280000 0.000000 0.000000
1.320000 0.000000 0.000000
1.360000 0.000000 0.000000
1.400000 0.000000 0.000000
1.440000 0.000000 0.000000
1.480000 0.000000 0.000000
1.520000 0.000000 0.000000
1.560000 0.000000 0.000000
1.600000 0.000000 0.000000
1.640000 0.000000 0.000000
1.680000 0.000000 0.000000
1.720000 0.000000 0.000000
1.760000 0.000000 0.000000
1.800000 0.000000 0.000000
1.840000 0.000000 0.000000
1.880000 0.000000 0.000000
1.920000 0.000000 0.000000
1.960000 0.000000 0.000000
2.000000 0.039683 0.000000
2.000000 0.079365 0.000000
2.000000 0.119048 0.000000
2.000000 0.158730 0.000000
2.000000 0.198413 0.000000
2.000000 0.238095 0.000000
2.000000 0.277778 0.000000
2.000000 0.317460 0.000000
2.000000 0.357143 0.000000
2.000000 0.396825 0.000000
2.000000 0.436508 0.000000
2.000000 0.476190 0.000000
2.000000 0.515873 0.000000
2.000000 0.555556 0.000000
2.000000 0.595238 0.000000
2.000000 0.634921 0.000000
2.000000 0.674603 0.000000
2.000000 0.714286 0.000000
2.000000 0.753968 0.000000
2.000000 0.793651 0.000000
2.000000 0.833333 0.000000
2.000000 0.873016 0.000000
2.000000 0.912698 0.000000
2.000000 0.952381 0.000000
2.000000 0.992063 0.000000
2.000000 1.031746 0.000000
2.000000 1.071429 0.000000
2.000000 1.111111 0.000000
2.000000 1.150794 0.000000
2.000000 1.190476 0.000000
2.000000 1.230159 0.000000
2.000000 1.269841 0.000000
2.000000 1.309524 0.000000
2.000000 1.349206 0.000000
2.000000 1.388889 0.000000
2.000000 1.428571 0.000000
2.000000 1.468254 0.000000
2.000000 1.507937 0.000000
2.000000 1.547619 0.000000
2.000000 1.587302 0.000000
2.000000 1.626984 0.000000
2.000000 1.666667 0.000000
2.000000 1.706349 0.000000
2.000000 1.746032 0.000000
2.000000 1.785714 0.000000
2.000000 1.825397 0.000000
2.000000 1.865079 0.000000
2.000000 1.904762 0.000000
2.000000 1.944444 0.000000
2.000000 1.984127 0.000000
2.000000 2.023810 0.000000
2.000000 2.063492 0.000000
2.000000 2.103175 0.000000
2.000000 2.142857 0.000000
2.000000 2.182540 0.000000
2.000000 2.222222 0.000000
2.000000 2.261905 0.000000
2.000000 2.301587 0.000000
2.000000 2.341270 0.000000
2.000000 2.380952 0.000000
2.000000 2.420635 0.000000
2.000000 2.460317 0.000000
2.000000 2.539474 0.000000
2.000000 2.578947 0.000000
2.000000 2.618421 0.000000
2.000000 2.657895 0.000000
2.000000 2.697368 0.000000
2.000000 2.736842 0.000000
2.000000 2.776316 0.000000
2.000000 2.815789 0.000000
2.000000 2.855263 0.000000
2.000000 2.894737 0.000000
2.000000 2.934211 0.000000
2.000000 2.973684 0.000000
2.000000 3.013158 0.000000
2.000000 3.052632 0.000000
2.000000 3.092105 0.000000
2.000000 3.131579 0.000000
2.000000 3.171053 0.000000
2.000000 3.210526 0.000000
2.000000 3.250000 0.000000
2.000000 3.289474 0.000000
2.000000 3.328947 0.000000
2.000000 3.368421 0.000000
2.000000 3.407895 0.000000
2.000000 3.447368 0.000000
2.000000 3.486842 0.000000
2.000000 3.526316 0.000000
2.000000 3.565789 0.000000
2.000000 3.605263 0.000000
2.000000 3.644737 0.000000
2.000000 3.684211 0.000000
2.000000 3.723684 0.000000
2.000000 3.763158 0.000000
2.000000 3.802632 0.000000
2.000000 3.842105 0.000000
2.000000 3.881579 0.000000
2.000000 3.921053 0.000000
2.000000 3.960526 0.000000
1.960000 4.000000 0.000000
1.920000 4.000000 0.000000
1.880000 4.000000 0.000000
1.840000 4.000000 0.000000
1.800000 4.000000 0.000000
1.760000 4.000000 0.000000
1.720000 4.000000 0.000000
1.680000 4.000000 0.000000
1.640000 4.000000 0.000000
1.600000 4.000000 0.000000
1.560000 4.000000 0.000000
1.520000 4.000000 0.000000
1.480000 4.000000 0.000000
1.440000 4.000000 0.000000
1.400000 4.000000 0.000000
1.360000 4.000000 0.000000
1.320000 4.000000 0.000000
1.280000 4.000000 0.000000
1.240000 4.000000 0.000000
1.200000 4.000000 0.000000
1.160000 4.000000 0.000000
1.120000 4.000000 0.000000
1.080000 4.000000 0.000000
1.040000 4.000000 0.000000
1.000000 4.000000 0.000000
0.960000 4.000000 0.000000
0.920000 4.000000 0.000000
0.880000 4.000000 0.000000
0.840000 4.000000 0.000000
0.800000 4.000000 0.000000
0.760000 4.000000 0.000000
0.720000 4.000000 0.000000
0.680000 4.000000 0.000000
0.640000 4.000000 0.000000
0.600000 4.000000 0.000000
0.560000 4.000000 0.000000
0.520000 4.000000 0.000000
0.480000 4.000000 0.000000
0.440000 4.000000 0.000000
0.400000 4.000000 0.000000
0.360000 4.000000 0.000000
0.320000 4.000000 0.000000
0.280000 4.000000 0.000000
0.240000 4.000000 0.000000
0.200000 4.000000 0.000000
0.160000 4.000000 0.000000
0.120000 4.000000 0.000000
0.080000 4.000000 0.000000
0.040000 4.000000 0.000000
0.000000 3.960227 0.000000
0.000000 3.920455 0.000000
0.000000 3.880682 0.000000
0.000000 3.840909 0.000000
0.000000 3.801136 0.000000
0.000000 3.761364 0.000000
0.000000 3.721591 0.000000
0.000000 3.681818 0.000000
0.000000 3.642045 0.000000
0.000000 3.602273 0.000000
0.000000 3.562500 0.000000
0.000000 3.522727 0.000000
0.000000 3.482955 0.000000
0.000000 3.443182 0.000000
0.000000 3.403409 0.000000
0.000000 3.363636 0.000000
0.000000 3.323864 0.000000
0.000000 3.284091 0.000000
0.000000 3.244318 0.000000
0.000000 3.204545 0.000000
0.000000 3.164773 0.000000
0.000000 3.125000 0.000000
0.000000 3.085227 0.000000
0.000000 3.045455 0.000000
0.000000 3.005682 0.000000
0.000000 2.965909 0.000000
0.000000 2.926136 0.000000
0.000000 2.886364 0.000000
0.000000 2.846591 0.000000
0.000000 2.806818 0.000000
0.000000 2.767045 0.000000
0.000000 2.727273 0.000000
0.000000 2.687500 0.000000
0.000000 2.647727 0.000000
0.000000 2.607955 0.000000
0.000000 2.568182 0.000000
0.000000 2.528409 0.000000
0.000000 2.488636 0.000000
0.000000 2.448864 0.000000
0.000000 2.409091 0.000000
0.000000 2.369318 0.000000
0.000000 2.329545 0.000000
0.000000 2.289773 0.000000
0.000000 2.250000 0.000000
0.000000 2.210227 0.000000
0.000000 2.170455 0.000000
0.000000 2.130682 0.000000
0.000000 2.090909 0.000000
0.000000 2.051136 0.000000
0.000000 2.011364 0.000000
0.000000 1.971591 0.000000
0.000000 1.931818 0.000000
0.000000 1.892045 0.000000
0.000000 1.852273 0.000000
0.000000 1.812500 0.000000
0.000000 1.772727 0.000000
0.000000 1.732955 0.000000
0.000000 1.693182 0.000000
0.000000 1.653409 0.000000
0.000000 1.613636 0.000000
0.000000 1.573864 0.000000
0.000000 1.534091 0.000000
0.000000 1.494318 0.000000
0.000000 1.454545 0.000000
0.000000 1.414773 0.000000
0.000000 1.375000 0.000000
0.000000 1.335227 0.000000
0.000000 1.295455 0.000000
0.000000 1.255682 0.000000
0.000000 1.215909 0.000000
0.000000 1.176136 0.000000
0.000000 1.136364 0.000000
0.000000 1.096591 0.000000
0.000000 1.056818 0.000000
0.000000 1.017045 0.000000
0.000000 0.977273 0.000000
0.000000 0.937500 0.000000
0.000000 0.897727 0.000000
0.000000 0.857955 0.000000
0.000000 0.818182 0.000000
0.000000 0.778409 0.000000
0.000000 0.738636 0.000000
0.000000 0.698864 0.000000
0.000000 0.659091 0.000000
0.000000 0.619318 0.000000
0.000000 0.579545 0.000000
0.000000 0.539773 0.000000
0.000000 0.461538 0.000000
0.000000 0.423077 0.000000
0.000000 0.384615 0.000000
0.000000 0.346154 0.000000
0.000000 0.307692 0.000000
0.000000 0.269231 0.000000
0.000000 0.230769 0.000000
0.000000 0.192308 0.000000
0.000000 0.153846 0.000000
0.000000 0.115385 0.000000
0.000000 0.076923 0.000000
0.000000 0.038462 0.000000
0.027778 0.527778 0.000000
0.055556 0.555556 0.000000
0.083333 0.583333 0.000000
0.111111 0.611111 0.000000
0.138889 0.638889 0.000000
0.166667 0.666667 0.000000
0.194444 0.694444 0.000000
0.222222 0.722222 0.000000
0.250000 0.750000 0.000000
0.277778 0.777778 0.000000
0.305556 0.805556 0.000000
0.333333 0.833333 0.000000
0.361111 0.861111 0.000000
0.388889 0.888889 0.000000
0.416667 0.916667 0.000000
0.444444 0.944444 0.000000
0.472222 0.972222 0.000000
0.500000 1.000000 0.000000
0.527778 1.027778 0.000000
0.555556 1.055556 0.000000
0.583333 1.083333 0.000000
0.611111 1.111111 0.000000
0.638889 1.138889 0.000000
0.666667 1.166667 0.000000
0.694444 1.194444 0.000000
0.722222 1.222222 0.000000
0.750000 1.250000 0.000000
0.777778 1.277778 0.000000
0.805556 1.305556 0.000000
0.833333 1.333333 0.000000
0.861111 1.361111 0.000000
0.888889 1.388889 0.000000
0.916667 1.416667 0.000000
0.944444 1.444444 0.000000
0.972222 1.472222 0.000000
1.000000 1.500000 0.000000
1.027778 1.527778 0.000000
1.055556 1.555556 0.000000
1.083333 1.583333 0.000000
1.111111 1.611111 0.000000
1.138889 1.638889 0.000000
1.166667 1.666667 0.000000
1.194444 1.694444 0.000000
1.222222 1.722222 0.000000
1.250000 1.750000 0.000000
1.277778 1.777778 0.000000
1.305556 1.805556 0.000000
1.333333 1.833333 0.000000
1.361111 1.861111 0.000000
1.388889 1.888889 0.000000
1.416667 1.916667 0.000000
1.444444 1.944444 0.000000
1.472222 1.972222 0.000000
1.527778 2.027778 0.000000
1.555556 2.055556 0.000000
1.583333 2.083333 0.000000
1.611111 2.111111 0.000000
1.638889 2.138889 0.000000
1.666667 2.166667 0.000000
1.694444 2.194444 0.000000
1.722222 2.222222 0.000000
1.750000 2.250000 0.000000
1.777778 2.277778 0.000000
1.805556 2.305556 0.000000
[...]
POINT_DATA 6577
SCALARS UX float 1
LOOKUP_TABLE default
-0.000134
0.000179
0.127735
-1.123354
-0.561906
0.359269
0.584148
0.000032
-0.000008
-0.000002
0.000003
-0.000005
-0.000019
0.000002
0.000002
0.000007
-0.000002
0.000002
-0.000001
0.000001
0.000003
-0.000002
0.000001
-0.000003
-0.000001
0.000000
-0.000001
-0.000001
0.000000
0.000000
0.000001
0.000000
-0.000000
0.000000
0.000000
0.000000
-0.000000
-0.000000
0.000001
-0.000002
-0.000000
0.000000
-0.000000
0.000001
0.000000
0.000000
-0.000001
-0.000001
-0.000000
-0.000001
0.000004
-0.000003
0.000003
-0.000001
-0.000001
-0.000024
0.030575
0.045020
0.058433
0.069265
0.079364
0.089275
0.098548
0.108436
0.118933
0.129918
0.142607
0.158462
0.173436
0.186751
0.200076
0.216324
0.235607
0.256812
0.279931
0.306149
0.333398
0.363304
0.392269
0.419554
0.450270
0.479816
0.506578
0.533992
0.563140
0.594489
0.628512
0.658961
0.683135
0.703307
0.718849
0.735901
0.749535
0.761393
0.769389
0.774582
0.777744
0.779973
0.781638
0.782488
0.782721
0.782682
0.782990
0.783350
0.782895
0.780811
0.777434
0.773151
0.767771
0.760595
0.750813
0.738506
0.725134
0.711443
0.693941
0.675471
0.658856
0.625886
0.537193
0.500117
0.472425
0.455829
0.430284
0.405747
0.386116
0.366248
0.343576
0.322511
0.309103
0.294195
0.281696
0.275843
0.307363
0.339393
0.309092
0.344425
0.324970
0.309127
0.303856
0.299291
0.316134
0.307280
0.272807
0.251430
0.175033
0.145609
0.128003
0.117283
0.105420
0.109915
0.116075
0.117162
0.118625
0.120615
0.126766
0.103155
0.079693
0.056883
0.034132
0.011854
-0.010958
-0.033966
-0.056560
-0.078823
-0.100380
-0.122410
-0.144691
-0.166803
-0.188683
-0.212498
-0.237455
-0.264427
-0.293810
-0.325057
-0.357216
-0.391687
-0.427326
-0.462380
-0.494734
-0.525805
-0.554772
-0.581373
-0.608900
-0.636019
-0.662657
-0.688906
-0.715013
-0.741358
-0.767210
-0.794043
-0.820664
-0.847520
-0.872746
-0.896737
-0.920509
-0.943137
-0.965331
-0.987189
-1.009343
-1.029774
-1.048746
-1.067365
-1.085550
-1.103455
-1.118870
-1.110453
-1.100765
-1.089170
-1.075185
-1.060855
-1.046196
-1.030076
-1.014883
-0.998381
-0.981058
-0.963160
-0.944906
-0.929837
-0.908004
-0.887959
-0.868084
-0.850011
-0.834420
-0.813242
-0.795182
-0.777074
-0.756528
-0.737162
-0.722298
-0.703633
-0.690086
-0.675989
-0.671133
-0.659214
-0.652046
-0.646212
-0.646322
-0.651896
-0.651124
-0.657699
-0.659946
-0.666555
-0.679379
-0.690939
-0.696657
-0.703037
-0.708753
-0.715369
-0.720126
-0.726267
-0.727673
-0.725946
-0.722482
-0.718894
-0.717546
-0.719813
-0.722409
-0.719592
-0.717936
-0.716583
-0.716802
-0.721075
-0.728854
-0.731417
-0.742911
-0.745509
-0.729524
-0.696702
-0.661229
-0.626174
-0.604102
-0.588346
-0.579837
-0.574479
-0.569549
-0.563976
-0.558290
-0.551647
-0.543821
-0.536086
-0.528385
-0.520238
-0.512929
-0.507274
-0.503096
-0.501364
-0.507066
-0.529637
-0.575097
-0.609491
-0.670273
-0.375090
-0.365028
-0.357186
-0.344564
-0.327049
-0.304117
-0.276108
-0.246522
-0.212727
-0.186608
-0.152641
-0.067274
-0.591384
-0.591377
-0.443586
-0.568398
-0.489607
-0.450668
-0.459335
-0.409650
-0.416827
-0.424055
-0.401172
-0.407796
-0.396033
-0.389031
-0.382475
-0.388436
-0.384743
-0.393125
-0.400265
-0.399274
-0.381786
-0.410705
-0.419458
-0.444911
-0.490798
-0.514731
-0.547704
-0.548718
-0.509932
-0.441258
-0.361450
-0.252738
-0.197731
-0.136411
-0.005690
-0.083551
-0.083834
0.291497
0.656647
0.151595
0.189542
0.272752
0.335447
0.350963
0.403717
0.347239
0.295776
0.342317
0.538858
0.581480
0.604553
0.615455
0.661357
0.533508
0.534237
0.551199
0.552139
0.560585
0.569190
0.571262
0.570606
0.572856
0.579587
0.584756
0.584951
0.587467
0.585642
0.586754
0.593150
0.593389
0.474798
0.449582
-1.088589
-1.097350
0.100960
0.101291
0.561869
0.536273
0.519366
0.400407
0.379542
-0.207651
-0.228146
-0.274369
0.192825
0.187231
0.222852
-0.288050
-0.548222
-0.526213
-0.533113
-0.135603
-0.120779
-0.115720
-1.000119
-0.996319
-0.980023
-0.975303
-0.994552
-0.978473
-0.134570
0.008523
0.024311
0.015587
-0.136638
-0.152142
-0.130435
-0.768688
-0.744443
-0.743930
-0.549842
-0.201644
-0.198603
-0.218655
-0.002256
-0.033965
-0.027348
-0.158718
-0.149590
-0.171491
-0.158231
-0.813555
-0.834561
-0.816035
-0.838978
-0.769760
-0.787255
-0.761935
-0.777544
-0.208432
-0.175131
-0.190943
-0.031631
-0.087345
-0.133612
-0.090562
0.547303
0.557547
-0.118814
-0.645622
-0.639213
-0.628779
-0.659141
-0.713354
-0.692742
-0.686337
-0.259160
-0.279130
-0.268207
-0.268815
0.362349
0.352338
0.367614
0.345775
-0.452445
-0.473712
-0.461695
-0.470539
-0.393854
-0.386853
-0.391618
-0.497058
-0.438321
-0.494494
0.497942
0.519163
0.472636
0.484003
0.395217
0.403593
0.379244
-0.553442
-0.579322
-0.574410
0.353977
0.339245
0.342829
0.325085
-0.384929
-0.961170
-0.969844
-0.953348
-0.619936
-0.598372
-0.597504
-0.628608
-0.548002
-0.559402
-0.537820
-0.544975
-0.534939
-0.546714
-0.569236
-0.502628
-0.511914
-0.533159
-0.014247
-0.053178
-0.043497
0.365481
0.395563
0.399307
0.539034
-0.210717
-0.175342
-0.185495
-0.160691
-0.199545
-0.162938
-0.537902
-0.492639
-0.547139
-0.536677
-0.527081
-0.633914
-0.614343
-0.623378
-0.559723
-0.490586
-0.520384
-0.485603
-0.883463
-0.891389
-0.902078
-0.562600
-0.206629
-0.195522
-0.269484
-0.444886
-0.437227
-0.454569
-0.493241
-0.494431
-0.502069
0.433574
0.457197
0.427516
0.456880
-0.040586
-0.063098
-0.059126
-0.084746
0.418848
0.429133
-0.444732
-0.446000
-0.465739
-0.434010
-0.801291
-0.821626
-0.796361
-0.239003
-0.222503
-0.243442
-0.078882
-0.118021
-0.102224
-0.221027
-0.824115
-0.789608
-0.759986
-0.772863
-0.489963
-0.506658
-0.518637
-0.537859
-0.777400
-0.625632
-0.619495
-0.636911
-0.623460
-0.650670
-0.920885
-0.913572
0.134899
0.131085
0.102869
-0.523154
-0.528431
-0.522873
-0.704765
-0.691599
-0.693874
-0.509301
-0.516231
-0.510617
-0.682116
-0.497912
-0.504923
-0.498361
-0.131123
-0.210994
-0.188377
-0.144395
-0.907729
-0.926740
-0.903589
-0.922236
-1.082572
-1.088798
0.084852
0.084773
0.323564
0.343277
0.354123
0.324533
-0.712766
-0.712981
-0.692366
-0.483947
-0.490793
-0.483460
-0.687029
0.244112
0.236031
0.203335
-0.488059
-0.494906
-0.770991
-0.751731
-0.748543
-0.054326
-0.070478
0.475372
0.479885
0.507233
0.518695
-0.510441
-0.528042
-0.535866
-0.547115
-0.525348
-0.524158
-0.529763
-0.517502
-0.512973
-0.514899
-0.507491
-0.535569
-0.533927
-0.557605
-0.564537
-0.561268
-0.496257
-0.495054
-0.498316
-0.501481
-0.498597
-0.505622
-0.502878
0.043329
0.066249
-0.511968
-0.521027
-0.517459
-1.057925
-0.567088
-0.590454
-0.576869
-0.526691
-0.509303
0.373690
0.374254
0.371503
0.377402
-0.113787
-0.097242
-0.101027
-0.064120
-0.043293
-0.070828
-0.096435
-0.040036
-0.021791
-0.003919
-0.006714
-0.023326
-0.025724
-0.019489
-0.049969
-0.559543
-0.567883
-0.554298
-0.892308
-0.885735
-0.869738
-0.174077
-0.660892
-0.673065
-0.658359
-0.495190
-0.491825
-0.502870
-0.485927
-0.492040
-0.149997
-0.476883
-0.446007
-0.460318
-0.472818
-0.457485
-0.481646
-0.476247
-0.500765
-0.502036
-0.496656
-0.505929
-0.618084
-0.607262
-0.628216
0.069360
0.080067
-0.489985
-0.499382
-0.497336
-0.488379
-0.485341
-0.538329
-1.075295
-0.529929
-0.523587
-0.530194
-0.522163
-0.526006
0.100820
-0.485799
-0.456469
-1.068108
-1.072631
-0.472305
-0.466333
0.073010
0.082304
-0.193053
-0.172945
-0.514683
-0.179933
-0.154178
-0.165790
-0.142943
-0.537440
-0.530928
-0.744437
-0.757136
-0.728173
-0.488400
-0.490411
-0.493756
-0.468430
-0.505273
-0.737045
0.025203
-0.299915
-0.324743
-0.300702
-1.041631
-0.504538
-0.499160
-0.511323
-1.075224
-0.589608
-0.575102
-0.599554
-0.331287
-0.309216
0.040477
0.056007
0.050924
-0.529283
-0.424687
0.132848
0.160066
-1.062371
-1.061574
-1.050952
-0.754687
-0.736158
-0.483480
-0.487305
-0.495759
-0.466652
-0.599053
-0.501161
-0.508180
-0.036226
-0.039013
-0.017685
-0.517972
-0.524802
-0.567876
-0.553436
-0.535478
-0.510492
-0.734305
0.045817
0.081043
-0.543664
-1.063224
-0.510066
-0.501484
-0.518629
-1.054864
-1.058755
0.280068
0.276668
0.298925
-0.490956
0.097397
0.068286
0.086239
0.061737
-0.477317
-0.486547
-0.496194
-0.456907
-0.494427
-0.493055
-0.455636
-0.447654
-0.479295
-0.485023
-0.482958
-0.517261
-0.605109
-0.608754
-0.584902
0.009531
-0.617229
-0.627963
-0.635692
-1.027780
0.303159
0.027907
0.025405
0.042901
-0.515894
-0.505967
-0.526442
-1.037301
-1.043921
-1.048098
-0.469846
-0.494763
-0.500758
-0.449582
-0.524614
-0.053584
-0.057958
-0.444783
-0.432298
0.291589
0.513529
0.536920
0.538858
-1.048276
-1.055892
-1.041138
-1.043432
0.077376
0.088979
-0.070656
-0.056399
-0.066549
-0.085803
-0.949185
-0.939632
-0.926408
-0.471348
0.057086
0.047998
-0.520987
-0.511273
-0.534936
-0.485277
-0.498098
-0.505368
-0.450770
-0.463744
0.006293
-0.009420
-0.086073
-1.024311
-1.010080
-0.277886
-0.252034
-0.275584
-0.529898
0.007077
0.028071
-1.018683
-1.030997
-0.515811
-0.538276
-0.510813
-0.557900
0.557005
0.531218
-0.529284
-0.304983
0.270829
0.225614
0.284875
-0.475771
-0.494811
-0.508236
-0.443890
-0.043684
-0.026304
-0.037683
-1.034854
-0.251912
0.197148
-1.024619
-1.027987
-1.029633
0.068953
0.080543
-0.191607
-0.168803
-0.176451
0.049144
0.036904
-0.533755
-0.183323
-0.196726
0.466586
0.508052
0.491127
-0.908164
-0.921247
-0.898665
-0.914357
-0.048119
-0.698828
0.408370
0.435842
-0.031364
-0.496057
-0.503563
-0.808954
-0.476654
-0.514114
-0.522024
-0.495816
-0.508077
-0.458147
-0.010912
0.521536
0.092370
0.155507
0.109405
-1.006060
0.136147
-0.384428
-0.353573
-0.410074
-0.007810
0.014258
-0.028216
-1.001298
-1.012041
-0.992186
-0.577702
-0.537632
-0.588968
0.328627
0.332565
0.343570
0.319013
-0.014211
-0.516696
-0.534845
-0.484825
-0.545597
0.008440
-0.927158
-0.919847
-0.902513
-0.497313
-0.508017
-0.880720
-0.891718
-0.486659
0.232299
-0.031105
-0.030372
-0.041984
-0.387629
-0.391809
-0.376710
-0.374852
0.461179
0.013910
0.001173
-1.013398
-0.944673
0.138257
0.121525
0.148496
-1.005876
-1.013322
-1.010676
0.057617
-0.488351
-0.488009
0.039642
0.030767
0.076827
0.168898
0.142480
0.099740
0.061555
0.048009
-0.479901
-0.479015
-0.476253
0.169353
-0.453970
-0.029860
-0.470145
-0.465102
-0.505775
-0.987820
-0.072075
-0.565443
-0.247119
-0.200354
-0.217233
-0.022785
-0.179764
-0.048652
-0.984066
-0.312916
-0.293083
-0.971398
-0.346097
-0.522363
-0.529253
-0.538190
-0.606389
0.379369
-0.526387
-0.347669
-0.327975
-0.309684
-0.508229
-0.077794
-0.081444
-0.097627
-0.238031
-0.218893
-0.490003
-0.498052
-0.943209
-0.948367
-0.931336
-0.102740
-0.602936
-0.605807
-0.508944
-0.518327
-0.257986
-0.236167
-0.596010
-0.610369
-0.534100
-0.550950
-0.879933
-0.898105
-0.883759
0.076745
0.058296
0.093692
0.048337
-0.480827
0.275409
0.266359
0.238356
-0.483294
-0.482507
-0.473061
-0.473044
0.252418
-0.357198
-0.356992
-0.369889
-0.472752
-0.425289
-0.451581
-0.041532
-0.550649
-0.543107
-0.544054
-0.467870
-0.464743
-0.459271
-0.936682
-0.155317
-0.133964
-0.119798
-0.913776
-0.937840
-0.499439
-0.481533
0.084447
0.034705
-0.123871
-0.142223
-0.130654
-0.001941
-0.443750
-0.453640
-0.458931
-0.434360
0.018994
0.031101
0.462119
0.493475
-0.030730
-0.059620
-0.050946
0.019332
-0.004794
0.011256
-0.085361
-0.344344
-0.334361
-0.361849
-0.344027
-0.969333
-0.944713
-0.939385
-0.483304
-0.491219
-0.315253
-0.264946
-0.287872
-0.827760
-0.822186
-0.841724
-0.585884
-0.522830
-0.502436
-0.513282
-0.538238
-0.560555
-0.930764
-0.006875
0.023254
-0.017879
-0.475668
-0.473564
-0.473371
-0.636069
-0.641797
-0.655148
-0.899728
-0.926644
-0.920893
-0.905337
-0.466027
-0.466871
-0.581363
-0.591187
-0.641636
-0.647439
-0.624250
-0.468204
-0.901512
-0.865045
-0.888788
-0.868075
-0.464281
0.434368
-0.464387
-0.491135
-0.475746
-0.484340
-0.021139
-0.021532
-0.036233
-0.651384
-0.669008
-0.496601
-0.508394
-0.519930
-0.878253
-0.859852
-0.880097
-0.875576
-0.869023
-0.548049
-0.584236
0.229928
0.189444
0.165382
0.118567
-0.466559
-0.464890
-0.464974
-0.457608
-0.459998
-0.853056
-0.862241
-0.407128
-0.387628
-0.400164
-0.385846
-0.255769
-0.224762
-0.246442
-0.056340
-0.461971
-0.457969
-0.462206
-0.484470
-0.467841
-0.476008
-0.852803
-0.151433
-0.169257
-0.143218
-0.232280
-0.489926
-0.501654
-0.519659
-0.564791
-0.606923
-0.864195
-0.453985
-0.453280
-0.181613
-0.164445
-0.178411
-0.164311
-0.454462
-0.848098
-0.845335
-0.056985
-0.034335
-0.051151
-0.260228
0.281381
0.264856
0.291756
0.313108
-0.634201
-0.645528
-0.446916
-0.453882
0.445527
0.463869
0.452024
-0.853222
-0.868308
-0.866498
-0.874909
-0.879405
-0.182618
-0.194762
-0.189110
-0.829713
-0.846035
-0.825195
-0.842554
-0.453803
-0.465378
-0.477613
-0.199537
-0.480148
-0.497160
-0.838355
-0.848259
0.203324
-0.001546
-0.147189
-0.150237
-0.122249
-0.512649
0.320336
0.256152
-0.552981
-0.613005
-0.434895
-0.436138
-0.110494
-0.107652
-0.131239
-0.850343
-0.862863
-0.844174
0.154431
0.052243
0.062955
-0.837087
-0.092666
-0.077420
-0.440252
-0.094067
-0.807156
-0.430842
-0.440049
-0.253858
-0.232092
-0.269489
-0.282983
-0.274896
-0.316127
-0.299142
-0.327389
-0.282228
-0.221938
-0.230020
-0.241837
-0.248792
-0.877946
-0.808212
-0.805957
-0.826606
-0.014577
-0.030939
-0.061574
-0.829680
0.283766
0.282672
-0.434441
-0.452383
-0.236856
-0.242810
-0.253695
-0.261564
-0.470806
-0.186717
-0.181832
-0.487591
-0.508196
-0.169716
-0.063745
-0.034234
-0.062971
-0.108376
-0.102478
-0.858535
-0.828461
-0.844888
-0.406778
-0.410779
-0.166991
-0.819387
-0.821254
-0.071607
-0.099248
-0.085869
-0.419169
-0.149568
-0.148708
-0.407432
-0.422238
-0.835540
-0.828897
-0.822335
-0.795121
-0.865765
-0.862938
-0.792315
-0.769418
-0.270091
-0.243986
-0.221588
-0.405775
-0.432012
-0.801585
-0.803901
-0.029176
-0.461818
-0.659814
-0.643840
-0.671088
-0.656144
-0.112069
0.010378
-0.024752
-0.029323
-0.803500
-0.794822
-0.815164
-0.802992
-0.115208
-0.141397
-0.121401
-0.134444
-0.494004
-0.540465
-0.798973
-0.815936
-0.159444
-0.170254
-0.005929
-0.060537
-0.825835
0.122290
0.056150
0.033553
-0.046304
-0.466163
-0.469863
-0.496247
0.264590
0.243679
0.277621
0.236462
0.223413
0.183338
-0.829259
-0.849869
-0.845311
-0.365068
-0.374217
-0.310239
-0.285996
-0.308538
0.213994
0.189110
0.147687
-0.388546
-0.373363
-0.396331
-0.780523
-0.400893
-0.398365
-0.375521
-0.367713
-0.407038
-0.333864
-0.349692
-0.320392
-0.258742
0.044207
0.068358
-0.449302
-0.484596
-0.549884
-0.317168
-0.327167
0.051363
-0.207403
-0.220754
-0.197567
-0.346373
-0.215247
0.329040
0.320144
0.317563
-0.331958
-0.359297
-0.333725
-0.382668
-0.802017
-0.783709
-0.426652
-0.460997
-0.517232
0.465683
0.469679
0.404763
0.444376
-0.781350
-0.807835
-0.792119
-0.290342
-0.288653
-0.735560
-0.721582
-0.734725
0.159534
0.112000
0.437795
0.430203
0.410083
0.376248
0.386518
0.302296
-0.304464
-0.292689
-0.317258
0.345469
0.355791
-0.345143
-0.306663
-0.311249
-0.279726
-0.318218
-0.369591
-0.410115
-0.756177
-0.446263
-0.497720
-0.276906
-0.263103
-0.178395
-0.163537
-0.153609
0.002394
0.056494
-0.018548
0.280116
0.300142
-0.012454
0.021535
-0.664829
-0.677528
-0.780921
-0.768133
-0.779715
-0.269875
-0.252780
-0.278135
0.047025
-0.601313
-0.616500
-0.622636
0.299753
0.326000
-0.304734
-0.362193
0.324285
0.251843
0.245212
0.195281
-0.404107
-0.455364
0.183140
0.121209
-0.792918
-0.782394
-0.139657
-0.130856
-0.277112
-0.259666
-0.249956
-0.787410
-0.746889
-0.725676
-0.734523
-0.242556
-0.219522
-0.933255
-0.959544
-0.306542
-0.355428
-0.083252
-0.805266
-0.814905
-0.906721
-0.966863
-0.953151
-0.252742
-0.214698
0.027607
0.109716
-0.127627
-0.619571
0.031687
0.052108
0.031294
-0.214394
-0.182617
-0.200609
-0.169118
-0.767847
-0.755171
-0.767377
-0.372735
-0.418988
-0.185142
-0.137168
-0.180310
-0.284091
-0.275570
-0.263166
-0.170566
-0.594863
-0.154154
-0.123442
-0.137678
-0.273128
-0.143820
-0.674659
-0.699042
-0.395460
-0.368354
-0.402147
-0.368840
-0.429369
-0.430651
-0.413508
-0.283272
-0.293750
-0.288964
-0.196254
-0.600471
-0.166010
-0.142156
-0.353443
-0.437187
-0.413817
-0.425437
-0.803094
0.319651
0.333372
0.341149
0.324940
-0.136202
-0.073205
-0.090478
-0.639930
0.012814
-0.014865
0.051483
0.017061
0.053852
-0.489450
-0.500297
-0.474362
-0.088457
-0.097336
-0.112011
0.220477
0.252596
0.133864
-0.307739
-0.074352
-0.621386
-0.612461
-0.640737
-0.634091
-0.352296
-0.368572
-0.351211
-0.114727
-0.214599
-0.779904
-0.788914
-0.764176
-0.035258
-0.051896
-0.060792
-0.369681
0.131883
0.074702
0.167037
0.041871
0.032433
-0.661891
0.403669
0.429505
0.429406
-0.070426
-0.600314
-0.576617
-0.592434
-0.581650
0.407855
-0.146617
-0.119209
-0.130242
-0.136407
-0.348022
-0.364021
-0.350951
0.494350
-0.364140
-0.620813
-0.627192
-0.633991
-0.644915
-0.626432
-0.602495
-0.653426
-0.639327
-0.621731
-0.708446
-0.111380
-0.622708
-0.634239
-0.608501
-0.644739
-0.691616
-0.671966
-0.687221
-0.685025
-0.424034
-0.439215
-0.423994
-0.441804
-0.303908
-0.290400
-0.310626
0.070320
0.112956
0.318848
0.345483
0.314458
0.353549
0.313597
0.286002
-0.679903
-0.703276
-0.686301
-0.710025
-0.279876
-0.652682
-0.667861
-0.677842
0.306104
0.266175
-0.663822
-0.167257
0.197687
0.199878
0.249861
0.233331
0.221727
-0.332476
-0.350689
0.325916
-0.744143
-0.725346
-0.747570
-0.736277
-0.677469
0.485370
0.476710
-0.193885
-0.168423
-0.165371
-0.193184
0.374820
0.381046
0.381871
-0.123924
-0.047017
-0.040494
-0.062775
-0.057634
-0.027661
-0.411238
-0.443908
-0.446591
-0.611006
-0.594792
-0.210466
-0.229956
-0.233249
-0.250694
-0.536760
-0.561728
-0.543215
-0.540534
-0.560654
-0.374796
-0.377449
-0.357187
-0.344406
-0.339336
-0.358310
-0.403481
-0.441257
-0.445393
-0.452675
-0.449424
-0.436604
-0.466807
-0.284138
-0.261394
0.395654
0.381125
0.393864
-0.376280
-0.368720
-0.394929
-0.577244
-0.341033
-0.134355
-0.158144
-0.459641
-0.475429
-0.462226
-0.474990
-0.619397
-0.378705
-0.368335
-0.329372
-0.348581
-0.374096
-0.762769
-0.753008
-0.740120
-0.765786
-0.754350
-0.192816
-0.427711
-0.398304
0.164006
0.206975
0.197136
0.092646
0.072576
-0.456048
-0.442761
-0.543119
-0.569641
-0.550661
0.048771
0.073391
0.067920
-0.079549
0.099448
-0.134195
-0.131060
-0.111170
-0.755560
-0.105925
-0.608843
-0.106425
-0.081922
-0.117662
-0.349935
-0.348227
-0.333052
-0.305222
-0.314059
-0.303902
-0.317902
-0.297896
-0.310613
0.010514
0.051857
0.088111
-0.238728
-0.248370
-0.216323
-0.209491
-0.238893
-0.602645
-0.577541
-0.287395
-0.303789
-0.321810
-0.258062
-0.466692
-0.454957
-0.425915
-0.433225
0.211634
-0.492088
-0.490549
-0.505806
-0.519642
-0.522435
-0.538454
-0.453476
-0.468073
-0.447287
-0.649082
-0.662594
-0.445488
-0.286191
-0.321310
-0.318105
-0.358177
-0.440072
-0.443152
-0.427877
-0.457771
0.404233
0.383321
-0.491075
0.421967
-0.092520
-0.078454
-0.078690
-0.132943
-0.113654
-0.500118
-0.490144
-0.503812
-0.584762
-0.576794
-0.597140
-0.075310
-0.082510
-0.100136
-0.443429
-0.457030
-0.110546
-0.079111
-0.430874
-0.446839
-0.440436
0.064526
0.015562
0.082127
-0.020359
-0.599775
-0.617652
-0.593863
-0.623217
-0.130853
-0.119931
-0.092435
-0.156786
-0.138414
-0.153008
-0.673486
0.381251
0.389210
0.370662
0.381936
0.370712
0.392954
-0.387178
-0.384892
-0.381351
-0.386012
-0.377565
-0.641917
-0.638031
-0.612487
-0.647864
-0.671190
-0.670898
0.322980
0.342328
-0.648262
-0.668434
-0.662067
0.237633
0.058980
-0.689158
0.156990
0.168679
0.128133
-0.630891
0.294046
0.308227
0.352095
0.343118
0.349111
0.363708
0.352578
-0.023093
-0.063672
0.005390
0.037819
-0.488580
-0.472382
-0.380890
-0.382696
-0.353249
-0.415615
-0.330907
-0.326499
-0.304470
-0.558603
-0.558512
-0.575722
0.061458
0.103668
0.020983
-0.276571
-0.295522
-0.682415
-0.690200
-0.259452
-0.628882
-0.630297
-0.658620
-0.615314
-0.607978
-0.590958
-0.606162
-0.638522
-0.627096
-0.636356
-0.626071
-0.649475
-0.642650
-0.707606
-0.708085
-0.732365
-0.724814
-0.601790
-0.594476
0.138319
-0.604739
-0.579192
-0.955015
-0.971911
-0.620578
-0.595239
-0.640745
-0.610531
-0.574107
-0.582372
-0.548562
-0.524411
-0.537764
-0.627886
-0.586237
0.292851
0.261778
0.315407
0.236396
-0.626150
-0.648558
-0.389332
-0.363911
-0.335615
0.330050
0.332188
0.347165
0.348220
0.321283
0.310137
0.308177
-0.588165
-0.691768
-0.665010
0.299591
0.267015
-0.654331
-0.651503
-0.634686
-0.378367
-0.378135
-0.364427
0.144927
0.192793
-0.390854
-0.350768