# vtk DataFile Version 2.0
Test
ASCII
DATASET POLYDATA
POINTS 6577 float
0.000000 0.000000 0.000000
2.000000 0.000000 0.000000
2.000000 4.000000 0.000000
0.000000 4.000000 0.000000
0.000000 0.500000 0.000000
1.500000 2.000000 0.000000
2.000000 2.500000 0.000000
0.040000 0.000000 0.000000
0.080000 0.000000 0.000000
0.120000 0.000000 0.000000
0.160000 0.000000 0.000000
0.200000 0.000000 0.000000
0.240000 0.000000 0.000000
0.280000 0.000000 0.000000
0.320000 0.000000 0.000000
0.360000 0.000000 0.000000
0.400000 0.000000 0.000000
0.440000 0.000000 0.000000
0.480000 0.000000 0.000000
0.520000 0.000000 0.000000
0.560000 0.000000 0.000000
0.600000 0.000000 0.000000
0.640000 0.000000 0.000000
0.680000 0.000000 0.000000
0.720000 0.000000 0.000000
0.760000 0.000000 0.000000
0.800000 0.000000 0.000000
0.840000 0.000000 0.000000
0.880000 0.000000 0.000000
0.920000 0.000000 0.000000
0.960000 0.000000 0.000000
1.000000 0.000000 0.000000
1.040000 0.000000 0.000000
1.080000 0.000000 0.000000
1.120000 0.000000 0.000000
1.160000 0.000000 0.000000
1.200000 0.000000 0.000000
1.240000 0.000000 0.000000
1.280000 0.000000 0.000000
1.320000 0.000000 0.000000
1.360000 0.000000 0.000000
1.400000 0.000000 0.000000
1.440000 0.000000 0.000000
1.480000 0.000000 0.000000
1.520000 0.000000 0.000000
1.560000 0.000000 0.000000
1.600000 0.000000 0.000000
1.640000 0.000000 0.000000
1.680000 0.000000 0.000000
1.720000 0.000000 0.000000
1.760000 0.000000 0.000000
1.800000 0.000000 0.000000
1.840000 0.000000 0.000000
1.880000 0.000000 0.000000
1.920000 0.000000 0.000000
1.960000 0.000000 0.000000
2.000000 0.039683 0.000000
2.000000 0.079365 0.000000
2.000000 0.119048 0.000000
2.000000 0.158730 0.000000
2.000000 0.198413 0.000000
2.000000 0.238095 0.000000
2.000000 0.277778 0.000000
2.000000 0.317460 0.000000
2.000000 0.357143 0.000000
2.000000 0.396825 0.000000
2.000000 0.436508 0.000000
2.000000 0.476190 0.000000
2.000000 0.515873 0.000000
2.000000 0.555556 0.000000
2.000000 0.595238 0.000000
2.000000 0.634921 0.000000
2.000000 0.674603 0.000000
2.000000 0.714286 0.000000
2.000000 0.753968 0.000000
2.000000 0.793651 0.000000
2.000000 0.833333 0.000000
2.000000 0.873016 0.000000
2.000000 0.912698 0.000000
2.000000 0.952381 0.000000
2.000000 0.992063 0.000000
2.000000 1.031746 0.000000
2.000000 1.071429 0.000000
2.000000 1.111111 0.000000
2.000000 1.150794 0.000000
2.000000 1.190476 0.000000
2.000000 1.230159 0.000000
2.000000 1.269841 0.000000
2.000000 1.309524 0.000000
2.000000 1.349206 0.000000
2.000000 1.388889 0.000000
2.000000 1.428571 0.000000
2.000000 1.468254 0.000000
2.000000 1.507937 0.000000
2.000000 1.547619 0.000000
2.000000 1.587302 0.000000
2.000000 1.626984 0.000000
2.000000 1.666667 0.000000
2.000000 1.706349 0.000000
2.000000 1.746032 0.000000
2.000000 1.785714 0.000000
2.000000 1.825397 0.000000
2.000000 1.865079 0.000000
2.000000 1.904762 0.000000
2.000000 1.944444 0.000000
2.000000 1.984127 0.000000
2.000000 2.023810 0.000000
2.000000 2.063492 0.000000
2.000000 2.103175 0.000000
2.000000 2.142857 0.000000
2.000000 2.182540 0.000000
2.000000 2.222222 0.000000
2.000000 2.261905 0.000000
2.000000 2.301587 0.000000
2.000000 2.341270 0.000000
2.000000 2.380952 0.000000
2.000000 2.420635 0.000000
2.000000 2.460317 0.000000
2.000000 2.539474 0.000000
2.000000 2.578947 0.000000
2.000000 2.618421 0.000000
2.000000 2.657895 0.000000
2.000000 2.697368 0.000000
2.000000 2.736842 0.000000
2.000000 2.776316 0.000000
2.000000 2.815789 0.000000
2.000000 2.855263 0.000000
2.000000 2.894737 0.000000
2.000000 2.934211 0.000000
2.000000 2.973684 0.000000
2.000000 3.013158 0.000000
2.000000 3.052632 0.000000
2.000000 3.092105 0.000000
2.000000 3.131579 0.000000
2.000000 3.171053 0.000000
2.000000 3.210526 0.000000
2.000000 3.250000 0.000000
2.000000 3.289474 0.000000
2.000000 3.328947 0.000000
2.000000 3.368421 0.000000
2.000000 3.407895 0.000000
2.000000 3.447368 0.000000
2.000000 3.486842 0.000000
2.000000 3.526316 0.000000
2.000000 3.565789 0.000000
2.000000 3.605263 0.000000
2.000000 3.644737 0.000000
2.000000 3.684211 0.000000
2.000000 3.723684 0.000000
2.000000 3.763158 0.000000
2.000000 3.802632 0.000000
2.000000 3.842105 0.000000
2.000000 3.881579 0.000000
2.000000 3.921053 0.000000
2.000000 3.960526 0.000000
1.960000 4.000000 0.000000
1.920000 4.000000 0.000000
1.880000 4.000000 0.000000
1.840000 4.000000 0.000000
1.800000 4.000000 0.000000
1.760000 4.000000 0.000000
1.720000 4.000000 0.000000
1.680000 4.000000 0.000000
1.640000 4.000000 0.000000
1.600000 4.000000 0.000000
1.560000 4.000000 0.000000
1.520000 4.000000 0.000000
1.480000 4.000000 0.000000
1.440000 4.000000 0.000000
1.400000 4.000000 0.000000
1.360000 4.000000 0.000000
1.320000 4.000000 0.000000
1.280000 4.000000 0.000000
1.240000 4.000000 0.000000
1.200000 4.000000 0.000000
1.160000 4.000000 0.000000
1.120000 4.000000 0.000000
1.080000 4.000000 0.000000
1.040000 4.000000 0.000000
1.000000 4.000000 0.000000
0.960000 4.000000 0.000000
0.920000 4.000000 0.000000
0.880000 4.000000 0.000000
0.840000 4.000000 0.000000
0.800000 4.000000 0.000000
0.760000 4.000000 0.000000
0.720000 4.000000 0.000000
0.680000 4.000000 0.000000
0.640000 4.000000 0.000000
0.600000 4.000000 0.000000
0.560000 4.000000 0.000000
0.520000 4.000000 0.000000
0.480000 4.000000 0.000000
0.440000 4.000000 0.000000
0.400000 4.000000 0.000000
0.360000 4.000000 0.000000
0.320000 4.000000 0.000000
0.280000 4.000000 0.000000
0.240000 4.000000 0.000000
0.200000 4.000000 0.000000
0.160000 4.000000 0.000000
0.120000 4.000000 0.000000
0.080000 4.000000 0.000000
0.040000 4.000000 0.000000
0.000000 3.960227 0.000000
0.000000 3.920455 0.000000
0.000000 3.880682 0.000000
0.000000 3.840909 0.000000
0.000000 3.801136 0.000000
0.000000 3.761364 0.000000
0.000000 3.721591 0.000000
0.000000 3.681818 0.000000
0.000000 3.642045 0.000000
0.000000 3.602273 0.000000
0.000000 3.562500 0.000000
0.000000 3.522727 0.000000
0.000000 3.482955 0.000000
0.000000 3.443182 0.000000
0.000000 3.403409 0.000000
0.000000 3.363636 0.000000
0.000000 3.323864 0.000000
0.000000 3.284091 0.000000
0.000000 3.244318 0.000000
0.000000 3.204545 0.000000
0.000000 3.164773 0.000000
0.000000 3.125000 0.000000
0.000000 3.085227 0.000000
0.000000 3.045455 0.000000
0.000000 3.005682 0.000000
0.000000 2.965909 0.000000
0.000000 2.926136 0.000000
0.000000 2.886364 0.000000
0.000000 2.846591 0.000000
0.000000 2.806818 0.000000
0.000000 2.767045 0.000000
0.000000 2.727273 0.000000
0.000000 2.687500 0.000000
0.000000 2.647727 0.000000
0.000000 2.607955 0.000000
0.000000 2.568182 0.000000
0.000000 2.528409 0.000000
0.000000 2.488636 0.000000
0.000000 2.448864 0.000000
0.000000 2.409091 0.000000
0.000000 2.369318 0.000000
0.000000 2.329545 0.000000
0.000000 2.289773 0.000000
0.000000 2.250000 0.000000
0.000000 2.210227 0.000000
0.000000 2.170455 0.000000
0.000000 2.130682 0.000000
0.000000 2.090909 0.000000
0.000000 2.051136 0.000000
0.000000 2.011364 0.000000
0.000000 1.971591 0.000000
0.000000 1.931818 0.000000
0.000000 1.892045 0.000000
0.000000 1.852273 0.000000
0.000000 1.812500 0.000000
0.000000 1.772727 0.000000
0.000000 1.732955 0.000000
0.000000 1.693182 0.000000
0.000000 1.653409 0.000000
0.000000 1.613636 0.000000
0.000000 1.573864 0.000000
0.000000 1.534091 0.000000
0.000000 1.494318 0.000000
0.000000 1.454545 0.000000
0.000000 1.414773 0.000000
0.000000 1.375000 0.000000
0.000000 1.335227 0.000000
0.000000 1.295455 0.000000
0.000000 1.255682 0.000000
0.000000 1.215909 0.000000
0.000000 1.176136 0.000000
0.000000 1.136364 0.000000
0.000000 1.096591 0.000000
0.000000 1.056818 0.000000
0.000000 1.017045 0.000000
0.000000 0.977273 0.000000
0.000000 0.937500 0.000000
0.000000 0.897727 0.000000
0.000000 0.857955 0.000000
0.000000 0.818182 0.000000
0.000000 0.778409 0.000000
0.000000 0.738636 0.000000
0.000000 0.698864 0.000000
0.000000 0.659091 0.000000
0.000000 0.619318 0.000000
0.000000 0.579545 0.000000
0.000000 0.539773 0.000000
0.000000 0.461538 0.000000
0.000000 0.423077 0.000000
0.000000 0.384615 0.000000
0.000000 0.346154 0.000000
0.000000 0.307692 0.000000
0.000000 0.269231 0.000000
0.000000 0.230769 0.000000
0.000000 0.192308 0.000000
0.000000 0.153846 0.000000
0.000000 0.115385 0.000000
0.000000 0.076923 0.000000
0.000000 0.038462 0.000000
0.027778 0.527778 0.000000
0.055556 0.555556 0.000000
0.083333 0.583333 0.000000
0.111111 0.611111 0.000000
0.138889 0.638889 0.000000
0.166667 0.666667 0.000000
0.194444 0.694444 0.000000
0.222222 0.722222 0.000000
0.250000 0.750000 0.000000
0.277778 0.777778 0.000000
0.305556 0.805556 0.000000
0.333333 0.833333 0.000000
0.361111 0.861111 0.000000
0.388889 0.888889 0.000000
0.416667 0.916667 0.000000
0.444444 0.944444 0.000000
0.472222 0.972222 0.000000
0.500000 1.000000 0.000000
0.527778 1.027778 0.000000
0.555556 1.055556 0.000000
0.583333 1.083333 0.000000
0.611111 1.111111 0.000000
0.638889 1.138889 0.000000
0.666667 1.166667 0.000000
0.694444 1.194444 0.000000
0.722222 1.222222 0.000000
0.750000 1.250000 0.000000
0.777778 1.277778 0.000000
0.805556 1.305556 0.000000
0.833333 1.333333 0.000000
0.861111 1.361111 0.000000
0.888889 1.388889 0.000000
0.916667 1.416667 0.000000
0.944444 1.444444 0.000000
0.972222 1.472222 0.000000
1.000000 1.500000 0.000000
1.027778 1.527778 0.000000
1.055556 1.555556 0.000000
1.083333 1.583333 0.000000
1.111111 1.611111 0.000000
1.138889 1.638889 0.000000
1.166667 1.666667 0.000000
1.194444 1.694444 0.000000
1.222222 1.722222 0.000000
1.250000 1.750000 0.000000
1.277778 1.777778 0.000000
1.305556 1.805556 0.000000
1.333333 1.833333 0.000000
1.361111 1.861111 0.000000
1.388889 1.888889 0.000000
1.416667 1.916667 0.000000
1.444444 1.944444 0.000000
1.472222 1.972222 0.000000
1.527778 2.027778 0.000000
1.555556 2.055556 0.000000
1.583333 2.083333 0.000000
1.611111 2.111111 0.000000
1.638889 2.138889 0.000000
1.666667 2.166667 0.000000
1.694444 2.194444 0.000000
1.722222 2.222222 0.000000
1.750000 2.250000 0.000000
1.777778 2.277778 0.000000
1.805556 2.305556 0.000000
[...]
POINT_DATA 6577
SCALARS UX float 1
LOOKUP_TABLE default
-0.000028
0.000169
-0.081519
-0.635257
-0.273372
-0.097481
0.012139
-0.000004
-0.000004
-0.000005
0.000005
0.000004
-0.000019
0.000002
0.000003
0.000003
0.000002
0.000003
-0.000003
0.000002
0.000002
-0.000003
0.000001
0.000001
0.000002
0.000001
-0.000001
-0.000002
0.000001
-0.000001
0.000002
0.000001
0.000000
-0.000000
0.000000
0.000000
-0.000001
0.000000
0.000001
-0.000003
0.000001
0.000001
-0.000003
0.000004
0.000001
0.000000
-0.000004
-0.000000
-0.000001
-0.000009
0.000014
-0.000013
0.000013
0.000012
-0.000071
0.000052
0.050865
0.081189
0.097830
0.114428
0.124249
0.138084
0.156790
0.169510
0.176822
0.190311
0.198261
0.207459
0.220924
0.227179
0.238524
0.249123
0.251830
0.256702
0.262397
0.264270
0.277241
0.279096
0.284264
0.289842
0.286930
0.290973
0.288819
0.293863
0.285282
0.288484
0.288684
0.286843
0.291198
0.287473
0.289156
0.283283
0.287104
0.281884
0.283180
0.277699
0.269532
0.263176
0.256325
0.249712
0.241405
0.225286
0.225321
0.198772
0.197051
0.177122
0.167901
0.135788
0.122310
0.103104
0.100087
0.067046
0.062457
0.035235
0.026888
0.010454
0.014400
0.005007
-0.016510
-0.031632
-0.024858
-0.031514
-0.036914
-0.048097
-0.051173
-0.050032
-0.052179
-0.054622
-0.041696
-0.049199
-0.057809
-0.057162
-0.060782
-0.069415
-0.065633
-0.063961
-0.064340
-0.058039
-0.066364
-0.061427
-0.061334
-0.059083
-0.061954
-0.070539
-0.067703
-0.067509
-0.063744
-0.069324
-0.068987
-0.064696
-0.066194
-0.070670
-0.076603
-0.078557
-0.078939
-0.094179
-0.102645
-0.110403
-0.123871
-0.135917
-0.145040
-0.157676
-0.172700
-0.180225
-0.194874
-0.206091
-0.215988
-0.229007
-0.241260
-0.250026
-0.266033
-0.275534
-0.289125
-0.302860
-0.312671
-0.325633
-0.336583
-0.351069
-0.358917
-0.369923
-0.380529
-0.390343
-0.401476
-0.416676
-0.425664
-0.438020
-0.448337
-0.462348
-0.472709
-0.481961
-0.490159
-0.505482
-0.515167
-0.525755
-0.536015
-0.545870
-0.555694
-0.563784
-0.572848
-0.581233
-0.591902
-0.600587
-0.611151
-0.622324
-0.625886
-0.642891
-0.632200
-0.631996
-0.634517
-0.632474
-0.629068
-0.626195
-0.624070
-0.619896
-0.629172
-0.618919
-0.614845
-0.616224
-0.616041
-0.617778
-0.614121
-0.615355
-0.617808
-0.610937
-0.611360
-0.605386
-0.600786
-0.602662
-0.605197
-0.596087
-0.594405
-0.590222
-0.596718
-0.585621
-0.583750
-0.582164
-0.578379
-0.584011
-0.588740
-0.582571
-0.575935
-0.578549
-0.579816
-0.578470
-0.577859
-0.576526
-0.578037
-0.579097
-0.573524
-0.572571
-0.575870
-0.579636
-0.571718
-0.567281
-0.568886
-0.561185
-0.565388
-0.566327
-0.567526
-0.563239
-0.567286
-0.574458
-0.568669
-0.571968
-0.583832
-0.578552
-0.589095
-0.591119
-0.588453
-0.598448
-0.600283
-0.596561
-0.599438
-0.599262
-0.601815
-0.604313
-0.604886
-0.603690
-0.598937
-0.586497
-0.584841
-0.574250
-0.559190
-0.541108
-0.516352
-0.524709
-0.498619
-0.477925
-0.417625
-0.367682
-0.294425
-0.164287
-0.170675
-0.164220
-0.156166
-0.145237
-0.134419
-0.129524
-0.120373
-0.107922
-0.083838
-0.073484
-0.040871
-0.254752
-0.265834
-0.259376
-0.315332
-0.280524
-0.241666
-0.301365
-0.220663
-0.263290
-0.259000
-0.246254
-0.283132
-0.286276
-0.300353
-0.212906
-0.297599
-0.208361
-0.253640
-0.270071
-0.239742
-0.291282
-0.266223
-0.229407
-0.260940
-0.255521
-0.267321
-0.187915
-0.199368
-0.175555
-0.211923
-0.174482
-0.231427
-0.190841
-0.164513
-0.249841
-0.187092
-0.191962
-0.152870
-0.174939
-0.171343
-0.145563
-0.165297
-0.140238
-0.180665
-0.167094
-0.155135
-0.130824
-0.156316
-0.123730
-0.151853
-0.079825
-0.109177
-0.092679
-0.080499
-0.078332
-0.053097
-0.070387
-0.063198
-0.050241
-0.028321
-0.035205
-0.042698
-0.034845
-0.034826
-0.021262
-0.022676
-0.033812
-0.024574
-0.004044
-0.003009
-0.050185
-0.030288
-0.627063
-0.631436
-0.078615
-0.090206
-0.031046
-0.019777
-0.034058
-0.055708
-0.065583
-0.181058
-0.194964
-0.188704
-0.260794
-0.257379
-0.241023
-0.203116
-0.464152
-0.452964
-0.458176
-0.217689
-0.211085
-0.204694
-0.583065
-0.585996
-0.574006
-0.580969
-0.597944
-0.592456
-0.219990
-0.139007
-0.131478
-0.135064
-0.212893
-0.229066
-0.217313
-0.576162
-0.574824
-0.566194
-0.463197
-0.252313
-0.253918
-0.263983
-0.248315
-0.251496
-0.258359
-0.229768
-0.230266
-0.235373
-0.233915
-0.503384
-0.510395
-0.497332
-0.505197
-0.484651
-0.494100
-0.484301
-0.498223
-0.245157
-0.233236
-0.242363
-0.249829
-0.325163
-0.323223
-0.313710
-0.060087
-0.062947
-0.313232
-0.511706
-0.511694
-0.502916
-0.524486
-0.500206
-0.507219
-0.489406
-0.334310
-0.348008
-0.344005
-0.337593
-0.151804
-0.143692
-0.136328
-0.141443
-0.464528
-0.474995
-0.470373
-0.462513
-0.291314
-0.276609
-0.285832
-0.462916
-0.446556
-0.447397
-0.064825
-0.052654
-0.076103
-0.058844
-0.070974
-0.051501
-0.071719
-0.481399
-0.486130
-0.489606
-0.189166
-0.200470
-0.200139
-0.204822
-0.279867
-0.585184
-0.595682
-0.586750
-0.402917
-0.395980
-0.394581
-0.406675
-0.512179
-0.520222
-0.506087
-0.514643
-0.471347
-0.463853
-0.468448
-0.365025
-0.365644
-0.374757
-0.137891
-0.142740
-0.141720
-0.120498
-0.098739
-0.112046
-0.064717
-0.354825
-0.350572
-0.365612
-0.357638
-0.368973
-0.368884
-0.452096
-0.439288
-0.480036
-0.483700
-0.471946
-0.547002
-0.542744
-0.536099
-0.493271
-0.360328
-0.370799
-0.359514
-0.568131
-0.565389
-0.573294
-0.458388
-0.390931
-0.381785
-0.400890
-0.360508
-0.350414
-0.361090
-0.431689
-0.400894
-0.498462
-0.112591
-0.100231
-0.119837
-0.097161
-0.223624
-0.233988
-0.233503
-0.243602
-0.052506
-0.044393
-0.334583
-0.328124
-0.336601
-0.323593
-0.580245
-0.591642
-0.583634
-0.352927
-0.351667
-0.356469
-0.359788
-0.374950
-0.363809
-0.353153
-0.599764
-0.481781
-0.470390
-0.473827
-0.442519
-0.450413
-0.450228
-0.463527
-0.477523
-0.569885
-0.571197
-0.417065
-0.407599
-0.418202
-0.581683
-0.581898
-0.301083
-0.303546
-0.311905
-0.537193
-0.544720
-0.538699
-0.559079
-0.545836
-0.550702
-0.509781
-0.520370
-0.516278
-0.532758
-0.497450
-0.512764
-0.506490
-0.299924
-0.289440
-0.183091
-0.297253
-0.579148
-0.592739
-0.585063
-0.597634
-0.626353
-0.615305
-0.088710
-0.095605
-0.190921
-0.193734
-0.181943
-0.197763
-0.448440
-0.446140
-0.440715
-0.489554
-0.500773
-0.490428
-0.433296
-0.207266
-0.198034
-0.205975
-0.462542
-0.469201
-0.602806
-0.593931
-0.595704
-0.313188
-0.309208
-0.085875
-0.084554
-0.069640
-0.073677
-0.511011
-0.520267
-0.518069
-0.530182
-0.562865
-0.556235
-0.564109
-0.547049
-0.528221
-0.533268
-0.523793
-0.554065
-0.547326
-0.589114
-0.592124
-0.598385
-0.488829
-0.501440
-0.515138
-0.525123
-0.499411
-0.507727
-0.497464
-0.116943
-0.105742
-0.511557
-0.522686
-0.526101
-0.597045
-0.476033
-0.488050
-0.481178
-0.537873
-0.532125
-0.144722
-0.153998
-0.156551
-0.141222
-0.206448
-0.202951
-0.199224
-0.344122
-0.350075
-0.358172
-0.306077
-0.302346
-0.155428
-0.141184
-0.146453
-0.339129
-0.317339
-0.320039
-0.321050
-0.569718
-0.584274
-0.574214
-0.528170
-0.532308
-0.522750
-0.184315
-0.515308
-0.525419
-0.519280
-0.491092
-0.485332
-0.507779
-0.430123
-0.487655
-0.170168
-0.452846
-0.343931
-0.465472
-0.485398
-0.492949
-0.470818
-0.464509
-0.532219
-0.529366
-0.506530
-0.543360
-0.496809
-0.487979
-0.498286
-0.105214
-0.097636
-0.491399
-0.491163
-0.488789
-0.471074
-0.477721
-0.454758
-0.624997
-0.561278
-0.550657
-0.556541
-0.545866
-0.557978
-0.083285
-0.440953
-0.434148
-0.619904
-0.615040
-0.458769
-0.457102
-0.107847
-0.102403
-0.327271
-0.322708
-0.512728
-0.234159
-0.237073
-0.231942
-0.224962
-0.548462
-0.537180
-0.485664
-0.496293
-0.482877
-0.501320
-0.499721
-0.507811
-0.501070
-0.543678
-0.496808
-0.124399
-0.402542
-0.408303
-0.406914
-0.589257
-0.539661
-0.520858
-0.560447
-0.606158
-0.593862
-0.577246
-0.582597
-0.415852
-0.405752
-0.118426
-0.114372
-0.112452
-0.396386
-0.282951
-0.298230
-0.289177
-0.600505
-0.604007
-0.598461
-0.465567
-0.456659
-0.442122
-0.510952
-0.519859
-0.409336
-0.371224
-0.491920
-0.509389
-0.158512
-0.159636
-0.143876
-0.519388
-0.527290
-0.564026
-0.560693
-0.550569
-0.553348
-0.458440
-0.320587
-0.317412
-0.557075
-0.628916
-0.554606
-0.537809
-0.567037
-0.610324
-0.609778
-0.229577
-0.226449
-0.218940
-0.476427
-0.077104
-0.102380
-0.096797
-0.110959
-0.504611
-0.523740
-0.532568
-0.505548
-0.483428
-0.485079
-0.454431
-0.455532
-0.456379
-0.461816
-0.468026
-0.559271
-0.502042
-0.502257
-0.492872
-0.134536
-0.516512
-0.514117
-0.527336
-0.579847
-0.218854
-0.125398
-0.125545
-0.122370
-0.554327
-0.546700
-0.575588
-0.592777
-0.589510
-0.595477
-0.493480
-0.522090
-0.539255
-0.438788
-0.571334
-0.170122
-0.175054
-0.448252
-0.451526
-0.218971
-0.069328
-0.055764
-0.055690
-0.619867
-0.618002
-0.609787
-0.606294
-0.088558
-0.082711
-0.174699
-0.167804
-0.177392
-0.190416
-0.547233
-0.541181
-0.533330
-0.445596
-0.111704
-0.113332
-0.561940
-0.546780
-0.583992
-0.516015
-0.532606
-0.539720
-0.511932
-0.441151
-0.136632
-0.146067
-0.192015
-0.580538
-0.573404
-0.283552
-0.276390
-0.284335
-0.570772
-0.135168
-0.131077
-0.585380
-0.593772
-0.551107
-0.585257
-0.508921
-0.563270
-0.038467
-0.058993
-0.537502
-0.295290
-0.159786
-0.170558
-0.163396
-0.509883
-0.523665
-0.540509
-0.501502
-0.163587
-0.153466
-0.166593
-0.612916
-0.276775
-0.177518
-0.602616
-0.597523
-0.616841
-0.101553
-0.090837
-0.302894
-0.300987
-0.300006
-0.116994
-0.120818
-0.577530
-0.310355
-0.300195
-0.110951
-0.082658
-0.112871
-0.548685
-0.557705
-0.552378
-0.562942
-0.161332
-0.441229
-0.065868
-0.055932
-0.151421
-0.484677
-0.500309
-0.605088
-0.515566
-0.519017
-0.523794
-0.525136
-0.533687
-0.492527
-0.149033
-0.087251
-0.236176
-0.226104
-0.230622
-0.574906
-0.236458
-0.403380
-0.404079
-0.419427
-0.144658
-0.135290
-0.154470
-0.575205
-0.584183
-0.565515
-0.568711
-0.572140
-0.578517
-0.204411
-0.200703
-0.188417
-0.215427
-0.154539
-0.543764
-0.533897
-0.513578
-0.551345
-0.142485
-0.545823
-0.555152
-0.544376
-0.519775
-0.531211
-0.541345
-0.541864
-0.474479
-0.071801
-0.111600
-0.112397
-0.101838
-0.327652
-0.337227
-0.332602
-0.332867
-0.080294
-0.130658
-0.136995
-0.602409
-0.557758
-0.277570
-0.269825
-0.269562
-0.595581
-0.594513
-0.609431
-0.099948
-0.470385
-0.472495
-0.115577
-0.128701
-0.084115
-0.276145
-0.279076
-0.256564
-0.264292
-0.267987
-0.458651
-0.456443
-0.452178
-0.266500
-0.437554
-0.158673
-0.437130
-0.435785
-0.496106
-0.565992
-0.179318
-0.560734
-0.240081
-0.229676
-0.237786
-0.152696
-0.225124
-0.171678
-0.563552
-0.246405
-0.236920
-0.556161
-0.237833
-0.381779
-0.371419
-0.380148
-0.495268
-0.082000
-0.528680
-0.359788
-0.345517
-0.352486
-0.371077
-0.306713
-0.293170
-0.304958
-0.276739
-0.264118
-0.478338
-0.487522
-0.599055
-0.595225
-0.592263
-0.298143
-0.556806
-0.566522
-0.501658
-0.521894
-0.279880
-0.270075
-0.568815
-0.570620
-0.538190
-0.545287
-0.579814
-0.588374
-0.576504
-0.094037
-0.099128
-0.090590
-0.100086
-0.462924
-0.054272
-0.061479
-0.069211
-0.467879
-0.465724
-0.455564
-0.445737
-0.075503
-0.288330
-0.280638
-0.295087
-0.449198
-0.413783
-0.428535
-0.158235
-0.581568
-0.572636
-0.574745
-0.434082
-0.427164
-0.419779
-0.586618
-0.345614
-0.345063
-0.334741
-0.569941
-0.576378
-0.493946
-0.433423
-0.266209
-0.285003
-0.219972
-0.228417
-0.211601
-0.283585
-0.472046
-0.471440
-0.475376
-0.463693
-0.117274
-0.109337
-0.094322
-0.070663
-0.299873
-0.306356
-0.311726
-0.117237
-0.129106
-0.115932
-0.322555
-0.274491
-0.262090
-0.272236
-0.266738
-0.555470
-0.566802
-0.569676
-0.472692
-0.480397
-0.251870
-0.244387
-0.254760
-0.510641
-0.502882
-0.514875
-0.557289
-0.522566
-0.500745
-0.500357
-0.526473
-0.545805
-0.573709
-0.347539
-0.339009
-0.345083
-0.461520
-0.459762
-0.461537
-0.533645
-0.538103
-0.544633
-0.594675
-0.602086
-0.606925
-0.593715
-0.449811
-0.445750
-0.470246
-0.480256
-0.532140
-0.537012
-0.527273
-0.437825
-0.603371
-0.561842
-0.568075
-0.559092
-0.432403
-0.087447
-0.423369
-0.484089
-0.466447
-0.479492
-0.145208
-0.146945
-0.154002
-0.529550
-0.552379
-0.485261
-0.507163
-0.519874
-0.583736
-0.548043
-0.559673
-0.555906
-0.549428
-0.520383
-0.535124
-0.065501
-0.072660
-0.076164
-0.091684
-0.454435
-0.453980
-0.452335
-0.441959
-0.447629
-0.574706
-0.571489
-0.381217
-0.372043
-0.368193
-0.368997
-0.280282
-0.263471
-0.272743
-0.166829
-0.435871
-0.428008
-0.424547
-0.485451
-0.459802
-0.470773
-0.550595
-0.279430
-0.287129
-0.281625
-0.274286
-0.490323
-0.492293
-0.506918
-0.510706
-0.526695
-0.565568
-0.447616
-0.442155
-0.238109
-0.226940
-0.233431
-0.223610
-0.441173
-0.558055
-0.554238
-0.161581
-0.147366
-0.160566
-0.289043
-0.115475
-0.128575
-0.118062
-0.102479
-0.502718
-0.508845
-0.435380
-0.434861
-0.109536
-0.102880
-0.100738
-0.530845
-0.539701
-0.532633
-0.590370
-0.583313
-0.242975
-0.251571
-0.238758
-0.500470
-0.502665
-0.494221
-0.500905
-0.452942
-0.464518
-0.471494
-0.243852
-0.477406
-0.488900
-0.542142
-0.543304
-0.214025
-0.296159
-0.215266
-0.215786
-0.203032
-0.497661
-0.207258
-0.206662
-0.508582
-0.522948
-0.444674
-0.436596
-0.212033
-0.200335
-0.216555
-0.524687
-0.520901
-0.511691
-0.219386
-0.111790
-0.105863
-0.534958
-0.184571
-0.175411
-0.435692
-0.193849
-0.484434
-0.425253
-0.428885
-0.388679
-0.377182
-0.393653
-0.292557
-0.285196
-0.309312
-0.298195
-0.308266
-0.295062
-0.326313
-0.326070
-0.336015
-0.335847
-0.530322
-0.505566
-0.507961
-0.521046
-0.133947
-0.136298
-0.152137
-0.541248
-0.197766
-0.199224
-0.447221
-0.460056
-0.339320
-0.338192
-0.349929
-0.350005
-0.467588
-0.245116
-0.246995
-0.478574
-0.495337
-0.288271
-0.160628
-0.147248
-0.149489
-0.197929
-0.197176
-0.581102
-0.525561
-0.523432
-0.442353
-0.434870
-0.234575
-0.536760
-0.530661
-0.169185
-0.171894
-0.161927
-0.432232
-0.212638
-0.218216
-0.423364
-0.418836
-0.565192
-0.554331
-0.548807
-0.491717
-0.511655
-0.508890
-0.584543
-0.565831
-0.349229
-0.333393
-0.336311
-0.447456
-0.454149
-0.541436
-0.535963
-0.155511
-0.464726
-0.420339
-0.416832
-0.431251
-0.418666
-0.171878
-0.322894
-0.323451
-0.331271
-0.527039
-0.513522
-0.521299
-0.513749
-0.192931
-0.201502
-0.188750
-0.205325
-0.479647
-0.490894
-0.486186
-0.493507
-0.229915
-0.239616
-0.332945
-0.333705
-0.568975
-0.102407
-0.106568
-0.117641
-0.122693
-0.350197
-0.352388
-0.359445
-0.232142
-0.241778
-0.232214
-0.077393
-0.072981
-0.090486
-0.501701
-0.507103
-0.502016
-0.439532
-0.429800
-0.214244
-0.200454
-0.200064
-0.248389
-0.079501
-0.088969
-0.429424
-0.417474
-0.416394
-0.475242
-0.436001
-0.438155
-0.430425
-0.445636
-0.452651
-0.222706
-0.228380
-0.219627
-0.286958
-0.245820
-0.246542
-0.462417
-0.475376
-0.485700
-0.434532
-0.426471
-0.241045
-0.325956
-0.333473
-0.328287
-0.424334
-0.339059
-0.200626
-0.204932
-0.210045
-0.410930
-0.407539
-0.434528
-0.451554
-0.491156
-0.480526
-0.462280
-0.471150
-0.477983
-0.100235
-0.091828
-0.120140
-0.106684
-0.566798
-0.573242
-0.567841
-0.424982
-0.415181
-0.456976
-0.454046
-0.456099
-0.088481
-0.103587
-0.103885
-0.094865
-0.108987
-0.115528
-0.126400
-0.212107
-0.410213
-0.396276
-0.394593
-0.191562
-0.184951
-0.271351
-0.262589
-0.269424
-0.269808
-0.435029
-0.439193
-0.457507
-0.467798
-0.466743
-0.472993
-0.419546
-0.411490
-0.209908
-0.219497
-0.192346
-0.116341
-0.112528
-0.130310
-0.208302
-0.208621
-0.332450
-0.325592
-0.426905
-0.429795
-0.502409
-0.509392
-0.518913
-0.399201
-0.385962
-0.385099
-0.327759
-0.514253
-0.515210
-0.526881
-0.107284
-0.086849
-0.419112
-0.440847
-0.199319
-0.230402
-0.229275
-0.242156
-0.451685
-0.456060
-0.234257
-0.245946
-0.523157
-0.526932
-0.183940
-0.181396
-0.287615
-0.410018
-0.406112
-0.486121
-0.464182
-0.453387
-0.456851
-0.401860
-0.385095
-0.560763
-0.565171
-0.421395
-0.427345
-0.191265
-0.552018
-0.554712
-0.533960
-0.567875
-0.557495
-0.408075
-0.402159
-0.125055
-0.311352
-0.331016
-0.493687
-0.316853
-0.304768
-0.316773
-0.387644
-0.377179
-0.320263
-0.304870
-0.531316
-0.519770
-0.513817
-0.420540
-0.435262
-0.319923
-0.180506
-0.194085
-0.367342
-0.364213
-0.357019
-0.190879
-0.558355
-0.296280
-0.338364
-0.352060
-0.360474
-0.299062
-0.505609
-0.511395
-0.339564
-0.342737
-0.368694
-0.343471
-0.464489
-0.466305
-0.456380
-0.358709
-0.369621
-0.399134
-0.390223
-0.474935
-0.388117
-0.372334
-0.408422
-0.422391
-0.454907
-0.463101
-0.557777
-0.126420
-0.101202
-0.129736
-0.144493
-0.133297
-0.117887
-0.120629
-0.526160
-0.335625
-0.342758
-0.328116
-0.338615
-0.334862
-0.500701
-0.503068
-0.490771
-0.291554
-0.291564
-0.304768
-0.076369
-0.072567
-0.087137
-0.407022
-0.288403
-0.407274
-0.409860
-0.417715
-0.412390
-0.373611
-0.394996
-0.380264
-0.356586
-0.249745
-0.591670
-0.604579
-0.594944
-0.202824
-0.198191
-0.207709
-0.400758
-0.226110
-0.234011
-0.224425
-0.232119
-0.239451
-0.419694
-0.129556
-0.124077
-0.109779
-0.290349
-0.559179
-0.543522
-0.552441
-0.550593
-0.142587
-0.333608
-0.320116
-0.321166
-0.326604
-0.225198
-0.225629
-0.229008
-0.085742
-0.240251
-0.499829
-0.507527
-0.514411
-0.515549
-0.568661
-0.555385
-0.522241
-0.521780
-0.503848
-0.558074
-0.251115
-0.485593
-0.488961
-0.484909
-0.489114
-0.472093
-0.464155
-0.464237
-0.478531
-0.465370
-0.472036
-0.459923
-0.471943
-0.388918
-0.386580
-0.393343
-0.216808
-0.208957
-0.134748
-0.121385
-0.122962
-0.125984
-0.117257
-0.122736
-0.429308
-0.444092
-0.432239
-0.444043
-0.374979
-0.580250
-0.586252
-0.588725
-0.185574
-0.189594
-0.585630
-0.333571
-0.229242
-0.225557
-0.216869
-0.229446
-0.214822
-0.375469
-0.382237
-0.185441
-0.529916
-0.522719
-0.524555
-0.517301
-0.544723
-0.090103
-0.087230
-0.308964
-0.138847
-0.138680
-0.143958
-0.164573
-0.148382
-0.159458
-0.129112
-0.275748
-0.273215
-0.279550
-0.273063
-0.190093
-0.319229
-0.327750
-0.328654
-0.499948
-0.490277
-0.337639
-0.343767
-0.347780
-0.352200
-0.493725
-0.500095
-0.490956
-0.496132
-0.508441
-0.263572
-0.276837
-0.411194
-0.398822
-0.402298
-0.405616
-0.410052
-0.417680
-0.411659
-0.423285
-0.423053
-0.416314
-0.433456
-0.373615
-0.361744
-0.149287
-0.157985
-0.140800
-0.280247
-0.292668
-0.294666
-0.235419
-0.283284
-0.132419
-0.136379
-0.484436
-0.490829
-0.484043
-0.486824
-0.280144
-0.250500
-0.252142
-0.292394
-0.300498
-0.303989
-0.551344
-0.552236
-0.543824
-0.551450
-0.541726
-0.204180
-0.420674
-0.410462
-0.084422
-0.081545
-0.078423
-0.101043
-0.098902
-0.336988
-0.341040
-0.377455
-0.386381
-0.381734
-0.321185
-0.305661
-0.322673
-0.334748
-0.306761
-0.283574
-0.285695
-0.277692
-0.509615
-0.281829
-0.482122
-0.292535
-0.284434
-0.306180
-0.224308
-0.218067
-0.219646
-0.376267
-0.374379
-0.364798
-0.385280
-0.375767
-0.382171
-0.240382
-0.228781
-0.222525
-0.326238
-0.324384
-0.315091
-0.319175
-0.343057
-0.562284
-0.551906
-0.197106
-0.207017
-0.209680
-0.202108
-0.481906
-0.476277
-0.451139
-0.462053
-0.241339
-0.502081
-0.501916
-0.509750
-0.514872
-0.521155
-0.522915
-0.479284
-0.491324
-0.480160
-0.459141
-0.469100
-0.471702
-0.401717
-0.411932
-0.409194
-0.418623
-0.431956
-0.446640
-0.438624
-0.446019
-0.128511
-0.131455
-0.496580
-0.094695
-0.129760
-0.140607
-0.148798
-0.150227
-0.162118
-0.512640
-0.504706
-0.511107
-0.552693
-0.546223
-0.556868
-0.274754
-0.273043
-0.286204
-0.432218
-0.439425
-0.326427
-0.315436
-0.423202
-0.427102
-0.427207
-0.172904
-0.179991
-0.172146
-0.184616
-0.417368
-0.424570
-0.417589
-0.422042
-0.302673
-0.296174
-0.286842
-0.309213
-0.306403
-0.312156
-0.544964
-0.152389
-0.146310
-0.153523
-0.142065
-0.161604
-0.154965
-0.269910
-0.261149
-0.264230
-0.273050
-0.255587
-0.429642
-0.436238
-0.431014
-0.426733
-0.441403
-0.433074
-0.175281
-0.173184
-0.445294
-0.447199
-0.452201
-0.075783
-0.088722
-0.457541
-0.244166
-0.252674
-0.247487
-0.437785
-0.101955
-0.145062
-0.148383
-0.160379
-0.174373
-0.168393
-0.163956
-0.115012
-0.122172
-0.105954
-0.101227
-0.493642
-0.489700
-0.323170
-0.319575
-0.311450
-0.334248
-0.302277
-0.308357
-0.303154
-0.533225
-0.534344
-0.540372
-0.218842
-0.220785
-0.229610
-0.353042
-0.356222
-0.564889
-0.562436
-0.342710
-0.453397
-0.448382
-0.452738
-0.449126
-0.443310
-0.440996
-0.433680
-0.568302
-0.572160
-0.577447
-0.559240
-0.576160
-0.569396
-0.587929
-0.585523
-0.593411
-0.585206
-0.402641
-0.397525
-0.260146
-0.405271
-0.394327
-0.550275
-0.557878
-0.456486