# vtk DataFile Version 2.0
Test
ASCII
DATASET POLYDATA
POINTS 6577 float
0.000000 0.000000 0.000000
2.000000 0.000000 0.000000
2.000000 4.000000 0.000000
0.000000 4.000000 0.000000
0.000000 0.500000 0.000000
1.500000 2.000000 0.000000
2.000000 2.500000 0.000000
0.040000 0.000000 0.000000
0.080000 0.000000 0.000000
0.120000 0.000000 0.000000
0.160000 0.000000 0.000000
0.200000 0.000000 0.000000
0.240000 0.000000 0.000000
0.280000 0.000000 0.000000
0.320000 0.000000 0.000000
0.360000 0.000000 0.000000
0.400000 0.000000 0.000000
0.440000 0.000000 0.000000
0.480000 0.000000 0.000000
0.520000 0.000000 0.000000
0.560000 0.000000 0.000000
0.600000 0.000000 0.000000
0.640000 0.000000 0.000000
0.680000 0.000000 0.000000
0.720000 0.000000 0.000000
0.760000 0.000000 0.000000
0.800000 0.000000 0.000000
0.840000 0.000000 0.000000
0.880000 0.000000 0.000000
0.920000 0.000000 0.000000
0.960000 0.000000 0.000000
1.000000 0.000000 0.000000
1.040000 0.000000 0.000000
1.080000 0.000000 0.000000
1.120000 0.000000 0.000000
1.160000 0.000000 0.000000
1.200000 0.000000 0.000000
1.240000 0.000000 0.000000
1.280000 0.000000 0.000000
1.320000 0.000000 0.000000
1.360000 0.000000 0.000000
1.400000 0.000000 0.000000
1.440000 0.000000 0.000000
1.480000 0.000000 0.000000
1.520000 0.000000 0.000000
1.560000 0.000000 0.000000
1.600000 0.000000 0.000000
1.640000 0.000000 0.000000
1.680000 0.000000 0.000000
1.720000 0.000000 0.000000
1.760000 0.000000 0.000000
1.800000 0.000000 0.000000
1.840000 0.000000 0.000000
1.880000 0.000000 0.000000
1.920000 0.000000 0.000000
1.960000 0.000000 0.000000
2.000000 0.039683 0.000000
2.000000 0.079365 0.000000
2.000000 0.119048 0.000000
2.000000 0.158730 0.000000
2.000000 0.198413 0.000000
2.000000 0.238095 0.000000
2.000000 0.277778 0.000000
2.000000 0.317460 0.000000
2.000000 0.357143 0.000000
2.000000 0.396825 0.000000
2.000000 0.436508 0.000000
2.000000 0.476190 0.000000
2.000000 0.515873 0.000000
2.000000 0.555556 0.000000
2.000000 0.595238 0.000000
2.000000 0.634921 0.000000
2.000000 0.674603 0.000000
2.000000 0.714286 0.000000
2.000000 0.753968 0.000000
2.000000 0.793651 0.000000
2.000000 0.833333 0.000000
2.000000 0.873016 0.000000
2.000000 0.912698 0.000000
2.000000 0.952381 0.000000
2.000000 0.992063 0.000000
2.000000 1.031746 0.000000
2.000000 1.071429 0.000000
2.000000 1.111111 0.000000
2.000000 1.150794 0.000000
2.000000 1.190476 0.000000
2.000000 1.230159 0.000000
2.000000 1.269841 0.000000
2.000000 1.309524 0.000000
2.000000 1.349206 0.000000
2.000000 1.388889 0.000000
2.000000 1.428571 0.000000
2.000000 1.468254 0.000000
2.000000 1.507937 0.000000
2.000000 1.547619 0.000000
2.000000 1.587302 0.000000
2.000000 1.626984 0.000000
2.000000 1.666667 0.000000
2.000000 1.706349 0.000000
2.000000 1.746032 0.000000
2.000000 1.785714 0.000000
2.000000 1.825397 0.000000
2.000000 1.865079 0.000000
2.000000 1.904762 0.000000
2.000000 1.944444 0.000000
2.000000 1.984127 0.000000
2.000000 2.023810 0.000000
2.000000 2.063492 0.000000
2.000000 2.103175 0.000000
2.000000 2.142857 0.000000
2.000000 2.182540 0.000000
2.000000 2.222222 0.000000
2.000000 2.261905 0.000000
2.000000 2.301587 0.000000
2.000000 2.341270 0.000000
2.000000 2.380952 0.000000
2.000000 2.420635 0.000000
2.000000 2.460317 0.000000
2.000000 2.539474 0.000000
2.000000 2.578947 0.000000
2.000000 2.618421 0.000000
2.000000 2.657895 0.000000
2.000000 2.697368 0.000000
2.000000 2.736842 0.000000
2.000000 2.776316 0.000000
2.000000 2.815789 0.000000
2.000000 2.855263 0.000000
2.000000 2.894737 0.000000
2.000000 2.934211 0.000000
2.000000 2.973684 0.000000
2.000000 3.013158 0.000000
2.000000 3.052632 0.000000
2.000000 3.092105 0.000000
2.000000 3.131579 0.000000
2.000000 3.171053 0.000000
2.000000 3.210526 0.000000
2.000000 3.250000 0.000000
2.000000 3.289474 0.000000
2.000000 3.328947 0.000000
2.000000 3.368421 0.000000
2.000000 3.407895 0.000000
2.000000 3.447368 0.000000
2.000000 3.486842 0.000000
2.000000 3.526316 0.000000
2.000000 3.565789 0.000000
2.000000 3.605263 0.000000
2.000000 3.644737 0.000000
2.000000 3.684211 0.000000
2.000000 3.723684 0.000000
2.000000 3.763158 0.000000
2.000000 3.802632 0.000000
2.000000 3.842105 0.000000
2.000000 3.881579 0.000000
2.000000 3.921053 0.000000
2.000000 3.960526 0.000000
1.960000 4.000000 0.000000
1.920000 4.000000 0.000000
1.880000 4.000000 0.000000
1.840000 4.000000 0.000000
1.800000 4.000000 0.000000
1.760000 4.000000 0.000000
1.720000 4.000000 0.000000
1.680000 4.000000 0.000000
1.640000 4.000000 0.000000
1.600000 4.000000 0.000000
1.560000 4.000000 0.000000
1.520000 4.000000 0.000000
1.480000 4.000000 0.000000
1.440000 4.000000 0.000000
1.400000 4.000000 0.000000
1.360000 4.000000 0.000000
1.320000 4.000000 0.000000
1.280000 4.000000 0.000000
1.240000 4.000000 0.000000
1.200000 4.000000 0.000000
1.160000 4.000000 0.000000
1.120000 4.000000 0.000000
1.080000 4.000000 0.000000
1.040000 4.000000 0.000000
1.000000 4.000000 0.000000
0.960000 4.000000 0.000000
0.920000 4.000000 0.000000
0.880000 4.000000 0.000000
0.840000 4.000000 0.000000
0.800000 4.000000 0.000000
0.760000 4.000000 0.000000
0.720000 4.000000 0.000000
0.680000 4.000000 0.000000
0.640000 4.000000 0.000000
0.600000 4.000000 0.000000
0.560000 4.000000 0.000000
0.520000 4.000000 0.000000
0.480000 4.000000 0.000000
0.440000 4.000000 0.000000
0.400000 4.000000 0.000000
0.360000 4.000000 0.000000
0.320000 4.000000 0.000000
0.280000 4.000000 0.000000
0.240000 4.000000 0.000000
0.200000 4.000000 0.000000
0.160000 4.000000 0.000000
0.120000 4.000000 0.000000
0.080000 4.000000 0.000000
0.040000 4.000000 0.000000
0.000000 3.960227 0.000000
0.000000 3.920455 0.000000
0.000000 3.880682 0.000000
0.000000 3.840909 0.000000
0.000000 3.801136 0.000000
0.000000 3.761364 0.000000
0.000000 3.721591 0.000000
0.000000 3.681818 0.000000
0.000000 3.642045 0.000000
0.000000 3.602273 0.000000
0.000000 3.562500 0.000000
0.000000 3.522727 0.000000
0.000000 3.482955 0.000000
0.000000 3.443182 0.000000
0.000000 3.403409 0.000000
0.000000 3.363636 0.000000
0.000000 3.323864 0.000000
0.000000 3.284091 0.000000
0.000000 3.244318 0.000000
0.000000 3.204545 0.000000
0.000000 3.164773 0.000000
0.000000 3.125000 0.000000
0.000000 3.085227 0.000000
0.000000 3.045455 0.000000
0.000000 3.005682 0.000000
0.000000 2.965909 0.000000
0.000000 2.926136 0.000000
0.000000 2.886364 0.000000
0.000000 2.846591 0.000000
0.000000 2.806818 0.000000
0.000000 2.767045 0.000000
0.000000 2.727273 0.000000
0.000000 2.687500 0.000000
0.000000 2.647727 0.000000
0.000000 2.607955 0.000000
0.000000 2.568182 0.000000
0.000000 2.528409 0.000000
0.000000 2.488636 0.000000
0.000000 2.448864 0.000000
0.000000 2.409091 0.000000
0.000000 2.369318 0.000000
0.000000 2.329545 0.000000
0.000000 2.289773 0.000000
0.000000 2.250000 0.000000
0.000000 2.210227 0.000000
0.000000 2.170455 0.000000
0.000000 2.130682 0.000000
0.000000 2.090909 0.000000
0.000000 2.051136 0.000000
0.000000 2.011364 0.000000
0.000000 1.971591 0.000000
0.000000 1.931818 0.000000
0.000000 1.892045 0.000000
0.000000 1.852273 0.000000
0.000000 1.812500 0.000000
0.000000 1.772727 0.000000
0.000000 1.732955 0.000000
0.000000 1.693182 0.000000
0.000000 1.653409 0.000000
0.000000 1.613636 0.000000
0.000000 1.573864 0.000000
0.000000 1.534091 0.000000
0.000000 1.494318 0.000000
0.000000 1.454545 0.000000
0.000000 1.414773 0.000000
0.000000 1.375000 0.000000
0.000000 1.335227 0.000000
0.000000 1.295455 0.000000
0.000000 1.255682 0.000000
0.000000 1.215909 0.000000
0.000000 1.176136 0.000000
0.000000 1.136364 0.000000
0.000000 1.096591 0.000000
0.000000 1.056818 0.000000
0.000000 1.017045 0.000000
0.000000 0.977273 0.000000
0.000000 0.937500 0.000000
0.000000 0.897727 0.000000
0.000000 0.857955 0.000000
0.000000 0.818182 0.000000
0.000000 0.778409 0.000000
0.000000 0.738636 0.000000
0.000000 0.698864 0.000000
0.000000 0.659091 0.000000
0.000000 0.619318 0.000000
0.000000 0.579545 0.000000
0.000000 0.539773 0.000000
0.000000 0.461538 0.000000
0.000000 0.423077 0.000000
0.000000 0.384615 0.000000
0.000000 0.346154 0.000000
0.000000 0.307692 0.000000
0.000000 0.269231 0.000000
0.000000 0.230769 0.000000
0.000000 0.192308 0.000000
0.000000 0.153846 0.000000
0.000000 0.115385 0.000000
0.000000 0.076923 0.000000
0.000000 0.038462 0.000000
0.027778 0.527778 0.000000
0.055556 0.555556 0.000000
0.083333 0.583333 0.000000
0.111111 0.611111 0.000000
0.138889 0.638889 0.000000
0.166667 0.666667 0.000000
0.194444 0.694444 0.000000
0.222222 0.722222 0.000000
0.250000 0.750000 0.000000
0.277778 0.777778 0.000000
0.305556 0.805556 0.000000
0.333333 0.833333 0.000000
0.361111 0.861111 0.000000
0.388889 0.888889 0.000000
0.416667 0.916667 0.000000
0.444444 0.944444 0.000000
0.472222 0.972222 0.000000
0.500000 1.000000 0.000000
0.527778 1.027778 0.000000
0.555556 1.055556 0.000000
0.583333 1.083333 0.000000
0.611111 1.111111 0.000000
0.638889 1.138889 0.000000
0.666667 1.166667 0.000000
0.694444 1.194444 0.000000
0.722222 1.222222 0.000000
0.750000 1.250000 0.000000
0.777778 1.277778 0.000000
0.805556 1.305556 0.000000
0.833333 1.333333 0.000000
0.861111 1.361111 0.000000
0.888889 1.388889 0.000000
0.916667 1.416667 0.000000
0.944444 1.444444 0.000000
0.972222 1.472222 0.000000
1.000000 1.500000 0.000000
1.027778 1.527778 0.000000
1.055556 1.555556 0.000000
1.083333 1.583333 0.000000
1.111111 1.611111 0.000000
1.138889 1.638889 0.000000
1.166667 1.666667 0.000000
1.194444 1.694444 0.000000
1.222222 1.722222 0.000000
1.250000 1.750000 0.000000
1.277778 1.777778 0.000000
1.305556 1.805556 0.000000
1.333333 1.833333 0.000000
1.361111 1.861111 0.000000
1.388889 1.888889 0.000000
1.416667 1.916667 0.000000
1.444444 1.944444 0.000000
1.472222 1.972222 0.000000
1.527778 2.027778 0.000000
1.555556 2.055556 0.000000
1.583333 2.083333 0.000000
1.611111 2.111111 0.000000
1.638889 2.138889 0.000000
1.666667 2.166667 0.000000
1.694444 2.194444 0.000000
1.722222 2.222222 0.000000
1.750000 2.250000 0.000000
1.777778 2.277778 0.000000
1.805556 2.305556 0.000000
[...]
POINT_DATA 6577
SCALARS UX float 1
LOOKUP_TABLE default
-0.000030
0.000166
-0.032627
-0.566801
-0.223004
-0.091126
0.004910
-0.000003
-0.000004
-0.000005
0.000005
0.000004
-0.000021
0.000002
0.000003
0.000004
-0.000005
0.000003
-0.000002
0.000002
0.000002
-0.000002
0.000001
0.000001
0.000002
0.000001
-0.000001
-0.000002
0.000001
-0.000001
0.000002
0.000001
0.000000
-0.000000
0.000000
0.000000
-0.000000
0.000000
0.000001
-0.000003
0.000001
0.000001
-0.000003
0.000003
0.000001
-0.000003
-0.000003
-0.000000
-0.000001
-0.000009
0.000014
-0.000013
0.000012
0.000012
-0.000070
0.000051
0.048848
0.072541
0.104991
0.104239
0.120210
0.140021
0.158341
0.166831
0.179079
0.183944
0.195729
0.214277
0.223226
0.230640
0.241434
0.246737
0.249395
0.256765
0.262062
0.266479
0.270899
0.271642
0.274920
0.273623
0.279162
0.281965
0.284456
0.285933
0.287342
0.291760
0.294110
0.292949
0.291593
0.289683
0.290569
0.291141
0.286025
0.278812
0.275547
0.277553
0.271793
0.266804
0.256130
0.239410
0.234107
0.231005
0.217690
0.206925
0.197760
0.190121
0.179879
0.174773
0.143609
0.135411
0.105218
0.087547
0.067332
0.056042
0.050049
0.029050
0.030816
0.014089
0.007979
-0.017782
-0.014553
-0.011105
-0.022305
-0.032385
-0.028117
-0.029876
-0.025404
-0.028761
-0.036933
-0.026444
-0.025980
-0.021618
-0.037024
-0.033766
-0.029245
-0.030480
-0.036796
-0.023895
-0.026334
-0.029991
-0.033643
-0.033189
-0.026082
-0.029817
-0.034802
-0.033352
-0.029730
-0.021885
-0.030536
-0.029401
-0.039516
-0.027582
-0.033662
-0.034150
-0.034790
-0.043863
-0.054973
-0.067529
-0.078181
-0.089388
-0.101710
-0.116122
-0.129244
-0.136768
-0.146930
-0.156800
-0.172951
-0.181839
-0.196232
-0.204046
-0.214119
-0.226548
-0.236907
-0.247766
-0.257780
-0.266697
-0.277231
-0.284183
-0.295613
-0.309205
-0.322764
-0.333788
-0.343509
-0.353608
-0.363915
-0.375034
-0.386608
-0.392597
-0.404686
-0.415124
-0.428190
-0.436914
-0.445590
-0.454295
-0.463174
-0.472977
-0.485198
-0.492913
-0.506095
-0.517414
-0.528934
-0.539151
-0.550427
-0.558107
-0.571257
-0.566149
-0.566608
-0.569658
-0.570062
-0.570680
-0.569124
-0.571357
-0.563193
-0.559838
-0.557688
-0.563689
-0.568371
-0.563493
-0.561514
-0.562141
-0.557965
-0.558869
-0.559162
-0.557787
-0.557764
-0.554257
-0.555517
-0.547039
-0.540132
-0.544541
-0.549171
-0.550569
-0.550391
-0.549881
-0.551719
-0.540328
-0.540437
-0.548753
-0.546753
-0.542186
-0.539904
-0.542767
-0.535115
-0.537074
-0.537632
-0.536000
-0.535751
-0.538678
-0.542608
-0.543921
-0.540834
-0.542384
-0.535089
-0.541330
-0.540589
-0.544355
-0.551455
-0.547269
-0.551408
-0.551769
-0.549705
-0.548559
-0.544163
-0.544959
-0.552592
-0.548796
-0.558842
-0.554848
-0.567947
-0.562280
-0.566966
-0.571708
-0.569852
-0.580313
-0.579196
-0.580562
-0.581331
-0.585613
-0.582679
-0.577882
-0.569815
-0.560753
-0.549789
-0.538430
-0.513963
-0.494503
-0.468852
-0.457691
-0.401549
-0.365106
-0.345690
-0.170594
-0.174036
-0.161985
-0.157276
-0.151639
-0.140267
-0.129307
-0.118822
-0.097036
-0.080013
-0.059026
-0.042225
-0.264677
-0.227315
-0.252361
-0.304673
-0.270955
-0.194674
-0.307817
-0.199223
-0.241898
-0.252489
-0.227233
-0.239762
-0.235198
-0.249299
-0.160346
-0.251234
-0.197527
-0.234035
-0.243383
-0.226995
-0.254781
-0.225734
-0.205265
-0.252258
-0.253642
-0.258027
-0.179798
-0.214587
-0.221877
-0.193288
-0.120381
-0.192587
-0.163197
-0.166554
-0.201300
-0.166672
-0.165751
-0.136759
-0.148834
-0.139875
-0.140817
-0.142980
-0.113674
-0.120591
-0.159092
-0.118819
-0.110008
-0.109748
-0.111450
-0.102039
-0.081473
-0.099991
-0.090722
-0.065207
-0.065242
-0.064043
-0.047739
-0.052625
-0.037864
-0.043898
-0.047675
-0.037692
-0.027257
-0.027803
-0.028786
-0.028800
-0.028206
-0.023458
0.004164
-0.003654
-0.022375
-0.020698
-0.561012
-0.563103
-0.048247
-0.036996
-0.001241
-0.011139
-0.024966
-0.035700
-0.048051
-0.139321
-0.145951
-0.148539
-0.239850
-0.232418
-0.221341
-0.153940
-0.429194
-0.429925
-0.420011
-0.166301
-0.159221
-0.163266
-0.518664
-0.520064
-0.510761
-0.525999
-0.538187
-0.536863
-0.171312
-0.094067
-0.085673
-0.086649
-0.168170
-0.175912
-0.166691
-0.526508
-0.521482
-0.515713
-0.436801
-0.201234
-0.196285
-0.207767
-0.226828
-0.235688
-0.232439
-0.181403
-0.177964
-0.185901
-0.180324
-0.434622
-0.441243
-0.440458
-0.440482
-0.429749
-0.437002
-0.427700
-0.439458
-0.186977
-0.177953
-0.184427
-0.228603
-0.302205
-0.299414
-0.291330
-0.050093
-0.043912
-0.284992
-0.480355
-0.478988
-0.470401
-0.494481
-0.446117
-0.446713
-0.438482
-0.307796
-0.319866
-0.314169
-0.308797
-0.139432
-0.136880
-0.127428
-0.124226
-0.419975
-0.427731
-0.423775
-0.415311
-0.234902
-0.228490
-0.232231
-0.434653
-0.418011
-0.427298
-0.057430
-0.023696
-0.048267
-0.044535
-0.040909
-0.028813
-0.043602
-0.459988
-0.468606
-0.473717
-0.168670
-0.178990
-0.182234
-0.189226
-0.234520
-0.530174
-0.537509
-0.533132
-0.343390
-0.332049
-0.338818
-0.349018
-0.468773
-0.475776
-0.469801
-0.472263
-0.446376
-0.436633
-0.450969
-0.304165
-0.305351
-0.308562
-0.099966
-0.110496
-0.104842
-0.111308
-0.088375
-0.090150
-0.040069
-0.329787
-0.326524
-0.336439
-0.342963
-0.348732
-0.348960
-0.428254
-0.422535
-0.441656
-0.443927
-0.434179
-0.488406
-0.491124
-0.486769
-0.450595
-0.296001
-0.309643
-0.301828
-0.514912
-0.506176
-0.518223
-0.442162
-0.363813
-0.361065
-0.372497
-0.313948
-0.304851
-0.310109
-0.433096
-0.417932
-0.435594
-0.098974
-0.084590
-0.100373
-0.086253
-0.202552
-0.204083
-0.211288
-0.214154
-0.033440
-0.027486
-0.281169
-0.276642
-0.283933
-0.270109
-0.527485
-0.536379
-0.529832
-0.336929
-0.328628
-0.341468
-0.345182
-0.355910
-0.341176
-0.337962
-0.542171
-0.410675
-0.400769
-0.405594
-0.411399
-0.420513
-0.424351
-0.430000
-0.408473
-0.529111
-0.532668
-0.354811
-0.349664
-0.359138
-0.521294
-0.522339
-0.281723
-0.274072
-0.287311
-0.500915
-0.507496
-0.503487
-0.529091
-0.521420
-0.519306
-0.484625
-0.489466
-0.489369
-0.514965
-0.471816
-0.485533
-0.481636
-0.259980
-0.264315
-0.167086
-0.261883
-0.526184
-0.533691
-0.534648
-0.541322
-0.560225
-0.558362
-0.048561
-0.053005
-0.174854
-0.172815
-0.163622
-0.182864
-0.387165
-0.384747
-0.375075
-0.460321
-0.474650
-0.473562
-0.373921
-0.186406
-0.181754
-0.185857
-0.435528
-0.452267
-0.547856
-0.545783
-0.539436
-0.294198
-0.285083
-0.082559
-0.071164
-0.061657
-0.056558
-0.480351
-0.487863
-0.485896
-0.496568
-0.548232
-0.534810
-0.543440
-0.530314
-0.499330
-0.510136
-0.497587
-0.524184
-0.521425
-0.566763
-0.570071
-0.574657
-0.476969
-0.466710
-0.506005
-0.517575
-0.490458
-0.473017
-0.470862
-0.072459
-0.062628
-0.478856
-0.494365
-0.490623
-0.533768
-0.444101
-0.456794
-0.448299
-0.509151
-0.505584
-0.132132
-0.143997
-0.143570
-0.130545
-0.156622
-0.149568
-0.154257
-0.325059
-0.325725
-0.336701
-0.275001
-0.281171
-0.104298
-0.094906
-0.096370
-0.322728
-0.288072
-0.300368
-0.299316
-0.547266
-0.552038
-0.543008
-0.462795
-0.460904
-0.457035
-0.138210
-0.491762
-0.501294
-0.488852
-0.467065
-0.463374
-0.475738
-0.454641
-0.462135
-0.129709
-0.438163
-0.311064
-0.452222
-0.459751
-0.458648
-0.455309
-0.455736
-0.517285
-0.518216
-0.503954
-0.539065
-0.464198
-0.461191
-0.468336
-0.057637
-0.049783
-0.468862
-0.470464
-0.461922
-0.452559
-0.457597
-0.434585
-0.556948
-0.531420
-0.523327
-0.526610
-0.521401
-0.522491
-0.038948
-0.408131
-0.396831
-0.547987
-0.548002
-0.447315
-0.452678
-0.046848
-0.054284
-0.302624
-0.290134
-0.488473
-0.202034
-0.194852
-0.195621
-0.185430
-0.518907
-0.514082
-0.424033
-0.437353
-0.431385
-0.481015
-0.454653
-0.492302
-0.477073
-0.536819
-0.441999
-0.082937
-0.372055
-0.385654
-0.376606
-0.526412
-0.531303
-0.508762
-0.547123
-0.544006
-0.558924
-0.552882
-0.551840
-0.387227
-0.375516
-0.073326
-0.062964
-0.063558
-0.401573
-0.336414
-0.276751
-0.267274
-0.537506
-0.536105
-0.533825
-0.399114
-0.391606
-0.408660
-0.506621
-0.501914
-0.367093
-0.363850
-0.466635
-0.475558
-0.104444
-0.115680
-0.104814
-0.493078
-0.500273
-0.544633
-0.533166
-0.516988
-0.544222
-0.386796
-0.304638
-0.297181
-0.525598
-0.564694
-0.542772
-0.524716
-0.555210
-0.546485
-0.542336
-0.210487
-0.201113
-0.191683
-0.458284
-0.049508
-0.059946
-0.047560
-0.069330
-0.502253
-0.507210
-0.512567
-0.455824
-0.457466
-0.451749
-0.442057
-0.448602
-0.437993
-0.444682
-0.449889
-0.552717
-0.471539
-0.465856
-0.461793
-0.091325
-0.476794
-0.482337
-0.482465
-0.517838
-0.203263
-0.080294
-0.079521
-0.074243
-0.546951
-0.533111
-0.562922
-0.523171
-0.527353
-0.526298
-0.486666
-0.508286
-0.519100
-0.429235
-0.556656
-0.123835
-0.125488
-0.425559
-0.437256
-0.194358
-0.060551
-0.058113
-0.050527
-0.559875
-0.550168
-0.539111
-0.543609
-0.055471
-0.045138
-0.124959
-0.118411
-0.125303
-0.135274
-0.486618
-0.484957
-0.478546
-0.436017
-0.061175
-0.065873
-0.548716
-0.533368
-0.572012
-0.491677
-0.507119
-0.528398
-0.499711
-0.431948
-0.092902
-0.102042
-0.139531
-0.514577
-0.509189
-0.218551
-0.217446
-0.227912
-0.555739
-0.088055
-0.078527
-0.517524
-0.523089
-0.543035
-0.566915
-0.480456
-0.538030
-0.018377
-0.038634
-0.505935
-0.241400
-0.138476
-0.146239
-0.145471
-0.487009
-0.498818
-0.525274
-0.470909
-0.112006
-0.103610
-0.116506
-0.550136
-0.223167
-0.145657
-0.535362
-0.534034
-0.557126
-0.057323
-0.041963
-0.281189
-0.275677
-0.271830
-0.066508
-0.075507
-0.559484
-0.285095
-0.281732
-0.095402
-0.079693
-0.087836
-0.479677
-0.494610
-0.485324
-0.492751
-0.114183
-0.374696
-0.034539
-0.024187
-0.108694
-0.459217
-0.475142
-0.550372
-0.487548
-0.492383
-0.499722
-0.500190
-0.519128
-0.459746
-0.104503
-0.077347
-0.214095
-0.204309
-0.211548
-0.506525
-0.207926
-0.382880
-0.372471
-0.387988
-0.097628
-0.088615
-0.110482
-0.510286
-0.518578
-0.499181
-0.528268
-0.555104
-0.538626
-0.193464
-0.185144
-0.183939
-0.199105
-0.100155
-0.520250
-0.512757
-0.489428
-0.521189
-0.088829
-0.486644
-0.478224
-0.472419
-0.495517
-0.511011
-0.475558
-0.468629
-0.446805
-0.046875
-0.077059
-0.077533
-0.069737
-0.282465
-0.294239
-0.283629
-0.287556
-0.060684
-0.085938
-0.091448
-0.543057
-0.493033
-0.248538
-0.245879
-0.243069
-0.530021
-0.527255
-0.550802
-0.059346
-0.453919
-0.445724
-0.075401
-0.075738
-0.044873
-0.249215
-0.255789
-0.247465
-0.245571
-0.256000
-0.438012
-0.436802
-0.438078
-0.242374
-0.427837
-0.111696
-0.429395
-0.430443
-0.470006
-0.501497
-0.133427
-0.525845
-0.186811
-0.167535
-0.179693
-0.108150
-0.172124
-0.119240
-0.498736
-0.192033
-0.182206
-0.487437
-0.189740
-0.319252
-0.318952
-0.326413
-0.464373
-0.049584
-0.505704
-0.331647
-0.321064
-0.327401
-0.310376
-0.275759
-0.279841
-0.283176
-0.213659
-0.204958
-0.451661
-0.463324
-0.542306
-0.536393
-0.530214
-0.284036
-0.523267
-0.525671
-0.481066
-0.493236
-0.221927
-0.214750
-0.532093
-0.544148
-0.506435
-0.516542
-0.526573
-0.532537
-0.521904
-0.059796
-0.060280
-0.049233
-0.069379
-0.435001
-0.041240
-0.031940
-0.047925
-0.445234
-0.442328
-0.429832
-0.428542
-0.053059
-0.245257
-0.233392
-0.249761
-0.428259
-0.386881
-0.399042
-0.108801
-0.554316
-0.543756
-0.545695
-0.419089
-0.421295
-0.391812
-0.526363
-0.322721
-0.321368
-0.316077
-0.510128
-0.516537
-0.470905
-0.407008
-0.256651
-0.265697
-0.166661
-0.171442
-0.156633
-0.267711
-0.436579
-0.433919
-0.436127
-0.426839
-0.076538
-0.075337
-0.071169
-0.053864
-0.281855
-0.289037
-0.288206
-0.077677
-0.090270
-0.082326
-0.299634
-0.242254
-0.216523
-0.223209
-0.214863
-0.494930
-0.504489
-0.499847
-0.448510
-0.457826
-0.203519
-0.193617
-0.206526
-0.450478
-0.443600
-0.445796
-0.523796
-0.496111
-0.474419
-0.483254
-0.505569
-0.517312
-0.506622
-0.330265
-0.323893
-0.326761
-0.442118
-0.440018
-0.434592
-0.497505
-0.511574
-0.508867
-0.550182
-0.554545
-0.561343
-0.538442
-0.422700
-0.420136
-0.448569
-0.455335
-0.498431
-0.498426
-0.490223
-0.419984
-0.555781
-0.506629
-0.517771
-0.503288
-0.413042
-0.064787
-0.415959
-0.467125
-0.445916
-0.463256
-0.098853
-0.098263
-0.105506
-0.497523
-0.510602
-0.471912
-0.480535
-0.491898
-0.528487
-0.489799
-0.497114
-0.499378
-0.495882
-0.497529
-0.511170
-0.042296
-0.046681
-0.053052
-0.059167
-0.434704
-0.430933
-0.429373
-0.418846
-0.419025
-0.522201
-0.518635
-0.339574
-0.328229
-0.324601
-0.331435
-0.226881
-0.215515
-0.219444
-0.118447
-0.413971
-0.405839
-0.405534
-0.465367
-0.445536
-0.453391
-0.498569
-0.255006
-0.263930
-0.259528
-0.217230
-0.475374
-0.481785
-0.484858
-0.497018
-0.505979
-0.513388
-0.431260
-0.429781
-0.192572
-0.184064
-0.187159
-0.178665
-0.426192
-0.511731
-0.502201
-0.108973
-0.098097
-0.113473
-0.229872
-0.082487
-0.091337
-0.082299
-0.076122
-0.468447
-0.477651
-0.413551
-0.409809
-0.095453
-0.078342
-0.086299
-0.475104
-0.483167
-0.463742
-0.545679
-0.536752
-0.189970
-0.193717
-0.191399
-0.431578
-0.433228
-0.425624
-0.435995
-0.434869
-0.448591
-0.460846
-0.197901
-0.466223
-0.476125
-0.486165
-0.482413
-0.192346
-0.274722
-0.170797
-0.171992
-0.155279
-0.490924
-0.177380
-0.192307
-0.497202
-0.505344
-0.425250
-0.421787
-0.149142
-0.154886
-0.166295
-0.458869
-0.452442
-0.447408
-0.195640
-0.069219
-0.066634
-0.472165
-0.136323
-0.126619
-0.416469
-0.138393
-0.418084
-0.407328
-0.401021
-0.360788
-0.350300
-0.369120
-0.234347
-0.230203
-0.252512
-0.240468
-0.250411
-0.233871
-0.301587
-0.304966
-0.311892
-0.307021
-0.466352
-0.442416
-0.449697
-0.459266
-0.098166
-0.101298
-0.111916
-0.492058
-0.177069
-0.182685
-0.432961
-0.444504
-0.313590
-0.317948
-0.323956
-0.323772
-0.459464
-0.192010
-0.191369
-0.466650
-0.484055
-0.255000
-0.130025
-0.118074
-0.117238
-0.144185
-0.148605
-0.533351
-0.461723
-0.461803
-0.414884
-0.412707
-0.183058
-0.482570
-0.477932
-0.119535
-0.133134
-0.127798
-0.412903
-0.172430
-0.173062
-0.400403
-0.391410
-0.510050
-0.496723
-0.492445
-0.436394
-0.443930
-0.443499
-0.533910
-0.520753
-0.323996
-0.310563
-0.313516
-0.423496
-0.433360
-0.487933
-0.479686
-0.124801
-0.447912
-0.362494
-0.356351
-0.367145
-0.360489
-0.136739
-0.301638
-0.300709
-0.314751
-0.468383
-0.459233
-0.469833
-0.449882
-0.144971
-0.155412
-0.143137
-0.158300
-0.457799
-0.478149
-0.416945
-0.424400
-0.175719
-0.185635
-0.306699
-0.311239
-0.513924
-0.064345
-0.070101
-0.073917
-0.085034
-0.293307
-0.290614
-0.302103
-0.213357
-0.222605
-0.210406
-0.041471
-0.037746
-0.047045
-0.431011
-0.441550
-0.435119
-0.418243
-0.407058
-0.173374
-0.156809
-0.168600
-0.230428
-0.034489
-0.050796
-0.404595
-0.394773
-0.391721
-0.408879
-0.421586
-0.415378
-0.410803
-0.421207
-0.430267
-0.178731
-0.188447
-0.181800
-0.228887
-0.226675
-0.219090
-0.437041
-0.453588
-0.471176
-0.406704
-0.404904
-0.218309
-0.306063
-0.309509
-0.302283
-0.398973
-0.322014
-0.186277
-0.193784
-0.194561
-0.382471
-0.377889
-0.415476
-0.427980
-0.417434
-0.415837
-0.437525
-0.452461
-0.461147
-0.089050
-0.069773
-0.097944
-0.094286
-0.516728
-0.520242
-0.508184
-0.395952
-0.393983
-0.394268
-0.389938
-0.392545
-0.056653
-0.066253
-0.083210
-0.073290
-0.085866
-0.097731
-0.099117
-0.203712
-0.387774
-0.374239
-0.366263
-0.177563
-0.167341
-0.222162
-0.215690
-0.223496
-0.215341
-0.399748
-0.417569
-0.435979
-0.401954
-0.445861
-0.455941
-0.393366
-0.382235
-0.159168
-0.160555
-0.150742
-0.076713
-0.076781
-0.084614
-0.190149
-0.191155
-0.311805
-0.308050
-0.362598
-0.371846
-0.445990
-0.450799
-0.460406
-0.377502
-0.365850
-0.362070
-0.310710
-0.467277
-0.470120
-0.473112
-0.075550
-0.068386
-0.396491
-0.408879
-0.180751
-0.219051
-0.218849
-0.228825
-0.426795
-0.438553
-0.218308
-0.234160
-0.471837
-0.473975
-0.135326
-0.144499
-0.230603
-0.390383
-0.381316
-0.429969
-0.395870
-0.389382
-0.398493
-0.371281
-0.364971
-0.490882
-0.508177
-0.400000
-0.408144
-0.142727
-0.493574
-0.498815
-0.470812
-0.498800
-0.494722
-0.384990
-0.379542
-0.088293
-0.292677
-0.309284
-0.465375
-0.295267
-0.279235
-0.299273
-0.367685
-0.359498
-0.294813
-0.281390
-0.471364
-0.459861
-0.458853
-0.394080
-0.408614
-0.292401
-0.129458
-0.142483
-0.339391
-0.340819
-0.335071
-0.143977
-0.526158
-0.274693
-0.318552
-0.334416
-0.328646
-0.272752
-0.444986
-0.454592
-0.282412
-0.299269
-0.336597
-0.304669
-0.435096
-0.436451
-0.422695
-0.326908
-0.335938
-0.381953
-0.376976
-0.452659
-0.364502
-0.351203
-0.386989
-0.404031
-0.420890
-0.434301
-0.504826
-0.115626
-0.089624
-0.117800
-0.132720
-0.092613
-0.087085
-0.084415
-0.476615
-0.310886
-0.317695
-0.296942
-0.316908
-0.308618
-0.470195
-0.472886
-0.458141
-0.275498
-0.280682
-0.285186
-0.048313
-0.035320
-0.047745
-0.380909
-0.264715
-0.346388
-0.349524
-0.354130
-0.350969
-0.340481
-0.348192
-0.344239
-0.337079
-0.191672
-0.544669
-0.551383
-0.540439
-0.162437
-0.163923
-0.170104
-0.351847
-0.206175
-0.207586
-0.202583
-0.218349
-0.220038
-0.357889
-0.120052
-0.105494
-0.103091
-0.268830
-0.507039
-0.496982
-0.501848
-0.507959
-0.124375
-0.304942
-0.300539
-0.297394
-0.305260
-0.181481
-0.188844
-0.180972
-0.063153
-0.190387
-0.470857
-0.476075
-0.478915
-0.487850
-0.537046
-0.528503
-0.498263
-0.480995
-0.474762
-0.528134
-0.218196
-0.429234
-0.438289
-0.431599
-0.437057
-0.422713
-0.413994
-0.407475
-0.427808
-0.436478
-0.442579
-0.431588
-0.446434
-0.367156
-0.362661
-0.370540
-0.204843
-0.185608
-0.096179
-0.083154
-0.091099
-0.090133
-0.081160
-0.091705
-0.367460
-0.381546
-0.371086
-0.379740
-0.362135
-0.531730
-0.525250
-0.539474
-0.167754
-0.175068
-0.538158
-0.312850
-0.203572
-0.207785
-0.199699
-0.209861
-0.197390
-0.339256
-0.346514
-0.165531
-0.472079
-0.461933
-0.468715
-0.459342
-0.510759
-0.066340
-0.076825
-0.269934
-0.106741
-0.102956
-0.112488
-0.140824
-0.126106
-0.140015
-0.094310
-0.255245
-0.254817
-0.255095
-0.250723
-0.157347
-0.264502
-0.269275
-0.272194
-0.461170
-0.453733
-0.318479
-0.323013
-0.327719
-0.335134
-0.464763
-0.467728
-0.455178
-0.467109
-0.474895
-0.211344
-0.222280
-0.377792
-0.375533
-0.367509
-0.378869
-0.391535
-0.402055
-0.405652
-0.383413
-0.388138
-0.381240
-0.390710
-0.346448
-0.343947
-0.127937
-0.140300
-0.120376
-0.233121
-0.239817
-0.246273
-0.252934
-0.233448
-0.095798
-0.106005
-0.448723
-0.453686
-0.451620
-0.447536
-0.308813
-0.204411
-0.200210
-0.235385
-0.246768
-0.251223
-0.504523
-0.504783
-0.490714
-0.496297
-0.490972
-0.153257
-0.396453
-0.388156
-0.069628
-0.064186
-0.053616
-0.069383
-0.081548
-0.277540
-0.281330
-0.319862
-0.325319
-0.316822
-0.296509
-0.285077
-0.302825
-0.309850
-0.285653
-0.261811
-0.264419
-0.255120
-0.449867
-0.253054
-0.457547
-0.270206
-0.266102
-0.276064
-0.183172
-0.175369
-0.175615
-0.347460
-0.344571
-0.339975
-0.354811
-0.344530
-0.352076
-0.218938
-0.206946
-0.205250
-0.305457
-0.303087
-0.292816
-0.296009
-0.322660
-0.530977
-0.514271
-0.158028
-0.160030
-0.164170
-0.153186
-0.451233
-0.443369
-0.428254
-0.435504
-0.217030
-0.465837
-0.459532
-0.466751
-0.470421
-0.477622
-0.482845
-0.451626
-0.464368
-0.451506
-0.407542
-0.419104
-0.440665
-0.373629
-0.378430
-0.380398
-0.386071
-0.396672
-0.402068
-0.394564
-0.409377
-0.108084
-0.114292
-0.467226
-0.084556
-0.093131
-0.098178
-0.109010
-0.109919
-0.120163
-0.474677
-0.469844
-0.481405
-0.516347
-0.510183
-0.515343
-0.249757
-0.249904
-0.259224
-0.391189
-0.402911
-0.306488
-0.287866
-0.384411
-0.390572
-0.384663
-0.138784
-0.146345
-0.136436
-0.144613
-0.355072
-0.366461
-0.358645
-0.361250
-0.274455
-0.268820
-0.260754
-0.283443
-0.281847
-0.288483
-0.505741
-0.135076
-0.130148
-0.134414
-0.131431
-0.143858
-0.136474
-0.218039
-0.211743
-0.212163
-0.221448
-0.217343
-0.374843
-0.379542
-0.373192
-0.369790
-0.378598
-0.372703
-0.161092
-0.152352
-0.390566
-0.389903
-0.391154
-0.042805
-0.057852
-0.398800
-0.219339
-0.222102
-0.224423
-0.385003
-0.100141
-0.132465
-0.140412
-0.143974
-0.155116
-0.147186
-0.144901
-0.084166
-0.089983
-0.086081
-0.074637
-0.451817
-0.445428
-0.266895
-0.259377
-0.251770
-0.272993
-0.247298
-0.247078
-0.241187
-0.492165
-0.493896
-0.494168
-0.199256
-0.199931
-0.211440
-0.322664
-0.332849
-0.527111
-0.527007
-0.318078
-0.405460
-0.394299
-0.399379
-0.404881
-0.396192
-0.398079
-0.389126
-0.520282
-0.525091
-0.533713
-0.512583
-0.520953
-0.516637
-0.534960
-0.528872
-0.544097
-0.530527
-0.345785
-0.337868
-0.233271
-0.347880
-0.334619
-0.488275
-0.492275
-0.407953