# vtk DataFile Version 2.0
Test
ASCII
DATASET POLYDATA
POINTS 6577 float
0.000000 0.000000 0.000000
2.000000 0.000000 0.000000
2.000000 4.000000 0.000000
0.000000 4.000000 0.000000
0.000000 0.500000 0.000000
1.500000 2.000000 0.000000
2.000000 2.500000 0.000000
0.040000 0.000000 0.000000
0.080000 0.000000 0.000000
0.120000 0.000000 0.000000
0.160000 0.000000 0.000000
0.200000 0.000000 0.000000
0.240000 0.000000 0.000000
0.280000 0.000000 0.000000
0.320000 0.000000 0.000000
0.360000 0.000000 0.000000
0.400000 0.000000 0.000000
0.440000 0.000000 0.000000
0.480000 0.000000 0.000000
0.520000 0.000000 0.000000
0.560000 0.000000 0.000000
0.600000 0.000000 0.000000
0.640000 0.000000 0.000000
0.680000 0.000000 0.000000
0.720000 0.000000 0.000000
0.760000 0.000000 0.000000
0.800000 0.000000 0.000000
0.840000 0.000000 0.000000
0.880000 0.000000 0.000000
0.920000 0.000000 0.000000
0.960000 0.000000 0.000000
1.000000 0.000000 0.000000
1.040000 0.000000 0.000000
1.080000 0.000000 0.000000
1.120000 0.000000 0.000000
1.160000 0.000000 0.000000
1.200000 0.000000 0.000000
1.240000 0.000000 0.000000
1.280000 0.000000 0.000000
1.320000 0.000000 0.000000
1.360000 0.000000 0.000000
1.400000 0.000000 0.000000
1.440000 0.000000 0.000000
1.480000 0.000000 0.000000
1.520000 0.000000 0.000000
1.560000 0.000000 0.000000
1.600000 0.000000 0.000000
1.640000 0.000000 0.000000
1.680000 0.000000 0.000000
1.720000 0.000000 0.000000
1.760000 0.000000 0.000000
1.800000 0.000000 0.000000
1.840000 0.000000 0.000000
1.880000 0.000000 0.000000
1.920000 0.000000 0.000000
1.960000 0.000000 0.000000
2.000000 0.039683 0.000000
2.000000 0.079365 0.000000
2.000000 0.119048 0.000000
2.000000 0.158730 0.000000
2.000000 0.198413 0.000000
2.000000 0.238095 0.000000
2.000000 0.277778 0.000000
2.000000 0.317460 0.000000
2.000000 0.357143 0.000000
2.000000 0.396825 0.000000
2.000000 0.436508 0.000000
2.000000 0.476190 0.000000
2.000000 0.515873 0.000000
2.000000 0.555556 0.000000
2.000000 0.595238 0.000000
2.000000 0.634921 0.000000
2.000000 0.674603 0.000000
2.000000 0.714286 0.000000
2.000000 0.753968 0.000000
2.000000 0.793651 0.000000
2.000000 0.833333 0.000000
2.000000 0.873016 0.000000
2.000000 0.912698 0.000000
2.000000 0.952381 0.000000
2.000000 0.992063 0.000000
2.000000 1.031746 0.000000
2.000000 1.071429 0.000000
2.000000 1.111111 0.000000
2.000000 1.150794 0.000000
2.000000 1.190476 0.000000
2.000000 1.230159 0.000000
2.000000 1.269841 0.000000
2.000000 1.309524 0.000000
2.000000 1.349206 0.000000
2.000000 1.388889 0.000000
2.000000 1.428571 0.000000
2.000000 1.468254 0.000000
2.000000 1.507937 0.000000
2.000000 1.547619 0.000000
2.000000 1.587302 0.000000
2.000000 1.626984 0.000000
2.000000 1.666667 0.000000
2.000000 1.706349 0.000000
2.000000 1.746032 0.000000
2.000000 1.785714 0.000000
2.000000 1.825397 0.000000
2.000000 1.865079 0.000000
2.000000 1.904762 0.000000
2.000000 1.944444 0.000000
2.000000 1.984127 0.000000
2.000000 2.023810 0.000000
2.000000 2.063492 0.000000
2.000000 2.103175 0.000000
2.000000 2.142857 0.000000
2.000000 2.182540 0.000000
2.000000 2.222222 0.000000
2.000000 2.261905 0.000000
2.000000 2.301587 0.000000
2.000000 2.341270 0.000000
2.000000 2.380952 0.000000
2.000000 2.420635 0.000000
2.000000 2.460317 0.000000
2.000000 2.539474 0.000000
2.000000 2.578947 0.000000
2.000000 2.618421 0.000000
2.000000 2.657895 0.000000
2.000000 2.697368 0.000000
2.000000 2.736842 0.000000
2.000000 2.776316 0.000000
2.000000 2.815789 0.000000
2.000000 2.855263 0.000000
2.000000 2.894737 0.000000
2.000000 2.934211 0.000000
2.000000 2.973684 0.000000
2.000000 3.013158 0.000000
2.000000 3.052632 0.000000
2.000000 3.092105 0.000000
2.000000 3.131579 0.000000
2.000000 3.171053 0.000000
2.000000 3.210526 0.000000
2.000000 3.250000 0.000000
2.000000 3.289474 0.000000
2.000000 3.328947 0.000000
2.000000 3.368421 0.000000
2.000000 3.407895 0.000000
2.000000 3.447368 0.000000
2.000000 3.486842 0.000000
2.000000 3.526316 0.000000
2.000000 3.565789 0.000000
2.000000 3.605263 0.000000
2.000000 3.644737 0.000000
2.000000 3.684211 0.000000
2.000000 3.723684 0.000000
2.000000 3.763158 0.000000
2.000000 3.802632 0.000000
2.000000 3.842105 0.000000
2.000000 3.881579 0.000000
2.000000 3.921053 0.000000
2.000000 3.960526 0.000000
1.960000 4.000000 0.000000
1.920000 4.000000 0.000000
1.880000 4.000000 0.000000
1.840000 4.000000 0.000000
1.800000 4.000000 0.000000
1.760000 4.000000 0.000000
1.720000 4.000000 0.000000
1.680000 4.000000 0.000000
1.640000 4.000000 0.000000
1.600000 4.000000 0.000000
1.560000 4.000000 0.000000
1.520000 4.000000 0.000000
1.480000 4.000000 0.000000
1.440000 4.000000 0.000000
1.400000 4.000000 0.000000
1.360000 4.000000 0.000000
1.320000 4.000000 0.000000
1.280000 4.000000 0.000000
1.240000 4.000000 0.000000
1.200000 4.000000 0.000000
1.160000 4.000000 0.000000
1.120000 4.000000 0.000000
1.080000 4.000000 0.000000
1.040000 4.000000 0.000000
1.000000 4.000000 0.000000
0.960000 4.000000 0.000000
0.920000 4.000000 0.000000
0.880000 4.000000 0.000000
0.840000 4.000000 0.000000
0.800000 4.000000 0.000000
0.760000 4.000000 0.000000
0.720000 4.000000 0.000000
0.680000 4.000000 0.000000
0.640000 4.000000 0.000000
0.600000 4.000000 0.000000
0.560000 4.000000 0.000000
0.520000 4.000000 0.000000
0.480000 4.000000 0.000000
0.440000 4.000000 0.000000
0.400000 4.000000 0.000000
0.360000 4.000000 0.000000
0.320000 4.000000 0.000000
0.280000 4.000000 0.000000
0.240000 4.000000 0.000000
0.200000 4.000000 0.000000
0.160000 4.000000 0.000000
0.120000 4.000000 0.000000
0.080000 4.000000 0.000000
0.040000 4.000000 0.000000
0.000000 3.960227 0.000000
0.000000 3.920455 0.000000
0.000000 3.880682 0.000000
0.000000 3.840909 0.000000
0.000000 3.801136 0.000000
0.000000 3.761364 0.000000
0.000000 3.721591 0.000000
0.000000 3.681818 0.000000
0.000000 3.642045 0.000000
0.000000 3.602273 0.000000
0.000000 3.562500 0.000000
0.000000 3.522727 0.000000
0.000000 3.482955 0.000000
0.000000 3.443182 0.000000
0.000000 3.403409 0.000000
0.000000 3.363636 0.000000
0.000000 3.323864 0.000000
0.000000 3.284091 0.000000
0.000000 3.244318 0.000000
0.000000 3.204545 0.000000
0.000000 3.164773 0.000000
0.000000 3.125000 0.000000
0.000000 3.085227 0.000000
0.000000 3.045455 0.000000
0.000000 3.005682 0.000000
0.000000 2.965909 0.000000
0.000000 2.926136 0.000000
0.000000 2.886364 0.000000
0.000000 2.846591 0.000000
0.000000 2.806818 0.000000
0.000000 2.767045 0.000000
0.000000 2.727273 0.000000
0.000000 2.687500 0.000000
0.000000 2.647727 0.000000
0.000000 2.607955 0.000000
0.000000 2.568182 0.000000
0.000000 2.528409 0.000000
0.000000 2.488636 0.000000
0.000000 2.448864 0.000000
0.000000 2.409091 0.000000
0.000000 2.369318 0.000000
0.000000 2.329545 0.000000
0.000000 2.289773 0.000000
0.000000 2.250000 0.000000
0.000000 2.210227 0.000000
0.000000 2.170455 0.000000
0.000000 2.130682 0.000000
0.000000 2.090909 0.000000
0.000000 2.051136 0.000000
0.000000 2.011364 0.000000
0.000000 1.971591 0.000000
0.000000 1.931818 0.000000
0.000000 1.892045 0.000000
0.000000 1.852273 0.000000
0.000000 1.812500 0.000000
0.000000 1.772727 0.000000
0.000000 1.732955 0.000000
0.000000 1.693182 0.000000
0.000000 1.653409 0.000000
0.000000 1.613636 0.000000
0.000000 1.573864 0.000000
0.000000 1.534091 0.000000
0.000000 1.494318 0.000000
0.000000 1.454545 0.000000
0.000000 1.414773 0.000000
0.000000 1.375000 0.000000
0.000000 1.335227 0.000000
0.000000 1.295455 0.000000
0.000000 1.255682 0.000000
0.000000 1.215909 0.000000
0.000000 1.176136 0.000000
0.000000 1.136364 0.000000
0.000000 1.096591 0.000000
0.000000 1.056818 0.000000
0.000000 1.017045 0.000000
0.000000 0.977273 0.000000
0.000000 0.937500 0.000000
0.000000 0.897727 0.000000
0.000000 0.857955 0.000000
0.000000 0.818182 0.000000
0.000000 0.778409 0.000000
0.000000 0.738636 0.000000
0.000000 0.698864 0.000000
0.000000 0.659091 0.000000
0.000000 0.619318 0.000000
0.000000 0.579545 0.000000
0.000000 0.539773 0.000000
0.000000 0.461538 0.000000
0.000000 0.423077 0.000000
0.000000 0.384615 0.000000
0.000000 0.346154 0.000000
0.000000 0.307692 0.000000
0.000000 0.269231 0.000000
0.000000 0.230769 0.000000
0.000000 0.192308 0.000000
0.000000 0.153846 0.000000
0.000000 0.115385 0.000000
0.000000 0.076923 0.000000
0.000000 0.038462 0.000000
0.027778 0.527778 0.000000
0.055556 0.555556 0.000000
0.083333 0.583333 0.000000
0.111111 0.611111 0.000000
0.138889 0.638889 0.000000
0.166667 0.666667 0.000000
0.194444 0.694444 0.000000
0.222222 0.722222 0.000000
0.250000 0.750000 0.000000
0.277778 0.777778 0.000000
0.305556 0.805556 0.000000
0.333333 0.833333 0.000000
0.361111 0.861111 0.000000
0.388889 0.888889 0.000000
0.416667 0.916667 0.000000
0.444444 0.944444 0.000000
0.472222 0.972222 0.000000
0.500000 1.000000 0.000000
0.527778 1.027778 0.000000
0.555556 1.055556 0.000000
0.583333 1.083333 0.000000
0.611111 1.111111 0.000000
0.638889 1.138889 0.000000
0.666667 1.166667 0.000000
0.694444 1.194444 0.000000
0.722222 1.222222 0.000000
0.750000 1.250000 0.000000
0.777778 1.277778 0.000000
0.805556 1.305556 0.000000
0.833333 1.333333 0.000000
0.861111 1.361111 0.000000
0.888889 1.388889 0.000000
0.916667 1.416667 0.000000
0.944444 1.444444 0.000000
0.972222 1.472222 0.000000
1.000000 1.500000 0.000000
1.027778 1.527778 0.000000
1.055556 1.555556 0.000000
1.083333 1.583333 0.000000
1.111111 1.611111 0.000000
1.138889 1.638889 0.000000
1.166667 1.666667 0.000000
1.194444 1.694444 0.000000
1.222222 1.722222 0.000000
1.250000 1.750000 0.000000
1.277778 1.777778 0.000000
1.305556 1.805556 0.000000
1.333333 1.833333 0.000000
1.361111 1.861111 0.000000
1.388889 1.888889 0.000000
1.416667 1.916667 0.000000
1.444444 1.944444 0.000000
1.472222 1.972222 0.000000
1.527778 2.027778 0.000000
1.555556 2.055556 0.000000
1.583333 2.083333 0.000000
1.611111 2.111111 0.000000
1.638889 2.138889 0.000000
1.666667 2.166667 0.000000
1.694444 2.194444 0.000000
1.722222 2.222222 0.000000
1.750000 2.250000 0.000000
1.777778 2.277778 0.000000
1.805556 2.305556 0.000000
[...]
POINT_DATA 6577
SCALARS UX float 1
LOOKUP_TABLE default
-0.000012
0.000044
-0.002538
-0.159856
-0.085069
-0.012064
0.014746
0.000000
-0.000001
-0.000001
0.000001
0.000002
-0.000007
0.000001
0.000001
0.000001
0.000001
0.000001
0.000000
0.000001
0.000001
-0.000000
0.000001
0.000001
0.000001
0.000000
-0.000000
-0.000001
0.000001
-0.000000
0.000001
0.000000
0.000000
-0.000000
0.000000
0.000000
-0.000000
0.000000
0.000000
-0.000001
0.000001
0.000000
-0.000001
0.000001
0.000001
-0.000001
-0.000002
-0.000000
-0.000000
-0.000003
0.000002
-0.000003
0.000003
0.000003
-0.000018
0.000013
0.015572
0.024029
0.031495
0.036665
0.041741
0.046565
0.050345
0.053939
0.057528
0.060848
0.063456
0.065511
0.068062
0.070134
0.072120
0.073988
0.075239
0.077148
0.077722
0.078737
0.079959
0.080833
0.081250
0.081898
0.081916
0.082444
0.083035
0.083418
0.083943
0.083575
0.083641
0.084017
0.084176
0.084209
0.082995
0.082411
0.082792
0.082664
0.081635
0.080765
0.079395
0.078833
0.076861
0.075379
0.073096
0.070148
0.067494
0.064483
0.061695
0.057480
0.053329
0.049351
0.045469
0.041890
0.038553
0.033852
0.030615
0.027729
0.023679
0.020446
0.019295
0.016905
0.013522
0.011711
0.011046
0.009919
0.007679
0.005938
0.006430
0.005886
0.003719
0.004171
0.003643
0.002986
0.002672
0.002298
0.002354
0.000740
0.000088
0.001063
0.000795
0.000192
-0.000664
-0.001454
-0.000861
-0.001545
-0.001461
-0.002158
-0.001923
-0.002975
-0.002744
-0.002606
-0.002422
-0.002489
-0.002081
-0.002082
-0.002106
-0.002713
-0.002653
-0.006398
-0.009838
-0.013357
-0.016436
-0.019872
-0.023325
-0.026708
-0.030278
-0.033222
-0.036456
-0.039509
-0.042549
-0.046081
-0.049219
-0.052887
-0.055929
-0.059402
-0.062466
-0.065473
-0.068404
-0.071506
-0.074447
-0.077418
-0.080640
-0.083618
-0.086570
-0.090010
-0.092877
-0.096069
-0.099397
-0.102178
-0.105361
-0.108257
-0.110937
-0.114395
-0.117790
-0.120960
-0.123857
-0.127024
-0.129633
-0.132503
-0.135823
-0.138767
-0.141764
-0.144868
-0.147846
-0.150967
-0.153959
-0.156992
-0.159897
-0.159928
-0.159902
-0.159674
-0.159615
-0.159200
-0.159239
-0.158543
-0.158858
-0.158794
-0.158230
-0.158056
-0.157497
-0.157861
-0.157466
-0.157275
-0.156025
-0.156077
-0.155750
-0.154897
-0.155738
-0.154949
-0.154474
-0.153422
-0.153756
-0.152970
-0.152142
-0.151400
-0.151047
-0.151122
-0.150858
-0.150025
-0.149558
-0.149566
-0.148305
-0.148700
-0.148386
-0.148287
-0.148314
-0.147822
-0.147367
-0.147321
-0.147261
-0.146954
-0.146789
-0.146661
-0.147152
-0.146731
-0.147447
-0.146151
-0.146368
-0.146270
-0.147022
-0.147034
-0.147353
-0.147438
-0.148089
-0.148916
-0.149650
-0.149509
-0.149961
-0.150759
-0.150926
-0.152261
-0.153075
-0.154227
-0.155139
-0.156356
-0.156711
-0.157790
-0.158350
-0.159168
-0.159093
-0.159590
-0.159241
-0.158423
-0.157269
-0.155730
-0.152675
-0.148907
-0.145043
-0.141690
-0.138800
-0.136497
-0.126210
-0.114925
-0.096904
-0.056086
-0.056134
-0.052824
-0.049852
-0.047687
-0.044120
-0.040448
-0.037695
-0.033758
-0.027655
-0.021755
-0.014319
-0.076441
-0.078596
-0.077867
-0.089054
-0.082542
-0.053208
-0.084844
-0.068047
-0.073286
-0.078277
-0.073112
-0.083544
-0.069245
-0.067067
-0.050825
-0.056363
-0.056304
-0.056248
-0.051347
-0.060864
-0.078844
-0.063550
-0.057164
-0.069635
-0.064534
-0.067959
-0.036293
-0.049029
-0.051870
-0.061281
-0.042385
-0.052726
-0.040922
-0.035751
-0.064474
-0.043887
-0.038357
-0.035530
-0.038041
-0.034464
-0.027545
-0.029427
-0.013826
-0.024677
-0.027951
-0.020321
-0.016248
-0.014819
-0.020464
-0.021210
-0.006586
-0.011959
-0.009221
-0.004960
-0.002519
0.000033
0.000153
0.001831
0.001816
0.002313
0.003395
0.003483
0.004254
0.005370
0.006174
0.007743
0.007766
0.008876
0.010400
0.013459
0.009716
0.008110
-0.158028
-0.157891
-0.005544
-0.005144
0.010871
0.011076
0.007995
0.003998
0.002596
-0.032900
-0.035446
-0.035382
-0.059322
-0.057978
-0.055887
-0.037458
-0.116896
-0.114642
-0.114962
-0.042621
-0.040387
-0.039263
-0.144635
-0.145858
-0.143315
-0.147609
-0.150751
-0.149715
-0.042110
-0.019915
-0.016892
-0.018557
-0.041967
-0.044798
-0.041802
-0.145709
-0.145025
-0.142927
-0.117415
-0.052130
-0.051788
-0.054539
-0.053606
-0.056187
-0.056465
-0.045025
-0.043996
-0.046939
-0.045726
-0.119294
-0.121914
-0.120977
-0.121238
-0.117771
-0.120630
-0.118322
-0.121375
-0.048016
-0.044615
-0.047208
-0.054440
-0.079051
-0.078948
-0.076341
0.002422
0.003740
-0.075175
-0.129098
-0.129221
-0.126222
-0.132419
-0.123208
-0.122989
-0.119784
-0.079479
-0.082149
-0.081961
-0.080030
-0.029300
-0.028273
-0.024794
-0.025748
-0.113456
-0.116424
-0.116068
-0.113998
-0.060481
-0.058704
-0.060791
-0.115746
-0.112494
-0.113213
0.001613
0.005076
0.001652
0.004908
0.001950
0.004547
0.000781
-0.122947
-0.125104
-0.125983
-0.037017
-0.039644
-0.039778
-0.042061
-0.059333
-0.147601
-0.150031
-0.148092
-0.093596
-0.091603
-0.091466
-0.095171
-0.128331
-0.130924
-0.128096
-0.130250
-0.119435
-0.117984
-0.120531
-0.081956
-0.082755
-0.084791
-0.021108
-0.024071
-0.023476
-0.019544
-0.014304
-0.012480
0.003958
-0.087947
-0.086166
-0.088857
-0.089265
-0.091496
-0.091495
-0.115103
-0.111195
-0.120099
-0.121054
-0.118091
-0.136783
-0.135182
-0.134649
-0.123349
-0.080982
-0.083979
-0.080272
-0.142001
-0.141036
-0.143410
-0.117764
-0.097944
-0.096982
-0.100034
-0.082201
-0.079900
-0.082706
-0.121583
-0.125117
-0.132892
-0.014330
-0.010682
-0.014801
-0.010098
-0.046581
-0.048560
-0.048890
-0.051147
0.004936
0.006955
-0.074211
-0.073183
-0.074919
-0.071095
-0.145093
-0.147782
-0.146609
-0.088497
-0.086267
-0.088310
-0.090774
-0.094042
-0.091016
-0.086657
-0.150220
-0.113734
-0.110424
-0.111437
-0.110393
-0.112837
-0.113892
-0.116687
-0.112622
-0.147002
-0.146713
-0.096094
-0.094895
-0.097673
-0.145051
-0.145822
-0.071515
-0.070378
-0.074076
-0.136152
-0.138981
-0.137241
-0.142804
-0.140274
-0.139472
-0.130308
-0.133519
-0.131925
-0.137516
-0.126795
-0.130396
-0.128041
-0.067968
-0.069294
-0.048683
-0.069224
-0.147178
-0.149715
-0.148458
-0.151008
-0.155833
-0.155683
-0.007502
-0.008800
-0.036749
-0.036779
-0.033671
-0.039686
-0.104908
-0.104366
-0.102327
-0.124115
-0.126620
-0.125963
-0.101633
-0.041095
-0.039522
-0.041675
-0.127694
-0.129438
-0.153081
-0.152572
-0.150916
-0.076235
-0.073906
-0.005739
-0.005811
-0.001655
-0.001481
-0.129988
-0.132923
-0.132681
-0.135573
-0.147880
-0.145549
-0.148516
-0.144553
-0.135360
-0.137595
-0.134165
-0.141898
-0.140244
-0.154284
-0.155819
-0.156930
-0.135655
-0.136147
-0.140891
-0.144144
-0.141131
-0.128059
-0.126852
-0.014563
-0.011629
-0.130992
-0.134113
-0.134020
-0.149516
-0.120742
-0.123746
-0.121136
-0.137186
-0.136222
-0.025401
-0.026945
-0.028717
-0.023729
-0.039010
-0.036063
-0.037194
-0.085782
-0.086672
-0.088290
-0.072120
-0.071858
-0.024552
-0.021809
-0.022950
-0.084213
-0.076061
-0.077444
-0.078729
-0.146879
-0.150590
-0.147510
-0.128888
-0.129742
-0.126922
-0.032494
-0.132070
-0.134701
-0.131454
-0.124210
-0.123883
-0.127882
-0.128116
-0.133667
-0.030170
-0.127427
-0.102784
-0.119382
-0.122139
-0.121079
-0.121078
-0.120812
-0.144035
-0.145027
-0.139478
-0.148381
-0.124364
-0.123837
-0.126186
-0.010663
-0.008897
-0.124100
-0.125762
-0.125119
-0.121318
-0.121549
-0.116147
-0.157300
-0.146564
-0.143859
-0.145060
-0.142208
-0.142570
-0.004690
-0.109826
-0.107150
-0.154217
-0.153462
-0.118419
-0.118150
-0.010090
-0.007800
-0.080285
-0.076818
-0.131693
-0.048257
-0.046914
-0.045748
-0.043833
-0.141095
-0.138523
-0.118245
-0.121348
-0.118655
-0.133138
-0.135671
-0.137849
-0.131440
-0.147503
-0.121453
-0.017647
-0.098417
-0.101583
-0.099697
-0.146748
-0.146559
-0.142725
-0.151377
-0.152736
-0.152269
-0.148687
-0.150844
-0.102818
-0.100850
-0.015285
-0.012763
-0.013332
-0.125522
-0.111964
-0.071235
-0.067946
-0.150149
-0.151184
-0.148770
-0.109643
-0.107502
-0.131292
-0.140063
-0.141379
-0.120892
-0.117307
-0.126444
-0.129282
-0.026266
-0.026921
-0.023255
-0.133457
-0.136368
-0.146473
-0.144505
-0.139183
-0.149786
-0.107029
-0.077476
-0.076971
-0.142296
-0.157270
-0.148608
-0.144747
-0.153191
-0.152663
-0.151474
-0.050645
-0.050599
-0.047044
-0.122584
-0.005033
-0.009862
-0.007174
-0.011496
-0.139161
-0.139826
-0.142492
-0.132875
-0.123647
-0.122539
-0.115841
-0.116986
-0.118183
-0.119087
-0.118898
-0.151159
-0.128150
-0.126966
-0.124314
-0.020359
-0.131184
-0.131118
-0.133445
-0.144516
-0.048136
-0.016977
-0.017241
-0.014854
-0.149182
-0.146126
-0.154745
-0.147109
-0.147144
-0.149307
-0.137519
-0.139726
-0.143042
-0.131677
-0.152183
-0.029245
-0.029820
-0.112191
-0.115789
-0.047512
-0.003574
-0.000038
-0.000666
-0.156307
-0.154868
-0.151502
-0.150287
-0.007861
-0.005775
-0.030618
-0.028646
-0.030733
-0.033466
-0.135039
-0.134675
-0.131913
-0.115261
-0.011204
-0.012858
-0.149068
-0.145794
-0.155752
-0.135862
-0.139111
-0.142480
-0.135622
-0.115131
-0.019992
-0.022816
-0.033866
-0.144595
-0.142193
-0.059533
-0.057399
-0.060356
-0.151912
-0.019682
-0.016638
-0.144688
-0.147438
-0.145879
-0.154663
-0.130024
-0.143747
0.006867
0.003590
-0.136695
-0.063837
-0.027403
-0.030670
-0.028292
-0.135582
-0.138013
-0.142029
-0.132860
-0.027920
-0.025761
-0.027049
-0.153321
-0.058341
-0.030856
-0.150355
-0.148217
-0.154766
-0.008904
-0.006582
-0.072182
-0.069802
-0.069464
-0.012738
-0.014715
-0.151467
-0.072894
-0.071642
-0.009428
-0.006661
-0.010755
-0.135436
-0.138164
-0.136361
-0.139081
-0.027946
-0.103413
0.002677
0.006063
-0.025288
-0.124714
-0.127752
-0.152527
-0.134018
-0.131812
-0.133906
-0.136519
-0.140486
-0.130428
-0.022496
-0.004980
-0.051364
-0.048705
-0.049506
-0.142011
-0.051009
-0.101897
-0.100089
-0.103741
-0.022378
-0.019117
-0.025820
-0.142183
-0.144808
-0.139616
-0.144710
-0.151239
-0.147503
-0.044424
-0.042905
-0.040710
-0.045771
-0.023223
-0.142633
-0.138497
-0.133812
-0.141069
-0.020392
-0.134370
-0.134894
-0.132256
-0.135372
-0.138918
-0.133181
-0.132487
-0.119989
-0.001717
-0.011870
-0.011876
-0.009654
-0.074148
-0.076259
-0.073635
-0.075402
-0.001793
-0.018963
-0.020310
-0.151351
-0.137581
-0.064225
-0.064066
-0.061595
-0.148748
-0.147304
-0.154043
-0.010606
-0.121792
-0.120812
-0.014048
-0.016162
-0.007406
-0.062979
-0.065169
-0.059645
-0.059786
-0.062964
-0.117252
-0.116617
-0.116055
-0.060976
-0.112169
-0.025897
-0.113361
-0.112890
-0.128658
-0.139401
-0.031884
-0.142153
-0.046654
-0.044098
-0.046554
-0.024927
-0.043598
-0.028808
-0.139934
-0.049259
-0.046009
-0.136569
-0.048796
-0.084921
-0.085083
-0.087021
-0.125729
-0.001675
-0.135580
-0.088851
-0.085217
-0.087419
-0.083075
-0.071208
-0.070357
-0.072310
-0.056959
-0.054699
-0.122629
-0.125605
-0.152110
-0.151031
-0.148420
-0.071822
-0.144742
-0.143900
-0.129914
-0.132571
-0.059578
-0.056789
-0.144254
-0.147028
-0.136963
-0.139342
-0.146660
-0.149125
-0.145572
-0.010739
-0.012641
-0.009837
-0.013799
-0.118028
0.000114
-0.000031
-0.003580
-0.119922
-0.119137
-0.115155
-0.114388
-0.003419
-0.063281
-0.060979
-0.063456
-0.113939
-0.104291
-0.106511
-0.026008
-0.152379
-0.150183
-0.149401
-0.111559
-0.111009
-0.106964
-0.146853
-0.083637
-0.083074
-0.080402
-0.143003
-0.145146
-0.126774
-0.109432
-0.062978
-0.066114
-0.039712
-0.042253
-0.040011
-0.067037
-0.117847
-0.117809
-0.120158
-0.115296
-0.016833
-0.014907
-0.004665
-0.000276
-0.070788
-0.073567
-0.073864
-0.017206
-0.020026
-0.017673
-0.077065
-0.061173
-0.054457
-0.057383
-0.055106
-0.136689
-0.140182
-0.140917
-0.120932
-0.123572
-0.052333
-0.049254
-0.051842
-0.124872
-0.123245
-0.125542
-0.142055
-0.133981
-0.127793
-0.131001
-0.136122
-0.138869
-0.142417
-0.085831
-0.082767
-0.085660
-0.117975
-0.117146
-0.115978
-0.137607
-0.138613
-0.139387
-0.152464
-0.154492
-0.155511
-0.151415
-0.113152
-0.112197
-0.119900
-0.122834
-0.136758
-0.135783
-0.134106
-0.111776
-0.154586
-0.141210
-0.144078
-0.139679
-0.109571
-0.002585
-0.109092
-0.125324
-0.119169
-0.122027
-0.022766
-0.022993
-0.024819
-0.135399
-0.138194
-0.125973
-0.129572
-0.132845
-0.148264
-0.136166
-0.137390
-0.138495
-0.135127
-0.134826
-0.137982
-0.004119
-0.005755
-0.006877
-0.009877
-0.116408
-0.114977
-0.114321
-0.111903
-0.111531
-0.145011
-0.143992
-0.089592
-0.086194
-0.086485
-0.087427
-0.059294
-0.055212
-0.057676
-0.027896
-0.110520
-0.107959
-0.107202
-0.123204
-0.117509
-0.120630
-0.137302
-0.062937
-0.065967
-0.063398
-0.056558
-0.125164
-0.127544
-0.130845
-0.133029
-0.136843
-0.142997
-0.114593
-0.113618
-0.048890
-0.046259
-0.048332
-0.046691
-0.112579
-0.140727
-0.138725
-0.026454
-0.023534
-0.026221
-0.060073
-0.012407
-0.014994
-0.011433
-0.008211
-0.127455
-0.129407
-0.109891
-0.109116
-0.010418
-0.006017
-0.009823
-0.130783
-0.133951
-0.130216
-0.151001
-0.149806
-0.048929
-0.050478
-0.048774
-0.118631
-0.120602
-0.117823
-0.119935
-0.116126
-0.119072
-0.122088
-0.051090
-0.123835
-0.126369
-0.134988
-0.133550
-0.044003
-0.068963
-0.041143
-0.042921
-0.038490
-0.129082
-0.044074
-0.042185
-0.130990
-0.135495
-0.112781
-0.111560
-0.037727
-0.036942
-0.041181
-0.127348
-0.127339
-0.124308
-0.044675
-0.014901
-0.012960
-0.130818
-0.033545
-0.030458
-0.110355
-0.034785
-0.116233
-0.107761
-0.106893
-0.095245
-0.091988
-0.095885
-0.062183
-0.060706
-0.065971
-0.064371
-0.067299
-0.062536
-0.077577
-0.077875
-0.080350
-0.080073
-0.129743
-0.122715
-0.123455
-0.126446
-0.021054
-0.022031
-0.025674
-0.135871
-0.037561
-0.039175
-0.114237
-0.117285
-0.082473
-0.081881
-0.084535
-0.083719
-0.120497
-0.050149
-0.049029
-0.123286
-0.127068
-0.064512
-0.027130
-0.023997
-0.023795
-0.036264
-0.036262
-0.147325
-0.128293
-0.128765
-0.111230
-0.109620
-0.045483
-0.133661
-0.131717
-0.028744
-0.032053
-0.028890
-0.108789
-0.044274
-0.043600
-0.105821
-0.104385
-0.141429
-0.138693
-0.136529
-0.119796
-0.123089
-0.122547
-0.148026
-0.142947
-0.085616
-0.082167
-0.083186
-0.112679
-0.115766
-0.133826
-0.132013
-0.025735
-0.119061
-0.098800
-0.096676
-0.099643
-0.098311
-0.031990
-0.076257
-0.077618
-0.079877
-0.128602
-0.126249
-0.128510
-0.125594
-0.035877
-0.038492
-0.034635
-0.039034
-0.121724
-0.125602
-0.114595
-0.116791
-0.045772
-0.047897
-0.078611
-0.081151
-0.142750
-0.009626
-0.011809
-0.012746
-0.016281
-0.078002
-0.078804
-0.080763
-0.052098
-0.055094
-0.051250
-0.004093
-0.004402
-0.007001
-0.118456
-0.121235
-0.120992
-0.109489
-0.108019
-0.041351
-0.037453
-0.040096
-0.055780
-0.004065
-0.007087
-0.106273
-0.103511
-0.101949
-0.112445
-0.111052
-0.110001
-0.108370
-0.110952
-0.114349
-0.043945
-0.046419
-0.044309
-0.059891
-0.054422
-0.053982
-0.117876
-0.120372
-0.124353
-0.107776
-0.106218
-0.052723
-0.078178
-0.080806
-0.078405
-0.104409
-0.081656
-0.042766
-0.043952
-0.044470
-0.101747
-0.100045
-0.109314
-0.112801
-0.115691
-0.113888
-0.116472
-0.119020
-0.122164
-0.005934
-0.008866
-0.013548
-0.011109
-0.142110
-0.144040
-0.140955
-0.106190
-0.104742
-0.107235
-0.105833
-0.107396
-0.007932
-0.010862
-0.008994
-0.006511
-0.010891
-0.013621
-0.014800
-0.046445
-0.102952
-0.099352
-0.098338
-0.039349
-0.036486
-0.057439
-0.054782
-0.057693
-0.055627
-0.108241
-0.111698
-0.115007
-0.109647
-0.117213
-0.120532
-0.104824
-0.102619
-0.040858
-0.041567
-0.037398
-0.014674
-0.014702
-0.018002
-0.042728
-0.043200
-0.081537
-0.079778
-0.099255
-0.100839
-0.123428
-0.123962
-0.126371
-0.100813
-0.097154
-0.095961
-0.080827
-0.129451
-0.129516
-0.131829
-0.010019
-0.005764
-0.106585
-0.110224
-0.041140
-0.051528
-0.050418
-0.053756
-0.113689
-0.115698
-0.052696
-0.056132
-0.129187
-0.130350
-0.033375
-0.034816
-0.061388
-0.103180
-0.101444
-0.117298
-0.109294
-0.106429
-0.108750
-0.099108
-0.096455
-0.137358
-0.140399
-0.105931
-0.108863
-0.033605
-0.136321
-0.138493
-0.131369
-0.140207
-0.137769
-0.102289
-0.099645
-0.018010
-0.074356
-0.081461
-0.125954
-0.075670
-0.074899
-0.077306
-0.097587
-0.094420
-0.075973
-0.072333
-0.130597
-0.127712
-0.127046
-0.105227
-0.108431
-0.075604
-0.031889
-0.034885
-0.089179
-0.089394
-0.087142
-0.037187
-0.143353
-0.069004
-0.084052
-0.087002
-0.086425
-0.069440
-0.123064
-0.125824
-0.087415
-0.081659
-0.088628
-0.084709
-0.117099
-0.117507
-0.114296
-0.086312
-0.088717
-0.100978
-0.098626
-0.122263
-0.096108
-0.092703
-0.103046
-0.107211
-0.114356
-0.116079
-0.138696
-0.023247
-0.017229
-0.024762
-0.028990
-0.017288
-0.014959
-0.014840
-0.133054
-0.081005
-0.082911
-0.079708
-0.083089
-0.079965
-0.127276
-0.127284
-0.124242
-0.069010
-0.068571
-0.071104
-0.003127
-0.001896
-0.004866
-0.101229
-0.066115
-0.094580
-0.093473
-0.096702
-0.095750
-0.090018
-0.092869
-0.091195
-0.088695
-0.050007
-0.150407
-0.153376
-0.150786
-0.036645
-0.037169
-0.039619
-0.094242
-0.047496
-0.050026
-0.046735
-0.050711
-0.052409
-0.098603
-0.019944
-0.017623
-0.015880
-0.067484
-0.141093
-0.138052
-0.139107
-0.139537
-0.021623
-0.079438
-0.077306
-0.076633
-0.079777
-0.045890
-0.047411
-0.045960
-0.005104
-0.049021
-0.128258
-0.129980
-0.129983
-0.132290
-0.147469
-0.144222
-0.133203
-0.131031
-0.128112
-0.143559
-0.059100
-0.118354
-0.120591
-0.118192
-0.120343
-0.114311
-0.112188
-0.112461
-0.114933
-0.116125
-0.118622
-0.116428
-0.119775
-0.098094
-0.095622
-0.098422
-0.045346
-0.049654
-0.015700
-0.012040
-0.013592
-0.013295
-0.011315
-0.014116
-0.100919
-0.103635
-0.101731
-0.105251
-0.094933
-0.147336
-0.147596
-0.149732
-0.035080
-0.036883
-0.149431
-0.081657
-0.048053
-0.049015
-0.045991
-0.049004
-0.045032
-0.090121
-0.092728
-0.034376
-0.131316
-0.128440
-0.129533
-0.127363
-0.137479
-0.006968
-0.008002
-0.071013
-0.020655
-0.021642
-0.023263
-0.027502
-0.023910
-0.025266
-0.018778
-0.063532
-0.061115
-0.063649
-0.061523
-0.034630
-0.069720
-0.072140
-0.071840
-0.125892
-0.124029
-0.082095
-0.084248
-0.085996
-0.086375
-0.125662
-0.127242
-0.124845
-0.127317
-0.128652
-0.054531
-0.057320
-0.101535
-0.100813
-0.098508
-0.102338
-0.104480
-0.106100
-0.106988
-0.101937
-0.103223
-0.100904
-0.104962
-0.092503
-0.089409
-0.022314
-0.025794
-0.020969
-0.060602
-0.062745
-0.064384
-0.080490
-0.060392
-0.017745
-0.019761
-0.121274
-0.124239
-0.122489
-0.123145
-0.096819
-0.051671
-0.051763
-0.062047
-0.065003
-0.066587
-0.139251
-0.140100
-0.135700
-0.137864
-0.134791
-0.039591
-0.106486
-0.103160
-0.008571
-0.006966
-0.005422
-0.009137
-0.011608
-0.074540
-0.076169
-0.086121
-0.088793
-0.086696
-0.077885
-0.075103
-0.077860
-0.081583
-0.074289
-0.063879
-0.065261
-0.062159
-0.124348
-0.063173
-0.122936
-0.067704
-0.065323
-0.070253
-0.044580
-0.043538
-0.043036
-0.091604
-0.091661
-0.088961
-0.094169
-0.091671
-0.093929
-0.051204
-0.048730
-0.047584
-0.077459
-0.077320
-0.074318
-0.075301
-0.083897
-0.142853
-0.140643
-0.036963
-0.038875
-0.040248
-0.037701
-0.122338
-0.121310
-0.114408
-0.116647
-0.054839
-0.126586
-0.125505
-0.128802
-0.129599
-0.131205
-0.131993
-0.121035
-0.123846
-0.120420
-0.110637
-0.112920
-0.119079
-0.098977
-0.102210
-0.101660
-0.104800
-0.107382
-0.109619
-0.106989
-0.110466
-0.016590
-0.018964
-0.127037
-0.009264
-0.019850
-0.021573
-0.023490
-0.025071
-0.027076
-0.128760
-0.127882
-0.129702
-0.140885
-0.139556
-0.142589
-0.061458
-0.061009
-0.064015
-0.105986
-0.108825
-0.077814
-0.074806
-0.103079
-0.105025
-0.102777
-0.028688
-0.031842
-0.029068
-0.032663
-0.095296
-0.098515
-0.096578
-0.097596
-0.070441
-0.067638
-0.064818
-0.072838
-0.072043
-0.074440
-0.138689
-0.025311
-0.023314
-0.025872
-0.022928
-0.027671
-0.024199
-0.056179
-0.054308
-0.053950
-0.056445
-0.054343
-0.100470
-0.101627
-0.099830
-0.099968
-0.103552
-0.101852
-0.032373
-0.031626
-0.103776
-0.105561
-0.106008
-0.002364
-0.006378
-0.108172
-0.054850
-0.056642
-0.056165
-0.102144
-0.017846
-0.028960
-0.026854
-0.028753
-0.031965
-0.029740
-0.029445
-0.013965
-0.016130
-0.014612
-0.012197
-0.123604
-0.121780
-0.071092
-0.070249
-0.068683
-0.073218
-0.066022
-0.066497
-0.064447
-0.134794
-0.135725
-0.136530
-0.046068
-0.045703
-0.048809
-0.084205
-0.086685
-0.144178
-0.144515
-0.082011
-0.109128
-0.107450
-0.109222
-0.108710
-0.106458
-0.106106
-0.103962
-0.145137
-0.143904
-0.146523
-0.142593
-0.145404
-0.143326
-0.149448
-0.148388
-0.151704
-0.149429
-0.092592
-0.091509
-0.060726
-0.093789
-0.090041
-0.134970
-0.137608
-0.111040
-0.108003
-0.114001
-0.111760
-0.140553
-0.141799
-0.137065