# vtk DataFile Version 2.0
Test
ASCII
DATASET POLYDATA
POINTS 25620 float
0.000000 0.000000 0.000000
2.000000 0.000000 0.000000
2.000000 4.000000 0.000000
0.000000 4.000000 0.000000
0.000000 0.500000 0.000000
1.500000 2.000000 0.000000
2.000000 2.500000 0.000000
0.020000 0.000000 0.000000
0.040000 0.000000 0.000000
0.060000 0.000000 0.000000
0.080000 0.000000 0.000000
0.100000 0.000000 0.000000
0.120000 0.000000 0.000000
0.140000 0.000000 0.000000
0.160000 0.000000 0.000000
0.180000 0.000000 0.000000
0.200000 0.000000 0.000000
0.220000 0.000000 0.000000
0.240000 0.000000 0.000000
0.260000 0.000000 0.000000
0.280000 0.000000 0.000000
0.300000 0.000000 0.000000
0.320000 0.000000 0.000000
0.340000 0.000000 0.000000
0.360000 0.000000 0.000000
0.380000 0.000000 0.000000
0.400000 0.000000 0.000000
0.420000 0.000000 0.000000
0.440000 0.000000 0.000000
0.460000 0.000000 0.000000
0.480000 0.000000 0.000000
0.500000 0.000000 0.000000
0.520000 0.000000 0.000000
0.540000 0.000000 0.000000
0.560000 0.000000 0.000000
0.580000 0.000000 0.000000
0.600000 0.000000 0.000000
0.620000 0.000000 0.000000
0.640000 0.000000 0.000000
0.660000 0.000000 0.000000
0.680000 0.000000 0.000000
0.700000 0.000000 0.000000
0.720000 0.000000 0.000000
0.740000 0.000000 0.000000
0.760000 0.000000 0.000000
0.780000 0.000000 0.000000
0.800000 0.000000 0.000000
0.820000 0.000000 0.000000
0.840000 0.000000 0.000000
0.860000 0.000000 0.000000
0.880000 0.000000 0.000000
0.900000 0.000000 0.000000
0.920000 0.000000 0.000000
0.940000 0.000000 0.000000
0.960000 0.000000 0.000000
0.980000 0.000000 0.000000
1.000000 0.000000 0.000000
1.020000 0.000000 0.000000
1.040000 0.000000 0.000000
1.060000 0.000000 0.000000
1.080000 0.000000 0.000000
1.100000 0.000000 0.000000
1.120000 0.000000 0.000000
1.140000 0.000000 0.000000
1.160000 0.000000 0.000000
1.180000 0.000000 0.000000
1.200000 0.000000 0.000000
1.220000 0.000000 0.000000
1.240000 0.000000 0.000000
1.260000 0.000000 0.000000
1.280000 0.000000 0.000000
1.300000 0.000000 0.000000
1.320000 0.000000 0.000000
1.340000 0.000000 0.000000
1.360000 0.000000 0.000000
1.380000 0.000000 0.000000
1.400000 0.000000 0.000000
1.420000 0.000000 0.000000
1.440000 0.000000 0.000000
1.460000 0.000000 0.000000
1.480000 0.000000 0.000000
1.500000 0.000000 0.000000
1.520000 0.000000 0.000000
1.540000 0.000000 0.000000
1.560000 0.000000 0.000000
1.580000 0.000000 0.000000
1.600000 0.000000 0.000000
1.620000 0.000000 0.000000
1.640000 0.000000 0.000000
1.660000 0.000000 0.000000
1.680000 0.000000 0.000000
1.700000 0.000000 0.000000
1.720000 0.000000 0.000000
1.740000 0.000000 0.000000
1.760000 0.000000 0.000000
1.780000 0.000000 0.000000
1.800000 0.000000 0.000000
1.820000 0.000000 0.000000
1.840000 0.000000 0.000000
1.860000 0.000000 0.000000
1.880000 0.000000 0.000000
1.900000 0.000000 0.000000
1.920000 0.000000 0.000000
1.940000 0.000000 0.000000
1.960000 0.000000 0.000000
1.980000 0.000000 0.000000
2.000000 0.020000 0.000000
2.000000 0.040000 0.000000
2.000000 0.060000 0.000000
2.000000 0.080000 0.000000
2.000000 0.100000 0.000000
2.000000 0.120000 0.000000
2.000000 0.140000 0.000000
2.000000 0.160000 0.000000
2.000000 0.180000 0.000000
2.000000 0.200000 0.000000
2.000000 0.220000 0.000000
2.000000 0.240000 0.000000
2.000000 0.260000 0.000000
2.000000 0.280000 0.000000
2.000000 0.300000 0.000000
2.000000 0.320000 0.000000
2.000000 0.340000 0.000000
2.000000 0.360000 0.000000
2.000000 0.380000 0.000000
2.000000 0.400000 0.000000
2.000000 0.420000 0.000000
2.000000 0.440000 0.000000
2.000000 0.460000 0.000000
2.000000 0.480000 0.000000
2.000000 0.500000 0.000000
2.000000 0.520000 0.000000
2.000000 0.540000 0.000000
2.000000 0.560000 0.000000
2.000000 0.580000 0.000000
2.000000 0.600000 0.000000
2.000000 0.620000 0.000000
2.000000 0.640000 0.000000
2.000000 0.660000 0.000000
2.000000 0.680000 0.000000
2.000000 0.700000 0.000000
2.000000 0.720000 0.000000
2.000000 0.740000 0.000000
2.000000 0.760000 0.000000
2.000000 0.780000 0.000000
2.000000 0.800000 0.000000
2.000000 0.820000 0.000000
2.000000 0.840000 0.000000
2.000000 0.860000 0.000000
2.000000 0.880000 0.000000
2.000000 0.900000 0.000000
2.000000 0.920000 0.000000
2.000000 0.940000 0.000000
2.000000 0.960000 0.000000
2.000000 0.980000 0.000000
2.000000 1.000000 0.000000
2.000000 1.020000 0.000000
2.000000 1.040000 0.000000
2.000000 1.060000 0.000000
2.000000 1.080000 0.000000
2.000000 1.100000 0.000000
2.000000 1.120000 0.000000
2.000000 1.140000 0.000000
2.000000 1.160000 0.000000
2.000000 1.180000 0.000000
2.000000 1.200000 0.000000
2.000000 1.220000 0.000000
2.000000 1.240000 0.000000
2.000000 1.260000 0.000000
2.000000 1.280000 0.000000
2.000000 1.300000 0.000000
2.000000 1.320000 0.000000
2.000000 1.340000 0.000000
2.000000 1.360000 0.000000
2.000000 1.380000 0.000000
2.000000 1.400000 0.000000
2.000000 1.420000 0.000000
2.000000 1.440000 0.000000
2.000000 1.460000 0.000000
2.000000 1.480000 0.000000
2.000000 1.500000 0.000000
2.000000 1.520000 0.000000
2.000000 1.540000 0.000000
2.000000 1.560000 0.000000
2.000000 1.580000 0.000000
2.000000 1.600000 0.000000
2.000000 1.620000 0.000000
2.000000 1.640000 0.000000
2.000000 1.660000 0.000000
2.000000 1.680000 0.000000
2.000000 1.700000 0.000000
2.000000 1.720000 0.000000
2.000000 1.740000 0.000000
2.000000 1.760000 0.000000
2.000000 1.780000 0.000000
2.000000 1.800000 0.000000
2.000000 1.820000 0.000000
2.000000 1.840000 0.000000
2.000000 1.860000 0.000000
2.000000 1.880000 0.000000
2.000000 1.900000 0.000000
2.000000 1.920000 0.000000
2.000000 1.940000 0.000000
2.000000 1.960000 0.000000
2.000000 1.980000 0.000000
2.000000 2.000000 0.000000
2.000000 2.020000 0.000000
2.000000 2.040000 0.000000
2.000000 2.060000 0.000000
2.000000 2.080000 0.000000
2.000000 2.100000 0.000000
2.000000 2.120000 0.000000
2.000000 2.140000 0.000000
2.000000 2.160000 0.000000
2.000000 2.180000 0.000000
2.000000 2.200000 0.000000
2.000000 2.220000 0.000000
2.000000 2.240000 0.000000
2.000000 2.260000 0.000000
2.000000 2.280000 0.000000
2.000000 2.300000 0.000000
2.000000 2.320000 0.000000
2.000000 2.340000 0.000000
2.000000 2.360000 0.000000
2.000000 2.380000 0.000000
2.000000 2.400000 0.000000
2.000000 2.420000 0.000000
2.000000 2.440000 0.000000
2.000000 2.460000 0.000000
2.000000 2.480000 0.000000
2.000000 2.520000 0.000000
2.000000 2.540000 0.000000
2.000000 2.560000 0.000000
2.000000 2.580000 0.000000
2.000000 2.600000 0.000000
2.000000 2.620000 0.000000
2.000000 2.640000 0.000000
2.000000 2.660000 0.000000
2.000000 2.680000 0.000000
2.000000 2.700000 0.000000
2.000000 2.720000 0.000000
2.000000 2.740000 0.000000
2.000000 2.760000 0.000000
2.000000 2.780000 0.000000
2.000000 2.800000 0.000000
2.000000 2.820000 0.000000
2.000000 2.840000 0.000000
2.000000 2.860000 0.000000
2.000000 2.880000 0.000000
2.000000 2.900000 0.000000
2.000000 2.920000 0.000000
2.000000 2.940000 0.000000
2.000000 2.960000 0.000000
2.000000 2.980000 0.000000
2.000000 3.000000 0.000000
2.000000 3.020000 0.000000
2.000000 3.040000 0.000000
2.000000 3.060000 0.000000
2.000000 3.080000 0.000000
2.000000 3.100000 0.000000
2.000000 3.120000 0.000000
2.000000 3.140000 0.000000
2.000000 3.160000 0.000000
2.000000 3.180000 0.000000
2.000000 3.200000 0.000000
2.000000 3.220000 0.000000
2.000000 3.240000 0.000000
2.000000 3.260000 0.000000
2.000000 3.280000 0.000000
2.000000 3.300000 0.000000
2.000000 3.320000 0.000000
2.000000 3.340000 0.000000
2.000000 3.360000 0.000000
2.000000 3.380000 0.000000
2.000000 3.400000 0.000000
2.000000 3.420000 0.000000
2.000000 3.440000 0.000000
2.000000 3.460000 0.000000
2.000000 3.480000 0.000000
2.000000 3.500000 0.000000
2.000000 3.520000 0.000000
2.000000 3.540000 0.000000
2.000000 3.560000 0.000000
2.000000 3.580000 0.000000
2.000000 3.600000 0.000000
2.000000 3.620000 0.000000
2.000000 3.640000 0.000000
2.000000 3.660000 0.000000
2.000000 3.680000 0.000000
2.000000 3.700000 0.000000
2.000000 3.720000 0.000000
2.000000 3.740000 0.000000
2.000000 3.760000 0.000000
2.000000 3.780000 0.000000
2.000000 3.800000 0.000000
2.000000 3.820000 0.000000
2.000000 3.840000 0.000000
2.000000 3.860000 0.000000
2.000000 3.880000 0.000000
2.000000 3.900000 0.000000
2.000000 3.920000 0.000000
2.000000 3.940000 0.000000
2.000000 3.960000 0.000000
2.000000 3.980000 0.000000
1.980000 4.000000 0.000000
1.960000 4.000000 0.000000
1.940000 4.000000 0.000000
1.920000 4.000000 0.000000
1.900000 4.000000 0.000000
1.880000 4.000000 0.000000
1.860000 4.000000 0.000000
1.840000 4.000000 0.000000
1.820000 4.000000 0.000000
1.800000 4.000000 0.000000
1.780000 4.000000 0.000000
1.760000 4.000000 0.000000
1.740000 4.000000 0.000000
1.720000 4.000000 0.000000
1.700000 4.000000 0.000000
1.680000 4.000000 0.000000
1.660000 4.000000 0.000000
1.640000 4.000000 0.000000
1.620000 4.000000 0.000000
1.600000 4.000000 0.000000
1.580000 4.000000 0.000000
1.560000 4.000000 0.000000
1.540000 4.000000 0.000000
1.520000 4.000000 0.000000
1.500000 4.000000 0.000000
1.480000 4.000000 0.000000
1.460000 4.000000 0.000000
1.440000 4.000000 0.000000
1.420000 4.000000 0.000000
1.400000 4.000000 0.000000
1.380000 4.000000 0.000000
1.360000 4.000000 0.000000
1.340000 4.000000 0.000000
1.320000 4.000000 0.000000
1.300000 4.000000 0.000000
1.280000 4.000000 0.000000
1.260000 4.000000 0.000000
1.240000 4.000000 0.000000
1.220000 4.000000 0.000000
1.200000 4.000000 0.000000
1.180000 4.000000 0.000000
1.160000 4.000000 0.000000
1.140000 4.000000 0.000000
1.120000 4.000000 0.000000
1.100000 4.000000 0.000000
1.080000 4.000000 0.000000
1.060000 4.000000 0.000000
1.040000 4.000000 0.000000
1.020000 4.000000 0.000000
1.000000 4.000000 0.000000
0.980000 4.000000 0.000000
0.960000 4.000000 0.000000
0.940000 4.000000 0.000000
0.920000 4.000000 0.000000
0.900000 4.000000 0.000000
0.880000 4.000000 0.000000
0.860000 4.000000 0.000000
0.840000 4.000000 0.000000
0.820000 4.000000 0.000000
0.800000 4.000000 0.000000
0.780000 4.000000 0.000000
0.760000 4.000000 0.000000
0.740000 4.000000 0.000000
[...]
POINT_DATA 25620
SCALARS UX float 1
LOOKUP_TABLE default
-0.000002
0.000002
0.004303
-0.025302
-0.013836
0.009336
0.009609
-0.000001
-0.000000
-0.000000
0.000000
-0.000000
0.000000
-0.000000
0.000000
-0.000000
0.000000
0.000000
-0.000000
-0.000000
0.000000
0.000000
0.000000
0.000000
0.000000
0.000000
-0.000000
-0.000000
0.000000
-0.000000
-0.000000
0.000000
0.000000
0.000000
-0.000000
0.000000
-0.000000
0.000000
-0.000000
-0.000000
0.000000
0.000000
-0.000000
0.000000
-0.000000
-0.000000
0.000000
-0.000000
-0.000000
-0.000000
0.000000
0.000000
-0.000000
0.000000
0.000000
0.000000
0.000000
0.000000
0.000000
-0.000000
-0.000000
0.000000
-0.000000
0.000000
0.000000
0.000000
0.000000
0.000000
0.000000
-0.000000
-0.000000
0.000000
-0.000000
-0.000000
0.000000
-0.000000
0.000000
-0.000000
0.000000
-0.000000
-0.000000
0.000000
-0.000000
-0.000000
0.000000
0.000000
0.000000
-0.000000
0.000000
0.000000
-0.000000
0.000000
0.000000
-0.000000
-0.000000
0.000000
0.000000
0.000000
-0.000000
-0.000000
0.000000
-0.000000
0.000000
0.000000
-0.000002
0.000002
0.001663
0.002819
0.003780
0.004631
0.005365
0.006059
0.006680
0.007277
0.007830
0.008343
0.008833
0.009280
0.009714
0.010118
0.010509
0.010865
0.011215
0.011559
0.011864
0.012154
0.012451
0.012716
0.012973
0.013217
0.013449
0.013679
0.013890
0.014096
0.014282
0.014457
0.014655
0.014809
0.014979
0.015128
0.015270
0.015416
0.015542
0.015673
0.015788
0.015907
0.016020
0.016117
0.016219
0.016314
0.016409
0.016467
0.016577
0.016652
0.016730
0.016791
0.016846
0.016930
0.017000
0.017053
0.017112
0.017170
0.017234
0.017284
0.017329
0.017381
0.017438
0.017491
0.017533
0.017595
0.017632
0.017687
0.017732
0.017783
0.017827
0.017875
0.017937
0.017975
0.018019
0.018068
0.018124
0.018164
0.018208
0.018246
0.018286
0.018306
0.018347
0.018363
0.018388
0.018401
0.018401
0.018391
0.018361
0.018335
0.018298
0.018231
0.018153
0.018070
0.017958
0.017831
0.017682
0.017519
0.017334
0.017124
0.016886
0.016661
0.016399
0.016132
0.015847
0.015546
0.015239
0.014925
0.014615
0.014295
0.013967
0.013651
0.013334
0.013008
0.012708
0.012402
0.012107
0.011826
0.011545
0.011268
0.011004
0.010752
0.010503
0.010268
0.010046
0.009822
0.009407
0.009216
0.009017
0.008841
0.008669
0.008493
0.008339
0.008178
0.008028
0.007883
0.007754
0.007607
0.007475
0.007361
0.007228
0.007132
0.006989
0.006896
0.006785
0.006688
0.006593
0.006487
0.006393
0.006314
0.006218
0.006140
0.006054
0.005975
0.005899
0.005829
0.005742
0.005678
0.005625
0.005549
0.005484
0.005424
0.005356
0.005307
0.005228
0.005201
0.005152
0.005090
0.005046
0.004993
0.004959
0.004906
0.004871
0.004829
0.004794
0.004735
0.004718
0.004684
0.004641
0.004626
0.004590
0.004562
0.004534
0.004506
0.004471
0.004472
0.004439
0.004417
0.004407
0.004392
0.004377
0.004364
0.004348
0.004332
0.004333
0.004320
0.004322
0.004309
0.004310
0.004299
0.003968
0.003640
0.003312
0.002981
0.002647
0.002321
0.001991
0.001661
0.001335
0.001013
0.000687
0.000358
0.000039
-0.000284
-0.000603
-0.000925
-0.001254
-0.001572
-0.001882
-0.002199
-0.002520
-0.002835
-0.003146
-0.003463
-0.003774
-0.004082
-0.004395
-0.004706
-0.005013
-0.005321
-0.005632
-0.005938
-0.006237
-0.006546
-0.006848
-0.007149
-0.007453
-0.007751
-0.008055
-0.008357
-0.008650
-0.008948
-0.009244
-0.009539
-0.009832
-0.010129
-0.010425
-0.010721
-0.011014
-0.011303
-0.011595
-0.011885
-0.012172
-0.012461
-0.012754
-0.013044
-0.013331
-0.013618
-0.013904
-0.014189
-0.014475
-0.014762
-0.015047
-0.015334
-0.015619
-0.015901
-0.016183
-0.016466
-0.016751
-0.017031
-0.017312
-0.017593
-0.017876
-0.018156
-0.018435
-0.018713
-0.018995
-0.019277
-0.019553
-0.019829
-0.020110
-0.020388
-0.020664
-0.020939
-0.021218
-0.021497
-0.021772
-0.022038
-0.022314
-0.022591
-0.022865
-0.023135
-0.023408
-0.023681
-0.023953
-0.024225
-0.024495
-0.024762
-0.025032
-0.025298
-0.025299
-0.025292
-0.025295
-0.025277
-0.025270
-0.025254
-0.025246
-0.025236
-0.025218
-0.025208
-0.025181
-0.025164
-0.025140
-0.025120
-0.025086
-0.025074
-0.025041
-0.025011
-0.024983
-0.024956
-0.024914
-0.024879
-0.024844
-0.024800
-0.024769
-0.024728
-0.024679
-0.024643
-0.024604
-0.024545
-0.024499
-0.024457
-0.024410
-0.024359
-0.024305
-0.024249
-0.024193
-0.024136
-0.024081
-0.024021
-0.023958
-0.023899
-0.023850
-0.023781
-0.023725
-0.023653
-0.023585
-0.023536
-0.023453
-0.023398
-0.023330
-0.023268
-0.023189
-0.023116
-0.023049
-0.022991
-0.022921
-0.022845
-0.022771
-0.022707
-0.022634
-0.022564
-0.022496
-0.022416
-0.022347
-0.022280
-0.022216
-0.022140
-0.022063
-0.022003
-0.021928
-0.021865
-0.021795
-0.021724
-0.021651
-0.021584
-0.021525
-0.021447
-0.021378
-0.021328
-0.021256
-0.021172
-0.021124
-0.021059
-0.020978
-0.020936
-0.020862
-0.020784
-0.020735
-0.020658
-0.020606
-0.020536
-0.020470
-0.020404
-0.020335
-0.020274
-0.020203
-0.020132
-0.020056
-0.019986
-0.019924
-0.019841
-0.019763
-0.019693
-0.019603
-0.019532
-0.019451
-0.019355
-0.019273
-0.019183
-0.019096
-0.018987
-0.018902
-0.018804
-0.018704
-0.018601
-0.018492
-0.018388
-0.018287
-0.018166
-0.018066
-0.017950
-0.017841
-0.017732
-0.017620
-0.017517
-0.017400
-0.017301
-0.017206
-0.017110
-0.017012
-0.016938
-0.016861
-0.016792
-0.016746
-0.016692
-0.016671
-0.016665
-0.016662
-0.016699
-0.016748
-0.016821
-0.016932
-0.017064
-0.017241
-0.017421
-0.017685
-0.017967
-0.018306
-0.018674
-0.019089
-0.019547
-0.020052
-0.020582
-0.021157
-0.021740
-0.022336
-0.022916
-0.023481
-0.023981
-0.024399
-0.024700
-0.024861
-0.024856
-0.024665
-0.024307
-0.023844
-0.023330
-0.022737
-0.022049
-0.020531
-0.020678
-0.023409
-0.013180
-0.012422
-0.011833
-0.011346
-0.010925
-0.010506
-0.010143
-0.009782
-0.009425
-0.009063
-0.008705
-0.008333
-0.007951
-0.007559
-0.007132
-0.006703
-0.006224
-0.005744
-0.005192
-0.004625
-0.003990
-0.003275
-0.002455
-0.001454
-0.016093
-0.019120
-0.016801
-0.017726
-0.017591
-0.017086
-0.017797
-0.017208
-0.018095
-0.013420
-0.016896
-0.016682
-0.015446
-0.008613
-0.021719
-0.022408
-0.017838
-0.017441
-0.017664
-0.017381
-0.016953
-0.016765
-0.017063
-0.016297
-0.014958
-0.014977
-0.014446
-0.014733
-0.011369
-0.010618
-0.009125
-0.011530
-0.014401
-0.012491
-0.009185
-0.007981
-0.007360
-0.006034
-0.005384
-0.004954
-0.000447
-0.006147
-0.005605
-0.005699
-0.006260
-0.004502
-0.005326
-0.004062
-0.004457
-0.004152
-0.003821
-0.003741
-0.003612
-0.003444
-0.003345
-0.003343
-0.002920
-0.003137
-0.002989
-0.003137
-0.002989
-0.003012
-0.002711
-0.002638
-0.002439
-0.002157
-0.002365
-0.002002
-0.002197
-0.002250
-0.002137
-0.002350
-0.002797
-0.003054
-0.003411
-0.003224
-0.002874
-0.002179
-0.001553
-0.001095
-0.000294
0.000616
0.000729
0.001341
0.001559
0.001434
0.002002
0.002504
0.002623
0.003043
0.003339
0.003543
0.004144
0.004269
0.004773
0.005271
0.005503
0.006153
0.006402
0.006914
0.007670
0.008602
0.008814
0.009464
0.009016
0.009854
0.009189
0.008705
0.008377
0.008209
0.008107
0.008073
0.008026
0.008006
0.008037
0.008049
0.008083
0.008119
0.008146
0.008195
0.008234
0.008285
0.008322
0.008372
0.008409
0.008469
0.008507
0.008555
0.008624
0.008682
0.008733
0.008802
0.008867
0.008931
0.008992
0.009055
0.009137
0.009228
0.009311
0.009412
0.009502
-0.006341
-0.006085
-0.006187
-0.006168
-0.012395
-0.012418
-0.012297
-0.012241
-0.000175
-0.000374
-0.000045
-0.000475
0.007839
0.007495
0.007810
-0.005191
-0.005157
-0.005411
0.008177
0.008156
0.007717
0.008104
0.007929
0.001580
0.001866
0.001821
-0.021678
-0.021840
-0.022008
-0.021568
-0.004825
-0.004547
-0.004739
-0.004526
0.001551
-0.019187
-0.019015
-0.019327
-0.023306
-0.023384
-0.023551
-0.018933
-0.013892
-0.013983
-0.014120
-0.013752
-0.019308
-0.019587
-0.019514
-0.012356
-0.012231
-0.012201
-0.013820
-0.013754
-0.014059
-0.012382
-0.014792
-0.014601
-0.014660
-0.014413
-0.005852
-0.005820
0.007551
0.007347
-0.013458
-0.013459
-0.013625
-0.013292
-0.014564
-0.014760
0.001910
0.002189
0.002056
-0.013607
-0.013639
-0.022028
-0.022161
-0.022228
-0.022378
-0.014692
-0.014718
-0.014413
-0.014967
-0.002122
-0.001853
-0.002097
-0.001928
-0.017019
-0.016821
-0.016963
-0.016708
0.002279
-0.012832
-0.012907
-0.013091
0.003127
0.003470
0.003251
0.003572
-0.004641
-0.004781
-0.004949
-0.018487
-0.018565
-0.018242
-0.004471
-0.009102
-0.008880
-0.009479
-0.008626
-0.008891
-0.008999
-0.008569
-0.003333
-0.003152
-0.003514
-0.007612
-0.007959
-0.007923
-0.007848
-0.015880
-0.016125
-0.016007
-0.016118
-0.023494
-0.023292
-0.023417
-0.023162
-0.013994
-0.014103
-0.014230
-0.013833
-0.014430
-0.014710
-0.014689
-0.014564
-0.006589
-0.006340
-0.006479
-0.021561
-0.021512
-0.021743
-0.006469
0.004445
0.004316
-0.013206
-0.000923
-0.000811
-0.000626
-0.001017
-0.000748
-0.000861
-0.022844
-0.022750
-0.023338
-0.023114
0.008756
0.008573
0.008408
-0.004693
-0.004357
-0.004833
0.008339
0.008626
0.008574
0.008433
0.008847
0.009123
0.009136
0.008925
-0.019355
-0.019119
-0.019393
-0.019143
-0.023736
-0.023488
-0.023459
-0.023663
-0.011641
-0.011328
-0.011507
-0.015443
-0.015695
-0.015430
-0.015703
0.000823
0.000603
0.000780
-0.016922
-0.017095
-0.016821
0.000491
-0.017080
-0.016837
-0.016552
-0.016462
-0.013155
-0.013343
-0.013217
-0.013456
-0.008241
-0.008513
-0.008473
-0.008735
-0.015371
-0.015368
-0.015152
-0.015580
-0.015210
-0.015110
-0.015405
-0.015288
-0.007065
-0.007289
-0.007374
-0.023299
-0.023246
-0.007600
-0.023068
-0.003434
-0.003113
-0.003155
-0.002879
0.007436
0.007126
0.007099
0.006747
-0.003274
-0.003183
-0.002886
-0.002862
-0.018515
-0.018726
-0.018413
-0.018745
-0.000544
-0.022703
-0.022950
-0.022797
-0.022724
-0.022343
-0.022176
-0.022457
-0.000776
-0.000669
-0.001004
-0.004621
-0.004955
-0.004878
-0.008566
-0.008794
-0.008812
-0.008569
-0.009748
-0.009949
-0.010082
-0.010267
-0.014592
-0.014791
-0.014674
-0.014934
-0.018104
-0.017878
-0.018089
0.007075
-0.017923
-0.017616
-0.017385
-0.017375
-0.017659
-0.017302
-0.017545
-0.017325
-0.016452
-0.016404
-0.016170
-0.016217
-0.016296
0.001375
0.001125
0.001429
0.001034
0.001725
0.001769
0.001969
-0.016028
-0.012127
-0.012221
-0.012377
-0.012541
-0.014277
-0.014092
-0.014104
-0.013841
-0.014050
-0.014056
-0.014280
-0.013828
-0.012166
-0.012451
-0.020387
-0.020444
-0.020604
-0.012675
-0.000370
-0.000087
-0.000201
-0.023974
-0.024070
-0.023817
-0.000761
0.002519
0.002811
0.002695
-0.004981
-0.004786
-0.005060
-0.014240
-0.014249
-0.014055
-0.014475
-0.016931
-0.017165
-0.017037
-0.017338
-0.010477
-0.010741
-0.010619
-0.010683
-0.010175
-0.009996
-0.009882
-0.009730
-0.002338
-0.002152
-0.002009
-0.001820
-0.013473
-0.013372
-0.014464
-0.014672
-0.014539
-0.014649
-0.000948
-0.001351
-0.001066
-0.001405
-0.015208
-0.015396
-0.015460
-0.015694
-0.017044
-0.016863
-0.016788
-0.017113
-0.008483
-0.008740
-0.008520
-0.008830
-0.008077
-0.008415
-0.008094
0.004553
0.004341
0.003967
-0.003107
-0.002832
-0.002743
-0.002527
-0.003231
-0.002895
-0.003152
-0.002839
-0.003606
-0.003958
-0.003758
-0.004048
0.001052
0.000878
0.001279
0.000657
-0.007097
-0.006805
-0.007101
-0.024381
-0.024575
-0.024563
-0.007375
-0.007545
-0.007644
-0.007202
-0.006793
-0.015228
-0.015146
-0.015393
-0.009568
-0.009327
-0.009532
-0.009378
-0.007326
-0.007237
-0.007076
-0.002088
-0.002033
-0.002353
-0.006942
-0.016530
-0.016652
-0.016862
-0.005017
-0.012064
-0.012219
-0.012010
-0.012051
-0.015172
-0.015141
-0.014932
-0.015404
-0.000739
-0.000505
-0.000787
-0.018552
-0.018190
-0.018392
0.005308
0.004860
0.004800
-0.014207
-0.014460
-0.014251
-0.014423
-0.001862
-0.001897
-0.002122
-0.018747
-0.018810
-0.018608
-0.018974
-0.018504
-0.013066
-0.013232
-0.012946
-0.013833
-0.013633
-0.013633
-0.018198
-0.018947
-0.018834
-0.019041
-0.012948
-0.012679
-0.012881
-0.019804
-0.020023
-0.019992
-0.018611
-0.018621
-0.018354
-0.018428
0.000770
0.001049
0.000938
-0.018838
-0.018582
-0.019018
-0.022502
-0.022565
-0.022333
-0.019472
-0.019219
-0.019267
-0.024322
-0.024515
0.002838
0.003098
0.002838
-0.001815
-0.001889
-0.019595
-0.019708
-0.005765
-0.005714
-0.005438
-0.012921
-0.012842
-0.013093
-0.006158
-0.005812
-0.006063
-0.005317
-0.019083
-0.019398
-0.012975
-0.022433
-0.004552
-0.004859
-0.025129
-0.012571
-0.012494
-0.012620
0.004695
0.005229
0.005063
0.005090
-0.012568
-0.019505
0.004015
0.004380
0.004165
-0.024232
-0.024451
-0.024270
-0.004410
-0.005071
0.003182
0.003404
0.003089
0.004058
0.004375
-0.010207
-0.010002
-0.010277
-0.022218
-0.014203
-0.014159
-0.014343
-0.005852
-0.005547
-0.006150
-0.009953
-0.021874
-0.021588
-0.021670
-0.021200
-0.021968
-0.022194
-0.013981
-0.004590
-0.005005
-0.005569
-0.005294
-0.005305
0.001175
0.001437
0.001341
-0.005792
-0.006065
-0.011028
-0.010825
-0.011121
-0.001501
-0.001542
-0.001833
-0.020228
-0.020108
-0.001191
-0.014861
-0.015106
-0.014880
-0.012971
-0.013065
-0.013152
-0.022927
-0.023479
-0.011073
-0.010905
-0.010750
-0.023889
-0.010520
-0.015023
-0.002369
-0.002123
-0.024363
0.003133
0.003468
-0.024123
-0.010712
-0.005523
-0.005255
-0.004920
-0.005522
-0.003817
-0.003589
-0.003579
-0.008227
-0.003347
-0.011424
-0.011348
-0.011574
-0.011176
-0.003721
-0.003559
-0.003493
-0.002195
-0.021627
-0.022658
-0.014079
-0.014298
-0.014295
-0.020016
-0.018837
-0.014548
-0.023437
-0.023584
-0.023374
-0.023903
-0.023996
-0.023364
-0.024298
-0.013747
-0.013532
-0.013624
-0.025059
-0.024408
-0.024550
-0.024297
-0.024803
-0.024730
-0.024961
-0.023561
-0.023371
-0.023634
-0.002499
-0.002787
-0.002603
-0.004891
-0.004813
-0.004168
-0.005207
-0.004425
-0.003284
-0.003606
0.004068
-0.019831
-0.002783
-0.013682
-0.013651
-0.013506
-0.019735
-0.019457
-0.019543
-0.019278
-0.020516
-0.020793
-0.020625
-0.020864
-0.003058
-0.003284
-0.003053
-0.003196
-0.002176
-0.002093
-0.001762
-0.001702
-0.021615
-0.023167
-0.023133
-0.017714
-0.024271
-0.024906
-0.024662
-0.012112
-0.011932
-0.012137
-0.015432
-0.024132
0.002839
0.002617
0.002864
-0.006783
-0.006975
-0.006633
0.003197
0.002980
0.002733
0.002646
-0.024229
-0.023829
-0.024583
-0.006777
-0.024441
-0.024496
-0.024310
0.003564
0.003815
0.003797
-0.010535
-0.010448
-0.010305
0.003147
0.003439
0.003289
-0.010737
-0.023424
-0.022995
-0.023718
-0.022046
-0.019188
-0.019095
-0.018968
-0.019378
-0.010519
-0.010465
-0.010761
0.008716
-0.010252
-0.008797
-0.008563
-0.008683
-0.008424
0.008252
-0.009049
-0.009308
-0.008997
-0.019376
-0.019203
-0.019434
-0.024460
0.006800
0.006754
0.007224
-0.025087
0.006302
-0.024651
-0.024569
-0.021261
-0.021444
-0.021273
0.004369
0.004236
0.004672
0.004421
-0.009619
-0.009503
-0.009734
-0.009340
-0.019107
0.004099
-0.010150
-0.010359
0.003786
0.003477
0.003556
-0.024318
-0.024038
-0.024699
-0.022478
-0.023194
-0.023806
-0.022982
-0.010889
-0.010612
-0.010762
0.004947
0.004763
-0.002018
-0.001934
-0.001708
-0.011502
-0.012052
-0.011145
0.007654
-0.011929
-0.018304
-0.018753
-0.018759
-0.002109
-0.001786
-0.001857
-0.017692
-0.018150
-0.018218
-0.024479
0.003291
0.003663
0.003376
-0.016426
-0.016126
-0.016179
-0.015871
-0.023929
-0.002147
-0.003461
-0.003228
-0.003260
0.002619
0.003762
-0.008463
-0.008739
-0.008636
-0.024211
-0.024059
-0.024631
-0.024151
-0.024178
-0.024358
0.002934
0.002919
0.003185
-0.022072
-0.023381
-0.023689
-0.020932
-0.024327
-0.008868
-0.017801
-0.018265
-0.018321
0.008578
-0.017090
-0.016854
-0.016865
-0.018153
-0.018444
-0.018679
-0.020655
-0.020436
-0.020425
-0.023418
-0.023598
-0.017023
-0.021816
-0.021877
-0.021648
-0.025012
-0.024843
-0.024562
-0.024432
-0.007536
-0.007414
-0.007161
-0.021639
-0.021351
-0.021358
0.004016
0.003451
0.003801
0.003283
-0.021749
0.007941
0.007981
0.007621
-0.023964
-0.023876
-0.024349
-0.023656
-0.023164
-0.023503
-0.022627
0.007788
-0.023924
-0.023703
0.004439
0.004647
0.004736
0.002624
0.002352
0.004941
-0.023965
-0.023938
-0.024186
0.002655
0.002978
-0.023455
-0.023571
-0.023912
-0.003037
-0.012151
-0.012060
-0.011966
-0.012261
-0.011006
-0.011150
-0.011284
0.004034
0.003907
0.004042
-0.014752
-0.014934
-0.014994
-0.015195
-0.012374
-0.012195
-0.012419
-0.012168
-0.022887
-0.022933
-0.023215
-0.022956
-0.019908
-0.019504
-0.019329
-0.024723
-0.024902
-0.015346
-0.015076
-0.024439
-0.024286
0.003655
0.003899
-0.009297
0.003309
0.003103
-0.023545
-0.023022
-0.000922
-0.000587
-0.000864
-0.015368
-0.015620
-0.015395
-0.015583
-0.022584
-0.022609
-0.022777
-0.019121
-0.018583
-0.022395
0.008056
0.007765
0.007724
0.003406
0.003113
0.003347
0.003198
-0.010877
-0.023082
-0.023142
-0.023231
-0.005008
-0.005216
-0.004889
-0.022690
-0.005067
-0.005506
-0.005779
-0.005792
-0.022418
-0.022725
-0.022938
-0.023690
-0.005531
-0.004565
-0.004881
-0.004912
0.002339
-0.005187
-0.017115
-0.017228
-0.023737
-0.023979
-0.023472
0.002389
0.002726
0.002076
-0.017520
-0.023081
-0.011161
-0.010861
-0.010924
-0.011818
-0.012141
-0.011933
0.001548
0.001793
0.001651
-0.017740
-0.017804
-0.009551
-0.009787
-0.009534
-0.022468
-0.018164
-0.022090
-0.002490
-0.002730
-0.002530
-0.009741
-0.023601
-0.023556
-0.023379
-0.021780
-0.022125
-0.011993
-0.013922
-0.014075
-0.013813
0.003435
0.003249
0.003199
-0.024567
0.002978
-0.015828
-0.015820
-0.024284
-0.024178
-0.024799
0.003489
-0.014233
0.003108
0.002968
0.003790
-0.011697
-0.011468
-0.011696
0.001149
0.000931
0.001277
-0.007475
-0.007645
-0.007717
-0.001621
-0.001275
-0.001549
-0.001395
0.000747
0.000787
0.001119
-0.005208
-0.005325
-0.005072
-0.021792
-0.021998
-0.021849
-0.022053
-0.017198
-0.017376
-0.017604
-0.005503
-0.018145
-0.018317
-0.018733
-0.012055
-0.011905
-0.017520
-0.017816
-0.017810
-0.016768
-0.016987
-0.016885
-0.017201
-0.014868
-0.015064
-0.014806
-0.012257
-0.023520
-0.011837
-0.011834
-0.011571
-0.011747
-0.011714
0.002056
-0.017328
-0.017717
-0.023528
-0.011555
0.005754
0.005495
0.005826
0.002144
-0.011399
0.001763
-0.017340
-0.019168
-0.018793
-0.018879
0.005581
-0.008649
-0.008897
-0.008810
-0.009034
-0.018445
-0.018022
-0.011785
-0.011766
-0.022417
-0.022247
-0.022163
0.000933
-0.001192
-0.001363
-0.001079
-0.006837
-0.006568
-0.006523
-0.019635
-0.019178
-0.019179
-0.016595
-0.016983
-0.002353
-0.024805
-0.024762
-0.017204
-0.024496
-0.017623
-0.023312
-0.023478
-0.018707
-0.023268
-0.022943
-0.023176
-0.022996
-0.015503
-0.015639
-0.010210
-0.010023
-0.009920
-0.010276
0.003447
0.000880
0.001153
0.000801
0.001198
-0.011554
-0.011539
-0.011337
-0.023922
-0.024056
-0.023860
-0.019962
-0.019867
-0.019710
-0.017921
-0.018364
-0.016639
0.003258
0.002961
0.003118
0.002760
0.002481
0.002745
-0.016255
-0.016450
-0.017676
-0.018207
-0.016937
-0.016336
-0.016633
-0.014402
-0.017665
-0.018232
0.007861
-0.016749
-0.017163
0.001416
0.001461
0.001734
-0.013954
-0.013830
-0.016824
0.001751
-0.018274
-0.017501
-0.018152
-0.018179
-0.018399
-0.017944
-0.006621
-0.006751
-0.006943
0.000440
0.000694
0.000685
0.007886
0.007499
0.007649
0.007686
-0.017783
-0.017567
-0.017570
-0.023291
-0.020415
-0.020324
-0.020145
-0.017356
-0.011132
-0.011071
-0.011287
-0.010916
0.002600
0.002855
0.002977
-0.011555
-0.011646
-0.011830
-0.016109
-0.016483
-0.016714
-0.017121
-0.019475
-0.019316
-0.019543
-0.011831
-0.004858
-0.005150
-0.005171
-0.004994
-0.018224
-0.018682
-0.007990
-0.008035
-0.008262
0.006441
0.006229
0.006052
-0.023421
-0.023190
-0.002252
-0.002281
0.006526
-0.003967
-0.003844
-0.004146
-0.003851
0.000851
0.000752
0.001058
0.003452
0.003714
0.003539
0.003885
-0.010573
-0.010529
-0.010231
-0.010180
-0.009899
-0.003345
-0.003287
-0.003094
-0.017427
-0.017863
-0.022085
-0.022316
-0.022263
-0.022137
-0.009823
-0.015498
-0.015356
-0.015202
-0.015774
-0.015683
-0.016113
-0.015782
-0.015957
-0.022991
-0.015915
-0.015811
-0.016092
-0.016380
-0.017201
-0.013795
-0.013795
-0.013587
-0.013517
-0.014672
-0.014751
0.001679
0.001921
0.001530
-0.014915
-0.014737
-0.016205
-0.016586
-0.014985
-0.003017
-0.012137
-0.012301
-0.012292
-0.022156
-0.022316
-0.022105
-0.016345
-0.022439
-0.008331
-0.008577
-0.008526
-0.008822
-0.007992
-0.007937
-0.007797
-0.003521
-0.003385
-0.004669
-0.017798
-0.017025
-0.015651
-0.016026
0.000871
0.000821
0.000575
0.000607
0.008259
0.008501
0.008615
-0.024627
-0.024541
-0.024287
0.005758
0.005596
0.005941
0.005453
-0.023235
-0.023456
-0.023187
-0.016256
-0.016659
0.003536
0.003403