# vtk DataFile Version 2.0
Test
ASCII
DATASET POLYDATA
POINTS 6577 float
0.000000 0.000000 0.000000
2.000000 0.000000 0.000000
2.000000 4.000000 0.000000
0.000000 4.000000 0.000000
0.000000 0.500000 0.000000
1.500000 2.000000 0.000000
2.000000 2.500000 0.000000
0.040000 0.000000 0.000000
0.080000 0.000000 0.000000
0.120000 0.000000 0.000000
0.160000 0.000000 0.000000
0.200000 0.000000 0.000000
0.240000 0.000000 0.000000
0.280000 0.000000 0.000000
0.320000 0.000000 0.000000
0.360000 0.000000 0.000000
0.400000 0.000000 0.000000
0.440000 0.000000 0.000000
0.480000 0.000000 0.000000
0.520000 0.000000 0.000000
0.560000 0.000000 0.000000
0.600000 0.000000 0.000000
0.640000 0.000000 0.000000
0.680000 0.000000 0.000000
0.720000 0.000000 0.000000
0.760000 0.000000 0.000000
0.800000 0.000000 0.000000
0.840000 0.000000 0.000000
0.880000 0.000000 0.000000
0.920000 0.000000 0.000000
0.960000 0.000000 0.000000
1.000000 0.000000 0.000000
1.040000 0.000000 0.000000
1.080000 0.000000 0.000000
1.120000 0.000000 0.000000
1.160000 0.000000 0.000000
1.200000 0.000000 0.000000
1.240000 0.000000 0.000000
1.280000 0.000000 0.000000
1.320000 0.000000 0.000000
1.360000 0.000000 0.000000
1.400000 0.000000 0.000000
1.440000 0.000000 0.000000
1.480000 0.000000 0.000000
1.520000 0.000000 0.000000
1.560000 0.000000 0.000000
1.600000 0.000000 0.000000
1.640000 0.000000 0.000000
1.680000 0.000000 0.000000
1.720000 0.000000 0.000000
1.760000 0.000000 0.000000
1.800000 0.000000 0.000000
1.840000 0.000000 0.000000
1.880000 0.000000 0.000000
1.920000 0.000000 0.000000
1.960000 0.000000 0.000000
2.000000 0.039683 0.000000
2.000000 0.079365 0.000000
2.000000 0.119048 0.000000
2.000000 0.158730 0.000000
2.000000 0.198413 0.000000
2.000000 0.238095 0.000000
2.000000 0.277778 0.000000
2.000000 0.317460 0.000000
2.000000 0.357143 0.000000
2.000000 0.396825 0.000000
2.000000 0.436508 0.000000
2.000000 0.476190 0.000000
2.000000 0.515873 0.000000
2.000000 0.555556 0.000000
2.000000 0.595238 0.000000
2.000000 0.634921 0.000000
2.000000 0.674603 0.000000
2.000000 0.714286 0.000000
2.000000 0.753968 0.000000
2.000000 0.793651 0.000000
2.000000 0.833333 0.000000
2.000000 0.873016 0.000000
2.000000 0.912698 0.000000
2.000000 0.952381 0.000000
2.000000 0.992063 0.000000
2.000000 1.031746 0.000000
2.000000 1.071429 0.000000
2.000000 1.111111 0.000000
2.000000 1.150794 0.000000
2.000000 1.190476 0.000000
2.000000 1.230159 0.000000
2.000000 1.269841 0.000000
2.000000 1.309524 0.000000
2.000000 1.349206 0.000000
2.000000 1.388889 0.000000
2.000000 1.428571 0.000000
2.000000 1.468254 0.000000
2.000000 1.507937 0.000000
2.000000 1.547619 0.000000
2.000000 1.587302 0.000000
2.000000 1.626984 0.000000
2.000000 1.666667 0.000000
2.000000 1.706349 0.000000
2.000000 1.746032 0.000000
2.000000 1.785714 0.000000
2.000000 1.825397 0.000000
2.000000 1.865079 0.000000
2.000000 1.904762 0.000000
2.000000 1.944444 0.000000
2.000000 1.984127 0.000000
2.000000 2.023810 0.000000
2.000000 2.063492 0.000000
2.000000 2.103175 0.000000
2.000000 2.142857 0.000000
2.000000 2.182540 0.000000
2.000000 2.222222 0.000000
2.000000 2.261905 0.000000
2.000000 2.301587 0.000000
2.000000 2.341270 0.000000
2.000000 2.380952 0.000000
2.000000 2.420635 0.000000
2.000000 2.460317 0.000000
2.000000 2.539474 0.000000
2.000000 2.578947 0.000000
2.000000 2.618421 0.000000
2.000000 2.657895 0.000000
2.000000 2.697368 0.000000
2.000000 2.736842 0.000000
2.000000 2.776316 0.000000
2.000000 2.815789 0.000000
2.000000 2.855263 0.000000
2.000000 2.894737 0.000000
2.000000 2.934211 0.000000
2.000000 2.973684 0.000000
2.000000 3.013158 0.000000
2.000000 3.052632 0.000000
2.000000 3.092105 0.000000
2.000000 3.131579 0.000000
2.000000 3.171053 0.000000
2.000000 3.210526 0.000000
2.000000 3.250000 0.000000
2.000000 3.289474 0.000000
2.000000 3.328947 0.000000
2.000000 3.368421 0.000000
2.000000 3.407895 0.000000
2.000000 3.447368 0.000000
2.000000 3.486842 0.000000
2.000000 3.526316 0.000000
2.000000 3.565789 0.000000
2.000000 3.605263 0.000000
2.000000 3.644737 0.000000
2.000000 3.684211 0.000000
2.000000 3.723684 0.000000
2.000000 3.763158 0.000000
2.000000 3.802632 0.000000
2.000000 3.842105 0.000000
2.000000 3.881579 0.000000
2.000000 3.921053 0.000000
2.000000 3.960526 0.000000
1.960000 4.000000 0.000000
1.920000 4.000000 0.000000
1.880000 4.000000 0.000000
1.840000 4.000000 0.000000
1.800000 4.000000 0.000000
1.760000 4.000000 0.000000
1.720000 4.000000 0.000000
1.680000 4.000000 0.000000
1.640000 4.000000 0.000000
1.600000 4.000000 0.000000
1.560000 4.000000 0.000000
1.520000 4.000000 0.000000
1.480000 4.000000 0.000000
1.440000 4.000000 0.000000
1.400000 4.000000 0.000000
1.360000 4.000000 0.000000
1.320000 4.000000 0.000000
1.280000 4.000000 0.000000
1.240000 4.000000 0.000000
1.200000 4.000000 0.000000
1.160000 4.000000 0.000000
1.120000 4.000000 0.000000
1.080000 4.000000 0.000000
1.040000 4.000000 0.000000
1.000000 4.000000 0.000000
0.960000 4.000000 0.000000
0.920000 4.000000 0.000000
0.880000 4.000000 0.000000
0.840000 4.000000 0.000000
0.800000 4.000000 0.000000
0.760000 4.000000 0.000000
0.720000 4.000000 0.000000
0.680000 4.000000 0.000000
0.640000 4.000000 0.000000
0.600000 4.000000 0.000000
0.560000 4.000000 0.000000
0.520000 4.000000 0.000000
0.480000 4.000000 0.000000
0.440000 4.000000 0.000000
0.400000 4.000000 0.000000
0.360000 4.000000 0.000000
0.320000 4.000000 0.000000
0.280000 4.000000 0.000000
0.240000 4.000000 0.000000
0.200000 4.000000 0.000000
0.160000 4.000000 0.000000
0.120000 4.000000 0.000000
0.080000 4.000000 0.000000
0.040000 4.000000 0.000000
0.000000 3.960227 0.000000
0.000000 3.920455 0.000000
0.000000 3.880682 0.000000
0.000000 3.840909 0.000000
0.000000 3.801136 0.000000
0.000000 3.761364 0.000000
0.000000 3.721591 0.000000
0.000000 3.681818 0.000000
0.000000 3.642045 0.000000
0.000000 3.602273 0.000000
0.000000 3.562500 0.000000
0.000000 3.522727 0.000000
0.000000 3.482955 0.000000
0.000000 3.443182 0.000000
0.000000 3.403409 0.000000
0.000000 3.363636 0.000000
0.000000 3.323864 0.000000
0.000000 3.284091 0.000000
0.000000 3.244318 0.000000
0.000000 3.204545 0.000000
0.000000 3.164773 0.000000
0.000000 3.125000 0.000000
0.000000 3.085227 0.000000
0.000000 3.045455 0.000000
0.000000 3.005682 0.000000
0.000000 2.965909 0.000000
0.000000 2.926136 0.000000
0.000000 2.886364 0.000000
0.000000 2.846591 0.000000
0.000000 2.806818 0.000000
0.000000 2.767045 0.000000
0.000000 2.727273 0.000000
0.000000 2.687500 0.000000
0.000000 2.647727 0.000000
0.000000 2.607955 0.000000
0.000000 2.568182 0.000000
0.000000 2.528409 0.000000
0.000000 2.488636 0.000000
0.000000 2.448864 0.000000
0.000000 2.409091 0.000000
0.000000 2.369318 0.000000
0.000000 2.329545 0.000000
0.000000 2.289773 0.000000
0.000000 2.250000 0.000000
0.000000 2.210227 0.000000
0.000000 2.170455 0.000000
0.000000 2.130682 0.000000
0.000000 2.090909 0.000000
0.000000 2.051136 0.000000
0.000000 2.011364 0.000000
0.000000 1.971591 0.000000
0.000000 1.931818 0.000000
0.000000 1.892045 0.000000
0.000000 1.852273 0.000000
0.000000 1.812500 0.000000
0.000000 1.772727 0.000000
0.000000 1.732955 0.000000
0.000000 1.693182 0.000000
0.000000 1.653409 0.000000
0.000000 1.613636 0.000000
0.000000 1.573864 0.000000
0.000000 1.534091 0.000000
0.000000 1.494318 0.000000
0.000000 1.454545 0.000000
0.000000 1.414773 0.000000
0.000000 1.375000 0.000000
0.000000 1.335227 0.000000
0.000000 1.295455 0.000000
0.000000 1.255682 0.000000
0.000000 1.215909 0.000000
0.000000 1.176136 0.000000
0.000000 1.136364 0.000000
0.000000 1.096591 0.000000
0.000000 1.056818 0.000000
0.000000 1.017045 0.000000
0.000000 0.977273 0.000000
0.000000 0.937500 0.000000
0.000000 0.897727 0.000000
0.000000 0.857955 0.000000
0.000000 0.818182 0.000000
0.000000 0.778409 0.000000
0.000000 0.738636 0.000000
0.000000 0.698864 0.000000
0.000000 0.659091 0.000000
0.000000 0.619318 0.000000
0.000000 0.579545 0.000000
0.000000 0.539773 0.000000
0.000000 0.461538 0.000000
0.000000 0.423077 0.000000
0.000000 0.384615 0.000000
0.000000 0.346154 0.000000
0.000000 0.307692 0.000000
0.000000 0.269231 0.000000
0.000000 0.230769 0.000000
0.000000 0.192308 0.000000
0.000000 0.153846 0.000000
0.000000 0.115385 0.000000
0.000000 0.076923 0.000000
0.000000 0.038462 0.000000
0.027778 0.527778 0.000000
0.055556 0.555556 0.000000
0.083333 0.583333 0.000000
0.111111 0.611111 0.000000
0.138889 0.638889 0.000000
0.166667 0.666667 0.000000
0.194444 0.694444 0.000000
0.222222 0.722222 0.000000
0.250000 0.750000 0.000000
0.277778 0.777778 0.000000
0.305556 0.805556 0.000000
0.333333 0.833333 0.000000
0.361111 0.861111 0.000000
0.388889 0.888889 0.000000
0.416667 0.916667 0.000000
0.444444 0.944444 0.000000
0.472222 0.972222 0.000000
0.500000 1.000000 0.000000
0.527778 1.027778 0.000000
0.555556 1.055556 0.000000
0.583333 1.083333 0.000000
0.611111 1.111111 0.000000
0.638889 1.138889 0.000000
0.666667 1.166667 0.000000
0.694444 1.194444 0.000000
0.722222 1.222222 0.000000
0.750000 1.250000 0.000000
0.777778 1.277778 0.000000
0.805556 1.305556 0.000000
0.833333 1.333333 0.000000
0.861111 1.361111 0.000000
0.888889 1.388889 0.000000
0.916667 1.416667 0.000000
0.944444 1.444444 0.000000
0.972222 1.472222 0.000000
1.000000 1.500000 0.000000
1.027778 1.527778 0.000000
1.055556 1.555556 0.000000
1.083333 1.583333 0.000000
1.111111 1.611111 0.000000
1.138889 1.638889 0.000000
1.166667 1.666667 0.000000
1.194444 1.694444 0.000000
1.222222 1.722222 0.000000
1.250000 1.750000 0.000000
1.277778 1.777778 0.000000
1.305556 1.805556 0.000000
1.333333 1.833333 0.000000
1.361111 1.861111 0.000000
1.388889 1.888889 0.000000
1.416667 1.916667 0.000000
1.444444 1.944444 0.000000
1.472222 1.972222 0.000000
1.527778 2.027778 0.000000
1.555556 2.055556 0.000000
1.583333 2.083333 0.000000
1.611111 2.111111 0.000000
1.638889 2.138889 0.000000
1.666667 2.166667 0.000000
1.694444 2.194444 0.000000
1.722222 2.222222 0.000000
1.750000 2.250000 0.000000
1.777778 2.277778 0.000000
1.805556 2.305556 0.000000
[...]
POINT_DATA 6577
SCALARS UX float 1
LOOKUP_TABLE default
-0.000088
0.000124
0.126350
-0.645225
-0.254966
0.298607
0.481057
0.000021
-0.000005
-0.000001
0.000001
-0.000003
-0.000011
0.000001
0.000001
0.000003
0.000002
0.000001
-0.000001
0.000001
0.000002
-0.000001
0.000001
-0.000002
-0.000001
0.000000
-0.000001
-0.000001
0.000000
0.000000
0.000001
0.000000
-0.000000
0.000000
0.000000
0.000000
-0.000000
-0.000000
0.000001
-0.000001
-0.000000
0.000000
-0.000000
0.000001
0.000000
0.000000
-0.000001
-0.000000
-0.000000
-0.000001
0.000002
-0.000002
0.000002
-0.000000
-0.000001
-0.000017
0.022829
0.033351
0.044205
0.053876
0.062819
0.071686
0.080616
0.090477
0.100785
0.111251
0.121729
0.131958
0.139299
0.144914
0.149905
0.154730
0.159591
0.164120
0.168593
0.173051
0.177323
0.182387
0.187317
0.191633
0.197175
0.202992
0.208600
0.214920
0.222129
0.229785
0.239104
0.249068
0.258760
0.269430
0.278491
0.290627
0.302658
0.315557
0.327988
0.340156
0.351862
0.363670
0.375118
0.387234
0.399490
0.411882
0.425015
0.438615
0.451856
0.463935
0.475385
0.485830
0.493090
0.499429
0.505695
0.508840
0.509882
0.506580
0.504924
0.505174
0.503562
0.496449
0.437788
0.433372
0.415264
0.396227
0.403264
0.404923
0.412177
0.420030
0.421727
0.424262
0.418450
0.412894
0.405768
0.410870
0.413023
0.415099
0.415033
0.415860
0.405406
0.407846
0.411429
0.408644
0.389642
0.356231
0.315513
0.294691
0.277602
0.258256
0.214720
0.173562
0.146680
0.140177
0.137142
0.132478
0.128516
0.125132
0.125998
0.110198
0.094376
0.078886
0.063591
0.048626
0.032835
0.015965
-0.000810
-0.018122
-0.036034
-0.055308
-0.074851
-0.094768
-0.114704
-0.133971
-0.152960
-0.171346
-0.189058
-0.206113
-0.222692
-0.238683
-0.254250
-0.269831
-0.284833
-0.299109
-0.313459
-0.328262
-0.342719
-0.357276
-0.372301
-0.387633
-0.402980
-0.418042
-0.432422
-0.447029
-0.461492
-0.475829
-0.489713
-0.503621
-0.517595
-0.531153
-0.544610
-0.558036
-0.571480
-0.584188
-0.596850
-0.609422
-0.621550
-0.633641
-0.645814
-0.646681
-0.647188
-0.646380
-0.644334
-0.642486
-0.640875
-0.638510
-0.637263
-0.635287
-0.632859
-0.630174
-0.627307
-0.626213
-0.621042
-0.617674
-0.614212
-0.611470
-0.609513
-0.604393
-0.600930
-0.596944
-0.591796
-0.587047
-0.583685
-0.578424
-0.575618
-0.571889
-0.570951
-0.566661
-0.563668
-0.559900
-0.557269
-0.555197
-0.550359
-0.547168
-0.541347
-0.537011
-0.534764
-0.529819
-0.517143
-0.496538
-0.469554
-0.440093
-0.409583
-0.388023
-0.368512
-0.352609
-0.340341
-0.331434
-0.326014
-0.322927
-0.321064
-0.318320
-0.318021
-0.318338
-0.318945
-0.320209
-0.321539
-0.321330
-0.323474
-0.324699
-0.325380
-0.325415
-0.325060
-0.323475
-0.321023
-0.317310
-0.313000
-0.307851
-0.301850
-0.294921
-0.287642
-0.279935
-0.271914
-0.264046
-0.256407
-0.248544
-0.240575
-0.232618
-0.225112
-0.218958
-0.215902
-0.217915
-0.224859
-0.238285
-0.282909
-0.151007
-0.145153
-0.142511
-0.137867
-0.131747
-0.123652
-0.114166
-0.104229
-0.092987
-0.080319
-0.064903
-0.041424
-0.244407
-0.220040
-0.266606
-0.208773
-0.256298
-0.191166
-0.178522
-0.155587
-0.146813
-0.182813
-0.167594
-0.170440
-0.179307
-0.171457
-0.169691
-0.172253
-0.170182
-0.173015
-0.176144
-0.179794
-0.174293
-0.207410
-0.200747
-0.211767
-0.202906
-0.186255
-0.180686
-0.166807
-0.147823
-0.132746
-0.109545
-0.093294
-0.080278
-0.072778
-0.056293
-0.071588
-0.053080
-0.020628
-0.035424
-0.003043
0.025081
0.075863
0.157994
0.187165
0.303830
0.004766
0.032752
0.081773
0.272254
0.253940
0.264466
0.287992
0.297073
0.297589
0.309074
0.302498
0.325927
0.339523
0.335710
0.358731
0.388916
0.404376
0.407764
0.412608
0.426360
0.437105
0.439683
0.445666
0.456170
0.470420
0.399395
0.391838
-0.639060
-0.638652
0.112114
0.115964
0.444334
0.436659
0.414430
0.378473
0.382686
0.062133
0.012611
0.032075
-0.000003
-0.007714
0.011797
-0.001499
-0.198071
-0.185570
-0.189124
-0.078114
-0.066244
-0.059058
-0.580799
-0.584682
-0.572694
-0.588477
-0.603187
-0.597655
-0.077691
0.049686
0.064375
0.055032
-0.073843
-0.090567
-0.070819
-0.562389
-0.557727
-0.549670
-0.198539
-0.132559
-0.131138
-0.148001
0.119540
0.110437
0.106454
-0.090452
-0.088186
-0.102939
-0.097208
-0.462528
-0.475410
-0.469208
-0.473610
-0.452343
-0.466126
-0.455338
-0.469519
-0.098419
-0.083620
-0.097109
0.119782
-0.121585
-0.131856
-0.120867
0.386944
0.407134
-0.125466
-0.252675
-0.251658
-0.239335
-0.266209
-0.467795
-0.464961
-0.451949
-0.042805
-0.074797
-0.058605
-0.055193
0.152049
0.143273
0.163234
0.141544
-0.390008
-0.409904
-0.403650
-0.400162
-0.157570
-0.143971
-0.156104
-0.206958
-0.195363
-0.194289
0.372461
0.402337
0.362867
0.384870
0.351491
0.368807
0.345977
-0.232978
-0.241288
-0.244369
0.160604
0.154632
0.149365
0.144722
-0.147128
-0.588215
-0.598983
-0.589655
-0.345326
-0.332966
-0.333495
-0.349593
-0.469752
-0.481769
-0.468472
-0.477798
-0.219272
-0.210279
-0.219125
-0.287988
-0.293472
-0.303370
0.177757
0.108827
0.164084
0.161344
0.168971
0.195859
0.402171
-0.154583
-0.144936
-0.151021
-0.148014
-0.158470
-0.152297
-0.196402
-0.183807
-0.437138
-0.439758
-0.425655
-0.513267
-0.504801
-0.504371
-0.450958
-0.279585
-0.293349
-0.275328
-0.559358
-0.555466
-0.566183
-0.206109
-0.143360
-0.131776
-0.144028
-0.261058
-0.247740
-0.262680
-0.211701
-0.211671
-0.211445
0.254266
0.269173
0.265743
0.279692
0.158395
0.149110
0.146938
0.135383
0.368207
0.372734
-0.224373
-0.218116
-0.231294
-0.208112
-0.565362
-0.578044
-0.569782
-0.056152
-0.040199
-0.056624
-0.130217
-0.141439
-0.137566
-0.045157
-0.585730
-0.440676
-0.423925
-0.432752
-0.166886
-0.179826
-0.183145
-0.199563
-0.433388
-0.543475
-0.544176
-0.356758
-0.350232
-0.364827
-0.573469
-0.576522
-0.012749
0.003787
-0.012686
-0.287635
-0.290911
-0.285712
-0.314731
-0.301252
-0.302075
-0.276512
-0.281619
-0.275526
-0.289430
-0.265413
-0.269854
-0.264240
-0.125356
-0.137223
-0.117288
-0.126626
-0.580716
-0.592913
-0.585723
-0.598645
-0.630912
-0.628303
0.101674
0.099374
0.171081
0.167850
0.176770
0.160235
-0.398741
-0.397769
-0.387256
-0.253915
-0.258025
-0.250721
-0.383231
0.163584
0.170530
0.163593
-0.212246
-0.214160
-0.589432
-0.584177
-0.578983
-0.111269
-0.113531
0.307271
0.302090
0.339065
0.337768
-0.437562
-0.457099
-0.446560
-0.469299
-0.258528
-0.261378
-0.265006
-0.252591
-0.271713
-0.269327
-0.265498
-0.295693
-0.295887
-0.295655
-0.301457
-0.295549
-0.216780
-0.218269
-0.223080
-0.226273
-0.220192
-0.275565
-0.272226
0.070263
0.085756
-0.280070
-0.287495
-0.284244
-0.602965
-0.222783
-0.238331
-0.221029
-0.291167
-0.263384
0.176919
0.180560
0.171556
0.183990
-0.061347
-0.049247
-0.048603
-0.122232
-0.116623
-0.127619
-0.118620
-0.102126
0.009209
0.031240
0.028669
-0.107631
-0.100882
-0.097906
-0.110290
-0.307986
-0.311417
-0.305444
-0.508940
-0.510608
-0.498196
0.029029
-0.267545
-0.277493
-0.263569
-0.265058
-0.261670
-0.270331
-0.215232
-0.217699
0.090218
-0.200444
-0.192925
-0.240034
-0.245108
-0.231881
-0.254325
-0.249966
-0.229823
-0.229307
-0.224419
-0.233532
-0.230001
-0.226052
-0.239132
0.088210
0.095126
-0.259461
-0.270991
-0.267750
-0.260527
-0.257385
-0.193374
-0.635171
-0.269531
-0.265329
-0.274371
-0.268536
-0.274745
0.119603
-0.162729
-0.150244
-0.623827
-0.619471
-0.249919
-0.245807
0.092347
0.101943
-0.144071
-0.137427
-0.283202
0.110553
0.127448
0.128218
0.143581
-0.298808
-0.294597
-0.453736
-0.465550
-0.452435
-0.214634
-0.223397
-0.224255
-0.185978
-0.235028
-0.463671
0.058018
-0.112252
-0.132727
-0.113616
-0.591973
-0.236757
-0.230691
-0.240975
-0.616594
-0.317428
-0.312840
-0.317695
-0.134533
-0.118530
0.069005
0.079872
0.076004
-0.214295
-0.212817
-0.023266
-0.004592
-0.606273
-0.608818
-0.600062
-0.420015
-0.409945
-0.224494
-0.228124
-0.230586
-0.207337
-0.224888
-0.273698
-0.278690
-0.009340
-0.004614
-0.008262
-0.285978
-0.290512
-0.309555
-0.305433
-0.297933
-0.241733
-0.408366
-0.023599
-0.029012
-0.302030
-0.635053
-0.242579
-0.236088
-0.248283
-0.616025
-0.612472
0.054593
0.044663
0.065609
-0.263211
0.122313
0.093854
0.108920
0.085593
-0.223346
-0.229030
-0.233927
-0.217049
-0.268266
-0.265874
-0.241742
-0.231689
-0.253109
-0.258280
-0.256035
-0.248132
-0.275438
-0.259797
-0.248259
0.047697
-0.303619
-0.290955
-0.317702
-0.582561
0.077955
0.060422
0.058540
0.071271
-0.248089
-0.240386
-0.255722
-0.591823
-0.593670
-0.601800
-0.223858
-0.230556
-0.236264
-0.218497
-0.255204
-0.021800
-0.021382
-0.236209
-0.222034
0.054432
0.310694
0.346216
0.352994
-0.629114
-0.624455
-0.610695
-0.604322
0.105009
0.120368
-0.022187
-0.017099
-0.025623
-0.032034
-0.537629
-0.535468
-0.524263
-0.248858
0.087653
0.077359
-0.252785
-0.244546
-0.264436
-0.225131
-0.233013
-0.239148
-0.221474
-0.246038
0.045147
0.034340
-0.037973
-0.581826
-0.571913
-0.157027
-0.148924
-0.165068
-0.261185
0.045838
0.061548
-0.580577
-0.592195
-0.248623
-0.269140
-0.281175
-0.305880
0.424733
0.402226
-0.293672
-0.197256
0.252470
0.235206
0.249349
-0.226919
-0.235468
-0.242750
-0.220434
-0.006094
0.012324
0.008412
-0.616690
-0.157245
0.235023
-0.604122
-0.596985
-0.622054
0.102984
0.121408
0.029237
0.044780
0.046209
0.084672
0.070431
-0.266384
0.028960
0.031079
0.234250
0.251681
0.241346
-0.536503
-0.547524
-0.538154
-0.550760
-0.024860
-0.392628
0.353438
0.377799
-0.005071
-0.270187
-0.276039
-0.596400
-0.228476
-0.283354
-0.288761
-0.238940
-0.246256
-0.222072
0.033594
0.269710
0.125516
0.136188
0.134438
-0.570016
0.127407
-0.124467
-0.115255
-0.132899
0.035796
0.052251
0.021893
-0.570099
-0.582245
-0.560454
-0.309487
-0.272228
-0.313611
0.115748
0.105395
0.125343
0.097245
0.027987
-0.256280
-0.296571
-0.235116
-0.301450
0.048684
-0.533416
-0.536079
-0.523134
-0.243967
-0.250523
-0.525490
-0.523553
-0.260327
0.393421
0.328065
0.318081
0.338344
-0.213866
-0.226370
-0.209165
-0.216553
0.339074
0.047075
0.011095
-0.607316
-0.547995
-0.027675
-0.038131
-0.023855
-0.595561
-0.591694
-0.617577
0.099390
-0.264166
-0.262668
0.079555
0.067787
0.124171
-0.010561
-0.021696
0.084009
0.086876
0.071046
-0.254716
-0.253399
-0.251260
-0.013464
-0.240849
0.021109
-0.246316
-0.244424
-0.277695
-0.558803
-0.031102
-0.305135
-0.081270
-0.070410
-0.084969
0.025640
-0.075206
0.007858
-0.560292
-0.092533
-0.074763
-0.547668
-0.087499
-0.284962
-0.284429
-0.295774
-0.247798
0.335062
-0.291378
-0.173970
-0.166186
-0.168614
-0.272467
0.037597
0.043385
0.029465
-0.159840
-0.143977
-0.265395
-0.271983
-0.604443
-0.600471
-0.589135
0.035198
-0.531398
-0.528359
-0.279512
-0.285788
-0.168971
-0.154637
-0.309200
-0.314077
-0.294204
-0.299596
-0.577684
-0.588935
-0.573348
0.130802
0.131065
0.167450
0.085126
-0.256320
0.393212
0.392420
0.374201
-0.258786
-0.258221
-0.249702
-0.248582
0.378882
-0.153836
-0.141169
-0.158507
-0.247773
-0.138155
-0.147985
-0.013685
-0.291312
-0.284384
-0.289450
-0.242102
-0.240756
-0.151176
-0.584357
-0.030198
-0.028393
-0.012760
-0.564344
-0.576985
-0.273040
-0.160630
0.068245
0.054063
-0.065923
-0.077177
-0.064898
0.051897
-0.393520
-0.403857
-0.410993
-0.380499
0.053746
0.047854
0.323537
0.359968
0.031803
0.019682
0.014291
0.032130
0.010832
0.031134
0.001906
-0.134708
-0.123742
-0.136553
-0.123212
-0.547234
-0.557674
-0.560932
-0.259377
-0.266158
-0.108388
-0.096552
-0.111979
-0.487031
-0.478106
-0.490137
-0.304775
-0.287901
-0.274458
-0.281150
-0.291179
-0.297528
-0.564631
-0.107023
-0.093991
-0.096969
-0.251974
-0.251378
-0.250926
-0.409650
-0.440503
-0.415988
-0.602480
-0.612858
-0.616270
-0.598055
-0.243831
-0.242829
-0.213697
-0.226129
-0.379415
-0.349145
-0.350296
-0.242640
-0.610410
-0.554928
-0.567996
-0.548999
-0.235985
0.330748
-0.235820
-0.267367
-0.252405
-0.260049
0.016726
-0.007770
0.011533
-0.318372
-0.353394
-0.268658
-0.276091
-0.283777
-0.583115
-0.533512
-0.540769
-0.544295
-0.531219
-0.287324
-0.295910
0.334349
0.293124
0.326172
0.263713
-0.244344
-0.243993
-0.244083
-0.236558
-0.236768
-0.568530
-0.566437
-0.279413
-0.258150
-0.264407
-0.261599
-0.173293
-0.151673
-0.162006
-0.005160
-0.236153
-0.228522
-0.228922
-0.261154
-0.244640
-0.252969
-0.537847
0.079620
0.063072
0.078876
-0.159410
-0.262896
-0.270073
-0.278562
-0.282116
-0.291977
-0.561398
-0.236141
-0.235964
-0.112027
-0.094816
-0.107095
-0.097911
-0.236039
-0.551189
-0.542791
0.030452
0.041067
0.017161
-0.178018
0.299382
0.291668
0.302692
0.314153
-0.242476
-0.252456
-0.228676
-0.229556
0.292125
0.308116
0.287218
-0.512650
-0.525978
-0.512819
-0.594447
-0.589572
-0.113773
-0.117390
-0.106002
-0.466308
-0.474529
-0.462349
-0.471659
-0.236361
-0.245064
-0.253891
-0.125660
-0.256418
-0.263562
-0.525768
-0.522932
0.154295
0.039156
-0.067091
-0.075389
-0.054542
-0.272262
0.090468
0.157678
-0.275845
-0.287095
-0.227502
-0.227504
-0.058456
-0.052507
-0.073605
-0.500113
-0.500020
-0.485484
0.153736
0.242511
0.214350
-0.511225
-0.027807
-0.014133
-0.227769
-0.046365
-0.454140
-0.220080
-0.220581
-0.087554
-0.071463
-0.092619
-0.189022
-0.180087
-0.202350
-0.197122
-0.211856
-0.185038
-0.006536
-0.010079
-0.028621
-0.031548
-0.512323
-0.474966
-0.480186
-0.492708
0.156800
0.101734
0.052199
-0.529779
0.174814
0.165405
-0.227673
-0.236899
-0.032237
-0.034343
-0.051169
-0.056674
-0.246603
-0.120371
-0.116428
-0.251115
-0.263855
0.069481
0.240163
0.259628
0.259302
-0.041316
-0.044097
-0.579351
-0.500458
-0.503441
-0.218470
-0.218639
-0.088445
-0.519747
-0.512081
0.002688
-0.015663
0.013303
-0.219077
-0.082204
-0.079371
-0.211541
-0.212416
-0.553730
-0.542116
-0.532539
-0.462688
-0.485813
-0.483776
-0.574498
-0.553747
-0.161087
-0.153735
-0.151521
-0.218634
-0.228355
-0.518537
-0.511146
0.250672
-0.238995
-0.366708
-0.358794
-0.373960
-0.366555
-0.005541
0.001882
-0.002536
-0.016096
-0.499593
-0.489844
-0.500167
-0.486234
-0.035682
-0.045422
-0.030880
-0.052196
-0.243443
-0.255852
-0.447644
-0.455964
-0.094997
-0.106073
-0.015853
-0.022692
-0.558264
0.355287
0.332885
0.329960
0.311974
-0.257425
-0.264070
-0.272697
0.098855
0.079907
0.086979
0.390359
0.387545
0.364761
-0.464240
-0.476475
-0.474648
-0.209135
-0.209518
-0.005334
0.041275
0.007198
0.087980
0.266371
0.244280
-0.210203
-0.202782
-0.204180
-0.439455
-0.203620
-0.181196
-0.180308
-0.209328
-0.219612
-0.040150
-0.063912
-0.021201
-0.175512
0.115237
0.115882
-0.230840
-0.235153
-0.247416
-0.199737
-0.200141
0.121880
-0.002156
-0.017754
-0.000033
-0.201166
-0.018296
0.138097
0.135491
0.125350
-0.193971
-0.195461
-0.200189
-0.210635
-0.448320
-0.438252
-0.221996
-0.226382
-0.236517
0.248417
0.252377
0.210995
0.225343
-0.552008
-0.561745
-0.547795
-0.190435
-0.190766
-0.412772
-0.406089
-0.410407
0.365839
0.334122
0.305340
0.312680
0.300386
0.297435
0.291540
0.123416
-0.192270
-0.184848
-0.186776
0.141323
0.154513
-0.138090
-0.126387
-0.140346
-0.132774
-0.190994
-0.201824
-0.213870
-0.425501
-0.216658
-0.227785
-0.181249
-0.181236
-0.053920
-0.060172
-0.037783
0.316988
0.302662
0.291922
0.154643
0.151141
-0.097664
-0.086167
-0.371928
-0.380118
-0.477972
-0.477539
-0.489268
-0.182543
-0.173699
-0.177473
-0.078270
-0.481316
-0.482998
-0.493294
0.309577
0.325834
-0.182214
-0.193545
0.152830
0.116274
0.125464
0.111872
-0.204800
-0.207998
0.119009
0.104077
-0.500708
-0.503175
-0.007673
-0.021834
-0.173823
-0.171555
-0.171399
-0.451429
-0.416429
-0.404050
-0.411619
-0.173303
-0.166471
-0.547672
-0.561140
-0.174829
-0.185417
-0.036186
-0.530630
-0.540702
-0.520596
-0.559672
-0.547457
-0.163093
-0.161067
0.222931
-0.030549
-0.131767
-0.236286
-0.077319
-0.066579
-0.079441
-0.163240
-0.156804
0.009624
0.031077
-0.503780
-0.490661
-0.489518
-0.167048
-0.179344
0.014784
0.020628
-0.005847
-0.093972
-0.084571
-0.066715
-0.028542
-0.529455
0.049023
-0.132997
-0.140676
-0.076014
0.045951
-0.463891
-0.477831
-0.144995
-0.161370
-0.170251
-0.167994
-0.362816
-0.353238
-0.325077
-0.088520
-0.108823
-0.154929
-0.152358
-0.221916
-0.151823
-0.147232
-0.156728
-0.170275
-0.339452
-0.363714
-0.540104
0.111563
0.135299
0.138006
0.118905
0.291602
0.298515
0.312589
-0.498253
-0.052931
-0.070842
-0.056122
-0.083364
-0.066162
-0.421250
-0.409083
-0.389275
0.047892
0.051400
0.038211
0.391954
0.397376
0.379778
-0.145007
0.061242
-0.344601
-0.339911
-0.355514
-0.351972
-0.215991
-0.251651
-0.215202
-0.138667
-0.111156
-0.582853
-0.592803
-0.581415
0.193496
0.188824
0.177555
-0.255694
0.143762
0.133627
0.143905
0.132476
0.124175
-0.367201
0.228187
0.223759
0.238120
0.055048
-0.523354
-0.508488
-0.515701
-0.515365
0.214473
-0.004418
0.006671
0.009401
-0.007765
-0.068026
-0.079691
-0.065147
0.302807
-0.087762
-0.259637
-0.275475
-0.271377
-0.288874
-0.549712
-0.535473
-0.267197
-0.258878
-0.246048
-0.320564
-0.120018
-0.437449
-0.449167
-0.435707
-0.446772
-0.430952
-0.420769
-0.423794
-0.433065
-0.325599
-0.341758
-0.304448
-0.361160
-0.116888
-0.104466
-0.126492
0.047715
0.001178
0.292845
0.301320
0.296950
0.299839
0.299625
0.295679
-0.377623
-0.390863
-0.381488
-0.396235
-0.094447
-0.552756
-0.556209
-0.566028
0.186855
0.182570
-0.562552
-0.140932
0.138325
0.133536
0.143370
0.132271
0.147625
-0.176339
-0.215618
0.182232
-0.506665
-0.491571
-0.500002
-0.487829
-0.288129
0.284345
0.284814
-0.136063
0.283437
0.277319
0.258393
0.183416
0.187978
0.190112
0.299173
0.076382
0.086004
0.073753
0.083937
0.202827
-0.204047
-0.220217
-0.218037
-0.243081
-0.234417
-0.021006
-0.035019
-0.043361
-0.056308
-0.316521
-0.311651
-0.293427
-0.346746
-0.348537
-0.120447
-0.135599
-0.233357
-0.202756
-0.195403
-0.232500
-0.143386
-0.149169
-0.154614
-0.342974
-0.346302
-0.332078
-0.358914
-0.098101
-0.071223
0.198477
0.195918
0.193435
-0.153453
-0.166695
-0.173099
-0.215485
-0.152804
0.301806
0.283314
-0.413070
-0.431548
-0.417014
-0.429360
-0.242103
-0.104926
-0.103682
-0.165103
-0.181252
-0.186998
-0.538037
-0.540747
-0.523042
-0.532588
-0.520354
-0.046323
-0.155045
-0.135270
0.338922
0.352961
0.359142
0.335240
0.320267
-0.231872
-0.249321
-0.306197
-0.318864
-0.308486
-0.071766
-0.055555
-0.061291
-0.120109
-0.042388
0.075677
0.068367
0.085211
-0.478266
0.079487
-0.224208
0.055944
0.066189
0.043392
-0.058064
-0.047490
-0.048938
-0.130531
-0.147274
-0.125633
-0.155220
-0.117422
-0.139676
0.131838
0.143680
0.143741
-0.015511
-0.024456
0.009686
0.009199
-0.038637
-0.518018
-0.509127
0.042491
0.000617
-0.026005
-0.014393
-0.355452
-0.364716
-0.368161
-0.378028
0.006627
-0.447768
-0.443423
-0.458362
-0.467712
-0.473314
-0.482550
-0.405175
-0.418746
-0.385724
-0.409712
-0.422831
-0.326991
-0.106605
-0.123309
-0.119515
-0.135953
-0.360664
-0.370564
-0.353472
-0.381169
0.200165
0.190460
-0.448310
0.237868
0.286714
0.258811
0.218443
0.217592
0.167250
-0.457756
-0.447777
-0.462595
-0.522442
-0.515337
-0.527427
0.083487
0.088324
0.074042
-0.356631
-0.373007
0.000498
0.016621
-0.339387
-0.354057
-0.342596
0.236768
0.217730
0.238731
0.211194
-0.340990
-0.356028
-0.343216
-0.354157
0.044714
0.057197
0.069242
0.030190
0.035081
0.023774
-0.331260
0.210681
0.219972
0.217955
0.229934
0.200817
0.204277
-0.129245
-0.119716
-0.118724
-0.133420
-0.119306
-0.369037
-0.372437
-0.359496
-0.367694
-0.384589
-0.378093
0.197900
0.193944
-0.383420
-0.393351
-0.396002
0.391194
0.362675
-0.407071
-0.010803
-0.013629
-0.025977
-0.374781
0.091891
0.102423
0.224337
0.215314
0.186471
0.191921
0.205751
0.310082
0.287272
0.303459
0.318797
-0.438256
-0.424666
-0.222990
-0.213937
-0.207389
-0.232590
-0.194633
-0.201555
-0.189388
-0.495379
-0.498820
-0.503077
0.156214
0.154587
0.143139
-0.074396
-0.107910
-0.479398
-0.450250
-0.048898
-0.400699
-0.395111
-0.408366
-0.397794
-0.386389
-0.383371
-0.378130
-0.541778
-0.538808
-0.548439
-0.531909
-0.544492
-0.537475
-0.568972
-0.565028
-0.578661
-0.569292
-0.333379
-0.329497
-0.029094
-0.336170
-0.318956
-0.539174
-0.550762
-0.407154
-0.392609
-0.422588
-0.408293
-0.516711
-0.518823
-0.498275
-0.477667
-0.491235
-0.423912
-0.395495
0.212030
0.197010
0.206892
0.202016
-0.351581
-0.363939
-0.200220
-0.193918
-0.178674
0.106222
0.114766
0.126189
0.133017
0.094751
0.084174
0.076498
-0.264611
-0.387090
-0.370242
0.226818
0.214393
-0.560922
-0.560688
-0.550676
-0.274716
-0.278257
-0.248032
0.018954
0.021794
-0.298094
-0.218761
-0.182993
-0.441279
-0.435835
-0.426743
-0.421186
0.264710
0.253706
0.239773
0.267420
-0.338916
-0.351116