# vtk DataFile Version 2.0
Test
ASCII
DATASET POLYDATA
POINTS 6577 float
0.000000 0.000000 0.000000
2.000000 0.000000 0.000000
2.000000 4.000000 0.000000
0.000000 4.000000 0.000000
0.000000 0.500000 0.000000
1.500000 2.000000 0.000000
2.000000 2.500000 0.000000
0.040000 0.000000 0.000000
0.080000 0.000000 0.000000
0.120000 0.000000 0.000000
0.160000 0.000000 0.000000
0.200000 0.000000 0.000000
0.240000 0.000000 0.000000
0.280000 0.000000 0.000000
0.320000 0.000000 0.000000
0.360000 0.000000 0.000000
0.400000 0.000000 0.000000
0.440000 0.000000 0.000000
0.480000 0.000000 0.000000
0.520000 0.000000 0.000000
0.560000 0.000000 0.000000
0.600000 0.000000 0.000000
0.640000 0.000000 0.000000
0.680000 0.000000 0.000000
0.720000 0.000000 0.000000
0.760000 0.000000 0.000000
0.800000 0.000000 0.000000
0.840000 0.000000 0.000000
0.880000 0.000000 0.000000
0.920000 0.000000 0.000000
0.960000 0.000000 0.000000
1.000000 0.000000 0.000000
1.040000 0.000000 0.000000
1.080000 0.000000 0.000000
1.120000 0.000000 0.000000
1.160000 0.000000 0.000000
1.200000 0.000000 0.000000
1.240000 0.000000 0.000000
1.280000 0.000000 0.000000
1.320000 0.000000 0.000000
1.360000 0.000000 0.000000
1.400000 0.000000 0.000000
1.440000 0.000000 0.000000
1.480000 0.000000 0.000000
1.520000 0.000000 0.000000
1.560000 0.000000 0.000000
1.600000 0.000000 0.000000
1.640000 0.000000 0.000000
1.680000 0.000000 0.000000
1.720000 0.000000 0.000000
1.760000 0.000000 0.000000
1.800000 0.000000 0.000000
1.840000 0.000000 0.000000
1.880000 0.000000 0.000000
1.920000 0.000000 0.000000
1.960000 0.000000 0.000000
2.000000 0.039683 0.000000
2.000000 0.079365 0.000000
2.000000 0.119048 0.000000
2.000000 0.158730 0.000000
2.000000 0.198413 0.000000
2.000000 0.238095 0.000000
2.000000 0.277778 0.000000
2.000000 0.317460 0.000000
2.000000 0.357143 0.000000
2.000000 0.396825 0.000000
2.000000 0.436508 0.000000
2.000000 0.476190 0.000000
2.000000 0.515873 0.000000
2.000000 0.555556 0.000000
2.000000 0.595238 0.000000
2.000000 0.634921 0.000000
2.000000 0.674603 0.000000
2.000000 0.714286 0.000000
2.000000 0.753968 0.000000
2.000000 0.793651 0.000000
2.000000 0.833333 0.000000
2.000000 0.873016 0.000000
2.000000 0.912698 0.000000
2.000000 0.952381 0.000000
2.000000 0.992063 0.000000
2.000000 1.031746 0.000000
2.000000 1.071429 0.000000
2.000000 1.111111 0.000000
2.000000 1.150794 0.000000
2.000000 1.190476 0.000000
2.000000 1.230159 0.000000
2.000000 1.269841 0.000000
2.000000 1.309524 0.000000
2.000000 1.349206 0.000000
2.000000 1.388889 0.000000
2.000000 1.428571 0.000000
2.000000 1.468254 0.000000
2.000000 1.507937 0.000000
2.000000 1.547619 0.000000
2.000000 1.587302 0.000000
2.000000 1.626984 0.000000
2.000000 1.666667 0.000000
2.000000 1.706349 0.000000
2.000000 1.746032 0.000000
2.000000 1.785714 0.000000
2.000000 1.825397 0.000000
2.000000 1.865079 0.000000
2.000000 1.904762 0.000000
2.000000 1.944444 0.000000
2.000000 1.984127 0.000000
2.000000 2.023810 0.000000
2.000000 2.063492 0.000000
2.000000 2.103175 0.000000
2.000000 2.142857 0.000000
2.000000 2.182540 0.000000
2.000000 2.222222 0.000000
2.000000 2.261905 0.000000
2.000000 2.301587 0.000000
2.000000 2.341270 0.000000
2.000000 2.380952 0.000000
2.000000 2.420635 0.000000
2.000000 2.460317 0.000000
2.000000 2.539474 0.000000
2.000000 2.578947 0.000000
2.000000 2.618421 0.000000
2.000000 2.657895 0.000000
2.000000 2.697368 0.000000
2.000000 2.736842 0.000000
2.000000 2.776316 0.000000
2.000000 2.815789 0.000000
2.000000 2.855263 0.000000
2.000000 2.894737 0.000000
2.000000 2.934211 0.000000
2.000000 2.973684 0.000000
2.000000 3.013158 0.000000
2.000000 3.052632 0.000000
2.000000 3.092105 0.000000
2.000000 3.131579 0.000000
2.000000 3.171053 0.000000
2.000000 3.210526 0.000000
2.000000 3.250000 0.000000
2.000000 3.289474 0.000000
2.000000 3.328947 0.000000
2.000000 3.368421 0.000000
2.000000 3.407895 0.000000
2.000000 3.447368 0.000000
2.000000 3.486842 0.000000
2.000000 3.526316 0.000000
2.000000 3.565789 0.000000
2.000000 3.605263 0.000000
2.000000 3.644737 0.000000
2.000000 3.684211 0.000000
2.000000 3.723684 0.000000
2.000000 3.763158 0.000000
2.000000 3.802632 0.000000
2.000000 3.842105 0.000000
2.000000 3.881579 0.000000
2.000000 3.921053 0.000000
2.000000 3.960526 0.000000
1.960000 4.000000 0.000000
1.920000 4.000000 0.000000
1.880000 4.000000 0.000000
1.840000 4.000000 0.000000
1.800000 4.000000 0.000000
1.760000 4.000000 0.000000
1.720000 4.000000 0.000000
1.680000 4.000000 0.000000
1.640000 4.000000 0.000000
1.600000 4.000000 0.000000
1.560000 4.000000 0.000000
1.520000 4.000000 0.000000
1.480000 4.000000 0.000000
1.440000 4.000000 0.000000
1.400000 4.000000 0.000000
1.360000 4.000000 0.000000
1.320000 4.000000 0.000000
1.280000 4.000000 0.000000
1.240000 4.000000 0.000000
1.200000 4.000000 0.000000
1.160000 4.000000 0.000000
1.120000 4.000000 0.000000
1.080000 4.000000 0.000000
1.040000 4.000000 0.000000
1.000000 4.000000 0.000000
0.960000 4.000000 0.000000
0.920000 4.000000 0.000000
0.880000 4.000000 0.000000
0.840000 4.000000 0.000000
0.800000 4.000000 0.000000
0.760000 4.000000 0.000000
0.720000 4.000000 0.000000
0.680000 4.000000 0.000000
0.640000 4.000000 0.000000
0.600000 4.000000 0.000000
0.560000 4.000000 0.000000
0.520000 4.000000 0.000000
0.480000 4.000000 0.000000
0.440000 4.000000 0.000000
0.400000 4.000000 0.000000
0.360000 4.000000 0.000000
0.320000 4.000000 0.000000
0.280000 4.000000 0.000000
0.240000 4.000000 0.000000
0.200000 4.000000 0.000000
0.160000 4.000000 0.000000
0.120000 4.000000 0.000000
0.080000 4.000000 0.000000
0.040000 4.000000 0.000000
0.000000 3.960227 0.000000
0.000000 3.920455 0.000000
0.000000 3.880682 0.000000
0.000000 3.840909 0.000000
0.000000 3.801136 0.000000
0.000000 3.761364 0.000000
0.000000 3.721591 0.000000
0.000000 3.681818 0.000000
0.000000 3.642045 0.000000
0.000000 3.602273 0.000000
0.000000 3.562500 0.000000
0.000000 3.522727 0.000000
0.000000 3.482955 0.000000
0.000000 3.443182 0.000000
0.000000 3.403409 0.000000
0.000000 3.363636 0.000000
0.000000 3.323864 0.000000
0.000000 3.284091 0.000000
0.000000 3.244318 0.000000
0.000000 3.204545 0.000000
0.000000 3.164773 0.000000
0.000000 3.125000 0.000000
0.000000 3.085227 0.000000
0.000000 3.045455 0.000000
0.000000 3.005682 0.000000
0.000000 2.965909 0.000000
0.000000 2.926136 0.000000
0.000000 2.886364 0.000000
0.000000 2.846591 0.000000
0.000000 2.806818 0.000000
0.000000 2.767045 0.000000
0.000000 2.727273 0.000000
0.000000 2.687500 0.000000
0.000000 2.647727 0.000000
0.000000 2.607955 0.000000
0.000000 2.568182 0.000000
0.000000 2.528409 0.000000
0.000000 2.488636 0.000000
0.000000 2.448864 0.000000
0.000000 2.409091 0.000000
0.000000 2.369318 0.000000
0.000000 2.329545 0.000000
0.000000 2.289773 0.000000
0.000000 2.250000 0.000000
0.000000 2.210227 0.000000
0.000000 2.170455 0.000000
0.000000 2.130682 0.000000
0.000000 2.090909 0.000000
0.000000 2.051136 0.000000
0.000000 2.011364 0.000000
0.000000 1.971591 0.000000
0.000000 1.931818 0.000000
0.000000 1.892045 0.000000
0.000000 1.852273 0.000000
0.000000 1.812500 0.000000
0.000000 1.772727 0.000000
0.000000 1.732955 0.000000
0.000000 1.693182 0.000000
0.000000 1.653409 0.000000
0.000000 1.613636 0.000000
0.000000 1.573864 0.000000
0.000000 1.534091 0.000000
0.000000 1.494318 0.000000
0.000000 1.454545 0.000000
0.000000 1.414773 0.000000
0.000000 1.375000 0.000000
0.000000 1.335227 0.000000
0.000000 1.295455 0.000000
0.000000 1.255682 0.000000
0.000000 1.215909 0.000000
0.000000 1.176136 0.000000
0.000000 1.136364 0.000000
0.000000 1.096591 0.000000
0.000000 1.056818 0.000000
0.000000 1.017045 0.000000
0.000000 0.977273 0.000000
0.000000 0.937500 0.000000
0.000000 0.897727 0.000000
0.000000 0.857955 0.000000
0.000000 0.818182 0.000000
0.000000 0.778409 0.000000
0.000000 0.738636 0.000000
0.000000 0.698864 0.000000
0.000000 0.659091 0.000000
0.000000 0.619318 0.000000
0.000000 0.579545 0.000000
0.000000 0.539773 0.000000
0.000000 0.461538 0.000000
0.000000 0.423077 0.000000
0.000000 0.384615 0.000000
0.000000 0.346154 0.000000
0.000000 0.307692 0.000000
0.000000 0.269231 0.000000
0.000000 0.230769 0.000000
0.000000 0.192308 0.000000
0.000000 0.153846 0.000000
0.000000 0.115385 0.000000
0.000000 0.076923 0.000000
0.000000 0.038462 0.000000
0.027778 0.527778 0.000000
0.055556 0.555556 0.000000
0.083333 0.583333 0.000000
0.111111 0.611111 0.000000
0.138889 0.638889 0.000000
0.166667 0.666667 0.000000
0.194444 0.694444 0.000000
0.222222 0.722222 0.000000
0.250000 0.750000 0.000000
0.277778 0.777778 0.000000
0.305556 0.805556 0.000000
0.333333 0.833333 0.000000
0.361111 0.861111 0.000000
0.388889 0.888889 0.000000
0.416667 0.916667 0.000000
0.444444 0.944444 0.000000
0.472222 0.972222 0.000000
0.500000 1.000000 0.000000
0.527778 1.027778 0.000000
0.555556 1.055556 0.000000
0.583333 1.083333 0.000000
0.611111 1.111111 0.000000
0.638889 1.138889 0.000000
0.666667 1.166667 0.000000
0.694444 1.194444 0.000000
0.722222 1.222222 0.000000
0.750000 1.250000 0.000000
0.777778 1.277778 0.000000
0.805556 1.305556 0.000000
0.833333 1.333333 0.000000
0.861111 1.361111 0.000000
0.888889 1.388889 0.000000
0.916667 1.416667 0.000000
0.944444 1.444444 0.000000
0.972222 1.472222 0.000000
1.000000 1.500000 0.000000
1.027778 1.527778 0.000000
1.055556 1.555556 0.000000
1.083333 1.583333 0.000000
1.111111 1.611111 0.000000
1.138889 1.638889 0.000000
1.166667 1.666667 0.000000
1.194444 1.694444 0.000000
1.222222 1.722222 0.000000
1.250000 1.750000 0.000000
1.277778 1.777778 0.000000
1.305556 1.805556 0.000000
1.333333 1.833333 0.000000
1.361111 1.861111 0.000000
1.388889 1.888889 0.000000
1.416667 1.916667 0.000000
1.444444 1.944444 0.000000
1.472222 1.972222 0.000000
1.527778 2.027778 0.000000
1.555556 2.055556 0.000000
1.583333 2.083333 0.000000
1.611111 2.111111 0.000000
1.638889 2.138889 0.000000
1.666667 2.166667 0.000000
1.694444 2.194444 0.000000
1.722222 2.222222 0.000000
1.750000 2.250000 0.000000
1.777778 2.277778 0.000000
1.805556 2.305556 0.000000
[...]
POINT_DATA 6577
SCALARS UX float 1
LOOKUP_TABLE default
-0.000019
0.000081
-0.009734
-0.250774
-0.127903
-0.028169
0.015180
-0.000000
-0.000002
-0.000002
0.000002
0.000003
-0.000012
0.000001
0.000002
0.000002
0.000004
0.000002
-0.000000
0.000001
0.000001
-0.000001
0.000001
0.000001
0.000001
0.000001
-0.000000
-0.000001
0.000001
-0.000000
0.000001
0.000001
0.000000
-0.000000
0.000000
0.000000
-0.000001
0.000000
0.000001
-0.000002
0.000001
0.000001
-0.000002
0.000002
0.000001
-0.000000
-0.000002
-0.000000
-0.000000
-0.000005
0.000006
-0.000006
0.000006
0.000006
-0.000032
0.000023
0.025313
0.035264
0.047411
0.054862
0.061707
0.070393
0.074935
0.080790
0.086683
0.091134
0.095778
0.098384
0.102661
0.105837
0.108065
0.110585
0.113877
0.114997
0.119079
0.120728
0.120881
0.122934
0.123756
0.126671
0.126279
0.127860
0.129355
0.128965
0.129867
0.130706
0.130773
0.130587
0.129153
0.128875
0.127057
0.127715
0.125476
0.126227
0.123765
0.123257
0.120064
0.118073
0.116170
0.112690
0.108806
0.105104
0.099684
0.093625
0.088493
0.084940
0.078003
0.069600
0.063287
0.057002
0.051996
0.043224
0.040176
0.034486
0.033384
0.024446
0.020794
0.015349
0.013374
0.010028
0.007108
0.004508
0.003829
0.001514
-0.000425
-0.000454
-0.000782
-0.002020
-0.000411
-0.002851
-0.004012
-0.003831
-0.004963
-0.005531
-0.006818
-0.007123
-0.006740
-0.009191
-0.008408
-0.008596
-0.011108
-0.010423
-0.009211
-0.009747
-0.011036
-0.010653
-0.009777
-0.010556
-0.009424
-0.009116
-0.009948
-0.009192
-0.009463
-0.009609
-0.009639
-0.015385
-0.019926
-0.025335
-0.029749
-0.035163
-0.040177
-0.045343
-0.051376
-0.055972
-0.061214
-0.066046
-0.072280
-0.076602
-0.081698
-0.086666
-0.090935
-0.095775
-0.100995
-0.106020
-0.111443
-0.116195
-0.120432
-0.125530
-0.130315
-0.135581
-0.140993
-0.145468
-0.150444
-0.154781
-0.159844
-0.164331
-0.168980
-0.173849
-0.177740
-0.182918
-0.188246
-0.192393
-0.197174
-0.201694
-0.206410
-0.210986
-0.214987
-0.220092
-0.224238
-0.229013
-0.233442
-0.237903
-0.242268
-0.245952
-0.250673
-0.250331
-0.251229
-0.251980
-0.251066
-0.249241
-0.248952
-0.247551
-0.247600
-0.247986
-0.248820
-0.247454
-0.247391
-0.248930
-0.247588
-0.247155
-0.246575
-0.244843
-0.245529
-0.245595
-0.245213
-0.243610
-0.242949
-0.242464
-0.241956
-0.240294
-0.240852
-0.240060
-0.240401
-0.238878
-0.236881
-0.236674
-0.237527
-0.237603
-0.235890
-0.234293
-0.234703
-0.234394
-0.234808
-0.234990
-0.234110
-0.233290
-0.233008
-0.232180
-0.232977
-0.233380
-0.231598
-0.231961
-0.232431
-0.234056
-0.231180
-0.234307
-0.234158
-0.233628
-0.235053
-0.234472
-0.235382
-0.235799
-0.236256
-0.237286
-0.237489
-0.239471
-0.239494
-0.240496
-0.243675
-0.245069
-0.245561
-0.245657
-0.247028
-0.247202
-0.248464
-0.248503
-0.250087
-0.250491
-0.248986
-0.248826
-0.247239
-0.244581
-0.240026
-0.233928
-0.229797
-0.224175
-0.220427
-0.216171
-0.195218
-0.171531
-0.139902
-0.082515
-0.084215
-0.077562
-0.074075
-0.071126
-0.066770
-0.061564
-0.056645
-0.049927
-0.039628
-0.030881
-0.022664
-0.116184
-0.119272
-0.119356
-0.134069
-0.122674
-0.076630
-0.130669
-0.100573
-0.110869
-0.110741
-0.111497
-0.117007
-0.107294
-0.104370
-0.075747
-0.096404
-0.084391
-0.093594
-0.091835
-0.096116
-0.124952
-0.105733
-0.095205
-0.113217
-0.107632
-0.112607
-0.065895
-0.078524
-0.080042
-0.092640
-0.066715
-0.084306
-0.067966
-0.060688
-0.111097
-0.075184
-0.073098
-0.060661
-0.065463
-0.057515
-0.069983
-0.051969
-0.028887
-0.044394
-0.051167
-0.039360
-0.032951
-0.031067
-0.041600
-0.041348
-0.018725
-0.029722
-0.027483
-0.017051
-0.010280
-0.009927
-0.006857
-0.003660
-0.003842
-0.003855
-0.003384
-0.001305
-0.001552
0.000413
0.000361
0.003500
0.005482
0.008117
0.010166
0.008622
0.004307
0.004147
-0.249593
-0.247651
-0.014267
-0.012529
0.003720
0.006100
-0.000513
-0.000709
-0.002758
-0.056885
-0.060586
-0.061690
-0.098339
-0.095506
-0.093118
-0.063805
-0.188424
-0.184491
-0.184573
-0.069905
-0.065538
-0.065426
-0.228060
-0.229276
-0.224738
-0.231107
-0.235821
-0.234937
-0.068905
-0.037313
-0.032857
-0.034310
-0.069925
-0.073871
-0.068891
-0.229661
-0.228475
-0.224912
-0.188567
-0.084841
-0.084895
-0.089502
-0.090597
-0.094978
-0.096077
-0.074499
-0.071835
-0.077057
-0.075681
-0.188741
-0.192989
-0.191253
-0.193074
-0.186223
-0.191580
-0.188817
-0.192551
-0.080344
-0.075059
-0.078870
-0.091971
-0.128178
-0.127996
-0.125541
-0.004748
-0.001600
-0.121261
-0.207382
-0.207961
-0.203849
-0.212412
-0.194905
-0.194487
-0.189380
-0.129636
-0.133758
-0.132832
-0.130389
-0.053255
-0.051411
-0.046190
-0.046921
-0.179434
-0.184028
-0.185885
-0.179973
-0.099552
-0.095584
-0.098594
-0.185543
-0.179229
-0.180468
-0.004736
0.000592
-0.007220
-0.004479
-0.004322
-0.002360
-0.008481
-0.196559
-0.201173
-0.201030
-0.065653
-0.069814
-0.068827
-0.073586
-0.096751
-0.231304
-0.234797
-0.232326
-0.151960
-0.147748
-0.147890
-0.154534
-0.203181
-0.207026
-0.202912
-0.206415
-0.191768
-0.189852
-0.193493
-0.133109
-0.133498
-0.137936
-0.038892
-0.043075
-0.042783
-0.038292
-0.029393
-0.026774
-0.004054
-0.141397
-0.138881
-0.142619
-0.144337
-0.146927
-0.147819
-0.184257
-0.177630
-0.190769
-0.192101
-0.186952
-0.214939
-0.214906
-0.212410
-0.194866
-0.130353
-0.135287
-0.128669
-0.222219
-0.221227
-0.225220
-0.188202
-0.158565
-0.155977
-0.160202
-0.133464
-0.129305
-0.133010
-0.192141
-0.196898
-0.207458
-0.031209
-0.025910
-0.031611
-0.024195
-0.079023
-0.080981
-0.083994
-0.086058
-0.001522
0.001784
-0.119801
-0.118176
-0.121853
-0.116256
-0.229965
-0.233801
-0.232509
-0.143556
-0.139888
-0.144114
-0.146516
-0.150780
-0.146420
-0.142300
-0.237076
-0.182041
-0.176325
-0.178881
-0.178772
-0.181723
-0.183267
-0.187526
-0.178869
-0.233718
-0.231836
-0.153992
-0.151671
-0.157077
-0.228029
-0.228495
-0.117751
-0.117058
-0.120758
-0.217509
-0.220686
-0.215908
-0.227976
-0.225562
-0.222828
-0.207328
-0.211748
-0.208360
-0.220015
-0.201747
-0.205530
-0.203163
-0.112580
-0.114350
-0.077734
-0.113895
-0.229932
-0.234237
-0.231916
-0.237769
-0.245154
-0.243892
-0.017674
-0.017818
-0.065963
-0.065680
-0.060177
-0.069940
-0.168305
-0.168432
-0.164582
-0.197128
-0.201105
-0.199623
-0.163701
-0.071770
-0.069414
-0.073660
-0.203544
-0.203346
-0.241273
-0.239611
-0.238178
-0.125152
-0.120894
-0.018504
-0.017982
-0.011681
-0.011921
-0.207577
-0.212012
-0.211216
-0.216062
-0.232878
-0.229238
-0.232956
-0.226627
-0.213015
-0.217955
-0.211731
-0.225267
-0.223276
-0.241766
-0.244214
-0.245033
-0.213726
-0.216452
-0.223555
-0.228005
-0.223092
-0.204131
-0.202159
-0.027545
-0.022786
-0.208607
-0.214175
-0.212759
-0.235920
-0.193878
-0.198575
-0.194561
-0.218240
-0.215060
-0.047469
-0.050038
-0.052885
-0.044379
-0.064925
-0.060572
-0.061945
-0.138820
-0.139813
-0.143731
-0.117750
-0.117040
-0.041662
-0.040281
-0.039872
-0.135995
-0.123170
-0.125873
-0.127584
-0.233326
-0.238313
-0.233952
-0.204124
-0.205034
-0.200988
-0.056342
-0.211485
-0.214807
-0.210849
-0.197232
-0.196063
-0.203046
-0.201872
-0.212311
-0.052617
-0.201312
-0.146473
-0.190241
-0.193910
-0.191985
-0.193101
-0.192011
-0.228297
-0.229309
-0.221203
-0.233596
-0.200151
-0.197136
-0.202334
-0.022058
-0.019904
-0.197583
-0.199252
-0.197835
-0.192997
-0.193920
-0.186214
-0.248626
-0.231067
-0.227535
-0.229252
-0.223646
-0.225252
-0.012622
-0.177144
-0.173073
-0.244149
-0.242228
-0.187910
-0.188288
-0.019520
-0.017944
-0.130328
-0.123880
-0.209916
-0.082365
-0.080016
-0.078973
-0.075716
-0.225058
-0.220343
-0.188386
-0.192918
-0.188509
-0.215820
-0.214929
-0.218681
-0.207514
-0.233218
-0.192475
-0.032000
-0.159958
-0.164422
-0.161549
-0.231949
-0.231206
-0.225676
-0.238435
-0.240450
-0.241780
-0.235775
-0.238902
-0.167151
-0.163962
-0.029003
-0.023951
-0.026141
-0.195367
-0.181465
-0.116166
-0.111809
-0.237039
-0.238414
-0.234088
-0.175193
-0.172141
-0.204999
-0.221561
-0.223690
-0.183153
-0.174657
-0.201408
-0.203972
-0.046249
-0.046111
-0.042661
-0.211251
-0.216147
-0.232165
-0.231103
-0.221241
-0.235285
-0.171487
-0.126849
-0.124716
-0.225651
-0.247231
-0.233974
-0.228052
-0.240705
-0.239862
-0.239482
-0.086866
-0.085233
-0.080276
-0.194069
-0.014329
-0.020152
-0.015480
-0.023133
-0.221499
-0.219968
-0.224913
-0.210808
-0.197665
-0.195812
-0.183955
-0.185732
-0.187529
-0.188922
-0.189293
-0.237118
-0.203445
-0.201808
-0.198642
-0.035977
-0.207126
-0.207794
-0.210990
-0.228347
-0.081370
-0.032075
-0.031073
-0.025947
-0.233396
-0.229801
-0.243320
-0.231756
-0.232640
-0.235608
-0.217315
-0.220373
-0.225313
-0.198602
-0.239077
-0.049270
-0.051159
-0.177950
-0.184364
-0.080910
-0.014845
-0.009389
-0.010664
-0.244452
-0.243982
-0.238319
-0.236063
-0.018113
-0.014383
-0.053586
-0.050566
-0.052935
-0.056803
-0.213051
-0.211951
-0.208313
-0.184304
-0.022536
-0.025202
-0.234312
-0.229077
-0.244163
-0.214093
-0.219695
-0.225636
-0.215448
-0.182830
-0.036199
-0.039176
-0.056527
-0.228548
-0.223725
-0.098123
-0.094746
-0.099005
-0.239426
-0.035572
-0.029783
-0.228085
-0.231574
-0.229001
-0.243661
-0.207864
-0.226720
0.002959
-0.001287
-0.217938
-0.102796
-0.051241
-0.056699
-0.052201
-0.214183
-0.218323
-0.223349
-0.209934
-0.048920
-0.044173
-0.046236
-0.240648
-0.096021
-0.056085
-0.236015
-0.233553
-0.241651
-0.020256
-0.016514
-0.118477
-0.114762
-0.114524
-0.024180
-0.028947
-0.238564
-0.119058
-0.117624
-0.024552
-0.019768
-0.025363
-0.213419
-0.216684
-0.213495
-0.218956
-0.049687
-0.166446
-0.005328
-0.000409
-0.046830
-0.199078
-0.202145
-0.241615
-0.212313
-0.208322
-0.212823
-0.216462
-0.221868
-0.207445
-0.040221
-0.014847
-0.087319
-0.083963
-0.083915
-0.224353
-0.086005
-0.163929
-0.162849
-0.169002
-0.039772
-0.033832
-0.043202
-0.224741
-0.228442
-0.220583
-0.230619
-0.237103
-0.235227
-0.076765
-0.074197
-0.071220
-0.079709
-0.041067
-0.224996
-0.219050
-0.212639
-0.223991
-0.035887
-0.211841
-0.214130
-0.209570
-0.214187
-0.218577
-0.210623
-0.209368
-0.191362
-0.010463
-0.025086
-0.026501
-0.022058
-0.119167
-0.123547
-0.119255
-0.121201
-0.010486
-0.035884
-0.037106
-0.236429
-0.217766
-0.105622
-0.105254
-0.101062
-0.233556
-0.231184
-0.240234
-0.023262
-0.194299
-0.193779
-0.027280
-0.030155
-0.017264
-0.103431
-0.107624
-0.100290
-0.100972
-0.105759
-0.186872
-0.185259
-0.185309
-0.100721
-0.178241
-0.044622
-0.180666
-0.179748
-0.205034
-0.219204
-0.054247
-0.226034
-0.077022
-0.073231
-0.077757
-0.043237
-0.072741
-0.049066
-0.220473
-0.081060
-0.076375
-0.216546
-0.079357
-0.137325
-0.135557
-0.138713
-0.201124
-0.010685
-0.215683
-0.143493
-0.137483
-0.140382
-0.133144
-0.118275
-0.116977
-0.120168
-0.095140
-0.089355
-0.195782
-0.201451
-0.238076
-0.235780
-0.232521
-0.118570
-0.228407
-0.228967
-0.206409
-0.210888
-0.097907
-0.093503
-0.229315
-0.234283
-0.217987
-0.221433
-0.229971
-0.234457
-0.227936
-0.022628
-0.026624
-0.021754
-0.027506
-0.187904
-0.006939
-0.006934
-0.012171
-0.191269
-0.190727
-0.182957
-0.181393
-0.012311
-0.104190
-0.099873
-0.103480
-0.181398
-0.168425
-0.173308
-0.047051
-0.239181
-0.235559
-0.234328
-0.177679
-0.176789
-0.172787
-0.230924
-0.136711
-0.136578
-0.132365
-0.224295
-0.227951
-0.202236
-0.177057
-0.104697
-0.110139
-0.066858
-0.070261
-0.067939
-0.111801
-0.187623
-0.187775
-0.191570
-0.183721
-0.033269
-0.027852
-0.015173
-0.009696
-0.117265
-0.122154
-0.122246
-0.033926
-0.038403
-0.032891
-0.126961
-0.099315
-0.089597
-0.093639
-0.089375
-0.215605
-0.220326
-0.221315
-0.193500
-0.197405
-0.085106
-0.081516
-0.085616
-0.198156
-0.194257
-0.197549
-0.225957
-0.213797
-0.204246
-0.208690
-0.216156
-0.220194
-0.224175
-0.138956
-0.134009
-0.137691
-0.188942
-0.186585
-0.185420
-0.218920
-0.220934
-0.221985
-0.240309
-0.242654
-0.245268
-0.237541
-0.180517
-0.178812
-0.191775
-0.197470
-0.217283
-0.216087
-0.213062
-0.178238
-0.243809
-0.222281
-0.225576
-0.220016
-0.174750
-0.013496
-0.173895
-0.198991
-0.189887
-0.195123
-0.042494
-0.041353
-0.044754
-0.213247
-0.219479
-0.200758
-0.206447
-0.210824
-0.232886
-0.214974
-0.216123
-0.217996
-0.213774
-0.214073
-0.220723
-0.014330
-0.016885
-0.019427
-0.022994
-0.186232
-0.183434
-0.182503
-0.178087
-0.177567
-0.228557
-0.226234
-0.142829
-0.137583
-0.138844
-0.139586
-0.095446
-0.090589
-0.093313
-0.048291
-0.174811
-0.171537
-0.170705
-0.197147
-0.188150
-0.191780
-0.215842
-0.104335
-0.109019
-0.104649
-0.092490
-0.200042
-0.204934
-0.208608
-0.210686
-0.216445
-0.224363
-0.184522
-0.181682
-0.081020
-0.077218
-0.080821
-0.076740
-0.179891
-0.220917
-0.218141
-0.045648
-0.041887
-0.047181
-0.097538
-0.026750
-0.032052
-0.027955
-0.022737
-0.204425
-0.206430
-0.175231
-0.173955
-0.024044
-0.019180
-0.022881
-0.205677
-0.210286
-0.206378
-0.238493
-0.236445
-0.080483
-0.082052
-0.079144
-0.189328
-0.191593
-0.187638
-0.191987
-0.186409
-0.190071
-0.194135
-0.084080
-0.197114
-0.200381
-0.211402
-0.210857
-0.077394
-0.114771
-0.068581
-0.071025
-0.063561
-0.205763
-0.076918
-0.074289
-0.208830
-0.214626
-0.181184
-0.179789
-0.063760
-0.062406
-0.069203
-0.202203
-0.200910
-0.196780
-0.077402
-0.030205
-0.027420
-0.206264
-0.057692
-0.052303
-0.177705
-0.060076
-0.185262
-0.172713
-0.170211
-0.154454
-0.150039
-0.156332
-0.099633
-0.097971
-0.107871
-0.104471
-0.107610
-0.102437
-0.127143
-0.126332
-0.130597
-0.130187
-0.204965
-0.193136
-0.195414
-0.199337
-0.038019
-0.040428
-0.045814
-0.214712
-0.065952
-0.069447
-0.183327
-0.188294
-0.131888
-0.132903
-0.136846
-0.136089
-0.192491
-0.081379
-0.080887
-0.196027
-0.202033
-0.107981
-0.049879
-0.046880
-0.046116
-0.060473
-0.060364
-0.233212
-0.202250
-0.203051
-0.178419
-0.175982
-0.074545
-0.210249
-0.206383
-0.050876
-0.055201
-0.051191
-0.174524
-0.073795
-0.072476
-0.169876
-0.166898
-0.222723
-0.219085
-0.215532
-0.189530
-0.195958
-0.195092
-0.233910
-0.226777
-0.138426
-0.132529
-0.134984
-0.180786
-0.184993
-0.210376
-0.208030
-0.048449
-0.191090
-0.159281
-0.156878
-0.161911
-0.158793
-0.055884
-0.125475
-0.127494
-0.131058
-0.202911
-0.199548
-0.202686
-0.198601
-0.060524
-0.064313
-0.060096
-0.064136
-0.194394
-0.199489
-0.183138
-0.186586
-0.075030
-0.078174
-0.130333
-0.132494
-0.225135
-0.020631
-0.024464
-0.024799
-0.030548
-0.124550
-0.125215
-0.128989
-0.089026
-0.092276
-0.086934
-0.013435
-0.014589
-0.017602
-0.190681
-0.193460
-0.192930
-0.175680
-0.173651
-0.069475
-0.064852
-0.066649
-0.095170
-0.013942
-0.018365
-0.171992
-0.166468
-0.163964
-0.181170
-0.178762
-0.176988
-0.173692
-0.176807
-0.183100
-0.073024
-0.076585
-0.073597
-0.099375
-0.092297
-0.091199
-0.188989
-0.192394
-0.198225
-0.171516
-0.169786
-0.089732
-0.127070
-0.131438
-0.126287
-0.168122
-0.132172
-0.071433
-0.076902
-0.075343
-0.162457
-0.161183
-0.175010
-0.180820
-0.184791
-0.181665
-0.185490
-0.189632
-0.194298
-0.015620
-0.022540
-0.028974
-0.023748
-0.226396
-0.227648
-0.222349
-0.169383
-0.167662
-0.172002
-0.170349
-0.173201
-0.017849
-0.023821
-0.022312
-0.018648
-0.026078
-0.029089
-0.032882
-0.081171
-0.165535
-0.159636
-0.157839
-0.068888
-0.064647
-0.093135
-0.089774
-0.094834
-0.091602
-0.173047
-0.177916
-0.184461
-0.176329
-0.187569
-0.192145
-0.167506
-0.164246
-0.069065
-0.069027
-0.064569
-0.028842
-0.029679
-0.033747
-0.074626
-0.076539
-0.132196
-0.129481
-0.158934
-0.161868
-0.196258
-0.196902
-0.201210
-0.162565
-0.156440
-0.154246
-0.130385
-0.205131
-0.205525
-0.208305
-0.024977
-0.019321
-0.171067
-0.176010
-0.071994
-0.088167
-0.087257
-0.092270
-0.180820
-0.185249
-0.089765
-0.095287
-0.204273
-0.205684
-0.059363
-0.059026
-0.101103
-0.165316
-0.162173
-0.186296
-0.173351
-0.170256
-0.173310
-0.159934
-0.155313
-0.217054
-0.221002
-0.169708
-0.173490
-0.057019
-0.214622
-0.218625
-0.207955
-0.220809
-0.217249
-0.164556
-0.159081
-0.033571
-0.121321
-0.132035
-0.201710
-0.123359
-0.122214
-0.125310
-0.157400
-0.153036
-0.123287
-0.117968
-0.207099
-0.202319
-0.201052
-0.167641
-0.172790
-0.122868
-0.055699
-0.059714
-0.143949
-0.145313
-0.141414
-0.062533
-0.227783
-0.112826
-0.135951
-0.140602
-0.140290
-0.113577
-0.194211
-0.198261
-0.139490
-0.131352
-0.143502
-0.136604
-0.187863
-0.188645
-0.183408
-0.139264
-0.143602
-0.163410
-0.160054
-0.196297
-0.154563
-0.148386
-0.166189
-0.171810
-0.181911
-0.184806
-0.218030
-0.044758
-0.033645
-0.045282
-0.052627
-0.034160
-0.030566
-0.028468
-0.210371
-0.132045
-0.133893
-0.128641
-0.134813
-0.130068
-0.203202
-0.203505
-0.197725
-0.114081
-0.113776
-0.117650
-0.011756
-0.010705
-0.013281
-0.163275
-0.110742
-0.152211
-0.150115
-0.155089
-0.153865
-0.145706
-0.148064
-0.145600
-0.143002
-0.082825
-0.237823
-0.241374
-0.237151
-0.065359
-0.065689
-0.069363
-0.150809
-0.081490
-0.086667
-0.081609
-0.086221
-0.090400
-0.159429
-0.040518
-0.035089
-0.035142
-0.112077
-0.221989
-0.217334
-0.219895
-0.220229
-0.041116
-0.130318
-0.126891
-0.126171
-0.131699
-0.075782
-0.078504
-0.074743
-0.016299
-0.080467
-0.203830
-0.207002
-0.206479
-0.210469
-0.232786
-0.229460
-0.214388
-0.211575
-0.207267
-0.227873
-0.097644
-0.187122
-0.190251
-0.186439
-0.189468
-0.181377
-0.178557
-0.178304
-0.182100
-0.185853
-0.190387
-0.186314
-0.190991
-0.157465
-0.154986
-0.158217
-0.078337
-0.078907
-0.033388
-0.027117
-0.029112
-0.030360
-0.025621
-0.030706
-0.162513
-0.165615
-0.163148
-0.167704
-0.153115
-0.232014
-0.232375
-0.236456
-0.062192
-0.065495
-0.236826
-0.132837
-0.082150
-0.084782
-0.080452
-0.084647
-0.079177
-0.144328
-0.149294
-0.061636
-0.208087
-0.202905
-0.205095
-0.201592
-0.221218
-0.019713
-0.021491
-0.116271
-0.037701
-0.038460
-0.041945
-0.050581
-0.045771
-0.047852
-0.034076
-0.105252
-0.102491
-0.106280
-0.103607
-0.062020
-0.114002
-0.117920
-0.117378
-0.200402
-0.196121
-0.133633
-0.136080
-0.140255
-0.140954
-0.200320
-0.202269
-0.197714
-0.202765
-0.204976
-0.089178
-0.092719
-0.163924
-0.161517
-0.159224
-0.165688
-0.168435
-0.170619
-0.171362
-0.162426
-0.163217
-0.160068
-0.166851
-0.149765
-0.145675
-0.043356
-0.048629
-0.041172
-0.098943
-0.102914
-0.104264
-0.117549
-0.098453
-0.032872
-0.037634
-0.192958
-0.197832
-0.194985
-0.197397
-0.140258
-0.085003
-0.084262
-0.101389
-0.107216
-0.108236
-0.220389
-0.221910
-0.215419
-0.218512
-0.213381
-0.067437
-0.171534
-0.165398
-0.019193
-0.017587
-0.013089
-0.021989
-0.024370
-0.120961
-0.122653
-0.139820
-0.143483
-0.139780
-0.126463
-0.121747
-0.126101
-0.131822
-0.121496
-0.106046
-0.107995
-0.102840
-0.197414
-0.104783
-0.197499
-0.111733
-0.108681
-0.116317
-0.074500
-0.070958
-0.071653
-0.147097
-0.146823
-0.142922
-0.151407
-0.148160
-0.151748
-0.087108
-0.083917
-0.081061
-0.126287
-0.126421
-0.122466
-0.123272
-0.135823
-0.227130
-0.223085
-0.061052
-0.065117
-0.067703
-0.063717
-0.194985
-0.193628
-0.182347
-0.186179
-0.090338
-0.201227
-0.197967
-0.202091
-0.205358
-0.207281
-0.208447
-0.194017
-0.198075
-0.192848
-0.175500
-0.179616
-0.189838
-0.161443
-0.166661
-0.163732
-0.169998
-0.171411
-0.173643
-0.170285
-0.175775
-0.034038
-0.037709
-0.201602
-0.020316
-0.036660
-0.038552
-0.042123
-0.044056
-0.048711
-0.205592
-0.203818
-0.205338
-0.223972
-0.219835
-0.224761
-0.102413
-0.101988
-0.106085
-0.168458
-0.173013
-0.129000
-0.123049
-0.164418
-0.167161
-0.163270
-0.052697
-0.056669
-0.052659
-0.058761
-0.153080
-0.158168
-0.153861
-0.156476
-0.115527
-0.111779
-0.107217
-0.118587
-0.117757
-0.121641
-0.218107
-0.047243
-0.043990
-0.048730
-0.045046
-0.051368
-0.045197
-0.090660
-0.087832
-0.088710
-0.092095
-0.088987
-0.161028
-0.161969
-0.158869
-0.159369
-0.165753
-0.162657
-0.057680
-0.056600
-0.165716
-0.168651
-0.169060
-0.011440
-0.018307
-0.172271
-0.090708
-0.093746
-0.093049
-0.163532
-0.034955
-0.052408
-0.050119
-0.051906
-0.057122
-0.053937
-0.053251
-0.029203
-0.031775
-0.030774
-0.025610
-0.195889
-0.194095
-0.115361
-0.114120
-0.111040
-0.119155
-0.109418
-0.108780
-0.106323
-0.212203
-0.215387
-0.215420
-0.080484
-0.078752
-0.084259
-0.136649
-0.140440
-0.228410
-0.229912
-0.133822
-0.173181
-0.170975
-0.173603
-0.172756
-0.168673
-0.168778
-0.165264
-0.228090
-0.227732
-0.232027
-0.224243
-0.229695
-0.226074
-0.235819
-0.234004
-0.237667
-0.234447
-0.148908
-0.147951
-0.100007
-0.150433
-0.144474
-0.211842
-0.216975
-0.174796
-0.172038
-0.180112