# vtk DataFile Version 2.0
Test
ASCII
DATASET POLYDATA
POINTS 6577 float
0.000000 0.000000 0.000000
2.000000 0.000000 0.000000
2.000000 4.000000 0.000000
0.000000 4.000000 0.000000
0.000000 0.500000 0.000000
1.500000 2.000000 0.000000
2.000000 2.500000 0.000000
0.040000 0.000000 0.000000
0.080000 0.000000 0.000000
0.120000 0.000000 0.000000
0.160000 0.000000 0.000000
0.200000 0.000000 0.000000
0.240000 0.000000 0.000000
0.280000 0.000000 0.000000
0.320000 0.000000 0.000000
0.360000 0.000000 0.000000
0.400000 0.000000 0.000000
0.440000 0.000000 0.000000
0.480000 0.000000 0.000000
0.520000 0.000000 0.000000
0.560000 0.000000 0.000000
0.600000 0.000000 0.000000
0.640000 0.000000 0.000000
0.680000 0.000000 0.000000
0.720000 0.000000 0.000000
0.760000 0.000000 0.000000
0.800000 0.000000 0.000000
0.840000 0.000000 0.000000
0.880000 0.000000 0.000000
0.920000 0.000000 0.000000
0.960000 0.000000 0.000000
1.000000 0.000000 0.000000
1.040000 0.000000 0.000000
1.080000 0.000000 0.000000
1.120000 0.000000 0.000000
1.160000 0.000000 0.000000
1.200000 0.000000 0.000000
1.240000 0.000000 0.000000
1.280000 0.000000 0.000000
1.320000 0.000000 0.000000
1.360000 0.000000 0.000000
1.400000 0.000000 0.000000
1.440000 0.000000 0.000000
1.480000 0.000000 0.000000
1.520000 0.000000 0.000000
1.560000 0.000000 0.000000
1.600000 0.000000 0.000000
1.640000 0.000000 0.000000
1.680000 0.000000 0.000000
1.720000 0.000000 0.000000
1.760000 0.000000 0.000000
1.800000 0.000000 0.000000
1.840000 0.000000 0.000000
1.880000 0.000000 0.000000
1.920000 0.000000 0.000000
1.960000 0.000000 0.000000
2.000000 0.039683 0.000000
2.000000 0.079365 0.000000
2.000000 0.119048 0.000000
2.000000 0.158730 0.000000
2.000000 0.198413 0.000000
2.000000 0.238095 0.000000
2.000000 0.277778 0.000000
2.000000 0.317460 0.000000
2.000000 0.357143 0.000000
2.000000 0.396825 0.000000
2.000000 0.436508 0.000000
2.000000 0.476190 0.000000
2.000000 0.515873 0.000000
2.000000 0.555556 0.000000
2.000000 0.595238 0.000000
2.000000 0.634921 0.000000
2.000000 0.674603 0.000000
2.000000 0.714286 0.000000
2.000000 0.753968 0.000000
2.000000 0.793651 0.000000
2.000000 0.833333 0.000000
2.000000 0.873016 0.000000
2.000000 0.912698 0.000000
2.000000 0.952381 0.000000
2.000000 0.992063 0.000000
2.000000 1.031746 0.000000
2.000000 1.071429 0.000000
2.000000 1.111111 0.000000
2.000000 1.150794 0.000000
2.000000 1.190476 0.000000
2.000000 1.230159 0.000000
2.000000 1.269841 0.000000
2.000000 1.309524 0.000000
2.000000 1.349206 0.000000
2.000000 1.388889 0.000000
2.000000 1.428571 0.000000
2.000000 1.468254 0.000000
2.000000 1.507937 0.000000
2.000000 1.547619 0.000000
2.000000 1.587302 0.000000
2.000000 1.626984 0.000000
2.000000 1.666667 0.000000
2.000000 1.706349 0.000000
2.000000 1.746032 0.000000
2.000000 1.785714 0.000000
2.000000 1.825397 0.000000
2.000000 1.865079 0.000000
2.000000 1.904762 0.000000
2.000000 1.944444 0.000000
2.000000 1.984127 0.000000
2.000000 2.023810 0.000000
2.000000 2.063492 0.000000
2.000000 2.103175 0.000000
2.000000 2.142857 0.000000
2.000000 2.182540 0.000000
2.000000 2.222222 0.000000
2.000000 2.261905 0.000000
2.000000 2.301587 0.000000
2.000000 2.341270 0.000000
2.000000 2.380952 0.000000
2.000000 2.420635 0.000000
2.000000 2.460317 0.000000
2.000000 2.539474 0.000000
2.000000 2.578947 0.000000
2.000000 2.618421 0.000000
2.000000 2.657895 0.000000
2.000000 2.697368 0.000000
2.000000 2.736842 0.000000
2.000000 2.776316 0.000000
2.000000 2.815789 0.000000
2.000000 2.855263 0.000000
2.000000 2.894737 0.000000
2.000000 2.934211 0.000000
2.000000 2.973684 0.000000
2.000000 3.013158 0.000000
2.000000 3.052632 0.000000
2.000000 3.092105 0.000000
2.000000 3.131579 0.000000
2.000000 3.171053 0.000000
2.000000 3.210526 0.000000
2.000000 3.250000 0.000000
2.000000 3.289474 0.000000
2.000000 3.328947 0.000000
2.000000 3.368421 0.000000
2.000000 3.407895 0.000000
2.000000 3.447368 0.000000
2.000000 3.486842 0.000000
2.000000 3.526316 0.000000
2.000000 3.565789 0.000000
2.000000 3.605263 0.000000
2.000000 3.644737 0.000000
2.000000 3.684211 0.000000
2.000000 3.723684 0.000000
2.000000 3.763158 0.000000
2.000000 3.802632 0.000000
2.000000 3.842105 0.000000
2.000000 3.881579 0.000000
2.000000 3.921053 0.000000
2.000000 3.960526 0.000000
1.960000 4.000000 0.000000
1.920000 4.000000 0.000000
1.880000 4.000000 0.000000
1.840000 4.000000 0.000000
1.800000 4.000000 0.000000
1.760000 4.000000 0.000000
1.720000 4.000000 0.000000
1.680000 4.000000 0.000000
1.640000 4.000000 0.000000
1.600000 4.000000 0.000000
1.560000 4.000000 0.000000
1.520000 4.000000 0.000000
1.480000 4.000000 0.000000
1.440000 4.000000 0.000000
1.400000 4.000000 0.000000
1.360000 4.000000 0.000000
1.320000 4.000000 0.000000
1.280000 4.000000 0.000000
1.240000 4.000000 0.000000
1.200000 4.000000 0.000000
1.160000 4.000000 0.000000
1.120000 4.000000 0.000000
1.080000 4.000000 0.000000
1.040000 4.000000 0.000000
1.000000 4.000000 0.000000
0.960000 4.000000 0.000000
0.920000 4.000000 0.000000
0.880000 4.000000 0.000000
0.840000 4.000000 0.000000
0.800000 4.000000 0.000000
0.760000 4.000000 0.000000
0.720000 4.000000 0.000000
0.680000 4.000000 0.000000
0.640000 4.000000 0.000000
0.600000 4.000000 0.000000
0.560000 4.000000 0.000000
0.520000 4.000000 0.000000
0.480000 4.000000 0.000000
0.440000 4.000000 0.000000
0.400000 4.000000 0.000000
0.360000 4.000000 0.000000
0.320000 4.000000 0.000000
0.280000 4.000000 0.000000
0.240000 4.000000 0.000000
0.200000 4.000000 0.000000
0.160000 4.000000 0.000000
0.120000 4.000000 0.000000
0.080000 4.000000 0.000000
0.040000 4.000000 0.000000
0.000000 3.960227 0.000000
0.000000 3.920455 0.000000
0.000000 3.880682 0.000000
0.000000 3.840909 0.000000
0.000000 3.801136 0.000000
0.000000 3.761364 0.000000
0.000000 3.721591 0.000000
0.000000 3.681818 0.000000
0.000000 3.642045 0.000000
0.000000 3.602273 0.000000
0.000000 3.562500 0.000000
0.000000 3.522727 0.000000
0.000000 3.482955 0.000000
0.000000 3.443182 0.000000
0.000000 3.403409 0.000000
0.000000 3.363636 0.000000
0.000000 3.323864 0.000000
0.000000 3.284091 0.000000
0.000000 3.244318 0.000000
0.000000 3.204545 0.000000
0.000000 3.164773 0.000000
0.000000 3.125000 0.000000
0.000000 3.085227 0.000000
0.000000 3.045455 0.000000
0.000000 3.005682 0.000000
0.000000 2.965909 0.000000
0.000000 2.926136 0.000000
0.000000 2.886364 0.000000
0.000000 2.846591 0.000000
0.000000 2.806818 0.000000
0.000000 2.767045 0.000000
0.000000 2.727273 0.000000
0.000000 2.687500 0.000000
0.000000 2.647727 0.000000
0.000000 2.607955 0.000000
0.000000 2.568182 0.000000
0.000000 2.528409 0.000000
0.000000 2.488636 0.000000
0.000000 2.448864 0.000000
0.000000 2.409091 0.000000
0.000000 2.369318 0.000000
0.000000 2.329545 0.000000
0.000000 2.289773 0.000000
0.000000 2.250000 0.000000
0.000000 2.210227 0.000000
0.000000 2.170455 0.000000
0.000000 2.130682 0.000000
0.000000 2.090909 0.000000
0.000000 2.051136 0.000000
0.000000 2.011364 0.000000
0.000000 1.971591 0.000000
0.000000 1.931818 0.000000
0.000000 1.892045 0.000000
0.000000 1.852273 0.000000
0.000000 1.812500 0.000000
0.000000 1.772727 0.000000
0.000000 1.732955 0.000000
0.000000 1.693182 0.000000
0.000000 1.653409 0.000000
0.000000 1.613636 0.000000
0.000000 1.573864 0.000000
0.000000 1.534091 0.000000
0.000000 1.494318 0.000000
0.000000 1.454545 0.000000
0.000000 1.414773 0.000000
0.000000 1.375000 0.000000
0.000000 1.335227 0.000000
0.000000 1.295455 0.000000
0.000000 1.255682 0.000000
0.000000 1.215909 0.000000
0.000000 1.176136 0.000000
0.000000 1.136364 0.000000
0.000000 1.096591 0.000000
0.000000 1.056818 0.000000
0.000000 1.017045 0.000000
0.000000 0.977273 0.000000
0.000000 0.937500 0.000000
0.000000 0.897727 0.000000
0.000000 0.857955 0.000000
0.000000 0.818182 0.000000
0.000000 0.778409 0.000000
0.000000 0.738636 0.000000
0.000000 0.698864 0.000000
0.000000 0.659091 0.000000
0.000000 0.619318 0.000000
0.000000 0.579545 0.000000
0.000000 0.539773 0.000000
0.000000 0.461538 0.000000
0.000000 0.423077 0.000000
0.000000 0.384615 0.000000
0.000000 0.346154 0.000000
0.000000 0.307692 0.000000
0.000000 0.269231 0.000000
0.000000 0.230769 0.000000
0.000000 0.192308 0.000000
0.000000 0.153846 0.000000
0.000000 0.115385 0.000000
0.000000 0.076923 0.000000
0.000000 0.038462 0.000000
0.027778 0.527778 0.000000
0.055556 0.555556 0.000000
0.083333 0.583333 0.000000
0.111111 0.611111 0.000000
0.138889 0.638889 0.000000
0.166667 0.666667 0.000000
0.194444 0.694444 0.000000
0.222222 0.722222 0.000000
0.250000 0.750000 0.000000
0.277778 0.777778 0.000000
0.305556 0.805556 0.000000
0.333333 0.833333 0.000000
0.361111 0.861111 0.000000
0.388889 0.888889 0.000000
0.416667 0.916667 0.000000
0.444444 0.944444 0.000000
0.472222 0.972222 0.000000
0.500000 1.000000 0.000000
0.527778 1.027778 0.000000
0.555556 1.055556 0.000000
0.583333 1.083333 0.000000
0.611111 1.111111 0.000000
0.638889 1.138889 0.000000
0.666667 1.166667 0.000000
0.694444 1.194444 0.000000
0.722222 1.222222 0.000000
0.750000 1.250000 0.000000
0.777778 1.277778 0.000000
0.805556 1.305556 0.000000
0.833333 1.333333 0.000000
0.861111 1.361111 0.000000
0.888889 1.388889 0.000000
0.916667 1.416667 0.000000
0.944444 1.444444 0.000000
0.972222 1.472222 0.000000
1.000000 1.500000 0.000000
1.027778 1.527778 0.000000
1.055556 1.555556 0.000000
1.083333 1.583333 0.000000
1.111111 1.611111 0.000000
1.138889 1.638889 0.000000
1.166667 1.666667 0.000000
1.194444 1.694444 0.000000
1.222222 1.722222 0.000000
1.250000 1.750000 0.000000
1.277778 1.777778 0.000000
1.305556 1.805556 0.000000
1.333333 1.833333 0.000000
1.361111 1.861111 0.000000
1.388889 1.888889 0.000000
1.416667 1.916667 0.000000
1.444444 1.944444 0.000000
1.472222 1.972222 0.000000
1.527778 2.027778 0.000000
1.555556 2.055556 0.000000
1.583333 2.083333 0.000000
1.611111 2.111111 0.000000
1.638889 2.138889 0.000000
1.666667 2.166667 0.000000
1.694444 2.194444 0.000000
1.722222 2.222222 0.000000
1.750000 2.250000 0.000000
1.777778 2.277778 0.000000
1.805556 2.305556 0.000000
[...]
POINT_DATA 6577
SCALARS UX float 1
LOOKUP_TABLE default
-0.000001
0.000001
0.000234
-0.019486
-0.010290
-0.000506
0.002414
0.000000
-0.000000
-0.000000
0.000000
0.000000
-0.000001
0.000000
0.000000
0.000000
0.000000
0.000000
0.000000
0.000000
0.000000
0.000000
0.000000
0.000000
0.000000
0.000000
-0.000000
-0.000000
0.000000
-0.000000
0.000000
0.000000
0.000000
-0.000000
0.000000
0.000000
-0.000000
0.000000
0.000000
-0.000000
0.000000
0.000000
-0.000000
0.000000
0.000000
-0.000000
-0.000000
-0.000000
-0.000000
-0.000000
-0.000001
0.000000
0.000000
0.000000
-0.000001
0.000000
0.001156
0.002753
0.003721
0.004552
0.005230
0.005844
0.006373
0.006859
0.007296
0.007681
0.008027
0.008331
0.008623
0.008890
0.009131
0.009344
0.009545
0.009722
0.009887
0.010028
0.010159
0.010278
0.010398
0.010479
0.010564
0.010644
0.010697
0.010745
0.010789
0.010805
0.010820
0.010827
0.010826
0.010803
0.010747
0.010726
0.010660
0.010598
0.010504
0.010393
0.010262
0.010105
0.009908
0.009700
0.009437
0.009136
0.008798
0.008418
0.008002
0.007525
0.007041
0.006561
0.006065
0.005578
0.005110
0.004640
0.004250
0.003849
0.003494
0.003187
0.002909
0.002647
0.002204
0.002021
0.001877
0.001708
0.001596
0.001467
0.001326
0.001255
0.001160
0.001083
0.001007
0.000936
0.000867
0.000817
0.000770
0.000683
0.000656
0.000629
0.000591
0.000530
0.000484
0.000486
0.000441
0.000409
0.000384
0.000368
0.000342
0.000326
0.000312
0.000286
0.000267
0.000267
0.000263
0.000248
0.000245
0.000235
0.000237
-0.000192
-0.000618
-0.001043
-0.001467
-0.001890
-0.002312
-0.002730
-0.003148
-0.003566
-0.003979
-0.004392
-0.004805
-0.005210
-0.005613
-0.006019
-0.006423
-0.006824
-0.007221
-0.007617
-0.008011
-0.008403
-0.008796
-0.009188
-0.009578
-0.009965
-0.010352
-0.010738
-0.011123
-0.011506
-0.011891
-0.012277
-0.012661
-0.013037
-0.013418
-0.013803
-0.014186
-0.014564
-0.014944
-0.015326
-0.015708
-0.016089
-0.016469
-0.016849
-0.017229
-0.017608
-0.017985
-0.018361
-0.018736
-0.019110
-0.019483
-0.019481
-0.019475
-0.019470
-0.019443
-0.019427
-0.019410
-0.019382
-0.019362
-0.019331
-0.019308
-0.019264
-0.019219
-0.019198
-0.019132
-0.019098
-0.019044
-0.018993
-0.018964
-0.018882
-0.018836
-0.018783
-0.018715
-0.018656
-0.018603
-0.018534
-0.018480
-0.018397
-0.018361
-0.018279
-0.018229
-0.018152
-0.018113
-0.018061
-0.017988
-0.017948
-0.017894
-0.017848
-0.017819
-0.017786
-0.017739
-0.017720
-0.017701
-0.017696
-0.017673
-0.017681
-0.017685
-0.017699
-0.017718
-0.017744
-0.017774
-0.017826
-0.017891
-0.017939
-0.018017
-0.018100
-0.018185
-0.018289
-0.018396
-0.018488
-0.018641
-0.018771
-0.018917
-0.019069
-0.019233
-0.019383
-0.019562
-0.019717
-0.019881
-0.020036
-0.020179
-0.020283
-0.020372
-0.020416
-0.020387
-0.020294
-0.020126
-0.019849
-0.019460
-0.018972
-0.018453
-0.018024
-0.017686
-0.017556
-0.016357
-0.014795
-0.012551
-0.007259
-0.007232
-0.006800
-0.006436
-0.006087
-0.005665
-0.005198
-0.004683
-0.004085
-0.003372
-0.002550
-0.001309
-0.009369
-0.009711
-0.009781
-0.011305
-0.009637
-0.007429
-0.011111
-0.009561
-0.009959
-0.011688
-0.010699
-0.011698
-0.009646
-0.008278
-0.007351
-0.006444
-0.007742
-0.007312
-0.007005
-0.007407
-0.009226
-0.006791
-0.006064
-0.008479
-0.006866
-0.008032
-0.003505
-0.006021
-0.006621
-0.006841
-0.004793
-0.006204
-0.004446
-0.003787
-0.007015
-0.004899
-0.005084
-0.004122
-0.004140
-0.004026
-0.002783
-0.002717
-0.000796
-0.002254
-0.002716
-0.001683
-0.001225
-0.001238
-0.000966
-0.001652
0.000111
-0.000316
-0.000204
0.000420
0.000560
0.000653
0.000751
0.000858
0.000960
0.001050
0.001118
0.001223
0.001315
0.001410
0.001511
0.001633
0.001746
0.001890
0.002058
0.002235
0.001696
0.001601
-0.019237
-0.019231
-0.000142
-0.000098
0.001897
0.001913
0.001539
0.001184
0.000951
-0.003534
-0.003822
-0.003856
-0.006966
-0.006851
-0.006497
-0.004095
-0.014040
-0.013726
-0.013797
-0.004741
-0.004443
-0.004350
-0.017595
-0.017712
-0.017391
-0.017926
-0.018339
-0.018203
-0.004719
-0.001988
-0.001649
-0.001826
-0.004727
-0.005042
-0.004633
-0.017616
-0.017545
-0.017251
-0.014082
-0.005961
-0.005940
-0.006311
-0.006081
-0.006364
-0.006443
-0.005060
-0.004978
-0.005350
-0.005194
-0.014364
-0.014704
-0.014591
-0.014600
-0.014154
-0.014513
-0.014238
-0.014634
-0.005490
-0.005088
-0.005373
-0.006135
-0.009566
-0.009592
-0.009289
0.001032
0.001204
-0.009110
-0.015641
-0.015703
-0.015280
-0.016066
-0.014827
-0.014789
-0.014411
-0.009293
-0.009580
-0.009571
-0.009294
-0.002923
-0.002847
-0.002378
-0.002510
-0.013513
-0.013919
-0.013891
-0.013604
-0.007067
-0.006731
-0.007013
-0.014110
-0.013637
-0.013718
0.000877
0.001270
0.000826
0.001164
0.000898
0.001154
0.000656
-0.015011
-0.015325
-0.015376
-0.003931
-0.004270
-0.004246
-0.004627
-0.006842
-0.017957
-0.018268
-0.018017
-0.011252
-0.010941
-0.010943
-0.011365
-0.015390
-0.015719
-0.015394
-0.015677
-0.014565
-0.014309
-0.014644
-0.009728
-0.009816
-0.010105
-0.002042
-0.002384
-0.002327
-0.001685
-0.001165
-0.000776
0.001148
-0.010680
-0.010464
-0.010769
-0.010845
-0.011080
-0.011140
-0.013875
-0.013434
-0.014398
-0.014483
-0.014133
-0.016475
-0.016295
-0.016213
-0.014746
-0.009550
-0.009941
-0.009515
-0.017221
-0.017094
-0.017394
-0.014224
-0.011837
-0.011662
-0.012043
-0.009738
-0.009431
-0.009773
-0.015625
-0.016243
-0.016738
-0.001049
-0.000562
-0.001046
-0.000449
-0.005145
-0.005373
-0.005448
-0.005730
0.001211
0.001403
-0.008729
-0.008536
-0.008819
-0.008319
-0.017599
-0.017940
-0.017769
-0.010378
-0.010088
-0.010341
-0.010972
-0.011369
-0.010983
-0.010231
-0.018202
-0.013668
-0.013243
-0.013448
-0.013218
-0.013500
-0.013610
-0.013942
-0.013503
-0.017763
-0.017738
-0.011509
-0.011323
-0.011713
-0.017574
-0.017687
-0.008471
-0.008278
-0.008727
-0.017267
-0.017625
-0.017407
-0.017353
-0.017064
-0.016937
-0.016537
-0.016954
-0.016768
-0.016683
-0.016165
-0.016581
-0.016396
-0.008151
-0.008386
-0.006032
-0.008372
-0.017840
-0.018183
-0.018010
-0.018373
-0.019002
-0.018934
-0.000431
-0.000487
-0.003958
-0.003934
-0.003518
-0.004303
-0.012597
-0.012583
-0.012293
-0.015936
-0.016259
-0.016212
-0.012207
-0.004466
-0.004294
-0.004620
-0.016267
-0.016545
-0.018537
-0.018451
-0.018273
-0.009218
-0.008956
-0.000006
0.000009
0.000493
0.000555
-0.015613
-0.015981
-0.015934
-0.016279
-0.019056
-0.018732
-0.019063
-0.018582
-0.017345
-0.017658
-0.017245
-0.018011
-0.017734
-0.019698
-0.019840
-0.019994
-0.017277
-0.017248
-0.017855
-0.018322
-0.017878
-0.016226
-0.016150
-0.001270
-0.000832
-0.016588
-0.017002
-0.016896
-0.018170
-0.014452
-0.014837
-0.014519
-0.017349
-0.017505
-0.002449
-0.002681
-0.002854
-0.002234
-0.004297
-0.003951
-0.004047
-0.010349
-0.010431
-0.010697
-0.008739
-0.008655
-0.002534
-0.002207
-0.002296
-0.010140
-0.009135
-0.009317
-0.009467
-0.018543
-0.019023
-0.018683
-0.015587
-0.015663
-0.015326
-0.003496
-0.015915
-0.016282
-0.015892
-0.015832
-0.015779
-0.016262
-0.016524
-0.017018
-0.003219
-0.016321
-0.014517
-0.015421
-0.015795
-0.015766
-0.015529
-0.015529
-0.018289
-0.018405
-0.017736
-0.018850
-0.015001
-0.014856
-0.015199
-0.000772
-0.000567
-0.015927
-0.015887
-0.015853
-0.015469
-0.015486
-0.013877
-0.019138
-0.018815
-0.018491
-0.018612
-0.018242
-0.018280
-0.000091
-0.013134
-0.012817
-0.018786
-0.018680
-0.015188
-0.015260
-0.000676
-0.000472
-0.009828
-0.009383
-0.016645
-0.005391
-0.005265
-0.005118
-0.004897
-0.017775
-0.017439
-0.014249
-0.014593
-0.014266
-0.016824
-0.017423
-0.017595
-0.017063
-0.018778
-0.014613
-0.001631
-0.011645
-0.012025
-0.011787
-0.017841
-0.018720
-0.018189
-0.019274
-0.018591
-0.019181
-0.018762
-0.018954
-0.012194
-0.011981
-0.001311
-0.001016
-0.001108
-0.016389
-0.015299
-0.008448
-0.007997
-0.018284
-0.018361
-0.018103
-0.013150
-0.012886
-0.016980
-0.017900
-0.018024
-0.016275
-0.015225
-0.015936
-0.016307
-0.002761
-0.002842
-0.002421
-0.016728
-0.017098
-0.018404
-0.018209
-0.017548
-0.019117
-0.012860
-0.009166
-0.009079
-0.017901
-0.019169
-0.018983
-0.018520
-0.019606
-0.018573
-0.018460
-0.005719
-0.005724
-0.005279
-0.015491
-0.000092
-0.000686
-0.000357
-0.000884
-0.017641
-0.017962
-0.018275
-0.017129
-0.015586
-0.015542
-0.015029
-0.015208
-0.015117
-0.015136
-0.015145
-0.019359
-0.015321
-0.015246
-0.014887
-0.001942
-0.015658
-0.015687
-0.015955
-0.017566
-0.005351
-0.001561
-0.001579
-0.001238
-0.019131
-0.018707
-0.019836
-0.017870
-0.017899
-0.018164
-0.017673
-0.017980
-0.018382
-0.017241
-0.019539
-0.003079
-0.003187
-0.014653
-0.015153
-0.005329
0.000327
0.000692
0.000719
-0.019029
-0.018839
-0.018442
-0.018261
-0.000466
-0.000156
-0.003321
-0.003070
-0.003305
-0.003639
-0.016343
-0.016307
-0.015976
-0.014801
-0.000885
-0.001091
-0.019171
-0.018765
-0.019985
-0.017477
-0.017886
-0.018340
-0.017332
-0.014819
-0.001959
-0.002284
-0.003695
-0.017557
-0.017252
-0.006915
-0.006643
-0.007008
-0.019528
-0.001913
-0.001505
-0.017566
-0.017914
-0.018741
-0.019850
-0.016372
-0.018062
0.001559
0.001208
-0.017200
-0.007397
-0.002768
-0.003180
-0.002844
-0.017429
-0.017803
-0.018275
-0.017244
-0.002949
-0.002641
-0.002828
-0.018663
-0.006722
-0.003193
-0.018264
-0.018050
-0.018863
-0.000614
-0.000289
-0.008324
-0.008036
-0.007992
-0.001061
-0.001320
-0.019462
-0.008384
-0.008250
-0.000610
-0.000171
-0.000555
-0.016413
-0.016717
-0.016476
-0.016848
-0.002948
-0.012412
0.000912
0.001306
-0.002624
-0.015651
-0.016025
-0.018620
-0.017399
-0.016466
-0.016839
-0.017678
-0.018114
-0.016857
-0.002288
0.000015
-0.005836
-0.005480
-0.005558
-0.017233
-0.005747
-0.012140
-0.011925
-0.012389
-0.002244
-0.001822
-0.002627
-0.017256
-0.017609
-0.016936
-0.018193
-0.019389
-0.018555
-0.004804
-0.004675
-0.004346
-0.005060
-0.002413
-0.018352
-0.017322
-0.017365
-0.017696
-0.002009
-0.016267
-0.016371
-0.016007
-0.017543
-0.017937
-0.016137
-0.016051
-0.015174
0.000257
-0.000996
-0.001035
-0.000672
-0.008671
-0.008976
-0.008598
-0.008819
0.000453
-0.001872
-0.002018
-0.018427
-0.016693
-0.007637
-0.007636
-0.007313
-0.018036
-0.017889
-0.018763
-0.000809
-0.015292
-0.015249
-0.001292
-0.001488
-0.000355
-0.007408
-0.007761
-0.006824
-0.006834
-0.007225
-0.014814
-0.014811
-0.014781
-0.007240
-0.014570
-0.002685
-0.014463
-0.014475
-0.016101
-0.016898
-0.003433
-0.017850
-0.005298
-0.004948
-0.005298
-0.002557
-0.004951
-0.003013
-0.016979
-0.005627
-0.005204
-0.016567
-0.005523
-0.010083
-0.010013
-0.010314
-0.015084
0.000450
-0.016954
-0.010945
-0.010530
-0.010757
-0.009777
-0.008247
-0.008123
-0.008447
-0.006614
-0.006258
-0.015364
-0.015751
-0.018502
-0.018366
-0.018042
-0.008336
-0.017434
-0.017434
-0.016202
-0.016590
-0.006893
-0.006549
-0.018054
-0.018429
-0.017095
-0.017456
-0.017821
-0.018123
-0.017659
-0.000723
-0.000905
-0.000566
-0.001076
-0.014867
0.000575
0.000569
0.000156
-0.014996
-0.014956
-0.014507
-0.014459
0.000160
-0.007362
-0.007034
-0.007351
-0.014463
-0.012483
-0.012759
-0.002757
-0.019420
-0.019188
-0.019034
-0.014167
-0.014191
-0.012815
-0.017873
-0.009827
-0.009783
-0.009403
-0.017314
-0.017657
-0.015825
-0.013065
-0.007237
-0.007669
-0.004446
-0.004744
-0.004494
-0.007759
-0.014076
-0.014090
-0.014376
-0.013706
-0.001504
-0.001325
0.000158
0.000701
-0.008253
-0.008545
-0.008643
-0.001586
-0.002000
-0.001657
-0.008984
-0.007058
-0.006335
-0.006635
-0.006328
-0.016563
-0.016981
-0.017107
-0.015080
-0.015444
-0.005982
-0.005651
-0.006024
-0.015066
-0.014834
-0.015139
-0.017733
-0.016705
-0.015939
-0.016310
-0.016887
-0.017269
-0.017272
-0.010349
-0.009970
-0.010248
-0.014711
-0.014623
-0.014574
-0.016502
-0.016704
-0.016752
-0.018549
-0.018798
-0.018914
-0.018398
-0.014231
-0.014171
-0.014501
-0.014909
-0.016434
-0.016304
-0.016067
-0.014161
-0.018795
-0.017136
-0.017476
-0.016946
-0.013887
0.000309
-0.013904
-0.015565
-0.014812
-0.015188
-0.002237
-0.002364
-0.002526
-0.016188
-0.016649
-0.015696
-0.016078
-0.016481
-0.018005
-0.016490
-0.016641
-0.016788
-0.016382
-0.016693
-0.017160
0.000102
-0.000105
-0.000262
-0.000612
-0.014441
-0.014341
-0.014283
-0.013951
-0.013943
-0.017616
-0.017517
-0.010561
-0.010143
-0.010207
-0.010254
-0.006840
-0.006373
-0.006607
-0.002968
-0.013890
-0.013593
-0.013618
-0.015319
-0.014558
-0.014939
-0.016643
-0.007221
-0.007597
-0.007266
-0.006550
-0.015490
-0.015837
-0.016245
-0.016465
-0.016964
-0.017338
-0.014178
-0.014070
-0.005554
-0.005222
-0.005455
-0.005231
-0.013991
-0.017057
-0.016816
-0.002693
-0.002374
-0.002728
-0.006975
-0.000961
-0.001247
-0.000833
-0.000494
-0.015340
-0.015554
-0.013651
-0.013645
-0.000522
-0.000075
-0.000513
-0.015816
-0.016195
-0.015778
-0.018350
-0.018203
-0.005594
-0.005730
-0.005513
-0.014311
-0.014536
-0.014209
-0.014482
-0.014308
-0.014692
-0.015079
-0.005830
-0.015286
-0.015589
-0.016291
-0.016175
-0.004870
-0.008073
-0.004647
-0.004801
-0.004280
-0.015999
-0.004830
-0.004626
-0.016239
-0.016764
-0.013921
-0.013799
-0.004210
-0.004121
-0.004614
-0.015415
-0.015391
-0.015007
-0.004978
-0.001174
-0.000975
-0.015822
-0.003633
-0.003299
-0.013704
-0.003876
-0.013995
-0.013345
-0.013296
-0.011277
-0.010849
-0.011344
-0.007188
-0.007004
-0.007726
-0.007506
-0.007827
-0.007279
-0.009045
-0.009015
-0.009361
-0.009287
-0.015731
-0.014753
-0.014907
-0.015261
-0.001989
-0.002164
-0.002610
-0.016439
-0.004028
-0.004253
-0.014064
-0.014457
-0.009581
-0.009526
-0.009847
-0.009790
-0.014868
-0.005706
-0.005619
-0.015146
-0.015681
-0.007396
-0.002817
-0.002447
-0.002458
-0.003972
-0.003968
-0.017924
-0.015511
-0.015545
-0.013669
-0.013532
-0.005088
-0.016146
-0.015903
-0.003057
-0.003496
-0.003058
-0.013423
-0.004942
-0.004907
-0.013040
-0.012965
-0.017172
-0.016798
-0.016539
-0.014434
-0.014846
-0.014800
-0.017950
-0.017316
-0.010477
-0.010050
-0.010177
-0.013827
-0.014226
-0.016143
-0.015897
-0.002585
-0.014647
-0.011806
-0.011600
-0.011991
-0.011785
-0.003430
-0.008997
-0.009125
-0.009401
-0.015544
-0.015240
-0.015526
-0.015128
-0.003915
-0.004227
-0.003853
-0.004324
-0.014945
-0.015450
-0.013826
-0.014069
-0.005151
-0.005384
-0.009320
-0.009527
-0.017318
-0.000620
-0.000913
-0.001018
-0.001440
-0.009196
-0.009293
-0.009547
-0.005875
-0.006237
-0.005802
0.000075
0.000079
-0.000300
-0.014327
-0.014644
-0.014612
-0.013423
-0.013273
-0.004540
-0.004136
-0.004328
-0.006356
0.000056
-0.000290
-0.013143
-0.012742
-0.012639
-0.013612
-0.013218
-0.013071
-0.012848
-0.013593
-0.014005
-0.004852
-0.005217
-0.004898
-0.006972
-0.006145
-0.006116
-0.014439
-0.014748
-0.015254
-0.013183
-0.013018
-0.005950
-0.009083
-0.009391
-0.009092
-0.012874
-0.009491
-0.004565
-0.004855
-0.004881
-0.012448
-0.012316
-0.013373
-0.013789
-0.013913
-0.013676
-0.014225
-0.014546
-0.014933
-0.000106
-0.000236
-0.000880
-0.000673
-0.017237
-0.017476
-0.017086
-0.012955
-0.012769
-0.012940
-0.012740
-0.012910
-0.000403
-0.000842
-0.000334
-0.000126
-0.000637
-0.000998
-0.001148
-0.005183
-0.012599
-0.012158
-0.012016
-0.004201
-0.003847
-0.006655
-0.006349
-0.006666
-0.006433
-0.013150
-0.013585
-0.014062
-0.013259
-0.014305
-0.014715
-0.012737
-0.012534
-0.004531
-0.004604
-0.004119
-0.001230
-0.001312
-0.001659
-0.004661
-0.004740
-0.009807
-0.009602
-0.011893
-0.012101
-0.014907
-0.014941
-0.015276
-0.012321
-0.011834
-0.011716
-0.009665
-0.015542
-0.015577
-0.015848
-0.000655
-0.000190
-0.012944
-0.013392
-0.004488
-0.005781
-0.005652
-0.006066
-0.013851
-0.014082
-0.005936
-0.006366
-0.015604
-0.015697
-0.003609
-0.003759
-0.007120
-0.012519
-0.012299
-0.014105
-0.013087
-0.012762
-0.013003
-0.012104
-0.011739
-0.016706
-0.017071
-0.012816
-0.013187
-0.003686
-0.016470
-0.016784
-0.015912
-0.017017
-0.016668
-0.012374
-0.012075
-0.001631
-0.008883
-0.009893
-0.015231
-0.009105
-0.009026
-0.009313
-0.011859
-0.011497
-0.008803
-0.008393
-0.015775
-0.015395
-0.015317
-0.012689
-0.013105
-0.008759
-0.003331
-0.003789
-0.010444
-0.010527
-0.010201
-0.004051
-0.017344
-0.007962
-0.010159
-0.010551
-0.010119
-0.008052
-0.014781
-0.015135
-0.010912
-0.010081
-0.010939
-0.010498
-0.013945
-0.014000
-0.013595
-0.010100
-0.010415
-0.012233
-0.011947
-0.014775
-0.011652
-0.011235
-0.012457
-0.012941
-0.013577
-0.013844
-0.016792
-0.002112
-0.001473
-0.002345
-0.002839
-0.001650
-0.001395
-0.001296
-0.015968
-0.009644
-0.009890
-0.009511
-0.009950
-0.009576
-0.015237
-0.015244
-0.014815
-0.007999
-0.007915
-0.008251
0.000212
0.000318
-0.000074
-0.012211
-0.007651
-0.011261
-0.011146
-0.011518
-0.011438
-0.010606
-0.010928
-0.010738
-0.010758
-0.005744
-0.018252
-0.018568
-0.018279
-0.003964
-0.004002
-0.004304
-0.011144
-0.005279
-0.005622
-0.005232
-0.005696
-0.005908
-0.011819
-0.001770
-0.001403
-0.001252
-0.007819
-0.017017
-0.016613
-0.016784
-0.016827
-0.001937
-0.009271
-0.008985
-0.008951
-0.009308
-0.005127
-0.005355
-0.005090
0.000166
-0.005521
-0.015360
-0.015586
-0.015626
-0.015906
-0.017852
-0.017445
-0.016187
-0.015956
-0.015563
-0.017332
-0.007094
-0.014189
-0.014493
-0.014181
-0.014399
-0.013741
-0.013500
-0.013521
-0.013831
-0.013863
-0.014160
-0.013849
-0.014248
-0.011576
-0.011273
-0.011615
-0.005069
-0.006180
-0.001268
-0.000766
-0.000996
-0.001010
-0.000757
-0.001144
-0.012083
-0.012420
-0.012189
-0.012576
-0.011200
-0.017840
-0.017883
-0.018200
-0.003691
-0.003950
-0.018135
-0.009993
-0.005364
-0.005517
-0.005139
-0.005509
-0.005047
-0.010529
-0.010913
-0.003654
-0.015899
-0.015493
-0.015693
-0.015375
-0.016737
-0.000086
-0.000167
-0.008657
-0.002051
-0.002136
-0.002379
-0.002710
-0.002273
-0.002495
-0.001766
-0.007252
-0.006999
-0.007329
-0.007055
-0.003686
-0.008125
-0.008500
-0.008430
-0.015084
-0.014835
-0.009615
-0.009818
-0.010045
-0.010158
-0.015043
-0.015224
-0.014930
-0.015266
-0.015457
-0.006257
-0.006595
-0.012029
-0.011877
-0.011664
-0.012143
-0.012481
-0.012696
-0.012815
-0.012110
-0.012240
-0.011959
-0.012464
-0.010853
-0.010501
-0.002153
-0.002601
-0.001959
-0.007034
-0.007314
-0.007492
-0.010760
-0.006981
-0.001637
-0.001950
-0.014513
-0.014913
-0.014677
-0.014782
-0.012798
-0.005868
-0.005872
-0.007232
-0.007599
-0.007766
-0.016847
-0.016933
-0.016439
-0.016687
-0.016323
-0.004435
-0.012768
-0.012317
-0.000477
-0.000263
-0.000073
-0.000595
-0.000862
-0.008747
-0.008972
-0.010245
-0.010572
-0.010320
-0.009334
-0.008945
-0.009286
-0.009803
-0.008865
-0.007343
-0.007496
-0.007092
-0.015003
-0.007211
-0.014843
-0.007813
-0.007531
-0.008124
-0.005006
-0.004791
-0.004790
-0.010709
-0.010698
-0.010396
-0.011040
-0.010787
-0.011094
-0.005765
-0.005424
-0.005344
-0.008991
-0.008981
-0.008634
-0.008737
-0.009779
-0.017256
-0.016970
-0.003989
-0.004207
-0.004433
-0.004123
-0.014583
-0.014447
-0.013657
-0.013929
-0.006386
-0.015192
-0.015026
-0.015391
-0.015570
-0.015750
-0.015941
-0.014496
-0.014866
-0.014396
-0.013260
-0.013609
-0.014214
-0.011754
-0.012135
-0.012081
-0.012451
-0.012765
-0.012993
-0.012667
-0.013169
-0.001360
-0.001597
-0.015285
-0.000410
-0.001892
-0.002107
-0.002363
-0.002546
-0.002802
-0.015491
-0.015327
-0.015612
-0.017054
-0.016853
-0.017175
-0.007068
-0.006964
-0.007339
-0.012619
-0.012952
-0.009082
-0.008656
-0.012259
-0.012493
-0.012225
-0.002944
-0.003314
-0.002957
-0.003433
-0.011401
-0.011795
-0.011500
-0.011681
-0.008093
-0.007777
-0.007464
-0.008439
-0.008334
-0.008608
-0.016565
-0.002453
-0.002178
-0.002538
-0.002159
-0.002780
-0.002316
-0.006388
-0.006171
-0.006185
-0.006506
-0.006217
-0.012068
-0.012199
-0.011915
-0.011953
-0.012406
-0.012163
-0.003385
-0.003281
-0.012487
-0.012692
-0.012786
0.000303
-0.000247
-0.013016
-0.006481
-0.006708
-0.006654
-0.012286
-0.001744
-0.002983
-0.002586
-0.002891
-0.003336
-0.003023
-0.002966
-0.001179
-0.001486
-0.001241
-0.000936
-0.014806
-0.014579
-0.008333
-0.008211
-0.007990
-0.008627
-0.007724
-0.007794
-0.007510
-0.016264
-0.016378
-0.016428
-0.005114
-0.005060
-0.005481
-0.009853
-0.010141
-0.017362
-0.017367
-0.009585
-0.013076
-0.012882
-0.013159
-0.013040
-0.012729
-0.012699
-0.012461
-0.017515
-0.017446
-0.017742
-0.017218
-0.017547
-0.017330
-0.018129
-0.017970
-0.018345
-0.018037
-0.011029
-0.010918
-0.007207
-0.011147
-0.010709
-0.016361
-0.016692
-0.013310
-0.012970
-0.013692
-0.013407
-0.016988
-0.017128
-0.016541
-0.016087
-0.016311
-0.013806
-0.013108
-0.003378