# vtk DataFile Version 2.0
Test
ASCII
DATASET POLYDATA
POINTS 6577 float
0.000000 0.000000 0.000000
2.000000 0.000000 0.000000
2.000000 4.000000 0.000000
0.000000 4.000000 0.000000
0.000000 0.500000 0.000000
1.500000 2.000000 0.000000
2.000000 2.500000 0.000000
0.040000 0.000000 0.000000
0.080000 0.000000 0.000000
0.120000 0.000000 0.000000
0.160000 0.000000 0.000000
0.200000 0.000000 0.000000
0.240000 0.000000 0.000000
0.280000 0.000000 0.000000
0.320000 0.000000 0.000000
0.360000 0.000000 0.000000
0.400000 0.000000 0.000000
0.440000 0.000000 0.000000
0.480000 0.000000 0.000000
0.520000 0.000000 0.000000
0.560000 0.000000 0.000000
0.600000 0.000000 0.000000
0.640000 0.000000 0.000000
0.680000 0.000000 0.000000
0.720000 0.000000 0.000000
0.760000 0.000000 0.000000
0.800000 0.000000 0.000000
0.840000 0.000000 0.000000
0.880000 0.000000 0.000000
0.920000 0.000000 0.000000
0.960000 0.000000 0.000000
1.000000 0.000000 0.000000
1.040000 0.000000 0.000000
1.080000 0.000000 0.000000
1.120000 0.000000 0.000000
1.160000 0.000000 0.000000
1.200000 0.000000 0.000000
1.240000 0.000000 0.000000
1.280000 0.000000 0.000000
1.320000 0.000000 0.000000
1.360000 0.000000 0.000000
1.400000 0.000000 0.000000
1.440000 0.000000 0.000000
1.480000 0.000000 0.000000
1.520000 0.000000 0.000000
1.560000 0.000000 0.000000
1.600000 0.000000 0.000000
1.640000 0.000000 0.000000
1.680000 0.000000 0.000000
1.720000 0.000000 0.000000
1.760000 0.000000 0.000000
1.800000 0.000000 0.000000
1.840000 0.000000 0.000000
1.880000 0.000000 0.000000
1.920000 0.000000 0.000000
1.960000 0.000000 0.000000
2.000000 0.039683 0.000000
2.000000 0.079365 0.000000
2.000000 0.119048 0.000000
2.000000 0.158730 0.000000
2.000000 0.198413 0.000000
2.000000 0.238095 0.000000
2.000000 0.277778 0.000000
2.000000 0.317460 0.000000
2.000000 0.357143 0.000000
2.000000 0.396825 0.000000
2.000000 0.436508 0.000000
2.000000 0.476190 0.000000
2.000000 0.515873 0.000000
2.000000 0.555556 0.000000
2.000000 0.595238 0.000000
2.000000 0.634921 0.000000
2.000000 0.674603 0.000000
2.000000 0.714286 0.000000
2.000000 0.753968 0.000000
2.000000 0.793651 0.000000
2.000000 0.833333 0.000000
2.000000 0.873016 0.000000
2.000000 0.912698 0.000000
2.000000 0.952381 0.000000
2.000000 0.992063 0.000000
2.000000 1.031746 0.000000
2.000000 1.071429 0.000000
2.000000 1.111111 0.000000
2.000000 1.150794 0.000000
2.000000 1.190476 0.000000
2.000000 1.230159 0.000000
2.000000 1.269841 0.000000
2.000000 1.309524 0.000000
2.000000 1.349206 0.000000
2.000000 1.388889 0.000000
2.000000 1.428571 0.000000
2.000000 1.468254 0.000000
2.000000 1.507937 0.000000
2.000000 1.547619 0.000000
2.000000 1.587302 0.000000
2.000000 1.626984 0.000000
2.000000 1.666667 0.000000
2.000000 1.706349 0.000000
2.000000 1.746032 0.000000
2.000000 1.785714 0.000000
2.000000 1.825397 0.000000
2.000000 1.865079 0.000000
2.000000 1.904762 0.000000
2.000000 1.944444 0.000000
2.000000 1.984127 0.000000
2.000000 2.023810 0.000000
2.000000 2.063492 0.000000
2.000000 2.103175 0.000000
2.000000 2.142857 0.000000
2.000000 2.182540 0.000000
2.000000 2.222222 0.000000
2.000000 2.261905 0.000000
2.000000 2.301587 0.000000
2.000000 2.341270 0.000000
2.000000 2.380952 0.000000
2.000000 2.420635 0.000000
2.000000 2.460317 0.000000
2.000000 2.539474 0.000000
2.000000 2.578947 0.000000
2.000000 2.618421 0.000000
2.000000 2.657895 0.000000
2.000000 2.697368 0.000000
2.000000 2.736842 0.000000
2.000000 2.776316 0.000000
2.000000 2.815789 0.000000
2.000000 2.855263 0.000000
2.000000 2.894737 0.000000
2.000000 2.934211 0.000000
2.000000 2.973684 0.000000
2.000000 3.013158 0.000000
2.000000 3.052632 0.000000
2.000000 3.092105 0.000000
2.000000 3.131579 0.000000
2.000000 3.171053 0.000000
2.000000 3.210526 0.000000
2.000000 3.250000 0.000000
2.000000 3.289474 0.000000
2.000000 3.328947 0.000000
2.000000 3.368421 0.000000
2.000000 3.407895 0.000000
2.000000 3.447368 0.000000
2.000000 3.486842 0.000000
2.000000 3.526316 0.000000
2.000000 3.565789 0.000000
2.000000 3.605263 0.000000
2.000000 3.644737 0.000000
2.000000 3.684211 0.000000
2.000000 3.723684 0.000000
2.000000 3.763158 0.000000
2.000000 3.802632 0.000000
2.000000 3.842105 0.000000
2.000000 3.881579 0.000000
2.000000 3.921053 0.000000
2.000000 3.960526 0.000000
1.960000 4.000000 0.000000
1.920000 4.000000 0.000000
1.880000 4.000000 0.000000
1.840000 4.000000 0.000000
1.800000 4.000000 0.000000
1.760000 4.000000 0.000000
1.720000 4.000000 0.000000
1.680000 4.000000 0.000000
1.640000 4.000000 0.000000
1.600000 4.000000 0.000000
1.560000 4.000000 0.000000
1.520000 4.000000 0.000000
1.480000 4.000000 0.000000
1.440000 4.000000 0.000000
1.400000 4.000000 0.000000
1.360000 4.000000 0.000000
1.320000 4.000000 0.000000
1.280000 4.000000 0.000000
1.240000 4.000000 0.000000
1.200000 4.000000 0.000000
1.160000 4.000000 0.000000
1.120000 4.000000 0.000000
1.080000 4.000000 0.000000
1.040000 4.000000 0.000000
1.000000 4.000000 0.000000
0.960000 4.000000 0.000000
0.920000 4.000000 0.000000
0.880000 4.000000 0.000000
0.840000 4.000000 0.000000
0.800000 4.000000 0.000000
0.760000 4.000000 0.000000
0.720000 4.000000 0.000000
0.680000 4.000000 0.000000
0.640000 4.000000 0.000000
0.600000 4.000000 0.000000
0.560000 4.000000 0.000000
0.520000 4.000000 0.000000
0.480000 4.000000 0.000000
0.440000 4.000000 0.000000
0.400000 4.000000 0.000000
0.360000 4.000000 0.000000
0.320000 4.000000 0.000000
0.280000 4.000000 0.000000
0.240000 4.000000 0.000000
0.200000 4.000000 0.000000
0.160000 4.000000 0.000000
0.120000 4.000000 0.000000
0.080000 4.000000 0.000000
0.040000 4.000000 0.000000
0.000000 3.960227 0.000000
0.000000 3.920455 0.000000
0.000000 3.880682 0.000000
0.000000 3.840909 0.000000
0.000000 3.801136 0.000000
0.000000 3.761364 0.000000
0.000000 3.721591 0.000000
0.000000 3.681818 0.000000
0.000000 3.642045 0.000000
0.000000 3.602273 0.000000
0.000000 3.562500 0.000000
0.000000 3.522727 0.000000
0.000000 3.482955 0.000000
0.000000 3.443182 0.000000
0.000000 3.403409 0.000000
0.000000 3.363636 0.000000
0.000000 3.323864 0.000000
0.000000 3.284091 0.000000
0.000000 3.244318 0.000000
0.000000 3.204545 0.000000
0.000000 3.164773 0.000000
0.000000 3.125000 0.000000
0.000000 3.085227 0.000000
0.000000 3.045455 0.000000
0.000000 3.005682 0.000000
0.000000 2.965909 0.000000
0.000000 2.926136 0.000000
0.000000 2.886364 0.000000
0.000000 2.846591 0.000000
0.000000 2.806818 0.000000
0.000000 2.767045 0.000000
0.000000 2.727273 0.000000
0.000000 2.687500 0.000000
0.000000 2.647727 0.000000
0.000000 2.607955 0.000000
0.000000 2.568182 0.000000
0.000000 2.528409 0.000000
0.000000 2.488636 0.000000
0.000000 2.448864 0.000000
0.000000 2.409091 0.000000
0.000000 2.369318 0.000000
0.000000 2.329545 0.000000
0.000000 2.289773 0.000000
0.000000 2.250000 0.000000
0.000000 2.210227 0.000000
0.000000 2.170455 0.000000
0.000000 2.130682 0.000000
0.000000 2.090909 0.000000
0.000000 2.051136 0.000000
0.000000 2.011364 0.000000
0.000000 1.971591 0.000000
0.000000 1.931818 0.000000
0.000000 1.892045 0.000000
0.000000 1.852273 0.000000
0.000000 1.812500 0.000000
0.000000 1.772727 0.000000
0.000000 1.732955 0.000000
0.000000 1.693182 0.000000
0.000000 1.653409 0.000000
0.000000 1.613636 0.000000
0.000000 1.573864 0.000000
0.000000 1.534091 0.000000
0.000000 1.494318 0.000000
0.000000 1.454545 0.000000
0.000000 1.414773 0.000000
0.000000 1.375000 0.000000
0.000000 1.335227 0.000000
0.000000 1.295455 0.000000
0.000000 1.255682 0.000000
0.000000 1.215909 0.000000
0.000000 1.176136 0.000000
0.000000 1.136364 0.000000
0.000000 1.096591 0.000000
0.000000 1.056818 0.000000
0.000000 1.017045 0.000000
0.000000 0.977273 0.000000
0.000000 0.937500 0.000000
0.000000 0.897727 0.000000
0.000000 0.857955 0.000000
0.000000 0.818182 0.000000
0.000000 0.778409 0.000000
0.000000 0.738636 0.000000
0.000000 0.698864 0.000000
0.000000 0.659091 0.000000
0.000000 0.619318 0.000000
0.000000 0.579545 0.000000
0.000000 0.539773 0.000000
0.000000 0.461538 0.000000
0.000000 0.423077 0.000000
0.000000 0.384615 0.000000
0.000000 0.346154 0.000000
0.000000 0.307692 0.000000
0.000000 0.269231 0.000000
0.000000 0.230769 0.000000
0.000000 0.192308 0.000000
0.000000 0.153846 0.000000
0.000000 0.115385 0.000000
0.000000 0.076923 0.000000
0.000000 0.038462 0.000000
0.027778 0.527778 0.000000
0.055556 0.555556 0.000000
0.083333 0.583333 0.000000
0.111111 0.611111 0.000000
0.138889 0.638889 0.000000
0.166667 0.666667 0.000000
0.194444 0.694444 0.000000
0.222222 0.722222 0.000000
0.250000 0.750000 0.000000
0.277778 0.777778 0.000000
0.305556 0.805556 0.000000
0.333333 0.833333 0.000000
0.361111 0.861111 0.000000
0.388889 0.888889 0.000000
0.416667 0.916667 0.000000
0.444444 0.944444 0.000000
0.472222 0.972222 0.000000
0.500000 1.000000 0.000000
0.527778 1.027778 0.000000
0.555556 1.055556 0.000000
0.583333 1.083333 0.000000
0.611111 1.111111 0.000000
0.638889 1.138889 0.000000
0.666667 1.166667 0.000000
0.694444 1.194444 0.000000
0.722222 1.222222 0.000000
0.750000 1.250000 0.000000
0.777778 1.277778 0.000000
0.805556 1.305556 0.000000
0.833333 1.333333 0.000000
0.861111 1.361111 0.000000
0.888889 1.388889 0.000000
0.916667 1.416667 0.000000
0.944444 1.444444 0.000000
0.972222 1.472222 0.000000
1.000000 1.500000 0.000000
1.027778 1.527778 0.000000
1.055556 1.555556 0.000000
1.083333 1.583333 0.000000
1.111111 1.611111 0.000000
1.138889 1.638889 0.000000
1.166667 1.666667 0.000000
1.194444 1.694444 0.000000
1.222222 1.722222 0.000000
1.250000 1.750000 0.000000
1.277778 1.777778 0.000000
1.305556 1.805556 0.000000
1.333333 1.833333 0.000000
1.361111 1.861111 0.000000
1.388889 1.888889 0.000000
1.416667 1.916667 0.000000
1.444444 1.944444 0.000000
1.472222 1.972222 0.000000
1.527778 2.027778 0.000000
1.555556 2.055556 0.000000
1.583333 2.083333 0.000000
1.611111 2.111111 0.000000
1.638889 2.138889 0.000000
1.666667 2.166667 0.000000
1.694444 2.194444 0.000000
1.722222 2.222222 0.000000
1.750000 2.250000 0.000000
1.777778 2.277778 0.000000
1.805556 2.305556 0.000000
[...]
POINT_DATA 6577
SCALARS UX float 1
LOOKUP_TABLE default
-0.000007
0.000018
-0.000478
-0.091437
-0.048014
-0.005501
0.009229
0.000000
-0.000000
-0.000001
0.000000
0.000001
-0.000004
0.000000
0.000000
0.000001
0.000000
0.000000
0.000000
0.000001
0.000000
-0.000000
0.000000
0.000000
0.000001
0.000000
-0.000000
-0.000000
0.000000
-0.000000
0.000000
0.000000
0.000000
-0.000000
0.000000
0.000000
-0.000000
0.000000
0.000000
-0.000001
0.000000
0.000000
-0.000001
0.000001
0.000001
-0.000001
-0.000001
-0.000000
-0.000000
-0.000002
0.000000
-0.000002
0.000002
0.000002
-0.000008
0.000005
0.007778
0.013707
0.017836
0.021472
0.024489
0.027115
0.029539
0.031618
0.033494
0.035357
0.036854
0.038200
0.039524
0.040813
0.041968
0.042928
0.043893
0.044753
0.045475
0.046036
0.046498
0.047021
0.047569
0.047910
0.048209
0.048526
0.048704
0.048975
0.049116
0.049100
0.049097
0.049079
0.048965
0.048810
0.048587
0.048465
0.048225
0.047800
0.047173
0.046632
0.046126
0.045391
0.044529
0.043607
0.042419
0.041091
0.039342
0.037571
0.035766
0.033142
0.030775
0.028576
0.026322
0.024027
0.021950
0.019490
0.018077
0.015919
0.014337
0.012938
0.011548
0.010369
0.008428
0.007722
0.007048
0.006333
0.005749
0.004809
0.004155
0.003823
0.003499
0.003329
0.002781
0.002539
0.002314
0.002086
0.001798
0.001339
0.001174
0.001250
0.001171
0.000724
0.000455
0.000581
0.000369
0.000390
0.000242
0.000061
0.000046
-0.000099
-0.000180
-0.000350
-0.000480
-0.000431
-0.000575
-0.000386
-0.000443
-0.000468
-0.000319
-0.002394
-0.004401
-0.006370
-0.008316
-0.010226
-0.012272
-0.014101
-0.016053
-0.017972
-0.019848
-0.021789
-0.023729
-0.025573
-0.027470
-0.029331
-0.031218
-0.033071
-0.034830
-0.036729
-0.038457
-0.040288
-0.042046
-0.043845
-0.045603
-0.047396
-0.049200
-0.051014
-0.052802
-0.054616
-0.056373
-0.058156
-0.059900
-0.061595
-0.063379
-0.065118
-0.067013
-0.068750
-0.070518
-0.072239
-0.074022
-0.075817
-0.077486
-0.079287
-0.081106
-0.082840
-0.084520
-0.086265
-0.088010
-0.089718
-0.091457
-0.091431
-0.091511
-0.091451
-0.091244
-0.091192
-0.091180
-0.090996
-0.090770
-0.090772
-0.090591
-0.090456
-0.090261
-0.090297
-0.089933
-0.089856
-0.089575
-0.089318
-0.089277
-0.088850
-0.088728
-0.088587
-0.088233
-0.087983
-0.087779
-0.087446
-0.087008
-0.086696
-0.086662
-0.086289
-0.086182
-0.085792
-0.085490
-0.085430
-0.084951
-0.084929
-0.084534
-0.084539
-0.084362
-0.084166
-0.083943
-0.083989
-0.083853
-0.083719
-0.083631
-0.083648
-0.083571
-0.083517
-0.083457
-0.083509
-0.083654
-0.083817
-0.084042
-0.084201
-0.084482
-0.084832
-0.085127
-0.085465
-0.085788
-0.086046
-0.086611
-0.087267
-0.087778
-0.088335
-0.088862
-0.089431
-0.090125
-0.090785
-0.091394
-0.091973
-0.092519
-0.093007
-0.093262
-0.093471
-0.093313
-0.092808
-0.092115
-0.090984
-0.089292
-0.086933
-0.084806
-0.082978
-0.081335
-0.080809
-0.074938
-0.067570
-0.056886
-0.033148
-0.033294
-0.031281
-0.029568
-0.028013
-0.026323
-0.024380
-0.022047
-0.019382
-0.016100
-0.012304
-0.007366
-0.043463
-0.044922
-0.044997
-0.051450
-0.044340
-0.033432
-0.051107
-0.042556
-0.045098
-0.051111
-0.046894
-0.051693
-0.043570
-0.037561
-0.031482
-0.030021
-0.033195
-0.031486
-0.028763
-0.034990
-0.046309
-0.035695
-0.031911
-0.041432
-0.035101
-0.037192
-0.018476
-0.026197
-0.032826
-0.034758
-0.024081
-0.030114
-0.022138
-0.019882
-0.034658
-0.024446
-0.023941
-0.020550
-0.020835
-0.019931
-0.014249
-0.014955
-0.006059
-0.012808
-0.014862
-0.010234
-0.008208
-0.008013
-0.009101
-0.010234
-0.002461
-0.004572
-0.003561
-0.001313
-0.000186
0.000615
0.001287
0.001702
0.002400
0.002779
0.003146
0.003488
0.003927
0.004174
0.004760
0.005216
0.005871
0.006839
0.007443
0.008348
0.006011
0.005832
-0.090371
-0.090320
-0.002182
-0.002057
0.006777
0.006898
0.004962
0.003824
0.002394
-0.017780
-0.019115
-0.019353
-0.033879
-0.033218
-0.031783
-0.020593
-0.066623
-0.065197
-0.065490
-0.023412
-0.022052
-0.021608
-0.082652
-0.083341
-0.081779
-0.084349
-0.086142
-0.085529
-0.023339
-0.010771
-0.009185
-0.010029
-0.023406
-0.024790
-0.022940
-0.083057
-0.082771
-0.081396
-0.066792
-0.029175
-0.028934
-0.030620
-0.030183
-0.031467
-0.031974
-0.024924
-0.024553
-0.026299
-0.025447
-0.067749
-0.069367
-0.068892
-0.069005
-0.067007
-0.068615
-0.067340
-0.069215
-0.026793
-0.024851
-0.026251
-0.030441
-0.045369
-0.045328
-0.044029
0.002519
0.003267
-0.043164
-0.073834
-0.073978
-0.072193
-0.075757
-0.070237
-0.070108
-0.068357
-0.044978
-0.046319
-0.046303
-0.045053
-0.015789
-0.015376
-0.013253
-0.013864
-0.064376
-0.066190
-0.066123
-0.064769
-0.034115
-0.032598
-0.033975
-0.066450
-0.064138
-0.064736
0.002022
0.003864
0.001964
0.003333
0.002336
0.003631
0.001088
-0.070580
-0.072072
-0.072170
-0.020382
-0.022054
-0.021856
-0.023658
-0.033217
-0.084372
-0.085895
-0.084682
-0.053356
-0.051954
-0.052030
-0.054027
-0.072952
-0.074482
-0.072956
-0.074361
-0.068491
-0.067428
-0.069004
-0.046357
-0.046776
-0.048120
-0.011002
-0.012550
-0.012143
-0.010282
-0.007460
-0.006109
0.002961
-0.050444
-0.049528
-0.050927
-0.051381
-0.052345
-0.052660
-0.065497
-0.063451
-0.068334
-0.068689
-0.067038
-0.077875
-0.077044
-0.076666
-0.069955
-0.045615
-0.047406
-0.045408
-0.081156
-0.080542
-0.081890
-0.067050
-0.056193
-0.055343
-0.057155
-0.046740
-0.045367
-0.046783
-0.071695
-0.074298
-0.077330
-0.007122
-0.004807
-0.007093
-0.004313
-0.025850
-0.026906
-0.027281
-0.028562
0.004120
0.004829
-0.041903
-0.040943
-0.042324
-0.040070
-0.082959
-0.084541
-0.083773
-0.050208
-0.048809
-0.049848
-0.052035
-0.053951
-0.052097
-0.049393
-0.085701
-0.064625
-0.062673
-0.063564
-0.062947
-0.064262
-0.064677
-0.066264
-0.063856
-0.083919
-0.083809
-0.054641
-0.053755
-0.055530
-0.082674
-0.083254
-0.041008
-0.040208
-0.042353
-0.079476
-0.081133
-0.079917
-0.081663
-0.080315
-0.079829
-0.076077
-0.077929
-0.076952
-0.078647
-0.074119
-0.075871
-0.075044
-0.038756
-0.039714
-0.028452
-0.039624
-0.083827
-0.085486
-0.084791
-0.086410
-0.089216
-0.088940
-0.003462
-0.003744
-0.020564
-0.020448
-0.018519
-0.022036
-0.059593
-0.059515
-0.058195
-0.072722
-0.074265
-0.073910
-0.057756
-0.022867
-0.022020
-0.023562
-0.074905
-0.075965
-0.087483
-0.087009
-0.086137
-0.043819
-0.042554
-0.002108
-0.002382
0.000037
0.000092
-0.074195
-0.075874
-0.075642
-0.077253
-0.086930
-0.085415
-0.087026
-0.084744
-0.079352
-0.080620
-0.078747
-0.082888
-0.081605
-0.090333
-0.090914
-0.091723
-0.079401
-0.079412
-0.082136
-0.084137
-0.082355
-0.074820
-0.074323
-0.007369
-0.005398
-0.076332
-0.078310
-0.077798
-0.085355
-0.068649
-0.070349
-0.068951
-0.079960
-0.079815
-0.013556
-0.014635
-0.015397
-0.012569
-0.021336
-0.019767
-0.020224
-0.049200
-0.049681
-0.050668
-0.041481
-0.041198
-0.013272
-0.011742
-0.012204
-0.048349
-0.043454
-0.044378
-0.045030
-0.085603
-0.087700
-0.086023
-0.073455
-0.073891
-0.072318
-0.017718
-0.075175
-0.076755
-0.075022
-0.072674
-0.072329
-0.074768
-0.075703
-0.078263
-0.016393
-0.075152
-0.064623
-0.070187
-0.071914
-0.071509
-0.071031
-0.070850
-0.084012
-0.084482
-0.081546
-0.086471
-0.070985
-0.070312
-0.071909
-0.004978
-0.004084
-0.072967
-0.073201
-0.072949
-0.070995
-0.070988
-0.065944
-0.089879
-0.085909
-0.084411
-0.085058
-0.083312
-0.083583
-0.001999
-0.062493
-0.061124
-0.088218
-0.087739
-0.069389
-0.069516
-0.004612
-0.003935
-0.046373
-0.044245
-0.076650
-0.026694
-0.026212
-0.025460
-0.024493
-0.082057
-0.080401
-0.067435
-0.069024
-0.067533
-0.077818
-0.079820
-0.080802
-0.078390
-0.086148
-0.069181
-0.009036
-0.055866
-0.057565
-0.056479
-0.083874
-0.085732
-0.083467
-0.088364
-0.087356
-0.088399
-0.086569
-0.087505
-0.058279
-0.057385
-0.007611
-0.006121
-0.006669
-0.074914
-0.069838
-0.040683
-0.038680
-0.085914
-0.086326
-0.085108
-0.062254
-0.061031
-0.077623
-0.082014
-0.082660
-0.073364
-0.069158
-0.073546
-0.075271
-0.014241
-0.014711
-0.012720
-0.077275
-0.078789
-0.084907
-0.084059
-0.081102
-0.087527
-0.060832
-0.044208
-0.043860
-0.082634
-0.090006
-0.086823
-0.084737
-0.089738
-0.087308
-0.086723
-0.028528
-0.028405
-0.026415
-0.071240
-0.002275
-0.004758
-0.003100
-0.005706
-0.081019
-0.082045
-0.083581
-0.078335
-0.071926
-0.071743
-0.068275
-0.069041
-0.069287
-0.069662
-0.069477
-0.088530
-0.072792
-0.072335
-0.070684
-0.010445
-0.074308
-0.074515
-0.075715
-0.082638
-0.026883
-0.008695
-0.008883
-0.007232
-0.087414
-0.085533
-0.090696
-0.084035
-0.084141
-0.085417
-0.080639
-0.082009
-0.084019
-0.078318
-0.089264
-0.015780
-0.016272
-0.066463
-0.068557
-0.026622
-0.000762
0.001028
0.001171
-0.089433
-0.088583
-0.086758
-0.085850
-0.003890
-0.002343
-0.016877
-0.015628
-0.016793
-0.018241
-0.076913
-0.076795
-0.075201
-0.067730
-0.005751
-0.006609
-0.087522
-0.085675
-0.091318
-0.079621
-0.081589
-0.083771
-0.079148
-0.067617
-0.010586
-0.012034
-0.018589
-0.082598
-0.081213
-0.033503
-0.032113
-0.033824
-0.089173
-0.010472
-0.008533
-0.082575
-0.084266
-0.085490
-0.090718
-0.075729
-0.083488
0.005159
0.003460
-0.079538
-0.035737
-0.015065
-0.016939
-0.015412
-0.079370
-0.081029
-0.083236
-0.078310
-0.015177
-0.013807
-0.014657
-0.087727
-0.032621
-0.016978
-0.085877
-0.084801
-0.088593
-0.004594
-0.003098
-0.040532
-0.039274
-0.039000
-0.006526
-0.007741
-0.088878
-0.040869
-0.040113
-0.004962
-0.002700
-0.004557
-0.077312
-0.078743
-0.077630
-0.079395
-0.015144
-0.058806
0.002453
0.004318
-0.013692
-0.072456
-0.074088
-0.087699
-0.078962
-0.076200
-0.077908
-0.080384
-0.082502
-0.076574
-0.012150
-0.002097
-0.029076
-0.027506
-0.027880
-0.081044
-0.028749
-0.058088
-0.057057
-0.059156
-0.012000
-0.009969
-0.013691
-0.081168
-0.082784
-0.079705
-0.084243
-0.088572
-0.085746
-0.024427
-0.023889
-0.022327
-0.025532
-0.012640
-0.083606
-0.080124
-0.078873
-0.081850
-0.010824
-0.076675
-0.077141
-0.075406
-0.079816
-0.081629
-0.076099
-0.075683
-0.069966
-0.000365
-0.006153
-0.006338
-0.004697
-0.041798
-0.043274
-0.041507
-0.042597
0.000136
-0.010287
-0.010995
-0.086610
-0.078565
-0.036852
-0.036708
-0.035330
-0.084869
-0.084102
-0.088137
-0.005395
-0.070733
-0.070445
-0.007542
-0.008486
-0.003254
-0.035943
-0.037407
-0.033742
-0.033806
-0.035599
-0.068299
-0.068092
-0.067840
-0.035013
-0.066235
-0.013952
-0.066315
-0.066220
-0.074502
-0.079575
-0.017413
-0.082607
-0.025944
-0.024275
-0.025941
-0.013402
-0.024354
-0.015432
-0.079799
-0.027381
-0.025502
-0.078000
-0.026953
-0.048200
-0.047824
-0.049231
-0.071571
0.000190
-0.078623
-0.051062
-0.049116
-0.050381
-0.046805
-0.040264
-0.039726
-0.041252
-0.031962
-0.030437
-0.071203
-0.072962
-0.086955
-0.086290
-0.084865
-0.040483
-0.082488
-0.082508
-0.075124
-0.076959
-0.033262
-0.031760
-0.083609
-0.085304
-0.079281
-0.080849
-0.084017
-0.085297
-0.083199
-0.004898
-0.005726
-0.004110
-0.006571
-0.068696
0.000750
0.000841
-0.001125
-0.069583
-0.069163
-0.067032
-0.066663
-0.001033
-0.035720
-0.034146
-0.035710
-0.066520
-0.059533
-0.060728
-0.014289
-0.088928
-0.087801
-0.087189
-0.065124
-0.064997
-0.061083
-0.084076
-0.047467
-0.047267
-0.045517
-0.081539
-0.083064
-0.073432
-0.062179
-0.035640
-0.037621
-0.021978
-0.023459
-0.022318
-0.037955
-0.067032
-0.067073
-0.068399
-0.065420
-0.008568
-0.007612
-0.001480
0.001080
-0.040286
-0.041610
-0.042011
-0.009040
-0.010834
-0.009195
-0.043558
-0.034356
-0.030652
-0.032154
-0.030665
-0.077966
-0.079894
-0.080498
-0.070024
-0.071665
-0.029055
-0.027526
-0.029288
-0.071156
-0.070023
-0.071390
-0.082192
-0.077499
-0.074131
-0.075803
-0.078432
-0.080137
-0.081415
-0.049281
-0.047586
-0.049051
-0.068338
-0.067845
-0.067450
-0.078336
-0.079226
-0.079529
-0.087247
-0.088395
-0.088984
-0.086497
-0.065818
-0.065375
-0.068361
-0.070235
-0.078030
-0.077337
-0.076223
-0.065264
-0.088485
-0.080785
-0.082375
-0.079858
-0.063912
-0.000571
-0.063814
-0.072391
-0.068881
-0.070626
-0.011935
-0.012475
-0.013301
-0.076799
-0.078806
-0.072993
-0.074770
-0.076640
-0.084848
-0.077833
-0.078431
-0.079254
-0.077322
-0.077679
-0.079753
-0.001005
-0.002031
-0.002759
-0.004331
-0.067233
-0.066697
-0.066252
-0.064819
-0.064678
-0.082929
-0.082463
-0.050622
-0.048693
-0.049030
-0.049300
-0.033104
-0.030910
-0.032070
-0.015193
-0.064133
-0.062794
-0.062664
-0.071331
-0.067849
-0.069650
-0.078549
-0.035449
-0.037230
-0.035629
-0.031794
-0.072208
-0.073793
-0.075690
-0.076720
-0.078990
-0.081731
-0.066068
-0.065510
-0.027153
-0.025590
-0.026653
-0.025769
-0.065058
-0.080393
-0.079275
-0.013991
-0.012558
-0.014164
-0.033733
-0.006545
-0.007827
-0.005904
-0.004268
-0.072465
-0.073529
-0.063457
-0.063264
-0.004626
-0.002626
-0.004692
-0.074619
-0.076349
-0.074518
-0.086382
-0.085727
-0.027265
-0.028030
-0.027042
-0.067579
-0.068579
-0.067074
-0.068362
-0.066837
-0.068570
-0.070381
-0.028450
-0.071410
-0.072747
-0.076949
-0.076374
-0.024785
-0.039371
-0.022946
-0.023693
-0.021405
-0.074614
-0.024452
-0.023683
-0.075773
-0.078200
-0.065064
-0.064404
-0.021016
-0.020577
-0.022861
-0.072771
-0.072654
-0.070770
-0.025201
-0.007130
-0.005995
-0.074662
-0.018367
-0.016674
-0.063788
-0.019440
-0.066057
-0.062191
-0.061822
-0.054081
-0.052186
-0.054490
-0.034784
-0.033878
-0.037088
-0.036124
-0.037624
-0.035195
-0.043798
-0.043800
-0.045285
-0.044963
-0.074184
-0.069682
-0.070476
-0.072048
-0.010750
-0.011617
-0.013652
-0.077614
-0.020853
-0.021890
-0.065902
-0.067651
-0.046413
-0.046107
-0.047656
-0.047356
-0.069456
-0.027874
-0.027429
-0.070801
-0.073268
-0.036224
-0.014815
-0.013206
-0.013089
-0.019923
-0.019832
-0.084405
-0.073220
-0.073430
-0.064080
-0.063399
-0.025122
-0.076204
-0.075116
-0.015754
-0.017673
-0.015660
-0.062774
-0.024312
-0.024242
-0.061066
-0.060503
-0.080883
-0.079194
-0.077978
-0.068127
-0.070061
-0.069743
-0.084582
-0.081705
-0.049159
-0.047236
-0.047945
-0.064951
-0.066772
-0.076245
-0.075074
-0.013720
-0.068560
-0.056039
-0.055020
-0.056867
-0.055831
-0.017343
-0.043523
-0.044134
-0.045372
-0.073421
-0.071946
-0.073272
-0.071450
-0.019662
-0.021008
-0.019242
-0.021418
-0.070049
-0.072232
-0.065348
-0.066524
-0.025377
-0.026362
-0.045053
-0.046005
-0.081586
-0.004451
-0.005729
-0.006252
-0.008156
-0.044043
-0.044484
-0.045624
-0.029356
-0.030950
-0.028888
-0.001368
-0.001320
-0.002999
-0.067747
-0.069208
-0.069043
-0.063166
-0.062287
-0.022536
-0.020561
-0.021502
-0.031572
-0.001336
-0.002864
-0.061647
-0.059722
-0.059095
-0.064250
-0.063139
-0.062434
-0.061390
-0.063850
-0.065732
-0.023887
-0.025614
-0.024265
-0.033670
-0.030733
-0.030441
-0.067737
-0.069195
-0.071495
-0.062088
-0.061212
-0.029795
-0.044149
-0.045487
-0.044086
-0.060452
-0.046092
-0.023369
-0.024772
-0.024842
-0.058450
-0.057698
-0.062933
-0.064816
-0.065668
-0.064745
-0.066844
-0.068284
-0.070048
-0.002608
-0.003466
-0.006411
-0.005363
-0.081281
-0.082362
-0.080569
-0.061101
-0.060115
-0.061160
-0.060298
-0.061109
-0.003449
-0.005495
-0.003799
-0.002736
-0.005112
-0.006865
-0.007583
-0.026185
-0.059271
-0.057183
-0.056505
-0.021648
-0.019990
-0.032299
-0.030772
-0.032271
-0.031270
-0.061898
-0.063945
-0.066135
-0.062629
-0.067350
-0.069179
-0.060061
-0.059077
-0.022419
-0.022730
-0.020517
-0.007279
-0.007665
-0.009233
-0.023760
-0.024106
-0.046730
-0.045864
-0.056374
-0.057354
-0.070436
-0.070688
-0.072251
-0.057981
-0.055756
-0.055211
-0.046308
-0.073585
-0.073632
-0.074995
-0.005077
-0.002851
-0.061029
-0.063107
-0.022855
-0.028864
-0.028370
-0.030320
-0.065225
-0.066189
-0.029751
-0.031616
-0.073711
-0.074206
-0.018181
-0.018884
-0.034361
-0.059169
-0.058142
-0.066599
-0.061907
-0.060474
-0.061664
-0.057138
-0.055492
-0.078674
-0.080345
-0.060548
-0.062240
-0.018616
-0.077668
-0.079150
-0.075043
-0.080052
-0.078466
-0.058498
-0.057082
-0.009130
-0.042784
-0.046843
-0.071759
-0.043734
-0.043293
-0.044597
-0.056130
-0.054316
-0.042771
-0.040840
-0.074581
-0.072800
-0.072445
-0.059914
-0.061794
-0.042589
-0.016987
-0.019039
-0.050444
-0.050745
-0.049312
-0.020229
-0.082022
-0.038856
-0.048193
-0.049927
-0.048878
-0.039259
-0.070128
-0.071730
-0.050573
-0.046862
-0.050854
-0.048812
-0.066479
-0.066792
-0.064864
-0.048785
-0.050302
-0.057908
-0.056652
-0.069742
-0.055089
-0.053160
-0.058971
-0.061137
-0.064851
-0.066036
-0.079226
-0.011869
-0.009180
-0.013162
-0.015369
-0.009116
-0.008076
-0.007513
-0.075499
-0.046351
-0.047461
-0.045633
-0.047634
-0.045888
-0.072527
-0.072491
-0.070560
-0.039075
-0.038747
-0.040277
-0.000803
-0.000226
-0.001888
-0.057895
-0.037538
-0.053472
-0.052994
-0.054719
-0.054387
-0.050829
-0.052456
-0.051557
-0.050950
-0.027914
-0.086007
-0.087366
-0.086158
-0.020255
-0.020443
-0.021921
-0.053460
-0.026609
-0.028233
-0.026486
-0.028533
-0.029598
-0.056066
-0.010422
-0.008723
-0.008090
-0.038250
-0.080510
-0.078638
-0.079382
-0.079569
-0.011148
-0.045016
-0.043570
-0.043525
-0.045095
-0.025135
-0.026255
-0.024971
-0.001462
-0.026933
-0.072768
-0.073873
-0.073976
-0.075373
-0.084343
-0.082464
-0.076334
-0.075220
-0.073336
-0.081678
-0.033712
-0.067269
-0.068784
-0.067245
-0.068325
-0.065045
-0.063996
-0.064009
-0.065582
-0.066118
-0.067526
-0.066129
-0.067921
-0.055562
-0.054225
-0.055797
-0.025188
-0.029381
-0.008023
-0.005778
-0.006800
-0.006857
-0.005557
-0.007506
-0.057339
-0.058898
-0.057840
-0.059661
-0.053839
-0.084158
-0.084379
-0.085782
-0.019314
-0.020447
-0.085473
-0.047195
-0.027120
-0.027764
-0.026000
-0.027738
-0.025566
-0.050642
-0.052344
-0.019130
-0.075071
-0.073281
-0.074178
-0.072713
-0.078870
-0.002621
-0.002908
-0.040855
-0.010952
-0.011536
-0.012492
-0.014789
-0.012728
-0.013693
-0.009753
-0.035746
-0.034516
-0.035996
-0.034775
-0.018959
-0.039059
-0.040742
-0.040491
-0.071503
-0.070481
-0.046536
-0.047520
-0.048499
-0.049103
-0.071601
-0.072506
-0.071093
-0.072652
-0.073530
-0.030422
-0.031929
-0.057592
-0.056992
-0.056032
-0.058194
-0.059279
-0.060366
-0.060863
-0.057829
-0.058353
-0.057102
-0.059361
-0.052250
-0.050659
-0.012102
-0.014171
-0.011225
-0.034094
-0.035295
-0.036151
-0.047981
-0.033810
-0.009178
-0.010609
-0.069085
-0.070861
-0.069782
-0.070274
-0.057462
-0.028574
-0.028621
-0.034861
-0.036662
-0.037417
-0.079436
-0.080018
-0.077643
-0.078772
-0.077047
-0.021970
-0.060598
-0.058692
-0.003883
-0.002979
-0.002016
-0.004300
-0.005767
-0.042048
-0.042983
-0.048729
-0.050300
-0.049152
-0.044725
-0.042871
-0.044508
-0.046591
-0.042648
-0.035988
-0.036664
-0.034830
-0.070991
-0.035422
-0.070053
-0.038211
-0.036911
-0.039669
-0.024597
-0.023630
-0.023679
-0.051666
-0.051593
-0.050128
-0.053186
-0.052038
-0.053410
-0.028664
-0.027205
-0.026889
-0.043493
-0.043536
-0.041883
-0.042476
-0.047283
-0.081672
-0.080402
-0.019907
-0.020897
-0.021938
-0.020409
-0.069500
-0.068894
-0.065186
-0.066435
-0.031107
-0.072091
-0.071356
-0.073015
-0.073766
-0.074677
-0.075567
-0.069031
-0.070686
-0.068575
-0.062891
-0.064525
-0.067828
-0.056289
-0.058152
-0.057812
-0.059531
-0.060871
-0.061982
-0.060441
-0.062808
-0.008472
-0.009690
-0.072622
-0.004192
-0.010319
-0.011310
-0.012476
-0.013400
-0.014543
-0.073493
-0.072817
-0.074163
-0.080721
-0.079789
-0.081178
-0.034775
-0.034273
-0.036020
-0.060176
-0.061739
-0.044063
-0.042201
-0.058490
-0.059601
-0.058449
-0.015617
-0.017252
-0.015618
-0.017769
-0.054250
-0.056106
-0.054870
-0.055513
-0.039551
-0.038071
-0.036591
-0.041133
-0.040680
-0.041953
-0.078463
-0.013519
-0.012281
-0.013951
-0.012235
-0.015040
-0.012865
-0.031062
-0.030088
-0.030040
-0.031601
-0.030226
-0.057392
-0.057931
-0.056653
-0.056753
-0.058896
-0.057711
-0.017879
-0.017373
-0.059223
-0.060160
-0.060590
-0.000282
-0.002823
-0.061675
-0.031299
-0.032423
-0.032126
-0.058321
-0.009860
-0.015748
-0.014204
-0.015596
-0.017629
-0.016171
-0.015872
-0.006998
-0.008356
-0.007383
-0.005896
-0.070241
-0.069391
-0.039900
-0.039398
-0.038366
-0.041246
-0.037113
-0.037462
-0.036116
-0.077013
-0.077597
-0.077743
-0.025898
-0.025604
-0.027454
-0.047587
-0.048894
-0.082390
-0.082248
-0.046361
-0.062079
-0.061233
-0.062395
-0.062048
-0.060523
-0.060395
-0.059356
-0.082742
-0.082403
-0.083755
-0.081374
-0.082871
-0.081804
-0.085554
-0.084846
-0.086542
-0.085173
-0.052511
-0.051985
-0.034714
-0.053031
-0.050959
-0.076976
-0.078550
-0.063311
-0.061645
-0.064957
-0.063698
-0.080333
-0.081112
-0.078306
-0.076232
-0.077288