# vtk DataFile Version 2.0
Test
ASCII
DATASET POLYDATA
POINTS 6577 float
0.000000 0.000000 0.000000
2.000000 0.000000 0.000000
2.000000 4.000000 0.000000
0.000000 4.000000 0.000000
0.000000 0.500000 0.000000
1.500000 2.000000 0.000000
2.000000 2.500000 0.000000
0.040000 0.000000 0.000000
0.080000 0.000000 0.000000
0.120000 0.000000 0.000000
0.160000 0.000000 0.000000
0.200000 0.000000 0.000000
0.240000 0.000000 0.000000
0.280000 0.000000 0.000000
0.320000 0.000000 0.000000
0.360000 0.000000 0.000000
0.400000 0.000000 0.000000
0.440000 0.000000 0.000000
0.480000 0.000000 0.000000
0.520000 0.000000 0.000000
0.560000 0.000000 0.000000
0.600000 0.000000 0.000000
0.640000 0.000000 0.000000
0.680000 0.000000 0.000000
0.720000 0.000000 0.000000
0.760000 0.000000 0.000000
0.800000 0.000000 0.000000
0.840000 0.000000 0.000000
0.880000 0.000000 0.000000
0.920000 0.000000 0.000000
0.960000 0.000000 0.000000
1.000000 0.000000 0.000000
1.040000 0.000000 0.000000
1.080000 0.000000 0.000000
1.120000 0.000000 0.000000
1.160000 0.000000 0.000000
1.200000 0.000000 0.000000
1.240000 0.000000 0.000000
1.280000 0.000000 0.000000
1.320000 0.000000 0.000000
1.360000 0.000000 0.000000
1.400000 0.000000 0.000000
1.440000 0.000000 0.000000
1.480000 0.000000 0.000000
1.520000 0.000000 0.000000
1.560000 0.000000 0.000000
1.600000 0.000000 0.000000
1.640000 0.000000 0.000000
1.680000 0.000000 0.000000
1.720000 0.000000 0.000000
1.760000 0.000000 0.000000
1.800000 0.000000 0.000000
1.840000 0.000000 0.000000
1.880000 0.000000 0.000000
1.920000 0.000000 0.000000
1.960000 0.000000 0.000000
2.000000 0.039683 0.000000
2.000000 0.079365 0.000000
2.000000 0.119048 0.000000
2.000000 0.158730 0.000000
2.000000 0.198413 0.000000
2.000000 0.238095 0.000000
2.000000 0.277778 0.000000
2.000000 0.317460 0.000000
2.000000 0.357143 0.000000
2.000000 0.396825 0.000000
2.000000 0.436508 0.000000
2.000000 0.476190 0.000000
2.000000 0.515873 0.000000
2.000000 0.555556 0.000000
2.000000 0.595238 0.000000
2.000000 0.634921 0.000000
2.000000 0.674603 0.000000
2.000000 0.714286 0.000000
2.000000 0.753968 0.000000
2.000000 0.793651 0.000000
2.000000 0.833333 0.000000
2.000000 0.873016 0.000000
2.000000 0.912698 0.000000
2.000000 0.952381 0.000000
2.000000 0.992063 0.000000
2.000000 1.031746 0.000000
2.000000 1.071429 0.000000
2.000000 1.111111 0.000000
2.000000 1.150794 0.000000
2.000000 1.190476 0.000000
2.000000 1.230159 0.000000
2.000000 1.269841 0.000000
2.000000 1.309524 0.000000
2.000000 1.349206 0.000000
2.000000 1.388889 0.000000
2.000000 1.428571 0.000000
2.000000 1.468254 0.000000
2.000000 1.507937 0.000000
2.000000 1.547619 0.000000
2.000000 1.587302 0.000000
2.000000 1.626984 0.000000
2.000000 1.666667 0.000000
2.000000 1.706349 0.000000
2.000000 1.746032 0.000000
2.000000 1.785714 0.000000
2.000000 1.825397 0.000000
2.000000 1.865079 0.000000
2.000000 1.904762 0.000000
2.000000 1.944444 0.000000
2.000000 1.984127 0.000000
2.000000 2.023810 0.000000
2.000000 2.063492 0.000000
2.000000 2.103175 0.000000
2.000000 2.142857 0.000000
2.000000 2.182540 0.000000
2.000000 2.222222 0.000000
2.000000 2.261905 0.000000
2.000000 2.301587 0.000000
2.000000 2.341270 0.000000
2.000000 2.380952 0.000000
2.000000 2.420635 0.000000
2.000000 2.460317 0.000000
2.000000 2.539474 0.000000
2.000000 2.578947 0.000000
2.000000 2.618421 0.000000
2.000000 2.657895 0.000000
2.000000 2.697368 0.000000
2.000000 2.736842 0.000000
2.000000 2.776316 0.000000
2.000000 2.815789 0.000000
2.000000 2.855263 0.000000
2.000000 2.894737 0.000000
2.000000 2.934211 0.000000
2.000000 2.973684 0.000000
2.000000 3.013158 0.000000
2.000000 3.052632 0.000000
2.000000 3.092105 0.000000
2.000000 3.131579 0.000000
2.000000 3.171053 0.000000
2.000000 3.210526 0.000000
2.000000 3.250000 0.000000
2.000000 3.289474 0.000000
2.000000 3.328947 0.000000
2.000000 3.368421 0.000000
2.000000 3.407895 0.000000
2.000000 3.447368 0.000000
2.000000 3.486842 0.000000
2.000000 3.526316 0.000000
2.000000 3.565789 0.000000
2.000000 3.605263 0.000000
2.000000 3.644737 0.000000
2.000000 3.684211 0.000000
2.000000 3.723684 0.000000
2.000000 3.763158 0.000000
2.000000 3.802632 0.000000
2.000000 3.842105 0.000000
2.000000 3.881579 0.000000
2.000000 3.921053 0.000000
2.000000 3.960526 0.000000
1.960000 4.000000 0.000000
1.920000 4.000000 0.000000
1.880000 4.000000 0.000000
1.840000 4.000000 0.000000
1.800000 4.000000 0.000000
1.760000 4.000000 0.000000
1.720000 4.000000 0.000000
1.680000 4.000000 0.000000
1.640000 4.000000 0.000000
1.600000 4.000000 0.000000
1.560000 4.000000 0.000000
1.520000 4.000000 0.000000
1.480000 4.000000 0.000000
1.440000 4.000000 0.000000
1.400000 4.000000 0.000000
1.360000 4.000000 0.000000
1.320000 4.000000 0.000000
1.280000 4.000000 0.000000
1.240000 4.000000 0.000000
1.200000 4.000000 0.000000
1.160000 4.000000 0.000000
1.120000 4.000000 0.000000
1.080000 4.000000 0.000000
1.040000 4.000000 0.000000
1.000000 4.000000 0.000000
0.960000 4.000000 0.000000
0.920000 4.000000 0.000000
0.880000 4.000000 0.000000
0.840000 4.000000 0.000000
0.800000 4.000000 0.000000
0.760000 4.000000 0.000000
0.720000 4.000000 0.000000
0.680000 4.000000 0.000000
0.640000 4.000000 0.000000
0.600000 4.000000 0.000000
0.560000 4.000000 0.000000
0.520000 4.000000 0.000000
0.480000 4.000000 0.000000
0.440000 4.000000 0.000000
0.400000 4.000000 0.000000
0.360000 4.000000 0.000000
0.320000 4.000000 0.000000
0.280000 4.000000 0.000000
0.240000 4.000000 0.000000
0.200000 4.000000 0.000000
0.160000 4.000000 0.000000
0.120000 4.000000 0.000000
0.080000 4.000000 0.000000
0.040000 4.000000 0.000000
0.000000 3.960227 0.000000
0.000000 3.920455 0.000000
0.000000 3.880682 0.000000
0.000000 3.840909 0.000000
0.000000 3.801136 0.000000
0.000000 3.761364 0.000000
0.000000 3.721591 0.000000
0.000000 3.681818 0.000000
0.000000 3.642045 0.000000
0.000000 3.602273 0.000000
0.000000 3.562500 0.000000
0.000000 3.522727 0.000000
0.000000 3.482955 0.000000
0.000000 3.443182 0.000000
0.000000 3.403409 0.000000
0.000000 3.363636 0.000000
0.000000 3.323864 0.000000
0.000000 3.284091 0.000000
0.000000 3.244318 0.000000
0.000000 3.204545 0.000000
0.000000 3.164773 0.000000
0.000000 3.125000 0.000000
0.000000 3.085227 0.000000
0.000000 3.045455 0.000000
0.000000 3.005682 0.000000
0.000000 2.965909 0.000000
0.000000 2.926136 0.000000
0.000000 2.886364 0.000000
0.000000 2.846591 0.000000
0.000000 2.806818 0.000000
0.000000 2.767045 0.000000
0.000000 2.727273 0.000000
0.000000 2.687500 0.000000
0.000000 2.647727 0.000000
0.000000 2.607955 0.000000
0.000000 2.568182 0.000000
0.000000 2.528409 0.000000
0.000000 2.488636 0.000000
0.000000 2.448864 0.000000
0.000000 2.409091 0.000000
0.000000 2.369318 0.000000
0.000000 2.329545 0.000000
0.000000 2.289773 0.000000
0.000000 2.250000 0.000000
0.000000 2.210227 0.000000
0.000000 2.170455 0.000000
0.000000 2.130682 0.000000
0.000000 2.090909 0.000000
0.000000 2.051136 0.000000
0.000000 2.011364 0.000000
0.000000 1.971591 0.000000
0.000000 1.931818 0.000000
0.000000 1.892045 0.000000
0.000000 1.852273 0.000000
0.000000 1.812500 0.000000
0.000000 1.772727 0.000000
0.000000 1.732955 0.000000
0.000000 1.693182 0.000000
0.000000 1.653409 0.000000
0.000000 1.613636 0.000000
0.000000 1.573864 0.000000
0.000000 1.534091 0.000000
0.000000 1.494318 0.000000
0.000000 1.454545 0.000000
0.000000 1.414773 0.000000
0.000000 1.375000 0.000000
0.000000 1.335227 0.000000
0.000000 1.295455 0.000000
0.000000 1.255682 0.000000
0.000000 1.215909 0.000000
0.000000 1.176136 0.000000
0.000000 1.136364 0.000000
0.000000 1.096591 0.000000
0.000000 1.056818 0.000000
0.000000 1.017045 0.000000
0.000000 0.977273 0.000000
0.000000 0.937500 0.000000
0.000000 0.897727 0.000000
0.000000 0.857955 0.000000
0.000000 0.818182 0.000000
0.000000 0.778409 0.000000
0.000000 0.738636 0.000000
0.000000 0.698864 0.000000
0.000000 0.659091 0.000000
0.000000 0.619318 0.000000
0.000000 0.579545 0.000000
0.000000 0.539773 0.000000
0.000000 0.461538 0.000000
0.000000 0.423077 0.000000
0.000000 0.384615 0.000000
0.000000 0.346154 0.000000
0.000000 0.307692 0.000000
0.000000 0.269231 0.000000
0.000000 0.230769 0.000000
0.000000 0.192308 0.000000
0.000000 0.153846 0.000000
0.000000 0.115385 0.000000
0.000000 0.076923 0.000000
0.000000 0.038462 0.000000
0.027778 0.527778 0.000000
0.055556 0.555556 0.000000
0.083333 0.583333 0.000000
0.111111 0.611111 0.000000
0.138889 0.638889 0.000000
0.166667 0.666667 0.000000
0.194444 0.694444 0.000000
0.222222 0.722222 0.000000
0.250000 0.750000 0.000000
0.277778 0.777778 0.000000
0.305556 0.805556 0.000000
0.333333 0.833333 0.000000
0.361111 0.861111 0.000000
0.388889 0.888889 0.000000
0.416667 0.916667 0.000000
0.444444 0.944444 0.000000
0.472222 0.972222 0.000000
0.500000 1.000000 0.000000
0.527778 1.027778 0.000000
0.555556 1.055556 0.000000
0.583333 1.083333 0.000000
0.611111 1.111111 0.000000
0.638889 1.138889 0.000000
0.666667 1.166667 0.000000
0.694444 1.194444 0.000000
0.722222 1.222222 0.000000
0.750000 1.250000 0.000000
0.777778 1.277778 0.000000
0.805556 1.305556 0.000000
0.833333 1.333333 0.000000
0.861111 1.361111 0.000000
0.888889 1.388889 0.000000
0.916667 1.416667 0.000000
0.944444 1.444444 0.000000
0.972222 1.472222 0.000000
1.000000 1.500000 0.000000
1.027778 1.527778 0.000000
1.055556 1.555556 0.000000
1.083333 1.583333 0.000000
1.111111 1.611111 0.000000
1.138889 1.638889 0.000000
1.166667 1.666667 0.000000
1.194444 1.694444 0.000000
1.222222 1.722222 0.000000
1.250000 1.750000 0.000000
1.277778 1.777778 0.000000
1.305556 1.805556 0.000000
1.333333 1.833333 0.000000
1.361111 1.861111 0.000000
1.388889 1.888889 0.000000
1.416667 1.916667 0.000000
1.444444 1.944444 0.000000
1.472222 1.972222 0.000000
1.527778 2.027778 0.000000
1.555556 2.055556 0.000000
1.583333 2.083333 0.000000
1.611111 2.111111 0.000000
1.638889 2.138889 0.000000
1.666667 2.166667 0.000000
1.694444 2.194444 0.000000
1.722222 2.222222 0.000000
1.750000 2.250000 0.000000
1.777778 2.277778 0.000000
1.805556 2.305556 0.000000
[...]
POINT_DATA 6577
SCALARS UX float 1
LOOKUP_TABLE default
-0.000085
0.000128
0.230172
-0.505820
-0.279474
0.222017
0.511536
0.000020
-0.000005
-0.000001
0.000001
-0.000003
-0.000011
0.000001
0.000001
0.000003
0.000003
0.000000
0.000002
0.000001
0.000002
-0.000001
0.000001
-0.000002
-0.000001
0.000000
-0.000001
-0.000001
0.000000
0.000000
0.000001
0.000000
-0.000000
0.000000
0.000000
0.000000
-0.000000
-0.000000
0.000001
-0.000002
-0.000000
0.000000
-0.000000
0.000001
0.000000
-0.000000
-0.000001
-0.000000
-0.000000
-0.000001
0.000002
-0.000002
0.000002
-0.000000
-0.000001
-0.000017
0.023076
0.029101
0.038598
0.046668
0.054222
0.061749
0.069394
0.077962
0.086968
0.096155
0.105369
0.114444
0.120611
0.125020
0.128784
0.132332
0.135804
0.138885
0.141846
0.144658
0.147225
0.150394
0.153323
0.155666
0.158995
0.162468
0.165727
0.169583
0.174209
0.179231
0.185762
0.193040
0.200339
0.208888
0.216126
0.226937
0.237971
0.250395
0.263063
0.276309
0.289925
0.304771
0.320158
0.337337
0.355941
0.375810
0.397721
0.421610
0.446336
0.471143
0.496150
0.521746
0.545029
0.566956
0.584795
0.597292
0.604482
0.606138
0.602012
0.597167
0.586769
0.556958
0.439915
0.409218
0.391610
0.356255
0.321375
0.318086
0.316891
0.313796
0.319676
0.322971
0.325994
0.340293
0.355796
0.367961
0.372912
0.372358
0.369300
0.379374
0.388346
0.365005
0.366779
0.364470
0.349471
0.334546
0.326412
0.301778
0.270070
0.258378
0.248025
0.239879
0.230745
0.229844
0.232358
0.231326
0.229712
0.227916
0.229689
0.214879
0.199932
0.185486
0.171367
0.157492
0.142222
0.125454
0.109325
0.093458
0.077872
0.061797
0.045720
0.029865
0.013880
-0.002350
-0.018512
-0.034233
-0.049518
-0.064399
-0.079086
-0.093404
-0.107626
-0.122547
-0.137344
-0.151799
-0.166653
-0.182008
-0.197315
-0.212781
-0.228689
-0.244796
-0.260846
-0.276782
-0.291634
-0.306536
-0.321329
-0.336256
-0.350600
-0.364873
-0.379219
-0.393108
-0.406771
-0.420344
-0.433904
-0.446500
-0.459072
-0.471458
-0.483291
-0.495076
-0.507246
-0.509329
-0.510796
-0.510563
-0.508727
-0.506793
-0.504824
-0.501938
-0.499959
-0.497114
-0.493716
-0.489992
-0.486065
-0.483926
-0.477560
-0.473099
-0.468691
-0.465256
-0.462953
-0.457403
-0.453959
-0.450287
-0.445631
-0.441917
-0.440237
-0.436793
-0.436381
-0.435305
-0.437456
-0.436327
-0.436987
-0.437037
-0.438264
-0.439754
-0.438746
-0.439103
-0.437505
-0.437064
-0.438276
-0.438539
-0.435969
-0.433467
-0.430421
-0.427614
-0.424011
-0.422447
-0.420222
-0.418399
-0.417083
-0.416133
-0.416342
-0.417386
-0.418842
-0.419095
-0.420576
-0.422069
-0.423387
-0.424883
-0.426078
-0.425931
-0.427101
-0.427402
-0.427065
-0.425939
-0.424245
-0.421306
-0.417292
-0.411930
-0.405667
-0.398260
-0.389720
-0.379826
-0.369056
-0.357279
-0.344573
-0.331274
-0.317542
-0.303018
-0.287790
-0.272099
-0.256582
-0.242029
-0.230033
-0.222897
-0.218902
-0.235980
-0.316520
-0.158147
-0.151451
-0.149578
-0.145950
-0.140911
-0.133690
-0.125029
-0.115805
-0.104617
-0.090519
-0.071648
-0.041043
-0.232993
-0.206945
-0.035111
-0.289685
-0.203769
-0.164403
-0.194684
-0.276053
-0.164923
-0.223356
-0.193924
-0.207785
-0.210804
-0.210560
-0.209020
-0.216100
-0.215895
-0.218483
-0.222654
-0.211044
-0.235590
-0.260857
-0.276343
-0.335875
-0.270644
-0.250344
-0.250014
-0.252974
-0.245130
-0.241661
-0.210538
-0.241798
-0.214332
-0.171551
-0.206698
-0.170650
-0.174010
-0.119090
-0.045773
-0.037882
0.067848
0.144317
0.065142
0.066169
0.067387
-0.026647
-0.039517
-0.075060
0.192796
0.197375
0.219907
0.246907
0.276428
0.220656
0.231881
0.274611
0.290980
0.327574
0.352573
0.376950
0.377852
0.394392
0.413361
0.427950
0.438843
0.452331
0.452348
0.458646
0.484006
0.505833
0.371304
0.344812
-0.502816
-0.501652
0.215033
0.216809
0.450698
0.435510
0.407044
0.291839
0.289949
0.114305
0.096387
0.096041
-0.067716
-0.085481
-0.053661
0.082237
-0.294066
-0.283862
-0.283219
0.044462
0.054274
0.058358
-0.443799
-0.447822
-0.435488
-0.451256
-0.466339
-0.460335
0.045311
0.141741
0.155580
0.150301
0.046125
0.034100
0.048924
-0.412061
-0.406214
-0.398274
-0.298450
0.001652
0.001875
-0.011470
0.071437
0.061288
0.059830
0.035235
0.037023
0.025407
0.029798
-0.322263
-0.335512
-0.328859
-0.333957
-0.311206
-0.324967
-0.313872
-0.327912
0.025738
0.038674
0.028083
0.067592
-0.230616
-0.247139
-0.229537
0.385953
0.402596
-0.236982
-0.354583
-0.357407
-0.344210
-0.367437
-0.322701
-0.318631
-0.306674
-0.069251
-0.085390
-0.079753
-0.073607
0.106540
0.093891
0.113231
0.087559
-0.257120
-0.272156
-0.270039
-0.262544
-0.049580
-0.036524
-0.045597
-0.323381
-0.312662
-0.310555
0.345747
0.387039
0.328728
0.360138
0.287042
0.293963
0.269939
-0.348216
-0.355593
-0.359158
0.125924
0.120795
0.115900
0.111151
-0.042501
-0.450446
-0.461207
-0.451422
-0.201465
-0.189709
-0.188821
-0.206513
-0.323103
-0.335305
-0.324129
-0.334371
-0.334808
-0.325056
-0.333153
-0.140085
-0.145949
-0.155919
0.176433
0.151692
0.165625
0.105352
0.126081
0.132309
0.391845
-0.273630
-0.261964
-0.268067
-0.263342
-0.274517
-0.267681
-0.310811
-0.298994
-0.290174
-0.293000
-0.280838
-0.360832
-0.353357
-0.351770
-0.302217
-0.133029
-0.147963
-0.130691
-0.418510
-0.415385
-0.426156
-0.319676
-0.255215
-0.239497
-0.255035
-0.143534
-0.132033
-0.143789
-0.229439
-0.228732
-0.220148
0.207722
0.232571
0.210779
0.243606
0.089726
0.080971
0.080548
0.069104
0.329281
0.328872
-0.105879
-0.097837
-0.108808
-0.090925
-0.417290
-0.430705
-0.421023
-0.100100
-0.085614
-0.098334
-0.236544
-0.253005
-0.246329
-0.092606
-0.438176
-0.300027
-0.282467
-0.291697
-0.255830
-0.264744
-0.271251
-0.282769
-0.292427
-0.426518
-0.422896
-0.212145
-0.205231
-0.220825
-0.434176
-0.436599
-0.073463
-0.046184
-0.071978
-0.387202
-0.389001
-0.383211
-0.404989
-0.396908
-0.393008
-0.378044
-0.381322
-0.374169
-0.385559
-0.364138
-0.366833
-0.358581
-0.225528
-0.260878
-0.242676
-0.237994
-0.440098
-0.452787
-0.444397
-0.457755
-0.494347
-0.490904
0.203967
0.203699
0.136383
0.133175
0.140932
0.125470
-0.256542
-0.255369
-0.244404
-0.346361
-0.349075
-0.337792
-0.240123
0.122687
0.127556
0.117627
-0.238145
-0.238400
-0.441260
-0.436162
-0.429853
-0.214037
-0.216647
0.273266
0.279795
0.329568
0.337689
-0.345677
-0.359745
-0.359472
-0.371991
-0.332148
-0.339575
-0.342968
-0.326410
-0.362740
-0.357475
-0.352983
-0.392909
-0.395296
-0.383804
-0.390850
-0.382228
-0.243281
-0.249313
-0.258380
-0.262338
-0.249061
-0.379304
-0.375666
0.177657
0.191848
-0.382342
-0.389314
-0.385593
-0.465250
-0.302270
-0.317807
-0.307087
-0.391706
-0.348924
0.128477
0.136774
0.128030
0.137668
0.058875
0.069976
0.067789
-0.226351
-0.217439
-0.232710
-0.224201
-0.199579
0.119262
0.131150
0.129622
-0.205408
-0.199171
-0.194924
-0.212641
-0.406372
-0.408035
-0.401918
-0.370143
-0.371536
-0.358922
0.110264
-0.361461
-0.373169
-0.361584
-0.367696
-0.362373
-0.371722
-0.249086
-0.250570
0.129462
-0.238918
-0.227623
-0.331133
-0.334661
-0.317957
-0.352058
-0.344489
-0.273143
-0.270302
-0.263811
-0.276668
-0.333430
-0.325975
-0.338146
0.193674
0.200412
-0.356159
-0.375879
-0.371913
-0.363953
-0.358247
-0.283097
-0.499295
-0.351871
-0.347646
-0.360322
-0.353868
-0.362631
0.217791
-0.255827
-0.240901
-0.487525
-0.482517
-0.348035
-0.340493
0.195642
0.202376
-0.264693
-0.256313
-0.386271
0.050247
0.060763
0.062192
0.072422
-0.399162
-0.395966
-0.311736
-0.323289
-0.309725
-0.262891
-0.270769
-0.267247
-0.270272
-0.281895
-0.320513
0.165940
-0.163443
-0.181376
-0.171386
-0.454237
-0.287631
-0.277263
-0.291483
-0.479145
-0.414788
-0.411346
-0.416424
-0.190713
-0.182635
0.173997
0.184478
0.182220
-0.214655
-0.215637
-0.092617
-0.065261
-0.468636
-0.471591
-0.462701
-0.278436
-0.267900
-0.272225
-0.278621
-0.279552
-0.252865
-0.217301
-0.378918
-0.382838
0.110967
0.108023
0.123552
-0.389796
-0.393081
-0.409402
-0.405226
-0.399918
-0.295565
-0.266365
-0.085148
-0.096487
-0.402836
-0.499363
-0.299871
-0.289143
-0.305602
-0.479705
-0.475736
0.014163
-0.001349
0.025739
-0.368206
0.216749
0.192316
0.206270
0.187485
-0.273669
-0.284497
-0.288574
-0.266394
-0.374478
-0.371716
-0.336420
-0.322094
-0.354780
-0.363809
-0.360005
-0.308297
-0.335851
-0.332577
-0.318421
0.155748
-0.349288
-0.350574
-0.361554
-0.444761
0.042802
0.167505
0.163074
0.174871
-0.311238
-0.299316
-0.319402
-0.454629
-0.456132
-0.464798
-0.279788
-0.290303
-0.296238
-0.280218
-0.321411
0.099678
0.095847
-0.336026
-0.304027
0.009361
0.300786
0.331599
0.345387
-0.493316
-0.488546
-0.474475
-0.467678
0.200106
0.211212
0.095842
0.102946
0.093496
0.084197
-0.399723
-0.397407
-0.386078
-0.350479
0.183986
0.177398
-0.320611
-0.308832
-0.334922
-0.283829
-0.297399
-0.303707
-0.276519
-0.343502
0.151350
0.141878
0.080319
-0.444584
-0.434495
-0.023100
-0.013886
-0.027405
-0.332776
0.149223
0.163210
-0.443364
-0.455234
-0.317451
-0.343934
-0.386025
-0.407004
0.427173
0.388757
-0.396847
-0.056206
0.154150
0.143461
0.154469
-0.289998
-0.304052
-0.312025
-0.280360
0.105442
0.116725
0.111605
-0.480689
-0.019164
0.143457
-0.467802
-0.460355
-0.485982
0.195131
0.207927
-0.020807
-0.007080
-0.007154
0.178642
0.168517
-0.342276
-0.020398
-0.019880
0.200916
0.239002
0.222605
-0.397764
-0.409053
-0.399031
-0.411967
0.105167
-0.250042
0.302750
0.352162
0.116709
-0.376658
-0.381714
-0.448389
-0.295775
-0.388797
-0.393079
-0.312505
-0.320375
-0.284063
0.138677
0.228451
0.083218
0.094564
0.090550
-0.432531
0.086529
-0.218191
-0.205411
-0.224703
0.138424
0.152171
0.128362
-0.432733
-0.445202
-0.422934
-0.411017
-0.352013
-0.413786
0.082907
0.070243
0.090780
0.063513
0.125986
-0.334573
-0.400285
-0.308213
-0.403872
0.140384
-0.395129
-0.397646
-0.384355
-0.321048
-0.328895
-0.385961
-0.384462
-0.366785
0.367162
0.260938
0.252835
0.281852
-0.109070
-0.119201
-0.106689
-0.113020
0.295892
0.143931
0.137044
-0.470984
-0.410050
-0.108122
-0.124795
-0.106312
-0.458973
-0.455001
-0.480982
0.187048
-0.371049
-0.369447
0.169918
0.163025
0.205579
-0.081643
-0.097097
0.038396
0.041999
0.022705
-0.360868
-0.358686
-0.355253
-0.089325
-0.335973
0.125380
-0.349024
-0.344506
-0.383984
-0.421243
0.087494
-0.407970
0.034638
0.046492
0.034216
0.126984
0.044432
0.114213
-0.422750
0.020936
0.036454
-0.410089
0.021164
-0.153805
-0.151254
-0.162725
-0.328336
0.265103
-0.396245
-0.292566
-0.287547
-0.290173
-0.142291
-0.008802
-0.002064
-0.017164
-0.020784
-0.007390
-0.372604
-0.378837
-0.464647
-0.461333
-0.449601
-0.010812
-0.413702
-0.415076
-0.386295
-0.391599
-0.028376
-0.016207
-0.411913
-0.415519
-0.399526
-0.403688
-0.435130
-0.446898
-0.431459
0.197497
0.197431
0.215585
0.181317
-0.362988
0.311127
0.325963
0.293196
-0.366018
-0.365131
-0.355708
-0.353801
0.287175
-0.063011
-0.051581
-0.062652
-0.351967
-0.233610
-0.242052
0.113504
-0.379339
-0.371036
-0.378799
-0.344313
-0.340425
-0.248127
-0.445407
-0.086564
-0.088796
-0.068067
-0.425108
-0.438502
-0.380494
-0.256068
0.019096
0.001327
0.055356
0.045841
0.055294
0.001529
-0.275782
-0.277240
-0.287100
-0.262357
0.163381
0.164924
0.279603
0.333782
-0.021037
-0.032817
-0.041807
0.151842
0.138925
0.152171
-0.053121
-0.051051
-0.005510
-0.020109
-0.008986
-0.409615
-0.419770
-0.422864
-0.367214
-0.373988
0.007626
0.021649
0.008041
-0.346503
-0.337673
-0.350024
-0.408648
-0.394332
-0.382467
-0.388546
-0.397877
-0.403065
-0.426209
-0.203858
-0.186514
-0.190081
-0.359852
-0.358619
-0.357591
-0.385432
-0.394819
-0.395058
-0.459533
-0.471214
-0.473975
-0.455867
-0.350172
-0.348122
-0.325886
-0.338313
-0.380821
-0.375316
-0.365766
-0.346688
-0.467050
-0.413101
-0.426909
-0.407805
-0.338857
0.281081
-0.334927
-0.375773
-0.361058
-0.368613
0.131724
0.126189
0.123391
-0.368917
-0.386615
-0.377731
-0.384686
-0.391544
-0.439991
-0.392700
-0.400726
-0.403850
-0.390971
-0.395383
-0.402671
0.310694
0.283401
0.290147
0.249653
-0.353279
-0.352157
-0.351364
-0.344021
-0.343308
-0.424630
-0.423445
-0.163563
-0.148352
-0.152083
-0.151405
-0.034884
-0.016548
-0.025870
0.109146
-0.341360
-0.333892
-0.330531
-0.370475
-0.354383
-0.362483
-0.396365
0.019648
0.005431
0.020195
-0.022193
-0.373016
-0.379840
-0.387636
-0.391552
-0.400139
-0.418961
-0.346326
-0.345499
0.015526
0.029504
0.020267
0.027532
-0.344706
-0.408360
-0.400477
0.124702
0.134410
0.119975
-0.037912
0.200129
0.189256
0.206521
0.218782
-0.343904
-0.350235
-0.337793
-0.337031
0.235955
0.262569
0.239805
-0.372339
-0.385895
-0.373042
-0.450123
-0.446008
0.016878
0.013813
0.022092
-0.326328
-0.334875
-0.322378
-0.332081
-0.347347
-0.355748
-0.364297
0.004758
-0.367481
-0.374383
-0.384126
-0.381994
0.111205
-0.015833
0.052540
0.046271
0.063524
-0.382596
0.053703
0.118883
-0.386443
-0.396521
-0.339035
-0.338520
0.062021
0.066439
0.048885
-0.360032
-0.360414
-0.345641
0.106515
0.218671
0.215949
-0.370231
0.087308
0.099095
-0.338103
0.072830
-0.313704
-0.331325
-0.330593
-0.153052
-0.131474
-0.150757
-0.048328
-0.041312
-0.058169
-0.053496
-0.066935
-0.042346
-0.049151
-0.050917
-0.064568
-0.064711
-0.372970
-0.334169
-0.339123
-0.351979
0.171432
0.154122
0.133302
-0.387339
0.136051
0.128765
-0.340107
-0.348881
-0.069987
-0.069832
-0.082833
-0.083286
-0.358164
0.010801
0.014751
-0.363334
-0.375212
0.010398
0.141577
0.154441
0.159415
0.074908
0.073035
-0.434914
-0.359547
-0.363077
-0.331584
-0.331206
0.035896
-0.377328
-0.370252
0.109294
0.095103
0.114164
-0.331234
0.040050
0.042058
-0.325091
-0.324983
-0.409719
-0.398568
-0.389370
-0.321876
-0.346392
-0.344459
-0.425287
-0.403932
-0.283807
-0.276848
-0.273395
-0.332730
-0.341825
-0.375032
-0.368335
0.145525
-0.351877
-0.223881
-0.215122
-0.230692
-0.222663
0.101349
-0.073542
-0.077733
-0.093745
-0.357527
-0.347862
-0.358630
-0.344845
0.079199
0.070214
0.082947
0.064665
-0.357054
-0.368730
-0.307152
-0.315936
0.029951
0.022054
-0.091225
-0.096402
-0.412990
0.295134
0.263924
0.258291
0.234915
-0.117047
-0.121033
-0.132418
0.065221
0.048878
0.056390
0.331137
0.328703
0.302942
-0.324552
-0.337144
-0.335240
-0.323978
-0.323813
0.054824
0.077006
0.067853
0.050309
0.281162
0.260233
-0.324310
-0.318601
-0.319486
-0.298620
-0.236728
-0.230908
-0.218703
-0.325031
-0.334632
0.037402
0.019978
0.038264
-0.034385
0.072863
0.074513
-0.345144
-0.350115
-0.361832
-0.315939
-0.315898
0.078202
-0.046646
-0.059852
-0.045455
-0.317002
-0.061745
0.105442
0.101826
0.092854
-0.311271
-0.312879
-0.317158
-0.327044
-0.308023
-0.297502
-0.337710
-0.342489
-0.352112
0.190914
0.191586
0.160332
0.175748
-0.403413
-0.414602
-0.400569
-0.307644
-0.307326
-0.271195
-0.264128
-0.268519
0.306921
0.260194
0.241675
0.254750
0.226566
0.211253
0.206222
0.089769
-0.309078
-0.303137
-0.305641
0.107402
0.119124
-0.017206
-0.003585
-0.015430
-0.005799
-0.308764
-0.319245
-0.330687
-0.284350
-0.333592
-0.344093
-0.299085
-0.298496
0.060970
0.056964
0.075430
0.242293
0.232299
0.216868
0.117558
0.114986
-0.192546
-0.177072
-0.228182
-0.236954
-0.336040
-0.335009
-0.346572
-0.299606
-0.292080
-0.296569
-0.165955
-0.329357
-0.330830
-0.340513
0.216696
0.236869
-0.300190
-0.311286
0.118513
0.078923
0.087634
0.072231
-0.322211
-0.324961
0.079409
0.062415
-0.357993
-0.359566
0.097483
0.088888
-0.033248
-0.289225
-0.288837
-0.310654
-0.274852
-0.262160
-0.270255
-0.290848
-0.284398
-0.409519
-0.423525
-0.292255
-0.303031
0.079522
-0.386259
-0.396167
-0.381961
-0.422108
-0.409615
-0.279620
-0.277552
0.200244
-0.100590
-0.246008
-0.344268
-0.167334
-0.153199
-0.169258
-0.280004
-0.273396
-0.036535
-0.017522
-0.359078
-0.346239
-0.346051
-0.283123
-0.296375
-0.032002
0.112644
0.094238
-0.109775
-0.109700
-0.096137
0.080739
-0.408075
-0.001992
-0.246322
-0.255237
-0.096824
-0.002888
-0.316314
-0.330322
-0.273949
-0.269932
-0.287550
-0.285425
-0.272776
-0.274522
-0.256225
-0.100046
-0.113104
-0.269351
-0.267126
-0.331711
-0.266506
-0.259992
-0.270257
-0.285393
-0.254598
-0.265922
-0.394647
0.051075
0.069734
0.081284
0.063451
0.211984
0.242898
0.231748
-0.345240
-0.129815
-0.154918
-0.135621
-0.172017
-0.149646
-0.330313
-0.332140
-0.313483
0.002940
0.006257
-0.007637
0.353192
0.367505
0.336961
-0.255189
0.017199
-0.203979
-0.198563
-0.214300
-0.209738
-0.144229
-0.160802
-0.146934
-0.249748
0.016331
-0.433416
-0.444569
-0.432024
0.110461
0.106459
0.099220
-0.166300
0.098396
0.087754
0.100897
0.084198
0.078285
-0.225371
0.181818
0.190628
0.199062
0.010712
-0.383231
-0.368901
-0.373880
-0.378311
0.176662
-0.053958
-0.042830
-0.038859
-0.058839
0.033448
0.019929
0.031226
0.295045
0.016042
-0.338479
-0.345818
-0.347916
-0.357861
-0.424656
-0.409357
-0.371630
-0.365996
-0.355379
-0.404684
-0.209321
-0.290463
-0.300982
-0.288386
-0.299545
-0.288260
-0.278111
-0.281665
-0.289779
-0.266908
-0.281635
-0.265947
-0.285545
-0.156507
-0.141605
-0.156939
-0.170646
-0.116973
0.195530
0.217001
0.206128
0.207678
0.213061
0.197227
-0.235361
-0.248834
-0.239912
-0.254682
-0.139700
-0.411315
-0.412051
-0.424564
0.144387
0.140945
-0.423617
-0.259376
0.098048
0.094162
0.105213
0.093884
0.107407
-0.132417
-0.150552
0.146384
-0.359521
-0.344576
-0.354011
-0.342264
-0.387427
0.261215
0.261957
-0.256731
0.194686
0.194283
0.175417
0.141749
0.144776
0.150292
0.216687
0.033392
0.042692
0.029968
0.039346
0.115927
-0.079210
-0.091444
-0.092948
-0.329485
-0.319327
-0.065771
-0.076287
-0.085283
-0.092290
-0.322381
-0.330384
-0.317899
-0.331846
-0.340247
-0.009629
-0.023326
-0.184272
-0.174599
-0.166458
-0.188305
-0.246458
-0.250486
-0.258520
-0.213973
-0.217316
-0.206824
-0.226348
-0.122509
-0.106161
0.159370
0.158410
0.151696
-0.034311
-0.043400
-0.052551
-0.246956
-0.028922
0.221269
0.193389
-0.292784
-0.309118
-0.300162
-0.303012
-0.242521
-0.001158
0.004185
-0.037509
-0.054461
-0.062717
-0.389186
-0.390701
-0.373773
-0.384572
-0.372614
0.065643
-0.261607
-0.234891
0.264584
0.275926
0.290899
0.269911
0.239590
-0.104669
-0.107254
-0.159669
-0.173589
-0.163487
-0.158611
-0.138306
-0.144214
-0.227254
-0.119295
0.019695
0.015555
0.030550
-0.335001
0.027958
-0.331086
0.009704
0.021413
-0.002730
0.031544
0.045038
0.048654
-0.126305
-0.129955
-0.117372
-0.140761
-0.124880
-0.138748
0.080470
0.091567
0.094959
-0.053401
-0.057125
-0.036218
-0.036816
-0.076811
-0.410607
-0.397411
0.087890
0.075021
0.064686
0.081357
-0.301591
-0.296224
-0.258608
-0.269773
-0.066047
-0.319658
-0.311678
-0.325748
-0.331818
-0.339946
-0.345198
-0.296332
-0.312677
-0.292214
-0.267300
-0.279526
-0.284045
-0.176057
-0.192654
-0.194428
-0.208820
-0.231639
-0.240044
-0.227499
-0.246886
0.155335
0.143469
-0.324321
0.153539
0.208024
0.192395
0.175825
0.169613
0.153990
-0.333650
-0.328091
-0.340904
-0.390250
-0.381234
-0.391982
0.036354
0.038396
0.025233
-0.227376
-0.239786
-0.051210
-0.034382
-0.214257
-0.224570
-0.215480
0.133798
0.124622
0.136670
0.120403
-0.203329
-0.217528
-0.206177
-0.215169
-0.002483
0.009254
0.022762
-0.017354
-0.011884
-0.023204
-0.382391
0.167984
0.174065
0.167618
0.173134
0.160792
0.166392
-0.023047
-0.016245
-0.011890
-0.029967
-0.020268
-0.229568
-0.233101
-0.221233
-0.227924
-0.244491
-0.237697
0.151526
0.154079
-0.243511
-0.253093
-0.255448
0.342989
0.318938
-0.266372
-0.096903
-0.097023
-0.115923
-0.235444
0.028520
0.045916
0.165760
0.160613
0.149299
0.155119
0.160290
0.243703
0.219002
0.224503
0.245073
-0.303732
-0.295083
-0.080227
-0.074684
-0.065777
-0.091707
-0.054092
-0.058366
-0.047113
-0.355831
-0.361742
-0.360541
0.099249
0.102170
0.088138
-0.090290
-0.106585
-0.420577
-0.418022
-0.076434
-0.258658
-0.253775
-0.266448
-0.255827
-0.245693
-0.243000
-0.238361
-0.398400
-0.397935
-0.410339
-0.386954
-0.399244
-0.390540
-0.421735
-0.416345
-0.431153
-0.419762
-0.193566
-0.189008
-0.116133
-0.197026
-0.180272
-0.401387
-0.413100
-0.264162
-0.251079
-0.278335
-0.264937
-0.394074
-0.401127
-0.377223
-0.360547
-0.367164
-0.279066
-0.253716
0.148283
0.140149
0.152359
0.135899
-0.212161
-0.223851
-0.072429
-0.061747
-0.047806
0.063711
0.068403
0.085762
0.087862
0.054500
0.039707
0.034823
-0.325101
-0.246076
-0.229379
0.152975
0.142542
-0.425118
-0.427403
-0.415838
-0.178533
-0.183710
-0.167071
-0.099394
-0.064146
-0.191926
-0.155779
-0.139147
-0.297154
-0.294674
-0.285452
-0.283206
0.246684
0.220250
0.213666
0.233512
-0.200614
-0.210927
-0.186429
-0.191752
0.012556
-0.423145
0.005202
0.171084
0.187100