# vtk DataFile Version 2.0
Test
ASCII
DATASET POLYDATA
POINTS 6577 float
0.000000 0.000000 0.000000
2.000000 0.000000 0.000000
2.000000 4.000000 0.000000
0.000000 4.000000 0.000000
0.000000 0.500000 0.000000
1.500000 2.000000 0.000000
2.000000 2.500000 0.000000
0.040000 0.000000 0.000000
0.080000 0.000000 0.000000
0.120000 0.000000 0.000000
0.160000 0.000000 0.000000
0.200000 0.000000 0.000000
0.240000 0.000000 0.000000
0.280000 0.000000 0.000000
0.320000 0.000000 0.000000
0.360000 0.000000 0.000000
0.400000 0.000000 0.000000
0.440000 0.000000 0.000000
0.480000 0.000000 0.000000
0.520000 0.000000 0.000000
0.560000 0.000000 0.000000
0.600000 0.000000 0.000000
0.640000 0.000000 0.000000
0.680000 0.000000 0.000000
0.720000 0.000000 0.000000
0.760000 0.000000 0.000000
0.800000 0.000000 0.000000
0.840000 0.000000 0.000000
0.880000 0.000000 0.000000
0.920000 0.000000 0.000000
0.960000 0.000000 0.000000
1.000000 0.000000 0.000000
1.040000 0.000000 0.000000
1.080000 0.000000 0.000000
1.120000 0.000000 0.000000
1.160000 0.000000 0.000000
1.200000 0.000000 0.000000
1.240000 0.000000 0.000000
1.280000 0.000000 0.000000
1.320000 0.000000 0.000000
1.360000 0.000000 0.000000
1.400000 0.000000 0.000000
1.440000 0.000000 0.000000
1.480000 0.000000 0.000000
1.520000 0.000000 0.000000
1.560000 0.000000 0.000000
1.600000 0.000000 0.000000
1.640000 0.000000 0.000000
1.680000 0.000000 0.000000
1.720000 0.000000 0.000000
1.760000 0.000000 0.000000
1.800000 0.000000 0.000000
1.840000 0.000000 0.000000
1.880000 0.000000 0.000000
1.920000 0.000000 0.000000
1.960000 0.000000 0.000000
2.000000 0.039683 0.000000
2.000000 0.079365 0.000000
2.000000 0.119048 0.000000
2.000000 0.158730 0.000000
2.000000 0.198413 0.000000
2.000000 0.238095 0.000000
2.000000 0.277778 0.000000
2.000000 0.317460 0.000000
2.000000 0.357143 0.000000
2.000000 0.396825 0.000000
2.000000 0.436508 0.000000
2.000000 0.476190 0.000000
2.000000 0.515873 0.000000
2.000000 0.555556 0.000000
2.000000 0.595238 0.000000
2.000000 0.634921 0.000000
2.000000 0.674603 0.000000
2.000000 0.714286 0.000000
2.000000 0.753968 0.000000
2.000000 0.793651 0.000000
2.000000 0.833333 0.000000
2.000000 0.873016 0.000000
2.000000 0.912698 0.000000
2.000000 0.952381 0.000000
2.000000 0.992063 0.000000
2.000000 1.031746 0.000000
2.000000 1.071429 0.000000
2.000000 1.111111 0.000000
2.000000 1.150794 0.000000
2.000000 1.190476 0.000000
2.000000 1.230159 0.000000
2.000000 1.269841 0.000000
2.000000 1.309524 0.000000
2.000000 1.349206 0.000000
2.000000 1.388889 0.000000
2.000000 1.428571 0.000000
2.000000 1.468254 0.000000
2.000000 1.507937 0.000000
2.000000 1.547619 0.000000
2.000000 1.587302 0.000000
2.000000 1.626984 0.000000
2.000000 1.666667 0.000000
2.000000 1.706349 0.000000
2.000000 1.746032 0.000000
2.000000 1.785714 0.000000
2.000000 1.825397 0.000000
2.000000 1.865079 0.000000
2.000000 1.904762 0.000000
2.000000 1.944444 0.000000
2.000000 1.984127 0.000000
2.000000 2.023810 0.000000
2.000000 2.063492 0.000000
2.000000 2.103175 0.000000
2.000000 2.142857 0.000000
2.000000 2.182540 0.000000
2.000000 2.222222 0.000000
2.000000 2.261905 0.000000
2.000000 2.301587 0.000000
2.000000 2.341270 0.000000
2.000000 2.380952 0.000000
2.000000 2.420635 0.000000
2.000000 2.460317 0.000000
2.000000 2.539474 0.000000
2.000000 2.578947 0.000000
2.000000 2.618421 0.000000
2.000000 2.657895 0.000000
2.000000 2.697368 0.000000
2.000000 2.736842 0.000000
2.000000 2.776316 0.000000
2.000000 2.815789 0.000000
2.000000 2.855263 0.000000
2.000000 2.894737 0.000000
2.000000 2.934211 0.000000
2.000000 2.973684 0.000000
2.000000 3.013158 0.000000
2.000000 3.052632 0.000000
2.000000 3.092105 0.000000
2.000000 3.131579 0.000000
2.000000 3.171053 0.000000
2.000000 3.210526 0.000000
2.000000 3.250000 0.000000
2.000000 3.289474 0.000000
2.000000 3.328947 0.000000
2.000000 3.368421 0.000000
2.000000 3.407895 0.000000
2.000000 3.447368 0.000000
2.000000 3.486842 0.000000
2.000000 3.526316 0.000000
2.000000 3.565789 0.000000
2.000000 3.605263 0.000000
2.000000 3.644737 0.000000
2.000000 3.684211 0.000000
2.000000 3.723684 0.000000
2.000000 3.763158 0.000000
2.000000 3.802632 0.000000
2.000000 3.842105 0.000000
2.000000 3.881579 0.000000
2.000000 3.921053 0.000000
2.000000 3.960526 0.000000
1.960000 4.000000 0.000000
1.920000 4.000000 0.000000
1.880000 4.000000 0.000000
1.840000 4.000000 0.000000
1.800000 4.000000 0.000000
1.760000 4.000000 0.000000
1.720000 4.000000 0.000000
1.680000 4.000000 0.000000
1.640000 4.000000 0.000000
1.600000 4.000000 0.000000
1.560000 4.000000 0.000000
1.520000 4.000000 0.000000
1.480000 4.000000 0.000000
1.440000 4.000000 0.000000
1.400000 4.000000 0.000000
1.360000 4.000000 0.000000
1.320000 4.000000 0.000000
1.280000 4.000000 0.000000
1.240000 4.000000 0.000000
1.200000 4.000000 0.000000
1.160000 4.000000 0.000000
1.120000 4.000000 0.000000
1.080000 4.000000 0.000000
1.040000 4.000000 0.000000
1.000000 4.000000 0.000000
0.960000 4.000000 0.000000
0.920000 4.000000 0.000000
0.880000 4.000000 0.000000
0.840000 4.000000 0.000000
0.800000 4.000000 0.000000
0.760000 4.000000 0.000000
0.720000 4.000000 0.000000
0.680000 4.000000 0.000000
0.640000 4.000000 0.000000
0.600000 4.000000 0.000000
0.560000 4.000000 0.000000
0.520000 4.000000 0.000000
0.480000 4.000000 0.000000
0.440000 4.000000 0.000000
0.400000 4.000000 0.000000
0.360000 4.000000 0.000000
0.320000 4.000000 0.000000
0.280000 4.000000 0.000000
0.240000 4.000000 0.000000
0.200000 4.000000 0.000000
0.160000 4.000000 0.000000
0.120000 4.000000 0.000000
0.080000 4.000000 0.000000
0.040000 4.000000 0.000000
0.000000 3.960227 0.000000
0.000000 3.920455 0.000000
0.000000 3.880682 0.000000
0.000000 3.840909 0.000000
0.000000 3.801136 0.000000
0.000000 3.761364 0.000000
0.000000 3.721591 0.000000
0.000000 3.681818 0.000000
0.000000 3.642045 0.000000
0.000000 3.602273 0.000000
0.000000 3.562500 0.000000
0.000000 3.522727 0.000000
0.000000 3.482955 0.000000
0.000000 3.443182 0.000000
0.000000 3.403409 0.000000
0.000000 3.363636 0.000000
0.000000 3.323864 0.000000
0.000000 3.284091 0.000000
0.000000 3.244318 0.000000
0.000000 3.204545 0.000000
0.000000 3.164773 0.000000
0.000000 3.125000 0.000000
0.000000 3.085227 0.000000
0.000000 3.045455 0.000000
0.000000 3.005682 0.000000
0.000000 2.965909 0.000000
0.000000 2.926136 0.000000
0.000000 2.886364 0.000000
0.000000 2.846591 0.000000
0.000000 2.806818 0.000000
0.000000 2.767045 0.000000
0.000000 2.727273 0.000000
0.000000 2.687500 0.000000
0.000000 2.647727 0.000000
0.000000 2.607955 0.000000
0.000000 2.568182 0.000000
0.000000 2.528409 0.000000
0.000000 2.488636 0.000000
0.000000 2.448864 0.000000
0.000000 2.409091 0.000000
0.000000 2.369318 0.000000
0.000000 2.329545 0.000000
0.000000 2.289773 0.000000
0.000000 2.250000 0.000000
0.000000 2.210227 0.000000
0.000000 2.170455 0.000000
0.000000 2.130682 0.000000
0.000000 2.090909 0.000000
0.000000 2.051136 0.000000
0.000000 2.011364 0.000000
0.000000 1.971591 0.000000
0.000000 1.931818 0.000000
0.000000 1.892045 0.000000
0.000000 1.852273 0.000000
0.000000 1.812500 0.000000
0.000000 1.772727 0.000000
0.000000 1.732955 0.000000
0.000000 1.693182 0.000000
0.000000 1.653409 0.000000
0.000000 1.613636 0.000000
0.000000 1.573864 0.000000
0.000000 1.534091 0.000000
0.000000 1.494318 0.000000
0.000000 1.454545 0.000000
0.000000 1.414773 0.000000
0.000000 1.375000 0.000000
0.000000 1.335227 0.000000
0.000000 1.295455 0.000000
0.000000 1.255682 0.000000
0.000000 1.215909 0.000000
0.000000 1.176136 0.000000
0.000000 1.136364 0.000000
0.000000 1.096591 0.000000
0.000000 1.056818 0.000000
0.000000 1.017045 0.000000
0.000000 0.977273 0.000000
0.000000 0.937500 0.000000
0.000000 0.897727 0.000000
0.000000 0.857955 0.000000
0.000000 0.818182 0.000000
0.000000 0.778409 0.000000
0.000000 0.738636 0.000000
0.000000 0.698864 0.000000
0.000000 0.659091 0.000000
0.000000 0.619318 0.000000
0.000000 0.579545 0.000000
0.000000 0.539773 0.000000
0.000000 0.461538 0.000000
0.000000 0.423077 0.000000
0.000000 0.384615 0.000000
0.000000 0.346154 0.000000
0.000000 0.307692 0.000000
0.000000 0.269231 0.000000
0.000000 0.230769 0.000000
0.000000 0.192308 0.000000
0.000000 0.153846 0.000000
0.000000 0.115385 0.000000
0.000000 0.076923 0.000000
0.000000 0.038462 0.000000
0.027778 0.527778 0.000000
0.055556 0.555556 0.000000
0.083333 0.583333 0.000000
0.111111 0.611111 0.000000
0.138889 0.638889 0.000000
0.166667 0.666667 0.000000
0.194444 0.694444 0.000000
0.222222 0.722222 0.000000
0.250000 0.750000 0.000000
0.277778 0.777778 0.000000
0.305556 0.805556 0.000000
0.333333 0.833333 0.000000
0.361111 0.861111 0.000000
0.388889 0.888889 0.000000
0.416667 0.916667 0.000000
0.444444 0.944444 0.000000
0.472222 0.972222 0.000000
0.500000 1.000000 0.000000
0.527778 1.027778 0.000000
0.555556 1.055556 0.000000
0.583333 1.083333 0.000000
0.611111 1.111111 0.000000
0.638889 1.138889 0.000000
0.666667 1.166667 0.000000
0.694444 1.194444 0.000000
0.722222 1.222222 0.000000
0.750000 1.250000 0.000000
0.777778 1.277778 0.000000
0.805556 1.305556 0.000000
0.833333 1.333333 0.000000
0.861111 1.361111 0.000000
0.888889 1.388889 0.000000
0.916667 1.416667 0.000000
0.944444 1.444444 0.000000
0.972222 1.472222 0.000000
1.000000 1.500000 0.000000
1.027778 1.527778 0.000000
1.055556 1.555556 0.000000
1.083333 1.583333 0.000000
1.111111 1.611111 0.000000
1.138889 1.638889 0.000000
1.166667 1.666667 0.000000
1.194444 1.694444 0.000000
1.222222 1.722222 0.000000
1.250000 1.750000 0.000000
1.277778 1.777778 0.000000
1.305556 1.805556 0.000000
1.333333 1.833333 0.000000
1.361111 1.861111 0.000000
1.388889 1.888889 0.000000
1.416667 1.916667 0.000000
1.444444 1.944444 0.000000
1.472222 1.972222 0.000000
1.527778 2.027778 0.000000
1.555556 2.055556 0.000000
1.583333 2.083333 0.000000
1.611111 2.111111 0.000000
1.638889 2.138889 0.000000
1.666667 2.166667 0.000000
1.694444 2.194444 0.000000
1.722222 2.222222 0.000000
1.750000 2.250000 0.000000
1.777778 2.277778 0.000000
1.805556 2.305556 0.000000
[...]
POINT_DATA 6577
SCALARS UX float 1
LOOKUP_TABLE default
-0.000106
0.000153
0.500416
-0.393340
-0.438547
0.470618
0.775077
0.000025
-0.000007
-0.000002
0.000002
-0.000004
-0.000014
0.000002
0.000002
0.000005
-0.000000
0.000000
0.000004
0.000001
0.000002
-0.000001
0.000001
-0.000002
-0.000001
0.000000
-0.000001
-0.000001
0.000000
0.000000
0.000001
0.000000
-0.000000
0.000000
0.000000
0.000000
-0.000000
-0.000000
0.000001
-0.000002
-0.000000
0.000000
-0.000000
0.000001
0.000001
-0.000001
-0.000001
-0.000001
-0.000000
-0.000001
0.000003
-0.000003
0.000002
-0.000001
-0.000001
-0.000020
0.026587
0.033956
0.042954
0.049850
0.056719
0.063485
0.069913
0.076896
0.084359
0.092193
0.101352
0.113054
0.122504
0.129340
0.135423
0.142055
0.149289
0.156711
0.164662
0.173841
0.183883
0.196548
0.210385
0.224551
0.243668
0.265152
0.288038
0.314995
0.345799
0.380773
0.421968
0.462903
0.498044
0.531351
0.561791
0.594561
0.625135
0.654907
0.682104
0.708987
0.735588
0.760757
0.782780
0.800121
0.813535
0.824697
0.835639
0.847678
0.859950
0.871866
0.882699
0.891834
0.898299
0.900371
0.897746
0.891649
0.883560
0.874265
0.863538
0.848581
0.831588
0.804794
0.737649
0.703240
0.668678
0.632311
0.602738
0.593731
0.580924
0.585341
0.596962
0.612830
0.647322
0.695505
0.748484
0.838729
0.636826
0.590298
0.580230
0.581776
0.583579
0.583235
0.583918
0.608265
0.650927
0.686174
0.689862
0.686043
0.610520
0.573188
0.552067
0.537410
0.521693
0.512786
0.507605
0.501519
0.497498
0.495772
0.498644
0.483424
0.468154
0.454170
0.440416
0.426066
0.410750
0.395533
0.380083
0.364333
0.348633
0.331443
0.313067
0.291971
0.269112
0.246298
0.223401
0.200611
0.178169
0.156230
0.134849
0.113537
0.092524
0.071851
0.052509
0.032933
0.013304
-0.005780
-0.025457
-0.044958
-0.064324
-0.083416
-0.102206
-0.121052
-0.138909
-0.157203
-0.175677
-0.194440
-0.212539
-0.229912
-0.246980
-0.263260
-0.279197
-0.294879
-0.310480
-0.325112
-0.339247
-0.353078
-0.366460
-0.379532
-0.391913
-0.388978
-0.385559
-0.380806
-0.374490
-0.368255
-0.362537
-0.356428
-0.352185
-0.347454
-0.341927
-0.335235
-0.327548
-0.320851
-0.307939
-0.296852
-0.286028
-0.276717
-0.269166
-0.257431
-0.247947
-0.238175
-0.226427
-0.215645
-0.208137
-0.197540
-0.191070
-0.184058
-0.182735
-0.176465
-0.173472
-0.171008
-0.172105
-0.176005
-0.176488
-0.181138
-0.181941
-0.184611
-0.190476
-0.194289
-0.193330
-0.192450
-0.191187
-0.191731
-0.192812
-0.200020
-0.208616
-0.220994
-0.237352
-0.257654
-0.283377
-0.312278
-0.335086
-0.346294
-0.356361
-0.363774
-0.369164
-0.374220
-0.376617
-0.373627
-0.376555
-0.378454
-0.380670
-0.383565
-0.388076
-0.392656
-0.398254
-0.403467
-0.408908
-0.413769
-0.417496
-0.419640
-0.420666
-0.420333
-0.418679
-0.416843
-0.414981
-0.412870
-0.410881
-0.409042
-0.406527
-0.402359
-0.395743
-0.388422
-0.388450
-0.396436
-0.483256
-0.253145
-0.239912
-0.232741
-0.222605
-0.211180
-0.197525
-0.181875
-0.166123
-0.148391
-0.129095
-0.104871
-0.052343
-0.468271
-0.377343
-0.377999
-0.311530
-0.313132
-0.358878
-0.339033
-0.316829
-0.301585
-0.300644
-0.320803
-0.328149
-0.313657
-0.308392
-0.297872
-0.303923
-0.304791
-0.309819
-0.305709
-0.321041
-0.324064
-0.359774
-0.378017
-0.388284
-0.384824
-0.419757
-0.376280
-0.199558
-0.147115
-0.314355
-0.224246
0.000173
-0.051879
0.010835
0.109629
-0.069234
-0.121127
0.630415
0.104367
0.152030
0.159214
0.225806
0.315934
0.331542
0.388070
0.470364
0.425354
0.373444
0.567904
0.634267
0.674216
0.709403
0.796997
0.716501
0.680231
0.719561
0.732877
0.737853
0.752967
0.766415
0.779630
0.791418
0.800268
0.806408
0.807803
0.809372
0.807120
0.800599
0.804879
0.784749
0.692595
0.657828
-0.376909
-0.380052
0.482642
0.485669
0.771055
0.750747
0.742656
0.578981
0.566252
0.330348
0.312765
0.317368
0.388497
0.370513
0.407212
0.300867
-0.039724
-0.024563
-0.026043
0.311906
0.322113
0.327723
-0.312305
-0.312444
-0.299902
-0.305280
-0.320978
-0.311553
0.310930
0.415402
0.435683
0.427390
0.314809
0.300462
0.317778
-0.215526
-0.201375
-0.197364
-0.044140
0.255435
0.257587
0.237549
0.329881
0.314503
0.316847
0.290855
0.299225
0.282126
0.293922
-0.178347
-0.193079
-0.182573
-0.194039
-0.156443
-0.169134
-0.153936
-0.165398
0.255003
0.273063
0.265249
0.317566
0.167634
0.132109
0.154886
0.783732
0.789458
0.130200
-0.138411
-0.151262
-0.120307
-0.165814
-0.131862
-0.121819
-0.112345
0.183297
0.168938
0.175530
0.177914
0.517194
0.513193
0.521655
0.518591
0.007870
-0.008632
-0.002011
-0.003361
0.143390
0.159162
0.151139
-0.093503
-0.059893
-0.057302
0.731956
0.748841
0.697835
0.713849
0.600136
0.590019
0.572425
-0.170131
-0.187304
-0.207144
0.493255
0.477309
0.490884
0.471639
0.149843
-0.299198
-0.309255
-0.297096
-0.032426
-0.017911
-0.016498
-0.039179
-0.067029
-0.078628
-0.063255
-0.072087
-0.125948
-0.095511
-0.113145
0.047345
0.041213
0.027250
0.408090
0.386299
0.376534
0.534528
0.569288
0.558134
0.777111
0.101856
0.130434
0.122593
0.138888
0.111432
0.135297
-0.060082
-0.029407
-0.049784
-0.046701
-0.036465
-0.125651
-0.112751
-0.116131
-0.061603
0.055598
0.035741
0.059269
-0.251450
-0.251830
-0.262647
-0.078962
0.120753
0.120498
0.092462
0.056639
0.063350
0.052554
-0.390915
-0.397033
-0.380994
0.625806
0.664986
0.633605
0.684750
0.322353
0.311995
0.314036
0.300137
0.631756
0.624992
0.083884
0.094252
0.081734
0.100685
-0.231793
-0.247334
-0.231879
0.180517
0.191664
0.179542
0.182790
0.158926
0.170213
0.188939
-0.252414
-0.154248
-0.132656
-0.142434
0.008676
-0.002136
-0.011444
-0.024081
-0.145896
-0.157203
-0.152727
-0.044464
-0.035532
-0.055171
-0.274417
-0.274166
0.329304
0.335805
0.302204
-0.366003
-0.373534
-0.374228
-0.240551
-0.234948
-0.204783
-0.357571
-0.364776
-0.367960
-0.200167
-0.364481
-0.370569
-0.373144
0.092454
0.049062
0.047683
0.093886
-0.276046
-0.291964
-0.279485
-0.296165
-0.370560
-0.371496
0.472812
0.471160
0.464591
0.474456
0.487005
0.457881
-0.099370
-0.098806
-0.084378
-0.372497
-0.375305
-0.377605
-0.079953
0.425984
0.426854
0.411394
-0.387971
-0.393625
-0.230618
-0.219111
-0.214416
0.183120
0.161327
0.705913
0.718654
0.746279
0.753528
-0.062027
-0.077972
-0.079289
-0.092641
-0.403045
-0.401127
-0.404719
-0.397144
-0.386197
-0.391890
-0.387534
-0.379287
-0.369715
-0.412268
-0.412878
-0.416191
-0.399244
-0.396442
-0.400492
-0.404679
-0.402852
-0.343349
-0.347994
0.445813
0.459748
-0.351703
-0.353736
-0.356566
-0.346276
-0.046402
-0.065881
-0.054927
-0.362264
-0.391414
0.516884
0.512329
0.515996
0.515963
0.325036
0.335830
0.336032
0.198177
0.206553
0.189097
0.133759
0.179497
0.384139
0.398671
0.396856
0.220706
0.211284
0.229278
0.198484
-0.381187
-0.391235
-0.388039
-0.232968
-0.230753
-0.218370
0.316791
-0.140274
-0.167273
-0.147251
-0.352189
-0.357531
-0.358442
-0.386376
-0.391609
0.343262
-0.387437
-0.368731
-0.369481
-0.373381
-0.372559
-0.363084
-0.367181
-0.399894
-0.402964
-0.395659
-0.406546
-0.098547
-0.085036
-0.104449
0.461183
0.467960
-0.366914
-0.335973
-0.344590
-0.345849
-0.355300
-0.026323
-0.369892
-0.403386
-0.400186
-0.401852
-0.398534
-0.398150
0.490272
0.010352
0.031724
-0.361428
-0.360887
-0.358803
-0.365606
0.464575
0.473377
0.089878
0.096238
-0.345271
0.233645
0.244052
0.239942
0.246976
-0.365713
-0.358334
-0.144722
-0.153773
-0.135382
-0.381060
-0.388182
-0.390370
-0.362970
-0.403765
-0.142467
0.434730
0.133051
0.116445
0.127507
-0.334026
-0.400215
-0.395338
-0.407747
-0.360191
-0.391159
-0.383020
-0.384770
0.108560
0.117696
0.443671
0.453597
0.450182
-0.377262
-0.361547
0.328243
0.360283
-0.349920
-0.351124
-0.342387
-0.128983
-0.115237
-0.380088
-0.386952
-0.390861
-0.326197
-0.382240
-0.328223
-0.337427
0.377469
0.371850
0.392810
-0.340077
-0.349840
-0.374157
-0.372534
-0.355767
-0.404417
-0.114244
0.258604
0.279451
-0.365333
-0.365151
-0.400938
-0.395605
-0.409342
-0.352321
-0.352018
0.464284
0.452013
0.472440
-0.337034
0.495240
0.467661
0.481316
0.458987
-0.383273
-0.383056
-0.390381
-0.354384
-0.319895
-0.329041
-0.363971
-0.369317
-0.350147
-0.329599
-0.341121
-0.405623
-0.080655
-0.081556
-0.062268
0.424447
-0.093699
-0.099663
-0.109203
-0.323666
0.473608
0.435847
0.434452
0.446290
-0.401940
-0.395857
-0.411383
-0.333080
-0.336288
-0.342490
-0.375408
-0.381939
-0.389766
-0.365291
-0.407713
0.365008
0.360019
-0.362936
-0.368072
0.461795
0.745013
0.761754
0.768156
-0.356240
-0.356929
-0.344127
-0.342009
0.480341
0.497159
0.364585
0.373835
0.360138
0.346656
-0.270355
-0.265419
-0.254346
-0.345425
0.463758
0.452522
-0.402852
-0.396209
-0.413526
-0.372562
-0.381968
-0.389538
-0.362309
-0.355271
0.421902
0.411430
0.344035
-0.322816
-0.311601
0.199643
0.215807
0.198526
-0.408344
0.423194
0.437500
-0.320233
-0.331016
-0.397026
-0.412906
-0.330675
-0.365259
0.783711
0.767207
-0.346152
0.168419
0.462723
0.433410
0.477095
-0.373063
-0.382587
-0.390254
-0.361869
0.370686
0.382146
0.380415
-0.344492
0.214021
0.410384
-0.333917
-0.331960
-0.345226
0.481951
0.501426
0.226166
0.239287
0.236730
0.463171
0.446545
-0.408493
0.229010
0.224798
0.574126
0.637925
0.615093
-0.251318
-0.261765
-0.247059
-0.259736
0.373661
-0.090068
0.622968
0.656413
0.387754
-0.311372
-0.321966
-0.250976
-0.374315
-0.325296
-0.336440
-0.384975
-0.391337
-0.362143
0.411605
0.649812
0.368783
0.390741
0.374689
-0.309449
0.386163
0.075696
0.091214
0.061042
0.412948
0.428029
0.399919
-0.307808
-0.318105
-0.298690
-0.365569
-0.409047
-0.375062
0.492451
0.493462
0.501719
0.483989
0.395872
-0.396997
-0.344158
-0.380769
-0.355448
0.411209
-0.259089
-0.256822
-0.243540
-0.387378
-0.392677
-0.233613
-0.238501
-0.319153
0.574112
0.528364
0.492981
0.535917
0.092880
0.089399
0.100057
0.100499
0.679291
0.416069
0.410918
-0.330862
-0.273254
0.339704
0.319839
0.345204
-0.321703
-0.323015
-0.335596
0.481303
-0.301080
-0.311013
0.455985
0.442664
0.506003
0.366809
0.346208
0.385222
0.367253
0.351882
-0.310075
-0.323493
-0.334396
0.361576
-0.354662
0.399157
-0.328957
-0.341257
-0.314623
-0.296359
0.352469
-0.355939
0.250361
0.262664
0.252453
0.401486
0.266972
0.386971
-0.295836
0.235375
0.250958
-0.283800
0.233570
0.028495
0.030264
0.017421
-0.079474
0.595490
-0.332955
-0.050253
-0.032470
-0.009310
0.042062
0.278254
0.278863
0.264894
0.220987
0.239813
-0.292043
-0.304915
-0.306692
-0.304191
-0.289796
0.264988
-0.140803
-0.142773
-0.309244
-0.322192
0.206015
0.223859
-0.359329
-0.369195
-0.332313
-0.344587
-0.266150
-0.281093
-0.263188
0.488601
0.499478
0.518566
0.473291
-0.298933
0.645584
0.683529
0.594214
-0.279564
-0.290682
-0.287243
-0.300342
0.583280
0.128391
0.137845
0.127097
-0.315656
0.052617
0.034363
0.387947
-0.409372
-0.407291
-0.404357
-0.310141
-0.328001
0.030282
-0.287544
0.210873
0.215895
0.232194
-0.266164
-0.283338
-0.297103
0.013411
0.370282
0.331893
0.315863
0.301560
0.307953
0.313637
0.003898
-0.001359
-0.009306
0.014955
0.453529
0.451741
0.679601
0.729775
0.286947
0.269924
0.265505
0.433124
0.418762
0.437040
0.250219
0.139420
0.208991
0.190915
0.202107
-0.283105
-0.277063
-0.275904
-0.271122
-0.283855
0.222139
0.238309
0.225386
-0.194709
-0.188915
-0.202430
-0.349597
-0.318880
-0.292617
-0.305128
-0.321208
-0.334554
-0.273726
0.213813
0.233017
0.221550
-0.256461
-0.264571
-0.275187
-0.129046
-0.140076
-0.142537
-0.293026
-0.310120
-0.310736
-0.291197
-0.262177
-0.277018
-0.090327
-0.120010
-0.125843
-0.123083
-0.108099
-0.293957
-0.299121
-0.242351
-0.259845
-0.238897
-0.287995
0.646727
-0.309069
-0.279197
-0.249494
-0.264957
0.412608
0.402269
0.403116
-0.121293
-0.140513
-0.276651
-0.290664
-0.305652
-0.270527
-0.226753
-0.239328
-0.239086
-0.229940
-0.310449
-0.327464
0.654615
0.642297
0.620565
0.580329
-0.231617
-0.240595
-0.249651
-0.235680
-0.251750
-0.251277
-0.251634
0.081716
0.097201
0.090043
0.096347
0.201932
0.229259
0.213583
0.384252
-0.268103
-0.259740
-0.284802
-0.261966
-0.227109
-0.245348
-0.226121
0.256123
0.244281
0.258925
0.222192
-0.261990
-0.276278
-0.293034
-0.299229
-0.318020
-0.247589
-0.205834
-0.213115
0.275227
0.293319
0.278022
0.291279
-0.224385
-0.234613
-0.226991
0.395676
0.413131
0.396291
0.198296
0.503614
0.496210
0.524955
0.526935
-0.117021
-0.124619
-0.207340
-0.233738
0.666623
0.682272
0.677873
-0.215405
-0.227552
-0.222190
-0.278415
-0.276320
0.272869
0.263380
0.267918
-0.182211
-0.193907
-0.179306
-0.192236
-0.205622
-0.225089
-0.243809
0.256914
-0.247034
-0.261781
-0.213606
-0.216726
0.408786
0.301695
0.290142
0.292235
0.311564
-0.279683
0.487854
0.430982
-0.286708
-0.308501
-0.181832
-0.182245
0.326452
0.327442
0.312022
-0.209973
-0.215994
-0.201719
0.392264
0.520215
0.553361
-0.206831
0.344925
0.364031
-0.193827
0.337815
-0.166721
-0.170704
-0.188385
0.147964
0.166051
0.146685
0.181206
0.190563
0.163200
0.172131
0.152064
0.186724
0.204792
0.201054
0.191510
0.189032
-0.227717
-0.181565
-0.182114
-0.195824
0.423580
0.419102
0.389383
-0.212596
0.447598
0.442332
-0.178611
-0.202845
0.191554
0.189397
0.180526
0.176962
-0.225550
0.269708
0.274031
-0.234691
-0.262304
0.246608
0.299470
0.310722
0.330750
0.323151
0.330181
-0.261913
-0.199116
-0.208289
-0.149148
-0.152081
0.282029
-0.202688
-0.199645
0.374133
0.339121
0.356353
-0.157776
0.306564
0.309509
-0.135442
-0.147694
-0.233937
-0.221955
-0.212353
-0.171148
-0.207720
-0.206216
-0.232411
-0.211594
0.031532
0.047333
0.074944
-0.146334
-0.177458
-0.195612
-0.191844
0.301276
-0.206121
-0.061264
-0.049332
-0.068860
-0.058021
0.321474
0.255170
0.242794
0.227334
-0.186570
-0.179167
-0.192369
-0.182242
0.315596
0.292001
0.313662
0.295198
-0.216523
-0.245193
-0.160927
-0.173430
0.294942
0.285324
0.233491
0.221811
-0.235445
0.539543
0.512877
0.525463
0.491130
0.077011
0.072200
0.056751
0.456458
0.449654
0.464712
0.565597
0.596141
0.563202
-0.183988
-0.198505
-0.196483
-0.108929
-0.113981
0.252192
0.282339
0.273443
0.435470
0.658788
0.605348
-0.120278
-0.090003
-0.107902
-0.148394
0.059726
0.063664
0.080160
-0.107332
-0.147456
0.233006
0.213597
0.232863
0.201866
0.351243
0.362316
-0.183000
-0.193481
-0.225304
-0.062133
-0.067147
0.352947
0.210821
0.201312
0.215087
-0.075805
0.202960
0.487643
0.474002
0.484671
-0.042529
-0.061366
-0.065835
-0.112729
-0.164778
-0.152311
-0.153827
-0.165172
-0.194791
0.610155
0.622533
0.557531
0.561169
-0.215991
-0.232315
-0.217157
-0.016040
-0.016612
-0.116314
-0.106591
-0.114727
0.543060
0.521205
0.646977
0.638465
0.614694
0.583174
0.590751
0.468826
-0.028401
0.004503
-0.013409
0.500822
0.504087
0.197679
0.214958
0.202376
0.215732
-0.026837
-0.077028
-0.123669
-0.131415
-0.130111
-0.164421
0.024033
0.029402
0.277278
0.276657
0.286806
0.489453
0.476115
0.455061
0.440533
0.449974
0.233897
0.247501
-0.064324
-0.074638
-0.169020
-0.162338
-0.171667
0.020776
0.057328
0.033276
0.253814
-0.094573
-0.102640
-0.110293
0.509035
0.533775
0.006201
-0.047476
0.463011
0.439601
0.430673
0.417095
-0.090078
-0.100623
0.408048
0.390521
-0.182166
-0.179113
0.308474
0.306114
0.194842
0.058629
0.069353
-0.162693
-0.124993
-0.109482
-0.119022
0.062455
0.088084
-0.267727
-0.285550
0.026103
-0.019015
0.346083
-0.206307
-0.217410
-0.244430
-0.288374
-0.276876
0.077084
0.103559
0.460180
0.301650
0.149507
-0.124880
0.262451
0.276773
0.258276
0.100678
0.122096
0.216930
0.235183
-0.174415
-0.161438
-0.165919
0.038779
-0.004931
0.224189
0.327526
0.297397
0.158094
0.162384
0.172150
0.287917
-0.134792
0.246208
0.159348
0.150301
0.167361
0.249566
-0.115603
-0.133763
-0.137148
-0.083977
-0.123773
-0.080097
0.013639
0.013066
0.032308
0.161466
0.151913
0.084976
0.119225
-0.099366
0.135709
0.151291
0.057250
0.013272
0.031456
0.018973
-0.214088
0.499202
0.510586
0.517996
0.500854
0.489397
0.487415
0.515605
-0.121139
0.239977
0.238301
0.260600
0.240283
0.261587
-0.044739
-0.047772
-0.026654
0.276355
0.272524
0.261479
0.564795
0.573301
0.567162
0.072245
0.287625
-0.037121
-0.029777
-0.050148
-0.043833
0.110720
0.094810
0.109584
0.167382
0.250389
-0.230717
-0.240377
-0.222747
0.307173
0.290077
0.290487
0.091154
0.382901
0.362005
0.394756
0.349711
0.345219
-0.064035
0.572188
0.585159
0.596806
0.288575
-0.123253
-0.105394
-0.114671
-0.113049
0.556311
0.229027
0.244548
0.242076
0.230615
0.244777
0.224851
0.238790
0.734288
0.223445
-0.091787
-0.097589
-0.103202
-0.113073
-0.156523
-0.138798
-0.186123
-0.178416
-0.155628
-0.218331
0.100623
-0.077697
-0.089979
-0.071793
-0.092030
-0.110610
-0.097081
-0.107175
-0.106864
0.022457
0.007617
0.026282
0.002212
0.135667
0.146552
0.132788
0.276025
0.299656
0.543379
0.567634
0.544519
0.568846
0.543740
0.524343
-0.076235
-0.093172
-0.082302
-0.100235
0.150767
-0.160969
-0.167869
-0.179260
0.463764
0.446417
-0.172501
0.118044
0.405918
0.407889
0.426570
0.422095
0.415206
0.125226
0.107857
0.474647
-0.169824
-0.152162
-0.165350
-0.152441
-0.216857
0.700197
0.701470
0.067117
0.464389
0.458087
0.434330
0.507485
0.509010
0.504402
0.488481
0.306392
0.310158
0.296220
0.299959
0.294903
0.120978
0.106659
0.102347
-0.083989
-0.069868
0.203280
0.192482
0.188137
0.178845
-0.046245
-0.060930
-0.045193
-0.055464
-0.068639
0.197824
0.182348
0.093721
0.105975
0.110533
0.092731
0.050481
0.036990
0.028022
0.031448
0.029999
0.041395
0.018115
0.154542
0.169926
0.518357
0.514579
0.507355
0.176161
0.167177
0.154106
-0.392732
0.185367
0.503142
0.472954
-0.012804
-0.029327
-0.018342
-0.025418
-0.388458
0.200552
0.212143
0.176419
0.154127
0.142654
-0.200016
-0.197426
-0.181633
-0.197214
-0.184153
0.277547
0.028047
0.063029
0.428621
0.468166
0.494492
0.461610
0.420670
0.087918
0.090409
0.020926
0.002737
0.015513
0.265964
0.287575
0.275511
0.184477
0.300029
0.261694
0.260992
0.273881
-0.156172
0.274817
-0.096070
0.268770
0.283887
0.260128
0.231442
0.255054
0.263628
0.141785
0.135652
0.145128
0.130387
0.146414
0.135672
0.337632
0.355506
0.368068
0.197075
0.192241
0.211634
0.213711
0.188761
-0.139019
-0.121175
0.303577
0.289683
0.282559
0.291904
-0.013493
-0.008114
0.021443
0.012088
0.386754
-0.042496
-0.036822
-0.051567
-0.060649
-0.066836
-0.076180
-0.011771
-0.027634
-0.005725
-0.080600
-0.091201
0.006454
0.125886
0.107458
0.105269
0.087496
0.025009
0.019493
0.032614
0.009552
0.515601
0.523171
-0.045038
0.567385
0.461249
0.431469
0.403616
0.411362
0.383421
-0.054333
-0.046834
-0.060099
-0.121331
-0.112862
-0.127169
0.290174
0.287388
0.276112
0.025806
0.013377
0.244344
0.263698
0.038408
0.026121
0.034224
0.300993
0.299760
0.324506
0.285410
-0.032145
-0.048064
-0.032054
-0.048105
0.254485
0.262796
0.278500
0.239394
0.248450
0.238929
-0.140921
0.535394
0.550290
0.534704
0.551282
0.518388
0.531011
0.174729
0.179573
0.190159
0.163275
0.171827
-0.064428
-0.065405
-0.048094
-0.064663
-0.083775
-0.077877
0.485055
0.495882
-0.075182
-0.088498
-0.086785
0.569026
0.539257
-0.103522
0.337141
0.347084
0.310229
-0.063164
0.476456
0.488404
0.533731
0.518035
0.491519
0.505121
0.513979
0.446926
0.453408
0.411251
0.441888
-0.031156
-0.019401
0.127913
0.132902
0.147011
0.110981
0.162348
0.160148
0.175744
-0.090535
-0.094071
-0.100133
0.361174
0.374857
0.344144
0.167982
0.153130
-0.174918
-0.173811
0.180428
-0.065874
-0.066364
-0.087120
-0.056285
-0.049993
-0.038217
-0.048180
-0.147750
-0.142685
-0.153622
-0.136123
-0.152760
-0.144974
-0.190983
-0.188372
-0.207580
-0.198032
-0.023724
-0.017620
0.329063
-0.027659
-0.006792
-0.273268
-0.286034
-0.061640
-0.042844
-0.077778
-0.056256
-0.118930
-0.125710
-0.099226
-0.079775
-0.089243
-0.071414
-0.039125
0.480736
0.456352
0.489791
0.414610
-0.046080
-0.061075
0.131348
0.147056
0.164412
0.493989
0.497960
0.506790
0.511367
0.487718
0.478699
0.477830
-0.067240
-0.089229
-0.068987
0.495549
0.439933
-0.169284
-0.168891
-0.155851
0.080780
0.078670
0.093300
0.335836
0.378470
0.068145
0.105472
0.121152
-0.038777
-0.030926
-0.024248
-0.016882
0.665857
0.638545
0.613241
0.670215
-0.031051
-0.045634
-0.012722
-0.016022
0.261853
-0.157673
0.249369
0.393648
0.423613
0.393934
0.443282
0.366187
0.387950
0.360101
0.050187
0.056508
0.134220
0.113416
0.153058
0.117856
0.110086
0.121874
0.124663
0.118485
0.507685
0.668967
0.591048
0.515429
0.183417
0.182839
0.419569
0.387248
0.173245
0.161822
0.140526
0.133903
0.393897
0.407715
0.405898
0.388747
0.247807
0.272622
0.232359
-0.126272
-0.118655
-0.130840
-0.121144
-0.138350
0.286552
-0.135166
-0.002232
0.288676