# vtk DataFile Version 2.0
Test
ASCII
DATASET POLYDATA
POINTS 25620 float
0.000000 0.000000 0.000000
2.000000 0.000000 0.000000
2.000000 4.000000 0.000000
0.000000 4.000000 0.000000
0.000000 0.500000 0.000000
1.500000 2.000000 0.000000
2.000000 2.500000 0.000000
0.020000 0.000000 0.000000
0.040000 0.000000 0.000000
0.060000 0.000000 0.000000
0.080000 0.000000 0.000000
0.100000 0.000000 0.000000
0.120000 0.000000 0.000000
0.140000 0.000000 0.000000
0.160000 0.000000 0.000000
0.180000 0.000000 0.000000
0.200000 0.000000 0.000000
0.220000 0.000000 0.000000
0.240000 0.000000 0.000000
0.260000 0.000000 0.000000
0.280000 0.000000 0.000000
0.300000 0.000000 0.000000
0.320000 0.000000 0.000000
0.340000 0.000000 0.000000
0.360000 0.000000 0.000000
0.380000 0.000000 0.000000
0.400000 0.000000 0.000000
0.420000 0.000000 0.000000
0.440000 0.000000 0.000000
0.460000 0.000000 0.000000
0.480000 0.000000 0.000000
0.500000 0.000000 0.000000
0.520000 0.000000 0.000000
0.540000 0.000000 0.000000
0.560000 0.000000 0.000000
0.580000 0.000000 0.000000
0.600000 0.000000 0.000000
0.620000 0.000000 0.000000
0.640000 0.000000 0.000000
0.660000 0.000000 0.000000
0.680000 0.000000 0.000000
0.700000 0.000000 0.000000
0.720000 0.000000 0.000000
0.740000 0.000000 0.000000
0.760000 0.000000 0.000000
0.780000 0.000000 0.000000
0.800000 0.000000 0.000000
0.820000 0.000000 0.000000
0.840000 0.000000 0.000000
0.860000 0.000000 0.000000
0.880000 0.000000 0.000000
0.900000 0.000000 0.000000
0.920000 0.000000 0.000000
0.940000 0.000000 0.000000
0.960000 0.000000 0.000000
0.980000 0.000000 0.000000
1.000000 0.000000 0.000000
1.020000 0.000000 0.000000
1.040000 0.000000 0.000000
1.060000 0.000000 0.000000
1.080000 0.000000 0.000000
1.100000 0.000000 0.000000
1.120000 0.000000 0.000000
1.140000 0.000000 0.000000
1.160000 0.000000 0.000000
1.180000 0.000000 0.000000
1.200000 0.000000 0.000000
1.220000 0.000000 0.000000
1.240000 0.000000 0.000000
1.260000 0.000000 0.000000
1.280000 0.000000 0.000000
1.300000 0.000000 0.000000
1.320000 0.000000 0.000000
1.340000 0.000000 0.000000
1.360000 0.000000 0.000000
1.380000 0.000000 0.000000
1.400000 0.000000 0.000000
1.420000 0.000000 0.000000
1.440000 0.000000 0.000000
1.460000 0.000000 0.000000
1.480000 0.000000 0.000000
1.500000 0.000000 0.000000
1.520000 0.000000 0.000000
1.540000 0.000000 0.000000
1.560000 0.000000 0.000000
1.580000 0.000000 0.000000
1.600000 0.000000 0.000000
1.620000 0.000000 0.000000
1.640000 0.000000 0.000000
1.660000 0.000000 0.000000
1.680000 0.000000 0.000000
1.700000 0.000000 0.000000
1.720000 0.000000 0.000000
1.740000 0.000000 0.000000
1.760000 0.000000 0.000000
1.780000 0.000000 0.000000
1.800000 0.000000 0.000000
1.820000 0.000000 0.000000
1.840000 0.000000 0.000000
1.860000 0.000000 0.000000
1.880000 0.000000 0.000000
1.900000 0.000000 0.000000
1.920000 0.000000 0.000000
1.940000 0.000000 0.000000
1.960000 0.000000 0.000000
1.980000 0.000000 0.000000
2.000000 0.020000 0.000000
2.000000 0.040000 0.000000
2.000000 0.060000 0.000000
2.000000 0.080000 0.000000
2.000000 0.100000 0.000000
2.000000 0.120000 0.000000
2.000000 0.140000 0.000000
2.000000 0.160000 0.000000
2.000000 0.180000 0.000000
2.000000 0.200000 0.000000
2.000000 0.220000 0.000000
2.000000 0.240000 0.000000
2.000000 0.260000 0.000000
2.000000 0.280000 0.000000
2.000000 0.300000 0.000000
2.000000 0.320000 0.000000
2.000000 0.340000 0.000000
2.000000 0.360000 0.000000
2.000000 0.380000 0.000000
2.000000 0.400000 0.000000
2.000000 0.420000 0.000000
2.000000 0.440000 0.000000
2.000000 0.460000 0.000000
2.000000 0.480000 0.000000
2.000000 0.500000 0.000000
2.000000 0.520000 0.000000
2.000000 0.540000 0.000000
2.000000 0.560000 0.000000
2.000000 0.580000 0.000000
2.000000 0.600000 0.000000
2.000000 0.620000 0.000000
2.000000 0.640000 0.000000
2.000000 0.660000 0.000000
2.000000 0.680000 0.000000
2.000000 0.700000 0.000000
2.000000 0.720000 0.000000
2.000000 0.740000 0.000000
2.000000 0.760000 0.000000
2.000000 0.780000 0.000000
2.000000 0.800000 0.000000
2.000000 0.820000 0.000000
2.000000 0.840000 0.000000
2.000000 0.860000 0.000000
2.000000 0.880000 0.000000
2.000000 0.900000 0.000000
2.000000 0.920000 0.000000
2.000000 0.940000 0.000000
2.000000 0.960000 0.000000
2.000000 0.980000 0.000000
2.000000 1.000000 0.000000
2.000000 1.020000 0.000000
2.000000 1.040000 0.000000
2.000000 1.060000 0.000000
2.000000 1.080000 0.000000
2.000000 1.100000 0.000000
2.000000 1.120000 0.000000
2.000000 1.140000 0.000000
2.000000 1.160000 0.000000
2.000000 1.180000 0.000000
2.000000 1.200000 0.000000
2.000000 1.220000 0.000000
2.000000 1.240000 0.000000
2.000000 1.260000 0.000000
2.000000 1.280000 0.000000
2.000000 1.300000 0.000000
2.000000 1.320000 0.000000
2.000000 1.340000 0.000000
2.000000 1.360000 0.000000
2.000000 1.380000 0.000000
2.000000 1.400000 0.000000
2.000000 1.420000 0.000000
2.000000 1.440000 0.000000
2.000000 1.460000 0.000000
2.000000 1.480000 0.000000
2.000000 1.500000 0.000000
2.000000 1.520000 0.000000
2.000000 1.540000 0.000000
2.000000 1.560000 0.000000
2.000000 1.580000 0.000000
2.000000 1.600000 0.000000
2.000000 1.620000 0.000000
2.000000 1.640000 0.000000
2.000000 1.660000 0.000000
2.000000 1.680000 0.000000
2.000000 1.700000 0.000000
2.000000 1.720000 0.000000
2.000000 1.740000 0.000000
2.000000 1.760000 0.000000
2.000000 1.780000 0.000000
2.000000 1.800000 0.000000
2.000000 1.820000 0.000000
2.000000 1.840000 0.000000
2.000000 1.860000 0.000000
2.000000 1.880000 0.000000
2.000000 1.900000 0.000000
2.000000 1.920000 0.000000
2.000000 1.940000 0.000000
2.000000 1.960000 0.000000
2.000000 1.980000 0.000000
2.000000 2.000000 0.000000
2.000000 2.020000 0.000000
2.000000 2.040000 0.000000
2.000000 2.060000 0.000000
2.000000 2.080000 0.000000
2.000000 2.100000 0.000000
2.000000 2.120000 0.000000
2.000000 2.140000 0.000000
2.000000 2.160000 0.000000
2.000000 2.180000 0.000000
2.000000 2.200000 0.000000
2.000000 2.220000 0.000000
2.000000 2.240000 0.000000
2.000000 2.260000 0.000000
2.000000 2.280000 0.000000
2.000000 2.300000 0.000000
2.000000 2.320000 0.000000
2.000000 2.340000 0.000000
2.000000 2.360000 0.000000
2.000000 2.380000 0.000000
2.000000 2.400000 0.000000
2.000000 2.420000 0.000000
2.000000 2.440000 0.000000
2.000000 2.460000 0.000000
2.000000 2.480000 0.000000
2.000000 2.520000 0.000000
2.000000 2.540000 0.000000
2.000000 2.560000 0.000000
2.000000 2.580000 0.000000
2.000000 2.600000 0.000000
2.000000 2.620000 0.000000
2.000000 2.640000 0.000000
2.000000 2.660000 0.000000
2.000000 2.680000 0.000000
2.000000 2.700000 0.000000
2.000000 2.720000 0.000000
2.000000 2.740000 0.000000
2.000000 2.760000 0.000000
2.000000 2.780000 0.000000
2.000000 2.800000 0.000000
2.000000 2.820000 0.000000
2.000000 2.840000 0.000000
2.000000 2.860000 0.000000
2.000000 2.880000 0.000000
2.000000 2.900000 0.000000
2.000000 2.920000 0.000000
2.000000 2.940000 0.000000
2.000000 2.960000 0.000000
2.000000 2.980000 0.000000
2.000000 3.000000 0.000000
2.000000 3.020000 0.000000
2.000000 3.040000 0.000000
2.000000 3.060000 0.000000
2.000000 3.080000 0.000000
2.000000 3.100000 0.000000
2.000000 3.120000 0.000000
2.000000 3.140000 0.000000
2.000000 3.160000 0.000000
2.000000 3.180000 0.000000
2.000000 3.200000 0.000000
2.000000 3.220000 0.000000
2.000000 3.240000 0.000000
2.000000 3.260000 0.000000
2.000000 3.280000 0.000000
2.000000 3.300000 0.000000
2.000000 3.320000 0.000000
2.000000 3.340000 0.000000
2.000000 3.360000 0.000000
2.000000 3.380000 0.000000
2.000000 3.400000 0.000000
2.000000 3.420000 0.000000
2.000000 3.440000 0.000000
2.000000 3.460000 0.000000
2.000000 3.480000 0.000000
2.000000 3.500000 0.000000
2.000000 3.520000 0.000000
2.000000 3.540000 0.000000
2.000000 3.560000 0.000000
2.000000 3.580000 0.000000
2.000000 3.600000 0.000000
2.000000 3.620000 0.000000
2.000000 3.640000 0.000000
2.000000 3.660000 0.000000
2.000000 3.680000 0.000000
2.000000 3.700000 0.000000
2.000000 3.720000 0.000000
2.000000 3.740000 0.000000
2.000000 3.760000 0.000000
2.000000 3.780000 0.000000
2.000000 3.800000 0.000000
2.000000 3.820000 0.000000
2.000000 3.840000 0.000000
2.000000 3.860000 0.000000
2.000000 3.880000 0.000000
2.000000 3.900000 0.000000
2.000000 3.920000 0.000000
2.000000 3.940000 0.000000
2.000000 3.960000 0.000000
2.000000 3.980000 0.000000
1.980000 4.000000 0.000000
1.960000 4.000000 0.000000
1.940000 4.000000 0.000000
1.920000 4.000000 0.000000
1.900000 4.000000 0.000000
1.880000 4.000000 0.000000
1.860000 4.000000 0.000000
1.840000 4.000000 0.000000
1.820000 4.000000 0.000000
1.800000 4.000000 0.000000
1.780000 4.000000 0.000000
1.760000 4.000000 0.000000
1.740000 4.000000 0.000000
1.720000 4.000000 0.000000
1.700000 4.000000 0.000000
1.680000 4.000000 0.000000
1.660000 4.000000 0.000000
1.640000 4.000000 0.000000
1.620000 4.000000 0.000000
1.600000 4.000000 0.000000
1.580000 4.000000 0.000000
1.560000 4.000000 0.000000
1.540000 4.000000 0.000000
1.520000 4.000000 0.000000
1.500000 4.000000 0.000000
1.480000 4.000000 0.000000
1.460000 4.000000 0.000000
1.440000 4.000000 0.000000
1.420000 4.000000 0.000000
1.400000 4.000000 0.000000
1.380000 4.000000 0.000000
1.360000 4.000000 0.000000
1.340000 4.000000 0.000000
1.320000 4.000000 0.000000
1.300000 4.000000 0.000000
1.280000 4.000000 0.000000
1.260000 4.000000 0.000000
1.240000 4.000000 0.000000
1.220000 4.000000 0.000000
1.200000 4.000000 0.000000
1.180000 4.000000 0.000000
1.160000 4.000000 0.000000
1.140000 4.000000 0.000000
1.120000 4.000000 0.000000
1.100000 4.000000 0.000000
1.080000 4.000000 0.000000
1.060000 4.000000 0.000000
1.040000 4.000000 0.000000
1.020000 4.000000 0.000000
1.000000 4.000000 0.000000
0.980000 4.000000 0.000000
0.960000 4.000000 0.000000
0.940000 4.000000 0.000000
0.920000 4.000000 0.000000
0.900000 4.000000 0.000000
0.880000 4.000000 0.000000
0.860000 4.000000 0.000000
0.840000 4.000000 0.000000
0.820000 4.000000 0.000000
0.800000 4.000000 0.000000
0.780000 4.000000 0.000000
0.760000 4.000000 0.000000
0.740000 4.000000 0.000000
[...]
POINT_DATA 25620
SCALARS UX float 1
LOOKUP_TABLE default
-0.000019
0.000020
-0.035219
-0.222598
-0.067249
0.011463
0.017827
-0.000011
-0.000002
-0.000003
0.000002
-0.000003
0.000001
-0.000002
0.000001
-0.000000
0.000000
0.000000
-0.000000
0.000000
-0.000000
-0.000000
0.000000
-0.000000
-0.000000
0.000000
-0.000001
-0.000002
0.000001
-0.000000
-0.000000
0.000000
-0.000000
0.000000
-0.000000
0.000000
0.000000
-0.000000
-0.000000
-0.000001
0.000000
0.000000
-0.000000
0.000000
-0.000000
-0.000000
0.000000
-0.000000
-0.000000
-0.000000
0.000000
0.000000
-0.000000
0.000000
0.000001
-0.000000
0.000000
0.000000
0.000000
0.000000
0.000000
0.000001
-0.000000
0.000000
0.000001
0.000000
0.000000
0.000000
0.000000
-0.000000
-0.000000
0.000001
-0.000000
-0.000000
0.000001
0.000000
0.000001
-0.000000
0.000000
-0.000000
0.000000
0.000000
-0.000001
-0.000000
0.000000
0.000000
0.000000
-0.000000
0.000000
0.000001
0.000000
0.000000
0.000000
-0.000000
-0.000000
0.000000
0.000000
0.000001
-0.000000
-0.000002
0.000001
-0.000002
0.000002
0.000002
-0.000009
0.000014
0.010180
0.016431
0.021640
0.026242
0.030257
0.034066
0.037537
0.040868
0.043975
0.046870
0.049633
0.052172
0.054643
0.056942
0.059152
0.061184
0.063163
0.065100
0.066813
0.068443
0.070081
0.071538
0.072949
0.074270
0.075517
0.076733
0.077838
0.078892
0.079828
0.080706
0.081681
0.082422
0.083219
0.083909
0.084545
0.085201
0.085742
0.086306
0.086788
0.087294
0.087815
0.088233
0.088551
0.088805
0.089020
0.089038
0.089311
0.089371
0.089443
0.089400
0.089322
0.089398
0.089377
0.089254
0.089170
0.089083
0.089018
0.088874
0.088680
0.088561
0.088482
0.088366
0.088214
0.088230
0.088166
0.088106
0.087942
0.087765
0.087554
0.087362
0.087242
0.086956
0.086714
0.086495
0.086335
0.086073
0.085826
0.085573
0.085317
0.084959
0.084770
0.084432
0.084183
0.083875
0.083549
0.083201
0.082770
0.082458
0.082138
0.081721
0.081323
0.081010
0.080636
0.080278
0.079911
0.079578
0.079220
0.078851
0.078431
0.078188
0.077676
0.077133
0.076457
0.075608
0.074617
0.073251
0.071621
0.069583
0.067087
0.064564
0.061741
0.058212
0.055343
0.052015
0.048241
0.044180
0.040528
0.036980
0.033761
0.030580
0.027623
0.024884
0.022411
0.020026
0.015775
0.013889
0.011992
0.010322
0.008707
0.007079
0.005660
0.004241
0.002908
0.001642
0.000512
-0.000698
-0.001796
-0.002739
-0.003791
-0.004566
-0.005637
-0.006399
-0.007199
-0.007924
-0.008575
-0.009293
-0.009924
-0.010479
-0.011234
-0.012075
-0.013025
-0.014504
-0.015408
-0.016019
-0.016673
-0.017143
-0.017530
-0.018099
-0.018632
-0.019150
-0.019750
-0.020254
-0.020977
-0.021372
-0.021923
-0.022585
-0.023129
-0.023743
-0.024229
-0.024851
-0.025351
-0.025912
-0.026442
-0.027146
-0.027566
-0.028110
-0.028727
-0.029144
-0.029702
-0.030216
-0.030715
-0.031219
-0.031744
-0.031991
-0.032472
-0.032865
-0.033140
-0.033439
-0.033719
-0.033969
-0.034230
-0.034474
-0.034572
-0.034751
-0.034820
-0.034979
-0.035023
-0.035180
-0.037503
-0.039754
-0.042031
-0.044330
-0.046648
-0.048881
-0.051157
-0.053414
-0.055655
-0.057839
-0.060081
-0.062342
-0.064515
-0.066712
-0.068867
-0.071025
-0.073288
-0.075413
-0.077484
-0.079603
-0.081777
-0.083865
-0.085929
-0.088049
-0.090101
-0.092140
-0.094197
-0.096259
-0.098278
-0.100299
-0.102341
-0.104349
-0.106302
-0.108307
-0.110278
-0.112219
-0.114218
-0.116128
-0.118096
-0.120048
-0.121952
-0.123865
-0.125756
-0.127653
-0.129529
-0.131425
-0.133320
-0.135215
-0.137071
-0.138879
-0.140717
-0.142584
-0.144357
-0.146155
-0.148026
-0.149845
-0.151622
-0.153414
-0.155193
-0.156957
-0.158721
-0.160498
-0.162251
-0.164019
-0.165775
-0.167499
-0.169214
-0.170949
-0.172681
-0.174370
-0.176057
-0.177752
-0.179450
-0.181137
-0.182795
-0.184440
-0.186137
-0.187809
-0.189436
-0.191071
-0.192735
-0.194369
-0.195975
-0.197596
-0.199228
-0.200855
-0.202441
-0.203956
-0.205553
-0.207140
-0.208720
-0.210230
-0.211804
-0.213381
-0.214922
-0.216470
-0.218000
-0.219510
-0.221052
-0.222537
-0.222510
-0.222444
-0.222422
-0.222279
-0.222185
-0.222039
-0.221931
-0.221810
-0.221631
-0.221487
-0.221239
-0.221044
-0.220802
-0.220576
-0.220260
-0.220063
-0.219742
-0.219437
-0.219134
-0.218823
-0.218422
-0.218059
-0.217692
-0.217264
-0.216909
-0.216490
-0.216018
-0.215623
-0.215201
-0.214663
-0.214194
-0.213745
-0.213265
-0.212757
-0.212231
-0.211692
-0.211148
-0.210598
-0.210054
-0.209480
-0.208893
-0.208327
-0.207818
-0.207191
-0.206635
-0.205991
-0.205365
-0.204857
-0.204145
-0.203606
-0.202988
-0.202402
-0.201718
-0.201065
-0.200456
-0.199909
-0.199284
-0.198624
-0.197975
-0.197394
-0.196760
-0.196145
-0.195546
-0.194865
-0.194260
-0.193663
-0.193088
-0.192446
-0.191792
-0.191243
-0.190611
-0.190045
-0.189434
-0.188814
-0.188185
-0.187585
-0.187028
-0.186367
-0.185754
-0.185257
-0.184616
-0.183898
-0.183390
-0.182776
-0.182063
-0.181575
-0.180891
-0.180175
-0.179622
-0.178901
-0.178311
-0.177611
-0.176920
-0.176222
-0.175494
-0.174800
-0.174040
-0.173267
-0.172444
-0.171649
-0.170884
-0.169988
-0.169107
-0.168246
-0.167263
-0.166363
-0.165395
-0.164321
-0.163303
-0.162223
-0.161137
-0.159913
-0.158785
-0.157566
-0.156310
-0.155013
-0.153655
-0.152294
-0.150911
-0.149395
-0.147947
-0.146388
-0.144822
-0.143219
-0.141565
-0.139906
-0.138146
-0.136425
-0.134674
-0.132881
-0.131040
-0.129254
-0.127421
-0.125586
-0.123804
-0.121954
-0.120213
-0.118503
-0.116780
-0.115198
-0.113653
-0.112194
-0.110889
-0.109671
-0.108645
-0.107652
-0.107020
-0.106501
-0.106251
-0.106165
-0.106321
-0.106705
-0.107337
-0.108132
-0.109163
-0.110297
-0.111537
-0.112802
-0.114107
-0.115342
-0.116507
-0.117759
-0.119186
-0.120847
-0.122936
-0.125600
-0.128964
-0.133494
-0.139387
-0.147912
-0.152599
-0.186537
-0.178315
-0.064543
-0.063809
-0.062880
-0.062231
-0.061429
-0.060462
-0.059388
-0.058139
-0.056712
-0.055115
-0.053376
-0.051446
-0.049369
-0.047121
-0.044645
-0.042052
-0.039177
-0.036207
-0.032866
-0.029399
-0.025595
-0.021475
-0.016614
-0.012222
-0.104321
-0.117995
-0.161514
-0.166444
-0.137212
-0.101275
-0.072478
-0.077189
-0.045093
-0.064898
-0.110186
-0.135639
-0.083088
-0.070415
-0.095480
-0.080461
-0.103141
-0.079084
-0.094006
-0.085436
-0.087426
-0.082032
-0.087054
-0.087093
-0.082094
-0.078988
-0.078108
-0.082770
-0.076423
-0.099534
-0.124114
-0.080349
-0.071658
-0.074381
-0.065146
-0.072610
-0.084390
-0.073380
-0.060075
-0.043653
-0.033893
-0.047582
-0.047478
-0.040612
-0.027775
-0.040805
-0.042654
-0.050353
-0.051172
-0.046326
-0.050190
-0.047999
-0.047920
-0.047314
-0.047084
-0.047133
-0.045750
-0.046438
-0.046592
-0.046558
-0.046629
-0.047342
-0.046196
-0.046914
-0.045300
-0.044968
-0.047590
-0.046285
-0.047525
-0.048536
-0.048339
-0.051207
-0.054387
-0.057529
-0.059475
-0.058558
-0.057220
-0.053483
-0.050378
-0.047119
-0.042956
-0.038637
-0.038802
-0.035528
-0.033431
-0.033749
-0.030403
-0.028464
-0.028323
-0.026236
-0.024256
-0.023480
-0.022327
-0.021244
-0.018564
-0.016574
-0.014552
-0.011962
-0.009741
-0.006654
-0.002747
0.002265
0.002794
0.003762
0.006911
0.010920
0.012579
0.014496
0.017310
0.020076
0.020208
0.021266
0.022156
0.023054
0.023893
0.024059
0.024227
0.023088
0.020562
0.019517
0.018757
0.018450
0.017564
0.017036
0.016366
0.016092
0.015596
0.015155
0.014991
0.014654
0.014276
0.014029
0.013715
0.013715
0.013740
0.013715
0.014096
0.014692
0.015263
0.016089
0.016861
-0.106940
-0.105274
-0.105950
-0.105791
-0.099192
-0.097778
-0.098013
-0.096776
-0.064528
-0.065778
-0.063481
-0.066630
0.001533
-0.001331
0.001342
-0.099447
-0.099225
-0.100887
0.004468
0.004278
0.000464
0.003767
0.002199
-0.050025
-0.047711
-0.048472
-0.198696
-0.199840
-0.200676
-0.198239
-0.096565
-0.094788
-0.096080
-0.094533
-0.049883
-0.186931
-0.185970
-0.187820
-0.204608
-0.205334
-0.206122
-0.185412
-0.132506
-0.133545
-0.134042
-0.131960
-0.186091
-0.187822
-0.187191
-0.101813
-0.100201
-0.101224
-0.134586
-0.134539
-0.136466
-0.100523
-0.115592
-0.114035
-0.115776
-0.114091
-0.103764
-0.103534
0.010685
0.004333
-0.112828
-0.113944
-0.114233
-0.111992
-0.116633
-0.117394
-0.042309
-0.040299
-0.041278
-0.133323
-0.133206
-0.202313
-0.203202
-0.203454
-0.204403
-0.145706
-0.145633
-0.143839
-0.147301
-0.078502
-0.076736
-0.078424
-0.077330
-0.174284
-0.173089
-0.173954
-0.172405
-0.039650
-0.148386
-0.148903
-0.150016
-0.034319
-0.031902
-0.033605
-0.031417
-0.074696
-0.076039
-0.076702
-0.167988
-0.168288
-0.166372
-0.074316
-0.080283
-0.079477
-0.077844
-0.107156
-0.108970
-0.109466
-0.107013
-0.070665
-0.070201
-0.072281
-0.099063
-0.101331
-0.100802
-0.100891
-0.166421
-0.167900
-0.167082
-0.167955
-0.207110
-0.205922
-0.206842
-0.205306
-0.142439
-0.143214
-0.143886
-0.141536
-0.145246
-0.147017
-0.146759
-0.146221
-0.089842
-0.088316
-0.089580
-0.200062
-0.199888
-0.201183
-0.088701
-0.029372
-0.030029
-0.150764
-0.064120
-0.063160
-0.061875
-0.070733
-0.068843
-0.069749
-0.135168
-0.132784
-0.129732
-0.129086
0.009682
0.007980
0.006546
-0.082810
-0.080953
-0.083907
0.006346
0.008980
0.008354
0.007430
0.010749
0.013383
0.013412
0.011653
-0.184907
-0.183539
-0.185306
-0.183885
-0.213493
-0.212046
-0.211924
-0.213017
-0.127382
-0.125435
-0.126698
-0.162697
-0.164192
-0.162438
-0.164053
-0.058715
-0.060198
-0.058879
-0.170860
-0.171812
-0.170111
-0.060885
-0.171956
-0.170014
-0.168395
-0.167637
-0.125217
-0.126453
-0.125203
-0.126886
-0.119177
-0.120960
-0.120655
-0.122353
-0.145328
-0.144963
-0.143942
-0.146499
-0.151356
-0.150888
-0.152686
-0.152117
-0.096762
-0.098280
-0.098543
-0.210983
-0.210731
-0.100209
-0.209682
-0.075908
-0.073872
-0.074088
-0.072327
-0.001112
-0.003703
-0.003640
-0.006705
-0.064765
-0.063945
-0.062925
-0.062608
-0.171857
-0.172992
-0.171090
-0.173321
-0.061149
-0.207494
-0.208920
-0.207975
-0.207667
-0.202688
-0.201512
-0.203163
-0.064408
-0.063786
-0.066369
-0.095365
-0.097534
-0.097116
-0.109770
-0.111300
-0.111327
-0.109882
-0.111343
-0.112859
-0.113318
-0.114792
-0.134342
-0.135587
-0.134462
-0.136157
-0.162946
-0.161677
-0.163069
-0.004969
-0.161691
-0.177471
-0.176003
-0.176039
-0.177633
-0.175654
-0.177134
-0.175853
-0.146162
-0.145459
-0.144281
-0.144081
-0.145549
-0.049221
-0.050811
-0.048610
-0.051739
-0.046502
-0.046444
-0.044923
-0.143800
-0.126313
-0.127170
-0.127817
-0.129080
-0.139971
-0.138758
-0.139088
-0.137260
-0.135563
-0.135945
-0.137135
-0.134229
-0.126277
-0.127908
-0.193438
-0.193881
-0.194770
-0.129600
-0.065471
-0.063484
-0.064425
-0.214922
-0.215432
-0.213996
-0.064652
-0.047245
-0.045216
-0.046083
-0.094105
-0.093001
-0.094823
-0.136230
-0.135962
-0.134843
-0.137514
-0.171885
-0.173312
-0.172361
-0.174265
-0.116382
-0.117998
-0.116981
-0.117902
-0.116958
-0.115697
-0.115178
-0.114075
-0.061534
-0.060351
-0.060175
-0.058736
-0.132737
-0.131817
-0.143819
-0.145055
-0.144145
-0.145055
-0.056698
-0.058465
-0.056703
-0.058217
-0.146822
-0.148044
-0.148264
-0.149842
-0.173683
-0.172492
-0.172156
-0.173977
-0.104591
-0.106196
-0.104611
-0.106450
-0.114326
-0.116497
-0.114254
-0.033288
-0.033833
-0.035625
-0.073883
-0.072162
-0.071530
-0.070232
-0.065878
-0.064359
-0.066045
-0.064734
-0.075187
-0.077141
-0.075719
-0.078025
-0.048006
-0.049392
-0.046899
-0.050504
-0.090284
-0.088712
-0.090864
-0.215766
-0.216915
-0.216736
-0.080808
-0.082771
-0.082898
-0.080158
-0.088083
-0.163370
-0.162861
-0.164388
-0.114665
-0.113195
-0.114524
-0.113423
-0.090033
-0.089035
-0.088349
-0.078870
-0.078499
-0.080640
-0.086690
-0.148128
-0.149261
-0.150050
-0.094730
-0.088083
-0.086280
-0.086219
-0.084475
-0.115338
-0.113853
-0.113981
-0.116045
-0.058288
-0.056615
-0.058498
-0.161482
-0.159360
-0.160881
-0.021055
-0.023337
-0.024201
-0.156894
-0.158450
-0.157115
-0.158269
-0.071837
-0.072214
-0.073618
-0.163305
-0.163207
-0.162173
-0.164393
-0.161881
-0.140629
-0.141522
-0.139691
-0.140306
-0.138915
-0.139099
-0.160003
-0.165526
-0.165179
-0.166391
-0.123889
-0.122174
-0.124033
-0.190918
-0.192222
-0.192013
-0.163666
-0.164101
-0.162438
-0.163203
-0.059290
-0.057355
-0.058207
-0.164259
-0.162697
-0.164982
-0.206525
-0.206840
-0.205510
-0.167497
-0.165853
-0.166525
-0.215322
-0.216344
-0.044827
-0.043003
-0.044924
-0.077030
-0.077504
-0.189684
-0.190340
-0.072790
-0.071488
-0.069807
-0.124910
-0.124908
-0.126489
-0.075201
-0.074003
-0.075402
-0.069899
-0.164635
-0.166495
-0.139716
-0.131307
-0.064163
-0.065691
-0.221510
-0.091386
-0.092450
-0.092495
-0.021279
-0.017346
-0.018567
-0.018497
-0.093854
-0.167421
-0.027136
-0.024754
-0.025974
-0.216176
-0.217386
-0.216325
-0.063871
-0.068689
-0.042165
-0.040697
-0.042949
-0.036707
-0.025053
-0.123116
-0.121876
-0.123720
-0.136123
-0.106292
-0.107337
-0.107734
-0.075033
-0.072542
-0.076897
-0.121380
-0.197424
-0.195589
-0.196292
-0.130025
-0.129372
-0.131726
-0.106017
-0.065331
-0.069429
-0.073373
-0.070950
-0.071558
-0.056405
-0.054585
-0.055320
-0.075373
-0.077107
-0.128879
-0.127707
-0.129703
-0.063952
-0.064144
-0.065991
-0.193397
-0.192676
-0.061955
-0.146396
-0.147826
-0.146353
-0.102400
-0.104475
-0.103395
-0.127269
-0.125688
-0.122349
-0.121114
-0.120380
-0.125962
-0.118783
-0.147457
-0.080736
-0.079078
-0.217249
-0.043273
-0.040941
-0.214261
-0.126774
-0.073322
-0.071417
-0.069396
-0.074028
-0.085889
-0.084266
-0.084447
-0.115462
-0.082633
-0.096933
-0.097624
-0.098628
-0.095569
-0.089682
-0.088580
-0.088170
-0.074291
-0.123892
-0.125328
-0.117704
-0.119639
-0.118714
-0.126023
-0.127424
-0.120726
-0.211640
-0.212421
-0.211221
-0.122374
-0.123661
-0.123657
-0.123370
-0.106912
-0.105264
-0.107266
-0.221091
-0.216949
-0.217686
-0.216239
-0.219668
-0.219286
-0.220577
-0.210253
-0.209259
-0.210788
-0.075804
-0.077685
-0.076334
-0.069829
-0.068620
-0.064329
-0.071883
-0.066509
-0.058238
-0.060424
-0.036572
-0.191043
-0.077811
-0.112488
-0.111282
-0.111111
-0.170002
-0.168321
-0.169112
-0.167572
-0.181920
-0.183544
-0.182435
-0.183766
-0.084049
-0.085526
-0.083893
-0.085068
-0.067338
-0.066488
-0.064814
-0.064135
-0.123462
-0.121570
-0.122830
-0.126232
-0.121537
-0.220297
-0.218923
-0.143879
-0.142759
-0.144078
-0.162248
-0.215942
-0.044749
-0.046367
-0.045149
-0.098774
-0.099939
-0.097693
-0.034466
-0.035288
-0.037060
-0.037101
-0.119741
-0.120751
-0.120976
-0.098550
-0.217683
-0.217976
-0.216929
-0.030213
-0.028391
-0.028702
-0.123060
-0.122380
-0.121564
-0.043137
-0.041100
-0.042186
-0.124279
-0.120222
-0.118549
-0.119514
-0.119906
-0.166669
-0.165799
-0.165303
-0.167528
-0.133295
-0.133070
-0.134933
0.009238
-0.131630
-0.121964
-0.120461
-0.121331
-0.119646
0.005405
-0.121354
-0.122902
-0.120826
-0.181463
-0.180539
-0.182033
-0.119316
-0.002961
-0.003764
0.003641
-0.221202
-0.009065
-0.218795
-0.218357
-0.199013
-0.200015
-0.198994
-0.023566
-0.024495
-0.021402
-0.023180
-0.127974
-0.127269
-0.128751
-0.126189
-0.179789
-0.036287
-0.131056
-0.132467
-0.038589
-0.040782
-0.040174
-0.117767
-0.118580
-0.119116
-0.117359
-0.115525
-0.117231
-0.116270
-0.110758
-0.108919
-0.110581
-0.021486
-0.022300
-0.078287
-0.077672
-0.076185
-0.078429
-0.078077
-0.075616
-0.000223
-0.080130
-0.100075
-0.101419
-0.101029
-0.067468
-0.065130
-0.065740
-0.097579
-0.099186
-0.098863
-0.117596
-0.038660
-0.036169
-0.038404
-0.120450
-0.118245
-0.120181
-0.118287
-0.214790
-0.067597
-0.084137
-0.082391
-0.082854
-0.046853
-0.038817
-0.108383
-0.110190
-0.109438
-0.116255
-0.116651
-0.117604
-0.216018
-0.216193
-0.217174
-0.044638
-0.044703
-0.042834
-0.113433
-0.114400
-0.115588
-0.103544
-0.116206
-0.110917
-0.096799
-0.098551
-0.098276
0.007968
-0.171251
-0.169733
-0.169971
-0.096798
-0.098157
-0.098505
-0.181501
-0.180086
-0.180165
-0.211723
-0.212739
-0.170683
-0.194972
-0.195184
-0.193815
-0.220741
-0.219845
-0.218262
-0.217565
-0.103556
-0.102634
-0.101066
-0.196578
-0.194767
-0.195058
-0.036803
-0.040859
-0.038407
-0.042101
-0.194250
0.013589
0.013761
0.010076
-0.115127
-0.115359
-0.116056
-0.112282
-0.114595
-0.114761
-0.111729
0.010630
-0.214736
-0.213482
-0.023781
-0.022448
-0.021650
-0.046746
-0.048664
-0.020458
-0.114812
-0.214799
-0.216187
-0.046511
-0.044248
-0.113686
-0.114454
-0.114623
-0.081267
-0.097708
-0.095964
-0.096947
-0.099183
-0.136799
-0.137758
-0.138551
-0.025882
-0.026772
-0.025866
-0.151137
-0.152465
-0.152697
-0.154080
-0.145290
-0.144191
-0.145616
-0.143956
-0.115555
-0.115252
-0.114409
-0.121743
-0.105238
-0.103942
-0.104017
-0.219124
-0.220075
-0.117099
-0.115845
-0.217536
-0.216713
-0.039337
-0.037533
-0.123050
-0.041774
-0.043307
-0.113645
-0.112513
-0.059002
-0.056712
-0.058643
-0.156097
-0.157620
-0.156097
-0.157608
-0.201327
-0.201689
-0.202576
-0.102656
-0.101388
-0.200295
0.004204
0.001664
0.001660
-0.031748
-0.033722
-0.032127
-0.033172
-0.136030
-0.113472
-0.210053
-0.210508
-0.087846
-0.089074
-0.086938
-0.116603
-0.087996
-0.098471
-0.100425
-0.100293
-0.114394
-0.113678
-0.114816
-0.213412
-0.098852
-0.085976
-0.088107
-0.088121
-0.048739
-0.089988
-0.096222
-0.096051
-0.213648
-0.214991
-0.212176
-0.048331
-0.045947
-0.050564
-0.097552
-0.112456
-0.092238
-0.090398
-0.092809
-0.141149
-0.143184
-0.141744
-0.053668
-0.051970
-0.053045
-0.098887
-0.098625
-0.117784
-0.119249
-0.117516
-0.112041
-0.100136
-0.113241
-0.081452
-0.083062
-0.081684
-0.118792
-0.211161
-0.210765
-0.209848
-0.111079
-0.111965
-0.142361
-0.153387
-0.154206
-0.152487
-0.032216
-0.033192
-0.033992
-0.218199
-0.035155
-0.158822
-0.158973
-0.216628
-0.216074
-0.219441
-0.040408
-0.155323
-0.043111
-0.044177
-0.038182
-0.087934
-0.088301
-0.089512
-0.044900
-0.046342
-0.044050
-0.103760
-0.105020
-0.105387
-0.075712
-0.073383
-0.075241
-0.074164
-0.050686
-0.050681
-0.048560
-0.097380
-0.097996
-0.096281
-0.197322
-0.198526
-0.197474
-0.198647
-0.095144
-0.095196
-0.096781
-0.099363
-0.095751
-0.096863
-0.097694
-0.143590
-0.142626
-0.094812
-0.095347
-0.096265
-0.094961
-0.094992
-0.093765
-0.094226
-0.122238
-0.122444
-0.120523
-0.144856
-0.212433
-0.085214
-0.083090
-0.084534
-0.141612
-0.141436
-0.050665
-0.093692
-0.094673
-0.212453
-0.140409
-0.014859
-0.016747
-0.014341
-0.050004
-0.095491
-0.052694
-0.097620
-0.104098
-0.102992
-0.102602
-0.016105
-0.113967
-0.115679
-0.114931
-0.116444
-0.101489
-0.100308
-0.100627
-0.098834
-0.204951
-0.203890
-0.203530
-0.046363
-0.072331
-0.073429
-0.071443
-0.107003
-0.105071
-0.105037
-0.105992
-0.104608
-0.105222
-0.095126
-0.096420
-0.080646
-0.218177
-0.217787
-0.097869
-0.217736
-0.099116
-0.211007
-0.211932
-0.103332
-0.207815
-0.205989
-0.207455
-0.206503
-0.119283
-0.118270
-0.117765
-0.116510
-0.115979
-0.118000
-0.040594
-0.057177
-0.055349
-0.057918
-0.054844
-0.082678
-0.081337
-0.081885
-0.214302
-0.215009
-0.213880
-0.191715
-0.191112
-0.190234
-0.100628
-0.101811
-0.093626
-0.037765
-0.039866
-0.038522
-0.042592
-0.044415
-0.042440
-0.093909
-0.093723
-0.094056
-0.095657
-0.092927
-0.092318
-0.092572
-0.118592
-0.093660
-0.095320
0.001553
-0.091878
-0.092675
-0.053111
-0.053065
-0.050976
-0.115862
-0.115931
-0.096681
-0.052758
-0.102210
-0.099444
-0.168010
-0.168330
-0.169565
-0.166877
-0.103173
-0.104209
-0.105328
-0.060867
-0.058961
-0.059164
0.002103
-0.001081
0.000205
0.000391
-0.155434
-0.153900
-0.154508
-0.211039
-0.194251
-0.193647
-0.192657
-0.152911
-0.111558
-0.111639
-0.113108
-0.110234
-0.043232
-0.041169
-0.040617
-0.114954
-0.116027
-0.116949
-0.094283
-0.095516
-0.097122
-0.098311
-0.188839
-0.187924
-0.189288
-0.117607
-0.097214
-0.099141
-0.099249
-0.098135
-0.102755
-0.103887
-0.117648
-0.117951
-0.119407
-0.009895
-0.011518
-0.012861
-0.210219
-0.208874
-0.079836
-0.079981
-0.009250
-0.090630
-0.089880
-0.091904
-0.090027
-0.051254
-0.052100
-0.049912
-0.034598
-0.032830
-0.034272
-0.031814
-0.090535
-0.088268
-0.088794
-0.085879
-0.087496
-0.084314
-0.083720
-0.082588
-0.099949
-0.101096
-0.204130
-0.205477
-0.205142
-0.204461
-0.084930
-0.126245
-0.124128
-0.124468
-0.128165
-0.126207
-0.092401
-0.093120
-0.092725
-0.209310
-0.128008
-0.091094
-0.091126
-0.091273
-0.092232
-0.142084
-0.141979
-0.140753
-0.140211
-0.159742
-0.160286
-0.052963
-0.051378
-0.054100
-0.161243
-0.160105
-0.090123
-0.090848
-0.161612
-0.081845
-0.103729
-0.105383
-0.103848
-0.201931
-0.202727
-0.201435
-0.095974
-0.203589
-0.090243
-0.092132
-0.090991
-0.093621
-0.117697