# vtk DataFile Version 2.0
Test
ASCII
DATASET POLYDATA
POINTS 6577 float
0.000000 0.000000 0.000000
2.000000 0.000000 0.000000
2.000000 4.000000 0.000000
0.000000 4.000000 0.000000
0.000000 0.500000 0.000000
1.500000 2.000000 0.000000
2.000000 2.500000 0.000000
0.040000 0.000000 0.000000
0.080000 0.000000 0.000000
0.120000 0.000000 0.000000
0.160000 0.000000 0.000000
0.200000 0.000000 0.000000
0.240000 0.000000 0.000000
0.280000 0.000000 0.000000
0.320000 0.000000 0.000000
0.360000 0.000000 0.000000
0.400000 0.000000 0.000000
0.440000 0.000000 0.000000
0.480000 0.000000 0.000000
0.520000 0.000000 0.000000
0.560000 0.000000 0.000000
0.600000 0.000000 0.000000
0.640000 0.000000 0.000000
0.680000 0.000000 0.000000
0.720000 0.000000 0.000000
0.760000 0.000000 0.000000
0.800000 0.000000 0.000000
0.840000 0.000000 0.000000
0.880000 0.000000 0.000000
0.920000 0.000000 0.000000
0.960000 0.000000 0.000000
1.000000 0.000000 0.000000
1.040000 0.000000 0.000000
1.080000 0.000000 0.000000
1.120000 0.000000 0.000000
1.160000 0.000000 0.000000
1.200000 0.000000 0.000000
1.240000 0.000000 0.000000
1.280000 0.000000 0.000000
1.320000 0.000000 0.000000
1.360000 0.000000 0.000000
1.400000 0.000000 0.000000
1.440000 0.000000 0.000000
1.480000 0.000000 0.000000
1.520000 0.000000 0.000000
1.560000 0.000000 0.000000
1.600000 0.000000 0.000000
1.640000 0.000000 0.000000
1.680000 0.000000 0.000000
1.720000 0.000000 0.000000
1.760000 0.000000 0.000000
1.800000 0.000000 0.000000
1.840000 0.000000 0.000000
1.880000 0.000000 0.000000
1.920000 0.000000 0.000000
1.960000 0.000000 0.000000
2.000000 0.039683 0.000000
2.000000 0.079365 0.000000
2.000000 0.119048 0.000000
2.000000 0.158730 0.000000
2.000000 0.198413 0.000000
2.000000 0.238095 0.000000
2.000000 0.277778 0.000000
2.000000 0.317460 0.000000
2.000000 0.357143 0.000000
2.000000 0.396825 0.000000
2.000000 0.436508 0.000000
2.000000 0.476190 0.000000
2.000000 0.515873 0.000000
2.000000 0.555556 0.000000
2.000000 0.595238 0.000000
2.000000 0.634921 0.000000
2.000000 0.674603 0.000000
2.000000 0.714286 0.000000
2.000000 0.753968 0.000000
2.000000 0.793651 0.000000
2.000000 0.833333 0.000000
2.000000 0.873016 0.000000
2.000000 0.912698 0.000000
2.000000 0.952381 0.000000
2.000000 0.992063 0.000000
2.000000 1.031746 0.000000
2.000000 1.071429 0.000000
2.000000 1.111111 0.000000
2.000000 1.150794 0.000000
2.000000 1.190476 0.000000
2.000000 1.230159 0.000000
2.000000 1.269841 0.000000
2.000000 1.309524 0.000000
2.000000 1.349206 0.000000
2.000000 1.388889 0.000000
2.000000 1.428571 0.000000
2.000000 1.468254 0.000000
2.000000 1.507937 0.000000
2.000000 1.547619 0.000000
2.000000 1.587302 0.000000
2.000000 1.626984 0.000000
2.000000 1.666667 0.000000
2.000000 1.706349 0.000000
2.000000 1.746032 0.000000
2.000000 1.785714 0.000000
2.000000 1.825397 0.000000
2.000000 1.865079 0.000000
2.000000 1.904762 0.000000
2.000000 1.944444 0.000000
2.000000 1.984127 0.000000
2.000000 2.023810 0.000000
2.000000 2.063492 0.000000
2.000000 2.103175 0.000000
2.000000 2.142857 0.000000
2.000000 2.182540 0.000000
2.000000 2.222222 0.000000
2.000000 2.261905 0.000000
2.000000 2.301587 0.000000
2.000000 2.341270 0.000000
2.000000 2.380952 0.000000
2.000000 2.420635 0.000000
2.000000 2.460317 0.000000
2.000000 2.539474 0.000000
2.000000 2.578947 0.000000
2.000000 2.618421 0.000000
2.000000 2.657895 0.000000
2.000000 2.697368 0.000000
2.000000 2.736842 0.000000
2.000000 2.776316 0.000000
2.000000 2.815789 0.000000
2.000000 2.855263 0.000000
2.000000 2.894737 0.000000
2.000000 2.934211 0.000000
2.000000 2.973684 0.000000
2.000000 3.013158 0.000000
2.000000 3.052632 0.000000
2.000000 3.092105 0.000000
2.000000 3.131579 0.000000
2.000000 3.171053 0.000000
2.000000 3.210526 0.000000
2.000000 3.250000 0.000000
2.000000 3.289474 0.000000
2.000000 3.328947 0.000000
2.000000 3.368421 0.000000
2.000000 3.407895 0.000000
2.000000 3.447368 0.000000
2.000000 3.486842 0.000000
2.000000 3.526316 0.000000
2.000000 3.565789 0.000000
2.000000 3.605263 0.000000
2.000000 3.644737 0.000000
2.000000 3.684211 0.000000
2.000000 3.723684 0.000000
2.000000 3.763158 0.000000
2.000000 3.802632 0.000000
2.000000 3.842105 0.000000
2.000000 3.881579 0.000000
2.000000 3.921053 0.000000
2.000000 3.960526 0.000000
1.960000 4.000000 0.000000
1.920000 4.000000 0.000000
1.880000 4.000000 0.000000
1.840000 4.000000 0.000000
1.800000 4.000000 0.000000
1.760000 4.000000 0.000000
1.720000 4.000000 0.000000
1.680000 4.000000 0.000000
1.640000 4.000000 0.000000
1.600000 4.000000 0.000000
1.560000 4.000000 0.000000
1.520000 4.000000 0.000000
1.480000 4.000000 0.000000
1.440000 4.000000 0.000000
1.400000 4.000000 0.000000
1.360000 4.000000 0.000000
1.320000 4.000000 0.000000
1.280000 4.000000 0.000000
1.240000 4.000000 0.000000
1.200000 4.000000 0.000000
1.160000 4.000000 0.000000
1.120000 4.000000 0.000000
1.080000 4.000000 0.000000
1.040000 4.000000 0.000000
1.000000 4.000000 0.000000
0.960000 4.000000 0.000000
0.920000 4.000000 0.000000
0.880000 4.000000 0.000000
0.840000 4.000000 0.000000
0.800000 4.000000 0.000000
0.760000 4.000000 0.000000
0.720000 4.000000 0.000000
0.680000 4.000000 0.000000
0.640000 4.000000 0.000000
0.600000 4.000000 0.000000
0.560000 4.000000 0.000000
0.520000 4.000000 0.000000
0.480000 4.000000 0.000000
0.440000 4.000000 0.000000
0.400000 4.000000 0.000000
0.360000 4.000000 0.000000
0.320000 4.000000 0.000000
0.280000 4.000000 0.000000
0.240000 4.000000 0.000000
0.200000 4.000000 0.000000
0.160000 4.000000 0.000000
0.120000 4.000000 0.000000
0.080000 4.000000 0.000000
0.040000 4.000000 0.000000
0.000000 3.960227 0.000000
0.000000 3.920455 0.000000
0.000000 3.880682 0.000000
0.000000 3.840909 0.000000
0.000000 3.801136 0.000000
0.000000 3.761364 0.000000
0.000000 3.721591 0.000000
0.000000 3.681818 0.000000
0.000000 3.642045 0.000000
0.000000 3.602273 0.000000
0.000000 3.562500 0.000000
0.000000 3.522727 0.000000
0.000000 3.482955 0.000000
0.000000 3.443182 0.000000
0.000000 3.403409 0.000000
0.000000 3.363636 0.000000
0.000000 3.323864 0.000000
0.000000 3.284091 0.000000
0.000000 3.244318 0.000000
0.000000 3.204545 0.000000
0.000000 3.164773 0.000000
0.000000 3.125000 0.000000
0.000000 3.085227 0.000000
0.000000 3.045455 0.000000
0.000000 3.005682 0.000000
0.000000 2.965909 0.000000
0.000000 2.926136 0.000000
0.000000 2.886364 0.000000
0.000000 2.846591 0.000000
0.000000 2.806818 0.000000
0.000000 2.767045 0.000000
0.000000 2.727273 0.000000
0.000000 2.687500 0.000000
0.000000 2.647727 0.000000
0.000000 2.607955 0.000000
0.000000 2.568182 0.000000
0.000000 2.528409 0.000000
0.000000 2.488636 0.000000
0.000000 2.448864 0.000000
0.000000 2.409091 0.000000
0.000000 2.369318 0.000000
0.000000 2.329545 0.000000
0.000000 2.289773 0.000000
0.000000 2.250000 0.000000
0.000000 2.210227 0.000000
0.000000 2.170455 0.000000
0.000000 2.130682 0.000000
0.000000 2.090909 0.000000
0.000000 2.051136 0.000000
0.000000 2.011364 0.000000
0.000000 1.971591 0.000000
0.000000 1.931818 0.000000
0.000000 1.892045 0.000000
0.000000 1.852273 0.000000
0.000000 1.812500 0.000000
0.000000 1.772727 0.000000
0.000000 1.732955 0.000000
0.000000 1.693182 0.000000
0.000000 1.653409 0.000000
0.000000 1.613636 0.000000
0.000000 1.573864 0.000000
0.000000 1.534091 0.000000
0.000000 1.494318 0.000000
0.000000 1.454545 0.000000
0.000000 1.414773 0.000000
0.000000 1.375000 0.000000
0.000000 1.335227 0.000000
0.000000 1.295455 0.000000
0.000000 1.255682 0.000000
0.000000 1.215909 0.000000
0.000000 1.176136 0.000000
0.000000 1.136364 0.000000
0.000000 1.096591 0.000000
0.000000 1.056818 0.000000
0.000000 1.017045 0.000000
0.000000 0.977273 0.000000
0.000000 0.937500 0.000000
0.000000 0.897727 0.000000
0.000000 0.857955 0.000000
0.000000 0.818182 0.000000
0.000000 0.778409 0.000000
0.000000 0.738636 0.000000
0.000000 0.698864 0.000000
0.000000 0.659091 0.000000
0.000000 0.619318 0.000000
0.000000 0.579545 0.000000
0.000000 0.539773 0.000000
0.000000 0.461538 0.000000
0.000000 0.423077 0.000000
0.000000 0.384615 0.000000
0.000000 0.346154 0.000000
0.000000 0.307692 0.000000
0.000000 0.269231 0.000000
0.000000 0.230769 0.000000
0.000000 0.192308 0.000000
0.000000 0.153846 0.000000
0.000000 0.115385 0.000000
0.000000 0.076923 0.000000
0.000000 0.038462 0.000000
0.027778 0.527778 0.000000
0.055556 0.555556 0.000000
0.083333 0.583333 0.000000
0.111111 0.611111 0.000000
0.138889 0.638889 0.000000
0.166667 0.666667 0.000000
0.194444 0.694444 0.000000
0.222222 0.722222 0.000000
0.250000 0.750000 0.000000
0.277778 0.777778 0.000000
0.305556 0.805556 0.000000
0.333333 0.833333 0.000000
0.361111 0.861111 0.000000
0.388889 0.888889 0.000000
0.416667 0.916667 0.000000
0.444444 0.944444 0.000000
0.472222 0.972222 0.000000
0.500000 1.000000 0.000000
0.527778 1.027778 0.000000
0.555556 1.055556 0.000000
0.583333 1.083333 0.000000
0.611111 1.111111 0.000000
0.638889 1.138889 0.000000
0.666667 1.166667 0.000000
0.694444 1.194444 0.000000
0.722222 1.222222 0.000000
0.750000 1.250000 0.000000
0.777778 1.277778 0.000000
0.805556 1.305556 0.000000
0.833333 1.333333 0.000000
0.861111 1.361111 0.000000
0.888889 1.388889 0.000000
0.916667 1.416667 0.000000
0.944444 1.444444 0.000000
0.972222 1.472222 0.000000
1.000000 1.500000 0.000000
1.027778 1.527778 0.000000
1.055556 1.555556 0.000000
1.083333 1.583333 0.000000
1.111111 1.611111 0.000000
1.138889 1.638889 0.000000
1.166667 1.666667 0.000000
1.194444 1.694444 0.000000
1.222222 1.722222 0.000000
1.250000 1.750000 0.000000
1.277778 1.777778 0.000000
1.305556 1.805556 0.000000
1.333333 1.833333 0.000000
1.361111 1.861111 0.000000
1.388889 1.888889 0.000000
1.416667 1.916667 0.000000
1.444444 1.944444 0.000000
1.472222 1.972222 0.000000
1.527778 2.027778 0.000000
1.555556 2.055556 0.000000
1.583333 2.083333 0.000000
1.611111 2.111111 0.000000
1.638889 2.138889 0.000000
1.666667 2.166667 0.000000
1.694444 2.194444 0.000000
1.722222 2.222222 0.000000
1.750000 2.250000 0.000000
1.777778 2.277778 0.000000
1.805556 2.305556 0.000000
[...]
POINT_DATA 6577
SCALARS UX float 1
LOOKUP_TABLE default
-0.000083
0.000125
-0.640566
-1.525893
-0.331356
-0.245210
-0.212041
0.000020
-0.000005
-0.000001
0.000001
-0.000003
-0.000010
0.000001
0.000001
0.000003
-0.000000
0.000001
-0.000000
0.000001
0.000002
-0.000002
0.000001
-0.000002
-0.000001
0.000000
-0.000001
-0.000001
0.000000
0.000000
0.000001
0.000000
-0.000000
0.000000
0.000000
0.000000
-0.000000
-0.000000
0.000000
-0.000001
-0.000000
0.000000
-0.000000
0.000001
0.000000
0.000001
-0.000001
-0.000000
-0.000000
-0.000001
0.000002
-0.000002
0.000002
-0.000000
-0.000001
-0.000017
0.023094
0.036327
0.048639
0.059477
0.069608
0.079308
0.088109
0.096581
0.104674
0.112219
0.119400
0.126376
0.131108
0.134236
0.136518
0.138054
0.139028
0.139247
0.138906
0.137915
0.136266
0.134534
0.132137
0.128879
0.125746
0.122189
0.117938
0.113468
0.108857
0.103611
0.098309
0.092722
0.086981
0.081511
0.074917
0.069492
0.063057
0.056399
0.049016
0.041063
0.032474
0.023403
0.013712
0.004115
-0.005688
-0.015489
-0.024603
-0.032761
-0.040100
-0.047178
-0.052958
-0.057799
-0.063051
-0.069400
-0.077281
-0.087040
-0.097680
-0.110780
-0.125246
-0.140725
-0.157959
-0.181136
-0.253421
-0.295691
-0.333054
-0.367046
-0.388716
-0.406755
-0.421792
-0.433033
-0.444381
-0.471098
-0.491359
-0.504138
-0.512343
-0.516534
-0.523014
-0.528458
-0.524317
-0.520006
-0.523323
-0.533722
-0.540452
-0.543900
-0.554652
-0.570110
-0.585282
-0.599157
-0.608008
-0.606903
-0.611216
-0.623935
-0.639219
-0.644859
-0.646222
-0.647253
-0.646443
-0.644446
-0.641323
-0.658240
-0.675560
-0.692391
-0.708809
-0.724995
-0.743226
-0.764011
-0.784004
-0.804071
-0.824438
-0.846192
-0.868762
-0.892709
-0.917851
-0.942201
-0.966161
-0.989666
-1.012761
-1.035508
-1.058007
-1.080728
-1.103677
-1.126733
-1.148311
-1.169045
-1.189998
-1.210217
-1.230484
-1.250222
-1.269664
-1.288580
-1.306908
-1.324506
-1.340166
-1.355207
-1.369812
-1.384291
-1.397755
-1.410588
-1.423149
-1.434938
-1.446352
-1.457558
-1.468600
-1.478731
-1.488407
-1.497968
-1.507159
-1.516188
-1.523614
-1.521713
-1.519726
-1.516492
-1.511933
-1.506852
-1.501069
-1.494124
-1.487028
-1.478754
-1.469516
-1.459336
-1.448425
-1.437861
-1.424058
-1.410773
-1.396755
-1.382665
-1.368765
-1.352078
-1.336238
-1.319642
-1.301741
-1.283889
-1.266854
-1.248001
-1.230673
-1.212335
-1.195656
-1.176377
-1.157585
-1.137966
-1.118597
-1.098984
-1.077305
-1.056065
-1.033200
-1.010800
-0.989270
-0.966905
-0.942370
-0.917483
-0.891962
-0.866374
-0.839906
-0.814631
-0.788501
-0.762388
-0.736469
-0.710691
-0.685811
-0.661616
-0.637634
-0.612490
-0.588574
-0.564669
-0.540587
-0.516719
-0.492632
-0.467078
-0.443557
-0.419280
-0.394764
-0.370073
-0.345578
-0.320665
-0.296290
-0.271764
-0.248075
-0.225293
-0.203359
-0.182421
-0.163137
-0.145454
-0.129205
-0.115774
-0.105323
-0.097086
-0.092090
-0.090723
-0.093604
-0.101457
-0.119084
-0.156692
-0.232940
-0.348862
-0.491085
-0.155584
-0.139501
-0.133184
-0.126701
-0.120102
-0.112271
-0.103205
-0.093598
-0.082873
-0.071203
-0.058045
-0.039121
-0.331655
-0.456037
-0.269042
-0.171672
-0.040957
-0.142227
-0.156971
-0.164568
-0.123296
0.029362
-0.087809
-0.079535
-0.081716
-0.063294
-0.042885
-0.105343
-0.135333
-0.098460
-0.141372
-0.186885
-0.113714
-0.151629
-0.204024
-0.158713
-0.080032
-0.092962
-0.147368
-0.172795
-0.183651
-0.180738
-0.192441
-0.200410
-0.199999
-0.197411
-0.213443
-0.231340
-0.213903
-0.222680
-0.218436
-0.222540
-0.230786
-0.239537
-0.246529
-0.254487
-0.258217
-0.287656
-0.300970
-0.310324
-0.302045
-0.294783
-0.282472
-0.269914
-0.260298
-0.239909
-0.239282
-0.233324
-0.229190
-0.226709
-0.223884
-0.221615
-0.220318
-0.215913
-0.210023
-0.209344
-0.207248
-0.203031
-0.203564
-0.203860
-0.204027
-0.205986
-0.315597
-0.350355
-1.513648
-1.515572
-0.660183
-0.659955
-0.233964
-0.254753
-0.274848
-0.417416
-0.437370
-0.805964
-0.831706
-0.828394
-0.386637
-0.364388
-0.378561
-0.848270
-0.676685
-0.658108
-0.682553
-0.874116
-0.862430
-0.856469
-1.468395
-1.468384
-1.459478
-1.462173
-1.472920
-1.465362
-0.873856
-0.745039
-0.722555
-0.726565
-0.869946
-0.886771
-0.867679
-1.335661
-1.316482
-1.319730
-0.655911
-0.930842
-0.931345
-0.950773
-0.592361
-0.615646
-0.608411
-0.887647
-0.884445
-0.899604
-0.892886
-1.363848
-1.376763
-1.366846
-1.378126
-1.340501
-1.352589
-1.337083
-1.348304
-0.906790
-0.887859
-0.900924
-0.614653
-0.337744
-0.318163
-0.320412
-0.246188
-0.235428
-0.304208
-0.653241
-0.628915
-0.636042
-0.655181
-1.309287
-1.294625
-1.289066
-0.839910
-0.864948
-0.847881
-0.855076
-0.368456
-0.355739
-0.350745
-0.353838
-1.073124
-1.097379
-1.079827
-1.096754
-0.994203
-0.980996
-0.993910
-0.513940
-0.493713
-0.517840
-0.321903
-0.285767
-0.344432
-0.319941
-0.414591
-0.410834
-0.437117
-0.516589
-0.530617
-0.509221
-0.436934
-0.449851
-0.440600
-0.458734
-0.982988
-1.456433
-1.461798
-1.453085
-1.236690
-1.220613
-1.221472
-1.241444
-1.164170
-1.169849
-1.151360
-1.153253
-0.524104
-0.539132
-0.551515
-1.153440
-1.160281
-1.175545
-0.717560
-0.751696
-0.733183
-0.345403
-0.306268
-0.324411
-0.256087
-0.344742
-0.353560
-0.364199
-0.379789
-0.374986
-0.393343
-0.541955
-0.524430
-1.175816
-1.164610
-1.157628
-1.234020
-1.218098
-1.228393
-1.185141
-1.144102
-1.165702
-1.140007
-1.416041
-1.419829
-1.426088
-0.555947
-0.475639
-0.492483
-0.496904
-1.088940
-1.080271
-1.094844
-0.105062
-0.105997
-0.120420
-0.403479
-0.386820
-0.411076
-0.383546
-0.630380
-0.648680
-0.642200
-0.665474
-0.385631
-0.382088
-1.063964
-1.058089
-1.072206
-1.047082
-1.361223
-1.372554
-1.355752
-0.775217
-0.763712
-0.785460
-0.438280
-0.438903
-0.421439
-0.754376
-1.371925
-1.348982
-1.330693
-1.340756
-0.698451
-0.724031
-0.710296
-0.736164
-1.340302
-1.101803
-1.120321
-1.250658
-1.240911
-1.260730
-1.435899
-1.432551
-0.460545
-0.476098
-0.481159
-0.251587
-0.245993
-0.233247
-0.693921
-0.671846
-0.697460
-0.244686
-0.241538
-0.225950
-0.675742
-0.217835
-0.212695
-0.199506
-0.272230
-0.261555
-0.245916
-0.278874
-1.429663
-1.440035
-1.427332
-1.437493
-1.508999
-1.509488
-0.671708
-0.672242
-0.464005
-0.452463
-0.441323
-0.467214
-1.303102
-1.301560
-1.289329
-0.189788
-0.185803
-0.170527
-1.284096
-0.496196
-0.497409
-0.510664
-0.089554
-0.093016
-1.320292
-1.303693
-1.305455
-0.333320
-0.313371
-0.367551
-0.357369
-0.314781
-0.294820
-0.998271
-1.013811
-0.991137
-1.016698
-0.113191
-0.124345
-0.126829
-0.109838
-0.184733
-0.167181
-0.168339
-0.247406
-0.265554
-0.192764
-0.207854
-0.187559
-0.090674
-0.085322
-0.083233
-0.086178
-0.090716
-0.263576
-0.251730
-0.701118
-0.684716
-0.259117
-0.271651
-0.259809
-1.492978
-0.752318
-0.752269
-0.728766
-0.266374
-0.155007
-0.372406
-0.392255
-0.387549
-0.376122
-0.857234
-0.843748
-0.845820
-0.402763
-0.421947
-0.420377
-0.296167
-0.312954
-0.786241
-0.773131
-0.768966
-0.415578
-0.346866
-0.366877
-0.353376
-0.281955
-0.273423
-0.259943
-1.409857
-1.407630
-1.397867
-0.813397
-0.693646
-0.683224
-0.673063
-0.236543
-0.224580
-0.234220
-0.079331
-0.082329
-0.785934
-0.091305
-0.080265
-0.182037
-0.177273
-0.158155
-0.208643
-0.196167
-0.080474
-0.082862
-0.079621
-0.085842
-0.645193
-0.665013
-0.670715
-0.682862
-0.674831
-0.206819
-0.266350
-0.250403
-0.238138
-0.222942
-0.706872
-1.508782
-0.141192
-0.137733
-0.156704
-0.150303
-0.165568
-0.659762
-0.672921
-0.677581
-1.502656
-1.502179
-0.209227
-0.196341
-0.680073
-0.673518
-0.303742
-0.295609
-0.275495
-0.764534
-0.742262
-0.748264
-0.728197
-0.281680
-0.282786
-1.327120
-1.336456
-1.317020
-0.079115
-0.076697
-0.077983
-0.072471
-0.083271
-1.324144
-0.715020
-0.781889
-0.798646
-0.768736
-1.484835
-0.082035
-0.078683
-0.088228
-1.501879
-0.296206
-0.295914
-0.312926
-0.786174
-0.758359
-0.703990
-0.692102
-0.695719
-0.149783
-0.124112
-0.439944
-0.441813
-1.495262
-1.495618
-1.489835
-1.325190
-1.314620
-0.076112
-0.076624
-0.077601
-0.073896
-0.237227
-0.281696
-0.278010
-0.796651
-0.798939
-0.783776
-0.291383
-0.286661
-0.303246
-0.291036
-0.298641
-0.086439
-1.311586
-0.500048
-0.479668
-0.293888
-1.505391
-0.086462
-0.080770
-0.093888
-1.496314
-1.496034
-0.406681
-0.391681
-0.396009
-0.253241
-0.659427
-0.681730
-0.669503
-0.687702
-0.075209
-0.077892
-0.079645
-0.071986
-0.283911
-0.267777
-0.192859
-0.182330
-0.224253
-0.254095
-0.238435
-0.092574
-0.798950
-0.771317
-0.779800
-0.726729
-0.821121
-0.796838
-0.820440
-1.477893
-0.412515
-0.712088
-0.715341
-0.700875
-0.093271
-0.085182
-0.102758
-1.483274
-1.485970
-1.489555
-0.075522
-0.081517
-0.083852
-0.072000
-0.102282
-0.808704
-0.812913
-0.187587
-0.165595
-0.384606
-0.309633
-0.265394
-0.265396
-1.498952
-1.499647
-1.490688
-1.489174
-0.673793
-0.661945
-0.814657
-0.806043
-0.815869
-0.827643
-1.439036
-1.435022
-1.427133
-0.222451
-0.688553
-0.695939
-0.101284
-0.091839
-0.116177
-0.078137
-0.087132
-0.089690
-0.076141
-0.207137
-0.729821
-0.742195
-0.831214
-1.476337
-1.468972
-0.972438
-0.957380
-0.976223
-0.112992
-0.729789
-0.711914
-1.474348
-1.481655
-0.099784
-0.125898
-0.294745
-0.309358
-0.238507
-0.268815
-0.303478
-1.023423
-0.501320
-0.515257
-0.494258
-0.084704
-0.094327
-0.097650
-0.081616
-0.799578
-0.785058
-0.786189
-1.490874
-0.962450
-0.528409
-1.483454
-1.482156
-1.490711
-0.677389
-0.663038
-0.761842
-0.737874
-0.748185
-0.693672
-0.704055
-0.124141
-0.750443
-0.770153
-0.347973
-0.321640
-0.350143
-1.423286
-1.431171
-1.419774
-1.429156
-0.802959
-1.295181
-0.398264
-0.363019
-0.791074
-0.299496
-0.296457
-1.353014
-0.091918
-0.310946
-0.306684
-0.103829
-0.107284
-0.085634
-0.744239
-0.300189
-0.546149
-0.528398
-0.541150
-1.467342
-0.532096
-0.631440
-0.644297
-0.655101
-0.742327
-0.723642
-0.757952
-1.465694
-1.472568
-1.460028
-0.325077
-0.137561
-0.319012
-0.430564
-0.408078
-0.416582
-0.421983
-0.767110
-0.121384
-0.319710
-0.103935
-0.314138
-0.756209
-1.429797
-1.427742
-1.417604
-0.115211
-0.118755
-1.409273
-1.413413
-0.269627
-0.540200
-0.620351
-0.622832
-0.600779
-1.034350
-1.040376
-1.023331
-1.022939
-0.365625
-0.756891
-0.769950
-1.480970
-1.440179
-0.377255
-0.358411
-0.364888
-1.474787
-1.475857
-1.482366
-0.686820
-0.300834
-0.284321
-0.705633
-0.711101
-0.665802
-0.394349
-0.396049
-0.516182
-0.533931
-0.534933
-0.269761
-0.252659
-0.237490
-0.377391
-0.196651
-0.759620
-0.232376
-0.215609
-0.313632
-1.458026
-0.822602
-0.330728
-0.904364
-0.886350
-0.900978
-0.757438
-0.883918
-0.774812
-1.457280
-0.923309
-0.905113
-1.449395
-0.923461
-1.133443
-1.136343
-1.147650
-0.748287
-0.426662
-0.323917
-0.269442
-0.264893
-0.282461
-1.119381
-0.629965
-0.637503
-0.649317
-0.964011
-0.943810
-0.317351
-0.314194
-1.448973
-1.451678
-1.442356
-0.657821
-1.098508
-1.080444
-0.330786
-0.326262
-0.975314
-0.957041
-0.344245
-0.339942
-0.340632
-0.335383
-1.413904
-1.423836
-1.416397
-0.692251
-0.690428
-0.667037
-0.714239
-0.285252
-0.522764
-0.528997
-0.552868
-0.317935
-0.299972
-0.284798
-0.269112
-0.544538
-0.984246
-0.973973
-0.991607
-0.250651
-0.635338
-0.655259
-0.794718
-0.185191
-0.170648
-0.188077
-0.244055
-0.218901
-0.638623
-1.444500
-0.672205
-0.646650
-0.643867
-1.431519
-1.444367
-0.332788
-0.656827
-0.516564
-0.537136
-0.861932
-0.874329
-0.863115
-0.560918
-1.036408
-1.059038
-1.056686
-1.032293
-0.738169
-0.737472
-0.373498
-0.326182
-0.576926
-0.598658
-0.586962
-0.753998
-0.768531
-0.753153
-0.614654
-0.965473
-0.954739
-0.971970
-0.958502
-1.448591
-1.442718
-1.441544
-0.334703
-0.334721
-0.938892
-0.919890
-0.936985
-1.376821
-1.372054
-1.383744
-0.350695
-0.344510
-0.350076
-0.348767
-0.361207
-0.356877
-1.439055
-0.435518
-0.430459
-0.449888
-0.334020
-0.317942
-0.300883
-0.894377
-0.912073
-0.887425
-1.423073
-1.438763
-1.434379
-1.427359
-0.299378
-0.283162
-0.572909
-0.573599
-0.870771
-0.843074
-0.859843
-0.265240
-1.422231
-1.405986
-1.419194
-1.407414
-0.258661
-0.390241
-0.231286
-0.351008
-0.350530
-0.351208
-0.775715
-0.781669
-0.784658
-0.808615
-0.830165
-0.367732
-0.367241
-0.364765
-1.412421
-1.401545
-1.412292
-1.410718
-1.405425
-0.381134
-0.377413
-0.588724
-0.609923
-0.604778
-0.637974
-0.348894
-0.332307
-0.315522
-0.309753
-0.297119
-1.398267
-1.404132
-1.044512
-1.025485
-1.040688
-1.020900
-0.991362
-0.963210
-0.977576
-0.800365
-0.280100
-0.272764
-0.248455
-0.367796
-0.365600
-0.367126
-1.398509
-0.727387
-0.744750
-0.718166
-0.969840
-0.384430
-0.384729
-0.383400
-0.400022
-0.397880
-1.405477
-0.363185
-0.346280
-0.913714
-0.892844
-0.907833
-0.895264
-0.328802
-1.396323
-1.394748
-0.784473
-0.772054
-0.788885
-0.994382
-0.512638
-0.513284
-0.490879
-0.489078
-0.655922
-0.675869
-0.320655
-0.297245
-0.400967
-0.378152
-0.394493
-1.394383
-1.404028
-1.400174
-1.407468
-1.412078
-0.910306
-0.915582
-0.906182
-1.374599
-1.383489
-1.371663
-1.380754
-0.380261
-0.382505
-0.383470
-0.931665
-0.399057
-0.399135
-1.389611
-1.394166
-0.512636
-0.555676
-0.869128
-0.875606
-0.853711
-0.400711
-0.397874
-0.493742
-0.416964
-0.416579
-0.376895
-0.359637
-0.853357
-0.848256
-0.869730
-1.390084
-1.395401
-1.383700
-0.526467
-0.666154
-0.669825
-1.386623
-0.826605
-0.813140
-0.341531
-0.840053
-1.362595
-0.332039
-0.310271
-0.722542
-0.721544
-0.750198
-1.012139
-1.000834
-1.023393
-1.017283
-1.040359
-0.997515
-0.789482
-0.801673
-0.811663
-0.823823
-1.404899
-1.364783
-1.365107
-1.377757
-0.722938
-0.746464
-0.775003
-1.385375
-0.479149
-0.481218
-0.394426
-0.397656
-0.799190
-0.809274
-0.818164
-0.832101
-0.399449
-0.918289
-0.912572
-0.416313
-0.414688
-0.746796
-0.664374
-0.648088
-0.657395
-0.840765
-0.840975
-1.399811
-1.380322
-1.388530
-0.389971
-0.372195
-0.888651
-1.378799
-1.378857
-0.802299
-0.821135
-0.799882
-0.353481
-0.876897
-0.874685
-0.342623
-0.319850
-1.388649
-1.385019
-1.381266
-1.355563
-1.394453
-1.392281
-1.350865
-1.339748
-0.294784
-0.289306
-0.307231
-0.408090
-0.412374
-1.368567
-1.369345
-0.646332
-0.415427
-1.262098
-1.253606
-1.272156
-1.263597
-0.817809
-0.533110
-0.555763
-0.551605
-1.367522
-1.361322
-1.373665
-1.364818
-0.838779
-0.852797
-0.837209
-0.855769
-0.434020
-0.434391
-1.356533
-1.364994
-0.891982
-0.902468
-0.534195
-0.575558
-1.381447
-0.593856
-0.614021
-0.619857
-0.646746
-1.113536
-1.123787
-1.136101
-0.464075
-0.457580
-0.443565
-0.561524
-0.567458
-0.584927
-1.372465
-1.384472
-1.381577
-0.402570
-0.384225
-0.860879
-0.832363
-0.852013
-0.479746
-0.611861
-0.630641
-0.364848
-0.352509
-0.328059
-1.347576
-0.846701
-0.819080
-0.834314
-0.421373
-0.426797
-0.885459
-0.904536
-0.873861
-0.985895
-0.561805
-0.551432
-0.430890
-0.450033
-0.457025
-0.415042
-0.395889
-0.560226
-0.768926
-0.780634
-0.755822
-0.375883
-0.771015
-0.444796
-0.457491
-0.445972
-0.362004
-0.337044
-0.434678
-0.440929
-1.355833
-1.343745
-0.445661
-0.466554
-0.470742
-0.295717
-0.307090
-0.343616
-0.341753
-1.350218
-1.367648
-1.359822
-0.427574
-0.407663
-1.318955
-1.310890
-1.316087
-0.583896
-0.614044
-0.402621
-0.403835
-0.423050
-0.444758
-0.438809
-0.459056
-0.385239
-0.372151
-0.348486
-0.427613
-0.423639
-0.969016
-0.951373
-0.966155
-0.952038
-0.447504
-0.455212
-0.461270
-1.332835
-0.481551
-0.487012
-0.439942
-0.419522
-0.868925
-0.869335
-0.850972
-0.634841
-0.645978
-0.663091
-0.485765
-0.479627
-0.408138
-0.414477
-1.270396
-1.280071
-1.351681
-1.344648
-1.352906
-0.395814
-0.384717
-0.360397
-0.434605
-1.216527
-1.229930
-1.232309
-0.514611
-0.484840
-0.459962
-0.468637
-0.464030
-0.488200
-0.498164
-0.505891
-0.475922
-0.493533
-0.514953
-0.523901
-1.361909
-1.356171
-0.826298
-0.833829
-0.983386
-0.451914
-0.430468
-1.348713
-1.319185
-1.304752
-1.310663
-0.408250
-0.399514
-1.435844
-1.449094
-0.473060
-0.477849
-0.831754
-1.370702
-1.376371
-1.418550
-1.451338
-1.443179
-0.465489
-0.441838
-0.686796
-0.459358
-0.339110
-0.612566
-0.391419
-0.403897
-0.403798
-0.417466
-0.407141
-0.765175
-0.732551
-1.347095
-1.338450
-1.345949
-0.488683
-0.492074
-0.746317
-0.808733
-0.834337
-0.851690
-0.834555
-0.823881
-0.848809
-1.110710
-0.721245
-0.357780
-0.371899
-0.842226
-0.707836
-1.280719
-1.299424
-0.211735
-0.229812
-0.222278
-0.243124
-0.981747
-0.967529
-0.954136
-0.859385
-0.868893
-0.480586
-0.457859
-0.597213
-0.433495
-0.415435
-0.502060
-0.511470
-0.973782
-0.994315
-1.368714
-0.350285
-0.328549
-0.343355
-0.349533
-0.662361
-0.644281
-0.639819
-1.246801
-0.485216
-0.470930
-0.465729
-0.450304
-0.451088
-0.993109
-0.969636
-0.965803
-0.647177
-0.658193
-0.669682
-0.550145
-0.539067
-0.561383
-0.513797
-0.636273
-1.229681
-1.226193
-1.244651
-1.243117
-0.961738
-0.981490
-0.957234
-0.397790
-0.917233
-1.333827
-1.335964
-1.319288
-0.635359
-0.650497
-0.659491
-0.979448
-0.534339
-0.551875
-0.524808
-0.565442
-0.569467
-1.260492
-0.415390
-0.395321
-0.399916
-0.629792
-1.177873
-1.162601
-1.177910
-1.158600
-0.411363
-0.685999
-0.659971
-0.675616
-0.669901
-0.907885
-0.919593
-0.905559
-0.332462
-0.927220
-0.753011
-0.775496
-0.759073
-0.776844
-1.139353
-1.132226
-0.633082
-0.615275
-0.599996
-0.719368
-0.244114
-1.240190
-1.249912
-1.229089
-1.257568
-1.290106
-1.274803
-1.286374
-1.285886
-0.945598
-0.946937
-0.926474
-0.965167
-0.809966
-0.811539
-0.831279
-0.263580
-0.292722
-0.475984
-0.458806
-0.474015
-0.456690
-0.473231
-0.491574
-1.273880
-1.289148
-1.276558
-1.293301
-0.788079
-1.213627
-1.231095
-1.229998
-0.472027
-0.486003
-1.212993
-0.324383
-0.516889
-0.515729
-0.500158
-0.505263
-0.508543
-0.931008
-0.953252
-0.461997
-1.331465
-1.318594
-1.333833
-1.326052
-0.657469
-0.350274
-0.361190
-0.272262
-0.690397
-0.694640
-0.711248
-0.403707
-0.390502
-0.408472
-0.669969
-0.612584
-0.610699
-0.628293
-0.626760
-0.630747
-1.043906
-1.061720
-1.059216
-0.727770
-0.733773
-0.761718
-0.783468
-0.781435
-0.804954
-0.882421
-0.866346
-0.860793
-0.902549
-0.894245
-0.957770
-0.973233
-0.932418
-0.910697
-0.911044
-0.927297
-0.580656
-0.604498
-0.592027
-1.084440
-1.079772
-1.065679
-1.099001
-0.836988
-0.810189
-0.404193
-0.422748
-0.387808
-0.989308
-1.001071
-1.010622
-0.322128
-0.983478
-0.663355
-0.681825
-1.049367
-1.061237
-1.042136
-1.070652
-0.374436
-0.943794
-0.941726
-0.994165
-1.015599
-1.024381
-1.339752
-1.331008
-1.325533
-1.343574
-1.337297
-0.866979
-0.569941
-0.596893
-0.591377
-0.575307
-0.569529
-0.601221
-0.609257
-1.074555
-1.100910
-1.182123
-1.201298
-1.187295
-0.419736
-0.419269
-0.435307
-0.359526
-0.436517
-0.707436
-0.701043
-0.684640
-1.337384
-0.676872
-0.620656
-0.669334
-0.646106
-0.677606
-0.899449
-0.889875
-0.889707
-0.880312
-0.895874
-0.886222
-0.893062
-0.865387
-0.877558
-0.584295
-0.560708
-0.546880
-0.815088
-0.830050
-0.789826
-0.778433
-0.797334
-1.055681
-1.067514
-0.830245
-0.852138
-0.869742
-0.851699
-0.940842
-0.955630
-1.014369
-1.014479
-0.358791
-1.083849
-1.092109
-1.103068
-1.119443
-1.114534
-1.134304
-1.019648
-1.019002
-0.990545
-1.255943
-1.267797
-0.930725
-0.731920
-0.748272
-0.727034
-0.748478
-1.063986
-1.065311
-1.047319
-1.084544
-0.365454
-0.359853
-1.072274
-0.313312
-0.677143
-0.696013
-0.719814
-0.728424
-0.751301
-1.077099
-1.060160
-1.071025
-1.145497
-1.147072
-1.162503
-0.645387
-0.655304
-0.668684
-1.070124
-1.085159
-0.644356
-0.618850
-1.056416
-1.074889
-1.068321
-0.604602
-0.608346
-0.589344
-0.628757
-1.206703
-1.223953
-1.203193
-1.228184
-0.692582
-0.684722
-0.658975
-0.717290
-0.697784
-0.710353
-0.803562
-0.430994
-0.426555
-0.441068
-0.434987
-0.436642
-0.418552
-0.966767
-0.957057
-0.957177
-0.969649
-0.955333
-1.245021
-1.242943
-1.220881
-1.248943
-1.267909
-1.265546
-0.465634
-0.454727
-1.252881
-1.268812
-1.265235
-0.551567
-0.578640
-1.285097
-0.328180
-0.342712
-0.321822
-1.237839
-0.347961
-0.351809
-0.449964
-0.456329
-0.448722
-0.438358
-0.450300
-0.630574
-0.646741
-0.628292
-0.618076
-1.097264
-1.076442
-1.058170
-1.047145
-1.034194
-1.074841
-1.015969
-1.022974
-1.004761
-1.151978
-1.145306
-1.169884
-0.555721
-0.541031
-0.577067
-0.854691
-0.878712
-0.916834
-0.889527
-0.833694
-1.239512
-1.239708
-1.263578
-1.228849
-1.221478
-1.208562
-1.218923
-1.210350
-1.195957
-1.193687
-1.207006
-1.222212
-1.222369
-1.267789
-1.272453
-1.286964
-1.287574
-1.212804
-1.210839
-0.347571
-1.211841
-1.190731
-1.441476