# vtk DataFile Version 2.0
Test
ASCII
DATASET POLYDATA
POINTS 6577 float
0.000000 0.000000 0.000000
2.000000 0.000000 0.000000
2.000000 4.000000 0.000000
0.000000 4.000000 0.000000
0.000000 0.500000 0.000000
1.500000 2.000000 0.000000
2.000000 2.500000 0.000000
0.040000 0.000000 0.000000
0.080000 0.000000 0.000000
0.120000 0.000000 0.000000
0.160000 0.000000 0.000000
0.200000 0.000000 0.000000
0.240000 0.000000 0.000000
0.280000 0.000000 0.000000
0.320000 0.000000 0.000000
0.360000 0.000000 0.000000
0.400000 0.000000 0.000000
0.440000 0.000000 0.000000
0.480000 0.000000 0.000000
0.520000 0.000000 0.000000
0.560000 0.000000 0.000000
0.600000 0.000000 0.000000
0.640000 0.000000 0.000000
0.680000 0.000000 0.000000
0.720000 0.000000 0.000000
0.760000 0.000000 0.000000
0.800000 0.000000 0.000000
0.840000 0.000000 0.000000
0.880000 0.000000 0.000000
0.920000 0.000000 0.000000
0.960000 0.000000 0.000000
1.000000 0.000000 0.000000
1.040000 0.000000 0.000000
1.080000 0.000000 0.000000
1.120000 0.000000 0.000000
1.160000 0.000000 0.000000
1.200000 0.000000 0.000000
1.240000 0.000000 0.000000
1.280000 0.000000 0.000000
1.320000 0.000000 0.000000
1.360000 0.000000 0.000000
1.400000 0.000000 0.000000
1.440000 0.000000 0.000000
1.480000 0.000000 0.000000
1.520000 0.000000 0.000000
1.560000 0.000000 0.000000
1.600000 0.000000 0.000000
1.640000 0.000000 0.000000
1.680000 0.000000 0.000000
1.720000 0.000000 0.000000
1.760000 0.000000 0.000000
1.800000 0.000000 0.000000
1.840000 0.000000 0.000000
1.880000 0.000000 0.000000
1.920000 0.000000 0.000000
1.960000 0.000000 0.000000
2.000000 0.039683 0.000000
2.000000 0.079365 0.000000
2.000000 0.119048 0.000000
2.000000 0.158730 0.000000
2.000000 0.198413 0.000000
2.000000 0.238095 0.000000
2.000000 0.277778 0.000000
2.000000 0.317460 0.000000
2.000000 0.357143 0.000000
2.000000 0.396825 0.000000
2.000000 0.436508 0.000000
2.000000 0.476190 0.000000
2.000000 0.515873 0.000000
2.000000 0.555556 0.000000
2.000000 0.595238 0.000000
2.000000 0.634921 0.000000
2.000000 0.674603 0.000000
2.000000 0.714286 0.000000
2.000000 0.753968 0.000000
2.000000 0.793651 0.000000
2.000000 0.833333 0.000000
2.000000 0.873016 0.000000
2.000000 0.912698 0.000000
2.000000 0.952381 0.000000
2.000000 0.992063 0.000000
2.000000 1.031746 0.000000
2.000000 1.071429 0.000000
2.000000 1.111111 0.000000
2.000000 1.150794 0.000000
2.000000 1.190476 0.000000
2.000000 1.230159 0.000000
2.000000 1.269841 0.000000
2.000000 1.309524 0.000000
2.000000 1.349206 0.000000
2.000000 1.388889 0.000000
2.000000 1.428571 0.000000
2.000000 1.468254 0.000000
2.000000 1.507937 0.000000
2.000000 1.547619 0.000000
2.000000 1.587302 0.000000
2.000000 1.626984 0.000000
2.000000 1.666667 0.000000
2.000000 1.706349 0.000000
2.000000 1.746032 0.000000
2.000000 1.785714 0.000000
2.000000 1.825397 0.000000
2.000000 1.865079 0.000000
2.000000 1.904762 0.000000
2.000000 1.944444 0.000000
2.000000 1.984127 0.000000
2.000000 2.023810 0.000000
2.000000 2.063492 0.000000
2.000000 2.103175 0.000000
2.000000 2.142857 0.000000
2.000000 2.182540 0.000000
2.000000 2.222222 0.000000
2.000000 2.261905 0.000000
2.000000 2.301587 0.000000
2.000000 2.341270 0.000000
2.000000 2.380952 0.000000
2.000000 2.420635 0.000000
2.000000 2.460317 0.000000
2.000000 2.539474 0.000000
2.000000 2.578947 0.000000
2.000000 2.618421 0.000000
2.000000 2.657895 0.000000
2.000000 2.697368 0.000000
2.000000 2.736842 0.000000
2.000000 2.776316 0.000000
2.000000 2.815789 0.000000
2.000000 2.855263 0.000000
2.000000 2.894737 0.000000
2.000000 2.934211 0.000000
2.000000 2.973684 0.000000
2.000000 3.013158 0.000000
2.000000 3.052632 0.000000
2.000000 3.092105 0.000000
2.000000 3.131579 0.000000
2.000000 3.171053 0.000000
2.000000 3.210526 0.000000
2.000000 3.250000 0.000000
2.000000 3.289474 0.000000
2.000000 3.328947 0.000000
2.000000 3.368421 0.000000
2.000000 3.407895 0.000000
2.000000 3.447368 0.000000
2.000000 3.486842 0.000000
2.000000 3.526316 0.000000
2.000000 3.565789 0.000000
2.000000 3.605263 0.000000
2.000000 3.644737 0.000000
2.000000 3.684211 0.000000
2.000000 3.723684 0.000000
2.000000 3.763158 0.000000
2.000000 3.802632 0.000000
2.000000 3.842105 0.000000
2.000000 3.881579 0.000000
2.000000 3.921053 0.000000
2.000000 3.960526 0.000000
1.960000 4.000000 0.000000
1.920000 4.000000 0.000000
1.880000 4.000000 0.000000
1.840000 4.000000 0.000000
1.800000 4.000000 0.000000
1.760000 4.000000 0.000000
1.720000 4.000000 0.000000
1.680000 4.000000 0.000000
1.640000 4.000000 0.000000
1.600000 4.000000 0.000000
1.560000 4.000000 0.000000
1.520000 4.000000 0.000000
1.480000 4.000000 0.000000
1.440000 4.000000 0.000000
1.400000 4.000000 0.000000
1.360000 4.000000 0.000000
1.320000 4.000000 0.000000
1.280000 4.000000 0.000000
1.240000 4.000000 0.000000
1.200000 4.000000 0.000000
1.160000 4.000000 0.000000
1.120000 4.000000 0.000000
1.080000 4.000000 0.000000
1.040000 4.000000 0.000000
1.000000 4.000000 0.000000
0.960000 4.000000 0.000000
0.920000 4.000000 0.000000
0.880000 4.000000 0.000000
0.840000 4.000000 0.000000
0.800000 4.000000 0.000000
0.760000 4.000000 0.000000
0.720000 4.000000 0.000000
0.680000 4.000000 0.000000
0.640000 4.000000 0.000000
0.600000 4.000000 0.000000
0.560000 4.000000 0.000000
0.520000 4.000000 0.000000
0.480000 4.000000 0.000000
0.440000 4.000000 0.000000
0.400000 4.000000 0.000000
0.360000 4.000000 0.000000
0.320000 4.000000 0.000000
0.280000 4.000000 0.000000
0.240000 4.000000 0.000000
0.200000 4.000000 0.000000
0.160000 4.000000 0.000000
0.120000 4.000000 0.000000
0.080000 4.000000 0.000000
0.040000 4.000000 0.000000
0.000000 3.960227 0.000000
0.000000 3.920455 0.000000
0.000000 3.880682 0.000000
0.000000 3.840909 0.000000
0.000000 3.801136 0.000000
0.000000 3.761364 0.000000
0.000000 3.721591 0.000000
0.000000 3.681818 0.000000
0.000000 3.642045 0.000000
0.000000 3.602273 0.000000
0.000000 3.562500 0.000000
0.000000 3.522727 0.000000
0.000000 3.482955 0.000000
0.000000 3.443182 0.000000
0.000000 3.403409 0.000000
0.000000 3.363636 0.000000
0.000000 3.323864 0.000000
0.000000 3.284091 0.000000
0.000000 3.244318 0.000000
0.000000 3.204545 0.000000
0.000000 3.164773 0.000000
0.000000 3.125000 0.000000
0.000000 3.085227 0.000000
0.000000 3.045455 0.000000
0.000000 3.005682 0.000000
0.000000 2.965909 0.000000
0.000000 2.926136 0.000000
0.000000 2.886364 0.000000
0.000000 2.846591 0.000000
0.000000 2.806818 0.000000
0.000000 2.767045 0.000000
0.000000 2.727273 0.000000
0.000000 2.687500 0.000000
0.000000 2.647727 0.000000
0.000000 2.607955 0.000000
0.000000 2.568182 0.000000
0.000000 2.528409 0.000000
0.000000 2.488636 0.000000
0.000000 2.448864 0.000000
0.000000 2.409091 0.000000
0.000000 2.369318 0.000000
0.000000 2.329545 0.000000
0.000000 2.289773 0.000000
0.000000 2.250000 0.000000
0.000000 2.210227 0.000000
0.000000 2.170455 0.000000
0.000000 2.130682 0.000000
0.000000 2.090909 0.000000
0.000000 2.051136 0.000000
0.000000 2.011364 0.000000
0.000000 1.971591 0.000000
0.000000 1.931818 0.000000
0.000000 1.892045 0.000000
0.000000 1.852273 0.000000
0.000000 1.812500 0.000000
0.000000 1.772727 0.000000
0.000000 1.732955 0.000000
0.000000 1.693182 0.000000
0.000000 1.653409 0.000000
0.000000 1.613636 0.000000
0.000000 1.573864 0.000000
0.000000 1.534091 0.000000
0.000000 1.494318 0.000000
0.000000 1.454545 0.000000
0.000000 1.414773 0.000000
0.000000 1.375000 0.000000
0.000000 1.335227 0.000000
0.000000 1.295455 0.000000
0.000000 1.255682 0.000000
0.000000 1.215909 0.000000
0.000000 1.176136 0.000000
0.000000 1.136364 0.000000
0.000000 1.096591 0.000000
0.000000 1.056818 0.000000
0.000000 1.017045 0.000000
0.000000 0.977273 0.000000
0.000000 0.937500 0.000000
0.000000 0.897727 0.000000
0.000000 0.857955 0.000000
0.000000 0.818182 0.000000
0.000000 0.778409 0.000000
0.000000 0.738636 0.000000
0.000000 0.698864 0.000000
0.000000 0.659091 0.000000
0.000000 0.619318 0.000000
0.000000 0.579545 0.000000
0.000000 0.539773 0.000000
0.000000 0.461538 0.000000
0.000000 0.423077 0.000000
0.000000 0.384615 0.000000
0.000000 0.346154 0.000000
0.000000 0.307692 0.000000
0.000000 0.269231 0.000000
0.000000 0.230769 0.000000
0.000000 0.192308 0.000000
0.000000 0.153846 0.000000
0.000000 0.115385 0.000000
0.000000 0.076923 0.000000
0.000000 0.038462 0.000000
0.027778 0.527778 0.000000
0.055556 0.555556 0.000000
0.083333 0.583333 0.000000
0.111111 0.611111 0.000000
0.138889 0.638889 0.000000
0.166667 0.666667 0.000000
0.194444 0.694444 0.000000
0.222222 0.722222 0.000000
0.250000 0.750000 0.000000
0.277778 0.777778 0.000000
0.305556 0.805556 0.000000
0.333333 0.833333 0.000000
0.361111 0.861111 0.000000
0.388889 0.888889 0.000000
0.416667 0.916667 0.000000
0.444444 0.944444 0.000000
0.472222 0.972222 0.000000
0.500000 1.000000 0.000000
0.527778 1.027778 0.000000
0.555556 1.055556 0.000000
0.583333 1.083333 0.000000
0.611111 1.111111 0.000000
0.638889 1.138889 0.000000
0.666667 1.166667 0.000000
0.694444 1.194444 0.000000
0.722222 1.222222 0.000000
0.750000 1.250000 0.000000
0.777778 1.277778 0.000000
0.805556 1.305556 0.000000
0.833333 1.333333 0.000000
0.861111 1.361111 0.000000
0.888889 1.388889 0.000000
0.916667 1.416667 0.000000
0.944444 1.444444 0.000000
0.972222 1.472222 0.000000
1.000000 1.500000 0.000000
1.027778 1.527778 0.000000
1.055556 1.555556 0.000000
1.083333 1.583333 0.000000
1.111111 1.611111 0.000000
1.138889 1.638889 0.000000
1.166667 1.666667 0.000000
1.194444 1.694444 0.000000
1.222222 1.722222 0.000000
1.250000 1.750000 0.000000
1.277778 1.777778 0.000000
1.305556 1.805556 0.000000
1.333333 1.833333 0.000000
1.361111 1.861111 0.000000
1.388889 1.888889 0.000000
1.416667 1.916667 0.000000
1.444444 1.944444 0.000000
1.472222 1.972222 0.000000
1.527778 2.027778 0.000000
1.555556 2.055556 0.000000
1.583333 2.083333 0.000000
1.611111 2.111111 0.000000
1.638889 2.138889 0.000000
1.666667 2.166667 0.000000
1.694444 2.194444 0.000000
1.722222 2.222222 0.000000
1.750000 2.250000 0.000000
1.777778 2.277778 0.000000
1.805556 2.305556 0.000000
[...]
POINT_DATA 6577
SCALARS UX float 1
LOOKUP_TABLE default
-0.000004
0.000009
0.000822
-0.059096
-0.031239
-0.002275
0.007226
0.000000
-0.000000
-0.000000
0.000000
0.000001
-0.000003
0.000000
0.000000
0.000000
0.000000
0.000000
0.000000
0.000000
0.000000
-0.000000
0.000000
0.000000
0.000000
0.000000
-0.000000
-0.000000
0.000000
-0.000000
0.000000
0.000000
0.000000
-0.000000
0.000000
0.000000
-0.000000
0.000000
0.000000
-0.000000
0.000000
0.000000
-0.000000
0.000000
0.000000
-0.000000
-0.000001
-0.000000
-0.000000
-0.000001
-0.000001
-0.000001
0.000001
0.000001
-0.000004
0.000003
0.004554
0.008806
0.011585
0.014028
0.016068
0.017864
0.019449
0.020928
0.022200
0.023330
0.024399
0.025297
0.026152
0.026978
0.027693
0.028340
0.028981
0.029532
0.030031
0.030461
0.030831
0.031181
0.031529
0.031801
0.032038
0.032287
0.032439
0.032559
0.032683
0.032712
0.032733
0.032759
0.032781
0.032677
0.032513
0.032458
0.032263
0.032074
0.031767
0.031444
0.031044
0.030596
0.029999
0.029392
0.028603
0.027740
0.026748
0.025615
0.024329
0.022909
0.021341
0.019850
0.018267
0.016744
0.015343
0.014020
0.012884
0.011599
0.010491
0.009633
0.008799
0.007971
0.006638
0.006124
0.005718
0.005165
0.004850
0.004394
0.003983
0.003811
0.003479
0.003321
0.003089
0.002883
0.002660
0.002580
0.002365
0.002058
0.001946
0.001953
0.001842
0.001583
0.001461
0.001490
0.001323
0.001235
0.001187
0.001116
0.001096
0.001011
0.000956
0.000835
0.000754
0.000816
0.000802
0.000814
0.000787
0.000805
0.000799
-0.000474
-0.001772
-0.003103
-0.004382
-0.005655
-0.006927
-0.008189
-0.009486
-0.010753
-0.011984
-0.013263
-0.014502
-0.015747
-0.016952
-0.018183
-0.019398
-0.020601
-0.021818
-0.023010
-0.024227
-0.025411
-0.026602
-0.027781
-0.028960
-0.030129
-0.031303
-0.032450
-0.033631
-0.034790
-0.035966
-0.037134
-0.038311
-0.039471
-0.040612
-0.041786
-0.042965
-0.044101
-0.045243
-0.046428
-0.047603
-0.048773
-0.049923
-0.051097
-0.052261
-0.053426
-0.054560
-0.055704
-0.056842
-0.057975
-0.059095
-0.059073
-0.059051
-0.059071
-0.058925
-0.058891
-0.058852
-0.058757
-0.058708
-0.058611
-0.058540
-0.058434
-0.058298
-0.058259
-0.058047
-0.057997
-0.057812
-0.057642
-0.057576
-0.057363
-0.057258
-0.057091
-0.056915
-0.056735
-0.056600
-0.056387
-0.056199
-0.055954
-0.055903
-0.055650
-0.055520
-0.055315
-0.055179
-0.055083
-0.054860
-0.054723
-0.054588
-0.054458
-0.054351
-0.054273
-0.054149
-0.054127
-0.054055
-0.054056
-0.053937
-0.053968
-0.054031
-0.054041
-0.054098
-0.054193
-0.054216
-0.054362
-0.054544
-0.054700
-0.054894
-0.055130
-0.055363
-0.055589
-0.055958
-0.056155
-0.056581
-0.056949
-0.057389
-0.057834
-0.058210
-0.058672
-0.059154
-0.059590
-0.060066
-0.060503
-0.060903
-0.061224
-0.061462
-0.061562
-0.061455
-0.061176
-0.060684
-0.059876
-0.058717
-0.057199
-0.055703
-0.054382
-0.053339
-0.052961
-0.049265
-0.044504
-0.037626
-0.021821
-0.021800
-0.020517
-0.019427
-0.018382
-0.017201
-0.015832
-0.014315
-0.012535
-0.010399
-0.007963
-0.004517
-0.028368
-0.029357
-0.029501
-0.033953
-0.029050
-0.022291
-0.033667
-0.028453
-0.029865
-0.034529
-0.031489
-0.034659
-0.028653
-0.024497
-0.021345
-0.019624
-0.023131
-0.021544
-0.020857
-0.022544
-0.028032
-0.020964
-0.018743
-0.025883
-0.021776
-0.023997
-0.011674
-0.018229
-0.020412
-0.021487
-0.014816
-0.018953
-0.013822
-0.011825
-0.021523
-0.015190
-0.015348
-0.012774
-0.012805
-0.012459
-0.008612
-0.008714
-0.002897
-0.007312
-0.008653
-0.005588
-0.004188
-0.004159
-0.004004
-0.005529
-0.000123
-0.001461
-0.000946
0.000620
0.001200
0.001581
0.002002
0.002321
0.002681
0.002902
0.003135
0.003449
0.003737
0.004025
0.004351
0.004728
0.005093
0.005585
0.006163
0.006687
0.005053
0.004835
-0.058322
-0.058317
-0.000389
-0.000231
0.005631
0.005681
0.004482
0.003590
0.002829
-0.010627
-0.011503
-0.011617
-0.021362
-0.020981
-0.019957
-0.012346
-0.042922
-0.041989
-0.042153
-0.014280
-0.013351
-0.013113
-0.053296
-0.053682
-0.052697
-0.054345
-0.055573
-0.055167
-0.014219
-0.005986
-0.004950
-0.005495
-0.014281
-0.015228
-0.013964
-0.053506
-0.053287
-0.052410
-0.043044
-0.017988
-0.017932
-0.019032
-0.018686
-0.019554
-0.019815
-0.015243
-0.015007
-0.016141
-0.015646
-0.043516
-0.044559
-0.044237
-0.044264
-0.042912
-0.043983
-0.043173
-0.044372
-0.016538
-0.015317
-0.016171
-0.018852
-0.029120
-0.029156
-0.028248
0.002836
0.003430
-0.027698
-0.047768
-0.047931
-0.046663
-0.049030
-0.044994
-0.044894
-0.043728
-0.028401
-0.029276
-0.029248
-0.028422
-0.009205
-0.008976
-0.007558
-0.007979
-0.041159
-0.042371
-0.042319
-0.041433
-0.021318
-0.020340
-0.021192
-0.043013
-0.041548
-0.041862
0.002481
0.003721
0.002347
0.003389
0.002682
0.003446
0.001911
-0.045745
-0.046732
-0.046819
-0.012207
-0.013247
-0.013171
-0.014329
-0.020701
-0.054415
-0.055381
-0.054613
-0.034047
-0.033081
-0.033116
-0.034388
-0.046836
-0.047829
-0.046851
-0.047734
-0.044390
-0.043650
-0.044671
-0.029407
-0.029689
-0.030555
-0.006128
-0.007198
-0.006995
-0.005592
-0.003747
-0.002767
0.003242
-0.032475
-0.031888
-0.032800
-0.033055
-0.033743
-0.033937
-0.042344
-0.040984
-0.043764
-0.044034
-0.042937
-0.050086
-0.049551
-0.049272
-0.044835
-0.028874
-0.030065
-0.028753
-0.052221
-0.051835
-0.052725
-0.043410
-0.036133
-0.035592
-0.036764
-0.029525
-0.028593
-0.029610
-0.047048
-0.048871
-0.050561
-0.003450
-0.001990
-0.003440
-0.001603
-0.015810
-0.016488
-0.016714
-0.017584
0.003689
0.004263
-0.026436
-0.025829
-0.026720
-0.025202
-0.053426
-0.054474
-0.053956
-0.031816
-0.030914
-0.031642
-0.033464
-0.034687
-0.033500
-0.031339
-0.055264
-0.041383
-0.040121
-0.040715
-0.040422
-0.041308
-0.041649
-0.042631
-0.040904
-0.054128
-0.054031
-0.034846
-0.034264
-0.035423
-0.053267
-0.053657
-0.025957
-0.025411
-0.026789
-0.052152
-0.053248
-0.052555
-0.052956
-0.052030
-0.051700
-0.049900
-0.051155
-0.050569
-0.050944
-0.048732
-0.049967
-0.049380
-0.024786
-0.025472
-0.018236
-0.025419
-0.054111
-0.055161
-0.054665
-0.055716
-0.057615
-0.057423
-0.001218
-0.001452
-0.012277
-0.012196
-0.010932
-0.013322
-0.038140
-0.038090
-0.037232
-0.047957
-0.048935
-0.048775
-0.036924
-0.013822
-0.013280
-0.014258
-0.049083
-0.049835
-0.056350
-0.056093
-0.055536
-0.028058
-0.027262
-0.000280
-0.000277
0.001232
0.001356
-0.047630
-0.048759
-0.048599
-0.049667
-0.057410
-0.056418
-0.057425
-0.055968
-0.052252
-0.053194
-0.051924
-0.054422
-0.053594
-0.059442
-0.059858
-0.060355
-0.052097
-0.052027
-0.053883
-0.055287
-0.053951
-0.048974
-0.048752
-0.003797
-0.002457
-0.050113
-0.051399
-0.051082
-0.055129
-0.044165
-0.045322
-0.044397
-0.052423
-0.052683
-0.007727
-0.008432
-0.008969
-0.007072
-0.012937
-0.011880
-0.012193
-0.031576
-0.031867
-0.032604
-0.026586
-0.026368
-0.007643
-0.006650
-0.006914
-0.030961
-0.027839
-0.028422
-0.028853
-0.056115
-0.057540
-0.056465
-0.047269
-0.047485
-0.046483
-0.010554
-0.048610
-0.049691
-0.048516
-0.047747
-0.047564
-0.049067
-0.049782
-0.051318
-0.009701
-0.049233
-0.043196
-0.046353
-0.047497
-0.047359
-0.046756
-0.046719
-0.055207
-0.055534
-0.053534
-0.056847
-0.045834
-0.045414
-0.046430
-0.002263
-0.001613
-0.047972
-0.047995
-0.047838
-0.046628
-0.046671
-0.042439
-0.058037
-0.056685
-0.055691
-0.056083
-0.054957
-0.055093
-0.000208
-0.040158
-0.039198
-0.056946
-0.056641
-0.045729
-0.045858
-0.001961
-0.001385
-0.029857
-0.028489
-0.050287
-0.016426
-0.016044
-0.015592
-0.014936
-0.053769
-0.052752
-0.043204
-0.044256
-0.043256
-0.050903
-0.052520
-0.053080
-0.051454
-0.056655
-0.044328
-0.004876
-0.035630
-0.036762
-0.036065
-0.054123
-0.056463
-0.054895
-0.058177
-0.056401
-0.058008
-0.056755
-0.057365
-0.037272
-0.036678
-0.003904
-0.003031
-0.003305
-0.049313
-0.046024
-0.025862
-0.024530
-0.055427
-0.055680
-0.054900
-0.039827
-0.039023
-0.051159
-0.053979
-0.054380
-0.048697
-0.045689
-0.048206
-0.049332
-0.008289
-0.008548
-0.007264
-0.050594
-0.051711
-0.055680
-0.055110
-0.053116
-0.057670
-0.038913
-0.028070
-0.027833
-0.054179
-0.058108
-0.057252
-0.055854
-0.059139
-0.056306
-0.055965
-0.017650
-0.017636
-0.016303
-0.046744
-0.000285
-0.002001
-0.000972
-0.002615
-0.053229
-0.054101
-0.055118
-0.051604
-0.047116
-0.046947
-0.045135
-0.045621
-0.045506
-0.045668
-0.045660
-0.058386
-0.046824
-0.046596
-0.045482
-0.005796
-0.047826
-0.047952
-0.048747
-0.053278
-0.016528
-0.004669
-0.004727
-0.003660
-0.057687
-0.056415
-0.059811
-0.054174
-0.054299
-0.055090
-0.053213
-0.054160
-0.055428
-0.051830
-0.058912
-0.009270
-0.009612
-0.043906
-0.045406
-0.016441
0.000702
0.001909
0.001987
-0.057685
-0.057136
-0.055923
-0.055356
-0.001391
-0.000458
-0.010001
-0.009230
-0.009956
-0.010937
-0.049558
-0.049442
-0.048423
-0.044558
-0.002644
-0.003238
-0.057787
-0.056564
-0.060244
-0.052599
-0.053883
-0.055285
-0.052222
-0.044529
-0.005878
-0.006855
-0.011150
-0.053266
-0.052320
-0.020839
-0.020039
-0.021159
-0.058861
-0.005747
-0.004502
-0.053245
-0.054314
-0.056479
-0.059837
-0.049496
-0.054670
0.004552
0.003456
-0.052068
-0.022358
-0.008622
-0.009860
-0.008865
-0.052461
-0.053578
-0.055005
-0.051859
-0.008886
-0.007995
-0.008529
-0.056577
-0.020326
-0.009891
-0.055383
-0.054696
-0.057174
-0.001880
-0.000937
-0.025483
-0.024615
-0.024455
-0.003189
-0.003959
-0.058646
-0.025695
-0.025220
-0.002136
-0.000744
-0.001894
-0.049753
-0.050681
-0.049959
-0.051116
-0.008894
-0.037586
0.002691
0.003902
-0.007889
-0.047361
-0.048514
-0.056536
-0.052308
-0.049896
-0.050949
-0.053194
-0.054511
-0.050712
-0.006857
-0.000229
-0.017981
-0.016896
-0.017129
-0.052238
-0.017721
-0.037167
-0.036487
-0.037921
-0.006782
-0.005472
-0.007877
-0.052323
-0.053384
-0.051343
-0.055119
-0.058424
-0.056171
-0.014908
-0.014524
-0.013510
-0.015656
-0.007243
-0.055238
-0.052418
-0.052202
-0.053580
-0.006034
-0.049285
-0.049612
-0.048491
-0.052769
-0.053981
-0.048930
-0.048655
-0.045821
0.000851
-0.002941
-0.003082
-0.001977
-0.026314
-0.027249
-0.026099
-0.026780
0.001211
-0.005635
-0.006106
-0.055851
-0.050591
-0.023360
-0.023342
-0.022366
-0.054661
-0.054232
-0.056884
-0.002461
-0.046272
-0.046100
-0.003873
-0.004477
-0.001102
-0.022709
-0.023739
-0.021049
-0.021050
-0.022269
-0.044720
-0.044669
-0.044537
-0.022178
-0.043723
-0.008077
-0.043556
-0.043546
-0.048765
-0.051232
-0.010346
-0.054054
-0.015989
-0.014931
-0.015985
-0.007699
-0.014943
-0.009075
-0.051465
-0.016984
-0.015720
-0.050218
-0.016658
-0.030545
-0.030307
-0.031238
-0.046100
0.001257
-0.051337
-0.033107
-0.031869
-0.032600
-0.029609
-0.025329
-0.024933
-0.025928
-0.019949
-0.018874
-0.046531
-0.047703
-0.056116
-0.055666
-0.054711
-0.025544
-0.053155
-0.053171
-0.049124
-0.050288
-0.020788
-0.019748
-0.054703
-0.055820
-0.051823
-0.052863
-0.054069
-0.054979
-0.053593
-0.002176
-0.002732
-0.001683
-0.003261
-0.044937
0.001778
0.001769
0.000497
-0.045420
-0.045252
-0.043858
-0.043639
0.000549
-0.022315
-0.021316
-0.022300
-0.043605
-0.038169
-0.039030
-0.008318
-0.058573
-0.057851
-0.057411
-0.042710
-0.042726
-0.039228
-0.054179
-0.030110
-0.029980
-0.028807
-0.052504
-0.053514
-0.047976
-0.039984
-0.022275
-0.023573
-0.013373
-0.014300
-0.013537
-0.023854
-0.042930
-0.042956
-0.043826
-0.041823
-0.004532
-0.003982
0.000242
0.001914
-0.025351
-0.026227
-0.026521
-0.004790
-0.006055
-0.004987
-0.027544
-0.021378
-0.019105
-0.020054
-0.019103
-0.050214
-0.051462
-0.051853
-0.045708
-0.046800
-0.018006
-0.017034
-0.018184
-0.045652
-0.044970
-0.045885
-0.053748
-0.050654
-0.048353
-0.049469
-0.051238
-0.052369
-0.052390
-0.031593
-0.030446
-0.031296
-0.044601
-0.044308
-0.044091
-0.050428
-0.051005
-0.051157
-0.056301
-0.057043
-0.057408
-0.055829
-0.043044
-0.042825
-0.044237
-0.045486
-0.050192
-0.049797
-0.049079
-0.042741
-0.057039
-0.051991
-0.053011
-0.051384
-0.041911
0.000765
-0.041908
-0.047200
-0.044945
-0.046066
-0.006750
-0.007139
-0.007641
-0.049430
-0.050826
-0.047635
-0.048786
-0.050038
-0.054647
-0.050003
-0.050442
-0.050924
-0.049663
-0.050673
-0.052076
0.000272
-0.000337
-0.000813
-0.001824
-0.043829
-0.043474
-0.043268
-0.042262
-0.042202
-0.053446
-0.053150
-0.032123
-0.030847
-0.031032
-0.031204
-0.020659
-0.019259
-0.019959
-0.008932
-0.041953
-0.041068
-0.041077
-0.046502
-0.044212
-0.045367
-0.050504
-0.022103
-0.023248
-0.022252
-0.019768
-0.047028
-0.048071
-0.049321
-0.050005
-0.051490
-0.052609
-0.043048
-0.042684
-0.016744
-0.015729
-0.016479
-0.015800
-0.042406
-0.051750
-0.051000
-0.008106
-0.007158
-0.008226
-0.021060
-0.003032
-0.003915
-0.002640
-0.001594
-0.046853
-0.047495
-0.041353
-0.041283
-0.001851
-0.000476
-0.001857
-0.047947
-0.049103
-0.047828
-0.055700
-0.055258
-0.016848
-0.017280
-0.016646
-0.043342
-0.043984
-0.043007
-0.043872
-0.043494
-0.044648
-0.045818
-0.017602
-0.046476
-0.047391
-0.049430
-0.049060
-0.015039
-0.024787
-0.014028
-0.014461
-0.012930
-0.048613
-0.014970
-0.014301
-0.049334
-0.050923
-0.042293
-0.041891
-0.012694
-0.012433
-0.013902
-0.046731
-0.046653
-0.045487
-0.015361
-0.003533
-0.002916
-0.047992
-0.010961
-0.009925
-0.041572
-0.011669
-0.042374
-0.040459
-0.040273
-0.034521
-0.033219
-0.034721
-0.021709
-0.021152
-0.023299
-0.022648
-0.023668
-0.021997
-0.027667
-0.027595
-0.028641
-0.028383
-0.047680
-0.044714
-0.045199
-0.046257
-0.005993
-0.006508
-0.007850
-0.049868
-0.012495
-0.013169
-0.042746
-0.043963
-0.029330
-0.029141
-0.030129
-0.029967
-0.045206
-0.017229
-0.016944
-0.046083
-0.047695
-0.022626
-0.008595
-0.007465
-0.007483
-0.011996
-0.011969
-0.054391
-0.047051
-0.047104
-0.041593
-0.041131
-0.015364
-0.048971
-0.048234
-0.009231
-0.010557
-0.009219
-0.040718
-0.014920
-0.014808
-0.039590
-0.039335
-0.052098
-0.050976
-0.050168
-0.043758
-0.044960
-0.044809
-0.054525
-0.052581
-0.031793
-0.030485
-0.030918
-0.042111
-0.043292
-0.048999
-0.048211
-0.007902
-0.044577
-0.035738
-0.035089
-0.036309
-0.035650
-0.010333
-0.027604
-0.027990
-0.028818
-0.047138
-0.046195
-0.047095
-0.045881
-0.011804
-0.012748
-0.011612
-0.013047
-0.045461
-0.046976
-0.041863
-0.042626
-0.015552
-0.016241
-0.028584
-0.029204
-0.052547
-0.001849
-0.002734
-0.003049
-0.004303
-0.027816
-0.028103
-0.028875
-0.018147
-0.019211
-0.017902
0.000250
0.000241
-0.000868
-0.043409
-0.044369
-0.044282
-0.040917
-0.040451
-0.013696
-0.012476
-0.013070
-0.019599
0.000198
-0.000865
-0.039979
-0.038742
-0.038370
-0.041207
-0.040403
-0.039953
-0.039265
-0.041429
-0.042678
-0.014637
-0.015757
-0.014839
-0.021062
-0.018940
-0.018858
-0.043959
-0.044904
-0.046422
-0.040163
-0.039645
-0.018332
-0.027848
-0.028778
-0.027861
-0.039199
-0.029078
-0.014191
-0.015037
-0.015151
-0.037860
-0.037416
-0.040758
-0.042028
-0.042125
-0.041439
-0.043334
-0.044305
-0.045475
-0.000639
-0.001059
-0.002992
-0.002330
-0.052333
-0.053046
-0.051864
-0.039471
-0.038895
-0.039158
-0.038574
-0.039105
-0.001191
-0.002518
-0.001248
-0.000592
-0.002165
-0.003237
-0.003725
-0.016031
-0.038366
-0.036999
-0.036559
-0.013059
-0.011966
-0.020097
-0.019127
-0.020114
-0.019426
-0.040088
-0.041406
-0.042852
-0.040144
-0.043598
-0.044834
-0.038814
-0.038165
-0.013689
-0.013879
-0.012429
-0.003695
-0.003956
-0.004987
-0.014405
-0.014672
-0.029910
-0.029320
-0.036010
-0.036605
-0.045188
-0.045321
-0.046350
-0.037509
-0.036019
-0.035641
-0.029587
-0.047225
-0.047312
-0.048165
-0.002117
-0.000686
-0.039480
-0.040830
-0.013904
-0.017839
-0.017462
-0.018727
-0.042216
-0.042902
-0.018315
-0.019664
-0.047337
-0.047640
-0.010872
-0.011328
-0.021490
-0.038207
-0.037512
-0.042753
-0.039638
-0.038658
-0.039406
-0.036878
-0.035801
-0.050616
-0.051745
-0.039116
-0.040244
-0.011095
-0.049967
-0.050955
-0.048226
-0.051564
-0.050502
-0.037757
-0.036828
-0.004881
-0.027198
-0.030096
-0.046452
-0.027850
-0.027584
-0.028456
-0.036151
-0.035033
-0.026964
-0.025715
-0.047870
-0.046706
-0.046467
-0.038698
-0.039955
-0.026838
-0.010052
-0.011433
-0.031946
-0.032189
-0.031199
-0.012213
-0.052851
-0.024405
-0.030931
-0.032148
-0.030954
-0.024661
-0.044900
-0.045965
-0.032857
-0.030449
-0.033050
-0.031698
-0.042578
-0.042744
-0.041496
-0.030877
-0.031853
-0.037339
-0.036453
-0.045128
-0.035523
-0.034238
-0.038007
-0.039480
-0.041463
-0.042238
-0.050967
-0.006712
-0.004897
-0.007473
-0.008971
-0.004967
-0.004153
-0.003875
-0.048509
-0.029531
-0.030259
-0.029128
-0.030419
-0.029265
-0.046513
-0.046516
-0.045257
-0.024548
-0.024290
-0.025298
0.000628
0.000975
-0.000181
-0.037264
-0.023496
-0.034078
-0.033737
-0.034872
-0.034622
-0.032337
-0.033289
-0.032733
-0.032775
-0.017296
-0.055439
-0.056434
-0.055521
-0.012126
-0.012227
-0.013160
-0.033978
-0.016282
-0.017310
-0.016149
-0.017546
-0.018205
-0.035768
-0.005633
-0.004537
-0.004081
-0.024005
-0.051809
-0.050603
-0.051079
-0.051255
-0.006139
-0.028466
-0.027554
-0.027456
-0.028542
-0.015444
-0.016138
-0.015387
0.000289
-0.016657
-0.046914
-0.047623
-0.047753
-0.048613
-0.054358
-0.053137
-0.049425
-0.048695
-0.047474
-0.052938
-0.021515
-0.043096
-0.044038
-0.043058
-0.043742
-0.041644
-0.040920
-0.040966
-0.041952
-0.042311
-0.043236
-0.042301
-0.043517
-0.035406
-0.034496
-0.035545
-0.015649
-0.018767
-0.004003
-0.002468
-0.003141
-0.003237
-0.002464
-0.003630
-0.036590
-0.037618
-0.036877
-0.038079
-0.034288
-0.054283
-0.054400
-0.055355
-0.011461
-0.012227
-0.055157
-0.030388
-0.016545
-0.017023
-0.015872
-0.016987
-0.015574
-0.032112
-0.033281
-0.011351
-0.048257
-0.047022
-0.047645
-0.046666
-0.051051
-0.000496
-0.000768
-0.026259
-0.006165
-0.006393
-0.007169
-0.008518
-0.007181
-0.007834
-0.005268
-0.022311
-0.021539
-0.022503
-0.021674
-0.011254
-0.024533
-0.025664
-0.025481
-0.046072
-0.045341
-0.029455
-0.030056
-0.030764
-0.031070
-0.045949
-0.046516
-0.045593
-0.046635
-0.047212
-0.018925
-0.019908
-0.036718
-0.036307
-0.035633
-0.037085
-0.038132
-0.038815
-0.039163
-0.036835
-0.037253
-0.036382
-0.037909
-0.033182
-0.032111
-0.006788
-0.008140
-0.006210
-0.021284
-0.022101
-0.022636
-0.032016
-0.021086
-0.004945
-0.005895
-0.044278
-0.045465
-0.044765
-0.045052
-0.038208
-0.017701
-0.017747
-0.021805
-0.022951
-0.023467
-0.051133
-0.051439
-0.049920
-0.050669
-0.049546
-0.013347
-0.039004
-0.037684
-0.001366
-0.000768
-0.000121
-0.001720
-0.002559
-0.026452
-0.027121
-0.030984
-0.031992
-0.031218
-0.028563
-0.027375
-0.028421
-0.029877
-0.027138
-0.022485
-0.022958
-0.021731
-0.045518
-0.022127
-0.045284
-0.023972
-0.023124
-0.024931
-0.015097
-0.014464
-0.014426
-0.032734
-0.032693
-0.031765
-0.033744
-0.032980
-0.033908
-0.017716
-0.016707
-0.016471
-0.027451
-0.027452
-0.026385
-0.026737
-0.029926
-0.052653
-0.051749
-0.012065
-0.012666
-0.013382
-0.012429
-0.044537
-0.044136
-0.041665
-0.042513
-0.019578
-0.046307
-0.045810
-0.046883
-0.047420
-0.047960
-0.048560
-0.044243
-0.045351
-0.043940
-0.040231
-0.041285
-0.043430
-0.035982
-0.037149
-0.036982
-0.038119
-0.038881
-0.039576
-0.038590
-0.040113
-0.004413
-0.005148
-0.046588
-0.001599
-0.005696
-0.006337
-0.007132
-0.007697
-0.008468
-0.047234
-0.046762
-0.047597
-0.051974
-0.051332
-0.052317
-0.021694
-0.021373
-0.022539
-0.038398
-0.039432
-0.027858
-0.026584
-0.037311
-0.038020
-0.037231
-0.009045
-0.010164
-0.009070
-0.010473
-0.034527
-0.035740
-0.034864
-0.035357
-0.024832
-0.023864
-0.022899
-0.025876
-0.025576
-0.026398
-0.050616
-0.007689
-0.006866
-0.007952
-0.006815
-0.008687
-0.007277
-0.019344
-0.018643
-0.018665
-0.019674
-0.018789
-0.036564
-0.036975
-0.036119
-0.036199
-0.037589
-0.036834
-0.010507
-0.010200
-0.037822
-0.038435
-0.038727
0.000933
-0.000715
-0.039428
-0.019797
-0.020521
-0.020341
-0.037193
-0.005406
-0.009324
-0.008105
-0.009021
-0.010381
-0.009431
-0.009235
-0.003495
-0.004467
-0.003705
-0.002729
-0.045105
-0.044449
-0.025133
-0.024804
-0.024122
-0.026045
-0.023276
-0.023511
-0.022686
-0.049517
-0.049872
-0.050014
-0.015777
-0.015611
-0.016844
-0.030095
-0.030977
-0.053051
-0.053046
-0.029318
-0.039646
-0.039064
-0.039862
-0.039597
-0.038619
-0.038537
-0.037802
-0.053292
-0.053101
-0.054010
-0.052372
-0.053386
-0.052717
-0.055127
-0.054670
-0.055800
-0.054853
-0.033388
-0.033058
-0.022009
-0.033759
-0.032411
-0.049573
-0.050585
-0.040413
-0.039366
-0.041540
-0.040690
-0.051754
-0.052205
-0.050425
-0.049046
-0.049728
-0.041908
-0.039777