# vtk DataFile Version 2.0
Test
ASCII
DATASET POLYDATA
POINTS 6577 float
0.000000 0.000000 0.000000
2.000000 0.000000 0.000000
2.000000 4.000000 0.000000
0.000000 4.000000 0.000000
0.000000 0.500000 0.000000
1.500000 2.000000 0.000000
2.000000 2.500000 0.000000
0.040000 0.000000 0.000000
0.080000 0.000000 0.000000
0.120000 0.000000 0.000000
0.160000 0.000000 0.000000
0.200000 0.000000 0.000000
0.240000 0.000000 0.000000
0.280000 0.000000 0.000000
0.320000 0.000000 0.000000
0.360000 0.000000 0.000000
0.400000 0.000000 0.000000
0.440000 0.000000 0.000000
0.480000 0.000000 0.000000
0.520000 0.000000 0.000000
0.560000 0.000000 0.000000
0.600000 0.000000 0.000000
0.640000 0.000000 0.000000
0.680000 0.000000 0.000000
0.720000 0.000000 0.000000
0.760000 0.000000 0.000000
0.800000 0.000000 0.000000
0.840000 0.000000 0.000000
0.880000 0.000000 0.000000
0.920000 0.000000 0.000000
0.960000 0.000000 0.000000
1.000000 0.000000 0.000000
1.040000 0.000000 0.000000
1.080000 0.000000 0.000000
1.120000 0.000000 0.000000
1.160000 0.000000 0.000000
1.200000 0.000000 0.000000
1.240000 0.000000 0.000000
1.280000 0.000000 0.000000
1.320000 0.000000 0.000000
1.360000 0.000000 0.000000
1.400000 0.000000 0.000000
1.440000 0.000000 0.000000
1.480000 0.000000 0.000000
1.520000 0.000000 0.000000
1.560000 0.000000 0.000000
1.600000 0.000000 0.000000
1.640000 0.000000 0.000000
1.680000 0.000000 0.000000
1.720000 0.000000 0.000000
1.760000 0.000000 0.000000
1.800000 0.000000 0.000000
1.840000 0.000000 0.000000
1.880000 0.000000 0.000000
1.920000 0.000000 0.000000
1.960000 0.000000 0.000000
2.000000 0.039683 0.000000
2.000000 0.079365 0.000000
2.000000 0.119048 0.000000
2.000000 0.158730 0.000000
2.000000 0.198413 0.000000
2.000000 0.238095 0.000000
2.000000 0.277778 0.000000
2.000000 0.317460 0.000000
2.000000 0.357143 0.000000
2.000000 0.396825 0.000000
2.000000 0.436508 0.000000
2.000000 0.476190 0.000000
2.000000 0.515873 0.000000
2.000000 0.555556 0.000000
2.000000 0.595238 0.000000
2.000000 0.634921 0.000000
2.000000 0.674603 0.000000
2.000000 0.714286 0.000000
2.000000 0.753968 0.000000
2.000000 0.793651 0.000000
2.000000 0.833333 0.000000
2.000000 0.873016 0.000000
2.000000 0.912698 0.000000
2.000000 0.952381 0.000000
2.000000 0.992063 0.000000
2.000000 1.031746 0.000000
2.000000 1.071429 0.000000
2.000000 1.111111 0.000000
2.000000 1.150794 0.000000
2.000000 1.190476 0.000000
2.000000 1.230159 0.000000
2.000000 1.269841 0.000000
2.000000 1.309524 0.000000
2.000000 1.349206 0.000000
2.000000 1.388889 0.000000
2.000000 1.428571 0.000000
2.000000 1.468254 0.000000
2.000000 1.507937 0.000000
2.000000 1.547619 0.000000
2.000000 1.587302 0.000000
2.000000 1.626984 0.000000
2.000000 1.666667 0.000000
2.000000 1.706349 0.000000
2.000000 1.746032 0.000000
2.000000 1.785714 0.000000
2.000000 1.825397 0.000000
2.000000 1.865079 0.000000
2.000000 1.904762 0.000000
2.000000 1.944444 0.000000
2.000000 1.984127 0.000000
2.000000 2.023810 0.000000
2.000000 2.063492 0.000000
2.000000 2.103175 0.000000
2.000000 2.142857 0.000000
2.000000 2.182540 0.000000
2.000000 2.222222 0.000000
2.000000 2.261905 0.000000
2.000000 2.301587 0.000000
2.000000 2.341270 0.000000
2.000000 2.380952 0.000000
2.000000 2.420635 0.000000
2.000000 2.460317 0.000000
2.000000 2.539474 0.000000
2.000000 2.578947 0.000000
2.000000 2.618421 0.000000
2.000000 2.657895 0.000000
2.000000 2.697368 0.000000
2.000000 2.736842 0.000000
2.000000 2.776316 0.000000
2.000000 2.815789 0.000000
2.000000 2.855263 0.000000
2.000000 2.894737 0.000000
2.000000 2.934211 0.000000
2.000000 2.973684 0.000000
2.000000 3.013158 0.000000
2.000000 3.052632 0.000000
2.000000 3.092105 0.000000
2.000000 3.131579 0.000000
2.000000 3.171053 0.000000
2.000000 3.210526 0.000000
2.000000 3.250000 0.000000
2.000000 3.289474 0.000000
2.000000 3.328947 0.000000
2.000000 3.368421 0.000000
2.000000 3.407895 0.000000
2.000000 3.447368 0.000000
2.000000 3.486842 0.000000
2.000000 3.526316 0.000000
2.000000 3.565789 0.000000
2.000000 3.605263 0.000000
2.000000 3.644737 0.000000
2.000000 3.684211 0.000000
2.000000 3.723684 0.000000
2.000000 3.763158 0.000000
2.000000 3.802632 0.000000
2.000000 3.842105 0.000000
2.000000 3.881579 0.000000
2.000000 3.921053 0.000000
2.000000 3.960526 0.000000
1.960000 4.000000 0.000000
1.920000 4.000000 0.000000
1.880000 4.000000 0.000000
1.840000 4.000000 0.000000
1.800000 4.000000 0.000000
1.760000 4.000000 0.000000
1.720000 4.000000 0.000000
1.680000 4.000000 0.000000
1.640000 4.000000 0.000000
1.600000 4.000000 0.000000
1.560000 4.000000 0.000000
1.520000 4.000000 0.000000
1.480000 4.000000 0.000000
1.440000 4.000000 0.000000
1.400000 4.000000 0.000000
1.360000 4.000000 0.000000
1.320000 4.000000 0.000000
1.280000 4.000000 0.000000
1.240000 4.000000 0.000000
1.200000 4.000000 0.000000
1.160000 4.000000 0.000000
1.120000 4.000000 0.000000
1.080000 4.000000 0.000000
1.040000 4.000000 0.000000
1.000000 4.000000 0.000000
0.960000 4.000000 0.000000
0.920000 4.000000 0.000000
0.880000 4.000000 0.000000
0.840000 4.000000 0.000000
0.800000 4.000000 0.000000
0.760000 4.000000 0.000000
0.720000 4.000000 0.000000
0.680000 4.000000 0.000000
0.640000 4.000000 0.000000
0.600000 4.000000 0.000000
0.560000 4.000000 0.000000
0.520000 4.000000 0.000000
0.480000 4.000000 0.000000
0.440000 4.000000 0.000000
0.400000 4.000000 0.000000
0.360000 4.000000 0.000000
0.320000 4.000000 0.000000
0.280000 4.000000 0.000000
0.240000 4.000000 0.000000
0.200000 4.000000 0.000000
0.160000 4.000000 0.000000
0.120000 4.000000 0.000000
0.080000 4.000000 0.000000
0.040000 4.000000 0.000000
0.000000 3.960227 0.000000
0.000000 3.920455 0.000000
0.000000 3.880682 0.000000
0.000000 3.840909 0.000000
0.000000 3.801136 0.000000
0.000000 3.761364 0.000000
0.000000 3.721591 0.000000
0.000000 3.681818 0.000000
0.000000 3.642045 0.000000
0.000000 3.602273 0.000000
0.000000 3.562500 0.000000
0.000000 3.522727 0.000000
0.000000 3.482955 0.000000
0.000000 3.443182 0.000000
0.000000 3.403409 0.000000
0.000000 3.363636 0.000000
0.000000 3.323864 0.000000
0.000000 3.284091 0.000000
0.000000 3.244318 0.000000
0.000000 3.204545 0.000000
0.000000 3.164773 0.000000
0.000000 3.125000 0.000000
0.000000 3.085227 0.000000
0.000000 3.045455 0.000000
0.000000 3.005682 0.000000
0.000000 2.965909 0.000000
0.000000 2.926136 0.000000
0.000000 2.886364 0.000000
0.000000 2.846591 0.000000
0.000000 2.806818 0.000000
0.000000 2.767045 0.000000
0.000000 2.727273 0.000000
0.000000 2.687500 0.000000
0.000000 2.647727 0.000000
0.000000 2.607955 0.000000
0.000000 2.568182 0.000000
0.000000 2.528409 0.000000
0.000000 2.488636 0.000000
0.000000 2.448864 0.000000
0.000000 2.409091 0.000000
0.000000 2.369318 0.000000
0.000000 2.329545 0.000000
0.000000 2.289773 0.000000
0.000000 2.250000 0.000000
0.000000 2.210227 0.000000
0.000000 2.170455 0.000000
0.000000 2.130682 0.000000
0.000000 2.090909 0.000000
0.000000 2.051136 0.000000
0.000000 2.011364 0.000000
0.000000 1.971591 0.000000
0.000000 1.931818 0.000000
0.000000 1.892045 0.000000
0.000000 1.852273 0.000000
0.000000 1.812500 0.000000
0.000000 1.772727 0.000000
0.000000 1.732955 0.000000
0.000000 1.693182 0.000000
0.000000 1.653409 0.000000
0.000000 1.613636 0.000000
0.000000 1.573864 0.000000
0.000000 1.534091 0.000000
0.000000 1.494318 0.000000
0.000000 1.454545 0.000000
0.000000 1.414773 0.000000
0.000000 1.375000 0.000000
0.000000 1.335227 0.000000
0.000000 1.295455 0.000000
0.000000 1.255682 0.000000
0.000000 1.215909 0.000000
0.000000 1.176136 0.000000
0.000000 1.136364 0.000000
0.000000 1.096591 0.000000
0.000000 1.056818 0.000000
0.000000 1.017045 0.000000
0.000000 0.977273 0.000000
0.000000 0.937500 0.000000
0.000000 0.897727 0.000000
0.000000 0.857955 0.000000
0.000000 0.818182 0.000000
0.000000 0.778409 0.000000
0.000000 0.738636 0.000000
0.000000 0.698864 0.000000
0.000000 0.659091 0.000000
0.000000 0.619318 0.000000
0.000000 0.579545 0.000000
0.000000 0.539773 0.000000
0.000000 0.461538 0.000000
0.000000 0.423077 0.000000
0.000000 0.384615 0.000000
0.000000 0.346154 0.000000
0.000000 0.307692 0.000000
0.000000 0.269231 0.000000
0.000000 0.230769 0.000000
0.000000 0.192308 0.000000
0.000000 0.153846 0.000000
0.000000 0.115385 0.000000
0.000000 0.076923 0.000000
0.000000 0.038462 0.000000
0.027778 0.527778 0.000000
0.055556 0.555556 0.000000
0.083333 0.583333 0.000000
0.111111 0.611111 0.000000
0.138889 0.638889 0.000000
0.166667 0.666667 0.000000
0.194444 0.694444 0.000000
0.222222 0.722222 0.000000
0.250000 0.750000 0.000000
0.277778 0.777778 0.000000
0.305556 0.805556 0.000000
0.333333 0.833333 0.000000
0.361111 0.861111 0.000000
0.388889 0.888889 0.000000
0.416667 0.916667 0.000000
0.444444 0.944444 0.000000
0.472222 0.972222 0.000000
0.500000 1.000000 0.000000
0.527778 1.027778 0.000000
0.555556 1.055556 0.000000
0.583333 1.083333 0.000000
0.611111 1.111111 0.000000
0.638889 1.138889 0.000000
0.666667 1.166667 0.000000
0.694444 1.194444 0.000000
0.722222 1.222222 0.000000
0.750000 1.250000 0.000000
0.777778 1.277778 0.000000
0.805556 1.305556 0.000000
0.833333 1.333333 0.000000
0.861111 1.361111 0.000000
0.888889 1.388889 0.000000
0.916667 1.416667 0.000000
0.944444 1.444444 0.000000
0.972222 1.472222 0.000000
1.000000 1.500000 0.000000
1.027778 1.527778 0.000000
1.055556 1.555556 0.000000
1.083333 1.583333 0.000000
1.111111 1.611111 0.000000
1.138889 1.638889 0.000000
1.166667 1.666667 0.000000
1.194444 1.694444 0.000000
1.222222 1.722222 0.000000
1.250000 1.750000 0.000000
1.277778 1.777778 0.000000
1.305556 1.805556 0.000000
1.333333 1.833333 0.000000
1.361111 1.861111 0.000000
1.388889 1.888889 0.000000
1.416667 1.916667 0.000000
1.444444 1.944444 0.000000
1.472222 1.972222 0.000000
1.527778 2.027778 0.000000
1.555556 2.055556 0.000000
1.583333 2.083333 0.000000
1.611111 2.111111 0.000000
1.638889 2.138889 0.000000
1.666667 2.166667 0.000000
1.694444 2.194444 0.000000
1.722222 2.222222 0.000000
1.750000 2.250000 0.000000
1.777778 2.277778 0.000000
1.805556 2.305556 0.000000
[...]
POINT_DATA 6577
SCALARS UX float 1
LOOKUP_TABLE default
-0.000102
0.000145
0.750685
0.009923
-0.360426
0.545679
1.039735
0.000024
-0.000006
-0.000002
0.000002
-0.000004
-0.000013
0.000002
0.000002
0.000004
-0.000000
0.000000
0.000003
0.000001
0.000002
-0.000001
0.000001
-0.000002
-0.000001
0.000000
-0.000001
-0.000001
0.000000
0.000000
0.000001
0.000000
-0.000000
0.000000
0.000000
0.000000
-0.000000
-0.000000
0.000001
-0.000002
-0.000000
0.000000
-0.000000
0.000001
0.000001
-0.000001
-0.000001
-0.000001
-0.000000
-0.000001
0.000003
-0.000003
0.000002
-0.000001
-0.000001
-0.000019
0.026232
0.029948
0.039353
0.046767
0.053990
0.061495
0.069748
0.079807
0.090986
0.103099
0.115979
0.129584
0.139062
0.145850
0.151965
0.158909
0.166999
0.175717
0.185470
0.197166
0.210230
0.226566
0.244362
0.262341
0.285392
0.310282
0.335521
0.363746
0.395240
0.430313
0.471740
0.514563
0.553973
0.593866
0.631245
0.673105
0.713027
0.751889
0.786219
0.816972
0.845304
0.872088
0.897828
0.921514
0.943671
0.964682
0.985758
1.007365
1.028497
1.048281
1.067152
1.084530
1.099082
1.110087
1.116350
1.117585
1.114902
1.110317
1.100353
1.088817
1.076533
1.062837
1.005396
0.985817
0.962976
0.944175
0.935440
0.914671
0.903657
0.917168
0.922695
0.918681
0.926957
0.930991
0.931628
0.931849
0.950919
0.959428
0.978029
0.993345
0.990649
0.993465
0.950482
0.919446
0.884514
0.842783
0.804976
0.801199
0.773958
0.782336
0.772293
0.760225
0.747839
0.746176
0.747882
0.746707
0.745712
0.744865
0.748041
0.732606
0.716688
0.702062
0.687398
0.671685
0.655033
0.638297
0.621284
0.604244
0.587410
0.569931
0.552721
0.535516
0.518580
0.502266
0.485993
0.470054
0.454298
0.438701
0.423104
0.407378
0.391443
0.375262
0.360059
0.345376
0.330330
0.315430
0.300520
0.285666
0.270803
0.256039
0.241512
0.227208
0.213897
0.200372
0.187015
0.174027
0.161288
0.148436
0.135408
0.122596
0.109638
0.096591
0.083523
0.070906
0.058242
0.045776
0.033690
0.021800
0.009499
0.009110
0.008767
0.009110
0.010221
0.010394
0.009016
0.007455
0.003175
-0.000726
-0.003586
-0.005017
-0.005031
-0.005168
0.001346
0.006837
0.012874
0.018213
0.022450
0.031166
0.038088
0.045620
0.055219
0.064081
0.069499
0.077955
0.081865
0.086277
0.084217
0.086933
0.085538
0.082859
0.075919
0.064643
0.055343
0.039926
0.028000
0.013957
-0.003699
-0.019600
-0.031436
-0.042634
-0.050708
-0.058111
-0.065055
-0.080557
-0.098282
-0.119744
-0.143366
-0.168862
-0.196275
-0.222825
-0.243679
-0.256334
-0.268878
-0.279432
-0.288272
-0.296971
-0.304350
-0.308819
-0.316754
-0.323350
-0.329851
-0.336385
-0.343453
-0.350123
-0.356903
-0.362933
-0.368679
-0.373603
-0.377503
-0.379896
-0.381139
-0.380915
-0.379189
-0.376337
-0.372411
-0.367034
-0.360276
-0.352424
-0.344029
-0.336572
-0.332996
-0.338171
-0.353177
-0.381728
-0.412189
-0.230097
-0.226495
-0.223267
-0.216192
-0.206945
-0.194934
-0.181036
-0.167080
-0.151165
-0.133601
-0.105474
-0.050350
-0.363316
-0.380651
-0.354184
-0.327369
-0.283588
-0.259464
-0.266908
-0.265610
-0.257242
-0.267106
-0.270428
-0.291727
-0.289249
-0.286198
-0.285013
-0.290062
-0.287580
-0.287206
-0.284212
-0.248000
-0.273587
-0.291114
-0.319189
-0.472755
-0.223517
-0.315713
-0.293237
-0.219307
-0.258003
-0.252964
-0.213449
-0.060492
-0.162051
0.683560
0.105328
0.086728
0.184183
-0.094985
0.104396
0.194234
0.250551
0.321139
0.403320
0.443768
0.489453
0.587504
0.483517
0.491639
0.674133
0.759863
0.788118
0.830013
0.926603
0.850275
0.821652
0.861552
0.888092
0.903464
0.919295
0.935672
0.945544
0.969873
0.986123
1.000583
1.010049
1.016571
1.019340
1.022008
1.021252
1.036970
0.969114
0.942044
0.016619
0.016890
0.731925
0.733169
1.003530
1.001048
0.992686
0.896068
0.884228
0.576864
0.562879
0.560409
0.492942
0.473582
0.516859
0.549813
0.079715
0.092604
0.100283
0.546518
0.555713
0.562102
0.074401
0.070502
0.082632
0.065367
0.049514
0.054225
0.545461
0.652600
0.669123
0.663773
0.550601
0.536864
0.552599
0.077954
0.088632
0.095436
0.066104
0.505668
0.507015
0.493703
0.538447
0.524474
0.523313
0.532083
0.535808
0.524949
0.531632
0.188179
0.176367
0.183450
0.176781
0.203154
0.190895
0.202857
0.190170
0.519141
0.530447
0.522578
0.532404
0.218052
0.169027
0.204907
0.982131
0.994286
0.170117
-0.052114
-0.071931
-0.035100
-0.083157
0.200597
0.203487
0.219227
0.425611
0.416411
0.417887
0.425669
0.653823
0.646608
0.656267
0.643269
0.271340
0.261406
0.262118
0.268362
0.466182
0.475397
0.469010
-0.031657
-0.002596
0.008529
0.952344
0.975156
0.939624
0.963122
0.890793
0.894999
0.871850
-0.107479
-0.121506
-0.143137
0.663137
0.656359
0.656881
0.645846
0.470948
0.064211
0.050469
0.060645
0.297291
0.310074
0.308719
0.293863
0.213963
0.201703
0.214749
0.204867
-0.063275
-0.028413
-0.045259
0.356763
0.351417
0.340784
0.645347
0.627113
0.633243
0.667863
0.707883
0.694926
0.985017
0.127245
0.162754
0.152232
0.172823
0.138719
0.170938
0.012093
0.042682
0.240742
0.240201
0.251638
0.160622
0.172759
0.171012
0.227992
0.364517
0.349767
0.368199
0.091830
0.099080
0.085284
-0.006682
0.170500
0.192996
0.159406
0.397928
0.405900
0.395324
-0.322782
-0.325641
-0.322303
0.825992
0.874457
0.846449
0.885688
0.567502
0.553866
0.554483
0.538641
0.918809
0.924268
0.420753
0.425797
0.414946
0.433174
0.069112
0.053408
0.065579
0.394445
0.404451
0.397026
0.234946
0.201778
0.215140
0.398072
0.045573
0.205148
0.220715
0.212431
0.156337
0.151579
0.132354
0.125563
0.212156
0.088206
0.099460
0.285841
0.292738
0.277840
0.077978
0.071287
0.460658
0.483140
0.446014
-0.329255
-0.336124
-0.336600
-0.155225
-0.152519
-0.118155
-0.321442
-0.327987
-0.330534
-0.116854
-0.326918
-0.332358
-0.333920
0.124505
0.071828
0.058614
0.126210
0.062199
0.046762
0.052004
0.035131
0.024494
0.026825
0.720859
0.720594
0.649198
0.654323
0.664391
0.643471
0.244427
0.245386
0.255646
-0.332647
-0.334985
-0.335771
0.259631
0.623312
0.628270
0.613883
-0.325347
-0.328750
0.054298
0.064044
0.069761
0.240986
0.217541
0.919421
0.922038
0.950258
0.953230
0.161819
0.149500
0.139304
0.133365
-0.365036
-0.362807
-0.366462
-0.359011
-0.346069
-0.351412
-0.346745
-0.341697
-0.332867
-0.372881
-0.373184
-0.376637
-0.333636
-0.335120
-0.341285
-0.345338
-0.338071
-0.308825
-0.313402
0.693571
0.708581
-0.316433
-0.318222
-0.320729
0.051892
0.101466
0.074611
0.079777
-0.325969
-0.350449
0.662488
0.666001
0.663571
0.664713
0.558214
0.569175
0.570679
0.245231
0.262261
0.238515
0.179399
0.244736
0.619947
0.632428
0.635602
0.280084
0.274727
0.286834
0.254742
-0.342914
-0.352199
-0.349627
0.144817
0.144251
0.155503
0.577124
-0.043781
-0.078983
-0.057826
-0.316385
-0.320870
-0.322016
-0.324714
-0.332323
0.592065
-0.300644
-0.284340
-0.333230
-0.333537
-0.333261
-0.325685
-0.329709
-0.348176
-0.348283
-0.341493
-0.353124
-0.006311
0.016762
-0.006124
0.710103
0.717764
-0.328583
-0.302709
-0.309919
-0.311499
-0.319285
0.110006
0.020131
-0.364660
-0.361136
-0.362636
-0.358777
-0.358479
0.734179
0.147376
0.180921
0.031413
0.035618
-0.323818
-0.329545
0.712502
0.719596
0.113729
0.123262
-0.310596
0.510210
0.511234
0.505717
0.507838
-0.329210
-0.322508
0.207470
0.196800
0.211879
-0.323328
-0.337232
-0.339894
-0.285635
-0.354026
0.201739
0.681256
0.340400
0.326842
0.330030
0.063017
-0.354677
-0.347725
-0.360099
0.038337
-0.350943
-0.343941
-0.344235
0.314081
0.315955
0.689761
0.701007
0.698206
-0.334859
-0.312151
0.442241
0.480751
0.048428
0.046017
0.054701
0.225024
0.234188
-0.336453
-0.339767
-0.345623
-0.318143
-0.351688
-0.295263
-0.303585
0.607883
0.608356
0.620157
-0.305798
-0.314683
-0.335843
-0.334966
-0.320222
-0.359810
0.236398
0.406846
0.415571
-0.328664
0.019464
-0.359202
-0.352695
-0.365910
0.039044
0.042567
0.587357
0.576838
0.601531
-0.303332
0.733515
0.709825
0.723439
0.704633
-0.332168
-0.343262
-0.349181
-0.325830
-0.287241
-0.295738
-0.329663
-0.334197
-0.315955
-0.297081
-0.307394
-0.364346
0.074280
0.061408
0.091402
0.669770
0.065440
0.047305
0.043519
0.072436
0.610335
0.682289
0.679016
0.691181
-0.362430
-0.355646
-0.370596
0.062812
0.060947
0.052996
-0.334777
-0.341936
-0.350173
-0.326346
-0.368273
0.596684
0.596208
-0.328660
-0.335633
0.586742
0.927963
0.936862
0.953186
0.024804
0.030416
0.044279
0.050622
0.717811
0.728801
0.587512
0.595781
0.587528
0.576224
0.116553
0.119020
0.129530
-0.313187
0.701453
0.694240
-0.364196
-0.357530
-0.374445
-0.333675
-0.343585
-0.351017
-0.328022
-0.322394
0.666730
0.656014
0.574362
0.072627
0.082736
0.477157
0.486642
0.473328
-0.369887
0.665243
0.679090
0.073942
0.062574
-0.358763
-0.374398
-0.297216
-0.327838
1.000724
0.979725
-0.311349
0.447215
0.745695
0.720974
0.746542
-0.336933
-0.345206
-0.352185
-0.330395
0.609519
0.621720
0.620513
0.037700
0.482281
0.713925
0.050701
0.058033
0.030956
0.713086
0.726658
0.450553
0.459131
0.460635
0.695673
0.684727
-0.370350
0.449245
0.453331
0.731451
0.821917
0.783617
0.120199
0.109147
0.119274
0.105911
0.599790
0.251020
0.903883
0.945450
0.611326
-0.279069
-0.288993
0.039088
-0.339238
-0.291965
-0.302356
-0.347126
-0.353083
-0.331419
0.654179
0.837142
0.565390
0.584902
0.573675
0.084544
0.577415
0.220245
0.248553
0.211821
0.653275
0.666763
0.642609
0.084537
0.072731
0.094103
-0.327203
-0.370691
-0.335635
0.638692
0.635315
0.649535
0.625786
0.635565
-0.358240
-0.309309
-0.343869
-0.319208
0.647022
0.121683
0.119831
0.132439
-0.348454
-0.353457
0.132244
0.133014
-0.287398
0.962809
0.786193
0.808523
0.852863
0.427094
0.420691
0.428562
0.424455
0.922070
0.647523
0.633104
0.046686
0.107493
0.434397
0.409807
0.440464
0.059262
0.063455
0.033301
0.705094
-0.269162
-0.279145
0.685167
0.677900
0.726924
0.470721
0.445809
0.556961
0.546516
0.530204
-0.279143
-0.292154
-0.302820
0.463878
-0.323436
0.639617
-0.298937
-0.311102
-0.281810
0.095779
0.584444
-0.318542
0.521151
0.531546
0.522488
0.640661
0.532258
0.627812
0.094447
0.510790
0.520335
0.106715
0.509615
0.367728
0.366008
0.357135
0.054334
0.879560
-0.299120
-0.045213
-0.028034
-0.002415
0.378737
0.473712
0.476154
0.463352
0.483097
0.496043
-0.260007
-0.272528
0.031964
0.041173
0.055111
0.465406
0.106510
0.097806
-0.276361
-0.288857
0.474196
0.486689
-0.320254
-0.328904
-0.297790
-0.308461
0.059122
0.044657
0.067798
0.686845
0.674622
0.697137
0.664018
-0.268251
0.895703
0.906350
0.887097
-0.248337
-0.259844
-0.257548
-0.270401
0.879843
0.454553
0.461191
0.455719
-0.285702
0.189191
0.173679
0.606176
-0.370272
-0.368414
-0.365443
-0.281444
-0.299009
0.159015
0.064649
0.404727
0.406016
0.425106
0.089718
0.075822
-0.264465
0.143926
0.539526
0.509464
0.550212
0.540508
0.547944
0.498805
0.252145
0.254813
0.244779
0.263364
0.644235
0.653176
0.916743
0.947030
0.474500
0.460549
0.454001
0.646774
0.631453
0.638255
0.441343
0.459944
0.493075
0.483756
0.491708
0.107071
0.098383
0.095086
-0.239265
-0.251440
0.502398
0.512480
0.503066
0.169659
0.176624
0.165208
-0.311347
-0.285724
-0.259702
-0.272255
-0.286238
-0.297943
0.090693
0.285723
0.311630
0.302863
-0.225943
-0.235050
-0.245899
0.038717
0.028751
0.018268
0.023617
0.012691
0.006954
0.031291
-0.234155
-0.248014
-0.016126
-0.048777
0.037227
0.032808
0.058983
-0.265035
0.013307
0.094566
0.078712
0.104883
-0.260317
0.910679
-0.281117
-0.246321
-0.217982
-0.232506
0.622168
0.619140
0.613566
0.022308
0.003546
-0.243323
-0.257130
-0.272003
0.049728
0.124680
0.116661
0.112184
0.127223
-0.273979
-0.289608
0.803866
0.746923
0.756222
0.707139
-0.201848
-0.212247
-0.222736
-0.212623
-0.223724
0.067924
0.073834
0.372145
0.384925
0.388801
0.376153
0.469905
0.488759
0.478746
0.599687
-0.240408
-0.232900
-0.258478
-0.229090
-0.195802
-0.212932
0.118724
0.485338
0.473261
0.483907
0.483349
-0.227983
-0.241389
-0.257453
-0.260236
-0.277928
0.083086
-0.177913
-0.185800
0.521157
0.535397
0.525073
0.532288
-0.198376
0.096329
0.109917
0.610336
0.621088
0.608069
0.467094
0.801011
0.788469
0.816849
0.825206
-0.026038
-0.029880
-0.186341
-0.208227
0.885819
0.911367
0.885421
0.146136
0.132606
0.144562
0.032275
0.039729
0.518271
0.514293
0.519585
0.182426
0.174856
0.185697
0.177166
-0.171498
-0.191459
-0.210387
0.509370
-0.210860
-0.225206
0.133149
0.136483
0.606488
0.484801
0.542743
0.538916
0.554430
-0.242007
0.624436
0.622415
-0.244991
-0.265289
-0.148835
-0.158145
0.558597
0.560303
0.545943
0.156725
0.155078
0.168054
0.596283
0.678229
0.681074
0.148859
0.576960
0.588398
-0.169767
0.569305
0.193519
-0.155795
-0.171640
0.341397
0.362129
0.346824
0.455711
0.462809
0.443645
0.449459
0.435144
0.460291
0.431816
0.432367
0.423421
0.425562
0.143779
0.181192
0.178101
0.165709
0.645519
0.634190
0.615013
0.127100
0.641355
0.634959
-0.142714
-0.167107
0.418290
0.419469
0.411484
0.412500
-0.189594
0.514977
0.517849
-0.194481
-0.222232
0.479709
0.561621
0.597802
0.581562
0.564917
0.565098
0.051726
0.159226
0.154802
-0.113948
-0.123932
0.530462
0.139600
0.148720
0.596843
0.581272
0.597043
-0.137619
0.545520
0.548992
-0.117338
-0.137712
0.088350
0.106660
0.121307
0.191525
0.164830
0.166292
0.062097
0.085698
0.044494
0.061790
0.095219
-0.108621
-0.138411
0.139201
0.149550
0.588745
-0.166296
0.277298
0.284029
0.269146
0.276063
0.582554
0.428368
0.423410
0.403827
0.162177
0.171954
0.160824
0.173909
0.566797
0.555551
0.568255
0.552771
-0.171435
-0.199992
0.198882
0.191207
0.533937
0.525562
0.403567
0.402217
0.078699
0.818856
0.721761
0.726367
0.675170
0.384540
0.378810
0.369772
0.609351
0.592999
0.605697
0.897111
0.860185
0.828107
0.184002
0.173058
0.175070
-0.073256
-0.081893
0.528223
0.545011
0.537299
0.591891
0.728932
0.728589
-0.097294
-0.072144
-0.094603
0.206953
0.278458
0.274766
0.297620
-0.069485
-0.105779
0.514992
0.503636
0.520085
0.469923
0.549192
0.556324
-0.139143
-0.144202
-0.173571
-0.028614
-0.034643
0.553621
0.431664
0.423721
0.432210
-0.049881
0.421941
0.650085
0.640665
0.639342
-0.024125
-0.046808
-0.029000
-0.069987
0.198503
0.208366
-0.107327
-0.112733
-0.140324
0.744073
0.773482
0.691489
0.716418
0.085684
0.072728
0.090670
0.014910
0.013068
0.231406
0.238359
0.233258
0.840586
0.732954
0.891198
0.893199
0.870889
0.849102
0.847535
0.631943
-0.002615
0.023918
0.001846
0.656769
0.662571
0.484689
0.494791
0.485030
0.492507
0.009586
-0.033418
-0.074985
0.219732
-0.076080
-0.107837
0.054067
0.057245
0.543320
0.542876
0.556833
0.695153
0.692477
0.671448
0.627488
0.631823
0.297250
0.321377
0.270749
0.262885
0.183377
0.185663
0.173772
0.046411
0.080107
0.051036
0.340547
0.195079
0.189072
0.179548
0.815710
0.836298
0.044613
-0.000903
0.643353
0.610631
0.607999
0.591840
-0.038955
-0.043871
0.588562
0.569349
0.161481
0.158418
0.574421
0.570274
0.468298
0.091945
0.098715
0.200094
0.229500
0.241799
0.235831
0.090807
0.118029
0.108392
0.094479
0.071853
0.030407
0.581921
0.119855
0.105241
0.134114
0.095570
0.107535
0.118460
0.138332
0.664411
0.424837
0.190580
-0.046241
0.334029
0.355008
0.330864
0.133885
0.157925
0.438330
0.450533
0.155859
0.173030
0.174539
0.095621
0.052835
0.440840
0.584999
0.565839
0.395418
0.394185
0.402792
0.557566
0.117718
0.461870
0.200639
0.187596
0.403872
0.461414
0.201229
0.184126
-0.149503
-0.090942
-0.109148
-0.078288
0.243397
0.238436
0.258441
0.402863
0.393700
0.136065
0.158884
-0.020947
0.173639
0.188939
0.124782
0.084323
0.262074
0.253666
0.103414
0.618147
0.636027
0.654009
0.632243
0.628905
0.704567
0.696126
0.170093
0.360202
0.340355
0.369544
0.329641
0.359422
0.179476
0.167956
0.191321
0.476367
0.475517
0.464639
0.938268
0.961546
0.930492
0.153352
0.487662
0.302358
0.305635
0.291208
0.292671
0.359337
0.343644
0.357056
0.206228
0.512706
0.057637
0.046784
0.063232
0.567111
0.546864
0.541349
0.338208
0.584260
0.565553
0.591565
0.558014
0.549927
0.278662
0.753022
0.739197
0.779778
0.485932
0.151280
0.168448
0.161417
0.158349
0.717006
0.429816
0.442759
0.442915
0.428380
0.515695
0.506875
0.513553
0.926660
0.505727
0.039769
0.041319
0.027043
0.021027
0.100684
0.119888
-0.108195
-0.102620
-0.081683
-0.128098
0.105091
0.236062
0.220723
0.237204
0.224598
0.234859
0.246589
0.240362
0.235161
0.245164
0.227203
0.248455
0.225042
0.352260
0.365586
0.355912
0.356957
0.389134
0.822768
0.847992
0.829843
0.841822
0.831030
0.810866
0.267659
0.254978
0.265312
0.251036
0.362845
0.114401
0.109873
0.095959
0.660839
0.645798
0.100290
0.148437
0.596137
0.595030
0.612721
0.604755
0.606951
0.373784
0.353987
0.660328
0.147023
0.167786
0.158343
0.175745
-0.136248
0.903765
0.908476
0.090116
0.634853
0.638866
0.623361
0.668957
0.669756
0.674019
0.653425
0.504342
0.510541
0.497464
0.503479
0.577990
0.434294
0.420186
0.423246
0.040089
0.061566
0.418811
0.413009
0.406470
0.403764
0.153365
0.127258
0.148215
0.144486
0.123017
0.491712
0.483172
0.332737
0.345141
0.351125
0.330770
0.160863
0.153040
0.136241
0.314257
0.308747
0.317107
0.302748
0.384844
0.394165
0.682518
0.681651
0.675520
0.473129
0.463683
0.459276
-0.373680
0.474454
0.646734
0.627618
0.237880
0.223344
0.228764
0.231427
-0.391389
0.496087
0.499568
0.465931
0.451879
0.447578
0.103213
0.101371
0.122190
0.110447
0.127043
0.544649
0.127907
0.184626
0.858459
0.867994
0.886322
0.858424
0.837010
0.411825
0.392926
0.336939
0.323571
0.334092
0.348918
0.377255
0.369954
0.233740
0.403910
0.481347
0.476323
0.490628
0.186496
0.487356
-0.010555
0.474869
0.487446
0.465813
0.512818
0.521899
0.525122
0.384259
0.380467
0.390581
0.372971
0.385226
0.375384
0.551359
0.570026
0.575974
0.433483
0.434617
0.442578
0.439660
0.413748
0.092968
0.118793
0.553233
0.543365
0.535991
0.551225
0.201204
0.210266
0.263949
0.253187
0.495484
0.216458
0.226051
0.212750
0.207765
0.198926
0.194489
0.227680
0.209122
0.223885
0.260454
0.247917
0.224309
0.318281
0.301728
0.293835
0.279528
0.290515
0.283495
0.291843
0.280026
0.669390
0.662991
0.209302
0.702299
0.654549
0.647236
0.634204
0.624984
0.613028
0.200331
0.202746
0.191290
0.144739
0.155256
0.142532
0.497209
0.497780
0.485349
0.295559
0.286198
0.439469
0.456871
0.305882
0.299349
0.307540
0.650144
0.625131
0.667706
0.578862
0.313238
0.299411
0.314198
0.298631
0.463251
0.471861
0.485061
0.451207
0.456860
0.448265
-0.006490
0.708593
0.731370
0.726600
0.757419
0.690772
0.695445
0.483666
0.486741
0.490341
0.478668
0.483602
0.284750
0.283981
0.299513
0.283988
0.267985
0.272210
0.681466
0.678028
0.274767
0.263283
0.263534
0.931385
0.896751
0.249761
0.432437
0.444955
0.399918
0.285207
0.592711
0.610809
0.739822
0.718085
0.670432
0.678016
0.699343
0.800646
0.701998
0.806266
0.842585
0.234612
0.240556
0.419957
0.426142
0.434510
0.408979
0.446357
0.442695
0.454085
0.182938
0.176913
0.176492
0.584725
0.588702
0.564542
0.410026
0.399075
-0.017493
-0.026500
0.417880
0.272750
0.275367
0.257989
0.279170
0.288495
0.296032
0.293440
0.129586
0.132430
0.118678
0.142723
0.126079
0.135418
0.089714
0.093664
0.074054
0.085237
0.314257
0.316635
0.421249
0.313482
0.329307
0.114928
0.103763
0.270933
0.288371
0.253524
0.272301
0.135287
0.122015
0.152880
0.167428
0.166215
0.254349
0.286815
0.700057
0.666377
0.697254
0.666224
0.299067
0.285942
0.436312
0.442306
0.455208
0.628629
0.631706
0.644954
0.644318
0.623128
0.608940
0.608061
0.093645
0.261495
0.277981
0.725031
0.694413
0.100445
0.097963
0.112979
0.327838
0.323759
0.338071
0.429410
0.482840
0.317231
0.350514
0.367999
0.240263
0.243382
0.250854
0.253028
0.855279
0.804249
0.771874
0.862652
0.312951
0.297465
0.329643
0.328473
0.473592
0.103725
0.468740
0.598170
0.623658
0.601793
0.622828
0.587106
0.643528
0.587269
0.316988
0.327210
0.430245
0.413826
0.441725
0.359637
0.352826
0.366323
0.364773
0.357494
0.909196
0.912539
0.923023
0.906575
0.379261
0.374810
0.528836
0.492788
0.475543
0.472176
0.459607
0.459269
0.604570
0.618356
0.520937
0.501364
0.472078
0.494228
0.462451
0.154378
0.159742
0.146036
0.161364
0.143583
0.477395
0.148464
0.321219
0.503131
0.513809
0.510361
0.508338
0.252470
0.259602
0.266089
0.527347
0.399665
0.394309
0.416361
0.413798
0.396517
0.375536
0.379545
0.553498
0.558160
0.577389
0.821819
0.794635
0.661473
-0.004992
-0.024072
0.530913
0.513431
0.529043
0.625241
0.312576
0.309461
0.321851
0.776091
0.409812
0.397736
0.392557
0.321882
0.343493
0.387315
0.611215
0.598577
0.596423
0.583108
0.576710
0.444061
0.450277
0.449840
0.461360
0.436589
0.565526
0.106940
0.526073
0.539282
0.549284
0.511174
0.523166
0.514501
0.359247
0.365559
0.347290
0.357760