# vtk DataFile Version 2.0
Test
ASCII
DATASET POLYDATA
POINTS 6577 float
0.000000 0.000000 0.000000
2.000000 0.000000 0.000000
2.000000 4.000000 0.000000
0.000000 4.000000 0.000000
0.000000 0.500000 0.000000
1.500000 2.000000 0.000000
2.000000 2.500000 0.000000
0.040000 0.000000 0.000000
0.080000 0.000000 0.000000
0.120000 0.000000 0.000000
0.160000 0.000000 0.000000
0.200000 0.000000 0.000000
0.240000 0.000000 0.000000
0.280000 0.000000 0.000000
0.320000 0.000000 0.000000
0.360000 0.000000 0.000000
0.400000 0.000000 0.000000
0.440000 0.000000 0.000000
0.480000 0.000000 0.000000
0.520000 0.000000 0.000000
0.560000 0.000000 0.000000
0.600000 0.000000 0.000000
0.640000 0.000000 0.000000
0.680000 0.000000 0.000000
0.720000 0.000000 0.000000
0.760000 0.000000 0.000000
0.800000 0.000000 0.000000
0.840000 0.000000 0.000000
0.880000 0.000000 0.000000
0.920000 0.000000 0.000000
0.960000 0.000000 0.000000
1.000000 0.000000 0.000000
1.040000 0.000000 0.000000
1.080000 0.000000 0.000000
1.120000 0.000000 0.000000
1.160000 0.000000 0.000000
1.200000 0.000000 0.000000
1.240000 0.000000 0.000000
1.280000 0.000000 0.000000
1.320000 0.000000 0.000000
1.360000 0.000000 0.000000
1.400000 0.000000 0.000000
1.440000 0.000000 0.000000
1.480000 0.000000 0.000000
1.520000 0.000000 0.000000
1.560000 0.000000 0.000000
1.600000 0.000000 0.000000
1.640000 0.000000 0.000000
1.680000 0.000000 0.000000
1.720000 0.000000 0.000000
1.760000 0.000000 0.000000
1.800000 0.000000 0.000000
1.840000 0.000000 0.000000
1.880000 0.000000 0.000000
1.920000 0.000000 0.000000
1.960000 0.000000 0.000000
2.000000 0.039683 0.000000
2.000000 0.079365 0.000000
2.000000 0.119048 0.000000
2.000000 0.158730 0.000000
2.000000 0.198413 0.000000
2.000000 0.238095 0.000000
2.000000 0.277778 0.000000
2.000000 0.317460 0.000000
2.000000 0.357143 0.000000
2.000000 0.396825 0.000000
2.000000 0.436508 0.000000
2.000000 0.476190 0.000000
2.000000 0.515873 0.000000
2.000000 0.555556 0.000000
2.000000 0.595238 0.000000
2.000000 0.634921 0.000000
2.000000 0.674603 0.000000
2.000000 0.714286 0.000000
2.000000 0.753968 0.000000
2.000000 0.793651 0.000000
2.000000 0.833333 0.000000
2.000000 0.873016 0.000000
2.000000 0.912698 0.000000
2.000000 0.952381 0.000000
2.000000 0.992063 0.000000
2.000000 1.031746 0.000000
2.000000 1.071429 0.000000
2.000000 1.111111 0.000000
2.000000 1.150794 0.000000
2.000000 1.190476 0.000000
2.000000 1.230159 0.000000
2.000000 1.269841 0.000000
2.000000 1.309524 0.000000
2.000000 1.349206 0.000000
2.000000 1.388889 0.000000
2.000000 1.428571 0.000000
2.000000 1.468254 0.000000
2.000000 1.507937 0.000000
2.000000 1.547619 0.000000
2.000000 1.587302 0.000000
2.000000 1.626984 0.000000
2.000000 1.666667 0.000000
2.000000 1.706349 0.000000
2.000000 1.746032 0.000000
2.000000 1.785714 0.000000
2.000000 1.825397 0.000000
2.000000 1.865079 0.000000
2.000000 1.904762 0.000000
2.000000 1.944444 0.000000
2.000000 1.984127 0.000000
2.000000 2.023810 0.000000
2.000000 2.063492 0.000000
2.000000 2.103175 0.000000
2.000000 2.142857 0.000000
2.000000 2.182540 0.000000
2.000000 2.222222 0.000000
2.000000 2.261905 0.000000
2.000000 2.301587 0.000000
2.000000 2.341270 0.000000
2.000000 2.380952 0.000000
2.000000 2.420635 0.000000
2.000000 2.460317 0.000000
2.000000 2.539474 0.000000
2.000000 2.578947 0.000000
2.000000 2.618421 0.000000
2.000000 2.657895 0.000000
2.000000 2.697368 0.000000
2.000000 2.736842 0.000000
2.000000 2.776316 0.000000
2.000000 2.815789 0.000000
2.000000 2.855263 0.000000
2.000000 2.894737 0.000000
2.000000 2.934211 0.000000
2.000000 2.973684 0.000000
2.000000 3.013158 0.000000
2.000000 3.052632 0.000000
2.000000 3.092105 0.000000
2.000000 3.131579 0.000000
2.000000 3.171053 0.000000
2.000000 3.210526 0.000000
2.000000 3.250000 0.000000
2.000000 3.289474 0.000000
2.000000 3.328947 0.000000
2.000000 3.368421 0.000000
2.000000 3.407895 0.000000
2.000000 3.447368 0.000000
2.000000 3.486842 0.000000
2.000000 3.526316 0.000000
2.000000 3.565789 0.000000
2.000000 3.605263 0.000000
2.000000 3.644737 0.000000
2.000000 3.684211 0.000000
2.000000 3.723684 0.000000
2.000000 3.763158 0.000000
2.000000 3.802632 0.000000
2.000000 3.842105 0.000000
2.000000 3.881579 0.000000
2.000000 3.921053 0.000000
2.000000 3.960526 0.000000
1.960000 4.000000 0.000000
1.920000 4.000000 0.000000
1.880000 4.000000 0.000000
1.840000 4.000000 0.000000
1.800000 4.000000 0.000000
1.760000 4.000000 0.000000
1.720000 4.000000 0.000000
1.680000 4.000000 0.000000
1.640000 4.000000 0.000000
1.600000 4.000000 0.000000
1.560000 4.000000 0.000000
1.520000 4.000000 0.000000
1.480000 4.000000 0.000000
1.440000 4.000000 0.000000
1.400000 4.000000 0.000000
1.360000 4.000000 0.000000
1.320000 4.000000 0.000000
1.280000 4.000000 0.000000
1.240000 4.000000 0.000000
1.200000 4.000000 0.000000
1.160000 4.000000 0.000000
1.120000 4.000000 0.000000
1.080000 4.000000 0.000000
1.040000 4.000000 0.000000
1.000000 4.000000 0.000000
0.960000 4.000000 0.000000
0.920000 4.000000 0.000000
0.880000 4.000000 0.000000
0.840000 4.000000 0.000000
0.800000 4.000000 0.000000
0.760000 4.000000 0.000000
0.720000 4.000000 0.000000
0.680000 4.000000 0.000000
0.640000 4.000000 0.000000
0.600000 4.000000 0.000000
0.560000 4.000000 0.000000
0.520000 4.000000 0.000000
0.480000 4.000000 0.000000
0.440000 4.000000 0.000000
0.400000 4.000000 0.000000
0.360000 4.000000 0.000000
0.320000 4.000000 0.000000
0.280000 4.000000 0.000000
0.240000 4.000000 0.000000
0.200000 4.000000 0.000000
0.160000 4.000000 0.000000
0.120000 4.000000 0.000000
0.080000 4.000000 0.000000
0.040000 4.000000 0.000000
0.000000 3.960227 0.000000
0.000000 3.920455 0.000000
0.000000 3.880682 0.000000
0.000000 3.840909 0.000000
0.000000 3.801136 0.000000
0.000000 3.761364 0.000000
0.000000 3.721591 0.000000
0.000000 3.681818 0.000000
0.000000 3.642045 0.000000
0.000000 3.602273 0.000000
0.000000 3.562500 0.000000
0.000000 3.522727 0.000000
0.000000 3.482955 0.000000
0.000000 3.443182 0.000000
0.000000 3.403409 0.000000
0.000000 3.363636 0.000000
0.000000 3.323864 0.000000
0.000000 3.284091 0.000000
0.000000 3.244318 0.000000
0.000000 3.204545 0.000000
0.000000 3.164773 0.000000
0.000000 3.125000 0.000000
0.000000 3.085227 0.000000
0.000000 3.045455 0.000000
0.000000 3.005682 0.000000
0.000000 2.965909 0.000000
0.000000 2.926136 0.000000
0.000000 2.886364 0.000000
0.000000 2.846591 0.000000
0.000000 2.806818 0.000000
0.000000 2.767045 0.000000
0.000000 2.727273 0.000000
0.000000 2.687500 0.000000
0.000000 2.647727 0.000000
0.000000 2.607955 0.000000
0.000000 2.568182 0.000000
0.000000 2.528409 0.000000
0.000000 2.488636 0.000000
0.000000 2.448864 0.000000
0.000000 2.409091 0.000000
0.000000 2.369318 0.000000
0.000000 2.329545 0.000000
0.000000 2.289773 0.000000
0.000000 2.250000 0.000000
0.000000 2.210227 0.000000
0.000000 2.170455 0.000000
0.000000 2.130682 0.000000
0.000000 2.090909 0.000000
0.000000 2.051136 0.000000
0.000000 2.011364 0.000000
0.000000 1.971591 0.000000
0.000000 1.931818 0.000000
0.000000 1.892045 0.000000
0.000000 1.852273 0.000000
0.000000 1.812500 0.000000
0.000000 1.772727 0.000000
0.000000 1.732955 0.000000
0.000000 1.693182 0.000000
0.000000 1.653409 0.000000
0.000000 1.613636 0.000000
0.000000 1.573864 0.000000
0.000000 1.534091 0.000000
0.000000 1.494318 0.000000
0.000000 1.454545 0.000000
0.000000 1.414773 0.000000
0.000000 1.375000 0.000000
0.000000 1.335227 0.000000
0.000000 1.295455 0.000000
0.000000 1.255682 0.000000
0.000000 1.215909 0.000000
0.000000 1.176136 0.000000
0.000000 1.136364 0.000000
0.000000 1.096591 0.000000
0.000000 1.056818 0.000000
0.000000 1.017045 0.000000
0.000000 0.977273 0.000000
0.000000 0.937500 0.000000
0.000000 0.897727 0.000000
0.000000 0.857955 0.000000
0.000000 0.818182 0.000000
0.000000 0.778409 0.000000
0.000000 0.738636 0.000000
0.000000 0.698864 0.000000
0.000000 0.659091 0.000000
0.000000 0.619318 0.000000
0.000000 0.579545 0.000000
0.000000 0.539773 0.000000
0.000000 0.461538 0.000000
0.000000 0.423077 0.000000
0.000000 0.384615 0.000000
0.000000 0.346154 0.000000
0.000000 0.307692 0.000000
0.000000 0.269231 0.000000
0.000000 0.230769 0.000000
0.000000 0.192308 0.000000
0.000000 0.153846 0.000000
0.000000 0.115385 0.000000
0.000000 0.076923 0.000000
0.000000 0.038462 0.000000
0.027778 0.527778 0.000000
0.055556 0.555556 0.000000
0.083333 0.583333 0.000000
0.111111 0.611111 0.000000
0.138889 0.638889 0.000000
0.166667 0.666667 0.000000
0.194444 0.694444 0.000000
0.222222 0.722222 0.000000
0.250000 0.750000 0.000000
0.277778 0.777778 0.000000
0.305556 0.805556 0.000000
0.333333 0.833333 0.000000
0.361111 0.861111 0.000000
0.388889 0.888889 0.000000
0.416667 0.916667 0.000000
0.444444 0.944444 0.000000
0.472222 0.972222 0.000000
0.500000 1.000000 0.000000
0.527778 1.027778 0.000000
0.555556 1.055556 0.000000
0.583333 1.083333 0.000000
0.611111 1.111111 0.000000
0.638889 1.138889 0.000000
0.666667 1.166667 0.000000
0.694444 1.194444 0.000000
0.722222 1.222222 0.000000
0.750000 1.250000 0.000000
0.777778 1.277778 0.000000
0.805556 1.305556 0.000000
0.833333 1.333333 0.000000
0.861111 1.361111 0.000000
0.888889 1.388889 0.000000
0.916667 1.416667 0.000000
0.944444 1.444444 0.000000
0.972222 1.472222 0.000000
1.000000 1.500000 0.000000
1.027778 1.527778 0.000000
1.055556 1.555556 0.000000
1.083333 1.583333 0.000000
1.111111 1.611111 0.000000
1.138889 1.638889 0.000000
1.166667 1.666667 0.000000
1.194444 1.694444 0.000000
1.222222 1.722222 0.000000
1.250000 1.750000 0.000000
1.277778 1.777778 0.000000
1.305556 1.805556 0.000000
1.333333 1.833333 0.000000
1.361111 1.861111 0.000000
1.388889 1.888889 0.000000
1.416667 1.916667 0.000000
1.444444 1.944444 0.000000
1.472222 1.972222 0.000000
1.527778 2.027778 0.000000
1.555556 2.055556 0.000000
1.583333 2.083333 0.000000
1.611111 2.111111 0.000000
1.638889 2.138889 0.000000
1.666667 2.166667 0.000000
1.694444 2.194444 0.000000
1.722222 2.222222 0.000000
1.750000 2.250000 0.000000
1.777778 2.277778 0.000000
1.805556 2.305556 0.000000
[...]
POINT_DATA 6577
SCALARS UX float 1
LOOKUP_TABLE default
-0.000097
0.000143
-0.151278
-0.884884
-0.585301
0.247763
0.512540
0.000023
-0.000006
-0.000001
0.000002
-0.000003
-0.000012
0.000002
0.000002
0.000004
0.000001
0.000000
0.000001
0.000001
0.000002
-0.000001
0.000001
-0.000002
-0.000001
0.000000
-0.000001
-0.000001
0.000000
0.000000
0.000001
0.000000
-0.000000
0.000000
0.000000
0.000000
-0.000000
-0.000000
0.000001
-0.000001
-0.000000
0.000000
-0.000000
0.000001
0.000000
0.000001
-0.000001
-0.000000
-0.000000
-0.000001
0.000002
-0.000002
0.000002
-0.000000
-0.000001
-0.000019
0.027059
0.053539
0.072327
0.088606
0.103466
0.117838
0.131198
0.144795
0.158533
0.172141
0.186218
0.200955
0.213178
0.223356
0.232751
0.242038
0.251486
0.260572
0.269543
0.278604
0.287366
0.297117
0.306587
0.315052
0.325035
0.335225
0.344802
0.354898
0.365678
0.375969
0.386532
0.396678
0.406752
0.417723
0.426391
0.435765
0.443768
0.450959
0.455546
0.457549
0.457148
0.454927
0.451252
0.447350
0.443211
0.438988
0.436055
0.434287
0.432875
0.430105
0.427411
0.425133
0.418512
0.414596
0.415255
0.419021
0.430738
0.438808
0.444900
0.463840
0.495933
0.519525
0.437534
0.389505
0.337813
0.304198
0.282151
0.263936
0.248722
0.238480
0.227502
0.215899
0.205742
0.196238
0.188270
0.181894
0.178239
0.174301
0.174205
0.175446
0.174908
0.172430
0.158237
0.134173
0.100987
0.058530
0.029892
-0.007561
-0.059643
-0.107082
-0.129771
-0.143821
-0.149595
-0.147421
-0.145733
-0.146868
-0.148863
-0.151783
-0.151765
-0.170646
-0.189565
-0.208140
-0.226544
-0.244518
-0.262535
-0.279705
-0.296378
-0.313429
-0.331267
-0.351491
-0.372704
-0.394930
-0.416594
-0.437067
-0.457100
-0.476318
-0.494741
-0.512403
-0.529484
-0.545865
-0.561594
-0.577541
-0.592032
-0.604786
-0.617510
-0.630266
-0.642017
-0.653464
-0.664908
-0.676385
-0.687675
-0.698178
-0.708539
-0.719505
-0.730456
-0.741201
-0.751835
-0.762632
-0.773552
-0.784222
-0.795080
-0.806040
-0.816931
-0.827961
-0.839318
-0.850781
-0.862088
-0.873421
-0.885149
-0.886196
-0.887327
-0.887795
-0.887901
-0.889074
-0.891499
-0.893792
-0.898027
-0.901682
-0.904737
-0.907219
-0.909095
-0.911624
-0.909233
-0.907709
-0.905199
-0.902313
-0.899025
-0.891705
-0.885058
-0.877127
-0.867378
-0.857770
-0.849030
-0.838122
-0.829892
-0.820870
-0.814729
-0.804767
-0.797290
-0.789870
-0.784930
-0.780947
-0.775496
-0.771572
-0.763363
-0.754317
-0.744754
-0.730650
-0.711761
-0.689362
-0.662860
-0.633432
-0.603020
-0.579072
-0.558452
-0.541448
-0.527492
-0.514874
-0.503868
-0.493776
-0.482568
-0.467969
-0.454423
-0.440926
-0.427362
-0.414088
-0.400494
-0.385577
-0.372504
-0.358929
-0.345622
-0.332821
-0.321076
-0.309804
-0.300260
-0.291257
-0.283817
-0.277887
-0.273245
-0.269666
-0.267890
-0.267816
-0.269199
-0.273411
-0.279801
-0.286694
-0.293336
-0.298068
-0.298037
-0.293184
-0.290513
-0.310391
-0.371192
-0.456417
-0.503825
-0.234181
-0.211701
-0.196181
-0.181454
-0.169323
-0.157644
-0.145128
-0.132632
-0.118281
-0.102426
-0.085622
-0.048063
-0.474202
-0.505832
-0.400363
-0.296782
-0.167725
-0.152515
-0.217832
-0.199099
-0.105950
-0.272352
-0.253925
-0.246973
-0.232057
-0.221135
-0.195352
-0.211776
-0.225093
-0.222939
-0.227669
-0.459854
-0.364796
-0.278109
-0.239095
0.037724
-0.181809
-0.135248
-0.149945
-0.118465
-0.111504
-0.103061
-0.105735
-0.092258
-0.074900
-0.061518
-0.056226
-0.041003
-0.038988
-0.026229
-0.006747
0.001672
0.020801
0.040435
0.063252
0.072772
0.094691
0.110288
0.129381
0.153507
0.182150
0.194747
0.209810
0.229873
0.236409
0.247292
0.229575
0.220117
0.212670
0.216857
0.228389
0.232500
0.242683
0.251412
0.267817
0.269226
0.282723
0.331537
0.342542
0.384333
0.448214
0.501342
0.345188
0.312842
-0.879593
-0.878597
-0.167779
-0.163694
0.422810
0.418529
0.347241
0.252260
0.234819
-0.229873
-0.271210
-0.256315
-0.070769
-0.064521
-0.047422
-0.282013
-0.395053
-0.378836
-0.390654
-0.370035
-0.356556
-0.352690
-0.827139
-0.831976
-0.821189
-0.841160
-0.855411
-0.852708
-0.366143
-0.244139
-0.225251
-0.233632
-0.369792
-0.384993
-0.365305
-0.854439
-0.847034
-0.841097
-0.387001
-0.428373
-0.429351
-0.446845
-0.135941
-0.150948
-0.150140
-0.376923
-0.375458
-0.391988
-0.388219
-0.728166
-0.738859
-0.733756
-0.737363
-0.718654
-0.731072
-0.721024
-0.734291
-0.387237
-0.368719
-0.385491
-0.144975
-0.182124
-0.187124
-0.175932
0.200275
0.235813
-0.176589
-0.426409
-0.416150
-0.408732
-0.438518
-0.735541
-0.735893
-0.717563
-0.306916
-0.333915
-0.317616
-0.318920
0.070733
0.077919
0.087937
0.089702
-0.648002
-0.666050
-0.658178
-0.659160
-0.407238
-0.395933
-0.412818
-0.342073
-0.325629
-0.333420
0.217501
0.266275
0.254133
0.289159
0.244875
0.255245
0.227417
-0.363178
-0.374418
-0.368412
0.003865
-0.015176
-0.003676
-0.029135
-0.393124
-0.844825
-0.857610
-0.849681
-0.641017
-0.628986
-0.632392
-0.642379
-0.726704
-0.736916
-0.721091
-0.727880
-0.355790
-0.354453
-0.364831
-0.594221
-0.599650
-0.608639
-0.149374
-0.206954
-0.160980
0.126881
0.183659
0.159669
0.230831
-0.216307
-0.209381
-0.219708
-0.223105
-0.231289
-0.235382
-0.345088
-0.328675
-0.706334
-0.705340
-0.691777
-0.785207
-0.772395
-0.776729
-0.720798
-0.584501
-0.596745
-0.579091
-0.828456
-0.819794
-0.832325
-0.356936
-0.280333
-0.279599
-0.290199
-0.499577
-0.488971
-0.504564
-0.281105
-0.286220
-0.270290
0.098143
0.134947
0.099270
0.125673
-0.114452
-0.127845
-0.131289
-0.147423
0.276357
0.279198
-0.479368
-0.478787
-0.492676
-0.465027
-0.858469
-0.870963
-0.862896
-0.296523
-0.284774
-0.299932
-0.247534
-0.258747
-0.241708
-0.284073
-0.878545
-0.713473
-0.701394
-0.708487
-0.376388
-0.393001
-0.394173
-0.414943
-0.707462
-0.768727
-0.771804
-0.653189
-0.648109
-0.659307
-0.836939
-0.844270
-0.144105
-0.140459
-0.162299
-0.265908
-0.265133
-0.259078
-0.495498
-0.476579
-0.485156
-0.260398
-0.260578
-0.253426
-0.466961
-0.247482
-0.247076
-0.240610
-0.162617
-0.185259
-0.157761
-0.171799
-0.853036
-0.864836
-0.862423
-0.875340
-0.871350
-0.868346
-0.180165
-0.183457
-0.028667
-0.015330
0.000453
-0.035970
-0.683859
-0.682713
-0.675809
-0.233786
-0.234398
-0.228479
-0.671987
-0.062759
-0.059328
-0.073367
-0.282747
-0.290661
-0.871856
-0.862362
-0.859268
-0.169890
-0.165423
0.149712
0.158442
0.186461
0.161392
-0.657091
-0.675508
-0.663953
-0.686485
-0.244852
-0.238660
-0.243477
-0.237528
-0.239892
-0.235993
-0.233712
-0.267855
-0.273440
-0.263772
-0.269777
-0.266236
-0.292352
-0.293438
-0.294071
-0.296294
-0.294329
-0.267990
-0.262705
-0.218627
-0.199572
-0.266903
-0.272549
-0.268020
-0.844587
-0.440984
-0.453920
-0.432202
-0.271708
-0.231259
0.073768
0.055028
0.058995
0.070103
-0.347865
-0.334106
-0.340451
-0.213112
-0.220558
-0.231703
-0.165631
-0.152011
-0.278810
-0.265353
-0.264257
-0.205842
-0.164176
-0.170354
-0.176747
-0.284987
-0.284921
-0.276955
-0.766388
-0.768500
-0.757843
-0.256434
-0.454629
-0.458977
-0.443274
-0.255220
-0.249226
-0.255155
-0.280464
-0.290497
-0.202840
-0.261028
-0.288014
-0.226785
-0.227983
-0.222944
-0.240119
-0.234119
-0.287592
-0.292269
-0.288736
-0.293470
-0.404900
-0.410024
-0.422296
-0.196878
-0.187686
-0.241239
-0.268825
-0.261295
-0.255366
-0.247339
-0.402097
-0.876876
-0.240855
-0.236458
-0.241333
-0.236142
-0.240449
-0.161114
-0.366630
-0.356339
-0.865128
-0.860061
-0.238825
-0.231773
-0.191603
-0.180095
-0.197354
-0.188261
-0.273804
-0.124884
-0.110900
-0.106505
-0.090006
-0.280678
-0.279317
-0.718895
-0.730426
-0.717043
-0.276315
-0.271811
-0.279103
-0.284393
-0.287069
-0.728543
-0.233486
-0.332647
-0.351320
-0.329883
-0.834922
-0.277692
-0.278681
-0.286634
-0.856942
-0.296433
-0.292720
-0.302361
-0.349233
-0.330521
-0.220128
-0.206916
-0.211905
-0.297168
-0.211263
-0.137798
-0.118664
-0.847553
-0.849956
-0.841890
-0.697233
-0.690694
-0.268078
-0.261399
-0.269175
-0.263288
-0.383402
-0.275981
-0.274531
-0.284381
-0.292197
-0.272782
-0.280650
-0.279793
-0.293526
-0.286725
-0.287233
-0.278220
-0.688189
-0.187130
-0.178140
-0.286959
-0.878919
-0.268088
-0.268419
-0.278685
-0.858193
-0.853933
-0.022635
-0.013386
0.000252
-0.262382
-0.159667
-0.188052
-0.172268
-0.199142
-0.258280
-0.252272
-0.259025
-0.255230
-0.276647
-0.269346
-0.229543
-0.224361
-0.247440
-0.263461
-0.255500
-0.269384
-0.496348
-0.476523
-0.470292
-0.246008
-0.522949
-0.506846
-0.533665
-0.826713
-0.013057
-0.230978
-0.231632
-0.216330
-0.259265
-0.258456
-0.271123
-0.834494
-0.836088
-0.843723
-0.251113
-0.244203
-0.249578
-0.247043
-0.261961
-0.296242
-0.306449
-0.225639
-0.223024
0.004445
0.188136
0.204350
0.185017
-0.874810
-0.867575
-0.854057
-0.846716
-0.175491
-0.162548
-0.288358
-0.283759
-0.296080
-0.302094
-0.789044
-0.787800
-0.778260
-0.247106
-0.193822
-0.206972
-0.252523
-0.249824
-0.263667
-0.241525
-0.237661
-0.242462
-0.238690
-0.236847
-0.247465
-0.260165
-0.311624
-0.825597
-0.817204
-0.454257
-0.445740
-0.463627
-0.254684
-0.245081
-0.226335
-0.824680
-0.835293
-0.243640
-0.257725
-0.281965
-0.294280
0.310497
0.250884
-0.287643
-0.503094
0.021115
-0.004659
0.013680
-0.234340
-0.231772
-0.236456
-0.233368
-0.296385
-0.281896
-0.286085
-0.862277
-0.454761
-0.003810
-0.849353
-0.840720
-0.870397
-0.179125
-0.167244
-0.251880
-0.236710
-0.239417
-0.198346
-0.214177
-0.250184
-0.248559
-0.253067
0.124525
0.155269
0.128886
-0.792516
-0.802742
-0.795809
-0.807897
-0.286069
-0.680056
0.261746
0.292954
-0.275946
-0.283530
-0.282407
-0.885733
-0.228167
-0.288945
-0.287858
-0.227141
-0.231565
-0.227661
-0.259726
0.170128
-0.111796
-0.096336
-0.104916
-0.815662
-0.102145
-0.321316
-0.313519
-0.334511
-0.255599
-0.236115
-0.273038
-0.815914
-0.827105
-0.807514
-0.302628
-0.248833
-0.302040
-0.007945
0.010800
0.016555
-0.010090
-0.266039
-0.233491
-0.296054
-0.224147
-0.294968
-0.250059
-0.787031
-0.790572
-0.779315
-0.224990
-0.228618
-0.784265
-0.780872
-0.270518
0.150138
0.071796
0.078438
0.097733
-0.447085
-0.457977
-0.441328
-0.448319
0.201047
-0.250183
-0.261401
-0.855502
-0.799847
-0.099409
-0.101302
-0.085744
-0.842888
-0.837193
-0.870259
-0.188221
-0.283846
-0.276901
-0.208229
-0.218165
-0.172895
-0.089651
-0.104158
-0.109752
-0.120118
-0.128811
-0.271936
-0.264330
-0.256588
-0.082318
-0.228936
-0.272643
-0.257736
-0.247018
-0.290282
-0.806149
-0.309402
-0.303429
-0.363158
-0.351729
-0.369842
-0.265344
-0.358597
-0.286569
-0.807924
-0.372295
-0.351906
-0.796909
-0.360977
-0.550004
-0.555958
-0.562880
-0.459903
0.230353
-0.295914
-0.225175
-0.221015
-0.221778
-0.538814
-0.192582
-0.193479
-0.205042
-0.458375
-0.439960
-0.290492
-0.289813
-0.876380
-0.868164
-0.857193
-0.206521
-0.756405
-0.750820
-0.296740
-0.295674
-0.468186
-0.451773
-0.311410
-0.311592
-0.304845
-0.303975
-0.858294
-0.869207
-0.850464
-0.199391
-0.188404
-0.170147
-0.218177
-0.278053
0.185962
0.177480
0.160410
-0.290159
-0.283512
-0.278987
-0.273835
0.168795
-0.390922
-0.379096
-0.396671
-0.266501
-0.334957
-0.348989
-0.274500
-0.258394
-0.251792
-0.255487
-0.268149
-0.256830
-0.346730
-0.847911
-0.243943
-0.232958
-0.222965
-0.825878
-0.836384
-0.297212
-0.360051
-0.119676
-0.140395
-0.346303
-0.360438
-0.344250
-0.153227
-0.641903
-0.653341
-0.657280
-0.632889
-0.235574
-0.237178
0.160462
0.196410
-0.171547
-0.187207
-0.185534
-0.246884
-0.255591
-0.248975
-0.203357
-0.373319
-0.409438
-0.417728
-0.402018
-0.796525
-0.810318
-0.815099
-0.296327
-0.297263
-0.391368
-0.381670
-0.399532
-0.749676
-0.741535
-0.751934
-0.312944
-0.304231
-0.304279
-0.304919
-0.314335
-0.313761
-0.821551
-0.220159
-0.202473
-0.223455
-0.294771
-0.289433
-0.284039
-0.632890
-0.660972
-0.634388
-0.887994
-0.894719
-0.900973
-0.880260
-0.283655
-0.279807
-0.367918
-0.377301
-0.599004
-0.566076
-0.570674
-0.274867
-0.897860
-0.828011
-0.840207
-0.817548
-0.275781
0.228126
-0.268727
-0.303763
-0.300585
-0.302610
-0.258259
-0.265913
-0.263185
-0.531974
-0.567026
-0.311030
-0.312112
-0.312634
-0.866779
-0.797541
-0.802597
-0.808433
-0.792778
-0.323712
-0.323871
0.036115
-0.019954
0.020790
-0.063713
-0.297532
-0.292267
-0.287838
-0.285207
-0.282406
-0.853000
-0.846932
-0.534489
-0.512454
-0.503747
-0.531376
-0.477492
-0.454907
-0.466526
-0.274887
-0.279484
-0.278517
-0.275798
-0.309500
-0.303487
-0.306983
-0.805486
-0.213030
-0.228601
-0.211029
-0.461386
-0.317400
-0.319621
-0.321671
-0.332714
-0.334814
-0.838619
-0.298890
-0.293225
-0.412695
-0.393837
-0.408015
-0.397215
-0.288768
-0.828118
-0.815474
-0.258793
-0.249164
-0.263856
-0.480775
0.157493
0.147036
0.166424
0.174096
-0.419029
-0.434965
-0.284229
-0.281640
0.123890
0.142262
0.125871
-0.773650
-0.786612
-0.772473
-0.883262
-0.875635
-0.405265
-0.408869
-0.395579
-0.733850
-0.739931
-0.730435
-0.737072
-0.305364
-0.310303
-0.314070
-0.428117
-0.322353
-0.324952
-0.792116
-0.786259
-0.080100
-0.158600
-0.347455
-0.357790
-0.331097
-0.329143
0.012870
-0.064458
-0.339836
-0.343755
-0.299105
-0.292889
-0.339581
-0.329000
-0.357656
-0.761049
-0.760038
-0.747464
-0.088473
-0.092839
-0.129197
-0.773948
-0.296965
-0.284356
-0.287795
-0.325328
-0.724883
-0.281015
-0.278361
-0.297705
-0.287004
-0.309998
-0.493595
-0.485347
-0.505729
-0.500128
-0.515891
-0.486541
-0.276650
-0.281345
-0.292883
-0.297065
-0.770878
-0.739034
-0.743910
-0.755239
-0.165219
-0.212121
-0.247287
-0.800199
-0.042275
-0.049511
-0.306193
-0.312838
-0.291172
-0.295046
-0.305447
-0.312271
-0.318394
-0.416786
-0.409920
-0.328512
-0.333584
-0.224252
0.031864
0.047497
0.046719
-0.313503
-0.317887
-0.866988
-0.762968
-0.764781
-0.298279
-0.291348
-0.374327
-0.788282
-0.777418
-0.274665
-0.290387
-0.273772
-0.285418
-0.380227
-0.377185
-0.276487
-0.272491
-0.836289
-0.820415
-0.806903
-0.728173
-0.749030
-0.746676
-0.866879
-0.846936
-0.215288
-0.207415
-0.206250
-0.306060
-0.314350
-0.791260
-0.779817
0.049328
-0.321866
-0.655663
-0.652021
-0.663705
-0.659531
-0.286698
-0.181895
-0.190861
-0.200426
-0.764691
-0.754387
-0.763995
-0.749997
-0.308023
-0.320814
-0.304610
-0.328423
-0.333015
-0.339856
-0.719412
-0.724929
-0.392414
-0.401153
-0.196263
-0.208346
-0.846013
0.083497
0.058780
0.059239
0.034384
-0.557471
-0.566906
-0.571184
-0.055263
-0.060307
-0.041806
0.121633
0.102800
0.089191
-0.730745
-0.740254
-0.738453
-0.296641
-0.289078
-0.270539
-0.233149
-0.266468
-0.076396
-0.047718
-0.077863
-0.282117
-0.271302
-0.265046
-0.713965
-0.414317
-0.390405
-0.394284
-0.305167
-0.315053
-0.296716
-0.313175
-0.279388
-0.476456
-0.124733
-0.118730
-0.324142
-0.335484
-0.346371
-0.294759
-0.286310
-0.121050
-0.268729
-0.279162
-0.263213
-0.278636
-0.276438
-0.013450
-0.030604
-0.021948
-0.266409
-0.257762
-0.304266
-0.314981
-0.718354
-0.710060
-0.324953
-0.336916
-0.345647
0.178993
0.164099
0.122601
0.125270
-0.844918
-0.853791
-0.838547
-0.293099
-0.283623
-0.694135
-0.689805
-0.692098
0.092104
0.057132
0.145611
0.169847
0.142775
0.138519
0.112906
-0.037703
-0.274617
-0.261456
-0.252585
0.011272
0.019998
-0.426032
-0.416772
-0.432467
-0.426376
-0.303014
-0.314577
-0.325864
-0.703522
-0.336161
-0.346883
-0.291500
-0.281336
-0.331756
-0.339237
-0.313863
0.038852
0.022990
0.011135
-0.058001
-0.051032
-0.190399
-0.183350
-0.664659
-0.670821
-0.742604
-0.742581
-0.755177
-0.270535
-0.256272
-0.247075
-0.188763
-0.755442
-0.760868
-0.770245
0.164236
0.186795
-0.301685
-0.314370
-0.034139
-0.070122
-0.075689
-0.087991
-0.325421
-0.335010
-0.092325
-0.105339
-0.767683
-0.773220
-0.288310
-0.299281
-0.473640
-0.289326
-0.278209
-0.718617
-0.692957
-0.683038
-0.687032
-0.268477
-0.256764
-0.801053
-0.811791
-0.301812
-0.311914
-0.326527
-0.810184
-0.822915
-0.776401
-0.809099
-0.798251
-0.289397
-0.275487
-0.097889
-0.162007
-0.192359
-0.398020
-0.161966
-0.158282
-0.170871
-0.263482
-0.251001
-0.262276
-0.241226
-0.777804
-0.760879
-0.757041
-0.302525
-0.312659
-0.253478
-0.264730
-0.286239
-0.338096
-0.327570
-0.314849
-0.305907
-0.756423
-0.228604
-0.199536
-0.212222
-0.325417
-0.224521
-0.739798
-0.756027
-0.191390
-0.222539
-0.225044
-0.221921
-0.607506
-0.595402
-0.573560
-0.338805
-0.354544
-0.290638
-0.277544
-0.381889
-0.262960
-0.246215
-0.300974
-0.313984
-0.592006
-0.613315
-0.825608
0.132976
0.160165
0.101161
0.082946
0.030254
0.056462
0.049533
-0.778820
-0.206865
-0.213560
-0.195217
-0.208367
-0.191196
-0.644051
-0.632631
-0.617501
-0.195838
-0.199411
-0.210506
0.144937
0.152067
0.125765
-0.297652
-0.184779
-0.629582
-0.628809
-0.640445
-0.641683
-0.513965
-0.553070
-0.508167
-0.224873
-0.402449
-0.870949
-0.878959
-0.865570
-0.028742
-0.030690
-0.050503
-0.553269
-0.097695
-0.111259
-0.091578
-0.117806
-0.124333
-0.652353
0.061892
0.077206
0.085457
-0.184637
-0.768956
-0.752704
-0.763315
-0.756416
0.053728
-0.236916
-0.220201
-0.225988
-0.231379
-0.334681
-0.338724
-0.325598
0.152518
-0.352182
-0.470427
-0.489558
-0.481440
-0.500504
-0.780221
-0.765435
-0.431488
-0.417719
-0.401627
-0.507120
-0.132500
-0.708419
-0.724944
-0.709045
-0.718383
-0.694564
-0.683144
-0.687925
-0.695658
-0.566892
-0.577147
-0.537543
-0.598009
-0.343213
-0.335166
-0.354899
-0.009178
-0.024900
0.144171
0.171389
0.162093
0.149811
0.171871
0.154817
-0.662325
-0.672331
-0.662835
-0.674599
-0.322564
-0.804473
-0.813722
-0.821440
-0.027694
-0.042652
-0.812626
-0.197916
-0.088066
-0.088387
-0.073044
-0.079801
-0.079716
-0.452486
-0.503892
-0.020650
-0.790039
-0.770793
-0.777866
-0.760945
-0.459616
0.174454
0.143301
-0.183743
0.010388
0.002095
-0.007094
0.044284
0.056905
0.040701
0.021273
-0.166798
-0.161445
-0.175337
-0.169889
-0.010360
-0.483618
-0.503863
-0.492413
-0.448957
-0.444814
-0.274785
-0.288022
-0.291735
-0.304648
-0.539521
-0.539300
-0.517152
-0.573560
-0.576537
-0.391535
-0.405985
-0.498259
-0.454271
-0.447240
-0.494197
-0.320959
-0.333404
-0.332573
-0.614046
-0.618007
-0.607640
-0.627602
-0.336835
-0.314299
0.048505
0.029506
0.061476
-0.436413
-0.454079
-0.453102
-0.438693
-0.443220
0.031199
0.021532
-0.656688
-0.670543
-0.656749
-0.671737
-0.494358
-0.362547
-0.372399
-0.458094
-0.471258
-0.471296
-0.830055
-0.833781
-0.814053
-0.822705
-0.807987
-0.322911
-0.325009
-0.320758
0.127175
0.142277
0.142786
0.113989
0.107680
-0.506098
-0.551815
-0.609918
-0.620088
-0.610342
-0.172053
-0.156600
-0.173090
-0.188664
-0.155777
-0.209396
-0.210729
-0.194807
-0.744308
-0.194709
-0.391707
-0.202796
-0.187141
-0.211977
-0.314014
-0.312053
-0.318065
-0.373698
-0.397537
-0.375493
-0.399576
-0.356970
-0.377937
-0.125575
-0.109171
-0.104205
-0.286869
-0.294783
-0.268793
-0.266278
-0.293642
-0.739397
-0.729952
-0.243657
-0.277359
-0.299705
-0.293067
-0.585556
-0.597208
-0.621533
-0.627020
-0.041161
-0.686497
-0.685926
-0.698480
-0.709662
-0.712144
-0.724468
-0.643910
-0.650329
-0.622917
-0.669743
-0.683741
-0.556028
-0.314322
-0.331673
-0.324374
-0.342985
-0.628718
-0.634932
-0.622077
-0.644289
0.088487
0.089898
-0.683702
0.168193
0.010636
-0.022920
-0.076450
-0.066444
-0.133702
-0.691212
-0.680342
-0.692814
-0.758027
-0.752890
-0.766668
-0.178511
-0.180560
-0.193983
-0.626135
-0.638618
-0.216238
-0.197348
-0.614033
-0.624576
-0.616311
0.048276
0.021834
0.047728
0.008746
-0.610947
-0.625004
-0.608648
-0.627174
-0.218351
-0.209282
-0.191948
-0.235347
-0.224746
-0.235025
-0.541567
0.031335
0.043351
0.027362
0.044356
0.018233
0.038907
-0.383247
-0.370334
-0.379199
-0.380230
-0.363387
-0.640566
-0.640730
-0.624468
-0.642401
-0.657240
-0.654357
-0.013269
-0.005743
-0.650394
-0.661828
-0.662330
0.152213
0.121886
-0.675315
-0.051805
-0.059948
-0.067463
-0.639855
0.084805
0.063236
0.025079
0.010993
-0.004188
0.010751
0.007753
0.079440
0.057298
0.085444
0.093510
-0.684415
-0.670435
-0.526320
-0.514664
-0.509702
-0.534453
-0.495939
-0.504476
-0.491136
-0.739401
-0.739844
-0.751255
-0.098558
-0.094323
-0.115387
-0.328988
-0.360106
-0.681309
-0.652932
-0.308682
-0.657614
-0.653695
-0.670718
-0.651919
-0.640411
-0.633386
-0.634184
-0.794616
-0.787032
-0.794285
-0.785823
-0.801242
-0.796137
-0.837813
-0.836902
-0.852428
-0.845769
-0.617242
-0.617408
-0.083178
-0.615513
-0.601062
-0.789998
-0.799676
-0.662246
-0.643534
-0.681733
-0.663334
-0.744417
-0.743257
-0.725431
-0.703580
-0.720797
-0.684220
-0.647867
-0.014482
-0.035313
-0.009543
-0.038584
-0.628595
-0.641867
-0.487951
-0.488890
-0.473587
0.042694
0.056243
0.047155
0.063987
0.029026