# vtk DataFile Version 2.0
Test
ASCII
DATASET POLYDATA
POINTS 6577 float
0.000000 0.000000 0.000000
2.000000 0.000000 0.000000
2.000000 4.000000 0.000000
0.000000 4.000000 0.000000
0.000000 0.500000 0.000000
1.500000 2.000000 0.000000
2.000000 2.500000 0.000000
0.040000 0.000000 0.000000
0.080000 0.000000 0.000000
0.120000 0.000000 0.000000
0.160000 0.000000 0.000000
0.200000 0.000000 0.000000
0.240000 0.000000 0.000000
0.280000 0.000000 0.000000
0.320000 0.000000 0.000000
0.360000 0.000000 0.000000
0.400000 0.000000 0.000000
0.440000 0.000000 0.000000
0.480000 0.000000 0.000000
0.520000 0.000000 0.000000
0.560000 0.000000 0.000000
0.600000 0.000000 0.000000
0.640000 0.000000 0.000000
0.680000 0.000000 0.000000
0.720000 0.000000 0.000000
0.760000 0.000000 0.000000
0.800000 0.000000 0.000000
0.840000 0.000000 0.000000
0.880000 0.000000 0.000000
0.920000 0.000000 0.000000
0.960000 0.000000 0.000000
1.000000 0.000000 0.000000
1.040000 0.000000 0.000000
1.080000 0.000000 0.000000
1.120000 0.000000 0.000000
1.160000 0.000000 0.000000
1.200000 0.000000 0.000000
1.240000 0.000000 0.000000
1.280000 0.000000 0.000000
1.320000 0.000000 0.000000
1.360000 0.000000 0.000000
1.400000 0.000000 0.000000
1.440000 0.000000 0.000000
1.480000 0.000000 0.000000
1.520000 0.000000 0.000000
1.560000 0.000000 0.000000
1.600000 0.000000 0.000000
1.640000 0.000000 0.000000
1.680000 0.000000 0.000000
1.720000 0.000000 0.000000
1.760000 0.000000 0.000000
1.800000 0.000000 0.000000
1.840000 0.000000 0.000000
1.880000 0.000000 0.000000
1.920000 0.000000 0.000000
1.960000 0.000000 0.000000
2.000000 0.039683 0.000000
2.000000 0.079365 0.000000
2.000000 0.119048 0.000000
2.000000 0.158730 0.000000
2.000000 0.198413 0.000000
2.000000 0.238095 0.000000
2.000000 0.277778 0.000000
2.000000 0.317460 0.000000
2.000000 0.357143 0.000000
2.000000 0.396825 0.000000
2.000000 0.436508 0.000000
2.000000 0.476190 0.000000
2.000000 0.515873 0.000000
2.000000 0.555556 0.000000
2.000000 0.595238 0.000000
2.000000 0.634921 0.000000
2.000000 0.674603 0.000000
2.000000 0.714286 0.000000
2.000000 0.753968 0.000000
2.000000 0.793651 0.000000
2.000000 0.833333 0.000000
2.000000 0.873016 0.000000
2.000000 0.912698 0.000000
2.000000 0.952381 0.000000
2.000000 0.992063 0.000000
2.000000 1.031746 0.000000
2.000000 1.071429 0.000000
2.000000 1.111111 0.000000
2.000000 1.150794 0.000000
2.000000 1.190476 0.000000
2.000000 1.230159 0.000000
2.000000 1.269841 0.000000
2.000000 1.309524 0.000000
2.000000 1.349206 0.000000
2.000000 1.388889 0.000000
2.000000 1.428571 0.000000
2.000000 1.468254 0.000000
2.000000 1.507937 0.000000
2.000000 1.547619 0.000000
2.000000 1.587302 0.000000
2.000000 1.626984 0.000000
2.000000 1.666667 0.000000
2.000000 1.706349 0.000000
2.000000 1.746032 0.000000
2.000000 1.785714 0.000000
2.000000 1.825397 0.000000
2.000000 1.865079 0.000000
2.000000 1.904762 0.000000
2.000000 1.944444 0.000000
2.000000 1.984127 0.000000
2.000000 2.023810 0.000000
2.000000 2.063492 0.000000
2.000000 2.103175 0.000000
2.000000 2.142857 0.000000
2.000000 2.182540 0.000000
2.000000 2.222222 0.000000
2.000000 2.261905 0.000000
2.000000 2.301587 0.000000
2.000000 2.341270 0.000000
2.000000 2.380952 0.000000
2.000000 2.420635 0.000000
2.000000 2.460317 0.000000
2.000000 2.539474 0.000000
2.000000 2.578947 0.000000
2.000000 2.618421 0.000000
2.000000 2.657895 0.000000
2.000000 2.697368 0.000000
2.000000 2.736842 0.000000
2.000000 2.776316 0.000000
2.000000 2.815789 0.000000
2.000000 2.855263 0.000000
2.000000 2.894737 0.000000
2.000000 2.934211 0.000000
2.000000 2.973684 0.000000
2.000000 3.013158 0.000000
2.000000 3.052632 0.000000
2.000000 3.092105 0.000000
2.000000 3.131579 0.000000
2.000000 3.171053 0.000000
2.000000 3.210526 0.000000
2.000000 3.250000 0.000000
2.000000 3.289474 0.000000
2.000000 3.328947 0.000000
2.000000 3.368421 0.000000
2.000000 3.407895 0.000000
2.000000 3.447368 0.000000
2.000000 3.486842 0.000000
2.000000 3.526316 0.000000
2.000000 3.565789 0.000000
2.000000 3.605263 0.000000
2.000000 3.644737 0.000000
2.000000 3.684211 0.000000
2.000000 3.723684 0.000000
2.000000 3.763158 0.000000
2.000000 3.802632 0.000000
2.000000 3.842105 0.000000
2.000000 3.881579 0.000000
2.000000 3.921053 0.000000
2.000000 3.960526 0.000000
1.960000 4.000000 0.000000
1.920000 4.000000 0.000000
1.880000 4.000000 0.000000
1.840000 4.000000 0.000000
1.800000 4.000000 0.000000
1.760000 4.000000 0.000000
1.720000 4.000000 0.000000
1.680000 4.000000 0.000000
1.640000 4.000000 0.000000
1.600000 4.000000 0.000000
1.560000 4.000000 0.000000
1.520000 4.000000 0.000000
1.480000 4.000000 0.000000
1.440000 4.000000 0.000000
1.400000 4.000000 0.000000
1.360000 4.000000 0.000000
1.320000 4.000000 0.000000
1.280000 4.000000 0.000000
1.240000 4.000000 0.000000
1.200000 4.000000 0.000000
1.160000 4.000000 0.000000
1.120000 4.000000 0.000000
1.080000 4.000000 0.000000
1.040000 4.000000 0.000000
1.000000 4.000000 0.000000
0.960000 4.000000 0.000000
0.920000 4.000000 0.000000
0.880000 4.000000 0.000000
0.840000 4.000000 0.000000
0.800000 4.000000 0.000000
0.760000 4.000000 0.000000
0.720000 4.000000 0.000000
0.680000 4.000000 0.000000
0.640000 4.000000 0.000000
0.600000 4.000000 0.000000
0.560000 4.000000 0.000000
0.520000 4.000000 0.000000
0.480000 4.000000 0.000000
0.440000 4.000000 0.000000
0.400000 4.000000 0.000000
0.360000 4.000000 0.000000
0.320000 4.000000 0.000000
0.280000 4.000000 0.000000
0.240000 4.000000 0.000000
0.200000 4.000000 0.000000
0.160000 4.000000 0.000000
0.120000 4.000000 0.000000
0.080000 4.000000 0.000000
0.040000 4.000000 0.000000
0.000000 3.960227 0.000000
0.000000 3.920455 0.000000
0.000000 3.880682 0.000000
0.000000 3.840909 0.000000
0.000000 3.801136 0.000000
0.000000 3.761364 0.000000
0.000000 3.721591 0.000000
0.000000 3.681818 0.000000
0.000000 3.642045 0.000000
0.000000 3.602273 0.000000
0.000000 3.562500 0.000000
0.000000 3.522727 0.000000
0.000000 3.482955 0.000000
0.000000 3.443182 0.000000
0.000000 3.403409 0.000000
0.000000 3.363636 0.000000
0.000000 3.323864 0.000000
0.000000 3.284091 0.000000
0.000000 3.244318 0.000000
0.000000 3.204545 0.000000
0.000000 3.164773 0.000000
0.000000 3.125000 0.000000
0.000000 3.085227 0.000000
0.000000 3.045455 0.000000
0.000000 3.005682 0.000000
0.000000 2.965909 0.000000
0.000000 2.926136 0.000000
0.000000 2.886364 0.000000
0.000000 2.846591 0.000000
0.000000 2.806818 0.000000
0.000000 2.767045 0.000000
0.000000 2.727273 0.000000
0.000000 2.687500 0.000000
0.000000 2.647727 0.000000
0.000000 2.607955 0.000000
0.000000 2.568182 0.000000
0.000000 2.528409 0.000000
0.000000 2.488636 0.000000
0.000000 2.448864 0.000000
0.000000 2.409091 0.000000
0.000000 2.369318 0.000000
0.000000 2.329545 0.000000
0.000000 2.289773 0.000000
0.000000 2.250000 0.000000
0.000000 2.210227 0.000000
0.000000 2.170455 0.000000
0.000000 2.130682 0.000000
0.000000 2.090909 0.000000
0.000000 2.051136 0.000000
0.000000 2.011364 0.000000
0.000000 1.971591 0.000000
0.000000 1.931818 0.000000
0.000000 1.892045 0.000000
0.000000 1.852273 0.000000
0.000000 1.812500 0.000000
0.000000 1.772727 0.000000
0.000000 1.732955 0.000000
0.000000 1.693182 0.000000
0.000000 1.653409 0.000000
0.000000 1.613636 0.000000
0.000000 1.573864 0.000000
0.000000 1.534091 0.000000
0.000000 1.494318 0.000000
0.000000 1.454545 0.000000
0.000000 1.414773 0.000000
0.000000 1.375000 0.000000
0.000000 1.335227 0.000000
0.000000 1.295455 0.000000
0.000000 1.255682 0.000000
0.000000 1.215909 0.000000
0.000000 1.176136 0.000000
0.000000 1.136364 0.000000
0.000000 1.096591 0.000000
0.000000 1.056818 0.000000
0.000000 1.017045 0.000000
0.000000 0.977273 0.000000
0.000000 0.937500 0.000000
0.000000 0.897727 0.000000
0.000000 0.857955 0.000000
0.000000 0.818182 0.000000
0.000000 0.778409 0.000000
0.000000 0.738636 0.000000
0.000000 0.698864 0.000000
0.000000 0.659091 0.000000
0.000000 0.619318 0.000000
0.000000 0.579545 0.000000
0.000000 0.539773 0.000000
0.000000 0.461538 0.000000
0.000000 0.423077 0.000000
0.000000 0.384615 0.000000
0.000000 0.346154 0.000000
0.000000 0.307692 0.000000
0.000000 0.269231 0.000000
0.000000 0.230769 0.000000
0.000000 0.192308 0.000000
0.000000 0.153846 0.000000
0.000000 0.115385 0.000000
0.000000 0.076923 0.000000
0.000000 0.038462 0.000000
0.027778 0.527778 0.000000
0.055556 0.555556 0.000000
0.083333 0.583333 0.000000
0.111111 0.611111 0.000000
0.138889 0.638889 0.000000
0.166667 0.666667 0.000000
0.194444 0.694444 0.000000
0.222222 0.722222 0.000000
0.250000 0.750000 0.000000
0.277778 0.777778 0.000000
0.305556 0.805556 0.000000
0.333333 0.833333 0.000000
0.361111 0.861111 0.000000
0.388889 0.888889 0.000000
0.416667 0.916667 0.000000
0.444444 0.944444 0.000000
0.472222 0.972222 0.000000
0.500000 1.000000 0.000000
0.527778 1.027778 0.000000
0.555556 1.055556 0.000000
0.583333 1.083333 0.000000
0.611111 1.111111 0.000000
0.638889 1.138889 0.000000
0.666667 1.166667 0.000000
0.694444 1.194444 0.000000
0.722222 1.222222 0.000000
0.750000 1.250000 0.000000
0.777778 1.277778 0.000000
0.805556 1.305556 0.000000
0.833333 1.333333 0.000000
0.861111 1.361111 0.000000
0.888889 1.388889 0.000000
0.916667 1.416667 0.000000
0.944444 1.444444 0.000000
0.972222 1.472222 0.000000
1.000000 1.500000 0.000000
1.027778 1.527778 0.000000
1.055556 1.555556 0.000000
1.083333 1.583333 0.000000
1.111111 1.611111 0.000000
1.138889 1.638889 0.000000
1.166667 1.666667 0.000000
1.194444 1.694444 0.000000
1.222222 1.722222 0.000000
1.250000 1.750000 0.000000
1.277778 1.777778 0.000000
1.305556 1.805556 0.000000
1.333333 1.833333 0.000000
1.361111 1.861111 0.000000
1.388889 1.888889 0.000000
1.416667 1.916667 0.000000
1.444444 1.944444 0.000000
1.472222 1.972222 0.000000
1.527778 2.027778 0.000000
1.555556 2.055556 0.000000
1.583333 2.083333 0.000000
1.611111 2.111111 0.000000
1.638889 2.138889 0.000000
1.666667 2.166667 0.000000
1.694444 2.194444 0.000000
1.722222 2.222222 0.000000
1.750000 2.250000 0.000000
1.777778 2.277778 0.000000
1.805556 2.305556 0.000000
[...]
POINT_DATA 6577
SCALARS UX float 1
LOOKUP_TABLE default
-0.000074
0.000117
0.048567
-0.671404
-0.322229
0.292238
0.242921
0.000018
-0.000005
-0.000001
0.000001
-0.000002
-0.000009
0.000001
0.000001
0.000003
0.000002
-0.000000
0.000003
0.000001
0.000002
-0.000001
0.000001
-0.000001
-0.000000
0.000000
-0.000001
-0.000001
0.000000
0.000000
0.000001
0.000000
-0.000000
0.000000
0.000000
0.000000
-0.000000
-0.000000
0.000001
-0.000001
-0.000000
0.000000
-0.000000
0.000001
0.000001
-0.000000
-0.000001
-0.000000
-0.000000
-0.000001
0.000002
-0.000002
0.000002
-0.000000
-0.000001
-0.000016
0.021384
0.027859
0.036315
0.043260
0.049670
0.056034
0.062403
0.069474
0.076913
0.084487
0.091993
0.099145
0.104261
0.108184
0.111766
0.115346
0.119103
0.122717
0.126478
0.130405
0.134351
0.139199
0.144202
0.148873
0.154757
0.161117
0.167530
0.174717
0.182800
0.191273
0.201145
0.211646
0.222180
0.233627
0.243978
0.256774
0.269295
0.282425
0.295224
0.308059
0.320767
0.333341
0.345504
0.357189
0.368089
0.378187
0.387803
0.397035
0.405617
0.413388
0.421078
0.428450
0.435431
0.442225
0.446481
0.444565
0.434819
0.410629
0.366039
0.332200
0.280469
0.263387
0.216253
0.192232
0.179410
0.167451
0.151764
0.138806
0.129918
0.116464
0.104132
0.096947
0.087965
0.074994
0.072793
0.073724
0.067396
0.058612
0.062083
0.060677
0.055464
0.046105
0.028436
0.035062
0.033107
0.022162
0.035732
0.054598
0.072174
0.074385
0.057560
0.046851
0.040155
0.043963
0.049106
0.049281
0.047738
0.045522
0.046729
0.029293
0.011001
-0.007108
-0.025022
-0.043161
-0.062202
-0.082139
-0.102520
-0.123402
-0.144376
-0.165983
-0.188045
-0.210913
-0.233638
-0.255366
-0.276488
-0.296710
-0.315989
-0.334253
-0.351633
-0.368703
-0.385600
-0.401530
-0.416034
-0.428854
-0.441826
-0.454477
-0.466534
-0.478420
-0.490210
-0.501926
-0.513441
-0.524547
-0.534479
-0.544228
-0.553847
-0.563496
-0.572649
-0.581713
-0.590847
-0.599528
-0.608142
-0.616843
-0.625944
-0.634039
-0.641548
-0.649140
-0.656481
-0.663831
-0.670236
-0.668096
-0.665693
-0.662464
-0.658227
-0.653593
-0.648380
-0.642261
-0.635968
-0.628763
-0.620862
-0.612207
-0.602936
-0.594034
-0.582700
-0.572059
-0.560815
-0.549553
-0.538635
-0.525681
-0.513773
-0.501490
-0.488467
-0.475603
-0.463709
-0.450248
-0.438653
-0.426147
-0.415964
-0.403161
-0.391990
-0.380448
-0.370268
-0.360856
-0.349779
-0.340701
-0.330655
-0.322520
-0.316730
-0.311051
-0.303554
-0.297599
-0.291955
-0.287304
-0.282306
-0.279651
-0.276646
-0.274401
-0.272945
-0.272182
-0.272906
-0.274765
-0.277389
-0.279024
-0.282387
-0.286053
-0.289755
-0.293963
-0.298213
-0.301185
-0.306226
-0.310454
-0.314472
-0.318175
-0.321856
-0.324795
-0.327410
-0.329089
-0.330348
-0.330879
-0.330684
-0.329412
-0.327485
-0.324623
-0.320757
-0.316002
-0.310174
-0.303563
-0.295055
-0.285321
-0.275405
-0.267129
-0.263077
-0.265263
-0.270045
-0.280734
-0.322809
-0.157960
-0.154718
-0.151718
-0.146193
-0.139406
-0.130697
-0.120747
-0.110390
-0.098261
-0.084414
-0.068282
-0.035136
-0.292255
-0.290189
-0.246579
-0.263191
-0.247999
-0.197956
-0.199012
-0.166144
-0.162613
-0.182815
-0.192856
-0.200554
-0.215296
-0.201373
-0.195784
-0.207207
-0.210229
-0.219462
-0.222165
-0.220337
-0.223247
-0.233738
-0.255400
-0.292753
-0.327673
-0.237503
-0.183092
-0.181351
-0.135772
-0.199064
-0.205993
-0.178867
-0.100925
0.091737
-0.106448
-0.072495
0.032778
-0.064351
-0.102119
0.008118
0.065529
0.121351
0.119367
0.180757
0.039796
0.065634
0.104684
0.128934
0.154836
0.180082
0.348389
0.178117
0.231937
0.303152
0.300416
0.310556
0.314749
0.289722
0.299097
0.304843
0.304278
0.304145
0.292290
0.278985
0.269560
0.261644
0.248341
0.242025
0.242225
0.246135
0.188704
0.173226
-0.660487
-0.662706
0.031205
0.034486
0.224185
0.216410
0.207258
0.131487
0.118759
-0.127346
-0.146256
-0.138770
0.041360
0.040657
0.047406
-0.153488
-0.149285
-0.138715
-0.141699
-0.198616
-0.187155
-0.175254
-0.622510
-0.621856
-0.614764
-0.615676
-0.624584
-0.618005
-0.202911
-0.051901
-0.032366
-0.040572
-0.188554
-0.210092
-0.187196
-0.508109
-0.492718
-0.494408
-0.150192
-0.259446
-0.254448
-0.274227
0.001561
-0.007394
-0.005207
-0.225340
-0.218156
-0.235003
-0.222037
-0.542786
-0.552189
-0.543730
-0.554351
-0.520461
-0.528628
-0.515604
-0.523374
-0.237796
-0.223890
-0.235776
-0.006364
-0.031337
-0.042419
-0.031765
0.241289
0.239544
-0.038165
-0.202935
-0.205461
-0.191298
-0.216835
-0.487703
-0.475051
-0.471691
-0.118643
-0.132989
-0.123156
-0.127629
0.074933
0.073617
0.082896
0.078030
-0.277449
-0.298215
-0.284676
-0.296615
-0.254108
-0.245108
-0.259314
-0.163256
-0.149147
-0.148427
0.185738
0.200954
0.175880
0.187905
0.136893
0.137350
0.118154
-0.195359
-0.204248
-0.209638
0.061979
0.056871
0.059326
0.052718
-0.241561
-0.610434
-0.614661
-0.607258
-0.465549
-0.453195
-0.457558
-0.465998
-0.360087
-0.366689
-0.349778
-0.353269
-0.178232
-0.166942
-0.176802
-0.419115
-0.423769
-0.433232
-0.082715
-0.106856
-0.090921
0.120871
0.180069
0.173947
0.220467
-0.066613
-0.056264
-0.063681
-0.063746
-0.073806
-0.072223
-0.151001
-0.136585
-0.367868
-0.357531
-0.351178
-0.422864
-0.409192
-0.417160
-0.376396
-0.410541
-0.422568
-0.405371
-0.575393
-0.579149
-0.584058
-0.161772
-0.084883
-0.076343
-0.089757
-0.315819
-0.312381
-0.324122
-0.253810
-0.257697
-0.256275
0.138926
0.161627
0.134085
0.163315
-0.012176
-0.020124
-0.016640
-0.027629
0.154189
0.158365
-0.313776
-0.314028
-0.325967
-0.302126
-0.528397
-0.538237
-0.524379
-0.090700
-0.083683
-0.094965
-0.056856
-0.071642
-0.059556
-0.080990
-0.538407
-0.537610
-0.525847
-0.533429
-0.125356
-0.135881
-0.137685
-0.149978
-0.530886
-0.354384
-0.362646
-0.478345
-0.472913
-0.484669
-0.592517
-0.589309
0.015917
0.016556
0.007980
-0.298805
-0.303521
-0.301343
-0.259435
-0.250216
-0.245767
-0.290291
-0.295470
-0.293991
-0.237327
-0.287764
-0.292276
-0.290191
-0.050216
-0.071350
-0.070651
-0.050619
-0.586616
-0.595470
-0.584521
-0.593251
-0.656920
-0.658077
0.019740
0.017328
0.055535
0.058500
0.064398
0.052214
-0.509772
-0.507958
-0.501506
-0.284116
-0.287564
-0.284527
-0.496971
0.042596
0.044031
0.037074
-0.257076
-0.260332
-0.500253
-0.487652
-0.487746
-0.021666
-0.025396
0.176704
0.188062
0.206186
0.222509
-0.259694
-0.273953
-0.263889
-0.281795
-0.305770
-0.304960
-0.308944
-0.299054
-0.299724
-0.301489
-0.297223
-0.308367
-0.304278
-0.325243
-0.327858
-0.327536
-0.265045
-0.267006
-0.273581
-0.277547
-0.269285
-0.284102
-0.284704
-0.016559
0.001889
-0.289507
-0.293773
-0.293377
-0.645158
-0.166532
-0.178566
-0.166506
-0.298969
-0.298328
0.082775
0.077122
0.076061
0.083681
-0.186164
-0.172503
-0.165747
-0.039858
-0.039033
-0.049040
-0.033600
-0.015638
-0.100536
-0.082361
-0.074439
-0.029825
-0.013133
-0.012674
-0.021354
-0.314458
-0.320738
-0.316680
-0.577208
-0.574300
-0.567560
-0.137501
-0.211822
-0.223768
-0.211238
-0.283116
-0.283545
-0.287946
-0.262416
-0.265850
-0.117265
-0.226086
-0.232279
-0.274403
-0.279601
-0.272544
-0.281525
-0.280094
-0.282408
-0.281749
-0.275319
-0.286874
-0.181012
-0.175541
-0.187465
0.004771
0.013366
-0.285409
-0.279135
-0.281354
-0.279104
-0.280720
-0.145291
-0.655945
-0.309385
-0.305319
-0.310123
-0.305262
-0.307841
0.036050
-0.120894
-0.112006
-0.651230
-0.651654
-0.278049
-0.276939
0.009627
0.019366
-0.061569
-0.055068
-0.288353
-0.088165
-0.076111
-0.079388
-0.068264
-0.303841
-0.298948
-0.506124
-0.512667
-0.496999
-0.259356
-0.270569
-0.274250
-0.232808
-0.288748
-0.501696
-0.031456
-0.107146
-0.118687
-0.105405
-0.638540
-0.290577
-0.283014
-0.295590
-0.652077
-0.322689
-0.317061
-0.319266
-0.117641
-0.105817
-0.017714
-0.004411
-0.009219
-0.259564
-0.253466
0.017879
0.025942
-0.646558
-0.646423
-0.641808
-0.520453
-0.514837
-0.264003
-0.278489
-0.281745
-0.245284
-0.273098
-0.277003
-0.283077
-0.124228
-0.117532
-0.106313
-0.287614
-0.293618
-0.311562
-0.309409
-0.299260
-0.296116
-0.511140
-0.003939
0.000917
-0.304931
-0.652674
-0.296531
-0.289263
-0.303063
-0.645798
-0.646148
0.053714
0.055877
0.057537
-0.276593
0.034327
0.009241
0.024439
0.001540
-0.272161
-0.279999
-0.286157
-0.261179
-0.270999
-0.274091
-0.272957
-0.268438
-0.277286
-0.272042
-0.275523
-0.302058
-0.198948
-0.192830
-0.182648
-0.044181
-0.212892
-0.210776
-0.222679
-0.632908
0.054540
-0.027922
-0.030090
-0.014842
-0.300879
-0.293591
-0.308965
-0.636321
-0.639074
-0.641135
-0.272435
-0.280667
-0.288379
-0.265991
-0.307270
-0.140601
-0.134603
-0.268810
-0.260547
0.058744
0.228977
0.264411
0.247062
-0.647060
-0.648035
-0.640772
-0.640264
0.018292
0.027279
-0.160449
-0.150049
-0.157641
-0.172489
-0.600903
-0.597041
-0.591575
-0.274126
0.000797
-0.008981
-0.303518
-0.296132
-0.314810
-0.273684
-0.281676
-0.289318
-0.269507
-0.274898
-0.045900
-0.059606
-0.173167
-0.631005
-0.625594
-0.291828
-0.283663
-0.299365
-0.310372
-0.046268
-0.027671
-0.628912
-0.634468
-0.297960
-0.316318
-0.281599
-0.306105
0.223524
0.209213
-0.293477
-0.324907
0.053786
0.044684
0.058233
-0.274393
-0.282923
-0.290869
-0.265938
-0.111971
-0.094424
-0.095916
-0.640363
-0.291017
0.037151
-0.634318
-0.634077
-0.639902
0.012328
0.021643
-0.076052
-0.063744
-0.068950
-0.004874
-0.018533
-0.312382
-0.070353
-0.080495
0.164519
0.208301
0.172585
-0.584508
-0.590436
-0.580727
-0.588135
-0.140955
-0.505778
0.146529
0.165171
-0.124813
-0.268317
-0.275574
-0.525074
-0.275664
-0.280490
-0.287386
-0.285387
-0.292280
-0.269110
-0.061005
0.230325
0.018352
0.026254
0.021315
-0.623636
0.024110
-0.089728
-0.084875
-0.098007
-0.059490
-0.040481
-0.075570
-0.621783
-0.626624
-0.618388
-0.307271
-0.314612
-0.313145
0.055948
0.058033
0.060872
0.054555
-0.075026
-0.299697
-0.293629
-0.282466
-0.300172
-0.058987
-0.591874
-0.589106
-0.581508
-0.288934
-0.294192
-0.572589
-0.577092
-0.268232
0.044932
-0.003558
-0.001396
0.011968
-0.265542
-0.267777
-0.253940
-0.251276
0.164739
-0.060426
-0.089025
-0.631758
-0.599533
0.030010
0.026388
0.033296
-0.626816
-0.628377
-0.632426
0.001832
-0.260913
-0.265051
-0.015370
-0.024295
0.016309
0.035206
0.029461
0.023040
0.017745
0.014795
-0.262185
-0.267985
-0.271584
0.036615
-0.272369
-0.077258
-0.267174
-0.271004
-0.273500
-0.616182
-0.156797
-0.301335
-0.219544
-0.211102
-0.224797
-0.073202
-0.216593
-0.092950
-0.614915
-0.226751
-0.210594
-0.609899
-0.218059
-0.374526
-0.381128
-0.385780
-0.186179
0.123942
-0.287003
-0.132081
-0.123697
-0.115458
-0.365512
-0.021340
-0.023090
-0.029383
-0.289934
-0.274178
-0.257713
-0.266706
-0.603119
-0.605573
-0.597603
-0.031520
-0.345421
-0.336586
-0.272123
-0.280217
-0.301258
-0.286652
-0.303636
-0.309902
-0.287338
-0.294297
-0.573017
-0.581522
-0.575189
-0.041958
-0.060844
-0.033720
-0.069718
-0.257234
0.067581
0.062935
0.046868
-0.248761
-0.253830
-0.249109
-0.255469
0.052561
-0.228952
-0.222620
-0.237890
-0.262313
-0.099767
-0.108831
-0.138883
-0.321837
-0.317855
-0.318193
-0.256611
-0.264250
-0.109704
-0.599670
-0.049152
-0.041334
-0.035725
-0.589236
-0.600140
-0.264015
-0.118177
0.019801
0.010638
-0.201504
-0.213874
-0.204161
0.003260
-0.255946
-0.270877
-0.271984
-0.250051
-0.094103
-0.074944
0.161759
0.185955
-0.005741
-0.014571
-0.012551
-0.076565
-0.106645
-0.095532
-0.023382
-0.214251
-0.256394
-0.263324
-0.250721
-0.608930
-0.600285
-0.598728
-0.245696
-0.254909
-0.241877
-0.233855
-0.247852
-0.548260
-0.546152
-0.554842
-0.297596
-0.279536
-0.262641
-0.270953
-0.280725
-0.288532
-0.596109
-0.034506
-0.022629
-0.030007
-0.235470
-0.238459
-0.244095
-0.252861
-0.263344
-0.259614
-0.581089
-0.594462
-0.590860
-0.584595
-0.234688
-0.241474
-0.169431
-0.183314
-0.245531
-0.237222
-0.231745
-0.249754
-0.580595
-0.566679
-0.577756
-0.568343
-0.242811
0.148928
-0.251745
-0.253483
-0.233056
-0.243634
-0.125299
-0.120318
-0.136394
-0.227935
-0.245899
-0.252591
-0.262015
-0.271621
-0.571816
-0.564345
-0.573517
-0.571766
-0.568130
-0.273600
-0.283951
0.011578
0.001726
-0.005091
-0.023401
-0.221747
-0.224439
-0.228986
-0.219788
-0.226876
-0.559690
-0.564663
-0.257796
-0.243803
-0.257099
-0.238659
-0.299012
-0.274735
-0.286271
-0.149050
-0.234329
-0.226356
-0.235858
-0.242614
-0.219722
-0.231455
-0.561153
-0.058514
-0.067444
-0.053555
-0.284506
-0.242773
-0.252202
-0.262883
-0.265228
-0.276982
-0.565907
-0.207285
-0.209718
-0.229808
-0.210405
-0.224765
-0.214328
-0.213283
-0.558120
-0.557316
-0.136971
-0.129325
-0.141736
-0.305598
0.054682
0.051509
0.067196
0.072379
-0.192393
-0.199699
-0.203707
-0.216590
0.145709
0.163239
0.153880
-0.560262
-0.567483
-0.565999
-0.567737
-0.571591
-0.243516
-0.250759
-0.242423
-0.556955
-0.562359
-0.553998
-0.559467
-0.205874
-0.218500
-0.230842
-0.245725
-0.232722
-0.242020
-0.554109
-0.558656
0.034598
0.001936
-0.208612
-0.214819
-0.196240
-0.253134
0.058856
0.042119
-0.255870
-0.269264
-0.192439
-0.193998
-0.189311
-0.189587
-0.205180
-0.558574
-0.564316
-0.556361
0.029440
-0.049939
-0.051747
-0.553032
-0.171276
-0.159947
-0.197451
-0.176196
-0.548823
-0.186000
-0.195212
-0.084224
-0.077273
-0.092589
-0.316688
-0.306206
-0.334822
-0.328647
-0.344042
-0.317131
-0.090880
-0.097398
-0.103004
-0.109524
-0.570910
-0.539196
-0.537711
-0.547746
-0.088392
-0.107205
-0.127298
-0.549787
0.051758
0.048654
-0.191831
-0.205436
-0.097187
-0.101955
-0.107399
-0.114472
-0.219155
-0.243512
-0.242451
-0.224034
-0.241028
-0.068944
-0.031891
-0.022133
-0.027320
-0.184100
-0.184680
-0.561004
-0.548741
-0.556261
-0.177559
-0.178158
-0.226536
-0.544659
-0.545594
-0.151386
-0.164204
-0.145819
-0.180157
-0.196341
-0.193290
-0.167714
-0.175535
-0.551422
-0.548422
-0.545712
-0.533587
-0.570111
-0.568179
-0.521111
-0.510469
-0.095168
-0.085341
-0.071866
-0.177873
-0.192333
-0.535355
-0.536742
-0.022043
-0.207455
-0.478632
-0.476259
-0.487789
-0.484382
-0.157074
-0.005426
-0.011859
-0.015884
-0.536585
-0.532102
-0.542327
-0.536221
-0.179805
-0.188557
-0.175588
-0.195140
-0.212728
-0.229079
-0.543884
-0.548435
-0.212342
-0.227512
-0.011806
-0.022342
-0.545163
-0.003484
-0.022193
-0.013675
-0.033486
-0.385112
-0.393973
-0.397768
0.042704
0.041997
0.047426
0.011721
0.009176
-0.004172
-0.552594
-0.561114
-0.558078
-0.162965
-0.162772
-0.151225
-0.132793
-0.147246
0.036141
0.012444
-0.008556
-0.163633
-0.150082
-0.156112
-0.538948
-0.155019
-0.143695
-0.143960
-0.164304
-0.179509
-0.167214
-0.179019
-0.157583
-0.305446
0.011650
0.015544
-0.195423
-0.200841
-0.216759
-0.149170
-0.147789
0.012633
-0.080942
-0.087516
-0.074838
-0.147847
-0.083464
0.056271
0.051652
0.053317
-0.133938
-0.136187
-0.151757
-0.167129
-0.540787
-0.531576
-0.183070
-0.188800
-0.202112
0.230859
0.211337
0.141068
0.154189
-0.518943
-0.533593
-0.526848
-0.136633
-0.133906
-0.520105
-0.515671
-0.517381
-0.006100
-0.026945
0.141851
0.139245
0.119830
0.101274
0.104322
0.048534
-0.132990
-0.116760
-0.119759
0.061551
0.064774
-0.269618
-0.261447
-0.274212
-0.268758
-0.140033
-0.155460
-0.172181
-0.529304
-0.176125
-0.190284
-0.125120
-0.121271
-0.195728
-0.202495
-0.181496
-0.031861
-0.039398
-0.044217
0.044351
0.046202
-0.020187
-0.013131
-0.490037
-0.496488
-0.525034
-0.518298
-0.524312
-0.118172
-0.100847
-0.101064
-0.013379
-0.405306
-0.417369
-0.419643
0.059865
0.079817
-0.129410
-0.145361
0.052123
0.037958
0.035979
0.031083
-0.160471
-0.165321
0.029295
0.023799
-0.531131
-0.525516
-0.158278
-0.168706
-0.307225
-0.114076
-0.109457
-0.530338
-0.514315
-0.504179
-0.505746
-0.106729
-0.094669
-0.595115
-0.606199
-0.121751
-0.135603
-0.151774
-0.536322
-0.540914
-0.583246
-0.608771
-0.602808
-0.106121
-0.098217
-0.062820
0.007833
-0.041516
-0.190827
-0.002105
0.001712
-0.006494
-0.095006
-0.083158
-0.078391
-0.061842
-0.517539
-0.511009
-0.517733
-0.114539
-0.129501
-0.069295
-0.141210
-0.155704
-0.126580
-0.118335
-0.111679
-0.173069
-0.349458
-0.055558
-0.043831
-0.054276
-0.120567
-0.049765
-0.462700
-0.477670
-0.165912
-0.138274
-0.151043
-0.141022
-0.223220
-0.216851
-0.204635
-0.129804
-0.135712
-0.098992
-0.090990
-0.176704
-0.083474
-0.070811
-0.104134
-0.120333
-0.214165
-0.228310
-0.534429
0.077203
0.159197
0.078751
0.064230
-0.029826
-0.015796
-0.014354
-0.432165
-0.014133
-0.019581
-0.008881
-0.020928
-0.010474
-0.250047
-0.240995
-0.230600
-0.025802
-0.029282
-0.035316
0.045189
0.050206
0.031337
-0.093654
-0.020057
-0.450505
-0.450799
-0.461059
-0.464072
-0.193178
-0.205985
-0.190002
-0.056401
-0.248843
-0.508810
-0.511993
-0.497947
-0.018791
-0.026498
-0.030877
-0.204618
0.024985
0.016658
0.028609
0.011550
0.009459
-0.473421
0.111301
0.121860
0.131072
-0.018747
-0.384697
-0.369263
-0.382085
-0.369118
0.103238
-0.048071
-0.036711
-0.041887
-0.043006
-0.196150
-0.199490
-0.188303
0.209133
-0.210710
-0.195206
-0.204245
-0.204099
-0.214852
-0.374788
-0.362925
-0.221476
-0.215023
-0.202959
-0.259002
-0.054303
-0.429193
-0.436506
-0.418542
-0.444099
-0.476519
-0.464695
-0.474558
-0.472125
-0.204468
-0.209970
-0.195780
-0.219597
-0.116362
-0.113678
-0.125372
0.029966
0.031605
0.074952
0.092357
0.076706
0.091425
0.078933
0.063125
-0.483952
-0.493354
-0.482728
-0.493708
-0.103830
-0.418992
-0.431469
-0.434409
0.058779
0.051639
-0.422473
-0.051865
0.031057
0.030712
0.037782
0.034729
0.035104
-0.172964
-0.187290
0.060919
-0.503316
-0.493146
-0.506071
-0.500403
-0.239313
0.199407
0.191333
-0.064998
-0.046705
-0.051973
-0.058025
0.076082
0.082416
0.080704
-0.039936
-0.009818
-0.007997
-0.015622
-0.013898
-0.016986
-0.318954
-0.336662
-0.326819
-0.184697
-0.176811
-0.079995
-0.090723
-0.091135
-0.102412
-0.206982
-0.207964
-0.198835
-0.218242
-0.220840
-0.242371
-0.253958
-0.178205
-0.165048
-0.164136
-0.175736
-0.099027
-0.105895
-0.109810
-0.286569
-0.282108
-0.270436
-0.298826
-0.121453
-0.106802
0.089802
0.081935
0.089807
-0.278278
-0.292971
-0.292111
-0.271618
-0.283663
-0.032049
-0.038963
-0.268648
-0.280722
-0.265902
-0.285340
-0.285747
-0.218813
-0.227146
-0.296132
-0.308121
-0.308066
-0.510118
-0.502730
-0.498246
-0.513255
-0.508035
-0.187911
-0.109093
-0.093748
0.021634
0.034364
0.037704
0.017658
0.010059
-0.338614
-0.379942
-0.435289
-0.445456
-0.435881
-0.005522
0.004886
-0.002954
-0.031006
0.008460
-0.048157
-0.045323
-0.037133
-0.511612
-0.033980
-0.177204
-0.032944
-0.023017
-0.037651
-0.179180
-0.177228
-0.182038
-0.142889
-0.151383
-0.145507
-0.151066
-0.135187
-0.142966
0.005345
0.014443
0.019778
-0.104740
-0.113338
-0.090941
-0.084921
-0.096991
-0.321853
-0.319989
-0.134838
-0.151195
-0.166748
-0.161137
-0.215512
-0.219140
-0.238267
-0.241098
0.046239
-0.298694
-0.302255
-0.313737
-0.327226
-0.325853
-0.341688
-0.250955
-0.256055
-0.234015
-0.449869
-0.457881
-0.204213
-0.094901
-0.106221
-0.100525
-0.112796
-0.268504
-0.269920
-0.254816
-0.285651
0.110967
0.099631
-0.292344
0.195383
-0.047278
-0.059246
-0.074204
-0.075495
-0.093260
-0.298289
-0.285706
-0.296482
-0.363816
-0.361814
-0.376382
-0.020863
-0.024415
-0.030948
-0.273291
-0.286027
-0.032552
-0.021162
-0.262019
-0.277562
-0.272076
-0.004933
-0.006366
0.003487
-0.016581
-0.426741
-0.437490
-0.421303
-0.442560
-0.043455
-0.039004
-0.027563
-0.055232
-0.046585
-0.053041
-0.239798
0.089524
0.098285
0.088673
0.099713
0.080399
0.090868
-0.235155
-0.224791
-0.232240
-0.231805
-0.217611
-0.453083
-0.449608
-0.432427
-0.457453
-0.469571
-0.470223
0.066187
0.068919
-0.455005
-0.467150
-0.462536
0.048631
0.027382
-0.478323
0.036303
0.037342
0.029866
-0.443461
0.151643
0.066751
0.087172
0.078946
0.067299
0.074025
0.076997
-0.003494
-0.018646
-0.002686
0.006847
-0.303974
-0.287120
-0.355556
-0.345793
-0.340394
-0.363715
-0.328021
-0.334410
-0.322522
-0.357752
-0.354409
-0.372517
0.017620
0.023593
0.008647
-0.127029
-0.140988
-0.285810
-0.280136
-0.115069
-0.436293
-0.438139
-0.457137
-0.426515
-0.422408
-0.409538
-0.422449
-0.412908
-0.402323
-0.404669
-0.407400
-0.421683
-0.419544
-0.459547
-0.461573
-0.475026
-0.473057
-0.438229
-0.439423
0.031298
-0.435084
-0.422855
-0.603213
-0.609879
-0.429689
-0.412003
-0.442924
-0.422682
-0.340198
-0.334959
-0.322694
-0.302240
-0.321092
-0.434206
-0.404760
0.063134
0.053124
0.067784
0.047835
-0.446063
-0.459126
-0.322832
-0.323444
-0.309929
0.064114
0.067002
0.064736
0.068469
0.061883
0.063692
0.061269
-0.191421
-0.482410
-0.469348
0.068277
0.054979
-0.411607
-0.404187
-0.397944
-0.210342