# vtk DataFile Version 2.0
Test
ASCII
DATASET POLYDATA
POINTS 6577 float
0.000000 0.000000 0.000000
2.000000 0.000000 0.000000
2.000000 4.000000 0.000000
0.000000 4.000000 0.000000
0.000000 0.500000 0.000000
1.500000 2.000000 0.000000
2.000000 2.500000 0.000000
0.040000 0.000000 0.000000
0.080000 0.000000 0.000000
0.120000 0.000000 0.000000
0.160000 0.000000 0.000000
0.200000 0.000000 0.000000
0.240000 0.000000 0.000000
0.280000 0.000000 0.000000
0.320000 0.000000 0.000000
0.360000 0.000000 0.000000
0.400000 0.000000 0.000000
0.440000 0.000000 0.000000
0.480000 0.000000 0.000000
0.520000 0.000000 0.000000
0.560000 0.000000 0.000000
0.600000 0.000000 0.000000
0.640000 0.000000 0.000000
0.680000 0.000000 0.000000
0.720000 0.000000 0.000000
0.760000 0.000000 0.000000
0.800000 0.000000 0.000000
0.840000 0.000000 0.000000
0.880000 0.000000 0.000000
0.920000 0.000000 0.000000
0.960000 0.000000 0.000000
1.000000 0.000000 0.000000
1.040000 0.000000 0.000000
1.080000 0.000000 0.000000
1.120000 0.000000 0.000000
1.160000 0.000000 0.000000
1.200000 0.000000 0.000000
1.240000 0.000000 0.000000
1.280000 0.000000 0.000000
1.320000 0.000000 0.000000
1.360000 0.000000 0.000000
1.400000 0.000000 0.000000
1.440000 0.000000 0.000000
1.480000 0.000000 0.000000
1.520000 0.000000 0.000000
1.560000 0.000000 0.000000
1.600000 0.000000 0.000000
1.640000 0.000000 0.000000
1.680000 0.000000 0.000000
1.720000 0.000000 0.000000
1.760000 0.000000 0.000000
1.800000 0.000000 0.000000
1.840000 0.000000 0.000000
1.880000 0.000000 0.000000
1.920000 0.000000 0.000000
1.960000 0.000000 0.000000
2.000000 0.039683 0.000000
2.000000 0.079365 0.000000
2.000000 0.119048 0.000000
2.000000 0.158730 0.000000
2.000000 0.198413 0.000000
2.000000 0.238095 0.000000
2.000000 0.277778 0.000000
2.000000 0.317460 0.000000
2.000000 0.357143 0.000000
2.000000 0.396825 0.000000
2.000000 0.436508 0.000000
2.000000 0.476190 0.000000
2.000000 0.515873 0.000000
2.000000 0.555556 0.000000
2.000000 0.595238 0.000000
2.000000 0.634921 0.000000
2.000000 0.674603 0.000000
2.000000 0.714286 0.000000
2.000000 0.753968 0.000000
2.000000 0.793651 0.000000
2.000000 0.833333 0.000000
2.000000 0.873016 0.000000
2.000000 0.912698 0.000000
2.000000 0.952381 0.000000
2.000000 0.992063 0.000000
2.000000 1.031746 0.000000
2.000000 1.071429 0.000000
2.000000 1.111111 0.000000
2.000000 1.150794 0.000000
2.000000 1.190476 0.000000
2.000000 1.230159 0.000000
2.000000 1.269841 0.000000
2.000000 1.309524 0.000000
2.000000 1.349206 0.000000
2.000000 1.388889 0.000000
2.000000 1.428571 0.000000
2.000000 1.468254 0.000000
2.000000 1.507937 0.000000
2.000000 1.547619 0.000000
2.000000 1.587302 0.000000
2.000000 1.626984 0.000000
2.000000 1.666667 0.000000
2.000000 1.706349 0.000000
2.000000 1.746032 0.000000
2.000000 1.785714 0.000000
2.000000 1.825397 0.000000
2.000000 1.865079 0.000000
2.000000 1.904762 0.000000
2.000000 1.944444 0.000000
2.000000 1.984127 0.000000
2.000000 2.023810 0.000000
2.000000 2.063492 0.000000
2.000000 2.103175 0.000000
2.000000 2.142857 0.000000
2.000000 2.182540 0.000000
2.000000 2.222222 0.000000
2.000000 2.261905 0.000000
2.000000 2.301587 0.000000
2.000000 2.341270 0.000000
2.000000 2.380952 0.000000
2.000000 2.420635 0.000000
2.000000 2.460317 0.000000
2.000000 2.539474 0.000000
2.000000 2.578947 0.000000
2.000000 2.618421 0.000000
2.000000 2.657895 0.000000
2.000000 2.697368 0.000000
2.000000 2.736842 0.000000
2.000000 2.776316 0.000000
2.000000 2.815789 0.000000
2.000000 2.855263 0.000000
2.000000 2.894737 0.000000
2.000000 2.934211 0.000000
2.000000 2.973684 0.000000
2.000000 3.013158 0.000000
2.000000 3.052632 0.000000
2.000000 3.092105 0.000000
2.000000 3.131579 0.000000
2.000000 3.171053 0.000000
2.000000 3.210526 0.000000
2.000000 3.250000 0.000000
2.000000 3.289474 0.000000
2.000000 3.328947 0.000000
2.000000 3.368421 0.000000
2.000000 3.407895 0.000000
2.000000 3.447368 0.000000
2.000000 3.486842 0.000000
2.000000 3.526316 0.000000
2.000000 3.565789 0.000000
2.000000 3.605263 0.000000
2.000000 3.644737 0.000000
2.000000 3.684211 0.000000
2.000000 3.723684 0.000000
2.000000 3.763158 0.000000
2.000000 3.802632 0.000000
2.000000 3.842105 0.000000
2.000000 3.881579 0.000000
2.000000 3.921053 0.000000
2.000000 3.960526 0.000000
1.960000 4.000000 0.000000
1.920000 4.000000 0.000000
1.880000 4.000000 0.000000
1.840000 4.000000 0.000000
1.800000 4.000000 0.000000
1.760000 4.000000 0.000000
1.720000 4.000000 0.000000
1.680000 4.000000 0.000000
1.640000 4.000000 0.000000
1.600000 4.000000 0.000000
1.560000 4.000000 0.000000
1.520000 4.000000 0.000000
1.480000 4.000000 0.000000
1.440000 4.000000 0.000000
1.400000 4.000000 0.000000
1.360000 4.000000 0.000000
1.320000 4.000000 0.000000
1.280000 4.000000 0.000000
1.240000 4.000000 0.000000
1.200000 4.000000 0.000000
1.160000 4.000000 0.000000
1.120000 4.000000 0.000000
1.080000 4.000000 0.000000
1.040000 4.000000 0.000000
1.000000 4.000000 0.000000
0.960000 4.000000 0.000000
0.920000 4.000000 0.000000
0.880000 4.000000 0.000000
0.840000 4.000000 0.000000
0.800000 4.000000 0.000000
0.760000 4.000000 0.000000
0.720000 4.000000 0.000000
0.680000 4.000000 0.000000
0.640000 4.000000 0.000000
0.600000 4.000000 0.000000
0.560000 4.000000 0.000000
0.520000 4.000000 0.000000
0.480000 4.000000 0.000000
0.440000 4.000000 0.000000
0.400000 4.000000 0.000000
0.360000 4.000000 0.000000
0.320000 4.000000 0.000000
0.280000 4.000000 0.000000
0.240000 4.000000 0.000000
0.200000 4.000000 0.000000
0.160000 4.000000 0.000000
0.120000 4.000000 0.000000
0.080000 4.000000 0.000000
0.040000 4.000000 0.000000
0.000000 3.960227 0.000000
0.000000 3.920455 0.000000
0.000000 3.880682 0.000000
0.000000 3.840909 0.000000
0.000000 3.801136 0.000000
0.000000 3.761364 0.000000
0.000000 3.721591 0.000000
0.000000 3.681818 0.000000
0.000000 3.642045 0.000000
0.000000 3.602273 0.000000
0.000000 3.562500 0.000000
0.000000 3.522727 0.000000
0.000000 3.482955 0.000000
0.000000 3.443182 0.000000
0.000000 3.403409 0.000000
0.000000 3.363636 0.000000
0.000000 3.323864 0.000000
0.000000 3.284091 0.000000
0.000000 3.244318 0.000000
0.000000 3.204545 0.000000
0.000000 3.164773 0.000000
0.000000 3.125000 0.000000
0.000000 3.085227 0.000000
0.000000 3.045455 0.000000
0.000000 3.005682 0.000000
0.000000 2.965909 0.000000
0.000000 2.926136 0.000000
0.000000 2.886364 0.000000
0.000000 2.846591 0.000000
0.000000 2.806818 0.000000
0.000000 2.767045 0.000000
0.000000 2.727273 0.000000
0.000000 2.687500 0.000000
0.000000 2.647727 0.000000
0.000000 2.607955 0.000000
0.000000 2.568182 0.000000
0.000000 2.528409 0.000000
0.000000 2.488636 0.000000
0.000000 2.448864 0.000000
0.000000 2.409091 0.000000
0.000000 2.369318 0.000000
0.000000 2.329545 0.000000
0.000000 2.289773 0.000000
0.000000 2.250000 0.000000
0.000000 2.210227 0.000000
0.000000 2.170455 0.000000
0.000000 2.130682 0.000000
0.000000 2.090909 0.000000
0.000000 2.051136 0.000000
0.000000 2.011364 0.000000
0.000000 1.971591 0.000000
0.000000 1.931818 0.000000
0.000000 1.892045 0.000000
0.000000 1.852273 0.000000
0.000000 1.812500 0.000000
0.000000 1.772727 0.000000
0.000000 1.732955 0.000000
0.000000 1.693182 0.000000
0.000000 1.653409 0.000000
0.000000 1.613636 0.000000
0.000000 1.573864 0.000000
0.000000 1.534091 0.000000
0.000000 1.494318 0.000000
0.000000 1.454545 0.000000
0.000000 1.414773 0.000000
0.000000 1.375000 0.000000
0.000000 1.335227 0.000000
0.000000 1.295455 0.000000
0.000000 1.255682 0.000000
0.000000 1.215909 0.000000
0.000000 1.176136 0.000000
0.000000 1.136364 0.000000
0.000000 1.096591 0.000000
0.000000 1.056818 0.000000
0.000000 1.017045 0.000000
0.000000 0.977273 0.000000
0.000000 0.937500 0.000000
0.000000 0.897727 0.000000
0.000000 0.857955 0.000000
0.000000 0.818182 0.000000
0.000000 0.778409 0.000000
0.000000 0.738636 0.000000
0.000000 0.698864 0.000000
0.000000 0.659091 0.000000
0.000000 0.619318 0.000000
0.000000 0.579545 0.000000
0.000000 0.539773 0.000000
0.000000 0.461538 0.000000
0.000000 0.423077 0.000000
0.000000 0.384615 0.000000
0.000000 0.346154 0.000000
0.000000 0.307692 0.000000
0.000000 0.269231 0.000000
0.000000 0.230769 0.000000
0.000000 0.192308 0.000000
0.000000 0.153846 0.000000
0.000000 0.115385 0.000000
0.000000 0.076923 0.000000
0.000000 0.038462 0.000000
0.027778 0.527778 0.000000
0.055556 0.555556 0.000000
0.083333 0.583333 0.000000
0.111111 0.611111 0.000000
0.138889 0.638889 0.000000
0.166667 0.666667 0.000000
0.194444 0.694444 0.000000
0.222222 0.722222 0.000000
0.250000 0.750000 0.000000
0.277778 0.777778 0.000000
0.305556 0.805556 0.000000
0.333333 0.833333 0.000000
0.361111 0.861111 0.000000
0.388889 0.888889 0.000000
0.416667 0.916667 0.000000
0.444444 0.944444 0.000000
0.472222 0.972222 0.000000
0.500000 1.000000 0.000000
0.527778 1.027778 0.000000
0.555556 1.055556 0.000000
0.583333 1.083333 0.000000
0.611111 1.111111 0.000000
0.638889 1.138889 0.000000
0.666667 1.166667 0.000000
0.694444 1.194444 0.000000
0.722222 1.222222 0.000000
0.750000 1.250000 0.000000
0.777778 1.277778 0.000000
0.805556 1.305556 0.000000
0.833333 1.333333 0.000000
0.861111 1.361111 0.000000
0.888889 1.388889 0.000000
0.916667 1.416667 0.000000
0.944444 1.444444 0.000000
0.972222 1.472222 0.000000
1.000000 1.500000 0.000000
1.027778 1.527778 0.000000
1.055556 1.555556 0.000000
1.083333 1.583333 0.000000
1.111111 1.611111 0.000000
1.138889 1.638889 0.000000
1.166667 1.666667 0.000000
1.194444 1.694444 0.000000
1.222222 1.722222 0.000000
1.250000 1.750000 0.000000
1.277778 1.777778 0.000000
1.305556 1.805556 0.000000
1.333333 1.833333 0.000000
1.361111 1.861111 0.000000
1.388889 1.888889 0.000000
1.416667 1.916667 0.000000
1.444444 1.944444 0.000000
1.472222 1.972222 0.000000
1.527778 2.027778 0.000000
1.555556 2.055556 0.000000
1.583333 2.083333 0.000000
1.611111 2.111111 0.000000
1.638889 2.138889 0.000000
1.666667 2.166667 0.000000
1.694444 2.194444 0.000000
1.722222 2.222222 0.000000
1.750000 2.250000 0.000000
1.777778 2.277778 0.000000
1.805556 2.305556 0.000000
[...]
POINT_DATA 6577
SCALARS UX float 1
LOOKUP_TABLE default
-0.000096
0.000137
-0.071713
-0.866245
-0.266318
0.443342
0.491999
0.000023
-0.000006
-0.000001
0.000002
-0.000003
-0.000012
0.000002
0.000002
0.000004
0.000001
0.000001
0.000001
0.000001
0.000002
-0.000001
0.000001
-0.000002
-0.000001
0.000000
-0.000001
-0.000001
0.000000
0.000000
0.000001
0.000000
-0.000000
0.000000
0.000000
0.000000
-0.000000
-0.000000
0.000001
-0.000002
-0.000000
0.000000
-0.000000
0.000001
0.000000
-0.000000
-0.000001
-0.000001
-0.000000
-0.000001
0.000003
-0.000003
0.000002
-0.000000
-0.000001
-0.000018
0.024166
0.032596
0.041732
0.049033
0.055881
0.062519
0.068575
0.074880
0.081362
0.087867
0.095057
0.103661
0.110605
0.115840
0.120583
0.125485
0.130547
0.135413
0.140424
0.145664
0.150958
0.157468
0.164014
0.170111
0.178178
0.186801
0.195388
0.205159
0.216249
0.228295
0.242681
0.257797
0.272375
0.288239
0.302595
0.321038
0.339829
0.359809
0.379366
0.398949
0.418357
0.437918
0.457267
0.475849
0.493410
0.509988
0.525714
0.540379
0.552882
0.562969
0.569971
0.573996
0.575498
0.574947
0.574430
0.572654
0.568691
0.563564
0.546963
0.536244
0.524407
0.501974
0.479695
0.463933
0.452383
0.437401
0.406871
0.346391
0.331062
0.316530
0.290163
0.279375
0.261174
0.253344
0.232129
0.222244
0.216684
0.214185
0.218959
0.222506
0.221739
0.215916
0.220554
0.232126
0.218211
0.207804
0.185045
0.153617
0.107852
0.074893
0.028718
-0.008770
-0.038109
-0.049034
-0.051691
-0.055762
-0.060782
-0.069271
-0.070873
-0.091229
-0.110332
-0.128531
-0.146398
-0.164952
-0.184533
-0.205227
-0.226775
-0.248829
-0.271433
-0.295640
-0.320504
-0.346520
-0.373667
-0.397498
-0.420048
-0.440871
-0.460052
-0.477819
-0.494508
-0.510208
-0.525466
-0.540192
-0.554043
-0.566580
-0.579133
-0.592031
-0.604069
-0.616079
-0.628423
-0.641055
-0.653704
-0.665677
-0.677381
-0.689454
-0.701333
-0.712669
-0.723918
-0.735444
-0.747165
-0.758688
-0.770479
-0.782453
-0.794387
-0.806278
-0.818331
-0.830401
-0.842252
-0.854066
-0.865900
-0.865623
-0.865812
-0.865512
-0.864642
-0.864390
-0.864806
-0.864696
-0.865715
-0.865888
-0.865153
-0.863545
-0.861057
-0.858657
-0.851808
-0.844987
-0.836689
-0.827539
-0.817629
-0.803762
-0.789761
-0.773997
-0.756095
-0.737518
-0.719569
-0.699178
-0.680617
-0.660788
-0.643943
-0.623453
-0.604195
-0.585106
-0.568636
-0.557448
-0.545185
-0.538110
-0.527758
-0.519362
-0.514303
-0.505642
-0.490928
-0.472619
-0.449049
-0.420286
-0.389980
-0.373930
-0.362713
-0.356214
-0.351887
-0.349735
-0.350671
-0.352843
-0.353055
-0.350347
-0.352071
-0.355386
-0.359305
-0.364158
-0.368821
-0.371799
-0.376927
-0.380953
-0.384482
-0.387335
-0.389713
-0.390989
-0.391284
-0.390368
-0.388509
-0.385325
-0.380765
-0.374479
-0.366733
-0.357348
-0.346398
-0.334450
-0.321820
-0.308664
-0.295503
-0.282735
-0.270401
-0.258439
-0.249825
-0.252019
-0.277968
-0.324386
-0.394794
-0.181834
-0.175198
-0.172070
-0.166611
-0.159965
-0.151363
-0.140932
-0.129302
-0.115123
-0.098957
-0.081201
-0.045737
-0.268435
-0.371411
-0.270861
-0.218934
-0.156641
-0.179897
-0.176307
-0.177070
-0.193075
-0.220205
-0.202877
-0.204209
-0.230027
-0.214041
-0.213953
-0.226771
-0.241981
-0.251625
-0.258492
-0.237773
-0.269241
-0.302487
-0.323966
-0.363046
-0.341049
-0.261992
-0.291020
-0.206414
-0.162379
-0.321302
-0.320735
-0.291651
-0.252870
-0.218975
-0.132735
-0.097896
-0.047969
-0.105345
-0.039659
0.010463
0.102624
0.161329
0.196432
0.209045
0.232900
0.236312
0.187832
0.151335
0.287603
0.332643
0.371553
0.369787
0.380348
0.456573
0.398579
0.401170
0.412855
0.414358
0.416679
0.422070
0.428114
0.435160
0.435722
0.432740
0.422979
0.439909
0.449507
0.453472
0.462097
0.475898
0.443646
0.435532
-0.858109
-0.857753
-0.085043
-0.077991
0.457212
0.463445
0.434962
0.332768
0.305711
-0.186650
-0.225737
-0.210575
0.140097
0.129578
0.148034
-0.238539
-0.158873
-0.141095
-0.149056
-0.341556
-0.327458
-0.323958
-0.804831
-0.809373
-0.798293
-0.816256
-0.830062
-0.826209
-0.336832
-0.168811
-0.134043
-0.147992
-0.339430
-0.357558
-0.336984
-0.778818
-0.763574
-0.762620
-0.156670
-0.400242
-0.401634
-0.418835
0.105578
0.093242
0.098597
-0.345483
-0.346044
-0.361329
-0.359445
-0.700306
-0.711339
-0.705758
-0.709970
-0.689142
-0.701569
-0.690704
-0.703758
-0.350298
-0.334451
-0.350078
0.092117
-0.019939
-0.048233
-0.025646
0.385439
0.420338
-0.042891
-0.230282
-0.231869
-0.212081
-0.251298
-0.694232
-0.688972
-0.674954
-0.104163
-0.145679
-0.115205
-0.130462
0.210664
0.208868
0.214855
0.209075
-0.478782
-0.507090
-0.485756
-0.507282
-0.366785
-0.357534
-0.372039
-0.185917
-0.167229
-0.161685
0.389526
0.417854
0.380965
0.410762
0.330943
0.352715
0.287693
-0.231259
-0.241909
-0.253702
0.197825
0.192176
0.197133
0.188660
-0.353785
-0.817933
-0.829156
-0.820794
-0.605656
-0.593776
-0.596477
-0.607662
-0.589912
-0.597550
-0.574079
-0.576886
-0.204570
-0.184807
-0.197117
-0.557463
-0.562079
-0.571251
-0.091585
-0.163085
-0.132567
0.238587
0.293615
0.248745
0.417471
-0.076386
-0.053354
-0.060350
-0.050762
-0.070882
-0.058720
-0.161367
-0.142781
-0.598905
-0.587559
-0.577372
-0.675589
-0.656987
-0.668102
-0.611899
-0.549022
-0.560838
-0.543120
-0.794356
-0.788982
-0.800276
-0.175028
-0.074903
-0.061923
-0.080111
-0.451193
-0.440725
-0.457373
-0.246966
-0.249098
-0.237770
0.261818
0.287080
0.243403
0.276093
0.073060
0.063471
0.068095
0.054327
0.395604
0.410759
-0.433300
-0.433215
-0.448868
-0.418762
-0.794076
-0.806667
-0.793982
-0.028664
-0.015950
-0.038092
-0.033214
-0.055145
-0.034603
-0.009560
-0.810697
-0.684014
-0.670778
-0.678055
-0.119633
-0.139504
-0.144576
-0.168090
-0.677867
-0.546402
-0.560519
-0.616354
-0.610529
-0.622447
-0.806424
-0.811036
0.111049
0.116210
0.100185
-0.366770
-0.370251
-0.367552
-0.327177
-0.309497
-0.303101
-0.358933
-0.363272
-0.360680
-0.286883
-0.354249
-0.357746
-0.354225
-0.067028
-0.103679
-0.105193
-0.067341
-0.816553
-0.828287
-0.822341
-0.834750
-0.850320
-0.847996
-0.098877
-0.102496
0.180922
0.187708
0.191561
0.181552
-0.650374
-0.649620
-0.641238
-0.347361
-0.349499
-0.343355
-0.637823
0.160167
0.158440
0.150464
-0.252231
-0.254882
-0.773971
-0.757478
-0.758717
-0.002344
-0.015500
0.284849
0.297055
0.339369
0.347961
-0.409569
-0.428775
-0.411569
-0.438318
-0.337107
-0.344741
-0.346921
-0.333656
-0.360433
-0.358525
-0.355306
-0.374144
-0.372224
-0.376700
-0.381056
-0.376050
-0.259032
-0.262706
-0.269827
-0.273952
-0.263527
-0.354245
-0.354115
-0.137782
-0.120258
-0.359000
-0.363385
-0.362542
-0.824052
-0.197423
-0.215396
-0.193587
-0.367719
-0.353479
0.210223
0.205268
0.208178
0.207288
-0.317866
-0.302317
-0.310522
-0.009393
-0.004466
-0.018586
-0.034555
0.003899
-0.236220
-0.221167
-0.213347
0.012427
0.019813
0.028392
0.006204
-0.381522
-0.385475
-0.381466
-0.740164
-0.742023
-0.731017
-0.210513
-0.249056
-0.265403
-0.244960
-0.351748
-0.351315
-0.355947
-0.258215
-0.261644
-0.165877
-0.254022
-0.250471
-0.339726
-0.340904
-0.331170
-0.348428
-0.345850
-0.280338
-0.279264
-0.271408
-0.285391
-0.197553
-0.192236
-0.209840
-0.116943
-0.109482
-0.351122
-0.349711
-0.350997
-0.348448
-0.349020
-0.157793
-0.854928
-0.354583
-0.351833
-0.360814
-0.356615
-0.362113
-0.072386
-0.112949
-0.092464
-0.843835
-0.839430
-0.346207
-0.344031
-0.111080
-0.095773
-0.081881
-0.073055
-0.358653
0.006863
0.031389
0.026495
0.044049
-0.372709
-0.368442
-0.687132
-0.698209
-0.683307
-0.261583
-0.269446
-0.270771
-0.253842
-0.288592
-0.693907
-0.152856
-0.053565
-0.075158
-0.047677
-0.813692
-0.292313
-0.281498
-0.297665
-0.836738
-0.388312
-0.384298
-0.386701
-0.070146
-0.046213
-0.139630
-0.125721
-0.131310
-0.242107
-0.218195
0.106124
0.120049
-0.827143
-0.829368
-0.821125
-0.666809
-0.659171
-0.267408
-0.280843
-0.281184
-0.257992
-0.288146
-0.348310
-0.353884
-0.239468
-0.251631
-0.224332
-0.358444
-0.363819
-0.380366
-0.378024
-0.369411
-0.300432
-0.657023
0.084803
0.086604
-0.374324
-0.855975
-0.303930
-0.292355
-0.310323
-0.836776
-0.832954
0.177751
0.173227
0.183904
-0.346802
-0.069000
-0.103152
-0.085131
-0.116712
-0.281864
-0.288013
-0.291383
-0.283019
-0.342629
-0.344965
-0.341559
-0.335812
-0.346490
-0.342753
-0.345534
-0.312484
-0.255477
-0.239691
-0.226774
-0.166049
-0.283068
-0.271512
-0.297123
-0.804923
0.186887
-0.149125
-0.150855
-0.134161
-0.315482
-0.303409
-0.323344
-0.813374
-0.815182
-0.822808
-0.278781
-0.298707
-0.301916
-0.265975
-0.325370
-0.254216
-0.267685
-0.337932
-0.332314
0.177915
0.360151
0.388121
0.382521
-0.851331
-0.845460
-0.832430
-0.825672
-0.087816
-0.069293
-0.247131
-0.237760
-0.254715
-0.265897
-0.764641
-0.763165
-0.752982
-0.344045
-0.106558
-0.123733
-0.325401
-0.314156
-0.337984
-0.297004
-0.307314
-0.311050
-0.286690
-0.344238
-0.166422
-0.181061
-0.275138
-0.804008
-0.794821
-0.411063
-0.404770
-0.423153
-0.336524
-0.165050
-0.144596
-0.803177
-0.814146
-0.323948
-0.346266
-0.352918
-0.376001
0.436385
0.416477
-0.364218
-0.469190
0.151321
0.137342
0.150120
-0.299936
-0.314723
-0.321073
-0.285926
-0.254818
-0.236465
-0.231945
-0.839509
-0.417750
0.134534
-0.827154
-0.819278
-0.846097
-0.084398
-0.061980
-0.012118
0.009635
0.000153
-0.101972
-0.127486
-0.345422
-0.000867
-0.020793
0.266068
0.335645
0.295199
-0.766547
-0.777053
-0.768944
-0.781259
-0.239560
-0.645344
0.356729
0.413122
-0.225600
-0.340284
-0.347222
-0.802864
-0.305489
-0.352031
-0.358537
-0.323317
-0.329871
-0.293356
-0.181469
0.355951
0.134783
0.145019
0.135699
-0.793332
0.144962
-0.053785
-0.035500
-0.064522
-0.176265
-0.152561
-0.197489
-0.793673
-0.805234
-0.784421
-0.377555
-0.353899
-0.382256
0.195614
0.196486
0.201047
0.191797
-0.203927
-0.341745
-0.364855
-0.320420
-0.370897
-0.191498
-0.761968
-0.765219
-0.753319
-0.332343
-0.338114
-0.756950
-0.754400
-0.339565
0.209749
0.135309
0.137255
0.159040
-0.395701
-0.403218
-0.387677
-0.388409
0.335992
-0.199822
-0.208713
-0.832028
-0.775540
0.111709
0.100571
0.115056
-0.820064
-0.815035
-0.843965
-0.080441
-0.332984
-0.336879
-0.106778
-0.127285
-0.051219
0.132801
0.120822
0.154376
0.146101
0.142181
-0.334072
-0.339081
-0.342453
0.125072
-0.340482
-0.196868
-0.338358
-0.340278
-0.345261
-0.783064
-0.271102
-0.372457
-0.325395
-0.315528
-0.332444
-0.189849
-0.323312
-0.214772
-0.784935
-0.333844
-0.315008
-0.772842
-0.325508
-0.511383
-0.518048
-0.525440
-0.225788
0.288871
-0.358469
-0.182048
-0.170602
-0.157614
-0.499161
0.089048
0.085134
0.076582
-0.428889
-0.410343
-0.329646
-0.338598
-0.839152
-0.834098
-0.823426
0.071832
-0.534514
-0.519880
-0.343733
-0.351796
-0.435028
-0.419357
-0.374780
-0.380144
-0.359158
-0.366004
-0.815000
-0.825900
-0.810254
-0.117438
-0.089714
-0.050141
-0.136822
-0.329472
0.243208
0.229902
0.219510
-0.320747
-0.325954
-0.321861
-0.328346
0.231423
-0.345340
-0.337112
-0.352434
-0.334960
-0.075115
-0.089550
-0.222526
-0.373589
-0.367997
-0.372604
-0.329567
-0.334595
-0.094382
-0.817084
0.048643
0.061821
0.069635
-0.796699
-0.808280
-0.335616
-0.108682
0.149542
0.135790
-0.315267
-0.328963
-0.312741
0.125909
-0.431751
-0.458851
-0.456280
-0.427386
-0.159971
-0.170070
0.307077
0.375232
0.113607
0.101003
0.104103
-0.189772
-0.197106
-0.181433
0.088211
-0.329047
-0.366968
-0.374556
-0.360876
-0.772667
-0.785725
-0.789854
-0.316927
-0.326341
-0.350788
-0.342191
-0.357843
-0.721166
-0.713331
-0.724096
-0.369275
-0.351185
-0.333697
-0.342253
-0.352463
-0.360507
-0.795026
0.006314
0.028587
0.012931
-0.306267
-0.310576
-0.316392
-0.390424
-0.420984
-0.393593
-0.838320
-0.848257
-0.850743
-0.834666
-0.307910
-0.315135
-0.183401
-0.203312
-0.358611
-0.327137
-0.330535
-0.323555
-0.844235
-0.790975
-0.803897
-0.783754
-0.317367
0.314213
-0.325373
-0.324105
-0.302318
-0.313677
-0.197924
-0.210298
-0.207322
-0.298754
-0.332495
-0.322308
-0.332516
-0.342829
-0.820302
-0.766788
-0.773345
-0.777735
-0.763702
-0.344780
-0.355683
0.179954
0.138986
0.147292
0.081128
-0.289891
-0.294730
-0.301075
-0.292660
-0.300043
-0.805833
-0.803760
-0.430321
-0.407130
-0.412731
-0.412054
-0.447214
-0.424413
-0.431505
-0.227359
-0.308448
-0.300931
-0.311549
-0.311439
-0.285802
-0.299048
-0.772158
0.015223
0.001547
0.023719
-0.433358
-0.310656
-0.321088
-0.333070
-0.335107
-0.347996
-0.798321
-0.271410
-0.276441
-0.377311
-0.351422
-0.364786
-0.362953
-0.283591
-0.787834
-0.778496
-0.209853
-0.194690
-0.214119
-0.452382
0.212924
0.204935
0.223045
0.228173
-0.214897
-0.228326
-0.274551
-0.289468
0.252770
0.280944
0.256471
-0.745089
-0.758128
-0.744917
-0.829324
-0.826144
-0.374599
-0.375758
-0.361616
-0.705165
-0.711651
-0.701707
-0.709070
-0.267367
-0.282418
-0.296859
-0.389296
-0.297570
-0.308793
-0.759492
-0.755894
0.150925
0.123873
-0.314785
-0.325609
-0.298766
-0.321465
0.193085
0.163421
-0.323479
-0.338775
-0.250799
-0.255694
-0.308556
-0.296759
-0.327971
-0.733108
-0.732839
-0.719993
0.141244
0.006181
-0.008733
-0.744003
-0.260672
-0.243361
-0.262927
-0.292214
-0.695471
-0.251771
-0.265346
-0.007875
0.002087
-0.024970
-0.463274
-0.450990
-0.470336
-0.468113
-0.484126
-0.452844
-0.039036
-0.052741
-0.064443
-0.080091
-0.743978
-0.710165
-0.714431
-0.726211
-0.101739
-0.162003
-0.200938
-0.764415
0.170095
0.169861
-0.247144
-0.264426
-0.049816
-0.061720
-0.072619
-0.090986
-0.281329
-0.389311
-0.381237
-0.285644
-0.306264
-0.002081
0.115985
0.133155
0.122794
-0.280142
-0.284160
-0.815785
-0.733466
-0.736290
-0.228356
-0.232829
-0.341388
-0.753600
-0.745273
-0.230566
-0.252276
-0.227865
-0.239628
-0.336986
-0.328073
-0.226680
-0.240886
-0.790918
-0.778523
-0.767988
-0.699392
-0.721003
-0.719092
-0.793563
-0.776835
-0.128056
-0.115449
-0.095518
-0.225471
-0.245001
-0.752804
-0.744535
0.126765
-0.264774
-0.621750
-0.616974
-0.629496
-0.624339
-0.246011
0.108543
0.102745
0.093673
-0.732493
-0.722728
-0.733118
-0.719756
-0.273423
-0.286433
-0.268971
-0.295313
-0.269322
-0.290118
-0.689949
-0.696273
-0.364101
-0.373898
0.091328
0.085661
-0.794580
0.153313
0.125303
0.124314
0.078491
-0.520213
-0.530479
-0.534521
0.180906
0.176803
0.182844
0.191134
0.191864
0.153151
-0.702768
-0.712766
-0.711042
-0.204728
-0.208544
-0.246796
-0.195960
-0.231110
0.172509
0.137532
0.096296
-0.215070
-0.200394
-0.214806
-0.683550
-0.149862
-0.120718
-0.125455
-0.203083
-0.224607
-0.263871
-0.290356
-0.258115
-0.446369
0.126239
0.133684
-0.246556
-0.250958
-0.271694
-0.181183
-0.183450
0.124991
-0.018012
-0.029998
-0.005440
-0.189156
-0.020141
0.195304
0.189413
0.192874
-0.173021
-0.186311
-0.181602
-0.203819
-0.689768
-0.681154
-0.226523
-0.231148
-0.249588
0.297601
0.306581
0.231984
0.260882
-0.780756
-0.794079
-0.781025
-0.159386
-0.158698
-0.661627
-0.656238
-0.660014
0.153359
0.114370
0.264370
0.276476
0.242560
0.226567
0.216559
0.187644
-0.164102
-0.146284
-0.155833
0.201217
0.202590
-0.381363
-0.372884
-0.387417
-0.382680
-0.161335
-0.183696
-0.207582
-0.672039
-0.209505
-0.229549
-0.139376
-0.136835
-0.295983
-0.304841
-0.277751
0.092902
0.078062
0.065391
0.169939
0.175797
0.028435
0.043719
-0.628901
-0.635078
-0.711210
-0.709698
-0.721595
-0.137154
-0.113550
-0.126807
0.046834
-0.651319
-0.665091
-0.670195
0.221852
0.240742
-0.143123
-0.165982
0.184620
0.173680
0.168466
0.164048
-0.187238
-0.190531
0.158465
0.153135
-0.733501
-0.735862
-0.247112
-0.261969
-0.435982
-0.120249
-0.115556
-0.690098
-0.662763
-0.652051
-0.656909
-0.116062
-0.096956
-0.776200
-0.788004
-0.129088
-0.149506
-0.293287
-0.766368
-0.777095
-0.750600
-0.785786
-0.774286
-0.106267
-0.096000
-0.041332
0.093490
-0.037076
-0.210698
0.058331
0.069692
0.053910
-0.092735
-0.073729
-0.014313
0.015230
-0.736333
-0.721566
-0.721033
-0.116176
-0.138126
0.003327
-0.219688
-0.242932
-0.118633
-0.093322
-0.079431
-0.267530
-0.543718
0.024083
-0.032018
-0.040328
-0.105345
0.035363
-0.685776
-0.703468
-0.226306
-0.193592
-0.209329
-0.194676
-0.368269
-0.352398
-0.328045
-0.132620
-0.148331
-0.094599
-0.084275
-0.191320
-0.072859
-0.052055
-0.099753
-0.121582
-0.353222
-0.380922
-0.775976
0.200579
0.204738
0.212633
0.202198
0.088625
0.111202
0.108675
-0.685153
0.054199
0.036866
0.059113
0.030902
0.053549
-0.399018
-0.379133
-0.366090
0.079326
0.072107
0.064207
0.200435
0.209037
0.193817
-0.083603
0.086343
-0.595913
-0.594536
-0.607048
-0.607453
-0.333784
-0.369999
-0.323832
-0.032065
-0.364872
-0.784593
-0.788395
-0.771894
0.098768
0.094000
0.085592
-0.364186
0.138036
0.127427
0.145210
0.118315
0.118059
-0.619178
0.230210
0.243008
0.254406
0.090334
-0.611902
-0.591505
-0.610628
-0.588207
0.220818
0.047972
0.066531
0.057357
0.057258
-0.302299
-0.313505
-0.299010
0.327875
-0.320925
-0.238823
-0.256572
-0.251864
-0.270490
-0.580541
-0.567040
-0.257063
-0.246890
-0.229121
-0.326870
-0.076547
-0.647043
-0.661113
-0.640959
-0.661908
-0.659425
-0.646840
-0.653689
-0.658987
-0.320203
-0.329566
-0.288718
-0.353507
-0.075085
-0.072119
-0.096164
0.069533
0.086019
0.216846
0.237199
0.225248
0.227740
0.231194
0.216275
-0.629500
-0.640447
-0.630685
-0.643416
-0.050259
-0.657959
-0.677720
-0.678090
0.174892
0.165485
-0.659247
-0.062317
0.153097
0.155430
0.163691
0.163054
0.156051
-0.271087
-0.314456
0.181169
-0.737679
-0.720349
-0.731233
-0.717265
-0.289087
0.330570
0.310830
-0.091783
0.046600
0.034403
0.019527
0.202313
0.204502
0.201619
0.074449
0.100595
0.100754
0.090778
0.090543
0.105817
-0.440035
-0.461561
-0.450192
-0.218578
-0.209214
-0.011908
-0.033357
-0.032252
-0.057040
-0.276900
-0.281284
-0.256117
-0.311046
-0.320322
-0.352788
-0.365046
-0.270697
-0.225146
-0.226662
-0.259824
-0.083682
-0.091050
-0.098260
-0.489314
-0.485593
-0.469888
-0.506324
-0.097413
-0.063854
0.206509
0.199541
0.208927
-0.390713
-0.407880
-0.406457
-0.315050
-0.397534
0.072582
0.063830
-0.447755
-0.463376
-0.440332
-0.473624
-0.338940
-0.331101
-0.337210
-0.412700
-0.426899
-0.426242
-0.766793
-0.764670
-0.750432
-0.763832
-0.751773
-0.286275
-0.099371
-0.072410
0.182203
0.205046
0.196396
0.175765
0.171401
-0.464876
-0.514720
-0.573565
-0.584019
-0.574424
0.059774
0.079301
0.067833
-0.009840
0.089239
0.033130
0.038879
0.049826
-0.709273
0.056243
-0.191229
0.064146
0.079423
0.058581
-0.280941
-0.275310
-0.283893
-0.168160
-0.199333
-0.181325
-0.191476
-0.139696
-0.160604
0.107657
0.118891
0.128466
-0.069768
-0.091528
-0.040266
-0.027629
-0.047898
-0.497918
-0.495885
-0.202639
-0.237136
-0.260888
-0.251147
-0.331411
-0.347416
-0.404970
-0.405807
0.138405
-0.490843
-0.499684
-0.514336
-0.534983
-0.529888
-0.554422
-0.414871
-0.418056
-0.383363
-0.631523
-0.645016
-0.306426
-0.025710
-0.046087
-0.036523
-0.058991
-0.469842
-0.471509
-0.450815
-0.493148
0.221380
0.211149
-0.478367
0.255181
0.048797
0.019687
-0.042118
-0.040330
-0.105383
-0.485223
-0.465232
-0.479552
-0.575613
-0.575279
-0.595704
0.078072
0.070583
0.062936
-0.476009
-0.493484
0.073867
0.091018
-0.460636
-0.481519
-0.473762
0.133796
0.120573
0.138866
0.112422
-0.576283
-0.590728
-0.573337
-0.593389
0.047432
0.052776
0.070482
0.028212
0.043604
0.033778
-0.313035
0.206132
0.215493
0.204189
0.214249
0.197224
0.206860
-0.347512
-0.337846
-0.343903
-0.344477
-0.330287
-0.607364
-0.607069
-0.589511
-0.609646
-0.625254
-0.622325
0.180699
0.186113
-0.616801
-0.629245
-0.628963
0.198600
0.183533
-0.643419
0.109174
0.115945
0.094443
-0.605346
0.183676
0.191404
0.199082
0.191506
0.187509
0.192980
0.192662
0.143726
0.117377
0.157114
0.166102
-0.505659
-0.479779
-0.488306
-0.474694
-0.470502
-0.495797
-0.455647
-0.466468
-0.453069
-0.577108
-0.569654
-0.599472
0.119480
0.130286
0.109268
-0.125143
-0.167779
-0.455478
-0.427476
-0.093101
-0.617349
-0.615183
-0.634812
-0.609180
-0.599142
-0.588506
-0.594659
-0.652286
-0.635602
-0.635195
-0.646935
-0.666089
-0.665188
-0.719080
-0.723644
-0.740108
-0.739890
-0.583025
-0.582783
0.105316
-0.581247
-0.566150
-0.765747
-0.776088
-0.617890
-0.596569
-0.637479
-0.614872
-0.533363
-0.520929
-0.509389
-0.480312
-0.511113
-0.634519
-0.595516
0.168742
0.161067
0.178748
0.150003
-0.595028
-0.609155
-0.444577
-0.445706
-0.429735
0.197227
0.199325
0.203722
0.205804
0.194261
0.188737
0.187524
-0.243752
-0.633359
-0.618209
0.168141
0.154434
-0.641225
-0.628844
-0.622751
-0.375513
-0.367386
-0.342717
0.106513
0.130961
-0.396132
-0.305519
-0.266331
-0.557197
-0.535310
-0.533024