# vtk DataFile Version 2.0
Test
ASCII
DATASET POLYDATA
POINTS 25620 float
0.000000 0.000000 0.000000
2.000000 0.000000 0.000000
2.000000 4.000000 0.000000
0.000000 4.000000 0.000000
0.000000 0.500000 0.000000
1.500000 2.000000 0.000000
2.000000 2.500000 0.000000
0.020000 0.000000 0.000000
0.040000 0.000000 0.000000
0.060000 0.000000 0.000000
0.080000 0.000000 0.000000
0.100000 0.000000 0.000000
0.120000 0.000000 0.000000
0.140000 0.000000 0.000000
0.160000 0.000000 0.000000
0.180000 0.000000 0.000000
0.200000 0.000000 0.000000
0.220000 0.000000 0.000000
0.240000 0.000000 0.000000
0.260000 0.000000 0.000000
0.280000 0.000000 0.000000
0.300000 0.000000 0.000000
0.320000 0.000000 0.000000
0.340000 0.000000 0.000000
0.360000 0.000000 0.000000
0.380000 0.000000 0.000000
0.400000 0.000000 0.000000
0.420000 0.000000 0.000000
0.440000 0.000000 0.000000
0.460000 0.000000 0.000000
0.480000 0.000000 0.000000
0.500000 0.000000 0.000000
0.520000 0.000000 0.000000
0.540000 0.000000 0.000000
0.560000 0.000000 0.000000
0.580000 0.000000 0.000000
0.600000 0.000000 0.000000
0.620000 0.000000 0.000000
0.640000 0.000000 0.000000
0.660000 0.000000 0.000000
0.680000 0.000000 0.000000
0.700000 0.000000 0.000000
0.720000 0.000000 0.000000
0.740000 0.000000 0.000000
0.760000 0.000000 0.000000
0.780000 0.000000 0.000000
0.800000 0.000000 0.000000
0.820000 0.000000 0.000000
0.840000 0.000000 0.000000
0.860000 0.000000 0.000000
0.880000 0.000000 0.000000
0.900000 0.000000 0.000000
0.920000 0.000000 0.000000
0.940000 0.000000 0.000000
0.960000 0.000000 0.000000
0.980000 0.000000 0.000000
1.000000 0.000000 0.000000
1.020000 0.000000 0.000000
1.040000 0.000000 0.000000
1.060000 0.000000 0.000000
1.080000 0.000000 0.000000
1.100000 0.000000 0.000000
1.120000 0.000000 0.000000
1.140000 0.000000 0.000000
1.160000 0.000000 0.000000
1.180000 0.000000 0.000000
1.200000 0.000000 0.000000
1.220000 0.000000 0.000000
1.240000 0.000000 0.000000
1.260000 0.000000 0.000000
1.280000 0.000000 0.000000
1.300000 0.000000 0.000000
1.320000 0.000000 0.000000
1.340000 0.000000 0.000000
1.360000 0.000000 0.000000
1.380000 0.000000 0.000000
1.400000 0.000000 0.000000
1.420000 0.000000 0.000000
1.440000 0.000000 0.000000
1.460000 0.000000 0.000000
1.480000 0.000000 0.000000
1.500000 0.000000 0.000000
1.520000 0.000000 0.000000
1.540000 0.000000 0.000000
1.560000 0.000000 0.000000
1.580000 0.000000 0.000000
1.600000 0.000000 0.000000
1.620000 0.000000 0.000000
1.640000 0.000000 0.000000
1.660000 0.000000 0.000000
1.680000 0.000000 0.000000
1.700000 0.000000 0.000000
1.720000 0.000000 0.000000
1.740000 0.000000 0.000000
1.760000 0.000000 0.000000
1.780000 0.000000 0.000000
1.800000 0.000000 0.000000
1.820000 0.000000 0.000000
1.840000 0.000000 0.000000
1.860000 0.000000 0.000000
1.880000 0.000000 0.000000
1.900000 0.000000 0.000000
1.920000 0.000000 0.000000
1.940000 0.000000 0.000000
1.960000 0.000000 0.000000
1.980000 0.000000 0.000000
2.000000 0.020000 0.000000
2.000000 0.040000 0.000000
2.000000 0.060000 0.000000
2.000000 0.080000 0.000000
2.000000 0.100000 0.000000
2.000000 0.120000 0.000000
2.000000 0.140000 0.000000
2.000000 0.160000 0.000000
2.000000 0.180000 0.000000
2.000000 0.200000 0.000000
2.000000 0.220000 0.000000
2.000000 0.240000 0.000000
2.000000 0.260000 0.000000
2.000000 0.280000 0.000000
2.000000 0.300000 0.000000
2.000000 0.320000 0.000000
2.000000 0.340000 0.000000
2.000000 0.360000 0.000000
2.000000 0.380000 0.000000
2.000000 0.400000 0.000000
2.000000 0.420000 0.000000
2.000000 0.440000 0.000000
2.000000 0.460000 0.000000
2.000000 0.480000 0.000000
2.000000 0.500000 0.000000
2.000000 0.520000 0.000000
2.000000 0.540000 0.000000
2.000000 0.560000 0.000000
2.000000 0.580000 0.000000
2.000000 0.600000 0.000000
2.000000 0.620000 0.000000
2.000000 0.640000 0.000000
2.000000 0.660000 0.000000
2.000000 0.680000 0.000000
2.000000 0.700000 0.000000
2.000000 0.720000 0.000000
2.000000 0.740000 0.000000
2.000000 0.760000 0.000000
2.000000 0.780000 0.000000
2.000000 0.800000 0.000000
2.000000 0.820000 0.000000
2.000000 0.840000 0.000000
2.000000 0.860000 0.000000
2.000000 0.880000 0.000000
2.000000 0.900000 0.000000
2.000000 0.920000 0.000000
2.000000 0.940000 0.000000
2.000000 0.960000 0.000000
2.000000 0.980000 0.000000
2.000000 1.000000 0.000000
2.000000 1.020000 0.000000
2.000000 1.040000 0.000000
2.000000 1.060000 0.000000
2.000000 1.080000 0.000000
2.000000 1.100000 0.000000
2.000000 1.120000 0.000000
2.000000 1.140000 0.000000
2.000000 1.160000 0.000000
2.000000 1.180000 0.000000
2.000000 1.200000 0.000000
2.000000 1.220000 0.000000
2.000000 1.240000 0.000000
2.000000 1.260000 0.000000
2.000000 1.280000 0.000000
2.000000 1.300000 0.000000
2.000000 1.320000 0.000000
2.000000 1.340000 0.000000
2.000000 1.360000 0.000000
2.000000 1.380000 0.000000
2.000000 1.400000 0.000000
2.000000 1.420000 0.000000
2.000000 1.440000 0.000000
2.000000 1.460000 0.000000
2.000000 1.480000 0.000000
2.000000 1.500000 0.000000
2.000000 1.520000 0.000000
2.000000 1.540000 0.000000
2.000000 1.560000 0.000000
2.000000 1.580000 0.000000
2.000000 1.600000 0.000000
2.000000 1.620000 0.000000
2.000000 1.640000 0.000000
2.000000 1.660000 0.000000
2.000000 1.680000 0.000000
2.000000 1.700000 0.000000
2.000000 1.720000 0.000000
2.000000 1.740000 0.000000
2.000000 1.760000 0.000000
2.000000 1.780000 0.000000
2.000000 1.800000 0.000000
2.000000 1.820000 0.000000
2.000000 1.840000 0.000000
2.000000 1.860000 0.000000
2.000000 1.880000 0.000000
2.000000 1.900000 0.000000
2.000000 1.920000 0.000000
2.000000 1.940000 0.000000
2.000000 1.960000 0.000000
2.000000 1.980000 0.000000
2.000000 2.000000 0.000000
2.000000 2.020000 0.000000
2.000000 2.040000 0.000000
2.000000 2.060000 0.000000
2.000000 2.080000 0.000000
2.000000 2.100000 0.000000
2.000000 2.120000 0.000000
2.000000 2.140000 0.000000
2.000000 2.160000 0.000000
2.000000 2.180000 0.000000
2.000000 2.200000 0.000000
2.000000 2.220000 0.000000
2.000000 2.240000 0.000000
2.000000 2.260000 0.000000
2.000000 2.280000 0.000000
2.000000 2.300000 0.000000
2.000000 2.320000 0.000000
2.000000 2.340000 0.000000
2.000000 2.360000 0.000000
2.000000 2.380000 0.000000
2.000000 2.400000 0.000000
2.000000 2.420000 0.000000
2.000000 2.440000 0.000000
2.000000 2.460000 0.000000
2.000000 2.480000 0.000000
2.000000 2.520000 0.000000
2.000000 2.540000 0.000000
2.000000 2.560000 0.000000
2.000000 2.580000 0.000000
2.000000 2.600000 0.000000
2.000000 2.620000 0.000000
2.000000 2.640000 0.000000
2.000000 2.660000 0.000000
2.000000 2.680000 0.000000
2.000000 2.700000 0.000000
2.000000 2.720000 0.000000
2.000000 2.740000 0.000000
2.000000 2.760000 0.000000
2.000000 2.780000 0.000000
2.000000 2.800000 0.000000
2.000000 2.820000 0.000000
2.000000 2.840000 0.000000
2.000000 2.860000 0.000000
2.000000 2.880000 0.000000
2.000000 2.900000 0.000000
2.000000 2.920000 0.000000
2.000000 2.940000 0.000000
2.000000 2.960000 0.000000
2.000000 2.980000 0.000000
2.000000 3.000000 0.000000
2.000000 3.020000 0.000000
2.000000 3.040000 0.000000
2.000000 3.060000 0.000000
2.000000 3.080000 0.000000
2.000000 3.100000 0.000000
2.000000 3.120000 0.000000
2.000000 3.140000 0.000000
2.000000 3.160000 0.000000
2.000000 3.180000 0.000000
2.000000 3.200000 0.000000
2.000000 3.220000 0.000000
2.000000 3.240000 0.000000
2.000000 3.260000 0.000000
2.000000 3.280000 0.000000
2.000000 3.300000 0.000000
2.000000 3.320000 0.000000
2.000000 3.340000 0.000000
2.000000 3.360000 0.000000
2.000000 3.380000 0.000000
2.000000 3.400000 0.000000
2.000000 3.420000 0.000000
2.000000 3.440000 0.000000
2.000000 3.460000 0.000000
2.000000 3.480000 0.000000
2.000000 3.500000 0.000000
2.000000 3.520000 0.000000
2.000000 3.540000 0.000000
2.000000 3.560000 0.000000
2.000000 3.580000 0.000000
2.000000 3.600000 0.000000
2.000000 3.620000 0.000000
2.000000 3.640000 0.000000
2.000000 3.660000 0.000000
2.000000 3.680000 0.000000
2.000000 3.700000 0.000000
2.000000 3.720000 0.000000
2.000000 3.740000 0.000000
2.000000 3.760000 0.000000
2.000000 3.780000 0.000000
2.000000 3.800000 0.000000
2.000000 3.820000 0.000000
2.000000 3.840000 0.000000
2.000000 3.860000 0.000000
2.000000 3.880000 0.000000
2.000000 3.900000 0.000000
2.000000 3.920000 0.000000
2.000000 3.940000 0.000000
2.000000 3.960000 0.000000
2.000000 3.980000 0.000000
1.980000 4.000000 0.000000
1.960000 4.000000 0.000000
1.940000 4.000000 0.000000
1.920000 4.000000 0.000000
1.900000 4.000000 0.000000
1.880000 4.000000 0.000000
1.860000 4.000000 0.000000
1.840000 4.000000 0.000000
1.820000 4.000000 0.000000
1.800000 4.000000 0.000000
1.780000 4.000000 0.000000
1.760000 4.000000 0.000000
1.740000 4.000000 0.000000
1.720000 4.000000 0.000000
1.700000 4.000000 0.000000
1.680000 4.000000 0.000000
1.660000 4.000000 0.000000
1.640000 4.000000 0.000000
1.620000 4.000000 0.000000
1.600000 4.000000 0.000000
1.580000 4.000000 0.000000
1.560000 4.000000 0.000000
1.540000 4.000000 0.000000
1.520000 4.000000 0.000000
1.500000 4.000000 0.000000
1.480000 4.000000 0.000000
1.460000 4.000000 0.000000
1.440000 4.000000 0.000000
1.420000 4.000000 0.000000
1.400000 4.000000 0.000000
1.380000 4.000000 0.000000
1.360000 4.000000 0.000000
1.340000 4.000000 0.000000
1.320000 4.000000 0.000000
1.300000 4.000000 0.000000
1.280000 4.000000 0.000000
1.260000 4.000000 0.000000
1.240000 4.000000 0.000000
1.220000 4.000000 0.000000
1.200000 4.000000 0.000000
1.180000 4.000000 0.000000
1.160000 4.000000 0.000000
1.140000 4.000000 0.000000
1.120000 4.000000 0.000000
1.100000 4.000000 0.000000
1.080000 4.000000 0.000000
1.060000 4.000000 0.000000
1.040000 4.000000 0.000000
1.020000 4.000000 0.000000
1.000000 4.000000 0.000000
0.980000 4.000000 0.000000
0.960000 4.000000 0.000000
0.940000 4.000000 0.000000
0.920000 4.000000 0.000000
0.900000 4.000000 0.000000
0.880000 4.000000 0.000000
0.860000 4.000000 0.000000
0.840000 4.000000 0.000000
0.820000 4.000000 0.000000
0.800000 4.000000 0.000000
0.780000 4.000000 0.000000
0.760000 4.000000 0.000000
0.740000 4.000000 0.000000
[...]
POINT_DATA 25620
SCALARS UX float 1
LOOKUP_TABLE default
-0.000081
0.000051
0.298030
-0.416592
-0.242528
0.222387
0.349235
-0.000059
-0.000018
-0.000009
0.000023
-0.000023
0.000009
-0.000016
0.000007
-0.000002
0.000002
0.000002
-0.000002
-0.000001
-0.000001
-0.000000
0.000001
-0.000001
-0.000000
0.000001
-0.000003
-0.000005
-0.000001
-0.000001
-0.000001
0.000000
-0.000000
0.000000
-0.000002
0.000000
0.000001
-0.000001
-0.000000
-0.000002
-0.000000
0.000000
-0.000000
-0.000000
-0.000000
-0.000000
0.000000
-0.000000
-0.000000
-0.000000
0.000000
-0.000000
-0.000000
0.000001
0.000001
-0.000001
0.000000
0.000000
0.000000
-0.000000
0.000000
0.000001
-0.000000
0.000000
-0.000000
0.000000
0.000000
0.000001
0.000000
-0.000000
-0.000000
0.000002
-0.000000
0.000000
0.000001
-0.000000
0.000003
-0.000000
0.000001
-0.000001
0.000000
0.000001
-0.000001
-0.000001
0.000000
0.000001
0.000001
-0.000000
0.000000
0.000001
0.000000
0.000000
0.000001
-0.000000
-0.000000
0.000001
0.000001
0.000001
0.000000
-0.000004
-0.000000
-0.000002
0.000005
0.000006
-0.000021
0.000021
0.019362
0.037702
0.048212
0.057417
0.065318
0.072779
0.079756
0.086463
0.092856
0.098960
0.104850
0.110477
0.116125
0.121386
0.126327
0.130944
0.135470
0.139986
0.144103
0.148088
0.152171
0.155938
0.159653
0.163266
0.166784
0.170319
0.173676
0.176992
0.180098
0.183125
0.186455
0.189344
0.192386
0.195278
0.198061
0.200937
0.203622
0.206361
0.208930
0.211577
0.214192
0.216656
0.219141
0.221556
0.223934
0.225918
0.228502
0.230664
0.232828
0.234683
0.236322
0.238351
0.240360
0.242200
0.244165
0.246200
0.248329
0.250271
0.252069
0.254055
0.256189
0.258126
0.259968
0.262078
0.263904
0.265936
0.267880
0.269792
0.271722
0.273747
0.275973
0.277856
0.279854
0.281952
0.284242
0.286332
0.288475
0.290671
0.292874
0.294924
0.297476
0.299826
0.302490
0.305176
0.308009
0.310983
0.313901
0.317827
0.320728
0.324255
0.329533
0.334440
0.338016
0.341269
0.344670
0.345769
0.349532
0.352996
0.355207
0.358493
0.359968
0.361858
0.364900
0.366071
0.368022
0.369713
0.371000
0.372810
0.373683
0.375201
0.375102
0.374443
0.374518
0.374599
0.373133
0.371906
0.370088
0.369370
0.368784
0.366428
0.365264
0.363500
0.363656
0.357910
0.342519
0.336327
0.332335
0.324974
0.309570
0.307096
0.303089
0.301048
0.297577
0.295078
0.293296
0.291759
0.289829
0.289497
0.287482
0.284966
0.281748
0.277497
0.273334
0.271555
0.270275
0.269284
0.268784
0.268545
0.267777
0.266977
0.267020
0.267660
0.267622
0.267196
0.266862
0.267693
0.269046
0.270207
0.271864
0.273965
0.276461
0.279587
0.282694
0.287531
0.292662
0.298077
0.304497
0.311478
0.319435
0.327535
0.336191
0.344458
0.353159
0.363462
0.374400
0.384621
0.395430
0.407355
0.419378
0.431912
0.445129
0.459860
0.469181
0.469576
0.457790
0.435979
0.410123
0.380800
0.352788
0.319120
0.298463
0.305326
0.323568
0.355162
0.345910
0.318955
0.302312
0.301204
0.279973
0.268883
0.259795
0.252519
0.246445
0.234606
0.218623
0.206064
0.192536
0.179581
0.168156
0.157757
0.148368
0.138234
0.127610
0.116469
0.104358
0.093224
0.081345
0.069807
0.057828
0.047221
0.036873
0.027090
0.017935
0.009004
0.000605
-0.007602
-0.015430
-0.023153
-0.030847
-0.038499
-0.045660
-0.052954
-0.060065
-0.066902
-0.073932
-0.080476
-0.087109
-0.093638
-0.099753
-0.105736
-0.111541
-0.117412
-0.123103
-0.128847
-0.134491
-0.140074
-0.145480
-0.150759
-0.156048
-0.161440
-0.166352
-0.171515
-0.176919
-0.182107
-0.187076
-0.192125
-0.197174
-0.202146
-0.207167
-0.212206
-0.217198
-0.222276
-0.227379
-0.232386
-0.237402
-0.242484
-0.247535
-0.252576
-0.257639
-0.262740
-0.267875
-0.272962
-0.277974
-0.283050
-0.288357
-0.293593
-0.298733
-0.303920
-0.309332
-0.314709
-0.319983
-0.325354
-0.330866
-0.336416
-0.341929
-0.347288
-0.353019
-0.358741
-0.364465
-0.370012
-0.375811
-0.381603
-0.387374
-0.393277
-0.399088
-0.404851
-0.410738
-0.416476
-0.416613
-0.416679
-0.416933
-0.416672
-0.416617
-0.416489
-0.416709
-0.416939
-0.416960
-0.417175
-0.417029
-0.417188
-0.417195
-0.417296
-0.417115
-0.417564
-0.417528
-0.417574
-0.417664
-0.417680
-0.417272
-0.417066
-0.416910
-0.416477
-0.416377
-0.415999
-0.415372
-0.415092
-0.414624
-0.413650
-0.412983
-0.412365
-0.411563
-0.410579
-0.409496
-0.408346
-0.407151
-0.405878
-0.404589
-0.403193
-0.401745
-0.400370
-0.399190
-0.397558
-0.396174
-0.394455
-0.392809
-0.391595
-0.389681
-0.388389
-0.386854
-0.385410
-0.383675
-0.382058
-0.380683
-0.379573
-0.378225
-0.376788
-0.375449
-0.374390
-0.373212
-0.372164
-0.371223
-0.370057
-0.369191
-0.368409
-0.367744
-0.366925
-0.366125
-0.365700
-0.365066
-0.364662
-0.364134
-0.363577
-0.363002
-0.362504
-0.362111
-0.361409
-0.360841
-0.360626
-0.359818
-0.358678
-0.358146
-0.357127
-0.355619
-0.354793
-0.353091
-0.351110
-0.349541
-0.347096
-0.344970
-0.342157
-0.339093
-0.335760
-0.332048
-0.328284
-0.323958
-0.319285
-0.314086
-0.308986
-0.304016
-0.298187
-0.292399
-0.286685
-0.280276
-0.274582
-0.268563
-0.262037
-0.256169
-0.250246
-0.244648
-0.238431
-0.233362
-0.228123
-0.223147
-0.218418
-0.213855
-0.209793
-0.206095
-0.202249
-0.199329
-0.196420
-0.194021
-0.192038
-0.190380
-0.189272
-0.188205
-0.187907
-0.187981
-0.188344
-0.188895
-0.190123
-0.191486
-0.193098
-0.195187
-0.197156
-0.199728
-0.202522
-0.205302
-0.208593
-0.212001
-0.215610
-0.219580
-0.223612
-0.227810
-0.231844
-0.236123
-0.240104
-0.244004
-0.247471
-0.250522
-0.253111
-0.255111
-0.256507
-0.257394
-0.257597
-0.257288
-0.256442
-0.255190
-0.253513
-0.251480
-0.249336
-0.247123
-0.244848
-0.242646
-0.240645
-0.239032
-0.238302
-0.238904
-0.241432
-0.249542
-0.242222
-0.264092
-0.196381
-0.191539
-0.187751
-0.184441
-0.180829
-0.176804
-0.172827
-0.168551
-0.164047
-0.159330
-0.154533
-0.149478
-0.144244
-0.138812
-0.132936
-0.127004
-0.120445
-0.113901
-0.106529
-0.099013
-0.090997
-0.082427
-0.072786
-0.061086
-0.264383
-0.246964
-0.237158
-0.252701
-0.222271
-0.213201
-0.214188
-0.216318
-0.213871
-0.214295
-0.212474
-0.211143
-0.205752
-0.200980
-0.204947
-0.213315
-0.213467
-0.214293
-0.212366
-0.208320
-0.205814
-0.205889
-0.201246
-0.198865
-0.193727
-0.184470
-0.173202
-0.157079
-0.177911
-0.160437
-0.146580
-0.135457
-0.130202
-0.118538
-0.147640
-0.158246
-0.150909
-0.149420
-0.139923
-0.104625
-0.131953
-0.077974
-0.096268
-0.074963
-0.077908
-0.055692
-0.069411
-0.100111
-0.067317
-0.067550
-0.064165
-0.044605
-0.048649
-0.107256
0.040250
-0.075143
-0.043671
-0.022532
-0.016581
-0.009186
-0.009364
-0.022911
-0.023334
-0.022005
-0.014036
-0.008883
-0.003225
0.001842
0.006918
0.007588
0.011151
0.015266
0.018005
0.014992
0.019825
0.024193
0.024253
0.026284
0.028133
0.031712
0.038672
0.038886
0.040835
0.045633
0.051660
0.053015
0.059957
0.065256
0.070311
0.074763
0.082025
0.084338
0.086881
0.084414
0.089480
0.086720
0.094840
0.098030
0.102481
0.114647
0.128992
0.135234
0.169276
0.196922
0.195146
0.214496
0.230644
0.239712
0.245992
0.253019
0.258182
0.260719
0.268007
0.272299
0.275851
0.282372
0.286073
0.289335
0.292318
0.295786
0.299203
0.302773
0.306153
0.309488
0.311504
0.313243
0.314453
0.316199
0.318811
0.321386
0.323867
0.327104
0.330347
0.333371
0.335722
0.338464
0.340412
0.341969
0.344161
0.346419
0.347267
-0.047583
-0.041688
-0.044076
-0.043395
-0.132181
-0.135725
-0.130724
-0.130501
0.108854
0.111062
0.117988
0.102759
0.295703
0.291001
0.296659
-0.020147
-0.019232
-0.025370
0.302383
0.301455
0.293281
0.298642
0.296991
0.343113
0.340777
0.353281
-0.350403
-0.353364
-0.357463
-0.347461
-0.010744
-0.004525
-0.008997
-0.003690
0.334007
-0.292368
-0.289023
-0.294924
-0.388565
-0.390311
-0.393397
-0.287584
-0.121293
-0.124650
-0.126277
-0.119497
-0.296070
-0.301746
-0.300450
-0.124357
-0.124059
-0.120666
-0.130648
-0.131265
-0.138585
-0.128481
-0.167317
-0.165954
-0.163528
-0.161034
-0.036243
-0.035320
0.273610
0.263275
-0.133973
-0.130697
-0.135453
-0.130506
-0.158893
-0.162164
0.204258
0.208134
0.206210
-0.126211
-0.125148
-0.352722
-0.355161
-0.357078
-0.360049
-0.232009
-0.229294
-0.222980
-0.237098
0.046474
0.051757
0.045743
0.049742
-0.252384
-0.248797
-0.251307
-0.246772
0.209602
-0.177263
-0.178996
-0.182030
0.243166
0.246652
0.246615
0.250145
-0.000288
-0.001588
-0.004134
-0.308330
-0.309308
-0.302707
0.002477
-0.136130
-0.131215
-0.135112
-0.046214
-0.053126
-0.054415
-0.046042
0.018280
0.020838
0.016720
-0.028216
-0.032970
-0.032747
-0.031152
-0.230254
-0.234799
-0.232338
-0.234932
-0.392890
-0.388742
-0.391257
-0.385979
-0.228148
-0.230933
-0.232703
-0.225697
-0.237192
-0.242450
-0.241704
-0.240078
-0.019870
-0.017001
-0.017903
-0.341224
-0.339872
-0.344843
-0.019276
0.368719
0.358407
-0.184268
0.199627
0.197106
0.201899
0.084877
0.094725
0.089857
-0.236308
-0.234709
-0.236477
-0.235607
0.320629
0.310042
0.309642
0.014322
0.019502
0.015000
0.314295
0.324052
0.321543
0.317285
0.331602
0.339948
0.340152
0.335323
-0.299499
-0.294290
-0.300021
-0.294364
-0.383477
-0.378356
-0.377438
-0.382189
-0.163769
-0.154580
-0.164282
-0.219356
-0.224095
-0.218748
-0.223851
0.152845
0.142959
0.155147
-0.247118
-0.250584
-0.244949
0.140207
-0.250311
-0.245194
-0.239435
-0.237479
-0.103056
-0.106243
-0.103689
-0.107795
-0.088315
-0.094482
-0.092923
-0.098514
-0.180048
-0.176551
-0.173384
-0.184877
-0.249509
-0.247141
-0.252335
-0.249647
-0.018134
-0.021183
-0.022866
-0.374242
-0.372779
-0.026215
-0.369165
0.071779
0.071044
0.075695
0.076820
0.295065
0.288648
0.288273
0.281585
0.018051
0.019806
0.023167
0.024250
-0.304700
-0.308577
-0.303345
-0.308379
0.198450
-0.361935
-0.367125
-0.364150
-0.362159
-0.364653
-0.361521
-0.367637
0.227426
0.234180
0.226637
-0.006343
-0.014153
-0.012499
-0.111964
-0.118456
-0.120572
-0.110515
-0.060585
-0.064258
-0.066114
-0.069821
-0.129786
-0.133993
-0.130978
-0.136548
-0.275876
-0.270359
-0.277995
0.284175
-0.268665
-0.263087
-0.258808
-0.258656
-0.263821
-0.257338
-0.261800
-0.257781
-0.173162
-0.170835
-0.165696
-0.165530
-0.170317
0.284423
0.276239
0.277855
0.281559
0.277374
0.286102
0.283050
-0.163310
-0.106785
-0.110826
-0.112164
-0.117799
-0.165249
-0.159089
-0.162869
-0.152691
-0.133252
-0.135371
-0.139365
-0.128451
-0.105901
-0.111292
-0.316430
-0.317432
-0.320705
-0.118522
0.124210
0.128289
0.118826
-0.388180
-0.390405
-0.384878
0.239212
0.213937
0.224350
0.243209
0.006337
0.011169
0.005009
-0.134857
-0.133375
-0.129548
-0.139266
-0.248385
-0.252963
-0.250128
-0.256199
-0.074337
-0.079342
-0.076286
-0.079128
-0.085609
-0.078845
-0.078391
-0.072430
0.029651
0.032223
0.033615
0.036446
-0.124678
-0.120920
-0.218362
-0.223125
-0.217840
-0.224948
0.045331
0.040702
0.044036
0.040205
-0.210755
-0.218038
-0.216567
-0.226266
-0.252272
-0.248785
-0.247537
-0.253442
-0.040884
-0.045135
-0.041659
-0.046323
-0.063980
-0.071565
-0.064193
0.096048
0.097360
0.092976
0.067278
0.067949
0.073572
0.071520
0.017934
0.022353
0.019066
0.023137
0.020091
0.016021
0.017411
0.016214
0.105569
0.099220
0.103886
0.100462
-0.030210
-0.026444
-0.029276
-0.404161
-0.408250
-0.408432
-0.056655
-0.055905
-0.058379
-0.053211
-0.027007
-0.220457
-0.218875
-0.223332
-0.105924
-0.098979
-0.108137
-0.096953
-0.035260
-0.034561
-0.032140
0.070544
0.075250
0.062299
-0.031492
-0.181059
-0.186218
-0.189561
0.006301
-0.137745
-0.144171
-0.139033
-0.142961
-0.177128
-0.179632
-0.174545
-0.180966
0.110205
0.116958
0.113812
-0.249044
-0.237856
-0.246646
0.154760
0.156865
0.150658
-0.201786
-0.206290
-0.202325
-0.205819
0.114771
0.086201
0.057783
-0.260857
-0.259102
-0.253852
-0.266181
-0.253154
-0.184815
-0.190496
-0.184188
-0.208396
-0.199851
-0.203773
-0.242702
-0.276449
-0.275954
-0.282438
-0.099778
-0.095746
-0.099328
-0.303477
-0.307674
-0.307090
-0.266955
-0.271034
-0.261740
-0.267425
0.159113
0.168884
0.173093
-0.267344
-0.258685
-0.270247
-0.357157
-0.358614
-0.353839
-0.283753
-0.274235
-0.278999
-0.403304
-0.407844
0.206367
0.217373
0.213032
0.081554
0.076719
-0.299535
-0.301691
-0.029537
-0.031208
-0.026649
-0.100800
-0.100306
-0.104424
-0.034676
-0.027084
-0.031147
-0.023601
-0.266557
-0.276846
-0.186951
-0.233365
-0.016056
-0.021997
-0.413168
-0.153497
-0.149599
-0.154742
0.225975
0.231994
0.232527
0.227028
-0.149857
-0.282695
0.174390
0.178217
0.180535
-0.394700
-0.399584
-0.395899
-0.011725
-0.019560
0.228647
0.225483
0.206462
0.317810
0.172503
-0.113918
-0.109624
-0.114525
-0.236160
-0.173412
-0.170157
-0.173978
-0.025153
-0.023218
-0.029755
-0.109480
-0.359768
-0.354089
-0.355448
-0.231400
-0.234057
-0.232615
-0.168281
-0.007640
-0.016722
-0.021184
-0.020087
-0.017325
0.162352
0.165636
0.170835
-0.022224
-0.026555
-0.127948
-0.123408
-0.128982
0.074360
0.077268
0.072527
-0.311651
-0.309352
0.080655
-0.230761
-0.235818
-0.229052
-0.145683
-0.143477
-0.148883
-0.234217
-0.236172
-0.107410
-0.099676
-0.098907
-0.237983
-0.090273
-0.236184
0.059616
0.066961
-0.396234
0.258403
0.266076
-0.398631
-0.122025
-0.018964
-0.014734
-0.012383
-0.017761
0.026486
0.029595
0.032032
-0.067489
0.033603
-0.106121
-0.102830
-0.106423
-0.103178
0.016425
0.020460
0.022450
0.045172
-0.232432
-0.233467
-0.142407
-0.142259
-0.145807
-0.230351
-0.219725
-0.147501
-0.377750
-0.381107
-0.376595
-0.237277
-0.238132
-0.235806
-0.239846
-0.159980
-0.157465
-0.155552
-0.411762
-0.399648
-0.403160
-0.397640
-0.406019
-0.404256
-0.409405
-0.389414
-0.384969
-0.390587
0.033262
0.030485
0.036716
-0.007396
-0.008068
0.002003
-0.013464
-0.001763
0.013893
0.018698
0.337040
-0.304070
0.030292
-0.142817
-0.145204
-0.140745
-0.299905
-0.290776
-0.295896
-0.287798
-0.342812
-0.347489
-0.345039
-0.349262
0.040498
0.034878
0.043163
0.034620
0.037127
0.036213
0.040570
0.039726
-0.233329
-0.233114
-0.234182
-0.228543
-0.239494
-0.408063
-0.402709
-0.164248
-0.161108
-0.165144
-0.218303
-0.391265
0.199934
0.188526
0.250587
-0.043027
-0.052968
-0.036948
0.131381
0.135709
0.129855
0.135856
-0.239164
-0.236743
-0.241779
-0.048101
-0.397921
-0.399129
-0.395100
0.239431
0.241495
0.242446
-0.150651
-0.151154
-0.145916
0.261521
0.274605
0.266681
-0.156558
-0.228086
-0.233268
-0.235742
-0.222638
-0.281657
-0.275827
-0.273932
-0.285521
-0.129071
-0.128963
-0.134605
0.316225
-0.124049
-0.092343
-0.087626
-0.090824
-0.085448
0.311142
-0.087091
-0.092545
-0.085458
-0.310354
-0.306425
-0.310927
-0.241173
0.275640
0.268238
0.286462
-0.412490
0.242208
-0.402719
-0.400785
-0.332940
-0.336793
-0.333410
0.230975
0.227371
0.232624
0.226564
-0.115683
-0.113863
-0.118607
-0.110110
-0.305011
0.342234
-0.122730
-0.127582
0.303457
0.282115
0.288647
-0.240688
-0.237881
-0.243870
-0.231563
-0.233742
-0.236110
-0.223273
-0.073645
-0.070910
-0.072143
0.174546
0.179931
0.065204
0.064549
0.074404
-0.148534
-0.155262
-0.156922
0.290747
-0.148130
-0.242956
-0.245265
-0.244226
0.135983
0.139517
0.141080
-0.238252
-0.241242
-0.240125
-0.242979
0.397267
0.407829
0.408666
-0.194314
-0.192166
-0.189661
-0.186683
-0.386882
0.133206
0.038592
0.041445
0.042977
0.246165
0.292708
-0.096504
-0.109180
-0.101173
-0.242200
-0.239124
-0.246059
-0.391668
-0.392232
-0.396158
0.256068
0.253599
0.264075
-0.229436
-0.233846
-0.237055
-0.220516
-0.245087
-0.109955
-0.235702
-0.238705
-0.236921
0.311999
-0.250573
-0.245585
-0.245798
-0.232468
-0.234750
-0.232041
-0.348511
-0.344898
-0.344438
-0.376311
-0.380286
-0.249202
-0.359617
-0.360737
-0.356467
-0.410920
-0.407055
-0.400846
-0.397820
-0.078127
-0.076581
-0.066647
-0.354004
-0.348153
-0.347826
0.310812
0.291749
0.315618
0.276788
-0.358341
0.297566
0.299414
0.292689
-0.243570
-0.240323
-0.248590
-0.230681
-0.235055
-0.237879
-0.226517
0.298116
-0.386795
-0.382008
0.239160
0.242655
0.243843
0.242601
0.235641
0.247459
-0.246633
-0.387104
-0.392443
0.243342
0.255189
-0.244941
-0.241592
-0.249473
0.046515
-0.125949
-0.124899
-0.120400
-0.127133
-0.142554
-0.145879
-0.147712
0.222638
0.223824
0.227876
-0.223290
-0.225531
-0.227994
-0.231267
-0.167018
-0.163809
-0.168201
-0.162852
-0.231053
-0.236226
-0.239131
-0.225310
-0.251888
-0.249717
-0.250065
-0.404611
-0.408711
-0.177341
-0.173724
-0.398392
-0.394756
0.283191
0.293456
-0.092835
0.270904
0.270581
-0.247926
-0.246798
0.146930
0.154847
0.151611
-0.227768
-0.233800
-0.229528
-0.231496
-0.374476
-0.374911
-0.378405
-0.247490
-0.245287
-0.370589
0.308283
0.302040
0.301531
0.236543
0.232673
0.236502
0.232821
-0.140734
-0.242535
-0.371001
-0.373190
0.007569
0.005881
0.028417
-0.233333
0.021163
-0.005617
-0.012698
-0.012328
-0.237546
-0.240153
-0.229992
-0.381810
-0.006978
0.005436
-0.016642
-0.011176
0.236841
-0.022310
-0.235009
-0.234954
-0.382885
-0.388109
-0.377115
0.235548
0.250259
0.230497
-0.237940
-0.249252
-0.109509
-0.108144
-0.104094
-0.152382
-0.158683
-0.153984
0.164437
0.167266
0.168136
-0.240239
-0.240076
-0.108071
-0.114130
-0.109480
-0.243192
-0.242887
-0.235827
0.049814
0.042048
0.046854
-0.115370
-0.387713
-0.387331
-0.383079
-0.237961
-0.240977
-0.156336
-0.190464
-0.192965
-0.187618
0.240252
0.237546
0.235553
-0.401427
0.235091
-0.239068
-0.237450
-0.395174
-0.392650
-0.406812
0.261225
-0.196463
0.245552
0.249724
0.272580
-0.128815
-0.123323
-0.125945
0.179867
0.173422
0.175858
-0.065914
-0.069791
-0.070983
0.087332
0.101081
0.091717
0.092942
0.090001
0.085612
0.092213
-0.003742
-0.005190
0.001330
-0.357454
-0.361780
-0.358948
-0.363211
-0.232938
-0.232642
-0.236490
-0.011157
-0.225160
-0.228123
-0.226773
-0.163971
-0.161055
-0.229992
-0.229126
-0.233368
-0.232128
-0.232712
-0.229816
-0.230054
-0.152675
-0.157560
-0.155356
-0.167558
-0.378238
-0.137138
-0.141669
-0.134111
-0.157954
-0.157681
0.231866
-0.226558
-0.226414
-0.378503
-0.154525
0.258569
0.255361
0.259644
0.229905
-0.108069
0.221167
-0.237454
-0.249975
-0.247830
-0.247521
0.256719
-0.082664
-0.086797
-0.085722
-0.089659
-0.245204
-0.242657
-0.108564
-0.111523
-0.359659
-0.356219
-0.354104
0.167974
0.068354
0.061790
0.077089
-0.036292
-0.029624
-0.029283
-0.253086
-0.250534
-0.250929
-0.231358
-0.234665
0.063855
-0.413486
-0.413178
-0.236859
-0.400159
-0.239957
-0.374719
-0.378351
-0.247802
-0.385308
-0.378191
-0.382784
-0.378632
-0.176261
-0.181550
-0.097889
-0.090252
-0.089618
-0.096040
0.243479
0.167532
0.184443
0.140479
0.221337
-0.138787
-0.143410
-0.141025
-0.388620
-0.391807
-0.387597
-0.306765
-0.305035
-0.301971
-0.242396
-0.245238
-0.229417
0.359441
0.353308
0.349735
0.394203
0.385144
0.387914
-0.228139
-0.229026
-0.223195
-0.223355
-0.226966
-0.225987
-0.226568
-0.149062
-0.221490
-0.219745
0.294290
-0.223622
-0.224276
0.281620
0.240916
0.297957
-0.142768
-0.138442
-0.233779
0.228102
-0.245059
-0.239365
-0.302756
-0.302810
-0.306748
-0.298960
-0.036498
-0.038031
-0.042978
0.139119
0.139945
0.145701
0.301599
0.294227
0.297924
0.296336
-0.215307
-0.207626
-0.210955
-0.373513
-0.315775
-0.314219
-0.310581
-0.202972
-0.076361
-0.075634
-0.077940
-0.074176
0.379324
0.373177
0.384895
-0.080999
-0.082228
-0.084402
-0.227162
-0.230741
-0.232921
-0.236385
-0.297517
-0.294503
-0.298777
-0.084731
-0.012134
-0.019213
-0.019753
-0.015433
-0.244877
-0.247961
-0.084531
-0.085895
-0.090519
0.275220
0.270898
0.268506
-0.383402
-0.378478
0.056114
0.052626
0.275797
0.010147
0.012399
0.005451
0.011677
0.236899
0.233570
0.236816
0.299034
0.303831
0.308012
0.310933
-0.103488
-0.107911
-0.102966
-0.108687
-0.102316
0.045413
0.046090
0.051229
-0.238864
-0.242184
-0.348456
-0.353185
-0.352232
-0.349433
-0.107610
-0.160455
-0.161437
-0.156492
-0.163667
-0.165419
-0.225413
-0.223646
-0.224955
-0.367359
-0.167651
-0.221453
-0.222434
-0.222767
-0.221180
-0.226590
-0.226783
-0.222969
-0.221848
-0.210055
-0.211668
0.173323
0.190169
0.182934
-0.214399
-0.211052
-0.218723
-0.220639
-0.215453
0.051460
-0.112984
-0.114319
-0.117596
-0.359457
-0.363426
-0.359060
-0.229494
-0.365564
-0.057181
-0.058564
-0.059835
-0.060656
-0.085800
-0.084194
-0.081393
-0.021224
-0.020776
-0.031832
-0.241737
-0.235533
-0.222306
-0.226343
0.153515
0.156266
0.148775
0.155442
0.309139
0.317720
0.319382
-0.404419
-0.402219
-0.396669
0.265299
0.263175
0.267443
0.261225
-0.373827
-0.378593
-0.372511
-0.228355
-0.232261
0.285736
0.311736
0.330985
0.259544
-0.395645
-0.400042
-0.392506
-0.241397
-0.245421
-0.234706
-0.238546
-0.218514
-0.220332
-0.220895
0.195823
0.170259
0.175954
0.157499
-0.148625