# vtk DataFile Version 2.0
Test
ASCII
DATASET POLYDATA
POINTS 25620 float
0.000000 0.000000 0.000000
2.000000 0.000000 0.000000
2.000000 4.000000 0.000000
0.000000 4.000000 0.000000
0.000000 0.500000 0.000000
1.500000 2.000000 0.000000
2.000000 2.500000 0.000000
0.020000 0.000000 0.000000
0.040000 0.000000 0.000000
0.060000 0.000000 0.000000
0.080000 0.000000 0.000000
0.100000 0.000000 0.000000
0.120000 0.000000 0.000000
0.140000 0.000000 0.000000
0.160000 0.000000 0.000000
0.180000 0.000000 0.000000
0.200000 0.000000 0.000000
0.220000 0.000000 0.000000
0.240000 0.000000 0.000000
0.260000 0.000000 0.000000
0.280000 0.000000 0.000000
0.300000 0.000000 0.000000
0.320000 0.000000 0.000000
0.340000 0.000000 0.000000
0.360000 0.000000 0.000000
0.380000 0.000000 0.000000
0.400000 0.000000 0.000000
0.420000 0.000000 0.000000
0.440000 0.000000 0.000000
0.460000 0.000000 0.000000
0.480000 0.000000 0.000000
0.500000 0.000000 0.000000
0.520000 0.000000 0.000000
0.540000 0.000000 0.000000
0.560000 0.000000 0.000000
0.580000 0.000000 0.000000
0.600000 0.000000 0.000000
0.620000 0.000000 0.000000
0.640000 0.000000 0.000000
0.660000 0.000000 0.000000
0.680000 0.000000 0.000000
0.700000 0.000000 0.000000
0.720000 0.000000 0.000000
0.740000 0.000000 0.000000
0.760000 0.000000 0.000000
0.780000 0.000000 0.000000
0.800000 0.000000 0.000000
0.820000 0.000000 0.000000
0.840000 0.000000 0.000000
0.860000 0.000000 0.000000
0.880000 0.000000 0.000000
0.900000 0.000000 0.000000
0.920000 0.000000 0.000000
0.940000 0.000000 0.000000
0.960000 0.000000 0.000000
0.980000 0.000000 0.000000
1.000000 0.000000 0.000000
1.020000 0.000000 0.000000
1.040000 0.000000 0.000000
1.060000 0.000000 0.000000
1.080000 0.000000 0.000000
1.100000 0.000000 0.000000
1.120000 0.000000 0.000000
1.140000 0.000000 0.000000
1.160000 0.000000 0.000000
1.180000 0.000000 0.000000
1.200000 0.000000 0.000000
1.220000 0.000000 0.000000
1.240000 0.000000 0.000000
1.260000 0.000000 0.000000
1.280000 0.000000 0.000000
1.300000 0.000000 0.000000
1.320000 0.000000 0.000000
1.340000 0.000000 0.000000
1.360000 0.000000 0.000000
1.380000 0.000000 0.000000
1.400000 0.000000 0.000000
1.420000 0.000000 0.000000
1.440000 0.000000 0.000000
1.460000 0.000000 0.000000
1.480000 0.000000 0.000000
1.500000 0.000000 0.000000
1.520000 0.000000 0.000000
1.540000 0.000000 0.000000
1.560000 0.000000 0.000000
1.580000 0.000000 0.000000
1.600000 0.000000 0.000000
1.620000 0.000000 0.000000
1.640000 0.000000 0.000000
1.660000 0.000000 0.000000
1.680000 0.000000 0.000000
1.700000 0.000000 0.000000
1.720000 0.000000 0.000000
1.740000 0.000000 0.000000
1.760000 0.000000 0.000000
1.780000 0.000000 0.000000
1.800000 0.000000 0.000000
1.820000 0.000000 0.000000
1.840000 0.000000 0.000000
1.860000 0.000000 0.000000
1.880000 0.000000 0.000000
1.900000 0.000000 0.000000
1.920000 0.000000 0.000000
1.940000 0.000000 0.000000
1.960000 0.000000 0.000000
1.980000 0.000000 0.000000
2.000000 0.020000 0.000000
2.000000 0.040000 0.000000
2.000000 0.060000 0.000000
2.000000 0.080000 0.000000
2.000000 0.100000 0.000000
2.000000 0.120000 0.000000
2.000000 0.140000 0.000000
2.000000 0.160000 0.000000
2.000000 0.180000 0.000000
2.000000 0.200000 0.000000
2.000000 0.220000 0.000000
2.000000 0.240000 0.000000
2.000000 0.260000 0.000000
2.000000 0.280000 0.000000
2.000000 0.300000 0.000000
2.000000 0.320000 0.000000
2.000000 0.340000 0.000000
2.000000 0.360000 0.000000
2.000000 0.380000 0.000000
2.000000 0.400000 0.000000
2.000000 0.420000 0.000000
2.000000 0.440000 0.000000
2.000000 0.460000 0.000000
2.000000 0.480000 0.000000
2.000000 0.500000 0.000000
2.000000 0.520000 0.000000
2.000000 0.540000 0.000000
2.000000 0.560000 0.000000
2.000000 0.580000 0.000000
2.000000 0.600000 0.000000
2.000000 0.620000 0.000000
2.000000 0.640000 0.000000
2.000000 0.660000 0.000000
2.000000 0.680000 0.000000
2.000000 0.700000 0.000000
2.000000 0.720000 0.000000
2.000000 0.740000 0.000000
2.000000 0.760000 0.000000
2.000000 0.780000 0.000000
2.000000 0.800000 0.000000
2.000000 0.820000 0.000000
2.000000 0.840000 0.000000
2.000000 0.860000 0.000000
2.000000 0.880000 0.000000
2.000000 0.900000 0.000000
2.000000 0.920000 0.000000
2.000000 0.940000 0.000000
2.000000 0.960000 0.000000
2.000000 0.980000 0.000000
2.000000 1.000000 0.000000
2.000000 1.020000 0.000000
2.000000 1.040000 0.000000
2.000000 1.060000 0.000000
2.000000 1.080000 0.000000
2.000000 1.100000 0.000000
2.000000 1.120000 0.000000
2.000000 1.140000 0.000000
2.000000 1.160000 0.000000
2.000000 1.180000 0.000000
2.000000 1.200000 0.000000
2.000000 1.220000 0.000000
2.000000 1.240000 0.000000
2.000000 1.260000 0.000000
2.000000 1.280000 0.000000
2.000000 1.300000 0.000000
2.000000 1.320000 0.000000
2.000000 1.340000 0.000000
2.000000 1.360000 0.000000
2.000000 1.380000 0.000000
2.000000 1.400000 0.000000
2.000000 1.420000 0.000000
2.000000 1.440000 0.000000
2.000000 1.460000 0.000000
2.000000 1.480000 0.000000
2.000000 1.500000 0.000000
2.000000 1.520000 0.000000
2.000000 1.540000 0.000000
2.000000 1.560000 0.000000
2.000000 1.580000 0.000000
2.000000 1.600000 0.000000
2.000000 1.620000 0.000000
2.000000 1.640000 0.000000
2.000000 1.660000 0.000000
2.000000 1.680000 0.000000
2.000000 1.700000 0.000000
2.000000 1.720000 0.000000
2.000000 1.740000 0.000000
2.000000 1.760000 0.000000
2.000000 1.780000 0.000000
2.000000 1.800000 0.000000
2.000000 1.820000 0.000000
2.000000 1.840000 0.000000
2.000000 1.860000 0.000000
2.000000 1.880000 0.000000
2.000000 1.900000 0.000000
2.000000 1.920000 0.000000
2.000000 1.940000 0.000000
2.000000 1.960000 0.000000
2.000000 1.980000 0.000000
2.000000 2.000000 0.000000
2.000000 2.020000 0.000000
2.000000 2.040000 0.000000
2.000000 2.060000 0.000000
2.000000 2.080000 0.000000
2.000000 2.100000 0.000000
2.000000 2.120000 0.000000
2.000000 2.140000 0.000000
2.000000 2.160000 0.000000
2.000000 2.180000 0.000000
2.000000 2.200000 0.000000
2.000000 2.220000 0.000000
2.000000 2.240000 0.000000
2.000000 2.260000 0.000000
2.000000 2.280000 0.000000
2.000000 2.300000 0.000000
2.000000 2.320000 0.000000
2.000000 2.340000 0.000000
2.000000 2.360000 0.000000
2.000000 2.380000 0.000000
2.000000 2.400000 0.000000
2.000000 2.420000 0.000000
2.000000 2.440000 0.000000
2.000000 2.460000 0.000000
2.000000 2.480000 0.000000
2.000000 2.520000 0.000000
2.000000 2.540000 0.000000
2.000000 2.560000 0.000000
2.000000 2.580000 0.000000
2.000000 2.600000 0.000000
2.000000 2.620000 0.000000
2.000000 2.640000 0.000000
2.000000 2.660000 0.000000
2.000000 2.680000 0.000000
2.000000 2.700000 0.000000
2.000000 2.720000 0.000000
2.000000 2.740000 0.000000
2.000000 2.760000 0.000000
2.000000 2.780000 0.000000
2.000000 2.800000 0.000000
2.000000 2.820000 0.000000
2.000000 2.840000 0.000000
2.000000 2.860000 0.000000
2.000000 2.880000 0.000000
2.000000 2.900000 0.000000
2.000000 2.920000 0.000000
2.000000 2.940000 0.000000
2.000000 2.960000 0.000000
2.000000 2.980000 0.000000
2.000000 3.000000 0.000000
2.000000 3.020000 0.000000
2.000000 3.040000 0.000000
2.000000 3.060000 0.000000
2.000000 3.080000 0.000000
2.000000 3.100000 0.000000
2.000000 3.120000 0.000000
2.000000 3.140000 0.000000
2.000000 3.160000 0.000000
2.000000 3.180000 0.000000
2.000000 3.200000 0.000000
2.000000 3.220000 0.000000
2.000000 3.240000 0.000000
2.000000 3.260000 0.000000
2.000000 3.280000 0.000000
2.000000 3.300000 0.000000
2.000000 3.320000 0.000000
2.000000 3.340000 0.000000
2.000000 3.360000 0.000000
2.000000 3.380000 0.000000
2.000000 3.400000 0.000000
2.000000 3.420000 0.000000
2.000000 3.440000 0.000000
2.000000 3.460000 0.000000
2.000000 3.480000 0.000000
2.000000 3.500000 0.000000
2.000000 3.520000 0.000000
2.000000 3.540000 0.000000
2.000000 3.560000 0.000000
2.000000 3.580000 0.000000
2.000000 3.600000 0.000000
2.000000 3.620000 0.000000
2.000000 3.640000 0.000000
2.000000 3.660000 0.000000
2.000000 3.680000 0.000000
2.000000 3.700000 0.000000
2.000000 3.720000 0.000000
2.000000 3.740000 0.000000
2.000000 3.760000 0.000000
2.000000 3.780000 0.000000
2.000000 3.800000 0.000000
2.000000 3.820000 0.000000
2.000000 3.840000 0.000000
2.000000 3.860000 0.000000
2.000000 3.880000 0.000000
2.000000 3.900000 0.000000
2.000000 3.920000 0.000000
2.000000 3.940000 0.000000
2.000000 3.960000 0.000000
2.000000 3.980000 0.000000
1.980000 4.000000 0.000000
1.960000 4.000000 0.000000
1.940000 4.000000 0.000000
1.920000 4.000000 0.000000
1.900000 4.000000 0.000000
1.880000 4.000000 0.000000
1.860000 4.000000 0.000000
1.840000 4.000000 0.000000
1.820000 4.000000 0.000000
1.800000 4.000000 0.000000
1.780000 4.000000 0.000000
1.760000 4.000000 0.000000
1.740000 4.000000 0.000000
1.720000 4.000000 0.000000
1.700000 4.000000 0.000000
1.680000 4.000000 0.000000
1.660000 4.000000 0.000000
1.640000 4.000000 0.000000
1.620000 4.000000 0.000000
1.600000 4.000000 0.000000
1.580000 4.000000 0.000000
1.560000 4.000000 0.000000
1.540000 4.000000 0.000000
1.520000 4.000000 0.000000
1.500000 4.000000 0.000000
1.480000 4.000000 0.000000
1.460000 4.000000 0.000000
1.440000 4.000000 0.000000
1.420000 4.000000 0.000000
1.400000 4.000000 0.000000
1.380000 4.000000 0.000000
1.360000 4.000000 0.000000
1.340000 4.000000 0.000000
1.320000 4.000000 0.000000
1.300000 4.000000 0.000000
1.280000 4.000000 0.000000
1.260000 4.000000 0.000000
1.240000 4.000000 0.000000
1.220000 4.000000 0.000000
1.200000 4.000000 0.000000
1.180000 4.000000 0.000000
1.160000 4.000000 0.000000
1.140000 4.000000 0.000000
1.120000 4.000000 0.000000
1.100000 4.000000 0.000000
1.080000 4.000000 0.000000
1.060000 4.000000 0.000000
1.040000 4.000000 0.000000
1.020000 4.000000 0.000000
1.000000 4.000000 0.000000
0.980000 4.000000 0.000000
0.960000 4.000000 0.000000
0.940000 4.000000 0.000000
0.920000 4.000000 0.000000
0.900000 4.000000 0.000000
0.880000 4.000000 0.000000
0.860000 4.000000 0.000000
0.840000 4.000000 0.000000
0.820000 4.000000 0.000000
0.800000 4.000000 0.000000
0.780000 4.000000 0.000000
0.760000 4.000000 0.000000
0.740000 4.000000 0.000000
[...]
POINT_DATA 25620
SCALARS UX float 1
LOOKUP_TABLE default
-0.000076
0.000049
0.427521
-0.609807
-0.184939
0.182776
0.332948
-0.000055
-0.000016
-0.000007
0.000019
-0.000020
0.000008
-0.000015
0.000007
-0.000002
0.000002
0.000002
-0.000002
-0.000001
-0.000001
-0.000000
0.000001
-0.000000
0.000000
0.000001
-0.000003
-0.000006
0.000006
-0.000002
-0.000001
-0.000000
-0.000000
-0.000000
-0.000002
-0.000001
0.000001
-0.000001
-0.000001
-0.000002
0.000000
0.000000
-0.000000
-0.000000
-0.000000
-0.000000
0.000000
-0.000000
-0.000000
-0.000000
0.000000
-0.000000
-0.000000
0.000001
0.000002
-0.000001
0.000000
0.000000
0.000000
-0.000000
0.000000
0.000001
-0.000000
0.000000
-0.000000
0.000000
0.000000
0.000001
0.000000
-0.000000
-0.000000
0.000001
-0.000000
0.000000
0.000000
-0.000000
0.000002
-0.000000
0.000001
-0.000000
0.000000
0.000001
-0.000000
0.000000
0.000000
0.000001
0.000001
-0.000000
0.000000
0.000001
0.000000
0.000000
0.000001
-0.000000
-0.000000
0.000001
0.000001
0.000001
0.000000
-0.000004
-0.000000
-0.000001
0.000004
0.000004
-0.000018
0.000020
0.016734
0.024125
0.030994
0.036830
0.041848
0.046540
0.050859
0.054926
0.058738
0.062272
0.065651
0.068766
0.071835
0.074708
0.077500
0.080099
0.082682
0.085237
0.087487
0.089598
0.091707
0.093554
0.095380
0.097107
0.098782
0.100445
0.101989
0.103501
0.104887
0.106243
0.107816
0.109071
0.110477
0.111782
0.113067
0.114474
0.115766
0.117188
0.118572
0.120113
0.121852
0.123496
0.124914
0.126273
0.127620
0.128692
0.130364
0.131710
0.133199
0.134579
0.135988
0.137890
0.139703
0.141450
0.143465
0.145658
0.148115
0.150633
0.153312
0.156208
0.159320
0.162479
0.165752
0.169561
0.173282
0.177453
0.181746
0.186285
0.191173
0.196167
0.201433
0.206427
0.211626
0.216982
0.222552
0.227899
0.233275
0.238630
0.243887
0.248898
0.254158
0.259070
0.264005
0.268748
0.273370
0.277830
0.282085
0.286380
0.290549
0.294464
0.298262
0.302040
0.305583
0.308978
0.312177
0.315185
0.317833
0.320334
0.322746
0.325654
0.328347
0.330563
0.333341
0.335854
0.338386
0.340888
0.343405
0.345752
0.348005
0.350313
0.352638
0.354904
0.357086
0.358978
0.360379
0.361316
0.361777
0.361279
0.360098
0.358358
0.354556
0.352252
0.349383
0.342303
0.326145
0.314313
0.296407
0.266330
0.227626
0.199808
0.183368
0.170976
0.161521
0.153730
0.145617
0.139329
0.131667
0.125413
0.118559
0.111419
0.103018
0.098345
0.093597
0.089181
0.086199
0.083278
0.080846
0.079723
0.080173
0.081202
0.084441
0.088001
0.091690
0.086026
0.079871
0.077263
0.076171
0.074890
0.072501
0.070797
0.065278
0.061573
0.057375
0.055212
0.053453
0.051349
0.050112
0.049280
0.049476
0.049489
0.050129
0.050871
0.051948
0.052466
0.054644
0.056619
0.058808
0.062083
0.065263
0.068843
0.074258
0.084382
0.092261
0.104697
0.117426
0.125166
0.135742
0.145115
0.154564
0.158752
0.167365
0.172543
0.182384
0.188735
0.217071
0.254545
0.360660
0.466369
0.419224
0.330493
0.255405
0.221737
0.153482
0.074147
0.049954
0.019231
-0.004818
-0.022051
-0.040295
-0.054298
-0.067243
-0.079157
-0.089849
-0.099921
-0.110267
-0.119755
-0.128854
-0.138092
-0.147546
-0.156606
-0.165629
-0.174893
-0.183843
-0.192796
-0.202015
-0.211259
-0.220400
-0.229456
-0.238650
-0.247549
-0.256133
-0.264960
-0.273457
-0.281711
-0.290053
-0.297941
-0.305888
-0.313754
-0.321123
-0.328376
-0.335410
-0.342532
-0.349457
-0.356239
-0.362932
-0.369617
-0.376014
-0.382136
-0.388300
-0.394457
-0.400317
-0.406062
-0.412027
-0.417778
-0.423336
-0.428806
-0.434114
-0.439369
-0.444600
-0.449880
-0.455043
-0.460171
-0.465260
-0.470178
-0.475040
-0.479897
-0.484805
-0.489479
-0.494116
-0.498769
-0.503388
-0.507971
-0.512453
-0.516788
-0.521328
-0.525806
-0.530046
-0.534294
-0.538554
-0.542725
-0.546852
-0.550973
-0.555053
-0.559109
-0.563061
-0.566799
-0.570741
-0.574624
-0.578481
-0.582050
-0.585784
-0.589542
-0.593050
-0.596567
-0.599999
-0.603268
-0.606617
-0.609794
-0.609679
-0.609317
-0.608909
-0.608071
-0.607210
-0.606133
-0.605041
-0.603801
-0.602293
-0.600742
-0.598827
-0.596927
-0.594792
-0.592570
-0.590034
-0.587687
-0.584918
-0.582080
-0.579139
-0.576051
-0.572606
-0.569160
-0.565626
-0.561823
-0.558127
-0.554173
-0.549976
-0.545934
-0.541722
-0.537072
-0.532583
-0.528087
-0.523434
-0.518621
-0.513696
-0.508698
-0.503646
-0.498525
-0.493366
-0.488105
-0.482807
-0.477600
-0.472616
-0.467198
-0.462023
-0.456576
-0.451186
-0.446364
-0.440740
-0.435888
-0.430818
-0.425871
-0.420579
-0.415435
-0.410711
-0.406459
-0.401875
-0.397153
-0.392628
-0.388590
-0.384396
-0.380484
-0.376769
-0.372672
-0.369101
-0.365728
-0.362600
-0.359244
-0.356010
-0.353478
-0.350703
-0.348358
-0.345853
-0.343360
-0.340992
-0.338823
-0.336971
-0.334816
-0.333119
-0.332120
-0.330324
-0.328295
-0.327429
-0.326054
-0.324344
-0.323741
-0.322383
-0.320948
-0.320317
-0.319029
-0.318343
-0.317251
-0.316235
-0.315261
-0.314230
-0.313407
-0.312385
-0.311351
-0.310164
-0.309192
-0.308443
-0.307248
-0.306190
-0.305259
-0.303948
-0.303062
-0.301996
-0.300611
-0.299541
-0.298360
-0.297269
-0.295741
-0.294710
-0.293476
-0.292232
-0.290979
-0.289647
-0.288455
-0.287308
-0.285847
-0.284791
-0.283516
-0.282362
-0.281256
-0.280144
-0.279175
-0.278019
-0.277172
-0.276388
-0.275620
-0.274822
-0.274358
-0.273860
-0.273431
-0.273248
-0.272870
-0.272845
-0.272882
-0.272789
-0.272953
-0.273061
-0.273164
-0.273380
-0.273496
-0.273597
-0.273452
-0.273437
-0.273126
-0.272744
-0.272039
-0.271059
-0.269782
-0.268120
-0.266041
-0.263619
-0.260668
-0.257293
-0.253432
-0.249172
-0.244484
-0.239442
-0.234376
-0.229421
-0.224707
-0.220548
-0.217291
-0.215288
-0.215277
-0.217699
-0.221954
-0.225902
-0.236251
-0.250294
-0.172760
-0.171392
-0.168627
-0.166168
-0.163101
-0.159556
-0.155804
-0.151705
-0.147316
-0.142689
-0.137945
-0.132965
-0.127855
-0.122622
-0.117074
-0.111554
-0.105577
-0.099695
-0.093192
-0.086645
-0.079778
-0.072679
-0.064463
-0.056830
-0.262927
-0.207987
-0.225816
-0.249024
-0.209309
-0.187906
-0.190285
-0.218710
-0.232721
-0.213236
-0.194463
-0.179908
-0.165975
-0.175873
-0.230879
-0.207591
-0.195687
-0.198725
-0.216557
-0.184748
-0.183387
-0.164746
-0.159096
-0.219510
-0.195841
-0.230479
-0.199098
-0.157956
-0.181341
-0.163189
-0.159804
-0.151090
-0.145363
-0.140740
-0.168324
-0.180427
-0.182560
-0.180202
-0.167076
-0.152058
-0.170722
-0.127638
-0.119849
-0.159449
-0.140645
-0.121977
-0.130503
-0.128223
-0.116679
-0.113177
-0.118195
-0.114360
-0.116012
-0.116627
-0.135621
-0.133208
-0.124282
-0.129487
-0.121033
-0.107987
-0.125799
-0.154427
-0.141207
-0.121360
-0.126847
-0.139360
-0.121917
-0.111878
-0.069686
-0.014641
-0.072703
-0.058108
-0.070653
-0.048643
-0.019330
-0.155107
0.042967
-0.001648
-0.070355
-0.059201
-0.019039
0.017824
0.025296
0.034483
0.007775
0.018886
-0.000756
0.001476
0.002880
0.029626
0.072263
0.056456
0.078974
0.015784
0.060327
0.056074
0.064267
0.068812
0.073239
0.111833
0.092623
0.173481
0.138596
0.166248
0.155309
0.151075
0.180012
0.182981
0.177606
0.164663
0.158770
0.160816
0.162041
0.159378
0.162356
0.166700
0.171612
0.176216
0.183136
0.191715
0.200151
0.211390
0.220509
0.231457
0.240956
0.251784
0.261259
0.268027
0.277878
0.285838
0.293793
0.301026
0.307692
0.313158
0.317661
0.322438
0.325826
0.329307
0.331867
0.333029
0.331957
-0.258665
-0.251716
-0.254480
-0.253546
-0.208241
-0.208800
-0.206087
-0.203225
-0.074271
-0.081963
-0.073332
-0.081675
0.184069
0.172634
0.185433
-0.225590
-0.224626
-0.232099
0.206407
0.204136
0.176890
0.193730
0.178378
-0.009893
-0.008746
-0.003306
-0.499373
-0.506224
-0.506349
-0.501017
-0.206677
-0.200271
-0.206732
-0.196097
-0.014846
-0.516427
-0.515009
-0.519984
-0.460724
-0.467283
-0.467352
-0.512010
-0.210470
-0.210262
-0.213893
-0.206926
-0.484623
-0.491298
-0.485705
-0.207478
-0.204898
-0.204470
-0.198312
-0.195290
-0.200853
-0.207955
-0.249899
-0.247762
-0.247535
-0.244429
-0.245056
-0.243944
0.141165
0.135525
-0.226388
-0.225657
-0.228793
-0.223543
-0.245214
-0.248147
0.015044
0.017553
0.013661
-0.194079
-0.196262
-0.536621
-0.541038
-0.539527
-0.543375
-0.178853
-0.180087
-0.173339
-0.184967
-0.119680
-0.110719
-0.119506
-0.113893
-0.488888
-0.485615
-0.488260
-0.483871
0.021658
-0.409577
-0.412507
-0.414894
0.020774
0.029588
0.023975
0.030139
-0.013402
-0.013843
-0.020200
-0.265722
-0.268056
-0.260721
-0.006029
-0.181758
-0.179599
-0.181749
-0.057317
-0.062375
-0.064618
-0.056285
0.030354
0.034909
0.026793
-0.043093
-0.049252
-0.050612
-0.046132
-0.444882
-0.449084
-0.444300
-0.451379
-0.490701
-0.486555
-0.492621
-0.486716
-0.165777
-0.168699
-0.170502
-0.163196
-0.175418
-0.181420
-0.180308
-0.179250
-0.038276
-0.033392
-0.033383
-0.538088
-0.539519
-0.542216
-0.038595
0.047282
0.042676
-0.418049
-0.065986
-0.062432
-0.060481
-0.088149
-0.081608
-0.081637
-0.214437
-0.212366
-0.212969
-0.211693
0.278918
0.247237
0.233411
0.011206
0.015144
0.008030
0.247445
0.282391
0.274289
0.263046
0.301403
0.322616
0.321574
0.311283
-0.453842
-0.450119
-0.458307
-0.454896
-0.586894
-0.582948
-0.583359
-0.584884
-0.117057
-0.111152
-0.115369
-0.410180
-0.413890
-0.405597
-0.409500
-0.018081
-0.026024
-0.022552
-0.418906
-0.420112
-0.413731
-0.031235
-0.425128
-0.409661
-0.406481
-0.399998
-0.207675
-0.210321
-0.209750
-0.212771
-0.306448
-0.314233
-0.311737
-0.318561
-0.221345
-0.222992
-0.217458
-0.225837
-0.205530
-0.205799
-0.211285
-0.211313
-0.028526
-0.031837
-0.034113
-0.580665
-0.580825
-0.038169
-0.577865
-0.003604
0.002930
-0.000203
0.004502
0.174538
0.164832
0.163919
0.156223
-0.017121
-0.022432
-0.009666
-0.021466
-0.280904
-0.283982
-0.276622
-0.287130
-0.059057
-0.571020
-0.574649
-0.571331
-0.572240
-0.513439
-0.506498
-0.511819
-0.066169
-0.064151
-0.072210
-0.204988
-0.213738
-0.213943
-0.097956
-0.102598
-0.100764
-0.100223
-0.096063
-0.098688
-0.104599
-0.106410
-0.228372
-0.231206
-0.230406
-0.233947
-0.268717
-0.264012
-0.267664
0.119967
-0.265752
-0.488632
-0.482837
-0.484958
-0.487161
-0.485170
-0.489533
-0.486971
-0.255102
-0.254885
-0.251037
-0.252436
-0.252257
-0.029474
-0.032721
-0.026743
-0.034246
-0.018887
-0.019225
-0.015428
-0.248375
-0.148763
-0.148634
-0.154587
-0.156336
-0.191497
-0.188209
-0.186473
-0.182710
-0.204896
-0.203285
-0.208386
-0.200644
-0.151790
-0.159001
-0.523940
-0.527018
-0.528583
-0.161574
-0.084906
-0.077680
-0.079341
-0.591383
-0.592086
-0.588756
-0.067184
0.038195
0.060960
0.045860
-0.170547
-0.168432
-0.173873
-0.210373
-0.211948
-0.208100
-0.215218
-0.441795
-0.446410
-0.439793
-0.447551
-0.108910
-0.115182
-0.114544
-0.111790
-0.087744
-0.084596
-0.081846
-0.079103
0.021339
0.020898
0.029784
0.026991
-0.190165
-0.189764
-0.175854
-0.180586
-0.178134
-0.179314
0.057705
0.051926
0.051807
0.046919
-0.202451
-0.205774
-0.208540
-0.212246
-0.470579
-0.465104
-0.466595
-0.468827
-0.060413
-0.065978
-0.062304
-0.069519
-0.225134
-0.230771
-0.222501
0.098162
0.093510
0.095385
0.005115
0.009851
0.008525
0.013606
0.004879
0.013279
0.013215
0.021389
0.026407
0.021336
0.023808
0.020838
0.059097
0.059711
0.061955
0.056656
-0.069136
-0.060733
-0.064714
-0.571557
-0.575138
-0.572999
-0.155089
-0.154691
-0.158201
-0.150484
-0.064852
-0.458122
-0.456841
-0.461159
-0.081499
-0.077887
-0.082009
-0.077555
-0.089004
-0.090828
-0.083975
-0.134939
-0.133416
-0.142860
-0.088940
-0.254072
-0.255329
-0.259437
-0.174624
-0.191731
-0.192343
-0.190029
-0.190067
-0.255950
-0.256181
-0.253091
-0.258920
0.033266
0.037178
0.031252
-0.285450
-0.279270
-0.282233
0.091339
0.087316
0.085455
-0.434349
-0.438730
-0.433750
-0.439446
-0.090738
-0.092299
-0.095950
-0.288049
-0.289705
-0.285978
-0.292304
-0.283757
-0.214071
-0.214123
-0.208532
-0.160975
-0.157241
-0.156741
-0.278551
-0.290178
-0.287724
-0.291541
-0.204640
-0.200578
-0.201773
-0.533734
-0.537123
-0.536375
-0.283930
-0.283522
-0.278761
-0.279476
-0.019171
-0.007492
-0.015184
-0.289054
-0.284646
-0.292647
-0.571474
-0.571541
-0.568358
-0.300930
-0.296552
-0.297013
-0.568698
-0.570164
0.094159
0.132279
0.078172
-0.126781
-0.127972
-0.530405
-0.531821
-0.125110
-0.123909
-0.116390
-0.200122
-0.196919
-0.201038
-0.129687
-0.123743
-0.126909
-0.119155
-0.294619
-0.300055
-0.205839
-0.211000
-0.088709
-0.091344
-0.607124
-0.207543
-0.206771
-0.210974
0.110420
0.117518
0.116719
0.113957
-0.211112
-0.301715
0.084451
0.088807
0.087617
-0.591364
-0.593812
-0.590773
-0.094804
-0.112233
0.135583
0.142308
0.142349
0.219089
0.086904
-0.176823
-0.174616
-0.180875
-0.213842
-0.245151
-0.244002
-0.246923
-0.118772
-0.120326
-0.123243
-0.170699
-0.454351
-0.445548
-0.451594
-0.210801
-0.210226
-0.208981
-0.241478
-0.107253
-0.116419
-0.112554
-0.112583
-0.110240
-0.003587
0.005063
0.003396
-0.110749
-0.115608
-0.200416
-0.199187
-0.206296
0.033692
0.030784
0.027283
-0.539843
-0.537610
0.036695
-0.183773
-0.189424
-0.184913
-0.221829
-0.223083
-0.225701
-0.211195
-0.212414
-0.106897
-0.104416
-0.100048
-0.214173
-0.096122
-0.186839
-0.143158
-0.135121
-0.598307
0.146808
0.212891
-0.567131
-0.193257
-0.108633
-0.108043
-0.113713
-0.101093
-0.140723
-0.134288
-0.136879
-0.230254
-0.128423
-0.189904
-0.189742
-0.192241
-0.186869
-0.183113
-0.177863
-0.175924
-0.098584
-0.206967
-0.209267
-0.235121
-0.237825
-0.238484
-0.203670
-0.197303
-0.241660
-0.580278
-0.581373
-0.578414
-0.214437
-0.214809
-0.212161
-0.216750
-0.236557
-0.233140
-0.233936
-0.605882
-0.589967
-0.590652
-0.587038
-0.602904
-0.602373
-0.605154
-0.544003
-0.542788
-0.547360
-0.098773
-0.102901
-0.098090
-0.103639
-0.114343
-0.110850
-0.095999
-0.115041
-0.113870
-0.129121
0.187526
-0.533290
-0.105106
-0.231285
-0.231550
-0.228632
-0.304740
-0.299712
-0.300952
-0.296112
-0.313341
-0.320309
-0.315684
-0.321527
-0.142675
-0.147644
-0.142056
-0.146307
0.049761
0.053199
0.057938
0.060283
-0.212036
-0.210675
-0.212346
-0.204069
-0.216995
-0.604799
-0.601834
-0.395545
-0.392295
-0.397240
-0.400642
-0.595337
0.102840
0.063843
0.117187
-0.085368
-0.086418
-0.080956
0.071136
0.069969
0.068259
0.067753
-0.217763
-0.214433
-0.220190
-0.081282
-0.599081
-0.599530
-0.597268
0.094796
0.101367
0.099189
-0.141992
-0.138057
-0.137913
0.097112
0.116644
0.123098
-0.143630
-0.212131
-0.213594
-0.214460
-0.219634
-0.294915
-0.293654
-0.291013
-0.298680
-0.346255
-0.348385
-0.354423
0.261516
-0.341138
-0.298014
-0.292478
-0.298012
-0.291336
0.232990
-0.255598
-0.258449
-0.251092
-0.379080
-0.377589
-0.384780
-0.220500
0.132511
0.128453
0.139049
-0.605579
0.121612
-0.600764
-0.600101
-0.547057
-0.548653
-0.545507
0.110464
0.107573
0.113771
0.108654
-0.338281
-0.336586
-0.342364
-0.331698
-0.372118
0.180433
-0.341183
-0.348276
0.176541
0.118828
0.145545
-0.221249
-0.217431
-0.224373
-0.211308
-0.213891
-0.216572
-0.205890
-0.171770
-0.167458
-0.166271
0.092831
0.092658
-0.127758
-0.122398
-0.116171
-0.189882
-0.193274
-0.194089
0.150159
-0.190388
-0.254214
-0.255265
-0.252602
-0.000303
0.006632
0.003734
-0.249383
-0.251395
-0.248125
-0.224522
0.036441
0.045458
0.043874
-0.270144
-0.267194
-0.267355
-0.264150
-0.592679
0.000211
-0.139138
-0.131521
-0.134983
0.060672
0.174797
-0.076905
-0.082234
-0.078573
-0.225141
-0.220486
-0.229160
-0.595125
-0.595793
-0.597582
0.061053
0.065416
0.082928
-0.208269
-0.215153
-0.218815
-0.189184
-0.229346
-0.082135
-0.243003
-0.244898
-0.241234
0.238831
-0.407978
-0.401351
-0.405364
-0.235150
-0.237182
-0.232788
-0.315430
-0.310092
-0.309750
-0.583382
-0.585634
-0.403003
-0.412302
-0.410846
-0.405505
-0.604065
-0.602757
-0.599227
-0.598087
-0.094043
-0.089174
-0.087241
-0.460402
-0.452272
-0.457479
0.170830
0.138007
0.172277
0.095404
-0.404746
0.176677
0.181621
0.152142
-0.228869
-0.223951
-0.235077
-0.209388
-0.217809
-0.221505
-0.198234
0.165557
-0.592415
-0.589643
0.041311
0.046816
0.045260
0.037030
0.022223
0.050993
-0.233823
-0.592206
-0.595130
0.051072
0.065878
-0.233583
-0.227676
-0.238503
-0.128479
-0.201801
-0.198159
-0.197020
-0.205252
-0.369302
-0.374005
-0.375042
0.103547
0.103008
0.106030
-0.244082
-0.251397
-0.249821
-0.256344
-0.393756
-0.390822
-0.396013
-0.388394
-0.212561
-0.222239
-0.225554
-0.200459
-0.260563
-0.259010
-0.261676
-0.600533
-0.601965
-0.257616
-0.254269
-0.597155
-0.595854
0.163136
0.164438
-0.262419
0.127834
0.082587
-0.237724
-0.238249
0.024714
0.030301
0.024974
-0.278061
-0.282183
-0.275294
-0.285689
-0.463653
-0.468352
-0.469873
-0.257111
-0.257463
-0.461304
0.219444
0.191921
0.190021
0.075312
0.071140
0.076805
0.070319
-0.368125
-0.231632
-0.577957
-0.578192
-0.065808
-0.067795
-0.061873
-0.218282
-0.063304
-0.187782
-0.194373
-0.193162
-0.227002
-0.229759
-0.206321
-0.589227
-0.189618
-0.072330
-0.079296
-0.077038
0.026134
-0.083167
-0.249804
-0.247895
-0.589409
-0.592084
-0.586530
0.039127
0.053870
-0.008367
-0.251377
-0.241681
-0.184817
-0.181800
-0.183330
-0.364056
-0.370771
-0.362864
0.003671
0.012849
0.010146
-0.255005
-0.253152
-0.146326
-0.149102
-0.143380
-0.235380
-0.256260
-0.226141
-0.143593
-0.151652
-0.143514
-0.145523
-0.557217
-0.553927
-0.553067
-0.231215
-0.233810
-0.370638
-0.382075
-0.381829
-0.374316
0.022934
0.023442
0.019208
-0.597842
0.015597
-0.284602
-0.288477
-0.594630
-0.594002
-0.599773
0.154839
-0.388510
0.102649
0.071344
0.157145
-0.187460
-0.185666
-0.188361
0.058851
0.055201
0.060270
-0.104480
-0.109612
-0.108972
-0.119784
-0.109050
-0.118619
-0.110781
0.063173
0.066647
0.066273
-0.187203
-0.188573
-0.182764
-0.460292
-0.464358
-0.457793
-0.461392
-0.243857
-0.241508
-0.246305
-0.194187
-0.225769
-0.230035
-0.222090
-0.396531
-0.392907
-0.236566
-0.232926
-0.239197
-0.248053
-0.245926
-0.241780
-0.239132
-0.246331
-0.249626
-0.246557
-0.400450
-0.586796
-0.188102
-0.188525
-0.186176
-0.389086
-0.389323
0.017463
-0.233666
-0.230222
-0.586481
-0.385338
0.070360
0.066572
0.073300
0.028987
-0.188844
-0.018520
-0.253466
-0.263673
-0.262551
-0.260015
0.071221
-0.164903
-0.171320
-0.166604
-0.171610
-0.259462
-0.258356
-0.196131
-0.194928
-0.550167
-0.546062
-0.547070
0.054719
-0.087585
-0.093642
-0.084668
-0.212228
-0.205235
-0.207038
-0.266928
-0.265561
-0.267614
-0.249888
-0.251768
-0.142682
-0.577617
-0.574394
-0.255356
-0.595950
-0.256932
-0.579955
-0.581862
-0.264493
-0.524951
-0.520384
-0.526720
-0.525361
-0.258782
-0.261136
-0.087811
-0.084139
-0.082289
-0.089073
0.151302
-0.042152
-0.032120
-0.042363
-0.031630
-0.186970
-0.188354
-0.187698
-0.585221
-0.586153
-0.583233
-0.533182
-0.530782
-0.529287
-0.260310
-0.261449
-0.243974
0.022072
0.015832
0.017398
0.029867
0.021929
0.025790
-0.247900
-0.246017
-0.225111
-0.220440
-0.236990
-0.241787
-0.239659
-0.240666
-0.217790
-0.210411
0.161156
-0.234510
-0.230774
-0.008457
-0.008213
0.028760
-0.234166
-0.231639
-0.253627
0.002229
-0.263477
-0.258838
-0.257323
-0.258667
-0.263324
-0.253077
-0.171701
-0.177639
-0.178338
-0.042537
-0.038823
-0.035350
0.192693
0.175481
0.181362
0.181285
-0.274358
-0.271145
-0.270483
-0.582273
-0.537617
-0.534721
-0.533168
-0.267439
-0.179433
-0.176242
-0.179381
-0.175729
0.019178
0.019459
0.026169
-0.183186
-0.182340
-0.186586
-0.249610
-0.251699
-0.255386
-0.257199
-0.525500
-0.523503
-0.527518
-0.183714
-0.216477
-0.224734
-0.225411
-0.220222
-0.265379
-0.266466
-0.302925
-0.304536
-0.310092
0.126911
0.121157
0.121235
-0.556127
-0.552156
-0.134839
-0.133806
0.123920
-0.173575
-0.171616
-0.181304
-0.174494
-0.027844
-0.029455
-0.023089
0.016629
0.022261
0.018117
0.026090
-0.179863
-0.179071
-0.177088
-0.176980
-0.174758
-0.144463
-0.141896
-0.138764
-0.260699
-0.262161
-0.565805
-0.569301
-0.568008
-0.567052
-0.175210
-0.254310
-0.253401
-0.250533
-0.257611
-0.257410
-0.243793
-0.247350
-0.245730
-0.577900
-0.260009
-0.241307
-0.239428
-0.237287
-0.225230
-0.170511
-0.169118
-0.166115
-0.163123
-0.442205
-0.445195
0.014144
0.021934
0.010207
-0.446677
-0.442331
-0.234461
-0.232228
-0.446379
-0.135370
-0.203373
-0.206311
-0.206074
-0.516742
-0.516867
-0.511900
-0.253385
-0.521927
-0.155532
-0.157234
-0.160836
-0.161148
-0.304321
-0.302530
-0.299051
-0.139013
-0.128293
-0.145971
-0.264057
-0.259023
-0.248924
-0.251271
-0.027541
-0.025195
-0.034629
-0.030176
0.224240
0.258858
0.265505
-0.593010
-0.592976
-0.589717
0.117347
0.117510
0.124646
0.111524
-0.575780
-0.578536
-0.576294
-0.255091
-0.257097
0.133035