# vtk DataFile Version 2.0
Test
ASCII
DATASET POLYDATA
POINTS 6577 float
0.000000 0.000000 0.000000
2.000000 0.000000 0.000000
2.000000 4.000000 0.000000
0.000000 4.000000 0.000000
0.000000 0.500000 0.000000
1.500000 2.000000 0.000000
2.000000 2.500000 0.000000
0.040000 0.000000 0.000000
0.080000 0.000000 0.000000
0.120000 0.000000 0.000000
0.160000 0.000000 0.000000
0.200000 0.000000 0.000000
0.240000 0.000000 0.000000
0.280000 0.000000 0.000000
0.320000 0.000000 0.000000
0.360000 0.000000 0.000000
0.400000 0.000000 0.000000
0.440000 0.000000 0.000000
0.480000 0.000000 0.000000
0.520000 0.000000 0.000000
0.560000 0.000000 0.000000
0.600000 0.000000 0.000000
0.640000 0.000000 0.000000
0.680000 0.000000 0.000000
0.720000 0.000000 0.000000
0.760000 0.000000 0.000000
0.800000 0.000000 0.000000
0.840000 0.000000 0.000000
0.880000 0.000000 0.000000
0.920000 0.000000 0.000000
0.960000 0.000000 0.000000
1.000000 0.000000 0.000000
1.040000 0.000000 0.000000
1.080000 0.000000 0.000000
1.120000 0.000000 0.000000
1.160000 0.000000 0.000000
1.200000 0.000000 0.000000
1.240000 0.000000 0.000000
1.280000 0.000000 0.000000
1.320000 0.000000 0.000000
1.360000 0.000000 0.000000
1.400000 0.000000 0.000000
1.440000 0.000000 0.000000
1.480000 0.000000 0.000000
1.520000 0.000000 0.000000
1.560000 0.000000 0.000000
1.600000 0.000000 0.000000
1.640000 0.000000 0.000000
1.680000 0.000000 0.000000
1.720000 0.000000 0.000000
1.760000 0.000000 0.000000
1.800000 0.000000 0.000000
1.840000 0.000000 0.000000
1.880000 0.000000 0.000000
1.920000 0.000000 0.000000
1.960000 0.000000 0.000000
2.000000 0.039683 0.000000
2.000000 0.079365 0.000000
2.000000 0.119048 0.000000
2.000000 0.158730 0.000000
2.000000 0.198413 0.000000
2.000000 0.238095 0.000000
2.000000 0.277778 0.000000
2.000000 0.317460 0.000000
2.000000 0.357143 0.000000
2.000000 0.396825 0.000000
2.000000 0.436508 0.000000
2.000000 0.476190 0.000000
2.000000 0.515873 0.000000
2.000000 0.555556 0.000000
2.000000 0.595238 0.000000
2.000000 0.634921 0.000000
2.000000 0.674603 0.000000
2.000000 0.714286 0.000000
2.000000 0.753968 0.000000
2.000000 0.793651 0.000000
2.000000 0.833333 0.000000
2.000000 0.873016 0.000000
2.000000 0.912698 0.000000
2.000000 0.952381 0.000000
2.000000 0.992063 0.000000
2.000000 1.031746 0.000000
2.000000 1.071429 0.000000
2.000000 1.111111 0.000000
2.000000 1.150794 0.000000
2.000000 1.190476 0.000000
2.000000 1.230159 0.000000
2.000000 1.269841 0.000000
2.000000 1.309524 0.000000
2.000000 1.349206 0.000000
2.000000 1.388889 0.000000
2.000000 1.428571 0.000000
2.000000 1.468254 0.000000
2.000000 1.507937 0.000000
2.000000 1.547619 0.000000
2.000000 1.587302 0.000000
2.000000 1.626984 0.000000
2.000000 1.666667 0.000000
2.000000 1.706349 0.000000
2.000000 1.746032 0.000000
2.000000 1.785714 0.000000
2.000000 1.825397 0.000000
2.000000 1.865079 0.000000
2.000000 1.904762 0.000000
2.000000 1.944444 0.000000
2.000000 1.984127 0.000000
2.000000 2.023810 0.000000
2.000000 2.063492 0.000000
2.000000 2.103175 0.000000
2.000000 2.142857 0.000000
2.000000 2.182540 0.000000
2.000000 2.222222 0.000000
2.000000 2.261905 0.000000
2.000000 2.301587 0.000000
2.000000 2.341270 0.000000
2.000000 2.380952 0.000000
2.000000 2.420635 0.000000
2.000000 2.460317 0.000000
2.000000 2.539474 0.000000
2.000000 2.578947 0.000000
2.000000 2.618421 0.000000
2.000000 2.657895 0.000000
2.000000 2.697368 0.000000
2.000000 2.736842 0.000000
2.000000 2.776316 0.000000
2.000000 2.815789 0.000000
2.000000 2.855263 0.000000
2.000000 2.894737 0.000000
2.000000 2.934211 0.000000
2.000000 2.973684 0.000000
2.000000 3.013158 0.000000
2.000000 3.052632 0.000000
2.000000 3.092105 0.000000
2.000000 3.131579 0.000000
2.000000 3.171053 0.000000
2.000000 3.210526 0.000000
2.000000 3.250000 0.000000
2.000000 3.289474 0.000000
2.000000 3.328947 0.000000
2.000000 3.368421 0.000000
2.000000 3.407895 0.000000
2.000000 3.447368 0.000000
2.000000 3.486842 0.000000
2.000000 3.526316 0.000000
2.000000 3.565789 0.000000
2.000000 3.605263 0.000000
2.000000 3.644737 0.000000
2.000000 3.684211 0.000000
2.000000 3.723684 0.000000
2.000000 3.763158 0.000000
2.000000 3.802632 0.000000
2.000000 3.842105 0.000000
2.000000 3.881579 0.000000
2.000000 3.921053 0.000000
2.000000 3.960526 0.000000
1.960000 4.000000 0.000000
1.920000 4.000000 0.000000
1.880000 4.000000 0.000000
1.840000 4.000000 0.000000
1.800000 4.000000 0.000000
1.760000 4.000000 0.000000
1.720000 4.000000 0.000000
1.680000 4.000000 0.000000
1.640000 4.000000 0.000000
1.600000 4.000000 0.000000
1.560000 4.000000 0.000000
1.520000 4.000000 0.000000
1.480000 4.000000 0.000000
1.440000 4.000000 0.000000
1.400000 4.000000 0.000000
1.360000 4.000000 0.000000
1.320000 4.000000 0.000000
1.280000 4.000000 0.000000
1.240000 4.000000 0.000000
1.200000 4.000000 0.000000
1.160000 4.000000 0.000000
1.120000 4.000000 0.000000
1.080000 4.000000 0.000000
1.040000 4.000000 0.000000
1.000000 4.000000 0.000000
0.960000 4.000000 0.000000
0.920000 4.000000 0.000000
0.880000 4.000000 0.000000
0.840000 4.000000 0.000000
0.800000 4.000000 0.000000
0.760000 4.000000 0.000000
0.720000 4.000000 0.000000
0.680000 4.000000 0.000000
0.640000 4.000000 0.000000
0.600000 4.000000 0.000000
0.560000 4.000000 0.000000
0.520000 4.000000 0.000000
0.480000 4.000000 0.000000
0.440000 4.000000 0.000000
0.400000 4.000000 0.000000
0.360000 4.000000 0.000000
0.320000 4.000000 0.000000
0.280000 4.000000 0.000000
0.240000 4.000000 0.000000
0.200000 4.000000 0.000000
0.160000 4.000000 0.000000
0.120000 4.000000 0.000000
0.080000 4.000000 0.000000
0.040000 4.000000 0.000000
0.000000 3.960227 0.000000
0.000000 3.920455 0.000000
0.000000 3.880682 0.000000
0.000000 3.840909 0.000000
0.000000 3.801136 0.000000
0.000000 3.761364 0.000000
0.000000 3.721591 0.000000
0.000000 3.681818 0.000000
0.000000 3.642045 0.000000
0.000000 3.602273 0.000000
0.000000 3.562500 0.000000
0.000000 3.522727 0.000000
0.000000 3.482955 0.000000
0.000000 3.443182 0.000000
0.000000 3.403409 0.000000
0.000000 3.363636 0.000000
0.000000 3.323864 0.000000
0.000000 3.284091 0.000000
0.000000 3.244318 0.000000
0.000000 3.204545 0.000000
0.000000 3.164773 0.000000
0.000000 3.125000 0.000000
0.000000 3.085227 0.000000
0.000000 3.045455 0.000000
0.000000 3.005682 0.000000
0.000000 2.965909 0.000000
0.000000 2.926136 0.000000
0.000000 2.886364 0.000000
0.000000 2.846591 0.000000
0.000000 2.806818 0.000000
0.000000 2.767045 0.000000
0.000000 2.727273 0.000000
0.000000 2.687500 0.000000
0.000000 2.647727 0.000000
0.000000 2.607955 0.000000
0.000000 2.568182 0.000000
0.000000 2.528409 0.000000
0.000000 2.488636 0.000000
0.000000 2.448864 0.000000
0.000000 2.409091 0.000000
0.000000 2.369318 0.000000
0.000000 2.329545 0.000000
0.000000 2.289773 0.000000
0.000000 2.250000 0.000000
0.000000 2.210227 0.000000
0.000000 2.170455 0.000000
0.000000 2.130682 0.000000
0.000000 2.090909 0.000000
0.000000 2.051136 0.000000
0.000000 2.011364 0.000000
0.000000 1.971591 0.000000
0.000000 1.931818 0.000000
0.000000 1.892045 0.000000
0.000000 1.852273 0.000000
0.000000 1.812500 0.000000
0.000000 1.772727 0.000000
0.000000 1.732955 0.000000
0.000000 1.693182 0.000000
0.000000 1.653409 0.000000
0.000000 1.613636 0.000000
0.000000 1.573864 0.000000
0.000000 1.534091 0.000000
0.000000 1.494318 0.000000
0.000000 1.454545 0.000000
0.000000 1.414773 0.000000
0.000000 1.375000 0.000000
0.000000 1.335227 0.000000
0.000000 1.295455 0.000000
0.000000 1.255682 0.000000
0.000000 1.215909 0.000000
0.000000 1.176136 0.000000
0.000000 1.136364 0.000000
0.000000 1.096591 0.000000
0.000000 1.056818 0.000000
0.000000 1.017045 0.000000
0.000000 0.977273 0.000000
0.000000 0.937500 0.000000
0.000000 0.897727 0.000000
0.000000 0.857955 0.000000
0.000000 0.818182 0.000000
0.000000 0.778409 0.000000
0.000000 0.738636 0.000000
0.000000 0.698864 0.000000
0.000000 0.659091 0.000000
0.000000 0.619318 0.000000
0.000000 0.579545 0.000000
0.000000 0.539773 0.000000
0.000000 0.461538 0.000000
0.000000 0.423077 0.000000
0.000000 0.384615 0.000000
0.000000 0.346154 0.000000
0.000000 0.307692 0.000000
0.000000 0.269231 0.000000
0.000000 0.230769 0.000000
0.000000 0.192308 0.000000
0.000000 0.153846 0.000000
0.000000 0.115385 0.000000
0.000000 0.076923 0.000000
0.000000 0.038462 0.000000
0.027778 0.527778 0.000000
0.055556 0.555556 0.000000
0.083333 0.583333 0.000000
0.111111 0.611111 0.000000
0.138889 0.638889 0.000000
0.166667 0.666667 0.000000
0.194444 0.694444 0.000000
0.222222 0.722222 0.000000
0.250000 0.750000 0.000000
0.277778 0.777778 0.000000
0.305556 0.805556 0.000000
0.333333 0.833333 0.000000
0.361111 0.861111 0.000000
0.388889 0.888889 0.000000
0.416667 0.916667 0.000000
0.444444 0.944444 0.000000
0.472222 0.972222 0.000000
0.500000 1.000000 0.000000
0.527778 1.027778 0.000000
0.555556 1.055556 0.000000
0.583333 1.083333 0.000000
0.611111 1.111111 0.000000
0.638889 1.138889 0.000000
0.666667 1.166667 0.000000
0.694444 1.194444 0.000000
0.722222 1.222222 0.000000
0.750000 1.250000 0.000000
0.777778 1.277778 0.000000
0.805556 1.305556 0.000000
0.833333 1.333333 0.000000
0.861111 1.361111 0.000000
0.888889 1.388889 0.000000
0.916667 1.416667 0.000000
0.944444 1.444444 0.000000
0.972222 1.472222 0.000000
1.000000 1.500000 0.000000
1.027778 1.527778 0.000000
1.055556 1.555556 0.000000
1.083333 1.583333 0.000000
1.111111 1.611111 0.000000
1.138889 1.638889 0.000000
1.166667 1.666667 0.000000
1.194444 1.694444 0.000000
1.222222 1.722222 0.000000
1.250000 1.750000 0.000000
1.277778 1.777778 0.000000
1.305556 1.805556 0.000000
1.333333 1.833333 0.000000
1.361111 1.861111 0.000000
1.388889 1.888889 0.000000
1.416667 1.916667 0.000000
1.444444 1.944444 0.000000
1.472222 1.972222 0.000000
1.527778 2.027778 0.000000
1.555556 2.055556 0.000000
1.583333 2.083333 0.000000
1.611111 2.111111 0.000000
1.638889 2.138889 0.000000
1.666667 2.166667 0.000000
1.694444 2.194444 0.000000
1.722222 2.222222 0.000000
1.750000 2.250000 0.000000
1.777778 2.277778 0.000000
1.805556 2.305556 0.000000
[...]
POINT_DATA 6577
SCALARS UX float 1
LOOKUP_TABLE default
-0.000036
0.000150
-0.029624
-0.514169
-0.261987
-0.063093
0.026156
-0.000002
-0.000004
-0.000004
0.000004
0.000004
-0.000018
0.000003
0.000003
0.000003
0.000004
0.000003
-0.000002
0.000002
0.000002
-0.000001
0.000001
0.000001
0.000002
0.000001
-0.000001
-0.000002
0.000002
-0.000001
0.000002
0.000001
0.000000
-0.000000
0.000000
0.000000
-0.000001
0.000000
0.000001
-0.000003
0.000001
0.000001
-0.000003
0.000003
0.000003
-0.000008
-0.000003
-0.000000
-0.000001
-0.000009
0.000014
-0.000012
0.000011
0.000011
-0.000063
0.000045
0.045977
0.067879
0.090607
0.103935
0.121103
0.136799
0.146069
0.162415
0.170461
0.175007
0.187411
0.195266
0.202364
0.209135
0.219012
0.222259
0.225561
0.233071
0.238135
0.244957
0.247028
0.250480
0.251334
0.256402
0.256679
0.263294
0.267209
0.266718
0.265687
0.268469
0.268353
0.272036
0.276352
0.273393
0.268463
0.269129
0.269374
0.266965
0.265385
0.262062
0.260685
0.254957
0.250104
0.241802
0.236264
0.224476
0.217122
0.208449
0.195648
0.183087
0.170525
0.150590
0.144443
0.147298
0.114890
0.097449
0.091181
0.071225
0.065336
0.048492
0.045554
0.029090
0.024678
0.021303
0.016697
0.015338
0.009986
0.001683
-0.002087
0.000702
-0.006342
-0.015291
-0.019160
-0.015520
-0.015999
-0.015465
-0.017967
-0.019989
-0.018242
-0.020278
-0.017562
-0.020443
-0.017667
-0.019170
-0.022181
-0.023607
-0.022343
-0.023435
-0.022809
-0.016494
-0.024067
-0.026811
-0.025799
-0.027412
-0.026523
-0.031748
-0.028326
-0.026273
-0.025767
-0.038581
-0.050021
-0.061082
-0.070944
-0.080331
-0.088962
-0.097010
-0.110540
-0.118837
-0.129398
-0.142032
-0.155809
-0.163518
-0.177440
-0.184916
-0.196668
-0.204763
-0.213540
-0.222614
-0.230138
-0.243129
-0.250134
-0.260383
-0.267610
-0.278082
-0.289630
-0.297683
-0.306218
-0.319010
-0.329086
-0.336843
-0.346214
-0.356220
-0.367574
-0.374833
-0.382415
-0.393398
-0.402595
-0.412856
-0.422515
-0.429410
-0.439197
-0.448020
-0.458466
-0.465760
-0.474928
-0.483972
-0.494613
-0.501501
-0.508331
-0.507269
-0.509752
-0.508246
-0.506484
-0.509159
-0.502523
-0.501967
-0.501852
-0.503697
-0.503029
-0.505559
-0.509522
-0.508115
-0.502644
-0.497012
-0.507559
-0.501872
-0.499883
-0.493604
-0.497504
-0.491748
-0.485622
-0.487984
-0.484879
-0.476717
-0.485079
-0.483817
-0.479638
-0.474961
-0.480802
-0.471382
-0.472394
-0.474000
-0.469593
-0.476217
-0.478151
-0.476650
-0.474517
-0.477334
-0.474673
-0.474208
-0.478430
-0.477305
-0.479927
-0.473163
-0.470587
-0.473762
-0.467306
-0.466194
-0.467490
-0.474102
-0.476670
-0.474905
-0.477370
-0.483132
-0.479806
-0.473173
-0.467940
-0.472264
-0.477904
-0.475459
-0.483064
-0.486528
-0.488897
-0.483151
-0.482408
-0.491729
-0.487290
-0.485474
-0.490792
-0.491042
-0.492296
-0.494589
-0.489797
-0.490549
-0.483983
-0.476099
-0.467608
-0.454280
-0.429842
-0.410410
-0.400363
-0.391729
-0.344918
-0.322962
-0.261057
-0.154042
-0.156340
-0.148574
-0.137470
-0.130075
-0.125144
-0.115842
-0.105882
-0.092287
-0.071253
-0.066096
-0.042182
-0.227245
-0.237848
-0.226770
-0.268318
-0.237652
-0.210708
-0.249097
-0.196802
-0.215809
-0.220162
-0.202322
-0.247933
-0.238270
-0.249128
-0.178041
-0.215401
-0.176513
-0.186322
-0.206816
-0.190781
-0.232095
-0.208706
-0.200966
-0.213615
-0.195571
-0.204454
-0.118807
-0.156676
-0.119956
-0.128256
-0.092636
-0.151733
-0.119916
-0.118613
-0.219433
-0.115088
-0.176001
-0.116630
-0.131176
-0.136828
-0.146633
-0.140944
-0.123706
-0.101280
-0.135092
-0.105584
-0.097102
-0.105910
-0.095289
-0.096235
-0.046287
-0.070260
-0.067344
-0.047485
-0.046924
-0.023783
-0.020759
0.003885
0.005049
0.009603
0.002853
-0.001293
-0.000666
-0.000744
-0.000777
0.000791
0.000153
0.015949
0.018053
0.026106
0.010271
0.009819
-0.508112
-0.499397
-0.041129
-0.039809
0.022828
0.016232
0.009199
-0.006038
-0.015176
-0.121634
-0.123208
-0.132208
-0.194634
-0.193393
-0.186253
-0.135397
-0.378228
-0.366545
-0.372383
-0.145535
-0.139375
-0.136330
-0.470690
-0.470386
-0.461853
-0.468533
-0.482264
-0.475461
-0.151804
-0.076733
-0.072895
-0.075047
-0.146645
-0.153475
-0.144937
-0.469400
-0.469098
-0.459462
-0.381822
-0.180455
-0.180878
-0.186364
-0.176440
-0.185735
-0.183695
-0.162498
-0.158005
-0.167075
-0.159764
-0.387593
-0.399066
-0.393599
-0.392259
-0.384647
-0.392918
-0.385541
-0.394874
-0.167990
-0.156852
-0.163503
-0.179180
-0.257788
-0.254721
-0.249126
-0.013933
-0.008179
-0.248841
-0.415521
-0.414044
-0.406528
-0.423493
-0.400251
-0.398955
-0.391837
-0.255641
-0.269019
-0.262772
-0.262589
-0.108034
-0.099742
-0.092617
-0.092610
-0.360393
-0.369456
-0.368722
-0.361168
-0.210797
-0.201735
-0.211105
-0.369395
-0.364067
-0.361449
-0.008020
-0.000092
-0.014782
0.003461
-0.006047
0.000124
-0.017133
-0.395092
-0.406532
-0.404381
-0.131448
-0.138293
-0.139639
-0.144962
-0.206111
-0.468711
-0.478836
-0.473235
-0.312628
-0.308073
-0.305811
-0.319148
-0.405251
-0.415137
-0.404439
-0.410307
-0.382153
-0.380641
-0.386361
-0.273752
-0.274323
-0.285784
-0.082476
-0.089068
-0.087814
-0.081763
-0.061108
-0.062933
-0.010084
-0.290990
-0.280163
-0.286966
-0.289850
-0.296496
-0.291812
-0.369995
-0.352040
-0.384899
-0.386336
-0.379234
-0.437465
-0.429401
-0.428352
-0.391098
-0.274565
-0.282706
-0.268598
-0.450120
-0.451565
-0.455720
-0.377628
-0.314286
-0.308675
-0.321166
-0.278181
-0.265424
-0.274983
-0.355920
-0.335724
-0.387547
-0.067875
-0.053657
-0.061699
-0.050004
-0.160149
-0.163111
-0.165506
-0.168173
0.002620
0.009112
-0.251184
-0.244621
-0.250108
-0.240561
-0.465519
-0.476873
-0.468190
-0.280714
-0.273618
-0.281898
-0.291624
-0.302472
-0.290461
-0.276097
-0.485630
-0.369203
-0.358272
-0.363588
-0.355927
-0.367223
-0.368209
-0.378906
-0.364132
-0.464036
-0.463805
-0.319038
-0.315319
-0.327591
-0.464519
-0.467103
-0.233005
-0.232550
-0.240255
-0.433220
-0.434155
-0.426955
-0.452216
-0.448078
-0.445357
-0.417940
-0.423537
-0.417810
-0.445024
-0.407308
-0.413585
-0.405503
-0.229637
-0.234930
-0.141406
-0.232411
-0.473303
-0.478270
-0.475537
-0.483047
-0.501909
-0.496653
-0.051219
-0.045307
-0.127624
-0.130596
-0.123584
-0.135177
-0.346394
-0.343167
-0.339575
-0.398802
-0.405132
-0.394333
-0.338982
-0.139168
-0.135405
-0.144379
-0.347231
-0.373393
-0.491830
-0.478304
-0.481150
-0.246907
-0.242743
-0.040886
-0.038807
-0.027265
-0.023208
-0.415367
-0.423325
-0.425926
-0.429405
-0.459957
-0.451231
-0.461201
-0.449202
-0.426121
-0.431033
-0.419928
-0.442103
-0.440614
-0.475355
-0.485545
-0.485986
-0.401470
-0.401688
-0.426603
-0.441073
-0.411867
-0.403600
-0.399222
-0.067104
-0.054106
-0.415072
-0.422317
-0.424028
-0.481414
-0.386778
-0.396656
-0.390967
-0.432159
-0.422033
-0.095272
-0.108126
-0.107446
-0.095375
-0.138730
-0.127251
-0.132468
-0.275904
-0.281103
-0.282699
-0.240201
-0.234858
-0.096169
-0.086633
-0.087516
-0.273943
-0.247080
-0.251812
-0.255469
-0.457588
-0.468216
-0.458357
-0.417682
-0.417973
-0.410666
-0.117567
-0.423912
-0.429259
-0.420269
-0.395466
-0.390277
-0.411851
-0.380120
-0.388212
-0.114192
-0.348038
-0.258681
-0.379008
-0.386959
-0.380542
-0.383860
-0.382494
-0.436797
-0.440823
-0.427599
-0.455134
-0.403620
-0.397585
-0.408161
-0.053892
-0.047161
-0.397015
-0.402988
-0.397225
-0.388951
-0.381193
-0.373441
-0.502154
-0.453214
-0.438412
-0.444899
-0.440426
-0.442980
-0.039482
-0.351981
-0.345981
-0.494761
-0.494381
-0.374315
-0.367200
-0.049191
-0.047823
-0.260322
-0.252247
-0.417621
-0.164388
-0.166677
-0.160719
-0.157193
-0.445252
-0.435947
-0.384868
-0.392906
-0.387008
-0.413719
-0.398042
-0.418412
-0.386725
-0.453587
-0.396413
-0.075303
-0.312985
-0.330859
-0.313594
-0.473438
-0.447657
-0.434715
-0.462499
-0.490650
-0.472089
-0.468869
-0.473697
-0.330930
-0.322841
-0.064540
-0.057413
-0.066185
-0.317403
-0.271307
-0.232901
-0.222156
-0.483829
-0.487996
-0.480696
-0.354324
-0.346894
-0.374776
-0.416735
-0.427858
-0.334123
-0.318069
-0.405243
-0.410441
-0.097063
-0.105365
-0.092693
-0.423335
-0.429622
-0.458370
-0.451336
-0.437681
-0.461238
-0.354011
-0.248523
-0.250286
-0.447647
-0.501408
-0.458612
-0.440141
-0.468621
-0.489397
-0.487501
-0.170971
-0.173458
-0.159346
-0.390752
-0.035428
-0.053504
-0.048238
-0.058191
-0.421074
-0.421609
-0.431521
-0.412796
-0.393999
-0.393661
-0.366737
-0.365228
-0.379364
-0.385465
-0.383695
-0.461905
-0.411323
-0.408003
-0.399200
-0.080125
-0.421419
-0.425834
-0.431124
-0.466460
-0.162875
-0.073523
-0.073106
-0.064186
-0.454258
-0.448352
-0.476683
-0.471540
-0.475179
-0.477157
-0.406411
-0.423412
-0.435268
-0.358634
-0.468333
-0.110621
-0.112233
-0.359079
-0.363113
-0.163455
-0.027812
-0.019397
-0.012157
-0.499605
-0.495683
-0.483311
-0.483576
-0.041625
-0.037909
-0.114720
-0.112250
-0.118674
-0.126031
-0.439701
-0.437004
-0.431373
-0.377386
-0.053626
-0.059206
-0.460767
-0.445530
-0.483524
-0.408614
-0.424804
-0.432637
-0.412443
-0.363479
-0.083972
-0.086193
-0.125909
-0.467291
-0.461606
-0.202796
-0.196149
-0.206748
-0.471603
-0.084260
-0.071622
-0.465830
-0.474308
-0.450653
-0.479410
-0.410909
-0.454012
0.001176
-0.006594
-0.432018
-0.219347
-0.099347
-0.107407
-0.103041
-0.411830
-0.421752
-0.438246
-0.405152
-0.110795
-0.101554
-0.103528
-0.489172
-0.200021
-0.109369
-0.480008
-0.476673
-0.491010
-0.046992
-0.039784
-0.229833
-0.225149
-0.224722
-0.059292
-0.066876
-0.472340
-0.232853
-0.232210
-0.036544
-0.029248
-0.035579
-0.434420
-0.443615
-0.434559
-0.446525
-0.103577
-0.342053
-0.011073
0.005211
-0.097555
-0.404745
-0.407640
-0.487103
-0.402365
-0.415462
-0.422400
-0.414820
-0.426537
-0.392974
-0.090015
-0.030569
-0.174492
-0.162175
-0.167374
-0.460522
-0.174181
-0.335172
-0.322965
-0.331690
-0.091744
-0.078086
-0.094865
-0.456327
-0.465915
-0.451828
-0.460917
-0.468152
-0.467611
-0.157571
-0.151029
-0.147659
-0.161608
-0.093943
-0.435413
-0.439623
-0.408027
-0.443934
-0.084297
-0.432464
-0.434600
-0.427886
-0.414093
-0.424637
-0.428211
-0.426215
-0.392238
-0.031731
-0.062557
-0.063145
-0.052483
-0.245671
-0.256723
-0.244360
-0.248441
-0.019374
-0.074516
-0.082474
-0.482965
-0.442624
-0.211882
-0.208681
-0.204236
-0.475642
-0.473746
-0.488899
-0.050551
-0.396143
-0.391411
-0.061807
-0.066812
-0.038178
-0.209814
-0.216513
-0.199364
-0.196971
-0.208540
-0.376149
-0.379057
-0.371592
-0.202538
-0.359704
-0.099357
-0.368140
-0.363851
-0.410582
-0.452186
-0.117274
-0.452870
-0.166492
-0.157573
-0.164813
-0.095311
-0.154964
-0.104403
-0.453833
-0.177833
-0.162735
-0.445182
-0.170566
-0.280454
-0.280517
-0.282722
-0.406363
-0.012082
-0.429792
-0.295894
-0.283554
-0.291963
-0.275064
-0.234990
-0.231260
-0.232653
-0.195788
-0.190093
-0.393425
-0.400187
-0.483775
-0.478829
-0.472160
-0.231905
-0.458288
-0.457102
-0.413285
-0.423366
-0.203733
-0.192435
-0.455438
-0.464508
-0.432036
-0.442184
-0.469194
-0.475818
-0.464000
-0.048717
-0.055879
-0.042117
-0.056523
-0.381042
-0.028103
-0.024142
-0.037749
-0.384772
-0.379667
-0.372253
-0.368072
-0.038052
-0.210321
-0.207577
-0.217518
-0.365928
-0.340239
-0.341965
-0.104826
-0.472319
-0.462931
-0.457349
-0.358789
-0.358251
-0.343485
-0.467694
-0.269619
-0.268538
-0.260143
-0.454943
-0.461635
-0.406284
-0.351331
-0.209224
-0.223760
-0.146175
-0.150604
-0.142713
-0.219335
-0.376385
-0.373351
-0.386052
-0.365717
-0.073982
-0.067680
-0.032055
-0.019335
-0.234222
-0.241923
-0.245274
-0.070911
-0.083968
-0.068107
-0.254853
-0.207670
-0.196102
-0.197367
-0.193252
-0.442021
-0.447952
-0.450492
-0.384018
-0.399725
-0.187448
-0.174298
-0.186754
-0.406062
-0.398156
-0.409132
-0.451249
-0.423025
-0.405602
-0.415622
-0.433746
-0.442019
-0.450641
-0.279643
-0.266212
-0.269209
-0.374276
-0.376563
-0.371088
-0.442398
-0.451426
-0.454079
-0.492387
-0.494842
-0.502805
-0.485115
-0.363529
-0.361041
-0.386701
-0.390398
-0.448162
-0.442164
-0.437873
-0.357511
-0.496372
-0.451882
-0.458447
-0.447248
-0.348722
-0.028884
-0.350494
-0.398822
-0.382980
-0.387935
-0.084699
-0.088015
-0.096140
-0.440686
-0.449978
-0.402583
-0.413259
-0.422188
-0.475692
-0.434446
-0.439192
-0.441853
-0.438047
-0.429491
-0.438865
-0.032140
-0.033271
-0.040840
-0.046720
-0.376437
-0.369558
-0.368624
-0.361627
-0.360046
-0.466735
-0.462586
-0.293624
-0.281618
-0.282962
-0.286754
-0.204626
-0.194116
-0.200377
-0.107623
-0.354119
-0.348028
-0.346793
-0.391029
-0.374513
-0.382448
-0.440624
-0.212557
-0.217627
-0.206665
-0.196053
-0.400316
-0.412503
-0.417497
-0.426055
-0.433568
-0.459234
-0.364615
-0.364410
-0.174248
-0.171377
-0.170795
-0.161797
-0.365722
-0.452416
-0.444795
-0.099212
-0.089999
-0.098819
-0.205828
-0.061172
-0.060875
-0.053116
-0.050438
-0.409979
-0.416460
-0.359558
-0.355446
-0.055637
-0.036195
-0.052726
-0.422823
-0.429392
-0.421307
-0.481603
-0.482337
-0.170291
-0.171104
-0.168637
-0.385318
-0.387306
-0.381481
-0.392631
-0.372756
-0.383437
-0.391489
-0.179239
-0.398019
-0.405990
-0.435490
-0.430886
-0.149611
-0.231997
-0.148773
-0.147952
-0.140140
-0.416755
-0.155689
-0.143490
-0.420456
-0.430928
-0.366191
-0.357119
-0.137254
-0.137936
-0.150247
-0.414924
-0.413843
-0.406453
-0.152713
-0.061260
-0.054469
-0.423072
-0.130297
-0.114901
-0.359435
-0.131741
-0.378361
-0.351133
-0.349297
-0.303889
-0.295786
-0.305585
-0.213667
-0.210753
-0.219024
-0.216544
-0.230736
-0.211066
-0.251516
-0.249440
-0.262821
-0.258308
-0.421421
-0.401111
-0.400886
-0.412168
-0.080846
-0.085035
-0.094695
-0.440813
-0.125992
-0.132809
-0.367420
-0.377622
-0.268513
-0.268479
-0.275383
-0.272190
-0.389754
-0.172883
-0.173203
-0.396259
-0.407214
-0.215418
-0.106897
-0.094117
-0.095180
-0.135136
-0.130908
-0.473577
-0.415066
-0.417239
-0.357415
-0.354815
-0.157034
-0.432522
-0.424917
-0.110915
-0.120797
-0.107100
-0.350211
-0.157870
-0.158397
-0.345883
-0.344757
-0.460410
-0.448846
-0.442404
-0.392269
-0.401303
-0.401137
-0.478428
-0.457848
-0.277825
-0.273495
-0.275302
-0.362017
-0.370310
-0.433102
-0.425506
-0.097164
-0.379959
-0.329606
-0.322826
-0.331892
-0.326280
-0.115298
-0.243663
-0.251720
-0.258145
-0.413785
-0.406782
-0.416434
-0.406629
-0.134444
-0.137103
-0.127680
-0.142368
-0.389457
-0.404454
-0.371272
-0.378237
-0.162563
-0.167612
-0.257033
-0.263550
-0.461341
-0.047791
-0.052690
-0.057513
-0.070967
-0.264667
-0.267158
-0.272553
-0.173621
-0.184858
-0.179333
-0.028440
-0.029039
-0.040341
-0.387169
-0.394733
-0.393935
-0.351408
-0.348232
-0.146841
-0.135557
-0.143594
-0.188483
-0.031194
-0.039600
-0.344304
-0.336763
-0.338595
-0.367747
-0.363729
-0.358263
-0.354675
-0.359170
-0.372479
-0.152154
-0.161268
-0.151945
-0.201218
-0.182905
-0.184226
-0.378234
-0.381013
-0.395000
-0.346931
-0.340940
-0.175555
-0.249911
-0.258594
-0.253182
-0.335040
-0.259196
-0.144099
-0.155583
-0.154289
-0.327949
-0.329341
-0.352457
-0.359679
-0.377423
-0.371362
-0.373202
-0.382089
-0.391909
-0.052122
-0.059710
-0.071260
-0.055120
-0.457027
-0.468314
-0.454084
-0.346081
-0.338521
-0.354931
-0.348416
-0.350541
-0.045157
-0.059769
-0.045702
-0.042166
-0.053863
-0.062434
-0.070260
-0.166147
-0.331508
-0.320620
-0.323040
-0.141049
-0.130446
-0.200219
-0.191450
-0.199032
-0.192811
-0.349330
-0.359920
-0.367914
-0.357071
-0.378013
-0.385234
-0.338419
-0.333029
-0.144932
-0.148126
-0.132050
-0.067490
-0.067830
-0.076794
-0.146088
-0.146490
-0.268240
-0.259211
-0.327758
-0.334513
-0.399113
-0.403018
-0.411661
-0.325139
-0.313446
-0.314082
-0.259812
-0.417448
-0.415543
-0.421877
-0.049808
-0.037056
-0.340804
-0.353314
-0.144118
-0.175702
-0.171598
-0.184600
-0.364377
-0.373888
-0.179160
-0.184595
-0.418215
-0.419399
-0.117708
-0.122053
-0.205215
-0.329409
-0.324695
-0.384679
-0.361543
-0.350459
-0.353564
-0.319869
-0.307613
-0.441974
-0.453691
-0.332723
-0.347350
-0.119656
-0.439491
-0.450667
-0.423078
-0.453821
-0.446972
-0.322498
-0.318179
-0.071863
-0.243765
-0.266222
-0.405631
-0.248968
-0.249247
-0.253797
-0.312780
-0.302387
-0.243802
-0.232793
-0.417201
-0.411674
-0.411908
-0.335277
-0.345319
-0.239388
-0.110244
-0.123817
-0.289234
-0.288575
-0.280994
-0.132895
-0.457796
-0.225326
-0.272631
-0.282141
-0.278181
-0.228426
-0.394442
-0.404090
-0.285458
-0.269243
-0.303493
-0.282941
-0.376833
-0.379684
-0.371122
-0.279647
-0.289414
-0.324376
-0.313848
-0.396037
-0.310500
-0.296815
-0.332700
-0.342262
-0.362820
-0.370971
-0.447828
-0.087408
-0.066837
-0.091319
-0.104423
-0.076267
-0.070886
-0.064615
-0.424163
-0.258484
-0.273334
-0.258984
-0.266366
-0.258263
-0.406599
-0.410356
-0.400963
-0.221312
-0.224519
-0.230475
-0.029437
-0.023985
-0.033318
-0.327342
-0.217739
-0.315659
-0.309784
-0.320355
-0.317259
-0.292828
-0.299695
-0.298727
-0.285848
-0.175713
-0.482160
-0.489268
-0.483149
-0.131942
-0.131912
-0.137628
-0.308462
-0.156613
-0.162881
-0.155780
-0.168359
-0.168562
-0.324060
-0.077446
-0.067100
-0.066777
-0.221154
-0.442747
-0.434276
-0.435469
-0.442135
-0.078500
-0.256289
-0.254782
-0.249810
-0.256307
-0.161037
-0.163246
-0.158760
-0.031152
-0.170448
-0.410874
-0.420635
-0.419772
-0.429288
-0.466296
-0.456000
-0.423181
-0.422996
-0.408930
-0.460402
-0.190908
-0.380566
-0.384681
-0.378123
-0.387114
-0.365874
-0.368344
-0.363940
-0.377100
-0.376298
-0.385747
-0.382764
-0.386240
-0.321040
-0.308875
-0.315679
-0.174247
-0.150452
-0.064956
-0.054162
-0.060872
-0.063479
-0.049555
-0.060361
-0.336938
-0.346374
-0.336511
-0.345575
-0.304776
-0.462693
-0.465707
-0.473285
-0.121146
-0.125568
-0.477443
-0.260959
-0.164608
-0.166284
-0.157349
-0.168706
-0.154921
-0.295073
-0.303420
-0.118621
-0.428043
-0.416350
-0.419386
-0.413250
-0.438524
-0.042181
-0.044496
-0.231554
-0.088386
-0.091501
-0.092292
-0.111240
-0.098219
-0.096610
-0.079992
-0.206926
-0.200031
-0.206510
-0.201805
-0.120352
-0.231637
-0.246819
-0.240595
-0.408815
-0.399964
-0.264689
-0.268927
-0.271668
-0.279834
-0.410459
-0.416176
-0.403666
-0.414570
-0.419755
-0.188663
-0.198230
-0.328014
-0.328761
-0.320665
-0.333190
-0.334149
-0.340991
-0.342671
-0.326554
-0.329583
-0.322992
-0.334002
-0.299776
-0.286656
-0.085985
-0.100355
-0.085660
-0.206082
-0.214599
-0.216670
-0.213809
-0.205898
-0.074506
-0.085639
-0.386028
-0.395143
-0.388348
-0.388519
-0.254937
-0.180383
-0.180117
-0.216440
-0.221644
-0.227986
-0.448763
-0.450876
-0.442045
-0.446352
-0.438487
-0.143031
-0.340875
-0.332603
-0.055312
-0.052154
-0.040205
-0.049440
-0.063369
-0.255931
-0.255705
-0.284333
-0.296846
-0.295045
-0.256252
-0.244910
-0.252402
-0.262919
-0.240458
-0.207976
-0.213287
-0.203500
-0.403492
-0.205307
-0.397889
-0.215683
-0.213831
-0.232440
-0.157055
-0.151036
-0.152775
-0.299891
-0.299286
-0.292319
-0.308346
-0.302256
-0.306083
-0.169350
-0.164013
-0.160611
-0.250256
-0.250432
-0.239946
-0.243167
-0.268206
-0.454840
-0.445710
-0.132569
-0.133744
-0.145841
-0.138567
-0.397401
-0.392123
-0.366050
-0.370658
-0.179208
-0.400558
-0.398817
-0.403836
-0.411298
-0.412636
-0.417060
-0.380599
-0.390450
-0.386527
-0.359601
-0.370975
-0.389257
-0.316683
-0.322973
-0.322045
-0.332712
-0.346944
-0.349561
-0.342827
-0.355260
-0.074763
-0.082808
-0.400974
-0.061832
-0.077717
-0.084450
-0.092677
-0.096870
-0.101684
-0.408763
-0.407455
-0.409536
-0.443607
-0.442213
-0.448251
-0.201473
-0.199072
-0.207198
-0.344865
-0.351531
-0.252330
-0.242984
-0.328642
-0.336250
-0.332118
-0.106367
-0.113918
-0.107573
-0.118958
-0.313030
-0.324064
-0.318966
-0.320589
-0.223902
-0.218382
-0.211726
-0.233600
-0.232083
-0.243400
-0.443630
-0.092298
-0.088526
-0.094499
-0.083991
-0.101750
-0.091671
-0.193829
-0.186722
-0.185073
-0.194477
-0.184421
-0.333121
-0.331891
-0.330815
-0.329988
-0.345440
-0.339571
-0.112679
-0.110608
-0.342324
-0.348985
-0.349848
-0.028325
-0.043961
-0.361605
-0.185507
-0.189843
-0.191299
-0.338235
-0.070805
-0.107744
-0.094946
-0.099992
-0.112070
-0.109367
-0.102168
-0.067155
-0.072734
-0.073663
-0.063524
-0.390977
-0.385573
-0.240843
-0.236399
-0.226547
-0.247379
-0.222618
-0.222874
-0.210526
-0.427568
-0.429186
-0.430015
-0.152515
-0.155105
-0.162033
-0.271635
-0.286816
-0.466649
-0.468166
-0.266333
-0.353965
-0.348482
-0.358536
-0.350414
-0.344754
-0.342880
-0.338733
-0.455549
-0.451103
-0.461829
-0.447497
-0.456924
-0.449526
-0.470537
-0.471898
-0.483098
-0.467279
-0.311191
-0.306921
-0.202516
-0.310809
-0.300636
-0.438288
-0.447530
-0.355320
-0.348738
-0.366763
-0.359486