# vtk DataFile Version 2.0
Test
ASCII
DATASET POLYDATA
POINTS 6577 float
0.000000 0.000000 0.000000
2.000000 0.000000 0.000000
2.000000 4.000000 0.000000
0.000000 4.000000 0.000000
0.000000 0.500000 0.000000
1.500000 2.000000 0.000000
2.000000 2.500000 0.000000
0.040000 0.000000 0.000000
0.080000 0.000000 0.000000
0.120000 0.000000 0.000000
0.160000 0.000000 0.000000
0.200000 0.000000 0.000000
0.240000 0.000000 0.000000
0.280000 0.000000 0.000000
0.320000 0.000000 0.000000
0.360000 0.000000 0.000000
0.400000 0.000000 0.000000
0.440000 0.000000 0.000000
0.480000 0.000000 0.000000
0.520000 0.000000 0.000000
0.560000 0.000000 0.000000
0.600000 0.000000 0.000000
0.640000 0.000000 0.000000
0.680000 0.000000 0.000000
0.720000 0.000000 0.000000
0.760000 0.000000 0.000000
0.800000 0.000000 0.000000
0.840000 0.000000 0.000000
0.880000 0.000000 0.000000
0.920000 0.000000 0.000000
0.960000 0.000000 0.000000
1.000000 0.000000 0.000000
1.040000 0.000000 0.000000
1.080000 0.000000 0.000000
1.120000 0.000000 0.000000
1.160000 0.000000 0.000000
1.200000 0.000000 0.000000
1.240000 0.000000 0.000000
1.280000 0.000000 0.000000
1.320000 0.000000 0.000000
1.360000 0.000000 0.000000
1.400000 0.000000 0.000000
1.440000 0.000000 0.000000
1.480000 0.000000 0.000000
1.520000 0.000000 0.000000
1.560000 0.000000 0.000000
1.600000 0.000000 0.000000
1.640000 0.000000 0.000000
1.680000 0.000000 0.000000
1.720000 0.000000 0.000000
1.760000 0.000000 0.000000
1.800000 0.000000 0.000000
1.840000 0.000000 0.000000
1.880000 0.000000 0.000000
1.920000 0.000000 0.000000
1.960000 0.000000 0.000000
2.000000 0.039683 0.000000
2.000000 0.079365 0.000000
2.000000 0.119048 0.000000
2.000000 0.158730 0.000000
2.000000 0.198413 0.000000
2.000000 0.238095 0.000000
2.000000 0.277778 0.000000
2.000000 0.317460 0.000000
2.000000 0.357143 0.000000
2.000000 0.396825 0.000000
2.000000 0.436508 0.000000
2.000000 0.476190 0.000000
2.000000 0.515873 0.000000
2.000000 0.555556 0.000000
2.000000 0.595238 0.000000
2.000000 0.634921 0.000000
2.000000 0.674603 0.000000
2.000000 0.714286 0.000000
2.000000 0.753968 0.000000
2.000000 0.793651 0.000000
2.000000 0.833333 0.000000
2.000000 0.873016 0.000000
2.000000 0.912698 0.000000
2.000000 0.952381 0.000000
2.000000 0.992063 0.000000
2.000000 1.031746 0.000000
2.000000 1.071429 0.000000
2.000000 1.111111 0.000000
2.000000 1.150794 0.000000
2.000000 1.190476 0.000000
2.000000 1.230159 0.000000
2.000000 1.269841 0.000000
2.000000 1.309524 0.000000
2.000000 1.349206 0.000000
2.000000 1.388889 0.000000
2.000000 1.428571 0.000000
2.000000 1.468254 0.000000
2.000000 1.507937 0.000000
2.000000 1.547619 0.000000
2.000000 1.587302 0.000000
2.000000 1.626984 0.000000
2.000000 1.666667 0.000000
2.000000 1.706349 0.000000
2.000000 1.746032 0.000000
2.000000 1.785714 0.000000
2.000000 1.825397 0.000000
2.000000 1.865079 0.000000
2.000000 1.904762 0.000000
2.000000 1.944444 0.000000
2.000000 1.984127 0.000000
2.000000 2.023810 0.000000
2.000000 2.063492 0.000000
2.000000 2.103175 0.000000
2.000000 2.142857 0.000000
2.000000 2.182540 0.000000
2.000000 2.222222 0.000000
2.000000 2.261905 0.000000
2.000000 2.301587 0.000000
2.000000 2.341270 0.000000
2.000000 2.380952 0.000000
2.000000 2.420635 0.000000
2.000000 2.460317 0.000000
2.000000 2.539474 0.000000
2.000000 2.578947 0.000000
2.000000 2.618421 0.000000
2.000000 2.657895 0.000000
2.000000 2.697368 0.000000
2.000000 2.736842 0.000000
2.000000 2.776316 0.000000
2.000000 2.815789 0.000000
2.000000 2.855263 0.000000
2.000000 2.894737 0.000000
2.000000 2.934211 0.000000
2.000000 2.973684 0.000000
2.000000 3.013158 0.000000
2.000000 3.052632 0.000000
2.000000 3.092105 0.000000
2.000000 3.131579 0.000000
2.000000 3.171053 0.000000
2.000000 3.210526 0.000000
2.000000 3.250000 0.000000
2.000000 3.289474 0.000000
2.000000 3.328947 0.000000
2.000000 3.368421 0.000000
2.000000 3.407895 0.000000
2.000000 3.447368 0.000000
2.000000 3.486842 0.000000
2.000000 3.526316 0.000000
2.000000 3.565789 0.000000
2.000000 3.605263 0.000000
2.000000 3.644737 0.000000
2.000000 3.684211 0.000000
2.000000 3.723684 0.000000
2.000000 3.763158 0.000000
2.000000 3.802632 0.000000
2.000000 3.842105 0.000000
2.000000 3.881579 0.000000
2.000000 3.921053 0.000000
2.000000 3.960526 0.000000
1.960000 4.000000 0.000000
1.920000 4.000000 0.000000
1.880000 4.000000 0.000000
1.840000 4.000000 0.000000
1.800000 4.000000 0.000000
1.760000 4.000000 0.000000
1.720000 4.000000 0.000000
1.680000 4.000000 0.000000
1.640000 4.000000 0.000000
1.600000 4.000000 0.000000
1.560000 4.000000 0.000000
1.520000 4.000000 0.000000
1.480000 4.000000 0.000000
1.440000 4.000000 0.000000
1.400000 4.000000 0.000000
1.360000 4.000000 0.000000
1.320000 4.000000 0.000000
1.280000 4.000000 0.000000
1.240000 4.000000 0.000000
1.200000 4.000000 0.000000
1.160000 4.000000 0.000000
1.120000 4.000000 0.000000
1.080000 4.000000 0.000000
1.040000 4.000000 0.000000
1.000000 4.000000 0.000000
0.960000 4.000000 0.000000
0.920000 4.000000 0.000000
0.880000 4.000000 0.000000
0.840000 4.000000 0.000000
0.800000 4.000000 0.000000
0.760000 4.000000 0.000000
0.720000 4.000000 0.000000
0.680000 4.000000 0.000000
0.640000 4.000000 0.000000
0.600000 4.000000 0.000000
0.560000 4.000000 0.000000
0.520000 4.000000 0.000000
0.480000 4.000000 0.000000
0.440000 4.000000 0.000000
0.400000 4.000000 0.000000
0.360000 4.000000 0.000000
0.320000 4.000000 0.000000
0.280000 4.000000 0.000000
0.240000 4.000000 0.000000
0.200000 4.000000 0.000000
0.160000 4.000000 0.000000
0.120000 4.000000 0.000000
0.080000 4.000000 0.000000
0.040000 4.000000 0.000000
0.000000 3.960227 0.000000
0.000000 3.920455 0.000000
0.000000 3.880682 0.000000
0.000000 3.840909 0.000000
0.000000 3.801136 0.000000
0.000000 3.761364 0.000000
0.000000 3.721591 0.000000
0.000000 3.681818 0.000000
0.000000 3.642045 0.000000
0.000000 3.602273 0.000000
0.000000 3.562500 0.000000
0.000000 3.522727 0.000000
0.000000 3.482955 0.000000
0.000000 3.443182 0.000000
0.000000 3.403409 0.000000
0.000000 3.363636 0.000000
0.000000 3.323864 0.000000
0.000000 3.284091 0.000000
0.000000 3.244318 0.000000
0.000000 3.204545 0.000000
0.000000 3.164773 0.000000
0.000000 3.125000 0.000000
0.000000 3.085227 0.000000
0.000000 3.045455 0.000000
0.000000 3.005682 0.000000
0.000000 2.965909 0.000000
0.000000 2.926136 0.000000
0.000000 2.886364 0.000000
0.000000 2.846591 0.000000
0.000000 2.806818 0.000000
0.000000 2.767045 0.000000
0.000000 2.727273 0.000000
0.000000 2.687500 0.000000
0.000000 2.647727 0.000000
0.000000 2.607955 0.000000
0.000000 2.568182 0.000000
0.000000 2.528409 0.000000
0.000000 2.488636 0.000000
0.000000 2.448864 0.000000
0.000000 2.409091 0.000000
0.000000 2.369318 0.000000
0.000000 2.329545 0.000000
0.000000 2.289773 0.000000
0.000000 2.250000 0.000000
0.000000 2.210227 0.000000
0.000000 2.170455 0.000000
0.000000 2.130682 0.000000
0.000000 2.090909 0.000000
0.000000 2.051136 0.000000
0.000000 2.011364 0.000000
0.000000 1.971591 0.000000
0.000000 1.931818 0.000000
0.000000 1.892045 0.000000
0.000000 1.852273 0.000000
0.000000 1.812500 0.000000
0.000000 1.772727 0.000000
0.000000 1.732955 0.000000
0.000000 1.693182 0.000000
0.000000 1.653409 0.000000
0.000000 1.613636 0.000000
0.000000 1.573864 0.000000
0.000000 1.534091 0.000000
0.000000 1.494318 0.000000
0.000000 1.454545 0.000000
0.000000 1.414773 0.000000
0.000000 1.375000 0.000000
0.000000 1.335227 0.000000
0.000000 1.295455 0.000000
0.000000 1.255682 0.000000
0.000000 1.215909 0.000000
0.000000 1.176136 0.000000
0.000000 1.136364 0.000000
0.000000 1.096591 0.000000
0.000000 1.056818 0.000000
0.000000 1.017045 0.000000
0.000000 0.977273 0.000000
0.000000 0.937500 0.000000
0.000000 0.897727 0.000000
0.000000 0.857955 0.000000
0.000000 0.818182 0.000000
0.000000 0.778409 0.000000
0.000000 0.738636 0.000000
0.000000 0.698864 0.000000
0.000000 0.659091 0.000000
0.000000 0.619318 0.000000
0.000000 0.579545 0.000000
0.000000 0.539773 0.000000
0.000000 0.461538 0.000000
0.000000 0.423077 0.000000
0.000000 0.384615 0.000000
0.000000 0.346154 0.000000
0.000000 0.307692 0.000000
0.000000 0.269231 0.000000
0.000000 0.230769 0.000000
0.000000 0.192308 0.000000
0.000000 0.153846 0.000000
0.000000 0.115385 0.000000
0.000000 0.076923 0.000000
0.000000 0.038462 0.000000
0.027778 0.527778 0.000000
0.055556 0.555556 0.000000
0.083333 0.583333 0.000000
0.111111 0.611111 0.000000
0.138889 0.638889 0.000000
0.166667 0.666667 0.000000
0.194444 0.694444 0.000000
0.222222 0.722222 0.000000
0.250000 0.750000 0.000000
0.277778 0.777778 0.000000
0.305556 0.805556 0.000000
0.333333 0.833333 0.000000
0.361111 0.861111 0.000000
0.388889 0.888889 0.000000
0.416667 0.916667 0.000000
0.444444 0.944444 0.000000
0.472222 0.972222 0.000000
0.500000 1.000000 0.000000
0.527778 1.027778 0.000000
0.555556 1.055556 0.000000
0.583333 1.083333 0.000000
0.611111 1.111111 0.000000
0.638889 1.138889 0.000000
0.666667 1.166667 0.000000
0.694444 1.194444 0.000000
0.722222 1.222222 0.000000
0.750000 1.250000 0.000000
0.777778 1.277778 0.000000
0.805556 1.305556 0.000000
0.833333 1.333333 0.000000
0.861111 1.361111 0.000000
0.888889 1.388889 0.000000
0.916667 1.416667 0.000000
0.944444 1.444444 0.000000
0.972222 1.472222 0.000000
1.000000 1.500000 0.000000
1.027778 1.527778 0.000000
1.055556 1.555556 0.000000
1.083333 1.583333 0.000000
1.111111 1.611111 0.000000
1.138889 1.638889 0.000000
1.166667 1.666667 0.000000
1.194444 1.694444 0.000000
1.222222 1.722222 0.000000
1.250000 1.750000 0.000000
1.277778 1.777778 0.000000
1.305556 1.805556 0.000000
1.333333 1.833333 0.000000
1.361111 1.861111 0.000000
1.388889 1.888889 0.000000
1.416667 1.916667 0.000000
1.444444 1.944444 0.000000
1.472222 1.972222 0.000000
1.527778 2.027778 0.000000
1.555556 2.055556 0.000000
1.583333 2.083333 0.000000
1.611111 2.111111 0.000000
1.638889 2.138889 0.000000
1.666667 2.166667 0.000000
1.694444 2.194444 0.000000
1.722222 2.222222 0.000000
1.750000 2.250000 0.000000
1.777778 2.277778 0.000000
1.805556 2.305556 0.000000
[...]
POINT_DATA 6577
SCALARS UX float 1
LOOKUP_TABLE default
-0.000115
0.000150
1.358867
0.530914
-0.457641
1.151222
1.511012
0.000027
-0.000007
-0.000002
0.000002
-0.000004
-0.000016
0.000002
0.000002
0.000004
0.000006
-0.000001
0.000006
0.000001
0.000002
-0.000001
0.000001
-0.000002
-0.000001
0.000000
-0.000001
-0.000001
0.000000
0.000000
0.000001
0.000000
-0.000000
0.000000
0.000000
0.000000
-0.000000
-0.000000
0.000001
-0.000002
-0.000000
0.000000
-0.000000
0.000001
0.000001
-0.000001
-0.000001
-0.000001
-0.000000
-0.000001
0.000003
-0.000003
0.000002
-0.000001
-0.000001
-0.000020
0.027505
0.022459
0.029578
0.034898
0.040035
0.046157
0.052482
0.061733
0.072581
0.083913
0.096512
0.112644
0.124401
0.132574
0.139742
0.148271
0.158417
0.169706
0.182187
0.197453
0.214501
0.235438
0.258393
0.282078
0.311948
0.344321
0.377585
0.415832
0.457361
0.501760
0.553735
0.613178
0.670704
0.727869
0.775868
0.824398
0.863833
0.901746
0.935924
0.969941
1.003092
1.034133
1.062722
1.090622
1.118316
1.147854
1.180894
1.217501
1.256016
1.295304
1.336448
1.375593
1.406551
1.438023
1.471733
1.499214
1.519715
1.524301
1.527033
1.532240
1.533318
1.524420
1.482146
1.443455
1.423806
1.390314
1.354464
1.341627
1.345350
1.304662
1.262843
1.251148
1.244348
1.240313
1.247297
1.262740
1.273201
1.280180
1.290137
1.291319
1.294568
1.298071
1.299554
1.312991
1.327284
1.333423
1.339433
1.341622
1.325288
1.312600
1.302299
1.295534
1.290175
1.290391
1.293043
1.295261
1.298022
1.301546
1.312052
1.322262
1.306099
1.280078
1.269596
1.236856
1.220750
1.231921
1.199098
1.192562
1.167534
1.141135
1.146564
1.116562
1.131936
1.098983
1.083798
1.059941
1.043627
1.031031
1.019046
1.006739
0.993386
0.979509
0.965687
0.950756
0.935230
0.920120
0.904209
0.888173
0.871659
0.854797
0.837944
0.820737
0.803988
0.786284
0.768641
0.750066
0.732021
0.714798
0.697413
0.680312
0.663046
0.645828
0.629142
0.612544
0.595720
0.579179
0.562948
0.546568
0.528276
0.525673
0.520861
0.517431
0.515619
0.513285
0.509508
0.505894
0.500332
0.496084
0.493496
0.492045
0.491379
0.488963
0.492137
0.492466
0.492066
0.489777
0.485477
0.484521
0.480308
0.475857
0.472118
0.466950
0.458998
0.452587
0.442067
0.431577
0.416182
0.404104
0.388277
0.372200
0.353281
0.332701
0.314538
0.293906
0.275996
0.256456
0.234808
0.215294
0.200499
0.185501
0.170217
0.152488
0.132595
0.107263
0.079730
0.048423
0.012757
-0.025618
-0.066590
-0.107474
-0.143908
-0.172465
-0.199504
-0.224207
-0.246984
-0.268844
-0.288858
-0.305885
-0.324171
-0.340468
-0.355915
-0.370667
-0.385480
-0.399497
-0.413279
-0.426049
-0.438319
-0.449487
-0.459380
-0.467165
-0.473132
-0.476810
-0.478183
-0.477502
-0.474949
-0.470270
-0.463520
-0.455331
-0.447007
-0.440716
-0.439330
-0.443620
-0.448706
-0.450825
-0.441589
-0.313512
-0.307239
-0.302248
-0.292938
-0.281325
-0.265308
-0.245741
-0.223480
-0.196056
-0.163782
-0.139150
-0.061251
-0.423544
-0.455369
-0.424818
-0.444543
-0.427508
-0.357706
-0.372316
-0.369434
-0.364855
-0.375190
-0.380243
-0.392360
-0.384008
-0.375394
-0.371985
-0.384248
-0.387486
-0.393933
-0.397517
-0.392107
-0.383095
-0.386903
-0.477080
-0.389905
-0.525149
-0.340494
-0.269490
-0.222512
-0.310328
-0.284020
-0.236612
-0.152927
0.024214
-0.056873
0.040926
0.090689
0.110659
-0.105371
0.090705
0.181235
0.184947
0.250076
0.367130
0.421086
0.493623
0.670802
0.513340
0.526031
0.791902
0.845514
0.948708
0.862725
1.039322
1.206771
1.297917
1.231989
1.231272
1.224594
1.235526
1.277744
1.320205
1.336313
1.351047
1.384923
1.410636
1.424958
1.436409
1.444412
1.480527
1.504713
1.433617
1.409359
0.530766
0.535262
1.287852
1.285875
1.468683
1.473373
1.449500
1.313437
1.270014
1.133449
1.132616
1.106233
0.637773
0.600052
0.658396
1.108600
0.262883
0.273244
0.287779
1.118169
1.128360
1.131024
0.607040
0.597789
0.615701
0.583502
0.561783
0.566216
1.120405
1.217669
1.230691
1.223955
1.115396
1.107342
1.120727
0.553430
0.550951
0.566516
0.242559
1.079156
1.077343
1.065904
0.826301
0.818236
0.813474
1.109628
1.112567
1.101395
1.105724
0.759051
0.743909
0.749176
0.747862
0.764265
0.747190
0.757068
0.738380
1.095154
1.107173
1.099840
0.829318
0.274960
0.216620
0.251460
1.383164
1.395889
0.210058
0.098141
0.068291
0.117591
0.059244
0.712425
0.704915
0.728499
0.770589
0.769481
0.759859
0.780819
0.828665
0.824689
0.827292
0.820130
0.637260
0.629439
0.618871
0.647780
0.991332
1.000425
0.999003
0.094374
0.118205
0.137979
1.390293
1.423176
1.382360
1.415649
1.329297
1.334815
1.293515
-0.019205
-0.038219
-0.081537
0.848589
0.840376
0.841061
0.833130
0.991371
0.578320
0.559300
0.571686
0.895437
0.905403
0.909284
0.888175
0.588635
0.571888
0.577766
0.562205
0.057127
0.108844
0.091179
0.960045
0.956763
0.945544
1.215989
1.194378
1.204935
0.866609
0.902332
0.858661
1.395734
0.179932
0.221735
0.213522
0.234585
0.200739
0.229293
0.153406
0.174343
0.657931
0.644367
0.662428
0.572898
0.575151
0.583820
0.641772
0.964307
0.948642
0.963999
0.605782
0.619009
0.599783
0.138151
0.269166
0.300429
0.268448
0.896549
0.914909
0.903716
-0.422624
-0.427089
-0.429449
1.015862
1.086276
1.040556
1.131923
0.913989
0.907733
0.895252
0.889966
1.370046
1.378359
0.955524
0.965564
0.956825
0.968988
0.560206
0.543915
0.550264
0.668129
0.685089
0.678109
0.317498
0.274443
0.290228
0.667009
0.530672
0.790140
0.809679
0.801417
0.349210
0.351427
0.328632
0.326122
0.797365
0.362882
0.385989
0.888538
0.895782
0.879774
0.592082
0.581864
0.635315
0.656607
0.623285
-0.391592
-0.399622
-0.404401
-0.014617
-0.020085
0.030148
-0.388967
-0.394560
-0.403306
0.023994
-0.407184
-0.411267
-0.418866
0.146481
0.084393
0.068807
0.151306
0.570252
0.552509
0.558045
0.538978
0.543498
0.551007
1.275851
1.278903
0.850492
0.848644
0.859857
0.837676
0.841181
0.841182
0.854495
-0.422528
-0.424454
-0.429517
0.857366
0.844839
0.854680
0.850436
-0.428919
-0.431319
0.491984
0.489900
0.502052
0.297908
0.262962
1.225199
1.233228
1.324478
1.321035
0.440681
0.424518
0.406540
0.401378
-0.465406
-0.460612
-0.464040
-0.459787
-0.428967
-0.438228
-0.435007
-0.404669
-0.390443
-0.455545
-0.452566
-0.461709
-0.436696
-0.438272
-0.444434
-0.448146
-0.441170
-0.370039
-0.379529
1.242440
1.259273
-0.378138
-0.374306
-0.381209
0.587971
0.299713
0.265716
0.269942
-0.383277
-0.441202
0.841543
0.848905
0.844145
0.840131
1.133624
1.144439
1.141918
0.329293
0.354574
0.319325
0.217141
0.298729
1.195055
1.208473
1.206823
0.378340
0.346266
0.369788
0.323019
-0.397610
-0.411174
-0.410587
0.704084
0.699918
0.716021
1.146332
0.114892
0.071643
0.094530
-0.390412
-0.399612
-0.395046
-0.433069
-0.437072
1.162083
-0.407815
-0.400042
-0.424216
-0.425934
-0.425979
-0.411636
-0.418859
-0.451989
-0.451560
-0.445622
-0.456266
0.155412
0.184795
0.157655
1.267712
1.268823
-0.413463
-0.363059
-0.378037
-0.385777
-0.399936
0.303514
0.532499
-0.458552
-0.455454
-0.452266
-0.449757
-0.445265
1.283740
0.333304
0.362808
0.550532
0.561192
-0.410260
-0.419137
1.267714
1.273664
0.150756
0.157568
-0.366058
0.994919
0.998500
1.005745
1.010913
-0.381707
-0.374478
0.753663
0.737806
0.749597
-0.430805
-0.440949
-0.444129
-0.394361
-0.457630
0.732933
1.228800
0.569860
0.555160
0.547946
0.602149
-0.458695
-0.452057
-0.463641
0.568095
-0.405199
-0.395951
-0.393028
0.530785
0.522316
1.244707
1.255631
1.246491
-0.438687
-0.396737
0.613783
0.652708
0.582873
0.577045
0.589384
0.812742
0.825397
-0.440362
-0.444019
-0.450072
-0.422327
-0.452808
-0.349332
-0.358754
1.184156
1.182781
1.198781
-0.355437
-0.365559
-0.383947
-0.385735
-0.367080
-0.463631
0.825669
0.586324
0.589684
-0.377708
0.528212
-0.463115
-0.456762
-0.469363
0.560185
0.568372
0.761348
0.737869
0.771642
-0.370491
1.280903
1.263701
1.274338
1.261006
-0.434636
-0.444667
-0.452554
-0.423588
-0.340027
-0.356061
-0.420221
-0.424997
-0.396742
-0.363450
-0.381508
-0.467840
0.271289
0.251533
0.290807
1.203676
0.264095
0.237597
0.238487
0.614170
0.793112
1.219269
1.231062
1.246625
-0.465689
-0.459473
-0.473200
0.600113
0.599232
0.585010
-0.437176
-0.446822
-0.453796
-0.419319
-0.470636
1.171721
1.170174
-0.420876
-0.428916
0.745240
1.250892
1.280198
1.313637
0.533637
0.544937
0.564988
0.578338
1.268553
1.276524
1.158469
1.168484
1.161477
1.148605
0.670440
0.671808
0.686964
-0.394369
1.256016
1.250508
-0.466407
-0.460747
-0.475131
-0.439542
-0.449668
-0.454942
-0.426024
-0.409454
1.213264
1.212275
1.149350
0.613758
0.627291
1.053447
1.063610
1.051852
-0.470563
1.214237
1.233984
0.614856
0.597314
-0.461141
-0.473136
-0.345985
-0.372712
1.442886
1.412226
-0.356552
1.037729
1.014679
0.987070
1.001366
-0.440496
-0.447884
-0.455206
-0.427014
1.180602
1.192400
1.184912
0.551750
1.060451
0.997403
0.571340
0.586346
0.539604
1.263724
1.273572
0.783998
0.788332
0.796857
1.250060
1.241636
-0.468963
0.775630
0.793146
0.940950
1.059025
0.996207
0.661019
0.643829
0.654529
0.635465
1.174911
0.849256
1.345799
1.386084
1.188299
-0.325081
-0.337175
0.500991
-0.439692
-0.334624
-0.346517
-0.447613
-0.453811
-0.432981
1.200757
1.097729
0.812138
0.818915
0.821446
0.628912
0.810429
0.375308
0.404622
0.377720
1.203827
1.222499
1.184989
0.627791
0.608955
0.641873
-0.368458
-0.466312
-0.380439
0.834343
0.820513
0.841331
0.815998
1.200982
-0.456269
-0.349087
-0.445215
-0.361502
1.218737
0.672094
0.665277
0.683150
-0.447891
-0.451593
0.672742
0.679640
-0.346442
1.271771
1.189965
1.177570
1.205477
0.909429
0.891961
0.899661
0.884463
1.326639
1.223160
1.214704
0.561333
0.651251
0.567228
0.523868
0.563608
0.580369
0.590578
0.539858
1.258110
-0.312755
-0.330996
1.244021
1.235941
1.273079
0.619350
0.594092
0.760784
0.765755
0.744846
-0.336020
-0.357078
-0.375935
0.599412
-0.413106
1.187022
-0.370865
-0.392962
-0.323046
0.642829
1.159677
-0.356650
1.091443
1.104509
1.096301
1.194668
1.107607
1.175652
0.639969
1.072395
1.085354
0.657693
1.061066
0.917308
0.923093
0.910095
0.239392
1.307958
-0.337244
-0.038109
-0.019158
0.012808
0.928755
0.733771
0.745176
0.730257
1.059956
1.071678
-0.296015
-0.312524
0.535423
0.546103
0.562613
0.742007
0.386088
0.367611
-0.310868
-0.325819
1.053972
1.064050
-0.355189
-0.367203
-0.330333
-0.343471
0.565586
0.549601
0.575762
1.273188
1.265752
1.283484
1.257528
-0.317246
1.221234
1.228064
1.211034
-0.280131
-0.301355
-0.302242
-0.322620
1.205877
0.954013
0.965500
0.962732
-0.348039
0.351168
0.347435
1.180155
-0.453982
-0.455346
-0.447279
-0.340649
-0.372757
0.328018
0.575040
0.630825
0.614874
0.650987
0.608954
0.592093
-0.296492
0.323669
0.739891
0.719679
1.127884
1.118520
1.125004
0.723453
0.579313
0.590992
0.573952
0.598131
1.236712
1.245450
1.266329
1.368149
0.696897
0.687337
0.668097
1.232322
1.213343
1.228375
0.662020
0.960089
1.054356
1.035724
1.041668
0.657866
0.631912
0.623819
-0.263126
-0.279669
1.063348
1.082044
1.071278
0.724095
0.736803
0.722524
-0.342851
-0.316140
-0.284880
-0.300053
-0.311211
-0.325835
0.614495
0.385967
0.418161
0.414862
-0.243463
-0.260923
-0.282274
0.261717
0.258407
0.236187
0.524211
0.512940
0.504794
0.534297
-0.265248
-0.287070
0.131248
0.089646
0.249009
0.233695
0.268902
-0.312959
0.509869
0.607091
0.589021
0.622306
-0.303608
1.313392
-0.339366
-0.267371
-0.226900
-0.248125
1.199516
1.197528
1.186285
0.212444
0.199005
-0.257759
-0.276101
-0.294347
0.554146
0.651851
0.644528
0.636162
0.659184
-0.291588
-0.310482
1.321468
1.316724
1.305203
1.289828
-0.203085
-0.221221
-0.242980
-0.228520
-0.249310
0.573536
0.581525
0.788912
0.804092
0.821213
0.784695
1.050820
1.055628
1.054356
1.170144
-0.272645
-0.260548
-0.296979
-0.236930
-0.185853
-0.212047
0.639760
0.832510
0.819252
0.823448
1.056039
-0.230762
-0.250937
-0.271810
-0.270203
-0.291267
0.592863
-0.159202
-0.178172
1.065226
1.085547
1.098748
1.092971
-0.200671
0.607068
0.625006
1.177857
1.192755
1.177499
1.047367
1.144787
1.131868
1.157647
1.168994
0.131542
0.128704
-0.187907
-0.226839
1.153928
1.209870
1.151765
0.687575
0.668162
0.691111
0.531357
0.542146
1.094019
1.090484
1.096888
0.762928
0.751113
0.765730
0.753773
-0.141231
-0.171261
-0.202426
1.069766
-0.201872
-0.224789
0.658107
0.667688
0.836718
0.699704
1.118506
1.116261
1.129216
-0.247829
0.802172
0.836202
-0.246774
-0.270980
-0.111899
-0.132441
1.135606
1.136801
1.123489
0.708403
0.711642
0.730305
0.843215
1.259260
1.263344
0.685185
1.145398
1.155974
-0.155631
1.145681
0.777898
-0.139946
-0.174402
0.545288
0.579851
0.567219
1.042564
1.048399
1.030816
1.036234
1.026120
1.043653
0.758846
0.765641
0.751508
0.761934
0.695100
0.738459
0.729414
0.714254
1.215030
1.203608
1.181298
0.645647
0.853149
0.842803
-0.093830
-0.129023
0.734068
0.741465
0.727864
0.738784
-0.166154
1.086512
1.091680
-0.174912
-0.217239
0.833280
1.108386
1.117490
1.124491
1.136431
1.139231
0.554602
0.701436
0.701278
-0.061343
-0.083302
1.108259
0.661308
0.677721
1.163002
1.146276
1.162910
-0.107423
1.104445
1.105112
-0.089395
-0.124370
0.595866
0.616532
0.635299
0.754500
0.736624
0.739880
0.539995
0.569576
0.069716
0.087180
0.130856
-0.045377
-0.085531
0.654744
0.671325
1.100346
-0.129767
0.870234
0.882052
0.865967
0.875927
1.148370
0.604186
0.597106
0.561348
0.693919
0.708569
0.697385
0.717883
1.135311
1.125130
1.134674
1.125315
-0.138710
-0.181906
0.783807
0.772133
1.100990
1.097081
0.561744
0.565107
0.582415
1.224690
1.222856
1.206412
1.208674
0.970764
0.970748
0.956054
0.791278
0.773316
0.788677
1.284989
1.303580
1.279245
0.760835
0.746811
0.747920
-0.008122
-0.030643
1.057673
1.077709
1.079106
0.774324
1.326506
1.306481
-0.057015
-0.036761
-0.072493
0.795530
0.507319
0.492979
0.525561
0.004720
-0.040396
1.049077
1.026434
1.051536
1.050161
0.806479
0.803513
-0.088854
-0.095402
-0.138883
0.045781
0.025469
0.813876
0.748776
0.736860
0.742853
-0.002968
0.728283
0.837581
0.826344
0.829086
0.014565
-0.016249
0.055521
0.009618
0.779207
0.790101
-0.040886
-0.042150
-0.085442
1.034011
1.029569
0.893832
0.924327
0.577393
0.569098
0.589567
0.094678
0.078484
0.825965
0.834589
0.826636
1.245214
1.251543
1.192491
1.234084
1.165040
1.138883
1.109339
0.813942
0.047848
0.065615
0.040656
0.840900
0.847452
1.046799
1.063414
1.053754
1.065643
0.101527
0.062793
0.012843
0.811638
0.021875
-0.028386
0.134401
0.125877
1.114459
1.115415
1.124627
1.226523
1.230531
1.209507
0.831391
0.827246
0.398040
0.425873
0.871581
0.863045
0.724639
0.720592
0.703454
0.098658
0.129386
0.096604
0.469620
0.613659
0.620563
0.604962
1.156060
1.173233
0.137492
0.105484
0.835180
0.799188
0.805859
0.793041
0.069662
0.072002
0.799508
0.784928
0.687062
0.677151
1.140712
1.135344
1.048773
0.171139
0.166481
0.770169
0.815232
0.828755
0.818434
0.145712
0.169260
0.647902
0.630831
0.169491
0.137900
1.154031
0.628121
0.612110
0.688504
0.636990
0.655072
0.203633
0.205086
1.236559
0.600569
0.246816
0.100089
0.441824
0.471032
0.434883
0.191156
0.214745
0.760997
0.768376
0.667674
0.688881
0.697413
0.202735
0.167018
0.756064
1.161621
1.134620
0.710364
0.697626
0.711586
1.125131
0.407184
0.784236
0.263105
0.251264
0.723942
0.774694
0.693741
0.681224
-0.134127
-0.076649
-0.113089
-0.074160
0.554405
0.543057
0.562455
0.738209
0.722283
0.235591
0.234062
0.130275
0.233803
0.254031
0.236830
0.204939
0.576964
0.571188
0.608087
0.778812
0.782227
0.829029
0.796914
1.156255
1.164762
1.171829
0.607173
0.536686
0.502412
0.532637
0.464355
0.510950
0.465970
0.443977
0.476839
0.754675
0.763163
0.750724
1.265656
1.276804
1.254860
0.269979
0.767626
0.883873
0.891687
0.875014
0.882877
0.776594
0.746561
0.761504
0.276621
1.089521
0.514754
0.496584
0.507462
1.020307
1.023911
1.013087
0.736006
0.831978
0.826184
0.827695
0.832221
0.821440
0.865838
0.944569
0.935826
0.974617
0.757508
0.500426
0.514391
0.515901
0.496428
0.910022
0.692338
0.698260
0.711324
0.677147
1.054501
1.036709
1.035972
1.251909
1.042162
0.222019
0.227515
0.208127
0.204400
0.397909
0.422126
0.019114
0.020812
0.047205
0.025465
0.120410
0.709970
0.695033
0.702961
0.707654
0.771574
0.779965
0.782179
0.764681
0.540256
0.518431
0.528129
0.524365
0.601921
0.626385
0.617911
0.440523
0.472418
1.142571
1.173424
1.161265
1.150301
1.171038
1.144281
0.856851
0.842500
0.850283
0.834938
0.611653
0.474975
0.484790
0.462345
0.870445
0.866694
0.452969
0.196595
0.819028
0.813288
0.821674
0.811460
0.826847
0.762625
0.750340
0.865070
0.648135
0.669019
0.663925
0.683784
-0.007165
1.181137
1.156987
0.110906
1.161703
1.173394
1.148047
0.848684
0.851276
0.863356
1.185867
0.778181
0.790723
0.779578
0.790839
1.032644
0.989140
0.980577
0.975676
0.219605
0.247348
0.716198
0.713767
0.697419
0.703054
0.387851
0.353653
0.374400
0.388369
0.362151
1.031128
1.022220
0.659147
0.656331
0.671072
0.647578
0.303911
0.307392
0.288430
0.729882
0.719757
0.726037
0.720095
0.677017
0.683259
0.865552
0.874517
0.863001
1.026695
1.023324
1.010458
-0.445889
1.038820
1.175997
1.150144
0.560761
0.542661
0.545641
0.557829
-0.447141
1.023377
1.037423
1.033934
1.016117
1.004948
0.595521
0.586178
0.612749
0.607433
0.626030
1.114326
0.273456
0.329914
1.192434
1.196638
1.209984
1.195519
1.179519
0.965686
0.982070
0.939459
0.924886
0.933775
0.482038
0.525608
0.505280
0.303262
0.563054
0.811587
0.798354
0.812331
0.713731
0.801387
0.146383
0.772456
0.777102
0.760312
1.043895
1.056597
1.067460
0.708432
0.719304
0.730438
0.698162
0.694123
0.684783
0.840190
0.848449
0.839094
0.773788
0.783276
0.781034
0.770058
0.722384
0.354781
0.392590
1.090192
1.083149
1.085374
1.120067
0.480321
0.500343
0.593113
0.576523
0.622265
0.540347
0.557873
0.543339
0.544571
0.528783
0.533702
0.538834
0.513463
0.529632
0.786740
0.770688
0.502508
0.513838
0.498271
0.479480
0.471065
0.678195
0.663475
0.671066
0.667505
0.860498
0.841784
0.525936
0.932875
1.196472
1.199815
1.191453
1.183795
1.180770
0.514340
0.512480
0.497954
0.466976
0.483720
0.475551
0.796720
0.804120
0.791807
0.692092
0.682016
0.679270
0.693905
0.704090
0.701829
0.712700
1.060705
1.043706
1.055926
1.043913
0.874577
0.860475
0.867287
0.866406
0.767417
0.778796
0.785040
0.760093
0.757779
0.748954
0.180973
0.904568
0.923621
0.920081
0.942274
0.888534
0.887805
1.008563
1.010629
1.019225
0.998864
0.998349
0.851841
0.844670
0.851606
0.856000
0.839033
0.848393
0.888458
0.881469
0.831955
0.824606
0.817730
1.254131
1.227586
0.810601
0.535062
0.556080
0.495529
0.836610
0.744325
0.766091
0.934137
0.917858
0.869169
0.873587
0.900063
1.163912
1.151799
1.162343
1.176858
0.573530
0.573644
1.007575
1.008366
1.019144
0.994576
1.028606
1.028212
1.037296
0.528625
0.514803
0.532477
0.865814
0.854130
0.854052
0.749012
0.746822
0.210573
0.192595
0.751743
0.790873
0.801708
0.795038
0.787230
0.803358
0.797303
0.816540
0.495180
0.486934
0.463815
0.512567
0.501211
0.516352
0.491542
0.503887
0.487714
0.507918
0.892387
0.899080
0.530576
0.886561
0.902875
0.668456
0.653106
0.772986
0.782664
0.756484
0.762577
0.430897
0.405183
0.449285
0.462528
0.470789
0.743321
0.767897
0.917942
0.893668
0.905151
0.908071
0.871692
0.861944
0.999004
1.014100
1.026481
0.798500
0.799528
0.823804
0.823615
0.794464
0.769572
0.771919
0.295615
0.841936
0.858721
0.946192
0.927629
0.439119
0.426467
0.445798
0.716748
0.702957
0.726301
0.525386
0.595143
0.700652
0.732220
0.746675
0.615988
0.606686
0.622186
0.612306
1.098536
1.016808
0.988224
1.088885
0.880153
0.875568
0.891011
0.881666
0.788035
0.412874
0.798793
1.131137
1.138014
1.129136
1.142010
1.126040
1.138048
1.126924
0.717971
0.732357
1.006418
0.992869
1.021558
0.683895
0.695319
0.713048
0.674566
0.662381
1.223964
1.231779
1.247211
1.222550
0.603205
0.585336
0.659652
0.611080
1.019944
1.008764
0.996119
0.988011
0.856257
0.861543
0.676861
0.663190
0.810805
0.825122
0.807614
0.531187
0.524431
0.505821
0.547188
0.531713
0.713656
0.546303
0.918939
0.815343
0.816539
0.807924
0.828090
0.602245
0.605733
0.608791
0.655248
0.818179
0.801001
0.813025
0.795169
0.826306
0.804079
0.805634
0.732805
0.733958
0.756192
1.129131
1.114348
0.844926
0.196990
0.171434
1.076394
1.060163
1.067785
0.811098
0.706266
0.694796
0.713165
1.117719
0.776267
0.783584
0.769426
0.631498
0.645318
0.749254
1.134413
1.123361
1.116868
1.113472
1.102963
0.796996
0.802480
0.809888
0.817024
0.795910
0.750186
0.656875
1.067862
1.078666
1.078545
1.058070
1.066585
1.058633
0.773410
0.776939
0.748768
0.769473
0.751820
1.104733
1.108571
1.121630
1.093468
1.091094
0.561865