# vtk DataFile Version 2.0
Test
ASCII
DATASET POLYDATA
POINTS 6577 float
0.000000 0.000000 0.000000
2.000000 0.000000 0.000000
2.000000 4.000000 0.000000
0.000000 4.000000 0.000000
0.000000 0.500000 0.000000
1.500000 2.000000 0.000000
2.000000 2.500000 0.000000
0.040000 0.000000 0.000000
0.080000 0.000000 0.000000
0.120000 0.000000 0.000000
0.160000 0.000000 0.000000
0.200000 0.000000 0.000000
0.240000 0.000000 0.000000
0.280000 0.000000 0.000000
0.320000 0.000000 0.000000
0.360000 0.000000 0.000000
0.400000 0.000000 0.000000
0.440000 0.000000 0.000000
0.480000 0.000000 0.000000
0.520000 0.000000 0.000000
0.560000 0.000000 0.000000
0.600000 0.000000 0.000000
0.640000 0.000000 0.000000
0.680000 0.000000 0.000000
0.720000 0.000000 0.000000
0.760000 0.000000 0.000000
0.800000 0.000000 0.000000
0.840000 0.000000 0.000000
0.880000 0.000000 0.000000
0.920000 0.000000 0.000000
0.960000 0.000000 0.000000
1.000000 0.000000 0.000000
1.040000 0.000000 0.000000
1.080000 0.000000 0.000000
1.120000 0.000000 0.000000
1.160000 0.000000 0.000000
1.200000 0.000000 0.000000
1.240000 0.000000 0.000000
1.280000 0.000000 0.000000
1.320000 0.000000 0.000000
1.360000 0.000000 0.000000
1.400000 0.000000 0.000000
1.440000 0.000000 0.000000
1.480000 0.000000 0.000000
1.520000 0.000000 0.000000
1.560000 0.000000 0.000000
1.600000 0.000000 0.000000
1.640000 0.000000 0.000000
1.680000 0.000000 0.000000
1.720000 0.000000 0.000000
1.760000 0.000000 0.000000
1.800000 0.000000 0.000000
1.840000 0.000000 0.000000
1.880000 0.000000 0.000000
1.920000 0.000000 0.000000
1.960000 0.000000 0.000000
2.000000 0.039683 0.000000
2.000000 0.079365 0.000000
2.000000 0.119048 0.000000
2.000000 0.158730 0.000000
2.000000 0.198413 0.000000
2.000000 0.238095 0.000000
2.000000 0.277778 0.000000
2.000000 0.317460 0.000000
2.000000 0.357143 0.000000
2.000000 0.396825 0.000000
2.000000 0.436508 0.000000
2.000000 0.476190 0.000000
2.000000 0.515873 0.000000
2.000000 0.555556 0.000000
2.000000 0.595238 0.000000
2.000000 0.634921 0.000000
2.000000 0.674603 0.000000
2.000000 0.714286 0.000000
2.000000 0.753968 0.000000
2.000000 0.793651 0.000000
2.000000 0.833333 0.000000
2.000000 0.873016 0.000000
2.000000 0.912698 0.000000
2.000000 0.952381 0.000000
2.000000 0.992063 0.000000
2.000000 1.031746 0.000000
2.000000 1.071429 0.000000
2.000000 1.111111 0.000000
2.000000 1.150794 0.000000
2.000000 1.190476 0.000000
2.000000 1.230159 0.000000
2.000000 1.269841 0.000000
2.000000 1.309524 0.000000
2.000000 1.349206 0.000000
2.000000 1.388889 0.000000
2.000000 1.428571 0.000000
2.000000 1.468254 0.000000
2.000000 1.507937 0.000000
2.000000 1.547619 0.000000
2.000000 1.587302 0.000000
2.000000 1.626984 0.000000
2.000000 1.666667 0.000000
2.000000 1.706349 0.000000
2.000000 1.746032 0.000000
2.000000 1.785714 0.000000
2.000000 1.825397 0.000000
2.000000 1.865079 0.000000
2.000000 1.904762 0.000000
2.000000 1.944444 0.000000
2.000000 1.984127 0.000000
2.000000 2.023810 0.000000
2.000000 2.063492 0.000000
2.000000 2.103175 0.000000
2.000000 2.142857 0.000000
2.000000 2.182540 0.000000
2.000000 2.222222 0.000000
2.000000 2.261905 0.000000
2.000000 2.301587 0.000000
2.000000 2.341270 0.000000
2.000000 2.380952 0.000000
2.000000 2.420635 0.000000
2.000000 2.460317 0.000000
2.000000 2.539474 0.000000
2.000000 2.578947 0.000000
2.000000 2.618421 0.000000
2.000000 2.657895 0.000000
2.000000 2.697368 0.000000
2.000000 2.736842 0.000000
2.000000 2.776316 0.000000
2.000000 2.815789 0.000000
2.000000 2.855263 0.000000
2.000000 2.894737 0.000000
2.000000 2.934211 0.000000
2.000000 2.973684 0.000000
2.000000 3.013158 0.000000
2.000000 3.052632 0.000000
2.000000 3.092105 0.000000
2.000000 3.131579 0.000000
2.000000 3.171053 0.000000
2.000000 3.210526 0.000000
2.000000 3.250000 0.000000
2.000000 3.289474 0.000000
2.000000 3.328947 0.000000
2.000000 3.368421 0.000000
2.000000 3.407895 0.000000
2.000000 3.447368 0.000000
2.000000 3.486842 0.000000
2.000000 3.526316 0.000000
2.000000 3.565789 0.000000
2.000000 3.605263 0.000000
2.000000 3.644737 0.000000
2.000000 3.684211 0.000000
2.000000 3.723684 0.000000
2.000000 3.763158 0.000000
2.000000 3.802632 0.000000
2.000000 3.842105 0.000000
2.000000 3.881579 0.000000
2.000000 3.921053 0.000000
2.000000 3.960526 0.000000
1.960000 4.000000 0.000000
1.920000 4.000000 0.000000
1.880000 4.000000 0.000000
1.840000 4.000000 0.000000
1.800000 4.000000 0.000000
1.760000 4.000000 0.000000
1.720000 4.000000 0.000000
1.680000 4.000000 0.000000
1.640000 4.000000 0.000000
1.600000 4.000000 0.000000
1.560000 4.000000 0.000000
1.520000 4.000000 0.000000
1.480000 4.000000 0.000000
1.440000 4.000000 0.000000
1.400000 4.000000 0.000000
1.360000 4.000000 0.000000
1.320000 4.000000 0.000000
1.280000 4.000000 0.000000
1.240000 4.000000 0.000000
1.200000 4.000000 0.000000
1.160000 4.000000 0.000000
1.120000 4.000000 0.000000
1.080000 4.000000 0.000000
1.040000 4.000000 0.000000
1.000000 4.000000 0.000000
0.960000 4.000000 0.000000
0.920000 4.000000 0.000000
0.880000 4.000000 0.000000
0.840000 4.000000 0.000000
0.800000 4.000000 0.000000
0.760000 4.000000 0.000000
0.720000 4.000000 0.000000
0.680000 4.000000 0.000000
0.640000 4.000000 0.000000
0.600000 4.000000 0.000000
0.560000 4.000000 0.000000
0.520000 4.000000 0.000000
0.480000 4.000000 0.000000
0.440000 4.000000 0.000000
0.400000 4.000000 0.000000
0.360000 4.000000 0.000000
0.320000 4.000000 0.000000
0.280000 4.000000 0.000000
0.240000 4.000000 0.000000
0.200000 4.000000 0.000000
0.160000 4.000000 0.000000
0.120000 4.000000 0.000000
0.080000 4.000000 0.000000
0.040000 4.000000 0.000000
0.000000 3.960227 0.000000
0.000000 3.920455 0.000000
0.000000 3.880682 0.000000
0.000000 3.840909 0.000000
0.000000 3.801136 0.000000
0.000000 3.761364 0.000000
0.000000 3.721591 0.000000
0.000000 3.681818 0.000000
0.000000 3.642045 0.000000
0.000000 3.602273 0.000000
0.000000 3.562500 0.000000
0.000000 3.522727 0.000000
0.000000 3.482955 0.000000
0.000000 3.443182 0.000000
0.000000 3.403409 0.000000
0.000000 3.363636 0.000000
0.000000 3.323864 0.000000
0.000000 3.284091 0.000000
0.000000 3.244318 0.000000
0.000000 3.204545 0.000000
0.000000 3.164773 0.000000
0.000000 3.125000 0.000000
0.000000 3.085227 0.000000
0.000000 3.045455 0.000000
0.000000 3.005682 0.000000
0.000000 2.965909 0.000000
0.000000 2.926136 0.000000
0.000000 2.886364 0.000000
0.000000 2.846591 0.000000
0.000000 2.806818 0.000000
0.000000 2.767045 0.000000
0.000000 2.727273 0.000000
0.000000 2.687500 0.000000
0.000000 2.647727 0.000000
0.000000 2.607955 0.000000
0.000000 2.568182 0.000000
0.000000 2.528409 0.000000
0.000000 2.488636 0.000000
0.000000 2.448864 0.000000
0.000000 2.409091 0.000000
0.000000 2.369318 0.000000
0.000000 2.329545 0.000000
0.000000 2.289773 0.000000
0.000000 2.250000 0.000000
0.000000 2.210227 0.000000
0.000000 2.170455 0.000000
0.000000 2.130682 0.000000
0.000000 2.090909 0.000000
0.000000 2.051136 0.000000
0.000000 2.011364 0.000000
0.000000 1.971591 0.000000
0.000000 1.931818 0.000000
0.000000 1.892045 0.000000
0.000000 1.852273 0.000000
0.000000 1.812500 0.000000
0.000000 1.772727 0.000000
0.000000 1.732955 0.000000
0.000000 1.693182 0.000000
0.000000 1.653409 0.000000
0.000000 1.613636 0.000000
0.000000 1.573864 0.000000
0.000000 1.534091 0.000000
0.000000 1.494318 0.000000
0.000000 1.454545 0.000000
0.000000 1.414773 0.000000
0.000000 1.375000 0.000000
0.000000 1.335227 0.000000
0.000000 1.295455 0.000000
0.000000 1.255682 0.000000
0.000000 1.215909 0.000000
0.000000 1.176136 0.000000
0.000000 1.136364 0.000000
0.000000 1.096591 0.000000
0.000000 1.056818 0.000000
0.000000 1.017045 0.000000
0.000000 0.977273 0.000000
0.000000 0.937500 0.000000
0.000000 0.897727 0.000000
0.000000 0.857955 0.000000
0.000000 0.818182 0.000000
0.000000 0.778409 0.000000
0.000000 0.738636 0.000000
0.000000 0.698864 0.000000
0.000000 0.659091 0.000000
0.000000 0.619318 0.000000
0.000000 0.579545 0.000000
0.000000 0.539773 0.000000
0.000000 0.461538 0.000000
0.000000 0.423077 0.000000
0.000000 0.384615 0.000000
0.000000 0.346154 0.000000
0.000000 0.307692 0.000000
0.000000 0.269231 0.000000
0.000000 0.230769 0.000000
0.000000 0.192308 0.000000
0.000000 0.153846 0.000000
0.000000 0.115385 0.000000
0.000000 0.076923 0.000000
0.000000 0.038462 0.000000
0.027778 0.527778 0.000000
0.055556 0.555556 0.000000
0.083333 0.583333 0.000000
0.111111 0.611111 0.000000
0.138889 0.638889 0.000000
0.166667 0.666667 0.000000
0.194444 0.694444 0.000000
0.222222 0.722222 0.000000
0.250000 0.750000 0.000000
0.277778 0.777778 0.000000
0.305556 0.805556 0.000000
0.333333 0.833333 0.000000
0.361111 0.861111 0.000000
0.388889 0.888889 0.000000
0.416667 0.916667 0.000000
0.444444 0.944444 0.000000
0.472222 0.972222 0.000000
0.500000 1.000000 0.000000
0.527778 1.027778 0.000000
0.555556 1.055556 0.000000
0.583333 1.083333 0.000000
0.611111 1.111111 0.000000
0.638889 1.138889 0.000000
0.666667 1.166667 0.000000
0.694444 1.194444 0.000000
0.722222 1.222222 0.000000
0.750000 1.250000 0.000000
0.777778 1.277778 0.000000
0.805556 1.305556 0.000000
0.833333 1.333333 0.000000
0.861111 1.361111 0.000000
0.888889 1.388889 0.000000
0.916667 1.416667 0.000000
0.944444 1.444444 0.000000
0.972222 1.472222 0.000000
1.000000 1.500000 0.000000
1.027778 1.527778 0.000000
1.055556 1.555556 0.000000
1.083333 1.583333 0.000000
1.111111 1.611111 0.000000
1.138889 1.638889 0.000000
1.166667 1.666667 0.000000
1.194444 1.694444 0.000000
1.222222 1.722222 0.000000
1.250000 1.750000 0.000000
1.277778 1.777778 0.000000
1.305556 1.805556 0.000000
1.333333 1.833333 0.000000
1.361111 1.861111 0.000000
1.388889 1.888889 0.000000
1.416667 1.916667 0.000000
1.444444 1.944444 0.000000
1.472222 1.972222 0.000000
1.527778 2.027778 0.000000
1.555556 2.055556 0.000000
1.583333 2.083333 0.000000
1.611111 2.111111 0.000000
1.638889 2.138889 0.000000
1.666667 2.166667 0.000000
1.694444 2.194444 0.000000
1.722222 2.222222 0.000000
1.750000 2.250000 0.000000
1.777778 2.277778 0.000000
1.805556 2.305556 0.000000
[...]
POINT_DATA 6577
SCALARS UX float 1
LOOKUP_TABLE default
-0.000022
0.000091
-0.009046
-0.277327
-0.143386
-0.032393
0.014795
0.000000
-0.000002
-0.000002
0.000002
0.000003
-0.000013
0.000002
0.000002
0.000002
0.000001
0.000002
-0.000001
0.000002
0.000001
-0.000001
0.000001
0.000001
0.000001
0.000001
-0.000001
-0.000001
0.000001
-0.000000
0.000002
0.000001
0.000000
-0.000000
0.000000
0.000000
-0.000001
0.000000
0.000001
-0.000002
0.000001
0.000001
-0.000002
0.000002
0.000001
0.000002
-0.000002
-0.000000
-0.000001
-0.000005
0.000009
-0.000007
0.000006
0.000006
-0.000036
0.000026
0.028444
0.042914
0.053609
0.061064
0.068189
0.074935
0.082818
0.088378
0.094171
0.097799
0.104734
0.108660
0.111377
0.114099
0.119478
0.123557
0.125137
0.126995
0.129989
0.132815
0.134901
0.135688
0.138264
0.138508
0.138293
0.141441
0.142584
0.142315
0.143718
0.143055
0.145334
0.145046
0.145832
0.145580
0.145005
0.143864
0.143790
0.142010
0.141196
0.139100
0.136052
0.133908
0.130172
0.127166
0.123981
0.119905
0.113652
0.107337
0.102382
0.096341
0.086756
0.079425
0.075374
0.066577
0.059682
0.049307
0.048776
0.037174
0.036723
0.030117
0.022431
0.022988
0.013366
0.012527
0.010079
0.006484
0.005901
0.003925
0.002200
0.000182
-0.000120
0.003067
-0.001670
-0.002556
-0.002738
-0.002708
-0.005274
-0.003320
-0.003163
-0.002612
-0.003920
-0.006679
-0.007314
-0.006195
-0.005745
-0.004060
-0.007209
-0.008271
-0.008710
-0.009617
-0.009666
-0.008510
-0.010488
-0.006838
-0.009445
-0.008814
-0.008787
-0.010485
-0.009314
-0.015257
-0.020730
-0.025976
-0.031485
-0.037925
-0.044050
-0.049670
-0.054689
-0.060710
-0.066055
-0.071953
-0.079251
-0.083541
-0.090588
-0.096442
-0.100998
-0.106198
-0.110005
-0.115692
-0.119839
-0.124774
-0.131176
-0.136244
-0.142351
-0.147134
-0.152255
-0.157800
-0.162348
-0.167377
-0.172512
-0.178386
-0.182946
-0.188269
-0.194271
-0.198885
-0.204065
-0.210075
-0.214832
-0.219911
-0.225481
-0.230592
-0.235562
-0.240534
-0.246229
-0.251615
-0.256895
-0.262077
-0.267560
-0.272600
-0.278716
-0.276912
-0.276167
-0.275179
-0.276044
-0.275887
-0.274619
-0.273904
-0.274183
-0.274010
-0.273645
-0.273793
-0.273512
-0.272511
-0.272480
-0.270760
-0.272174
-0.268750
-0.269044
-0.268691
-0.267788
-0.265797
-0.266177
-0.264367
-0.264670
-0.264938
-0.264131
-0.264926
-0.264221
-0.262854
-0.262629
-0.262814
-0.262037
-0.259354
-0.259017
-0.257091
-0.257833
-0.259115
-0.259632
-0.258041
-0.257554
-0.257713
-0.257091
-0.258135
-0.256662
-0.255447
-0.255940
-0.257171
-0.258614
-0.258145
-0.255668
-0.256699
-0.257864
-0.258475
-0.259242
-0.258079
-0.258525
-0.257983
-0.261742
-0.261380
-0.262064
-0.263009
-0.262501
-0.264172
-0.265881
-0.269895
-0.269160
-0.272372
-0.275370
-0.274401
-0.275707
-0.277407
-0.278524
-0.277547
-0.278436
-0.277956
-0.276250
-0.272755
-0.268990
-0.260974
-0.253619
-0.245539
-0.241345
-0.231624
-0.209116
-0.187682
-0.157000
-0.089696
-0.091553
-0.087357
-0.082421
-0.076080
-0.072485
-0.067418
-0.060133
-0.055021
-0.047993
-0.036477
-0.025798
-0.129518
-0.132996
-0.131279
-0.153392
-0.140955
-0.113503
-0.142972
-0.112064
-0.122681
-0.132398
-0.114428
-0.127057
-0.116915
-0.118569
-0.081002
-0.107998
-0.091253
-0.104150
-0.101871
-0.106462
-0.132892
-0.112378
-0.101504
-0.125719
-0.120356
-0.124751
-0.077101
-0.091697
-0.089451
-0.103014
-0.069139
-0.089633
-0.071663
-0.057137
-0.119768
-0.074222
-0.076586
-0.064468
-0.067513
-0.066543
-0.085454
-0.055768
-0.036165
-0.051257
-0.061600
-0.048295
-0.039367
-0.037126
-0.048867
-0.048053
-0.022546
-0.034792
-0.031068
-0.021216
-0.013218
-0.015194
-0.007584
-0.007916
-0.008004
-0.003991
-0.004083
-0.002336
-0.001029
0.000808
0.003569
0.005313
0.005620
0.008206
0.007884
0.016967
0.006941
0.007840
-0.271992
-0.273107
-0.015991
-0.013047
0.012297
0.007398
0.004623
-0.001130
-0.003053
-0.059957
-0.063264
-0.064775
-0.109522
-0.106947
-0.104273
-0.067032
-0.206257
-0.201803
-0.204647
-0.078649
-0.074049
-0.071562
-0.250587
-0.252220
-0.248435
-0.255249
-0.261296
-0.259343
-0.076751
-0.037617
-0.033738
-0.037258
-0.077912
-0.082218
-0.076931
-0.252362
-0.251539
-0.246709
-0.207416
-0.094212
-0.094922
-0.100196
-0.098964
-0.103453
-0.103548
-0.080519
-0.080507
-0.084785
-0.082639
-0.208594
-0.211942
-0.211318
-0.211722
-0.205346
-0.210785
-0.205412
-0.211524
-0.085238
-0.080633
-0.084623
-0.100699
-0.143399
-0.143268
-0.138971
-0.006086
-0.000811
-0.136770
-0.227967
-0.229578
-0.224586
-0.234124
-0.214551
-0.213715
-0.208869
-0.139601
-0.144253
-0.143951
-0.141487
-0.058823
-0.057410
-0.051517
-0.052406
-0.196412
-0.202927
-0.202510
-0.198180
-0.107687
-0.104601
-0.108490
-0.205361
-0.198306
-0.199993
-0.005497
0.000706
-0.006476
-0.000822
-0.002500
-0.001053
-0.009372
-0.217083
-0.221379
-0.221819
-0.070942
-0.075500
-0.076914
-0.080265
-0.106212
-0.256912
-0.260447
-0.256264
-0.164606
-0.159709
-0.159784
-0.165803
-0.222324
-0.228122
-0.223491
-0.225594
-0.212041
-0.208684
-0.214220
-0.142526
-0.145151
-0.147990
-0.039810
-0.045218
-0.043467
-0.042949
-0.033241
-0.031193
-0.000720
-0.157543
-0.154957
-0.159236
-0.161087
-0.164417
-0.164364
-0.202297
-0.195777
-0.209110
-0.209399
-0.205984
-0.236641
-0.233385
-0.232341
-0.213738
-0.141779
-0.146491
-0.142101
-0.245699
-0.244160
-0.248029
-0.208116
-0.174695
-0.172641
-0.178531
-0.143619
-0.140509
-0.145798
-0.210894
-0.209238
-0.226984
-0.034422
-0.027861
-0.034089
-0.027536
-0.084811
-0.087019
-0.089711
-0.092987
0.001758
0.002703
-0.131937
-0.129781
-0.133439
-0.126362
-0.252300
-0.255955
-0.253434
-0.156444
-0.152643
-0.156068
-0.163939
-0.168307
-0.163723
-0.153738
-0.259010
-0.197783
-0.191790
-0.193660
-0.194720
-0.198165
-0.200959
-0.205015
-0.195838
-0.257251
-0.257508
-0.168742
-0.165401
-0.171467
-0.250992
-0.252132
-0.129804
-0.126967
-0.133336
-0.238541
-0.243299
-0.240832
-0.252687
-0.248882
-0.246584
-0.228730
-0.234163
-0.231201
-0.242423
-0.222452
-0.228920
-0.225623
-0.128255
-0.128573
-0.083939
-0.129439
-0.254636
-0.259640
-0.255736
-0.261500
-0.269232
-0.269937
-0.018959
-0.019703
-0.070831
-0.070738
-0.065871
-0.075286
-0.182674
-0.183246
-0.178722
-0.217616
-0.223333
-0.223041
-0.178023
-0.078636
-0.076891
-0.081525
-0.222956
-0.223862
-0.263274
-0.261633
-0.260760
-0.139418
-0.135635
-0.018646
-0.018984
-0.012335
-0.013336
-0.226991
-0.232791
-0.231036
-0.234661
-0.260537
-0.257023
-0.260614
-0.254107
-0.237340
-0.242077
-0.235458
-0.248732
-0.246475
-0.270431
-0.270278
-0.274438
-0.235834
-0.240862
-0.248561
-0.253955
-0.245404
-0.224667
-0.222390
-0.029391
-0.023338
-0.230228
-0.236593
-0.234160
-0.258944
-0.211986
-0.218260
-0.213265
-0.240718
-0.238881
-0.051821
-0.055874
-0.057722
-0.049841
-0.071136
-0.067078
-0.068188
-0.155267
-0.154614
-0.159578
-0.133369
-0.131305
-0.046720
-0.044196
-0.042757
-0.150926
-0.136689
-0.139412
-0.141640
-0.257028
-0.264002
-0.258182
-0.224282
-0.225393
-0.220568
-0.059580
-0.231876
-0.237955
-0.233307
-0.218799
-0.218290
-0.224840
-0.222368
-0.234842
-0.055703
-0.215115
-0.160796
-0.212069
-0.217046
-0.213160
-0.213591
-0.213117
-0.252719
-0.253907
-0.244805
-0.260011
-0.219695
-0.216993
-0.222000
-0.023992
-0.020272
-0.218696
-0.221198
-0.220542
-0.213866
-0.214023
-0.205140
-0.271329
-0.257455
-0.252968
-0.254824
-0.249519
-0.250023
-0.012667
-0.194329
-0.190447
-0.266263
-0.265351
-0.208528
-0.209621
-0.021150
-0.020639
-0.144903
-0.139408
-0.230362
-0.085399
-0.085881
-0.083478
-0.079768
-0.248997
-0.243402
-0.206451
-0.211918
-0.207165
-0.239884
-0.237065
-0.242450
-0.229811
-0.258845
-0.210926
-0.032922
-0.173832
-0.178605
-0.175769
-0.255120
-0.257978
-0.250274
-0.266402
-0.265521
-0.265477
-0.260969
-0.261894
-0.180414
-0.178579
-0.030056
-0.027258
-0.027199
-0.203697
-0.181567
-0.128881
-0.122807
-0.260430
-0.261653
-0.258027
-0.190680
-0.187270
-0.227612
-0.245798
-0.248615
-0.199981
-0.191829
-0.222679
-0.226229
-0.049951
-0.051480
-0.044992
-0.232756
-0.237136
-0.256478
-0.253309
-0.243170
-0.264062
-0.186977
-0.139277
-0.138387
-0.249612
-0.272469
-0.261273
-0.254173
-0.270902
-0.263715
-0.261934
-0.093518
-0.093632
-0.087995
-0.215599
-0.012300
-0.019510
-0.014281
-0.026345
-0.245706
-0.244638
-0.249542
-0.234645
-0.218368
-0.216420
-0.205242
-0.206988
-0.208446
-0.210033
-0.209862
-0.266234
-0.225233
-0.223312
-0.218928
-0.038470
-0.229613
-0.228322
-0.231572
-0.250849
-0.089888
-0.033647
-0.033988
-0.030009
-0.263198
-0.257089
-0.272691
-0.255114
-0.255219
-0.259522
-0.240942
-0.244367
-0.252085
-0.219495
-0.268765
-0.054444
-0.056382
-0.199700
-0.204999
-0.089344
-0.015447
-0.009827
-0.010862
-0.270183
-0.267828
-0.262001
-0.259377
-0.016722
-0.014163
-0.056070
-0.054587
-0.057758
-0.060712
-0.233267
-0.233807
-0.228325
-0.204037
-0.024517
-0.026554
-0.263650
-0.257136
-0.273083
-0.239124
-0.244945
-0.250464
-0.241631
-0.204169
-0.038144
-0.043135
-0.061819
-0.250723
-0.246747
-0.105390
-0.103384
-0.107412
-0.266888
-0.039218
-0.033241
-0.249558
-0.254220
-0.255761
-0.270229
-0.227653
-0.252553
0.005262
-0.001477
-0.240982
-0.112646
-0.054341
-0.059300
-0.055422
-0.238642
-0.242953
-0.249269
-0.232520
-0.052575
-0.048304
-0.050898
-0.264661
-0.102165
-0.059601
-0.258341
-0.256035
-0.267832
-0.020476
-0.017341
-0.128257
-0.124751
-0.123218
-0.028113
-0.030601
-0.265062
-0.129286
-0.127593
-0.027194
-0.025233
-0.030474
-0.235685
-0.240158
-0.235788
-0.242292
-0.052648
-0.179857
-0.004773
0.001046
-0.050034
-0.219737
-0.224505
-0.264274
-0.235749
-0.230927
-0.234100
-0.241332
-0.247737
-0.230509
-0.043720
-0.016661
-0.096234
-0.092298
-0.093133
-0.245412
-0.094947
-0.180609
-0.177568
-0.182922
-0.042627
-0.036708
-0.047799
-0.245335
-0.250098
-0.242536
-0.252296
-0.265672
-0.256507
-0.084217
-0.080924
-0.078182
-0.087079
-0.044086
-0.252318
-0.240989
-0.235878
-0.245598
-0.041408
-0.233476
-0.235257
-0.230687
-0.239165
-0.245401
-0.231782
-0.230894
-0.212348
-0.006588
-0.023774
-0.025419
-0.020998
-0.130522
-0.135322
-0.130802
-0.133606
-0.011078
-0.037887
-0.040451
-0.261608
-0.238288
-0.116705
-0.115904
-0.111603
-0.257442
-0.254479
-0.265708
-0.024798
-0.214447
-0.214301
-0.030635
-0.032945
-0.019406
-0.115533
-0.118315
-0.108999
-0.110153
-0.114967
-0.207052
-0.206296
-0.205709
-0.112614
-0.200456
-0.049211
-0.200203
-0.199843
-0.227965
-0.240535
-0.060011
-0.246998
-0.082889
-0.078051
-0.084673
-0.046702
-0.079223
-0.052595
-0.241711
-0.088421
-0.081164
-0.236749
-0.085683
-0.149810
-0.149437
-0.153212
-0.220506
-0.011060
-0.237082
-0.160750
-0.154409
-0.157802
-0.146773
-0.128014
-0.126251
-0.130902
-0.102633
-0.097468
-0.215428
-0.221228
-0.263150
-0.261363
-0.257752
-0.129275
-0.253070
-0.251374
-0.228196
-0.233675
-0.105769
-0.101771
-0.250467
-0.256099
-0.238535
-0.242913
-0.254221
-0.258686
-0.251593
-0.024449
-0.025534
-0.018874
-0.028373
-0.208295
-0.008402
-0.007839
-0.013583
-0.210697
-0.209597
-0.203835
-0.202150
-0.012837
-0.113644
-0.108407
-0.112756
-0.201155
-0.185367
-0.189009
-0.049483
-0.266338
-0.263301
-0.261454
-0.197162
-0.195593
-0.189857
-0.254672
-0.147702
-0.148035
-0.142233
-0.247371
-0.251387
-0.221210
-0.193266
-0.113857
-0.119863
-0.072108
-0.075678
-0.072443
-0.122971
-0.205135
-0.204665
-0.208860
-0.199409
-0.035380
-0.030757
-0.015276
-0.008841
-0.128137
-0.131790
-0.132972
-0.035047
-0.041627
-0.036613
-0.136671
-0.108406
-0.097818
-0.101554
-0.098143
-0.236644
-0.242431
-0.245496
-0.214644
-0.218090
-0.093094
-0.087885
-0.093041
-0.217721
-0.215206
-0.218660
-0.246935
-0.234950
-0.224167
-0.228615
-0.237819
-0.242047
-0.247194
-0.155565
-0.148583
-0.153104
-0.208393
-0.206769
-0.205163
-0.241267
-0.242794
-0.243983
-0.264314
-0.266491
-0.267702
-0.261961
-0.200574
-0.199286
-0.212058
-0.218711
-0.239345
-0.237638
-0.235891
-0.198694
-0.267679
-0.244750
-0.249195
-0.242914
-0.194714
-0.014144
-0.192687
-0.220636
-0.210207
-0.215930
-0.044907
-0.044876
-0.048341
-0.235477
-0.242765
-0.223002
-0.227244
-0.230946
-0.255951
-0.237415
-0.238507
-0.240052
-0.235998
-0.232958
-0.239660
-0.009404
-0.014159
-0.015891
-0.019788
-0.205677
-0.202496
-0.201337
-0.195849
-0.196798
-0.252157
-0.249967
-0.156428
-0.150387
-0.151979
-0.151906
-0.105088
-0.099693
-0.102891
-0.052053
-0.194818
-0.190600
-0.189577
-0.217060
-0.207671
-0.213041
-0.238264
-0.112788
-0.117919
-0.114057
-0.101919
-0.219845
-0.224061
-0.227689
-0.231432
-0.236628
-0.247134
-0.203350
-0.201203
-0.089192
-0.084974
-0.089410
-0.086889
-0.199251
-0.242739
-0.239430
-0.049833
-0.044171
-0.048914
-0.106041
-0.028919
-0.032619
-0.025364
-0.021935
-0.223566
-0.227390
-0.194547
-0.193139
-0.026482
-0.017717
-0.025738
-0.227900
-0.233436
-0.227583
-0.260926
-0.259176
-0.087571
-0.089694
-0.087525
-0.205733
-0.209330
-0.205168
-0.208835
-0.204771
-0.209892
-0.215232
-0.093226
-0.219051
-0.221232
-0.233647
-0.232158
-0.084498
-0.126077
-0.074533
-0.077115
-0.068944
-0.227112
-0.083238
-0.080099
-0.229784
-0.235315
-0.201120
-0.199156
-0.071224
-0.066376
-0.075259
-0.221737
-0.221947
-0.216510
-0.085504
-0.029712
-0.026322
-0.227233
-0.061746
-0.056838
-0.196194
-0.066257
-0.202146
-0.191591
-0.190493
-0.168909
-0.161924
-0.169944
-0.109959
-0.107473
-0.116704
-0.114026
-0.117623
-0.110072
-0.138710
-0.138040
-0.142309
-0.140610
-0.226595
-0.212272
-0.215064
-0.220437
-0.039841
-0.041432
-0.049925
-0.234241
-0.071903
-0.075588
-0.202602
-0.207784
-0.145392
-0.144014
-0.149605
-0.147458
-0.213692
-0.090338
-0.088951
-0.217687
-0.223987
-0.115676
-0.052529
-0.046254
-0.045877
-0.066094
-0.064728
-0.255629
-0.223451
-0.224996
-0.197057
-0.195017
-0.081032
-0.231150
-0.227753
-0.054291
-0.058824
-0.053417
-0.192958
-0.083780
-0.080055
-0.187824
-0.185529
-0.245508
-0.239280
-0.236633
-0.208699
-0.213439
-0.213034
-0.256859
-0.248392
-0.155231
-0.148550
-0.150532
-0.200057
-0.204631
-0.231664
-0.228728
-0.050237
-0.209600
-0.172117
-0.169582
-0.176005
-0.171754
-0.058780
-0.138901
-0.139892
-0.144482
-0.223017
-0.219623
-0.224734
-0.218509
-0.063853
-0.068994
-0.064187
-0.069365
-0.213335
-0.221360
-0.198927
-0.202791
-0.083132
-0.085927
-0.142674
-0.143329
-0.247397
-0.019704
-0.022802
-0.024355
-0.031454
-0.136605
-0.139168
-0.142808
-0.095655
-0.099325
-0.094867
-0.010959
-0.010152
-0.015388
-0.206601
-0.211876
-0.209293
-0.194130
-0.192260
-0.072631
-0.069069
-0.070770
-0.101204
-0.012481
-0.016022
-0.189159
-0.185413
-0.182995
-0.196471
-0.195159
-0.194637
-0.190792
-0.196830
-0.201465
-0.077209
-0.082187
-0.077712
-0.106697
-0.100828
-0.098902
-0.208250
-0.213201
-0.217856
-0.192006
-0.190330
-0.098332
-0.138233
-0.142921
-0.138944
-0.186688
-0.144328
-0.078722
-0.082754
-0.082653
-0.182467
-0.180091
-0.194519
-0.199938
-0.201848
-0.198381
-0.205396
-0.209078
-0.215594
-0.019267
-0.026127
-0.032290
-0.027631
-0.247423
-0.250642
-0.244198
-0.188719
-0.186603
-0.187452
-0.184399
-0.187270
-0.017323
-0.022950
-0.023864
-0.021213
-0.028633
-0.031664
-0.034551
-0.086746
-0.183628
-0.178774
-0.175289
-0.074535
-0.071981
-0.102224
-0.098148
-0.102380
-0.097838
-0.191465
-0.198188
-0.203925
-0.191566
-0.206984
-0.211941
-0.185267
-0.183605
-0.072410
-0.073936
-0.067304
-0.028652
-0.028394
-0.034123
-0.080598
-0.080551
-0.146583
-0.143771
-0.173840
-0.176069
-0.215190
-0.216240
-0.220481
-0.179667
-0.174293
-0.172032
-0.144689
-0.222575
-0.224506
-0.227721
-0.023978
-0.020106
-0.188568
-0.194109
-0.077875
-0.095886
-0.093894
-0.099433
-0.200319
-0.203916
-0.097864
-0.103933
-0.225328
-0.226202
-0.060217
-0.061480
-0.109854
-0.181841
-0.179740
-0.204262
-0.191522
-0.187423
-0.189139
-0.176530
-0.172751
-0.240293
-0.245317
-0.187596
-0.192605
-0.063736
-0.234962
-0.239741
-0.227979
-0.243042
-0.238920
-0.182066
-0.177228
-0.036412
-0.134686
-0.147618
-0.224435
-0.138400
-0.136442
-0.140518
-0.173681
-0.169409
-0.134777
-0.129612
-0.226356
-0.221784
-0.220522
-0.185718
-0.190938
-0.134622
-0.057046
-0.062066
-0.156730
-0.157776
-0.153826
-0.065746
-0.252060
-0.123803
-0.151014
-0.156156
-0.151651
-0.124348
-0.213522
-0.217970
-0.156325
-0.148919
-0.161267
-0.153690
-0.204152
-0.205449
-0.198790
-0.151727
-0.156346
-0.179158
-0.175293
-0.216484
-0.170373
-0.165697
-0.184026
-0.189708
-0.198909
-0.202307
-0.240685
-0.050055
-0.037692
-0.050536
-0.058265
-0.035034
-0.029101
-0.029499
-0.228392
-0.146350
-0.147736
-0.143328
-0.150588
-0.144800
-0.222126
-0.221690
-0.216397
-0.125884
-0.124154
-0.129063
-0.008922
-0.006711
-0.013112
-0.180764
-0.120359
-0.166914
-0.164027
-0.169820
-0.166649
-0.157127
-0.160718
-0.160128
-0.158876
-0.089163
-0.259724
-0.264654
-0.260040
-0.068236
-0.069942
-0.072629
-0.165639
-0.089263
-0.093318
-0.088504
-0.094201
-0.097964
-0.172827
-0.043611
-0.038893
-0.037453
-0.123885
-0.245739
-0.241906
-0.242530
-0.243738
-0.045434
-0.140931
-0.137834
-0.137368
-0.141789
-0.080610
-0.084342
-0.080280
-0.021748
-0.085846
-0.224504
-0.228372
-0.228648
-0.231887
-0.257983
-0.252984
-0.235077
-0.232117
-0.228059
-0.253751
-0.109880
-0.206163
-0.209031
-0.205056
-0.208622
-0.199618
-0.197734
-0.197130
-0.201574
-0.202243
-0.207045
-0.203335
-0.208972
-0.172632
-0.168514
-0.172111
-0.089937
-0.088548
-0.033937
-0.028452
-0.029383
-0.031427
-0.026418
-0.031855
-0.176170
-0.181201
-0.177378
-0.181932
-0.165663
-0.257120
-0.255856
-0.260774
-0.067878
-0.071734
-0.260408
-0.147918
-0.090177
-0.092616
-0.087174
-0.092180
-0.086820
-0.156629
-0.162435
-0.067959
-0.228677
-0.224389
-0.225719
-0.222226
-0.243871
-0.021526
-0.023215
-0.130093
-0.039679
-0.041606
-0.044844
-0.055529
-0.049031
-0.052621
-0.035778
-0.116502
-0.113196
-0.114224
-0.111991
-0.065274
-0.122123
-0.127664
-0.127116
-0.220126
-0.216376
-0.145878
-0.149397
-0.151260
-0.153999
-0.218861
-0.221568
-0.217572
-0.222755
-0.224593
-0.096705
-0.100938
-0.177869
-0.176232
-0.173065
-0.180269
-0.185180
-0.188676
-0.189892
-0.178098
-0.180170
-0.176141
-0.182418
-0.161405
-0.157312
-0.047739
-0.054636
-0.044154
-0.107738
-0.111403
-0.114883
-0.131956
-0.106947
-0.033195
-0.037790
-0.210271
-0.214802
-0.212618
-0.215457
-0.156533
-0.091963
-0.089521
-0.109998
-0.114918
-0.116902
-0.241138
-0.243731
-0.236914
-0.240013
-0.234510
-0.071793
-0.188709
-0.183000
-0.021254
-0.019368
-0.016561
-0.022666
-0.026364
-0.131086
-0.134461
-0.150353
-0.155661
-0.151964
-0.140546
-0.135599
-0.140216
-0.146349
-0.134632
-0.115918
-0.116701
-0.110211
-0.216827
-0.112501
-0.218625
-0.122095
-0.120063
-0.126095
-0.081172
-0.076861
-0.077605
-0.159587
-0.159137
-0.154973
-0.163894
-0.161067
-0.164484
-0.095452
-0.091869
-0.090086
-0.136088
-0.136083
-0.131460
-0.134297
-0.148814
-0.247119
-0.244940
-0.066188
-0.070623
-0.072188
-0.066750
-0.212426
-0.212635
-0.199108
-0.201802
-0.100809
-0.219293
-0.217125
-0.222336
-0.225361
-0.227803
-0.230543
-0.210672
-0.216945
-0.209581
-0.193602
-0.198445
-0.208979
-0.174575
-0.180414
-0.179274
-0.184014
-0.185644
-0.189753
-0.186436
-0.192315
-0.038564
-0.042030
-0.221297
-0.024661
-0.038428
-0.040342
-0.044270
-0.047726
-0.050623
-0.224317
-0.220519
-0.226735
-0.246630
-0.244197
-0.249276
-0.112882
-0.110890
-0.115582
-0.185383
-0.189030
-0.137944
-0.134095
-0.180869
-0.181155
-0.178839
-0.054711
-0.059739
-0.055089
-0.061141
-0.169018
-0.174623
-0.170705
-0.173107
-0.125030
-0.120188
-0.117172
-0.129980
-0.128477
-0.132908
-0.241190
-0.051604
-0.049370
-0.053919
-0.049254
-0.056990
-0.050914
-0.099546
-0.096664
-0.096200
-0.101169
-0.096863
-0.179712
-0.180253
-0.175131
-0.176324
-0.183354
-0.177462
-0.064919
-0.062922
-0.184511
-0.186230
-0.187017
-0.008861
-0.014324
-0.190141
-0.101397
-0.103769
-0.104246
-0.179871
-0.039997
-0.058563
-0.054284
-0.058928
-0.064812
-0.060403
-0.058176
-0.029034
-0.031748
-0.029424
-0.025099
-0.213454
-0.211932
-0.124822
-0.123986
-0.120719
-0.130145
-0.116969
-0.119466
-0.114630
-0.235869
-0.236940
-0.237756
-0.086983
-0.087493
-0.090076
-0.148473
-0.151723
-0.253295
-0.252250
-0.145277
-0.191821
-0.188514
-0.192503
-0.190442
-0.186643
-0.185106
-0.182966
-0.252835
-0.250826
-0.254942
-0.248578
-0.251740
-0.248464
-0.257055
-0.255989
-0.260210
-0.255276
-0.162399
-0.161575
-0.110292
-0.164668
-0.158425
-0.235064
-0.239424
-0.193402
-0.188845
-0.199490
-0.195098