# vtk DataFile Version 2.0
Test
ASCII
DATASET POLYDATA
POINTS 25620 float
0.000000 0.000000 0.000000
2.000000 0.000000 0.000000
2.000000 4.000000 0.000000
0.000000 4.000000 0.000000
0.000000 0.500000 0.000000
1.500000 2.000000 0.000000
2.000000 2.500000 0.000000
0.020000 0.000000 0.000000
0.040000 0.000000 0.000000
0.060000 0.000000 0.000000
0.080000 0.000000 0.000000
0.100000 0.000000 0.000000
0.120000 0.000000 0.000000
0.140000 0.000000 0.000000
0.160000 0.000000 0.000000
0.180000 0.000000 0.000000
0.200000 0.000000 0.000000
0.220000 0.000000 0.000000
0.240000 0.000000 0.000000
0.260000 0.000000 0.000000
0.280000 0.000000 0.000000
0.300000 0.000000 0.000000
0.320000 0.000000 0.000000
0.340000 0.000000 0.000000
0.360000 0.000000 0.000000
0.380000 0.000000 0.000000
0.400000 0.000000 0.000000
0.420000 0.000000 0.000000
0.440000 0.000000 0.000000
0.460000 0.000000 0.000000
0.480000 0.000000 0.000000
0.500000 0.000000 0.000000
0.520000 0.000000 0.000000
0.540000 0.000000 0.000000
0.560000 0.000000 0.000000
0.580000 0.000000 0.000000
0.600000 0.000000 0.000000
0.620000 0.000000 0.000000
0.640000 0.000000 0.000000
0.660000 0.000000 0.000000
0.680000 0.000000 0.000000
0.700000 0.000000 0.000000
0.720000 0.000000 0.000000
0.740000 0.000000 0.000000
0.760000 0.000000 0.000000
0.780000 0.000000 0.000000
0.800000 0.000000 0.000000
0.820000 0.000000 0.000000
0.840000 0.000000 0.000000
0.860000 0.000000 0.000000
0.880000 0.000000 0.000000
0.900000 0.000000 0.000000
0.920000 0.000000 0.000000
0.940000 0.000000 0.000000
0.960000 0.000000 0.000000
0.980000 0.000000 0.000000
1.000000 0.000000 0.000000
1.020000 0.000000 0.000000
1.040000 0.000000 0.000000
1.060000 0.000000 0.000000
1.080000 0.000000 0.000000
1.100000 0.000000 0.000000
1.120000 0.000000 0.000000
1.140000 0.000000 0.000000
1.160000 0.000000 0.000000
1.180000 0.000000 0.000000
1.200000 0.000000 0.000000
1.220000 0.000000 0.000000
1.240000 0.000000 0.000000
1.260000 0.000000 0.000000
1.280000 0.000000 0.000000
1.300000 0.000000 0.000000
1.320000 0.000000 0.000000
1.340000 0.000000 0.000000
1.360000 0.000000 0.000000
1.380000 0.000000 0.000000
1.400000 0.000000 0.000000
1.420000 0.000000 0.000000
1.440000 0.000000 0.000000
1.460000 0.000000 0.000000
1.480000 0.000000 0.000000
1.500000 0.000000 0.000000
1.520000 0.000000 0.000000
1.540000 0.000000 0.000000
1.560000 0.000000 0.000000
1.580000 0.000000 0.000000
1.600000 0.000000 0.000000
1.620000 0.000000 0.000000
1.640000 0.000000 0.000000
1.660000 0.000000 0.000000
1.680000 0.000000 0.000000
1.700000 0.000000 0.000000
1.720000 0.000000 0.000000
1.740000 0.000000 0.000000
1.760000 0.000000 0.000000
1.780000 0.000000 0.000000
1.800000 0.000000 0.000000
1.820000 0.000000 0.000000
1.840000 0.000000 0.000000
1.860000 0.000000 0.000000
1.880000 0.000000 0.000000
1.900000 0.000000 0.000000
1.920000 0.000000 0.000000
1.940000 0.000000 0.000000
1.960000 0.000000 0.000000
1.980000 0.000000 0.000000
2.000000 0.020000 0.000000
2.000000 0.040000 0.000000
2.000000 0.060000 0.000000
2.000000 0.080000 0.000000
2.000000 0.100000 0.000000
2.000000 0.120000 0.000000
2.000000 0.140000 0.000000
2.000000 0.160000 0.000000
2.000000 0.180000 0.000000
2.000000 0.200000 0.000000
2.000000 0.220000 0.000000
2.000000 0.240000 0.000000
2.000000 0.260000 0.000000
2.000000 0.280000 0.000000
2.000000 0.300000 0.000000
2.000000 0.320000 0.000000
2.000000 0.340000 0.000000
2.000000 0.360000 0.000000
2.000000 0.380000 0.000000
2.000000 0.400000 0.000000
2.000000 0.420000 0.000000
2.000000 0.440000 0.000000
2.000000 0.460000 0.000000
2.000000 0.480000 0.000000
2.000000 0.500000 0.000000
2.000000 0.520000 0.000000
2.000000 0.540000 0.000000
2.000000 0.560000 0.000000
2.000000 0.580000 0.000000
2.000000 0.600000 0.000000
2.000000 0.620000 0.000000
2.000000 0.640000 0.000000
2.000000 0.660000 0.000000
2.000000 0.680000 0.000000
2.000000 0.700000 0.000000
2.000000 0.720000 0.000000
2.000000 0.740000 0.000000
2.000000 0.760000 0.000000
2.000000 0.780000 0.000000
2.000000 0.800000 0.000000
2.000000 0.820000 0.000000
2.000000 0.840000 0.000000
2.000000 0.860000 0.000000
2.000000 0.880000 0.000000
2.000000 0.900000 0.000000
2.000000 0.920000 0.000000
2.000000 0.940000 0.000000
2.000000 0.960000 0.000000
2.000000 0.980000 0.000000
2.000000 1.000000 0.000000
2.000000 1.020000 0.000000
2.000000 1.040000 0.000000
2.000000 1.060000 0.000000
2.000000 1.080000 0.000000
2.000000 1.100000 0.000000
2.000000 1.120000 0.000000
2.000000 1.140000 0.000000
2.000000 1.160000 0.000000
2.000000 1.180000 0.000000
2.000000 1.200000 0.000000
2.000000 1.220000 0.000000
2.000000 1.240000 0.000000
2.000000 1.260000 0.000000
2.000000 1.280000 0.000000
2.000000 1.300000 0.000000
2.000000 1.320000 0.000000
2.000000 1.340000 0.000000
2.000000 1.360000 0.000000
2.000000 1.380000 0.000000
2.000000 1.400000 0.000000
2.000000 1.420000 0.000000
2.000000 1.440000 0.000000
2.000000 1.460000 0.000000
2.000000 1.480000 0.000000
2.000000 1.500000 0.000000
2.000000 1.520000 0.000000
2.000000 1.540000 0.000000
2.000000 1.560000 0.000000
2.000000 1.580000 0.000000
2.000000 1.600000 0.000000
2.000000 1.620000 0.000000
2.000000 1.640000 0.000000
2.000000 1.660000 0.000000
2.000000 1.680000 0.000000
2.000000 1.700000 0.000000
2.000000 1.720000 0.000000
2.000000 1.740000 0.000000
2.000000 1.760000 0.000000
2.000000 1.780000 0.000000
2.000000 1.800000 0.000000
2.000000 1.820000 0.000000
2.000000 1.840000 0.000000
2.000000 1.860000 0.000000
2.000000 1.880000 0.000000
2.000000 1.900000 0.000000
2.000000 1.920000 0.000000
2.000000 1.940000 0.000000
2.000000 1.960000 0.000000
2.000000 1.980000 0.000000
2.000000 2.000000 0.000000
2.000000 2.020000 0.000000
2.000000 2.040000 0.000000
2.000000 2.060000 0.000000
2.000000 2.080000 0.000000
2.000000 2.100000 0.000000
2.000000 2.120000 0.000000
2.000000 2.140000 0.000000
2.000000 2.160000 0.000000
2.000000 2.180000 0.000000
2.000000 2.200000 0.000000
2.000000 2.220000 0.000000
2.000000 2.240000 0.000000
2.000000 2.260000 0.000000
2.000000 2.280000 0.000000
2.000000 2.300000 0.000000
2.000000 2.320000 0.000000
2.000000 2.340000 0.000000
2.000000 2.360000 0.000000
2.000000 2.380000 0.000000
2.000000 2.400000 0.000000
2.000000 2.420000 0.000000
2.000000 2.440000 0.000000
2.000000 2.460000 0.000000
2.000000 2.480000 0.000000
2.000000 2.520000 0.000000
2.000000 2.540000 0.000000
2.000000 2.560000 0.000000
2.000000 2.580000 0.000000
2.000000 2.600000 0.000000
2.000000 2.620000 0.000000
2.000000 2.640000 0.000000
2.000000 2.660000 0.000000
2.000000 2.680000 0.000000
2.000000 2.700000 0.000000
2.000000 2.720000 0.000000
2.000000 2.740000 0.000000
2.000000 2.760000 0.000000
2.000000 2.780000 0.000000
2.000000 2.800000 0.000000
2.000000 2.820000 0.000000
2.000000 2.840000 0.000000
2.000000 2.860000 0.000000
2.000000 2.880000 0.000000
2.000000 2.900000 0.000000
2.000000 2.920000 0.000000
2.000000 2.940000 0.000000
2.000000 2.960000 0.000000
2.000000 2.980000 0.000000
2.000000 3.000000 0.000000
2.000000 3.020000 0.000000
2.000000 3.040000 0.000000
2.000000 3.060000 0.000000
2.000000 3.080000 0.000000
2.000000 3.100000 0.000000
2.000000 3.120000 0.000000
2.000000 3.140000 0.000000
2.000000 3.160000 0.000000
2.000000 3.180000 0.000000
2.000000 3.200000 0.000000
2.000000 3.220000 0.000000
2.000000 3.240000 0.000000
2.000000 3.260000 0.000000
2.000000 3.280000 0.000000
2.000000 3.300000 0.000000
2.000000 3.320000 0.000000
2.000000 3.340000 0.000000
2.000000 3.360000 0.000000
2.000000 3.380000 0.000000
2.000000 3.400000 0.000000
2.000000 3.420000 0.000000
2.000000 3.440000 0.000000
2.000000 3.460000 0.000000
2.000000 3.480000 0.000000
2.000000 3.500000 0.000000
2.000000 3.520000 0.000000
2.000000 3.540000 0.000000
2.000000 3.560000 0.000000
2.000000 3.580000 0.000000
2.000000 3.600000 0.000000
2.000000 3.620000 0.000000
2.000000 3.640000 0.000000
2.000000 3.660000 0.000000
2.000000 3.680000 0.000000
2.000000 3.700000 0.000000
2.000000 3.720000 0.000000
2.000000 3.740000 0.000000
2.000000 3.760000 0.000000
2.000000 3.780000 0.000000
2.000000 3.800000 0.000000
2.000000 3.820000 0.000000
2.000000 3.840000 0.000000
2.000000 3.860000 0.000000
2.000000 3.880000 0.000000
2.000000 3.900000 0.000000
2.000000 3.920000 0.000000
2.000000 3.940000 0.000000
2.000000 3.960000 0.000000
2.000000 3.980000 0.000000
1.980000 4.000000 0.000000
1.960000 4.000000 0.000000
1.940000 4.000000 0.000000
1.920000 4.000000 0.000000
1.900000 4.000000 0.000000
1.880000 4.000000 0.000000
1.860000 4.000000 0.000000
1.840000 4.000000 0.000000
1.820000 4.000000 0.000000
1.800000 4.000000 0.000000
1.780000 4.000000 0.000000
1.760000 4.000000 0.000000
1.740000 4.000000 0.000000
1.720000 4.000000 0.000000
1.700000 4.000000 0.000000
1.680000 4.000000 0.000000
1.660000 4.000000 0.000000
1.640000 4.000000 0.000000
1.620000 4.000000 0.000000
1.600000 4.000000 0.000000
1.580000 4.000000 0.000000
1.560000 4.000000 0.000000
1.540000 4.000000 0.000000
1.520000 4.000000 0.000000
1.500000 4.000000 0.000000
1.480000 4.000000 0.000000
1.460000 4.000000 0.000000
1.440000 4.000000 0.000000
1.420000 4.000000 0.000000
1.400000 4.000000 0.000000
1.380000 4.000000 0.000000
1.360000 4.000000 0.000000
1.340000 4.000000 0.000000
1.320000 4.000000 0.000000
1.300000 4.000000 0.000000
1.280000 4.000000 0.000000
1.260000 4.000000 0.000000
1.240000 4.000000 0.000000
1.220000 4.000000 0.000000
1.200000 4.000000 0.000000
1.180000 4.000000 0.000000
1.160000 4.000000 0.000000
1.140000 4.000000 0.000000
1.120000 4.000000 0.000000
1.100000 4.000000 0.000000
1.080000 4.000000 0.000000
1.060000 4.000000 0.000000
1.040000 4.000000 0.000000
1.020000 4.000000 0.000000
1.000000 4.000000 0.000000
0.980000 4.000000 0.000000
0.960000 4.000000 0.000000
0.940000 4.000000 0.000000
0.920000 4.000000 0.000000
0.900000 4.000000 0.000000
0.880000 4.000000 0.000000
0.860000 4.000000 0.000000
0.840000 4.000000 0.000000
0.820000 4.000000 0.000000
0.800000 4.000000 0.000000
0.780000 4.000000 0.000000
0.760000 4.000000 0.000000
0.740000 4.000000 0.000000
[...]
POINT_DATA 25620
SCALARS UX float 1
LOOKUP_TABLE default
-0.000059
0.000043
0.075831
-0.358769
-0.154408
0.119015
0.253839
-0.000041
-0.000011
-0.000007
0.000012
-0.000015
0.000006
-0.000009
0.000005
-0.000001
0.000001
0.000002
-0.000001
0.000000
-0.000000
-0.000000
0.000000
-0.000000
-0.000000
0.000000
-0.000003
-0.000005
0.000002
-0.000000
-0.000001
-0.000000
-0.000000
-0.000000
-0.000001
-0.000001
0.000001
-0.000001
-0.000000
-0.000002
0.000000
0.000000
-0.000000
-0.000000
-0.000000
-0.000000
0.000000
-0.000000
-0.000000
-0.000000
0.000000
0.000000
-0.000000
0.000001
0.000001
-0.000001
0.000000
0.000000
0.000000
-0.000000
0.000000
0.000001
-0.000000
0.000000
0.000000
0.000000
0.000000
0.000001
0.000000
-0.000000
-0.000000
0.000001
-0.000000
0.000000
0.000001
-0.000000
0.000002
-0.000000
0.000001
-0.000000
0.000000
0.000001
-0.000000
0.000000
0.000000
0.000000
0.000001
-0.000000
0.000000
0.000001
0.000000
0.000000
0.000001
-0.000000
-0.000000
0.000000
0.000000
0.000001
-0.000000
-0.000004
0.000001
-0.000002
0.000004
0.000004
-0.000019
0.000021
0.016282
0.023127
0.029494
0.034872
0.039514
0.043855
0.047829
0.051565
0.055049
0.058260
0.061317
0.064098
0.066819
0.069333
0.071749
0.073956
0.076129
0.078261
0.080113
0.081887
0.083705
0.085293
0.086863
0.088332
0.089744
0.091140
0.092414
0.093652
0.094764
0.095829
0.097100
0.098051
0.099144
0.100125
0.101075
0.102121
0.103036
0.104050
0.104987
0.106039
0.107115
0.108141
0.109287
0.110482
0.111768
0.112876
0.114627
0.116175
0.118015
0.120104
0.122122
0.124128
0.126008
0.127727
0.129575
0.131513
0.133611
0.135644
0.137653
0.139946
0.142452
0.144955
0.147483
0.150408
0.153168
0.156274
0.159420
0.162680
0.166039
0.169575
0.173380
0.176918
0.180606
0.184395
0.188341
0.192071
0.195813
0.199521
0.203152
0.206546
0.210178
0.213488
0.216837
0.220005
0.223058
0.225966
0.228661
0.231400
0.234010
0.236366
0.238597
0.240813
0.242804
0.244662
0.246369
0.247993
0.249424
0.250682
0.251737
0.252924
0.253875
0.254770
0.255505
0.256081
0.256563
0.256958
0.257357
0.257589
0.257733
0.257889
0.257959
0.257852
0.257823
0.257692
0.257511
0.257219
0.256839
0.255638
0.254437
0.255041
0.255553
0.255586
0.255268
0.254412
0.253448
0.247890
0.234097
0.218580
0.204131
0.190824
0.176622
0.165310
0.154660
0.146238
0.138576
0.132775
0.127724
0.123049
0.118524
0.115297
0.111548
0.108918
0.106331
0.104169
0.102311
0.100441
0.098928
0.097569
0.095753
0.094224
0.092607
0.091066
0.089568
0.088084
0.086275
0.084926
0.083826
0.082432
0.081266
0.080339
0.079348
0.078818
0.077954
0.078120
0.078176
0.078124
0.078521
0.078966
0.079976
0.080872
0.082235
0.083621
0.085137
0.086243
0.087979
0.089334
0.090342
0.091538
0.092112
0.092330
0.092070
0.091234
0.089963
0.089255
0.087472
0.085637
0.084140
0.082535
0.081071
0.079774
0.078521
0.077449
0.077008
0.076487
0.076258
0.075837
0.075697
0.075577
0.069949
0.064397
0.058862
0.053271
0.047650
0.042114
0.036466
0.030950
0.025545
0.020347
0.014979
0.009560
0.004389
-0.000842
-0.005951
-0.011094
-0.016521
-0.021594
-0.026545
-0.031696
-0.036960
-0.042065
-0.047107
-0.052356
-0.057423
-0.062470
-0.067617
-0.072779
-0.077824
-0.082874
-0.087985
-0.092999
-0.097835
-0.102815
-0.107673
-0.112423
-0.117318
-0.121957
-0.126720
-0.131423
-0.135913
-0.140418
-0.144867
-0.149323
-0.153692
-0.158101
-0.162482
-0.166844
-0.171094
-0.175234
-0.179416
-0.183663
-0.187643
-0.191697
-0.195934
-0.200028
-0.203999
-0.207985
-0.211923
-0.215827
-0.219737
-0.223694
-0.227575
-0.231457
-0.235342
-0.239153
-0.242919
-0.246728
-0.250558
-0.254274
-0.257992
-0.261731
-0.265456
-0.269168
-0.272800
-0.276394
-0.280136
-0.283835
-0.287375
-0.290938
-0.294550
-0.298108
-0.301625
-0.305141
-0.308667
-0.312188
-0.315641
-0.318951
-0.322440
-0.325899
-0.329353
-0.332616
-0.336025
-0.339455
-0.342727
-0.346030
-0.349273
-0.352425
-0.355662
-0.358817
-0.358830
-0.358691
-0.358605
-0.358198
-0.357861
-0.357394
-0.357002
-0.356552
-0.355940
-0.355375
-0.354557
-0.353833
-0.352978
-0.352129
-0.351064
-0.350255
-0.349144
-0.348044
-0.346933
-0.345773
-0.344377
-0.343052
-0.341715
-0.340215
-0.338874
-0.337370
-0.335724
-0.334259
-0.332710
-0.330866
-0.329189
-0.327554
-0.325832
-0.324029
-0.322176
-0.320292
-0.318398
-0.316476
-0.314563
-0.312583
-0.310580
-0.308645
-0.306863
-0.304785
-0.302891
-0.300785
-0.298731
-0.297031
-0.294789
-0.293047
-0.291123
-0.289292
-0.287216
-0.285231
-0.283460
-0.281917
-0.280169
-0.278333
-0.276588
-0.275099
-0.273492
-0.272011
-0.270625
-0.269015
-0.267698
-0.266465
-0.265360
-0.264093
-0.262864
-0.262028
-0.261008
-0.260238
-0.259373
-0.258521
-0.257717
-0.257041
-0.256560
-0.255833
-0.255354
-0.255303
-0.254799
-0.254129
-0.254203
-0.253970
-0.253509
-0.253809
-0.253585
-0.253323
-0.253649
-0.253530
-0.253879
-0.253969
-0.254163
-0.254428
-0.254692
-0.255162
-0.255530
-0.255948
-0.256316
-0.256894
-0.257699
-0.258210
-0.258895
-0.259755
-0.260363
-0.261374
-0.262297
-0.263022
-0.264057
-0.265040
-0.266142
-0.266936
-0.268166
-0.269251
-0.270350
-0.271456
-0.272503
-0.273662
-0.274857
-0.275787
-0.277001
-0.278008
-0.279067
-0.280097
-0.281045
-0.282021
-0.282770
-0.283598
-0.284341
-0.284956
-0.285389
-0.285838
-0.286098
-0.286174
-0.286198
-0.285867
-0.285497
-0.284923
-0.284019
-0.283003
-0.281704
-0.280144
-0.278399
-0.276373
-0.274108
-0.271514
-0.268834
-0.265825
-0.262665
-0.259235
-0.255595
-0.251758
-0.247712
-0.243442
-0.239061
-0.234462
-0.229772
-0.225034
-0.220350
-0.215798
-0.211460
-0.207699
-0.204637
-0.202316
-0.201024
-0.200913
-0.201877
-0.203913
-0.206646
-0.211240
-0.213247
-0.230262
-0.289236
-0.149491
-0.149482
-0.148784
-0.147782
-0.146088
-0.143840
-0.141152
-0.138014
-0.134488
-0.130629
-0.126511
-0.121996
-0.117232
-0.112187
-0.106753
-0.101249
-0.095268
-0.089309
-0.082706
-0.076000
-0.068853
-0.061118
-0.052129
-0.039973
-0.192440
-0.159198
-0.210485
-0.206770
-0.197303
-0.140709
-0.144714
-0.122083
-0.167267
-0.188505
-0.176269
-0.078760
-0.163232
-0.183576
-0.192685
-0.171864
-0.167589
-0.178939
-0.173276
-0.167559
-0.165802
-0.165857
-0.165137
-0.169422
-0.168575
-0.175192
-0.174292
-0.177575
-0.172389
-0.178937
-0.188308
-0.197253
-0.201297
-0.209276
-0.208544
-0.197973
-0.189588
-0.180206
-0.177804
-0.173592
-0.172425
-0.178984
-0.179046
-0.176776
-0.178320
-0.171376
-0.160465
-0.146457
-0.156326
-0.154477
-0.161357
-0.171911
-0.145629
-0.152532
-0.126819
-0.126706
-0.128860
-0.115999
-0.111840
-0.103421
-0.108988
-0.133244
-0.121926
-0.117570
-0.101543
-0.090699
-0.088273
-0.108149
-0.105002
-0.129234
-0.093738
-0.077110
-0.060398
-0.050274
-0.048706
-0.057038
-0.070829
-0.040416
-0.053769
-0.021705
0.015932
0.026921
0.030857
0.033519
0.010441
0.008916
-0.017992
-0.011271
-0.011758
0.009497
0.048885
0.048233
0.072018
0.014317
0.037178
0.034215
0.039432
0.047236
0.053201
0.086049
0.109403
0.139669
0.147321
0.169803
0.140290
0.137780
0.111617
0.106646
0.104701
0.102759
0.101610
0.107043
0.116649
0.123129
0.119704
0.128461
0.135190
0.140277
0.145751
0.150985
0.154921
0.160331
0.165580
0.169620
0.175066
0.180241
0.185676
0.189048
0.198043
0.205717
0.210303
0.215672
0.221457
0.228032
0.232718
0.238276
0.241548
0.242723
0.245530
0.249555
0.250876
-0.099504
-0.095395
-0.096971
-0.096688
-0.240032
-0.239999
-0.237951
-0.236367
0.001887
-0.001746
0.004315
-0.003483
0.179606
0.166880
0.177573
-0.080725
-0.080186
-0.084342
0.195326
0.192893
0.171423
0.187038
0.175104
0.040545
0.046272
0.044882
-0.295778
-0.299120
-0.300547
-0.295357
-0.075286
-0.070882
-0.073913
-0.070558
0.040667
-0.280251
-0.278390
-0.282460
-0.298742
-0.301230
-0.302738
-0.276840
-0.187157
-0.185737
-0.189953
-0.183115
-0.272094
-0.276298
-0.274084
-0.238915
-0.236975
-0.236118
-0.170954
-0.167860
-0.172228
-0.239758
-0.270958
-0.269618
-0.269137
-0.267038
-0.091572
-0.091044
0.105735
0.099649
-0.250709
-0.248656
-0.252150
-0.248211
-0.266907
-0.269134
0.037674
0.040427
0.037746
-0.167421
-0.169789
-0.309674
-0.312100
-0.312188
-0.314590
-0.148441
-0.149774
-0.144776
-0.153010
-0.031203
-0.026567
-0.030629
-0.027691
-0.253994
-0.251379
-0.253340
-0.249891
0.042999
-0.196132
-0.197495
-0.199805
0.049452
0.053958
0.050682
0.054957
-0.025001
-0.024257
-0.029376
-0.210689
-0.212653
-0.207500
-0.018537
-0.190278
-0.203884
-0.201864
-0.057879
-0.061730
-0.063785
-0.056713
0.014973
0.020027
0.013918
-0.046810
-0.052074
-0.053039
-0.049117
-0.232430
-0.235635
-0.233385
-0.236179
-0.308673
-0.305752
-0.308540
-0.304664
-0.135756
-0.137431
-0.139256
-0.133432
-0.142282
-0.146431
-0.146143
-0.144352
-0.041410
-0.036790
-0.037232
-0.306295
-0.306328
-0.309035
-0.041205
0.083608
0.080317
-0.201589
-0.007697
-0.005764
-0.003102
-0.012644
-0.008018
-0.009835
-0.204316
-0.203778
-0.201550
-0.201054
0.239273
0.225612
0.212528
0.002639
0.006628
0.000227
0.203311
0.224507
0.225618
0.209963
0.242573
0.244696
0.244012
0.242242
-0.263666
-0.260711
-0.265258
-0.262264
-0.339068
-0.335826
-0.335702
-0.337851
-0.101128
-0.096555
-0.099205
-0.219878
-0.222952
-0.218602
-0.221884
0.018070
0.014499
0.017641
-0.234354
-0.236063
-0.232114
0.012820
-0.237310
-0.231113
-0.227980
-0.225476
-0.191293
-0.194024
-0.194638
-0.197494
-0.129103
-0.133361
-0.132576
-0.136579
-0.186406
-0.188508
-0.183541
-0.190096
-0.156648
-0.155827
-0.159926
-0.158902
-0.034840
-0.037084
-0.039141
-0.333573
-0.333174
-0.042558
-0.330807
-0.002208
0.001870
0.000304
0.003439
0.158634
0.152234
0.149593
0.144243
-0.031804
-0.036271
-0.025700
-0.036468
-0.207003
-0.209886
-0.204992
-0.210774
-0.002359
-0.325716
-0.328859
-0.326578
-0.326264
-0.305412
-0.301984
-0.305882
-0.004954
-0.003080
-0.008595
-0.071973
-0.077388
-0.076059
-0.072311
-0.075586
-0.074868
-0.073344
-0.089892
-0.091875
-0.096467
-0.097803
-0.212258
-0.214846
-0.215723
-0.218669
-0.218844
-0.215149
-0.217502
0.118925
-0.217106
-0.259046
-0.255472
-0.255966
-0.258998
-0.255389
-0.258690
-0.256086
-0.233409
-0.234808
-0.230891
-0.234002
-0.229872
0.033230
0.029423
0.032929
0.028969
0.036165
0.037909
0.039608
-0.227273
-0.129961
-0.129709
-0.134352
-0.135518
-0.161522
-0.159178
-0.157573
-0.155046
-0.177253
-0.175190
-0.179807
-0.173686
-0.132411
-0.137959
-0.292408
-0.293807
-0.295585
-0.139670
-0.001731
0.003502
0.001432
-0.342384
-0.343389
-0.340284
-0.005047
0.045732
0.050667
0.048622
-0.067458
-0.065199
-0.069240
-0.183027
-0.185217
-0.181701
-0.187555
-0.240605
-0.243792
-0.240940
-0.245530
-0.099680
-0.104465
-0.104022
-0.101843
-0.081840
-0.079581
-0.077147
-0.075223
0.002040
0.001604
0.009590
0.007178
-0.163862
-0.163998
-0.147158
-0.150603
-0.149002
-0.149489
0.035982
0.030180
0.030289
0.025518
-0.168023
-0.170309
-0.172518
-0.174968
-0.249226
-0.246209
-0.245954
-0.249360
-0.061254
-0.065799
-0.062969
-0.068793
-0.110419
-0.114845
-0.109695
0.080046
0.076197
0.077499
0.003095
0.006552
0.006105
0.008987
-0.013440
-0.005704
-0.005453
0.001964
0.016962
0.012236
0.014894
0.011455
0.047272
0.047456
0.049797
0.044813
-0.065514
-0.058866
-0.061869
-0.339632
-0.342328
-0.341578
-0.142189
-0.138794
-0.143497
-0.136969
-0.062689
-0.229996
-0.228921
-0.232243
-0.071898
-0.068715
-0.071759
-0.069077
-0.082362
-0.083816
-0.078534
-0.029920
-0.029047
-0.034209
-0.081461
-0.226582
-0.226033
-0.231074
-0.069258
-0.223326
-0.221582
-0.219955
-0.217765
-0.275216
-0.275167
-0.273283
-0.277166
0.025400
0.027475
0.024243
-0.245197
-0.240509
-0.241510
0.078471
0.075575
0.073378
-0.214779
-0.218163
-0.215030
-0.217994
-0.020974
-0.021370
-0.024551
-0.244673
-0.247609
-0.244240
-0.248745
-0.241401
-0.143312
-0.144465
-0.140666
-0.135780
-0.133370
-0.132636
-0.237771
-0.242545
-0.239594
-0.242502
-0.188065
-0.183630
-0.183707
-0.290559
-0.293368
-0.292915
-0.237407
-0.235810
-0.232497
-0.231932
0.016808
0.021449
0.019496
-0.243898
-0.240788
-0.247805
-0.324233
-0.324764
-0.321889
-0.254591
-0.251852
-0.250811
-0.338277
-0.340322
0.051633
0.056142
0.051384
-0.025509
-0.026680
-0.287813
-0.289150
-0.103797
-0.107864
-0.103654
-0.180680
-0.176517
-0.180581
-0.109079
-0.098953
-0.103098
-0.098955
-0.251915
-0.255923
-0.139958
-0.202329
-0.096059
-0.099271
-0.356688
-0.236183
-0.236654
-0.238675
0.091195
0.098296
0.096956
0.095501
-0.239621
-0.256119
0.072899
0.077043
0.075582
-0.344488
-0.347030
-0.344619
-0.094620
-0.094873
0.058534
0.062108
0.056274
0.071620
0.075580
-0.112036
-0.109935
-0.113778
-0.204039
-0.266511
-0.266250
-0.268066
-0.094684
-0.095361
-0.098590
-0.108408
-0.284487
-0.279567
-0.281975
-0.199135
-0.200713
-0.204962
-0.264363
-0.089965
-0.090057
-0.092321
-0.092335
-0.090663
0.023654
0.028021
0.026344
-0.088659
-0.092499
-0.125037
-0.123239
-0.127512
0.025530
0.023510
0.020845
-0.295901
-0.294223
0.027521
-0.152611
-0.156747
-0.153663
-0.250655
-0.251722
-0.253611
-0.199664
-0.198989
-0.096901
-0.095206
-0.091602
-0.199955
-0.088749
-0.154666
-0.034502
-0.030517
-0.347695
0.055835
0.061491
-0.336153
-0.120621
-0.087826
-0.086747
-0.090160
-0.083472
-0.049276
-0.045775
-0.046049
-0.113221
-0.042216
-0.223970
-0.222496
-0.225668
-0.220861
-0.056820
-0.054187
-0.052996
-0.025546
-0.194093
-0.197535
-0.256186
-0.257445
-0.259078
-0.200698
-0.204359
-0.260826
-0.334577
-0.336107
-0.333474
-0.197793
-0.198667
-0.196995
-0.199442
-0.261507
-0.258960
-0.259791
-0.355743
-0.345489
-0.346871
-0.343677
-0.352722
-0.351942
-0.354702
-0.324556
-0.322614
-0.326157
-0.029749
-0.033496
-0.031097
-0.084146
-0.088869
-0.089504
-0.081352
-0.090067
-0.098505
-0.098947
0.071960
-0.290622
-0.033555
-0.256107
-0.256980
-0.254350
-0.254106
-0.250469
-0.250419
-0.246704
-0.237769
-0.242446
-0.239815
-0.243973
-0.046807
-0.050322
-0.046550
-0.049102
0.037838
0.039229
0.042536
0.042658
-0.195547
-0.194538
-0.196672
-0.189168
-0.198437
-0.354130
-0.351225
-0.186087
-0.183635
-0.186715
-0.217334
-0.344882
0.051783
0.047819
0.051310
-0.057505
-0.058968
-0.054773
0.059268
0.058207
0.056466
0.056156
-0.197742
-0.196328
-0.199813
-0.055642
-0.348541
-0.349143
-0.346932
0.086624
0.091215
0.090737
-0.101749
-0.099694
-0.098791
0.056021
0.060959
0.058449
-0.103570
-0.195566
-0.194491
-0.195326
-0.191588
-0.247091
-0.247289
-0.244399
-0.250844
-0.160503
-0.160335
-0.164486
0.223966
-0.156826
-0.134036
-0.130631
-0.132854
-0.128979
0.197768
-0.127316
-0.130218
-0.125630
-0.242114
-0.240291
-0.244264
-0.199125
0.113563
0.110122
0.118687
-0.355872
0.104988
-0.350814
-0.349930
-0.306565
-0.308549
-0.306188
0.090691
0.087459
0.093643
0.088740
-0.149579
-0.148012
-0.151495
-0.145429
-0.237917
0.072655
-0.155772
-0.159204
0.067000
0.061631
0.063048
-0.198804
-0.196917
-0.201286
-0.193145
-0.194596
-0.195985
-0.188734
-0.152814
-0.148400
-0.147223
0.081263
0.080805
-0.028766
-0.027478
-0.023721
-0.205505
-0.207708
-0.201240
0.145261
-0.209183
-0.236321
-0.236045
-0.233077
0.004413
0.009219
0.007257
-0.232788
-0.233612
-0.229954
-0.200775
0.071334
0.077579
0.072819
-0.284231
-0.282259
-0.282633
-0.280564
-0.342399
0.004907
-0.045270
-0.041373
-0.042403
0.047211
0.066455
-0.062184
-0.066181
-0.063985
-0.200790
-0.198007
-0.203835
-0.344968
-0.345399
-0.347422
0.052461
0.052154
0.056655
-0.193883
-0.195982
-0.197207
-0.194173
-0.203599
-0.066934
-0.225710
-0.226640
-0.223149
0.215476
-0.232656
-0.228941
-0.230150
-0.217797
-0.219473
-0.215457
-0.243305
-0.240051
-0.239390
-0.335356
-0.337537
-0.230724
-0.272219
-0.272362
-0.268861
-0.354781
-0.353002
-0.349607
-0.348179
-0.065245
-0.062441
-0.060282
-0.284222
-0.279489
-0.281044
0.071364
0.061310
0.067377
0.058297
-0.269566
0.143509
0.147388
0.129933
-0.203163
-0.200034
-0.207786
-0.194040
-0.197684
-0.198943
-0.192379
0.140577
-0.342289
-0.339618
0.067000
0.070294
0.071686
0.047175
0.042589
0.075067
-0.206742
-0.342330
-0.345253
0.047699
0.053112
-0.206709
-0.202503
-0.210482
-0.038819
-0.235321
-0.232963
-0.232008
-0.237494
-0.169784
-0.172119
-0.173688
0.083697
0.083126
0.086470
-0.164967
-0.168657
-0.168575
-0.172158
-0.188312
-0.185930
-0.189210
-0.185202
-0.196524
-0.199877
-0.201428
-0.196796
-0.238558
-0.237962
-0.241723
-0.351336
-0.353232
-0.276354
-0.274095
-0.347974
-0.346302
0.065080
0.069681
-0.131212
0.059107
0.055331
-0.209957
-0.210736
0.019330
0.023277
0.019923
-0.180427
-0.183591
-0.179721
-0.184447
-0.293193
-0.294734
-0.296619
-0.236957
-0.239209
-0.290900
0.180443
0.167303
0.163500
0.078698
0.074122
0.078564
0.074600
-0.168212
-0.205505
-0.331447
-0.332255
-0.039557
-0.041594
-0.037299
-0.198312
-0.038898
-0.078203
-0.082750
-0.082209
-0.203128
-0.204499
-0.192659
-0.339378
-0.079280
-0.038963
-0.043653
-0.043082
0.042452
-0.047165
-0.235329
-0.232618
-0.339832
-0.342634
-0.336775
0.043322
0.048977
0.038011
-0.235736
-0.213607
-0.220480
-0.217110
-0.218068
-0.176792
-0.181261
-0.177609
0.030157
0.034270
0.031703
-0.239366
-0.236843
-0.097599
-0.100022
-0.096424
-0.208926
-0.239282
-0.203015
-0.036543
-0.040546
-0.037264
-0.098442
-0.328837
-0.327481
-0.325757
-0.206740
-0.208108
-0.179843
-0.199939
-0.201163
-0.197066
0.053555
0.050976
0.050215
-0.349232
0.047197
-0.185881
-0.187059
-0.345931
-0.344865
-0.351725
0.062520
-0.204182
0.055826
0.053250
0.068265
-0.220578
-0.220326
-0.222786
0.045610
0.042654
0.047181
-0.069449
-0.072495
-0.072623
-0.022333
-0.016748
-0.021185
-0.018686
0.049689
0.052195
0.052594
-0.076871
-0.078010
-0.074100
-0.285472
-0.288368
-0.285250
-0.287996
-0.228012
-0.225016
-0.229640
-0.081371
-0.210463
-0.213054
-0.206411
-0.185753
-0.183513
-0.219560
-0.216050
-0.221888
-0.234494
-0.231072
-0.226395
-0.222834
-0.264600
-0.267823
-0.266156
-0.188569
-0.337248
-0.217673
-0.214719
-0.216259
-0.181146
-0.180866
0.037795
-0.217268
-0.213405
-0.337232
-0.178452
0.088155
0.084006
0.089490
0.039302
-0.223857
0.032818
-0.239049
-0.244837
-0.244809
-0.241236
0.085802
-0.097527
-0.101192
-0.099213
-0.102275
-0.242217
-0.242494
-0.228344
-0.228896
-0.316971
-0.314318
-0.313956
0.042647
-0.015284
-0.018207
-0.013431
-0.096604
-0.092085
-0.092504
-0.247419
-0.247286
-0.250118
-0.237731
-0.238402
-0.034225
-0.344986
-0.343660
-0.242209
-0.348066
-0.242361
-0.333458
-0.335403
-0.247756
-0.316506
-0.312450
-0.316238
-0.314332
-0.277038
-0.278688
-0.080750
-0.078085
-0.076344
-0.082140
0.062143
0.021145
0.025949
0.019329
0.027189
-0.213418
-0.209282
-0.209712
-0.340063
-0.341446
-0.338935
-0.291660
-0.290153
-0.288409
-0.245557
-0.245130
-0.229927
0.067387
0.063122
0.064240
0.061797
0.056654
0.061733
-0.236793
-0.233261
-0.210920
-0.206029
-0.220853
-0.228367
-0.224751
-0.261524
-0.206339
-0.203063
0.157729
-0.218849
-0.214459
0.031747
0.031918
0.037579
-0.256712
-0.253834
-0.241747
0.032679
-0.248294
-0.245574
-0.199333
-0.199626
-0.203145
-0.195972
-0.082977
-0.085545
-0.087390
0.012439
0.016955
0.016648
0.175875
0.164606
0.167819
0.171677
-0.242634
-0.241230
-0.238470
-0.333986
-0.296741
-0.295132
-0.293178
-0.237450
-0.161332
-0.157558
-0.160851
-0.157263
0.059206
0.063229
0.065781
-0.164780
-0.163408
-0.168136
-0.240147
-0.240908
-0.244966
-0.245254
-0.285323
-0.283413
-0.286501
-0.164440
-0.075405
-0.080135
-0.080521
-0.077566
-0.251267
-0.250615
-0.125543
-0.126265
-0.129748
0.125045
0.118810
0.119217
-0.327020
-0.323919
-0.032649
-0.033211
0.122048
-0.061612
-0.059681
-0.064508
-0.059752
0.020826
0.019372
0.023165
0.058639
0.062491
0.061407
0.065771
-0.214266
-0.213847
-0.211334
-0.209993
-0.207232
-0.046381
-0.044812
-0.042403
-0.248672
-0.248449
-0.319055
-0.322032
-0.321205
-0.319867
-0.206871
-0.269713
-0.270406
-0.267234
-0.271439
-0.272873
-0.232011
-0.239062
-0.235476
-0.330203
-0.274024
-0.230427
-0.226541
-0.222662
-0.210755
-0.134521
-0.134172
-0.131498
-0.130022
-0.220945
-0.222404
0.031950
0.035772
0.029295
-0.224249
-0.221557
-0.220171
-0.216225
-0.224796
-0.040467
-0.232866
-0.234472
-0.236125
-0.304815
-0.306186
-0.302983
-0.244334
-0.308684
-0.133960
-0.135583
-0.140006
-0.139154
-0.125763
-0.124816
-0.122670
-0.128885
-0.120455
-0.137611
-0.251582
-0.248547
-0.242569
-0.243314
0.019688
0.018600
0.014647
0.014949
0.196916
0.219042
0.229871
-0.348228
-0.347517
-0.344437
0.115468
0.114818
0.120960
0.109531
-0.331528
-0.334176
-0.331294
-0.247706
-0.247976
0.065765
0.064257
0.069191
0.059681
-0.341929
-0.344541