# vtk DataFile Version 2.0
Test
ASCII
DATASET POLYDATA
POINTS 6577 float
0.000000 0.000000 0.000000
2.000000 0.000000 0.000000
2.000000 4.000000 0.000000
0.000000 4.000000 0.000000
0.000000 0.500000 0.000000
1.500000 2.000000 0.000000
2.000000 2.500000 0.000000
0.040000 0.000000 0.000000
0.080000 0.000000 0.000000
0.120000 0.000000 0.000000
0.160000 0.000000 0.000000
0.200000 0.000000 0.000000
0.240000 0.000000 0.000000
0.280000 0.000000 0.000000
0.320000 0.000000 0.000000
0.360000 0.000000 0.000000
0.400000 0.000000 0.000000
0.440000 0.000000 0.000000
0.480000 0.000000 0.000000
0.520000 0.000000 0.000000
0.560000 0.000000 0.000000
0.600000 0.000000 0.000000
0.640000 0.000000 0.000000
0.680000 0.000000 0.000000
0.720000 0.000000 0.000000
0.760000 0.000000 0.000000
0.800000 0.000000 0.000000
0.840000 0.000000 0.000000
0.880000 0.000000 0.000000
0.920000 0.000000 0.000000
0.960000 0.000000 0.000000
1.000000 0.000000 0.000000
1.040000 0.000000 0.000000
1.080000 0.000000 0.000000
1.120000 0.000000 0.000000
1.160000 0.000000 0.000000
1.200000 0.000000 0.000000
1.240000 0.000000 0.000000
1.280000 0.000000 0.000000
1.320000 0.000000 0.000000
1.360000 0.000000 0.000000
1.400000 0.000000 0.000000
1.440000 0.000000 0.000000
1.480000 0.000000 0.000000
1.520000 0.000000 0.000000
1.560000 0.000000 0.000000
1.600000 0.000000 0.000000
1.640000 0.000000 0.000000
1.680000 0.000000 0.000000
1.720000 0.000000 0.000000
1.760000 0.000000 0.000000
1.800000 0.000000 0.000000
1.840000 0.000000 0.000000
1.880000 0.000000 0.000000
1.920000 0.000000 0.000000
1.960000 0.000000 0.000000
2.000000 0.039683 0.000000
2.000000 0.079365 0.000000
2.000000 0.119048 0.000000
2.000000 0.158730 0.000000
2.000000 0.198413 0.000000
2.000000 0.238095 0.000000
2.000000 0.277778 0.000000
2.000000 0.317460 0.000000
2.000000 0.357143 0.000000
2.000000 0.396825 0.000000
2.000000 0.436508 0.000000
2.000000 0.476190 0.000000
2.000000 0.515873 0.000000
2.000000 0.555556 0.000000
2.000000 0.595238 0.000000
2.000000 0.634921 0.000000
2.000000 0.674603 0.000000
2.000000 0.714286 0.000000
2.000000 0.753968 0.000000
2.000000 0.793651 0.000000
2.000000 0.833333 0.000000
2.000000 0.873016 0.000000
2.000000 0.912698 0.000000
2.000000 0.952381 0.000000
2.000000 0.992063 0.000000
2.000000 1.031746 0.000000
2.000000 1.071429 0.000000
2.000000 1.111111 0.000000
2.000000 1.150794 0.000000
2.000000 1.190476 0.000000
2.000000 1.230159 0.000000
2.000000 1.269841 0.000000
2.000000 1.309524 0.000000
2.000000 1.349206 0.000000
2.000000 1.388889 0.000000
2.000000 1.428571 0.000000
2.000000 1.468254 0.000000
2.000000 1.507937 0.000000
2.000000 1.547619 0.000000
2.000000 1.587302 0.000000
2.000000 1.626984 0.000000
2.000000 1.666667 0.000000
2.000000 1.706349 0.000000
2.000000 1.746032 0.000000
2.000000 1.785714 0.000000
2.000000 1.825397 0.000000
2.000000 1.865079 0.000000
2.000000 1.904762 0.000000
2.000000 1.944444 0.000000
2.000000 1.984127 0.000000
2.000000 2.023810 0.000000
2.000000 2.063492 0.000000
2.000000 2.103175 0.000000
2.000000 2.142857 0.000000
2.000000 2.182540 0.000000
2.000000 2.222222 0.000000
2.000000 2.261905 0.000000
2.000000 2.301587 0.000000
2.000000 2.341270 0.000000
2.000000 2.380952 0.000000
2.000000 2.420635 0.000000
2.000000 2.460317 0.000000
2.000000 2.539474 0.000000
2.000000 2.578947 0.000000
2.000000 2.618421 0.000000
2.000000 2.657895 0.000000
2.000000 2.697368 0.000000
2.000000 2.736842 0.000000
2.000000 2.776316 0.000000
2.000000 2.815789 0.000000
2.000000 2.855263 0.000000
2.000000 2.894737 0.000000
2.000000 2.934211 0.000000
2.000000 2.973684 0.000000
2.000000 3.013158 0.000000
2.000000 3.052632 0.000000
2.000000 3.092105 0.000000
2.000000 3.131579 0.000000
2.000000 3.171053 0.000000
2.000000 3.210526 0.000000
2.000000 3.250000 0.000000
2.000000 3.289474 0.000000
2.000000 3.328947 0.000000
2.000000 3.368421 0.000000
2.000000 3.407895 0.000000
2.000000 3.447368 0.000000
2.000000 3.486842 0.000000
2.000000 3.526316 0.000000
2.000000 3.565789 0.000000
2.000000 3.605263 0.000000
2.000000 3.644737 0.000000
2.000000 3.684211 0.000000
2.000000 3.723684 0.000000
2.000000 3.763158 0.000000
2.000000 3.802632 0.000000
2.000000 3.842105 0.000000
2.000000 3.881579 0.000000
2.000000 3.921053 0.000000
2.000000 3.960526 0.000000
1.960000 4.000000 0.000000
1.920000 4.000000 0.000000
1.880000 4.000000 0.000000
1.840000 4.000000 0.000000
1.800000 4.000000 0.000000
1.760000 4.000000 0.000000
1.720000 4.000000 0.000000
1.680000 4.000000 0.000000
1.640000 4.000000 0.000000
1.600000 4.000000 0.000000
1.560000 4.000000 0.000000
1.520000 4.000000 0.000000
1.480000 4.000000 0.000000
1.440000 4.000000 0.000000
1.400000 4.000000 0.000000
1.360000 4.000000 0.000000
1.320000 4.000000 0.000000
1.280000 4.000000 0.000000
1.240000 4.000000 0.000000
1.200000 4.000000 0.000000
1.160000 4.000000 0.000000
1.120000 4.000000 0.000000
1.080000 4.000000 0.000000
1.040000 4.000000 0.000000
1.000000 4.000000 0.000000
0.960000 4.000000 0.000000
0.920000 4.000000 0.000000
0.880000 4.000000 0.000000
0.840000 4.000000 0.000000
0.800000 4.000000 0.000000
0.760000 4.000000 0.000000
0.720000 4.000000 0.000000
0.680000 4.000000 0.000000
0.640000 4.000000 0.000000
0.600000 4.000000 0.000000
0.560000 4.000000 0.000000
0.520000 4.000000 0.000000
0.480000 4.000000 0.000000
0.440000 4.000000 0.000000
0.400000 4.000000 0.000000
0.360000 4.000000 0.000000
0.320000 4.000000 0.000000
0.280000 4.000000 0.000000
0.240000 4.000000 0.000000
0.200000 4.000000 0.000000
0.160000 4.000000 0.000000
0.120000 4.000000 0.000000
0.080000 4.000000 0.000000
0.040000 4.000000 0.000000
0.000000 3.960227 0.000000
0.000000 3.920455 0.000000
0.000000 3.880682 0.000000
0.000000 3.840909 0.000000
0.000000 3.801136 0.000000
0.000000 3.761364 0.000000
0.000000 3.721591 0.000000
0.000000 3.681818 0.000000
0.000000 3.642045 0.000000
0.000000 3.602273 0.000000
0.000000 3.562500 0.000000
0.000000 3.522727 0.000000
0.000000 3.482955 0.000000
0.000000 3.443182 0.000000
0.000000 3.403409 0.000000
0.000000 3.363636 0.000000
0.000000 3.323864 0.000000
0.000000 3.284091 0.000000
0.000000 3.244318 0.000000
0.000000 3.204545 0.000000
0.000000 3.164773 0.000000
0.000000 3.125000 0.000000
0.000000 3.085227 0.000000
0.000000 3.045455 0.000000
0.000000 3.005682 0.000000
0.000000 2.965909 0.000000
0.000000 2.926136 0.000000
0.000000 2.886364 0.000000
0.000000 2.846591 0.000000
0.000000 2.806818 0.000000
0.000000 2.767045 0.000000
0.000000 2.727273 0.000000
0.000000 2.687500 0.000000
0.000000 2.647727 0.000000
0.000000 2.607955 0.000000
0.000000 2.568182 0.000000
0.000000 2.528409 0.000000
0.000000 2.488636 0.000000
0.000000 2.448864 0.000000
0.000000 2.409091 0.000000
0.000000 2.369318 0.000000
0.000000 2.329545 0.000000
0.000000 2.289773 0.000000
0.000000 2.250000 0.000000
0.000000 2.210227 0.000000
0.000000 2.170455 0.000000
0.000000 2.130682 0.000000
0.000000 2.090909 0.000000
0.000000 2.051136 0.000000
0.000000 2.011364 0.000000
0.000000 1.971591 0.000000
0.000000 1.931818 0.000000
0.000000 1.892045 0.000000
0.000000 1.852273 0.000000
0.000000 1.812500 0.000000
0.000000 1.772727 0.000000
0.000000 1.732955 0.000000
0.000000 1.693182 0.000000
0.000000 1.653409 0.000000
0.000000 1.613636 0.000000
0.000000 1.573864 0.000000
0.000000 1.534091 0.000000
0.000000 1.494318 0.000000
0.000000 1.454545 0.000000
0.000000 1.414773 0.000000
0.000000 1.375000 0.000000
0.000000 1.335227 0.000000
0.000000 1.295455 0.000000
0.000000 1.255682 0.000000
0.000000 1.215909 0.000000
0.000000 1.176136 0.000000
0.000000 1.136364 0.000000
0.000000 1.096591 0.000000
0.000000 1.056818 0.000000
0.000000 1.017045 0.000000
0.000000 0.977273 0.000000
0.000000 0.937500 0.000000
0.000000 0.897727 0.000000
0.000000 0.857955 0.000000
0.000000 0.818182 0.000000
0.000000 0.778409 0.000000
0.000000 0.738636 0.000000
0.000000 0.698864 0.000000
0.000000 0.659091 0.000000
0.000000 0.619318 0.000000
0.000000 0.579545 0.000000
0.000000 0.539773 0.000000
0.000000 0.461538 0.000000
0.000000 0.423077 0.000000
0.000000 0.384615 0.000000
0.000000 0.346154 0.000000
0.000000 0.307692 0.000000
0.000000 0.269231 0.000000
0.000000 0.230769 0.000000
0.000000 0.192308 0.000000
0.000000 0.153846 0.000000
0.000000 0.115385 0.000000
0.000000 0.076923 0.000000
0.000000 0.038462 0.000000
0.027778 0.527778 0.000000
0.055556 0.555556 0.000000
0.083333 0.583333 0.000000
0.111111 0.611111 0.000000
0.138889 0.638889 0.000000
0.166667 0.666667 0.000000
0.194444 0.694444 0.000000
0.222222 0.722222 0.000000
0.250000 0.750000 0.000000
0.277778 0.777778 0.000000
0.305556 0.805556 0.000000
0.333333 0.833333 0.000000
0.361111 0.861111 0.000000
0.388889 0.888889 0.000000
0.416667 0.916667 0.000000
0.444444 0.944444 0.000000
0.472222 0.972222 0.000000
0.500000 1.000000 0.000000
0.527778 1.027778 0.000000
0.555556 1.055556 0.000000
0.583333 1.083333 0.000000
0.611111 1.111111 0.000000
0.638889 1.138889 0.000000
0.666667 1.166667 0.000000
0.694444 1.194444 0.000000
0.722222 1.222222 0.000000
0.750000 1.250000 0.000000
0.777778 1.277778 0.000000
0.805556 1.305556 0.000000
0.833333 1.333333 0.000000
0.861111 1.361111 0.000000
0.888889 1.388889 0.000000
0.916667 1.416667 0.000000
0.944444 1.444444 0.000000
0.972222 1.472222 0.000000
1.000000 1.500000 0.000000
1.027778 1.527778 0.000000
1.055556 1.555556 0.000000
1.083333 1.583333 0.000000
1.111111 1.611111 0.000000
1.138889 1.638889 0.000000
1.166667 1.666667 0.000000
1.194444 1.694444 0.000000
1.222222 1.722222 0.000000
1.250000 1.750000 0.000000
1.277778 1.777778 0.000000
1.305556 1.805556 0.000000
1.333333 1.833333 0.000000
1.361111 1.861111 0.000000
1.388889 1.888889 0.000000
1.416667 1.916667 0.000000
1.444444 1.944444 0.000000
1.472222 1.972222 0.000000
1.527778 2.027778 0.000000
1.555556 2.055556 0.000000
1.583333 2.083333 0.000000
1.611111 2.111111 0.000000
1.638889 2.138889 0.000000
1.666667 2.166667 0.000000
1.694444 2.194444 0.000000
1.722222 2.222222 0.000000
1.750000 2.250000 0.000000
1.777778 2.277778 0.000000
1.805556 2.305556 0.000000
[...]
POINT_DATA 6577
SCALARS UX float 1
LOOKUP_TABLE default
-0.000122
0.000169
0.069302
-0.747490
-0.842048
0.538817
0.531679
0.000029
-0.000007
-0.000002
0.000003
-0.000005
-0.000019
0.000002
0.000002
0.000006
0.000002
-0.000000
0.000006
0.000001
0.000003
-0.000001
0.000001
-0.000002
-0.000001
0.000000
-0.000001
-0.000001
0.000000
0.000000
0.000001
0.000000
-0.000000
0.000000
0.000000
0.000000
-0.000000
-0.000000
0.000001
-0.000002
-0.000000
0.000000
-0.000000
0.000001
0.000000
0.000001
-0.000002
-0.000001
-0.000000
-0.000001
0.000001
-0.000002
0.000002
-0.000001
-0.000001
-0.000022
0.030238
0.059555
0.079996
0.097012
0.112059
0.126534
0.139983
0.153930
0.168311
0.182820
0.198099
0.213705
0.227192
0.238662
0.249265
0.259685
0.270711
0.281979
0.294088
0.308368
0.324870
0.345552
0.369794
0.395518
0.426211
0.459687
0.494032
0.530023
0.567195
0.604239
0.641423
0.674070
0.701119
0.725793
0.746569
0.768027
0.787376
0.806552
0.822214
0.832247
0.833391
0.822767
0.806174
0.787685
0.771064
0.758028
0.752226
0.749877
0.748461
0.747621
0.749004
0.751021
0.754781
0.758361
0.759034
0.759219
0.745648
0.707140
0.658662
0.620875
0.605313
0.561259
0.526557
0.510725
0.488045
0.461330
0.446624
0.430898
0.411503
0.395434
0.376263
0.350833
0.343863
0.331388
0.322301
0.298117
0.316827
0.289010
0.268833
0.243461
0.197326
0.193172
0.174131
0.158514
0.156830
0.167989
0.117381
0.133111
0.148844
0.160946
0.177715
0.195677
0.130650
0.127780
0.159662
0.126630
0.101961
0.095650
0.076676
0.048215
0.025432
0.004212
-0.016802
-0.038072
-0.059244
-0.080779
-0.103426
-0.126042
-0.148280
-0.170758
-0.192952
-0.215235
-0.237171
-0.258103
-0.278349
-0.297430
-0.315314
-0.332033
-0.347584
-0.362082
-0.375803
-0.388705
-0.401202
-0.414043
-0.427796
-0.441868
-0.456281
-0.470711
-0.485109
-0.499383
-0.513280
-0.526087
-0.538229
-0.550770
-0.562927
-0.574831
-0.586966
-0.599439
-0.612723
-0.626103
-0.639935
-0.653843
-0.667607
-0.681244
-0.694700
-0.707980
-0.720842
-0.733454
-0.745300
-0.742722
-0.741088
-0.738723
-0.735355
-0.732355
-0.729638
-0.725944
-0.723282
-0.719297
-0.714302
-0.708471
-0.702057
-0.697057
-0.687267
-0.678851
-0.670019
-0.661840
-0.654698
-0.643896
-0.635100
-0.626134
-0.615960
-0.606778
-0.600220
-0.591364
-0.586319
-0.580726
-0.580723
-0.575802
-0.574369
-0.573173
-0.575895
-0.581407
-0.583375
-0.590337
-0.594864
-0.603095
-0.616289
-0.628837
-0.637023
-0.646629
-0.655948
-0.665882
-0.675003
-0.686784
-0.697763
-0.710017
-0.724585
-0.741623
-0.762638
-0.786565
-0.806725
-0.818057
-0.829431
-0.838416
-0.844818
-0.849158
-0.848273
-0.840196
-0.834756
-0.826132
-0.815824
-0.804763
-0.794066
-0.782646
-0.771670
-0.760414
-0.749751
-0.739117
-0.728348
-0.717190
-0.705989
-0.694269
-0.681712
-0.668612
-0.655301
-0.641565
-0.628100
-0.615618
-0.605101
-0.597501
-0.595335
-0.601925
-0.615409
-0.663643
-0.829159
-0.361692
-0.341369
-0.333852
-0.325615
-0.316195
-0.303971
-0.288251
-0.269169
-0.243669
-0.218058
-0.172812
-0.068128
-0.780441
-0.680523
-0.585179
-0.593852
-0.557884
-0.388297
-0.386057
-0.402997
-0.525111
-0.342521
-0.413363
-0.537250
-0.477197
-0.558361
-0.554365
-0.605134
-0.614838
-0.696765
-0.642285
-0.629704
-0.601426
-0.495913
-0.480479
-0.454363
-0.530588
-0.487045
-0.422627
-0.380937
-0.368738
-0.405290
-0.362557
-0.301855
-0.255675
-0.201929
-0.180995
-0.166229
-0.156738
-0.138235
-0.111139
-0.085676
-0.053407
-0.012656
0.045920
0.103927
0.156238
0.233113
0.244010
0.293517
0.367453
0.451288
0.528728
0.577313
0.585255
0.555578
0.561203
0.575295
0.578011
0.576411
0.575607
0.562478
0.550652
0.541577
0.533078
0.526522
0.528652
0.528526
0.528558
0.528693
0.544251
0.536091
0.485901
0.472203
-0.732828
-0.734160
0.084286
0.078658
0.509648
0.511423
0.478868
0.419831
0.394252
-0.064325
-0.083979
-0.077163
-0.062101
-0.046064
-0.008252
-0.092620
-0.561264
-0.548109
-0.545235
-0.195025
-0.179662
-0.173714
-0.674528
-0.677449
-0.665823
-0.678744
-0.692987
-0.686651
-0.195750
-0.037540
-0.015014
-0.026886
-0.192811
-0.210709
-0.188508
-0.609313
-0.597171
-0.593648
-0.568544
-0.259979
-0.257085
-0.276097
0.013455
-0.007732
-0.011714
-0.213278
-0.211182
-0.228193
-0.219554
-0.559527
-0.571330
-0.563736
-0.571427
-0.542513
-0.554484
-0.541798
-0.554209
-0.214445
-0.199998
-0.216904
0.005702
-0.375877
-0.379710
-0.363749
0.500050
0.509042
-0.362987
-0.645469
-0.651924
-0.629593
-0.666518
-0.535886
-0.528665
-0.517081
-0.201408
-0.217764
-0.211887
-0.206219
0.321755
0.315427
0.348516
0.326265
-0.392020
-0.410195
-0.403186
-0.403723
-0.227010
-0.215775
-0.234385
-0.589025
-0.563554
-0.563827
0.453737
0.474396
0.440508
0.461874
0.421992
0.426491
0.396703
-0.654111
-0.670118
-0.688106
0.293412
0.248891
0.270098
0.219705
-0.210559
-0.676683
-0.686702
-0.676890
-0.458447
-0.445036
-0.447694
-0.460951
-0.472103
-0.482706
-0.466851
-0.474699
-0.615678
-0.593477
-0.609326
-0.404946
-0.408964
-0.418475
-0.028902
-0.050090
-0.037166
0.407308
0.491991
0.464439
0.496627
-0.423280
-0.417387
-0.430905
-0.434036
-0.444374
-0.444578
-0.568961
-0.548479
-0.457756
-0.453586
-0.442552
-0.530956
-0.518713
-0.522573
-0.470024
-0.397245
-0.408860
-0.392146
-0.641888
-0.640222
-0.650364
-0.584975
-0.486531
-0.471917
-0.493449
-0.317815
-0.308262
-0.324337
-0.586292
-0.587575
-0.582668
0.390471
0.413657
0.379748
0.408851
0.040567
0.030465
0.026856
0.008755
0.445973
0.449454
-0.300197
-0.300197
-0.314717
-0.285928
-0.623235
-0.636550
-0.623276
-0.210058
-0.194245
-0.210744
-0.437670
-0.460576
-0.438590
-0.197914
-0.641051
-0.546301
-0.532637
-0.540162
-0.491697
-0.497675
-0.516308
-0.524086
-0.539757
-0.561158
-0.554652
-0.470866
-0.463995
-0.478453
-0.659057
-0.660342
-0.174440
-0.154381
-0.187249
-0.720601
-0.725163
-0.715874
-0.728084
-0.722884
-0.699781
-0.701974
-0.709866
-0.700631
-0.695160
-0.686484
-0.693225
-0.685511
-0.318128
-0.348669
-0.281973
-0.344819
-0.662614
-0.675252
-0.665459
-0.678435
-0.725535
-0.724751
0.051623
0.045147
0.223158
0.245569
0.281583
0.210318
-0.510589
-0.509654
-0.500045
-0.671952
-0.677012
-0.669543
-0.495978
0.165545
0.175978
0.145954
-0.588756
-0.590328
-0.620352
-0.610270
-0.606756
-0.353314
-0.344212
0.423763
0.430550
0.455987
0.469412
-0.473428
-0.487445
-0.492832
-0.502324
-0.669756
-0.676891
-0.679872
-0.665492
-0.698029
-0.695234
-0.691526
-0.732236
-0.735965
-0.721136
-0.729524
-0.719476
-0.593467
-0.595622
-0.601765
-0.606227
-0.598058
-0.702545
-0.696478
-0.006740
0.015277
-0.708860
-0.724059
-0.716115
-0.700599
-0.547137
-0.570689
-0.565958
-0.729125
-0.689289
0.353853
0.349893
0.339866
0.367636
-0.169536
-0.149487
-0.154460
-0.404545
-0.400511
-0.422103
-0.347596
-0.318386
-0.071549
-0.049942
-0.055671
-0.381039
-0.339969
-0.346025
-0.364582
-0.754866
-0.755756
-0.746434
-0.603757
-0.603935
-0.592463
-0.074175
-0.649714
-0.670292
-0.654180
-0.685591
-0.680344
-0.693529
-0.592751
-0.595113
-0.053622
-0.588904
-0.586847
-0.656327
-0.663096
-0.652032
-0.669527
-0.665544
-0.611852
-0.610808
-0.603764
-0.617105
-0.614408
-0.604740
-0.620751
0.022095
0.030332
-0.677734
-0.695729
-0.689870
-0.677706
-0.672938
-0.538040
-0.727960
-0.688111
-0.684425
-0.696324
-0.690895
-0.698976
0.114645
-0.499609
-0.466559
-0.717887
-0.714913
-0.661155
-0.658881
0.035950
0.045271
-0.385446
-0.373833
-0.717737
-0.040084
-0.023796
-0.024133
-0.006674
-0.743936
-0.738205
-0.535614
-0.546058
-0.529976
-0.593919
-0.603390
-0.604172
-0.578234
-0.620001
-0.539397
-0.024625
-0.303215
-0.329807
-0.318515
-0.689509
-0.624049
-0.613750
-0.629495
-0.713115
-0.768331
-0.763971
-0.774380
-0.349372
-0.341848
-0.005263
0.011593
0.002846
-0.588399
-0.583182
-0.184610
-0.148347
-0.703473
-0.704937
-0.696537
-0.528091
-0.520004
-0.603449
-0.614608
-0.614501
-0.598685
-0.608660
-0.703374
-0.710944
-0.088262
-0.089447
-0.064208
-0.727183
-0.732935
-0.762947
-0.754755
-0.747345
-0.632120
-0.517204
-0.220156
-0.213334
-0.751418
-0.726427
-0.636015
-0.624926
-0.642612
-0.709874
-0.707401
0.088803
0.084097
0.140368
-0.682946
0.128251
0.056016
0.113671
0.019596
-0.613569
-0.624191
-0.625264
-0.612474
-0.695297
-0.687652
-0.649331
-0.649732
-0.664762
-0.674136
-0.668780
-0.644623
-0.571475
-0.582749
-0.556554
-0.039782
-0.577716
-0.594766
-0.596756
-0.679881
0.127648
-0.019482
-0.017745
0.001021
-0.647932
-0.636227
-0.656195
-0.687912
-0.690658
-0.697348
-0.619963
-0.632658
-0.635619
-0.607026
-0.657995
-0.107770
-0.109655
-0.641757
-0.637100
0.126532
0.471772
0.505120
0.494256
-0.719916
-0.716951
-0.703832
-0.698832
0.090156
0.099608
-0.122436
-0.111192
-0.123598
-0.138757
-0.633451
-0.630638
-0.619948
-0.653631
0.036752
0.013775
-0.658050
-0.647166
-0.671643
-0.626523
-0.639870
-0.644442
-0.615202
-0.651802
-0.037885
-0.055533
-0.144057
-0.678112
-0.668237
-0.282288
-0.276266
-0.294211
-0.669577
-0.035238
-0.012075
-0.676652
-0.687472
-0.656649
-0.680438
-0.720355
-0.760682
0.504300
0.478611
-0.742584
-0.323630
0.232832
0.200726
0.235089
-0.632061
-0.647766
-0.653467
-0.621374
-0.093392
-0.076299
-0.084998
-0.708231
-0.287834
0.190494
-0.696784
-0.690993
-0.712163
0.074160
0.086927
-0.141875
-0.121089
-0.122105
0.022420
0.003153
-0.679000
-0.139377
-0.141703
0.455725
0.482762
0.455158
-0.627102
-0.637630
-0.626859
-0.639386
-0.103618
-0.504409
0.425033
0.456401
-0.080392
-0.702706
-0.711985
-0.639027
-0.643916
-0.729208
-0.736272
-0.655684
-0.661033
-0.642517
-0.055133
0.507152
0.052584
0.087070
0.067803
-0.666582
0.073401
-0.427093
-0.390771
-0.434683
-0.051407
-0.027229
-0.073495
-0.665883
-0.676936
-0.656761
-0.770015
-0.688330
-0.772444
0.197529
0.199537
0.238602
0.164543
-0.062541
-0.672889
-0.751932
-0.653804
-0.756683
-0.037031
-0.627358
-0.628435
-0.615828
-0.664408
-0.669057
-0.614258
-0.614546
-0.679164
0.194957
0.131265
0.134175
0.157681
-0.259054
-0.268178
-0.250292
-0.253886
0.424782
-0.028063
-0.037774
-0.698346
-0.641359
-0.139762
-0.155238
-0.101191
-0.687612
-0.684994
-0.706733
0.050992
-0.692660
-0.686025
0.011244
-0.006016
0.094173
-0.108764
-0.143579
0.005976
0.004494
-0.040798
-0.667979
-0.663251
-0.657039
-0.087514
-0.640037
-0.074505
-0.641649
-0.641138
-0.720719
-0.654869
-0.128403
-0.766760
-0.185163
-0.174783
-0.194532
-0.067726
-0.185343
-0.093247
-0.655838
-0.193675
-0.169835
-0.643542
-0.179359
-0.371336
-0.376383
-0.383909
-0.587722
0.401540
-0.745838
-0.453378
-0.425009
-0.427856
-0.359976
-0.095762
-0.090215
-0.106019
-0.290040
-0.273668
-0.701175
-0.711327
-0.686873
-0.684793
-0.673190
-0.102095
-0.543733
-0.547319
-0.729462
-0.737977
-0.300346
-0.285409
-0.776982
-0.780680
-0.755670
-0.761476
-0.654818
-0.666522
-0.652523
0.057329
0.033132
0.065992
0.030872
-0.674392
0.305206
0.292372
0.267150
-0.690235
-0.681897
-0.662645
-0.654996
0.275908
-0.201053
-0.189762
-0.209167
-0.648082
-0.464141
-0.474737
-0.090278
-0.715946
-0.706932
-0.715275
-0.630945
-0.624798
-0.494132
-0.670157
-0.181396
-0.188234
-0.162186
-0.650686
-0.664452
-0.719701
-0.505014
-0.046947
-0.085060
-0.177833
-0.194626
-0.179442
-0.084254
-0.398340
-0.403014
-0.410882
-0.386563
-0.016738
-0.000586
0.420907
0.446600
-0.116571
-0.128139
-0.142410
-0.010989
-0.038524
-0.026335
-0.149506
-0.181958
-0.232984
-0.241152
-0.225393
-0.643165
-0.649026
-0.651080
-0.699735
-0.709746
-0.214948
-0.205750
-0.223201
-0.576749
-0.570120
-0.581926
-0.773911
-0.747582
-0.728025
-0.738223
-0.758864
-0.766365
-0.653290
-0.386748
-0.357236
-0.377997
-0.688485
-0.679116
-0.670540
-0.584323
-0.587885
-0.604675
-0.675266
-0.688741
-0.689088
-0.674173
-0.660189
-0.651177
-0.596966
-0.619152
-0.593124
-0.603523
-0.576981
-0.641651
-0.679976
-0.635281
-0.649473
-0.631290
-0.626413
0.410535
-0.613000
-0.718192
-0.696494
-0.708194
-0.060833
-0.062343
-0.077743
-0.614869
-0.627861
-0.725652
-0.736891
-0.748690
-0.657876
-0.617694
-0.626572
-0.628854
-0.617182
-0.761055
-0.772429
0.095939
0.086141
0.076445
0.054289
-0.681883
-0.675003
-0.667655
-0.654540
-0.650772
-0.642213
-0.643106
-0.305067
-0.285569
-0.291356
-0.289174
-0.300414
-0.277729
-0.287983
-0.099288
-0.639982
-0.625282
-0.609044
-0.716275
-0.686865
-0.703118
-0.619970
-0.079241
-0.103400
-0.077704
-0.286945
-0.725555
-0.736180
-0.748367
-0.761793
-0.775450
-0.639913
-0.669671
-0.665170
-0.234544
-0.215606
-0.228739
-0.219097
-0.660270
-0.629081
-0.622492
-0.075779
-0.066234
-0.083020
-0.306528
0.292639
0.284003
0.318667
0.329091
-0.629489
-0.636850
-0.645861
-0.640687
0.398188
0.415267
0.402317
-0.599875
-0.612759
-0.602277
-0.663252
-0.662043
-0.240498
-0.245012
-0.231166
-0.566744
-0.574083
-0.564067
-0.571908
-0.672751
-0.690802
-0.708934
-0.249145
-0.717510
-0.729140
-0.607831
-0.607272
0.129450
-0.113311
-0.182047
-0.191635
-0.168354
-0.748115
0.187191
0.160800
-0.755789
-0.774783
-0.653763
-0.651051
-0.164485
-0.164673
-0.189888
-0.590111
-0.592526
-0.579403
0.111624
0.016239
0.032465
-0.596034
-0.131848
-0.112800
-0.647833
-0.150743
-0.556926
-0.630860
-0.630076
-0.286571
-0.247173
-0.281957
-0.316483
-0.306518
-0.332496
-0.327424
-0.341274
-0.316298
-0.175883
-0.179775
-0.193560
-0.195933
-0.603799
-0.564956
-0.567296
-0.580146
-0.028962
-0.045725
-0.066211
-0.609402
0.205582
0.191599
-0.655528
-0.676305
-0.194525
-0.197257
-0.209216
-0.212758
-0.697086
-0.245427
-0.242146
-0.709896
-0.734979
-0.096184
0.086154
0.107133
0.094971
-0.150273
-0.155204
-0.650158
-0.586209
-0.591506
-0.633835
-0.632785
-0.209133
-0.599472
-0.593856
-0.095742
-0.114925
-0.087417
-0.630821
-0.202225
-0.198843
-0.610268
-0.612474
-0.628125
-0.618143
-0.609952
-0.554965
-0.584086
-0.582094
-0.623824
-0.605771
-0.406687
-0.390197
-0.396146
-0.634244
-0.658661
-0.595016
-0.589645
0.108023
-0.683822
-0.477229
-0.471671
-0.486262
-0.480040
-0.101299
-0.200583
-0.198864
-0.222409
-0.580730
-0.571674
-0.583508
-0.570865
-0.140913
-0.148795
-0.131184
-0.162417
-0.696120
-0.724048
-0.552070
-0.558806
-0.216085
-0.229259
-0.227858
-0.216614
-0.628119
0.101829
0.066348
0.090832
0.051896
-0.374361
-0.381896
-0.386468
0.104264
0.053640
0.090771
0.124768
0.101940
0.079934
-0.565009
-0.575420
-0.573342
-0.607517
-0.609355
-0.093287
-0.073214
-0.088649
0.059340
0.107827
0.080568
-0.609020
-0.584232
-0.587298
-0.544891
-0.397092
-0.400806
-0.376147
-0.607544
-0.637426
-0.111346
-0.125657
-0.101417
-0.305884
0.025112
0.036970
-0.666056
-0.676423
-0.706698
-0.576379
-0.578209
0.033613
-0.167911
-0.181418
-0.162373
-0.581471
-0.179530
0.235161
0.208654
0.197113
-0.553563
-0.555791
-0.577613
-0.609965
-0.551526
-0.542155
-0.642338
-0.650907
-0.677258
0.508161
0.501659
0.456345
0.462728
-0.609775
-0.624006
-0.611689
-0.545675
-0.544880
-0.522690
-0.516296
-0.521218
0.082831
0.049508
0.399023
0.399961
0.377966
0.350404
0.354713
0.177032
-0.548194
-0.517928
-0.521128
0.265987
0.292928
-0.249238
-0.239814
-0.255888
-0.250254
-0.550907
-0.580882
-0.615460
-0.533111
-0.618574
-0.649396
-0.524290
-0.515958
-0.153729
-0.166378
-0.134721
0.043688
0.031970
0.031017
0.172675
0.183907
-0.360074
-0.335961
-0.485530
-0.492947
-0.560387
-0.556794
-0.567994
-0.515229
-0.483023
-0.483446
-0.314043
-0.502895
-0.511126
-0.517775
0.295535
0.331564
-0.533438
-0.558861
0.215676
0.133776
0.134185
0.095147
-0.586526
-0.592846
0.094101
0.054656
-0.579379
-0.579101
-0.100832
-0.117162
-0.304769
-0.510425
-0.496623
-0.547268
-0.522747
-0.510905
-0.515042
-0.490416
-0.475037
-0.639543
-0.653846
-0.524761
-0.542878
-0.133125
-0.604322
-0.613809
-0.614597
-0.653689
-0.642058
-0.505313
-0.487750
-0.007427
-0.206017
-0.392549
-0.629493
-0.311254
-0.291523
-0.320053
-0.474116
-0.454296
-0.158558
-0.131970
-0.576522
-0.563660
-0.565214
-0.519106
-0.536282
-0.148797
-0.080152
-0.095291
-0.237111
-0.233274
-0.220586
-0.119508
-0.535820
-0.112545
-0.405046
-0.421634
-0.225242
-0.110642
-0.523519
-0.539953
-0.383820
-0.442289
-0.488234
-0.448214
-0.395823
-0.400306
-0.382567
-0.230551
-0.242043
-0.502722
-0.488003
-0.608063
-0.468770
-0.449340
-0.511156
-0.528750
-0.377224
-0.387074
-0.610401
0.375406
0.444166
0.358520
0.296733
0.083183
0.104161
0.103938
-0.527968
-0.267135
-0.304855
-0.264399
-0.336229
-0.284680
-0.456203
-0.464487
-0.443493
-0.087650
-0.087845
-0.102766
0.229396
0.217710
0.184708
-0.497082
-0.071533
-0.448420
-0.446845
-0.460426
-0.461044
-0.277462
-0.293788
-0.279311
-0.428909
-0.231930
-0.621585
-0.629202
-0.614207
0.085411
0.074142
0.058182
-0.298561
0.088672
0.056266
0.099992
0.045173
0.029832
-0.474101
0.362460
0.390025
0.389892
-0.075808
-0.522513
-0.505061
-0.514816
-0.511834
0.362813
-0.145286
-0.131939
-0.129887
-0.148797
-0.147721
-0.152712
-0.137681
0.449007
-0.168156
-0.599989
-0.599624
-0.610421
-0.616150
-0.557214
-0.538426
-0.679404
-0.670942
-0.650952
-0.710381
-0.246696
-0.489003
-0.500686
-0.483068
-0.502223
-0.506144
-0.493808
-0.501407
-0.504534
-0.397150
-0.413649
-0.402173
-0.413016
-0.283281
-0.261077
-0.280548
0.048935
0.062838
0.320937
0.349271
0.331071
0.342943
0.335826
0.310106
-0.485801
-0.498017
-0.486686
-0.500557
-0.259022
-0.558662
-0.565484
-0.575382
0.224440
0.204198
-0.569356
-0.394264
0.108073
0.107428
0.141804
0.127477
0.128009
-0.264400
-0.282238
0.237189
-0.572164
-0.556690
-0.568683
-0.556959
-0.706860
0.446400
0.432711
-0.359230
0.049301
0.034684
0.028869
0.350334
0.368079
0.353839
0.053259
-0.047204
-0.036296
-0.056053
-0.045213
0.098095
-0.307341
-0.326777
-0.315976
-0.597776
-0.581394
-0.178783
-0.193910
-0.199519
-0.212256
-0.493377
-0.515856
-0.500386
-0.495309
-0.512615
-0.213691
-0.228708
-0.307550
-0.297764
-0.290139
-0.311219
-0.495478
-0.501474
-0.512286
-0.363926
-0.365344
-0.352477
-0.379184
-0.243501
-0.224105
0.361474
0.335626
0.376058
-0.259514
-0.277590
-0.275857
-0.636840
-0.266843
0.076052
0.062447
-0.414611
-0.430195
-0.420599
-0.426367
-0.701418
-0.179895
-0.192143
-0.282766
-0.296226
-0.295065
-0.596311
-0.593491
-0.580491
-0.594685
-0.584047
-0.140754
-0.513902
-0.477556
0.198255
0.230617
0.233215
0.172620
0.167407
-0.329047
-0.369757
-0.421695
-0.433533
-0.423255
-0.299278
-0.259965
-0.270046
-0.385525
-0.226673
-0.078322
-0.085254
-0.059676
-0.554320
-0.065089
-0.609439
-0.088248
-0.069830
-0.101507
-0.125754
-0.122179
-0.128721
-0.253963
-0.258733
-0.247441
-0.267031
-0.250954
-0.263766
0.034825
0.064590
0.075973
-0.184086
-0.188852
-0.163289
-0.162012
-0.198946
-0.546027
-0.525649
-0.074656
-0.091361
-0.108329
-0.101248
-0.438322
-0.427163
-0.381142
-0.391425
0.011212
-0.442501
-0.437635
-0.451578
-0.460899
-0.466143
-0.476113
-0.416229
-0.433116
-0.414863
-0.479524
-0.491240
-0.421841
-0.332960
-0.362190
-0.367987
-0.390551
-0.370941
-0.377864
-0.363248
-0.388677
0.408521
0.397498
-0.445026
0.497015
0.034966
0.014785
-0.006703
-0.005043
-0.029384
-0.454016
-0.447561
-0.460254
-0.519510
-0.511178
-0.525415
-0.052107
-0.048606
-0.069662
-0.369775
-0.383961
-0.141813
-0.125813
-0.355550
-0.369467
-0.360387
0.143640
0.128701
0.155976
0.105375
-0.431543
-0.445650
-0.429087
-0.447820
-0.106241
-0.092262
-0.071933
-0.126916
-0.115680
-0.128744
-0.636763
0.331580
0.342267
0.316033
0.332094
0.315141
0.347555
-0.202483
-0.187798
-0.198956
-0.197418
-0.178023
-0.461656
-0.461138
-0.444154
-0.463644
-0.479523
-0.476858
0.249836
0.267253
-0.469758
-0.482166
-0.480441
0.261843
0.198638
-0.495717
0.004903
-0.026472
-0.036796
-0.458452
0.299121
0.270918
0.302304
0.283531
0.265526
0.301184
0.289016
0.126947
0.107406
0.136070
0.152532
-0.432619
-0.420903
-0.348925
-0.339110
-0.335368
-0.355161
-0.323467
-0.330928
-0.319909
-0.490740
-0.493323
-0.501186
0.083805
0.096163
0.053654
-0.221914
-0.237731
-0.627065
-0.638915
-0.207558
-0.466778
-0.465236
-0.483294
-0.459471
-0.451158
-0.441597
-0.447433
-0.546801
-0.541385
-0.551440
-0.536459
-0.552056
-0.545689
-0.586177
-0.584306
-0.600318
-0.592906
-0.435434
-0.434712
-0.093365
-0.434630
-0.418926
-0.635175
-0.646485
-0.466586
-0.448151
-0.483330
-0.463447
-0.519005
-0.527817
-0.499527
-0.481282
-0.488728
-0.480176
-0.446547
0.226082
0.197181
0.246711
0.179168
-0.448784
-0.462991
-0.312374
-0.314638
-0.299683
0.234826
0.255471
0.262156
0.285911
0.208717
0.205606
0.182078
-0.553257
-0.488930
-0.472620
0.239934
0.200081
-0.566882
-0.567242
-0.553832
-0.310242
-0.314327
-0.297981
0.116179