# vtk DataFile Version 2.0
Test
ASCII
DATASET POLYDATA
POINTS 6577 float
0.000000 0.000000 0.000000
2.000000 0.000000 0.000000
2.000000 4.000000 0.000000
0.000000 4.000000 0.000000
0.000000 0.500000 0.000000
1.500000 2.000000 0.000000
2.000000 2.500000 0.000000
0.040000 0.000000 0.000000
0.080000 0.000000 0.000000
0.120000 0.000000 0.000000
0.160000 0.000000 0.000000
0.200000 0.000000 0.000000
0.240000 0.000000 0.000000
0.280000 0.000000 0.000000
0.320000 0.000000 0.000000
0.360000 0.000000 0.000000
0.400000 0.000000 0.000000
0.440000 0.000000 0.000000
0.480000 0.000000 0.000000
0.520000 0.000000 0.000000
0.560000 0.000000 0.000000
0.600000 0.000000 0.000000
0.640000 0.000000 0.000000
0.680000 0.000000 0.000000
0.720000 0.000000 0.000000
0.760000 0.000000 0.000000
0.800000 0.000000 0.000000
0.840000 0.000000 0.000000
0.880000 0.000000 0.000000
0.920000 0.000000 0.000000
0.960000 0.000000 0.000000
1.000000 0.000000 0.000000
1.040000 0.000000 0.000000
1.080000 0.000000 0.000000
1.120000 0.000000 0.000000
1.160000 0.000000 0.000000
1.200000 0.000000 0.000000
1.240000 0.000000 0.000000
1.280000 0.000000 0.000000
1.320000 0.000000 0.000000
1.360000 0.000000 0.000000
1.400000 0.000000 0.000000
1.440000 0.000000 0.000000
1.480000 0.000000 0.000000
1.520000 0.000000 0.000000
1.560000 0.000000 0.000000
1.600000 0.000000 0.000000
1.640000 0.000000 0.000000
1.680000 0.000000 0.000000
1.720000 0.000000 0.000000
1.760000 0.000000 0.000000
1.800000 0.000000 0.000000
1.840000 0.000000 0.000000
1.880000 0.000000 0.000000
1.920000 0.000000 0.000000
1.960000 0.000000 0.000000
2.000000 0.039683 0.000000
2.000000 0.079365 0.000000
2.000000 0.119048 0.000000
2.000000 0.158730 0.000000
2.000000 0.198413 0.000000
2.000000 0.238095 0.000000
2.000000 0.277778 0.000000
2.000000 0.317460 0.000000
2.000000 0.357143 0.000000
2.000000 0.396825 0.000000
2.000000 0.436508 0.000000
2.000000 0.476190 0.000000
2.000000 0.515873 0.000000
2.000000 0.555556 0.000000
2.000000 0.595238 0.000000
2.000000 0.634921 0.000000
2.000000 0.674603 0.000000
2.000000 0.714286 0.000000
2.000000 0.753968 0.000000
2.000000 0.793651 0.000000
2.000000 0.833333 0.000000
2.000000 0.873016 0.000000
2.000000 0.912698 0.000000
2.000000 0.952381 0.000000
2.000000 0.992063 0.000000
2.000000 1.031746 0.000000
2.000000 1.071429 0.000000
2.000000 1.111111 0.000000
2.000000 1.150794 0.000000
2.000000 1.190476 0.000000
2.000000 1.230159 0.000000
2.000000 1.269841 0.000000
2.000000 1.309524 0.000000
2.000000 1.349206 0.000000
2.000000 1.388889 0.000000
2.000000 1.428571 0.000000
2.000000 1.468254 0.000000
2.000000 1.507937 0.000000
2.000000 1.547619 0.000000
2.000000 1.587302 0.000000
2.000000 1.626984 0.000000
2.000000 1.666667 0.000000
2.000000 1.706349 0.000000
2.000000 1.746032 0.000000
2.000000 1.785714 0.000000
2.000000 1.825397 0.000000
2.000000 1.865079 0.000000
2.000000 1.904762 0.000000
2.000000 1.944444 0.000000
2.000000 1.984127 0.000000
2.000000 2.023810 0.000000
2.000000 2.063492 0.000000
2.000000 2.103175 0.000000
2.000000 2.142857 0.000000
2.000000 2.182540 0.000000
2.000000 2.222222 0.000000
2.000000 2.261905 0.000000
2.000000 2.301587 0.000000
2.000000 2.341270 0.000000
2.000000 2.380952 0.000000
2.000000 2.420635 0.000000
2.000000 2.460317 0.000000
2.000000 2.539474 0.000000
2.000000 2.578947 0.000000
2.000000 2.618421 0.000000
2.000000 2.657895 0.000000
2.000000 2.697368 0.000000
2.000000 2.736842 0.000000
2.000000 2.776316 0.000000
2.000000 2.815789 0.000000
2.000000 2.855263 0.000000
2.000000 2.894737 0.000000
2.000000 2.934211 0.000000
2.000000 2.973684 0.000000
2.000000 3.013158 0.000000
2.000000 3.052632 0.000000
2.000000 3.092105 0.000000
2.000000 3.131579 0.000000
2.000000 3.171053 0.000000
2.000000 3.210526 0.000000
2.000000 3.250000 0.000000
2.000000 3.289474 0.000000
2.000000 3.328947 0.000000
2.000000 3.368421 0.000000
2.000000 3.407895 0.000000
2.000000 3.447368 0.000000
2.000000 3.486842 0.000000
2.000000 3.526316 0.000000
2.000000 3.565789 0.000000
2.000000 3.605263 0.000000
2.000000 3.644737 0.000000
2.000000 3.684211 0.000000
2.000000 3.723684 0.000000
2.000000 3.763158 0.000000
2.000000 3.802632 0.000000
2.000000 3.842105 0.000000
2.000000 3.881579 0.000000
2.000000 3.921053 0.000000
2.000000 3.960526 0.000000
1.960000 4.000000 0.000000
1.920000 4.000000 0.000000
1.880000 4.000000 0.000000
1.840000 4.000000 0.000000
1.800000 4.000000 0.000000
1.760000 4.000000 0.000000
1.720000 4.000000 0.000000
1.680000 4.000000 0.000000
1.640000 4.000000 0.000000
1.600000 4.000000 0.000000
1.560000 4.000000 0.000000
1.520000 4.000000 0.000000
1.480000 4.000000 0.000000
1.440000 4.000000 0.000000
1.400000 4.000000 0.000000
1.360000 4.000000 0.000000
1.320000 4.000000 0.000000
1.280000 4.000000 0.000000
1.240000 4.000000 0.000000
1.200000 4.000000 0.000000
1.160000 4.000000 0.000000
1.120000 4.000000 0.000000
1.080000 4.000000 0.000000
1.040000 4.000000 0.000000
1.000000 4.000000 0.000000
0.960000 4.000000 0.000000
0.920000 4.000000 0.000000
0.880000 4.000000 0.000000
0.840000 4.000000 0.000000
0.800000 4.000000 0.000000
0.760000 4.000000 0.000000
0.720000 4.000000 0.000000
0.680000 4.000000 0.000000
0.640000 4.000000 0.000000
0.600000 4.000000 0.000000
0.560000 4.000000 0.000000
0.520000 4.000000 0.000000
0.480000 4.000000 0.000000
0.440000 4.000000 0.000000
0.400000 4.000000 0.000000
0.360000 4.000000 0.000000
0.320000 4.000000 0.000000
0.280000 4.000000 0.000000
0.240000 4.000000 0.000000
0.200000 4.000000 0.000000
0.160000 4.000000 0.000000
0.120000 4.000000 0.000000
0.080000 4.000000 0.000000
0.040000 4.000000 0.000000
0.000000 3.960227 0.000000
0.000000 3.920455 0.000000
0.000000 3.880682 0.000000
0.000000 3.840909 0.000000
0.000000 3.801136 0.000000
0.000000 3.761364 0.000000
0.000000 3.721591 0.000000
0.000000 3.681818 0.000000
0.000000 3.642045 0.000000
0.000000 3.602273 0.000000
0.000000 3.562500 0.000000
0.000000 3.522727 0.000000
0.000000 3.482955 0.000000
0.000000 3.443182 0.000000
0.000000 3.403409 0.000000
0.000000 3.363636 0.000000
0.000000 3.323864 0.000000
0.000000 3.284091 0.000000
0.000000 3.244318 0.000000
0.000000 3.204545 0.000000
0.000000 3.164773 0.000000
0.000000 3.125000 0.000000
0.000000 3.085227 0.000000
0.000000 3.045455 0.000000
0.000000 3.005682 0.000000
0.000000 2.965909 0.000000
0.000000 2.926136 0.000000
0.000000 2.886364 0.000000
0.000000 2.846591 0.000000
0.000000 2.806818 0.000000
0.000000 2.767045 0.000000
0.000000 2.727273 0.000000
0.000000 2.687500 0.000000
0.000000 2.647727 0.000000
0.000000 2.607955 0.000000
0.000000 2.568182 0.000000
0.000000 2.528409 0.000000
0.000000 2.488636 0.000000
0.000000 2.448864 0.000000
0.000000 2.409091 0.000000
0.000000 2.369318 0.000000
0.000000 2.329545 0.000000
0.000000 2.289773 0.000000
0.000000 2.250000 0.000000
0.000000 2.210227 0.000000
0.000000 2.170455 0.000000
0.000000 2.130682 0.000000
0.000000 2.090909 0.000000
0.000000 2.051136 0.000000
0.000000 2.011364 0.000000
0.000000 1.971591 0.000000
0.000000 1.931818 0.000000
0.000000 1.892045 0.000000
0.000000 1.852273 0.000000
0.000000 1.812500 0.000000
0.000000 1.772727 0.000000
0.000000 1.732955 0.000000
0.000000 1.693182 0.000000
0.000000 1.653409 0.000000
0.000000 1.613636 0.000000
0.000000 1.573864 0.000000
0.000000 1.534091 0.000000
0.000000 1.494318 0.000000
0.000000 1.454545 0.000000
0.000000 1.414773 0.000000
0.000000 1.375000 0.000000
0.000000 1.335227 0.000000
0.000000 1.295455 0.000000
0.000000 1.255682 0.000000
0.000000 1.215909 0.000000
0.000000 1.176136 0.000000
0.000000 1.136364 0.000000
0.000000 1.096591 0.000000
0.000000 1.056818 0.000000
0.000000 1.017045 0.000000
0.000000 0.977273 0.000000
0.000000 0.937500 0.000000
0.000000 0.897727 0.000000
0.000000 0.857955 0.000000
0.000000 0.818182 0.000000
0.000000 0.778409 0.000000
0.000000 0.738636 0.000000
0.000000 0.698864 0.000000
0.000000 0.659091 0.000000
0.000000 0.619318 0.000000
0.000000 0.579545 0.000000
0.000000 0.539773 0.000000
0.000000 0.461538 0.000000
0.000000 0.423077 0.000000
0.000000 0.384615 0.000000
0.000000 0.346154 0.000000
0.000000 0.307692 0.000000
0.000000 0.269231 0.000000
0.000000 0.230769 0.000000
0.000000 0.192308 0.000000
0.000000 0.153846 0.000000
0.000000 0.115385 0.000000
0.000000 0.076923 0.000000
0.000000 0.038462 0.000000
0.027778 0.527778 0.000000
0.055556 0.555556 0.000000
0.083333 0.583333 0.000000
0.111111 0.611111 0.000000
0.138889 0.638889 0.000000
0.166667 0.666667 0.000000
0.194444 0.694444 0.000000
0.222222 0.722222 0.000000
0.250000 0.750000 0.000000
0.277778 0.777778 0.000000
0.305556 0.805556 0.000000
0.333333 0.833333 0.000000
0.361111 0.861111 0.000000
0.388889 0.888889 0.000000
0.416667 0.916667 0.000000
0.444444 0.944444 0.000000
0.472222 0.972222 0.000000
0.500000 1.000000 0.000000
0.527778 1.027778 0.000000
0.555556 1.055556 0.000000
0.583333 1.083333 0.000000
0.611111 1.111111 0.000000
0.638889 1.138889 0.000000
0.666667 1.166667 0.000000
0.694444 1.194444 0.000000
0.722222 1.222222 0.000000
0.750000 1.250000 0.000000
0.777778 1.277778 0.000000
0.805556 1.305556 0.000000
0.833333 1.333333 0.000000
0.861111 1.361111 0.000000
0.888889 1.388889 0.000000
0.916667 1.416667 0.000000
0.944444 1.444444 0.000000
0.972222 1.472222 0.000000
1.000000 1.500000 0.000000
1.027778 1.527778 0.000000
1.055556 1.555556 0.000000
1.083333 1.583333 0.000000
1.111111 1.611111 0.000000
1.138889 1.638889 0.000000
1.166667 1.666667 0.000000
1.194444 1.694444 0.000000
1.222222 1.722222 0.000000
1.250000 1.750000 0.000000
1.277778 1.777778 0.000000
1.305556 1.805556 0.000000
1.333333 1.833333 0.000000
1.361111 1.861111 0.000000
1.388889 1.888889 0.000000
1.416667 1.916667 0.000000
1.444444 1.944444 0.000000
1.472222 1.972222 0.000000
1.527778 2.027778 0.000000
1.555556 2.055556 0.000000
1.583333 2.083333 0.000000
1.611111 2.111111 0.000000
1.638889 2.138889 0.000000
1.666667 2.166667 0.000000
1.694444 2.194444 0.000000
1.722222 2.222222 0.000000
1.750000 2.250000 0.000000
1.777778 2.277778 0.000000
1.805556 2.305556 0.000000
[...]
POINT_DATA 6577
SCALARS UX float 1
LOOKUP_TABLE default
-0.000013
0.000049
-0.002048
-0.173821
-0.091026
-0.013698
0.015053
0.000000
-0.000001
-0.000001
0.000001
0.000002
-0.000008
0.000001
0.000001
0.000002
-0.000000
0.000001
-0.000000
0.000001
0.000001
-0.000000
0.000001
0.000001
0.000001
0.000000
-0.000000
-0.000001
0.000001
-0.000000
0.000001
0.000000
0.000000
-0.000000
0.000000
0.000000
-0.000000
0.000000
0.000001
-0.000001
0.000001
0.000000
-0.000001
0.000001
0.000001
-0.000001
-0.000002
-0.000000
-0.000000
-0.000003
0.000003
-0.000004
0.000004
0.000004
-0.000020
0.000014
0.016927
0.026055
0.032836
0.039439
0.045335
0.048870
0.053941
0.058129
0.061493
0.064878
0.068209
0.070685
0.073355
0.075126
0.076718
0.079196
0.081595
0.082168
0.083242
0.084807
0.085880
0.086986
0.088434
0.088953
0.089095
0.089395
0.090137
0.090208
0.091069
0.090929
0.090674
0.090568
0.090289
0.089821
0.088904
0.089893
0.089201
0.089435
0.088049
0.086814
0.085723
0.084525
0.082758
0.081392
0.078502
0.075880
0.072553
0.068909
0.065024
0.060992
0.057624
0.052847
0.048215
0.044481
0.039384
0.034711
0.030238
0.027830
0.025377
0.021927
0.019288
0.017823
0.013406
0.010812
0.009465
0.008326
0.007432
0.006723
0.005329
0.005086
0.004762
0.004780
0.003990
0.002947
0.002042
0.001859
0.001915
0.001229
0.000955
0.000062
-0.000004
-0.000433
-0.001769
-0.001403
-0.001861
-0.001035
-0.001687
-0.001558
-0.002225
-0.001963
-0.002079
-0.002403
-0.001668
-0.001962
-0.002391
-0.001739
-0.002212
-0.001916
-0.001501
-0.005996
-0.009517
-0.013339
-0.016764
-0.020412
-0.023895
-0.027461
-0.031320
-0.035098
-0.038713
-0.042049
-0.045952
-0.049583
-0.052931
-0.056690
-0.059723
-0.063297
-0.066449
-0.070127
-0.073677
-0.077003
-0.080463
-0.083746
-0.087343
-0.090687
-0.093932
-0.097131
-0.100619
-0.104006
-0.107432
-0.110756
-0.113970
-0.117205
-0.120533
-0.123868
-0.127658
-0.130920
-0.134380
-0.137277
-0.140787
-0.143837
-0.146923
-0.150072
-0.153618
-0.157252
-0.160382
-0.163848
-0.166858
-0.170257
-0.173312
-0.173521
-0.173197
-0.173484
-0.172795
-0.172213
-0.172669
-0.171775
-0.172163
-0.171634
-0.170504
-0.170557
-0.169894
-0.169354
-0.169171
-0.168402
-0.168678
-0.167800
-0.167631
-0.167262
-0.166261
-0.166370
-0.166256
-0.165255
-0.164873
-0.164010
-0.163655
-0.163230
-0.162917
-0.162401
-0.161426
-0.161192
-0.160983
-0.160747
-0.159966
-0.159258
-0.158906
-0.157995
-0.157810
-0.157913
-0.158133
-0.157641
-0.157491
-0.158293
-0.158015
-0.157843
-0.158553
-0.157701
-0.158639
-0.157640
-0.157737
-0.157951
-0.157848
-0.157984
-0.159180
-0.159323
-0.159174
-0.159452
-0.160337
-0.159839
-0.160258
-0.161810
-0.162235
-0.163514
-0.164678
-0.166187
-0.166106
-0.167714
-0.169018
-0.169457
-0.170273
-0.170936
-0.172041
-0.172251
-0.172325
-0.171313
-0.170272
-0.167754
-0.164523
-0.160142
-0.156001
-0.152673
-0.149534
-0.146835
-0.135249
-0.123211
-0.103527
-0.059190
-0.059513
-0.056197
-0.052811
-0.050193
-0.047633
-0.044677
-0.039748
-0.034573
-0.030715
-0.023315
-0.015265
-0.081315
-0.084008
-0.082792
-0.095621
-0.088564
-0.056283
-0.090372
-0.071501
-0.076581
-0.083017
-0.076654
-0.092881
-0.081227
-0.074780
-0.056597
-0.061971
-0.060154
-0.060940
-0.055749
-0.065518
-0.084900
-0.068874
-0.062000
-0.075777
-0.069380
-0.073449
-0.039881
-0.053101
-0.055977
-0.066064
-0.045154
-0.056335
-0.043906
-0.038828
-0.069590
-0.047333
-0.041437
-0.038255
-0.041187
-0.037211
-0.031219
-0.031512
-0.014894
-0.026410
-0.030293
-0.022101
-0.017685
-0.015981
-0.022608
-0.022964
-0.007779
-0.013613
-0.010921
-0.006235
-0.003640
-0.001910
0.000455
0.001801
0.001519
0.002427
0.003518
0.004389
0.005265
0.006148
0.006371
0.007628
0.008551
0.009440
0.011821
0.013085
0.008455
0.007059
-0.171322
-0.171353
-0.005668
-0.004688
0.010474
0.010299
0.006509
0.003342
0.002309
-0.035128
-0.037600
-0.038446
-0.064158
-0.062650
-0.060426
-0.040276
-0.126153
-0.123115
-0.123875
-0.045040
-0.042594
-0.041818
-0.156970
-0.158435
-0.155423
-0.159598
-0.163103
-0.161770
-0.045128
-0.021823
-0.019375
-0.020266
-0.045024
-0.047943
-0.044369
-0.156235
-0.155094
-0.152969
-0.126498
-0.055567
-0.055703
-0.059157
-0.058416
-0.060626
-0.061942
-0.047997
-0.047233
-0.050448
-0.048565
-0.129238
-0.132098
-0.130890
-0.131213
-0.127288
-0.130862
-0.128201
-0.131619
-0.051897
-0.048065
-0.050589
-0.058971
-0.085093
-0.084968
-0.082337
0.001507
0.002725
-0.081522
-0.139765
-0.140579
-0.136606
-0.143702
-0.133032
-0.132685
-0.129623
-0.085915
-0.088540
-0.088903
-0.086380
-0.031690
-0.030473
-0.026893
-0.027863
-0.121388
-0.124785
-0.124805
-0.121960
-0.065300
-0.062030
-0.064316
-0.124811
-0.120984
-0.122066
0.000135
0.003626
0.000073
0.003138
0.000810
0.003196
-0.000773
-0.132762
-0.135714
-0.135470
-0.039842
-0.043426
-0.042489
-0.046099
-0.063713
-0.159436
-0.162173
-0.159765
-0.101276
-0.098753
-0.098856
-0.102840
-0.137686
-0.140343
-0.137431
-0.140122
-0.128989
-0.127295
-0.130669
-0.088592
-0.089322
-0.091998
-0.022456
-0.025378
-0.024768
-0.021381
-0.015884
-0.014043
0.002644
-0.094310
-0.092655
-0.095560
-0.096522
-0.098170
-0.099253
-0.123793
-0.120400
-0.129055
-0.129825
-0.126521
-0.146318
-0.145312
-0.144690
-0.131471
-0.086832
-0.089877
-0.086270
-0.153422
-0.152186
-0.154732
-0.126887
-0.105891
-0.105077
-0.107931
-0.089260
-0.086436
-0.089644
-0.130855
-0.134367
-0.143031
-0.016397
-0.011983
-0.016158
-0.010388
-0.050609
-0.052644
-0.052843
-0.055608
0.003214
0.004800
-0.080454
-0.078278
-0.080645
-0.076499
-0.155583
-0.158505
-0.157229
-0.095877
-0.092984
-0.095164
-0.097944
-0.101569
-0.098182
-0.093537
-0.160732
-0.122940
-0.119326
-0.121279
-0.118869
-0.121363
-0.122154
-0.124987
-0.121904
-0.158230
-0.157885
-0.103687
-0.102055
-0.105756
-0.156692
-0.157524
-0.077184
-0.076008
-0.079787
-0.146980
-0.149434
-0.146953
-0.154796
-0.152017
-0.151452
-0.140227
-0.143978
-0.141955
-0.149361
-0.136156
-0.139728
-0.137689
-0.073462
-0.075039
-0.052271
-0.074684
-0.158635
-0.161913
-0.160370
-0.163439
-0.169028
-0.168972
-0.007365
-0.007616
-0.040621
-0.040543
-0.036798
-0.043384
-0.113481
-0.113493
-0.110851
-0.133006
-0.135800
-0.135064
-0.110163
-0.044948
-0.043101
-0.045545
-0.137023
-0.139083
-0.163752
-0.163957
-0.162218
-0.081855
-0.079634
-0.007683
-0.006749
-0.003282
-0.002016
-0.139503
-0.142650
-0.142269
-0.145240
-0.159881
-0.156507
-0.159905
-0.155361
-0.145536
-0.147884
-0.144229
-0.152486
-0.151182
-0.165993
-0.167022
-0.168679
-0.145817
-0.146324
-0.152073
-0.154979
-0.152004
-0.138617
-0.137338
-0.015018
-0.011159
-0.141130
-0.145334
-0.143638
-0.162074
-0.129626
-0.132947
-0.130081
-0.147835
-0.145988
-0.027546
-0.029584
-0.031013
-0.026040
-0.041430
-0.038204
-0.039731
-0.092984
-0.094368
-0.095448
-0.078174
-0.077377
-0.025829
-0.023190
-0.024424
-0.091194
-0.081725
-0.083272
-0.084373
-0.158254
-0.161982
-0.158537
-0.139795
-0.140369
-0.137860
-0.035110
-0.142259
-0.145952
-0.142193
-0.134111
-0.133444
-0.137971
-0.137551
-0.143833
-0.032387
-0.136807
-0.108135
-0.128443
-0.131485
-0.130148
-0.129807
-0.129491
-0.154883
-0.155585
-0.150328
-0.159241
-0.133895
-0.133002
-0.135626
-0.009950
-0.009025
-0.133949
-0.135257
-0.134816
-0.130507
-0.130666
-0.124351
-0.170817
-0.157563
-0.154667
-0.156137
-0.152863
-0.154297
-0.005307
-0.118056
-0.115631
-0.167506
-0.166476
-0.127245
-0.126843
-0.009981
-0.008640
-0.086751
-0.083349
-0.142034
-0.052554
-0.051219
-0.050176
-0.048497
-0.151555
-0.149011
-0.128359
-0.131198
-0.128260
-0.143734
-0.146001
-0.148280
-0.141169
-0.158662
-0.131455
-0.018132
-0.105563
-0.109073
-0.107252
-0.159276
-0.158062
-0.153932
-0.162700
-0.165871
-0.163301
-0.160132
-0.162081
-0.110486
-0.109265
-0.015156
-0.013226
-0.013570
-0.134474
-0.119671
-0.076638
-0.073195
-0.163545
-0.163323
-0.161664
-0.118761
-0.116214
-0.141413
-0.151150
-0.152489
-0.129273
-0.125404
-0.136319
-0.139225
-0.028113
-0.028592
-0.025003
-0.142718
-0.145940
-0.157489
-0.155829
-0.150276
-0.161244
-0.116336
-0.083690
-0.082829
-0.153401
-0.170145
-0.159526
-0.155874
-0.165358
-0.165578
-0.164844
-0.055013
-0.055020
-0.051242
-0.131325
-0.005037
-0.010384
-0.007224
-0.011612
-0.150293
-0.150972
-0.153520
-0.143323
-0.133514
-0.132643
-0.124418
-0.125908
-0.126579
-0.127739
-0.128604
-0.163099
-0.137158
-0.136779
-0.133685
-0.020735
-0.140171
-0.140750
-0.142825
-0.156905
-0.052329
-0.017868
-0.017468
-0.014178
-0.160678
-0.157500
-0.167303
-0.159681
-0.159760
-0.162363
-0.148235
-0.150221
-0.154146
-0.140938
-0.164400
-0.030599
-0.031619
-0.120480
-0.124575
-0.051692
-0.005164
-0.001156
-0.000624
-0.169251
-0.167819
-0.164542
-0.162963
-0.008564
-0.005704
-0.032859
-0.030520
-0.032591
-0.035482
-0.146704
-0.146319
-0.143361
-0.124110
-0.011983
-0.013733
-0.160943
-0.156925
-0.168406
-0.146472
-0.149752
-0.153577
-0.146686
-0.123754
-0.021093
-0.024194
-0.036166
-0.157206
-0.153792
-0.063647
-0.061608
-0.064648
-0.164155
-0.020612
-0.017256
-0.156790
-0.159886
-0.157013
-0.167164
-0.140774
-0.154658
0.006793
0.002405
-0.146994
-0.068097
-0.030942
-0.034756
-0.031461
-0.145782
-0.148496
-0.152909
-0.142627
-0.029655
-0.026940
-0.029004
-0.166118
-0.062636
-0.034674
-0.162647
-0.160958
-0.167614
-0.009558
-0.007136
-0.077908
-0.075518
-0.075060
-0.013253
-0.015648
-0.163799
-0.078217
-0.077143
-0.010458
-0.006932
-0.011480
-0.146675
-0.149884
-0.147669
-0.150710
-0.029902
-0.111969
0.000404
0.004988
-0.026591
-0.133797
-0.137006
-0.165189
-0.144182
-0.141126
-0.144602
-0.146781
-0.150824
-0.140377
-0.023797
-0.004638
-0.056558
-0.053766
-0.054172
-0.153962
-0.055574
-0.109994
-0.108078
-0.112119
-0.023683
-0.019526
-0.027198
-0.154231
-0.157167
-0.151123
-0.156017
-0.162781
-0.158756
-0.047264
-0.046767
-0.043467
-0.049798
-0.025331
-0.152913
-0.148127
-0.144002
-0.151197
-0.021750
-0.145826
-0.146405
-0.143502
-0.145496
-0.149399
-0.144642
-0.143566
-0.129074
-0.002353
-0.013894
-0.014633
-0.011710
-0.079773
-0.082564
-0.079086
-0.080731
-0.003425
-0.019977
-0.021645
-0.163829
-0.149336
-0.069304
-0.069280
-0.066278
-0.160795
-0.159546
-0.166542
-0.011335
-0.130879
-0.130561
-0.015461
-0.017174
-0.007523
-0.068345
-0.070785
-0.065283
-0.065172
-0.068680
-0.125513
-0.125603
-0.125056
-0.066366
-0.120661
-0.027473
-0.122105
-0.121437
-0.138307
-0.151150
-0.033813
-0.153358
-0.050071
-0.046719
-0.050006
-0.026003
-0.046744
-0.030689
-0.152214
-0.052641
-0.049208
-0.147923
-0.052333
-0.091677
-0.091635
-0.094020
-0.134613
-0.002915
-0.145788
-0.095379
-0.091789
-0.094275
-0.089271
-0.076885
-0.075849
-0.079108
-0.062265
-0.058536
-0.132178
-0.135415
-0.164635
-0.162910
-0.160676
-0.077820
-0.155885
-0.155333
-0.139197
-0.142607
-0.064698
-0.061166
-0.155418
-0.158521
-0.147258
-0.150165
-0.158457
-0.160905
-0.157278
-0.010983
-0.012464
-0.010262
-0.013603
-0.127700
-0.000023
-0.000854
-0.003833
-0.129277
-0.128071
-0.124162
-0.122883
-0.003631
-0.068632
-0.065812
-0.068232
-0.122421
-0.113121
-0.115372
-0.028213
-0.163480
-0.160702
-0.160564
-0.119721
-0.119454
-0.115112
-0.159293
-0.090634
-0.090079
-0.086862
-0.154442
-0.156994
-0.136049
-0.117375
-0.068626
-0.072195
-0.042141
-0.045346
-0.042868
-0.072913
-0.126385
-0.126294
-0.128904
-0.123279
-0.017311
-0.016011
-0.006352
-0.002004
-0.077497
-0.079727
-0.080236
-0.018440
-0.021697
-0.019057
-0.083638
-0.066528
-0.059002
-0.062189
-0.059534
-0.148475
-0.151759
-0.152719
-0.130161
-0.133162
-0.055935
-0.053153
-0.056238
-0.135103
-0.133079
-0.136215
-0.152498
-0.144044
-0.137479
-0.140894
-0.145750
-0.148995
-0.154248
-0.092710
-0.089361
-0.091846
-0.127295
-0.125575
-0.125130
-0.147092
-0.148811
-0.149380
-0.164043
-0.166284
-0.167172
-0.163368
-0.122113
-0.121094
-0.129367
-0.133064
-0.146680
-0.145639
-0.143282
-0.120460
-0.166076
-0.152128
-0.155457
-0.150838
-0.118136
-0.004497
-0.117458
-0.134384
-0.128210
-0.131179
-0.024170
-0.024571
-0.026516
-0.145416
-0.148886
-0.136097
-0.139325
-0.142814
-0.160107
-0.147407
-0.148505
-0.149905
-0.146052
-0.144869
-0.148209
-0.003959
-0.005536
-0.007062
-0.010698
-0.124998
-0.123655
-0.122887
-0.120341
-0.119741
-0.156634
-0.155565
-0.095903
-0.092160
-0.092868
-0.093822
-0.063172
-0.059567
-0.061686
-0.030151
-0.118546
-0.115813
-0.115249
-0.132696
-0.126170
-0.129640
-0.148634
-0.068285
-0.071174
-0.068717
-0.060745
-0.134486
-0.137658
-0.140783
-0.142992
-0.147270
-0.154543
-0.123610
-0.122167
-0.052577
-0.049901
-0.051464
-0.050103
-0.120712
-0.152031
-0.149552
-0.027932
-0.025430
-0.028175
-0.063844
-0.014209
-0.017411
-0.013911
-0.010449
-0.136645
-0.138870
-0.117956
-0.117363
-0.012073
-0.007656
-0.012206
-0.141561
-0.145333
-0.141856
-0.162440
-0.161351
-0.052400
-0.053800
-0.052123
-0.128771
-0.130299
-0.127619
-0.130267
-0.124881
-0.127875
-0.131212
-0.055027
-0.133154
-0.135761
-0.145594
-0.144302
-0.048271
-0.075173
-0.044512
-0.045678
-0.041239
-0.139338
-0.047725
-0.046388
-0.141569
-0.145587
-0.121684
-0.120317
-0.040603
-0.039545
-0.044082
-0.138537
-0.138022
-0.135019
-0.048874
-0.015142
-0.013433
-0.141787
-0.035794
-0.033460
-0.119185
-0.037890
-0.125645
-0.115612
-0.115233
-0.102824
-0.099177
-0.103369
-0.066027
-0.065049
-0.070820
-0.068899
-0.071679
-0.067353
-0.084092
-0.084123
-0.086896
-0.085941
-0.141067
-0.132427
-0.133795
-0.136745
-0.021897
-0.023282
-0.026872
-0.146576
-0.041171
-0.043289
-0.123199
-0.126540
-0.088230
-0.088373
-0.091237
-0.090650
-0.129594
-0.053731
-0.052541
-0.132531
-0.136442
-0.069760
-0.029801
-0.026945
-0.027488
-0.038566
-0.038282
-0.158718
-0.139124
-0.139483
-0.119877
-0.118324
-0.048557
-0.144284
-0.142353
-0.031043
-0.034978
-0.030913
-0.116747
-0.047378
-0.046719
-0.113640
-0.112613
-0.152787
-0.149632
-0.147060
-0.129422
-0.133234
-0.133149
-0.158703
-0.153602
-0.092468
-0.088527
-0.089703
-0.120990
-0.124649
-0.144146
-0.141965
-0.028711
-0.128450
-0.106754
-0.104775
-0.108227
-0.106564
-0.033808
-0.083133
-0.084447
-0.086248
-0.139080
-0.136585
-0.139351
-0.136128
-0.038283
-0.040849
-0.037798
-0.041270
-0.131286
-0.134937
-0.124521
-0.126668
-0.049283
-0.050717
-0.086031
-0.087694
-0.153649
-0.010254
-0.012865
-0.013676
-0.017287
-0.083791
-0.084402
-0.086422
-0.056407
-0.059505
-0.056015
-0.004751
-0.004893
-0.007644
-0.128682
-0.131432
-0.130764
-0.117892
-0.116643
-0.043925
-0.040709
-0.041852
-0.060645
-0.004529
-0.007742
-0.115212
-0.111272
-0.110251
-0.122342
-0.119194
-0.118224
-0.116102
-0.119322
-0.122971
-0.046858
-0.050025
-0.047038
-0.064933
-0.059421
-0.058881
-0.126968
-0.129814
-0.133615
-0.116151
-0.114471
-0.057626
-0.084632
-0.087359
-0.084096
-0.113155
-0.087945
-0.045607
-0.048173
-0.048462
-0.109200
-0.107527
-0.117966
-0.121569
-0.124959
-0.123425
-0.125302
-0.127946
-0.131324
-0.007163
-0.010149
-0.014952
-0.011437
-0.152836
-0.154638
-0.151516
-0.114066
-0.112645
-0.116615
-0.114800
-0.116313
-0.008430
-0.012034
-0.010652
-0.009084
-0.013719
-0.016242
-0.017465
-0.051059
-0.110907
-0.107315
-0.105205
-0.042743
-0.039280
-0.062317
-0.059394
-0.061708
-0.059777
-0.116435
-0.120412
-0.124389
-0.119089
-0.126423
-0.129682
-0.113034
-0.111065
-0.043411
-0.043927
-0.040348
-0.015798
-0.015972
-0.019535
-0.046777
-0.047417
-0.088121
-0.086218
-0.107213
-0.109247
-0.133866
-0.134453
-0.136641
-0.109328
-0.104984
-0.103321
-0.087113
-0.138850
-0.139087
-0.141102
-0.012294
-0.007548
-0.115168
-0.118605
-0.044918
-0.055789
-0.054625
-0.058127
-0.122676
-0.124818
-0.057473
-0.061048
-0.139254
-0.140682
-0.035799
-0.036815
-0.066546
-0.110842
-0.108798
-0.126958
-0.117774
-0.115055
-0.117239
-0.107098
-0.103885
-0.149094
-0.152537
-0.113833
-0.117166
-0.036092
-0.146457
-0.149289
-0.142696
-0.152450
-0.149380
-0.110205
-0.106921
-0.018866
-0.080420
-0.087721
-0.136039
-0.082311
-0.081608
-0.084074
-0.105202
-0.102105
-0.081964
-0.078376
-0.141188
-0.137866
-0.137452
-0.113031
-0.116528
-0.081481
-0.033680
-0.037357
-0.096284
-0.096954
-0.094477
-0.039487
-0.154532
-0.074489
-0.090386
-0.093606
-0.092950
-0.074986
-0.131999
-0.135603
-0.093680
-0.087579
-0.095385
-0.091034
-0.125030
-0.125708
-0.122788
-0.093157
-0.095422
-0.109569
-0.106430
-0.131642
-0.103497
-0.099635
-0.111604
-0.115522
-0.122291
-0.124508
-0.149275
-0.025344
-0.019030
-0.026810
-0.031340
-0.019562
-0.017128
-0.016285
-0.142632
-0.087713
-0.089232
-0.086353
-0.089435
-0.086323
-0.136567
-0.136659
-0.133391
-0.074805
-0.073884
-0.076902
-0.003317
-0.001774
-0.005175
-0.109505
-0.072491
-0.101716
-0.101464
-0.104252
-0.103570
-0.096264
-0.098863
-0.097355
-0.095818
-0.053438
-0.161429
-0.164406
-0.162172
-0.040665
-0.040650
-0.043583
-0.101189
-0.051707
-0.054661
-0.051695
-0.055096
-0.057329
-0.106537
-0.021811
-0.018372
-0.017623
-0.073419
-0.151166
-0.148074
-0.149396
-0.149780
-0.022662
-0.086279
-0.083473
-0.082848
-0.086216
-0.049176
-0.051115
-0.048947
-0.004350
-0.052437
-0.137674
-0.139831
-0.139729
-0.142696
-0.158262
-0.154780
-0.144160
-0.142107
-0.138467
-0.154835
-0.063878
-0.127062
-0.129868
-0.127265
-0.128724
-0.124191
-0.121487
-0.121985
-0.124545
-0.125012
-0.127546
-0.124896
-0.127364
-0.105679
-0.103281
-0.105842
-0.049092
-0.053018
-0.017440
-0.013014
-0.015196
-0.015624
-0.013852
-0.017014
-0.109170
-0.111949
-0.109379
-0.113260
-0.102702
-0.157841
-0.158713
-0.160973
-0.037988
-0.040359
-0.160916
-0.088073
-0.053096
-0.054236
-0.050257
-0.053270
-0.049916
-0.096304
-0.099445
-0.037978
-0.141631
-0.138413
-0.139750
-0.137218
-0.149019
-0.008192
-0.008505
-0.076832
-0.022594
-0.023146
-0.025008
-0.030222
-0.026235
-0.027644
-0.020283
-0.068352
-0.066693
-0.069403
-0.066849
-0.037888
-0.074995
-0.077937
-0.077565
-0.135450
-0.132809
-0.088957
-0.090621
-0.092641
-0.093371
-0.134678
-0.136493
-0.133828
-0.136720
-0.138611
-0.058713
-0.061192
-0.109066
-0.107942
-0.106109
-0.110010
-0.112425
-0.114039
-0.115017
-0.109891
-0.110899
-0.108054
-0.112581
-0.099460
-0.096021
-0.024558
-0.028921
-0.023017
-0.065337
-0.067574
-0.069268
-0.085452
-0.065131
-0.019022
-0.021935
-0.130065
-0.133841
-0.130967
-0.132762
-0.103452
-0.055240
-0.055304
-0.066790
-0.070058
-0.071496
-0.149495
-0.150449
-0.146045
-0.148308
-0.145118
-0.043006
-0.114725
-0.110427
-0.009392
-0.007163
-0.006385
-0.010812
-0.013162
-0.079953
-0.081429
-0.092629
-0.095892
-0.093789
-0.084439
-0.081497
-0.083961
-0.087407
-0.080827
-0.069084
-0.070427
-0.066859
-0.134350
-0.068326
-0.132622
-0.073186
-0.071060
-0.075784
-0.048231
-0.046414
-0.045940
-0.098438
-0.097590
-0.095363
-0.101096
-0.098961
-0.101495
-0.055726
-0.053259
-0.052053
-0.083555
-0.083394
-0.080270
-0.081712
-0.090527
-0.153796
-0.151346
-0.039281
-0.041041
-0.043413
-0.039982
-0.131064
-0.129970
-0.122853
-0.125070
-0.059224
-0.135780
-0.134139
-0.137477
-0.138995
-0.140362
-0.142408
-0.129982
-0.132673
-0.128936
-0.119619
-0.122580
-0.128276
-0.106778
-0.109811
-0.109575
-0.112583
-0.114764
-0.116768
-0.114410
-0.118430
-0.018127
-0.020989
-0.136585
-0.010558
-0.021041
-0.023055
-0.025378
-0.026519
-0.028599
-0.138379
-0.137236
-0.139276
-0.151761
-0.149699
-0.152723
-0.067151
-0.066172
-0.069322
-0.113681
-0.116352
-0.083920
-0.080774
-0.110508
-0.112224
-0.110522
-0.031577
-0.034843
-0.031909
-0.035452
-0.103169
-0.106733
-0.104428
-0.105187
-0.075372
-0.072490
-0.070501
-0.078623
-0.077515
-0.079597
-0.148475
-0.027687
-0.025566
-0.028221
-0.025188
-0.030201
-0.026429
-0.059104
-0.057778
-0.057650
-0.060397
-0.057957
-0.108703
-0.110024
-0.108012
-0.107343
-0.112119
-0.109803
-0.035489
-0.034568
-0.112859
-0.114478
-0.115329
-0.002412
-0.007738
-0.117355
-0.059216
-0.061137
-0.060476
-0.110945
-0.019344
-0.031259
-0.029101
-0.031382
-0.035243
-0.032414
-0.031868
-0.015919
-0.018710
-0.016476
-0.013712
-0.132580
-0.130818
-0.076565
-0.075293
-0.073761
-0.079296
-0.071404
-0.071914
-0.069540
-0.144876
-0.145747
-0.146259
-0.050510
-0.049914
-0.053511
-0.090910
-0.093286
-0.154616
-0.154758
-0.089017
-0.118038
-0.116366
-0.118693
-0.117612
-0.115107
-0.114855
-0.112993
-0.155252
-0.154528
-0.157140
-0.152579
-0.156272
-0.154204
-0.161044
-0.159553
-0.162874
-0.160189
-0.099785
-0.099265
-0.065527
-0.101182
-0.097106
-0.146616
-0.149428
-0.119998
-0.117058
-0.122998
-0.120411
-0.151342
-0.152474
-0.147426