# vtk DataFile Version 2.0
Test
ASCII
DATASET POLYDATA
POINTS 6577 float
0.000000 0.000000 0.000000
2.000000 0.000000 0.000000
2.000000 4.000000 0.000000
0.000000 4.000000 0.000000
0.000000 0.500000 0.000000
1.500000 2.000000 0.000000
2.000000 2.500000 0.000000
0.040000 0.000000 0.000000
0.080000 0.000000 0.000000
0.120000 0.000000 0.000000
0.160000 0.000000 0.000000
0.200000 0.000000 0.000000
0.240000 0.000000 0.000000
0.280000 0.000000 0.000000
0.320000 0.000000 0.000000
0.360000 0.000000 0.000000
0.400000 0.000000 0.000000
0.440000 0.000000 0.000000
0.480000 0.000000 0.000000
0.520000 0.000000 0.000000
0.560000 0.000000 0.000000
0.600000 0.000000 0.000000
0.640000 0.000000 0.000000
0.680000 0.000000 0.000000
0.720000 0.000000 0.000000
0.760000 0.000000 0.000000
0.800000 0.000000 0.000000
0.840000 0.000000 0.000000
0.880000 0.000000 0.000000
0.920000 0.000000 0.000000
0.960000 0.000000 0.000000
1.000000 0.000000 0.000000
1.040000 0.000000 0.000000
1.080000 0.000000 0.000000
1.120000 0.000000 0.000000
1.160000 0.000000 0.000000
1.200000 0.000000 0.000000
1.240000 0.000000 0.000000
1.280000 0.000000 0.000000
1.320000 0.000000 0.000000
1.360000 0.000000 0.000000
1.400000 0.000000 0.000000
1.440000 0.000000 0.000000
1.480000 0.000000 0.000000
1.520000 0.000000 0.000000
1.560000 0.000000 0.000000
1.600000 0.000000 0.000000
1.640000 0.000000 0.000000
1.680000 0.000000 0.000000
1.720000 0.000000 0.000000
1.760000 0.000000 0.000000
1.800000 0.000000 0.000000
1.840000 0.000000 0.000000
1.880000 0.000000 0.000000
1.920000 0.000000 0.000000
1.960000 0.000000 0.000000
2.000000 0.039683 0.000000
2.000000 0.079365 0.000000
2.000000 0.119048 0.000000
2.000000 0.158730 0.000000
2.000000 0.198413 0.000000
2.000000 0.238095 0.000000
2.000000 0.277778 0.000000
2.000000 0.317460 0.000000
2.000000 0.357143 0.000000
2.000000 0.396825 0.000000
2.000000 0.436508 0.000000
2.000000 0.476190 0.000000
2.000000 0.515873 0.000000
2.000000 0.555556 0.000000
2.000000 0.595238 0.000000
2.000000 0.634921 0.000000
2.000000 0.674603 0.000000
2.000000 0.714286 0.000000
2.000000 0.753968 0.000000
2.000000 0.793651 0.000000
2.000000 0.833333 0.000000
2.000000 0.873016 0.000000
2.000000 0.912698 0.000000
2.000000 0.952381 0.000000
2.000000 0.992063 0.000000
2.000000 1.031746 0.000000
2.000000 1.071429 0.000000
2.000000 1.111111 0.000000
2.000000 1.150794 0.000000
2.000000 1.190476 0.000000
2.000000 1.230159 0.000000
2.000000 1.269841 0.000000
2.000000 1.309524 0.000000
2.000000 1.349206 0.000000
2.000000 1.388889 0.000000
2.000000 1.428571 0.000000
2.000000 1.468254 0.000000
2.000000 1.507937 0.000000
2.000000 1.547619 0.000000
2.000000 1.587302 0.000000
2.000000 1.626984 0.000000
2.000000 1.666667 0.000000
2.000000 1.706349 0.000000
2.000000 1.746032 0.000000
2.000000 1.785714 0.000000
2.000000 1.825397 0.000000
2.000000 1.865079 0.000000
2.000000 1.904762 0.000000
2.000000 1.944444 0.000000
2.000000 1.984127 0.000000
2.000000 2.023810 0.000000
2.000000 2.063492 0.000000
2.000000 2.103175 0.000000
2.000000 2.142857 0.000000
2.000000 2.182540 0.000000
2.000000 2.222222 0.000000
2.000000 2.261905 0.000000
2.000000 2.301587 0.000000
2.000000 2.341270 0.000000
2.000000 2.380952 0.000000
2.000000 2.420635 0.000000
2.000000 2.460317 0.000000
2.000000 2.539474 0.000000
2.000000 2.578947 0.000000
2.000000 2.618421 0.000000
2.000000 2.657895 0.000000
2.000000 2.697368 0.000000
2.000000 2.736842 0.000000
2.000000 2.776316 0.000000
2.000000 2.815789 0.000000
2.000000 2.855263 0.000000
2.000000 2.894737 0.000000
2.000000 2.934211 0.000000
2.000000 2.973684 0.000000
2.000000 3.013158 0.000000
2.000000 3.052632 0.000000
2.000000 3.092105 0.000000
2.000000 3.131579 0.000000
2.000000 3.171053 0.000000
2.000000 3.210526 0.000000
2.000000 3.250000 0.000000
2.000000 3.289474 0.000000
2.000000 3.328947 0.000000
2.000000 3.368421 0.000000
2.000000 3.407895 0.000000
2.000000 3.447368 0.000000
2.000000 3.486842 0.000000
2.000000 3.526316 0.000000
2.000000 3.565789 0.000000
2.000000 3.605263 0.000000
2.000000 3.644737 0.000000
2.000000 3.684211 0.000000
2.000000 3.723684 0.000000
2.000000 3.763158 0.000000
2.000000 3.802632 0.000000
2.000000 3.842105 0.000000
2.000000 3.881579 0.000000
2.000000 3.921053 0.000000
2.000000 3.960526 0.000000
1.960000 4.000000 0.000000
1.920000 4.000000 0.000000
1.880000 4.000000 0.000000
1.840000 4.000000 0.000000
1.800000 4.000000 0.000000
1.760000 4.000000 0.000000
1.720000 4.000000 0.000000
1.680000 4.000000 0.000000
1.640000 4.000000 0.000000
1.600000 4.000000 0.000000
1.560000 4.000000 0.000000
1.520000 4.000000 0.000000
1.480000 4.000000 0.000000
1.440000 4.000000 0.000000
1.400000 4.000000 0.000000
1.360000 4.000000 0.000000
1.320000 4.000000 0.000000
1.280000 4.000000 0.000000
1.240000 4.000000 0.000000
1.200000 4.000000 0.000000
1.160000 4.000000 0.000000
1.120000 4.000000 0.000000
1.080000 4.000000 0.000000
1.040000 4.000000 0.000000
1.000000 4.000000 0.000000
0.960000 4.000000 0.000000
0.920000 4.000000 0.000000
0.880000 4.000000 0.000000
0.840000 4.000000 0.000000
0.800000 4.000000 0.000000
0.760000 4.000000 0.000000
0.720000 4.000000 0.000000
0.680000 4.000000 0.000000
0.640000 4.000000 0.000000
0.600000 4.000000 0.000000
0.560000 4.000000 0.000000
0.520000 4.000000 0.000000
0.480000 4.000000 0.000000
0.440000 4.000000 0.000000
0.400000 4.000000 0.000000
0.360000 4.000000 0.000000
0.320000 4.000000 0.000000
0.280000 4.000000 0.000000
0.240000 4.000000 0.000000
0.200000 4.000000 0.000000
0.160000 4.000000 0.000000
0.120000 4.000000 0.000000
0.080000 4.000000 0.000000
0.040000 4.000000 0.000000
0.000000 3.960227 0.000000
0.000000 3.920455 0.000000
0.000000 3.880682 0.000000
0.000000 3.840909 0.000000
0.000000 3.801136 0.000000
0.000000 3.761364 0.000000
0.000000 3.721591 0.000000
0.000000 3.681818 0.000000
0.000000 3.642045 0.000000
0.000000 3.602273 0.000000
0.000000 3.562500 0.000000
0.000000 3.522727 0.000000
0.000000 3.482955 0.000000
0.000000 3.443182 0.000000
0.000000 3.403409 0.000000
0.000000 3.363636 0.000000
0.000000 3.323864 0.000000
0.000000 3.284091 0.000000
0.000000 3.244318 0.000000
0.000000 3.204545 0.000000
0.000000 3.164773 0.000000
0.000000 3.125000 0.000000
0.000000 3.085227 0.000000
0.000000 3.045455 0.000000
0.000000 3.005682 0.000000
0.000000 2.965909 0.000000
0.000000 2.926136 0.000000
0.000000 2.886364 0.000000
0.000000 2.846591 0.000000
0.000000 2.806818 0.000000
0.000000 2.767045 0.000000
0.000000 2.727273 0.000000
0.000000 2.687500 0.000000
0.000000 2.647727 0.000000
0.000000 2.607955 0.000000
0.000000 2.568182 0.000000
0.000000 2.528409 0.000000
0.000000 2.488636 0.000000
0.000000 2.448864 0.000000
0.000000 2.409091 0.000000
0.000000 2.369318 0.000000
0.000000 2.329545 0.000000
0.000000 2.289773 0.000000
0.000000 2.250000 0.000000
0.000000 2.210227 0.000000
0.000000 2.170455 0.000000
0.000000 2.130682 0.000000
0.000000 2.090909 0.000000
0.000000 2.051136 0.000000
0.000000 2.011364 0.000000
0.000000 1.971591 0.000000
0.000000 1.931818 0.000000
0.000000 1.892045 0.000000
0.000000 1.852273 0.000000
0.000000 1.812500 0.000000
0.000000 1.772727 0.000000
0.000000 1.732955 0.000000
0.000000 1.693182 0.000000
0.000000 1.653409 0.000000
0.000000 1.613636 0.000000
0.000000 1.573864 0.000000
0.000000 1.534091 0.000000
0.000000 1.494318 0.000000
0.000000 1.454545 0.000000
0.000000 1.414773 0.000000
0.000000 1.375000 0.000000
0.000000 1.335227 0.000000
0.000000 1.295455 0.000000
0.000000 1.255682 0.000000
0.000000 1.215909 0.000000
0.000000 1.176136 0.000000
0.000000 1.136364 0.000000
0.000000 1.096591 0.000000
0.000000 1.056818 0.000000
0.000000 1.017045 0.000000
0.000000 0.977273 0.000000
0.000000 0.937500 0.000000
0.000000 0.897727 0.000000
0.000000 0.857955 0.000000
0.000000 0.818182 0.000000
0.000000 0.778409 0.000000
0.000000 0.738636 0.000000
0.000000 0.698864 0.000000
0.000000 0.659091 0.000000
0.000000 0.619318 0.000000
0.000000 0.579545 0.000000
0.000000 0.539773 0.000000
0.000000 0.461538 0.000000
0.000000 0.423077 0.000000
0.000000 0.384615 0.000000
0.000000 0.346154 0.000000
0.000000 0.307692 0.000000
0.000000 0.269231 0.000000
0.000000 0.230769 0.000000
0.000000 0.192308 0.000000
0.000000 0.153846 0.000000
0.000000 0.115385 0.000000
0.000000 0.076923 0.000000
0.000000 0.038462 0.000000
0.027778 0.527778 0.000000
0.055556 0.555556 0.000000
0.083333 0.583333 0.000000
0.111111 0.611111 0.000000
0.138889 0.638889 0.000000
0.166667 0.666667 0.000000
0.194444 0.694444 0.000000
0.222222 0.722222 0.000000
0.250000 0.750000 0.000000
0.277778 0.777778 0.000000
0.305556 0.805556 0.000000
0.333333 0.833333 0.000000
0.361111 0.861111 0.000000
0.388889 0.888889 0.000000
0.416667 0.916667 0.000000
0.444444 0.944444 0.000000
0.472222 0.972222 0.000000
0.500000 1.000000 0.000000
0.527778 1.027778 0.000000
0.555556 1.055556 0.000000
0.583333 1.083333 0.000000
0.611111 1.111111 0.000000
0.638889 1.138889 0.000000
0.666667 1.166667 0.000000
0.694444 1.194444 0.000000
0.722222 1.222222 0.000000
0.750000 1.250000 0.000000
0.777778 1.277778 0.000000
0.805556 1.305556 0.000000
0.833333 1.333333 0.000000
0.861111 1.361111 0.000000
0.888889 1.388889 0.000000
0.916667 1.416667 0.000000
0.944444 1.444444 0.000000
0.972222 1.472222 0.000000
1.000000 1.500000 0.000000
1.027778 1.527778 0.000000
1.055556 1.555556 0.000000
1.083333 1.583333 0.000000
1.111111 1.611111 0.000000
1.138889 1.638889 0.000000
1.166667 1.666667 0.000000
1.194444 1.694444 0.000000
1.222222 1.722222 0.000000
1.250000 1.750000 0.000000
1.277778 1.777778 0.000000
1.305556 1.805556 0.000000
1.333333 1.833333 0.000000
1.361111 1.861111 0.000000
1.388889 1.888889 0.000000
1.416667 1.916667 0.000000
1.444444 1.944444 0.000000
1.472222 1.972222 0.000000
1.527778 2.027778 0.000000
1.555556 2.055556 0.000000
1.583333 2.083333 0.000000
1.611111 2.111111 0.000000
1.638889 2.138889 0.000000
1.666667 2.166667 0.000000
1.694444 2.194444 0.000000
1.722222 2.222222 0.000000
1.750000 2.250000 0.000000
1.777778 2.277778 0.000000
1.805556 2.305556 0.000000
[...]
POINT_DATA 6577
SCALARS UX float 1
LOOKUP_TABLE default
-0.000018
0.000076
-0.002993
-0.235193
-0.121026
-0.023579
0.019257
0.000000
-0.000002
-0.000002
0.000002
0.000003
-0.000011
0.000001
0.000001
0.000002
-0.000000
0.000001
-0.000001
0.000001
0.000001
-0.000001
0.000001
0.000001
0.000001
0.000001
-0.000000
-0.000001
0.000001
-0.000000
0.000001
0.000000
0.000000
-0.000000
0.000000
0.000000
-0.000000
0.000000
0.000001
-0.000001
0.000001
0.000001
-0.000002
0.000002
0.000001
-0.000000
-0.000002
-0.000000
-0.000000
-0.000005
0.000005
-0.000006
0.000005
0.000005
-0.000030
0.000022
0.024040
0.034158
0.046558
0.053438
0.060603
0.067231
0.071980
0.077197
0.082108
0.086350
0.090707
0.094533
0.097867
0.100617
0.101925
0.106234
0.109735
0.111342
0.112965
0.115406
0.116062
0.117245
0.118529
0.120311
0.120453
0.121743
0.121065
0.122244
0.122952
0.123274
0.123485
0.124848
0.124673
0.124209
0.123769
0.123084
0.120676
0.121510
0.119553
0.118940
0.118401
0.115184
0.113624
0.109745
0.107000
0.104780
0.100437
0.094564
0.087774
0.082691
0.075497
0.070666
0.067054
0.057878
0.053907
0.046648
0.046135
0.036954
0.030166
0.027998
0.025373
0.021787
0.017147
0.013554
0.010162
0.009633
0.007587
0.008670
0.005554
0.005787
0.007033
0.004019
0.003441
0.001323
0.001746
0.001468
0.000978
0.000797
0.001246
0.001157
0.000097
-0.002154
0.000122
-0.003549
-0.003345
-0.003671
-0.002970
-0.002486
-0.002574
-0.003736
-0.003868
-0.004611
-0.004305
-0.003905
-0.003370
-0.004137
-0.003395
-0.003510
-0.003205
-0.008862
-0.013349
-0.018640
-0.023354
-0.027436
-0.033442
-0.037946
-0.043405
-0.047732
-0.053343
-0.058334
-0.062568
-0.067393
-0.071835
-0.077445
-0.082790
-0.086747
-0.091394
-0.095706
-0.101045
-0.104663
-0.109194
-0.114913
-0.119520
-0.123961
-0.128760
-0.134135
-0.138305
-0.142336
-0.147320
-0.151037
-0.155877
-0.159671
-0.165218
-0.168904
-0.173533
-0.177854
-0.181678
-0.186119
-0.191038
-0.195490
-0.199687
-0.204150
-0.208432
-0.212657
-0.216912
-0.221696
-0.225983
-0.230072
-0.235037
-0.233739
-0.233943
-0.234100
-0.232781
-0.233654
-0.233506
-0.234147
-0.233956
-0.234061
-0.232740
-0.231987
-0.230887
-0.230582
-0.231396
-0.229561
-0.228806
-0.228728
-0.227789
-0.227213
-0.227345
-0.227654
-0.226478
-0.227113
-0.225566
-0.225453
-0.223217
-0.224271
-0.223082
-0.221368
-0.220050
-0.219474
-0.218871
-0.218273
-0.217546
-0.218053
-0.218086
-0.218096
-0.217319
-0.217389
-0.219033
-0.217258
-0.217287
-0.217297
-0.217384
-0.216371
-0.215645
-0.216679
-0.217607
-0.214724
-0.216235
-0.216443
-0.217099
-0.219827
-0.217719
-0.218153
-0.218370
-0.218510
-0.219045
-0.221919
-0.220298
-0.222202
-0.221974
-0.224532
-0.226606
-0.227446
-0.230200
-0.229374
-0.231333
-0.232341
-0.232820
-0.233381
-0.233668
-0.233323
-0.232671
-0.231957
-0.231018
-0.227976
-0.223889
-0.221629
-0.216220
-0.210568
-0.208101
-0.203636
-0.184122
-0.164644
-0.132431
-0.077660
-0.079008
-0.074198
-0.071220
-0.067348
-0.062747
-0.058805
-0.052527
-0.045403
-0.041085
-0.030953
-0.021383
-0.109600
-0.113357
-0.112099
-0.127087
-0.116818
-0.071587
-0.122859
-0.095069
-0.104273
-0.103757
-0.104369
-0.111236
-0.101277
-0.098129
-0.067495
-0.085923
-0.077834
-0.086115
-0.084846
-0.089098
-0.117899
-0.099048
-0.089121
-0.105438
-0.099726
-0.103408
-0.061721
-0.074610
-0.076433
-0.089145
-0.060078
-0.076406
-0.060755
-0.051744
-0.100948
-0.065716
-0.064266
-0.053537
-0.057783
-0.052951
-0.067781
-0.046028
-0.024971
-0.039011
-0.045377
-0.033467
-0.027611
-0.026148
-0.035938
-0.036593
-0.014181
-0.024580
-0.022073
-0.013167
-0.007892
-0.009165
-0.004777
-0.001305
-0.001986
-0.002912
0.000706
0.001952
0.001079
0.003997
0.006944
0.008816
0.008949
0.009394
0.010592
0.017098
0.009891
0.006499
-0.231322
-0.230514
-0.007696
-0.008375
0.014228
0.013754
0.007017
0.002974
0.000990
-0.049033
-0.050941
-0.052459
-0.089609
-0.088169
-0.085298
-0.054016
-0.174210
-0.170777
-0.171013
-0.062659
-0.059034
-0.057296
-0.210766
-0.213365
-0.209583
-0.216537
-0.220918
-0.219736
-0.062165
-0.029995
-0.025109
-0.027263
-0.062296
-0.066005
-0.060670
-0.212734
-0.210917
-0.208005
-0.175300
-0.076415
-0.077311
-0.080911
-0.081302
-0.084779
-0.086110
-0.066646
-0.065165
-0.069728
-0.068425
-0.175290
-0.179853
-0.177454
-0.178464
-0.172811
-0.176514
-0.172896
-0.177887
-0.069658
-0.065707
-0.067928
-0.082406
-0.117688
-0.117524
-0.114536
-0.001347
0.002806
-0.112011
-0.191596
-0.191986
-0.187515
-0.196592
-0.180981
-0.181191
-0.175972
-0.117657
-0.121682
-0.120917
-0.118417
-0.046591
-0.044835
-0.040096
-0.041090
-0.166044
-0.171082
-0.169831
-0.166908
-0.088470
-0.084543
-0.088297
-0.171833
-0.167019
-0.168099
-0.002119
0.002173
-0.001195
0.003351
-0.002345
0.002423
-0.003437
-0.183367
-0.185835
-0.187953
-0.057734
-0.061694
-0.061477
-0.065537
-0.086389
-0.218224
-0.222404
-0.218358
-0.138337
-0.134635
-0.135667
-0.141061
-0.187615
-0.191135
-0.187461
-0.191042
-0.179004
-0.176477
-0.179039
-0.121626
-0.122217
-0.124858
-0.030536
-0.035563
-0.034338
-0.032942
-0.024674
-0.022672
0.002179
-0.131299
-0.128465
-0.131934
-0.132787
-0.135666
-0.136540
-0.171277
-0.165187
-0.175121
-0.176541
-0.172475
-0.199550
-0.197506
-0.196753
-0.179447
-0.118686
-0.122387
-0.117725
-0.209338
-0.207842
-0.210641
-0.174367
-0.147262
-0.145526
-0.149193
-0.120922
-0.116585
-0.121735
-0.181338
-0.186473
-0.195604
-0.026016
-0.019832
-0.025154
-0.018776
-0.070296
-0.073422
-0.073495
-0.076781
0.002221
0.004120
-0.108268
-0.105255
-0.108767
-0.103225
-0.212447
-0.215885
-0.214399
-0.129867
-0.128019
-0.130383
-0.136220
-0.140597
-0.136353
-0.130180
-0.219016
-0.167915
-0.162349
-0.165148
-0.165037
-0.167439
-0.168729
-0.172190
-0.165349
-0.215170
-0.214199
-0.142522
-0.140623
-0.145232
-0.212833
-0.214470
-0.107866
-0.106387
-0.111724
-0.202452
-0.205953
-0.202493
-0.210626
-0.207215
-0.207168
-0.192920
-0.197865
-0.195426
-0.203460
-0.187410
-0.192321
-0.188848
-0.103170
-0.104173
-0.070230
-0.104288
-0.216523
-0.219994
-0.218724
-0.222147
-0.228465
-0.228401
-0.011822
-0.012894
-0.057762
-0.057551
-0.052918
-0.061518
-0.154514
-0.155028
-0.151310
-0.182409
-0.186544
-0.185073
-0.150810
-0.062946
-0.061497
-0.064663
-0.190647
-0.191397
-0.224007
-0.224083
-0.221534
-0.114487
-0.110877
-0.011785
-0.012214
-0.007094
-0.008083
-0.191328
-0.195303
-0.194607
-0.198685
-0.217369
-0.214703
-0.218844
-0.212194
-0.199665
-0.204157
-0.197619
-0.209815
-0.206456
-0.227570
-0.229043
-0.230857
-0.202142
-0.202382
-0.209628
-0.214519
-0.210585
-0.188792
-0.189168
-0.021348
-0.016749
-0.192756
-0.198899
-0.197627
-0.219465
-0.178110
-0.183120
-0.179947
-0.203417
-0.200568
-0.041210
-0.043099
-0.045413
-0.038825
-0.057236
-0.052783
-0.054058
-0.128463
-0.129834
-0.132363
-0.108456
-0.107711
-0.036053
-0.033410
-0.033558
-0.126901
-0.113866
-0.115985
-0.117370
-0.217972
-0.222768
-0.217477
-0.189715
-0.190602
-0.187026
-0.047961
-0.194512
-0.198523
-0.196128
-0.183702
-0.183041
-0.188488
-0.188963
-0.198413
-0.044145
-0.189226
-0.138870
-0.176897
-0.180325
-0.178606
-0.178993
-0.178324
-0.212069
-0.214061
-0.207154
-0.218575
-0.184347
-0.182955
-0.187628
-0.016736
-0.013378
-0.183221
-0.185085
-0.184859
-0.179759
-0.179539
-0.172271
-0.230016
-0.215969
-0.212503
-0.214764
-0.209796
-0.210247
-0.007682
-0.162524
-0.159887
-0.226061
-0.224887
-0.175388
-0.173782
-0.013284
-0.011753
-0.120147
-0.114242
-0.195473
-0.071420
-0.070464
-0.068839
-0.065612
-0.207676
-0.204305
-0.173734
-0.177673
-0.173449
-0.201159
-0.200945
-0.204917
-0.194205
-0.218090
-0.178561
-0.024901
-0.145751
-0.150114
-0.147023
-0.215334
-0.216780
-0.210772
-0.222424
-0.224660
-0.225135
-0.220567
-0.223228
-0.152373
-0.149021
-0.022668
-0.019358
-0.020431
-0.185296
-0.172392
-0.107622
-0.102702
-0.220630
-0.221924
-0.218635
-0.160990
-0.158002
-0.192271
-0.207628
-0.209162
-0.172749
-0.166021
-0.187449
-0.191244
-0.038636
-0.038964
-0.033827
-0.195527
-0.198228
-0.215729
-0.213876
-0.205678
-0.220242
-0.158647
-0.117029
-0.115844
-0.209959
-0.229914
-0.217802
-0.213547
-0.224980
-0.223807
-0.221933
-0.077825
-0.078328
-0.073887
-0.180685
-0.008615
-0.015011
-0.010324
-0.017238
-0.207288
-0.206768
-0.210275
-0.197572
-0.182991
-0.182043
-0.170922
-0.172857
-0.174444
-0.176085
-0.175473
-0.221969
-0.188943
-0.188110
-0.183307
-0.029455
-0.193564
-0.193934
-0.196183
-0.211972
-0.074079
-0.025210
-0.025350
-0.021395
-0.219093
-0.214687
-0.226882
-0.215945
-0.215949
-0.219479
-0.203031
-0.205047
-0.210737
-0.186606
-0.223372
-0.042979
-0.043117
-0.165522
-0.171426
-0.073071
-0.009804
-0.006216
-0.007310
-0.229276
-0.226538
-0.222143
-0.220242
-0.013460
-0.009708
-0.045634
-0.042279
-0.045254
-0.049462
-0.197413
-0.198484
-0.193151
-0.170963
-0.016999
-0.018566
-0.218228
-0.213938
-0.227947
-0.200092
-0.205987
-0.209455
-0.201918
-0.169795
-0.029380
-0.033135
-0.049465
-0.212146
-0.208619
-0.086596
-0.083940
-0.087823
-0.222745
-0.029531
-0.024464
-0.212292
-0.216686
-0.214085
-0.226322
-0.192971
-0.212473
0.006510
0.001953
-0.201036
-0.092589
-0.042999
-0.048446
-0.044654
-0.200504
-0.204960
-0.209502
-0.196449
-0.040276
-0.038167
-0.039494
-0.224635
-0.084804
-0.048199
-0.220102
-0.217473
-0.226550
-0.013799
-0.009707
-0.107398
-0.104296
-0.104400
-0.019251
-0.022653
-0.223209
-0.107699
-0.106566
-0.019011
-0.015906
-0.019487
-0.199141
-0.203131
-0.200685
-0.204354
-0.039662
-0.152624
-0.001329
0.004337
-0.037378
-0.184795
-0.189260
-0.223559
-0.198741
-0.193706
-0.197533
-0.203271
-0.207940
-0.193762
-0.033908
-0.010430
-0.078511
-0.074834
-0.075902
-0.208700
-0.077809
-0.151118
-0.149221
-0.155035
-0.033515
-0.029125
-0.037938
-0.208425
-0.213544
-0.204761
-0.214014
-0.222069
-0.218352
-0.069237
-0.066682
-0.063233
-0.069740
-0.034427
-0.210185
-0.203547
-0.199180
-0.208063
-0.029534
-0.197525
-0.198648
-0.194696
-0.200372
-0.204825
-0.196276
-0.194745
-0.177595
-0.002420
-0.018399
-0.019157
-0.015767
-0.108063
-0.112074
-0.108147
-0.110535
-0.006958
-0.028548
-0.030147
-0.221798
-0.201973
-0.097136
-0.096495
-0.092438
-0.217121
-0.215775
-0.226370
-0.016486
-0.180497
-0.178480
-0.021362
-0.024087
-0.011891
-0.095426
-0.099092
-0.091870
-0.090764
-0.095815
-0.173244
-0.172360
-0.171194
-0.093078
-0.165834
-0.038215
-0.167297
-0.166639
-0.189167
-0.204672
-0.046434
-0.210472
-0.067811
-0.063533
-0.067531
-0.037638
-0.062925
-0.042782
-0.205388
-0.072065
-0.066918
-0.200320
-0.070512
-0.124767
-0.122537
-0.126744
-0.186114
-0.005568
-0.199848
-0.132576
-0.127077
-0.130533
-0.121186
-0.106412
-0.105573
-0.108564
-0.083983
-0.079236
-0.181642
-0.185655
-0.224000
-0.222414
-0.218528
-0.108443
-0.211236
-0.211370
-0.190718
-0.196054
-0.088021
-0.083919
-0.213380
-0.216857
-0.202844
-0.205989
-0.214977
-0.219581
-0.214816
-0.015341
-0.018932
-0.013184
-0.020371
-0.174263
-0.001670
-0.002276
-0.005403
-0.177934
-0.175874
-0.170087
-0.169848
-0.005410
-0.092465
-0.088522
-0.092169
-0.168199
-0.154976
-0.158867
-0.039049
-0.223949
-0.221298
-0.220091
-0.165012
-0.163775
-0.159026
-0.216805
-0.125591
-0.124462
-0.120965
-0.210171
-0.214048
-0.187141
-0.162821
-0.095963
-0.100749
-0.059083
-0.061968
-0.058556
-0.102198
-0.173088
-0.171859
-0.174834
-0.168722
-0.024427
-0.023604
-0.009250
-0.002745
-0.106836
-0.110342
-0.111868
-0.026189
-0.030882
-0.026078
-0.115947
-0.088283
-0.081119
-0.085050
-0.080893
-0.200219
-0.206156
-0.208133
-0.179044
-0.182447
-0.076256
-0.072007
-0.076852
-0.183365
-0.180339
-0.184467
-0.209497
-0.198328
-0.188882
-0.193460
-0.201354
-0.205146
-0.209371
-0.129918
-0.124233
-0.127764
-0.175404
-0.173592
-0.171729
-0.202538
-0.204378
-0.205452
-0.224782
-0.227127
-0.228420
-0.222754
-0.166905
-0.166048
-0.178169
-0.183623
-0.203088
-0.201275
-0.199109
-0.165491
-0.226633
-0.207288
-0.212008
-0.206381
-0.161639
-0.008971
-0.161129
-0.183961
-0.176534
-0.181275
-0.033251
-0.033793
-0.036935
-0.200119
-0.205822
-0.186090
-0.191194
-0.196073
-0.218086
-0.200581
-0.203004
-0.204076
-0.199378
-0.198820
-0.204592
-0.006361
-0.009410
-0.011291
-0.015211
-0.173627
-0.171784
-0.169566
-0.166035
-0.164282
-0.212624
-0.213196
-0.130898
-0.126455
-0.127055
-0.128162
-0.087297
-0.081880
-0.084394
-0.042301
-0.163149
-0.159394
-0.157867
-0.183170
-0.175100
-0.178922
-0.202752
-0.094623
-0.098957
-0.095393
-0.083953
-0.186082
-0.188846
-0.192967
-0.196164
-0.202521
-0.209917
-0.170684
-0.169032
-0.070254
-0.066209
-0.070448
-0.068221
-0.167608
-0.207502
-0.204449
-0.036792
-0.034347
-0.039997
-0.088295
-0.021817
-0.023493
-0.019612
-0.017057
-0.188672
-0.192601
-0.163357
-0.162392
-0.017805
-0.011536
-0.019849
-0.192306
-0.196362
-0.190773
-0.221665
-0.220278
-0.072187
-0.073859
-0.072569
-0.174387
-0.176885
-0.173324
-0.176524
-0.172420
-0.177647
-0.181008
-0.074496
-0.183324
-0.187679
-0.198497
-0.196348
-0.067274
-0.105589
-0.060481
-0.062794
-0.057059
-0.191283
-0.068813
-0.065003
-0.195091
-0.200107
-0.167656
-0.166240
-0.055466
-0.055615
-0.061460
-0.186990
-0.187786
-0.182655
-0.069350
-0.021272
-0.017912
-0.191953
-0.048241
-0.045676
-0.164574
-0.053011
-0.170974
-0.160159
-0.158388
-0.141336
-0.136955
-0.142160
-0.090608
-0.088226
-0.097484
-0.094627
-0.098892
-0.091787
-0.114935
-0.114750
-0.118506
-0.118642
-0.191691
-0.179397
-0.180605
-0.185326
-0.029999
-0.032301
-0.037494
-0.200690
-0.058938
-0.061707
-0.169748
-0.174192
-0.121058
-0.120927
-0.125116
-0.123761
-0.179429
-0.074131
-0.072506
-0.183401
-0.188724
-0.096671
-0.040906
-0.036424
-0.036376
-0.052318
-0.053128
-0.217234
-0.188944
-0.188802
-0.165288
-0.162939
-0.066315
-0.196331
-0.192814
-0.042455
-0.047752
-0.041798
-0.161582
-0.063768
-0.063638
-0.157123
-0.155753
-0.208486
-0.202650
-0.200212
-0.175676
-0.181086
-0.179986
-0.216712
-0.209355
-0.127813
-0.122789
-0.123805
-0.167787
-0.172125
-0.196542
-0.193274
-0.038762
-0.177161
-0.145634
-0.142963
-0.148221
-0.144804
-0.046824
-0.114480
-0.117104
-0.119193
-0.188329
-0.185632
-0.188462
-0.184550
-0.051677
-0.055097
-0.051554
-0.057132
-0.181861
-0.187417
-0.168980
-0.172339
-0.066381
-0.069717
-0.118946
-0.121430
-0.208737
-0.012912
-0.016865
-0.018797
-0.023623
-0.114107
-0.114614
-0.118726
-0.079795
-0.083802
-0.078898
-0.005660
-0.008591
-0.010032
-0.175533
-0.179011
-0.178583
-0.162639
-0.160683
-0.060920
-0.054336
-0.057456
-0.084839
-0.006721
-0.011856
-0.158828
-0.153406
-0.151546
-0.166830
-0.163625
-0.161714
-0.159728
-0.165288
-0.170209
-0.063288
-0.067198
-0.064663
-0.087598
-0.082370
-0.082801
-0.175468
-0.179355
-0.185130
-0.161615
-0.159170
-0.079181
-0.115786
-0.118466
-0.116096
-0.156517
-0.121268
-0.065401
-0.067688
-0.068956
-0.151032
-0.148963
-0.164191
-0.167626
-0.170587
-0.167061
-0.173629
-0.177858
-0.181324
-0.013902
-0.018783
-0.025177
-0.020848
-0.207540
-0.211068
-0.206683
-0.158833
-0.156070
-0.158950
-0.156287
-0.159089
-0.012155
-0.016774
-0.016840
-0.014287
-0.019310
-0.024274
-0.026111
-0.072736
-0.153278
-0.147359
-0.145778
-0.061062
-0.056380
-0.084292
-0.080194
-0.083972
-0.081746
-0.160903
-0.166615
-0.171819
-0.163074
-0.174043
-0.178772
-0.156123
-0.153924
-0.059433
-0.059258
-0.054837
-0.020243
-0.022954
-0.026539
-0.066324
-0.067140
-0.122688
-0.118624
-0.147038
-0.149321
-0.181279
-0.182294
-0.184676
-0.150629
-0.144584
-0.142697
-0.121517
-0.188309
-0.188827
-0.192744
-0.016780
-0.012186
-0.158284
-0.163765
-0.063116
-0.079007
-0.077745
-0.082421
-0.169762
-0.171798
-0.080940
-0.085816
-0.189467
-0.191711
-0.048200
-0.051906
-0.089919
-0.153540
-0.151467
-0.172585
-0.161161
-0.157297
-0.160022
-0.148640
-0.144387
-0.202584
-0.206331
-0.157334
-0.161927
-0.049922
-0.199417
-0.204081
-0.193645
-0.205847
-0.201634
-0.153544
-0.149228
-0.026111
-0.112369
-0.121872
-0.187198
-0.114313
-0.113837
-0.115587
-0.146783
-0.142421
-0.112487
-0.108013
-0.191631
-0.187945
-0.186816
-0.156707
-0.161488
-0.112327
-0.044658
-0.051263
-0.130839
-0.132215
-0.128478
-0.054725
-0.210456
-0.102636
-0.125184
-0.129887
-0.127118
-0.104936
-0.180824
-0.185055
-0.129359
-0.121344
-0.132922
-0.126141
-0.172187
-0.173358
-0.167861
-0.127236
-0.130286
-0.151324
-0.147589
-0.181115
-0.144339
-0.138999
-0.154611
-0.159900
-0.167706
-0.170451
-0.203316
-0.039220
-0.028523
-0.039584
-0.046525
-0.026810
-0.023744
-0.023496
-0.193159
-0.122185
-0.124867
-0.120849
-0.124583
-0.120410
-0.188256
-0.187821
-0.183104
-0.103919
-0.104618
-0.107551
-0.004860
-0.002348
-0.007291
-0.151974
-0.099971
-0.137853
-0.137061
-0.141093
-0.141241
-0.132319
-0.136833
-0.134170
-0.132973
-0.073911
-0.219877
-0.223707
-0.220454
-0.056930
-0.056165
-0.059943
-0.138992
-0.072907
-0.075688
-0.071373
-0.076446
-0.080258
-0.145508
-0.032769
-0.028885
-0.026389
-0.102082
-0.206473
-0.201531
-0.203123
-0.204887
-0.035000
-0.118083
-0.115626
-0.115062
-0.118839
-0.066568
-0.068262
-0.064893
-0.011946
-0.070305
-0.188747
-0.191343
-0.193374
-0.196276
-0.216146
-0.211434
-0.198772
-0.195760
-0.190483
-0.212533
-0.089387
-0.173447
-0.176635
-0.173392
-0.175714
-0.168162
-0.164670
-0.165249
-0.168559
-0.170945
-0.175148
-0.171724
-0.176262
-0.144438
-0.141646
-0.144929
-0.071141
-0.072211
-0.025416
-0.020709
-0.023925
-0.024615
-0.018924
-0.023391
-0.148388
-0.152671
-0.149371
-0.154725
-0.140005
-0.217360
-0.217217
-0.220543
-0.054907
-0.058404
-0.220217
-0.122345
-0.073993
-0.075502
-0.071181
-0.075787
-0.070024
-0.132281
-0.135629
-0.054186
-0.192868
-0.188550
-0.190187
-0.186686
-0.204377
-0.013463
-0.015076
-0.106400
-0.031225
-0.033515
-0.035301
-0.043521
-0.038493
-0.040239
-0.027486
-0.095342
-0.091790
-0.096259
-0.092570
-0.052468
-0.101292
-0.106273
-0.105150
-0.186066
-0.184956
-0.122905
-0.124452
-0.127510
-0.128555
-0.185218
-0.188320
-0.183948
-0.187575
-0.189440
-0.078345
-0.082796
-0.149003
-0.147401
-0.145760
-0.150673
-0.155545
-0.158806
-0.159937
-0.149035
-0.151207
-0.147791
-0.153389
-0.136764
-0.132124
-0.037285
-0.042582
-0.034596
-0.089584
-0.093059
-0.093796
-0.109992
-0.088596
-0.027112
-0.030217
-0.177963
-0.181975
-0.180066
-0.180385
-0.134334
-0.075100
-0.074711
-0.090381
-0.094922
-0.096808
-0.203673
-0.205796
-0.199237
-0.202299
-0.197886
-0.058559
-0.159086
-0.154003
-0.013079
-0.009321
-0.009457
-0.015779
-0.017651
-0.109461
-0.112136
-0.127885
-0.130940
-0.127493
-0.118056
-0.111918
-0.116070
-0.120759
-0.112239
-0.095882
-0.098021
-0.093129
-0.182298
-0.094878
-0.183248
-0.101821
-0.098754
-0.105977
-0.064233
-0.062163
-0.061262
-0.134187
-0.134152
-0.130989
-0.138627
-0.135092
-0.139602
-0.078950
-0.074460
-0.072786
-0.114475
-0.114909
-0.110490
-0.111777
-0.123100
-0.209017
-0.206532
-0.054453
-0.056197
-0.058829
-0.054724
-0.180321
-0.179292
-0.168660
-0.171546
-0.082855
-0.185870
-0.183756
-0.188466
-0.189053
-0.192643
-0.194257
-0.178422
-0.182444
-0.177592
-0.162853
-0.166459
-0.175619
-0.147473
-0.151566
-0.151072
-0.155251
-0.157043
-0.159604
-0.156297
-0.162214
-0.029189
-0.032925
-0.186126
-0.017130
-0.030174
-0.030991
-0.034440
-0.037618
-0.038989
-0.189394
-0.187518
-0.190607
-0.208567
-0.206381
-0.209107
-0.093150
-0.092360
-0.095812
-0.155770
-0.159242
-0.117328
-0.112025
-0.151088
-0.154266
-0.150294
-0.042944
-0.047743
-0.043300
-0.049548
-0.139623
-0.145242
-0.141721
-0.143038
-0.104435
-0.101133
-0.098129
-0.108968
-0.107158
-0.111712
-0.204076
-0.040749
-0.036944
-0.041914
-0.038235
-0.043889
-0.038450
-0.080227
-0.078650
-0.078457
-0.081838
-0.078986
-0.148890
-0.149972
-0.146153
-0.147112
-0.153301
-0.150184
-0.051865
-0.049745
-0.153464
-0.156527
-0.156885
-0.003980
-0.011443
-0.159544
-0.083244
-0.086002
-0.085512
-0.150632
-0.030003
-0.046445
-0.042699
-0.046203
-0.051356
-0.047429
-0.046868
-0.021169
-0.024839
-0.021553
-0.018332
-0.180601
-0.177888
-0.104177
-0.102900
-0.100324
-0.108235
-0.097155
-0.097485
-0.094250
-0.198019
-0.200447
-0.198825
-0.070207
-0.070831
-0.074765
-0.124714
-0.128007
-0.213309
-0.213418
-0.123007
-0.160728
-0.157506
-0.160310
-0.159942
-0.155999
-0.155360
-0.152506
-0.212989
-0.212873
-0.216164
-0.208986
-0.213654
-0.210156
-0.219700
-0.218369
-0.222332
-0.219100
-0.135367
-0.134286
-0.091623
-0.137283
-0.131427
-0.198443
-0.202286
-0.162589
-0.158509
-0.167434
-0.163792
-0.206826
-0.208019