# vtk DataFile Version 2.0
Test
ASCII
DATASET POLYDATA
POINTS 6577 float
0.000000 0.000000 0.000000
2.000000 0.000000 0.000000
2.000000 4.000000 0.000000
0.000000 4.000000 0.000000
0.000000 0.500000 0.000000
1.500000 2.000000 0.000000
2.000000 2.500000 0.000000
0.040000 0.000000 0.000000
0.080000 0.000000 0.000000
0.120000 0.000000 0.000000
0.160000 0.000000 0.000000
0.200000 0.000000 0.000000
0.240000 0.000000 0.000000
0.280000 0.000000 0.000000
0.320000 0.000000 0.000000
0.360000 0.000000 0.000000
0.400000 0.000000 0.000000
0.440000 0.000000 0.000000
0.480000 0.000000 0.000000
0.520000 0.000000 0.000000
0.560000 0.000000 0.000000
0.600000 0.000000 0.000000
0.640000 0.000000 0.000000
0.680000 0.000000 0.000000
0.720000 0.000000 0.000000
0.760000 0.000000 0.000000
0.800000 0.000000 0.000000
0.840000 0.000000 0.000000
0.880000 0.000000 0.000000
0.920000 0.000000 0.000000
0.960000 0.000000 0.000000
1.000000 0.000000 0.000000
1.040000 0.000000 0.000000
1.080000 0.000000 0.000000
1.120000 0.000000 0.000000
1.160000 0.000000 0.000000
1.200000 0.000000 0.000000
1.240000 0.000000 0.000000
1.280000 0.000000 0.000000
1.320000 0.000000 0.000000
1.360000 0.000000 0.000000
1.400000 0.000000 0.000000
1.440000 0.000000 0.000000
1.480000 0.000000 0.000000
1.520000 0.000000 0.000000
1.560000 0.000000 0.000000
1.600000 0.000000 0.000000
1.640000 0.000000 0.000000
1.680000 0.000000 0.000000
1.720000 0.000000 0.000000
1.760000 0.000000 0.000000
1.800000 0.000000 0.000000
1.840000 0.000000 0.000000
1.880000 0.000000 0.000000
1.920000 0.000000 0.000000
1.960000 0.000000 0.000000
2.000000 0.039683 0.000000
2.000000 0.079365 0.000000
2.000000 0.119048 0.000000
2.000000 0.158730 0.000000
2.000000 0.198413 0.000000
2.000000 0.238095 0.000000
2.000000 0.277778 0.000000
2.000000 0.317460 0.000000
2.000000 0.357143 0.000000
2.000000 0.396825 0.000000
2.000000 0.436508 0.000000
2.000000 0.476190 0.000000
2.000000 0.515873 0.000000
2.000000 0.555556 0.000000
2.000000 0.595238 0.000000
2.000000 0.634921 0.000000
2.000000 0.674603 0.000000
2.000000 0.714286 0.000000
2.000000 0.753968 0.000000
2.000000 0.793651 0.000000
2.000000 0.833333 0.000000
2.000000 0.873016 0.000000
2.000000 0.912698 0.000000
2.000000 0.952381 0.000000
2.000000 0.992063 0.000000
2.000000 1.031746 0.000000
2.000000 1.071429 0.000000
2.000000 1.111111 0.000000
2.000000 1.150794 0.000000
2.000000 1.190476 0.000000
2.000000 1.230159 0.000000
2.000000 1.269841 0.000000
2.000000 1.309524 0.000000
2.000000 1.349206 0.000000
2.000000 1.388889 0.000000
2.000000 1.428571 0.000000
2.000000 1.468254 0.000000
2.000000 1.507937 0.000000
2.000000 1.547619 0.000000
2.000000 1.587302 0.000000
2.000000 1.626984 0.000000
2.000000 1.666667 0.000000
2.000000 1.706349 0.000000
2.000000 1.746032 0.000000
2.000000 1.785714 0.000000
2.000000 1.825397 0.000000
2.000000 1.865079 0.000000
2.000000 1.904762 0.000000
2.000000 1.944444 0.000000
2.000000 1.984127 0.000000
2.000000 2.023810 0.000000
2.000000 2.063492 0.000000
2.000000 2.103175 0.000000
2.000000 2.142857 0.000000
2.000000 2.182540 0.000000
2.000000 2.222222 0.000000
2.000000 2.261905 0.000000
2.000000 2.301587 0.000000
2.000000 2.341270 0.000000
2.000000 2.380952 0.000000
2.000000 2.420635 0.000000
2.000000 2.460317 0.000000
2.000000 2.539474 0.000000
2.000000 2.578947 0.000000
2.000000 2.618421 0.000000
2.000000 2.657895 0.000000
2.000000 2.697368 0.000000
2.000000 2.736842 0.000000
2.000000 2.776316 0.000000
2.000000 2.815789 0.000000
2.000000 2.855263 0.000000
2.000000 2.894737 0.000000
2.000000 2.934211 0.000000
2.000000 2.973684 0.000000
2.000000 3.013158 0.000000
2.000000 3.052632 0.000000
2.000000 3.092105 0.000000
2.000000 3.131579 0.000000
2.000000 3.171053 0.000000
2.000000 3.210526 0.000000
2.000000 3.250000 0.000000
2.000000 3.289474 0.000000
2.000000 3.328947 0.000000
2.000000 3.368421 0.000000
2.000000 3.407895 0.000000
2.000000 3.447368 0.000000
2.000000 3.486842 0.000000
2.000000 3.526316 0.000000
2.000000 3.565789 0.000000
2.000000 3.605263 0.000000
2.000000 3.644737 0.000000
2.000000 3.684211 0.000000
2.000000 3.723684 0.000000
2.000000 3.763158 0.000000
2.000000 3.802632 0.000000
2.000000 3.842105 0.000000
2.000000 3.881579 0.000000
2.000000 3.921053 0.000000
2.000000 3.960526 0.000000
1.960000 4.000000 0.000000
1.920000 4.000000 0.000000
1.880000 4.000000 0.000000
1.840000 4.000000 0.000000
1.800000 4.000000 0.000000
1.760000 4.000000 0.000000
1.720000 4.000000 0.000000
1.680000 4.000000 0.000000
1.640000 4.000000 0.000000
1.600000 4.000000 0.000000
1.560000 4.000000 0.000000
1.520000 4.000000 0.000000
1.480000 4.000000 0.000000
1.440000 4.000000 0.000000
1.400000 4.000000 0.000000
1.360000 4.000000 0.000000
1.320000 4.000000 0.000000
1.280000 4.000000 0.000000
1.240000 4.000000 0.000000
1.200000 4.000000 0.000000
1.160000 4.000000 0.000000
1.120000 4.000000 0.000000
1.080000 4.000000 0.000000
1.040000 4.000000 0.000000
1.000000 4.000000 0.000000
0.960000 4.000000 0.000000
0.920000 4.000000 0.000000
0.880000 4.000000 0.000000
0.840000 4.000000 0.000000
0.800000 4.000000 0.000000
0.760000 4.000000 0.000000
0.720000 4.000000 0.000000
0.680000 4.000000 0.000000
0.640000 4.000000 0.000000
0.600000 4.000000 0.000000
0.560000 4.000000 0.000000
0.520000 4.000000 0.000000
0.480000 4.000000 0.000000
0.440000 4.000000 0.000000
0.400000 4.000000 0.000000
0.360000 4.000000 0.000000
0.320000 4.000000 0.000000
0.280000 4.000000 0.000000
0.240000 4.000000 0.000000
0.200000 4.000000 0.000000
0.160000 4.000000 0.000000
0.120000 4.000000 0.000000
0.080000 4.000000 0.000000
0.040000 4.000000 0.000000
0.000000 3.960227 0.000000
0.000000 3.920455 0.000000
0.000000 3.880682 0.000000
0.000000 3.840909 0.000000
0.000000 3.801136 0.000000
0.000000 3.761364 0.000000
0.000000 3.721591 0.000000
0.000000 3.681818 0.000000
0.000000 3.642045 0.000000
0.000000 3.602273 0.000000
0.000000 3.562500 0.000000
0.000000 3.522727 0.000000
0.000000 3.482955 0.000000
0.000000 3.443182 0.000000
0.000000 3.403409 0.000000
0.000000 3.363636 0.000000
0.000000 3.323864 0.000000
0.000000 3.284091 0.000000
0.000000 3.244318 0.000000
0.000000 3.204545 0.000000
0.000000 3.164773 0.000000
0.000000 3.125000 0.000000
0.000000 3.085227 0.000000
0.000000 3.045455 0.000000
0.000000 3.005682 0.000000
0.000000 2.965909 0.000000
0.000000 2.926136 0.000000
0.000000 2.886364 0.000000
0.000000 2.846591 0.000000
0.000000 2.806818 0.000000
0.000000 2.767045 0.000000
0.000000 2.727273 0.000000
0.000000 2.687500 0.000000
0.000000 2.647727 0.000000
0.000000 2.607955 0.000000
0.000000 2.568182 0.000000
0.000000 2.528409 0.000000
0.000000 2.488636 0.000000
0.000000 2.448864 0.000000
0.000000 2.409091 0.000000
0.000000 2.369318 0.000000
0.000000 2.329545 0.000000
0.000000 2.289773 0.000000
0.000000 2.250000 0.000000
0.000000 2.210227 0.000000
0.000000 2.170455 0.000000
0.000000 2.130682 0.000000
0.000000 2.090909 0.000000
0.000000 2.051136 0.000000
0.000000 2.011364 0.000000
0.000000 1.971591 0.000000
0.000000 1.931818 0.000000
0.000000 1.892045 0.000000
0.000000 1.852273 0.000000
0.000000 1.812500 0.000000
0.000000 1.772727 0.000000
0.000000 1.732955 0.000000
0.000000 1.693182 0.000000
0.000000 1.653409 0.000000
0.000000 1.613636 0.000000
0.000000 1.573864 0.000000
0.000000 1.534091 0.000000
0.000000 1.494318 0.000000
0.000000 1.454545 0.000000
0.000000 1.414773 0.000000
0.000000 1.375000 0.000000
0.000000 1.335227 0.000000
0.000000 1.295455 0.000000
0.000000 1.255682 0.000000
0.000000 1.215909 0.000000
0.000000 1.176136 0.000000
0.000000 1.136364 0.000000
0.000000 1.096591 0.000000
0.000000 1.056818 0.000000
0.000000 1.017045 0.000000
0.000000 0.977273 0.000000
0.000000 0.937500 0.000000
0.000000 0.897727 0.000000
0.000000 0.857955 0.000000
0.000000 0.818182 0.000000
0.000000 0.778409 0.000000
0.000000 0.738636 0.000000
0.000000 0.698864 0.000000
0.000000 0.659091 0.000000
0.000000 0.619318 0.000000
0.000000 0.579545 0.000000
0.000000 0.539773 0.000000
0.000000 0.461538 0.000000
0.000000 0.423077 0.000000
0.000000 0.384615 0.000000
0.000000 0.346154 0.000000
0.000000 0.307692 0.000000
0.000000 0.269231 0.000000
0.000000 0.230769 0.000000
0.000000 0.192308 0.000000
0.000000 0.153846 0.000000
0.000000 0.115385 0.000000
0.000000 0.076923 0.000000
0.000000 0.038462 0.000000
0.027778 0.527778 0.000000
0.055556 0.555556 0.000000
0.083333 0.583333 0.000000
0.111111 0.611111 0.000000
0.138889 0.638889 0.000000
0.166667 0.666667 0.000000
0.194444 0.694444 0.000000
0.222222 0.722222 0.000000
0.250000 0.750000 0.000000
0.277778 0.777778 0.000000
0.305556 0.805556 0.000000
0.333333 0.833333 0.000000
0.361111 0.861111 0.000000
0.388889 0.888889 0.000000
0.416667 0.916667 0.000000
0.444444 0.944444 0.000000
0.472222 0.972222 0.000000
0.500000 1.000000 0.000000
0.527778 1.027778 0.000000
0.555556 1.055556 0.000000
0.583333 1.083333 0.000000
0.611111 1.111111 0.000000
0.638889 1.138889 0.000000
0.666667 1.166667 0.000000
0.694444 1.194444 0.000000
0.722222 1.222222 0.000000
0.750000 1.250000 0.000000
0.777778 1.277778 0.000000
0.805556 1.305556 0.000000
0.833333 1.333333 0.000000
0.861111 1.361111 0.000000
0.888889 1.388889 0.000000
0.916667 1.416667 0.000000
0.944444 1.444444 0.000000
0.972222 1.472222 0.000000
1.000000 1.500000 0.000000
1.027778 1.527778 0.000000
1.055556 1.555556 0.000000
1.083333 1.583333 0.000000
1.111111 1.611111 0.000000
1.138889 1.638889 0.000000
1.166667 1.666667 0.000000
1.194444 1.694444 0.000000
1.222222 1.722222 0.000000
1.250000 1.750000 0.000000
1.277778 1.777778 0.000000
1.305556 1.805556 0.000000
1.333333 1.833333 0.000000
1.361111 1.861111 0.000000
1.388889 1.888889 0.000000
1.416667 1.916667 0.000000
1.444444 1.944444 0.000000
1.472222 1.972222 0.000000
1.527778 2.027778 0.000000
1.555556 2.055556 0.000000
1.583333 2.083333 0.000000
1.611111 2.111111 0.000000
1.638889 2.138889 0.000000
1.666667 2.166667 0.000000
1.694444 2.194444 0.000000
1.722222 2.222222 0.000000
1.750000 2.250000 0.000000
1.777778 2.277778 0.000000
1.805556 2.305556 0.000000
[...]
POINT_DATA 6577
SCALARS UX float 1
LOOKUP_TABLE default
-0.000080
0.000120
-0.128195
-1.001487
-0.241792
0.109442
0.110544
0.000019
-0.000005
-0.000001
0.000001
-0.000003
-0.000010
0.000001
0.000001
0.000003
-0.000000
0.000000
0.000002
0.000001
0.000002
-0.000001
0.000001
-0.000002
-0.000001
0.000000
-0.000001
-0.000001
0.000000
0.000000
0.000001
0.000000
-0.000000
0.000000
0.000000
0.000000
-0.000000
-0.000000
0.000001
-0.000001
-0.000000
0.000000
-0.000000
0.000001
0.000000
0.000001
-0.000001
-0.000000
-0.000000
-0.000001
0.000002
-0.000002
0.000002
-0.000000
-0.000001
-0.000016
0.022318
0.042180
0.056514
0.068752
0.079675
0.090159
0.099750
0.109390
0.118973
0.128248
0.137632
0.147160
0.155092
0.161778
0.167942
0.173822
0.179691
0.185186
0.190530
0.195812
0.200774
0.206325
0.211682
0.216259
0.221563
0.226885
0.231669
0.236549
0.241608
0.246410
0.251723
0.256592
0.260516
0.264207
0.266291
0.269552
0.271961
0.274046
0.274863
0.274591
0.273244
0.270939
0.267749
0.264266
0.260310
0.256001
0.251887
0.247955
0.243911
0.239389
0.234805
0.229169
0.220769
0.211665
0.201434
0.188783
0.174835
0.165301
0.155192
0.136195
0.128841
0.123570
0.098386
0.080722
0.066727
0.046002
0.026606
0.011530
-0.006603
-0.024897
-0.041709
-0.058748
-0.065711
-0.077643
-0.087027
-0.091623
-0.091608
-0.089773
-0.085031
-0.083867
-0.087956
-0.095795
-0.103030
-0.107398
-0.117291
-0.130815
-0.143234
-0.152599
-0.153434
-0.123795
-0.099189
-0.105082
-0.123825
-0.130460
-0.134034
-0.137491
-0.138432
-0.136868
-0.131846
-0.149024
-0.168340
-0.187588
-0.206428
-0.226028
-0.248778
-0.274553
-0.299327
-0.324276
-0.349361
-0.376120
-0.404083
-0.434758
-0.467160
-0.496010
-0.523394
-0.549380
-0.573901
-0.596958
-0.618797
-0.639865
-0.660396
-0.680417
-0.698648
-0.714704
-0.731064
-0.747041
-0.762432
-0.777636
-0.792749
-0.807695
-0.822336
-0.836479
-0.848786
-0.860585
-0.872144
-0.883790
-0.894599
-0.905122
-0.915615
-0.925475
-0.935097
-0.944713
-0.954633
-0.963218
-0.971116
-0.979009
-0.986487
-0.993872
-0.999788
-0.998022
-0.995705
-0.992071
-0.987064
-0.981424
-0.974933
-0.967265
-0.959228
-0.949970
-0.939717
-0.928401
-0.916244
-0.904236
-0.889184
-0.874619
-0.859266
-0.843795
-0.828659
-0.810907
-0.794333
-0.777347
-0.759332
-0.741696
-0.725468
-0.707459
-0.691923
-0.675728
-0.662656
-0.646442
-0.632270
-0.617885
-0.605314
-0.593778
-0.580003
-0.568486
-0.555650
-0.544890
-0.536735
-0.528329
-0.517325
-0.507151
-0.496787
-0.486950
-0.476301
-0.467757
-0.458314
-0.449114
-0.440211
-0.431664
-0.424211
-0.417327
-0.410585
-0.402577
-0.395856
-0.389139
-0.382223
-0.375688
-0.369311
-0.361576
-0.356965
-0.351939
-0.347625
-0.344295
-0.342546
-0.341603
-0.342596
-0.343993
-0.346654
-0.350128
-0.354116
-0.358179
-0.362771
-0.367247
-0.371180
-0.374482
-0.376806
-0.377185
-0.375509
-0.371995
-0.366982
-0.362050
-0.360465
-0.363566
-0.361446
-0.355924
-0.389595
-0.167882
-0.163410
-0.160277
-0.154487
-0.147125
-0.137876
-0.127038
-0.115774
-0.103000
-0.089111
-0.072995
-0.039498
-0.273460
-0.284652
-0.318191
-0.367368
-0.314538
-0.283740
-0.291565
-0.240210
-0.283650
-0.294060
-0.278509
-0.334310
-0.330189
-0.385337
-0.314396
-0.285758
-0.277591
-0.301406
-0.282410
-0.301933
-0.584015
-0.410450
-0.315862
-0.241819
-0.315662
-0.236297
-0.181086
-0.185937
-0.166577
-0.131285
-0.097228
-0.082817
-0.077786
-0.072288
-0.062495
-0.044975
-0.043241
-0.031643
-0.016342
-0.014640
-0.002791
0.010062
0.025058
0.027948
0.040567
0.046696
0.059088
0.074046
0.084035
0.085243
0.090358
0.103521
0.105184
0.112563
0.109171
0.107178
0.104630
0.103490
0.104141
0.102688
0.097010
0.096884
0.096861
0.095887
0.094789
0.093205
0.093364
0.096454
0.103662
0.106137
0.072610
0.054704
-0.990337
-0.992672
-0.150929
-0.150332
0.095740
0.096488
0.079910
-0.000101
-0.019778
-0.335908
-0.358259
-0.352356
-0.118548
-0.112322
-0.104400
-0.369684
-0.333835
-0.322069
-0.329198
-0.429552
-0.417731
-0.410284
-0.949691
-0.948521
-0.940804
-0.939976
-0.949540
-0.941726
-0.429089
-0.258518
-0.223923
-0.224392
-0.419103
-0.441138
-0.420663
-0.795088
-0.773763
-0.778164
-0.330104
-0.487774
-0.487539
-0.508822
-0.183167
-0.195488
-0.193168
-0.440131
-0.439436
-0.454276
-0.449264
-0.858198
-0.869512
-0.858934
-0.872477
-0.830089
-0.840019
-0.823483
-0.832543
-0.449532
-0.433033
-0.447200
-0.192962
-0.183320
-0.186728
-0.177946
0.077891
0.084698
-0.177479
-0.366642
-0.361288
-0.353764
-0.376732
-0.781688
-0.763973
-0.760678
-0.337819
-0.355183
-0.343412
-0.348433
-0.037514
-0.030218
-0.026121
-0.019653
-0.518285
-0.541277
-0.524864
-0.540875
-0.492077
-0.481231
-0.495844
-0.301093
-0.287925
-0.293997
0.052918
0.072508
0.042855
0.063184
0.002071
0.005888
-0.021121
-0.319672
-0.329231
-0.324875
-0.082451
-0.093392
-0.085918
-0.100733
-0.479223
-0.933113
-0.937156
-0.928784
-0.760985
-0.744893
-0.750611
-0.761618
-0.609043
-0.615434
-0.596119
-0.598806
-0.312580
-0.310805
-0.320110
-0.701514
-0.708077
-0.719664
-0.261845
-0.291811
-0.277157
0.011838
0.072676
0.041250
0.076327
-0.211598
-0.205333
-0.212993
-0.214779
-0.221176
-0.222580
-0.302412
-0.289308
-0.623805
-0.610669
-0.604313
-0.683923
-0.666666
-0.677883
-0.632943
-0.688992
-0.704303
-0.679735
-0.890861
-0.896420
-0.901465
-0.312568
-0.248149
-0.246265
-0.255462
-0.565700
-0.561080
-0.574453
-0.338090
-0.347799
-0.335577
-0.018657
0.004152
-0.021960
0.007428
-0.191375
-0.202035
-0.198786
-0.213377
0.027542
0.029884
-0.558761
-0.557352
-0.570856
-0.544843
-0.824067
-0.835556
-0.817186
-0.300700
-0.292880
-0.306160
-0.223292
-0.232767
-0.221756
-0.288657
-0.833915
-0.852371
-0.837618
-0.847196
-0.318743
-0.331550
-0.330889
-0.345481
-0.843969
-0.587654
-0.598212
-0.777414
-0.770495
-0.785622
-0.911699
-0.906947
-0.165720
-0.165146
-0.176227
-0.305879
-0.311248
-0.307545
-0.417787
-0.404581
-0.409417
-0.295980
-0.301241
-0.298688
-0.397041
-0.292317
-0.296792
-0.293422
-0.162726
-0.185784
-0.168535
-0.171531
-0.902594
-0.912494
-0.898854
-0.908429
-0.986692
-0.987884
-0.161374
-0.162089
-0.102834
-0.095359
-0.084556
-0.107105
-0.817628
-0.815122
-0.807053
-0.287833
-0.290870
-0.289796
-0.801172
-0.123902
-0.122764
-0.132038
-0.344283
-0.350476
-0.777332
-0.760156
-0.761505
-0.174376
-0.169823
0.024441
0.029851
0.052557
0.054584
-0.483512
-0.498814
-0.486401
-0.506558
-0.351657
-0.341809
-0.346974
-0.344138
-0.306695
-0.312778
-0.305394
-0.317132
-0.313902
-0.346522
-0.347680
-0.352206
-0.357295
-0.357780
-0.362643
-0.366460
-0.361734
-0.293365
-0.291968
-0.195974
-0.176855
-0.297367
-0.303470
-0.301437
-0.974861
-0.362114
-0.372085
-0.357678
-0.308298
-0.310653
-0.036228
-0.048713
-0.046999
-0.036629
-0.411507
-0.398004
-0.400592
-0.204270
-0.207395
-0.214655
-0.168141
-0.160850
-0.341363
-0.322744
-0.308898
-0.199101
-0.171656
-0.176261
-0.179792
-0.325468
-0.332437
-0.327513
-0.899165
-0.895377
-0.887627
-0.344702
-0.384041
-0.389758
-0.378109
-0.288840
-0.288715
-0.292905
-0.350472
-0.355811
-0.320843
-0.318012
-0.313637
-0.285491
-0.286608
-0.287169
-0.285412
-0.285485
-0.365195
-0.366870
-0.361144
-0.370706
-0.349287
-0.350546
-0.360558
-0.172885
-0.164893
-0.288524
-0.289944
-0.289252
-0.285772
-0.285727
-0.336464
-0.985364
-0.338558
-0.333413
-0.331862
-0.325973
-0.324522
-0.149000
-0.310902
-0.304423
-0.980680
-0.981296
-0.283643
-0.284190
-0.169327
-0.162988
-0.195320
-0.187039
-0.299119
-0.283765
-0.267402
-0.271271
-0.255412
-0.314640
-0.309884
-0.810302
-0.818004
-0.797212
-0.361138
-0.352550
-0.358259
-0.320087
-0.369177
-0.802414
-0.212332
-0.314653
-0.327012
-0.310761
-0.968054
-0.366729
-0.362502
-0.373013
-0.981808
-0.336207
-0.329518
-0.334047
-0.323976
-0.309506
-0.194203
-0.181042
-0.186346
-0.363205
-0.337065
-0.161369
-0.151639
-0.976341
-0.976010
-0.971298
-0.831037
-0.823838
-0.355622
-0.351676
-0.358107
-0.337305
-0.367511
-0.291324
-0.295105
-0.354155
-0.353133
-0.339609
-0.301261
-0.305671
-0.324464
-0.320697
-0.312201
-0.369884
-0.819366
-0.190461
-0.183845
-0.316893
-0.981295
-0.365720
-0.361867
-0.373443
-0.974856
-0.975483
-0.093961
-0.088001
-0.081158
-0.286121
-0.146887
-0.171025
-0.158492
-0.176785
-0.340653
-0.345683
-0.354846
-0.296844
-0.287952
-0.286722
-0.284043
-0.285214
-0.283118
-0.283178
-0.283227
-0.368681
-0.398033
-0.387504
-0.380568
-0.226163
-0.414294
-0.407736
-0.422594
-0.962177
-0.089483
-0.205687
-0.207151
-0.190180
-0.362912
-0.359669
-0.371918
-0.965449
-0.968587
-0.970362
-0.337875
-0.348180
-0.353060
-0.303710
-0.365981
-0.366229
-0.371022
-0.285024
-0.287773
-0.076887
0.058946
0.073474
0.071985
-0.974910
-0.976805
-0.969242
-0.969101
-0.162096
-0.148986
-0.362290
-0.354749
-0.367155
-0.375909
-0.926665
-0.922014
-0.916116
-0.281169
-0.178836
-0.185606
-0.358893
-0.355889
-0.367893
-0.335855
-0.343352
-0.349667
-0.331462
-0.282227
-0.227067
-0.245174
-0.381856
-0.959962
-0.954282
-0.513536
-0.503548
-0.522100
-0.360529
-0.225199
-0.202858
-0.957432
-0.963125
-0.351446
-0.361839
-0.297253
-0.320147
0.081723
0.071960
-0.307866
-0.585614
-0.104531
-0.116507
-0.100835
-0.332425
-0.334751
-0.344063
-0.329760
-0.349057
-0.333663
-0.320480
-0.968006
-0.512872
-0.123861
-0.962007
-0.962329
-0.966625
-0.166760
-0.151004
-0.285321
-0.269808
-0.275731
-0.186308
-0.196076
-0.355036
-0.278702
-0.290277
0.015772
0.042435
0.016345
-0.906107
-0.912611
-0.901076
-0.909165
-0.353634
-0.812613
0.014899
0.048431
-0.342327
-0.289210
-0.293219
-0.812017
-0.323633
-0.299512
-0.303746
-0.325302
-0.335410
-0.321406
-0.246310
0.061777
-0.159875
-0.147852
-0.155432
-0.952061
-0.151132
-0.279103
-0.276872
-0.289343
-0.242069
-0.218512
-0.265152
-0.949718
-0.954586
-0.946460
-0.323523
-0.350040
-0.328273
-0.086831
-0.076463
-0.073254
-0.087591
-0.292634
-0.335206
-0.311080
-0.316853
-0.315600
-0.291597
-0.915781
-0.912048
-0.903578
-0.317817
-0.326486
-0.891822
-0.897859
-0.283712
-0.099012
-0.160849
-0.161112
-0.143769
-0.509744
-0.512524
-0.496785
-0.493814
0.027858
-0.304510
-0.323276
-0.958231
-0.924077
-0.134594
-0.133241
-0.124767
-0.953549
-0.955943
-0.957665
-0.183249
-0.285639
-0.284699
-0.203541
-0.207122
-0.160661
-0.130543
-0.139075
-0.150599
-0.158970
-0.163352
-0.280886
-0.280882
-0.280691
-0.124362
-0.281913
-0.266891
-0.278328
-0.279449
-0.295853
-0.943918
-0.375672
-0.318889
-0.435637
-0.422813
-0.437726
-0.261783
-0.425553
-0.285961
-0.942148
-0.447707
-0.429911
-0.937166
-0.441713
-0.629633
-0.637325
-0.644427
-0.377491
-0.014383
-0.306390
-0.232671
-0.223543
-0.223986
-0.617673
-0.214628
-0.217436
-0.225221
-0.521248
-0.500194
-0.287435
-0.291626
-0.920859
-0.924838
-0.916034
-0.228574
-0.578492
-0.567390
-0.297961
-0.301978
-0.529639
-0.511633
-0.324291
-0.329035
-0.309958
-0.314170
-0.884421
-0.894113
-0.888277
-0.246217
-0.236227
-0.215658
-0.266424
-0.281246
-0.085010
-0.093277
-0.105224
-0.283219
-0.282445
-0.278629
-0.278107
-0.098586
-0.468170
-0.460753
-0.477976
-0.278391
-0.287868
-0.298274
-0.345543
-0.342469
-0.340130
-0.335590
-0.275933
-0.276827
-0.296294
-0.919628
-0.247524
-0.237016
-0.231379
-0.908582
-0.921177
-0.294126
-0.306113
-0.156354
-0.169979
-0.413002
-0.425152
-0.412031
-0.180301
-0.488595
-0.506956
-0.506453
-0.483600
-0.287765
-0.292685
0.019478
0.047100
-0.192422
-0.204355
-0.201236
-0.311349
-0.316114
-0.306669
-0.215509
-0.451068
-0.479555
-0.490763
-0.477008
-0.935934
-0.924136
-0.921719
-0.286161
-0.290258
-0.463707
-0.451178
-0.467210
-0.863919
-0.861627
-0.872061
-0.320819
-0.305336
-0.297227
-0.301319
-0.311050
-0.315412
-0.917679
-0.206916
-0.197233
-0.207748
-0.281700
-0.279024
-0.279007
-0.462916
-0.475660
-0.467767
-0.890849
-0.907433
-0.901764
-0.896627
-0.275917
-0.275824
-0.321971
-0.330691
-0.451949
-0.439491
-0.437679
-0.275654
-0.888589
-0.879680
-0.892737
-0.882813
-0.273628
0.017599
-0.274151
-0.293377
-0.285048
-0.289365
-0.325749
-0.330812
-0.330247
-0.424554
-0.444129
-0.297400
-0.301662
-0.306173
-0.881668
-0.879598
-0.890977
-0.888076
-0.885083
-0.313551
-0.318653
-0.147514
-0.167029
-0.161214
-0.191537
-0.279738
-0.276876
-0.275891
-0.272909
-0.273011
-0.867531
-0.874887
-0.502171
-0.485978
-0.501217
-0.480177
-0.553675
-0.522488
-0.536912
-0.346581
-0.273104
-0.270951
-0.272031
-0.293146
-0.283219
-0.288413
-0.874667
-0.259436
-0.272035
-0.254180
-0.530185
-0.297884
-0.302368
-0.307754
-0.315058
-0.321177
-0.877579
-0.277612
-0.274641
-0.463321
-0.435876
-0.454760
-0.443948
-0.272995
-0.868631
-0.868730
-0.326125
-0.315086
-0.333606
-0.556260
-0.088751
-0.092874
-0.076209
-0.070683
-0.360227
-0.370701
-0.269524
-0.270427
-0.004066
0.014827
0.000625
-0.877011
-0.884971
-0.884557
-0.873872
-0.880118
-0.465899
-0.469030
-0.456603
-0.875853
-0.882478
-0.872508
-0.878976
-0.281381
-0.287195
-0.292621
-0.484239
-0.298381
-0.302397
-0.866858
-0.873413
-0.135551
-0.182300
-0.415186
-0.423517
-0.401184
-0.308693
-0.075027
-0.123814
-0.315626
-0.323171
-0.275183
-0.271934
-0.406013
-0.398502
-0.422905
-0.876204
-0.883451
-0.874169
-0.143131
-0.213387
-0.216576
-0.867446
-0.372279
-0.358252
-0.269913
-0.392668
-0.866136
-0.265440
-0.265848
-0.285525
-0.279375
-0.297029
-0.575523
-0.562094
-0.576211
-0.574323
-0.598338
-0.552174
-0.304417
-0.312101
-0.319078
-0.326994
-0.890975
-0.853011
-0.850756
-0.862648
-0.263943
-0.285585
-0.315436
-0.860396
-0.110902
-0.115067
-0.279355
-0.285926
-0.311701
-0.317792
-0.324007
-0.332889
-0.292349
-0.474126
-0.468988
-0.299564
-0.307033
-0.272565
-0.200519
-0.185867
-0.195758
-0.387126
-0.389473
-0.867385
-0.863016
-0.872761
-0.272483
-0.268811
-0.437487
-0.854892
-0.857233
-0.346029
-0.363753
-0.340571
-0.266320
-0.416964
-0.411527
-0.260858
-0.260876
-0.858816
-0.856842
-0.854486
-0.846375
-0.891655
-0.889237
-0.811171
-0.800649
-0.213942
-0.205081
-0.203723
-0.277158
-0.284456
-0.842281
-0.845337
-0.184689
-0.291886
-0.777974
-0.774759
-0.789501
-0.785164
-0.357008
-0.192750
-0.200543
-0.204942
-0.846651
-0.841906
-0.854436
-0.847912
-0.382625
-0.394082
-0.378702
-0.400126
-0.300167
-0.308163
-0.860153
-0.865645
-0.443967
-0.456941
-0.199974
-0.212845
-0.849304
-0.149074
-0.171751
-0.168766
-0.199553
-0.643596
-0.660358
-0.662966
-0.115574
-0.118625
-0.106859
-0.122887
-0.127781
-0.144329
-0.870544
-0.880783
-0.877097
-0.269621
-0.265466
-0.372458
-0.348962
-0.366754
-0.128737
-0.169085
-0.186434
-0.262362
-0.255879
-0.255175
-0.854121
-0.365835
-0.351618
-0.354227
-0.274909
-0.283028
-0.392442
-0.407432
-0.381475
-0.544093
-0.169866
-0.164035
-0.291264
-0.299936
-0.310002
-0.266812
-0.262000
-0.168236
-0.292058
-0.299895
-0.284466
-0.258324
-0.294620
-0.090896
-0.101003
-0.095109
-0.250862
-0.248825
-0.272923
-0.281541
-0.856163
-0.844772
-0.290153
-0.299512
-0.307224
0.070167
0.056702
0.017198
0.020677
-0.813145
-0.832194
-0.825232
-0.264258
-0.258571
-0.830741
-0.825189
-0.826966
-0.144290
-0.172985
-0.003713
0.000314
-0.024494
-0.046970
-0.046012
-0.104962
-0.254069
-0.245529
-0.242819
-0.076962
-0.072292
-0.494269
-0.482296
-0.497011
-0.488305
-0.270823
-0.280158
-0.289801
-0.842248
-0.297920
-0.306818
-0.261810
-0.255374
-0.405461
-0.410174
-0.388422
-0.192364
-0.201769
-0.216008
-0.119179
-0.115502
-0.190439
-0.186678
-0.792399
-0.800728
-0.833657
-0.824316
-0.831098
-0.249389
-0.239237
-0.236168
-0.190140
-0.666016
-0.681576
-0.683192
-0.084947
-0.063994
-0.268853
-0.278995
-0.104346
-0.125721
-0.130358
-0.137866
-0.288526
-0.296298
-0.141751
-0.149846
-0.839008
-0.830891
-0.362375
-0.372372
-0.533385
-0.258958
-0.251694
-0.842787
-0.823537
-0.810904
-0.812840
-0.246035
-0.237699
-0.918541
-0.931206
-0.268250
-0.276634
-0.386835
-0.841992
-0.846639
-0.905938
-0.934524
-0.928184
-0.257868
-0.248047
-0.233446
-0.174788
-0.191373
-0.346998
-0.172823
-0.171545
-0.178824
-0.241067
-0.232197
-0.288941
-0.268304
-0.819393
-0.812100
-0.821898
-0.267895
-0.276820
-0.277736
-0.343642
-0.364940
-0.346509
-0.335804
-0.328421
-0.382131
-0.584233
-0.259902
-0.197146
-0.206936
-0.339872
-0.252918
-0.746849
-0.766484
-0.169731
-0.230428
-0.239983
-0.230098
-0.449017
-0.440600
-0.427872
-0.351269
-0.357817
-0.257444
-0.247749
-0.333434
-0.238009
-0.226836
-0.265104
-0.276602
-0.440030
-0.455975
-0.837542
0.034851
0.057892
-0.005383
-0.018260
-0.195520
-0.179081
-0.170574
-0.699448
-0.198836
-0.202219
-0.192025
-0.200070
-0.190715
-0.474052
-0.462303
-0.452265
-0.221417
-0.226416
-0.234070
-0.103173
-0.095924
-0.112345
-0.261225
-0.214094
-0.739975
-0.740919
-0.754979
-0.759087
-0.426919
-0.441788
-0.422932
-0.213827
-0.462632
-0.791604
-0.793778
-0.775981
-0.188138
-0.197123
-0.204846
-0.439714
-0.149785
-0.161976
-0.144436
-0.168933
-0.172420
-0.771490
-0.041696
-0.027959
-0.023890
-0.211928
-0.630329
-0.613174
-0.628383
-0.611704
-0.045379
-0.248278
-0.233978
-0.241087
-0.241321
-0.420962
-0.427397
-0.414579
0.038614
-0.437980
-0.385771
-0.397779
-0.394136
-0.406746
-0.612798
-0.600563
-0.373162
-0.363362
-0.350921
-0.425248
-0.140270
-0.702662
-0.711806
-0.688852
-0.722242
-0.769830
-0.753474
-0.767811
-0.763174
-0.425689
-0.430618
-0.414639
-0.442317
-0.327291
-0.325706
-0.338856
-0.048070
-0.067778
-0.070097
-0.050863
-0.066678
-0.054035
-0.064923
-0.080120
-0.785075
-0.797230
-0.783706
-0.797793
-0.313014
-0.669798
-0.686180
-0.688071
-0.101833
-0.112152
-0.672549
-0.195997
-0.140455
-0.140503
-0.129443
-0.133708
-0.134276
-0.402881
-0.419464
-0.097039
-0.799053
-0.786738
-0.803746
-0.797228
-0.392637
0.030121
0.024823
-0.182153
-0.225912
-0.234221
-0.244708
-0.054861
-0.043708
-0.054653
-0.214139
-0.200312
-0.197929
-0.208325
-0.205870
-0.183401
-0.556387
-0.576043
-0.567350
-0.372034
-0.366958
-0.289739
-0.302949
-0.302611
-0.316727
-0.418329
-0.416964
-0.407803
-0.431558
-0.432880
-0.471026
-0.484713
-0.403913
-0.388463
-0.388244
-0.400485
-0.277965
-0.287336
-0.287678
-0.534018
-0.528548
-0.515597
-0.547513
-0.338297
-0.320986
-0.047875
-0.062182
-0.038261
-0.507793
-0.522621
-0.525385
-0.343570
-0.509745
-0.197861
-0.210867
-0.501465
-0.513853
-0.497182
-0.520321
-0.350778
-0.449566
-0.454626
-0.522880
-0.538792
-0.541653
-0.803104
-0.792222
-0.788817
-0.808581
-0.803333
-0.399520
-0.282773
-0.277031
-0.135099
-0.119026
-0.114970
-0.143343
-0.145617
-0.581588
-0.637015
-0.721573
-0.734824
-0.722051
-0.180371
-0.171010
-0.180935
-0.188479
-0.170829
-0.248583
-0.246010
-0.234389
-0.814648
-0.231348
-0.340218
-0.231447
-0.218150
-0.237386
-0.405907
-0.401262
-0.404659
-0.365779
-0.376423
-0.369797
-0.374792
-0.356041
-0.364532
-0.176905
-0.163985
-0.157004
-0.320866
-0.330988
-0.303747
-0.296811
-0.311035
-0.550029
-0.549692
-0.350156
-0.369619
-0.386761
-0.376147
-0.434548
-0.440282
-0.469401
-0.471169
-0.097592
-0.534208
-0.539679
-0.551537
-0.567030
-0.564268
-0.582689
-0.479972
-0.483944
-0.459587
-0.732794
-0.743346
-0.422758
-0.296288
-0.308522
-0.300711
-0.314425
-0.510898
-0.511577
-0.495118
-0.529743
-0.015461
-0.018122
-0.525886
0.058065
-0.224214
-0.241487
-0.262283
-0.266832
-0.289678
-0.531966
-0.517515
-0.529206
-0.603891
-0.602479
-0.618853
-0.214865
-0.218883
-0.228173
-0.517248
-0.531058
-0.228263
-0.213625
-0.505146
-0.522495
-0.516926
-0.162277
-0.168314
-0.153851
-0.180058
-0.702089
-0.717312
-0.694236
-0.725606
-0.245021
-0.239146
-0.224203
-0.260004
-0.249003
-0.257003
-0.433221
-0.061784
-0.054200
-0.066164
-0.056029
-0.070435
-0.055476
-0.469173
-0.458327
-0.463811
-0.467672
-0.452582
-0.740329
-0.734482
-0.709816
-0.747749
-0.764312
-0.766330
-0.093055
-0.087050
-0.741958
-0.759452
-0.752388
-0.107836
-0.126335
-0.775002
-0.097225
-0.105815
-0.106295
-0.725313
-0.007755
-0.031858
-0.069929
-0.078722
-0.086076
-0.075695
-0.078656
-0.166474
-0.184348
-0.163315
-0.152037
-0.543100
-0.523886
-0.600393
-0.582981
-0.576651
-0.610501
-0.558947
-0.571166
-0.553940
-0.600787
-0.595962
-0.618384
-0.158372
-0.151013
-0.171147
-0.348104
-0.364675
-0.496780
-0.486163
-0.333794
-0.714185
-0.717002
-0.743599
-0.700851
-0.695580
-0.678779
-0.695903
-0.663809
-0.650358
-0.651595
-0.658378
-0.675224
-0.673881
-0.723015
-0.726985
-0.743091
-0.742558
-0.721605
-0.724137
-0.121140
-0.716050
-0.698163
-0.929443
-0.936785
-0.704881
-0.681883
-0.722237
-0.695378
-0.574933
-0.567463
-0.555964
-0.533354
-0.555494
-0.710000