# vtk DataFile Version 2.0
Test
ASCII
DATASET POLYDATA
POINTS 6577 float
0.000000 0.000000 0.000000
2.000000 0.000000 0.000000
2.000000 4.000000 0.000000
0.000000 4.000000 0.000000
0.000000 0.500000 0.000000
1.500000 2.000000 0.000000
2.000000 2.500000 0.000000
0.040000 0.000000 0.000000
0.080000 0.000000 0.000000
0.120000 0.000000 0.000000
0.160000 0.000000 0.000000
0.200000 0.000000 0.000000
0.240000 0.000000 0.000000
0.280000 0.000000 0.000000
0.320000 0.000000 0.000000
0.360000 0.000000 0.000000
0.400000 0.000000 0.000000
0.440000 0.000000 0.000000
0.480000 0.000000 0.000000
0.520000 0.000000 0.000000
0.560000 0.000000 0.000000
0.600000 0.000000 0.000000
0.640000 0.000000 0.000000
0.680000 0.000000 0.000000
0.720000 0.000000 0.000000
0.760000 0.000000 0.000000
0.800000 0.000000 0.000000
0.840000 0.000000 0.000000
0.880000 0.000000 0.000000
0.920000 0.000000 0.000000
0.960000 0.000000 0.000000
1.000000 0.000000 0.000000
1.040000 0.000000 0.000000
1.080000 0.000000 0.000000
1.120000 0.000000 0.000000
1.160000 0.000000 0.000000
1.200000 0.000000 0.000000
1.240000 0.000000 0.000000
1.280000 0.000000 0.000000
1.320000 0.000000 0.000000
1.360000 0.000000 0.000000
1.400000 0.000000 0.000000
1.440000 0.000000 0.000000
1.480000 0.000000 0.000000
1.520000 0.000000 0.000000
1.560000 0.000000 0.000000
1.600000 0.000000 0.000000
1.640000 0.000000 0.000000
1.680000 0.000000 0.000000
1.720000 0.000000 0.000000
1.760000 0.000000 0.000000
1.800000 0.000000 0.000000
1.840000 0.000000 0.000000
1.880000 0.000000 0.000000
1.920000 0.000000 0.000000
1.960000 0.000000 0.000000
2.000000 0.039683 0.000000
2.000000 0.079365 0.000000
2.000000 0.119048 0.000000
2.000000 0.158730 0.000000
2.000000 0.198413 0.000000
2.000000 0.238095 0.000000
2.000000 0.277778 0.000000
2.000000 0.317460 0.000000
2.000000 0.357143 0.000000
2.000000 0.396825 0.000000
2.000000 0.436508 0.000000
2.000000 0.476190 0.000000
2.000000 0.515873 0.000000
2.000000 0.555556 0.000000
2.000000 0.595238 0.000000
2.000000 0.634921 0.000000
2.000000 0.674603 0.000000
2.000000 0.714286 0.000000
2.000000 0.753968 0.000000
2.000000 0.793651 0.000000
2.000000 0.833333 0.000000
2.000000 0.873016 0.000000
2.000000 0.912698 0.000000
2.000000 0.952381 0.000000
2.000000 0.992063 0.000000
2.000000 1.031746 0.000000
2.000000 1.071429 0.000000
2.000000 1.111111 0.000000
2.000000 1.150794 0.000000
2.000000 1.190476 0.000000
2.000000 1.230159 0.000000
2.000000 1.269841 0.000000
2.000000 1.309524 0.000000
2.000000 1.349206 0.000000
2.000000 1.388889 0.000000
2.000000 1.428571 0.000000
2.000000 1.468254 0.000000
2.000000 1.507937 0.000000
2.000000 1.547619 0.000000
2.000000 1.587302 0.000000
2.000000 1.626984 0.000000
2.000000 1.666667 0.000000
2.000000 1.706349 0.000000
2.000000 1.746032 0.000000
2.000000 1.785714 0.000000
2.000000 1.825397 0.000000
2.000000 1.865079 0.000000
2.000000 1.904762 0.000000
2.000000 1.944444 0.000000
2.000000 1.984127 0.000000
2.000000 2.023810 0.000000
2.000000 2.063492 0.000000
2.000000 2.103175 0.000000
2.000000 2.142857 0.000000
2.000000 2.182540 0.000000
2.000000 2.222222 0.000000
2.000000 2.261905 0.000000
2.000000 2.301587 0.000000
2.000000 2.341270 0.000000
2.000000 2.380952 0.000000
2.000000 2.420635 0.000000
2.000000 2.460317 0.000000
2.000000 2.539474 0.000000
2.000000 2.578947 0.000000
2.000000 2.618421 0.000000
2.000000 2.657895 0.000000
2.000000 2.697368 0.000000
2.000000 2.736842 0.000000
2.000000 2.776316 0.000000
2.000000 2.815789 0.000000
2.000000 2.855263 0.000000
2.000000 2.894737 0.000000
2.000000 2.934211 0.000000
2.000000 2.973684 0.000000
2.000000 3.013158 0.000000
2.000000 3.052632 0.000000
2.000000 3.092105 0.000000
2.000000 3.131579 0.000000
2.000000 3.171053 0.000000
2.000000 3.210526 0.000000
2.000000 3.250000 0.000000
2.000000 3.289474 0.000000
2.000000 3.328947 0.000000
2.000000 3.368421 0.000000
2.000000 3.407895 0.000000
2.000000 3.447368 0.000000
2.000000 3.486842 0.000000
2.000000 3.526316 0.000000
2.000000 3.565789 0.000000
2.000000 3.605263 0.000000
2.000000 3.644737 0.000000
2.000000 3.684211 0.000000
2.000000 3.723684 0.000000
2.000000 3.763158 0.000000
2.000000 3.802632 0.000000
2.000000 3.842105 0.000000
2.000000 3.881579 0.000000
2.000000 3.921053 0.000000
2.000000 3.960526 0.000000
1.960000 4.000000 0.000000
1.920000 4.000000 0.000000
1.880000 4.000000 0.000000
1.840000 4.000000 0.000000
1.800000 4.000000 0.000000
1.760000 4.000000 0.000000
1.720000 4.000000 0.000000
1.680000 4.000000 0.000000
1.640000 4.000000 0.000000
1.600000 4.000000 0.000000
1.560000 4.000000 0.000000
1.520000 4.000000 0.000000
1.480000 4.000000 0.000000
1.440000 4.000000 0.000000
1.400000 4.000000 0.000000
1.360000 4.000000 0.000000
1.320000 4.000000 0.000000
1.280000 4.000000 0.000000
1.240000 4.000000 0.000000
1.200000 4.000000 0.000000
1.160000 4.000000 0.000000
1.120000 4.000000 0.000000
1.080000 4.000000 0.000000
1.040000 4.000000 0.000000
1.000000 4.000000 0.000000
0.960000 4.000000 0.000000
0.920000 4.000000 0.000000
0.880000 4.000000 0.000000
0.840000 4.000000 0.000000
0.800000 4.000000 0.000000
0.760000 4.000000 0.000000
0.720000 4.000000 0.000000
0.680000 4.000000 0.000000
0.640000 4.000000 0.000000
0.600000 4.000000 0.000000
0.560000 4.000000 0.000000
0.520000 4.000000 0.000000
0.480000 4.000000 0.000000
0.440000 4.000000 0.000000
0.400000 4.000000 0.000000
0.360000 4.000000 0.000000
0.320000 4.000000 0.000000
0.280000 4.000000 0.000000
0.240000 4.000000 0.000000
0.200000 4.000000 0.000000
0.160000 4.000000 0.000000
0.120000 4.000000 0.000000
0.080000 4.000000 0.000000
0.040000 4.000000 0.000000
0.000000 3.960227 0.000000
0.000000 3.920455 0.000000
0.000000 3.880682 0.000000
0.000000 3.840909 0.000000
0.000000 3.801136 0.000000
0.000000 3.761364 0.000000
0.000000 3.721591 0.000000
0.000000 3.681818 0.000000
0.000000 3.642045 0.000000
0.000000 3.602273 0.000000
0.000000 3.562500 0.000000
0.000000 3.522727 0.000000
0.000000 3.482955 0.000000
0.000000 3.443182 0.000000
0.000000 3.403409 0.000000
0.000000 3.363636 0.000000
0.000000 3.323864 0.000000
0.000000 3.284091 0.000000
0.000000 3.244318 0.000000
0.000000 3.204545 0.000000
0.000000 3.164773 0.000000
0.000000 3.125000 0.000000
0.000000 3.085227 0.000000
0.000000 3.045455 0.000000
0.000000 3.005682 0.000000
0.000000 2.965909 0.000000
0.000000 2.926136 0.000000
0.000000 2.886364 0.000000
0.000000 2.846591 0.000000
0.000000 2.806818 0.000000
0.000000 2.767045 0.000000
0.000000 2.727273 0.000000
0.000000 2.687500 0.000000
0.000000 2.647727 0.000000
0.000000 2.607955 0.000000
0.000000 2.568182 0.000000
0.000000 2.528409 0.000000
0.000000 2.488636 0.000000
0.000000 2.448864 0.000000
0.000000 2.409091 0.000000
0.000000 2.369318 0.000000
0.000000 2.329545 0.000000
0.000000 2.289773 0.000000
0.000000 2.250000 0.000000
0.000000 2.210227 0.000000
0.000000 2.170455 0.000000
0.000000 2.130682 0.000000
0.000000 2.090909 0.000000
0.000000 2.051136 0.000000
0.000000 2.011364 0.000000
0.000000 1.971591 0.000000
0.000000 1.931818 0.000000
0.000000 1.892045 0.000000
0.000000 1.852273 0.000000
0.000000 1.812500 0.000000
0.000000 1.772727 0.000000
0.000000 1.732955 0.000000
0.000000 1.693182 0.000000
0.000000 1.653409 0.000000
0.000000 1.613636 0.000000
0.000000 1.573864 0.000000
0.000000 1.534091 0.000000
0.000000 1.494318 0.000000
0.000000 1.454545 0.000000
0.000000 1.414773 0.000000
0.000000 1.375000 0.000000
0.000000 1.335227 0.000000
0.000000 1.295455 0.000000
0.000000 1.255682 0.000000
0.000000 1.215909 0.000000
0.000000 1.176136 0.000000
0.000000 1.136364 0.000000
0.000000 1.096591 0.000000
0.000000 1.056818 0.000000
0.000000 1.017045 0.000000
0.000000 0.977273 0.000000
0.000000 0.937500 0.000000
0.000000 0.897727 0.000000
0.000000 0.857955 0.000000
0.000000 0.818182 0.000000
0.000000 0.778409 0.000000
0.000000 0.738636 0.000000
0.000000 0.698864 0.000000
0.000000 0.659091 0.000000
0.000000 0.619318 0.000000
0.000000 0.579545 0.000000
0.000000 0.539773 0.000000
0.000000 0.461538 0.000000
0.000000 0.423077 0.000000
0.000000 0.384615 0.000000
0.000000 0.346154 0.000000
0.000000 0.307692 0.000000
0.000000 0.269231 0.000000
0.000000 0.230769 0.000000
0.000000 0.192308 0.000000
0.000000 0.153846 0.000000
0.000000 0.115385 0.000000
0.000000 0.076923 0.000000
0.000000 0.038462 0.000000
0.027778 0.527778 0.000000
0.055556 0.555556 0.000000
0.083333 0.583333 0.000000
0.111111 0.611111 0.000000
0.138889 0.638889 0.000000
0.166667 0.666667 0.000000
0.194444 0.694444 0.000000
0.222222 0.722222 0.000000
0.250000 0.750000 0.000000
0.277778 0.777778 0.000000
0.305556 0.805556 0.000000
0.333333 0.833333 0.000000
0.361111 0.861111 0.000000
0.388889 0.888889 0.000000
0.416667 0.916667 0.000000
0.444444 0.944444 0.000000
0.472222 0.972222 0.000000
0.500000 1.000000 0.000000
0.527778 1.027778 0.000000
0.555556 1.055556 0.000000
0.583333 1.083333 0.000000
0.611111 1.111111 0.000000
0.638889 1.138889 0.000000
0.666667 1.166667 0.000000
0.694444 1.194444 0.000000
0.722222 1.222222 0.000000
0.750000 1.250000 0.000000
0.777778 1.277778 0.000000
0.805556 1.305556 0.000000
0.833333 1.333333 0.000000
0.861111 1.361111 0.000000
0.888889 1.388889 0.000000
0.916667 1.416667 0.000000
0.944444 1.444444 0.000000
0.972222 1.472222 0.000000
1.000000 1.500000 0.000000
1.027778 1.527778 0.000000
1.055556 1.555556 0.000000
1.083333 1.583333 0.000000
1.111111 1.611111 0.000000
1.138889 1.638889 0.000000
1.166667 1.666667 0.000000
1.194444 1.694444 0.000000
1.222222 1.722222 0.000000
1.250000 1.750000 0.000000
1.277778 1.777778 0.000000
1.305556 1.805556 0.000000
1.333333 1.833333 0.000000
1.361111 1.861111 0.000000
1.388889 1.888889 0.000000
1.416667 1.916667 0.000000
1.444444 1.944444 0.000000
1.472222 1.972222 0.000000
1.527778 2.027778 0.000000
1.555556 2.055556 0.000000
1.583333 2.083333 0.000000
1.611111 2.111111 0.000000
1.638889 2.138889 0.000000
1.666667 2.166667 0.000000
1.694444 2.194444 0.000000
1.722222 2.222222 0.000000
1.750000 2.250000 0.000000
1.777778 2.277778 0.000000
1.805556 2.305556 0.000000
[...]
POINT_DATA 6577
SCALARS UX float 1
LOOKUP_TABLE default
-0.000111
0.000142
0.051343
-0.801644
-0.370290
0.350497
0.677801
0.000026
-0.000007
-0.000002
0.000002
-0.000004
-0.000015
0.000002
0.000002
0.000005
0.000002
0.000000
0.000004
0.000001
0.000002
-0.000001
0.000001
-0.000002
-0.000001
0.000000
-0.000001
-0.000001
0.000000
0.000000
0.000001
0.000000
-0.000000
0.000000
-0.000000
0.000000
0.000000
-0.000000
0.000001
-0.000002
-0.000000
0.000000
-0.000000
0.000001
0.000000
-0.000001
-0.000001
-0.000001
-0.000000
-0.000001
0.000004
-0.000003
0.000002
-0.000001
-0.000001
-0.000019
0.025011
0.021842
0.028546
0.033372
0.038060
0.042741
0.047803
0.054105
0.061087
0.068607
0.076580
0.085389
0.091436
0.095561
0.099182
0.103166
0.107457
0.111673
0.116082
0.120763
0.125483
0.131395
0.137195
0.142550
0.149989
0.157971
0.165936
0.175216
0.185974
0.198006
0.212994
0.229206
0.244744
0.261515
0.276351
0.295252
0.313990
0.333248
0.351123
0.367997
0.383560
0.399774
0.417234
0.435482
0.454146
0.473226
0.493276
0.514325
0.535450
0.556079
0.576021
0.594168
0.609605
0.622124
0.632670
0.642592
0.653785
0.662046
0.665932
0.676940
0.687735
0.684488
0.670660
0.673080
0.678153
0.681631
0.642571
0.661179
0.667975
0.634671
0.590500
0.545692
0.543839
0.530974
0.505234
0.486151
0.495118
0.483262
0.516067
0.541922
0.514997
0.460532
0.399918
0.352000
0.326248
0.310959
0.276410
0.220466
0.196831
0.172209
0.150135
0.138450
0.089776
0.081566
0.101611
0.108741
0.100020
0.075129
0.058235
0.030803
0.007758
-0.015287
-0.038885
-0.064588
-0.089476
-0.115695
-0.141306
-0.164308
-0.185094
-0.205252
-0.224659
-0.242530
-0.259899
-0.277340
-0.294292
-0.310145
-0.325206
-0.339834
-0.354306
-0.368086
-0.381585
-0.396119
-0.410510
-0.424507
-0.438591
-0.452744
-0.466304
-0.480006
-0.493887
-0.508060
-0.522523
-0.537153
-0.552275
-0.568404
-0.584616
-0.600516
-0.616367
-0.632259
-0.648129
-0.663492
-0.678672
-0.693698
-0.708482
-0.723467
-0.738814
-0.754426
-0.770062
-0.785808
-0.802311
-0.803441
-0.805500
-0.807035
-0.807988
-0.810038
-0.814117
-0.818809
-0.825718
-0.832185
-0.837695
-0.841981
-0.844873
-0.847530
-0.844916
-0.842488
-0.838684
-0.834250
-0.829209
-0.819921
-0.810335
-0.798374
-0.783711
-0.767889
-0.751998
-0.733423
-0.716361
-0.697819
-0.681485
-0.661653
-0.643312
-0.624362
-0.607099
-0.590727
-0.572113
-0.555535
-0.536517
-0.519739
-0.505819
-0.490904
-0.471658
-0.453199
-0.435713
-0.421828
-0.410467
-0.406384
-0.404100
-0.405332
-0.410180
-0.417173
-0.427227
-0.438160
-0.446719
-0.449339
-0.452467
-0.454468
-0.455624
-0.457069
-0.457788
-0.455984
-0.456813
-0.456536
-0.455867
-0.454672
-0.453554
-0.451457
-0.449167
-0.445922
-0.442464
-0.438380
-0.433571
-0.427479
-0.420628
-0.412671
-0.403570
-0.393521
-0.382480
-0.369655
-0.354978
-0.338644
-0.320920
-0.302458
-0.286037
-0.279089
-0.295702
-0.333919
-0.413557
-0.215509
-0.210735
-0.208254
-0.202405
-0.194012
-0.182725
-0.169015
-0.154128
-0.137027
-0.119547
-0.096398
-0.055302
-0.348309
-0.379183
-0.287367
-0.245311
-0.220141
-0.258196
-0.274883
-0.272352
-0.234072
-0.267233
-0.258834
-0.253425
-0.269204
-0.255447
-0.254291
-0.267829
-0.275657
-0.283924
-0.296448
-0.309218
-0.301057
-0.342350
-0.334770
-0.314017
-0.408977
-0.369274
-0.319526
-0.294739
-0.241705
-0.162157
-0.174335
-0.098610
0.052078
-0.078407
-0.079809
-0.038043
0.086374
-0.422985
-0.036566
0.033971
0.043652
0.110245
0.069253
0.135817
0.177081
0.299570
0.215156
0.166062
0.331739
0.288136
0.343979
0.356367
0.184011
0.480312
0.429753
0.458380
0.465959
0.466791
0.472434
0.482331
0.493772
0.505564
0.528298
0.534342
0.552872
0.567488
0.593995
0.622081
0.643672
0.662658
0.643105
0.643570
-0.795741
-0.793470
0.058131
0.079869
0.647019
0.653168
0.628061
0.623064
0.588173
0.013729
-0.038382
-0.018931
0.172954
0.158898
0.178912
-0.051534
-0.164732
-0.143641
-0.154042
-0.220716
-0.205545
-0.205250
-0.728463
-0.736748
-0.721680
-0.751629
-0.770065
-0.767604
-0.213248
-0.046248
-0.020404
-0.059856
-0.224905
-0.236430
-0.219034
-0.781307
-0.772157
-0.766439
-0.161946
-0.270633
-0.272766
-0.286078
0.062028
0.036754
0.047505
-0.215432
-0.219999
-0.233838
-0.235942
-0.592261
-0.606051
-0.601700
-0.602000
-0.588473
-0.604743
-0.595458
-0.613709
-0.211121
-0.190139
-0.213318
0.035983
0.025144
-0.001583
0.018693
0.523293
0.549173
0.001780
-0.269165
-0.277946
-0.243715
-0.301086
-0.636552
-0.641449
-0.618534
-0.182384
-0.207147
-0.191924
-0.194687
0.229528
0.228603
0.231573
0.228262
-0.498168
-0.533680
-0.509501
-0.530729
-0.254108
-0.237485
-0.260452
-0.188690
-0.156485
-0.151397
0.570926
0.597179
0.572164
0.600648
0.570970
0.610186
0.531649
-0.276793
-0.297921
-0.314519
0.212090
0.206369
0.213976
0.203509
-0.231755
-0.758077
-0.775258
-0.765276
-0.471305
-0.460731
-0.459041
-0.477042
-0.623646
-0.631402
-0.609058
-0.611922
-0.227754
-0.195373
-0.218452
-0.413729
-0.418704
-0.428324
0.127080
0.082298
0.109515
0.250396
0.271878
0.259259
0.552090
-0.039183
-0.013709
-0.023579
-0.014986
-0.038477
-0.025898
-0.155380
-0.125227
-0.621556
-0.615055
-0.601425
-0.698420
-0.682633
-0.691252
-0.636890
-0.407461
-0.421288
-0.405102
-0.738867
-0.725602
-0.743477
-0.179302
-0.033013
-0.018702
-0.041047
-0.365812
-0.355438
-0.373629
-0.282677
-0.284586
-0.274733
0.271108
0.357402
0.275379
0.376017
0.048639
0.028600
0.027894
0.007309
0.618549
0.637208
-0.346716
-0.343515
-0.361191
-0.327645
-0.786188
-0.799983
-0.791278
-0.108093
-0.095549
-0.118896
0.009949
-0.013828
0.003633
-0.086522
-0.808546
-0.564478
-0.547739
-0.555258
-0.132051
-0.153341
-0.153718
-0.178093
-0.558096
-0.583199
-0.598658
-0.479417
-0.473429
-0.486917
-0.749117
-0.760172
0.153824
0.159035
0.142524
-0.410602
-0.414394
-0.410734
-0.392863
-0.378147
-0.359081
-0.401874
-0.406376
-0.403440
-0.345468
-0.397644
-0.400745
-0.397870
-0.022512
-0.050894
-0.056038
-0.021035
-0.772840
-0.788246
-0.785872
-0.802496
-0.784670
-0.779618
0.041933
0.024407
0.185474
0.197093
0.200053
0.188562
-0.520135
-0.520379
-0.508836
-0.392936
-0.394330
-0.389790
-0.506518
0.156992
0.151724
0.141853
-0.293899
-0.298747
-0.795211
-0.781818
-0.780535
0.040394
0.026704
0.433346
0.434453
0.466986
0.476112
-0.420253
-0.447009
-0.424467
-0.459962
-0.385904
-0.389374
-0.393716
-0.378312
-0.402084
-0.399437
-0.396804
-0.419254
-0.417884
-0.426023
-0.431774
-0.427094
-0.304804
-0.311191
-0.322407
-0.327490
-0.311729
-0.396859
-0.396668
-0.027476
-0.003677
-0.402191
-0.407688
-0.406130
-0.746258
-0.207627
-0.226995
-0.203021
-0.412466
-0.394033
0.226712
0.220278
0.225020
0.222561
-0.192257
-0.172998
-0.187860
0.039182
0.043115
0.024124
0.007510
0.042545
-0.075928
-0.045392
-0.063345
0.061362
0.061219
0.070818
0.048891
-0.431495
-0.436824
-0.429833
-0.642108
-0.646744
-0.631620
-0.001191
-0.284211
-0.311608
-0.285311
-0.394311
-0.394415
-0.398847
-0.306964
-0.310667
0.034829
-0.289333
-0.294104
-0.386822
-0.388197
-0.380021
-0.392649
-0.391390
-0.338128
-0.335776
-0.326665
-0.343080
-0.218894
-0.208663
-0.233113
0.001138
0.012199
-0.395223
-0.391532
-0.393083
-0.390335
-0.392008
-0.164926
-0.793044
-0.398779
-0.394200
-0.403860
-0.398038
-0.404081
0.088247
-0.119580
-0.107009
-0.777237
-0.769324
-0.390309
-0.389623
0.020284
0.057092
-0.036189
-0.026230
-0.402400
0.061326
0.068547
0.072047
0.079327
-0.419625
-0.414492
-0.598554
-0.614456
-0.602168
-0.309979
-0.330179
-0.327742
-0.285537
-0.347560
-0.618756
-0.047858
-0.125350
-0.145401
-0.116769
-0.733051
-0.352397
-0.341184
-0.357887
-0.764028
-0.443647
-0.437032
-0.443123
-0.138324
-0.112970
-0.029700
-0.009474
-0.018874
-0.262200
-0.246918
0.156550
0.169049
-0.750964
-0.755188
-0.743942
-0.544971
-0.534255
-0.333924
-0.343508
-0.342928
-0.302888
-0.307461
-0.390352
-0.396932
-0.082881
-0.102263
-0.055446
-0.403288
-0.409263
-0.431920
-0.427350
-0.417076
-0.360965
-0.533918
0.122822
0.132206
-0.422797
-0.796542
-0.363555
-0.352959
-0.371026
-0.768500
-0.761868
0.207773
0.202615
0.211609
-0.387821
0.063775
0.015763
0.054897
0.009039
-0.341555
-0.344508
-0.351114
-0.314270
-0.383203
-0.385575
-0.387819
-0.383256
-0.388956
-0.382219
-0.386389
-0.371895
-0.269162
-0.253041
-0.238453
-0.067369
-0.297253
-0.287630
-0.312504
-0.722183
0.215652
-0.042746
-0.050040
-0.033040
-0.372262
-0.361008
-0.382560
-0.734008
-0.735468
-0.747361
-0.334447
-0.346461
-0.355603
-0.326106
-0.382119
-0.108353
-0.127844
-0.384494
-0.378898
0.205204
0.458737
0.477585
0.479660
-0.792029
-0.781619
-0.764171
-0.752933
0.030290
0.048103
-0.081338
-0.076538
-0.105065
-0.110300
-0.671587
-0.671003
-0.656759
-0.385516
0.005837
-0.020651
-0.378598
-0.367243
-0.394351
-0.337155
-0.350156
-0.359340
-0.332179
-0.387828
-0.074954
-0.091454
-0.131105
-0.721332
-0.709487
-0.287826
-0.279336
-0.297323
-0.389780
-0.075322
-0.055988
-0.720856
-0.736463
-0.372741
-0.399716
-0.396920
-0.426603
0.602443
0.577239
-0.411302
-0.331736
0.210728
0.156200
0.183362
-0.341598
-0.355253
-0.364818
-0.331823
-0.120547
-0.097127
-0.127273
-0.776166
-0.289436
0.156887
-0.759000
-0.745936
-0.787691
0.031004
0.057552
-0.102159
-0.078616
-0.088345
0.006803
-0.026274
-0.395793
-0.089763
-0.109327
0.292831
0.375468
0.334207
-0.683818
-0.699135
-0.690384
-0.707545
-0.085245
-0.512986
0.570547
0.613536
-0.061308
-0.381520
-0.390073
-0.814649
-0.346645
-0.397435
-0.404872
-0.362491
-0.370759
-0.337498
-0.101247
0.398863
0.116761
0.137211
0.119478
-0.707847
0.137777
-0.062122
-0.057533
-0.080329
-0.095302
-0.071351
-0.114697
-0.709398
-0.726404
-0.696322
-0.431033
-0.402253
-0.436951
0.220963
0.222790
0.224218
0.219193
-0.100725
-0.383542
-0.413857
-0.359514
-0.420562
-0.033521
-0.671667
-0.678879
-0.662378
-0.371207
-0.377587
-0.673914
-0.666678
-0.378154
0.499499
0.263172
0.277871
0.307402
-0.289288
-0.298693
-0.271992
-0.272809
0.518677
-0.020733
-0.027172
-0.768837
-0.690826
0.147215
0.130683
0.145801
-0.751862
-0.742425
-0.788942
0.028828
-0.371995
-0.375428
0.001168
-0.024273
0.065848
0.166919
0.157282
0.163202
0.145454
0.143102
-0.369764
-0.376465
-0.381828
0.159185
-0.384929
-0.118660
-0.376486
-0.381683
-0.389397
-0.695303
-0.132140
-0.424971
-0.171644
-0.156040
-0.183057
-0.111534
-0.171047
-0.134491
-0.698716
-0.186753
-0.155010
-0.681728
-0.173661
-0.422860
-0.423628
-0.434306
-0.238720
0.503044
-0.406794
-0.145473
-0.129588
-0.119107
-0.410318
0.039109
0.030493
0.019111
-0.294749
-0.279143
-0.369770
-0.381052
-0.802771
-0.791263
-0.777284
0.009547
-0.571516
-0.555088
-0.389803
-0.399061
-0.302007
-0.288047
-0.430311
-0.437234
-0.409841
-0.417234
-0.781403
-0.795281
-0.770220
0.104545
0.114201
0.129096
0.088327
-0.364564
0.522512
0.504325
0.485284
-0.357316
-0.361693
-0.352235
-0.359588
0.504823
-0.207481
-0.192655
-0.225256
-0.369329
-0.078612
-0.096964
-0.054698
-0.421151
-0.414122
-0.418313
-0.361544
-0.372550
-0.094602
-0.764005
-0.009574
0.011636
0.019886
-0.733340
-0.747278
-0.379806
-0.111787
0.161208
0.137550
-0.180409
-0.194839
-0.170385
0.110091
-0.447429
-0.480492
-0.477874
-0.440365
0.059038
0.046872
0.465109
0.535146
0.089904
0.067105
0.075851
0.008298
-0.006562
0.027596
0.048548
-0.173285
-0.237990
-0.252066
-0.232358
-0.681704
-0.708697
-0.716675
-0.355149
-0.368001
-0.213934
-0.198612
-0.222747
-0.625925
-0.613556
-0.626732
-0.424095
-0.400977
-0.380444
-0.390979
-0.405257
-0.414226
-0.726459
0.053347
0.073546
0.057836
-0.339774
-0.341831
-0.346655
-0.380454
-0.403105
-0.387557
-0.819529
-0.827239
-0.834994
-0.809529
-0.331796
-0.339747
-0.196605
-0.231904
-0.360716
-0.339764
-0.336598
-0.351043
-0.831444
-0.739226
-0.755579
-0.723700
-0.341295
0.508509
-0.356184
-0.368217
-0.338411
-0.354149
-0.007257
-0.035389
-0.016418
-0.316863
-0.348827
-0.369609
-0.382232
-0.394367
-0.793097
-0.695668
-0.701486
-0.710071
-0.688164
-0.399879
-0.412399
0.276285
0.233038
0.247360
0.193452
-0.321146
-0.322557
-0.326329
-0.311090
-0.318410
-0.775934
-0.766714
-0.389696
-0.352417
-0.352203
-0.365535
-0.311211
-0.293098
-0.301972
-0.043950
-0.327496
-0.315734
-0.333255
-0.355530
-0.320575
-0.338698
-0.707505
-0.060683
-0.079727
-0.057194
-0.298174
-0.358711
-0.372031
-0.386262
-0.392420
-0.407380
-0.754621
-0.300979
-0.302795
-0.260684
-0.244786
-0.253302
-0.247383
-0.305585
-0.741002
-0.722604
0.014206
0.024731
-0.006601
-0.313758
0.401081
0.379455
0.392498
0.424544
-0.244526
-0.259599
-0.289518
-0.300758
0.363639
0.424946
0.364892
-0.660971
-0.679055
-0.656676
-0.814103
-0.804585
-0.248162
-0.247424
-0.230427
-0.589965
-0.599478
-0.586277
-0.596888
-0.299895
-0.320921
-0.340569
-0.270284
-0.345885
-0.360282
-0.690307
-0.680764
0.144778
0.112980
-0.164588
-0.183501
-0.147908
-0.376356
0.219946
0.163593
-0.382637
-0.400608
-0.276407
-0.279532
-0.177262
-0.156159
-0.199748
-0.640324
-0.636401
-0.618874
0.128755
0.170838
0.150313
-0.664280
-0.088058
-0.057757
-0.283733
-0.157727
-0.576755
-0.265629
-0.270105
-0.072294
-0.063893
-0.093996
-0.324287
-0.317164
-0.334089
-0.329279
-0.342957
-0.317455
-0.129071
-0.142976
-0.153104
-0.166723
-0.652004
-0.612601
-0.621796
-0.635971
0.115305
0.077384
0.040980
-0.702847
0.169665
0.171285
-0.274527
-0.300147
-0.136322
-0.149021
-0.157226
-0.174183
-0.324259
-0.262220
-0.254916
-0.335511
-0.361416
-0.074700
0.215902
0.253043
0.235102
-0.119005
-0.134297
-0.794116
-0.648656
-0.647880
-0.246860
-0.251299
-0.205333
-0.687781
-0.672103
-0.025300
-0.052063
0.001879
-0.257151
-0.232854
-0.230095
-0.236808
-0.245489
-0.754123
-0.732453
-0.713582
-0.597350
-0.612237
-0.609779
-0.795349
-0.773635
-0.087618
-0.070257
-0.052334
-0.244733
-0.275559
-0.694723
-0.678578
0.242756
-0.306273
-0.493965
-0.484102
-0.498869
-0.490477
-0.024463
0.120390
0.086696
0.081135
-0.656871
-0.642867
-0.653251
-0.633449
-0.097466
-0.111466
-0.080050
-0.132824
-0.318805
-0.346700
-0.570653
-0.580277
-0.243913
-0.250151
0.106424
0.061183
-0.768507
0.330039
0.269574
0.286402
0.216791
-0.390995
-0.395694
-0.405919
0.203337
0.203029
0.210101
0.324155
0.314139
0.280519
-0.590174
-0.603025
-0.601843
-0.212796
-0.218590
-0.050217
-0.017830
-0.043944
0.192850
0.212314
0.191293
-0.226420
-0.204301
-0.217214
-0.560870
-0.207520
-0.182497
-0.189320
-0.211111
-0.246650
-0.081744
-0.103558
-0.057689
-0.309506
0.098530
0.113503
-0.283282
-0.295160
-0.328164
-0.177072
-0.180958
0.095465
-0.105030
-0.116146
-0.089585
-0.190451
-0.104348
0.214744
0.206830
0.215240
-0.166194
-0.181054
-0.177463
-0.213674
-0.573807
-0.564371
-0.253378
-0.264472
-0.297634
0.349349
0.370496
0.258933
0.280328
-0.771038
-0.780348
-0.761989
-0.144680
-0.145231
-0.533372
-0.525775
-0.532957
0.292636
0.225324
0.401965
0.440637
0.366067
0.330050
0.298903
0.206611
-0.151664
-0.124270
-0.145888
0.221137
0.219944
-0.258232
-0.244428
-0.264066
-0.256167
-0.147137
-0.180970
-0.221488
-0.546170
-0.227151
-0.265878
-0.117072
-0.114398
-0.123288
-0.141512
-0.089572
0.224608
0.202615
0.184373
0.174077
0.182918
0.080626
0.089018
-0.494125
-0.501140
-0.627325
-0.631431
-0.648043
-0.117241
-0.090127
-0.102822
0.100222
-0.674258
-0.682384
-0.690060
0.438281
0.457152
-0.121372
-0.154038
0.195733
0.186934
0.176866
0.171630
-0.187856
-0.195919
0.161870
0.155500
-0.663581
-0.673208
-0.028186
-0.056014
-0.306227
-0.091034
-0.086637
-0.582601
-0.542866
-0.531238
-0.540028
-0.088021
-0.068204
-0.694739
-0.708924
-0.102054
-0.130290
-0.165646
-0.721052
-0.737783
-0.656707
-0.703167
-0.686683
-0.072194
-0.061138
0.159698
0.143494
0.007652
-0.244947
0.105500
0.114744
0.098549
-0.060436
-0.042095
-0.103179
-0.070049
-0.681922
-0.661415
-0.653785
-0.084638
-0.113754
-0.081808
0.007865
-0.026317
-0.192595
-0.172405
-0.161597
-0.066929
-0.580767
-0.061763
0.012356
0.000061
-0.183648
-0.046421
-0.649236
-0.665189
-0.175616
-0.149945
-0.173012
-0.156730
-0.367952
-0.349906
-0.327744
-0.203687
-0.213036
-0.057394
-0.045162
-0.212225
-0.035042
-0.016151
-0.065382
-0.093429
-0.354005
-0.384858
-0.742952
0.223850
0.228719
0.232566
0.225380
0.210522
0.239182
0.241812
-0.700188
0.103673
0.095758
0.121289
0.086819
0.114863
-0.404576
-0.381816
-0.364571
0.018883
0.005961
-0.003568
0.422145
0.496922
0.435039
-0.047877
0.027908
-0.478505
-0.471674
-0.487826
-0.481366
-0.313958
-0.351316
-0.311850
0.006862
-0.232443
-0.797700
-0.805400
-0.790003
0.138946
0.127080
0.110990
-0.349861
0.124792
0.103686
0.136348
0.085000
0.083510
-0.497345
0.214070
0.230637
0.249339
0.036985
-0.646459
-0.626370
-0.644660
-0.623463
0.207767
-0.017955
0.008376
-0.007016
-0.002712
-0.132730
-0.144990
-0.121019
0.443041
-0.165103
-0.253905
-0.272235
-0.269090
-0.289063
-0.618779
-0.603692
-0.317642
-0.305546
-0.278074
-0.383022
-0.032218
-0.621531
-0.639200
-0.624328
-0.629559
-0.578299
-0.567839
-0.567653
-0.584127
-0.320125
-0.326212
-0.296710
-0.350333
-0.149972
-0.149037
-0.170983
0.104290
0.121541
0.343536
0.371482
0.369798
0.348418
0.390109
0.372377
-0.506042
-0.519087
-0.511711
-0.525574
-0.125665
-0.691911
-0.710004
-0.712355
0.173407
0.161089
-0.694783
-0.017719
0.150562
0.154758
0.166292
0.166794
0.153958
-0.278942
-0.309921
0.182997
-0.702041
-0.679737
-0.685513
-0.665354
-0.356015
0.423750
0.424286
-0.041545
0.148698
0.136211
0.117041
0.214557
0.215590
0.207960
0.176821
0.051684
0.051509
0.033708
0.031714
0.148190
-0.336718
-0.355949
-0.351993
-0.232828
-0.220625
-0.093854
-0.117171
-0.114469
-0.140303
-0.297231
-0.296868
-0.279698
-0.320887
-0.324361
-0.222448
-0.243096
-0.290107
-0.261131
-0.260882
-0.283460
-0.065594
-0.080699
-0.083946
-0.488656
-0.487697
-0.466248
-0.511425
-0.174419
-0.145265
0.206256
0.200007
0.214615
-0.274343
-0.293909
-0.297030
-0.326002
-0.278703
0.191884
0.174469
-0.467600
-0.486926
-0.458011
-0.499262
-0.344096
-0.185173
-0.195347
-0.295460
-0.313797
-0.317835
-0.753939
-0.759461
-0.735841
-0.743624
-0.724823
-0.103726
-0.078782
-0.060844
0.394234
0.447147
0.445348
0.338983
0.353016
-0.367933
-0.382205
-0.432220
-0.444794
-0.435516
0.107939
0.126139
0.119177
0.035398
0.140600
-0.051028
-0.045230
-0.031960
-0.637873
-0.023374
-0.211933
-0.007291
0.015198
-0.013117
-0.105739
-0.098117
-0.101915
-0.224727
-0.243396
-0.232812
-0.238775
-0.206846
-0.220144
0.066454
0.087694
0.106337
-0.156684
-0.169984
-0.130175
-0.118393
-0.133046
-0.529057
-0.529882
-0.018651
-0.048373
-0.072484
-0.043578
-0.329220
-0.343183
-0.413548
-0.414493
0.166691
-0.519776
-0.530031
-0.546398
-0.568875
-0.563407
-0.589160
-0.425914
-0.428708
-0.384999
-0.557207
-0.575033
-0.308516
-0.089808
-0.110335
-0.096861
-0.119983
-0.479904
-0.484078
-0.457282
-0.510652
0.227005
0.226511
-0.505110
0.277577
0.162775
0.134590
0.105984
0.090625
0.070140
-0.513703
-0.489553
-0.507318
-0.611549
-0.610871
-0.631304
0.009941
-0.003163
-0.012780
-0.484791
-0.508039
0.022667
0.048669
-0.462911
-0.488441
-0.475975
0.207499
0.184022
0.214502
0.153408
-0.478410
-0.492322
-0.479631
-0.490781
-0.029405
-0.024595
-0.000064
-0.052557
-0.032621
-0.043860
-0.334276
0.196914
0.201662
0.194593
0.202860
0.193941
0.201145
-0.218222
-0.199507
-0.209729
-0.213417
-0.184461
-0.504626
-0.507929
-0.495304
-0.503110
-0.518908
-0.511789
0.178119
0.185026
-0.519111
-0.528887
-0.532841
0.421346
0.330429
-0.543026
0.136347
0.143179
0.121030
-0.511008
0.204786
0.214153
0.194425
0.187371
0.190400
0.194731
0.187504
0.279632
0.251289
0.295136
0.323384
-0.537271
-0.506714
-0.356089
-0.348623
-0.340945
-0.366529
-0.328099
-0.334041
-0.321833
-0.611806
-0.604677
-0.633476
0.090145
0.108460
0.071687
-0.199266
-0.224623
-0.436572
-0.417450
-0.176973
-0.548214
-0.538832
-0.551523
-0.547558
-0.530235
-0.529836
-0.518011
-0.685145
-0.669706
-0.670743
-0.678850
-0.697626
-0.695371
-0.747570
-0.749842
-0.767007
-0.763359
-0.469043
-0.463251
0.133403
-0.473218
-0.456369
-0.672839
-0.686696
-0.562190
-0.544925
-0.583141
-0.568409
-0.569350
-0.556957
-0.543382
-0.509674
-0.544563
-0.591424
-0.555160
0.173705
0.156347
0.177462
0.144356
-0.488076
-0.498779
-0.334514
-0.328699
-0.312002
0.221278
0.222684
0.226461
0.227312
0.219056
0.212811
0.212844
-0.257612
-0.518680
-0.503095
0.188316
0.163513
-0.677975
-0.665781
-0.659090
-0.366110
-0.362837
-0.337086
0.131537
0.156297
-0.389970
-0.309099
-0.281393
-0.590243
-0.568114
-0.564001
-0.541079
0.375145
0.303966
0.299058
0.366756