# vtk DataFile Version 2.0
Test
ASCII
DATASET POLYDATA
POINTS 6577 float
0.000000 0.000000 0.000000
2.000000 0.000000 0.000000
2.000000 4.000000 0.000000
0.000000 4.000000 0.000000
0.000000 0.500000 0.000000
1.500000 2.000000 0.000000
2.000000 2.500000 0.000000
0.040000 0.000000 0.000000
0.080000 0.000000 0.000000
0.120000 0.000000 0.000000
0.160000 0.000000 0.000000
0.200000 0.000000 0.000000
0.240000 0.000000 0.000000
0.280000 0.000000 0.000000
0.320000 0.000000 0.000000
0.360000 0.000000 0.000000
0.400000 0.000000 0.000000
0.440000 0.000000 0.000000
0.480000 0.000000 0.000000
0.520000 0.000000 0.000000
0.560000 0.000000 0.000000
0.600000 0.000000 0.000000
0.640000 0.000000 0.000000
0.680000 0.000000 0.000000
0.720000 0.000000 0.000000
0.760000 0.000000 0.000000
0.800000 0.000000 0.000000
0.840000 0.000000 0.000000
0.880000 0.000000 0.000000
0.920000 0.000000 0.000000
0.960000 0.000000 0.000000
1.000000 0.000000 0.000000
1.040000 0.000000 0.000000
1.080000 0.000000 0.000000
1.120000 0.000000 0.000000
1.160000 0.000000 0.000000
1.200000 0.000000 0.000000
1.240000 0.000000 0.000000
1.280000 0.000000 0.000000
1.320000 0.000000 0.000000
1.360000 0.000000 0.000000
1.400000 0.000000 0.000000
1.440000 0.000000 0.000000
1.480000 0.000000 0.000000
1.520000 0.000000 0.000000
1.560000 0.000000 0.000000
1.600000 0.000000 0.000000
1.640000 0.000000 0.000000
1.680000 0.000000 0.000000
1.720000 0.000000 0.000000
1.760000 0.000000 0.000000
1.800000 0.000000 0.000000
1.840000 0.000000 0.000000
1.880000 0.000000 0.000000
1.920000 0.000000 0.000000
1.960000 0.000000 0.000000
2.000000 0.039683 0.000000
2.000000 0.079365 0.000000
2.000000 0.119048 0.000000
2.000000 0.158730 0.000000
2.000000 0.198413 0.000000
2.000000 0.238095 0.000000
2.000000 0.277778 0.000000
2.000000 0.317460 0.000000
2.000000 0.357143 0.000000
2.000000 0.396825 0.000000
2.000000 0.436508 0.000000
2.000000 0.476190 0.000000
2.000000 0.515873 0.000000
2.000000 0.555556 0.000000
2.000000 0.595238 0.000000
2.000000 0.634921 0.000000
2.000000 0.674603 0.000000
2.000000 0.714286 0.000000
2.000000 0.753968 0.000000
2.000000 0.793651 0.000000
2.000000 0.833333 0.000000
2.000000 0.873016 0.000000
2.000000 0.912698 0.000000
2.000000 0.952381 0.000000
2.000000 0.992063 0.000000
2.000000 1.031746 0.000000
2.000000 1.071429 0.000000
2.000000 1.111111 0.000000
2.000000 1.150794 0.000000
2.000000 1.190476 0.000000
2.000000 1.230159 0.000000
2.000000 1.269841 0.000000
2.000000 1.309524 0.000000
2.000000 1.349206 0.000000
2.000000 1.388889 0.000000
2.000000 1.428571 0.000000
2.000000 1.468254 0.000000
2.000000 1.507937 0.000000
2.000000 1.547619 0.000000
2.000000 1.587302 0.000000
2.000000 1.626984 0.000000
2.000000 1.666667 0.000000
2.000000 1.706349 0.000000
2.000000 1.746032 0.000000
2.000000 1.785714 0.000000
2.000000 1.825397 0.000000
2.000000 1.865079 0.000000
2.000000 1.904762 0.000000
2.000000 1.944444 0.000000
2.000000 1.984127 0.000000
2.000000 2.023810 0.000000
2.000000 2.063492 0.000000
2.000000 2.103175 0.000000
2.000000 2.142857 0.000000
2.000000 2.182540 0.000000
2.000000 2.222222 0.000000
2.000000 2.261905 0.000000
2.000000 2.301587 0.000000
2.000000 2.341270 0.000000
2.000000 2.380952 0.000000
2.000000 2.420635 0.000000
2.000000 2.460317 0.000000
2.000000 2.539474 0.000000
2.000000 2.578947 0.000000
2.000000 2.618421 0.000000
2.000000 2.657895 0.000000
2.000000 2.697368 0.000000
2.000000 2.736842 0.000000
2.000000 2.776316 0.000000
2.000000 2.815789 0.000000
2.000000 2.855263 0.000000
2.000000 2.894737 0.000000
2.000000 2.934211 0.000000
2.000000 2.973684 0.000000
2.000000 3.013158 0.000000
2.000000 3.052632 0.000000
2.000000 3.092105 0.000000
2.000000 3.131579 0.000000
2.000000 3.171053 0.000000
2.000000 3.210526 0.000000
2.000000 3.250000 0.000000
2.000000 3.289474 0.000000
2.000000 3.328947 0.000000
2.000000 3.368421 0.000000
2.000000 3.407895 0.000000
2.000000 3.447368 0.000000
2.000000 3.486842 0.000000
2.000000 3.526316 0.000000
2.000000 3.565789 0.000000
2.000000 3.605263 0.000000
2.000000 3.644737 0.000000
2.000000 3.684211 0.000000
2.000000 3.723684 0.000000
2.000000 3.763158 0.000000
2.000000 3.802632 0.000000
2.000000 3.842105 0.000000
2.000000 3.881579 0.000000
2.000000 3.921053 0.000000
2.000000 3.960526 0.000000
1.960000 4.000000 0.000000
1.920000 4.000000 0.000000
1.880000 4.000000 0.000000
1.840000 4.000000 0.000000
1.800000 4.000000 0.000000
1.760000 4.000000 0.000000
1.720000 4.000000 0.000000
1.680000 4.000000 0.000000
1.640000 4.000000 0.000000
1.600000 4.000000 0.000000
1.560000 4.000000 0.000000
1.520000 4.000000 0.000000
1.480000 4.000000 0.000000
1.440000 4.000000 0.000000
1.400000 4.000000 0.000000
1.360000 4.000000 0.000000
1.320000 4.000000 0.000000
1.280000 4.000000 0.000000
1.240000 4.000000 0.000000
1.200000 4.000000 0.000000
1.160000 4.000000 0.000000
1.120000 4.000000 0.000000
1.080000 4.000000 0.000000
1.040000 4.000000 0.000000
1.000000 4.000000 0.000000
0.960000 4.000000 0.000000
0.920000 4.000000 0.000000
0.880000 4.000000 0.000000
0.840000 4.000000 0.000000
0.800000 4.000000 0.000000
0.760000 4.000000 0.000000
0.720000 4.000000 0.000000
0.680000 4.000000 0.000000
0.640000 4.000000 0.000000
0.600000 4.000000 0.000000
0.560000 4.000000 0.000000
0.520000 4.000000 0.000000
0.480000 4.000000 0.000000
0.440000 4.000000 0.000000
0.400000 4.000000 0.000000
0.360000 4.000000 0.000000
0.320000 4.000000 0.000000
0.280000 4.000000 0.000000
0.240000 4.000000 0.000000
0.200000 4.000000 0.000000
0.160000 4.000000 0.000000
0.120000 4.000000 0.000000
0.080000 4.000000 0.000000
0.040000 4.000000 0.000000
0.000000 3.960227 0.000000
0.000000 3.920455 0.000000
0.000000 3.880682 0.000000
0.000000 3.840909 0.000000
0.000000 3.801136 0.000000
0.000000 3.761364 0.000000
0.000000 3.721591 0.000000
0.000000 3.681818 0.000000
0.000000 3.642045 0.000000
0.000000 3.602273 0.000000
0.000000 3.562500 0.000000
0.000000 3.522727 0.000000
0.000000 3.482955 0.000000
0.000000 3.443182 0.000000
0.000000 3.403409 0.000000
0.000000 3.363636 0.000000
0.000000 3.323864 0.000000
0.000000 3.284091 0.000000
0.000000 3.244318 0.000000
0.000000 3.204545 0.000000
0.000000 3.164773 0.000000
0.000000 3.125000 0.000000
0.000000 3.085227 0.000000
0.000000 3.045455 0.000000
0.000000 3.005682 0.000000
0.000000 2.965909 0.000000
0.000000 2.926136 0.000000
0.000000 2.886364 0.000000
0.000000 2.846591 0.000000
0.000000 2.806818 0.000000
0.000000 2.767045 0.000000
0.000000 2.727273 0.000000
0.000000 2.687500 0.000000
0.000000 2.647727 0.000000
0.000000 2.607955 0.000000
0.000000 2.568182 0.000000
0.000000 2.528409 0.000000
0.000000 2.488636 0.000000
0.000000 2.448864 0.000000
0.000000 2.409091 0.000000
0.000000 2.369318 0.000000
0.000000 2.329545 0.000000
0.000000 2.289773 0.000000
0.000000 2.250000 0.000000
0.000000 2.210227 0.000000
0.000000 2.170455 0.000000
0.000000 2.130682 0.000000
0.000000 2.090909 0.000000
0.000000 2.051136 0.000000
0.000000 2.011364 0.000000
0.000000 1.971591 0.000000
0.000000 1.931818 0.000000
0.000000 1.892045 0.000000
0.000000 1.852273 0.000000
0.000000 1.812500 0.000000
0.000000 1.772727 0.000000
0.000000 1.732955 0.000000
0.000000 1.693182 0.000000
0.000000 1.653409 0.000000
0.000000 1.613636 0.000000
0.000000 1.573864 0.000000
0.000000 1.534091 0.000000
0.000000 1.494318 0.000000
0.000000 1.454545 0.000000
0.000000 1.414773 0.000000
0.000000 1.375000 0.000000
0.000000 1.335227 0.000000
0.000000 1.295455 0.000000
0.000000 1.255682 0.000000
0.000000 1.215909 0.000000
0.000000 1.176136 0.000000
0.000000 1.136364 0.000000
0.000000 1.096591 0.000000
0.000000 1.056818 0.000000
0.000000 1.017045 0.000000
0.000000 0.977273 0.000000
0.000000 0.937500 0.000000
0.000000 0.897727 0.000000
0.000000 0.857955 0.000000
0.000000 0.818182 0.000000
0.000000 0.778409 0.000000
0.000000 0.738636 0.000000
0.000000 0.698864 0.000000
0.000000 0.659091 0.000000
0.000000 0.619318 0.000000
0.000000 0.579545 0.000000
0.000000 0.539773 0.000000
0.000000 0.461538 0.000000
0.000000 0.423077 0.000000
0.000000 0.384615 0.000000
0.000000 0.346154 0.000000
0.000000 0.307692 0.000000
0.000000 0.269231 0.000000
0.000000 0.230769 0.000000
0.000000 0.192308 0.000000
0.000000 0.153846 0.000000
0.000000 0.115385 0.000000
0.000000 0.076923 0.000000
0.000000 0.038462 0.000000
0.027778 0.527778 0.000000
0.055556 0.555556 0.000000
0.083333 0.583333 0.000000
0.111111 0.611111 0.000000
0.138889 0.638889 0.000000
0.166667 0.666667 0.000000
0.194444 0.694444 0.000000
0.222222 0.722222 0.000000
0.250000 0.750000 0.000000
0.277778 0.777778 0.000000
0.305556 0.805556 0.000000
0.333333 0.833333 0.000000
0.361111 0.861111 0.000000
0.388889 0.888889 0.000000
0.416667 0.916667 0.000000
0.444444 0.944444 0.000000
0.472222 0.972222 0.000000
0.500000 1.000000 0.000000
0.527778 1.027778 0.000000
0.555556 1.055556 0.000000
0.583333 1.083333 0.000000
0.611111 1.111111 0.000000
0.638889 1.138889 0.000000
0.666667 1.166667 0.000000
0.694444 1.194444 0.000000
0.722222 1.222222 0.000000
0.750000 1.250000 0.000000
0.777778 1.277778 0.000000
0.805556 1.305556 0.000000
0.833333 1.333333 0.000000
0.861111 1.361111 0.000000
0.888889 1.388889 0.000000
0.916667 1.416667 0.000000
0.944444 1.444444 0.000000
0.972222 1.472222 0.000000
1.000000 1.500000 0.000000
1.027778 1.527778 0.000000
1.055556 1.555556 0.000000
1.083333 1.583333 0.000000
1.111111 1.611111 0.000000
1.138889 1.638889 0.000000
1.166667 1.666667 0.000000
1.194444 1.694444 0.000000
1.222222 1.722222 0.000000
1.250000 1.750000 0.000000
1.277778 1.777778 0.000000
1.305556 1.805556 0.000000
1.333333 1.833333 0.000000
1.361111 1.861111 0.000000
1.388889 1.888889 0.000000
1.416667 1.916667 0.000000
1.444444 1.944444 0.000000
1.472222 1.972222 0.000000
1.527778 2.027778 0.000000
1.555556 2.055556 0.000000
1.583333 2.083333 0.000000
1.611111 2.111111 0.000000
1.638889 2.138889 0.000000
1.666667 2.166667 0.000000
1.694444 2.194444 0.000000
1.722222 2.222222 0.000000
1.750000 2.250000 0.000000
1.777778 2.277778 0.000000
1.805556 2.305556 0.000000
[...]
POINT_DATA 6577
SCALARS UX float 1
LOOKUP_TABLE default
-0.000030
0.000127
-0.034202
-0.435891
-0.205127
-0.074651
-0.002485
-0.000001
-0.000003
-0.000004
0.000003
0.000004
-0.000017
0.000001
0.000003
0.000003
-0.000000
0.000002
-0.000002
0.000002
0.000002
-0.000001
0.000001
0.000001
0.000002
0.000001
-0.000001
-0.000002
0.000001
-0.000001
0.000002
0.000001
0.000000
-0.000000
0.000000
0.000000
-0.000001
0.000000
0.000001
-0.000002
0.000001
0.000001
-0.000003
0.000003
0.000002
-0.000001
-0.000003
-0.000000
-0.000001
-0.000008
0.000009
-0.000010
0.000010
0.000009
-0.000052
0.000038
0.040796
0.061704
0.074856
0.090003
0.098378
0.112313
0.122095
0.126922
0.134275
0.142608
0.151613
0.160287
0.165599
0.170057
0.176917
0.177757
0.178809
0.183584
0.188350
0.191036
0.194056
0.198256
0.199932
0.201164
0.205443
0.208207
0.211675
0.212104
0.210174
0.211277
0.211797
0.210754
0.208615
0.207842
0.205746
0.210236
0.207047
0.201706
0.198486
0.197393
0.195714
0.194192
0.191190
0.187358
0.182403
0.175028
0.166057
0.154061
0.151429
0.134665
0.114307
0.102508
0.087281
0.077817
0.071411
0.052283
0.040734
0.041219
0.034643
0.021798
0.031488
0.010072
-0.006744
-0.019764
-0.016717
-0.023281
-0.014467
-0.019003
-0.024846
-0.026550
-0.023129
-0.025446
-0.027140
-0.027376
-0.031630
-0.027991
-0.027498
-0.033297
-0.030650
-0.030183
-0.024796
-0.030052
-0.031080
-0.032080
-0.032872
-0.037001
-0.034199
-0.034990
-0.037308
-0.036186
-0.037069
-0.038245
-0.035272
-0.032972
-0.033268
-0.034465
-0.036780
-0.031754
-0.032152
-0.043544
-0.051269
-0.060627
-0.070645
-0.077639
-0.087580
-0.096040
-0.104414
-0.113349
-0.119245
-0.129261
-0.137184
-0.147355
-0.156329
-0.165560
-0.173413
-0.184459
-0.190107
-0.197980
-0.206817
-0.214134
-0.219949
-0.226746
-0.234178
-0.239110
-0.249339
-0.255694
-0.261703
-0.270091
-0.277904
-0.288579
-0.296580
-0.303765
-0.310939
-0.321223
-0.327867
-0.334230
-0.341272
-0.348463
-0.358795
-0.365557
-0.373619
-0.382554
-0.390169
-0.397892
-0.404513
-0.411167
-0.419021
-0.426586
-0.434954
-0.432865
-0.434280
-0.435933
-0.431652
-0.429147
-0.434383
-0.434001
-0.429326
-0.430566
-0.431064
-0.432567
-0.431192
-0.428528
-0.432442
-0.427419
-0.425272
-0.426011
-0.424704
-0.425239
-0.423326
-0.421336
-0.415900
-0.419776
-0.419519
-0.415054
-0.416485
-0.416119
-0.414695
-0.412717
-0.411509
-0.408191
-0.407484
-0.406923
-0.404979
-0.411050
-0.412416
-0.409224
-0.411520
-0.409450
-0.410831
-0.410107
-0.407332
-0.412385
-0.410639
-0.404797
-0.406912
-0.403221
-0.399885
-0.404449
-0.405793
-0.406415
-0.405254
-0.407529
-0.405566
-0.406699
-0.411556
-0.411689
-0.415528
-0.418595
-0.416270
-0.415307
-0.420394
-0.423984
-0.424150
-0.429127
-0.429738
-0.431370
-0.437220
-0.434228
-0.436536
-0.435744
-0.436431
-0.438384
-0.433730
-0.435643
-0.430061
-0.417529
-0.406315
-0.399316
-0.387987
-0.369863
-0.347037
-0.337380
-0.299130
-0.273910
-0.228053
-0.124667
-0.130265
-0.122184
-0.116728
-0.112142
-0.105267
-0.100665
-0.090624
-0.080996
-0.070628
-0.054110
-0.035425
-0.186971
-0.199090
-0.190800
-0.232036
-0.204757
-0.180674
-0.213458
-0.164144
-0.199743
-0.165973
-0.161290
-0.189274
-0.188183
-0.184590
-0.133055
-0.143874
-0.140893
-0.153362
-0.172091
-0.163181
-0.193326
-0.161070
-0.154955
-0.200935
-0.195595
-0.214927
-0.140754
-0.164180
-0.142205
-0.151092
-0.089653
-0.144886
-0.117968
-0.107987
-0.178377
-0.136836
-0.126159
-0.110115
-0.121651
-0.129809
-0.156131
-0.137633
-0.112774
-0.114027
-0.133268
-0.115889
-0.088827
-0.113440
-0.089265
-0.107709
-0.078521
-0.080230
-0.083301
-0.056134
-0.054473
-0.038874
-0.040038
-0.040631
-0.036523
-0.044781
-0.034368
-0.028094
-0.027862
-0.028147
-0.027125
-0.021039
-0.013726
-0.008679
-0.001250
-0.003125
-0.023016
-0.027327
-0.432463
-0.428277
-0.041919
-0.042999
-0.005049
-0.018042
-0.020274
-0.026061
-0.027206
-0.114883
-0.120365
-0.121116
-0.189259
-0.185319
-0.175046
-0.124267
-0.332834
-0.322612
-0.324463
-0.139995
-0.132869
-0.129525
-0.396622
-0.399852
-0.393944
-0.403076
-0.409615
-0.408063
-0.135515
-0.084294
-0.075233
-0.076191
-0.136882
-0.143083
-0.131980
-0.397243
-0.395968
-0.389082
-0.332214
-0.161315
-0.160774
-0.167769
-0.174975
-0.183128
-0.183987
-0.147509
-0.139088
-0.151400
-0.145018
-0.334234
-0.342960
-0.336607
-0.335656
-0.325587
-0.334448
-0.330521
-0.337426
-0.152184
-0.145844
-0.149121
-0.176700
-0.238769
-0.235352
-0.232887
-0.043253
-0.033477
-0.228073
-0.359671
-0.361986
-0.353515
-0.368654
-0.342744
-0.340670
-0.331740
-0.236356
-0.241963
-0.241913
-0.237011
-0.113374
-0.111599
-0.106818
-0.101944
-0.322123
-0.329615
-0.326561
-0.321459
-0.180525
-0.175589
-0.183341
-0.328827
-0.317111
-0.320757
-0.033227
-0.022377
-0.038633
-0.034182
-0.031247
-0.029573
-0.043348
-0.346663
-0.354842
-0.354694
-0.134893
-0.143968
-0.141004
-0.148395
-0.176798
-0.406869
-0.414173
-0.407162
-0.269525
-0.260401
-0.262405
-0.268185
-0.355476
-0.361543
-0.355406
-0.362543
-0.336559
-0.331463
-0.339535
-0.235074
-0.237295
-0.242551
-0.084688
-0.090485
-0.090213
-0.093966
-0.070989
-0.076018
-0.034505
-0.257080
-0.253812
-0.260712
-0.259238
-0.261635
-0.266160
-0.324802
-0.318119
-0.334083
-0.335080
-0.325160
-0.377949
-0.373021
-0.368998
-0.340843
-0.233985
-0.238680
-0.230419
-0.394923
-0.388487
-0.393306
-0.333128
-0.284459
-0.282234
-0.287387
-0.239886
-0.232911
-0.241849
-0.320124
-0.307768
-0.333303
-0.081357
-0.070033
-0.080038
-0.072859
-0.159407
-0.161901
-0.163815
-0.167051
-0.036627
-0.027110
-0.219796
-0.215487
-0.220926
-0.211091
-0.397145
-0.405451
-0.403467
-0.258227
-0.250326
-0.256098
-0.266014
-0.273364
-0.265980
-0.253224
-0.410126
-0.317734
-0.308571
-0.312600
-0.313016
-0.322382
-0.322190
-0.327251
-0.314709
-0.399178
-0.402564
-0.273551
-0.266024
-0.275414
-0.398660
-0.401248
-0.220681
-0.213866
-0.225049
-0.386340
-0.393350
-0.389446
-0.395821
-0.388339
-0.385314
-0.371597
-0.378228
-0.376372
-0.380050
-0.359409
-0.368441
-0.364399
-0.213937
-0.214522
-0.135129
-0.218848
-0.402631
-0.409285
-0.405489
-0.412472
-0.426715
-0.422613
-0.048466
-0.046530
-0.137319
-0.135991
-0.128225
-0.144912
-0.294870
-0.296889
-0.288945
-0.351393
-0.360464
-0.359047
-0.288992
-0.146945
-0.144694
-0.148916
-0.309656
-0.325167
-0.418595
-0.411250
-0.408178
-0.230716
-0.228165
-0.058997
-0.061990
-0.050083
-0.048301
-0.361003
-0.370069
-0.365206
-0.372721
-0.408806
-0.403680
-0.409678
-0.395430
-0.381639
-0.382804
-0.377760
-0.400093
-0.396593
-0.423444
-0.432077
-0.430715
-0.352793
-0.355004
-0.370035
-0.383710
-0.372210
-0.364574
-0.361358
-0.065727
-0.056458
-0.371625
-0.385051
-0.382521
-0.406402
-0.338743
-0.345958
-0.340210
-0.390540
-0.383200
-0.107070
-0.111906
-0.113775
-0.104437
-0.129581
-0.119806
-0.125293
-0.251423
-0.256051
-0.259034
-0.220706
-0.221315
-0.094856
-0.086035
-0.088871
-0.250395
-0.227194
-0.232565
-0.236134
-0.411056
-0.420045
-0.410476
-0.356379
-0.357845
-0.349581
-0.113060
-0.366833
-0.374728
-0.365505
-0.353353
-0.349123
-0.365155
-0.340394
-0.352679
-0.108240
-0.302272
-0.219037
-0.340935
-0.350770
-0.349086
-0.351902
-0.340829
-0.385062
-0.384789
-0.371293
-0.395086
-0.349245
-0.347361
-0.353249
-0.055838
-0.050249
-0.357887
-0.357748
-0.359038
-0.347844
-0.340001
-0.326154
-0.427603
-0.407462
-0.403331
-0.403086
-0.396131
-0.392386
-0.042014
-0.315215
-0.306951
-0.419945
-0.420233
-0.336767
-0.339335
-0.049675
-0.047277
-0.240339
-0.232055
-0.372857
-0.157787
-0.154469
-0.153898
-0.147483
-0.398027
-0.391557
-0.328536
-0.337835
-0.330248
-0.371215
-0.357229
-0.370740
-0.332698
-0.397740
-0.336939
-0.071468
-0.280190
-0.289165
-0.284317
-0.401654
-0.397586
-0.386309
-0.405757
-0.418192
-0.422706
-0.414383
-0.419333
-0.291747
-0.283812
-0.066814
-0.057197
-0.062715
-0.279976
-0.237471
-0.218443
-0.206927
-0.413311
-0.411179
-0.407845
-0.306271
-0.302758
-0.337583
-0.377510
-0.382892
-0.294518
-0.272581
-0.359267
-0.364384
-0.096544
-0.099199
-0.090691
-0.376684
-0.385717
-0.410110
-0.406385
-0.394232
-0.406987
-0.298320
-0.235276
-0.233415
-0.398414
-0.425550
-0.404189
-0.391282
-0.416556
-0.415854
-0.414055
-0.167569
-0.163946
-0.156009
-0.346961
-0.040662
-0.053288
-0.045596
-0.052784
-0.379927
-0.379298
-0.384584
-0.362496
-0.353160
-0.352701
-0.332341
-0.335594
-0.339163
-0.342426
-0.336562
-0.413592
-0.359385
-0.358133
-0.348774
-0.080870
-0.367169
-0.371444
-0.373839
-0.395715
-0.161328
-0.071286
-0.069582
-0.058605
-0.407226
-0.396204
-0.424638
-0.402354
-0.402057
-0.407382
-0.369516
-0.378993
-0.387729
-0.321854
-0.417986
-0.101812
-0.105210
-0.326391
-0.332845
-0.158757
-0.051490
-0.042811
-0.045023
-0.422462
-0.419704
-0.415187
-0.410287
-0.049098
-0.039613
-0.107300
-0.103282
-0.107323
-0.116587
-0.370838
-0.372311
-0.365387
-0.332663
-0.056657
-0.060698
-0.411535
-0.403499
-0.429872
-0.371573
-0.378185
-0.389586
-0.374331
-0.330487
-0.075778
-0.085717
-0.114929
-0.396640
-0.391686
-0.181427
-0.172602
-0.182945
-0.419768
-0.079898
-0.068406
-0.397487
-0.402850
-0.399805
-0.428766
-0.370923
-0.403256
-0.016162
-0.029550
-0.385337
-0.192510
-0.113318
-0.120324
-0.113453
-0.369909
-0.378783
-0.391702
-0.361629
-0.101672
-0.095649
-0.098239
-0.417795
-0.177319
-0.119001
-0.411828
-0.407100
-0.422869
-0.050543
-0.047751
-0.215644
-0.210598
-0.210121
-0.063422
-0.065775
-0.418896
-0.218025
-0.214025
-0.071055
-0.063592
-0.072329
-0.376688
-0.381342
-0.372998
-0.380981
-0.098669
-0.291377
-0.042898
-0.033626
-0.094924
-0.353400
-0.362623
-0.419464
-0.366590
-0.373299
-0.376117
-0.377183
-0.388282
-0.355831
-0.083347
-0.058990
-0.169239
-0.165426
-0.166402
-0.389260
-0.170555
-0.293980
-0.289983
-0.298416
-0.086720
-0.075521
-0.091097
-0.389237
-0.397184
-0.386600
-0.407375
-0.418609
-0.414220
-0.148025
-0.146412
-0.141042
-0.155710
-0.091709
-0.393562
-0.388303
-0.368741
-0.401035
-0.083723
-0.371835
-0.371210
-0.364878
-0.372610
-0.382996
-0.369027
-0.365192
-0.341417
-0.030828
-0.062308
-0.064381
-0.058800
-0.218375
-0.227178
-0.214232
-0.221248
-0.046993
-0.075177
-0.083078
-0.411393
-0.381070
-0.200454
-0.198833
-0.193148
-0.406647
-0.402548
-0.419560
-0.057767
-0.341248
-0.345660
-0.066799
-0.072676
-0.049240
-0.196692
-0.203838
-0.191785
-0.190702
-0.198349
-0.333847
-0.335990
-0.331401
-0.191536
-0.328451
-0.094039
-0.327129
-0.325932
-0.366415
-0.382174
-0.107794
-0.400158
-0.146620
-0.139461
-0.148775
-0.094058
-0.139302
-0.100534
-0.383346
-0.151532
-0.143989
-0.375517
-0.147846
-0.244811
-0.244715
-0.249283
-0.354326
-0.042339
-0.382462
-0.259667
-0.248855
-0.254959
-0.239888
-0.219072
-0.219129
-0.220770
-0.173595
-0.169219
-0.346500
-0.356077
-0.418670
-0.413933
-0.408710
-0.221393
-0.391021
-0.392274
-0.366393
-0.375295
-0.177826
-0.173553
-0.401976
-0.410899
-0.384456
-0.390078
-0.404662
-0.410113
-0.402260
-0.060775
-0.061018
-0.056702
-0.066954
-0.336363
-0.036062
-0.034742
-0.043623
-0.342525
-0.339665
-0.326231
-0.330457
-0.044930
-0.193195
-0.184664
-0.190940
-0.322866
-0.303093
-0.309248
-0.094640
-0.420770
-0.414694
-0.418007
-0.318124
-0.320175
-0.306459
-0.404534
-0.247705
-0.242005
-0.236582
-0.393621
-0.400653
-0.356719
-0.311468
-0.198720
-0.205561
-0.132842
-0.140405
-0.134636
-0.207473
-0.332983
-0.331561
-0.336609
-0.323975
-0.071022
-0.071057
-0.058645
-0.044531
-0.215761
-0.221462
-0.220292
-0.074739
-0.082093
-0.079249
-0.229496
-0.186584
-0.168058
-0.173763
-0.165458
-0.377249
-0.387646
-0.387329
-0.346192
-0.348909
-0.161169
-0.156638
-0.163336
-0.343850
-0.339953
-0.349239
-0.398277
-0.378742
-0.364093
-0.371581
-0.381284
-0.388513
-0.391996
-0.253495
-0.248827
-0.250428
-0.335233
-0.333064
-0.333365
-0.382825
-0.388967
-0.390883
-0.419586
-0.422030
-0.425408
-0.415694
-0.325107
-0.323284
-0.341155
-0.347398
-0.383828
-0.384121
-0.373599
-0.320556
-0.424343
-0.385738
-0.394939
-0.386670
-0.313587
-0.046086
-0.313371
-0.355662
-0.337561
-0.348214
-0.086551
-0.089145
-0.093228
-0.378763
-0.387219
-0.357589
-0.363674
-0.373064
-0.408063
-0.374859
-0.381194
-0.382218
-0.373529
-0.376170
-0.385626
-0.043882
-0.045513
-0.046893
-0.054609
-0.332456
-0.329557
-0.325736
-0.320839
-0.319066
-0.402192
-0.396733
-0.263739
-0.254246
-0.253287
-0.252235
-0.182007
-0.172529
-0.178171
-0.102232
-0.318934
-0.310264
-0.309523
-0.350733
-0.335100
-0.342502
-0.380380
-0.197111
-0.205066
-0.198246
-0.176547
-0.354039
-0.359708
-0.368494
-0.371822
-0.380566
-0.392331
-0.323330
-0.322546
-0.154192
-0.148068
-0.152085
-0.146217
-0.319657
-0.387619
-0.383549
-0.090878
-0.089266
-0.097377
-0.181149
-0.071193
-0.078142
-0.070843
-0.061968
-0.356364
-0.358485
-0.311288
-0.314062
-0.070847
-0.067214
-0.073685
-0.363534
-0.368004
-0.359091
-0.412967
-0.412059
-0.155332
-0.157665
-0.154093
-0.329721
-0.333677
-0.327039
-0.333640
-0.330447
-0.338389
-0.348295
-0.160330
-0.350666
-0.354640
-0.373763
-0.368582
-0.153428
-0.212574
-0.136198
-0.142439
-0.128992
-0.361170
-0.152325
-0.150525
-0.365840
-0.379143
-0.324627
-0.319581
-0.125492
-0.125118
-0.134932
-0.352735
-0.352252
-0.346273
-0.157761
-0.067073
-0.066536
-0.362265
-0.112078
-0.106955
-0.315095
-0.119155
-0.324248
-0.306852
-0.305342
-0.274485
-0.262926
-0.273059
-0.189439
-0.187291
-0.196212
-0.194144
-0.201555
-0.187156
-0.231191
-0.231415
-0.238824
-0.235828
-0.358227
-0.340347
-0.342716
-0.350112
-0.081578
-0.084449
-0.093568
-0.376308
-0.139341
-0.143766
-0.326839
-0.334119
-0.240304
-0.238578
-0.248237
-0.248409
-0.341967
-0.157491
-0.155015
-0.344063
-0.355235
-0.202694
-0.101698
-0.092006
-0.093669
-0.122160
-0.121126
-0.404334
-0.354873
-0.356677
-0.318291
-0.317634
-0.145223
-0.368847
-0.364197
-0.101736
-0.112343
-0.103747
-0.312552
-0.140146
-0.139751
-0.300689
-0.300149
-0.392239
-0.380187
-0.377865
-0.333778
-0.338282
-0.342635
-0.403792
-0.393670
-0.249881
-0.241330
-0.248828
-0.323584
-0.331347
-0.369585
-0.362534
-0.102486
-0.338817
-0.284064
-0.276360
-0.285544
-0.278024
-0.111664
-0.230683
-0.232925
-0.238673
-0.356094
-0.351267
-0.356118
-0.347095
-0.118068
-0.124417
-0.119043
-0.128649
-0.344635
-0.351581
-0.321633
-0.324941
-0.145521
-0.152563
-0.238132
-0.238221
-0.394289
-0.052160
-0.055435
-0.060928
-0.069045
-0.223024
-0.226162
-0.228743
-0.169647
-0.179802
-0.169630
-0.038051
-0.040177
-0.045852
-0.331216
-0.335898
-0.337087
-0.312984
-0.311562
-0.130864
-0.123991
-0.127345
-0.180264
-0.041132
-0.046009
-0.305708
-0.297087
-0.293282
-0.315806
-0.309205
-0.309429
-0.302341
-0.318943
-0.327094
-0.137371
-0.145930
-0.140703
-0.185285
-0.178515
-0.173009
-0.334883
-0.341841
-0.350893
-0.309557
-0.303712
-0.173573
-0.230254
-0.238581
-0.233759
-0.302173
-0.241953
-0.147108
-0.150959
-0.156248
-0.290057
-0.288620
-0.310720
-0.322971
-0.321690
-0.318785
-0.332750
-0.338020
-0.345536
-0.048927
-0.063204
-0.071506
-0.076337
-0.391016
-0.395282
-0.387579
-0.303987
-0.299826
-0.302057
-0.298080
-0.304443
-0.044982
-0.055356
-0.067191
-0.059200
-0.065321
-0.080018
-0.081852
-0.159906
-0.292674
-0.287195
-0.280250
-0.138216
-0.130075
-0.172695
-0.167255
-0.173135
-0.170140
-0.307921
-0.316090
-0.326339
-0.308751
-0.328924
-0.341411
-0.298648
-0.295084
-0.130046
-0.132466
-0.124327
-0.063454
-0.064725
-0.070611
-0.150974
-0.151635
-0.241518
-0.238806
-0.280597
-0.283811
-0.342708
-0.343014
-0.351606
-0.289321
-0.278828
-0.276465
-0.243036
-0.357554
-0.355380
-0.363202
-0.064583
-0.054551
-0.303795
-0.311910
-0.146058
-0.170165
-0.169217
-0.178617
-0.319140
-0.325696
-0.174083
-0.180861
-0.356402
-0.359407
-0.114476
-0.121351
-0.181865
-0.298552
-0.292460
-0.325823
-0.306832
-0.300879
-0.304500
-0.284162
-0.278238
-0.382055
-0.388707
-0.304384
-0.309261
-0.114718
-0.375168
-0.384234
-0.364515
-0.384165
-0.377215
-0.295330
-0.288701
-0.074095
-0.230753
-0.242789
-0.355382
-0.227134
-0.228254
-0.232406
-0.283274
-0.273568
-0.225756
-0.220955
-0.360972
-0.353246
-0.352712
-0.298982
-0.307865
-0.228406
-0.108150
-0.116618
-0.259035
-0.263836
-0.257514
-0.122082
-0.392886
-0.212820
-0.246544
-0.253402
-0.253067
-0.213336
-0.341272
-0.349521
-0.249868
-0.238010
-0.260500
-0.244603
-0.329787
-0.330224
-0.321949
-0.253116
-0.257916
-0.291902
-0.286015
-0.344812
-0.278943
-0.269123
-0.294353
-0.304893
-0.320823
-0.325113
-0.385279
-0.090120
-0.080238
-0.100952
-0.113225
-0.073526
-0.067462
-0.068695
-0.365351
-0.245954
-0.247272
-0.241406
-0.247678
-0.243137
-0.354575
-0.355947
-0.345012
-0.210733
-0.211270
-0.214682
-0.041887
-0.036584
-0.039280
-0.293513
-0.207069
-0.272688
-0.270823
-0.275590
-0.275115
-0.261757
-0.267638
-0.262596
-0.260179
-0.154267
-0.408713
-0.418459
-0.410204
-0.132875
-0.132398
-0.136440
-0.269637
-0.163329
-0.166836
-0.161673
-0.169837
-0.175988
-0.280213
-0.095945
-0.087331
-0.085528
-0.211174
-0.385251
-0.379481
-0.383343
-0.383395
-0.096476
-0.239022
-0.231358
-0.232879
-0.237624
-0.143472
-0.150273
-0.141974
-0.056390
-0.151167
-0.360487
-0.365741
-0.363399
-0.371601
-0.403251
-0.399897
-0.370308
-0.367221
-0.361730
-0.394739
-0.177663
-0.329924
-0.335740
-0.330892
-0.333747
-0.322129
-0.316777
-0.313293
-0.319861
-0.326509
-0.332498
-0.326702
-0.335755
-0.279476
-0.275083
-0.281574
-0.161113
-0.152424
-0.083689
-0.071874
-0.076914
-0.075464
-0.067217
-0.071963
-0.286776
-0.290781
-0.289319
-0.296584
-0.273244
-0.403545
-0.403201
-0.409509
-0.132487
-0.138239
-0.410256
-0.241411
-0.162199
-0.165552
-0.156140
-0.161624
-0.156616
-0.258454
-0.265355
-0.134642
-0.362696
-0.355757
-0.359522
-0.352699
-0.381264
-0.059165
-0.060088
-0.217588
-0.083475
-0.084969
-0.087488
-0.109402
-0.102952
-0.106086
-0.079244
-0.197436
-0.192983
-0.200129
-0.195937
-0.125412
-0.204172
-0.211579
-0.211774
-0.353870
-0.349867
-0.243479
-0.245889
-0.252620
-0.253850
-0.348949
-0.354829
-0.349016
-0.357910
-0.361356
-0.163960
-0.168904
-0.291864
-0.287767
-0.284555
-0.295306
-0.298282
-0.305305
-0.304407
-0.289669
-0.294148
-0.289097
-0.299490
-0.268713
-0.261922
-0.097873
-0.110879
-0.099570
-0.180145
-0.186555
-0.188736
-0.183788
-0.177180
-0.072676
-0.080324
-0.339068
-0.344832
-0.341768
-0.344367
-0.223577
-0.157354
-0.154807
-0.184786
-0.192191
-0.194798
-0.381535
-0.383514
-0.375617
-0.377025
-0.373514
-0.129944
-0.301894
-0.295805
-0.053512
-0.051981
-0.048920
-0.061381
-0.064434
-0.219064
-0.220090
-0.245694
-0.252096
-0.245792
-0.235290
-0.227230
-0.236691
-0.240118
-0.227765
-0.197299
-0.200293
-0.190978
-0.347492
-0.196682
-0.347161
-0.211201
-0.205698
-0.216474
-0.141589
-0.138686
-0.136452
-0.263575
-0.263996
-0.258714
-0.273326
-0.267728
-0.273090
-0.169089
-0.161613
-0.163861
-0.228771
-0.231381
-0.223314
-0.225863
-0.245682
-0.393273
-0.384884
-0.121134
-0.127486
-0.129961
-0.123095
-0.342868
-0.338328
-0.321861
-0.327854
-0.176834
-0.352688
-0.349049
-0.354219
-0.360010
-0.362072
-0.366107
-0.339987
-0.349641
-0.338937
-0.309920
-0.316011
-0.333689
-0.281165
-0.292269
-0.287647
-0.297489
-0.301406
-0.308957
-0.300809
-0.311368
-0.089770
-0.089517
-0.353791
-0.069581
-0.077501
-0.080860
-0.085040
-0.092225
-0.099160
-0.360380
-0.354791
-0.361060
-0.386817
-0.385615
-0.392433
-0.195343
-0.193949
-0.200501
-0.299589
-0.306335
-0.233631
-0.227152
-0.294924
-0.297880
-0.294827
-0.110280
-0.120492
-0.110862
-0.118954
-0.273563
-0.279669
-0.270228
-0.278808
-0.215767
-0.208239
-0.203466
-0.221721
-0.219513
-0.223715
-0.382657
-0.107044
-0.104623
-0.113884
-0.104593
-0.116201
-0.107332
-0.168045
-0.163305
-0.161969
-0.170490
-0.166807
-0.288474
-0.286415
-0.282453
-0.285560
-0.294885
-0.288488
-0.126066
-0.124983
-0.294971
-0.298287
-0.298278
-0.041112
-0.050501
-0.302577
-0.174352
-0.182495
-0.178859
-0.292045
-0.083803
-0.112328
-0.114024
-0.119152
-0.127383
-0.120334
-0.120720
-0.068149
-0.073458
-0.070206
-0.066655
-0.345921
-0.340403
-0.209168
-0.203816
-0.204854
-0.210551
-0.197638
-0.198416
-0.189481
-0.371178
-0.374410
-0.376486
-0.157871
-0.154565
-0.163988
-0.246569
-0.254926
-0.403007
-0.403116
-0.242653
-0.302925
-0.300637
-0.309064
-0.303857
-0.296607
-0.298125
-0.290023
-0.395336
-0.395671
-0.401325
-0.391573
-0.399308
-0.392184
-0.407323
-0.407629
-0.412182
-0.407013
-0.265484
-0.265784
-0.190316
-0.267334
-0.258201
-0.372630
-0.377182
-0.307966