# vtk DataFile Version 2.0
Test
ASCII
DATASET POLYDATA
POINTS 6577 float
0.000000 0.000000 0.000000
2.000000 0.000000 0.000000
2.000000 4.000000 0.000000
0.000000 4.000000 0.000000
0.000000 0.500000 0.000000
1.500000 2.000000 0.000000
2.000000 2.500000 0.000000
0.040000 0.000000 0.000000
0.080000 0.000000 0.000000
0.120000 0.000000 0.000000
0.160000 0.000000 0.000000
0.200000 0.000000 0.000000
0.240000 0.000000 0.000000
0.280000 0.000000 0.000000
0.320000 0.000000 0.000000
0.360000 0.000000 0.000000
0.400000 0.000000 0.000000
0.440000 0.000000 0.000000
0.480000 0.000000 0.000000
0.520000 0.000000 0.000000
0.560000 0.000000 0.000000
0.600000 0.000000 0.000000
0.640000 0.000000 0.000000
0.680000 0.000000 0.000000
0.720000 0.000000 0.000000
0.760000 0.000000 0.000000
0.800000 0.000000 0.000000
0.840000 0.000000 0.000000
0.880000 0.000000 0.000000
0.920000 0.000000 0.000000
0.960000 0.000000 0.000000
1.000000 0.000000 0.000000
1.040000 0.000000 0.000000
1.080000 0.000000 0.000000
1.120000 0.000000 0.000000
1.160000 0.000000 0.000000
1.200000 0.000000 0.000000
1.240000 0.000000 0.000000
1.280000 0.000000 0.000000
1.320000 0.000000 0.000000
1.360000 0.000000 0.000000
1.400000 0.000000 0.000000
1.440000 0.000000 0.000000
1.480000 0.000000 0.000000
1.520000 0.000000 0.000000
1.560000 0.000000 0.000000
1.600000 0.000000 0.000000
1.640000 0.000000 0.000000
1.680000 0.000000 0.000000
1.720000 0.000000 0.000000
1.760000 0.000000 0.000000
1.800000 0.000000 0.000000
1.840000 0.000000 0.000000
1.880000 0.000000 0.000000
1.920000 0.000000 0.000000
1.960000 0.000000 0.000000
2.000000 0.039683 0.000000
2.000000 0.079365 0.000000
2.000000 0.119048 0.000000
2.000000 0.158730 0.000000
2.000000 0.198413 0.000000
2.000000 0.238095 0.000000
2.000000 0.277778 0.000000
2.000000 0.317460 0.000000
2.000000 0.357143 0.000000
2.000000 0.396825 0.000000
2.000000 0.436508 0.000000
2.000000 0.476190 0.000000
2.000000 0.515873 0.000000
2.000000 0.555556 0.000000
2.000000 0.595238 0.000000
2.000000 0.634921 0.000000
2.000000 0.674603 0.000000
2.000000 0.714286 0.000000
2.000000 0.753968 0.000000
2.000000 0.793651 0.000000
2.000000 0.833333 0.000000
2.000000 0.873016 0.000000
2.000000 0.912698 0.000000
2.000000 0.952381 0.000000
2.000000 0.992063 0.000000
2.000000 1.031746 0.000000
2.000000 1.071429 0.000000
2.000000 1.111111 0.000000
2.000000 1.150794 0.000000
2.000000 1.190476 0.000000
2.000000 1.230159 0.000000
2.000000 1.269841 0.000000
2.000000 1.309524 0.000000
2.000000 1.349206 0.000000
2.000000 1.388889 0.000000
2.000000 1.428571 0.000000
2.000000 1.468254 0.000000
2.000000 1.507937 0.000000
2.000000 1.547619 0.000000
2.000000 1.587302 0.000000
2.000000 1.626984 0.000000
2.000000 1.666667 0.000000
2.000000 1.706349 0.000000
2.000000 1.746032 0.000000
2.000000 1.785714 0.000000
2.000000 1.825397 0.000000
2.000000 1.865079 0.000000
2.000000 1.904762 0.000000
2.000000 1.944444 0.000000
2.000000 1.984127 0.000000
2.000000 2.023810 0.000000
2.000000 2.063492 0.000000
2.000000 2.103175 0.000000
2.000000 2.142857 0.000000
2.000000 2.182540 0.000000
2.000000 2.222222 0.000000
2.000000 2.261905 0.000000
2.000000 2.301587 0.000000
2.000000 2.341270 0.000000
2.000000 2.380952 0.000000
2.000000 2.420635 0.000000
2.000000 2.460317 0.000000
2.000000 2.539474 0.000000
2.000000 2.578947 0.000000
2.000000 2.618421 0.000000
2.000000 2.657895 0.000000
2.000000 2.697368 0.000000
2.000000 2.736842 0.000000
2.000000 2.776316 0.000000
2.000000 2.815789 0.000000
2.000000 2.855263 0.000000
2.000000 2.894737 0.000000
2.000000 2.934211 0.000000
2.000000 2.973684 0.000000
2.000000 3.013158 0.000000
2.000000 3.052632 0.000000
2.000000 3.092105 0.000000
2.000000 3.131579 0.000000
2.000000 3.171053 0.000000
2.000000 3.210526 0.000000
2.000000 3.250000 0.000000
2.000000 3.289474 0.000000
2.000000 3.328947 0.000000
2.000000 3.368421 0.000000
2.000000 3.407895 0.000000
2.000000 3.447368 0.000000
2.000000 3.486842 0.000000
2.000000 3.526316 0.000000
2.000000 3.565789 0.000000
2.000000 3.605263 0.000000
2.000000 3.644737 0.000000
2.000000 3.684211 0.000000
2.000000 3.723684 0.000000
2.000000 3.763158 0.000000
2.000000 3.802632 0.000000
2.000000 3.842105 0.000000
2.000000 3.881579 0.000000
2.000000 3.921053 0.000000
2.000000 3.960526 0.000000
1.960000 4.000000 0.000000
1.920000 4.000000 0.000000
1.880000 4.000000 0.000000
1.840000 4.000000 0.000000
1.800000 4.000000 0.000000
1.760000 4.000000 0.000000
1.720000 4.000000 0.000000
1.680000 4.000000 0.000000
1.640000 4.000000 0.000000
1.600000 4.000000 0.000000
1.560000 4.000000 0.000000
1.520000 4.000000 0.000000
1.480000 4.000000 0.000000
1.440000 4.000000 0.000000
1.400000 4.000000 0.000000
1.360000 4.000000 0.000000
1.320000 4.000000 0.000000
1.280000 4.000000 0.000000
1.240000 4.000000 0.000000
1.200000 4.000000 0.000000
1.160000 4.000000 0.000000
1.120000 4.000000 0.000000
1.080000 4.000000 0.000000
1.040000 4.000000 0.000000
1.000000 4.000000 0.000000
0.960000 4.000000 0.000000
0.920000 4.000000 0.000000
0.880000 4.000000 0.000000
0.840000 4.000000 0.000000
0.800000 4.000000 0.000000
0.760000 4.000000 0.000000
0.720000 4.000000 0.000000
0.680000 4.000000 0.000000
0.640000 4.000000 0.000000
0.600000 4.000000 0.000000
0.560000 4.000000 0.000000
0.520000 4.000000 0.000000
0.480000 4.000000 0.000000
0.440000 4.000000 0.000000
0.400000 4.000000 0.000000
0.360000 4.000000 0.000000
0.320000 4.000000 0.000000
0.280000 4.000000 0.000000
0.240000 4.000000 0.000000
0.200000 4.000000 0.000000
0.160000 4.000000 0.000000
0.120000 4.000000 0.000000
0.080000 4.000000 0.000000
0.040000 4.000000 0.000000
0.000000 3.960227 0.000000
0.000000 3.920455 0.000000
0.000000 3.880682 0.000000
0.000000 3.840909 0.000000
0.000000 3.801136 0.000000
0.000000 3.761364 0.000000
0.000000 3.721591 0.000000
0.000000 3.681818 0.000000
0.000000 3.642045 0.000000
0.000000 3.602273 0.000000
0.000000 3.562500 0.000000
0.000000 3.522727 0.000000
0.000000 3.482955 0.000000
0.000000 3.443182 0.000000
0.000000 3.403409 0.000000
0.000000 3.363636 0.000000
0.000000 3.323864 0.000000
0.000000 3.284091 0.000000
0.000000 3.244318 0.000000
0.000000 3.204545 0.000000
0.000000 3.164773 0.000000
0.000000 3.125000 0.000000
0.000000 3.085227 0.000000
0.000000 3.045455 0.000000
0.000000 3.005682 0.000000
0.000000 2.965909 0.000000
0.000000 2.926136 0.000000
0.000000 2.886364 0.000000
0.000000 2.846591 0.000000
0.000000 2.806818 0.000000
0.000000 2.767045 0.000000
0.000000 2.727273 0.000000
0.000000 2.687500 0.000000
0.000000 2.647727 0.000000
0.000000 2.607955 0.000000
0.000000 2.568182 0.000000
0.000000 2.528409 0.000000
0.000000 2.488636 0.000000
0.000000 2.448864 0.000000
0.000000 2.409091 0.000000
0.000000 2.369318 0.000000
0.000000 2.329545 0.000000
0.000000 2.289773 0.000000
0.000000 2.250000 0.000000
0.000000 2.210227 0.000000
0.000000 2.170455 0.000000
0.000000 2.130682 0.000000
0.000000 2.090909 0.000000
0.000000 2.051136 0.000000
0.000000 2.011364 0.000000
0.000000 1.971591 0.000000
0.000000 1.931818 0.000000
0.000000 1.892045 0.000000
0.000000 1.852273 0.000000
0.000000 1.812500 0.000000
0.000000 1.772727 0.000000
0.000000 1.732955 0.000000
0.000000 1.693182 0.000000
0.000000 1.653409 0.000000
0.000000 1.613636 0.000000
0.000000 1.573864 0.000000
0.000000 1.534091 0.000000
0.000000 1.494318 0.000000
0.000000 1.454545 0.000000
0.000000 1.414773 0.000000
0.000000 1.375000 0.000000
0.000000 1.335227 0.000000
0.000000 1.295455 0.000000
0.000000 1.255682 0.000000
0.000000 1.215909 0.000000
0.000000 1.176136 0.000000
0.000000 1.136364 0.000000
0.000000 1.096591 0.000000
0.000000 1.056818 0.000000
0.000000 1.017045 0.000000
0.000000 0.977273 0.000000
0.000000 0.937500 0.000000
0.000000 0.897727 0.000000
0.000000 0.857955 0.000000
0.000000 0.818182 0.000000
0.000000 0.778409 0.000000
0.000000 0.738636 0.000000
0.000000 0.698864 0.000000
0.000000 0.659091 0.000000
0.000000 0.619318 0.000000
0.000000 0.579545 0.000000
0.000000 0.539773 0.000000
0.000000 0.461538 0.000000
0.000000 0.423077 0.000000
0.000000 0.384615 0.000000
0.000000 0.346154 0.000000
0.000000 0.307692 0.000000
0.000000 0.269231 0.000000
0.000000 0.230769 0.000000
0.000000 0.192308 0.000000
0.000000 0.153846 0.000000
0.000000 0.115385 0.000000
0.000000 0.076923 0.000000
0.000000 0.038462 0.000000
0.027778 0.527778 0.000000
0.055556 0.555556 0.000000
0.083333 0.583333 0.000000
0.111111 0.611111 0.000000
0.138889 0.638889 0.000000
0.166667 0.666667 0.000000
0.194444 0.694444 0.000000
0.222222 0.722222 0.000000
0.250000 0.750000 0.000000
0.277778 0.777778 0.000000
0.305556 0.805556 0.000000
0.333333 0.833333 0.000000
0.361111 0.861111 0.000000
0.388889 0.888889 0.000000
0.416667 0.916667 0.000000
0.444444 0.944444 0.000000
0.472222 0.972222 0.000000
0.500000 1.000000 0.000000
0.527778 1.027778 0.000000
0.555556 1.055556 0.000000
0.583333 1.083333 0.000000
0.611111 1.111111 0.000000
0.638889 1.138889 0.000000
0.666667 1.166667 0.000000
0.694444 1.194444 0.000000
0.722222 1.222222 0.000000
0.750000 1.250000 0.000000
0.777778 1.277778 0.000000
0.805556 1.305556 0.000000
0.833333 1.333333 0.000000
0.861111 1.361111 0.000000
0.888889 1.388889 0.000000
0.916667 1.416667 0.000000
0.944444 1.444444 0.000000
0.972222 1.472222 0.000000
1.000000 1.500000 0.000000
1.027778 1.527778 0.000000
1.055556 1.555556 0.000000
1.083333 1.583333 0.000000
1.111111 1.611111 0.000000
1.138889 1.638889 0.000000
1.166667 1.666667 0.000000
1.194444 1.694444 0.000000
1.222222 1.722222 0.000000
1.250000 1.750000 0.000000
1.277778 1.777778 0.000000
1.305556 1.805556 0.000000
1.333333 1.833333 0.000000
1.361111 1.861111 0.000000
1.388889 1.888889 0.000000
1.416667 1.916667 0.000000
1.444444 1.944444 0.000000
1.472222 1.972222 0.000000
1.527778 2.027778 0.000000
1.555556 2.055556 0.000000
1.583333 2.083333 0.000000
1.611111 2.111111 0.000000
1.638889 2.138889 0.000000
1.666667 2.166667 0.000000
1.694444 2.194444 0.000000
1.722222 2.222222 0.000000
1.750000 2.250000 0.000000
1.777778 2.277778 0.000000
1.805556 2.305556 0.000000
[...]
POINT_DATA 6577
SCALARS UX float 1
LOOKUP_TABLE default
-0.000024
0.000087
-0.009858
-0.266222
-0.138447
-0.035360
0.015858
0.000001
-0.000002
-0.000002
0.000002
0.000003
-0.000012
0.000001
0.000002
0.000002
0.000000
0.000002
-0.000001
0.000001
0.000001
-0.000001
0.000001
0.000001
0.000001
0.000001
-0.000001
-0.000001
0.000001
-0.000000
0.000001
0.000001
0.000000
-0.000000
0.000000
0.000000
-0.000001
0.000000
0.000001
-0.000002
0.000001
0.000001
-0.000002
0.000002
0.000001
-0.000001
-0.000002
-0.000000
-0.000001
-0.000005
0.000005
-0.000006
0.000006
0.000006
-0.000034
0.000025
0.027732
0.039474
0.049460
0.057614
0.064166
0.071977
0.077627
0.084104
0.089203
0.092832
0.097388
0.100876
0.105114
0.107934
0.113051
0.114526
0.117044
0.121736
0.123682
0.125869
0.126462
0.128896
0.130797
0.132430
0.132276
0.132956
0.132425
0.132882
0.134925
0.134804
0.133401
0.134899
0.133387
0.133099
0.131889
0.130134
0.130227
0.128504
0.128488
0.126546
0.125461
0.123098
0.120026
0.117775
0.111958
0.108840
0.104049
0.098807
0.089988
0.085681
0.082636
0.076290
0.064750
0.058051
0.049521
0.045855
0.040652
0.036037
0.027964
0.022239
0.016484
0.014343
0.011691
0.005175
0.002911
0.001588
-0.000627
-0.002340
-0.005903
-0.002982
-0.006714
-0.003860
-0.007698
-0.006367
-0.007202
-0.005776
-0.009135
-0.011156
-0.011002
-0.011770
-0.010147
-0.010884
-0.011314
-0.013701
-0.011969
-0.012510
-0.013087
-0.015193
-0.013011
-0.012352
-0.014077
-0.012803
-0.015011
-0.013813
-0.012885
-0.012276
-0.010006
-0.011242
-0.011340
-0.016790
-0.022476
-0.027403
-0.032737
-0.038921
-0.044743
-0.050717
-0.055465
-0.060872
-0.066339
-0.071634
-0.077686
-0.083294
-0.088665
-0.093204
-0.098890
-0.104316
-0.109126
-0.114486
-0.120115
-0.125581
-0.130995
-0.136873
-0.140926
-0.146034
-0.151318
-0.156437
-0.161747
-0.167105
-0.171509
-0.176853
-0.181927
-0.187103
-0.191612
-0.196395
-0.201153
-0.205829
-0.210551
-0.215452
-0.220271
-0.224645
-0.229412
-0.234462
-0.238817
-0.243074
-0.247395
-0.252748
-0.257158
-0.261924
-0.267427
-0.266874
-0.268653
-0.267785
-0.267168
-0.267405
-0.267554
-0.268671
-0.267906
-0.266275
-0.266619
-0.266180
-0.265169
-0.266239
-0.266662
-0.266192
-0.263549
-0.263809
-0.263024
-0.261547
-0.262446
-0.260297
-0.259023
-0.259206
-0.258297
-0.258501
-0.257469
-0.256977
-0.256959
-0.255270
-0.255532
-0.255101
-0.255122
-0.255500
-0.253017
-0.253696
-0.251640
-0.251284
-0.250290
-0.250321
-0.248820
-0.248897
-0.247990
-0.248763
-0.246295
-0.246797
-0.246014
-0.247354
-0.246483
-0.246815
-0.247924
-0.247559
-0.249290
-0.249177
-0.248377
-0.248392
-0.249036
-0.249328
-0.249811
-0.251215
-0.251782
-0.252730
-0.252942
-0.255985
-0.255064
-0.257218
-0.259523
-0.259141
-0.260525
-0.261748
-0.263250
-0.264224
-0.263525
-0.264349
-0.263828
-0.262919
-0.261606
-0.258453
-0.252697
-0.249592
-0.243660
-0.237309
-0.232691
-0.224916
-0.204438
-0.186189
-0.152262
-0.087324
-0.089600
-0.084066
-0.079445
-0.075085
-0.069878
-0.066180
-0.059854
-0.052034
-0.043980
-0.034722
-0.025302
-0.125347
-0.129903
-0.126972
-0.146512
-0.140613
-0.087016
-0.140239
-0.108625
-0.118216
-0.117686
-0.117151
-0.124217
-0.114053
-0.111232
-0.076067
-0.093309
-0.087573
-0.096324
-0.094754
-0.100209
-0.127683
-0.107694
-0.097429
-0.123568
-0.117236
-0.122822
-0.077642
-0.088627
-0.087946
-0.100760
-0.069626
-0.090132
-0.073244
-0.064032
-0.118308
-0.080303
-0.078809
-0.064832
-0.069954
-0.065793
-0.076753
-0.057251
-0.033195
-0.049526
-0.057305
-0.047004
-0.039443
-0.037687
-0.048639
-0.049066
-0.024346
-0.037111
-0.034138
-0.023163
-0.016564
-0.012240
-0.017132
-0.010994
-0.011814
-0.012781
-0.009656
-0.005125
-0.007256
-0.006621
-0.003803
-0.000474
0.002943
0.003330
0.005111
0.010671
0.002871
-0.000001
-0.264647
-0.265352
-0.014538
-0.015850
0.004812
0.004890
-0.001376
-0.007042
-0.009775
-0.062824
-0.067160
-0.067933
-0.108214
-0.104521
-0.102711
-0.068946
-0.200166
-0.197306
-0.196961
-0.075788
-0.073149
-0.070761
-0.242968
-0.245767
-0.240842
-0.248003
-0.254054
-0.252034
-0.076845
-0.040725
-0.036201
-0.040153
-0.077068
-0.080661
-0.074384
-0.245974
-0.244811
-0.241168
-0.200943
-0.093179
-0.093164
-0.098005
-0.100038
-0.104121
-0.104538
-0.082490
-0.079971
-0.086302
-0.082106
-0.203496
-0.206865
-0.206189
-0.206363
-0.201618
-0.206207
-0.202322
-0.207342
-0.089738
-0.083179
-0.085751
-0.101155
-0.137951
-0.136804
-0.134071
-0.007914
-0.005162
-0.130137
-0.221456
-0.220642
-0.216397
-0.225794
-0.208721
-0.209391
-0.203745
-0.139655
-0.143722
-0.143418
-0.139722
-0.060755
-0.058512
-0.053699
-0.054083
-0.194095
-0.199019
-0.199647
-0.195436
-0.109147
-0.105857
-0.108972
-0.198419
-0.192368
-0.193493
-0.010932
-0.006186
-0.010984
-0.007827
-0.010279
-0.006008
-0.013808
-0.209712
-0.213222
-0.214355
-0.075137
-0.078528
-0.079794
-0.081793
-0.106485
-0.249345
-0.252782
-0.250303
-0.163546
-0.158821
-0.159942
-0.164973
-0.218659
-0.223352
-0.219424
-0.222259
-0.205188
-0.201428
-0.205574
-0.143701
-0.144290
-0.147844
-0.043661
-0.047254
-0.047692
-0.045598
-0.036011
-0.034139
-0.004383
-0.152007
-0.150444
-0.154987
-0.155003
-0.158231
-0.159354
-0.196887
-0.190272
-0.205387
-0.207449
-0.202006
-0.231043
-0.229232
-0.229138
-0.210086
-0.140101
-0.146692
-0.140407
-0.241234
-0.239361
-0.242610
-0.202309
-0.170419
-0.168658
-0.173258
-0.144717
-0.139674
-0.143292
-0.204130
-0.208228
-0.221842
-0.036252
-0.030578
-0.036321
-0.029523
-0.087911
-0.090922
-0.092147
-0.095625
-0.005099
-0.004718
-0.131624
-0.128218
-0.131545
-0.126154
-0.246138
-0.250293
-0.247982
-0.154342
-0.152208
-0.156068
-0.157872
-0.163025
-0.158236
-0.152945
-0.254919
-0.194177
-0.189603
-0.191048
-0.190040
-0.194589
-0.194666
-0.199685
-0.192633
-0.251588
-0.249658
-0.167139
-0.164143
-0.170090
-0.244321
-0.246515
-0.128697
-0.125901
-0.131938
-0.229156
-0.233993
-0.229245
-0.242406
-0.239549
-0.236195
-0.218775
-0.224739
-0.222681
-0.234025
-0.213103
-0.219975
-0.215804
-0.121136
-0.122707
-0.083033
-0.122413
-0.249248
-0.252836
-0.250427
-0.255503
-0.260852
-0.260406
-0.020819
-0.018347
-0.074666
-0.073889
-0.069385
-0.077861
-0.181046
-0.181145
-0.177318
-0.210222
-0.212954
-0.212129
-0.176751
-0.079310
-0.077169
-0.082055
-0.211989
-0.214633
-0.257637
-0.254903
-0.253920
-0.133029
-0.129682
-0.023591
-0.023657
-0.016390
-0.016164
-0.221839
-0.226797
-0.226064
-0.230828
-0.245335
-0.241451
-0.246358
-0.240889
-0.226771
-0.229241
-0.224584
-0.238310
-0.236248
-0.256524
-0.258609
-0.259864
-0.227540
-0.228222
-0.235836
-0.242222
-0.237520
-0.216163
-0.213898
-0.031207
-0.025907
-0.220484
-0.227376
-0.224001
-0.250394
-0.207004
-0.211538
-0.206557
-0.231021
-0.227072
-0.053838
-0.057480
-0.058991
-0.052312
-0.071557
-0.066543
-0.067364
-0.149175
-0.152770
-0.153768
-0.126878
-0.125604
-0.047958
-0.044794
-0.044140
-0.147968
-0.132400
-0.135950
-0.136507
-0.246156
-0.252640
-0.247246
-0.217803
-0.219858
-0.214921
-0.062038
-0.225187
-0.229161
-0.224513
-0.211473
-0.209341
-0.214908
-0.211606
-0.222392
-0.059949
-0.209007
-0.155001
-0.203113
-0.206369
-0.204525
-0.206568
-0.204652
-0.239131
-0.240908
-0.232816
-0.245962
-0.212510
-0.211152
-0.215066
-0.024839
-0.021843
-0.210246
-0.211881
-0.210788
-0.206237
-0.204167
-0.198482
-0.263023
-0.243579
-0.238474
-0.241637
-0.237350
-0.237200
-0.016548
-0.189339
-0.185633
-0.259319
-0.256675
-0.202482
-0.200651
-0.021749
-0.019518
-0.139621
-0.133375
-0.221066
-0.089000
-0.088760
-0.085782
-0.083591
-0.237057
-0.232976
-0.201959
-0.207031
-0.202760
-0.227172
-0.225526
-0.230546
-0.217855
-0.245666
-0.207208
-0.035169
-0.171473
-0.176351
-0.171645
-0.245459
-0.244330
-0.237462
-0.251211
-0.255812
-0.254918
-0.248410
-0.250574
-0.177146
-0.174342
-0.031156
-0.025826
-0.028759
-0.202953
-0.179245
-0.127715
-0.122280
-0.251004
-0.253455
-0.249568
-0.188052
-0.185461
-0.216280
-0.232987
-0.235657
-0.191683
-0.187404
-0.214056
-0.217696
-0.051544
-0.052787
-0.046949
-0.223772
-0.228820
-0.245405
-0.243419
-0.235037
-0.248266
-0.184028
-0.137505
-0.136191
-0.239937
-0.264055
-0.245897
-0.240880
-0.254348
-0.256061
-0.255085
-0.095101
-0.095238
-0.090123
-0.206565
-0.016708
-0.024024
-0.019918
-0.025995
-0.233797
-0.232247
-0.236770
-0.223372
-0.208089
-0.206989
-0.196906
-0.198683
-0.199599
-0.202724
-0.201898
-0.251039
-0.217675
-0.217190
-0.213568
-0.039263
-0.221764
-0.223300
-0.226417
-0.242600
-0.091526
-0.034439
-0.034624
-0.030932
-0.248357
-0.242976
-0.256784
-0.246656
-0.246400
-0.251395
-0.229482
-0.233063
-0.238301
-0.208890
-0.253189
-0.056366
-0.056232
-0.190893
-0.197162
-0.090091
-0.019034
-0.010778
-0.014298
-0.262237
-0.259587
-0.254369
-0.251487
-0.022668
-0.019574
-0.057676
-0.055724
-0.060697
-0.063621
-0.226329
-0.226780
-0.222041
-0.196347
-0.026251
-0.029138
-0.248397
-0.243009
-0.258291
-0.224926
-0.231505
-0.237272
-0.227043
-0.196236
-0.039613
-0.043241
-0.064062
-0.242474
-0.238632
-0.106533
-0.101910
-0.108107
-0.252584
-0.038361
-0.034198
-0.243154
-0.247672
-0.242094
-0.256354
-0.220517
-0.241328
0.000526
-0.004766
-0.230329
-0.111579
-0.056928
-0.062218
-0.058273
-0.225730
-0.229990
-0.236250
-0.220770
-0.053350
-0.049759
-0.051483
-0.257361
-0.104510
-0.061921
-0.253435
-0.248872
-0.261201
-0.024550
-0.021791
-0.129693
-0.125048
-0.125215
-0.029312
-0.032638
-0.251109
-0.129943
-0.128391
-0.031349
-0.027933
-0.030370
-0.228206
-0.232749
-0.230091
-0.234531
-0.053833
-0.178310
-0.010950
-0.004872
-0.050263
-0.209910
-0.214664
-0.258976
-0.222979
-0.221484
-0.226676
-0.228365
-0.233692
-0.217799
-0.044492
-0.024737
-0.096698
-0.093237
-0.093850
-0.238843
-0.096436
-0.177833
-0.173731
-0.179288
-0.044506
-0.039515
-0.048658
-0.239026
-0.243629
-0.235378
-0.243207
-0.251385
-0.247779
-0.085896
-0.083827
-0.077462
-0.088771
-0.047550
-0.236568
-0.231919
-0.223823
-0.236690
-0.040227
-0.227270
-0.227547
-0.223733
-0.225989
-0.231508
-0.225666
-0.224234
-0.201882
-0.016035
-0.030881
-0.031895
-0.026679
-0.131441
-0.134186
-0.128708
-0.132432
-0.017429
-0.039799
-0.041992
-0.255027
-0.231906
-0.115618
-0.114692
-0.111112
-0.249075
-0.248069
-0.260189
-0.027566
-0.206096
-0.203806
-0.031351
-0.034525
-0.022390
-0.114167
-0.117885
-0.109373
-0.110556
-0.114738
-0.198677
-0.198011
-0.195307
-0.110172
-0.191043
-0.050642
-0.191621
-0.191828
-0.216175
-0.234668
-0.059403
-0.240480
-0.084594
-0.081914
-0.085501
-0.047824
-0.080920
-0.054077
-0.235577
-0.090505
-0.085093
-0.231308
-0.089454
-0.149024
-0.148821
-0.151742
-0.215320
-0.015728
-0.228230
-0.152786
-0.146779
-0.150285
-0.144709
-0.128811
-0.126602
-0.131263
-0.103045
-0.097735
-0.206928
-0.210992
-0.256906
-0.253985
-0.249915
-0.129117
-0.246727
-0.246492
-0.218613
-0.223227
-0.105805
-0.100384
-0.242261
-0.247842
-0.231232
-0.235634
-0.248911
-0.253088
-0.247243
-0.028451
-0.027084
-0.023344
-0.031605
-0.198209
-0.011488
-0.010010
-0.016359
-0.203126
-0.202230
-0.194389
-0.194468
-0.016948
-0.113000
-0.109643
-0.113312
-0.193005
-0.180428
-0.183982
-0.051866
-0.252288
-0.248798
-0.248200
-0.188662
-0.187555
-0.183132
-0.246596
-0.147232
-0.148046
-0.142466
-0.241508
-0.245655
-0.213576
-0.187067
-0.115584
-0.120279
-0.074793
-0.079124
-0.075859
-0.121070
-0.201084
-0.202189
-0.205835
-0.197027
-0.035313
-0.033177
-0.021178
-0.013877
-0.127808
-0.132488
-0.132792
-0.038563
-0.043368
-0.037958
-0.136963
-0.107739
-0.100254
-0.102985
-0.099867
-0.230668
-0.236010
-0.236851
-0.204076
-0.208646
-0.095538
-0.089562
-0.095251
-0.211983
-0.208387
-0.214123
-0.237257
-0.226745
-0.215658
-0.220963
-0.228571
-0.232051
-0.239617
-0.150215
-0.144259
-0.148542
-0.198004
-0.198923
-0.196877
-0.232321
-0.235466
-0.236163
-0.258724
-0.260402
-0.262846
-0.256289
-0.192195
-0.190310
-0.206054
-0.210888
-0.231458
-0.230333
-0.226397
-0.190018
-0.261538
-0.239737
-0.243822
-0.237294
-0.185766
-0.019018
-0.184607
-0.211040
-0.201303
-0.206419
-0.045803
-0.046422
-0.049078
-0.229066
-0.234563
-0.214296
-0.218363
-0.222405
-0.251985
-0.230557
-0.233032
-0.234481
-0.229492
-0.225768
-0.232245
-0.016943
-0.020067
-0.022931
-0.026467
-0.196484
-0.194216
-0.193306
-0.188285
-0.187891
-0.246426
-0.244712
-0.156267
-0.150252
-0.150758
-0.151266
-0.104227
-0.098021
-0.100801
-0.054309
-0.186629
-0.182792
-0.182001
-0.209259
-0.200006
-0.204127
-0.233394
-0.113323
-0.119551
-0.114578
-0.100463
-0.210553
-0.216926
-0.220627
-0.224112
-0.229603
-0.242774
-0.194501
-0.192023
-0.087230
-0.083008
-0.085785
-0.082422
-0.191420
-0.239550
-0.235528
-0.050095
-0.047292
-0.051180
-0.106309
-0.034768
-0.036357
-0.030884
-0.028017
-0.217630
-0.219385
-0.186365
-0.184329
-0.029649
-0.024138
-0.030281
-0.221621
-0.227873
-0.221668
-0.255767
-0.254229
-0.087475
-0.089816
-0.088839
-0.202385
-0.205147
-0.200913
-0.205280
-0.197379
-0.201754
-0.206307
-0.091178
-0.209561
-0.212745
-0.227968
-0.226691
-0.084845
-0.125293
-0.076875
-0.079846
-0.071652
-0.218024
-0.084554
-0.082357
-0.221843
-0.228777
-0.192425
-0.188868
-0.071074
-0.070910
-0.075888
-0.216591
-0.215853
-0.211723
-0.086704
-0.032476
-0.029800
-0.222984
-0.062608
-0.058430
-0.188243
-0.066810
-0.199168
-0.182980
-0.181644
-0.165438
-0.161344
-0.167382
-0.108574
-0.105552
-0.116891
-0.113866
-0.118671
-0.110632
-0.138561
-0.137356
-0.142225
-0.141302
-0.219943
-0.208667
-0.209545
-0.214418
-0.044242
-0.044972
-0.050945
-0.230501
-0.073170
-0.076732
-0.194045
-0.200191
-0.144507
-0.144493
-0.148348
-0.147178
-0.204734
-0.089169
-0.088744
-0.209720
-0.214717
-0.117400
-0.055899
-0.052087
-0.050106
-0.068768
-0.066074
-0.250047
-0.218513
-0.218689
-0.189222
-0.187441
-0.083289
-0.226666
-0.223789
-0.056064
-0.062528
-0.056714
-0.185589
-0.079167
-0.079177
-0.179482
-0.177766
-0.240675
-0.236000
-0.233212
-0.204144
-0.209063
-0.209115
-0.249838
-0.242207
-0.147420
-0.141290
-0.144811
-0.191725
-0.197162
-0.227080
-0.223261
-0.054636
-0.203160
-0.171556
-0.168449
-0.173276
-0.170408
-0.061929
-0.136946
-0.139488
-0.142186
-0.218790
-0.215298
-0.218702
-0.213268
-0.066879
-0.071859
-0.067116
-0.073453
-0.207196
-0.212886
-0.195910
-0.199518
-0.081132
-0.084485
-0.140870
-0.143534
-0.242920
-0.028093
-0.031572
-0.033236
-0.038893
-0.135083
-0.137759
-0.140569
-0.098628
-0.103477
-0.097760
-0.018736
-0.018635
-0.023641
-0.202889
-0.205630
-0.205879
-0.187251
-0.183640
-0.077257
-0.072646
-0.075894
-0.103702
-0.018289
-0.021049
-0.182366
-0.176877
-0.174408
-0.193869
-0.191723
-0.189315
-0.186112
-0.190411
-0.194300
-0.081027
-0.085149
-0.081116
-0.107144
-0.102099
-0.100656
-0.199501
-0.203675
-0.211518
-0.185555
-0.182938
-0.098718
-0.138926
-0.143544
-0.139022
-0.179826
-0.143700
-0.082131
-0.084209
-0.085370
-0.174291
-0.171414
-0.187842
-0.192668
-0.198182
-0.195905
-0.197560
-0.203022
-0.206925
-0.026003
-0.030115
-0.036313
-0.034530
-0.242082
-0.244421
-0.239013
-0.182553
-0.179452
-0.185468
-0.183143
-0.184573
-0.024110
-0.028823
-0.027352
-0.025778
-0.031774
-0.034739
-0.036881
-0.088040
-0.177052
-0.171364
-0.168116
-0.077295
-0.073605
-0.105027
-0.099676
-0.103578
-0.100155
-0.184684
-0.190955
-0.198276
-0.189014
-0.201144
-0.204507
-0.180888
-0.177481
-0.075854
-0.076519
-0.071240
-0.036482
-0.035802
-0.042080
-0.082497
-0.084255
-0.142738
-0.141421
-0.171867
-0.174713
-0.210640
-0.211901
-0.215893
-0.173825
-0.168565
-0.166321
-0.141795
-0.220074
-0.219931
-0.223636
-0.029837
-0.024848
-0.183416
-0.189599
-0.080742
-0.097042
-0.094567
-0.100729
-0.195849
-0.197270
-0.098660
-0.105071
-0.218800
-0.221281
-0.064174
-0.066919
-0.109298
-0.178621
-0.175189
-0.201069
-0.189325
-0.183004
-0.186173
-0.172509
-0.168510
-0.231259
-0.236438
-0.181946
-0.186246
-0.063055
-0.231651
-0.236373
-0.222634
-0.235351
-0.231699
-0.176931
-0.173330
-0.039764
-0.133566
-0.142377
-0.215574
-0.133876
-0.133947
-0.138020
-0.169637
-0.163874
-0.136055
-0.130477
-0.222954
-0.217775
-0.215873
-0.182267
-0.187178
-0.134648
-0.061559
-0.066351
-0.156394
-0.156117
-0.152019
-0.068549
-0.244828
-0.124119
-0.145751
-0.151082
-0.151384
-0.125236
-0.209938
-0.214153
-0.148521
-0.140523
-0.152918
-0.145769
-0.202049
-0.201176
-0.195409
-0.151837
-0.155893
-0.175890
-0.171859
-0.210060
-0.167146
-0.160355
-0.178548
-0.184264
-0.196647
-0.198655
-0.236872
-0.051775
-0.040487
-0.052351
-0.060034
-0.042319
-0.037628
-0.036435
-0.225054
-0.142853
-0.145339
-0.141201
-0.146694
-0.141245
-0.217084
-0.217122
-0.211785
-0.125888
-0.124402
-0.126963
-0.016607
-0.015649
-0.018933
-0.174078
-0.120886
-0.163414
-0.162242
-0.166906
-0.166394
-0.156755
-0.160569
-0.159091
-0.154336
-0.091648
-0.253837
-0.258509
-0.254466
-0.072643
-0.072256
-0.076572
-0.163569
-0.090560
-0.094157
-0.089856
-0.096254
-0.099354
-0.172333
-0.046096
-0.041851
-0.039277
-0.122343
-0.239815
-0.235136
-0.236773
-0.237900
-0.047644
-0.140599
-0.137149
-0.135973
-0.140953
-0.084324
-0.087570
-0.083822
-0.021523
-0.088416
-0.218888
-0.220912
-0.221242
-0.225349
-0.250813
-0.246851
-0.227066
-0.223148
-0.217528
-0.240977
-0.104797
-0.201390
-0.206207
-0.201993
-0.204537
-0.193625
-0.192049
-0.192263
-0.197472
-0.199811
-0.203763
-0.199349
-0.204344
-0.170512
-0.164948
-0.171294
-0.086712
-0.087149
-0.038143
-0.032038
-0.034942
-0.035723
-0.031068
-0.036530
-0.175197
-0.178968
-0.176261
-0.181180
-0.166505
-0.249648
-0.249536
-0.253991
-0.071143
-0.072402
-0.254266
-0.142332
-0.091402
-0.092780
-0.088662
-0.093861
-0.087282
-0.156542
-0.161717
-0.069620
-0.223978
-0.218842
-0.222282
-0.216869
-0.235571
-0.023195
-0.025180
-0.124253
-0.047044
-0.047984
-0.050765
-0.059280
-0.053463
-0.055424
-0.043851
-0.115450
-0.112413
-0.117472
-0.113015
-0.069013
-0.123242
-0.128329
-0.126570
-0.213457
-0.209959
-0.145875
-0.147887
-0.151100
-0.151334
-0.214779
-0.216141
-0.211947
-0.218035
-0.219622
-0.098468
-0.103354
-0.175553
-0.174507
-0.171846
-0.176832
-0.178763
-0.182391
-0.183131
-0.176054
-0.178751
-0.174733
-0.180802
-0.161188
-0.156407
-0.050958
-0.055751
-0.049353
-0.108438
-0.111909
-0.114242
-0.126357
-0.108252
-0.041166
-0.045039
-0.206355
-0.212632
-0.210001
-0.211304
-0.154375
-0.093730
-0.093338
-0.110945
-0.115037
-0.117674
-0.235778
-0.237445
-0.230930
-0.233747
-0.229563
-0.074082
-0.182832
-0.176203
-0.025299
-0.022469
-0.019806
-0.026447
-0.030479
-0.131853
-0.132203
-0.149674
-0.155397
-0.151698
-0.137326
-0.133322
-0.137312
-0.141077
-0.133116
-0.116032
-0.117519
-0.113346
-0.213122
-0.114843
-0.210667
-0.122072
-0.118822
-0.126763
-0.082659
-0.079985
-0.080046
-0.159317
-0.158737
-0.154936
-0.163752
-0.160737
-0.164928
-0.096370
-0.092862
-0.090213
-0.137606
-0.136524
-0.132115
-0.134987
-0.147489
-0.244984
-0.240524
-0.069584
-0.072623
-0.074549
-0.071181
-0.208892
-0.208144
-0.196346
-0.200701
-0.100289
-0.216855
-0.214444
-0.218984
-0.221210
-0.223976
-0.226523
-0.207422
-0.211761
-0.206140
-0.190154
-0.194714
-0.203060
-0.172124
-0.177290
-0.175025
-0.181038
-0.184019
-0.188254
-0.183981
-0.189521
-0.043064
-0.045744
-0.217445
-0.028336
-0.044478
-0.046349
-0.049095
-0.052138
-0.053880
-0.220752
-0.217789
-0.221834
-0.239846
-0.237640
-0.242470
-0.112253
-0.110735
-0.115414
-0.182431
-0.186149
-0.139826
-0.134010
-0.178440
-0.181567
-0.177918
-0.057141
-0.063802
-0.059443
-0.064047
-0.165308
-0.170423
-0.167398
-0.169385
-0.125192
-0.121533
-0.117509
-0.130205
-0.129228
-0.132316
-0.232877
-0.055176
-0.050478
-0.056278
-0.051978
-0.059600
-0.052827
-0.100525
-0.097738
-0.097861
-0.102340
-0.099340
-0.174387
-0.175916
-0.171512
-0.173396
-0.178275
-0.175800
-0.066872
-0.065279
-0.178896
-0.180282
-0.183012
-0.015623
-0.023304
-0.185321
-0.099338
-0.102114
-0.101753
-0.176302
-0.042388
-0.060110
-0.057610
-0.060184
-0.065465
-0.061324
-0.060763
-0.034844
-0.037565
-0.035218
-0.032203
-0.211025
-0.208689
-0.125510
-0.124330
-0.121544
-0.128611
-0.116975
-0.118711
-0.113962
-0.229192
-0.232138
-0.232006
-0.087504
-0.087361
-0.093045
-0.147977
-0.151480
-0.244357
-0.244276
-0.145857
-0.187081
-0.184094
-0.188326
-0.185935
-0.182924
-0.182263
-0.178967
-0.245655
-0.244601
-0.248432
-0.241038
-0.245390
-0.242760
-0.252449
-0.249668
-0.253980
-0.250567
-0.160815
-0.160312
-0.109082
-0.163009
-0.157489
-0.226298
-0.230958
-0.188506
-0.185179
-0.193645