# vtk DataFile Version 2.0
Test
ASCII
DATASET POLYDATA
POINTS 6577 float
0.000000 0.000000 0.000000
2.000000 0.000000 0.000000
2.000000 4.000000 0.000000
0.000000 4.000000 0.000000
0.000000 0.500000 0.000000
1.500000 2.000000 0.000000
2.000000 2.500000 0.000000
0.040000 0.000000 0.000000
0.080000 0.000000 0.000000
0.120000 0.000000 0.000000
0.160000 0.000000 0.000000
0.200000 0.000000 0.000000
0.240000 0.000000 0.000000
0.280000 0.000000 0.000000
0.320000 0.000000 0.000000
0.360000 0.000000 0.000000
0.400000 0.000000 0.000000
0.440000 0.000000 0.000000
0.480000 0.000000 0.000000
0.520000 0.000000 0.000000
0.560000 0.000000 0.000000
0.600000 0.000000 0.000000
0.640000 0.000000 0.000000
0.680000 0.000000 0.000000
0.720000 0.000000 0.000000
0.760000 0.000000 0.000000
0.800000 0.000000 0.000000
0.840000 0.000000 0.000000
0.880000 0.000000 0.000000
0.920000 0.000000 0.000000
0.960000 0.000000 0.000000
1.000000 0.000000 0.000000
1.040000 0.000000 0.000000
1.080000 0.000000 0.000000
1.120000 0.000000 0.000000
1.160000 0.000000 0.000000
1.200000 0.000000 0.000000
1.240000 0.000000 0.000000
1.280000 0.000000 0.000000
1.320000 0.000000 0.000000
1.360000 0.000000 0.000000
1.400000 0.000000 0.000000
1.440000 0.000000 0.000000
1.480000 0.000000 0.000000
1.520000 0.000000 0.000000
1.560000 0.000000 0.000000
1.600000 0.000000 0.000000
1.640000 0.000000 0.000000
1.680000 0.000000 0.000000
1.720000 0.000000 0.000000
1.760000 0.000000 0.000000
1.800000 0.000000 0.000000
1.840000 0.000000 0.000000
1.880000 0.000000 0.000000
1.920000 0.000000 0.000000
1.960000 0.000000 0.000000
2.000000 0.039683 0.000000
2.000000 0.079365 0.000000
2.000000 0.119048 0.000000
2.000000 0.158730 0.000000
2.000000 0.198413 0.000000
2.000000 0.238095 0.000000
2.000000 0.277778 0.000000
2.000000 0.317460 0.000000
2.000000 0.357143 0.000000
2.000000 0.396825 0.000000
2.000000 0.436508 0.000000
2.000000 0.476190 0.000000
2.000000 0.515873 0.000000
2.000000 0.555556 0.000000
2.000000 0.595238 0.000000
2.000000 0.634921 0.000000
2.000000 0.674603 0.000000
2.000000 0.714286 0.000000
2.000000 0.753968 0.000000
2.000000 0.793651 0.000000
2.000000 0.833333 0.000000
2.000000 0.873016 0.000000
2.000000 0.912698 0.000000
2.000000 0.952381 0.000000
2.000000 0.992063 0.000000
2.000000 1.031746 0.000000
2.000000 1.071429 0.000000
2.000000 1.111111 0.000000
2.000000 1.150794 0.000000
2.000000 1.190476 0.000000
2.000000 1.230159 0.000000
2.000000 1.269841 0.000000
2.000000 1.309524 0.000000
2.000000 1.349206 0.000000
2.000000 1.388889 0.000000
2.000000 1.428571 0.000000
2.000000 1.468254 0.000000
2.000000 1.507937 0.000000
2.000000 1.547619 0.000000
2.000000 1.587302 0.000000
2.000000 1.626984 0.000000
2.000000 1.666667 0.000000
2.000000 1.706349 0.000000
2.000000 1.746032 0.000000
2.000000 1.785714 0.000000
2.000000 1.825397 0.000000
2.000000 1.865079 0.000000
2.000000 1.904762 0.000000
2.000000 1.944444 0.000000
2.000000 1.984127 0.000000
2.000000 2.023810 0.000000
2.000000 2.063492 0.000000
2.000000 2.103175 0.000000
2.000000 2.142857 0.000000
2.000000 2.182540 0.000000
2.000000 2.222222 0.000000
2.000000 2.261905 0.000000
2.000000 2.301587 0.000000
2.000000 2.341270 0.000000
2.000000 2.380952 0.000000
2.000000 2.420635 0.000000
2.000000 2.460317 0.000000
2.000000 2.539474 0.000000
2.000000 2.578947 0.000000
2.000000 2.618421 0.000000
2.000000 2.657895 0.000000
2.000000 2.697368 0.000000
2.000000 2.736842 0.000000
2.000000 2.776316 0.000000
2.000000 2.815789 0.000000
2.000000 2.855263 0.000000
2.000000 2.894737 0.000000
2.000000 2.934211 0.000000
2.000000 2.973684 0.000000
2.000000 3.013158 0.000000
2.000000 3.052632 0.000000
2.000000 3.092105 0.000000
2.000000 3.131579 0.000000
2.000000 3.171053 0.000000
2.000000 3.210526 0.000000
2.000000 3.250000 0.000000
2.000000 3.289474 0.000000
2.000000 3.328947 0.000000
2.000000 3.368421 0.000000
2.000000 3.407895 0.000000
2.000000 3.447368 0.000000
2.000000 3.486842 0.000000
2.000000 3.526316 0.000000
2.000000 3.565789 0.000000
2.000000 3.605263 0.000000
2.000000 3.644737 0.000000
2.000000 3.684211 0.000000
2.000000 3.723684 0.000000
2.000000 3.763158 0.000000
2.000000 3.802632 0.000000
2.000000 3.842105 0.000000
2.000000 3.881579 0.000000
2.000000 3.921053 0.000000
2.000000 3.960526 0.000000
1.960000 4.000000 0.000000
1.920000 4.000000 0.000000
1.880000 4.000000 0.000000
1.840000 4.000000 0.000000
1.800000 4.000000 0.000000
1.760000 4.000000 0.000000
1.720000 4.000000 0.000000
1.680000 4.000000 0.000000
1.640000 4.000000 0.000000
1.600000 4.000000 0.000000
1.560000 4.000000 0.000000
1.520000 4.000000 0.000000
1.480000 4.000000 0.000000
1.440000 4.000000 0.000000
1.400000 4.000000 0.000000
1.360000 4.000000 0.000000
1.320000 4.000000 0.000000
1.280000 4.000000 0.000000
1.240000 4.000000 0.000000
1.200000 4.000000 0.000000
1.160000 4.000000 0.000000
1.120000 4.000000 0.000000
1.080000 4.000000 0.000000
1.040000 4.000000 0.000000
1.000000 4.000000 0.000000
0.960000 4.000000 0.000000
0.920000 4.000000 0.000000
0.880000 4.000000 0.000000
0.840000 4.000000 0.000000
0.800000 4.000000 0.000000
0.760000 4.000000 0.000000
0.720000 4.000000 0.000000
0.680000 4.000000 0.000000
0.640000 4.000000 0.000000
0.600000 4.000000 0.000000
0.560000 4.000000 0.000000
0.520000 4.000000 0.000000
0.480000 4.000000 0.000000
0.440000 4.000000 0.000000
0.400000 4.000000 0.000000
0.360000 4.000000 0.000000
0.320000 4.000000 0.000000
0.280000 4.000000 0.000000
0.240000 4.000000 0.000000
0.200000 4.000000 0.000000
0.160000 4.000000 0.000000
0.120000 4.000000 0.000000
0.080000 4.000000 0.000000
0.040000 4.000000 0.000000
0.000000 3.960227 0.000000
0.000000 3.920455 0.000000
0.000000 3.880682 0.000000
0.000000 3.840909 0.000000
0.000000 3.801136 0.000000
0.000000 3.761364 0.000000
0.000000 3.721591 0.000000
0.000000 3.681818 0.000000
0.000000 3.642045 0.000000
0.000000 3.602273 0.000000
0.000000 3.562500 0.000000
0.000000 3.522727 0.000000
0.000000 3.482955 0.000000
0.000000 3.443182 0.000000
0.000000 3.403409 0.000000
0.000000 3.363636 0.000000
0.000000 3.323864 0.000000
0.000000 3.284091 0.000000
0.000000 3.244318 0.000000
0.000000 3.204545 0.000000
0.000000 3.164773 0.000000
0.000000 3.125000 0.000000
0.000000 3.085227 0.000000
0.000000 3.045455 0.000000
0.000000 3.005682 0.000000
0.000000 2.965909 0.000000
0.000000 2.926136 0.000000
0.000000 2.886364 0.000000
0.000000 2.846591 0.000000
0.000000 2.806818 0.000000
0.000000 2.767045 0.000000
0.000000 2.727273 0.000000
0.000000 2.687500 0.000000
0.000000 2.647727 0.000000
0.000000 2.607955 0.000000
0.000000 2.568182 0.000000
0.000000 2.528409 0.000000
0.000000 2.488636 0.000000
0.000000 2.448864 0.000000
0.000000 2.409091 0.000000
0.000000 2.369318 0.000000
0.000000 2.329545 0.000000
0.000000 2.289773 0.000000
0.000000 2.250000 0.000000
0.000000 2.210227 0.000000
0.000000 2.170455 0.000000
0.000000 2.130682 0.000000
0.000000 2.090909 0.000000
0.000000 2.051136 0.000000
0.000000 2.011364 0.000000
0.000000 1.971591 0.000000
0.000000 1.931818 0.000000
0.000000 1.892045 0.000000
0.000000 1.852273 0.000000
0.000000 1.812500 0.000000
0.000000 1.772727 0.000000
0.000000 1.732955 0.000000
0.000000 1.693182 0.000000
0.000000 1.653409 0.000000
0.000000 1.613636 0.000000
0.000000 1.573864 0.000000
0.000000 1.534091 0.000000
0.000000 1.494318 0.000000
0.000000 1.454545 0.000000
0.000000 1.414773 0.000000
0.000000 1.375000 0.000000
0.000000 1.335227 0.000000
0.000000 1.295455 0.000000
0.000000 1.255682 0.000000
0.000000 1.215909 0.000000
0.000000 1.176136 0.000000
0.000000 1.136364 0.000000
0.000000 1.096591 0.000000
0.000000 1.056818 0.000000
0.000000 1.017045 0.000000
0.000000 0.977273 0.000000
0.000000 0.937500 0.000000
0.000000 0.897727 0.000000
0.000000 0.857955 0.000000
0.000000 0.818182 0.000000
0.000000 0.778409 0.000000
0.000000 0.738636 0.000000
0.000000 0.698864 0.000000
0.000000 0.659091 0.000000
0.000000 0.619318 0.000000
0.000000 0.579545 0.000000
0.000000 0.539773 0.000000
0.000000 0.461538 0.000000
0.000000 0.423077 0.000000
0.000000 0.384615 0.000000
0.000000 0.346154 0.000000
0.000000 0.307692 0.000000
0.000000 0.269231 0.000000
0.000000 0.230769 0.000000
0.000000 0.192308 0.000000
0.000000 0.153846 0.000000
0.000000 0.115385 0.000000
0.000000 0.076923 0.000000
0.000000 0.038462 0.000000
0.027778 0.527778 0.000000
0.055556 0.555556 0.000000
0.083333 0.583333 0.000000
0.111111 0.611111 0.000000
0.138889 0.638889 0.000000
0.166667 0.666667 0.000000
0.194444 0.694444 0.000000
0.222222 0.722222 0.000000
0.250000 0.750000 0.000000
0.277778 0.777778 0.000000
0.305556 0.805556 0.000000
0.333333 0.833333 0.000000
0.361111 0.861111 0.000000
0.388889 0.888889 0.000000
0.416667 0.916667 0.000000
0.444444 0.944444 0.000000
0.472222 0.972222 0.000000
0.500000 1.000000 0.000000
0.527778 1.027778 0.000000
0.555556 1.055556 0.000000
0.583333 1.083333 0.000000
0.611111 1.111111 0.000000
0.638889 1.138889 0.000000
0.666667 1.166667 0.000000
0.694444 1.194444 0.000000
0.722222 1.222222 0.000000
0.750000 1.250000 0.000000
0.777778 1.277778 0.000000
0.805556 1.305556 0.000000
0.833333 1.333333 0.000000
0.861111 1.361111 0.000000
0.888889 1.388889 0.000000
0.916667 1.416667 0.000000
0.944444 1.444444 0.000000
0.972222 1.472222 0.000000
1.000000 1.500000 0.000000
1.027778 1.527778 0.000000
1.055556 1.555556 0.000000
1.083333 1.583333 0.000000
1.111111 1.611111 0.000000
1.138889 1.638889 0.000000
1.166667 1.666667 0.000000
1.194444 1.694444 0.000000
1.222222 1.722222 0.000000
1.250000 1.750000 0.000000
1.277778 1.777778 0.000000
1.305556 1.805556 0.000000
1.333333 1.833333 0.000000
1.361111 1.861111 0.000000
1.388889 1.888889 0.000000
1.416667 1.916667 0.000000
1.444444 1.944444 0.000000
1.472222 1.972222 0.000000
1.527778 2.027778 0.000000
1.555556 2.055556 0.000000
1.583333 2.083333 0.000000
1.611111 2.111111 0.000000
1.638889 2.138889 0.000000
1.666667 2.166667 0.000000
1.694444 2.194444 0.000000
1.722222 2.222222 0.000000
1.750000 2.250000 0.000000
1.777778 2.277778 0.000000
1.805556 2.305556 0.000000
[...]
POINT_DATA 6577
SCALARS UX float 1
LOOKUP_TABLE default
-0.000003
0.000005
0.000138
-0.039247
-0.020691
-0.001455
0.004531
0.000000
-0.000000
-0.000000
0.000000
0.000001
-0.000002
0.000000
0.000000
0.000000
0.000000
0.000000
0.000000
0.000000
0.000000
-0.000000
0.000000
0.000000
0.000000
0.000000
-0.000000
-0.000000
0.000000
-0.000000
0.000000
0.000000
0.000000
-0.000000
0.000000
0.000000
-0.000000
0.000000
0.000000
-0.000000
0.000000
0.000000
-0.000000
0.000000
0.000000
-0.000000
-0.000000
-0.000000
-0.000000
-0.000001
-0.000001
-0.000000
0.000001
0.000001
-0.000002
0.000001
0.002711
0.005689
0.007567
0.009200
0.010541
0.011755
0.012801
0.013764
0.014631
0.015395
0.016082
0.016684
0.017264
0.017792
0.018270
0.018693
0.019092
0.019442
0.019768
0.020047
0.020305
0.020539
0.020776
0.020934
0.021101
0.021258
0.021360
0.021453
0.021538
0.021567
0.021595
0.021607
0.021602
0.021554
0.021441
0.021399
0.021265
0.021141
0.020952
0.020731
0.020468
0.020154
0.019761
0.019345
0.018817
0.018213
0.017532
0.016766
0.015923
0.014955
0.013970
0.012992
0.011978
0.010983
0.010024
0.009065
0.008266
0.007448
0.006725
0.006099
0.005535
0.005003
0.004105
0.003735
0.003443
0.003102
0.002876
0.002617
0.002334
0.002189
0.001999
0.001844
0.001692
0.001549
0.001409
0.001308
0.001215
0.001040
0.000986
0.000930
0.000854
0.000731
0.000639
0.000642
0.000552
0.000490
0.000439
0.000406
0.000355
0.000322
0.000293
0.000241
0.000203
0.000203
0.000196
0.000164
0.000159
0.000140
0.000143
-0.000714
-0.001566
-0.002412
-0.003261
-0.004107
-0.004951
-0.005787
-0.006625
-0.007458
-0.008282
-0.009109
-0.009934
-0.010743
-0.011547
-0.012357
-0.013164
-0.013965
-0.014756
-0.015546
-0.016333
-0.017117
-0.017902
-0.018684
-0.019462
-0.020236
-0.021008
-0.021780
-0.022548
-0.023314
-0.024084
-0.024855
-0.025623
-0.026372
-0.027132
-0.027902
-0.028666
-0.029420
-0.030178
-0.030943
-0.031706
-0.032464
-0.033224
-0.033982
-0.034740
-0.035497
-0.036250
-0.037002
-0.037750
-0.038496
-0.039240
-0.039236
-0.039224
-0.039214
-0.039161
-0.039129
-0.039093
-0.039039
-0.038998
-0.038936
-0.038888
-0.038799
-0.038709
-0.038667
-0.038534
-0.038467
-0.038357
-0.038254
-0.038197
-0.038031
-0.037938
-0.037832
-0.037695
-0.037576
-0.037469
-0.037330
-0.037223
-0.037055
-0.036983
-0.036818
-0.036718
-0.036564
-0.036484
-0.036380
-0.036234
-0.036154
-0.036044
-0.035951
-0.035894
-0.035828
-0.035733
-0.035694
-0.035656
-0.035646
-0.035600
-0.035614
-0.035621
-0.035650
-0.035688
-0.035738
-0.035797
-0.035899
-0.036028
-0.036123
-0.036278
-0.036443
-0.036609
-0.036814
-0.037025
-0.037206
-0.037508
-0.037765
-0.038051
-0.038349
-0.038672
-0.038967
-0.039318
-0.039624
-0.039947
-0.040252
-0.040535
-0.040741
-0.040918
-0.041008
-0.040956
-0.040778
-0.040452
-0.039910
-0.039145
-0.038182
-0.037156
-0.036292
-0.035604
-0.035343
-0.032902
-0.029714
-0.025144
-0.014499
-0.014460
-0.013584
-0.012864
-0.012172
-0.011335
-0.010410
-0.009392
-0.008210
-0.006808
-0.005187
-0.002840
-0.018799
-0.019488
-0.019611
-0.022641
-0.019318
-0.014722
-0.022276
-0.019093
-0.019925
-0.023276
-0.021232
-0.023302
-0.019188
-0.016524
-0.014543
-0.012922
-0.015459
-0.014457
-0.014038
-0.015075
-0.018558
-0.013695
-0.012232
-0.016956
-0.014125
-0.015823
-0.006486
-0.010845
-0.013839
-0.014184
-0.009875
-0.012703
-0.009171
-0.007843
-0.014296
-0.010038
-0.010313
-0.008455
-0.008487
-0.008265
-0.005723
-0.005669
-0.001796
-0.004745
-0.005666
-0.003602
-0.002675
-0.002679
-0.002314
-0.003562
0.000007
-0.000846
-0.000572
0.000512
0.000845
0.001086
0.001283
0.001490
0.001681
0.001857
0.001987
0.002191
0.002370
0.002553
0.002750
0.002988
0.003209
0.003493
0.003824
0.004175
0.003085
0.002892
-0.038750
-0.038738
-0.000613
-0.000525
0.003497
0.003525
0.002777
0.002051
0.001584
-0.007391
-0.007966
-0.008034
-0.014204
-0.013974
-0.013270
-0.008511
-0.028342
-0.027714
-0.027856
-0.009804
-0.009209
-0.009022
-0.035471
-0.035704
-0.035062
-0.036130
-0.036956
-0.036683
-0.009759
-0.004302
-0.003626
-0.003979
-0.009776
-0.010406
-0.009589
-0.035505
-0.035361
-0.034775
-0.028425
-0.012241
-0.012198
-0.012940
-0.012433
-0.013000
-0.013158
-0.010440
-0.010277
-0.011019
-0.010708
-0.029020
-0.029698
-0.029472
-0.029491
-0.028598
-0.029316
-0.028766
-0.029557
-0.011299
-0.010496
-0.011065
-0.012544
-0.019396
-0.019445
-0.018844
0.001788
0.002127
-0.018484
-0.031538
-0.031662
-0.030818
-0.032387
-0.029938
-0.029863
-0.029109
-0.018865
-0.019441
-0.019420
-0.018869
-0.006138
-0.005988
-0.005052
-0.005329
-0.027301
-0.028112
-0.028056
-0.027485
-0.014447
-0.013775
-0.014339
-0.028477
-0.027533
-0.027696
0.001456
0.002242
0.001349
0.002025
0.001482
0.001992
0.000995
-0.030277
-0.030904
-0.031004
-0.008128
-0.008806
-0.008763
-0.009522
-0.013996
-0.036192
-0.036813
-0.036311
-0.022808
-0.022186
-0.022190
-0.023033
-0.031053
-0.031710
-0.031059
-0.031624
-0.029387
-0.028875
-0.029545
-0.019764
-0.019938
-0.020516
-0.004409
-0.005092
-0.004980
-0.003722
-0.002500
-0.001834
0.002008
-0.021619
-0.021188
-0.021797
-0.021951
-0.022419
-0.022540
-0.028010
-0.027128
-0.029073
-0.029243
-0.028543
-0.033222
-0.032861
-0.032698
-0.029770
-0.019407
-0.020189
-0.019339
-0.034721
-0.034468
-0.035066
-0.028706
-0.023936
-0.023586
-0.024348
-0.019776
-0.019165
-0.019848
-0.031428
-0.032678
-0.033712
-0.002373
-0.001402
-0.002374
-0.001179
-0.010579
-0.011037
-0.011183
-0.011749
0.002110
0.002492
-0.017765
-0.017380
-0.017945
-0.016946
-0.035471
-0.036152
-0.035811
-0.021027
-0.020447
-0.020954
-0.022206
-0.022999
-0.022227
-0.020732
-0.036675
-0.027631
-0.026783
-0.027193
-0.026700
-0.027265
-0.027484
-0.028146
-0.027302
-0.035784
-0.035735
-0.023321
-0.022947
-0.023726
-0.035427
-0.035653
-0.017211
-0.016825
-0.017723
-0.034736
-0.035447
-0.035011
-0.034958
-0.034380
-0.034128
-0.033279
-0.034109
-0.033735
-0.033619
-0.032532
-0.033359
-0.032988
-0.016553
-0.017018
-0.012231
-0.016998
-0.035958
-0.036643
-0.036295
-0.037020
-0.038281
-0.038144
-0.001191
-0.001303
-0.008175
-0.008128
-0.007293
-0.008867
-0.025491
-0.025464
-0.024885
-0.032065
-0.032712
-0.032614
-0.024713
-0.009195
-0.008852
-0.009505
-0.032752
-0.033306
-0.037340
-0.037169
-0.036812
-0.018702
-0.018180
-0.000301
-0.000265
0.000703
0.000833
-0.031490
-0.032225
-0.032130
-0.032819
-0.038292
-0.037639
-0.038301
-0.037344
-0.034876
-0.035497
-0.034675
-0.036215
-0.035668
-0.039572
-0.039857
-0.040163
-0.034803
-0.034737
-0.035957
-0.036889
-0.036013
-0.032665
-0.032511
-0.002868
-0.001993
-0.033384
-0.034211
-0.033997
-0.036619
-0.029166
-0.029935
-0.029299
-0.034901
-0.035189
-0.005170
-0.005622
-0.005981
-0.004724
-0.008916
-0.008226
-0.008416
-0.020962
-0.021126
-0.021656
-0.017752
-0.017581
-0.005394
-0.004740
-0.004919
-0.020545
-0.018537
-0.018900
-0.019199
-0.037283
-0.038239
-0.037559
-0.031462
-0.031614
-0.030940
-0.007314
-0.032088
-0.032819
-0.032041
-0.031871
-0.031763
-0.032728
-0.033219
-0.034261
-0.006760
-0.032873
-0.029038
-0.031021
-0.031778
-0.031704
-0.031256
-0.031248
-0.036810
-0.037049
-0.035723
-0.037935
-0.030260
-0.029972
-0.030657
-0.001874
-0.001462
-0.032053
-0.031989
-0.031919
-0.031149
-0.031175
-0.028017
-0.038551
-0.037804
-0.037156
-0.037400
-0.036661
-0.036738
-0.000512
-0.026531
-0.025898
-0.037848
-0.037637
-0.030573
-0.030700
-0.001682
-0.001274
-0.019917
-0.019029
-0.033502
-0.011091
-0.010838
-0.010545
-0.010102
-0.035754
-0.035085
-0.028788
-0.029473
-0.028821
-0.033894
-0.035040
-0.035419
-0.034333
-0.037786
-0.029514
-0.003590
-0.023559
-0.024318
-0.023842
-0.035964
-0.037662
-0.036604
-0.038769
-0.037460
-0.038560
-0.037724
-0.038109
-0.024655
-0.024228
-0.002951
-0.002362
-0.002545
-0.032944
-0.030745
-0.017164
-0.016264
-0.036847
-0.037001
-0.036485
-0.026596
-0.026070
-0.034138
-0.036005
-0.036278
-0.032623
-0.030563
-0.032091
-0.032829
-0.005847
-0.006009
-0.005168
-0.033670
-0.034406
-0.037012
-0.036621
-0.035304
-0.038448
-0.026017
-0.018600
-0.018425
-0.036007
-0.038613
-0.038173
-0.037255
-0.039419
-0.037425
-0.037198
-0.011720
-0.011731
-0.010844
-0.031198
-0.000515
-0.001702
-0.001043
-0.002096
-0.035487
-0.036112
-0.036768
-0.034433
-0.031396
-0.031303
-0.030237
-0.030562
-0.030438
-0.030492
-0.030503
-0.038919
-0.030903
-0.030752
-0.030034
-0.004210
-0.031576
-0.031633
-0.032168
-0.035414
-0.010985
-0.003449
-0.003486
-0.002804
-0.038459
-0.037620
-0.039868
-0.036021
-0.036079
-0.036608
-0.035517
-0.036166
-0.036966
-0.034621
-0.039268
-0.006482
-0.006698
-0.029441
-0.030442
-0.010946
0.000384
0.001123
0.001170
-0.038333
-0.037954
-0.037161
-0.036801
-0.001261
-0.000643
-0.006966
-0.006465
-0.006934
-0.007600
-0.032971
-0.032899
-0.032238
-0.029808
-0.002100
-0.002512
-0.038529
-0.037723
-0.040154
-0.035121
-0.035972
-0.036880
-0.034840
-0.029829
-0.004246
-0.004895
-0.007714
-0.035397
-0.034788
-0.014145
-0.013601
-0.014332
-0.039238
-0.004153
-0.003338
-0.035414
-0.036109
-0.037669
-0.039878
-0.032962
-0.036331
0.002825
0.002123
-0.034613
-0.015108
-0.005835
-0.006657
-0.005983
-0.035042
-0.035801
-0.036737
-0.034647
-0.006222
-0.005608
-0.005983
-0.037604
-0.013760
-0.006685
-0.036807
-0.036380
-0.038003
-0.001558
-0.000908
-0.016926
-0.016349
-0.016262
-0.002451
-0.002969
-0.039101
-0.017044
-0.016780
-0.001469
-0.000592
-0.001364
-0.033109
-0.033717
-0.033235
-0.033979
-0.006221
-0.025124
0.001511
0.002302
-0.005574
-0.031527
-0.032272
-0.037508
-0.034971
-0.033153
-0.033894
-0.035543
-0.036409
-0.033876
-0.004902
-0.000211
-0.011939
-0.011226
-0.011382
-0.034748
-0.011761
-0.024545
-0.024115
-0.025042
-0.004816
-0.003971
-0.005580
-0.034795
-0.035499
-0.034155
-0.036596
-0.038952
-0.037315
-0.009887
-0.009634
-0.008973
-0.010402
-0.005152
-0.036880
-0.034859
-0.034917
-0.035604
-0.004345
-0.032820
-0.033027
-0.032299
-0.035267
-0.036054
-0.032559
-0.032387
-0.030573
0.000187
-0.002317
-0.002394
-0.001670
-0.017646
-0.018254
-0.017499
-0.017939
0.000604
-0.004071
-0.004363
-0.037131
-0.033670
-0.015543
-0.015543
-0.014899
-0.036350
-0.036058
-0.037801
-0.001948
-0.030814
-0.030726
-0.002912
-0.003304
-0.001039
-0.015088
-0.015792
-0.013917
-0.013937
-0.014719
-0.029855
-0.029844
-0.029778
-0.014750
-0.029318
-0.005697
-0.029146
-0.029154
-0.032426
-0.034081
-0.007189
-0.035913
-0.010915
-0.010215
-0.010915
-0.005440
-0.010222
-0.006352
-0.034242
-0.011573
-0.010726
-0.033420
-0.011363
-0.020470
-0.020331
-0.020932
-0.030429
0.000586
-0.034127
-0.022133
-0.021301
-0.021762
-0.019860
-0.016763
-0.016515
-0.017164
-0.013545
-0.012834
-0.030960
-0.031730
-0.037279
-0.037007
-0.036361
-0.016943
-0.035128
-0.035128
-0.032630
-0.033403
-0.014102
-0.013416
-0.036322
-0.037069
-0.034411
-0.035128
-0.035917
-0.036522
-0.035595
-0.001774
-0.002138
-0.001460
-0.002480
-0.029966
0.000826
0.000814
-0.000012
-0.030228
-0.030146
-0.029250
-0.029151
-0.000005
-0.015032
-0.014378
-0.015012
-0.029154
-0.025231
-0.025783
-0.005838
-0.039015
-0.038551
-0.038246
-0.028567
-0.028604
-0.025893
-0.036024
-0.019923
-0.019834
-0.019075
-0.034908
-0.035594
-0.031880
-0.026394
-0.014745
-0.015607
-0.009214
-0.009809
-0.009309
-0.015786
-0.028422
-0.028451
-0.029022
-0.027684
-0.003335
-0.002977
0.000018
0.001105
-0.016774
-0.017359
-0.017555
-0.003500
-0.004326
-0.003641
-0.018236
-0.014426
-0.012986
-0.013586
-0.012973
-0.033410
-0.034244
-0.034495
-0.030398
-0.031122
-0.012282
-0.011620
-0.012365
-0.030421
-0.029958
-0.030565
-0.035684
-0.033634
-0.032111
-0.032849
-0.033999
-0.034760
-0.034825
-0.020963
-0.020206
-0.020762
-0.029662
-0.029486
-0.029386
-0.033262
-0.033666
-0.033762
-0.037372
-0.037869
-0.038101
-0.037069
-0.028703
-0.028581
-0.029260
-0.030075
-0.033125
-0.032866
-0.032394
-0.028560
-0.037863
-0.034551
-0.035231
-0.034171
-0.028017
0.000312
-0.028049
-0.031365
-0.029867
-0.030614
-0.004801
-0.005054
-0.005378
-0.032634
-0.033554
-0.031628
-0.032389
-0.033191
-0.036284
-0.033261
-0.033564
-0.033857
-0.033047
-0.033616
-0.034547
-0.000126
-0.000539
-0.000853
-0.001553
-0.029126
-0.028926
-0.028808
-0.028147
-0.028129
-0.035508
-0.035311
-0.021411
-0.020578
-0.020706
-0.020797
-0.013996
-0.013063
-0.013532
-0.006261
-0.028022
-0.027430
-0.027483
-0.030878
-0.029361
-0.030120
-0.033567
-0.014724
-0.015476
-0.014814
-0.013418
-0.031220
-0.031912
-0.032725
-0.033165
-0.034159
-0.034955
-0.028603
-0.028388
-0.011429
-0.010766
-0.011232
-0.010783
-0.028227
-0.034393
-0.033911
-0.005711
-0.005075
-0.005782
-0.014266
-0.002241
-0.002812
-0.001984
-0.001305
-0.030939
-0.031365
-0.027548
-0.027535
-0.001337
-0.000445
-0.001315
-0.031916
-0.032673
-0.031843
-0.036972
-0.036680
-0.011508
-0.011778
-0.011345
-0.028918
-0.029365
-0.028711
-0.029256
-0.028864
-0.029630
-0.030402
-0.011980
-0.030816
-0.031421
-0.032865
-0.032632
-0.010005
-0.016416
-0.009615
-0.009924
-0.008881
-0.032236
-0.009947
-0.009514
-0.032716
-0.033763
-0.028092
-0.027848
-0.008742
-0.008564
-0.009549
-0.031116
-0.031069
-0.030303
-0.010224
-0.002674
-0.002278
-0.031929
-0.007589
-0.006922
-0.027656
-0.008076
-0.028284
-0.026938
-0.026838
-0.022821
-0.021965
-0.022957
-0.014692
-0.014324
-0.015767
-0.015326
-0.015969
-0.014874
-0.018367
-0.018308
-0.018998
-0.018853
-0.031748
-0.029794
-0.030103
-0.030809
-0.004304
-0.004654
-0.005545
-0.033159
-0.008317
-0.008767
-0.028379
-0.029163
-0.019437
-0.019327
-0.019969
-0.019857
-0.029983
-0.011731
-0.011556
-0.030539
-0.031604
-0.015076
-0.005952
-0.005214
-0.005237
-0.008267
-0.008259
-0.036123
-0.031308
-0.031376
-0.027591
-0.027316
-0.010496
-0.032574
-0.032091
-0.006439
-0.007315
-0.006441
-0.027097
-0.010207
-0.010137
-0.026330
-0.026179
-0.034623
-0.033875
-0.033358
-0.029158
-0.029982
-0.029894
-0.036171
-0.034906
-0.021210
-0.020356
-0.020613
-0.027908
-0.028704
-0.032567
-0.032078
-0.005490
-0.029544
-0.023912
-0.023501
-0.024282
-0.023872
-0.007184
-0.018262
-0.018519
-0.019069
-0.031373
-0.030766
-0.031337
-0.030542
-0.008153
-0.008775
-0.008029
-0.008969
-0.030140
-0.031147
-0.027946
-0.028431
-0.010622
-0.011087
-0.018907
-0.019322
-0.034912
-0.001567
-0.002152
-0.002361
-0.003205
-0.018701
-0.018894
-0.019401
-0.012025
-0.012749
-0.011881
-0.000178
-0.000171
-0.000928
-0.028947
-0.029579
-0.029515
-0.027101
-0.026800
-0.009400
-0.008592
-0.008976
-0.012984
-0.000217
-0.000908
-0.026538
-0.025736
-0.025528
-0.027520
-0.026702
-0.026408
-0.025963
-0.027442
-0.028264
-0.010021
-0.010751
-0.010113
-0.014260
-0.012558
-0.012500
-0.029130
-0.029749
-0.030758
-0.026623
-0.026292
-0.012168
-0.018442
-0.019055
-0.018458
-0.026002
-0.019255
-0.009402
-0.009983
-0.010037
-0.025149
-0.024884
-0.027003
-0.027833
-0.028120
-0.027647
-0.028704
-0.029346
-0.030119
-0.000474
-0.000709
-0.002009
-0.001588
-0.034748
-0.035226
-0.034449
-0.026167
-0.025794
-0.026177
-0.025781
-0.026118
-0.001133
-0.002012
-0.000968
-0.000557
-0.001579
-0.002303
-0.002599
-0.010639
-0.025452
-0.024572
-0.024286
-0.008679
-0.007966
-0.013626
-0.013015
-0.013647
-0.013183
-0.026558
-0.027426
-0.028380
-0.026815
-0.028867
-0.029684
-0.025732
-0.025325
-0.009382
-0.009530
-0.008559
-0.002787
-0.002951
-0.003644
-0.009586
-0.009744
-0.019879
-0.019470
-0.024088
-0.024502
-0.030100
-0.030168
-0.030838
-0.024900
-0.023926
-0.023687
-0.019596
-0.031360
-0.031430
-0.031971
-0.001630
-0.000700
-0.026147
-0.027041
-0.009241
-0.011833
-0.011572
-0.012402
-0.027958
-0.028421
-0.012140
-0.013001
-0.031492
-0.031676
-0.007540
-0.007842
-0.014555
-0.025297
-0.024857
-0.028501
-0.026471
-0.025821
-0.026303
-0.024467
-0.023738
-0.033694
-0.034424
-0.025892
-0.026633
-0.007695
-0.033221
-0.033848
-0.032109
-0.034317
-0.033620
-0.025009
-0.024411
-0.003587
-0.018034
-0.020049
-0.030720
-0.018477
-0.018319
-0.018892
-0.023977
-0.023253
-0.017881
-0.017061
-0.031833
-0.031073
-0.030919
-0.025639
-0.026471
-0.017792
-0.006984
-0.007901
-0.021163
-0.021328
-0.020676
-0.008425
-0.034950
-0.016200
-0.020579
-0.021363
-0.020514
-0.016378
-0.029845
-0.030552
-0.022021
-0.020377
-0.022103
-0.021218
-0.028159
-0.028268
-0.027459
-0.020477
-0.021105
-0.024727
-0.024156
-0.029809
-0.023566
-0.022732
-0.025175
-0.026143
-0.027423
-0.027958
-0.033862
-0.004472
-0.003287
-0.004972
-0.005971
-0.003624
-0.003115
-0.002916
-0.032211
-0.019555
-0.020046
-0.019288
-0.020166
-0.019418
-0.030739
-0.030751
-0.029896
-0.016269
-0.016101
-0.016774
0.000097
0.000310
-0.000475
-0.024686
-0.015571
-0.022825
-0.022594
-0.023336
-0.023178
-0.021495
-0.022138
-0.021757
-0.021777
-0.011806
-0.036774
-0.037404
-0.036825
-0.008235
-0.008314
-0.008916
-0.022569
-0.010824
-0.011512
-0.010730
-0.011661
-0.012085
-0.023939
-0.003807
-0.003066
-0.002771
-0.015907
-0.034299
-0.033493
-0.033834
-0.033920
-0.004132
-0.018812
-0.018240
-0.018173
-0.018884
-0.010572
-0.011027
-0.010497
0.000056
-0.011359
-0.030980
-0.031430
-0.031510
-0.032070
-0.035965
-0.035152
-0.032629
-0.032168
-0.031382
-0.034916
-0.014399
-0.028661
-0.029270
-0.028644
-0.029082
-0.027772
-0.027290
-0.027334
-0.027952
-0.027994
-0.028586
-0.027965
-0.028762
-0.023421
-0.022816
-0.023500
-0.010384
-0.012572
-0.002849
-0.001844
-0.002305
-0.002330
-0.001829
-0.002604
-0.024466
-0.025137
-0.024676
-0.025450
-0.022669
-0.035943
-0.036032
-0.036663
-0.007644
-0.008164
-0.036533
-0.020247
-0.010994
-0.011300
-0.010543
-0.011285
-0.010358
-0.021338
-0.022105
-0.007567
-0.032079
-0.031268
-0.031668
-0.031033
-0.033727
-0.000443
-0.000610
-0.017563
-0.004427
-0.004597
-0.005082
-0.005675
-0.004795
-0.005240
-0.003857
-0.014773
-0.014268
-0.014929
-0.014381
-0.007682
-0.016560
-0.017310
-0.017169
-0.030428
-0.029931
-0.019503
-0.019909
-0.020362
-0.020589
-0.030348
-0.030709
-0.030123
-0.030794
-0.031176
-0.012829
-0.013504
-0.024331
-0.024026
-0.023601
-0.024559
-0.025226
-0.025656
-0.025893
-0.024503
-0.024763
-0.024200
-0.025211
-0.021979
-0.021274
-0.004555
-0.005455
-0.004164
-0.014382
-0.014942
-0.015297
-0.021469
-0.014277
-0.003599
-0.004225
-0.029295
-0.030094
-0.029622
-0.029833
-0.025598
-0.012052
-0.012060
-0.014778
-0.015511
-0.015845
-0.033970
-0.034142
-0.033156
-0.033651
-0.032924
-0.009192
-0.025800
-0.024898
-0.001279
-0.000850
-0.000470
-0.001514
-0.002047
-0.017803
-0.018253
-0.020797
-0.021449
-0.020946
-0.018935
-0.018157
-0.018840
-0.019869
-0.017999
-0.014965
-0.015269
-0.014460
-0.030293
-0.014697
-0.029944
-0.015898
-0.015333
-0.016520
-0.010330
-0.009901
-0.009900
-0.021693
-0.021673
-0.021069
-0.022354
-0.021848
-0.022461
-0.011802
-0.011119
-0.010957
-0.018261
-0.018244
-0.017547
-0.017751
-0.019832
-0.034771
-0.034200
-0.008299
-0.008734
-0.009186
-0.008567
-0.029431
-0.029160
-0.027584
-0.028128
-0.013046
-0.030653
-0.030321
-0.031049
-0.031409
-0.031767
-0.032149
-0.029260
-0.029998
-0.029059
-0.026811
-0.027507
-0.028693
-0.023776
-0.024537
-0.024429
-0.025169
-0.025808
-0.026262
-0.025611
-0.026616
-0.002963
-0.003448
-0.030837
-0.001080
-0.004108
-0.004538
-0.005051
-0.005417
-0.005928
-0.031248
-0.030921
-0.031489
-0.034372
-0.033971
-0.034615
-0.014409
-0.014203
-0.014952
-0.025517
-0.026182
-0.018434
-0.017582
-0.024799
-0.025267
-0.024731
-0.006202
-0.006940
-0.006226
-0.007179
-0.023102
-0.023887
-0.023298
-0.023661
-0.016458
-0.015828
-0.015201
-0.017151
-0.016941
-0.017489
-0.033385
-0.005165
-0.004619
-0.005341
-0.004588
-0.005818
-0.004886
-0.013091
-0.012658
-0.012686
-0.013325
-0.012749
-0.024433
-0.024695
-0.024127
-0.024205
-0.025108
-0.024624
-0.007033
-0.006821
-0.025269
-0.025680
-0.025867
0.000279
-0.000819
-0.026326
-0.013223
-0.013691
-0.013575
-0.024868
-0.003676
-0.006231
-0.005443
-0.006049
-0.006929
-0.006300
-0.006195
-0.002683
-0.003297
-0.002805
-0.002196
-0.029883
-0.029428
-0.016978
-0.016733
-0.016293
-0.017566
-0.015761
-0.015901
-0.015335
-0.032796
-0.033023
-0.033123
-0.010502
-0.010390
-0.011235
-0.019983
-0.020560
-0.034979
-0.034989
-0.019447
-0.026443
-0.026056
-0.026610
-0.026370
-0.025750
-0.025689
-0.025214
-0.035296
-0.035156
-0.035747
-0.034702
-0.035360
-0.034927
-0.036523
-0.036206
-0.036955
-0.036341
-0.022359
-0.022139
-0.014683
-0.022596
-0.021721
-0.033008
-0.033668
-0.026909
-0.026230
-0.027671
-0.027102
-0.034238
-0.034516
-0.033346
-0.032437
-0.032886
-0.027899
-0.026504