# vtk DataFile Version 2.0
Test
ASCII
DATASET POLYDATA
POINTS 6577 float
0.000000 0.000000 0.000000
2.000000 0.000000 0.000000
2.000000 4.000000 0.000000
0.000000 4.000000 0.000000
0.000000 0.500000 0.000000
1.500000 2.000000 0.000000
2.000000 2.500000 0.000000
0.040000 0.000000 0.000000
0.080000 0.000000 0.000000
0.120000 0.000000 0.000000
0.160000 0.000000 0.000000
0.200000 0.000000 0.000000
0.240000 0.000000 0.000000
0.280000 0.000000 0.000000
0.320000 0.000000 0.000000
0.360000 0.000000 0.000000
0.400000 0.000000 0.000000
0.440000 0.000000 0.000000
0.480000 0.000000 0.000000
0.520000 0.000000 0.000000
0.560000 0.000000 0.000000
0.600000 0.000000 0.000000
0.640000 0.000000 0.000000
0.680000 0.000000 0.000000
0.720000 0.000000 0.000000
0.760000 0.000000 0.000000
0.800000 0.000000 0.000000
0.840000 0.000000 0.000000
0.880000 0.000000 0.000000
0.920000 0.000000 0.000000
0.960000 0.000000 0.000000
1.000000 0.000000 0.000000
1.040000 0.000000 0.000000
1.080000 0.000000 0.000000
1.120000 0.000000 0.000000
1.160000 0.000000 0.000000
1.200000 0.000000 0.000000
1.240000 0.000000 0.000000
1.280000 0.000000 0.000000
1.320000 0.000000 0.000000
1.360000 0.000000 0.000000
1.400000 0.000000 0.000000
1.440000 0.000000 0.000000
1.480000 0.000000 0.000000
1.520000 0.000000 0.000000
1.560000 0.000000 0.000000
1.600000 0.000000 0.000000
1.640000 0.000000 0.000000
1.680000 0.000000 0.000000
1.720000 0.000000 0.000000
1.760000 0.000000 0.000000
1.800000 0.000000 0.000000
1.840000 0.000000 0.000000
1.880000 0.000000 0.000000
1.920000 0.000000 0.000000
1.960000 0.000000 0.000000
2.000000 0.039683 0.000000
2.000000 0.079365 0.000000
2.000000 0.119048 0.000000
2.000000 0.158730 0.000000
2.000000 0.198413 0.000000
2.000000 0.238095 0.000000
2.000000 0.277778 0.000000
2.000000 0.317460 0.000000
2.000000 0.357143 0.000000
2.000000 0.396825 0.000000
2.000000 0.436508 0.000000
2.000000 0.476190 0.000000
2.000000 0.515873 0.000000
2.000000 0.555556 0.000000
2.000000 0.595238 0.000000
2.000000 0.634921 0.000000
2.000000 0.674603 0.000000
2.000000 0.714286 0.000000
2.000000 0.753968 0.000000
2.000000 0.793651 0.000000
2.000000 0.833333 0.000000
2.000000 0.873016 0.000000
2.000000 0.912698 0.000000
2.000000 0.952381 0.000000
2.000000 0.992063 0.000000
2.000000 1.031746 0.000000
2.000000 1.071429 0.000000
2.000000 1.111111 0.000000
2.000000 1.150794 0.000000
2.000000 1.190476 0.000000
2.000000 1.230159 0.000000
2.000000 1.269841 0.000000
2.000000 1.309524 0.000000
2.000000 1.349206 0.000000
2.000000 1.388889 0.000000
2.000000 1.428571 0.000000
2.000000 1.468254 0.000000
2.000000 1.507937 0.000000
2.000000 1.547619 0.000000
2.000000 1.587302 0.000000
2.000000 1.626984 0.000000
2.000000 1.666667 0.000000
2.000000 1.706349 0.000000
2.000000 1.746032 0.000000
2.000000 1.785714 0.000000
2.000000 1.825397 0.000000
2.000000 1.865079 0.000000
2.000000 1.904762 0.000000
2.000000 1.944444 0.000000
2.000000 1.984127 0.000000
2.000000 2.023810 0.000000
2.000000 2.063492 0.000000
2.000000 2.103175 0.000000
2.000000 2.142857 0.000000
2.000000 2.182540 0.000000
2.000000 2.222222 0.000000
2.000000 2.261905 0.000000
2.000000 2.301587 0.000000
2.000000 2.341270 0.000000
2.000000 2.380952 0.000000
2.000000 2.420635 0.000000
2.000000 2.460317 0.000000
2.000000 2.539474 0.000000
2.000000 2.578947 0.000000
2.000000 2.618421 0.000000
2.000000 2.657895 0.000000
2.000000 2.697368 0.000000
2.000000 2.736842 0.000000
2.000000 2.776316 0.000000
2.000000 2.815789 0.000000
2.000000 2.855263 0.000000
2.000000 2.894737 0.000000
2.000000 2.934211 0.000000
2.000000 2.973684 0.000000
2.000000 3.013158 0.000000
2.000000 3.052632 0.000000
2.000000 3.092105 0.000000
2.000000 3.131579 0.000000
2.000000 3.171053 0.000000
2.000000 3.210526 0.000000
2.000000 3.250000 0.000000
2.000000 3.289474 0.000000
2.000000 3.328947 0.000000
2.000000 3.368421 0.000000
2.000000 3.407895 0.000000
2.000000 3.447368 0.000000
2.000000 3.486842 0.000000
2.000000 3.526316 0.000000
2.000000 3.565789 0.000000
2.000000 3.605263 0.000000
2.000000 3.644737 0.000000
2.000000 3.684211 0.000000
2.000000 3.723684 0.000000
2.000000 3.763158 0.000000
2.000000 3.802632 0.000000
2.000000 3.842105 0.000000
2.000000 3.881579 0.000000
2.000000 3.921053 0.000000
2.000000 3.960526 0.000000
1.960000 4.000000 0.000000
1.920000 4.000000 0.000000
1.880000 4.000000 0.000000
1.840000 4.000000 0.000000
1.800000 4.000000 0.000000
1.760000 4.000000 0.000000
1.720000 4.000000 0.000000
1.680000 4.000000 0.000000
1.640000 4.000000 0.000000
1.600000 4.000000 0.000000
1.560000 4.000000 0.000000
1.520000 4.000000 0.000000
1.480000 4.000000 0.000000
1.440000 4.000000 0.000000
1.400000 4.000000 0.000000
1.360000 4.000000 0.000000
1.320000 4.000000 0.000000
1.280000 4.000000 0.000000
1.240000 4.000000 0.000000
1.200000 4.000000 0.000000
1.160000 4.000000 0.000000
1.120000 4.000000 0.000000
1.080000 4.000000 0.000000
1.040000 4.000000 0.000000
1.000000 4.000000 0.000000
0.960000 4.000000 0.000000
0.920000 4.000000 0.000000
0.880000 4.000000 0.000000
0.840000 4.000000 0.000000
0.800000 4.000000 0.000000
0.760000 4.000000 0.000000
0.720000 4.000000 0.000000
0.680000 4.000000 0.000000
0.640000 4.000000 0.000000
0.600000 4.000000 0.000000
0.560000 4.000000 0.000000
0.520000 4.000000 0.000000
0.480000 4.000000 0.000000
0.440000 4.000000 0.000000
0.400000 4.000000 0.000000
0.360000 4.000000 0.000000
0.320000 4.000000 0.000000
0.280000 4.000000 0.000000
0.240000 4.000000 0.000000
0.200000 4.000000 0.000000
0.160000 4.000000 0.000000
0.120000 4.000000 0.000000
0.080000 4.000000 0.000000
0.040000 4.000000 0.000000
0.000000 3.960227 0.000000
0.000000 3.920455 0.000000
0.000000 3.880682 0.000000
0.000000 3.840909 0.000000
0.000000 3.801136 0.000000
0.000000 3.761364 0.000000
0.000000 3.721591 0.000000
0.000000 3.681818 0.000000
0.000000 3.642045 0.000000
0.000000 3.602273 0.000000
0.000000 3.562500 0.000000
0.000000 3.522727 0.000000
0.000000 3.482955 0.000000
0.000000 3.443182 0.000000
0.000000 3.403409 0.000000
0.000000 3.363636 0.000000
0.000000 3.323864 0.000000
0.000000 3.284091 0.000000
0.000000 3.244318 0.000000
0.000000 3.204545 0.000000
0.000000 3.164773 0.000000
0.000000 3.125000 0.000000
0.000000 3.085227 0.000000
0.000000 3.045455 0.000000
0.000000 3.005682 0.000000
0.000000 2.965909 0.000000
0.000000 2.926136 0.000000
0.000000 2.886364 0.000000
0.000000 2.846591 0.000000
0.000000 2.806818 0.000000
0.000000 2.767045 0.000000
0.000000 2.727273 0.000000
0.000000 2.687500 0.000000
0.000000 2.647727 0.000000
0.000000 2.607955 0.000000
0.000000 2.568182 0.000000
0.000000 2.528409 0.000000
0.000000 2.488636 0.000000
0.000000 2.448864 0.000000
0.000000 2.409091 0.000000
0.000000 2.369318 0.000000
0.000000 2.329545 0.000000
0.000000 2.289773 0.000000
0.000000 2.250000 0.000000
0.000000 2.210227 0.000000
0.000000 2.170455 0.000000
0.000000 2.130682 0.000000
0.000000 2.090909 0.000000
0.000000 2.051136 0.000000
0.000000 2.011364 0.000000
0.000000 1.971591 0.000000
0.000000 1.931818 0.000000
0.000000 1.892045 0.000000
0.000000 1.852273 0.000000
0.000000 1.812500 0.000000
0.000000 1.772727 0.000000
0.000000 1.732955 0.000000
0.000000 1.693182 0.000000
0.000000 1.653409 0.000000
0.000000 1.613636 0.000000
0.000000 1.573864 0.000000
0.000000 1.534091 0.000000
0.000000 1.494318 0.000000
0.000000 1.454545 0.000000
0.000000 1.414773 0.000000
0.000000 1.375000 0.000000
0.000000 1.335227 0.000000
0.000000 1.295455 0.000000
0.000000 1.255682 0.000000
0.000000 1.215909 0.000000
0.000000 1.176136 0.000000
0.000000 1.136364 0.000000
0.000000 1.096591 0.000000
0.000000 1.056818 0.000000
0.000000 1.017045 0.000000
0.000000 0.977273 0.000000
0.000000 0.937500 0.000000
0.000000 0.897727 0.000000
0.000000 0.857955 0.000000
0.000000 0.818182 0.000000
0.000000 0.778409 0.000000
0.000000 0.738636 0.000000
0.000000 0.698864 0.000000
0.000000 0.659091 0.000000
0.000000 0.619318 0.000000
0.000000 0.579545 0.000000
0.000000 0.539773 0.000000
0.000000 0.461538 0.000000
0.000000 0.423077 0.000000
0.000000 0.384615 0.000000
0.000000 0.346154 0.000000
0.000000 0.307692 0.000000
0.000000 0.269231 0.000000
0.000000 0.230769 0.000000
0.000000 0.192308 0.000000
0.000000 0.153846 0.000000
0.000000 0.115385 0.000000
0.000000 0.076923 0.000000
0.000000 0.038462 0.000000
0.027778 0.527778 0.000000
0.055556 0.555556 0.000000
0.083333 0.583333 0.000000
0.111111 0.611111 0.000000
0.138889 0.638889 0.000000
0.166667 0.666667 0.000000
0.194444 0.694444 0.000000
0.222222 0.722222 0.000000
0.250000 0.750000 0.000000
0.277778 0.777778 0.000000
0.305556 0.805556 0.000000
0.333333 0.833333 0.000000
0.361111 0.861111 0.000000
0.388889 0.888889 0.000000
0.416667 0.916667 0.000000
0.444444 0.944444 0.000000
0.472222 0.972222 0.000000
0.500000 1.000000 0.000000
0.527778 1.027778 0.000000
0.555556 1.055556 0.000000
0.583333 1.083333 0.000000
0.611111 1.111111 0.000000
0.638889 1.138889 0.000000
0.666667 1.166667 0.000000
0.694444 1.194444 0.000000
0.722222 1.222222 0.000000
0.750000 1.250000 0.000000
0.777778 1.277778 0.000000
0.805556 1.305556 0.000000
0.833333 1.333333 0.000000
0.861111 1.361111 0.000000
0.888889 1.388889 0.000000
0.916667 1.416667 0.000000
0.944444 1.444444 0.000000
0.972222 1.472222 0.000000
1.000000 1.500000 0.000000
1.027778 1.527778 0.000000
1.055556 1.555556 0.000000
1.083333 1.583333 0.000000
1.111111 1.611111 0.000000
1.138889 1.638889 0.000000
1.166667 1.666667 0.000000
1.194444 1.694444 0.000000
1.222222 1.722222 0.000000
1.250000 1.750000 0.000000
1.277778 1.777778 0.000000
1.305556 1.805556 0.000000
1.333333 1.833333 0.000000
1.361111 1.861111 0.000000
1.388889 1.888889 0.000000
1.416667 1.916667 0.000000
1.444444 1.944444 0.000000
1.472222 1.972222 0.000000
1.527778 2.027778 0.000000
1.555556 2.055556 0.000000
1.583333 2.083333 0.000000
1.611111 2.111111 0.000000
1.638889 2.138889 0.000000
1.666667 2.166667 0.000000
1.694444 2.194444 0.000000
1.722222 2.222222 0.000000
1.750000 2.250000 0.000000
1.777778 2.277778 0.000000
1.805556 2.305556 0.000000
[...]
POINT_DATA 6577
SCALARS UX float 1
LOOKUP_TABLE default
-0.000005
0.000012
0.000730
-0.069379
-0.036839
-0.003050
0.008253
0.000000
-0.000000
-0.000000
0.000000
0.000001
-0.000003
0.000000
0.000000
0.000001
0.000000
0.000000
0.000000
0.000000
0.000000
-0.000000
0.000000
0.000000
0.000000
0.000000
-0.000000
-0.000000
0.000000
-0.000000
0.000000
0.000000
0.000000
-0.000000
0.000000
0.000000
-0.000000
0.000000
0.000000
-0.000000
0.000000
0.000000
-0.000000
0.000000
0.000001
-0.000000
-0.000001
-0.000000
-0.000000
-0.000001
-0.000001
-0.000001
0.000001
0.000001
-0.000006
0.000003
0.005578
0.010421
0.013644
0.016495
0.018881
0.020965
0.022823
0.024554
0.026036
0.027388
0.028551
0.029624
0.030585
0.031532
0.032388
0.033128
0.033866
0.034510
0.035084
0.035610
0.036035
0.036411
0.036781
0.037116
0.037440
0.037656
0.037825
0.037986
0.038151
0.038134
0.038178
0.038164
0.038213
0.038058
0.037897
0.037805
0.037558
0.037290
0.036957
0.036592
0.036137
0.035633
0.034932
0.034223
0.033310
0.032315
0.031162
0.029855
0.028305
0.026631
0.024763
0.023011
0.021172
0.019391
0.017749
0.016249
0.014837
0.013338
0.012002
0.011034
0.009946
0.009053
0.007641
0.006905
0.006365
0.005852
0.005459
0.004820
0.004409
0.004270
0.003810
0.003630
0.003338
0.003131
0.002837
0.002772
0.002497
0.002119
0.001971
0.001995
0.001896
0.001554
0.001441
0.001494
0.001294
0.001202
0.001135
0.001109
0.001093
0.000957
0.000906
0.000810
0.000675
0.000765
0.000737
0.000793
0.000750
0.000750
0.000744
-0.000769
-0.002257
-0.003820
-0.005285
-0.006772
-0.008274
-0.009773
-0.011274
-0.012727
-0.014140
-0.015662
-0.017149
-0.018617
-0.020023
-0.021468
-0.022875
-0.024326
-0.025696
-0.027103
-0.028474
-0.029881
-0.031317
-0.032698
-0.034067
-0.035454
-0.036839
-0.038199
-0.039589
-0.040937
-0.042302
-0.043702
-0.045066
-0.046397
-0.047724
-0.049105
-0.050474
-0.051799
-0.053176
-0.054541
-0.055888
-0.057280
-0.058633
-0.059948
-0.061315
-0.062667
-0.064029
-0.065406
-0.066720
-0.068054
-0.069350
-0.069373
-0.069342
-0.069337
-0.069191
-0.069142
-0.069131
-0.068991
-0.068913
-0.068834
-0.068765
-0.068617
-0.068455
-0.068407
-0.068206
-0.068093
-0.067921
-0.067708
-0.067668
-0.067367
-0.067287
-0.067147
-0.066940
-0.066725
-0.066551
-0.066326
-0.066092
-0.065790
-0.065744
-0.065433
-0.065287
-0.065046
-0.064872
-0.064757
-0.064489
-0.064378
-0.064219
-0.064087
-0.063930
-0.063802
-0.063675
-0.063695
-0.063591
-0.063586
-0.063502
-0.063534
-0.063500
-0.063510
-0.063557
-0.063591
-0.063666
-0.063842
-0.064049
-0.064242
-0.064399
-0.064668
-0.064976
-0.065305
-0.065710
-0.065931
-0.066361
-0.066855
-0.067344
-0.067738
-0.068289
-0.068768
-0.069292
-0.069799
-0.070336
-0.070829
-0.071273
-0.071630
-0.071871
-0.072010
-0.071866
-0.071546
-0.070994
-0.070100
-0.068768
-0.066996
-0.065296
-0.063809
-0.062597
-0.062172
-0.057807
-0.052207
-0.044114
-0.025697
-0.025700
-0.024190
-0.022890
-0.021668
-0.020311
-0.018713
-0.016921
-0.014835
-0.012309
-0.009432
-0.005442
-0.033440
-0.034577
-0.034711
-0.039852
-0.034177
-0.026108
-0.039499
-0.033238
-0.034991
-0.040190
-0.036691
-0.040424
-0.033599
-0.028703
-0.024761
-0.023008
-0.026859
-0.025084
-0.024295
-0.026377
-0.032839
-0.024804
-0.022206
-0.030563
-0.025882
-0.028277
-0.014026
-0.021651
-0.024216
-0.025478
-0.017933
-0.022643
-0.016562
-0.014256
-0.025365
-0.018011
-0.018033
-0.015130
-0.015226
-0.014746
-0.010244
-0.010494
-0.003660
-0.008839
-0.010429
-0.006861
-0.005242
-0.005154
-0.005294
-0.006877
-0.000532
-0.002151
-0.001488
0.000307
0.001060
0.001539
0.002065
0.002402
0.002835
0.003057
0.003446
0.003796
0.004087
0.004363
0.004774
0.005245
0.005623
0.006193
0.006908
0.007573
0.005763
0.005371
-0.068478
-0.068465
-0.000648
-0.000403
0.006305
0.006472
0.005062
0.003916
0.003027
-0.012677
-0.013699
-0.013820
-0.025250
-0.024797
-0.023620
-0.014738
-0.050465
-0.049410
-0.049595
-0.016884
-0.015807
-0.015486
-0.062587
-0.063043
-0.061886
-0.063819
-0.065254
-0.064776
-0.016844
-0.007166
-0.005964
-0.006611
-0.016826
-0.017955
-0.016527
-0.062883
-0.062642
-0.061630
-0.050651
-0.021234
-0.021133
-0.022446
-0.022210
-0.023226
-0.023521
-0.018054
-0.017741
-0.019081
-0.018495
-0.051143
-0.052380
-0.051964
-0.052030
-0.050456
-0.051707
-0.050783
-0.052168
-0.019578
-0.018121
-0.019138
-0.022421
-0.034281
-0.034304
-0.033242
0.003036
0.003787
-0.032594
-0.056138
-0.056309
-0.054848
-0.057621
-0.052942
-0.052834
-0.051456
-0.033594
-0.034615
-0.034589
-0.033632
-0.011108
-0.010816
-0.009156
-0.009657
-0.048498
-0.049914
-0.049851
-0.048813
-0.025159
-0.024045
-0.025044
-0.050550
-0.048828
-0.049222
0.002570
0.004005
0.002430
0.003681
0.002858
0.003783
0.001960
-0.053733
-0.054877
-0.055011
-0.014618
-0.015844
-0.015751
-0.017100
-0.024477
-0.063891
-0.065062
-0.064135
-0.040010
-0.038909
-0.038938
-0.040458
-0.055145
-0.056304
-0.055171
-0.056229
-0.052145
-0.051318
-0.052519
-0.034602
-0.034924
-0.035937
-0.007404
-0.008662
-0.008423
-0.006872
-0.004707
-0.003573
0.003501
-0.038172
-0.037540
-0.038578
-0.038898
-0.039684
-0.039920
-0.049787
-0.048198
-0.051540
-0.051838
-0.050551
-0.058912
-0.058295
-0.057970
-0.052772
-0.033995
-0.035385
-0.033842
-0.061360
-0.060907
-0.061940
-0.051018
-0.042572
-0.041912
-0.043277
-0.034825
-0.033692
-0.034869
-0.055214
-0.057324
-0.059414
-0.004372
-0.002674
-0.004399
-0.002286
-0.018840
-0.019608
-0.019910
-0.020894
0.004039
0.004644
-0.031171
-0.030427
-0.031497
-0.029735
-0.062793
-0.064024
-0.063419
-0.037604
-0.036540
-0.037356
-0.039408
-0.040849
-0.039446
-0.037016
-0.064929
-0.048663
-0.047142
-0.047847
-0.047606
-0.048598
-0.049000
-0.050195
-0.048075
-0.063643
-0.063525
-0.040974
-0.040347
-0.041695
-0.062591
-0.063039
-0.030676
-0.030018
-0.031587
-0.061125
-0.062401
-0.061544
-0.062194
-0.061142
-0.060746
-0.058509
-0.059937
-0.059221
-0.059871
-0.057071
-0.058511
-0.057799
-0.029160
-0.029931
-0.021421
-0.029876
-0.063560
-0.064795
-0.064243
-0.065447
-0.067656
-0.067384
-0.001584
-0.001866
-0.014703
-0.014623
-0.013124
-0.015919
-0.044829
-0.044763
-0.043761
-0.056108
-0.057255
-0.057055
-0.043414
-0.016525
-0.015894
-0.017028
-0.057600
-0.058475
-0.066267
-0.065993
-0.065346
-0.033076
-0.032108
-0.000653
-0.000649
0.001138
0.001277
-0.056077
-0.057393
-0.057196
-0.058457
-0.067069
-0.065931
-0.067107
-0.065381
-0.061115
-0.062216
-0.060736
-0.063766
-0.062791
-0.069546
-0.070048
-0.070617
-0.061118
-0.061028
-0.063187
-0.064794
-0.063298
-0.057401
-0.057145
-0.004607
-0.003048
-0.058722
-0.060243
-0.059849
-0.064700
-0.051966
-0.053299
-0.052203
-0.061460
-0.061590
-0.009371
-0.010184
-0.010807
-0.008591
-0.015336
-0.014083
-0.014477
-0.037169
-0.037552
-0.038380
-0.031285
-0.031053
-0.009145
-0.007942
-0.008287
-0.036488
-0.032780
-0.033460
-0.034001
-0.065789
-0.067422
-0.066165
-0.055519
-0.055809
-0.054600
-0.012605
-0.057093
-0.058407
-0.057050
-0.055923
-0.055705
-0.057491
-0.058338
-0.060196
-0.011592
-0.057796
-0.050405
-0.054193
-0.055550
-0.055375
-0.054740
-0.054657
-0.064674
-0.065073
-0.062743
-0.066607
-0.053892
-0.053366
-0.054591
-0.002789
-0.002056
-0.056155
-0.056250
-0.056088
-0.054628
-0.054658
-0.049952
-0.068155
-0.066260
-0.065067
-0.065572
-0.064262
-0.064416
-0.000394
-0.047257
-0.046149
-0.066884
-0.066495
-0.053504
-0.053659
-0.002487
-0.001855
-0.035115
-0.033490
-0.058960
-0.019529
-0.019060
-0.018521
-0.017770
-0.063040
-0.061844
-0.050800
-0.052035
-0.050871
-0.059725
-0.061494
-0.062188
-0.060364
-0.066358
-0.052140
-0.005837
-0.042035
-0.043355
-0.042519
-0.063519
-0.066081
-0.064287
-0.068093
-0.066190
-0.067970
-0.066518
-0.067230
-0.043925
-0.043251
-0.004747
-0.003709
-0.004031
-0.057836
-0.053982
-0.030569
-0.028980
-0.065096
-0.065373
-0.064419
-0.046830
-0.045878
-0.059872
-0.063180
-0.063666
-0.056881
-0.053552
-0.056483
-0.057856
-0.009890
-0.010152
-0.008674
-0.059333
-0.060606
-0.065233
-0.064581
-0.062318
-0.067462
-0.045762
-0.033132
-0.032861
-0.063526
-0.068233
-0.066948
-0.065342
-0.069170
-0.066118
-0.065752
-0.020971
-0.020921
-0.019377
-0.054779
-0.000546
-0.002548
-0.001307
-0.003257
-0.062343
-0.063268
-0.064455
-0.060391
-0.055220
-0.055018
-0.052767
-0.053332
-0.053284
-0.053510
-0.053488
-0.068254
-0.055084
-0.054804
-0.053506
-0.006979
-0.056300
-0.056415
-0.057377
-0.062519
-0.019658
-0.005642
-0.005715
-0.004464
-0.067413
-0.065955
-0.069926
-0.063621
-0.063724
-0.064697
-0.062227
-0.063299
-0.064798
-0.060567
-0.068838
-0.011067
-0.011395
-0.051319
-0.053059
-0.019527
0.000589
0.001964
0.002025
-0.067760
-0.067100
-0.065681
-0.065005
-0.001796
-0.000724
-0.011890
-0.010969
-0.011845
-0.012989
-0.058222
-0.058062
-0.056870
-0.052151
-0.003267
-0.003997
-0.067514
-0.066100
-0.070408
-0.061488
-0.062973
-0.064621
-0.061065
-0.052109
-0.007012
-0.008194
-0.013234
-0.062512
-0.061395
-0.024586
-0.023648
-0.024973
-0.068767
-0.006909
-0.005452
-0.062504
-0.063797
-0.065984
-0.069922
-0.058088
-0.064118
0.005048
0.003728
-0.061040
-0.026336
-0.010414
-0.011871
-0.010708
-0.061304
-0.062593
-0.064250
-0.060574
-0.010594
-0.009498
-0.010158
-0.066458
-0.024028
-0.011901
-0.065024
-0.064238
-0.067145
-0.002403
-0.001296
-0.030172
-0.029161
-0.028955
-0.003912
-0.004827
-0.068527
-0.030420
-0.029858
-0.002791
-0.001152
-0.002498
-0.058436
-0.059550
-0.058719
-0.060067
-0.010589
-0.044187
0.002889
0.004358
-0.009460
-0.055528
-0.056798
-0.066410
-0.061092
-0.058489
-0.059716
-0.062148
-0.063684
-0.059240
-0.008189
-0.000555
-0.021403
-0.020129
-0.020417
-0.061350
-0.021070
-0.043778
-0.043002
-0.044673
-0.008124
-0.006578
-0.009393
-0.061438
-0.062694
-0.060255
-0.064655
-0.068290
-0.065831
-0.017786
-0.017321
-0.016146
-0.018635
-0.008650
-0.064543
-0.061494
-0.060989
-0.062816
-0.007249
-0.057880
-0.058280
-0.056963
-0.061659
-0.063046
-0.057475
-0.057199
-0.053708
0.000732
-0.003715
-0.003848
-0.002599
-0.031055
-0.032135
-0.030785
-0.031589
0.001094
-0.006783
-0.007352
-0.065581
-0.059426
-0.027589
-0.027550
-0.026408
-0.064205
-0.063690
-0.066768
-0.003079
-0.054235
-0.054033
-0.004698
-0.005415
-0.001495
-0.026841
-0.028034
-0.024969
-0.024965
-0.026391
-0.052420
-0.052335
-0.052175
-0.026204
-0.051111
-0.009631
-0.050993
-0.050972
-0.057186
-0.060174
-0.012308
-0.063377
-0.018960
-0.017687
-0.018898
-0.009166
-0.017705
-0.010788
-0.060439
-0.020101
-0.018628
-0.058984
-0.019701
-0.035992
-0.035711
-0.036804
-0.054236
0.001246
-0.060241
-0.038836
-0.037367
-0.038287
-0.034898
-0.029996
-0.029487
-0.030690
-0.023541
-0.022275
-0.054550
-0.055940
-0.065923
-0.065383
-0.064270
-0.030222
-0.062511
-0.062519
-0.057584
-0.058974
-0.024525
-0.023298
-0.064137
-0.065447
-0.060760
-0.062001
-0.063531
-0.064598
-0.062946
-0.002726
-0.003425
-0.002188
-0.004021
-0.052669
0.001799
0.001824
0.000362
-0.053254
-0.053042
-0.051401
-0.051153
0.000406
-0.026368
-0.025203
-0.026349
-0.051111
-0.044949
-0.045958
-0.009944
-0.068521
-0.067661
-0.067161
-0.050021
-0.050003
-0.046197
-0.063666
-0.035560
-0.035417
-0.034029
-0.061697
-0.062867
-0.056264
-0.047076
-0.026365
-0.027890
-0.015838
-0.016932
-0.016032
-0.028223
-0.050586
-0.050598
-0.051630
-0.049303
-0.005504
-0.004839
-0.000043
0.001892
-0.029997
-0.031011
-0.031350
-0.005778
-0.007268
-0.006057
-0.032551
-0.025253
-0.022529
-0.023649
-0.022543
-0.058963
-0.060458
-0.060902
-0.053609
-0.054902
-0.021286
-0.020177
-0.021495
-0.053649
-0.052821
-0.053924
-0.063037
-0.059420
-0.056718
-0.058038
-0.060118
-0.061440
-0.061551
-0.037216
-0.035893
-0.036917
-0.052296
-0.051937
-0.051691
-0.059342
-0.060030
-0.060202
-0.066139
-0.067004
-0.067426
-0.065588
-0.050440
-0.050171
-0.051987
-0.053463
-0.059049
-0.058582
-0.057762
-0.050076
-0.066992
-0.061077
-0.062288
-0.060378
-0.049057
0.000601
-0.049035
-0.055357
-0.052703
-0.054018
-0.008093
-0.008594
-0.009144
-0.058167
-0.059786
-0.055899
-0.057267
-0.058695
-0.064187
-0.058782
-0.059292
-0.059846
-0.058377
-0.059451
-0.061102
0.000063
-0.000649
-0.001197
-0.002361
-0.051396
-0.050999
-0.050737
-0.049558
-0.049493
-0.062780
-0.062426
-0.037890
-0.036392
-0.036593
-0.036825
-0.024368
-0.022682
-0.023539
-0.010642
-0.049179
-0.048114
-0.048087
-0.054554
-0.051840
-0.053206
-0.059351
-0.026187
-0.027549
-0.026363
-0.023302
-0.055193
-0.056396
-0.057866
-0.058686
-0.060423
-0.061808
-0.050466
-0.050056
-0.019764
-0.018611
-0.019498
-0.018668
-0.049725
-0.060795
-0.059927
-0.009721
-0.008585
-0.009830
-0.024827
-0.003779
-0.004830
-0.003385
-0.002113
-0.055089
-0.055816
-0.048482
-0.048403
-0.002515
-0.000860
-0.002494
-0.056335
-0.057700
-0.056203
-0.065434
-0.064911
-0.019923
-0.020429
-0.019701
-0.050910
-0.051690
-0.050580
-0.051532
-0.051009
-0.052374
-0.053741
-0.020769
-0.054560
-0.055617
-0.058117
-0.057662
-0.017962
-0.029306
-0.016625
-0.017144
-0.015342
-0.057032
-0.017843
-0.017102
-0.057902
-0.059756
-0.049648
-0.049164
-0.015047
-0.014719
-0.016484
-0.054917
-0.054803
-0.053440
-0.018337
-0.004390
-0.003611
-0.056394
-0.013022
-0.011815
-0.048733
-0.013858
-0.049789
-0.047474
-0.047216
-0.040719
-0.039195
-0.040954
-0.025618
-0.024919
-0.027461
-0.026727
-0.027884
-0.025934
-0.032727
-0.032664
-0.033874
-0.033580
-0.056037
-0.052538
-0.053120
-0.054359
-0.007263
-0.007828
-0.009406
-0.058580
-0.014983
-0.015779
-0.050201
-0.051591
-0.034677
-0.034484
-0.035660
-0.035423
-0.053053
-0.020312
-0.019985
-0.054089
-0.055996
-0.026830
-0.010310
-0.008959
-0.009008
-0.014239
-0.014200
-0.063917
-0.055261
-0.055372
-0.048839
-0.048316
-0.018196
-0.057538
-0.056679
-0.011033
-0.012572
-0.011015
-0.047886
-0.017647
-0.017494
-0.046510
-0.046158
-0.061206
-0.059888
-0.058948
-0.051422
-0.052823
-0.052635
-0.064062
-0.061811
-0.037345
-0.035819
-0.036335
-0.049421
-0.050833
-0.057618
-0.056678
-0.009490
-0.052323
-0.042032
-0.041272
-0.042680
-0.041923
-0.012322
-0.032596
-0.033033
-0.034021
-0.055398
-0.054295
-0.055301
-0.053897
-0.014038
-0.015126
-0.013816
-0.015485
-0.053365
-0.055147
-0.049189
-0.050084
-0.018326
-0.019160
-0.033775
-0.034450
-0.061738
-0.002423
-0.003474
-0.003841
-0.005305
-0.032772
-0.033102
-0.034003
-0.021551
-0.022804
-0.021268
0.000014
0.000024
-0.001293
-0.050994
-0.052137
-0.052005
-0.047943
-0.047378
-0.016267
-0.014839
-0.015528
-0.023252
0.000009
-0.001244
-0.046902
-0.045411
-0.045010
-0.048439
-0.047613
-0.047076
-0.046277
-0.048591
-0.050072
-0.017372
-0.018686
-0.017633
-0.024800
-0.022589
-0.022418
-0.051601
-0.052728
-0.054506
-0.047175
-0.046512
-0.021833
-0.032922
-0.034009
-0.032962
-0.045910
-0.034376
-0.016972
-0.017900
-0.018085
-0.044455
-0.043874
-0.047895
-0.049322
-0.049539
-0.048731
-0.050879
-0.052010
-0.053401
-0.001030
-0.001547
-0.003820
-0.003035
-0.061515
-0.062351
-0.060965
-0.046401
-0.045715
-0.046037
-0.045372
-0.045944
-0.001639
-0.003212
-0.001793
-0.001004
-0.002859
-0.004104
-0.004688
-0.019079
-0.045059
-0.043499
-0.042906
-0.015621
-0.014343
-0.023726
-0.022605
-0.023706
-0.022916
-0.047108
-0.048672
-0.050329
-0.047173
-0.051196
-0.052643
-0.045631
-0.044862
-0.016272
-0.016447
-0.014779
-0.004586
-0.004900
-0.006106
-0.017190
-0.017509
-0.035242
-0.034578
-0.042363
-0.043056
-0.053121
-0.053319
-0.054527
-0.044071
-0.042319
-0.041903
-0.034887
-0.055581
-0.055677
-0.056671
-0.002750
-0.001076
-0.046421
-0.047991
-0.016617
-0.021217
-0.020803
-0.022261
-0.049591
-0.050395
-0.021785
-0.023333
-0.055666
-0.056049
-0.012953
-0.013489
-0.025385
-0.044951
-0.044131
-0.050247
-0.046635
-0.045468
-0.046358
-0.043347
-0.042110
-0.059460
-0.060782
-0.046001
-0.047306
-0.013159
-0.058740
-0.059895
-0.056637
-0.060568
-0.059305
-0.044415
-0.043341
-0.005969
-0.032149
-0.035414
-0.054590
-0.032848
-0.032539
-0.033566
-0.042542
-0.041212
-0.031895
-0.030444
-0.056311
-0.054947
-0.054659
-0.045507
-0.046981
-0.031766
-0.012010
-0.013618
-0.037728
-0.038039
-0.036898
-0.014528
-0.062162
-0.028910
-0.036408
-0.037805
-0.036583
-0.029201
-0.052840
-0.054082
-0.038153
-0.035651
-0.038778
-0.037089
-0.050156
-0.050380
-0.048907
-0.036496
-0.037630
-0.043921
-0.042913
-0.053042
-0.041806
-0.040287
-0.044711
-0.046432
-0.048882
-0.049798
-0.059909
-0.008163
-0.006027
-0.009073
-0.010819
-0.006086
-0.005142
-0.004842
-0.057092
-0.034785
-0.035683
-0.034349
-0.035893
-0.034541
-0.054788
-0.054778
-0.053322
-0.029060
-0.028778
-0.029959
0.000441
0.000830
-0.000493
-0.043886
-0.027830
-0.040116
-0.039695
-0.041070
-0.040736
-0.038161
-0.039288
-0.038618
-0.038568
-0.020442
-0.065139
-0.066286
-0.065289
-0.014466
-0.014569
-0.015674
-0.040082
-0.019416
-0.020630
-0.019266
-0.020906
-0.021691
-0.042075
-0.006926
-0.005629
-0.005106
-0.028406
-0.060966
-0.059554
-0.060119
-0.060326
-0.007503
-0.033659
-0.032566
-0.032498
-0.033745
-0.018319
-0.019135
-0.018240
-0.000021
-0.019759
-0.055168
-0.056034
-0.056141
-0.057152
-0.063920
-0.062460
-0.058080
-0.057244
-0.055768
-0.062157
-0.025307
-0.050726
-0.051836
-0.050677
-0.051483
-0.048996
-0.048148
-0.048179
-0.049363
-0.049868
-0.050972
-0.049851
-0.051279
-0.041770
-0.040725
-0.041960
-0.018554
-0.022092
-0.004967
-0.003153
-0.003960
-0.004096
-0.003188
-0.004529
-0.043045
-0.044255
-0.043386
-0.044795
-0.040463
-0.063859
-0.063962
-0.065104
-0.013762
-0.014651
-0.064862
-0.035754
-0.019712
-0.020294
-0.018927
-0.020221
-0.018569
-0.037900
-0.039262
-0.013620
-0.056735
-0.055308
-0.056028
-0.054877
-0.059970
-0.000892
-0.001259
-0.030825
-0.007469
-0.007762
-0.008645
-0.010296
-0.008726
-0.009486
-0.006391
-0.026447
-0.025549
-0.026672
-0.025702
-0.013437
-0.028920
-0.030243
-0.030031
-0.054182
-0.053330
-0.034806
-0.035544
-0.036346
-0.036745
-0.054106
-0.054791
-0.053691
-0.054920
-0.055598
-0.022378
-0.023522
-0.043322
-0.042864
-0.042072
-0.043759
-0.044894
-0.045701
-0.046127
-0.043416
-0.043895
-0.042885
-0.044639
-0.039185
-0.037952
-0.008258
-0.009845
-0.007578
-0.025110
-0.026049
-0.026694
-0.037460
-0.024872
-0.006097
-0.007216
-0.052157
-0.053542
-0.052732
-0.053057
-0.044718
-0.020934
-0.021001
-0.025724
-0.027062
-0.027661
-0.060107
-0.060491
-0.058697
-0.059563
-0.058250
-0.015839
-0.045925
-0.044388
-0.001913
-0.001121
-0.000436
-0.002299
-0.003302
-0.031181
-0.031956
-0.036454
-0.037635
-0.036720
-0.033713
-0.032296
-0.033517
-0.035176
-0.032048
-0.026642
-0.027206
-0.025756
-0.053530
-0.026237
-0.053218
-0.028405
-0.027407
-0.029515
-0.017898
-0.017153
-0.017128
-0.038679
-0.038641
-0.037528
-0.039864
-0.038949
-0.040037
-0.021110
-0.019923
-0.019626
-0.032456
-0.032471
-0.031228
-0.031636
-0.035367
-0.061929
-0.060848
-0.014358
-0.015036
-0.015874
-0.014721
-0.052483
-0.052023
-0.049127
-0.050075
-0.023140
-0.054526
-0.053938
-0.055190
-0.055845
-0.056463
-0.057159
-0.052116
-0.053406
-0.051768
-0.047342
-0.048576
-0.051162
-0.042438
-0.043802
-0.043597
-0.044941
-0.045800
-0.046650
-0.045489
-0.047262
-0.005468
-0.006347
-0.054859
-0.002171
-0.006934
-0.007644
-0.008581
-0.009247
-0.010156
-0.055612
-0.055078
-0.056048
-0.061115
-0.060383
-0.061562
-0.025743
-0.025351
-0.026746
-0.045252
-0.046493
-0.032933
-0.031454
-0.043981
-0.044812
-0.043882
-0.010866
-0.012156
-0.010867
-0.012517
-0.040650
-0.042084
-0.041065
-0.041613
-0.029419
-0.028298
-0.027147
-0.030642
-0.030266
-0.031248
-0.059545
-0.009327
-0.008365
-0.009643
-0.008316
-0.010493
-0.008834
-0.022868
-0.022060
-0.022059
-0.023274
-0.022231
-0.043033
-0.043525
-0.042514
-0.042602
-0.044234
-0.043353
-0.012637
-0.012263
-0.044510
-0.045262
-0.045571
0.000814
-0.001123
-0.046411
-0.023365
-0.024228
-0.024005
-0.043767
-0.006547
-0.011200
-0.009830
-0.010899
-0.012482
-0.011375
-0.011138
-0.004411
-0.005490
-0.004626
-0.003479
-0.053112
-0.052350
-0.029649
-0.029211
-0.028433
-0.030683
-0.027431
-0.027732
-0.026768
-0.058278
-0.058690
-0.058874
-0.018786
-0.018629
-0.020106
-0.035567
-0.036605
-0.062441
-0.062404
-0.034654
-0.046660
-0.045973
-0.046898
-0.046623
-0.045449
-0.045382
-0.044517
-0.062698
-0.062470
-0.063527
-0.061607
-0.062784
-0.062018
-0.064836
-0.064325
-0.065671
-0.064559
-0.039301
-0.038917
-0.025994
-0.039746
-0.038156
-0.058202
-0.059393
-0.047577
-0.046361
-0.048890
-0.047893
-0.060877
-0.061399
-0.059328
-0.057726
-0.058515
-0.049328
-0.046836