# vtk DataFile Version 2.0
Test
ASCII
DATASET POLYDATA
POINTS 6577 float
0.000000 0.000000 0.000000
2.000000 0.000000 0.000000
2.000000 4.000000 0.000000
0.000000 4.000000 0.000000
0.000000 0.500000 0.000000
1.500000 2.000000 0.000000
2.000000 2.500000 0.000000
0.040000 0.000000 0.000000
0.080000 0.000000 0.000000
0.120000 0.000000 0.000000
0.160000 0.000000 0.000000
0.200000 0.000000 0.000000
0.240000 0.000000 0.000000
0.280000 0.000000 0.000000
0.320000 0.000000 0.000000
0.360000 0.000000 0.000000
0.400000 0.000000 0.000000
0.440000 0.000000 0.000000
0.480000 0.000000 0.000000
0.520000 0.000000 0.000000
0.560000 0.000000 0.000000
0.600000 0.000000 0.000000
0.640000 0.000000 0.000000
0.680000 0.000000 0.000000
0.720000 0.000000 0.000000
0.760000 0.000000 0.000000
0.800000 0.000000 0.000000
0.840000 0.000000 0.000000
0.880000 0.000000 0.000000
0.920000 0.000000 0.000000
0.960000 0.000000 0.000000
1.000000 0.000000 0.000000
1.040000 0.000000 0.000000
1.080000 0.000000 0.000000
1.120000 0.000000 0.000000
1.160000 0.000000 0.000000
1.200000 0.000000 0.000000
1.240000 0.000000 0.000000
1.280000 0.000000 0.000000
1.320000 0.000000 0.000000
1.360000 0.000000 0.000000
1.400000 0.000000 0.000000
1.440000 0.000000 0.000000
1.480000 0.000000 0.000000
1.520000 0.000000 0.000000
1.560000 0.000000 0.000000
1.600000 0.000000 0.000000
1.640000 0.000000 0.000000
1.680000 0.000000 0.000000
1.720000 0.000000 0.000000
1.760000 0.000000 0.000000
1.800000 0.000000 0.000000
1.840000 0.000000 0.000000
1.880000 0.000000 0.000000
1.920000 0.000000 0.000000
1.960000 0.000000 0.000000
2.000000 0.039683 0.000000
2.000000 0.079365 0.000000
2.000000 0.119048 0.000000
2.000000 0.158730 0.000000
2.000000 0.198413 0.000000
2.000000 0.238095 0.000000
2.000000 0.277778 0.000000
2.000000 0.317460 0.000000
2.000000 0.357143 0.000000
2.000000 0.396825 0.000000
2.000000 0.436508 0.000000
2.000000 0.476190 0.000000
2.000000 0.515873 0.000000
2.000000 0.555556 0.000000
2.000000 0.595238 0.000000
2.000000 0.634921 0.000000
2.000000 0.674603 0.000000
2.000000 0.714286 0.000000
2.000000 0.753968 0.000000
2.000000 0.793651 0.000000
2.000000 0.833333 0.000000
2.000000 0.873016 0.000000
2.000000 0.912698 0.000000
2.000000 0.952381 0.000000
2.000000 0.992063 0.000000
2.000000 1.031746 0.000000
2.000000 1.071429 0.000000
2.000000 1.111111 0.000000
2.000000 1.150794 0.000000
2.000000 1.190476 0.000000
2.000000 1.230159 0.000000
2.000000 1.269841 0.000000
2.000000 1.309524 0.000000
2.000000 1.349206 0.000000
2.000000 1.388889 0.000000
2.000000 1.428571 0.000000
2.000000 1.468254 0.000000
2.000000 1.507937 0.000000
2.000000 1.547619 0.000000
2.000000 1.587302 0.000000
2.000000 1.626984 0.000000
2.000000 1.666667 0.000000
2.000000 1.706349 0.000000
2.000000 1.746032 0.000000
2.000000 1.785714 0.000000
2.000000 1.825397 0.000000
2.000000 1.865079 0.000000
2.000000 1.904762 0.000000
2.000000 1.944444 0.000000
2.000000 1.984127 0.000000
2.000000 2.023810 0.000000
2.000000 2.063492 0.000000
2.000000 2.103175 0.000000
2.000000 2.142857 0.000000
2.000000 2.182540 0.000000
2.000000 2.222222 0.000000
2.000000 2.261905 0.000000
2.000000 2.301587 0.000000
2.000000 2.341270 0.000000
2.000000 2.380952 0.000000
2.000000 2.420635 0.000000
2.000000 2.460317 0.000000
2.000000 2.539474 0.000000
2.000000 2.578947 0.000000
2.000000 2.618421 0.000000
2.000000 2.657895 0.000000
2.000000 2.697368 0.000000
2.000000 2.736842 0.000000
2.000000 2.776316 0.000000
2.000000 2.815789 0.000000
2.000000 2.855263 0.000000
2.000000 2.894737 0.000000
2.000000 2.934211 0.000000
2.000000 2.973684 0.000000
2.000000 3.013158 0.000000
2.000000 3.052632 0.000000
2.000000 3.092105 0.000000
2.000000 3.131579 0.000000
2.000000 3.171053 0.000000
2.000000 3.210526 0.000000
2.000000 3.250000 0.000000
2.000000 3.289474 0.000000
2.000000 3.328947 0.000000
2.000000 3.368421 0.000000
2.000000 3.407895 0.000000
2.000000 3.447368 0.000000
2.000000 3.486842 0.000000
2.000000 3.526316 0.000000
2.000000 3.565789 0.000000
2.000000 3.605263 0.000000
2.000000 3.644737 0.000000
2.000000 3.684211 0.000000
2.000000 3.723684 0.000000
2.000000 3.763158 0.000000
2.000000 3.802632 0.000000
2.000000 3.842105 0.000000
2.000000 3.881579 0.000000
2.000000 3.921053 0.000000
2.000000 3.960526 0.000000
1.960000 4.000000 0.000000
1.920000 4.000000 0.000000
1.880000 4.000000 0.000000
1.840000 4.000000 0.000000
1.800000 4.000000 0.000000
1.760000 4.000000 0.000000
1.720000 4.000000 0.000000
1.680000 4.000000 0.000000
1.640000 4.000000 0.000000
1.600000 4.000000 0.000000
1.560000 4.000000 0.000000
1.520000 4.000000 0.000000
1.480000 4.000000 0.000000
1.440000 4.000000 0.000000
1.400000 4.000000 0.000000
1.360000 4.000000 0.000000
1.320000 4.000000 0.000000
1.280000 4.000000 0.000000
1.240000 4.000000 0.000000
1.200000 4.000000 0.000000
1.160000 4.000000 0.000000
1.120000 4.000000 0.000000
1.080000 4.000000 0.000000
1.040000 4.000000 0.000000
1.000000 4.000000 0.000000
0.960000 4.000000 0.000000
0.920000 4.000000 0.000000
0.880000 4.000000 0.000000
0.840000 4.000000 0.000000
0.800000 4.000000 0.000000
0.760000 4.000000 0.000000
0.720000 4.000000 0.000000
0.680000 4.000000 0.000000
0.640000 4.000000 0.000000
0.600000 4.000000 0.000000
0.560000 4.000000 0.000000
0.520000 4.000000 0.000000
0.480000 4.000000 0.000000
0.440000 4.000000 0.000000
0.400000 4.000000 0.000000
0.360000 4.000000 0.000000
0.320000 4.000000 0.000000
0.280000 4.000000 0.000000
0.240000 4.000000 0.000000
0.200000 4.000000 0.000000
0.160000 4.000000 0.000000
0.120000 4.000000 0.000000
0.080000 4.000000 0.000000
0.040000 4.000000 0.000000
0.000000 3.960227 0.000000
0.000000 3.920455 0.000000
0.000000 3.880682 0.000000
0.000000 3.840909 0.000000
0.000000 3.801136 0.000000
0.000000 3.761364 0.000000
0.000000 3.721591 0.000000
0.000000 3.681818 0.000000
0.000000 3.642045 0.000000
0.000000 3.602273 0.000000
0.000000 3.562500 0.000000
0.000000 3.522727 0.000000
0.000000 3.482955 0.000000
0.000000 3.443182 0.000000
0.000000 3.403409 0.000000
0.000000 3.363636 0.000000
0.000000 3.323864 0.000000
0.000000 3.284091 0.000000
0.000000 3.244318 0.000000
0.000000 3.204545 0.000000
0.000000 3.164773 0.000000
0.000000 3.125000 0.000000
0.000000 3.085227 0.000000
0.000000 3.045455 0.000000
0.000000 3.005682 0.000000
0.000000 2.965909 0.000000
0.000000 2.926136 0.000000
0.000000 2.886364 0.000000
0.000000 2.846591 0.000000
0.000000 2.806818 0.000000
0.000000 2.767045 0.000000
0.000000 2.727273 0.000000
0.000000 2.687500 0.000000
0.000000 2.647727 0.000000
0.000000 2.607955 0.000000
0.000000 2.568182 0.000000
0.000000 2.528409 0.000000
0.000000 2.488636 0.000000
0.000000 2.448864 0.000000
0.000000 2.409091 0.000000
0.000000 2.369318 0.000000
0.000000 2.329545 0.000000
0.000000 2.289773 0.000000
0.000000 2.250000 0.000000
0.000000 2.210227 0.000000
0.000000 2.170455 0.000000
0.000000 2.130682 0.000000
0.000000 2.090909 0.000000
0.000000 2.051136 0.000000
0.000000 2.011364 0.000000
0.000000 1.971591 0.000000
0.000000 1.931818 0.000000
0.000000 1.892045 0.000000
0.000000 1.852273 0.000000
0.000000 1.812500 0.000000
0.000000 1.772727 0.000000
0.000000 1.732955 0.000000
0.000000 1.693182 0.000000
0.000000 1.653409 0.000000
0.000000 1.613636 0.000000
0.000000 1.573864 0.000000
0.000000 1.534091 0.000000
0.000000 1.494318 0.000000
0.000000 1.454545 0.000000
0.000000 1.414773 0.000000
0.000000 1.375000 0.000000
0.000000 1.335227 0.000000
0.000000 1.295455 0.000000
0.000000 1.255682 0.000000
0.000000 1.215909 0.000000
0.000000 1.176136 0.000000
0.000000 1.136364 0.000000
0.000000 1.096591 0.000000
0.000000 1.056818 0.000000
0.000000 1.017045 0.000000
0.000000 0.977273 0.000000
0.000000 0.937500 0.000000
0.000000 0.897727 0.000000
0.000000 0.857955 0.000000
0.000000 0.818182 0.000000
0.000000 0.778409 0.000000
0.000000 0.738636 0.000000
0.000000 0.698864 0.000000
0.000000 0.659091 0.000000
0.000000 0.619318 0.000000
0.000000 0.579545 0.000000
0.000000 0.539773 0.000000
0.000000 0.461538 0.000000
0.000000 0.423077 0.000000
0.000000 0.384615 0.000000
0.000000 0.346154 0.000000
0.000000 0.307692 0.000000
0.000000 0.269231 0.000000
0.000000 0.230769 0.000000
0.000000 0.192308 0.000000
0.000000 0.153846 0.000000
0.000000 0.115385 0.000000
0.000000 0.076923 0.000000
0.000000 0.038462 0.000000
0.027778 0.527778 0.000000
0.055556 0.555556 0.000000
0.083333 0.583333 0.000000
0.111111 0.611111 0.000000
0.138889 0.638889 0.000000
0.166667 0.666667 0.000000
0.194444 0.694444 0.000000
0.222222 0.722222 0.000000
0.250000 0.750000 0.000000
0.277778 0.777778 0.000000
0.305556 0.805556 0.000000
0.333333 0.833333 0.000000
0.361111 0.861111 0.000000
0.388889 0.888889 0.000000
0.416667 0.916667 0.000000
0.444444 0.944444 0.000000
0.472222 0.972222 0.000000
0.500000 1.000000 0.000000
0.527778 1.027778 0.000000
0.555556 1.055556 0.000000
0.583333 1.083333 0.000000
0.611111 1.111111 0.000000
0.638889 1.138889 0.000000
0.666667 1.166667 0.000000
0.694444 1.194444 0.000000
0.722222 1.222222 0.000000
0.750000 1.250000 0.000000
0.777778 1.277778 0.000000
0.805556 1.305556 0.000000
0.833333 1.333333 0.000000
0.861111 1.361111 0.000000
0.888889 1.388889 0.000000
0.916667 1.416667 0.000000
0.944444 1.444444 0.000000
0.972222 1.472222 0.000000
1.000000 1.500000 0.000000
1.027778 1.527778 0.000000
1.055556 1.555556 0.000000
1.083333 1.583333 0.000000
1.111111 1.611111 0.000000
1.138889 1.638889 0.000000
1.166667 1.666667 0.000000
1.194444 1.694444 0.000000
1.222222 1.722222 0.000000
1.250000 1.750000 0.000000
1.277778 1.777778 0.000000
1.305556 1.805556 0.000000
1.333333 1.833333 0.000000
1.361111 1.861111 0.000000
1.388889 1.888889 0.000000
1.416667 1.916667 0.000000
1.444444 1.944444 0.000000
1.472222 1.972222 0.000000
1.527778 2.027778 0.000000
1.555556 2.055556 0.000000
1.583333 2.083333 0.000000
1.611111 2.111111 0.000000
1.638889 2.138889 0.000000
1.666667 2.166667 0.000000
1.694444 2.194444 0.000000
1.722222 2.222222 0.000000
1.750000 2.250000 0.000000
1.777778 2.277778 0.000000
1.805556 2.305556 0.000000
[...]
POINT_DATA 6577
SCALARS UX float 1
LOOKUP_TABLE default
-0.000088
0.000130
-0.391739
-1.057146
-0.323415
0.030712
0.297848
0.000021
-0.000005
-0.000001
0.000001
-0.000003
-0.000011
0.000001
0.000001
0.000004
-0.000000
0.000001
-0.000000
0.000001
0.000002
-0.000001
0.000001
-0.000002
-0.000001
0.000000
-0.000001
-0.000001
0.000000
0.000000
0.000001
0.000000
-0.000000
0.000000
0.000000
0.000000
-0.000000
-0.000000
0.000001
-0.000001
-0.000000
0.000000
-0.000000
0.000001
0.000000
0.000000
-0.000001
-0.000000
-0.000000
-0.000001
0.000002
-0.000002
0.000002
-0.000000
-0.000001
-0.000017
0.024433
0.040144
0.053145
0.064223
0.074511
0.084433
0.093558
0.102715
0.111835
0.120709
0.129709
0.139023
0.145822
0.150668
0.154628
0.158006
0.160991
0.163292
0.165147
0.166522
0.167328
0.168336
0.168743
0.168236
0.168209
0.167913
0.166960
0.166044
0.165337
0.164497
0.164490
0.164643
0.164391
0.164812
0.163578
0.165027
0.165985
0.167612
0.168955
0.170398
0.171843
0.173948
0.175967
0.178988
0.182580
0.186856
0.192787
0.200596
0.209711
0.219422
0.231074
0.245076
0.259661
0.274977
0.290826
0.306934
0.324570
0.340611
0.350332
0.357041
0.354467
0.336828
0.229509
0.169776
0.107444
0.103320
0.074951
0.062826
0.040122
0.028904
0.022218
0.017546
0.015671
0.010478
0.003750
-0.003707
-0.012939
-0.024408
-0.036207
-0.049415
-0.064415
-0.083480
-0.101963
-0.119332
-0.141356
-0.157395
-0.179156
-0.166728
-0.190900
-0.208339
-0.233321
-0.246192
-0.254423
-0.358189
-0.374898
-0.371501
-0.369003
-0.382224
-0.391460
-0.406673
-0.421226
-0.435394
-0.449331
-0.463056
-0.477680
-0.492962
-0.508140
-0.523294
-0.538322
-0.554013
-0.569750
-0.585376
-0.601221
-0.617262
-0.633257
-0.648871
-0.664142
-0.679107
-0.693932
-0.708584
-0.723260
-0.737961
-0.751977
-0.765340
-0.778893
-0.792377
-0.805509
-0.818579
-0.831805
-0.845126
-0.858355
-0.871301
-0.883430
-0.895656
-0.907734
-0.919700
-0.931207
-0.942653
-0.954106
-0.965130
-0.976052
-0.986937
-0.997724
-1.007948
-1.018124
-1.028218
-1.037925
-1.047543
-1.056797
-1.056893
-1.056818
-1.055825
-1.053948
-1.052137
-1.050372
-1.047926
-1.046108
-1.043655
-1.040769
-1.037525
-1.033982
-1.031616
-1.026161
-1.021917
-1.017372
-1.013210
-1.009584
-1.003453
-0.998531
-0.993097
-0.986687
-0.980458
-0.975249
-0.968408
-0.963395
-0.957430
-0.953433
-0.946729
-0.940768
-0.933978
-0.927682
-0.921499
-0.913402
-0.906549
-0.898045
-0.890687
-0.884625
-0.875357
-0.857828
-0.821960
-0.764700
-0.691671
-0.622186
-0.580052
-0.549351
-0.526441
-0.508709
-0.494570
-0.483232
-0.473536
-0.464613
-0.454795
-0.446636
-0.438777
-0.430956
-0.423645
-0.416481
-0.407891
-0.402170
-0.395770
-0.389472
-0.383309
-0.377723
-0.371958
-0.366939
-0.361762
-0.357350
-0.353374
-0.349613
-0.345506
-0.341341
-0.336675
-0.331474
-0.326106
-0.320680
-0.314703
-0.307867
-0.299406
-0.288591
-0.276589
-0.266977
-0.265376
-0.274360
-0.308067
-0.396673
-0.174793
-0.166041
-0.161778
-0.156100
-0.149054
-0.139916
-0.129084
-0.117183
-0.103577
-0.088275
-0.071353
-0.041822
-0.319312
-0.298137
-0.199022
-0.102449
-0.333191
-0.191375
-0.181408
-0.217245
-0.222373
-0.269459
-0.272799
-0.275631
-0.272150
-0.241993
-0.238641
-0.239774
-0.228808
-0.214567
-0.206153
-0.200039
-0.163121
-0.206832
-0.230712
-0.223352
-0.184107
-0.141781
-0.079604
-0.272064
-0.231207
-0.235816
-0.191232
-0.147274
-0.146378
-0.134812
-0.131509
-0.127145
-0.130994
-0.129202
-0.119624
-0.122150
-0.126603
-0.128392
-0.109303
-0.120760
-0.110099
-0.105291
-0.093047
-0.071532
-0.046921
0.012558
0.042925
0.070688
-0.049975
0.071716
0.054043
0.060626
0.070715
0.072108
0.093613
0.112028
0.113345
0.127514
0.163286
0.176998
0.195003
0.215812
0.240262
0.261841
0.280323
0.295721
0.127138
0.080938
-1.050347
-1.050450
-0.399308
-0.386067
0.249934
0.222855
0.169596
0.056523
0.029820
-0.399205
-0.443987
-0.418973
-0.203309
-0.192469
-0.190420
-0.453177
-0.412141
-0.399778
-0.409931
-0.577696
-0.568866
-0.562554
-1.003917
-1.006646
-0.997164
-1.008858
-1.020512
-1.015748
-0.578593
-0.467392
-0.452382
-0.461176
-0.572103
-0.586436
-0.571092
-0.971781
-0.965400
-0.960330
-0.405072
-0.618353
-0.616495
-0.629860
-0.215138
-0.225586
-0.228010
-0.589128
-0.587241
-0.597752
-0.592627
-0.906783
-0.917663
-0.911976
-0.916437
-0.895739
-0.907099
-0.897046
-0.908808
-0.592848
-0.583216
-0.593313
-0.217266
-0.231952
-0.225927
-0.222329
0.157198
0.167326
-0.215277
-0.431236
-0.422461
-0.418223
-0.439242
-0.902556
-0.898401
-0.888347
-0.375041
-0.412483
-0.389195
-0.392512
-0.138426
-0.133478
-0.127202
-0.133309
-0.806493
-0.824313
-0.817199
-0.817034
-0.621936
-0.609215
-0.623465
-0.354601
-0.340181
-0.349863
0.094578
0.134668
0.074181
0.108163
0.031673
0.055300
0.018328
-0.370227
-0.380348
-0.373658
-0.152391
-0.160150
-0.161592
-0.169767
-0.610657
-1.008053
-1.016236
-1.008575
-0.807355
-0.795779
-0.797142
-0.810419
-0.877840
-0.887076
-0.874508
-0.881310
-0.365624
-0.366924
-0.376551
-0.755689
-0.760055
-0.769793
-0.354844
-0.401350
-0.356766
-0.092960
-0.063914
-0.097787
0.152738
-0.246790
-0.247885
-0.254945
-0.261494
-0.262282
-0.269724
-0.361054
-0.347702
-0.857638
-0.857010
-0.846188
-0.920695
-0.912105
-0.913589
-0.868765
-0.747882
-0.760679
-0.744239
-0.982378
-0.980252
-0.988568
-0.371591
-0.307977
-0.311090
-0.317912
-0.717976
-0.706612
-0.720562
-0.258446
-0.260249
-0.256161
-0.053671
-0.029474
-0.045063
-0.014336
-0.171268
-0.181023
-0.184495
-0.196398
0.058942
0.075191
-0.687763
-0.683356
-0.695618
-0.672856
-0.977895
-0.988371
-0.980093
-0.362971
-0.350632
-0.365380
-0.283851
-0.289096
-0.278074
-0.351924
-0.993658
-0.889791
-0.875733
-0.883519
-0.404725
-0.419110
-0.416423
-0.432865
-0.883346
-0.915322
-0.920202
-0.818330
-0.812373
-0.825458
-0.994953
-0.996635
-0.252764
-0.253293
-0.262612
-0.326814
-0.330430
-0.324178
-0.479288
-0.464302
-0.473181
-0.313528
-0.319390
-0.311933
-0.458963
-0.299417
-0.305114
-0.298078
-0.191557
-0.190399
-0.155490
-0.199440
-0.999178
-1.009110
-1.002296
-1.012706
-1.044120
-1.042539
-0.410892
-0.421935
-0.146818
-0.148505
-0.136961
-0.157339
-0.854878
-0.853737
-0.844927
-0.285311
-0.290477
-0.283285
-0.841134
-0.155800
-0.147177
-0.157633
-0.277818
-0.272677
-0.987969
-0.981641
-0.978318
-0.225354
-0.214997
0.011695
0.026237
0.100295
0.106054
-0.823441
-0.840969
-0.826212
-0.849164
-0.316829
-0.317053
-0.320687
-0.311380
-0.310933
-0.312415
-0.305637
-0.335914
-0.336875
-0.342536
-0.347339
-0.344186
-0.277258
-0.284034
-0.289748
-0.292644
-0.282136
-0.313744
-0.308852
-0.443496
-0.429773
-0.318653
-0.328406
-0.323586
-1.022969
-0.450042
-0.458116
-0.441086
-0.331924
-0.307772
-0.122661
-0.125487
-0.133082
-0.119313
-0.566070
-0.555449
-0.554668
-0.263898
-0.271210
-0.274266
-0.206939
-0.209093
-0.500223
-0.483094
-0.484016
-0.265207
-0.228301
-0.237789
-0.235652
-0.351055
-0.354331
-0.347166
-0.945772
-0.946603
-0.936634
-0.432781
-0.452794
-0.454788
-0.443855
-0.299125
-0.294488
-0.305920
-0.285375
-0.286704
-0.380943
-0.275654
-0.231480
-0.271836
-0.276804
-0.266508
-0.284860
-0.280298
-0.297884
-0.297243
-0.293163
-0.301366
-0.416783
-0.421772
-0.430318
-0.431102
-0.422431
-0.291791
-0.308269
-0.303184
-0.292809
-0.288597
-0.420188
-1.046996
-0.321936
-0.317985
-0.323350
-0.317795
-0.321033
-0.388036
-0.394371
-0.390055
-1.038281
-1.035356
-0.278570
-0.274912
-0.422867
-0.413849
-0.222761
-0.215348
-0.324130
-0.207440
-0.185743
-0.185752
-0.167499
-0.341395
-0.337232
-0.894526
-0.904428
-0.892334
-0.281288
-0.287331
-0.291847
-0.251840
-0.302737
-0.901524
-0.454859
-0.399693
-0.416617
-0.397496
-1.014245
-0.303062
-0.297178
-0.308228
-1.033446
-0.362517
-0.357497
-0.364664
-0.414102
-0.397551
-0.447549
-0.437344
-0.440482
-0.256928
-0.254602
-0.246575
-0.239417
-1.025528
-1.027166
-1.020359
-0.871771
-0.863631
-0.280508
-0.288115
-0.293792
-0.274997
-0.268955
-0.314027
-0.319335
-0.510966
-0.514824
-0.494979
-0.329745
-0.333627
-0.355000
-0.349287
-0.342768
-0.307946
-0.861689
-0.275139
-0.268322
-0.346179
-1.046625
-0.306874
-0.300046
-0.313826
-1.032053
-1.029589
-0.189109
-0.181302
-0.178681
-0.297268
-0.390412
-0.417246
-0.403730
-0.431327
-0.283269
-0.288849
-0.294864
-0.278860
-0.307918
-0.302286
-0.269225
-0.263908
-0.282273
-0.290739
-0.286542
-0.312358
-0.496618
-0.476388
-0.473408
-0.464869
-0.526372
-0.504526
-0.535210
-1.006768
-0.185775
-0.453929
-0.456371
-0.444598
-0.310591
-0.302761
-0.319101
-1.013768
-1.015501
-1.021446
-0.284043
-0.292343
-0.297321
-0.277187
-0.317224
-0.524751
-0.528646
-0.264574
-0.255210
-0.172084
0.060689
0.057730
0.124509
-1.041785
-1.038402
-1.027692
-1.023138
-0.418994
-0.401730
-0.523231
-0.516231
-0.529565
-0.538147
-0.969987
-0.967904
-0.958972
-0.275579
-0.430421
-0.436122
-0.313603
-0.305954
-0.324935
-0.288750
-0.296572
-0.300903
-0.290120
-0.272110
-0.467800
-0.477265
-0.544684
-1.005931
-0.998074
-0.639055
-0.632211
-0.645934
-0.320713
-0.467587
-0.453346
-1.004813
-1.013810
-0.308993
-0.327173
-0.325317
-0.352293
0.204493
0.149755
-0.339408
-0.671162
-0.087962
-0.101203
-0.089733
-0.294376
-0.300077
-0.304220
-0.295766
-0.515215
-0.501507
-0.504261
-1.032067
-0.638947
-0.102152
-1.022170
-1.017048
-1.035972
-0.415661
-0.367644
-0.305720
-0.291093
-0.291007
-0.431711
-0.444156
-0.323485
-0.304572
-0.305193
-0.070529
-0.038332
-0.057532
-0.966910
-0.975689
-0.967597
-0.977836
-0.515988
-0.849482
0.034955
0.065758
-0.501864
-0.313754
-0.320019
-0.998017
-0.297343
-0.331110
-0.335342
-0.302904
-0.306889
-0.289826
-0.478533
-0.048975
-0.199676
-0.188117
-0.190526
-0.996538
-0.197378
-0.363095
-0.363112
-0.374757
-0.477458
-0.462715
-0.489061
-0.996248
-1.005518
-0.988904
-0.358556
-0.326654
-0.361407
-0.178202
-0.173299
-0.167007
-0.181966
-0.487198
-0.312648
-0.345418
-0.298774
-0.348862
-0.468188
-0.965623
-0.967189
-0.956693
-0.302568
-0.308392
-0.957268
-0.956460
-0.295157
-0.066267
-0.074757
-0.065251
-0.058237
-0.672687
-0.683655
-0.667975
-0.674072
0.040184
-0.462141
-0.476496
-1.024359
-0.977276
-0.212048
-0.205220
-0.201462
-1.015124
-1.012425
-1.031799
-0.413909
-0.306252
-0.300540
-0.436503
-0.448537
-0.368997
-0.214288
-0.220969
-0.225591
-0.226925
-0.237027
-0.286288
-0.282746
-0.278867
-0.204679
-0.265002
-0.491033
-0.269245
-0.267132
-0.325993
-0.987303
-0.538232
-0.355658
-0.569251
-0.564366
-0.578372
-0.487984
-0.574301
-0.502283
-0.988225
-0.574382
-0.555160
-0.978457
-0.562679
-0.745737
-0.746618
-0.755914
-0.461411
0.015946
-0.341585
-0.218159
-0.213271
-0.222256
-0.734667
-0.274898
-0.272769
-0.283753
-0.640060
-0.627482
-0.312679
-0.319739
-1.018304
-1.015920
-1.006771
-0.281976
-0.907345
-0.901206
-0.332208
-0.337046
-0.648102
-0.636190
-0.362464
-0.365888
-0.348310
-0.351813
-0.994853
-1.004027
-0.992141
-0.364321
-0.367864
-0.342749
-0.379458
-0.291414
0.003745
-0.000554
-0.010930
-0.304739
-0.297986
-0.282177
-0.276281
-0.006706
-0.617794
-0.605999
-0.621777
-0.272879
-0.370420
-0.381743
-0.502527
-0.338116
-0.332498
-0.334671
-0.263052
-0.257536
-0.377248
-1.003671
-0.325296
-0.318476
-0.308528
-0.987997
-0.998593
-0.326086
-0.387881
-0.235961
-0.248396
-0.570678
-0.579547
-0.570033
-0.253513
-0.801789
-0.813316
-0.818068
-0.791447
-0.423338
-0.424492
0.022234
0.084239
-0.268402
-0.279440
-0.280251
-0.457377
-0.470526
-0.449289
-0.293179
-0.600384
-0.606047
-0.614875
-0.601503
-0.977970
-0.984347
-0.986583
-0.311869
-0.319288
-0.591053
-0.584253
-0.597805
-0.925551
-0.918852
-0.928838
-0.360160
-0.343859
-0.332838
-0.338894
-0.351538
-0.355570
-0.989109
-0.274648
-0.267864
-0.278144
-0.304003
-0.296401
-0.289142
-0.702881
-0.764489
-0.697429
-1.013241
-1.022638
-1.024327
-1.010825
-0.280902
-0.273704
-0.382022
-0.388788
-0.632099
-0.573410
-0.592675
-0.267520
-1.018523
-0.977876
-0.988809
-0.974011
-0.259290
0.020545
-0.251826
-0.326215
-0.311649
-0.319116
-0.475343
-0.487537
-0.485389
-0.527492
-0.566318
-0.333512
-0.340052
-0.346204
-0.998393
-0.962328
-0.968806
-0.971184
-0.961102
-0.354503
-0.360357
-0.174002
-0.204581
-0.189685
-0.242452
-0.303852
-0.295827
-0.288142
-0.279345
-0.274288
-0.986195
-0.985661
-0.723902
-0.704914
-0.712364
-0.706983
-0.650130
-0.631910
-0.640594
-0.504546
-0.267206
-0.259678
-0.250935
-0.326742
-0.311855
-0.319386
-0.964984
-0.258675
-0.275484
-0.260176
-0.638717
-0.334797
-0.341172
-0.347831
-0.356606
-0.363706
-0.982313
-0.304099
-0.295859
-0.599871
-0.585596
-0.594744
-0.589054
-0.287574
-0.973860
-0.967875
-0.473518
-0.463822
-0.486057
-0.654466
-0.032910
-0.041441
-0.026943
-0.017720
-0.426976
-0.438898
-0.278124
-0.269432
-0.020956
0.004932
-0.019119
-0.946242
-0.957038
-0.947067
-1.005295
-1.002747
-0.605112
-0.607865
-0.600186
-0.911662
-0.918579
-0.908369
-0.915915
-0.312394
-0.319937
-0.327230
-0.610166
-0.336075
-0.341390
-0.955170
-0.953748
-0.167805
-0.260735
-0.570852
-0.578073
-0.560664
-0.349023
-0.173464
-0.161639
-0.358028
-0.366304
-0.304451
-0.296047
-0.564201
-0.559417
-0.576684
-0.936624
-0.937457
-0.925756
-0.170730
-0.314916
-0.310141
-0.944305
-0.530909
-0.515318
-0.287377
-0.553607
-0.901617
-0.277496
-0.268278
-0.371155
-0.361371
-0.380638
-0.663819
-0.656135
-0.677273
-0.671867
-0.684958
-0.661672
-0.335694
-0.340490
-0.355420
-0.360918
-0.947350
-0.915340
-0.918952
-0.929779
-0.374015
-0.412223
-0.449475
-0.957396
-0.139547
-0.150025
-0.313042
-0.320933
-0.354137
-0.358315
-0.371080
-0.380402
-0.328707
-0.608626
-0.606379
-0.339415
-0.348143
-0.268012
-0.086285
-0.075164
-0.079811
-0.546784
-0.551120
-0.993794
-0.935727
-0.938872
-0.304701
-0.296023
-0.587817
-0.949313
-0.943899
-0.498902
-0.515488
-0.483131
-0.287186
-0.575549
-0.573301
-0.276647
-0.266218
-0.974474
-0.965757
-0.958646
-0.905592
-0.928094
-0.926087
-0.982627
-0.966427
-0.225099
-0.218901
-0.227649
-0.313680
-0.322035
-0.946929
-0.941794
-0.077201
-0.330542
-0.825385
-0.819451
-0.832733
-0.826748
-0.496103
-0.278765
-0.286180
-0.290927
-0.933320
-0.925360
-0.934563
-0.923313
-0.537957
-0.544748
-0.528853
-0.556159
-0.341838
-0.350341
-0.896021
-0.902664
-0.588266
-0.598013
-0.285568
-0.299014
-0.976336
-0.111570
-0.141574
-0.114426
-0.152758
-0.728036
-0.734135
-0.741460
-0.204402
-0.209727
-0.199638
-0.123844
-0.148379
-0.154776
-0.909459
-0.919673
-0.917816
-0.304894
-0.295858
-0.436853
-0.377310
-0.427330
-0.214048
-0.187603
-0.216701
-0.286515
-0.274904
-0.263775
-0.889366
-0.479731
-0.451743
-0.458674
-0.314351
-0.323245
-0.484827
-0.517353
-0.456722
-0.652767
-0.210862
-0.208999
-0.332158
-0.343513
-0.354148
-0.305327
-0.295714
-0.205562
-0.328460
-0.340385
-0.324294
-0.285839
-0.338586
-0.170819
-0.177078
-0.179951
-0.273595
-0.261836
-0.315399
-0.324502
-0.895968
-0.887104
-0.333459
-0.345433
-0.353191
-0.070479
-0.044700
-0.097779
-0.095614
-0.966998
-0.976488
-0.965778
-0.306235
-0.296035
-0.866786
-0.860970
-0.864640
-0.128746
-0.174117
-0.011557
-0.002855
-0.026161
-0.037676
-0.043045
-0.187188
-0.284988
-0.273501
-0.262002
-0.162634
-0.152821
-0.619250
-0.610679
-0.623252
-0.618001
-0.316474
-0.326045
-0.335791
-0.877653
-0.346433
-0.355010
-0.307475
-0.296929
-0.547145
-0.559591
-0.529725
-0.164669
-0.200140
-0.194967
-0.165121
-0.168708
-0.258244
-0.257493
-0.831576
-0.838760
-0.915459
-0.914233
-0.923841
-0.284970
-0.274329
-0.263353
-0.264570
-0.895554
-0.899369
-0.906678
-0.024454
-0.008642
-0.317773
-0.327763
-0.163981
-0.200188
-0.196088
-0.206768
-0.337274
-0.347075
-0.203096
-0.214188
-0.933301
-0.934203
-0.488797
-0.512933
-0.652895
-0.308676
-0.297797
-0.896776
-0.868097
-0.857227
-0.863143
-0.286860
-0.279002
-0.976450
-0.987669
-0.320551
-0.327854
-0.543626
-0.955436
-0.963383
-0.955084
-0.987041
-0.977404
-0.311540
-0.298896
-0.330037
-0.259456
-0.236555
-0.408479
-0.242581
-0.245011
-0.249660
-0.287270
-0.278979
-0.320315
-0.300033
-0.933400
-0.922834
-0.923039
-0.324122
-0.331350
-0.313226
-0.451419
-0.473627
-0.412286
-0.397000
-0.382171
-0.509685
-0.908919
-0.285940
-0.245988
-0.255312
-0.396915
-0.285672
-0.895222
-0.907880
-0.188241
-0.200752
-0.205204
-0.205555
-0.762727
-0.746098
-0.711674
-0.415778
-0.435396
-0.315063
-0.303134
-0.395342
-0.290541
-0.278922
-0.325440
-0.335625
-0.739252
-0.768999
-0.961770
-0.053092
-0.099956
-0.112388
-0.137517
-0.102104
-0.083796
-0.091876
-0.912790
-0.279419
-0.279128
-0.271774
-0.273773
-0.268366
-0.810492
-0.790976
-0.774741
-0.271912
-0.272213
-0.282631
-0.041432
-0.051741
-0.063990
-0.325824
-0.261459
-0.803283
-0.800198
-0.813313
-0.811723
-0.632582
-0.679782
-0.625192
-0.267074
-0.603227
-0.985504
-0.992810
-0.982211
-0.123909
-0.125068
-0.136088
-0.680313
-0.180990
-0.194735
-0.178912
-0.199695
-0.208049
-0.824433
-0.077376
-0.076953
-0.066307
-0.263950
-0.917645
-0.904541
-0.912301
-0.908712
-0.087833
-0.312292
-0.300043
-0.301643
-0.311064
-0.531361
-0.539153
-0.520776
0.046322
-0.554769
-0.469100
-0.486390
-0.477606
-0.494096
-0.927953
-0.917329
-0.432353
-0.421551
-0.409159
-0.491106
-0.151846
-0.870639
-0.880266
-0.867377
-0.879950
-0.873281
-0.863941
-0.867495
-0.874340
-0.700745
-0.718452
-0.653030
-0.750427
-0.409888
-0.402260
-0.422676
-0.126592
-0.127906
-0.041104
-0.028819
-0.031978
-0.036048
-0.025102
-0.036401
-0.834168
-0.845527
-0.836552
-0.849512
-0.390135
-0.944550
-0.949990
-0.956657
-0.127485
-0.134441
-0.951208
-0.232483
-0.184713
-0.189571
-0.178135
-0.190348
-0.174497
-0.558799
-0.619235
-0.133309
-0.932917
-0.920456
-0.928723
-0.919204
-0.452117
0.000377
0.001506
-0.199579
-0.142048
-0.177642
-0.175643
-0.122696
-0.114341
-0.112267
-0.149952
-0.247151
-0.241000
-0.252225
-0.245748
-0.113248
-0.675817
-0.691599
-0.686893
-0.451675
-0.449411
-0.338169
-0.351324
-0.356108
-0.369624
-0.594684
-0.569758
-0.550929
-0.653379
-0.640894
-0.594171
-0.608754
-0.603135
-0.545819
-0.540797
-0.595304
-0.352437
-0.364010
-0.361619
-0.775502
-0.776740
-0.764489
-0.789046
-0.406860
-0.380448
-0.101235
-0.108065
-0.105638
-0.630681
-0.644151
-0.647434
-0.291437
-0.633020
-0.115940
-0.119850
-0.818413
-0.833738
-0.820245
-0.833556
-0.330082
-0.570357
-0.575717
-0.644957
-0.658413
-0.661770
-0.955773
-0.956044
-0.943189
-0.952762
-0.943383
-0.531654
-0.353355
-0.355233
-0.032395
-0.023484
-0.021815
-0.039395
-0.042538
-0.699402
-0.720904
-0.772663
-0.783992
-0.774485
-0.254894
-0.248700
-0.258970
-0.242334
-0.252575
-0.263091
-0.268648
-0.253109
-0.913818
-0.257159
-0.405049
-0.271920
-0.260615
-0.281187
-0.508161
-0.497982
-0.507432
-0.458803
-0.489530
-0.463706
-0.488952
-0.435454
-0.459541
-0.202682
-0.187764
-0.184793
-0.347496
-0.358370
-0.324108
-0.322930
-0.356949
-0.888856
-0.886647
-0.396883
-0.443924
-0.478138
-0.474519
-0.724319
-0.748179
-0.778189
-0.785558
-0.179447
-0.848772
-0.846982
-0.859305
-0.868524
-0.871706
-0.881469
-0.807210
-0.816542
-0.783953
-0.853442
-0.864524
-0.681505
-0.384020
-0.397358
-0.389504
-0.404077
-0.783864
-0.790943
-0.775732
-0.801627
-0.101044
-0.109936
-0.847544
-0.100187
-0.187556
-0.245107
-0.287487
-0.276864
-0.321488
-0.854927
-0.845258
-0.857353
-0.911284
-0.906678
-0.917792
-0.249747
-0.247952
-0.260160
-0.782066
-0.796027
-0.300543
-0.285445
-0.767633
-0.781085
-0.772057
-0.088532
-0.100741
-0.089642
-0.104116
-0.797395
-0.810753
-0.798282
-0.809883
-0.283587
-0.274232
-0.261692
-0.297563
-0.290513
-0.299904
-0.533174
-0.095802
-0.086832
-0.092444
-0.081059
-0.106803
-0.098790
-0.594889
-0.583071
-0.587105
-0.596798
-0.581924
-0.822944
-0.825150
-0.812578
-0.822189
-0.837012
-0.831886
-0.116615
-0.118243
-0.834304
-0.843465
-0.844846
-0.028901
-0.044123
-0.855372
-0.168464
-0.181367
-0.175349
-0.825897
-0.083467
-0.122810
-0.090187
-0.099518
-0.125318
-0.117439
-0.105624
-0.060981
-0.076683
-0.055324
-0.049231
-0.844031
-0.831090
-0.697136
-0.689389
-0.683264
-0.706034
-0.671941
-0.677398
-0.666548
-0.893534
-0.894810
-0.902054
-0.174198
-0.173252
-0.190254
-0.403623
-0.444924
-0.805869
-0.740898
-0.376159
-0.844731
-0.840638
-0.853389
-0.841120
-0.831871
-0.827685
-0.825371
-0.936328
-0.931677
-0.937955
-0.928886
-0.940277
-0.935436
-0.965125
-0.963118
-0.975054
-0.968614
-0.793004
-0.790509
-0.193393
-0.794700
-0.779642
-0.971456
-0.980640
-0.848674
-0.835079
-0.862177
-0.848599
-0.900026
-0.898138
-0.884868
-0.867069