# vtk DataFile Version 2.0
Test
ASCII
DATASET POLYDATA
POINTS 25620 float
0.000000 0.000000 0.000000
2.000000 0.000000 0.000000
2.000000 4.000000 0.000000
0.000000 4.000000 0.000000
0.000000 0.500000 0.000000
1.500000 2.000000 0.000000
2.000000 2.500000 0.000000
0.020000 0.000000 0.000000
0.040000 0.000000 0.000000
0.060000 0.000000 0.000000
0.080000 0.000000 0.000000
0.100000 0.000000 0.000000
0.120000 0.000000 0.000000
0.140000 0.000000 0.000000
0.160000 0.000000 0.000000
0.180000 0.000000 0.000000
0.200000 0.000000 0.000000
0.220000 0.000000 0.000000
0.240000 0.000000 0.000000
0.260000 0.000000 0.000000
0.280000 0.000000 0.000000
0.300000 0.000000 0.000000
0.320000 0.000000 0.000000
0.340000 0.000000 0.000000
0.360000 0.000000 0.000000
0.380000 0.000000 0.000000
0.400000 0.000000 0.000000
0.420000 0.000000 0.000000
0.440000 0.000000 0.000000
0.460000 0.000000 0.000000
0.480000 0.000000 0.000000
0.500000 0.000000 0.000000
0.520000 0.000000 0.000000
0.540000 0.000000 0.000000
0.560000 0.000000 0.000000
0.580000 0.000000 0.000000
0.600000 0.000000 0.000000
0.620000 0.000000 0.000000
0.640000 0.000000 0.000000
0.660000 0.000000 0.000000
0.680000 0.000000 0.000000
0.700000 0.000000 0.000000
0.720000 0.000000 0.000000
0.740000 0.000000 0.000000
0.760000 0.000000 0.000000
0.780000 0.000000 0.000000
0.800000 0.000000 0.000000
0.820000 0.000000 0.000000
0.840000 0.000000 0.000000
0.860000 0.000000 0.000000
0.880000 0.000000 0.000000
0.900000 0.000000 0.000000
0.920000 0.000000 0.000000
0.940000 0.000000 0.000000
0.960000 0.000000 0.000000
0.980000 0.000000 0.000000
1.000000 0.000000 0.000000
1.020000 0.000000 0.000000
1.040000 0.000000 0.000000
1.060000 0.000000 0.000000
1.080000 0.000000 0.000000
1.100000 0.000000 0.000000
1.120000 0.000000 0.000000
1.140000 0.000000 0.000000
1.160000 0.000000 0.000000
1.180000 0.000000 0.000000
1.200000 0.000000 0.000000
1.220000 0.000000 0.000000
1.240000 0.000000 0.000000
1.260000 0.000000 0.000000
1.280000 0.000000 0.000000
1.300000 0.000000 0.000000
1.320000 0.000000 0.000000
1.340000 0.000000 0.000000
1.360000 0.000000 0.000000
1.380000 0.000000 0.000000
1.400000 0.000000 0.000000
1.420000 0.000000 0.000000
1.440000 0.000000 0.000000
1.460000 0.000000 0.000000
1.480000 0.000000 0.000000
1.500000 0.000000 0.000000
1.520000 0.000000 0.000000
1.540000 0.000000 0.000000
1.560000 0.000000 0.000000
1.580000 0.000000 0.000000
1.600000 0.000000 0.000000
1.620000 0.000000 0.000000
1.640000 0.000000 0.000000
1.660000 0.000000 0.000000
1.680000 0.000000 0.000000
1.700000 0.000000 0.000000
1.720000 0.000000 0.000000
1.740000 0.000000 0.000000
1.760000 0.000000 0.000000
1.780000 0.000000 0.000000
1.800000 0.000000 0.000000
1.820000 0.000000 0.000000
1.840000 0.000000 0.000000
1.860000 0.000000 0.000000
1.880000 0.000000 0.000000
1.900000 0.000000 0.000000
1.920000 0.000000 0.000000
1.940000 0.000000 0.000000
1.960000 0.000000 0.000000
1.980000 0.000000 0.000000
2.000000 0.020000 0.000000
2.000000 0.040000 0.000000
2.000000 0.060000 0.000000
2.000000 0.080000 0.000000
2.000000 0.100000 0.000000
2.000000 0.120000 0.000000
2.000000 0.140000 0.000000
2.000000 0.160000 0.000000
2.000000 0.180000 0.000000
2.000000 0.200000 0.000000
2.000000 0.220000 0.000000
2.000000 0.240000 0.000000
2.000000 0.260000 0.000000
2.000000 0.280000 0.000000
2.000000 0.300000 0.000000
2.000000 0.320000 0.000000
2.000000 0.340000 0.000000
2.000000 0.360000 0.000000
2.000000 0.380000 0.000000
2.000000 0.400000 0.000000
2.000000 0.420000 0.000000
2.000000 0.440000 0.000000
2.000000 0.460000 0.000000
2.000000 0.480000 0.000000
2.000000 0.500000 0.000000
2.000000 0.520000 0.000000
2.000000 0.540000 0.000000
2.000000 0.560000 0.000000
2.000000 0.580000 0.000000
2.000000 0.600000 0.000000
2.000000 0.620000 0.000000
2.000000 0.640000 0.000000
2.000000 0.660000 0.000000
2.000000 0.680000 0.000000
2.000000 0.700000 0.000000
2.000000 0.720000 0.000000
2.000000 0.740000 0.000000
2.000000 0.760000 0.000000
2.000000 0.780000 0.000000
2.000000 0.800000 0.000000
2.000000 0.820000 0.000000
2.000000 0.840000 0.000000
2.000000 0.860000 0.000000
2.000000 0.880000 0.000000
2.000000 0.900000 0.000000
2.000000 0.920000 0.000000
2.000000 0.940000 0.000000
2.000000 0.960000 0.000000
2.000000 0.980000 0.000000
2.000000 1.000000 0.000000
2.000000 1.020000 0.000000
2.000000 1.040000 0.000000
2.000000 1.060000 0.000000
2.000000 1.080000 0.000000
2.000000 1.100000 0.000000
2.000000 1.120000 0.000000
2.000000 1.140000 0.000000
2.000000 1.160000 0.000000
2.000000 1.180000 0.000000
2.000000 1.200000 0.000000
2.000000 1.220000 0.000000
2.000000 1.240000 0.000000
2.000000 1.260000 0.000000
2.000000 1.280000 0.000000
2.000000 1.300000 0.000000
2.000000 1.320000 0.000000
2.000000 1.340000 0.000000
2.000000 1.360000 0.000000
2.000000 1.380000 0.000000
2.000000 1.400000 0.000000
2.000000 1.420000 0.000000
2.000000 1.440000 0.000000
2.000000 1.460000 0.000000
2.000000 1.480000 0.000000
2.000000 1.500000 0.000000
2.000000 1.520000 0.000000
2.000000 1.540000 0.000000
2.000000 1.560000 0.000000
2.000000 1.580000 0.000000
2.000000 1.600000 0.000000
2.000000 1.620000 0.000000
2.000000 1.640000 0.000000
2.000000 1.660000 0.000000
2.000000 1.680000 0.000000
2.000000 1.700000 0.000000
2.000000 1.720000 0.000000
2.000000 1.740000 0.000000
2.000000 1.760000 0.000000
2.000000 1.780000 0.000000
2.000000 1.800000 0.000000
2.000000 1.820000 0.000000
2.000000 1.840000 0.000000
2.000000 1.860000 0.000000
2.000000 1.880000 0.000000
2.000000 1.900000 0.000000
2.000000 1.920000 0.000000
2.000000 1.940000 0.000000
2.000000 1.960000 0.000000
2.000000 1.980000 0.000000
2.000000 2.000000 0.000000
2.000000 2.020000 0.000000
2.000000 2.040000 0.000000
2.000000 2.060000 0.000000
2.000000 2.080000 0.000000
2.000000 2.100000 0.000000
2.000000 2.120000 0.000000
2.000000 2.140000 0.000000
2.000000 2.160000 0.000000
2.000000 2.180000 0.000000
2.000000 2.200000 0.000000
2.000000 2.220000 0.000000
2.000000 2.240000 0.000000
2.000000 2.260000 0.000000
2.000000 2.280000 0.000000
2.000000 2.300000 0.000000
2.000000 2.320000 0.000000
2.000000 2.340000 0.000000
2.000000 2.360000 0.000000
2.000000 2.380000 0.000000
2.000000 2.400000 0.000000
2.000000 2.420000 0.000000
2.000000 2.440000 0.000000
2.000000 2.460000 0.000000
2.000000 2.480000 0.000000
2.000000 2.520000 0.000000
2.000000 2.540000 0.000000
2.000000 2.560000 0.000000
2.000000 2.580000 0.000000
2.000000 2.600000 0.000000
2.000000 2.620000 0.000000
2.000000 2.640000 0.000000
2.000000 2.660000 0.000000
2.000000 2.680000 0.000000
2.000000 2.700000 0.000000
2.000000 2.720000 0.000000
2.000000 2.740000 0.000000
2.000000 2.760000 0.000000
2.000000 2.780000 0.000000
2.000000 2.800000 0.000000
2.000000 2.820000 0.000000
2.000000 2.840000 0.000000
2.000000 2.860000 0.000000
2.000000 2.880000 0.000000
2.000000 2.900000 0.000000
2.000000 2.920000 0.000000
2.000000 2.940000 0.000000
2.000000 2.960000 0.000000
2.000000 2.980000 0.000000
2.000000 3.000000 0.000000
2.000000 3.020000 0.000000
2.000000 3.040000 0.000000
2.000000 3.060000 0.000000
2.000000 3.080000 0.000000
2.000000 3.100000 0.000000
2.000000 3.120000 0.000000
2.000000 3.140000 0.000000
2.000000 3.160000 0.000000
2.000000 3.180000 0.000000
2.000000 3.200000 0.000000
2.000000 3.220000 0.000000
2.000000 3.240000 0.000000
2.000000 3.260000 0.000000
2.000000 3.280000 0.000000
2.000000 3.300000 0.000000
2.000000 3.320000 0.000000
2.000000 3.340000 0.000000
2.000000 3.360000 0.000000
2.000000 3.380000 0.000000
2.000000 3.400000 0.000000
2.000000 3.420000 0.000000
2.000000 3.440000 0.000000
2.000000 3.460000 0.000000
2.000000 3.480000 0.000000
2.000000 3.500000 0.000000
2.000000 3.520000 0.000000
2.000000 3.540000 0.000000
2.000000 3.560000 0.000000
2.000000 3.580000 0.000000
2.000000 3.600000 0.000000
2.000000 3.620000 0.000000
2.000000 3.640000 0.000000
2.000000 3.660000 0.000000
2.000000 3.680000 0.000000
2.000000 3.700000 0.000000
2.000000 3.720000 0.000000
2.000000 3.740000 0.000000
2.000000 3.760000 0.000000
2.000000 3.780000 0.000000
2.000000 3.800000 0.000000
2.000000 3.820000 0.000000
2.000000 3.840000 0.000000
2.000000 3.860000 0.000000
2.000000 3.880000 0.000000
2.000000 3.900000 0.000000
2.000000 3.920000 0.000000
2.000000 3.940000 0.000000
2.000000 3.960000 0.000000
2.000000 3.980000 0.000000
1.980000 4.000000 0.000000
1.960000 4.000000 0.000000
1.940000 4.000000 0.000000
1.920000 4.000000 0.000000
1.900000 4.000000 0.000000
1.880000 4.000000 0.000000
1.860000 4.000000 0.000000
1.840000 4.000000 0.000000
1.820000 4.000000 0.000000
1.800000 4.000000 0.000000
1.780000 4.000000 0.000000
1.760000 4.000000 0.000000
1.740000 4.000000 0.000000
1.720000 4.000000 0.000000
1.700000 4.000000 0.000000
1.680000 4.000000 0.000000
1.660000 4.000000 0.000000
1.640000 4.000000 0.000000
1.620000 4.000000 0.000000
1.600000 4.000000 0.000000
1.580000 4.000000 0.000000
1.560000 4.000000 0.000000
1.540000 4.000000 0.000000
1.520000 4.000000 0.000000
1.500000 4.000000 0.000000
1.480000 4.000000 0.000000
1.460000 4.000000 0.000000
1.440000 4.000000 0.000000
1.420000 4.000000 0.000000
1.400000 4.000000 0.000000
1.380000 4.000000 0.000000
1.360000 4.000000 0.000000
1.340000 4.000000 0.000000
1.320000 4.000000 0.000000
1.300000 4.000000 0.000000
1.280000 4.000000 0.000000
1.260000 4.000000 0.000000
1.240000 4.000000 0.000000
1.220000 4.000000 0.000000
1.200000 4.000000 0.000000
1.180000 4.000000 0.000000
1.160000 4.000000 0.000000
1.140000 4.000000 0.000000
1.120000 4.000000 0.000000
1.100000 4.000000 0.000000
1.080000 4.000000 0.000000
1.060000 4.000000 0.000000
1.040000 4.000000 0.000000
1.020000 4.000000 0.000000
1.000000 4.000000 0.000000
0.980000 4.000000 0.000000
0.960000 4.000000 0.000000
0.940000 4.000000 0.000000
0.920000 4.000000 0.000000
0.900000 4.000000 0.000000
0.880000 4.000000 0.000000
0.860000 4.000000 0.000000
0.840000 4.000000 0.000000
0.820000 4.000000 0.000000
0.800000 4.000000 0.000000
0.780000 4.000000 0.000000
0.760000 4.000000 0.000000
0.740000 4.000000 0.000000
[...]
POINT_DATA 25620
SCALARS UX float 1
LOOKUP_TABLE default
-0.000078
0.000050
0.610477
0.034989
-0.179546
0.519332
0.796662
-0.000058
-0.000018
-0.000010
0.000023
-0.000020
0.000008
-0.000003
0.000005
-0.000002
0.000001
0.000000
-0.000001
-0.000001
-0.000000
-0.000000
0.000001
-0.000001
-0.000000
0.000001
-0.000004
-0.000008
0.000004
-0.000001
-0.000001
-0.000000
-0.000000
-0.000000
-0.000002
-0.000001
0.000000
-0.000001
-0.000000
-0.000002
-0.000000
0.000000
-0.000000
-0.000000
-0.000000
-0.000000
0.000000
-0.000000
-0.000000
-0.000000
0.000000
-0.000000
-0.000000
0.000001
0.000002
-0.000001
0.000000
0.000000
0.000000
-0.000000
0.000000
0.000001
-0.000000
0.000000
0.000000
0.000000
0.000000
0.000001
0.000000
-0.000001
-0.000000
0.000002
-0.000000
0.000000
0.000001
0.000000
0.000003
-0.000000
0.000001
-0.000001
0.000000
0.000001
-0.000001
-0.000000
0.000000
0.000001
0.000001
-0.000000
0.000001
0.000002
0.000000
0.000001
0.000001
-0.000000
-0.000000
0.000000
0.000001
0.000002
0.000000
-0.000005
-0.000002
-0.000002
0.000005
0.000007
-0.000022
0.000021
0.020591
0.035144
0.046331
0.056008
0.064302
0.072154
0.079386
0.086348
0.092944
0.099146
0.105179
0.110743
0.116240
0.121425
0.126551
0.131385
0.136291
0.141252
0.145816
0.150350
0.155099
0.159542
0.164067
0.168535
0.173007
0.177576
0.182051
0.186584
0.191041
0.195599
0.200613
0.205363
0.210823
0.215767
0.219982
0.224255
0.228219
0.232260
0.236094
0.240054
0.243996
0.247773
0.251652
0.255505
0.259393
0.262828
0.267176
0.271034
0.275042
0.278862
0.282655
0.287072
0.291322
0.295375
0.299660
0.304085
0.308725
0.313233
0.317671
0.322460
0.327522
0.332519
0.337495
0.342979
0.348193
0.353846
0.359511
0.365304
0.371213
0.377394
0.384040
0.390390
0.397081
0.404081
0.411526
0.418907
0.426537
0.434402
0.442483
0.450484
0.459390
0.468101
0.477356
0.486703
0.496334
0.506223
0.516172
0.526958
0.538074
0.549397
0.561207
0.573754
0.587010
0.600468
0.613429
0.626336
0.638764
0.650346
0.661264
0.672519
0.683080
0.692721
0.701307
0.710008
0.719362
0.729128
0.739116
0.748883
0.758370
0.767588
0.776365
0.784554
0.792398
0.799916
0.807108
0.814025
0.820513
0.826295
0.831437
0.835292
0.837430
0.837408
0.831835
0.812541
0.770244
0.751190
0.742039
0.726509
0.712466
0.693305
0.678990
0.661710
0.647714
0.633415
0.617590
0.610396
0.600549
0.595328
0.591368
0.589639
0.587867
0.587985
0.588800
0.590466
0.592880
0.595309
0.597831
0.601058
0.604128
0.607465
0.610894
0.612900
0.615810
0.619575
0.620309
0.617656
0.618322
0.619186
0.619970
0.621913
0.622633
0.624015
0.623198
0.620630
0.620848
0.621749
0.619460
0.616939
0.619090
0.625804
0.632122
0.631575
0.639947
0.648269
0.655135
0.660598
0.662224
0.661380
0.659411
0.656793
0.654652
0.658176
0.659107
0.664259
0.668733
0.665867
0.661818
0.656692
0.653362
0.649722
0.644559
0.642914
0.641402
0.640371
0.610095
0.603320
0.602113
0.602340
0.600540
0.592899
0.585624
0.581283
0.577807
0.573509
0.567743
0.563034
0.558249
0.553460
0.548690
0.543701
0.539229
0.534632
0.529889
0.524945
0.519548
0.514649
0.509305
0.503784
0.498066
0.492701
0.487361
0.481819
0.476512
0.471235
0.466057
0.460826
0.455792
0.450725
0.445607
0.440520
0.435679
0.430758
0.425898
0.421111
0.416009
0.411180
0.406124
0.401170
0.396332
0.391435
0.386539
0.381675
0.376885
0.371868
0.366836
0.361814
0.356907
0.352144
0.347217
0.342093
0.337446
0.332414
0.327092
0.321956
0.316980
0.311865
0.306728
0.301604
0.296311
0.290931
0.285579
0.280124
0.274616
0.269091
0.263561
0.257826
0.252086
0.246276
0.240346
0.234327
0.228234
0.222138
0.216107
0.209867
0.203327
0.196801
0.190350
0.183810
0.176937
0.170040
0.163229
0.156271
0.149101
0.141839
0.134609
0.127524
0.119961
0.112365
0.104770
0.097340
0.089600
0.081801
0.074060
0.066214
0.058468
0.050763
0.042888
0.035127
0.034839
0.034630
0.034210
0.034567
0.034678
0.034819
0.034381
0.033920
0.033757
0.033332
0.033380
0.032977
0.032765
0.032400
0.032331
0.031283
0.030818
0.030178
0.029393
0.028660
0.028442
0.027807
0.026939
0.026327
0.025080
0.024066
0.023238
0.021749
0.020389
0.019522
0.018042
0.016322
0.014692
0.013153
0.011572
0.009915
0.008122
0.006339
0.004353
0.002373
0.000314
-0.002012
-0.004683
-0.006936
-0.009634
-0.012004
-0.014598
-0.017852
-0.020340
-0.023719
-0.026881
-0.030244
-0.033359
-0.036691
-0.040453
-0.044572
-0.048493
-0.052383
-0.056480
-0.060958
-0.065374
-0.070012
-0.074832
-0.079491
-0.084569
-0.089785
-0.095217
-0.100557
-0.106014
-0.111924
-0.117713
-0.123808
-0.129877
-0.136019
-0.142246
-0.148644
-0.155225
-0.161631
-0.168233
-0.175195
-0.181800
-0.188222
-0.195182
-0.201855
-0.208237
-0.215125
-0.221440
-0.227584
-0.233961
-0.239742
-0.245655
-0.251040
-0.256131
-0.260856
-0.265101
-0.268996
-0.272153
-0.274609
-0.276129
-0.277073
-0.277335
-0.276134
-0.273861
-0.270591
-0.265554
-0.260343
-0.254079
-0.246687
-0.240128
-0.233717
-0.228094
-0.222120
-0.218045
-0.214084
-0.210801
-0.208067
-0.205757
-0.204114
-0.202982
-0.201859
-0.201655
-0.201529
-0.201891
-0.202632
-0.203643
-0.205096
-0.206571
-0.208634
-0.210962
-0.213487
-0.216146
-0.219300
-0.222547
-0.225963
-0.229727
-0.233375
-0.237422
-0.241567
-0.245617
-0.249925
-0.254168
-0.258377
-0.262647
-0.266765
-0.270785
-0.274492
-0.278206
-0.281496
-0.284585
-0.287218
-0.289428
-0.291193
-0.292411
-0.293083
-0.293283
-0.292866
-0.291976
-0.290576
-0.288790
-0.286573
-0.283979
-0.281098
-0.277923
-0.274395
-0.270510
-0.266309
-0.261814
-0.256866
-0.251153
-0.245882
-0.238024
-0.246783
-0.274465
-0.176163
-0.175329
-0.173085
-0.170322
-0.166956
-0.163131
-0.159189
-0.154905
-0.150345
-0.145552
-0.140661
-0.135560
-0.130314
-0.124945
-0.119236
-0.113544
-0.107306
-0.101141
-0.094244
-0.087110
-0.079511
-0.071195
-0.061609
-0.054122
-0.210047
-0.179424
-0.215763
-0.213897
-0.190201
-0.165632
-0.168297
-0.171220
-0.176158
-0.193176
-0.192930
-0.201980
-0.223431
-0.219694
-0.224337
-0.262403
-0.246179
-0.224746
-0.229404
-0.220371
-0.218642
-0.196379
-0.146732
-0.200235
-0.169017
-0.189639
-0.089645
-0.169009
-0.187404
-0.187005
-0.135607
-0.111837
-0.102241
-0.108651
-0.134328
-0.163708
-0.176419
-0.165116
-0.137964
-0.124920
-0.145836
-0.056956
-0.088033
-0.072098
-0.054587
-0.032365
-0.078808
-0.121140
-0.123042
-0.123261
-0.128409
-0.122374
-0.076264
-0.050655
0.002458
-0.040093
0.000252
0.018820
-0.043211
-0.008910
0.012366
0.011608
0.017453
0.024806
0.029712
0.032772
0.030586
0.028572
0.028876
0.014818
0.019580
0.019256
0.013072
0.001656
0.006314
0.011475
0.013593
0.022313
0.026920
0.041335
0.054979
0.064680
0.060002
0.070135
0.080002
0.083182
0.089247
0.098126
0.100732
0.107546
0.114068
0.122844
0.138584
0.149543
0.165914
0.181804
0.212369
0.237193
0.275130
0.307397
0.361073
0.388131
0.432313
0.442916
0.488936
0.495588
0.539935
0.543754
0.550552
0.560068
0.573609
0.588141
0.598443
0.616306
0.626571
0.635867
0.647642
0.657642
0.669395
0.679801
0.691437
0.700855
0.708713
0.716189
0.723858
0.733046
0.740195
0.745969
0.752451
0.755550
0.766821
0.773631
0.782266
0.790477
0.796822
0.802164
0.807102
0.813848
0.815380
0.806938
0.799787
0.433190
0.437516
0.436140
0.435740
-0.182531
-0.186504
-0.181915
-0.182120
0.526936
0.522319
0.527869
0.522026
0.644764
0.626995
0.651296
0.452725
0.453406
0.449240
0.678791
0.677523
0.635054
0.668724
0.644719
0.571136
0.577565
0.581445
0.100466
0.099159
0.093180
0.105510
0.451868
0.457241
0.454434
0.456154
0.565453
0.194613
0.199346
0.192123
0.007114
0.009934
0.003067
0.200263
-0.107559
-0.108478
-0.111640
-0.105318
0.172795
0.167575
0.166740
-0.174304
-0.174592
-0.170811
-0.101663
-0.099876
-0.105887
-0.178727
-0.207406
-0.207399
-0.203152
-0.201909
0.441626
0.441818
0.620209
0.619989
-0.175137
-0.170584
-0.175499
-0.172434
-0.197409
-0.200487
0.502875
0.508160
0.508076
-0.097939
-0.099677
0.111339
0.109178
0.106015
0.102907
-0.096800
-0.106208
-0.100190
-0.103244
0.498038
0.503239
0.499315
0.502717
0.246279
0.250410
0.247648
0.252927
0.506996
0.323590
0.323071
0.319076
0.576924
0.583318
0.580757
0.586645
-0.022667
-0.020831
-0.025536
-0.160915
-0.167770
-0.164143
-0.016274
-0.192348
-0.181369
-0.186811
0.039762
0.036771
0.031045
0.045720
0.023497
0.032509
0.028082
0.016972
0.015198
0.010037
0.021157
0.255638
0.250815
0.251702
0.252155
0.025486
0.030161
0.030062
0.035501
-0.035780
-0.030460
-0.038822
-0.027979
-0.033725
-0.034531
-0.040733
-0.026350
-0.015951
-0.013469
-0.010176
0.128285
0.130679
0.124285
-0.019221
0.648732
0.637228
0.317688
0.500160
0.500183
0.504956
0.515568
0.519994
0.518985
-0.253098
-0.253694
-0.258392
-0.257728
0.724621
0.710189
0.703177
0.091311
0.102716
0.101571
0.754193
0.781957
0.761380
0.787438
0.772720
0.793838
0.785675
0.794060
0.151991
0.157499
0.153504
0.159882
0.078615
0.085267
0.086685
0.080131
-0.035268
-0.029196
-0.026457
0.249657
0.244294
0.247466
0.241663
0.551007
0.547247
0.549600
0.209886
0.205231
0.210050
0.544909
0.208837
0.207099
0.214116
0.213038
-0.105948
-0.108059
-0.108181
-0.110533
0.400609
0.396784
0.396512
0.392517
-0.139877
-0.138314
-0.133260
-0.145663
0.025480
0.034487
0.028262
0.037445
0.047940
0.048497
0.040981
0.090771
0.092975
0.044344
0.097619
0.274601
0.265921
0.278793
0.275867
0.678932
0.637345
0.653229
0.598985
-0.011816
-0.007277
-0.005995
-0.006130
-0.012569
-0.020587
-0.016478
-0.013281
0.503894
0.106722
0.099921
0.103577
0.106657
0.085619
0.087211
0.080424
0.504099
0.505984
0.495565
0.457268
0.451092
0.453754
0.164957
0.165546
0.156788
0.174738
-0.024297
-0.023730
-0.030096
-0.029146
-0.125915
-0.129006
-0.128655
-0.132446
-0.224706
-0.219877
-0.222014
0.582749
-0.222885
0.228246
0.232037
0.233524
0.226202
0.235837
0.230878
0.236124
-0.158072
-0.157639
-0.152634
-0.154288
-0.154542
0.554544
0.550507
0.554802
0.549771
0.558329
0.559524
0.562899
-0.149334
-0.062084
-0.062513
-0.067336
-0.069849
-0.114007
-0.108382
-0.109749
-0.101453
-0.107343
-0.106594
-0.111264
-0.102741
-0.064277
-0.070385
0.160119
0.159780
0.155421
-0.073754
0.519484
0.524056
0.523835
0.072668
0.069593
0.076981
0.501386
0.572502
0.576334
0.575550
0.426548
0.431008
0.426021
-0.111325
-0.111954
-0.108421
-0.115876
0.222893
0.218402
0.218683
0.213827
-0.029279
-0.034012
-0.034793
-0.030175
0.003355
0.006348
0.011513
0.013825
0.007807
0.009817
0.014909
0.016180
-0.095441
-0.092862
-0.113062
-0.117047
-0.118319
-0.111793
0.043396
0.035331
0.036536
0.030474
-0.151640
-0.156018
-0.158576
-0.163180
0.235494
0.237860
0.240945
0.232398
0.008826
0.005154
0.004073
-0.000874
0.366108
0.359397
0.364560
0.153496
0.158401
0.147431
0.255161
0.250281
0.264419
0.253176
-0.007336
-0.001152
-0.003192
0.003493
0.067055
0.060627
0.057393
0.067868
0.240165
0.227442
0.229540
0.237533
-0.045477
-0.040963
-0.041200
0.047153
0.042057
0.041353
-0.081471
-0.082180
-0.082915
-0.080169
-0.045019
0.282008
0.283701
0.278952
0.027412
0.036266
0.029422
0.032723
-0.058968
-0.060713
-0.057575
0.505385
0.506636
0.501039
-0.060913
-0.159429
-0.162572
-0.167240
0.427659
-0.189063
-0.194301
-0.190574
-0.193838
-0.217992
-0.221684
-0.216218
-0.221470
0.308960
0.317698
0.319363
-0.228386
-0.214876
-0.224826
0.267523
0.279090
0.269569
0.297957
0.293170
0.296452
0.294636
0.472367
0.472422
0.467604
-0.241104
-0.240212
-0.233561
-0.247806
-0.232049
0.173980
0.165604
0.171216
-0.093366
-0.095649
-0.089413
-0.219583
-0.252706
-0.250121
-0.255644
-0.103597
-0.100654
-0.100929
0.184256
0.179023
0.179507
-0.242932
-0.244410
-0.236032
-0.239257
0.550658
0.554577
0.552789
-0.246823
-0.237530
-0.251189
0.113764
0.111635
0.117927
-0.265461
-0.256598
-0.259870
0.047764
0.041566
0.576186
0.577659
0.576573
0.510122
0.508442
0.189201
0.186367
-0.062274
-0.061845
-0.056224
-0.099180
-0.096680
-0.099567
-0.068322
-0.061165
-0.065901
-0.053266
-0.249298
-0.260684
0.165217
-0.254193
-0.040552
-0.047369
0.039303
-0.200233
-0.197094
-0.201207
0.419612
0.419576
0.426905
0.410244
-0.198212
-0.265676
0.334066
0.333912
0.343187
0.063475
0.056964
0.061712
-0.035309
-0.047043
0.587847
0.599564
0.580081
0.600731
0.323689
0.253314
0.259333
0.255485
-0.251305
-0.220617
-0.216483
-0.220128
-0.060388
-0.055918
-0.065910
0.256339
0.059437
0.063134
0.065129
-0.250354
-0.254933
-0.251495
-0.215588
-0.030466
-0.044850
-0.055245
-0.051756
-0.050270
0.556429
0.559863
0.558464
-0.058253
-0.063281
0.247330
0.254142
0.250025
0.229620
0.240662
0.235237
0.173625
0.176418
0.239834
-0.112974
-0.118316
-0.118563
-0.194766
-0.191970
-0.198144
-0.257137
-0.260882
-0.023138
-0.019617
-0.014100
-0.262995
-0.009196
-0.110717
0.500386
0.504270
0.062236
0.583725
0.586191
0.054091
0.251977
-0.053481
-0.047758
-0.043684
-0.052954
0.444904
0.448339
0.450039
0.364328
0.452549
-0.158088
-0.154124
-0.157550
-0.155786
0.476102
0.478508
0.480044
0.467842
-0.251377
-0.255939
-0.177653
-0.178227
-0.181188
-0.243287
-0.228561
-0.181893
0.085728
0.081168
0.087095
-0.264275
-0.264515
-0.260821
-0.266959
-0.206234
-0.204941
-0.201526
0.041158
0.056454
0.051668
0.058916
0.048926
0.051371
0.044396
0.060817
0.066949
0.060212
0.457404
0.451560
0.453345
-0.032770
-0.041759
-0.039370
-0.046541
-0.022469
0.016261
0.018337
0.601539
0.183115
0.453417
-0.184498
-0.188005
-0.183795
-0.272707
-0.266285
-0.267813
-0.261677
-0.111092
-0.115474
-0.117631
-0.123777
0.474220
0.469982
0.473411
0.472672
0.095168
0.084625
0.094101
0.084890
-0.254516
-0.260077
-0.258862
-0.242675
-0.267600
0.046276
0.053490
0.336433
0.339726
0.336478
0.244802
0.068890
0.575509
0.572816
0.579952
0.257930
0.250333
0.256479
0.254903
0.268609
0.260456
0.275775
-0.268063
-0.264350
-0.270701
0.249814
0.059922
0.058288
0.063723
0.483552
0.484038
0.486700
0.171356
0.165955
0.175388
0.583311
0.587470
0.586352
0.162445
-0.253840
-0.259794
-0.263622
-0.248087
-0.259147
-0.255397
-0.252203
-0.264109
0.355147
0.357935
0.352662
0.719626
0.360111
0.379586
0.383521
0.382678
0.386787
0.725986
0.352907
0.347082
0.352384
0.091152
0.096857
0.094382
-0.270883
0.685258
0.681417
0.697838
0.040184
0.570086
0.053353
0.056019
0.143297
0.138016
0.142106
0.444130
0.437641
0.439556
0.429782
0.377065
0.379665
0.375954
0.381758
0.095194
0.633704
0.363088
0.360972
0.589229
0.587490
0.585620
-0.271060
-0.267212
-0.274197
-0.253444
-0.263749
-0.265563
-0.238029
-0.085384
-0.083908
-0.082675
0.315237
0.329878
0.504769
0.505431
0.509791
-0.197719
-0.202947
-0.204562
0.616606
-0.197943
-0.280641
-0.282619
-0.281191
0.379745
0.378535
0.384621
-0.275903
-0.278656
-0.277028
-0.273891
0.637737
0.647316
0.636519
-0.231754
-0.231336
-0.227204
-0.225677
0.074722
0.374399
0.454481
0.457730
0.458223
0.577217
0.591058
0.100725
0.097984
0.091337
-0.273578
-0.269704
-0.277453
0.068320
0.067546
0.062255
0.581493
0.580443
0.583637
-0.265277
-0.264381
-0.267625
-0.253679
-0.276909
0.085241
-0.272281
-0.275100
-0.273182
0.708857
0.197834
0.201368
0.203497
-0.267212
-0.269869
-0.265652
-0.159880
-0.161834
-0.156338
0.088378
0.083012
0.196950
0.021956
0.017685
0.021850
0.042294
0.047480
0.055825
0.059998
0.237401
0.232006
0.242426
0.073609
0.078115
0.081978
0.622235
0.586581
0.600356
0.583908
0.016418
0.699073
0.704566
0.701530
-0.275530
-0.271728
-0.280943
-0.260262
-0.265872
-0.269144
-0.260065
0.708056
0.074886
0.081284
0.555423
0.555653
0.560033
0.576444
0.572897
0.561868
-0.279152
0.074409
0.067240
0.576605
0.580519
-0.277517
-0.273402
-0.282384
0.461664
-0.177492
-0.177629
-0.173100
-0.177972
0.353545
0.352095
0.348900
0.429946
0.436649
0.444049
0.135581
0.137482
0.132171
0.131766
0.327924
0.331573
0.327951
0.330745
-0.260342
-0.266703
-0.270433
-0.254952
-0.288723
-0.286795
-0.287623
0.050687
0.045168
-0.216909
-0.214053
0.058969
0.064015
0.597274
0.622034
0.349096
0.584894
0.581450
-0.280912
-0.279901
0.374826
0.381386
0.380630
0.152797
0.146455
0.148297
0.152291
0.039238
0.042122
0.036668
-0.284712
-0.283172
0.044773
0.759461
0.713256
0.729083
0.495973
0.491847
0.493476
0.494761
0.356654
-0.274761
0.094959
0.091853
0.318257
0.310893
0.317847
-0.263589
0.312057
0.421015
0.416751
0.415408
-0.269222
-0.271986
-0.260478
0.081520
0.421689
0.354850
0.350132
0.346577
0.572531
0.342495
-0.273636
-0.273078
0.079958
0.072921
0.087812
0.572771
0.576738
0.569275
-0.276216
-0.282709
-0.163950
-0.163125
-0.158079
0.327388
0.321912
0.323677
0.561216
0.564217
0.562547
-0.278845
-0.278239
0.238436
0.231668
0.234158
-0.275934
-0.281105
-0.268839
0.496696
0.492581
0.495471
0.227514
0.067281
0.066946
0.072801
-0.271046
-0.273665
0.325932
0.277982
0.273814
0.277478
0.576765
0.575775
0.571992
0.054815
0.568154
0.140007
0.145171
0.063165
0.066671
0.047539
0.591692
0.272565
0.581214
0.579129
0.614989
-0.182291
-0.177757
-0.179575
0.395363
0.388185
0.387562
0.262995
0.264939
0.259561
0.513095
0.518985
0.514528
0.516464
0.203313
0.187682
0.199504
0.430581
0.427797
0.432078
0.067704
0.062982
0.063357
0.058397
-0.270310
-0.270072
-0.273835
0.425601
-0.254063
-0.259765
-0.257564
0.338362
0.340668
-0.266133
-0.262828
-0.268619
-0.271072
-0.270986
-0.267319
-0.266008
-0.186307
-0.191483
-0.190728
0.334832
0.086189
-0.189426
-0.193322
-0.187589
0.343126
0.344146
0.568533
-0.261205
-0.258505
0.085726
0.346614
0.573852
0.567396
0.572073
0.569236
-0.161202
0.564579
-0.276395
-0.287956
-0.286177
-0.285406
0.565942
0.303317
0.300321
0.298732
0.295082
-0.283582
-0.281459
-0.159082
-0.162735
0.105238
0.109091
0.112333
0.380030
0.515409
0.511995
0.516569
0.395236
0.399398
0.401613
-0.290776
-0.288707
-0.289315
-0.270938
-0.273909
0.501051
0.035092
0.034815
-0.276468
0.056371
-0.279129
0.089976
0.085112
-0.286535
0.059392
0.068269
0.064083
0.069796
-0.214066
-0.220394
0.004675
0.010250
0.014133
0.002171
0.591241
0.544205
0.548978
0.544386
0.548196
-0.191334
-0.194703
-0.193982
0.071170
0.066833
0.072342
0.178814
0.180597
0.184837
-0.281731
-0.284060
-0.268399
0.613233
0.605329
0.603864
0.618740
0.612268
0.618692
-0.268054
-0.268044
-0.251049
-0.252172
-0.263367
-0.264969
-0.265128
-0.185347
-0.249965
-0.241987
0.637292
-0.259492
-0.259175
0.550467
0.552747
0.556348
-0.180675
-0.176020
-0.273753
0.564166
-0.284348
-0.279176
-0.073650
-0.067000
-0.073581
-0.065873
0.381449
0.380781
0.375424
0.541642
0.544797
0.545569
0.673067
0.644737
0.665949
0.653821
-0.192521
-0.185422
-0.187157
0.092210
0.166377
0.167680
0.172797
-0.180115
-0.089103
-0.087355
-0.088649
-0.087544
0.609975
0.612786
0.624639
-0.090240
-0.089268
-0.091448
-0.267729
-0.270993
-0.273603
-0.276599
0.190348
0.194300
0.189167
-0.089250
0.457395
0.452754
0.451979
0.455560
-0.284557
-0.286989
0.406439
0.406114
0.402222
0.554348
0.548432
0.541971
0.073154
0.079143
0.500467
0.499297
0.557574
0.463365
0.466239
0.461274
0.467269
0.543323
0.540700
0.545743
0.590513
0.595941
0.593578
0.600277
-0.158132
-0.163345
-0.157939
-0.164449
-0.157365
0.459871
0.460140
0.463772
-0.279245
-0.281984
0.125379
0.119177
0.120251
0.124248
-0.163389
-0.190859
-0.194105
-0.188365
-0.192263
-0.196327
-0.264811
-0.264411
-0.265117
0.100225
-0.196807
-0.261238
-0.261977
-0.260332
-0.252393
0.020398
0.013765
0.021432
0.014768
0.288995
0.288393
0.562768
0.565564
0.560743
0.284584
0.287302
-0.257127
-0.257399
0.282464
0.464369
-0.160331
-0.160269
-0.165550
0.094656
0.088878
0.093228
-0.270548
0.087804
-0.084110
-0.084428
-0.085105
-0.085239
0.407116
0.407962
0.410340
-0.042671
-0.017270
-0.068304
-0.282024
-0.276429
-0.263909
-0.267617
0.549118
0.549328
0.544731
0.546168
0.693925
0.736726
0.728831
0.050184
0.053206
0.060525
0.534451
0.529345
0.537357
0.528712
0.090589
0.084313
0.092528
-0.270188
-0.273572
0.612775
0.609018
0.620597
0.596246
0.061347
0.055602
0.065630
-0.282071
-0.285266
-0.276218
-0.279390
-0.260310
-0.261210
-0.261344
0.559691
0.557801
0.556111
0.553390
-0.191765
-0.194149
-0.196448
0.120439
0.123441
0.118273
-0.097409
-0.097182
-0.099834
-0.098474
-0.257534
-0.257978
-0.196471
-0.191021
-0.187423
0.392849
0.105329
0.098612
0.095519
-0.160575
-0.153770
-0.159134
-0.153398
-0.199669
-0.256502
0.544337
0.547558
0.543327
0.547351
-0.252902
-0.253265
0.602172
0.595828
0.621698
0.563670
0.555830
0.562979
0.555889
-0.266827
-0.005672
-0.002474
0.008042
0.066071
0.069775
0.075479
-0.259620
-0.263174
0.587907
-0.273071
-0.279138
0.566825
0.566344
0.563581
-0.128720
-0.132392
-0.132785
0.563068
0.186100