# vtk DataFile Version 2.0
Test
ASCII
DATASET POLYDATA
POINTS 6577 float
0.000000 0.000000 0.000000
2.000000 0.000000 0.000000
2.000000 4.000000 0.000000
0.000000 4.000000 0.000000
0.000000 0.500000 0.000000
1.500000 2.000000 0.000000
2.000000 2.500000 0.000000
0.040000 0.000000 0.000000
0.080000 0.000000 0.000000
0.120000 0.000000 0.000000
0.160000 0.000000 0.000000
0.200000 0.000000 0.000000
0.240000 0.000000 0.000000
0.280000 0.000000 0.000000
0.320000 0.000000 0.000000
0.360000 0.000000 0.000000
0.400000 0.000000 0.000000
0.440000 0.000000 0.000000
0.480000 0.000000 0.000000
0.520000 0.000000 0.000000
0.560000 0.000000 0.000000
0.600000 0.000000 0.000000
0.640000 0.000000 0.000000
0.680000 0.000000 0.000000
0.720000 0.000000 0.000000
0.760000 0.000000 0.000000
0.800000 0.000000 0.000000
0.840000 0.000000 0.000000
0.880000 0.000000 0.000000
0.920000 0.000000 0.000000
0.960000 0.000000 0.000000
1.000000 0.000000 0.000000
1.040000 0.000000 0.000000
1.080000 0.000000 0.000000
1.120000 0.000000 0.000000
1.160000 0.000000 0.000000
1.200000 0.000000 0.000000
1.240000 0.000000 0.000000
1.280000 0.000000 0.000000
1.320000 0.000000 0.000000
1.360000 0.000000 0.000000
1.400000 0.000000 0.000000
1.440000 0.000000 0.000000
1.480000 0.000000 0.000000
1.520000 0.000000 0.000000
1.560000 0.000000 0.000000
1.600000 0.000000 0.000000
1.640000 0.000000 0.000000
1.680000 0.000000 0.000000
1.720000 0.000000 0.000000
1.760000 0.000000 0.000000
1.800000 0.000000 0.000000
1.840000 0.000000 0.000000
1.880000 0.000000 0.000000
1.920000 0.000000 0.000000
1.960000 0.000000 0.000000
2.000000 0.039683 0.000000
2.000000 0.079365 0.000000
2.000000 0.119048 0.000000
2.000000 0.158730 0.000000
2.000000 0.198413 0.000000
2.000000 0.238095 0.000000
2.000000 0.277778 0.000000
2.000000 0.317460 0.000000
2.000000 0.357143 0.000000
2.000000 0.396825 0.000000
2.000000 0.436508 0.000000
2.000000 0.476190 0.000000
2.000000 0.515873 0.000000
2.000000 0.555556 0.000000
2.000000 0.595238 0.000000
2.000000 0.634921 0.000000
2.000000 0.674603 0.000000
2.000000 0.714286 0.000000
2.000000 0.753968 0.000000
2.000000 0.793651 0.000000
2.000000 0.833333 0.000000
2.000000 0.873016 0.000000
2.000000 0.912698 0.000000
2.000000 0.952381 0.000000
2.000000 0.992063 0.000000
2.000000 1.031746 0.000000
2.000000 1.071429 0.000000
2.000000 1.111111 0.000000
2.000000 1.150794 0.000000
2.000000 1.190476 0.000000
2.000000 1.230159 0.000000
2.000000 1.269841 0.000000
2.000000 1.309524 0.000000
2.000000 1.349206 0.000000
2.000000 1.388889 0.000000
2.000000 1.428571 0.000000
2.000000 1.468254 0.000000
2.000000 1.507937 0.000000
2.000000 1.547619 0.000000
2.000000 1.587302 0.000000
2.000000 1.626984 0.000000
2.000000 1.666667 0.000000
2.000000 1.706349 0.000000
2.000000 1.746032 0.000000
2.000000 1.785714 0.000000
2.000000 1.825397 0.000000
2.000000 1.865079 0.000000
2.000000 1.904762 0.000000
2.000000 1.944444 0.000000
2.000000 1.984127 0.000000
2.000000 2.023810 0.000000
2.000000 2.063492 0.000000
2.000000 2.103175 0.000000
2.000000 2.142857 0.000000
2.000000 2.182540 0.000000
2.000000 2.222222 0.000000
2.000000 2.261905 0.000000
2.000000 2.301587 0.000000
2.000000 2.341270 0.000000
2.000000 2.380952 0.000000
2.000000 2.420635 0.000000
2.000000 2.460317 0.000000
2.000000 2.539474 0.000000
2.000000 2.578947 0.000000
2.000000 2.618421 0.000000
2.000000 2.657895 0.000000
2.000000 2.697368 0.000000
2.000000 2.736842 0.000000
2.000000 2.776316 0.000000
2.000000 2.815789 0.000000
2.000000 2.855263 0.000000
2.000000 2.894737 0.000000
2.000000 2.934211 0.000000
2.000000 2.973684 0.000000
2.000000 3.013158 0.000000
2.000000 3.052632 0.000000
2.000000 3.092105 0.000000
2.000000 3.131579 0.000000
2.000000 3.171053 0.000000
2.000000 3.210526 0.000000
2.000000 3.250000 0.000000
2.000000 3.289474 0.000000
2.000000 3.328947 0.000000
2.000000 3.368421 0.000000
2.000000 3.407895 0.000000
2.000000 3.447368 0.000000
2.000000 3.486842 0.000000
2.000000 3.526316 0.000000
2.000000 3.565789 0.000000
2.000000 3.605263 0.000000
2.000000 3.644737 0.000000
2.000000 3.684211 0.000000
2.000000 3.723684 0.000000
2.000000 3.763158 0.000000
2.000000 3.802632 0.000000
2.000000 3.842105 0.000000
2.000000 3.881579 0.000000
2.000000 3.921053 0.000000
2.000000 3.960526 0.000000
1.960000 4.000000 0.000000
1.920000 4.000000 0.000000
1.880000 4.000000 0.000000
1.840000 4.000000 0.000000
1.800000 4.000000 0.000000
1.760000 4.000000 0.000000
1.720000 4.000000 0.000000
1.680000 4.000000 0.000000
1.640000 4.000000 0.000000
1.600000 4.000000 0.000000
1.560000 4.000000 0.000000
1.520000 4.000000 0.000000
1.480000 4.000000 0.000000
1.440000 4.000000 0.000000
1.400000 4.000000 0.000000
1.360000 4.000000 0.000000
1.320000 4.000000 0.000000
1.280000 4.000000 0.000000
1.240000 4.000000 0.000000
1.200000 4.000000 0.000000
1.160000 4.000000 0.000000
1.120000 4.000000 0.000000
1.080000 4.000000 0.000000
1.040000 4.000000 0.000000
1.000000 4.000000 0.000000
0.960000 4.000000 0.000000
0.920000 4.000000 0.000000
0.880000 4.000000 0.000000
0.840000 4.000000 0.000000
0.800000 4.000000 0.000000
0.760000 4.000000 0.000000
0.720000 4.000000 0.000000
0.680000 4.000000 0.000000
0.640000 4.000000 0.000000
0.600000 4.000000 0.000000
0.560000 4.000000 0.000000
0.520000 4.000000 0.000000
0.480000 4.000000 0.000000
0.440000 4.000000 0.000000
0.400000 4.000000 0.000000
0.360000 4.000000 0.000000
0.320000 4.000000 0.000000
0.280000 4.000000 0.000000
0.240000 4.000000 0.000000
0.200000 4.000000 0.000000
0.160000 4.000000 0.000000
0.120000 4.000000 0.000000
0.080000 4.000000 0.000000
0.040000 4.000000 0.000000
0.000000 3.960227 0.000000
0.000000 3.920455 0.000000
0.000000 3.880682 0.000000
0.000000 3.840909 0.000000
0.000000 3.801136 0.000000
0.000000 3.761364 0.000000
0.000000 3.721591 0.000000
0.000000 3.681818 0.000000
0.000000 3.642045 0.000000
0.000000 3.602273 0.000000
0.000000 3.562500 0.000000
0.000000 3.522727 0.000000
0.000000 3.482955 0.000000
0.000000 3.443182 0.000000
0.000000 3.403409 0.000000
0.000000 3.363636 0.000000
0.000000 3.323864 0.000000
0.000000 3.284091 0.000000
0.000000 3.244318 0.000000
0.000000 3.204545 0.000000
0.000000 3.164773 0.000000
0.000000 3.125000 0.000000
0.000000 3.085227 0.000000
0.000000 3.045455 0.000000
0.000000 3.005682 0.000000
0.000000 2.965909 0.000000
0.000000 2.926136 0.000000
0.000000 2.886364 0.000000
0.000000 2.846591 0.000000
0.000000 2.806818 0.000000
0.000000 2.767045 0.000000
0.000000 2.727273 0.000000
0.000000 2.687500 0.000000
0.000000 2.647727 0.000000
0.000000 2.607955 0.000000
0.000000 2.568182 0.000000
0.000000 2.528409 0.000000
0.000000 2.488636 0.000000
0.000000 2.448864 0.000000
0.000000 2.409091 0.000000
0.000000 2.369318 0.000000
0.000000 2.329545 0.000000
0.000000 2.289773 0.000000
0.000000 2.250000 0.000000
0.000000 2.210227 0.000000
0.000000 2.170455 0.000000
0.000000 2.130682 0.000000
0.000000 2.090909 0.000000
0.000000 2.051136 0.000000
0.000000 2.011364 0.000000
0.000000 1.971591 0.000000
0.000000 1.931818 0.000000
0.000000 1.892045 0.000000
0.000000 1.852273 0.000000
0.000000 1.812500 0.000000
0.000000 1.772727 0.000000
0.000000 1.732955 0.000000
0.000000 1.693182 0.000000
0.000000 1.653409 0.000000
0.000000 1.613636 0.000000
0.000000 1.573864 0.000000
0.000000 1.534091 0.000000
0.000000 1.494318 0.000000
0.000000 1.454545 0.000000
0.000000 1.414773 0.000000
0.000000 1.375000 0.000000
0.000000 1.335227 0.000000
0.000000 1.295455 0.000000
0.000000 1.255682 0.000000
0.000000 1.215909 0.000000
0.000000 1.176136 0.000000
0.000000 1.136364 0.000000
0.000000 1.096591 0.000000
0.000000 1.056818 0.000000
0.000000 1.017045 0.000000
0.000000 0.977273 0.000000
0.000000 0.937500 0.000000
0.000000 0.897727 0.000000
0.000000 0.857955 0.000000
0.000000 0.818182 0.000000
0.000000 0.778409 0.000000
0.000000 0.738636 0.000000
0.000000 0.698864 0.000000
0.000000 0.659091 0.000000
0.000000 0.619318 0.000000
0.000000 0.579545 0.000000
0.000000 0.539773 0.000000
0.000000 0.461538 0.000000
0.000000 0.423077 0.000000
0.000000 0.384615 0.000000
0.000000 0.346154 0.000000
0.000000 0.307692 0.000000
0.000000 0.269231 0.000000
0.000000 0.230769 0.000000
0.000000 0.192308 0.000000
0.000000 0.153846 0.000000
0.000000 0.115385 0.000000
0.000000 0.076923 0.000000
0.000000 0.038462 0.000000
0.027778 0.527778 0.000000
0.055556 0.555556 0.000000
0.083333 0.583333 0.000000
0.111111 0.611111 0.000000
0.138889 0.638889 0.000000
0.166667 0.666667 0.000000
0.194444 0.694444 0.000000
0.222222 0.722222 0.000000
0.250000 0.750000 0.000000
0.277778 0.777778 0.000000
0.305556 0.805556 0.000000
0.333333 0.833333 0.000000
0.361111 0.861111 0.000000
0.388889 0.888889 0.000000
0.416667 0.916667 0.000000
0.444444 0.944444 0.000000
0.472222 0.972222 0.000000
0.500000 1.000000 0.000000
0.527778 1.027778 0.000000
0.555556 1.055556 0.000000
0.583333 1.083333 0.000000
0.611111 1.111111 0.000000
0.638889 1.138889 0.000000
0.666667 1.166667 0.000000
0.694444 1.194444 0.000000
0.722222 1.222222 0.000000
0.750000 1.250000 0.000000
0.777778 1.277778 0.000000
0.805556 1.305556 0.000000
0.833333 1.333333 0.000000
0.861111 1.361111 0.000000
0.888889 1.388889 0.000000
0.916667 1.416667 0.000000
0.944444 1.444444 0.000000
0.972222 1.472222 0.000000
1.000000 1.500000 0.000000
1.027778 1.527778 0.000000
1.055556 1.555556 0.000000
1.083333 1.583333 0.000000
1.111111 1.611111 0.000000
1.138889 1.638889 0.000000
1.166667 1.666667 0.000000
1.194444 1.694444 0.000000
1.222222 1.722222 0.000000
1.250000 1.750000 0.000000
1.277778 1.777778 0.000000
1.305556 1.805556 0.000000
1.333333 1.833333 0.000000
1.361111 1.861111 0.000000
1.388889 1.888889 0.000000
1.416667 1.916667 0.000000
1.444444 1.944444 0.000000
1.472222 1.972222 0.000000
1.527778 2.027778 0.000000
1.555556 2.055556 0.000000
1.583333 2.083333 0.000000
1.611111 2.111111 0.000000
1.638889 2.138889 0.000000
1.666667 2.166667 0.000000
1.694444 2.194444 0.000000
1.722222 2.222222 0.000000
1.750000 2.250000 0.000000
1.777778 2.277778 0.000000
1.805556 2.305556 0.000000
[...]
POINT_DATA 6577
SCALARS UX float 1
LOOKUP_TABLE default
-0.000101
0.000148
0.513947
-0.229669
-0.334213
0.663862
0.819608
0.000024
-0.000006
-0.000002
0.000002
-0.000003
-0.000013
0.000002
0.000002
0.000004
0.000001
0.000000
0.000004
0.000001
0.000002
-0.000001
0.000001
-0.000002
-0.000001
0.000000
-0.000001
-0.000001
0.000000
0.000000
0.000001
0.000000
-0.000000
0.000000
0.000000
0.000000
-0.000000
-0.000000
0.000001
-0.000002
-0.000000
0.000000
-0.000000
0.000001
0.000001
0.000000
-0.000001
-0.000001
-0.000000
-0.000001
0.000002
-0.000002
0.000002
-0.000001
-0.000001
-0.000020
0.027273
0.044283
0.059038
0.072697
0.085501
0.098455
0.111911
0.127351
0.143950
0.161356
0.179650
0.198747
0.213895
0.226437
0.238275
0.251335
0.265985
0.281465
0.297929
0.316501
0.336044
0.358361
0.380941
0.402673
0.428158
0.454043
0.478852
0.505430
0.534145
0.565188
0.600032
0.633653
0.662484
0.689508
0.713638
0.739691
0.763704
0.785845
0.802439
0.813258
0.820026
0.823443
0.824421
0.824298
0.824026
0.823632
0.825113
0.827306
0.829043
0.829779
0.830698
0.834991
0.837888
0.844384
0.856248
0.862440
0.860643
0.854888
0.851423
0.844887
0.844511
0.836300
0.799470
0.795441
0.795175
0.789359
0.784802
0.781966
0.778978
0.776839
0.770477
0.769930
0.766374
0.773158
0.771460
0.771711
0.782067
0.794228
0.798472
0.798425
0.795836
0.782405
0.749570
0.727777
0.698821
0.666137
0.629887
0.595573
0.563030
0.540396
0.522987
0.516412
0.512485
0.516243
0.521120
0.521070
0.519755
0.516977
0.515685
0.496026
0.477717
0.459776
0.441541
0.423376
0.405013
0.385329
0.365501
0.346295
0.327610
0.308475
0.290021
0.271683
0.253511
0.235840
0.218376
0.201424
0.184867
0.168615
0.152580
0.136813
0.121403
0.105320
0.090418
0.076291
0.061932
0.047744
0.033763
0.020056
0.006437
-0.007031
-0.020206
-0.032727
-0.044774
-0.057308
-0.069774
-0.082164
-0.094236
-0.106131
-0.117948
-0.129273
-0.140511
-0.151610
-0.162342
-0.173239
-0.184484
-0.195801
-0.207012
-0.218327
-0.230453
-0.231673
-0.233809
-0.235418
-0.236717
-0.239225
-0.243573
-0.248415
-0.255878
-0.262929
-0.269032
-0.273963
-0.277796
-0.281613
-0.279140
-0.277994
-0.276249
-0.274679
-0.273240
-0.267333
-0.262700
-0.256905
-0.249160
-0.242163
-0.236844
-0.229451
-0.226041
-0.222891
-0.224581
-0.222714
-0.225929
-0.231275
-0.241564
-0.255651
-0.270380
-0.289719
-0.307159
-0.326121
-0.346512
-0.363784
-0.375885
-0.382806
-0.383471
-0.379621
-0.373875
-0.373280
-0.374386
-0.377556
-0.382170
-0.386195
-0.389762
-0.391609
-0.389770
-0.381857
-0.372427
-0.360915
-0.347967
-0.334937
-0.321627
-0.306647
-0.295506
-0.284537
-0.275081
-0.267437
-0.262317
-0.258568
-0.257781
-0.258103
-0.260714
-0.264990
-0.270306
-0.275767
-0.281602
-0.287123
-0.292230
-0.297130
-0.301914
-0.305712
-0.308512
-0.310443
-0.312165
-0.315489
-0.323983
-0.340695
-0.363617
-0.390762
-0.434104
-0.222174
-0.211270
-0.204279
-0.194886
-0.184268
-0.171926
-0.157877
-0.143989
-0.129300
-0.115201
-0.097577
-0.050521
-0.357065
-0.394665
-0.362032
-0.383865
-0.322217
-0.263479
-0.237910
-0.273756
-0.277872
-0.176300
-0.201350
-0.284081
-0.039311
-0.246459
-0.246520
-0.238011
-0.244338
-0.236543
-0.273767
-0.562589
-0.376816
-0.312464
-0.260387
-0.079096
-0.140618
-0.094475
-0.111704
-0.187448
-0.200011
-0.154840
-0.129351
-0.103328
-0.070560
-0.053164
-0.029694
-0.003336
0.009918
0.033822
0.072926
0.094107
0.135382
0.178145
0.225798
0.263528
0.314535
0.358920
0.406593
0.455251
0.508729
0.546547
0.583784
0.621687
0.643548
0.666640
0.654348
0.649012
0.647792
0.655955
0.673255
0.681248
0.696116
0.705481
0.720906
0.736378
0.750674
0.764727
0.770888
0.786855
0.798889
0.814696
0.778007
0.774157
-0.226303
-0.224398
0.500959
0.503986
0.794970
0.795063
0.771617
0.771620
0.763483
0.397008
0.370822
0.375517
0.283723
0.262164
0.314340
0.356874
-0.204347
-0.189959
-0.186373
0.294608
0.307375
0.310554
-0.173523
-0.178537
-0.167372
-0.188384
-0.204027
-0.201397
0.297955
0.411359
0.428080
0.420332
0.293232
0.280785
0.298313
-0.217341
-0.210605
-0.202264
-0.211782
0.242753
0.242508
0.227249
0.338233
0.320779
0.317390
0.287011
0.288650
0.273513
0.277512
-0.069785
-0.081441
-0.075283
-0.080271
-0.057678
-0.070577
-0.059346
-0.072892
0.274299
0.291672
0.277585
0.333069
-0.018257
-0.041223
-0.015914
0.725315
0.740267
-0.028569
-0.293454
-0.294340
-0.275442
-0.312647
-0.071560
-0.072614
-0.053053
0.193237
0.181364
0.182908
0.193909
0.544017
0.538907
0.557743
0.541021
-0.029155
-0.041046
-0.041433
-0.030561
0.227410
0.238992
0.225878
-0.221596
-0.199804
-0.204397
0.730447
0.752191
0.737558
0.756740
0.746707
0.765708
0.744107
-0.256322
-0.269986
-0.266818
0.510140
0.492350
0.498905
0.478995
0.238151
-0.192627
-0.207585
-0.198564
0.030811
0.043161
0.041403
0.027889
-0.092129
-0.104986
-0.091882
-0.102048
-0.241184
-0.232372
-0.244729
0.087267
0.082167
0.071806
0.483094
0.443511
0.472071
0.574460
0.614493
0.608434
0.740984
-0.087651
-0.067570
-0.083544
-0.079320
-0.100460
-0.094592
-0.213403
-0.191633
-0.057902
-0.060829
-0.045984
-0.145065
-0.132530
-0.134354
-0.073258
0.095105
0.080762
0.098673
-0.174644
-0.164162
-0.178792
-0.227251
-0.124032
-0.112029
-0.130210
0.142323
0.151170
0.138348
-0.308430
-0.314129
-0.313868
0.622346
0.654639
0.629720
0.669148
0.401512
0.386747
0.379860
0.362729
0.754547
0.769665
0.164176
0.167464
0.155093
0.178168
-0.219755
-0.234469
-0.225857
0.152192
0.165180
0.155304
-0.081771
-0.103023
-0.083979
0.157648
-0.244093
-0.052583
-0.038427
-0.045887
-0.129942
-0.133201
-0.154922
-0.163748
-0.046183
-0.229860
-0.215162
0.019691
0.026439
0.012794
-0.184076
-0.193397
0.193689
0.217066
0.160922
-0.217770
-0.222409
-0.219688
-0.370926
-0.359457
-0.351191
-0.208241
-0.213371
-0.209987
-0.341201
-0.202917
-0.207472
-0.203372
-0.035200
-0.071792
-0.053703
-0.040188
-0.205055
-0.219516
-0.217809
-0.233964
-0.217652
-0.213861
0.487530
0.485461
0.485433
0.494426
0.516211
0.478162
-0.017155
-0.016525
-0.007510
-0.194607
-0.198994
-0.196539
-0.003939
0.448088
0.454705
0.436452
-0.308010
-0.307643
-0.247686
-0.239490
-0.233392
0.004583
0.001052
0.687919
0.688596
0.708639
0.704003
-0.149903
-0.164605
-0.177095
-0.184268
-0.273081
-0.261127
-0.266684
-0.265132
-0.218782
-0.225943
-0.216974
-0.228488
-0.224839
-0.262454
-0.262849
-0.269020
-0.308727
-0.306141
-0.305909
-0.308129
-0.309846
-0.206957
-0.204730
0.449747
0.468746
-0.210230
-0.215722
-0.213638
-0.189683
-0.193598
-0.222104
-0.212931
-0.219447
-0.223620
0.557112
0.549693
0.548755
0.558322
0.315623
0.329122
0.323169
-0.038790
-0.040417
-0.065970
-0.013302
0.029136
0.386759
0.401221
0.398341
-0.011072
0.022538
0.023486
0.002782
-0.237752
-0.244729
-0.238971
-0.111302
-0.112866
-0.101826
0.387006
-0.304066
-0.321848
-0.305009
-0.200422
-0.199168
-0.204119
-0.298076
-0.303277
0.418512
-0.290134
-0.282589
-0.188093
-0.191357
-0.190735
-0.192828
-0.190880
-0.303247
-0.305554
-0.303422
-0.306919
-0.260299
-0.251128
-0.269580
0.471976
0.481074
-0.197228
-0.204003
-0.201739
-0.197650
-0.194931
-0.178687
-0.224333
-0.256100
-0.250557
-0.247739
-0.241392
-0.239288
0.504878
-0.139746
-0.109003
-0.211877
-0.205957
-0.189545
-0.188020
0.476218
0.486011
-0.069280
-0.055988
-0.212478
0.389056
0.395761
0.403055
0.414172
-0.226832
-0.222024
-0.056172
-0.067940
-0.053559
-0.293132
-0.294658
-0.301126
-0.275798
-0.303657
-0.065001
0.434213
0.081259
0.064361
0.068056
-0.180178
-0.299728
-0.299858
-0.304406
-0.202348
-0.250235
-0.242761
-0.249146
0.048809
0.049908
0.447005
0.460624
0.456374
-0.339307
-0.357757
0.176329
0.223944
-0.192838
-0.195686
-0.187651
-0.034586
-0.026404
-0.286209
-0.289888
-0.295085
-0.266075
-0.379823
-0.207019
-0.209725
0.375449
0.374721
0.395300
-0.214899
-0.218264
-0.238006
-0.233610
-0.225878
-0.300083
-0.024331
0.110544
0.111461
-0.230310
-0.227462
-0.295111
-0.295919
-0.300887
-0.205042
-0.200230
0.402412
0.392695
0.430269
-0.199097
0.503228
0.474097
0.491193
0.466451
-0.284744
-0.287238
-0.291487
-0.249428
-0.204513
-0.201379
-0.185873
-0.185916
-0.191820
-0.197128
-0.194732
-0.295471
-0.231838
-0.239437
-0.209323
0.420689
-0.246181
-0.260150
-0.271395
-0.172170
0.434202
0.436533
0.434030
0.449317
-0.289303
-0.290162
-0.296302
-0.180507
-0.181630
-0.189797
-0.285423
-0.278494
-0.284679
-0.250959
-0.289995
0.367344
0.356348
-0.184682
-0.183658
0.417488
0.679892
0.688189
0.698334
-0.223764
-0.215257
-0.201172
-0.193192
0.484017
0.496124
0.359391
0.371139
0.362297
0.352561
-0.135416
-0.133889
-0.124258
-0.189162
0.464085
0.454733
-0.282918
-0.282944
-0.289832
-0.267846
-0.269859
-0.276296
-0.262901
-0.186847
0.418419
0.406091
0.347430
-0.171666
-0.163092
0.212662
0.222631
0.206540
-0.282590
0.416479
0.435529
-0.170989
-0.181588
-0.275012
-0.282827
-0.212687
-0.233983
0.764596
0.743171
-0.221933
0.177799
0.574491
0.544282
0.567497
-0.264017
-0.259182
-0.266951
-0.266252
0.367731
0.381555
0.372032
-0.210391
0.216450
0.539000
-0.196494
-0.187291
-0.219791
0.476795
0.489005
0.225535
0.237052
0.240272
0.456091
0.443315
-0.275804
0.222774
0.230281
0.603986
0.626456
0.613953
-0.136949
-0.147532
-0.139683
-0.152353
0.376611
-0.011709
0.741931
0.754174
0.387855
-0.207860
-0.210123
-0.257604
-0.251755
-0.215372
-0.218524
-0.247635
-0.256449
-0.248015
0.401566
0.627408
0.367757
0.394471
0.381480
-0.162041
0.381931
-0.077103
-0.045398
-0.083367
0.402534
0.421078
0.389040
-0.162358
-0.173446
-0.153734
-0.238953
-0.269597
-0.243246
0.472503
0.478156
0.498451
0.455935
0.391291
-0.253961
-0.226890
-0.238028
-0.230407
0.411221
-0.132613
-0.135640
-0.124065
-0.236076
-0.244694
-0.127451
-0.124887
-0.199271
0.768736
0.659419
0.659392
0.701741
0.185451
0.176061
0.189697
0.183002
0.718923
0.414943
0.405178
-0.203542
-0.145533
0.205279
0.184864
0.223827
-0.189935
-0.183804
-0.220703
0.464903
-0.205391
-0.201986
0.445004
0.436044
0.483464
0.245711
0.209434
0.341192
0.329197
0.308424
-0.197125
-0.194726
-0.191823
0.245229
-0.184187
0.385009
-0.189175
-0.186652
-0.213657
-0.152711
0.351986
-0.235146
0.288241
0.301759
0.285964
0.389010
0.298901
0.372213
-0.154449
0.275764
0.294484
-0.143296
0.282019
0.104183
0.101546
0.093142
-0.242025
0.723047
-0.223157
-0.136186
-0.128700
-0.124006
0.115123
0.250616
0.254427
0.238901
0.216306
0.231999
-0.209317
-0.211535
-0.233832
-0.222487
-0.209193
0.241849
-0.210399
-0.222351
-0.217696
-0.220255
0.206410
0.220912
-0.241675
-0.246117
-0.228952
-0.231726
-0.213558
-0.227171
-0.203049
0.464087
0.463862
0.483252
0.445551
-0.199635
0.748852
0.755826
0.735707
-0.206071
-0.202639
-0.197610
-0.195216
0.733482
0.231526
0.242344
0.228454
-0.192384
-0.106953
-0.118367
0.377987
-0.258598
-0.257388
-0.251063
-0.190017
-0.186144
-0.133155
-0.197040
0.167554
0.169372
0.192230
-0.171313
-0.183232
-0.215927
-0.144546
0.306837
0.280488
0.314254
0.301512
0.314659
0.277691
-0.054949
-0.052199
-0.062634
-0.041732
0.425122
0.429668
0.705578
0.712316
0.249504
0.233691
0.225037
0.418559
0.400634
0.414877
0.211213
0.245395
0.243836
0.232876
0.246241
-0.143085
-0.155841
-0.160489
-0.209659
-0.212905
0.259446
0.272030
0.255865
-0.091047
-0.082986
-0.094200
-0.239166
-0.224910
-0.218859
-0.221904
-0.232146
-0.235094
-0.166866
-0.030289
0.012569
-0.030544
-0.205949
-0.202942
-0.200239
-0.301928
-0.316941
-0.324217
-0.251945
-0.259615
-0.268113
-0.241505
-0.197688
-0.195654
-0.238978
-0.256489
-0.294999
-0.291431
-0.262988
-0.193215
-0.264729
-0.174693
-0.189343
-0.161587
-0.191180
0.721020
-0.187010
-0.216472
-0.209435
-0.213382
0.389093
0.393004
0.385837
-0.289745
-0.316866
-0.220682
-0.224508
-0.227729
-0.225004
-0.139203
-0.145435
-0.151315
-0.134916
-0.235865
-0.240327
0.625902
0.581829
0.600475
0.541312
-0.204595
-0.201855
-0.199809
-0.196294
-0.195007
-0.208393
-0.199545
0.104160
0.121505
0.129521
0.106147
0.201474
0.221205
0.210566
0.373286
-0.193519
-0.191179
-0.188750
-0.217440
-0.208123
-0.213362
-0.147537
0.278974
0.260366
0.274878
0.215342
-0.222337
-0.224975
-0.229649
-0.241348
-0.246268
-0.188459
-0.201849
-0.199016
0.256124
0.270939
0.260162
0.269968
-0.197350
-0.175768
-0.159530
0.398645
0.404178
0.383647
0.198219
0.662658
0.643521
0.672055
0.692084
-0.277725
-0.288020
-0.192835
-0.192906
0.669558
0.690725
0.665181
-0.115494
-0.128923
-0.115283
-0.246937
-0.236693
0.261903
0.258110
0.269504
-0.073838
-0.081278
-0.070886
-0.079065
-0.205697
-0.212313
-0.217838
0.243464
-0.224711
-0.228839
-0.132748
-0.127270
0.426624
0.257862
0.310450
0.302459
0.325348
-0.235601
0.464842
0.447675
-0.245190
-0.252932
-0.197960
-0.194799
0.321757
0.329477
0.304947
-0.103408
-0.103374
-0.090269
0.415936
0.517165
0.496757
-0.114612
0.351841
0.365048
-0.193045
0.335305
-0.063511
-0.186808
-0.187690
0.083030
0.110727
0.090255
0.187013
0.193897
0.172640
0.179274
0.165007
0.190444
0.199255
0.200892
0.188639
0.192207
-0.114607
-0.079581
-0.084037
-0.096191
0.469137
0.439281
0.413563
-0.141567
0.474971
0.464799
-0.202210
-0.210639
0.181470
0.182982
0.172961
0.174602
-0.218249
0.253153
0.258499
-0.227285
-0.235115
0.271673
0.526379
0.559730
0.549108
0.339431
0.337895
-0.226582
-0.103602
-0.106510
-0.192660
-0.189217
0.288362
-0.128327
-0.117013
0.375034
0.361792
0.386723
-0.187038
0.282627
0.285129
-0.178876
-0.179650
-0.187541
-0.167210
-0.150098
-0.068446
-0.091147
-0.089303
-0.231566
-0.207413
-0.106705
-0.093969
-0.084867
-0.197485
-0.208078
-0.131911
-0.119093
0.552778
-0.218067
0.012617
0.018416
0.004875
0.010952
0.370455
0.179388
0.174226
0.147264
-0.103622
-0.093206
-0.103657
-0.089504
0.343564
0.332110
0.347741
0.326153
-0.229876
-0.240219
-0.058349
-0.065642
0.274272
0.266442
0.135760
0.156012
-0.201669
0.676997
0.639336
0.643144
0.608128
0.115550
0.109296
0.101313
0.431488
0.409372
0.428658
0.710469
0.684582
0.664512
-0.072636
-0.083146
-0.081483
-0.185841
-0.182119
0.347891
0.374709
0.356472
0.395819
0.566681
0.539192
-0.179640
-0.169754
-0.169770
-0.051073
0.012993
0.009667
0.031623
-0.191613
-0.204859
0.327459
0.310563
0.335107
0.200853
0.346397
0.353851
-0.217413
-0.230006
-0.244748
-0.178051
-0.173590
0.354245
0.198705
0.188343
0.199318
-0.170984
0.186187
0.486606
0.474871
0.474294
-0.159649
-0.158477
-0.185380
-0.200472
-0.058807
-0.049640
-0.214827
-0.228078
-0.240220
0.624768
0.618242
0.592555
0.599114
-0.203831
-0.213308
-0.194489
-0.170178
-0.164456
-0.028842
-0.023117
-0.027188
0.680785
0.626045
0.688168
0.701436
0.680315
0.670862
0.661986
0.461545
-0.161312
-0.148394
-0.147200
0.506552
0.519722
0.229616
0.241130
0.227097
0.235523
-0.178428
-0.195226
-0.212077
-0.039291
-0.222726
-0.238014
-0.162246
-0.155209
0.320398
0.315157
0.338576
0.611219
0.594956
0.582671
0.455456
0.461089
0.019299
0.040323
0.005804
-0.000888
-0.081028
-0.080278
-0.093121
-0.150303
-0.134663
-0.133913
0.054367
-0.108567
-0.112250
-0.123974
0.686866
0.708693
-0.171162
-0.189833
0.477704
0.423799
0.419056
0.390778
-0.206620
-0.216745
0.390861
0.360970
-0.106137
-0.111880
0.367219
0.355110
0.199622
-0.152875
-0.144541
-0.058894
-0.030438
-0.019334
-0.024532
-0.140496
-0.127053
-0.146300
-0.157653
-0.165542
-0.181749
0.337486
-0.156022
-0.171835
-0.121530
-0.155124
-0.144322
-0.146310
-0.133283
0.511116
0.148894
-0.039471
-0.272460
0.057738
0.074437
0.051346
-0.126833
-0.111847
0.207741
0.223826
-0.117262
-0.098362
-0.094538
-0.158995
-0.176169
0.210645
0.388381
0.364777
0.153730
0.152053
0.162362
0.345912
-0.196576
0.239918
-0.042587
-0.061227
0.163831
0.238203
-0.079239
-0.096631
-0.170069
-0.141629
-0.152612
-0.142262
-0.058341
-0.058561
-0.036613
0.162893
0.151295
-0.140920
-0.128276
-0.251468
-0.115244
-0.097496
-0.148414
-0.168867
-0.039382
-0.051316
-0.176608
0.546016
0.583890
0.540587
0.512284
0.591489
0.619039
0.626238
-0.131992
0.015912
-0.004203
0.060830
0.008040
0.056152
-0.128877
-0.143156
-0.114017
0.255268
0.254541
0.240924
0.776519
0.782347
0.752319
-0.133925
0.269168
0.037203
0.039909
0.026323
0.027228
0.081606
0.054853
0.080575
-0.070016
0.261845
-0.241028
-0.252893
-0.237842
0.462293
0.458185
0.443012
0.048350
0.397639
0.372297
0.405561
0.364015
0.351619
0.014378
0.579914
0.584661
0.602452
0.266508
-0.156120
-0.138730
-0.145602
-0.149089
0.564334
0.198762
0.213745
0.214404
0.196779
0.303167
0.295184
0.307951
0.683660
0.285312
-0.257333
-0.260701
-0.270542
-0.280796
-0.211701
-0.191039
-0.317238
-0.305513
-0.286626
-0.366274
-0.017455
-0.046477
-0.064916
-0.048879
-0.056168
-0.030533
-0.019142
-0.024166
-0.031410
-0.043719
-0.062052
-0.032281
-0.070498
0.096917
0.114667
0.102385
0.211213
0.225278
0.660006
0.676154
0.667455
0.669524
0.671031
0.665281
0.004075
-0.007478
0.002139
-0.010877
0.110932
-0.193105
-0.197272
-0.211714
0.495281
0.479352
-0.207969
-0.060229
0.408812
0.405369
0.432327
0.417602
0.425574
0.114328
0.077960
0.499784
-0.135110
-0.112332
-0.118965
-0.098739
-0.344179
0.673024
0.679372
-0.062653
0.565754
0.558449
0.537808
0.544904
0.553296
0.545754
0.588291
0.289131
0.297652
0.281516
0.290111
0.474876
0.171678
0.155072
0.161310
-0.250838
-0.232322
0.182709
0.174894
0.166987
0.163381
-0.146042
-0.177733
-0.149302
-0.162282
-0.187473
0.251811
0.238228
0.052193
0.078910
0.088083
0.050995
-0.132495
-0.138451
-0.149313
0.028507
0.021087
0.030072
0.015694
0.140548
0.151636
0.552493
0.541753
0.557667
0.216441
0.202675
0.199587
-0.376043
0.214929
0.597255
0.573454
-0.069824
-0.084372
-0.078735
-0.076240
-0.400119
0.272335
0.268381
0.203072
0.188523
0.185139
-0.186059
-0.191937
-0.167465
-0.175967
-0.157576
0.327120
-0.152175
-0.114982
0.707694
0.715912
0.728707
0.703862
0.689097
0.148765
0.123300
0.068176
0.055549
0.065760
0.066668
0.098614
0.090441
-0.016996
0.130279
0.269034
0.260520
0.280682
-0.081289
0.274410
-0.254566
0.254305
0.269861
0.242709
0.315537
0.322365
0.319967
0.139200
0.131871
0.146593
0.123135
0.141413
0.128529
0.357040
0.381534
0.388369
0.203146
0.205464
0.215159
0.210202
0.175590
-0.232149
-0.199532
0.376203
0.355315
0.338490
0.351532
-0.094663
-0.086848
-0.041145
-0.052294
0.295277
-0.091099
-0.081467
-0.094285
-0.099047
-0.108278
-0.112192
-0.079775
-0.097717
-0.078933
-0.006104
-0.019636
-0.058843
0.051688
0.031591
0.019393
0.004516
-0.003581
-0.012688
-0.003917
-0.015403
0.574095
0.570671
-0.098369
0.616101
0.574514
0.544456
0.506322
0.500975
0.462194
-0.107991
-0.105747
-0.117986
-0.164054
-0.152822
-0.164972
0.284250
0.286906
0.269787
0.003892
-0.006622
0.208864
0.229062
0.015119
0.009099
0.018575
0.530666
0.497310
0.534305
0.486818
0.049171
0.035625
0.050063
0.034727
0.239813
0.251405
0.267677
0.224334
0.231448
0.220565
-0.314651
0.552084
0.564752
0.557168
0.575240
0.538503
0.550216
0.251582
0.261773
0.258225
0.250521
0.264138
0.021387
0.020569
0.035468
0.020372
0.005257
0.009022
0.515112
0.518972
0.011483
0.000421
0.000251
0.764768
0.734419
-0.012756
0.231345
0.236811
0.194929
0.021318
0.487151
0.479024
0.562731
0.546183
0.517231
0.529521
0.536713
0.651394
0.614106
0.651948
0.684373
-0.073149
-0.067389
0.149445
0.156749
0.164308
0.139071
0.176608
0.171683
0.183807
-0.123641
-0.130277
-0.130125
0.401482
0.406313
0.375680
0.172375
0.158064
-0.361754
-0.364676
0.181958
0.005697
0.009227
-0.007116
0.011311
0.021795
0.028272
0.027367
-0.177596
-0.174879
-0.189625
-0.163870
-0.180841
-0.171157
-0.216576
-0.212255
-0.231078
-0.219240
0.048965
0.050776
0.203983
0.048637
0.063881
-0.136450
-0.146259
0.001713
0.019307
-0.017217
0.001179
-0.177903
-0.193730
-0.159940
-0.144115
-0.145345
-0.019448
0.014940
0.522755
0.491844
0.524288
0.494863
0.034744
0.022040
0.171727
0.175595
0.190151
0.493127
0.503074
0.515944
0.526532
0.477924
0.461637
0.453666
-0.209924
-0.001076
0.014165
0.544352
0.516145
-0.208508
-0.210627
-0.195413
0.034843
0.029038
0.050186
0.287794
0.311310
0.021689
0.074776
0.107116
-0.064591
-0.062284
-0.052952
-0.052042
0.644875
0.623129
0.612056
0.649864
0.048601
0.032894
0.065282
0.064430
0.255183
-0.206011
0.250770
0.557264
0.577573
0.550286
0.578308
0.539649
0.573757
0.547217
0.027258
0.040026
0.161859
0.144991
0.172941
0.101716
0.085172
0.108943
0.113004
0.101553
0.742579
0.752174
0.761295
0.742868
0.133833
0.128831
0.362081
0.316638
0.224320
0.224471
0.208727
0.215002
0.428290
0.446539
0.314651
0.283065
0.256994
0.288162
0.244049
-0.152018
-0.146771
-0.160843
-0.145115
-0.163307