# vtk DataFile Version 2.0
Test
ASCII
DATASET POLYDATA
POINTS 6577 float
0.000000 0.000000 0.000000
2.000000 0.000000 0.000000
2.000000 4.000000 0.000000
0.000000 4.000000 0.000000
0.000000 0.500000 0.000000
1.500000 2.000000 0.000000
2.000000 2.500000 0.000000
0.040000 0.000000 0.000000
0.080000 0.000000 0.000000
0.120000 0.000000 0.000000
0.160000 0.000000 0.000000
0.200000 0.000000 0.000000
0.240000 0.000000 0.000000
0.280000 0.000000 0.000000
0.320000 0.000000 0.000000
0.360000 0.000000 0.000000
0.400000 0.000000 0.000000
0.440000 0.000000 0.000000
0.480000 0.000000 0.000000
0.520000 0.000000 0.000000
0.560000 0.000000 0.000000
0.600000 0.000000 0.000000
0.640000 0.000000 0.000000
0.680000 0.000000 0.000000
0.720000 0.000000 0.000000
0.760000 0.000000 0.000000
0.800000 0.000000 0.000000
0.840000 0.000000 0.000000
0.880000 0.000000 0.000000
0.920000 0.000000 0.000000
0.960000 0.000000 0.000000
1.000000 0.000000 0.000000
1.040000 0.000000 0.000000
1.080000 0.000000 0.000000
1.120000 0.000000 0.000000
1.160000 0.000000 0.000000
1.200000 0.000000 0.000000
1.240000 0.000000 0.000000
1.280000 0.000000 0.000000
1.320000 0.000000 0.000000
1.360000 0.000000 0.000000
1.400000 0.000000 0.000000
1.440000 0.000000 0.000000
1.480000 0.000000 0.000000
1.520000 0.000000 0.000000
1.560000 0.000000 0.000000
1.600000 0.000000 0.000000
1.640000 0.000000 0.000000
1.680000 0.000000 0.000000
1.720000 0.000000 0.000000
1.760000 0.000000 0.000000
1.800000 0.000000 0.000000
1.840000 0.000000 0.000000
1.880000 0.000000 0.000000
1.920000 0.000000 0.000000
1.960000 0.000000 0.000000
2.000000 0.039683 0.000000
2.000000 0.079365 0.000000
2.000000 0.119048 0.000000
2.000000 0.158730 0.000000
2.000000 0.198413 0.000000
2.000000 0.238095 0.000000
2.000000 0.277778 0.000000
2.000000 0.317460 0.000000
2.000000 0.357143 0.000000
2.000000 0.396825 0.000000
2.000000 0.436508 0.000000
2.000000 0.476190 0.000000
2.000000 0.515873 0.000000
2.000000 0.555556 0.000000
2.000000 0.595238 0.000000
2.000000 0.634921 0.000000
2.000000 0.674603 0.000000
2.000000 0.714286 0.000000
2.000000 0.753968 0.000000
2.000000 0.793651 0.000000
2.000000 0.833333 0.000000
2.000000 0.873016 0.000000
2.000000 0.912698 0.000000
2.000000 0.952381 0.000000
2.000000 0.992063 0.000000
2.000000 1.031746 0.000000
2.000000 1.071429 0.000000
2.000000 1.111111 0.000000
2.000000 1.150794 0.000000
2.000000 1.190476 0.000000
2.000000 1.230159 0.000000
2.000000 1.269841 0.000000
2.000000 1.309524 0.000000
2.000000 1.349206 0.000000
2.000000 1.388889 0.000000
2.000000 1.428571 0.000000
2.000000 1.468254 0.000000
2.000000 1.507937 0.000000
2.000000 1.547619 0.000000
2.000000 1.587302 0.000000
2.000000 1.626984 0.000000
2.000000 1.666667 0.000000
2.000000 1.706349 0.000000
2.000000 1.746032 0.000000
2.000000 1.785714 0.000000
2.000000 1.825397 0.000000
2.000000 1.865079 0.000000
2.000000 1.904762 0.000000
2.000000 1.944444 0.000000
2.000000 1.984127 0.000000
2.000000 2.023810 0.000000
2.000000 2.063492 0.000000
2.000000 2.103175 0.000000
2.000000 2.142857 0.000000
2.000000 2.182540 0.000000
2.000000 2.222222 0.000000
2.000000 2.261905 0.000000
2.000000 2.301587 0.000000
2.000000 2.341270 0.000000
2.000000 2.380952 0.000000
2.000000 2.420635 0.000000
2.000000 2.460317 0.000000
2.000000 2.539474 0.000000
2.000000 2.578947 0.000000
2.000000 2.618421 0.000000
2.000000 2.657895 0.000000
2.000000 2.697368 0.000000
2.000000 2.736842 0.000000
2.000000 2.776316 0.000000
2.000000 2.815789 0.000000
2.000000 2.855263 0.000000
2.000000 2.894737 0.000000
2.000000 2.934211 0.000000
2.000000 2.973684 0.000000
2.000000 3.013158 0.000000
2.000000 3.052632 0.000000
2.000000 3.092105 0.000000
2.000000 3.131579 0.000000
2.000000 3.171053 0.000000
2.000000 3.210526 0.000000
2.000000 3.250000 0.000000
2.000000 3.289474 0.000000
2.000000 3.328947 0.000000
2.000000 3.368421 0.000000
2.000000 3.407895 0.000000
2.000000 3.447368 0.000000
2.000000 3.486842 0.000000
2.000000 3.526316 0.000000
2.000000 3.565789 0.000000
2.000000 3.605263 0.000000
2.000000 3.644737 0.000000
2.000000 3.684211 0.000000
2.000000 3.723684 0.000000
2.000000 3.763158 0.000000
2.000000 3.802632 0.000000
2.000000 3.842105 0.000000
2.000000 3.881579 0.000000
2.000000 3.921053 0.000000
2.000000 3.960526 0.000000
1.960000 4.000000 0.000000
1.920000 4.000000 0.000000
1.880000 4.000000 0.000000
1.840000 4.000000 0.000000
1.800000 4.000000 0.000000
1.760000 4.000000 0.000000
1.720000 4.000000 0.000000
1.680000 4.000000 0.000000
1.640000 4.000000 0.000000
1.600000 4.000000 0.000000
1.560000 4.000000 0.000000
1.520000 4.000000 0.000000
1.480000 4.000000 0.000000
1.440000 4.000000 0.000000
1.400000 4.000000 0.000000
1.360000 4.000000 0.000000
1.320000 4.000000 0.000000
1.280000 4.000000 0.000000
1.240000 4.000000 0.000000
1.200000 4.000000 0.000000
1.160000 4.000000 0.000000
1.120000 4.000000 0.000000
1.080000 4.000000 0.000000
1.040000 4.000000 0.000000
1.000000 4.000000 0.000000
0.960000 4.000000 0.000000
0.920000 4.000000 0.000000
0.880000 4.000000 0.000000
0.840000 4.000000 0.000000
0.800000 4.000000 0.000000
0.760000 4.000000 0.000000
0.720000 4.000000 0.000000
0.680000 4.000000 0.000000
0.640000 4.000000 0.000000
0.600000 4.000000 0.000000
0.560000 4.000000 0.000000
0.520000 4.000000 0.000000
0.480000 4.000000 0.000000
0.440000 4.000000 0.000000
0.400000 4.000000 0.000000
0.360000 4.000000 0.000000
0.320000 4.000000 0.000000
0.280000 4.000000 0.000000
0.240000 4.000000 0.000000
0.200000 4.000000 0.000000
0.160000 4.000000 0.000000
0.120000 4.000000 0.000000
0.080000 4.000000 0.000000
0.040000 4.000000 0.000000
0.000000 3.960227 0.000000
0.000000 3.920455 0.000000
0.000000 3.880682 0.000000
0.000000 3.840909 0.000000
0.000000 3.801136 0.000000
0.000000 3.761364 0.000000
0.000000 3.721591 0.000000
0.000000 3.681818 0.000000
0.000000 3.642045 0.000000
0.000000 3.602273 0.000000
0.000000 3.562500 0.000000
0.000000 3.522727 0.000000
0.000000 3.482955 0.000000
0.000000 3.443182 0.000000
0.000000 3.403409 0.000000
0.000000 3.363636 0.000000
0.000000 3.323864 0.000000
0.000000 3.284091 0.000000
0.000000 3.244318 0.000000
0.000000 3.204545 0.000000
0.000000 3.164773 0.000000
0.000000 3.125000 0.000000
0.000000 3.085227 0.000000
0.000000 3.045455 0.000000
0.000000 3.005682 0.000000
0.000000 2.965909 0.000000
0.000000 2.926136 0.000000
0.000000 2.886364 0.000000
0.000000 2.846591 0.000000
0.000000 2.806818 0.000000
0.000000 2.767045 0.000000
0.000000 2.727273 0.000000
0.000000 2.687500 0.000000
0.000000 2.647727 0.000000
0.000000 2.607955 0.000000
0.000000 2.568182 0.000000
0.000000 2.528409 0.000000
0.000000 2.488636 0.000000
0.000000 2.448864 0.000000
0.000000 2.409091 0.000000
0.000000 2.369318 0.000000
0.000000 2.329545 0.000000
0.000000 2.289773 0.000000
0.000000 2.250000 0.000000
0.000000 2.210227 0.000000
0.000000 2.170455 0.000000
0.000000 2.130682 0.000000
0.000000 2.090909 0.000000
0.000000 2.051136 0.000000
0.000000 2.011364 0.000000
0.000000 1.971591 0.000000
0.000000 1.931818 0.000000
0.000000 1.892045 0.000000
0.000000 1.852273 0.000000
0.000000 1.812500 0.000000
0.000000 1.772727 0.000000
0.000000 1.732955 0.000000
0.000000 1.693182 0.000000
0.000000 1.653409 0.000000
0.000000 1.613636 0.000000
0.000000 1.573864 0.000000
0.000000 1.534091 0.000000
0.000000 1.494318 0.000000
0.000000 1.454545 0.000000
0.000000 1.414773 0.000000
0.000000 1.375000 0.000000
0.000000 1.335227 0.000000
0.000000 1.295455 0.000000
0.000000 1.255682 0.000000
0.000000 1.215909 0.000000
0.000000 1.176136 0.000000
0.000000 1.136364 0.000000
0.000000 1.096591 0.000000
0.000000 1.056818 0.000000
0.000000 1.017045 0.000000
0.000000 0.977273 0.000000
0.000000 0.937500 0.000000
0.000000 0.897727 0.000000
0.000000 0.857955 0.000000
0.000000 0.818182 0.000000
0.000000 0.778409 0.000000
0.000000 0.738636 0.000000
0.000000 0.698864 0.000000
0.000000 0.659091 0.000000
0.000000 0.619318 0.000000
0.000000 0.579545 0.000000
0.000000 0.539773 0.000000
0.000000 0.461538 0.000000
0.000000 0.423077 0.000000
0.000000 0.384615 0.000000
0.000000 0.346154 0.000000
0.000000 0.307692 0.000000
0.000000 0.269231 0.000000
0.000000 0.230769 0.000000
0.000000 0.192308 0.000000
0.000000 0.153846 0.000000
0.000000 0.115385 0.000000
0.000000 0.076923 0.000000
0.000000 0.038462 0.000000
0.027778 0.527778 0.000000
0.055556 0.555556 0.000000
0.083333 0.583333 0.000000
0.111111 0.611111 0.000000
0.138889 0.638889 0.000000
0.166667 0.666667 0.000000
0.194444 0.694444 0.000000
0.222222 0.722222 0.000000
0.250000 0.750000 0.000000
0.277778 0.777778 0.000000
0.305556 0.805556 0.000000
0.333333 0.833333 0.000000
0.361111 0.861111 0.000000
0.388889 0.888889 0.000000
0.416667 0.916667 0.000000
0.444444 0.944444 0.000000
0.472222 0.972222 0.000000
0.500000 1.000000 0.000000
0.527778 1.027778 0.000000
0.555556 1.055556 0.000000
0.583333 1.083333 0.000000
0.611111 1.111111 0.000000
0.638889 1.138889 0.000000
0.666667 1.166667 0.000000
0.694444 1.194444 0.000000
0.722222 1.222222 0.000000
0.750000 1.250000 0.000000
0.777778 1.277778 0.000000
0.805556 1.305556 0.000000
0.833333 1.333333 0.000000
0.861111 1.361111 0.000000
0.888889 1.388889 0.000000
0.916667 1.416667 0.000000
0.944444 1.444444 0.000000
0.972222 1.472222 0.000000
1.000000 1.500000 0.000000
1.027778 1.527778 0.000000
1.055556 1.555556 0.000000
1.083333 1.583333 0.000000
1.111111 1.611111 0.000000
1.138889 1.638889 0.000000
1.166667 1.666667 0.000000
1.194444 1.694444 0.000000
1.222222 1.722222 0.000000
1.250000 1.750000 0.000000
1.277778 1.777778 0.000000
1.305556 1.805556 0.000000
1.333333 1.833333 0.000000
1.361111 1.861111 0.000000
1.388889 1.888889 0.000000
1.416667 1.916667 0.000000
1.444444 1.944444 0.000000
1.472222 1.972222 0.000000
1.527778 2.027778 0.000000
1.555556 2.055556 0.000000
1.583333 2.083333 0.000000
1.611111 2.111111 0.000000
1.638889 2.138889 0.000000
1.666667 2.166667 0.000000
1.694444 2.194444 0.000000
1.722222 2.222222 0.000000
1.750000 2.250000 0.000000
1.777778 2.277778 0.000000
1.805556 2.305556 0.000000
[...]
POINT_DATA 6577
SCALARS UX float 1
LOOKUP_TABLE default
-0.000108
0.000154
-0.057234
-0.796555
-0.695665
0.408314
0.539914
0.000026
-0.000007
-0.000002
0.000002
-0.000004
-0.000015
0.000002
0.000002
0.000004
0.000002
-0.000000
0.000005
0.000001
0.000002
-0.000001
0.000001
-0.000002
-0.000001
0.000000
-0.000001
-0.000001
0.000000
0.000000
0.000001
0.000000
-0.000000
0.000000
0.000000
0.000000
-0.000000
-0.000000
0.000001
-0.000002
-0.000000
0.000000
-0.000000
0.000001
0.000000
0.000000
-0.000001
-0.000001
-0.000000
-0.000001
0.000002
-0.000002
0.000002
-0.000001
-0.000001
-0.000020
0.027434
0.044454
0.057889
0.068572
0.077897
0.086828
0.095010
0.103660
0.112686
0.121838
0.131793
0.142527
0.151961
0.159982
0.167543
0.175252
0.183403
0.191506
0.199848
0.208730
0.217886
0.228658
0.240224
0.251738
0.266337
0.283116
0.301526
0.323184
0.348106
0.375294
0.406771
0.440090
0.472417
0.507663
0.538742
0.572029
0.602797
0.633510
0.660201
0.683077
0.702498
0.717885
0.730139
0.739081
0.745852
0.750952
0.754660
0.756895
0.756800
0.753980
0.747422
0.735804
0.716756
0.692058
0.665681
0.638505
0.615776
0.592942
0.576497
0.571586
0.566205
0.553842
0.516183
0.477364
0.449812
0.407138
0.274905
0.240151
0.218596
0.198519
0.177037
0.161821
0.160519
0.221722
0.292025
0.342171
0.251415
0.181538
0.141241
0.103676
0.061586
0.051859
0.041384
0.033691
0.015887
-0.001734
-0.018001
-0.023395
-0.011861
0.012958
0.019033
-0.010465
-0.013227
-0.018628
-0.012915
-0.013814
-0.014977
-0.027889
-0.052282
-0.070611
-0.085514
-0.099700
-0.113982
-0.127840
-0.141723
-0.155915
-0.170681
-0.185282
-0.199926
-0.215232
-0.230294
-0.245035
-0.259893
-0.274518
-0.288986
-0.303053
-0.316838
-0.330503
-0.344196
-0.357653
-0.370863
-0.384800
-0.398517
-0.412816
-0.427461
-0.442687
-0.458918
-0.475894
-0.493851
-0.512297
-0.530718
-0.549251
-0.566281
-0.583368
-0.600015
-0.617270
-0.633669
-0.649155
-0.664706
-0.679640
-0.694241
-0.708471
-0.722550
-0.735451
-0.747911
-0.760252
-0.772287
-0.784314
-0.796251
-0.793382
-0.789636
-0.784539
-0.778002
-0.771433
-0.765204
-0.758745
-0.753537
-0.747772
-0.741393
-0.734138
-0.726167
-0.718830
-0.706961
-0.696940
-0.687085
-0.678022
-0.669626
-0.658111
-0.647946
-0.637059
-0.624921
-0.613292
-0.602937
-0.591050
-0.581695
-0.571866
-0.564767
-0.554934
-0.547235
-0.539537
-0.533410
-0.527739
-0.520426
-0.514207
-0.506064
-0.498671
-0.492248
-0.484579
-0.474632
-0.465558
-0.457053
-0.450307
-0.444801
-0.442888
-0.442645
-0.445356
-0.451656
-0.460924
-0.473491
-0.488693
-0.503210
-0.512093
-0.519765
-0.525540
-0.530264
-0.535480
-0.540370
-0.542167
-0.549739
-0.557487
-0.566703
-0.577222
-0.589895
-0.602789
-0.617091
-0.631133
-0.645798
-0.659873
-0.672788
-0.683089
-0.690863
-0.695173
-0.695877
-0.692160
-0.684287
-0.672173
-0.655556
-0.635121
-0.612731
-0.590678
-0.571845
-0.557168
-0.545870
-0.503268
-0.481489
-0.199727
-0.189801
-0.185730
-0.178553
-0.170339
-0.160841
-0.150027
-0.139799
-0.128118
-0.117310
-0.106377
-0.055429
-0.531955
-0.406308
-0.330410
-0.508247
-0.480154
-0.258213
-0.460897
-0.390879
-0.313607
-0.292852
-0.259308
-0.255389
-0.658941
-0.630243
-0.694362
-0.682765
-0.677587
-0.706283
-0.689798
-0.756476
-0.471674
-0.353565
-0.191985
-0.378352
-0.047221
0.124938
0.473838
-0.960817
-0.378458
-0.235731
-0.218106
-0.111756
-0.114048
-0.136728
-0.735540
0.094625
0.107546
0.083493
0.022015
0.144474
0.132486
0.183148
0.182247
-0.108633
0.374971
0.222355
0.193991
0.042075
0.237602
0.488868
0.527605
0.388102
0.081282
0.520524
0.512208
0.504454
0.494121
0.475175
0.470067
0.463421
0.445547
0.443021
0.462897
0.474364
0.476000
0.486357
0.494437
0.504001
0.516813
0.531156
0.457690
0.406889
-0.781319
-0.784721
-0.055528
-0.043915
0.498889
0.497787
0.465295
0.223428
0.197650
-0.184489
-0.198035
-0.200463
0.128208
0.120081
0.142285
-0.210648
-0.303249
-0.285979
-0.296175
-0.232545
-0.222613
-0.220024
-0.722855
-0.722110
-0.711395
-0.713687
-0.727588
-0.718689
-0.229821
-0.126059
-0.105450
-0.113757
-0.231934
-0.242238
-0.229506
-0.625448
-0.612609
-0.610641
-0.298774
-0.271021
-0.270684
-0.282806
-0.139720
-0.159376
-0.146512
-0.238617
-0.237059
-0.248769
-0.245197
-0.603657
-0.617154
-0.608108
-0.617421
-0.585465
-0.596946
-0.583863
-0.594393
-0.256415
-0.241334
-0.250787
-0.167489
-0.050100
-0.082005
-0.052100
0.413760
0.439571
-0.070166
-0.369515
-0.372540
-0.350779
-0.390206
-0.566930
-0.558147
-0.550935
-0.302476
-0.315400
-0.303497
-0.313335
0.249459
0.254857
0.263724
0.259797
-0.424795
-0.442792
-0.431876
-0.440293
-0.352362
-0.336911
-0.343161
-0.284444
-0.257377
-0.260139
0.347808
0.430412
0.315593
0.397222
0.226066
0.255760
0.174295
-0.351555
-0.372279
-0.382063
0.161773
0.140623
0.164476
0.131035
-0.347472
-0.707646
-0.715954
-0.705139
-0.466930
-0.456560
-0.452577
-0.474952
-0.494709
-0.501090
-0.487299
-0.491056
-0.315866
-0.297449
-0.316712
-0.402554
-0.406931
-0.416952
-0.114355
-0.138578
-0.130915
0.294369
0.350609
0.336894
0.422452
-0.143887
-0.113373
-0.129500
-0.123470
-0.148613
-0.138464
-0.271238
-0.245311
-0.493128
-0.487740
-0.480370
-0.546257
-0.534622
-0.539943
-0.501965
-0.397609
-0.412743
-0.396379
-0.664068
-0.665369
-0.674113
-0.291102
-0.155003
-0.153986
-0.173637
-0.434499
-0.427940
-0.436178
-0.567011
-0.568237
-0.546549
0.142310
0.161746
0.121359
0.157642
-0.221002
-0.228030
-0.222519
-0.233394
0.330755
0.342828
-0.404454
-0.393556
-0.403771
-0.389347
-0.640629
-0.653604
-0.640144
-0.232271
-0.226772
-0.242014
-0.101537
-0.126650
-0.107038
-0.218129
-0.657381
-0.579282
-0.558731
-0.567843
-0.279763
-0.294721
-0.296167
-0.312691
-0.571679
-0.518452
-0.522363
-0.475031
-0.467475
-0.484846
-0.684912
-0.683658
0.076174
0.071618
0.054791
-0.577439
-0.590027
-0.593224
-0.447237
-0.440458
-0.424953
-0.564981
-0.577364
-0.586161
-0.418368
-0.581138
-0.593667
-0.601066
-0.096341
-0.156823
-0.169894
-0.098745
-0.684088
-0.697824
-0.686120
-0.700408
-0.775560
-0.776983
-0.068670
-0.075686
0.075224
0.112516
0.123828
0.086905
-0.526235
-0.525706
-0.511897
-0.604588
-0.610319
-0.623188
-0.507895
0.001537
-0.012044
-0.034315
-0.574679
-0.582811
-0.632742
-0.620935
-0.618701
-0.025190
-0.036715
0.181195
0.191523
0.283700
0.308093
-0.421898
-0.437701
-0.430878
-0.448521
-0.684007
-0.678355
-0.682306
-0.678056
-0.627470
-0.642617
-0.637703
-0.600423
-0.581758
-0.668123
-0.663874
-0.676230
-0.592380
-0.599264
-0.614647
-0.621402
-0.601440
-0.542068
-0.549463
-0.107891
-0.092981
-0.555725
-0.556291
-0.561896
-0.754060
-0.332638
-0.345922
-0.331121
-0.570002
-0.648924
0.241317
0.210547
0.226536
0.226279
-0.216188
-0.206365
-0.210009
-0.062968
-0.057846
-0.083415
-0.056789
-0.012301
-0.169954
-0.157612
-0.151696
-0.033900
-0.003182
0.005420
-0.020673
-0.593563
-0.610825
-0.608788
-0.653568
-0.651599
-0.640407
-0.185957
-0.380792
-0.397299
-0.381070
-0.556987
-0.567916
-0.568187
-0.589236
-0.598318
-0.171403
-0.577101
-0.550828
-0.610946
-0.616227
-0.632993
-0.581793
-0.595249
-0.636070
-0.632649
-0.620465
-0.641907
-0.336799
-0.333208
-0.349278
-0.088996
-0.082471
-0.587620
-0.530352
-0.541523
-0.547009
-0.564223
-0.304725
-0.774171
-0.674528
-0.670682
-0.665084
-0.661484
-0.654616
-0.035989
-0.270360
-0.260034
-0.766760
-0.766977
-0.577451
-0.595412
-0.079624
-0.066737
-0.129618
-0.112019
-0.543806
-0.268433
-0.261178
-0.256314
-0.246021
-0.572816
-0.561161
-0.576727
-0.584984
-0.569342
-0.592448
-0.625342
-0.622239
-0.522284
-0.648550
-0.575827
-0.119519
-0.245086
-0.260712
-0.244584
-0.743155
-0.655307
-0.640453
-0.660456
-0.766756
-0.605760
-0.593287
-0.592288
-0.260780
-0.246594
-0.107950
-0.095584
-0.102505
-0.531559
-0.507387
0.082167
0.097080
-0.757163
-0.758313
-0.750555
-0.556112
-0.542300
-0.625863
-0.639497
-0.642693
-0.605132
-0.530925
-0.518698
-0.532652
-0.171187
-0.179103
-0.161623
-0.534238
-0.548148
-0.578455
-0.579183
-0.555561
-0.664874
-0.542661
0.018137
0.041543
-0.568256
-0.769123
-0.668989
-0.656456
-0.675119
-0.758241
-0.758672
0.177112
0.177310
0.192332
-0.529905
-0.037318
-0.073227
-0.058473
-0.085959
-0.630017
-0.642706
-0.654343
-0.618377
-0.504435
-0.518335
-0.595262
-0.613795
-0.556382
-0.518871
-0.538577
-0.677051
-0.367488
-0.361044
-0.350380
-0.129317
-0.382326
-0.379083
-0.390985
-0.733971
0.185883
-0.117767
-0.117078
-0.102387
-0.678245
-0.667734
-0.685652
-0.742242
-0.745093
-0.750436
-0.625579
-0.658851
-0.663471
-0.611986
-0.685566
-0.180346
-0.186873
-0.601574
-0.609156
0.189866
0.256205
0.344450
0.346943
-0.760478
-0.761705
-0.750323
-0.749280
-0.062017
-0.040820
-0.177914
-0.172394
-0.181199
-0.189722
-0.687207
-0.682741
-0.672978
-0.550782
-0.077291
-0.091850
-0.682729
-0.674429
-0.692626
-0.666405
-0.665616
-0.668665
-0.646221
-0.575144
-0.130402
-0.140120
-0.193321
-0.733366
-0.723534
-0.303275
-0.293001
-0.305135
-0.688729
-0.127905
-0.110597
-0.730739
-0.740014
-0.678143
-0.692070
-0.521278
-0.564776
0.471652
0.428058
-0.541307
-0.322742
-0.051699
-0.110251
-0.045499
-0.660778
-0.668153
-0.673386
-0.655712
-0.179633
-0.168481
-0.167632
-0.749781
-0.295222
-0.130533
-0.740569
-0.740037
-0.749903
-0.064227
-0.042850
-0.258273
-0.243011
-0.253876
-0.082526
-0.097562
-0.687944
-0.246627
-0.267077
0.256261
0.297164
0.249814
-0.669001
-0.677806
-0.664768
-0.675018
-0.171113
-0.518392
0.263709
0.379354
-0.165681
-0.492762
-0.508634
-0.653616
-0.661672
-0.512028
-0.527595
-0.666178
-0.672248
-0.661326
-0.140325
0.344892
-0.067147
-0.039361
-0.069015
-0.721529
-0.035625
-0.222229
-0.217594
-0.237673
-0.136227
-0.117678
-0.151258
-0.720158
-0.728635
-0.712125
-0.562142
-0.684571
-0.576575
0.184638
0.203634
0.204292
0.186580
-0.150186
-0.673549
-0.535871
-0.662236
-0.551135
-0.136399
-0.676978
-0.674490
-0.663046
-0.663946
-0.668487
-0.653356
-0.658118
-0.503738
0.037651
-0.022290
-0.048260
-0.019219
-0.404539
-0.409535
-0.399119
-0.400568
0.238076
-0.138271
-0.154004
-0.736953
-0.688944
0.099926
0.088176
0.104682
-0.729554
-0.731814
-0.740398
-0.065504
-0.477503
-0.491738
-0.088894
-0.100034
-0.050519
0.114826
0.102084
0.030096
-0.004837
-0.003130
-0.490133
-0.509931
-0.528561
0.114024
-0.583762
-0.151292
-0.520945
-0.547551
-0.497171
-0.710607
-0.189634
-0.548179
-0.254576
-0.241861
-0.252881
-0.145710
-0.239716
-0.163536
-0.709802
-0.267916
-0.252931
-0.699328
-0.267591
-0.444736
-0.438665
-0.451948
-0.353450
0.178081
-0.520570
-0.298986
-0.279993
-0.257955
-0.433388
-0.123151
-0.134509
-0.141876
-0.292226
-0.280029
-0.465088
-0.483510
-0.710614
-0.709680
-0.697059
-0.153849
-0.507666
-0.502536
-0.488248
-0.505998
-0.301285
-0.289671
-0.549364
-0.563566
-0.516396
-0.532197
-0.673320
-0.686371
-0.672041
-0.107762
-0.102406
-0.085307
-0.118832
-0.475564
0.148749
0.193589
0.063725
-0.448624
-0.464295
-0.460491
-0.476134
0.081030
-0.369121
-0.359727
-0.370211
-0.498020
-0.235557
-0.251734
-0.163849
-0.666369
-0.668793
-0.657289
-0.490915
-0.521298
-0.248541
-0.696197
-0.154781
-0.132483
-0.126191
-0.678354
-0.693373
-0.471476
-0.263695
0.029902
-0.005606
-0.217316
-0.227463
-0.218922
-0.040897
-0.407583
-0.420858
-0.422323
-0.401569
-0.135242
-0.138977
0.189058
0.308986
-0.059732
-0.083686
-0.071035
-0.144597
-0.149777
-0.143037
-0.099255
-0.358410
-0.291025
-0.305731
-0.296088
-0.698892
-0.691340
-0.689441
-0.436789
-0.453484
-0.279816
-0.266271
-0.278415
-0.619665
-0.614251
-0.626243
-0.535252
-0.499285
-0.463925
-0.480967
-0.498199
-0.515372
-0.686074
-0.045706
-0.010861
-0.034053
-0.419593
-0.431351
-0.446358
-0.424356
-0.436000
-0.429226
-0.695035
-0.710882
-0.710558
-0.694499
-0.432187
-0.447076
-0.306660
-0.330522
-0.415163
-0.405215
-0.401788
-0.466976
-0.699558
-0.655315
-0.670455
-0.653508
-0.460744
0.195856
-0.490445
-0.445850
-0.409251
-0.427537
-0.149809
-0.157854
-0.153400
-0.395041
-0.411637
-0.440836
-0.459566
-0.479141
-0.676384
-0.644856
-0.656049
-0.654805
-0.648576
-0.481459
-0.502943
-0.017441
-0.037034
-0.028885
-0.056064
-0.391482
-0.402890
-0.417153
-0.406583
-0.420113
-0.659751
-0.660915
-0.412434
-0.403617
-0.411585
-0.400657
-0.303043
-0.286923
-0.295456
-0.165147
-0.436384
-0.429837
-0.457714
-0.421619
-0.381911
-0.401265
-0.643171
-0.252695
-0.259365
-0.243306
-0.292012
-0.419898
-0.439064
-0.460068
-0.464818
-0.487835
-0.658528
-0.363748
-0.374788
-0.258930
-0.246442
-0.254520
-0.248278
-0.388732
-0.647811
-0.642376
-0.154329
-0.144455
-0.155536
-0.306067
0.083310
0.073868
0.092476
0.106906
-0.354655
-0.365687
-0.380305
-0.405096
0.131783
0.158178
0.139770
-0.637577
-0.647385
-0.643801
-0.681325
-0.680601
-0.257356
-0.261470
-0.254121
-0.605493
-0.616621
-0.603067
-0.614814
-0.354697
-0.374733
-0.396887
-0.268343
-0.400523
-0.418837
-0.633636
-0.637285
-0.026249
-0.032973
-0.225953
-0.229665
-0.211989
-0.441617
0.204331
0.019116
-0.448574
-0.473871
-0.335993
-0.346926
-0.211690
-0.206717
-0.224204
-0.633212
-0.638359
-0.625411
-0.061236
-0.076720
-0.079396
-0.629787
-0.188910
-0.176305
-0.360772
-0.201659
-0.591311
-0.351618
-0.372466
-0.216348
-0.205505
-0.226266
-0.315096
-0.309266
-0.329078
-0.322680
-0.334592
-0.314025
-0.267025
-0.278211
-0.279170
-0.290280
-0.648878
-0.607906
-0.608854
-0.620982
-0.114214
-0.130218
-0.150450
-0.631513
0.029731
0.037201
-0.327321
-0.348855
-0.264224
-0.273259
-0.273713
-0.286316
-0.373682
-0.262698
-0.259197
-0.385460
-0.419635
-0.264779
-0.169421
-0.156830
-0.160945
-0.201616
-0.200888
-0.667713
-0.623700
-0.631666
-0.307764
-0.318786
-0.239901
-0.624404
-0.623000
-0.167453
-0.185363
-0.168953
-0.332675
-0.237116
-0.234390
-0.323131
-0.343724
-0.645718
-0.637340
-0.630275
-0.598242
-0.629580
-0.627538
-0.640020
-0.623361
-0.209711
-0.186069
-0.155611
-0.299767
-0.323297
-0.617461
-0.615896
-0.160915
-0.352152
-0.494797
-0.481028
-0.498466
-0.487414
-0.185270
-0.014088
-0.043043
-0.049146
-0.612650
-0.606816
-0.617818
-0.609359
-0.201432
-0.215035
-0.200835
-0.216085
-0.366520
-0.399740
-0.585547
-0.597235
-0.245944
-0.252650
-0.029072
-0.072753
-0.646041
-0.015322
-0.036345
-0.030187
-0.056899
-0.385718
-0.387966
-0.400651
0.130719
0.135388
0.157285
0.013770
0.007077
-0.010259
-0.607610
-0.621067
-0.619421
-0.279300
-0.290033
-0.258585
-0.238670
-0.237640
0.101508
-0.042055
-0.055389
-0.304012
-0.294233
-0.315358
-0.574259
-0.305024
-0.293592
-0.291636
-0.273046
-0.298145
-0.270381
-0.288300
-0.280337
-0.304519
-0.085899
-0.065122
-0.329816
-0.344648
-0.380636
-0.252321
-0.261331
-0.093297
-0.248776
-0.252545
-0.236395
-0.275064
-0.242532
0.163344
0.140326
0.163158
-0.264946
-0.284010
-0.249390
-0.274613
-0.589527
-0.578311
-0.306023
-0.322023
-0.352939
0.382903
0.355318
0.282873
0.273815
-0.627837
-0.641928
-0.629692
-0.228419
-0.233851
-0.543321
-0.534718
-0.540982
-0.009292
-0.035703
0.130272
0.141499
0.106196
0.084680
0.077136
0.141118
-0.247598
-0.234331
-0.250196
0.189924
0.190205
-0.301230
-0.288408
-0.298706
-0.289086
-0.229607
-0.254492
-0.286365
-0.558155
-0.299770
-0.331485
-0.207742
-0.208743
-0.227858
-0.228679
-0.213155
-0.044799
-0.053926
-0.068562
0.047076
0.072032
-0.007045
0.014328
-0.493145
-0.503197
-0.598090
-0.592502
-0.600217
-0.218588
-0.199067
-0.215067
0.017279
-0.527141
-0.535118
-0.539418
0.089112
0.122348
-0.212944
-0.242815
0.108982
0.083897
0.056356
0.045662
-0.269903
-0.283252
0.018679
0.007780
-0.608587
-0.605208
-0.193447
-0.198993
-0.308504
-0.187793
-0.185775
-0.589984
-0.553681
-0.540287
-0.550296
-0.192483
-0.177626
-0.683512
-0.699124
-0.202609
-0.228711
-0.200131
-0.624926
-0.632913
-0.663943
-0.701972
-0.692462
-0.178011
-0.165431
-0.091451
0.061517
-0.077109
-0.347485
0.036909
0.048269
0.029751
-0.168207
-0.153972
-0.251207
-0.229726
-0.600062
-0.590690
-0.595239
-0.200828
-0.223087
-0.234657
-0.182251
-0.198639
-0.287918
-0.273876
-0.271887
-0.210201
-0.508104
-0.228685
-0.079087
-0.103342
-0.287040
-0.213394
-0.551510
-0.566039
-0.381990
-0.324124
-0.354448
-0.321322
-0.376544
-0.370658
-0.357124
-0.300866
-0.301971
-0.176069
-0.155753
-0.322219
-0.144639
-0.128933
-0.194623
-0.219307
-0.366694
-0.381229
-0.629396
0.257474
0.281248
0.268166
0.257709
-0.075625
-0.055821
-0.041624
-0.548826
0.000914
-0.007378
0.024422
-0.006136
0.024201
-0.409422
-0.404646
-0.389921
-0.148208
-0.162895
-0.168082
0.069812
0.062684
0.031504
-0.189395
-0.143355
-0.482008
-0.472507
-0.492072
-0.481697
-0.363679
-0.372191
-0.359112
-0.103996
-0.263550
-0.635763
-0.642800
-0.627272
-0.208690
-0.211761
-0.221327
-0.368083
-0.066446
-0.093403
-0.042136
-0.117379
-0.112896
-0.501640
0.129292
0.168883
0.154870
-0.131663
-0.524549
-0.509351
-0.520043
-0.511654
0.143533
-0.169323
-0.145639
-0.162457
-0.152699
-0.255584
-0.272742
-0.261854
0.219496
-0.273936
-0.362478
-0.372089
-0.371216
-0.381923
-0.531015
-0.517182
-0.400299
-0.389787
-0.367676
-0.437255
-0.107415
-0.522095
-0.531304
-0.516696
-0.533634
-0.548444
-0.537403
-0.545315
-0.545767
-0.357671
-0.364471
-0.348457
-0.374404
-0.257891
-0.255776
-0.268921
0.071554
0.083893
0.072321
0.102260
0.088957
0.086036
0.099419
0.079226
-0.510677
-0.526414
-0.519006
-0.534508
-0.243437
-0.558535
-0.568284
-0.574670
0.033400
0.004357
-0.565222
-0.108342
-0.011112
-0.000133
0.027815
0.030176
-0.003616
-0.344877
-0.353729
0.064514
-0.594094
-0.580843
-0.591969
-0.582631
-0.426708
0.205048
0.190293
-0.138014
-0.084291
-0.086797
-0.118826
0.188149
0.196819
0.166213
-0.072205
-0.124064
-0.129443
-0.142256
-0.148856
-0.200763
-0.362597
-0.372030
-0.379041
-0.350567
-0.342478
-0.232496
-0.246844
-0.241798
-0.257889
-0.372866
-0.376664
-0.365480
-0.385296
-0.389422
-0.299322
-0.313321
-0.331094
-0.315362
-0.317174
-0.326269
-0.223576
-0.236349
-0.236741
-0.426960
-0.423841
-0.416062
-0.435407
-0.271998
-0.257285
0.163680
0.133633
0.193508
-0.318777
-0.325785
-0.337744
-0.543702
-0.311406
-0.062870
-0.095977
-0.419753
-0.431699
-0.417810
-0.434755
-0.486267
-0.294974
-0.285589
-0.318404
-0.334364
-0.344836
-0.615263
-0.612504
-0.600924
-0.613647
-0.603824
-0.224686
-0.229476
-0.222372
-0.071006
-0.035430
-0.022422
-0.061640
-0.091996
-0.390738
-0.375786
-0.422617
-0.437099
-0.427866
0.035270
0.057466
0.043071
-0.044257
0.064801
-0.230918
-0.220439
-0.215099
-0.587415
-0.203225
-0.327305
-0.178131
-0.158928
-0.179903
-0.267976
-0.247824
-0.240886
-0.304965
-0.316026
-0.315426
-0.309193
-0.292537
-0.296943
-0.142924
-0.123726
-0.096426
-0.289095
-0.300518
-0.275977
-0.264373
-0.258804
-0.491549
-0.484641
-0.214847
-0.220718
-0.226131
-0.210432
-0.373402
-0.375746
-0.390444
-0.393495
0.133204
-0.447400
-0.449102
-0.459661
-0.471079
-0.471290
-0.483892
-0.404535
-0.410704
-0.388702
-0.524593
-0.533133
-0.359002
-0.232696
-0.248642
-0.242894
-0.259378
-0.415493
-0.417389
-0.404219
-0.429880
0.228467
0.244256
-0.443491
0.354703
-0.080325
-0.095419
-0.116310
-0.117085
-0.146594
-0.449741
-0.438940
-0.449426
-0.511526
-0.507256
-0.521012
-0.171231
-0.186461
-0.190521
-0.418162
-0.428996
-0.127397
-0.104019
-0.409004
-0.421295
-0.417019
-0.186476
-0.190232
-0.179018
-0.195327
-0.487394
-0.499346
-0.489550
-0.497637
-0.196611
-0.196067
-0.175656
-0.213866
-0.196479
-0.203653
-0.405052
0.106134
0.110690
0.080530
0.089023
0.101297
0.135002
-0.320942
-0.315375
-0.305547
-0.333133
-0.325005
-0.510437
-0.512344
-0.500864
-0.509898
-0.525069
-0.519563
0.038137
0.067164
-0.519833
-0.529691
-0.528802
0.117905
0.027823
-0.541452
0.105179
0.107908
0.089514
-0.511571
0.240651
0.244994
0.059886
0.048501
0.089406
0.106855
0.064757
-0.093067
-0.099775
-0.119184
-0.087748
-0.450200
-0.435619
-0.351152
-0.348067
-0.339059
-0.362516
-0.329301
-0.331134
-0.321252
-0.497735
-0.496530
-0.509789
-0.131983
-0.097969
-0.147734
-0.303086
-0.315211
-0.455600
-0.446761
-0.291965
-0.513477
-0.513758
-0.529295
-0.506385
-0.501907
-0.493561
-0.500994
-0.549789
-0.541873
-0.547688
-0.541915
-0.556601
-0.551806
-0.593542
-0.593422
-0.609140
-0.603460
-0.471951
-0.463860
0.095381
-0.478462
-0.460103
-0.689844
-0.701435
-0.510482
-0.496515
-0.523054
-0.506476
-0.496649
-0.495882
-0.478737
-0.459053
-0.473941
-0.518349
-0.493524
-0.013049
-0.025836
0.018231
-0.060413
-0.494413
-0.505750
-0.351847
-0.339162
-0.326674
0.229145
0.240713
0.233595
0.246573
0.217321
0.216940
0.206730
-0.360714
-0.527109