# vtk DataFile Version 2.0
Test
ASCII
DATASET POLYDATA
POINTS 6577 float
0.000000 0.000000 0.000000
2.000000 0.000000 0.000000
2.000000 4.000000 0.000000
0.000000 4.000000 0.000000
0.000000 0.500000 0.000000
1.500000 2.000000 0.000000
2.000000 2.500000 0.000000
0.040000 0.000000 0.000000
0.080000 0.000000 0.000000
0.120000 0.000000 0.000000
0.160000 0.000000 0.000000
0.200000 0.000000 0.000000
0.240000 0.000000 0.000000
0.280000 0.000000 0.000000
0.320000 0.000000 0.000000
0.360000 0.000000 0.000000
0.400000 0.000000 0.000000
0.440000 0.000000 0.000000
0.480000 0.000000 0.000000
0.520000 0.000000 0.000000
0.560000 0.000000 0.000000
0.600000 0.000000 0.000000
0.640000 0.000000 0.000000
0.680000 0.000000 0.000000
0.720000 0.000000 0.000000
0.760000 0.000000 0.000000
0.800000 0.000000 0.000000
0.840000 0.000000 0.000000
0.880000 0.000000 0.000000
0.920000 0.000000 0.000000
0.960000 0.000000 0.000000
1.000000 0.000000 0.000000
1.040000 0.000000 0.000000
1.080000 0.000000 0.000000
1.120000 0.000000 0.000000
1.160000 0.000000 0.000000
1.200000 0.000000 0.000000
1.240000 0.000000 0.000000
1.280000 0.000000 0.000000
1.320000 0.000000 0.000000
1.360000 0.000000 0.000000
1.400000 0.000000 0.000000
1.440000 0.000000 0.000000
1.480000 0.000000 0.000000
1.520000 0.000000 0.000000
1.560000 0.000000 0.000000
1.600000 0.000000 0.000000
1.640000 0.000000 0.000000
1.680000 0.000000 0.000000
1.720000 0.000000 0.000000
1.760000 0.000000 0.000000
1.800000 0.000000 0.000000
1.840000 0.000000 0.000000
1.880000 0.000000 0.000000
1.920000 0.000000 0.000000
1.960000 0.000000 0.000000
2.000000 0.039683 0.000000
2.000000 0.079365 0.000000
2.000000 0.119048 0.000000
2.000000 0.158730 0.000000
2.000000 0.198413 0.000000
2.000000 0.238095 0.000000
2.000000 0.277778 0.000000
2.000000 0.317460 0.000000
2.000000 0.357143 0.000000
2.000000 0.396825 0.000000
2.000000 0.436508 0.000000
2.000000 0.476190 0.000000
2.000000 0.515873 0.000000
2.000000 0.555556 0.000000
2.000000 0.595238 0.000000
2.000000 0.634921 0.000000
2.000000 0.674603 0.000000
2.000000 0.714286 0.000000
2.000000 0.753968 0.000000
2.000000 0.793651 0.000000
2.000000 0.833333 0.000000
2.000000 0.873016 0.000000
2.000000 0.912698 0.000000
2.000000 0.952381 0.000000
2.000000 0.992063 0.000000
2.000000 1.031746 0.000000
2.000000 1.071429 0.000000
2.000000 1.111111 0.000000
2.000000 1.150794 0.000000
2.000000 1.190476 0.000000
2.000000 1.230159 0.000000
2.000000 1.269841 0.000000
2.000000 1.309524 0.000000
2.000000 1.349206 0.000000
2.000000 1.388889 0.000000
2.000000 1.428571 0.000000
2.000000 1.468254 0.000000
2.000000 1.507937 0.000000
2.000000 1.547619 0.000000
2.000000 1.587302 0.000000
2.000000 1.626984 0.000000
2.000000 1.666667 0.000000
2.000000 1.706349 0.000000
2.000000 1.746032 0.000000
2.000000 1.785714 0.000000
2.000000 1.825397 0.000000
2.000000 1.865079 0.000000
2.000000 1.904762 0.000000
2.000000 1.944444 0.000000
2.000000 1.984127 0.000000
2.000000 2.023810 0.000000
2.000000 2.063492 0.000000
2.000000 2.103175 0.000000
2.000000 2.142857 0.000000
2.000000 2.182540 0.000000
2.000000 2.222222 0.000000
2.000000 2.261905 0.000000
2.000000 2.301587 0.000000
2.000000 2.341270 0.000000
2.000000 2.380952 0.000000
2.000000 2.420635 0.000000
2.000000 2.460317 0.000000
2.000000 2.539474 0.000000
2.000000 2.578947 0.000000
2.000000 2.618421 0.000000
2.000000 2.657895 0.000000
2.000000 2.697368 0.000000
2.000000 2.736842 0.000000
2.000000 2.776316 0.000000
2.000000 2.815789 0.000000
2.000000 2.855263 0.000000
2.000000 2.894737 0.000000
2.000000 2.934211 0.000000
2.000000 2.973684 0.000000
2.000000 3.013158 0.000000
2.000000 3.052632 0.000000
2.000000 3.092105 0.000000
2.000000 3.131579 0.000000
2.000000 3.171053 0.000000
2.000000 3.210526 0.000000
2.000000 3.250000 0.000000
2.000000 3.289474 0.000000
2.000000 3.328947 0.000000
2.000000 3.368421 0.000000
2.000000 3.407895 0.000000
2.000000 3.447368 0.000000
2.000000 3.486842 0.000000
2.000000 3.526316 0.000000
2.000000 3.565789 0.000000
2.000000 3.605263 0.000000
2.000000 3.644737 0.000000
2.000000 3.684211 0.000000
2.000000 3.723684 0.000000
2.000000 3.763158 0.000000
2.000000 3.802632 0.000000
2.000000 3.842105 0.000000
2.000000 3.881579 0.000000
2.000000 3.921053 0.000000
2.000000 3.960526 0.000000
1.960000 4.000000 0.000000
1.920000 4.000000 0.000000
1.880000 4.000000 0.000000
1.840000 4.000000 0.000000
1.800000 4.000000 0.000000
1.760000 4.000000 0.000000
1.720000 4.000000 0.000000
1.680000 4.000000 0.000000
1.640000 4.000000 0.000000
1.600000 4.000000 0.000000
1.560000 4.000000 0.000000
1.520000 4.000000 0.000000
1.480000 4.000000 0.000000
1.440000 4.000000 0.000000
1.400000 4.000000 0.000000
1.360000 4.000000 0.000000
1.320000 4.000000 0.000000
1.280000 4.000000 0.000000
1.240000 4.000000 0.000000
1.200000 4.000000 0.000000
1.160000 4.000000 0.000000
1.120000 4.000000 0.000000
1.080000 4.000000 0.000000
1.040000 4.000000 0.000000
1.000000 4.000000 0.000000
0.960000 4.000000 0.000000
0.920000 4.000000 0.000000
0.880000 4.000000 0.000000
0.840000 4.000000 0.000000
0.800000 4.000000 0.000000
0.760000 4.000000 0.000000
0.720000 4.000000 0.000000
0.680000 4.000000 0.000000
0.640000 4.000000 0.000000
0.600000 4.000000 0.000000
0.560000 4.000000 0.000000
0.520000 4.000000 0.000000
0.480000 4.000000 0.000000
0.440000 4.000000 0.000000
0.400000 4.000000 0.000000
0.360000 4.000000 0.000000
0.320000 4.000000 0.000000
0.280000 4.000000 0.000000
0.240000 4.000000 0.000000
0.200000 4.000000 0.000000
0.160000 4.000000 0.000000
0.120000 4.000000 0.000000
0.080000 4.000000 0.000000
0.040000 4.000000 0.000000
0.000000 3.960227 0.000000
0.000000 3.920455 0.000000
0.000000 3.880682 0.000000
0.000000 3.840909 0.000000
0.000000 3.801136 0.000000
0.000000 3.761364 0.000000
0.000000 3.721591 0.000000
0.000000 3.681818 0.000000
0.000000 3.642045 0.000000
0.000000 3.602273 0.000000
0.000000 3.562500 0.000000
0.000000 3.522727 0.000000
0.000000 3.482955 0.000000
0.000000 3.443182 0.000000
0.000000 3.403409 0.000000
0.000000 3.363636 0.000000
0.000000 3.323864 0.000000
0.000000 3.284091 0.000000
0.000000 3.244318 0.000000
0.000000 3.204545 0.000000
0.000000 3.164773 0.000000
0.000000 3.125000 0.000000
0.000000 3.085227 0.000000
0.000000 3.045455 0.000000
0.000000 3.005682 0.000000
0.000000 2.965909 0.000000
0.000000 2.926136 0.000000
0.000000 2.886364 0.000000
0.000000 2.846591 0.000000
0.000000 2.806818 0.000000
0.000000 2.767045 0.000000
0.000000 2.727273 0.000000
0.000000 2.687500 0.000000
0.000000 2.647727 0.000000
0.000000 2.607955 0.000000
0.000000 2.568182 0.000000
0.000000 2.528409 0.000000
0.000000 2.488636 0.000000
0.000000 2.448864 0.000000
0.000000 2.409091 0.000000
0.000000 2.369318 0.000000
0.000000 2.329545 0.000000
0.000000 2.289773 0.000000
0.000000 2.250000 0.000000
0.000000 2.210227 0.000000
0.000000 2.170455 0.000000
0.000000 2.130682 0.000000
0.000000 2.090909 0.000000
0.000000 2.051136 0.000000
0.000000 2.011364 0.000000
0.000000 1.971591 0.000000
0.000000 1.931818 0.000000
0.000000 1.892045 0.000000
0.000000 1.852273 0.000000
0.000000 1.812500 0.000000
0.000000 1.772727 0.000000
0.000000 1.732955 0.000000
0.000000 1.693182 0.000000
0.000000 1.653409 0.000000
0.000000 1.613636 0.000000
0.000000 1.573864 0.000000
0.000000 1.534091 0.000000
0.000000 1.494318 0.000000
0.000000 1.454545 0.000000
0.000000 1.414773 0.000000
0.000000 1.375000 0.000000
0.000000 1.335227 0.000000
0.000000 1.295455 0.000000
0.000000 1.255682 0.000000
0.000000 1.215909 0.000000
0.000000 1.176136 0.000000
0.000000 1.136364 0.000000
0.000000 1.096591 0.000000
0.000000 1.056818 0.000000
0.000000 1.017045 0.000000
0.000000 0.977273 0.000000
0.000000 0.937500 0.000000
0.000000 0.897727 0.000000
0.000000 0.857955 0.000000
0.000000 0.818182 0.000000
0.000000 0.778409 0.000000
0.000000 0.738636 0.000000
0.000000 0.698864 0.000000
0.000000 0.659091 0.000000
0.000000 0.619318 0.000000
0.000000 0.579545 0.000000
0.000000 0.539773 0.000000
0.000000 0.461538 0.000000
0.000000 0.423077 0.000000
0.000000 0.384615 0.000000
0.000000 0.346154 0.000000
0.000000 0.307692 0.000000
0.000000 0.269231 0.000000
0.000000 0.230769 0.000000
0.000000 0.192308 0.000000
0.000000 0.153846 0.000000
0.000000 0.115385 0.000000
0.000000 0.076923 0.000000
0.000000 0.038462 0.000000
0.027778 0.527778 0.000000
0.055556 0.555556 0.000000
0.083333 0.583333 0.000000
0.111111 0.611111 0.000000
0.138889 0.638889 0.000000
0.166667 0.666667 0.000000
0.194444 0.694444 0.000000
0.222222 0.722222 0.000000
0.250000 0.750000 0.000000
0.277778 0.777778 0.000000
0.305556 0.805556 0.000000
0.333333 0.833333 0.000000
0.361111 0.861111 0.000000
0.388889 0.888889 0.000000
0.416667 0.916667 0.000000
0.444444 0.944444 0.000000
0.472222 0.972222 0.000000
0.500000 1.000000 0.000000
0.527778 1.027778 0.000000
0.555556 1.055556 0.000000
0.583333 1.083333 0.000000
0.611111 1.111111 0.000000
0.638889 1.138889 0.000000
0.666667 1.166667 0.000000
0.694444 1.194444 0.000000
0.722222 1.222222 0.000000
0.750000 1.250000 0.000000
0.777778 1.277778 0.000000
0.805556 1.305556 0.000000
0.833333 1.333333 0.000000
0.861111 1.361111 0.000000
0.888889 1.388889 0.000000
0.916667 1.416667 0.000000
0.944444 1.444444 0.000000
0.972222 1.472222 0.000000
1.000000 1.500000 0.000000
1.027778 1.527778 0.000000
1.055556 1.555556 0.000000
1.083333 1.583333 0.000000
1.111111 1.611111 0.000000
1.138889 1.638889 0.000000
1.166667 1.666667 0.000000
1.194444 1.694444 0.000000
1.222222 1.722222 0.000000
1.250000 1.750000 0.000000
1.277778 1.777778 0.000000
1.305556 1.805556 0.000000
1.333333 1.833333 0.000000
1.361111 1.861111 0.000000
1.388889 1.888889 0.000000
1.416667 1.916667 0.000000
1.444444 1.944444 0.000000
1.472222 1.972222 0.000000
1.527778 2.027778 0.000000
1.555556 2.055556 0.000000
1.583333 2.083333 0.000000
1.611111 2.111111 0.000000
1.638889 2.138889 0.000000
1.666667 2.166667 0.000000
1.694444 2.194444 0.000000
1.722222 2.222222 0.000000
1.750000 2.250000 0.000000
1.777778 2.277778 0.000000
1.805556 2.305556 0.000000
[...]
POINT_DATA 6577
SCALARS UX float 1
LOOKUP_TABLE default
-0.000090
0.000138
0.771401
0.107315
-0.376090
0.703966
1.124411
0.000021
-0.000006
-0.000001
0.000001
-0.000003
-0.000011
0.000001
0.000001
0.000003
0.000003
0.000000
0.000001
0.000001
0.000002
-0.000001
0.000001
-0.000002
-0.000001
0.000000
-0.000001
-0.000001
0.000000
0.000000
0.000001
0.000000
-0.000000
0.000000
0.000000
0.000000
-0.000000
-0.000000
0.000001
-0.000002
-0.000000
0.000000
-0.000000
0.000001
0.000001
-0.000001
-0.000001
-0.000001
-0.000000
-0.000001
0.000002
-0.000002
0.000002
-0.000000
-0.000001
-0.000019
0.024598
0.035350
0.045223
0.052946
0.060249
0.067321
0.073816
0.080758
0.088050
0.095532
0.104040
0.114400
0.122853
0.129268
0.135166
0.141490
0.148239
0.154959
0.162059
0.169687
0.177628
0.187272
0.197157
0.206743
0.219125
0.232549
0.246259
0.261715
0.279053
0.297657
0.319286
0.342360
0.365531
0.391317
0.415759
0.446190
0.477242
0.510449
0.543654
0.577133
0.609092
0.639674
0.669277
0.698978
0.728526
0.757998
0.788365
0.820164
0.852752
0.885566
0.918621
0.951150
0.981327
1.008760
1.033002
1.054121
1.072568
1.086742
1.100049
1.110887
1.117554
1.121620
1.114115
1.096513
1.085044
1.071806
1.061057
1.041342
1.008577
0.969574
0.942271
0.909138
0.882086
0.878603
0.870780
0.859832
0.852297
0.838698
0.832344
0.826042
0.821924
0.816006
0.811286
0.816409
0.821561
0.819332
0.832821
0.829434
0.794327
0.763401
0.738984
0.733015
0.731891
0.738393
0.744435
0.748103
0.751339
0.756725
0.765490
0.754008
0.739513
0.726221
0.712372
0.697900
0.682836
0.668064
0.652981
0.637963
0.623671
0.609286
0.595413
0.581931
0.568549
0.554898
0.541160
0.527733
0.514417
0.501102
0.487581
0.474121
0.460573
0.446521
0.433108
0.420432
0.407486
0.394329
0.381482
0.368647
0.355607
0.342445
0.329357
0.316546
0.304330
0.291742
0.279176
0.266675
0.254369
0.241728
0.228874
0.216246
0.203612
0.190946
0.178329
0.166222
0.153798
0.141518
0.129727
0.117924
0.104953
0.102552
0.100357
0.099295
0.099302
0.099027
0.098549
0.098926
0.098290
0.098476
0.099236
0.100430
0.101978
0.101999
0.106090
0.108475
0.111103
0.113122
0.114328
0.118549
0.120834
0.123428
0.127016
0.130090
0.131881
0.135862
0.137376
0.140065
0.139767
0.142892
0.142943
0.142664
0.138741
0.132167
0.125454
0.112128
0.095886
0.072197
0.041208
0.007566
-0.027838
-0.051343
-0.047105
-0.019720
0.017029
0.031248
0.028351
0.015528
-0.001386
-0.018544
-0.036934
-0.056030
-0.075413
-0.092583
-0.111122
-0.129185
-0.146490
-0.163606
-0.179787
-0.193983
-0.209312
-0.223238
-0.236344
-0.248635
-0.260521
-0.271400
-0.281609
-0.290751
-0.299194
-0.306557
-0.312747
-0.317301
-0.320529
-0.322165
-0.322214
-0.320898
-0.318257
-0.314013
-0.308092
-0.300685
-0.292303
-0.284176
-0.279041
-0.280469
-0.293583
-0.315769
-0.346373
-0.197221
-0.183265
-0.176245
-0.169004
-0.163441
-0.156285
-0.148435
-0.139171
-0.127320
-0.114466
-0.097675
-0.043164
-0.350119
-0.323980
-0.284715
-0.275800
-0.254791
-0.230928
-0.235866
-0.236180
-0.236168
-0.246620
-0.241108
-0.249301
-0.242083
-0.241488
-0.237570
-0.242874
-0.244876
-0.252289
-0.248922
-0.228072
-0.232185
-0.248887
-0.274883
-0.305226
-0.380190
-0.274556
-0.214563
-0.189622
-0.120378
-0.198590
-0.207277
-0.166903
-0.058692
0.234072
-0.027848
0.027829
0.115759
0.024826
0.125932
0.190419
0.223341
0.282238
0.341763
0.376017
0.399098
0.505190
0.397796
0.373226
0.525839
0.550162
0.622375
0.664268
0.723872
0.828097
0.738877
0.790963
0.824270
0.850464
0.878822
0.902859
0.922165
0.935803
0.957847
0.985579
1.009714
1.033621
1.053405
1.070738
1.088120
1.107092
1.065613
1.032499
0.108236
0.110185
0.745092
0.742488
1.084793
1.094652
1.049905
0.999464
0.948818
0.610419
0.591809
0.601668
0.454850
0.434625
0.467536
0.586192
0.177667
0.187719
0.201326
0.592374
0.601502
0.607514
0.164797
0.159346
0.171482
0.150946
0.135991
0.140153
0.591767
0.678509
0.689535
0.688132
0.596686
0.583495
0.598756
0.162758
0.166818
0.175191
0.159041
0.552304
0.555089
0.542991
0.576213
0.571482
0.569552
0.579097
0.581387
0.566229
0.576360
0.277758
0.265860
0.270829
0.268210
0.285502
0.272096
0.281727
0.267235
0.551205
0.563766
0.559841
0.576026
0.218376
0.175291
0.205640
0.956369
0.985364
0.177941
0.060823
0.042836
0.070458
0.039120
0.259804
0.260140
0.274703
0.484392
0.467006
0.475482
0.477153
0.582984
0.575110
0.584247
0.572915
0.312504
0.300405
0.300884
0.309262
0.510313
0.519816
0.512378
0.049996
0.064211
0.078272
0.964589
1.026793
0.956988
1.008798
0.944593
0.989512
0.903224
-0.003560
-0.011179
-0.031933
0.598760
0.595522
0.593476
0.589322
0.516388
0.148959
0.137231
0.146036
0.379395
0.390372
0.389376
0.376299
0.250834
0.238825
0.250893
0.241482
0.029997
0.057591
0.047506
0.430508
0.425541
0.416554
0.647173
0.623870
0.638553
0.615187
0.658733
0.609005
0.991454
0.140956
0.169846
0.161632
0.181083
0.152702
0.177230
0.087086
0.103951
0.280061
0.278932
0.290004
0.209424
0.217451
0.218434
0.268548
0.437077
0.424498
0.439501
0.172682
0.178315
0.166982
0.075886
0.179267
0.206931
0.180768
0.438146
0.448439
0.438030
-0.273225
-0.275412
-0.268422
0.691792
0.759172
0.705288
0.789824
0.600680
0.596047
0.593133
0.587395
1.000395
1.017206
0.466968
0.472641
0.463691
0.478671
0.160749
0.148203
0.155969
0.476252
0.486153
0.476989
0.231940
0.194909
0.213467
0.480717
0.140106
0.297865
0.312181
0.304355
0.260869
0.258522
0.238862
0.232632
0.304300
0.152801
0.159750
0.368916
0.374765
0.361937
0.160851
0.156299
0.438249
0.458161
0.433579
-0.264269
-0.270672
-0.272847
-0.007546
-0.006379
0.018432
-0.259284
-0.264743
-0.268839
0.017808
-0.266805
-0.271704
-0.273869
0.135881
0.082603
0.078697
0.137327
0.150740
0.138832
0.144592
0.131836
0.117154
0.121328
0.736407
0.737738
0.606929
0.603396
0.608585
0.598359
0.333022
0.334124
0.342731
-0.271787
-0.275012
-0.275468
0.346513
0.600009
0.604137
0.598575
-0.277388
-0.278855
0.132338
0.136450
0.142715
0.241007
0.217868
0.855338
0.840026
0.899513
0.891719
0.212025
0.203807
0.189669
0.190460
-0.310227
-0.307018
-0.310332
-0.304498
-0.286183
-0.292691
-0.288182
-0.275072
-0.264949
-0.309665
-0.308229
-0.313730
-0.282890
-0.285549
-0.291156
-0.294463
-0.286908
-0.246488
-0.252033
0.718082
0.731777
-0.253013
-0.252148
-0.256185
0.147696
0.206959
0.176670
0.182499
-0.259192
-0.292863
0.588885
0.596566
0.592475
0.593426
0.602890
0.612119
0.615138
0.250224
0.265309
0.240244
0.186894
0.244342
0.652701
0.661569
0.665523
0.286522
0.274288
0.290220
0.256847
-0.270845
-0.280539
-0.280040
0.234971
0.232214
0.244418
0.599114
0.069327
0.044675
0.058705
-0.257137
-0.261836
-0.261315
-0.280472
-0.284570
0.617460
-0.260715
-0.252757
-0.267033
-0.270670
-0.267306
-0.265706
-0.267978
-0.298294
-0.297887
-0.292526
-0.302018
0.093065
0.114136
0.096443
0.730756
0.738575
-0.268507
-0.241244
-0.250054
-0.253763
-0.260451
0.214972
0.110672
-0.307332
-0.304291
-0.304055
-0.301049
-0.299372
0.739172
0.247710
0.276476
0.123347
0.129456
-0.263555
-0.266432
0.730875
0.732273
0.120960
0.132475
-0.245445
0.613414
0.617489
0.624574
0.628837
-0.259094
-0.253482
0.281703
0.269387
0.280855
-0.278356
-0.288450
-0.291390
-0.253558
-0.303328
0.268575
0.706719
0.420655
0.405839
0.409912
0.158647
-0.304251
-0.298441
-0.308458
0.133443
-0.276099
-0.269618
-0.267164
0.393715
0.395116
0.713788
0.722513
0.721604
-0.276479
-0.278835
0.426552
0.451491
0.144286
0.140740
0.149813
0.315971
0.324283
-0.285023
-0.293376
-0.296987
-0.263788
-0.297032
-0.232329
-0.239471
0.640513
0.644062
0.650234
-0.238490
-0.246489
-0.260997
-0.262287
-0.248450
-0.308496
0.326108
0.415280
0.410103
-0.256354
0.108624
-0.307953
-0.302605
-0.313378
0.130656
0.135670
0.526863
0.514235
0.534959
-0.245557
0.735010
0.723540
0.731454
0.722687
-0.289359
-0.292923
-0.299178
-0.282343
-0.225747
-0.236871
-0.264975
-0.263597
-0.257909
-0.241003
-0.250671
-0.312082
0.179057
0.161105
0.196863
0.696419
0.172395
0.144448
0.143071
0.168045
0.546112
0.707833
0.704453
0.713597
-0.310092
-0.304611
-0.316864
0.157523
0.156703
0.146991
-0.283277
-0.291055
-0.299066
-0.277735
-0.314711
0.631478
0.634790
-0.263815
-0.258046
0.520079
0.856305
0.883752
0.898772
0.113275
0.120424
0.134829
0.143097
0.725511
0.727731
0.609784
0.620552
0.617785
0.602811
0.209352
0.210459
0.221843
-0.256053
0.715526
0.713955
-0.310749
-0.305160
-0.319104
-0.284788
-0.291652
-0.298509
-0.278615
-0.262626
0.693974
0.684024
0.607991
0.167666
0.177703
0.524434
0.532763
0.522127
-0.315076
0.692793
0.703566
0.168192
0.155924
-0.305298
-0.318091
-0.230981
-0.252772
1.049917
1.010782
-0.240375
0.508118
0.654991
0.643834
0.650558
-0.285706
-0.292403
-0.298885
-0.279464
0.646798
0.656012
0.656200
0.126263
0.530092
0.644938
0.140056
0.149490
0.118701
0.718199
0.720289
0.525446
0.534020
0.534319
0.707919
0.704954
-0.314367
0.526163
0.526433
0.686060
0.759527
0.751711
0.204549
0.193045
0.200986
0.187816
0.629567
0.338129
0.953237
1.011054
0.639495
-0.215335
-0.224099
0.127607
-0.286572
-0.223206
-0.232492
-0.293502
-0.298876
-0.278769
0.682950
0.752580
0.578979
0.584081
0.583536
0.179322
0.579433
0.292721
0.319154
0.293052
0.682332
0.692267
0.672222
0.178197
0.164950
0.188794
-0.249282
-0.313395
-0.258101
0.573360
0.565961
0.579590
0.560394
0.667081
-0.302827
-0.234976
-0.290552
-0.244401
0.672468
0.211086
0.206839
0.219822
-0.294230
-0.298482
0.213792
0.217804
-0.230702
0.804969
0.756096
0.760455
0.775163
0.469360
0.458774
0.471634
0.462809
0.921079
0.671929
0.660015
0.134081
0.196141
0.413562
0.389267
0.412624
0.147420
0.153532
0.121018
0.706675
-0.207214
-0.220769
0.697926
0.697507
0.713129
0.442773
0.427128
0.543723
0.549196
0.535015
-0.224493
-0.237530
-0.247463
0.433175
-0.263996
0.670285
-0.244923
-0.255502
-0.214234
0.189960
0.621628
-0.240471
0.553879
0.557859
0.553590
0.671780
0.558590
0.659225
0.187433
0.546507
0.552115
0.200836
0.547220
0.425957
0.427219
0.418203
0.153464
0.880176
-0.225851
-0.031958
-0.018689
0.006032
0.435377
0.528105
0.533079
0.524117
0.533017
0.543272
-0.194720
-0.206349
0.127436
0.132630
0.143751
0.529329
0.169160
0.164145
-0.205590
-0.217040
0.524658
0.534721
-0.238903
-0.247829
-0.220451
-0.230535
0.151436
0.140481
0.156633
0.690914
0.685940
0.705641
0.676625
-0.212235
0.847413
0.848800
0.819207
-0.184149
-0.200385
-0.203404
-0.217183
0.821543
0.508589
0.515873
0.505500
-0.232298
0.268618
0.263580
0.629343
-0.308109
-0.307992
-0.303396
-0.228938
-0.246490
0.244601
0.150040
0.473500
0.466263
0.484555
0.170842
0.159065
-0.194813
0.239122
0.528389
0.518185
0.589730
0.577629
0.586199
0.523633
0.289205
0.291275
0.281982
0.301287
0.660381
0.670297
0.886257
0.948235
0.508953
0.504311
0.494064
0.667731
0.652352
0.659591
0.490586
0.521207
0.533624
0.526235
0.532599
0.200975
0.184294
0.179313
-0.171019
-0.182618
0.540342
0.547031
0.540284
0.252493
0.261820
0.250380
-0.229496
-0.209564
-0.186102
-0.197290
-0.205098
-0.216367
0.173183
0.289835
0.316178
0.301091
-0.157606
-0.171792
-0.188679
0.077510
0.046086
0.052372
0.125720
0.116383
0.112189
0.130972
-0.179192
-0.195125
0.071936
0.048617
0.114092
0.127161
0.161016
-0.212244
0.117248
0.175706
0.163270
0.182929
-0.207701
0.898478
-0.228599
-0.173592
-0.145164
-0.159951
0.639814
0.643087
0.628602
0.115201
0.089345
-0.165537
-0.178564
-0.192178
0.145318
0.200471
0.194631
0.189587
0.204760
-0.188676
-0.203388
0.797752
0.771726
0.768888
0.726898
-0.129588
-0.142449
-0.161186
-0.153945
-0.170183
0.159491
0.162461
0.400886
0.416285
0.412615
0.413980
0.526403
0.542157
0.534741
0.616191
-0.187283
-0.180918
-0.204360
-0.151358
-0.117295
-0.134704
0.194221
0.553653
0.544032
0.553140
0.536120
-0.144725
-0.158053
-0.173492
-0.170132
-0.186795
0.168259
-0.100154
-0.111840
0.569862
0.582214
0.573892
0.579719
-0.129637
0.178303
0.187568
0.613974
0.626648
0.617204
0.522366
0.724349
0.699323
0.720239
0.753019
0.080048
0.079009
-0.124698
-0.156589
0.800273
0.854152
0.797342
0.225381
0.211190
0.227088
0.132959
0.138401
0.562095
0.557208
0.561306
0.274927
0.268124
0.278954
0.270784
-0.088672
-0.107770
-0.126887
0.560822
-0.123171
-0.137533
0.206872
0.211808
0.593496
0.508395
0.570741
0.576025
0.584364
-0.152922
0.554403
0.596278
-0.149873
-0.168948
-0.069288
-0.081626
0.600778
0.597529
0.591188
0.240016
0.241558
0.255789
0.593038
0.690931
0.697522
0.224694
0.595996
0.603397
-0.095779
0.609169
0.285694
-0.087926
-0.119846
0.418105
0.439972
0.427191
0.514430
0.521334
0.500081
0.505937
0.494782
0.513629
0.507976
0.505007
0.495870
0.492455
0.229248
0.264069
0.258109
0.245827
0.643055
0.630395
0.613526
0.200976
0.608419
0.602636
-0.059529
-0.080538
0.494927
0.493877
0.484435
0.480500
-0.101835
0.562005
0.562873
-0.102337
-0.129153
0.548151
0.697997
0.709747
0.711758
0.590537
0.595517
0.148208
0.236750
0.235377
-0.038022
-0.050101
0.572842
0.211668
0.221255
0.606155
0.593221
0.600604
-0.062615
0.591323
0.593202
-0.050665
-0.083303
0.174419
0.186824
0.197026
0.276212
0.258150
0.259817
0.150826
0.171750
0.050893
0.066874
0.101290
-0.030024
-0.052835
0.210988
0.220065
0.700698
-0.076293
0.361900
0.367810
0.354896
0.360727
0.590286
0.447485
0.452265
0.433201
0.234159
0.245010
0.235156
0.250537
0.585006
0.576942
0.581519
0.579458
-0.076104
-0.101915
0.291624
0.284593
0.581264
0.571958
0.426917
0.439597
0.168926
0.755653
0.735156
0.740931
0.724676
0.451208
0.447629
0.439091
0.556288
0.540962
0.548404
0.785364
0.790522
0.758988
0.277265
0.266296
0.267776
-0.005517
-0.016060
0.594798
0.615210
0.595389
0.547209
0.792923
0.776604
-0.030366
-0.015504
-0.045336
0.298365
0.361294
0.362103
0.376983
0.000933
-0.024398
0.575587
0.563289
0.590251
0.522663
0.574019
0.573829
-0.049502
-0.048717
-0.071201
0.027683
0.019726
0.577513
0.511276
0.502773
0.512291
0.005526
0.501528
0.587076
0.583431
0.578169
0.020827
-0.005967
0.031005
0.004907
0.291324
0.300193
-0.021072
-0.019776
-0.039963
0.686402
0.701667
0.626943
0.637034
0.173745
0.164588
0.178331
0.057431
0.054276
0.321096
0.326709
0.323357
0.755479
0.728325
0.820700
0.843032
0.776263
0.716051
0.713989
0.575243
0.040526
0.057882
0.035682
0.589254
0.595339
0.527506
0.535406
0.528695
0.535339
0.058604
0.033286
0.006310
0.310280
0.010365
-0.011207
0.084396
0.084014
0.566502
0.567213
0.575022
0.722090
0.710415
0.707596
0.594412
0.592046
0.304230
0.328194
0.355815
0.348764
0.257548
0.256318
0.243488
0.077858
0.104237
0.077692
0.343737
0.240744
0.238627
0.229199
0.761209
0.794853
0.083753
0.058068
0.593633
0.569203
0.575795
0.566410
0.034833
0.035976
0.572362
0.562053
0.231269
0.226886
0.586318
0.584467
0.518716
0.110699
0.112519
0.287402
0.319435
0.330387
0.324012
0.107430
0.128930
0.194782
0.182408
0.104602
0.080602
0.624386
0.197566
0.187181
0.223345
0.185368
0.198093
0.132011
0.139614
0.671140
0.413000
0.193905
0.058003
0.338960
0.359741
0.337095
0.138061
0.159413
0.516818
0.528473
0.224324
0.238242
0.241414
0.126269
0.099383
0.520286
0.592742
0.581587
0.459413
0.463364
0.474275
0.574538
0.176578
0.537179
0.203231
0.194217
0.470230
0.536582
0.258906
0.246190
-0.112695
-0.060018
-0.086218
-0.059814
0.287540
0.287525
0.311693
0.462095
0.452164
0.152828
0.159584
0.073044
0.167313
0.186752
0.154051
0.127355
0.307747
0.294018
0.186977
0.549396
0.555065
0.574156
0.556155
0.733611
0.747045
0.748318
0.224290
0.371470
0.343549
0.370810
0.328231
0.358947
0.226299
0.212548
0.234130
0.537130
0.540043
0.532370
0.814033
0.816441
0.796957
0.183601
0.545111
0.381928
0.385510
0.372843
0.374970
0.426588
0.409196
0.424192
0.210898
0.555055
0.141070
0.130148
0.141477
0.634252
0.636148
0.628162
0.403793
0.588097
0.583170
0.588038
0.582629
0.578629
0.362558
0.646974
0.657664
0.667036
0.540434
0.193568
0.208961
0.202196
0.200963
0.639553
0.502647
0.507763
0.512304
0.496722
0.556297
0.552198
0.559659
0.858943
0.547421
0.135304
0.136793
0.120806
0.112369
0.157934
0.175398
0.017974
0.018379
0.030147
0.011391
0.119670
0.281931
0.270630
0.282218
0.274449
0.300613
0.309183
0.308232
0.297097
0.303222
0.284395
0.314545
0.275061
0.430690
0.444463
0.431309
0.339873
0.358617
0.701566
0.735809
0.708162
0.709441
0.723454
0.697407
0.353242
0.341985
0.350560
0.337699
0.443730
0.162748
0.160375
0.148601
0.613368
0.610162
0.151239
0.155933
0.584926
0.581937
0.587472
0.580768
0.589926
0.434615
0.421304
0.611779
0.218734
0.233680
0.226411
0.239145
0.002822
0.825021
0.828741
0.101644
0.715576
0.707510
0.702963
0.603044
0.603972
0.612821
0.720336
0.553263
0.558902
0.552318
0.557946
0.643453
0.484840
0.474391
0.474764
0.138145
0.161938
0.498938
0.491594
0.485774
0.479519
0.247260
0.235547
0.256718
0.217290
0.198709
0.533291
0.525614
0.388205
0.398962
0.404883
0.387223
0.221019
0.224044
0.204305
0.348179
0.345998
0.355015
0.338008
0.454383
0.469982
0.623227
0.621000
0.614847
0.517407
0.510520
0.505049
-0.309038
0.520023
0.730519
0.723871
0.276395
0.264802
0.269438
0.270314
-0.326171
0.540556
0.540488
0.513817
0.501883
0.496709
0.187196
0.184365
0.201386
0.192772
0.204828
0.566946
0.189356
0.248257
0.789207
0.801141
0.810017
0.785154
0.772445
0.465318
0.458683
0.413566
0.402219
0.411247
0.353771
0.379702
0.371681
0.235625
0.399936
0.551495
0.547761
0.557063
0.253460
0.554378
0.085426
0.542821
0.548294
0.535878
0.564259
0.566705
0.564778
0.440564
0.435555
0.444010
0.427864
0.445223
0.431411
0.582342
0.588148
0.588053
0.501588
0.495737
0.515275
0.515442
0.490568
0.160878
0.183167
0.608255
0.589644
0.575440
0.578903
0.248833
0.260351
0.302444
0.292319
0.447596
0.258104
0.264454
0.253162
0.247039
0.240642
0.234257
0.268381
0.253427
0.267148
0.317564
0.304907
0.291223
0.395059
0.379958
0.370001
0.359006
0.334819
0.327229
0.337588
0.322404
0.600831
0.594281
0.253748
0.619068
0.709110
0.690456
0.668152
0.672199
0.644769
0.246282
0.249010
0.239707
0.192111
0.200004
0.187998
0.557396
0.559483
0.551940
0.338805
0.328146
0.499544
0.506663
0.350448
0.340772
0.348238
0.666993
0.652924
0.662205
0.652107
0.383226
0.370507
0.380329
0.373114
0.536630
0.543020
0.549821
0.528703
0.531495
0.525168
0.086133
0.629779
0.636244
0.631007
0.639746
0.623509
0.628813
0.528668
0.533583
0.533717
0.525601
0.533192
0.360289
0.356411
0.366374
0.362222
0.347474
0.353719
0.618244
0.617812
0.346508
0.338457
0.335194
0.824373
0.798027
0.326416
0.396673
0.409448
0.373244
0.353093
0.520008
0.537544
0.632458
0.626825
0.614925
0.618051
0.623523
0.755419
0.744150
0.753048
0.768449
0.270932
0.277225
0.480256
0.484231
0.491456
0.470918
0.500574
0.498377
0.507392
0.222473
0.218011
0.215647
0.594605
0.593499
0.587964
0.467792
0.451536
-0.022962
-0.027599
0.483004
0.323958
0.330532
0.321115
0.324603
0.335707
0.335641
0.344668
0.175198
0.177433
0.166165
0.186384
0.173245
0.181598
0.149720
0.154984
0.140683
0.151922
0.391012
0.394061
0.394705
0.388596
0.402322
0.208425
0.197089
0.315370
0.326824
0.301481
0.312726
0.191253
0.183018
0.207064
0.220617
0.216830
0.297897
0.322017
0.622783
0.615557
0.621392
0.617289
0.375866
0.365805
0.488631
0.495390
0.505856
0.556499
0.557479
0.573298
0.572434
0.552539
0.537861
0.538105
0.201311
0.345929
0.360627
0.630565
0.623177
0.151797
0.151387
0.163028
0.389817
0.384033
0.404605
0.390087
0.430700
0.374303
0.416322
0.428845
0.277029
0.279694
0.288453
0.290120
0.786736
0.699053
0.707503
0.761441
0.385767
0.376684
0.397916
0.393343
0.545253
0.159076
0.542034
0.722310
0.730725
0.719597
0.731251
0.714113
0.726201
0.715804
0.361532
0.367785
0.486324
0.473548
0.496391
0.413609
0.410560
0.423496
0.418331
0.411273
0.817387
0.835471
0.833174
0.813506
0.455761
0.447367
0.470766
0.441020
0.518741
0.515519
0.503377
0.502750
0.597488
0.602443
0.476903
0.466721
0.543949
0.560094
0.534219
0.197001
0.200791
0.188833
0.204246
0.189532
0.518631
0.195562
0.400189
0.563498
0.567678
0.564751
0.567057
0.289189
0.297216
0.304592
0.467206
0.453593
0.449373
0.461269
0.460114
0.456014
0.437672
0.442112
0.517066
0.512055
0.531457
0.694862
0.684535
0.587068
0.058316
0.049897
0.616730
0.607131
0.624928
0.565972
0.361657
0.361532
0.377537
0.687319
0.458033
0.450418
0.445586
0.379733
0.398032
0.440641
0.718666
0.708596
0.696417
0.695908
0.680266
0.506342
0.516235
0.506709
0.528626
0.487886
0.531264
0.199186
0.625875
0.639046
0.641270
0.612398
0.627464
0.619804
0.416585
0.418750
0.400193
0.420423
0.411538
0.681024
0.692956
0.708530
0.666956
0.665292
0.203484