# vtk DataFile Version 2.0
Test
ASCII
DATASET POLYDATA
POINTS 6577 float
0.000000 0.000000 0.000000
2.000000 0.000000 0.000000
2.000000 4.000000 0.000000
0.000000 4.000000 0.000000
0.000000 0.500000 0.000000
1.500000 2.000000 0.000000
2.000000 2.500000 0.000000
0.040000 0.000000 0.000000
0.080000 0.000000 0.000000
0.120000 0.000000 0.000000
0.160000 0.000000 0.000000
0.200000 0.000000 0.000000
0.240000 0.000000 0.000000
0.280000 0.000000 0.000000
0.320000 0.000000 0.000000
0.360000 0.000000 0.000000
0.400000 0.000000 0.000000
0.440000 0.000000 0.000000
0.480000 0.000000 0.000000
0.520000 0.000000 0.000000
0.560000 0.000000 0.000000
0.600000 0.000000 0.000000
0.640000 0.000000 0.000000
0.680000 0.000000 0.000000
0.720000 0.000000 0.000000
0.760000 0.000000 0.000000
0.800000 0.000000 0.000000
0.840000 0.000000 0.000000
0.880000 0.000000 0.000000
0.920000 0.000000 0.000000
0.960000 0.000000 0.000000
1.000000 0.000000 0.000000
1.040000 0.000000 0.000000
1.080000 0.000000 0.000000
1.120000 0.000000 0.000000
1.160000 0.000000 0.000000
1.200000 0.000000 0.000000
1.240000 0.000000 0.000000
1.280000 0.000000 0.000000
1.320000 0.000000 0.000000
1.360000 0.000000 0.000000
1.400000 0.000000 0.000000
1.440000 0.000000 0.000000
1.480000 0.000000 0.000000
1.520000 0.000000 0.000000
1.560000 0.000000 0.000000
1.600000 0.000000 0.000000
1.640000 0.000000 0.000000
1.680000 0.000000 0.000000
1.720000 0.000000 0.000000
1.760000 0.000000 0.000000
1.800000 0.000000 0.000000
1.840000 0.000000 0.000000
1.880000 0.000000 0.000000
1.920000 0.000000 0.000000
1.960000 0.000000 0.000000
2.000000 0.039683 0.000000
2.000000 0.079365 0.000000
2.000000 0.119048 0.000000
2.000000 0.158730 0.000000
2.000000 0.198413 0.000000
2.000000 0.238095 0.000000
2.000000 0.277778 0.000000
2.000000 0.317460 0.000000
2.000000 0.357143 0.000000
2.000000 0.396825 0.000000
2.000000 0.436508 0.000000
2.000000 0.476190 0.000000
2.000000 0.515873 0.000000
2.000000 0.555556 0.000000
2.000000 0.595238 0.000000
2.000000 0.634921 0.000000
2.000000 0.674603 0.000000
2.000000 0.714286 0.000000
2.000000 0.753968 0.000000
2.000000 0.793651 0.000000
2.000000 0.833333 0.000000
2.000000 0.873016 0.000000
2.000000 0.912698 0.000000
2.000000 0.952381 0.000000
2.000000 0.992063 0.000000
2.000000 1.031746 0.000000
2.000000 1.071429 0.000000
2.000000 1.111111 0.000000
2.000000 1.150794 0.000000
2.000000 1.190476 0.000000
2.000000 1.230159 0.000000
2.000000 1.269841 0.000000
2.000000 1.309524 0.000000
2.000000 1.349206 0.000000
2.000000 1.388889 0.000000
2.000000 1.428571 0.000000
2.000000 1.468254 0.000000
2.000000 1.507937 0.000000
2.000000 1.547619 0.000000
2.000000 1.587302 0.000000
2.000000 1.626984 0.000000
2.000000 1.666667 0.000000
2.000000 1.706349 0.000000
2.000000 1.746032 0.000000
2.000000 1.785714 0.000000
2.000000 1.825397 0.000000
2.000000 1.865079 0.000000
2.000000 1.904762 0.000000
2.000000 1.944444 0.000000
2.000000 1.984127 0.000000
2.000000 2.023810 0.000000
2.000000 2.063492 0.000000
2.000000 2.103175 0.000000
2.000000 2.142857 0.000000
2.000000 2.182540 0.000000
2.000000 2.222222 0.000000
2.000000 2.261905 0.000000
2.000000 2.301587 0.000000
2.000000 2.341270 0.000000
2.000000 2.380952 0.000000
2.000000 2.420635 0.000000
2.000000 2.460317 0.000000
2.000000 2.539474 0.000000
2.000000 2.578947 0.000000
2.000000 2.618421 0.000000
2.000000 2.657895 0.000000
2.000000 2.697368 0.000000
2.000000 2.736842 0.000000
2.000000 2.776316 0.000000
2.000000 2.815789 0.000000
2.000000 2.855263 0.000000
2.000000 2.894737 0.000000
2.000000 2.934211 0.000000
2.000000 2.973684 0.000000
2.000000 3.013158 0.000000
2.000000 3.052632 0.000000
2.000000 3.092105 0.000000
2.000000 3.131579 0.000000
2.000000 3.171053 0.000000
2.000000 3.210526 0.000000
2.000000 3.250000 0.000000
2.000000 3.289474 0.000000
2.000000 3.328947 0.000000
2.000000 3.368421 0.000000
2.000000 3.407895 0.000000
2.000000 3.447368 0.000000
2.000000 3.486842 0.000000
2.000000 3.526316 0.000000
2.000000 3.565789 0.000000
2.000000 3.605263 0.000000
2.000000 3.644737 0.000000
2.000000 3.684211 0.000000
2.000000 3.723684 0.000000
2.000000 3.763158 0.000000
2.000000 3.802632 0.000000
2.000000 3.842105 0.000000
2.000000 3.881579 0.000000
2.000000 3.921053 0.000000
2.000000 3.960526 0.000000
1.960000 4.000000 0.000000
1.920000 4.000000 0.000000
1.880000 4.000000 0.000000
1.840000 4.000000 0.000000
1.800000 4.000000 0.000000
1.760000 4.000000 0.000000
1.720000 4.000000 0.000000
1.680000 4.000000 0.000000
1.640000 4.000000 0.000000
1.600000 4.000000 0.000000
1.560000 4.000000 0.000000
1.520000 4.000000 0.000000
1.480000 4.000000 0.000000
1.440000 4.000000 0.000000
1.400000 4.000000 0.000000
1.360000 4.000000 0.000000
1.320000 4.000000 0.000000
1.280000 4.000000 0.000000
1.240000 4.000000 0.000000
1.200000 4.000000 0.000000
1.160000 4.000000 0.000000
1.120000 4.000000 0.000000
1.080000 4.000000 0.000000
1.040000 4.000000 0.000000
1.000000 4.000000 0.000000
0.960000 4.000000 0.000000
0.920000 4.000000 0.000000
0.880000 4.000000 0.000000
0.840000 4.000000 0.000000
0.800000 4.000000 0.000000
0.760000 4.000000 0.000000
0.720000 4.000000 0.000000
0.680000 4.000000 0.000000
0.640000 4.000000 0.000000
0.600000 4.000000 0.000000
0.560000 4.000000 0.000000
0.520000 4.000000 0.000000
0.480000 4.000000 0.000000
0.440000 4.000000 0.000000
0.400000 4.000000 0.000000
0.360000 4.000000 0.000000
0.320000 4.000000 0.000000
0.280000 4.000000 0.000000
0.240000 4.000000 0.000000
0.200000 4.000000 0.000000
0.160000 4.000000 0.000000
0.120000 4.000000 0.000000
0.080000 4.000000 0.000000
0.040000 4.000000 0.000000
0.000000 3.960227 0.000000
0.000000 3.920455 0.000000
0.000000 3.880682 0.000000
0.000000 3.840909 0.000000
0.000000 3.801136 0.000000
0.000000 3.761364 0.000000
0.000000 3.721591 0.000000
0.000000 3.681818 0.000000
0.000000 3.642045 0.000000
0.000000 3.602273 0.000000
0.000000 3.562500 0.000000
0.000000 3.522727 0.000000
0.000000 3.482955 0.000000
0.000000 3.443182 0.000000
0.000000 3.403409 0.000000
0.000000 3.363636 0.000000
0.000000 3.323864 0.000000
0.000000 3.284091 0.000000
0.000000 3.244318 0.000000
0.000000 3.204545 0.000000
0.000000 3.164773 0.000000
0.000000 3.125000 0.000000
0.000000 3.085227 0.000000
0.000000 3.045455 0.000000
0.000000 3.005682 0.000000
0.000000 2.965909 0.000000
0.000000 2.926136 0.000000
0.000000 2.886364 0.000000
0.000000 2.846591 0.000000
0.000000 2.806818 0.000000
0.000000 2.767045 0.000000
0.000000 2.727273 0.000000
0.000000 2.687500 0.000000
0.000000 2.647727 0.000000
0.000000 2.607955 0.000000
0.000000 2.568182 0.000000
0.000000 2.528409 0.000000
0.000000 2.488636 0.000000
0.000000 2.448864 0.000000
0.000000 2.409091 0.000000
0.000000 2.369318 0.000000
0.000000 2.329545 0.000000
0.000000 2.289773 0.000000
0.000000 2.250000 0.000000
0.000000 2.210227 0.000000
0.000000 2.170455 0.000000
0.000000 2.130682 0.000000
0.000000 2.090909 0.000000
0.000000 2.051136 0.000000
0.000000 2.011364 0.000000
0.000000 1.971591 0.000000
0.000000 1.931818 0.000000
0.000000 1.892045 0.000000
0.000000 1.852273 0.000000
0.000000 1.812500 0.000000
0.000000 1.772727 0.000000
0.000000 1.732955 0.000000
0.000000 1.693182 0.000000
0.000000 1.653409 0.000000
0.000000 1.613636 0.000000
0.000000 1.573864 0.000000
0.000000 1.534091 0.000000
0.000000 1.494318 0.000000
0.000000 1.454545 0.000000
0.000000 1.414773 0.000000
0.000000 1.375000 0.000000
0.000000 1.335227 0.000000
0.000000 1.295455 0.000000
0.000000 1.255682 0.000000
0.000000 1.215909 0.000000
0.000000 1.176136 0.000000
0.000000 1.136364 0.000000
0.000000 1.096591 0.000000
0.000000 1.056818 0.000000
0.000000 1.017045 0.000000
0.000000 0.977273 0.000000
0.000000 0.937500 0.000000
0.000000 0.897727 0.000000
0.000000 0.857955 0.000000
0.000000 0.818182 0.000000
0.000000 0.778409 0.000000
0.000000 0.738636 0.000000
0.000000 0.698864 0.000000
0.000000 0.659091 0.000000
0.000000 0.619318 0.000000
0.000000 0.579545 0.000000
0.000000 0.539773 0.000000
0.000000 0.461538 0.000000
0.000000 0.423077 0.000000
0.000000 0.384615 0.000000
0.000000 0.346154 0.000000
0.000000 0.307692 0.000000
0.000000 0.269231 0.000000
0.000000 0.230769 0.000000
0.000000 0.192308 0.000000
0.000000 0.153846 0.000000
0.000000 0.115385 0.000000
0.000000 0.076923 0.000000
0.000000 0.038462 0.000000
0.027778 0.527778 0.000000
0.055556 0.555556 0.000000
0.083333 0.583333 0.000000
0.111111 0.611111 0.000000
0.138889 0.638889 0.000000
0.166667 0.666667 0.000000
0.194444 0.694444 0.000000
0.222222 0.722222 0.000000
0.250000 0.750000 0.000000
0.277778 0.777778 0.000000
0.305556 0.805556 0.000000
0.333333 0.833333 0.000000
0.361111 0.861111 0.000000
0.388889 0.888889 0.000000
0.416667 0.916667 0.000000
0.444444 0.944444 0.000000
0.472222 0.972222 0.000000
0.500000 1.000000 0.000000
0.527778 1.027778 0.000000
0.555556 1.055556 0.000000
0.583333 1.083333 0.000000
0.611111 1.111111 0.000000
0.638889 1.138889 0.000000
0.666667 1.166667 0.000000
0.694444 1.194444 0.000000
0.722222 1.222222 0.000000
0.750000 1.250000 0.000000
0.777778 1.277778 0.000000
0.805556 1.305556 0.000000
0.833333 1.333333 0.000000
0.861111 1.361111 0.000000
0.888889 1.388889 0.000000
0.916667 1.416667 0.000000
0.944444 1.444444 0.000000
0.972222 1.472222 0.000000
1.000000 1.500000 0.000000
1.027778 1.527778 0.000000
1.055556 1.555556 0.000000
1.083333 1.583333 0.000000
1.111111 1.611111 0.000000
1.138889 1.638889 0.000000
1.166667 1.666667 0.000000
1.194444 1.694444 0.000000
1.222222 1.722222 0.000000
1.250000 1.750000 0.000000
1.277778 1.777778 0.000000
1.305556 1.805556 0.000000
1.333333 1.833333 0.000000
1.361111 1.861111 0.000000
1.388889 1.888889 0.000000
1.416667 1.916667 0.000000
1.444444 1.944444 0.000000
1.472222 1.972222 0.000000
1.527778 2.027778 0.000000
1.555556 2.055556 0.000000
1.583333 2.083333 0.000000
1.611111 2.111111 0.000000
1.638889 2.138889 0.000000
1.666667 2.166667 0.000000
1.694444 2.194444 0.000000
1.722222 2.222222 0.000000
1.750000 2.250000 0.000000
1.777778 2.277778 0.000000
1.805556 2.305556 0.000000
[...]
POINT_DATA 6577
SCALARS UX float 1
LOOKUP_TABLE default
-0.000125
0.000171
0.604280
-0.525420
-0.408722
0.415332
0.813589
0.000030
-0.000008
-0.000002
0.000003
-0.000005
-0.000019
0.000002
0.000003
0.000005
0.000004
-0.000001
0.000008
0.000001
0.000003
-0.000001
0.000001
-0.000002
-0.000001
0.000000
-0.000001
-0.000001
0.000000
0.000000
0.000001
0.000000
-0.000000
0.000000
0.000000
0.000000
-0.000000
-0.000000
0.000001
-0.000002
-0.000000
0.000000
-0.000000
0.000001
0.000001
-0.000001
-0.000001
-0.000001
-0.000000
-0.000001
0.000002
-0.000003
0.000002
-0.000001
-0.000001
-0.000023
0.030668
0.042051
0.055585
0.066292
0.077479
0.088518
0.099151
0.110326
0.122214
0.134815
0.148544
0.164484
0.176128
0.184113
0.190722
0.197336
0.203982
0.210376
0.216643
0.223235
0.229902
0.237744
0.245878
0.254115
0.265383
0.278605
0.293995
0.314966
0.341452
0.373991
0.414128
0.467280
0.521781
0.575238
0.624679
0.676505
0.719498
0.735620
0.724303
0.729815
0.727461
0.712316
0.698371
0.682352
0.669777
0.664391
0.667481
0.675003
0.683401
0.690407
0.695293
0.698060
0.699473
0.702956
0.707679
0.706245
0.709087
0.714958
0.725959
0.759449
0.784853
0.803587
0.805097
0.801443
0.770182
0.763749
0.771616
0.746492
0.712779
0.700919
0.686480
0.677223
0.681343
0.662417
0.651544
0.642010
0.641534
0.626022
0.593373
0.590103
0.578535
0.573399
0.564635
0.560978
0.560746
0.567176
0.579838
0.591323
0.603376
0.605993
0.601965
0.599294
0.598133
0.602932
0.607538
0.606409
0.602653
0.598754
0.600978
0.581292
0.560401
0.540544
0.523322
0.505309
0.484507
0.461340
0.436444
0.410874
0.384983
0.357984
0.330228
0.301105
0.271440
0.242466
0.214693
0.188769
0.164950
0.142924
0.121912
0.101270
0.080838
0.060608
0.041204
0.021293
0.001273
-0.019332
-0.041041
-0.063130
-0.085662
-0.107985
-0.129511
-0.150870
-0.171668
-0.193503
-0.215467
-0.237637
-0.259696
-0.281781
-0.304420
-0.327344
-0.350918
-0.374610
-0.398069
-0.420443
-0.442659
-0.464239
-0.485123
-0.506102
-0.529771
-0.535256
-0.539051
-0.541495
-0.542723
-0.545344
-0.550033
-0.554467
-0.561570
-0.567613
-0.572724
-0.577474
-0.581949
-0.588999
-0.588714
-0.590957
-0.592804
-0.595454
-0.599072
-0.597374
-0.598211
-0.598180
-0.596196
-0.594942
-0.595896
-0.594156
-0.595935
-0.596668
-0.601629
-0.602011
-0.604576
-0.606606
-0.610466
-0.615652
-0.618696
-0.624464
-0.629037
-0.635858
-0.645190
-0.653597
-0.658198
-0.661834
-0.663937
-0.665248
-0.665536
-0.667541
-0.669176
-0.672130
-0.677446
-0.684549
-0.694331
-0.705954
-0.714675
-0.714788
-0.710978
-0.702956
-0.691827
-0.679220
-0.665136
-0.649008
-0.635354
-0.621269
-0.607711
-0.594553
-0.582106
-0.569440
-0.557148
-0.544311
-0.531557
-0.518404
-0.504627
-0.489596
-0.473694
-0.456574
-0.438245
-0.419730
-0.401775
-0.384385
-0.368704
-0.355539
-0.345835
-0.340274
-0.340805
-0.350036
-0.367925
-0.412045
-0.539885
-0.275793
-0.262866
-0.257335
-0.250081
-0.241826
-0.230537
-0.216252
-0.197820
-0.174164
-0.149112
-0.114785
-0.068469
-0.402799
-0.407867
-0.271177
-0.051375
-0.212433
-0.283376
-0.260292
-0.259635
-0.282107
-0.230404
-0.342460
-0.305166
-0.312431
-0.309137
-0.316724
-0.309875
-0.311274
-0.319105
-0.326886
-0.341349
-0.349994
-0.362775
-0.372619
-0.385929
-0.387988
-0.380832
-0.365054
-0.357532
-0.349260
-0.344334
-0.327928
-0.323758
-0.327725
-0.291099
-0.320271
-0.293609
-0.273632
-0.233198
-0.205374
-0.140999
-0.059049
-0.151614
-0.100489
-0.306255
-0.131563
0.090589
-0.156402
0.032632
-0.006945
0.277540
0.450758
0.459501
0.547003
0.426065
0.438549
0.468610
0.493689
0.508704
0.514318
0.520103
0.526778
0.541081
0.547963
0.566294
0.586048
0.609958
0.620494
0.668590
0.715342
0.773318
0.751195
0.725795
-0.524975
-0.521207
0.586325
0.590746
0.733810
0.767192
0.705050
0.723110
0.697220
0.403578
0.384988
0.383043
-0.156134
-0.170844
-0.125706
0.368230
-0.526607
-0.513038
-0.512617
0.327699
0.345898
0.356270
-0.428782
-0.440184
-0.419439
-0.459939
-0.485989
-0.481678
0.326631
0.499781
0.523087
0.510958
0.333522
0.309357
0.338652
-0.517136
-0.517942
-0.499366
-0.530660
0.244982
0.250024
0.224868
0.118697
0.101182
0.096648
0.299952
0.308407
0.284088
0.298183
-0.235462
-0.255807
-0.251298
-0.247916
-0.235832
-0.260503
-0.247725
-0.274136
0.282229
0.303265
0.285589
0.115153
-0.363451
-0.373365
-0.360507
0.543753
0.563193
-0.367768
-0.592728
-0.592313
-0.577079
-0.610226
-0.306115
-0.312895
-0.283126
-0.090093
-0.106179
-0.109693
-0.085896
0.226063
0.197334
0.232657
0.179451
-0.320478
-0.339903
-0.341402
-0.321560
0.180198
0.201462
0.185937
-0.520181
-0.499838
-0.506008
0.595762
0.633705
0.579676
0.647533
0.615509
0.669698
0.644797
-0.568969
-0.587097
-0.595737
0.258020
0.239037
0.231468
0.211087
0.191314
-0.468013
-0.491071
-0.477233
-0.049612
-0.033398
-0.032242
-0.057334
-0.415737
-0.438190
-0.420687
-0.439236
-0.541784
-0.532079
-0.545585
0.034522
0.029069
0.014404
0.466426
0.444668
0.454734
0.208308
0.210148
0.248507
0.570186
-0.407138
-0.400265
-0.412039
-0.416205
-0.425144
-0.426887
-0.516962
-0.498066
-0.345609
-0.356907
-0.333026
-0.469018
-0.458495
-0.453713
-0.368315
0.043288
0.023156
0.047567
-0.442795
-0.426267
-0.448416
-0.530965
-0.442303
-0.434464
-0.448837
0.008639
0.034151
0.013284
-0.332396
-0.333171
-0.333348
0.358057
0.387348
0.368802
0.396178
0.175160
0.163226
0.151735
0.138063
0.677884
0.698193
0.089073
0.102949
0.085005
0.113981
-0.508574
-0.529454
-0.521831
-0.199095
-0.173713
-0.192319
-0.416568
-0.431203
-0.421297
-0.190940
-0.546544
-0.187974
-0.162998
-0.174135
-0.466932
-0.475786
-0.491340
-0.504663
-0.179182
-0.595290
-0.587287
-0.063071
-0.052467
-0.074568
-0.455657
-0.468877
-0.185302
-0.138448
-0.188567
-0.513124
-0.513511
-0.504941
-0.669492
-0.660276
-0.647631
-0.501698
-0.504817
-0.494263
-0.638785
-0.481147
-0.484303
-0.473419
-0.369082
-0.381418
-0.376008
-0.372089
-0.483926
-0.503843
-0.500016
-0.521978
-0.508797
-0.500508
0.575870
0.573032
0.260092
0.264995
0.288493
0.240340
-0.124000
-0.124172
-0.107257
-0.457460
-0.461248
-0.448101
-0.102861
0.219793
0.227703
0.209843
-0.331875
-0.332938
-0.582461
-0.579767
-0.568242
-0.347252
-0.351743
0.408271
0.429955
0.492170
0.500377
-0.495749
-0.513759
-0.520495
-0.532859
-0.424062
-0.436743
-0.439442
-0.420410
-0.475988
-0.467060
-0.463691
-0.517579
-0.524910
-0.495902
-0.506575
-0.493229
-0.335116
-0.336133
-0.341273
-0.345787
-0.339110
-0.507301
-0.500053
0.534269
0.553772
-0.509767
-0.520595
-0.513545
-0.452714
-0.531917
-0.553898
-0.543485
-0.521559
-0.456907
0.264492
0.284694
0.269059
0.278734
0.350622
0.369765
0.371990
-0.396711
-0.397510
-0.410238
-0.361439
-0.336622
0.459667
0.481446
0.479635
-0.384011
-0.331865
-0.333537
-0.350946
-0.540952
-0.540140
-0.529925
-0.307791
-0.316825
-0.293732
0.399446
-0.605032
-0.619173
-0.603638
-0.487055
-0.478821
-0.492308
-0.333778
-0.335588
0.418882
-0.332655
-0.325472
-0.438872
-0.443793
-0.426589
-0.463876
-0.454329
-0.350726
-0.349864
-0.342935
-0.356424
-0.566294
-0.562129
-0.576187
0.560719
0.567609
-0.469994
-0.503768
-0.494941
-0.481909
-0.472544
-0.511204
-0.521263
-0.453087
-0.449274
-0.465596
-0.458953
-0.470406
0.594037
-0.472912
-0.446338
-0.498217
-0.486355
-0.457997
-0.448563
0.566039
0.576809
-0.383442
-0.378432
-0.518523
0.221100
0.228808
0.243001
0.256400
-0.533582
-0.530768
-0.253180
-0.275172
-0.258628
-0.335845
-0.342702
-0.343541
-0.326306
-0.359270
-0.281400
0.519140
-0.304347
-0.325636
-0.320933
-0.433934
-0.363695
-0.352646
-0.369910
-0.478002
-0.554157
-0.550439
-0.561502
-0.344684
-0.340890
0.539937
0.552982
0.546908
-0.343587
-0.338336
-0.209554
-0.153631
-0.458465
-0.465667
-0.448928
-0.159794
-0.143442
-0.342325
-0.352704
-0.353221
-0.346194
-0.365249
-0.512415
-0.515599
0.439997
0.438729
0.462890
-0.527528
-0.529199
-0.550971
-0.542712
-0.540126
-0.372943
-0.143163
-0.230418
-0.240861
-0.541353
-0.526173
-0.377741
-0.364712
-0.385552
-0.485585
-0.475825
0.005110
-0.015882
0.042347
-0.490524
0.593372
0.568154
0.583110
0.559390
-0.350385
-0.364101
-0.364911
-0.344345
-0.508021
-0.499005
-0.442619
-0.429836
-0.467222
-0.485078
-0.476268
-0.388277
-0.568606
-0.569901
-0.549023
0.507159
-0.579933
-0.588174
-0.596711
-0.417244
0.068514
0.527872
0.527168
0.543661
-0.392878
-0.378234
-0.403085
-0.435310
-0.436298
-0.455015
-0.356680
-0.374440
-0.378045
-0.338656
-0.405913
0.417897
0.416810
-0.436528
-0.421566
0.010725
0.461200
0.489477
0.504582
-0.519197
-0.504601
-0.479161
-0.462934
0.577697
0.586458
0.397078
0.411990
0.399263
0.379015
-0.347249
-0.348295
-0.326213
-0.461250
0.559563
0.548942
-0.406697
-0.392631
-0.424330
-0.367565
-0.386124
-0.390291
-0.361439
-0.452225
0.508997
0.490688
0.376801
-0.416827
-0.399461
0.199979
0.213694
0.191474
-0.422278
0.508422
0.528784
-0.416581
-0.439525
-0.405998
-0.437374
-0.524967
-0.550900
0.628328
0.595370
-0.538964
0.154931
0.433175
0.356045
0.414928
-0.381552
-0.398103
-0.403697
-0.374929
0.436302
0.455883
0.447328
-0.496129
0.203780
0.356739
-0.471616
-0.453031
-0.512102
0.570944
0.579308
-0.027219
-0.006381
-0.003174
0.553521
0.537094
-0.436355
-0.030337
-0.021724
0.352353
0.383659
0.363396
-0.370214
-0.390811
-0.380014
-0.402136
0.422009
-0.114878
0.623147
0.694416
0.443391
-0.517056
-0.521202
-0.580031
-0.390986
-0.534355
-0.536628
-0.410404
-0.416929
-0.376412
0.490958
0.398254
0.138835
0.163454
0.153105
-0.396881
0.148066
-0.423637
-0.398487
-0.426248
0.491926
0.512304
0.471684
-0.400703
-0.425749
-0.379603
-0.560922
-0.450494
-0.561102
0.158996
0.142050
0.187490
0.115238
0.471809
-0.433209
-0.548814
-0.405627
-0.549827
0.499447
-0.351450
-0.362725
-0.339776
-0.420924
-0.429081
-0.357880
-0.346858
-0.493610
0.565330
0.496597
0.495409
0.501708
0.058670
0.034810
0.055609
0.036376
0.547512
0.503746
0.483502
-0.484983
-0.378285
-0.204555
-0.221612
-0.200274
-0.461195
-0.448225
-0.512783
0.559539
-0.511551
-0.502286
0.543419
0.530481
0.572278
-0.172067
-0.193016
0.076666
0.081501
0.052066
-0.487053
-0.478414
-0.469761
-0.181746
-0.444830
0.470751
-0.462167
-0.454504
-0.530982
-0.379546
0.395826
-0.560509
0.300393
0.316786
0.297607
0.473905
0.311883
0.450087
-0.386164
0.281207
0.305740
-0.358797
0.284371
0.011865
0.019258
-0.001555
-0.568818
0.596841
-0.546962
-0.405243
-0.397095
-0.402217
0.031038
-0.011262
0.001860
-0.028828
0.205323
0.226324
-0.521424
-0.526157
-0.523505
-0.509458
-0.490712
-0.015578
-0.576759
-0.582344
-0.541250
-0.543837
0.190818
0.209694
-0.570012
-0.571307
-0.557646
-0.558811
-0.493510
-0.511893
-0.480010
0.535153
0.523577
0.547927
0.515338
-0.495737
0.647168
0.645323
0.621659
-0.514815
-0.504744
-0.488228
-0.479386
0.629312
0.144463
0.166718
0.150478
-0.470548
-0.447663
-0.455192
0.429020
-0.489660
-0.478175
-0.489894
-0.461269
-0.452307
-0.468439
-0.474703
-0.207093
-0.220642
-0.171554
-0.435605
-0.453474
-0.536965
-0.476510
0.044810
0.016408
0.335334
0.317440
0.331903
0.014743
-0.363498
-0.360076
-0.375960
-0.343374
0.490166
0.505308
0.479128
0.549448
-0.039420
-0.073874
-0.103968
0.498539
0.470509
0.484240
-0.135363
0.161636
0.237727
0.217705
0.235342
-0.359665
-0.402835
-0.413484
-0.525468
-0.531950
0.259154
0.279511
0.257819
-0.290452
-0.270610
-0.290149
-0.570188
-0.555178
-0.547962
-0.552456
-0.566766
-0.568643
-0.426329
-0.389199
-0.367423
-0.377730
-0.517486
-0.506941
-0.497423
-0.604573
-0.610808
-0.620656
-0.546066
-0.556216
-0.568744
-0.531172
-0.489144
-0.479565
-0.542522
-0.557000
-0.607067
-0.607907
-0.589784
-0.470546
-0.565653
-0.442544
-0.462699
-0.424212
-0.460190
0.568170
-0.449960
-0.542705
-0.529048
-0.536460
0.449821
0.453356
0.433369
-0.607456
-0.624535
-0.554102
-0.559549
-0.563647
-0.508743
-0.388026
-0.395294
-0.406603
-0.377509
-0.575922
-0.579268
0.557315
0.557377
0.540794
0.535291
-0.519650
-0.508066
-0.498260
-0.487812
-0.481522
-0.485962
-0.474774
-0.102955
-0.075929
-0.066424
-0.093618
0.189264
0.220254
0.203071
0.414194
-0.471088
-0.460115
-0.448822
-0.548100
-0.532098
-0.540748
-0.403606
0.046340
0.021861
0.044137
0.210149
-0.560194
-0.566287
-0.571490
-0.584404
-0.589089
-0.460505
-0.521351
-0.508895
0.277953
0.302522
0.283525
0.298529
-0.498366
-0.443844
-0.421850
0.424123
0.440493
0.423150
0.183920
0.564100
0.543419
0.565930
0.586876
-0.579717
-0.590309
-0.486573
-0.474181
0.405896
0.420655
0.391040
-0.340491
-0.365478
-0.334006
-0.540627
-0.524887
0.269982
0.261684
0.275567
-0.223032
-0.236597
-0.218307
-0.234496
-0.534235
-0.543886
-0.552386
0.255834
-0.564441
-0.570634
-0.380752
-0.367926
0.197081
-0.020709
0.325188
0.316220
0.343350
-0.578564
0.108051
0.216666
-0.591547
-0.597831
-0.522096
-0.509353
0.350670
0.352935
0.328241
-0.311117
-0.303147
-0.276332
0.187310
0.509567
0.518858
-0.344984
0.379446
0.396423
-0.498129
0.369617
-0.204434
-0.485164
-0.472948
-0.304619
-0.270834
-0.294220
0.167416
0.177796
0.147825
0.156300
0.136914
0.170776
-0.078415
-0.075248
-0.102180
-0.093078
-0.326357
-0.270940
-0.285189
-0.305164
0.466722
0.453645
0.429696
-0.396843
0.248478
0.235556
-0.533037
-0.544924
-0.122882
-0.117253
-0.143068
-0.133354
-0.555518
0.265036
0.269090
-0.570546
-0.581679
0.034173
0.397022
0.417168
0.414774
0.360876
0.360416
-0.510980
-0.322969
-0.322066
-0.517069
-0.506835
0.298918
-0.376988
-0.355637
0.406996
0.387164
0.408371
-0.496447
0.320544
0.323599
-0.480315
-0.469438
-0.458049
-0.432505
-0.409520
-0.247127
-0.253761
-0.252154
-0.534624
-0.496756
-0.396900
-0.390510
-0.390712
-0.524699
-0.541829
-0.384867
-0.364318
0.409505
-0.556568
-0.082219
-0.068416
-0.090389
-0.077978
0.392140
-0.160526
-0.181730
-0.223473
-0.334308
-0.314950
-0.329487
-0.301599
0.365735
0.351154
0.369792
0.343759
-0.572522
-0.587628
-0.196054
-0.210884
0.302703
0.285931
-0.216354
-0.235464
-0.476501
0.519308
0.501980
0.497933
0.485972
0.068359
0.061584
0.047880
0.104887
0.061403
0.085604
0.544547
0.542605
0.527089
-0.226338
-0.245118
-0.245070
-0.504466
-0.497711
0.333482
0.358474
0.350035
0.083364
0.574175
0.556930
-0.489442
-0.470923
-0.461846
-0.182406
-0.387833
-0.391092
-0.366916
-0.510607
-0.532801
0.312890
0.290233
0.310925
0.185590
0.119865
0.124161
-0.553377
-0.567987
-0.590442
-0.490902
-0.485468
0.128529
-0.080897
-0.108634
-0.082393
-0.479031
-0.115992
0.205196
0.189862
0.171229
-0.462395
-0.453897
-0.496979
-0.517925
-0.202787
-0.189810
-0.542397
-0.554095
-0.576000
0.363979
0.390649
0.284714
0.328589
-0.485693
-0.495913
-0.468644
-0.479984
-0.475213
-0.144177
-0.134016
-0.142096
0.524599
0.506742
0.431483
0.487990
0.438771
0.448211
0.415239
0.163860
-0.470049
-0.455982
-0.447577
0.219023
0.246130
0.218435
0.238297
0.218660
0.232252
-0.485539
-0.503379
-0.526961
-0.162246
-0.533089
-0.557898
-0.471555
-0.466207
0.338320
0.331471
0.358917
0.492860
0.491434
0.480257
0.218899
0.217485
-0.361101
-0.339263
-0.085187
-0.097010
-0.293123
-0.298721
-0.321677
-0.461698
-0.448235
-0.442904
-0.332534
-0.412985
-0.407760
-0.428963
0.582408
0.612034
-0.477793
-0.492890
0.227945
0.145848
0.162002
0.132527
-0.510432
-0.518215
0.143400
0.113891
-0.343434
-0.356262
0.387003
0.376942
0.182305
-0.465013
-0.458723
-0.223007
-0.157518
-0.139394
-0.154469
-0.454469
-0.445683
-0.384047
-0.402652
-0.474199
-0.485485
0.390700
-0.417363
-0.437634
-0.330157
-0.394383
-0.371466
-0.460387
-0.451736
0.487298
-0.238686
-0.377947
-0.571488
-0.301622
-0.283373
-0.315925
-0.447308
-0.439404
-0.059443
-0.028158
-0.366159
-0.339505
-0.329632
-0.470403
-0.483208
-0.054716
0.402635
0.383805
-0.178846
-0.190655
-0.169003
0.367669
-0.566515
-0.000503
-0.387831
-0.404297
-0.157717
-0.004223
-0.324146
-0.343395
-0.374728
-0.387005
-0.396549
-0.397241
-0.376546
-0.385390
-0.362270
-0.150191
-0.172207
-0.455913
-0.446966
-0.554185
-0.440561
-0.430193
-0.463676
-0.480361
-0.350864
-0.360885
-0.442856
0.125580
0.153300
0.159088
0.125717
0.471123
0.479353
0.485737
-0.430658
-0.308512
-0.342853
-0.308594
-0.357216
-0.318294
-0.471746
-0.482432
-0.452664
0.009061
0.012638
-0.010930
0.558625
0.572562
0.546515
-0.454223
0.032174
-0.055620
-0.046217
-0.070877
-0.062021
-0.149477
-0.171973
-0.161895
-0.414065
0.265949
-0.561872
-0.581558
-0.566379
0.287501
0.291762
0.270290
-0.187570
0.170118
0.147946
0.176120
0.143622
0.129285
-0.086009
0.326432
0.328536
0.338652
0.023749
-0.519599
-0.497745
-0.504115
-0.513427
0.321816
-0.117985
-0.095000
-0.079713
-0.136293
0.307339
0.290092
0.306437
0.447693
0.280832
-0.580687
-0.585781
-0.590356
-0.599164
-0.587880
-0.565499
-0.617240
-0.606293
-0.585445
-0.661919
-0.371805
-0.294036
-0.315414
-0.300740
-0.301214
-0.226962
-0.214076
-0.212073
-0.235984
-0.383226
-0.406548
-0.391872
-0.404327
-0.280747
-0.256043
-0.271334
-0.162810
-0.283668
0.504935
0.524445
0.526709
0.490557
0.556304
0.547891
-0.100121
-0.120186
-0.108665
-0.131111
-0.262855
-0.559678
-0.558358
-0.578012
0.275036
0.257334
-0.578732
-0.384318
0.174779
0.167887
0.193788
0.172088
0.193534
-0.154360
-0.175799
0.277675
-0.390569
-0.362045
-0.369899
-0.343657
-0.645117
0.418674
0.416774
-0.382993
0.459751
0.460216
0.445771
0.296765
0.295633
0.304386
0.473550
0.058294
0.070658
0.050808
0.063910
0.312708
0.128343
0.108229
0.108980
-0.571856
-0.559468
-0.128952
-0.146660
-0.167396
-0.172045
-0.503781
-0.525808
-0.506886
-0.509190
-0.528792
0.237445
0.216501
-0.259657
-0.256679
-0.242617
-0.269619
-0.465073
-0.472703
-0.480387
-0.216018
-0.228531
-0.212041
-0.237249
-0.212103
-0.196672
0.310569
0.311036
0.298919
0.195609
0.178822
0.169108
-0.382358
0.199037
0.475771
0.458174
-0.386773
-0.410852
-0.400866
-0.398347
-0.436533
0.256411
0.260041
0.183234
0.160030
0.151064
-0.460356
-0.473984
-0.435414
-0.444459
-0.419446
0.346999
-0.478876
-0.453108
0.534124
0.582198
0.581901
0.497563
0.498893
0.090738
0.080521
0.007389
-0.011532
0.002315
-0.307605
-0.272972
-0.296013
-0.370240
-0.258921
0.039866
0.029397
0.055749
-0.307604
0.048212
-0.559309
0.016493
0.036302
-0.003563
0.306210
0.324567
0.328975
-0.190622
-0.185311
-0.165966
-0.209103
-0.199013
-0.216243
0.139699
0.163633
0.165455
-0.071695
-0.068531
-0.048193
-0.055258
-0.141435
-0.581184
-0.558505
0.372505
0.358761
0.348465
0.369488
-0.442617
-0.427182
-0.342916
-0.360031
-0.141227
-0.423887
-0.408573
-0.430702
-0.438647
-0.454048
-0.459972
-0.402419
-0.430547
-0.404947
-0.202387
-0.225695
-0.418835
-0.336847
-0.357777
-0.363723
-0.380688
-0.273197
-0.290071
-0.274177
-0.295004
0.292496
0.273585
-0.434117
0.298462
0.471585
0.465289
0.455817
0.448083
0.439162
-0.450325
-0.444459
-0.466090
-0.534241
-0.519561
-0.534896
0.058828
0.063800
0.041491
-0.260034
-0.278955
-0.124157
-0.078240
-0.238739
-0.249894
-0.232269
0.384374
0.343777
0.386253
0.339078
-0.064650
-0.089262
-0.075858
-0.080250
-0.003920
0.015235
0.037023
-0.029525
-0.020130
-0.040720
-0.623416
0.320599
0.320880
0.317306
0.330673
0.319477
0.316377
0.222412
0.234325
0.238181
0.212161
0.228336
-0.104944
-0.116248
-0.103006
-0.098458
-0.125948
-0.110856
0.302598
0.307508
-0.136866
-0.148634
-0.159090
0.600835
0.526298
-0.170107
-0.196412
-0.187886
-0.213429
-0.128183
0.061384
0.090505
0.328432
0.323673
0.297710
0.312277
0.311434
0.473828
0.468833
0.470408
0.489136
-0.394922
-0.384635
0.116516
0.124630
0.136057
0.101468
0.152102
0.146401
0.162149
-0.476111
-0.487539
-0.482125
0.181062
0.183794
0.158633
-0.130028
-0.146950
-0.645305
-0.649625
-0.114405
-0.194259
-0.179531
-0.192177
-0.197184
-0.174101
-0.179887
-0.154978
-0.539741
-0.540794
-0.560395
-0.521593
-0.539333
-0.524747
-0.566205
-0.556027
-0.576546
-0.557055
-0.040124
-0.032058
-0.212171
-0.047306
-0.020937
-0.347126
-0.368487
-0.216623
-0.199692
-0.240757
-0.227273
-0.545956
-0.559204
-0.523057
-0.500232
-0.506260
-0.253998
-0.215462
0.312467
0.279038
0.313524
0.276176
-0.071946
-0.089044
0.134636
0.145567
0.165666
0.140677
0.149281
0.187760
0.191619
0.117533
0.084810
0.070882
-0.550607
-0.120850
-0.094984
0.333615
0.306131
-0.582801
-0.587592
-0.570176
-0.209427
-0.225055
-0.200880
-0.086730
-0.117031
-0.227855
-0.193132
-0.173849
-0.374035
-0.373917
-0.357772
-0.358486
0.395529
0.364768
0.353944
0.391584
-0.056223
-0.067551
-0.036430
-0.050637
0.021822
-0.583983
0.014756
0.431725
0.448539
0.433403
0.458261
0.416124
0.433353
0.419191
-0.214868
-0.192669
0.128803
0.106734
0.145801
-0.228228