# vtk DataFile Version 2.0
Test
ASCII
DATASET POLYDATA
POINTS 6577 float
0.000000 0.000000 0.000000
2.000000 0.000000 0.000000
2.000000 4.000000 0.000000
0.000000 4.000000 0.000000
0.000000 0.500000 0.000000
1.500000 2.000000 0.000000
2.000000 2.500000 0.000000
0.040000 0.000000 0.000000
0.080000 0.000000 0.000000
0.120000 0.000000 0.000000
0.160000 0.000000 0.000000
0.200000 0.000000 0.000000
0.240000 0.000000 0.000000
0.280000 0.000000 0.000000
0.320000 0.000000 0.000000
0.360000 0.000000 0.000000
0.400000 0.000000 0.000000
0.440000 0.000000 0.000000
0.480000 0.000000 0.000000
0.520000 0.000000 0.000000
0.560000 0.000000 0.000000
0.600000 0.000000 0.000000
0.640000 0.000000 0.000000
0.680000 0.000000 0.000000
0.720000 0.000000 0.000000
0.760000 0.000000 0.000000
0.800000 0.000000 0.000000
0.840000 0.000000 0.000000
0.880000 0.000000 0.000000
0.920000 0.000000 0.000000
0.960000 0.000000 0.000000
1.000000 0.000000 0.000000
1.040000 0.000000 0.000000
1.080000 0.000000 0.000000
1.120000 0.000000 0.000000
1.160000 0.000000 0.000000
1.200000 0.000000 0.000000
1.240000 0.000000 0.000000
1.280000 0.000000 0.000000
1.320000 0.000000 0.000000
1.360000 0.000000 0.000000
1.400000 0.000000 0.000000
1.440000 0.000000 0.000000
1.480000 0.000000 0.000000
1.520000 0.000000 0.000000
1.560000 0.000000 0.000000
1.600000 0.000000 0.000000
1.640000 0.000000 0.000000
1.680000 0.000000 0.000000
1.720000 0.000000 0.000000
1.760000 0.000000 0.000000
1.800000 0.000000 0.000000
1.840000 0.000000 0.000000
1.880000 0.000000 0.000000
1.920000 0.000000 0.000000
1.960000 0.000000 0.000000
2.000000 0.039683 0.000000
2.000000 0.079365 0.000000
2.000000 0.119048 0.000000
2.000000 0.158730 0.000000
2.000000 0.198413 0.000000
2.000000 0.238095 0.000000
2.000000 0.277778 0.000000
2.000000 0.317460 0.000000
2.000000 0.357143 0.000000
2.000000 0.396825 0.000000
2.000000 0.436508 0.000000
2.000000 0.476190 0.000000
2.000000 0.515873 0.000000
2.000000 0.555556 0.000000
2.000000 0.595238 0.000000
2.000000 0.634921 0.000000
2.000000 0.674603 0.000000
2.000000 0.714286 0.000000
2.000000 0.753968 0.000000
2.000000 0.793651 0.000000
2.000000 0.833333 0.000000
2.000000 0.873016 0.000000
2.000000 0.912698 0.000000
2.000000 0.952381 0.000000
2.000000 0.992063 0.000000
2.000000 1.031746 0.000000
2.000000 1.071429 0.000000
2.000000 1.111111 0.000000
2.000000 1.150794 0.000000
2.000000 1.190476 0.000000
2.000000 1.230159 0.000000
2.000000 1.269841 0.000000
2.000000 1.309524 0.000000
2.000000 1.349206 0.000000
2.000000 1.388889 0.000000
2.000000 1.428571 0.000000
2.000000 1.468254 0.000000
2.000000 1.507937 0.000000
2.000000 1.547619 0.000000
2.000000 1.587302 0.000000
2.000000 1.626984 0.000000
2.000000 1.666667 0.000000
2.000000 1.706349 0.000000
2.000000 1.746032 0.000000
2.000000 1.785714 0.000000
2.000000 1.825397 0.000000
2.000000 1.865079 0.000000
2.000000 1.904762 0.000000
2.000000 1.944444 0.000000
2.000000 1.984127 0.000000
2.000000 2.023810 0.000000
2.000000 2.063492 0.000000
2.000000 2.103175 0.000000
2.000000 2.142857 0.000000
2.000000 2.182540 0.000000
2.000000 2.222222 0.000000
2.000000 2.261905 0.000000
2.000000 2.301587 0.000000
2.000000 2.341270 0.000000
2.000000 2.380952 0.000000
2.000000 2.420635 0.000000
2.000000 2.460317 0.000000
2.000000 2.539474 0.000000
2.000000 2.578947 0.000000
2.000000 2.618421 0.000000
2.000000 2.657895 0.000000
2.000000 2.697368 0.000000
2.000000 2.736842 0.000000
2.000000 2.776316 0.000000
2.000000 2.815789 0.000000
2.000000 2.855263 0.000000
2.000000 2.894737 0.000000
2.000000 2.934211 0.000000
2.000000 2.973684 0.000000
2.000000 3.013158 0.000000
2.000000 3.052632 0.000000
2.000000 3.092105 0.000000
2.000000 3.131579 0.000000
2.000000 3.171053 0.000000
2.000000 3.210526 0.000000
2.000000 3.250000 0.000000
2.000000 3.289474 0.000000
2.000000 3.328947 0.000000
2.000000 3.368421 0.000000
2.000000 3.407895 0.000000
2.000000 3.447368 0.000000
2.000000 3.486842 0.000000
2.000000 3.526316 0.000000
2.000000 3.565789 0.000000
2.000000 3.605263 0.000000
2.000000 3.644737 0.000000
2.000000 3.684211 0.000000
2.000000 3.723684 0.000000
2.000000 3.763158 0.000000
2.000000 3.802632 0.000000
2.000000 3.842105 0.000000
2.000000 3.881579 0.000000
2.000000 3.921053 0.000000
2.000000 3.960526 0.000000
1.960000 4.000000 0.000000
1.920000 4.000000 0.000000
1.880000 4.000000 0.000000
1.840000 4.000000 0.000000
1.800000 4.000000 0.000000
1.760000 4.000000 0.000000
1.720000 4.000000 0.000000
1.680000 4.000000 0.000000
1.640000 4.000000 0.000000
1.600000 4.000000 0.000000
1.560000 4.000000 0.000000
1.520000 4.000000 0.000000
1.480000 4.000000 0.000000
1.440000 4.000000 0.000000
1.400000 4.000000 0.000000
1.360000 4.000000 0.000000
1.320000 4.000000 0.000000
1.280000 4.000000 0.000000
1.240000 4.000000 0.000000
1.200000 4.000000 0.000000
1.160000 4.000000 0.000000
1.120000 4.000000 0.000000
1.080000 4.000000 0.000000
1.040000 4.000000 0.000000
1.000000 4.000000 0.000000
0.960000 4.000000 0.000000
0.920000 4.000000 0.000000
0.880000 4.000000 0.000000
0.840000 4.000000 0.000000
0.800000 4.000000 0.000000
0.760000 4.000000 0.000000
0.720000 4.000000 0.000000
0.680000 4.000000 0.000000
0.640000 4.000000 0.000000
0.600000 4.000000 0.000000
0.560000 4.000000 0.000000
0.520000 4.000000 0.000000
0.480000 4.000000 0.000000
0.440000 4.000000 0.000000
0.400000 4.000000 0.000000
0.360000 4.000000 0.000000
0.320000 4.000000 0.000000
0.280000 4.000000 0.000000
0.240000 4.000000 0.000000
0.200000 4.000000 0.000000
0.160000 4.000000 0.000000
0.120000 4.000000 0.000000
0.080000 4.000000 0.000000
0.040000 4.000000 0.000000
0.000000 3.960227 0.000000
0.000000 3.920455 0.000000
0.000000 3.880682 0.000000
0.000000 3.840909 0.000000
0.000000 3.801136 0.000000
0.000000 3.761364 0.000000
0.000000 3.721591 0.000000
0.000000 3.681818 0.000000
0.000000 3.642045 0.000000
0.000000 3.602273 0.000000
0.000000 3.562500 0.000000
0.000000 3.522727 0.000000
0.000000 3.482955 0.000000
0.000000 3.443182 0.000000
0.000000 3.403409 0.000000
0.000000 3.363636 0.000000
0.000000 3.323864 0.000000
0.000000 3.284091 0.000000
0.000000 3.244318 0.000000
0.000000 3.204545 0.000000
0.000000 3.164773 0.000000
0.000000 3.125000 0.000000
0.000000 3.085227 0.000000
0.000000 3.045455 0.000000
0.000000 3.005682 0.000000
0.000000 2.965909 0.000000
0.000000 2.926136 0.000000
0.000000 2.886364 0.000000
0.000000 2.846591 0.000000
0.000000 2.806818 0.000000
0.000000 2.767045 0.000000
0.000000 2.727273 0.000000
0.000000 2.687500 0.000000
0.000000 2.647727 0.000000
0.000000 2.607955 0.000000
0.000000 2.568182 0.000000
0.000000 2.528409 0.000000
0.000000 2.488636 0.000000
0.000000 2.448864 0.000000
0.000000 2.409091 0.000000
0.000000 2.369318 0.000000
0.000000 2.329545 0.000000
0.000000 2.289773 0.000000
0.000000 2.250000 0.000000
0.000000 2.210227 0.000000
0.000000 2.170455 0.000000
0.000000 2.130682 0.000000
0.000000 2.090909 0.000000
0.000000 2.051136 0.000000
0.000000 2.011364 0.000000
0.000000 1.971591 0.000000
0.000000 1.931818 0.000000
0.000000 1.892045 0.000000
0.000000 1.852273 0.000000
0.000000 1.812500 0.000000
0.000000 1.772727 0.000000
0.000000 1.732955 0.000000
0.000000 1.693182 0.000000
0.000000 1.653409 0.000000
0.000000 1.613636 0.000000
0.000000 1.573864 0.000000
0.000000 1.534091 0.000000
0.000000 1.494318 0.000000
0.000000 1.454545 0.000000
0.000000 1.414773 0.000000
0.000000 1.375000 0.000000
0.000000 1.335227 0.000000
0.000000 1.295455 0.000000
0.000000 1.255682 0.000000
0.000000 1.215909 0.000000
0.000000 1.176136 0.000000
0.000000 1.136364 0.000000
0.000000 1.096591 0.000000
0.000000 1.056818 0.000000
0.000000 1.017045 0.000000
0.000000 0.977273 0.000000
0.000000 0.937500 0.000000
0.000000 0.897727 0.000000
0.000000 0.857955 0.000000
0.000000 0.818182 0.000000
0.000000 0.778409 0.000000
0.000000 0.738636 0.000000
0.000000 0.698864 0.000000
0.000000 0.659091 0.000000
0.000000 0.619318 0.000000
0.000000 0.579545 0.000000
0.000000 0.539773 0.000000
0.000000 0.461538 0.000000
0.000000 0.423077 0.000000
0.000000 0.384615 0.000000
0.000000 0.346154 0.000000
0.000000 0.307692 0.000000
0.000000 0.269231 0.000000
0.000000 0.230769 0.000000
0.000000 0.192308 0.000000
0.000000 0.153846 0.000000
0.000000 0.115385 0.000000
0.000000 0.076923 0.000000
0.000000 0.038462 0.000000
0.027778 0.527778 0.000000
0.055556 0.555556 0.000000
0.083333 0.583333 0.000000
0.111111 0.611111 0.000000
0.138889 0.638889 0.000000
0.166667 0.666667 0.000000
0.194444 0.694444 0.000000
0.222222 0.722222 0.000000
0.250000 0.750000 0.000000
0.277778 0.777778 0.000000
0.305556 0.805556 0.000000
0.333333 0.833333 0.000000
0.361111 0.861111 0.000000
0.388889 0.888889 0.000000
0.416667 0.916667 0.000000
0.444444 0.944444 0.000000
0.472222 0.972222 0.000000
0.500000 1.000000 0.000000
0.527778 1.027778 0.000000
0.555556 1.055556 0.000000
0.583333 1.083333 0.000000
0.611111 1.111111 0.000000
0.638889 1.138889 0.000000
0.666667 1.166667 0.000000
0.694444 1.194444 0.000000
0.722222 1.222222 0.000000
0.750000 1.250000 0.000000
0.777778 1.277778 0.000000
0.805556 1.305556 0.000000
0.833333 1.333333 0.000000
0.861111 1.361111 0.000000
0.888889 1.388889 0.000000
0.916667 1.416667 0.000000
0.944444 1.444444 0.000000
0.972222 1.472222 0.000000
1.000000 1.500000 0.000000
1.027778 1.527778 0.000000
1.055556 1.555556 0.000000
1.083333 1.583333 0.000000
1.111111 1.611111 0.000000
1.138889 1.638889 0.000000
1.166667 1.666667 0.000000
1.194444 1.694444 0.000000
1.222222 1.722222 0.000000
1.250000 1.750000 0.000000
1.277778 1.777778 0.000000
1.305556 1.805556 0.000000
1.333333 1.833333 0.000000
1.361111 1.861111 0.000000
1.388889 1.888889 0.000000
1.416667 1.916667 0.000000
1.444444 1.944444 0.000000
1.472222 1.972222 0.000000
1.527778 2.027778 0.000000
1.555556 2.055556 0.000000
1.583333 2.083333 0.000000
1.611111 2.111111 0.000000
1.638889 2.138889 0.000000
1.666667 2.166667 0.000000
1.694444 2.194444 0.000000
1.722222 2.222222 0.000000
1.750000 2.250000 0.000000
1.777778 2.277778 0.000000
1.805556 2.305556 0.000000
[...]
POINT_DATA 6577
SCALARS UX float 1
LOOKUP_TABLE default
-0.000031
0.000166
-0.047220
-0.569870
-0.281681
-0.115212
0.000052
-0.000003
-0.000004
-0.000005
0.000004
0.000004
-0.000020
0.000002
0.000003
0.000003
-0.000002
0.000003
-0.000002
0.000002
0.000002
-0.000001
0.000001
0.000001
0.000002
0.000001
-0.000001
-0.000002
0.000001
-0.000001
0.000002
0.000001
0.000000
-0.000000
0.000000
0.000000
-0.000001
0.000000
0.000001
-0.000003
0.000001
0.000001
-0.000003
0.000004
0.000001
0.000002
-0.000003
-0.000000
-0.000001
-0.000009
0.000010
-0.000012
0.000012
0.000012
-0.000069
0.000050
0.049844
0.066321
0.085705
0.112236
0.122890
0.141416
0.163520
0.171477
0.180062
0.184588
0.192511
0.201137
0.208606
0.217180
0.233680
0.238398
0.246780
0.256119
0.265074
0.267749
0.266971
0.268772
0.272539
0.282747
0.282888
0.285516
0.286743
0.282765
0.292605
0.292646
0.295443
0.290675
0.297939
0.294994
0.295324
0.288665
0.288400
0.291349
0.281648
0.279077
0.267891
0.258629
0.254006
0.243963
0.231584
0.230246
0.219833
0.203727
0.191877
0.184762
0.163830
0.160357
0.123160
0.117084
0.087234
0.082110
0.056030
0.049764
0.040791
0.027746
0.003854
0.008983
-0.007649
-0.018150
-0.026425
-0.019974
-0.026660
-0.024357
-0.034399
-0.033198
-0.030412
-0.037825
-0.044603
-0.041869
-0.057454
-0.055937
-0.048020
-0.052561
-0.053186
-0.052806
-0.058820
-0.057175
-0.062496
-0.054906
-0.046932
-0.055807
-0.053643
-0.052329
-0.052884
-0.055615
-0.051656
-0.054986
-0.057896
-0.057244
-0.052975
-0.051092
-0.054673
-0.051283
-0.051137
-0.062283
-0.075876
-0.082308
-0.094584
-0.103661
-0.114280
-0.125880
-0.136499
-0.148299
-0.161556
-0.168749
-0.179804
-0.191480
-0.200529
-0.215187
-0.229285
-0.236279
-0.248605
-0.262551
-0.270322
-0.281746
-0.293104
-0.305227
-0.310309
-0.324427
-0.331679
-0.344775
-0.349180
-0.360639
-0.367672
-0.379746
-0.388729
-0.397453
-0.405724
-0.416718
-0.427907
-0.436502
-0.442889
-0.456239
-0.470233
-0.480586
-0.489427
-0.498408
-0.509269
-0.519162
-0.533024
-0.541896
-0.550188
-0.558382
-0.566663
-0.573538
-0.570626
-0.564097
-0.561508
-0.566748
-0.566890
-0.566912
-0.571734
-0.562594
-0.566354
-0.558155
-0.562269
-0.558777
-0.559495
-0.559886
-0.562677
-0.561288
-0.560006
-0.554988
-0.552615
-0.558428
-0.554207
-0.551150
-0.547880
-0.547518
-0.551065
-0.552717
-0.550126
-0.545987
-0.550243
-0.539898
-0.543778
-0.548615
-0.549521
-0.538786
-0.537506
-0.537904
-0.537230
-0.537714
-0.536877
-0.540839
-0.538211
-0.537884
-0.539564
-0.535127
-0.541734
-0.538209
-0.533454
-0.542273
-0.545153
-0.540130
-0.535561
-0.545914
-0.541376
-0.550586
-0.551213
-0.553944
-0.549287
-0.549101
-0.553059
-0.551192
-0.569376
-0.559498
-0.563623
-0.577404
-0.581991
-0.580103
-0.583171
-0.585444
-0.588591
-0.586312
-0.587035
-0.580859
-0.572961
-0.572283
-0.570743
-0.556511
-0.544868
-0.530895
-0.513707
-0.498423
-0.452835
-0.433725
-0.377658
-0.346624
-0.280127
-0.161907
-0.163437
-0.154770
-0.146042
-0.137660
-0.133107
-0.123827
-0.112622
-0.094233
-0.084894
-0.060955
-0.041973
-0.244936
-0.252061
-0.246525
-0.284751
-0.265380
-0.225082
-0.271661
-0.206960
-0.230016
-0.244074
-0.222937
-0.225452
-0.222849
-0.256048
-0.180955
-0.279659
-0.214779
-0.242702
-0.271387
-0.230518
-0.288365
-0.280372
-0.271329
-0.243264
-0.201664
-0.259821
-0.148223
-0.177874
-0.157101
-0.201997
-0.136719
-0.199545
-0.177281
-0.161629
-0.280458
-0.150814
-0.210357
-0.137550
-0.161775
-0.183523
-0.208256
-0.225720
-0.193582
-0.137769
-0.176696
-0.145804
-0.124338
-0.142995
-0.117100
-0.137004
-0.104097
-0.119820
-0.125971
-0.089176
-0.071601
-0.082393
-0.067362
-0.060076
-0.056012
-0.041867
-0.055781
-0.043082
-0.043718
-0.030587
-0.031228
-0.025105
-0.033367
-0.028483
-0.030675
0.001406
-0.025691
-0.038775
-0.562518
-0.565927
-0.061842
-0.054597
-0.013516
-0.018582
-0.036986
-0.040996
-0.047410
-0.156626
-0.165327
-0.166663
-0.250699
-0.246697
-0.242750
-0.171710
-0.438186
-0.436539
-0.432171
-0.173205
-0.162918
-0.166464
-0.522371
-0.524976
-0.515966
-0.529174
-0.543083
-0.534641
-0.175751
-0.103429
-0.096314
-0.098508
-0.175843
-0.188101
-0.172773
-0.521590
-0.525059
-0.511944
-0.436324
-0.215473
-0.215464
-0.227620
-0.231761
-0.241714
-0.240988
-0.190546
-0.184770
-0.196063
-0.191671
-0.437553
-0.446595
-0.441529
-0.440029
-0.430189
-0.442455
-0.437765
-0.447341
-0.200452
-0.190569
-0.197657
-0.235150
-0.316958
-0.311928
-0.307210
-0.046533
-0.041403
-0.304890
-0.482036
-0.479218
-0.467607
-0.488691
-0.447747
-0.448734
-0.437007
-0.310696
-0.316013
-0.314487
-0.308541
-0.148742
-0.144485
-0.139399
-0.137856
-0.425426
-0.433117
-0.433088
-0.425832
-0.246184
-0.235315
-0.243595
-0.435030
-0.419712
-0.420881
-0.056839
-0.050682
-0.052807
-0.047517
-0.044889
-0.033506
-0.052171
-0.462922
-0.477213
-0.469425
-0.179076
-0.189393
-0.183201
-0.195415
-0.240137
-0.529796
-0.540175
-0.529424
-0.356205
-0.347382
-0.343874
-0.354664
-0.469988
-0.481948
-0.469964
-0.477444
-0.446759
-0.440275
-0.451619
-0.314137
-0.319622
-0.324028
-0.125511
-0.131824
-0.128868
-0.130914
-0.101097
-0.102392
-0.043998
-0.347077
-0.341346
-0.352254
-0.347260
-0.361841
-0.358646
-0.425361
-0.414655
-0.444340
-0.446885
-0.436027
-0.499707
-0.494734
-0.493246
-0.453944
-0.312504
-0.321183
-0.309916
-0.513062
-0.502537
-0.511781
-0.435936
-0.377046
-0.375218
-0.383406
-0.315588
-0.312557
-0.317527
-0.413940
-0.416012
-0.424345
-0.116614
-0.103234
-0.116968
-0.105452
-0.211905
-0.213874
-0.218542
-0.223820
-0.045760
-0.025935
-0.291069
-0.280884
-0.287568
-0.273978
-0.518124
-0.530871
-0.523261
-0.339686
-0.332877
-0.340952
-0.351066
-0.362398
-0.355699
-0.336836
-0.535780
-0.417127
-0.404424
-0.408967
-0.413588
-0.421116
-0.424787
-0.431687
-0.413828
-0.537827
-0.529214
-0.358945
-0.354969
-0.364799
-0.519284
-0.524292
-0.287269
-0.285948
-0.297134
-0.513637
-0.522884
-0.511682
-0.534415
-0.516957
-0.516023
-0.497321
-0.501271
-0.498953
-0.501444
-0.479726
-0.490866
-0.481418
-0.283289
-0.292940
-0.175561
-0.286882
-0.524695
-0.536047
-0.533126
-0.539329
-0.559233
-0.553359
-0.065042
-0.067887
-0.186183
-0.184853
-0.173049
-0.195916
-0.387532
-0.384976
-0.379909
-0.468375
-0.476924
-0.475714
-0.373524
-0.195355
-0.189884
-0.201055
-0.398861
-0.432240
-0.552122
-0.548030
-0.537838
-0.304964
-0.299727
-0.083047
-0.088399
-0.068125
-0.062332
-0.477587
-0.486053
-0.487566
-0.495875
-0.544511
-0.538746
-0.549854
-0.533965
-0.503104
-0.509782
-0.496963
-0.532838
-0.523362
-0.575456
-0.579886
-0.579565
-0.456612
-0.453970
-0.494511
-0.512207
-0.490502
-0.488183
-0.487027
-0.088976
-0.081177
-0.492884
-0.503868
-0.507765
-0.535658
-0.449735
-0.457050
-0.450407
-0.512415
-0.506417
-0.142239
-0.147797
-0.152658
-0.135296
-0.169519
-0.159718
-0.153810
-0.333773
-0.339201
-0.345144
-0.297246
-0.294898
-0.121006
-0.117899
-0.111305
-0.331539
-0.303707
-0.309253
-0.310438
-0.552365
-0.567562
-0.557603
-0.468878
-0.468347
-0.460482
-0.156270
-0.486992
-0.495305
-0.483397
-0.472218
-0.473304
-0.483789
-0.429621
-0.447904
-0.149259
-0.398849
-0.269447
-0.457755
-0.466771
-0.459673
-0.460194
-0.463829
-0.509002
-0.510389
-0.494772
-0.529465
-0.459128
-0.463520
-0.470571
-0.074218
-0.071484
-0.468537
-0.482088
-0.479913
-0.463454
-0.466391
-0.432608
-0.554383
-0.542067
-0.531343
-0.541059
-0.526158
-0.532514
-0.063833
-0.414673
-0.407640
-0.547536
-0.548985
-0.456208
-0.460687
-0.070755
-0.068663
-0.322496
-0.310134
-0.498926
-0.201893
-0.199815
-0.197983
-0.190043
-0.530882
-0.522641
-0.434006
-0.441088
-0.436290
-0.471135
-0.465444
-0.481630
-0.435767
-0.530158
-0.444114
-0.095655
-0.368177
-0.380117
-0.379807
-0.527086
-0.532582
-0.505993
-0.541053
-0.543575
-0.573150
-0.557725
-0.563794
-0.390729
-0.378771
-0.087099
-0.079238
-0.081652
-0.353674
-0.314483
-0.283932
-0.279819
-0.537928
-0.535578
-0.529485
-0.402701
-0.394845
-0.430963
-0.494219
-0.497995
-0.373811
-0.349937
-0.483064
-0.488105
-0.127393
-0.137219
-0.123065
-0.503202
-0.516796
-0.546470
-0.538357
-0.524063
-0.543857
-0.392619
-0.307198
-0.302571
-0.531842
-0.551848
-0.538142
-0.523076
-0.555223
-0.540655
-0.544236
-0.217028
-0.214992
-0.208337
-0.472755
-0.062412
-0.069804
-0.068142
-0.079905
-0.500095
-0.496875
-0.511937
-0.482850
-0.478878
-0.471725
-0.455382
-0.454083
-0.457418
-0.460187
-0.462104
-0.547286
-0.475632
-0.460171
-0.458462
-0.103903
-0.481350
-0.485380
-0.492428
-0.517831
-0.204980
-0.094071
-0.096768
-0.085537
-0.537683
-0.528477
-0.560875
-0.526582
-0.526635
-0.534360
-0.484041
-0.513442
-0.520855
-0.421017
-0.548362
-0.139619
-0.142447
-0.440769
-0.446281
-0.206783
-0.076684
-0.055858
-0.059765
-0.557427
-0.546148
-0.539425
-0.534086
-0.072366
-0.066120
-0.145032
-0.149945
-0.144616
-0.158207
-0.486339
-0.487928
-0.478444
-0.452533
-0.080722
-0.082317
-0.540982
-0.533101
-0.560103
-0.489994
-0.515134
-0.525428
-0.488430
-0.449666
-0.104916
-0.110212
-0.157373
-0.517812
-0.511158
-0.241118
-0.233256
-0.239632
-0.554318
-0.101620
-0.089531
-0.516155
-0.527574
-0.535294
-0.564658
-0.494513
-0.539895
-0.028123
-0.056290
-0.515602
-0.253917
-0.150779
-0.164290
-0.158625
-0.502061
-0.514644
-0.523827
-0.488532
-0.133072
-0.122799
-0.127151
-0.544909
-0.236423
-0.156006
-0.536077
-0.533364
-0.553844
-0.072001
-0.068367
-0.289453
-0.282359
-0.280025
-0.086502
-0.088892
-0.558111
-0.290164
-0.289536
-0.089297
-0.087136
-0.103149
-0.491553
-0.495105
-0.490236
-0.498903
-0.130795
-0.382336
-0.045116
-0.043991
-0.132166
-0.474720
-0.484094
-0.554053
-0.500246
-0.502488
-0.509535
-0.510375
-0.517786
-0.487229
-0.110192
-0.081784
-0.228931
-0.221686
-0.220374
-0.509266
-0.231104
-0.383624
-0.378670
-0.395896
-0.113051
-0.099517
-0.121388
-0.507469
-0.521533
-0.500656
-0.548556
-0.558953
-0.553597
-0.194826
-0.192216
-0.187211
-0.199596
-0.120778
-0.529947
-0.518633
-0.505704
-0.529813
-0.110256
-0.485038
-0.489545
-0.478690
-0.506727
-0.517682
-0.485678
-0.481116
-0.464416
-0.068302
-0.096216
-0.096687
-0.085542
-0.285651
-0.292783
-0.285251
-0.290207
-0.072925
-0.105102
-0.111848
-0.539544
-0.496897
-0.264145
-0.263885
-0.257584
-0.531011
-0.529934
-0.554001
-0.076477
-0.473050
-0.463280
-0.089565
-0.092205
-0.074598
-0.261807
-0.263976
-0.249303
-0.253163
-0.260004
-0.449190
-0.449379
-0.451610
-0.256448
-0.448572
-0.119212
-0.441528
-0.441308
-0.494134
-0.503221
-0.151302
-0.535046
-0.200963
-0.186711
-0.197847
-0.121013
-0.187889
-0.127264
-0.500440
-0.209030
-0.199493
-0.492365
-0.208038
-0.326506
-0.326527
-0.333247
-0.461072
-0.058044
-0.515387
-0.353074
-0.342365
-0.344518
-0.317212
-0.290742
-0.285866
-0.294802
-0.233012
-0.223349
-0.465930
-0.483238
-0.545296
-0.539819
-0.533117
-0.291390
-0.528634
-0.529381
-0.492005
-0.503833
-0.242946
-0.232855
-0.537700
-0.548670
-0.517106
-0.525121
-0.526106
-0.532894
-0.521949
-0.080657
-0.087308
-0.078643
-0.091327
-0.454509
-0.052026
-0.060272
-0.071398
-0.457016
-0.459147
-0.439684
-0.442864
-0.063271
-0.254880
-0.248606
-0.257251
-0.440303
-0.391391
-0.403943
-0.132635
-0.566863
-0.561704
-0.556837
-0.432746
-0.435326
-0.398133
-0.526768
-0.330255
-0.327024
-0.316887
-0.511412
-0.518538
-0.480449
-0.411896
-0.262391
-0.273113
-0.176054
-0.181157
-0.177094
-0.275535
-0.434671
-0.434817
-0.443282
-0.427007
-0.106339
-0.098209
-0.081586
-0.066789
-0.289282
-0.294029
-0.296806
-0.102527
-0.114837
-0.111466
-0.307428
-0.244829
-0.226212
-0.229808
-0.222469
-0.490218
-0.503238
-0.504987
-0.457660
-0.471530
-0.215670
-0.207759
-0.218293
-0.455169
-0.448054
-0.457876
-0.531586
-0.500289
-0.484763
-0.495460
-0.508943
-0.521376
-0.510868
-0.332188
-0.327814
-0.332945
-0.450479
-0.452764
-0.448850
-0.508483
-0.508819
-0.509722
-0.542669
-0.549275
-0.546417
-0.540863
-0.439064
-0.430106
-0.443427
-0.454936
-0.505817
-0.502301
-0.496488
-0.435004
-0.550780
-0.506987
-0.516295
-0.501002
-0.424653
-0.075399
-0.425571
-0.476277
-0.456983
-0.468732
-0.131202
-0.120822
-0.131495
-0.496249
-0.511926
-0.479900
-0.487980
-0.500726
-0.528110
-0.491837
-0.498394
-0.497717
-0.485977
-0.509049
-0.514499
-0.065121
-0.068999
-0.070492
-0.082072
-0.443060
-0.442717
-0.439303
-0.430039
-0.425470
-0.515520
-0.518998
-0.345951
-0.333940
-0.335531
-0.334027
-0.240640
-0.222554
-0.228975
-0.135916
-0.425715
-0.417799
-0.418386
-0.471314
-0.450485
-0.460079
-0.492358
-0.265829
-0.272550
-0.262537
-0.227689
-0.476533
-0.484693
-0.493698
-0.497527
-0.511121
-0.510955
-0.441483
-0.438393
-0.200646
-0.192659
-0.197588
-0.191745
-0.436418
-0.505929
-0.496423
-0.139575
-0.125884
-0.135774
-0.241972
-0.103062
-0.115828
-0.103694
-0.091955
-0.467862
-0.474465
-0.422097
-0.419843
-0.096142
-0.085606
-0.095492
-0.472382
-0.479364
-0.470212
-0.536869
-0.534247
-0.209503
-0.203759
-0.200657
-0.430262
-0.438012
-0.426455
-0.435609
-0.445782
-0.454038
-0.463166
-0.207034
-0.467744
-0.478203
-0.481420
-0.484830
-0.207198
-0.280069
-0.179980
-0.183864
-0.172890
-0.485662
-0.201330
-0.202372
-0.490923
-0.503047
-0.433969
-0.424880
-0.162941
-0.168078
-0.177970
-0.465237
-0.465831
-0.452398
-0.209899
-0.100477
-0.089804
-0.470388
-0.160855
-0.155083
-0.428115
-0.156436
-0.424077
-0.415463
-0.411316
-0.362905
-0.349686
-0.367940
-0.248709
-0.243214
-0.260141
-0.257786
-0.263216
-0.249135
-0.303315
-0.303999
-0.312165
-0.310473
-0.473847
-0.447314
-0.454082
-0.456321
-0.125065
-0.125922
-0.137971
-0.486324
-0.181685
-0.191695
-0.436559
-0.445733
-0.319156
-0.317561
-0.324753
-0.321692
-0.454760
-0.214485
-0.203800
-0.462064
-0.478401
-0.265232
-0.144955
-0.135875
-0.133042
-0.170294
-0.165892
-0.527037
-0.465355
-0.465192
-0.427266
-0.422449
-0.188217
-0.477514
-0.473827
-0.148640
-0.161563
-0.146808
-0.419097
-0.183805
-0.183248
-0.405636
-0.400269
-0.509415
-0.497495
-0.491506
-0.437425
-0.442140
-0.442087
-0.529887
-0.516997
-0.341200
-0.330269
-0.333012
-0.427221
-0.438145
-0.482124
-0.475434
-0.136909
-0.447152
-0.370714
-0.364203
-0.370400
-0.364395
-0.155013
-0.305355
-0.307487
-0.312054
-0.466190
-0.462969
-0.466561
-0.458062
-0.163284
-0.173695
-0.168225
-0.175727
-0.459609
-0.472942
-0.418020
-0.421753
-0.189292
-0.199874
-0.313577
-0.317399
-0.512188
-0.079882
-0.087688
-0.089606
-0.102364
-0.298221
-0.299314
-0.307938
-0.222018
-0.231124
-0.219959
-0.069053
-0.060889
-0.076949
-0.432947
-0.442440
-0.437550
-0.418200
-0.414162
-0.187021
-0.173981
-0.177670
-0.238954
-0.060754
-0.075740
-0.411433
-0.402201
-0.398203
-0.411952
-0.415371
-0.407316
-0.403946
-0.421185
-0.433789
-0.190238
-0.196320
-0.190813
-0.239329
-0.237155
-0.236464
-0.445968
-0.451260
-0.466914
-0.409521
-0.411367
-0.231198
-0.309288
-0.315669
-0.306986
-0.405977
-0.319365
-0.186756
-0.202657
-0.202054
-0.394279
-0.390378
-0.416965
-0.430907
-0.422520
-0.413181
-0.439616
-0.447257
-0.457154
-0.094129
-0.105204
-0.109858
-0.105830
-0.512221
-0.514232
-0.504915
-0.400923
-0.399682
-0.393375
-0.389876
-0.397486
-0.080068
-0.095646
-0.089045
-0.085016
-0.097162
-0.105270
-0.109862
-0.210237
-0.399388
-0.388827
-0.385783
-0.181835
-0.175083
-0.232873
-0.223450
-0.231938
-0.225455
-0.411202
-0.425659
-0.437416
-0.403559
-0.444197
-0.455813
-0.399496
-0.392867
-0.177685
-0.179492
-0.173861
-0.104027
-0.103073
-0.112211
-0.202143
-0.202820
-0.317973
-0.319556
-0.367833
-0.373932
-0.450505
-0.452335
-0.456793
-0.388727
-0.376672
-0.376832
-0.318443
-0.471149
-0.476692
-0.479912
-0.091927
-0.081767
-0.404347
-0.413686
-0.195793
-0.233972
-0.223120
-0.236622
-0.430185
-0.436319
-0.233917
-0.242953
-0.467833
-0.469543
-0.160339
-0.162693
-0.245932
-0.393754
-0.387865
-0.427708
-0.401323
-0.396119
-0.404745
-0.385306
-0.378072
-0.498848
-0.504851
-0.402574
-0.410967
-0.148602
-0.491235
-0.498716
-0.478150
-0.508037
-0.495335
-0.390946
-0.383333
-0.120122
-0.292235
-0.321960
-0.463333
-0.304507
-0.296331
-0.305230
-0.382404
-0.369716
-0.302864
-0.293717
-0.473541
-0.462008
-0.460988
-0.397162
-0.405496
-0.299218
-0.153371
-0.166599
-0.340942
-0.342233
-0.337079
-0.168785
-0.525077
-0.277874
-0.332091
-0.337760
-0.330873
-0.282262
-0.449750
-0.457466
-0.322422
-0.335476
-0.359732
-0.335265
-0.434254
-0.438833
-0.420582
-0.328251
-0.336245
-0.388892
-0.380253
-0.456531
-0.372449
-0.364835
-0.395189
-0.405029
-0.426402
-0.435448
-0.499725
-0.129107
-0.110746
-0.137711
-0.149881
-0.106668
-0.102559
-0.099029
-0.484926
-0.313696
-0.321295
-0.312903
-0.326380
-0.310858
-0.470471
-0.468424
-0.456863
-0.286342
-0.281905
-0.284352
-0.059834
-0.055716
-0.067042
-0.386193
-0.273169
-0.353931
-0.353095
-0.360465
-0.360935
-0.346612
-0.352942
-0.350504
-0.346546
-0.206588
-0.541380
-0.545759
-0.544689
-0.174297
-0.175719
-0.183009
-0.358569
-0.212785
-0.225253
-0.215531
-0.225813
-0.232397
-0.368854
-0.129857
-0.120155
-0.117949
-0.275459
-0.514065
-0.498673
-0.506457
-0.511479
-0.135454
-0.313033
-0.307019
-0.306707
-0.315769
-0.196776
-0.202246
-0.195437
-0.082856
-0.209582
-0.471099
-0.469086
-0.473895
-0.486578
-0.537570
-0.525215
-0.492454
-0.493411
-0.475518
-0.519340
-0.237330
-0.437894
-0.445910
-0.439466
-0.439030
-0.428357
-0.419960
-0.420322
-0.425877
-0.429024
-0.435317
-0.428608
-0.443504
-0.376454
-0.367877
-0.375266
-0.220779
-0.197896
-0.109894
-0.098584
-0.098710
-0.105412
-0.096273
-0.107148
-0.375169
-0.387038
-0.380965
-0.393218
-0.359929
-0.537048
-0.533853
-0.544623
-0.176363
-0.183830
-0.547437
-0.326331
-0.218771
-0.221714
-0.217726
-0.220811
-0.215350
-0.338497
-0.354010
-0.175001
-0.476273
-0.465415
-0.466285
-0.462741
-0.505211
-0.082446
-0.099633
-0.282721
-0.114204
-0.120042
-0.124679
-0.153209
-0.140643
-0.149432
-0.106461
-0.258201
-0.252915
-0.264112
-0.259407
-0.166170
-0.274309
-0.278477
-0.284635
-0.465559
-0.457129
-0.320286
-0.329036
-0.329048
-0.335681
-0.463906
-0.468514
-0.461803
-0.468347
-0.477614
-0.224565
-0.231441
-0.383283
-0.378213
-0.378449
-0.389103
-0.392441
-0.401240
-0.403518
-0.382540
-0.383548
-0.377449
-0.391080
-0.348688
-0.340166
-0.137478
-0.150033
-0.134721
-0.241098
-0.249521
-0.253268
-0.230589
-0.238642
-0.106902
-0.113838
-0.449359
-0.456727
-0.452438
-0.451297
-0.272193
-0.219517
-0.214374
-0.245174
-0.255099
-0.259022
-0.501697
-0.507330
-0.492256
-0.499066
-0.489899
-0.182876
-0.402449
-0.387797
-0.083356
-0.075669
-0.075007
-0.084496
-0.090649
-0.290947
-0.289253
-0.329339
-0.334850
-0.328571
-0.308051
-0.297096
-0.305391
-0.321978
-0.296510
-0.263161
-0.266604
-0.259480
-0.452644
-0.260285
-0.456024
-0.271467
-0.269552
-0.276175
-0.194747
-0.185935
-0.192894
-0.348288
-0.348075
-0.338699
-0.358090
-0.350642
-0.357424
-0.226959
-0.220322
-0.217287
-0.303647
-0.302038
-0.296454
-0.296863
-0.327157
-0.526567
-0.513477
-0.168525
-0.173274
-0.180977
-0.173491
-0.450655
-0.447222
-0.429860
-0.436763
-0.231946
-0.466492
-0.464018
-0.472812
-0.474067
-0.483251
-0.486822
-0.450391
-0.458314
-0.446979
-0.410618
-0.415278
-0.438340
-0.371629
-0.387410
-0.381777
-0.393424
-0.402177
-0.408172
-0.402984
-0.413811
-0.125997
-0.123238
-0.470906
-0.092483
-0.114471
-0.114992
-0.127446
-0.124358
-0.141960
-0.478230
-0.467412
-0.477384
-0.515467
-0.507738
-0.512957
-0.256540
-0.253982
-0.262979
-0.393784
-0.404112
-0.308101
-0.297256
-0.384511
-0.390364
-0.384745
-0.147872
-0.160983
-0.152005
-0.167565
-0.360959
-0.373415
-0.362778
-0.364404
-0.275159
-0.272110
-0.267287
-0.290338
-0.286158
-0.292172
-0.510156
-0.147339
-0.139682
-0.146475
-0.140189
-0.153075
-0.141152
-0.230010
-0.225808
-0.224430
-0.234617
-0.227140
-0.377863
-0.380948
-0.374058
-0.374533
-0.385432
-0.380215
-0.167108
-0.163296
-0.390366
-0.394389
-0.401327
-0.063089
-0.074639
-0.400720
-0.234322
-0.239500
-0.236346
-0.383242
-0.123297
-0.151012
-0.152014
-0.162667
-0.168306
-0.161467
-0.159469
-0.099849
-0.106230
-0.099717
-0.092542
-0.461031
-0.446289
-0.273421
-0.270949
-0.266398
-0.278828
-0.259113
-0.262063
-0.253414
-0.493754
-0.498302
-0.496032
-0.211612
-0.209031
-0.219307
-0.321908
-0.334707
-0.528923
-0.529720
-0.318483
-0.402627
-0.398137
-0.411001
-0.403515
-0.397380
-0.397833
-0.390242
-0.526372
-0.525503
-0.536634
-0.518875
-0.526922
-0.523050
-0.539645
-0.534320
-0.543647
-0.538631
-0.344488
-0.345623
-0.256544
-0.352909
-0.336890
-0.484343
-0.497609
-0.410141