# vtk DataFile Version 2.0
Test
ASCII
DATASET POLYDATA
POINTS 6577 float
0.000000 0.000000 0.000000
2.000000 0.000000 0.000000
2.000000 4.000000 0.000000
0.000000 4.000000 0.000000
0.000000 0.500000 0.000000
1.500000 2.000000 0.000000
2.000000 2.500000 0.000000
0.040000 0.000000 0.000000
0.080000 0.000000 0.000000
0.120000 0.000000 0.000000
0.160000 0.000000 0.000000
0.200000 0.000000 0.000000
0.240000 0.000000 0.000000
0.280000 0.000000 0.000000
0.320000 0.000000 0.000000
0.360000 0.000000 0.000000
0.400000 0.000000 0.000000
0.440000 0.000000 0.000000
0.480000 0.000000 0.000000
0.520000 0.000000 0.000000
0.560000 0.000000 0.000000
0.600000 0.000000 0.000000
0.640000 0.000000 0.000000
0.680000 0.000000 0.000000
0.720000 0.000000 0.000000
0.760000 0.000000 0.000000
0.800000 0.000000 0.000000
0.840000 0.000000 0.000000
0.880000 0.000000 0.000000
0.920000 0.000000 0.000000
0.960000 0.000000 0.000000
1.000000 0.000000 0.000000
1.040000 0.000000 0.000000
1.080000 0.000000 0.000000
1.120000 0.000000 0.000000
1.160000 0.000000 0.000000
1.200000 0.000000 0.000000
1.240000 0.000000 0.000000
1.280000 0.000000 0.000000
1.320000 0.000000 0.000000
1.360000 0.000000 0.000000
1.400000 0.000000 0.000000
1.440000 0.000000 0.000000
1.480000 0.000000 0.000000
1.520000 0.000000 0.000000
1.560000 0.000000 0.000000
1.600000 0.000000 0.000000
1.640000 0.000000 0.000000
1.680000 0.000000 0.000000
1.720000 0.000000 0.000000
1.760000 0.000000 0.000000
1.800000 0.000000 0.000000
1.840000 0.000000 0.000000
1.880000 0.000000 0.000000
1.920000 0.000000 0.000000
1.960000 0.000000 0.000000
2.000000 0.039683 0.000000
2.000000 0.079365 0.000000
2.000000 0.119048 0.000000
2.000000 0.158730 0.000000
2.000000 0.198413 0.000000
2.000000 0.238095 0.000000
2.000000 0.277778 0.000000
2.000000 0.317460 0.000000
2.000000 0.357143 0.000000
2.000000 0.396825 0.000000
2.000000 0.436508 0.000000
2.000000 0.476190 0.000000
2.000000 0.515873 0.000000
2.000000 0.555556 0.000000
2.000000 0.595238 0.000000
2.000000 0.634921 0.000000
2.000000 0.674603 0.000000
2.000000 0.714286 0.000000
2.000000 0.753968 0.000000
2.000000 0.793651 0.000000
2.000000 0.833333 0.000000
2.000000 0.873016 0.000000
2.000000 0.912698 0.000000
2.000000 0.952381 0.000000
2.000000 0.992063 0.000000
2.000000 1.031746 0.000000
2.000000 1.071429 0.000000
2.000000 1.111111 0.000000
2.000000 1.150794 0.000000
2.000000 1.190476 0.000000
2.000000 1.230159 0.000000
2.000000 1.269841 0.000000
2.000000 1.309524 0.000000
2.000000 1.349206 0.000000
2.000000 1.388889 0.000000
2.000000 1.428571 0.000000
2.000000 1.468254 0.000000
2.000000 1.507937 0.000000
2.000000 1.547619 0.000000
2.000000 1.587302 0.000000
2.000000 1.626984 0.000000
2.000000 1.666667 0.000000
2.000000 1.706349 0.000000
2.000000 1.746032 0.000000
2.000000 1.785714 0.000000
2.000000 1.825397 0.000000
2.000000 1.865079 0.000000
2.000000 1.904762 0.000000
2.000000 1.944444 0.000000
2.000000 1.984127 0.000000
2.000000 2.023810 0.000000
2.000000 2.063492 0.000000
2.000000 2.103175 0.000000
2.000000 2.142857 0.000000
2.000000 2.182540 0.000000
2.000000 2.222222 0.000000
2.000000 2.261905 0.000000
2.000000 2.301587 0.000000
2.000000 2.341270 0.000000
2.000000 2.380952 0.000000
2.000000 2.420635 0.000000
2.000000 2.460317 0.000000
2.000000 2.539474 0.000000
2.000000 2.578947 0.000000
2.000000 2.618421 0.000000
2.000000 2.657895 0.000000
2.000000 2.697368 0.000000
2.000000 2.736842 0.000000
2.000000 2.776316 0.000000
2.000000 2.815789 0.000000
2.000000 2.855263 0.000000
2.000000 2.894737 0.000000
2.000000 2.934211 0.000000
2.000000 2.973684 0.000000
2.000000 3.013158 0.000000
2.000000 3.052632 0.000000
2.000000 3.092105 0.000000
2.000000 3.131579 0.000000
2.000000 3.171053 0.000000
2.000000 3.210526 0.000000
2.000000 3.250000 0.000000
2.000000 3.289474 0.000000
2.000000 3.328947 0.000000
2.000000 3.368421 0.000000
2.000000 3.407895 0.000000
2.000000 3.447368 0.000000
2.000000 3.486842 0.000000
2.000000 3.526316 0.000000
2.000000 3.565789 0.000000
2.000000 3.605263 0.000000
2.000000 3.644737 0.000000
2.000000 3.684211 0.000000
2.000000 3.723684 0.000000
2.000000 3.763158 0.000000
2.000000 3.802632 0.000000
2.000000 3.842105 0.000000
2.000000 3.881579 0.000000
2.000000 3.921053 0.000000
2.000000 3.960526 0.000000
1.960000 4.000000 0.000000
1.920000 4.000000 0.000000
1.880000 4.000000 0.000000
1.840000 4.000000 0.000000
1.800000 4.000000 0.000000
1.760000 4.000000 0.000000
1.720000 4.000000 0.000000
1.680000 4.000000 0.000000
1.640000 4.000000 0.000000
1.600000 4.000000 0.000000
1.560000 4.000000 0.000000
1.520000 4.000000 0.000000
1.480000 4.000000 0.000000
1.440000 4.000000 0.000000
1.400000 4.000000 0.000000
1.360000 4.000000 0.000000
1.320000 4.000000 0.000000
1.280000 4.000000 0.000000
1.240000 4.000000 0.000000
1.200000 4.000000 0.000000
1.160000 4.000000 0.000000
1.120000 4.000000 0.000000
1.080000 4.000000 0.000000
1.040000 4.000000 0.000000
1.000000 4.000000 0.000000
0.960000 4.000000 0.000000
0.920000 4.000000 0.000000
0.880000 4.000000 0.000000
0.840000 4.000000 0.000000
0.800000 4.000000 0.000000
0.760000 4.000000 0.000000
0.720000 4.000000 0.000000
0.680000 4.000000 0.000000
0.640000 4.000000 0.000000
0.600000 4.000000 0.000000
0.560000 4.000000 0.000000
0.520000 4.000000 0.000000
0.480000 4.000000 0.000000
0.440000 4.000000 0.000000
0.400000 4.000000 0.000000
0.360000 4.000000 0.000000
0.320000 4.000000 0.000000
0.280000 4.000000 0.000000
0.240000 4.000000 0.000000
0.200000 4.000000 0.000000
0.160000 4.000000 0.000000
0.120000 4.000000 0.000000
0.080000 4.000000 0.000000
0.040000 4.000000 0.000000
0.000000 3.960227 0.000000
0.000000 3.920455 0.000000
0.000000 3.880682 0.000000
0.000000 3.840909 0.000000
0.000000 3.801136 0.000000
0.000000 3.761364 0.000000
0.000000 3.721591 0.000000
0.000000 3.681818 0.000000
0.000000 3.642045 0.000000
0.000000 3.602273 0.000000
0.000000 3.562500 0.000000
0.000000 3.522727 0.000000
0.000000 3.482955 0.000000
0.000000 3.443182 0.000000
0.000000 3.403409 0.000000
0.000000 3.363636 0.000000
0.000000 3.323864 0.000000
0.000000 3.284091 0.000000
0.000000 3.244318 0.000000
0.000000 3.204545 0.000000
0.000000 3.164773 0.000000
0.000000 3.125000 0.000000
0.000000 3.085227 0.000000
0.000000 3.045455 0.000000
0.000000 3.005682 0.000000
0.000000 2.965909 0.000000
0.000000 2.926136 0.000000
0.000000 2.886364 0.000000
0.000000 2.846591 0.000000
0.000000 2.806818 0.000000
0.000000 2.767045 0.000000
0.000000 2.727273 0.000000
0.000000 2.687500 0.000000
0.000000 2.647727 0.000000
0.000000 2.607955 0.000000
0.000000 2.568182 0.000000
0.000000 2.528409 0.000000
0.000000 2.488636 0.000000
0.000000 2.448864 0.000000
0.000000 2.409091 0.000000
0.000000 2.369318 0.000000
0.000000 2.329545 0.000000
0.000000 2.289773 0.000000
0.000000 2.250000 0.000000
0.000000 2.210227 0.000000
0.000000 2.170455 0.000000
0.000000 2.130682 0.000000
0.000000 2.090909 0.000000
0.000000 2.051136 0.000000
0.000000 2.011364 0.000000
0.000000 1.971591 0.000000
0.000000 1.931818 0.000000
0.000000 1.892045 0.000000
0.000000 1.852273 0.000000
0.000000 1.812500 0.000000
0.000000 1.772727 0.000000
0.000000 1.732955 0.000000
0.000000 1.693182 0.000000
0.000000 1.653409 0.000000
0.000000 1.613636 0.000000
0.000000 1.573864 0.000000
0.000000 1.534091 0.000000
0.000000 1.494318 0.000000
0.000000 1.454545 0.000000
0.000000 1.414773 0.000000
0.000000 1.375000 0.000000
0.000000 1.335227 0.000000
0.000000 1.295455 0.000000
0.000000 1.255682 0.000000
0.000000 1.215909 0.000000
0.000000 1.176136 0.000000
0.000000 1.136364 0.000000
0.000000 1.096591 0.000000
0.000000 1.056818 0.000000
0.000000 1.017045 0.000000
0.000000 0.977273 0.000000
0.000000 0.937500 0.000000
0.000000 0.897727 0.000000
0.000000 0.857955 0.000000
0.000000 0.818182 0.000000
0.000000 0.778409 0.000000
0.000000 0.738636 0.000000
0.000000 0.698864 0.000000
0.000000 0.659091 0.000000
0.000000 0.619318 0.000000
0.000000 0.579545 0.000000
0.000000 0.539773 0.000000
0.000000 0.461538 0.000000
0.000000 0.423077 0.000000
0.000000 0.384615 0.000000
0.000000 0.346154 0.000000
0.000000 0.307692 0.000000
0.000000 0.269231 0.000000
0.000000 0.230769 0.000000
0.000000 0.192308 0.000000
0.000000 0.153846 0.000000
0.000000 0.115385 0.000000
0.000000 0.076923 0.000000
0.000000 0.038462 0.000000
0.027778 0.527778 0.000000
0.055556 0.555556 0.000000
0.083333 0.583333 0.000000
0.111111 0.611111 0.000000
0.138889 0.638889 0.000000
0.166667 0.666667 0.000000
0.194444 0.694444 0.000000
0.222222 0.722222 0.000000
0.250000 0.750000 0.000000
0.277778 0.777778 0.000000
0.305556 0.805556 0.000000
0.333333 0.833333 0.000000
0.361111 0.861111 0.000000
0.388889 0.888889 0.000000
0.416667 0.916667 0.000000
0.444444 0.944444 0.000000
0.472222 0.972222 0.000000
0.500000 1.000000 0.000000
0.527778 1.027778 0.000000
0.555556 1.055556 0.000000
0.583333 1.083333 0.000000
0.611111 1.111111 0.000000
0.638889 1.138889 0.000000
0.666667 1.166667 0.000000
0.694444 1.194444 0.000000
0.722222 1.222222 0.000000
0.750000 1.250000 0.000000
0.777778 1.277778 0.000000
0.805556 1.305556 0.000000
0.833333 1.333333 0.000000
0.861111 1.361111 0.000000
0.888889 1.388889 0.000000
0.916667 1.416667 0.000000
0.944444 1.444444 0.000000
0.972222 1.472222 0.000000
1.000000 1.500000 0.000000
1.027778 1.527778 0.000000
1.055556 1.555556 0.000000
1.083333 1.583333 0.000000
1.111111 1.611111 0.000000
1.138889 1.638889 0.000000
1.166667 1.666667 0.000000
1.194444 1.694444 0.000000
1.222222 1.722222 0.000000
1.250000 1.750000 0.000000
1.277778 1.777778 0.000000
1.305556 1.805556 0.000000
1.333333 1.833333 0.000000
1.361111 1.861111 0.000000
1.388889 1.888889 0.000000
1.416667 1.916667 0.000000
1.444444 1.944444 0.000000
1.472222 1.972222 0.000000
1.527778 2.027778 0.000000
1.555556 2.055556 0.000000
1.583333 2.083333 0.000000
1.611111 2.111111 0.000000
1.638889 2.138889 0.000000
1.666667 2.166667 0.000000
1.694444 2.194444 0.000000
1.722222 2.222222 0.000000
1.750000 2.250000 0.000000
1.777778 2.277778 0.000000
1.805556 2.305556 0.000000
[...]
POINT_DATA 6577
SCALARS UX float 1
LOOKUP_TABLE default
-0.000110
0.000148
0.473561
-0.434625
-0.327762
0.418797
0.989137
0.000026
-0.000007
-0.000002
0.000002
-0.000004
-0.000015
0.000002
0.000002
0.000005
-0.000000
0.000001
0.000002
0.000001
0.000002
-0.000001
0.000001
-0.000002
-0.000001
0.000000
-0.000001
-0.000001
0.000000
0.000000
0.000001
0.000000
-0.000000
0.000000
0.000000
0.000000
-0.000000
-0.000000
0.000001
-0.000001
-0.000000
0.000000
-0.000000
0.000001
0.000000
0.000001
-0.000001
-0.000000
-0.000000
-0.000001
0.000003
-0.000003
0.000002
-0.000001
-0.000001
-0.000020
0.026916
0.051738
0.070552
0.086659
0.101049
0.115074
0.128210
0.141739
0.155547
0.169470
0.184422
0.200586
0.214018
0.225307
0.235819
0.246274
0.256981
0.267345
0.277654
0.288043
0.298070
0.309054
0.319672
0.329155
0.339870
0.350650
0.360776
0.371335
0.382626
0.393995
0.407116
0.420659
0.433337
0.446400
0.457042
0.470476
0.483579
0.497252
0.509365
0.519861
0.528584
0.536239
0.542482
0.548565
0.554885
0.562197
0.573283
0.585120
0.596781
0.610081
0.626877
0.643925
0.662343
0.678904
0.693523
0.708664
0.729062
0.752008
0.782971
0.822266
0.868005
0.922285
1.042418
1.071534
1.078099
1.050812
0.994823
0.935311
0.870782
0.783299
0.735375
0.723188
0.718597
0.717659
0.710521
0.700436
0.704124
0.691366
0.682020
0.668306
0.649007
0.618320
0.581548
0.562248
0.556564
0.548223
0.536018
0.526678
0.518758
0.512370
0.504090
0.495898
0.486563
0.485612
0.488922
0.496782
0.505964
0.491649
0.479537
0.453450
0.430647
0.405510
0.376922
0.351770
0.328678
0.303755
0.282148
0.262037
0.242846
0.222639
0.203396
0.184171
0.165511
0.148643
0.132104
0.116222
0.100844
0.086001
0.071319
0.057060
0.042881
0.028817
0.014701
0.000339
-0.014087
-0.029793
-0.045013
-0.060281
-0.076415
-0.093203
-0.110136
-0.126173
-0.142803
-0.160819
-0.179017
-0.198003
-0.216783
-0.235263
-0.253865
-0.272265
-0.290787
-0.309343
-0.327934
-0.346088
-0.364392
-0.382500
-0.400255
-0.417686
-0.435865
-0.443625
-0.446494
-0.446079
-0.443400
-0.442075
-0.443369
-0.444784
-0.451033
-0.456936
-0.462356
-0.467304
-0.472209
-0.480160
-0.478863
-0.481953
-0.486081
-0.492361
-0.500130
-0.501840
-0.505817
-0.508492
-0.508406
-0.509010
-0.511510
-0.510552
-0.512870
-0.513807
-0.518821
-0.518726
-0.520535
-0.521632
-0.524903
-0.528816
-0.528728
-0.530804
-0.529221
-0.528819
-0.530526
-0.530261
-0.526458
-0.523307
-0.520028
-0.517721
-0.515179
-0.515130
-0.514622
-0.514706
-0.515078
-0.515530
-0.516447
-0.516491
-0.513846
-0.507012
-0.498953
-0.488840
-0.476647
-0.463301
-0.448217
-0.429922
-0.414626
-0.397723
-0.380884
-0.364765
-0.350312
-0.336583
-0.325514
-0.315206
-0.307199
-0.301064
-0.296424
-0.292851
-0.291029
-0.290239
-0.289778
-0.291280
-0.295065
-0.299991
-0.307397
-0.317929
-0.330544
-0.344316
-0.359789
-0.384472
-0.432725
-0.480955
-0.538100
-0.204422
-0.192709
-0.187986
-0.180128
-0.172125
-0.162987
-0.152441
-0.141612
-0.128528
-0.114544
-0.095291
-0.054727
-0.361528
-0.493495
-0.463511
-0.382447
-0.298391
-0.252958
-0.331467
-0.336619
-0.388707
-0.120311
-0.034930
-0.082247
-0.191507
-0.222420
-0.228125
-0.217152
-0.226262
-0.223505
-0.196246
-0.160986
-0.131401
-0.167098
-0.194956
-0.193430
-0.362000
-0.480154
-0.248350
-0.077857
-0.220538
-0.159385
-0.135285
-0.078852
-0.050106
-0.032020
-0.025660
-0.009938
-0.009096
0.006698
0.035576
0.039526
0.059154
0.079246
0.105178
0.115838
0.138785
0.157148
0.182155
0.221981
0.258488
0.293793
0.326950
0.377845
0.384484
0.459494
0.463163
0.472728
0.489578
0.505811
0.543020
0.575869
0.595598
0.624960
0.658548
0.686636
0.713971
0.740824
0.785579
0.829429
0.874967
0.927220
1.033826
1.035168
-0.434625
-0.432521
0.472023
0.474812
0.910332
0.977702
0.896826
0.871574
0.772729
0.380757
0.357896
0.359784
-0.034987
-0.029088
-0.006460
0.340750
-0.401089
-0.389756
-0.393525
0.212697
0.228496
0.226145
-0.347342
-0.354383
-0.336592
-0.364230
-0.386147
-0.380310
0.222743
0.361740
0.380369
0.371265
0.204752
0.195582
0.211824
-0.431875
-0.436975
-0.418496
-0.401221
0.160971
0.157933
0.143784
-0.055595
-0.069557
-0.081593
0.221947
0.217071
0.202271
0.198750
-0.189749
-0.204662
-0.199673
-0.201027
-0.187862
-0.204470
-0.195591
-0.213388
0.216883
0.238767
0.218422
-0.058243
-0.178357
-0.191037
-0.175188
0.660868
0.696514
-0.179172
-0.451341
-0.451066
-0.438997
-0.464120
-0.237656
-0.244748
-0.220855
-0.128364
-0.129868
-0.144959
-0.112946
0.156773
0.155640
0.171790
0.161661
-0.306005
-0.319997
-0.324715
-0.302444
0.139239
0.159604
0.139804
-0.385223
-0.366944
-0.375697
0.694253
0.798753
0.698194
0.821393
0.832510
0.886238
0.737825
-0.411108
-0.423816
-0.417760
0.096660
0.049037
0.065090
0.029349
0.156666
-0.367241
-0.386404
-0.373545
-0.051402
-0.040681
-0.038111
-0.058018
-0.376393
-0.393950
-0.383253
-0.398212
-0.402696
-0.398821
-0.410690
0.008963
0.004922
-0.005731
0.442041
0.419193
0.432748
0.210410
0.311807
0.317172
0.709509
-0.216719
-0.207105
-0.213481
-0.232475
-0.242372
-0.252263
-0.386498
-0.369618
-0.303368
-0.319135
-0.296320
-0.407489
-0.402498
-0.394426
-0.323798
0.014452
0.000144
0.016578
-0.339954
-0.327500
-0.345661
-0.399319
-0.321375
-0.318106
-0.329721
0.002389
0.018365
0.000566
-0.338506
-0.349017
-0.354559
0.286726
0.373245
0.278587
0.386579
0.099391
0.092701
0.070685
0.057174
0.920144
0.976260
0.046034
0.055250
0.039604
0.067129
-0.416513
-0.433702
-0.430490
-0.238340
-0.222862
-0.231281
-0.284225
-0.297440
-0.273223
-0.233380
-0.450119
-0.155675
-0.135733
-0.144547
-0.373665
-0.382878
-0.387635
-0.398450
-0.149048
-0.512766
-0.507056
-0.060172
-0.052990
-0.068220
-0.353153
-0.363451
-0.134859
-0.143910
-0.180415
-0.265759
-0.268669
-0.258846
-0.504477
-0.495609
-0.491832
-0.250830
-0.255548
-0.244805
-0.483904
-0.231685
-0.235538
-0.227096
-0.153496
-0.190299
-0.153024
-0.168796
-0.376729
-0.395252
-0.391961
-0.412640
-0.421759
-0.414964
0.447124
0.447763
0.092988
0.090105
0.140799
0.041513
-0.105100
-0.105210
-0.092738
-0.217767
-0.220418
-0.215458
-0.089443
0.045333
0.060850
0.034620
-0.316140
-0.329716
-0.494625
-0.494578
-0.484221
-0.163833
-0.162233
0.464938
0.454141
0.543839
0.568355
-0.431460
-0.444892
-0.446666
-0.457756
-0.262711
-0.255596
-0.261253
-0.255629
-0.237225
-0.238036
-0.230418
-0.275761
-0.280667
-0.283691
-0.291052
-0.287935
-0.330668
-0.317296
-0.313326
-0.317454
-0.330565
-0.257392
-0.249382
0.392009
0.421006
-0.259838
-0.273167
-0.264687
-0.373373
-0.414529
-0.426979
-0.417234
-0.275260
-0.232200
0.186328
0.182435
0.171391
0.200044
0.244194
0.263470
0.244785
-0.218703
-0.238206
-0.259334
-0.163259
-0.144368
0.339367
0.356213
0.348891
-0.211059
-0.153971
-0.157774
-0.167103
-0.301404
-0.304237
-0.292712
-0.245718
-0.250121
-0.232978
0.374317
-0.461039
-0.471907
-0.460133
-0.236809
-0.229950
-0.241200
-0.300828
-0.308385
0.396977
-0.311356
-0.308824
-0.211405
-0.213037
-0.210172
-0.220080
-0.215990
-0.296285
-0.305109
-0.299377
-0.306499
-0.430417
-0.426454
-0.438069
0.427034
0.439685
-0.223557
-0.254520
-0.244548
-0.233606
-0.225832
-0.396645
-0.429507
-0.256774
-0.250643
-0.254787
-0.246626
-0.250173
0.471113
-0.370439
-0.358002
-0.411686
-0.403259
-0.217808
-0.213824
0.430803
0.445939
-0.206221
-0.195698
-0.270375
0.297495
0.303131
0.320155
0.334101
-0.290163
-0.285814
-0.198614
-0.213663
-0.202301
-0.289811
-0.279073
-0.289166
-0.342264
-0.295737
-0.218167
0.367362
-0.297853
-0.309130
-0.302516
-0.357660
-0.284071
-0.284803
-0.296342
-0.395754
-0.319102
-0.312493
-0.325491
-0.315905
-0.310210
0.391553
0.411035
0.404551
-0.364317
-0.341852
-0.119233
-0.096642
-0.380013
-0.385996
-0.372003
-0.134048
-0.120586
-0.256669
-0.262013
-0.273283
-0.208370
-0.430904
-0.264652
-0.267143
0.333252
0.324551
0.350750
-0.281235
-0.283283
-0.311485
-0.301547
-0.296780
-0.285995
-0.121389
-0.227620
-0.202045
-0.298857
-0.429580
-0.276504
-0.274567
-0.289387
-0.399983
-0.393425
0.035429
0.042317
0.063392
-0.241985
0.468206
0.429974
0.453272
0.418192
-0.252362
-0.261254
-0.266260
-0.188608
-0.261922
-0.251271
-0.212094
-0.209621
-0.223567
-0.239385
-0.230939
-0.279669
-0.441464
-0.439149
-0.427593
0.348090
-0.452090
-0.453566
-0.462035
-0.344378
0.051267
0.374406
0.372091
0.394719
-0.271492
-0.268843
-0.284889
-0.359983
-0.360840
-0.375987
-0.259999
-0.262650
-0.264305
-0.206226
-0.275989
0.318634
0.308043
-0.210546
-0.208284
0.062038
0.503157
0.557173
0.574396
-0.420964
-0.413480
-0.392048
-0.381087
0.446184
0.462753
0.329222
0.334006
0.317771
0.311799
-0.281816
-0.279977
-0.263625
-0.221818
0.419733
0.402914
-0.268146
-0.265262
-0.281143
-0.254327
-0.255966
-0.260816
-0.246842
-0.216125
0.345227
0.326494
0.300149
-0.343828
-0.328958
0.138413
0.148847
0.129651
-0.271566
0.350008
0.378295
-0.343282
-0.361666
-0.261500
-0.276495
-0.278649
-0.310384
0.815609
0.761579
-0.295153
0.093446
0.284314
0.223131
0.251385
-0.247601
-0.248458
-0.255562
-0.241766
0.316288
0.331617
0.317042
-0.402011
0.139244
0.253758
-0.383417
-0.370884
-0.411474
0.440554
0.458695
-0.118596
-0.110318
-0.093923
0.414051
0.394407
-0.268649
-0.131994
-0.100954
0.311582
0.365650
0.325372
-0.288937
-0.304892
-0.293706
-0.311814
0.330559
-0.098634
0.839391
0.942964
0.345580
-0.272846
-0.275288
-0.486217
-0.239352
-0.290499
-0.292548
-0.239361
-0.247897
-0.238065
0.321576
0.396684
-0.036764
-0.019695
-0.017528
-0.327242
-0.042571
-0.332486
-0.321206
-0.340113
0.337473
0.370239
0.303280
-0.328248
-0.347915
-0.312834
-0.322110
-0.267335
-0.323265
0.063468
0.085928
0.100262
0.060074
0.340444
-0.248903
-0.307205
-0.232174
-0.308343
0.365784
-0.279523
-0.285746
-0.267502
-0.232657
-0.240558
-0.276287
-0.270548
-0.248688
0.621027
0.536795
0.541009
0.564785
0.065067
0.046661
0.072129
0.057266
0.624886
0.374131
0.371359
-0.389299
-0.300965
-0.069571
-0.074694
-0.054975
-0.371275
-0.364182
-0.408858
0.432714
-0.270111
-0.258687
0.404888
0.389101
0.457936
-0.056605
-0.073207
-0.109462
-0.122598
-0.141418
-0.246310
-0.236766
-0.228793
-0.049766
-0.213665
0.304304
-0.226953
-0.220372
-0.287759
-0.311207
0.301882
-0.321136
0.242050
0.258365
0.235938
0.322831
0.250708
0.286327
-0.314395
0.226285
0.253444
-0.294947
0.235958
-0.018436
-0.014544
-0.028359
-0.435018
0.698178
-0.305531
-0.234005
-0.228965
-0.231977
-0.004670
-0.173174
-0.163572
-0.178030
0.134611
0.151917
-0.282233
-0.284030
-0.414213
-0.400875
-0.383447
-0.168556
-0.498170
-0.500743
-0.300968
-0.302618
0.126091
0.141692
-0.333486
-0.335202
-0.318870
-0.319622
-0.387240
-0.404167
-0.373658
0.458784
0.461191
0.474688
0.445450
-0.256293
0.703748
0.698660
0.674241
-0.279499
-0.266761
-0.254334
-0.244616
0.687136
0.149036
0.167401
0.142179
-0.234992
-0.346198
-0.355878
0.349162
-0.276313
-0.268344
-0.270124
-0.232739
-0.224248
-0.358407
-0.369944
-0.235371
-0.234052
-0.221041
-0.336995
-0.353400
-0.297980
-0.367845
-0.129141
-0.159451
0.257308
0.242665
0.263620
-0.167103
-0.349739
-0.345089
-0.358816
-0.333717
0.426622
0.424334
0.543843
0.635378
-0.184319
-0.194355
-0.198588
0.402154
0.387146
0.409265
-0.208887
0.173683
0.181387
0.164973
0.183251
-0.294572
-0.317525
-0.324007
-0.292286
-0.295449
0.202827
0.219083
0.197369
-0.225613
-0.212275
-0.227021
-0.334231
-0.316993
-0.312071
-0.315424
-0.331951
-0.333021
-0.332272
-0.245460
-0.209143
-0.255755
-0.289336
-0.277166
-0.265056
-0.480444
-0.488727
-0.488983
-0.438206
-0.447280
-0.459975
-0.422926
-0.262773
-0.252121
-0.409870
-0.421754
-0.476957
-0.473120
-0.464467
-0.241741
-0.457629
-0.340078
-0.357232
-0.324507
-0.239274
0.598250
-0.230248
-0.308912
-0.302340
-0.305615
0.381311
0.364730
0.372169
-0.468629
-0.482958
-0.323128
-0.327222
-0.329935
-0.402303
-0.296173
-0.302975
-0.311287
-0.288960
-0.345282
-0.347511
0.533305
0.516184
0.520460
0.495852
-0.299114
-0.286373
-0.274038
-0.269559
-0.260302
-0.382948
-0.370632
-0.087354
-0.062694
-0.054498
-0.081041
0.115523
0.134177
0.124284
0.351818
-0.249520
-0.246413
-0.237182
-0.319660
-0.312394
-0.316009
-0.307982
-0.037522
-0.058006
-0.058039
0.130083
-0.335010
-0.339848
-0.342496
-0.358177
-0.361503
-0.356529
-0.308892
-0.295825
0.167711
0.182611
0.172091
0.180834
-0.282652
-0.342136
-0.323391
0.383938
0.391678
0.373045
0.113727
0.645896
0.632230
0.634502
0.650793
-0.441795
-0.449604
-0.275824
-0.259668
0.389501
0.475255
0.386207
-0.261188
-0.280024
-0.258273
-0.435643
-0.418763
0.186186
0.186690
0.204225
-0.184387
-0.195885
-0.180373
-0.193166
-0.322293
-0.326282
-0.329977
0.155271
-0.345744
-0.347827
-0.290091
-0.280622
0.015756
-0.177088
0.262772
0.249396
0.280450
-0.354232
0.083542
0.030764
-0.369652
-0.374583
-0.318214
-0.304961
0.261140
0.279070
0.238681
-0.241156
-0.237915
-0.218364
0.013817
0.475001
0.473871
-0.263410
0.321438
0.340793
-0.291119
0.280014
-0.169585
-0.282476
-0.267525
-0.285018
-0.269654
-0.287273
0.101859
0.108550
0.090979
0.096808
0.082297
0.109173
-0.150462
-0.137931
-0.157211
-0.140433
-0.254805
-0.211834
-0.220951
-0.234986
0.436704
0.420416
0.396489
-0.303026
0.091761
0.059052
-0.330300
-0.336254
-0.181825
-0.172000
-0.189137
-0.176281
-0.341311
0.169155
0.178302
-0.357374
-0.363096
-0.030219
0.479402
0.504600
0.498758
0.300987
0.294518
-0.408190
-0.247549
-0.247919
-0.323895
-0.311743
0.229468
-0.287211
-0.270929
0.359629
0.339299
0.370690
-0.298801
0.193639
0.197200
-0.288310
-0.271612
-0.357897
-0.333370
-0.314259
-0.195718
-0.211907
-0.207274
-0.443865
-0.410836
-0.226765
-0.219823
-0.216346
-0.337672
-0.344892
-0.295120
-0.277594
0.498383
-0.351621
-0.076767
-0.065258
-0.081393
-0.071471
0.352942
-0.217026
-0.219101
-0.233014
-0.255289
-0.241333
-0.251730
-0.232013
0.311040
0.298052
0.320173
0.285798
-0.367035
-0.375231
-0.161922
-0.174364
0.186178
0.182161
-0.233626
-0.233174
-0.378348
0.537235
0.515523
0.523106
0.495294
0.030387
0.026023
0.014836
-0.019981
-0.023352
0.007162
0.550213
0.541604
0.529697
-0.185681
-0.199999
-0.199841
-0.327845
-0.315984
0.323160
0.351443
0.335289
-0.054369
0.514707
0.501401
-0.304218
-0.290134
-0.274221
-0.151782
-0.346776
-0.345264
-0.333225
-0.339806
-0.350059
0.299053
0.275150
0.304316
0.118374
-0.063043
-0.061238
-0.359584
-0.375064
-0.387729
-0.328754
-0.317486
-0.044597
-0.166380
-0.179051
-0.174820
-0.305869
-0.189217
0.051888
0.021584
0.040354
-0.289097
-0.271759
-0.340374
-0.352340
-0.167362
-0.157493
-0.361821
-0.377791
-0.387903
0.393575
0.380608
0.295188
0.320044
-0.397410
-0.401984
-0.377394
-0.329031
-0.318043
-0.120835
-0.113600
-0.119200
0.535263
0.510447
0.435097
0.497522
0.405485
0.420999
0.392901
0.008403
-0.304894
-0.286463
-0.268297
0.097691
0.116208
0.162264
0.177733
0.159050
0.169002
-0.339837
-0.351175
-0.362743
-0.135045
-0.377924
-0.395680
-0.329630
-0.317809
0.285021
0.274205
0.310809
0.499311
0.489978
0.479556
0.016094
0.000174
-0.179041
-0.168139
-0.076266
-0.084815
-0.226186
-0.230203
-0.246627
-0.303932
-0.284441
-0.256840
-0.192392
-0.358394
-0.351098
-0.369927
0.664120
0.674677
-0.340863
-0.352513
0.025814
-0.050375
-0.057223
-0.074224
-0.364825
-0.377589
-0.072894
-0.094530
-0.262250
-0.272895
0.350385
0.333523
0.120659
-0.329037
-0.316012
-0.180037
-0.133336
-0.120072
-0.132470
-0.302811
-0.285444
-0.302788
-0.320576
-0.343019
-0.351901
0.270420
-0.322332
-0.340493
-0.262234
-0.316569
-0.298008
-0.330408
-0.314170
0.461737
-0.163958
-0.190854
-0.435736
-0.143082
-0.141377
-0.154472
-0.296981
-0.280400
-0.149055
-0.147453
-0.283413
-0.262003
-0.252739
-0.343223
-0.353185
-0.160612
0.374640
0.350927
-0.210013
-0.223025
-0.208016
0.325183
-0.491002
-0.119999
-0.192903
-0.208409
-0.194593
-0.132803
-0.257432
-0.271839
-0.212634
-0.218321
-0.235591
-0.225088
-0.359204
-0.363255
-0.347627
-0.182069
-0.200397
-0.332206
-0.318060
-0.420818
-0.299477
-0.274334
-0.340661
-0.353244
-0.341314
-0.348333
-0.348453
0.231236
0.271450
0.176113
0.155769
0.499424
0.515576
0.516960
-0.368848
-0.251739
-0.255880
-0.218026
-0.238751
-0.212358
-0.416145
-0.420583
-0.402067
-0.153750
-0.144198
-0.161036
0.640793
0.642513
0.601515
-0.335381
-0.136345
-0.062494
-0.054215
-0.072169
-0.063760
-0.153698
-0.171553
-0.168033
-0.232409
0.198390
-0.474173
-0.491281
-0.480657
0.360298
0.373098
0.333594
-0.189570
0.000763
-0.021345
-0.005557
-0.030732
-0.040957
-0.082134
0.242448
0.254034
0.255151
-0.149016
-0.457599
-0.442433
-0.445931
-0.454401
0.219750
-0.207421
-0.200576
-0.195371
-0.213945
0.268480
0.255652
0.275046
0.470897
0.240282
-0.443342
-0.449785
-0.451233
-0.459768
-0.507655
-0.491428
-0.465868
-0.457326
-0.443983
-0.503265
-0.116048
-0.233333
-0.252244
-0.241545
-0.238065
-0.179516
-0.169948
-0.169166
-0.185592
-0.359255
-0.373208
-0.361165
-0.374511
-0.288783
-0.275219
-0.284447
0.021621
0.004598
0.526444
0.533284
0.564683
0.477236
0.600336
0.601376
-0.091182
-0.106262
-0.099086
-0.115448
-0.277514
-0.485748
-0.483733
-0.499049
0.121265
0.091334
-0.500245
-0.202667
-0.023482
-0.042086
-0.026491
-0.050952
-0.005270
-0.166178
-0.183843
0.131699
-0.307891
-0.284774
-0.288577
-0.267118
-0.484598
0.452520
0.446291
-0.187519
0.471134
0.463753
0.452779
0.187435
0.207503
0.204360
0.483440
-0.121741
-0.106856
-0.119442
-0.104484
0.404299
0.078461
0.060734
0.059805
-0.435109
-0.427153
-0.199262
-0.201964
-0.216002
-0.213749
-0.422723
-0.432538
-0.421371
-0.429335
-0.438600
0.189175
0.167719
-0.270958
-0.270802
-0.257993
-0.280801
-0.346745
-0.354657
-0.357793
-0.192917
-0.207777
-0.194078
-0.212015
-0.242102
-0.231751
0.217545
0.201059
0.223745
0.142731
0.125488
0.117314
-0.484655
0.142976
0.495405
0.481326
-0.367779
-0.385223
-0.377998
-0.376053
-0.472790
0.217907
0.214404
0.127446
0.107454
0.099904
-0.375697
-0.390482
-0.355080
-0.358434
-0.335424
0.298248
-0.355232
-0.341795
0.611644
0.637263
0.638057
0.588657
0.584043
0.043640
0.039773
-0.010532
-0.023638
-0.014448
-0.157634
-0.138485
-0.165224
-0.179634
-0.142214
-0.076572
-0.096301
-0.077772
-0.236821
-0.092245
-0.424433
-0.130701
-0.123692
-0.149159
0.283906
0.295543
0.293176
-0.215025
-0.206860
-0.188751
-0.229624
-0.225953
-0.239192
-0.032873
-0.004264
-0.001400
-0.125224
-0.109911
-0.121910
-0.138580
-0.194456
-0.497826
-0.481989
0.355148
0.336374
0.317561
0.336299
-0.393461
-0.386219
-0.334538
-0.348361
-0.001444
-0.394263
-0.382588
-0.398509
-0.403113
-0.414192
-0.417470
-0.377590
-0.395433
-0.377684
-0.160776
-0.177946
-0.377740
-0.302864
-0.317098
-0.317267
-0.330495
-0.259103
-0.277282
-0.264676
-0.277659
0.256260
0.231132
-0.401406
0.363876
0.473627
0.460211
0.445908
0.441287
0.424293
-0.411547
-0.407208
-0.420320
-0.469327
-0.458880
-0.469783
-0.096763
-0.090344
-0.103062
-0.243909
-0.260652
-0.208895
-0.196649
-0.224340
-0.232149
-0.215118
0.476882
0.436289
0.473175
0.433241
-0.072851
-0.089095
-0.077996
-0.083692
-0.140558
-0.121370
-0.113208
-0.155578
-0.154528
-0.167244
-0.480193
0.204851
0.223820
0.209757
0.238243
0.191313
0.207679
0.181806
0.198463
0.195522
0.178190
0.201548
-0.100061
-0.106546
-0.095659
-0.095236
-0.114166
-0.103229
0.146275
0.162085
-0.119327
-0.128090
-0.133644
0.658084
0.600610
-0.142597
-0.019770
-0.024819
-0.037147
-0.112118
0.156123
0.130920
0.221885
0.194177
0.162677
0.182632
0.181040
0.537209
0.518248
0.549763
0.561192
-0.370445
-0.364338
0.067076
0.074346
0.082845
0.055795
0.096345
0.090608
0.103624
-0.427813
-0.436211
-0.430324
0.019930
0.015617
-0.005193
-0.163400
-0.171278
-0.511934
-0.509102
-0.157920
-0.154032
-0.143878
-0.154346
-0.155561
-0.138821
-0.141905
-0.125539
-0.470416
-0.472533
-0.487356
-0.456405
-0.469231
-0.457797
-0.487065
-0.478116
-0.493940
-0.477238
-0.053531
-0.046123
-0.052961
-0.060424
-0.041329
-0.283179
-0.300132
-0.169951
-0.156721
-0.188430
-0.177459
-0.475921
-0.484450
-0.458522
-0.441998
-0.447429
-0.198297
-0.168642
0.155584
0.107615
0.156196
0.118207
-0.077497
-0.088110
0.084806
0.093743
0.111359
0.115679
0.129880
0.126523
0.143164
0.100436
0.098808
0.086471
-0.432794
-0.109160
-0.090734
0.201660
0.153343
-0.504246
-0.508361
-0.495202
-0.210141
-0.227110
-0.205499
0.047979
0.036503
-0.226121
-0.202281
-0.187064
-0.343500
-0.347714
-0.332857
-0.336936
0.425759
0.313942
0.320587
0.397480
-0.067424
-0.072478
-0.053529
-0.061491
-0.110345
-0.505533
-0.094194
0.493247
0.501107
0.479758
0.494175
0.484227
0.510726
0.499686