# vtk DataFile Version 2.0
Test
ASCII
DATASET POLYDATA
POINTS 25620 float
0.000000 0.000000 0.000000
2.000000 0.000000 0.000000
2.000000 4.000000 0.000000
0.000000 4.000000 0.000000
0.000000 0.500000 0.000000
1.500000 2.000000 0.000000
2.000000 2.500000 0.000000
0.020000 0.000000 0.000000
0.040000 0.000000 0.000000
0.060000 0.000000 0.000000
0.080000 0.000000 0.000000
0.100000 0.000000 0.000000
0.120000 0.000000 0.000000
0.140000 0.000000 0.000000
0.160000 0.000000 0.000000
0.180000 0.000000 0.000000
0.200000 0.000000 0.000000
0.220000 0.000000 0.000000
0.240000 0.000000 0.000000
0.260000 0.000000 0.000000
0.280000 0.000000 0.000000
0.300000 0.000000 0.000000
0.320000 0.000000 0.000000
0.340000 0.000000 0.000000
0.360000 0.000000 0.000000
0.380000 0.000000 0.000000
0.400000 0.000000 0.000000
0.420000 0.000000 0.000000
0.440000 0.000000 0.000000
0.460000 0.000000 0.000000
0.480000 0.000000 0.000000
0.500000 0.000000 0.000000
0.520000 0.000000 0.000000
0.540000 0.000000 0.000000
0.560000 0.000000 0.000000
0.580000 0.000000 0.000000
0.600000 0.000000 0.000000
0.620000 0.000000 0.000000
0.640000 0.000000 0.000000
0.660000 0.000000 0.000000
0.680000 0.000000 0.000000
0.700000 0.000000 0.000000
0.720000 0.000000 0.000000
0.740000 0.000000 0.000000
0.760000 0.000000 0.000000
0.780000 0.000000 0.000000
0.800000 0.000000 0.000000
0.820000 0.000000 0.000000
0.840000 0.000000 0.000000
0.860000 0.000000 0.000000
0.880000 0.000000 0.000000
0.900000 0.000000 0.000000
0.920000 0.000000 0.000000
0.940000 0.000000 0.000000
0.960000 0.000000 0.000000
0.980000 0.000000 0.000000
1.000000 0.000000 0.000000
1.020000 0.000000 0.000000
1.040000 0.000000 0.000000
1.060000 0.000000 0.000000
1.080000 0.000000 0.000000
1.100000 0.000000 0.000000
1.120000 0.000000 0.000000
1.140000 0.000000 0.000000
1.160000 0.000000 0.000000
1.180000 0.000000 0.000000
1.200000 0.000000 0.000000
1.220000 0.000000 0.000000
1.240000 0.000000 0.000000
1.260000 0.000000 0.000000
1.280000 0.000000 0.000000
1.300000 0.000000 0.000000
1.320000 0.000000 0.000000
1.340000 0.000000 0.000000
1.360000 0.000000 0.000000
1.380000 0.000000 0.000000
1.400000 0.000000 0.000000
1.420000 0.000000 0.000000
1.440000 0.000000 0.000000
1.460000 0.000000 0.000000
1.480000 0.000000 0.000000
1.500000 0.000000 0.000000
1.520000 0.000000 0.000000
1.540000 0.000000 0.000000
1.560000 0.000000 0.000000
1.580000 0.000000 0.000000
1.600000 0.000000 0.000000
1.620000 0.000000 0.000000
1.640000 0.000000 0.000000
1.660000 0.000000 0.000000
1.680000 0.000000 0.000000
1.700000 0.000000 0.000000
1.720000 0.000000 0.000000
1.740000 0.000000 0.000000
1.760000 0.000000 0.000000
1.780000 0.000000 0.000000
1.800000 0.000000 0.000000
1.820000 0.000000 0.000000
1.840000 0.000000 0.000000
1.860000 0.000000 0.000000
1.880000 0.000000 0.000000
1.900000 0.000000 0.000000
1.920000 0.000000 0.000000
1.940000 0.000000 0.000000
1.960000 0.000000 0.000000
1.980000 0.000000 0.000000
2.000000 0.020000 0.000000
2.000000 0.040000 0.000000
2.000000 0.060000 0.000000
2.000000 0.080000 0.000000
2.000000 0.100000 0.000000
2.000000 0.120000 0.000000
2.000000 0.140000 0.000000
2.000000 0.160000 0.000000
2.000000 0.180000 0.000000
2.000000 0.200000 0.000000
2.000000 0.220000 0.000000
2.000000 0.240000 0.000000
2.000000 0.260000 0.000000
2.000000 0.280000 0.000000
2.000000 0.300000 0.000000
2.000000 0.320000 0.000000
2.000000 0.340000 0.000000
2.000000 0.360000 0.000000
2.000000 0.380000 0.000000
2.000000 0.400000 0.000000
2.000000 0.420000 0.000000
2.000000 0.440000 0.000000
2.000000 0.460000 0.000000
2.000000 0.480000 0.000000
2.000000 0.500000 0.000000
2.000000 0.520000 0.000000
2.000000 0.540000 0.000000
2.000000 0.560000 0.000000
2.000000 0.580000 0.000000
2.000000 0.600000 0.000000
2.000000 0.620000 0.000000
2.000000 0.640000 0.000000
2.000000 0.660000 0.000000
2.000000 0.680000 0.000000
2.000000 0.700000 0.000000
2.000000 0.720000 0.000000
2.000000 0.740000 0.000000
2.000000 0.760000 0.000000
2.000000 0.780000 0.000000
2.000000 0.800000 0.000000
2.000000 0.820000 0.000000
2.000000 0.840000 0.000000
2.000000 0.860000 0.000000
2.000000 0.880000 0.000000
2.000000 0.900000 0.000000
2.000000 0.920000 0.000000
2.000000 0.940000 0.000000
2.000000 0.960000 0.000000
2.000000 0.980000 0.000000
2.000000 1.000000 0.000000
2.000000 1.020000 0.000000
2.000000 1.040000 0.000000
2.000000 1.060000 0.000000
2.000000 1.080000 0.000000
2.000000 1.100000 0.000000
2.000000 1.120000 0.000000
2.000000 1.140000 0.000000
2.000000 1.160000 0.000000
2.000000 1.180000 0.000000
2.000000 1.200000 0.000000
2.000000 1.220000 0.000000
2.000000 1.240000 0.000000
2.000000 1.260000 0.000000
2.000000 1.280000 0.000000
2.000000 1.300000 0.000000
2.000000 1.320000 0.000000
2.000000 1.340000 0.000000
2.000000 1.360000 0.000000
2.000000 1.380000 0.000000
2.000000 1.400000 0.000000
2.000000 1.420000 0.000000
2.000000 1.440000 0.000000
2.000000 1.460000 0.000000
2.000000 1.480000 0.000000
2.000000 1.500000 0.000000
2.000000 1.520000 0.000000
2.000000 1.540000 0.000000
2.000000 1.560000 0.000000
2.000000 1.580000 0.000000
2.000000 1.600000 0.000000
2.000000 1.620000 0.000000
2.000000 1.640000 0.000000
2.000000 1.660000 0.000000
2.000000 1.680000 0.000000
2.000000 1.700000 0.000000
2.000000 1.720000 0.000000
2.000000 1.740000 0.000000
2.000000 1.760000 0.000000
2.000000 1.780000 0.000000
2.000000 1.800000 0.000000
2.000000 1.820000 0.000000
2.000000 1.840000 0.000000
2.000000 1.860000 0.000000
2.000000 1.880000 0.000000
2.000000 1.900000 0.000000
2.000000 1.920000 0.000000
2.000000 1.940000 0.000000
2.000000 1.960000 0.000000
2.000000 1.980000 0.000000
2.000000 2.000000 0.000000
2.000000 2.020000 0.000000
2.000000 2.040000 0.000000
2.000000 2.060000 0.000000
2.000000 2.080000 0.000000
2.000000 2.100000 0.000000
2.000000 2.120000 0.000000
2.000000 2.140000 0.000000
2.000000 2.160000 0.000000
2.000000 2.180000 0.000000
2.000000 2.200000 0.000000
2.000000 2.220000 0.000000
2.000000 2.240000 0.000000
2.000000 2.260000 0.000000
2.000000 2.280000 0.000000
2.000000 2.300000 0.000000
2.000000 2.320000 0.000000
2.000000 2.340000 0.000000
2.000000 2.360000 0.000000
2.000000 2.380000 0.000000
2.000000 2.400000 0.000000
2.000000 2.420000 0.000000
2.000000 2.440000 0.000000
2.000000 2.460000 0.000000
2.000000 2.480000 0.000000
2.000000 2.520000 0.000000
2.000000 2.540000 0.000000
2.000000 2.560000 0.000000
2.000000 2.580000 0.000000
2.000000 2.600000 0.000000
2.000000 2.620000 0.000000
2.000000 2.640000 0.000000
2.000000 2.660000 0.000000
2.000000 2.680000 0.000000
2.000000 2.700000 0.000000
2.000000 2.720000 0.000000
2.000000 2.740000 0.000000
2.000000 2.760000 0.000000
2.000000 2.780000 0.000000
2.000000 2.800000 0.000000
2.000000 2.820000 0.000000
2.000000 2.840000 0.000000
2.000000 2.860000 0.000000
2.000000 2.880000 0.000000
2.000000 2.900000 0.000000
2.000000 2.920000 0.000000
2.000000 2.940000 0.000000
2.000000 2.960000 0.000000
2.000000 2.980000 0.000000
2.000000 3.000000 0.000000
2.000000 3.020000 0.000000
2.000000 3.040000 0.000000
2.000000 3.060000 0.000000
2.000000 3.080000 0.000000
2.000000 3.100000 0.000000
2.000000 3.120000 0.000000
2.000000 3.140000 0.000000
2.000000 3.160000 0.000000
2.000000 3.180000 0.000000
2.000000 3.200000 0.000000
2.000000 3.220000 0.000000
2.000000 3.240000 0.000000
2.000000 3.260000 0.000000
2.000000 3.280000 0.000000
2.000000 3.300000 0.000000
2.000000 3.320000 0.000000
2.000000 3.340000 0.000000
2.000000 3.360000 0.000000
2.000000 3.380000 0.000000
2.000000 3.400000 0.000000
2.000000 3.420000 0.000000
2.000000 3.440000 0.000000
2.000000 3.460000 0.000000
2.000000 3.480000 0.000000
2.000000 3.500000 0.000000
2.000000 3.520000 0.000000
2.000000 3.540000 0.000000
2.000000 3.560000 0.000000
2.000000 3.580000 0.000000
2.000000 3.600000 0.000000
2.000000 3.620000 0.000000
2.000000 3.640000 0.000000
2.000000 3.660000 0.000000
2.000000 3.680000 0.000000
2.000000 3.700000 0.000000
2.000000 3.720000 0.000000
2.000000 3.740000 0.000000
2.000000 3.760000 0.000000
2.000000 3.780000 0.000000
2.000000 3.800000 0.000000
2.000000 3.820000 0.000000
2.000000 3.840000 0.000000
2.000000 3.860000 0.000000
2.000000 3.880000 0.000000
2.000000 3.900000 0.000000
2.000000 3.920000 0.000000
2.000000 3.940000 0.000000
2.000000 3.960000 0.000000
2.000000 3.980000 0.000000
1.980000 4.000000 0.000000
1.960000 4.000000 0.000000
1.940000 4.000000 0.000000
1.920000 4.000000 0.000000
1.900000 4.000000 0.000000
1.880000 4.000000 0.000000
1.860000 4.000000 0.000000
1.840000 4.000000 0.000000
1.820000 4.000000 0.000000
1.800000 4.000000 0.000000
1.780000 4.000000 0.000000
1.760000 4.000000 0.000000
1.740000 4.000000 0.000000
1.720000 4.000000 0.000000
1.700000 4.000000 0.000000
1.680000 4.000000 0.000000
1.660000 4.000000 0.000000
1.640000 4.000000 0.000000
1.620000 4.000000 0.000000
1.600000 4.000000 0.000000
1.580000 4.000000 0.000000
1.560000 4.000000 0.000000
1.540000 4.000000 0.000000
1.520000 4.000000 0.000000
1.500000 4.000000 0.000000
1.480000 4.000000 0.000000
1.460000 4.000000 0.000000
1.440000 4.000000 0.000000
1.420000 4.000000 0.000000
1.400000 4.000000 0.000000
1.380000 4.000000 0.000000
1.360000 4.000000 0.000000
1.340000 4.000000 0.000000
1.320000 4.000000 0.000000
1.300000 4.000000 0.000000
1.280000 4.000000 0.000000
1.260000 4.000000 0.000000
1.240000 4.000000 0.000000
1.220000 4.000000 0.000000
1.200000 4.000000 0.000000
1.180000 4.000000 0.000000
1.160000 4.000000 0.000000
1.140000 4.000000 0.000000
1.120000 4.000000 0.000000
1.100000 4.000000 0.000000
1.080000 4.000000 0.000000
1.060000 4.000000 0.000000
1.040000 4.000000 0.000000
1.020000 4.000000 0.000000
1.000000 4.000000 0.000000
0.980000 4.000000 0.000000
0.960000 4.000000 0.000000
0.940000 4.000000 0.000000
0.920000 4.000000 0.000000
0.900000 4.000000 0.000000
0.880000 4.000000 0.000000
0.860000 4.000000 0.000000
0.840000 4.000000 0.000000
0.820000 4.000000 0.000000
0.800000 4.000000 0.000000
0.780000 4.000000 0.000000
0.760000 4.000000 0.000000
0.740000 4.000000 0.000000
[...]
POINT_DATA 25620
SCALARS UX float 1
LOOKUP_TABLE default
-0.000051
0.000035
0.245112
-0.106798
-0.127000
0.243165
0.421142
-0.000035
-0.000009
-0.000006
0.000010
-0.000012
0.000005
-0.000005
0.000003
-0.000001
0.000001
0.000001
-0.000001
0.000001
-0.000000
-0.000000
0.000000
-0.000000
-0.000000
0.000001
-0.000002
-0.000004
0.000003
-0.000001
-0.000001
-0.000000
-0.000000
0.000000
-0.000001
-0.000000
0.000001
-0.000000
-0.000000
-0.000001
0.000000
0.000000
-0.000000
-0.000000
-0.000000
-0.000000
0.000000
-0.000000
-0.000000
-0.000000
0.000000
-0.000000
-0.000000
0.000001
0.000001
-0.000001
0.000000
0.000000
0.000000
-0.000000
0.000000
0.000001
-0.000000
0.000000
-0.000000
0.000000
0.000000
0.000001
0.000000
-0.000000
-0.000000
0.000001
-0.000000
-0.000000
0.000001
-0.000000
0.000002
-0.000000
0.000000
-0.000000
0.000001
0.000000
-0.000000
0.000001
0.000000
0.000000
0.000000
-0.000000
0.000000
0.000001
0.000000
0.000000
0.000000
-0.000000
-0.000000
0.000000
0.000000
0.000001
-0.000000
-0.000004
0.000001
-0.000002
0.000004
0.000004
-0.000014
0.000016
0.013390
0.018016
0.023737
0.028417
0.032546
0.036455
0.040047
0.043489
0.046741
0.049792
0.052774
0.055557
0.058366
0.061059
0.063774
0.066392
0.069116
0.071948
0.074808
0.077009
0.078981
0.080667
0.082347
0.083951
0.085550
0.087186
0.088743
0.090320
0.091820
0.093343
0.095173
0.096702
0.098464
0.100172
0.101915
0.103866
0.105744
0.107835
0.109946
0.112303
0.114966
0.117577
0.119952
0.122308
0.124690
0.126800
0.129631
0.132124
0.134805
0.137394
0.140032
0.143220
0.146317
0.149343
0.152655
0.156147
0.159866
0.163591
0.167382
0.171620
0.176289
0.181036
0.185662
0.190757
0.195701
0.201002
0.206335
0.211814
0.217477
0.223433
0.229827
0.236179
0.242503
0.248988
0.255694
0.262235
0.268845
0.275482
0.282078
0.288474
0.295157
0.301530
0.307964
0.314240
0.320428
0.326490
0.332378
0.338352
0.344242
0.349924
0.355536
0.361146
0.366551
0.371805
0.376838
0.381649
0.386129
0.390334
0.394352
0.398793
0.402819
0.406881
0.410821
0.414646
0.418407
0.422025
0.425563
0.428805
0.431804
0.434553
0.437021
0.439178
0.441204
0.442823
0.444241
0.445204
0.445336
0.444974
0.443815
0.442347
0.439641
0.436413
0.431289
0.428488
0.410813
0.392647
0.369275
0.341379
0.319096
0.303348
0.292868
0.285106
0.279345
0.274782
0.271262
0.267820
0.264281
0.261235
0.258412
0.256121
0.254016
0.252223
0.251077
0.250215
0.249582
0.248675
0.247757
0.246823
0.245798
0.244147
0.243754
0.240629
0.238070
0.237075
0.236276
0.236002
0.235986
0.235782
0.235758
0.235947
0.236116
0.236647
0.236892
0.237849
0.238616
0.239175
0.239987
0.240753
0.241912
0.242927
0.244225
0.245421
0.246600
0.247313
0.248408
0.249161
0.249644
0.250327
0.250592
0.250686
0.250574
0.250208
0.249669
0.249632
0.248943
0.248319
0.247916
0.247414
0.246939
0.246500
0.246001
0.245538
0.245421
0.245186
0.245137
0.244919
0.244895
0.244870
0.240440
0.236068
0.231713
0.227318
0.222899
0.218578
0.214177
0.209869
0.205643
0.201594
0.197394
0.193138
0.189068
0.184935
0.180896
0.176816
0.172489
0.168461
0.164562
0.160487
0.156329
0.152310
0.148369
0.144256
0.140303
0.136380
0.132397
0.128409
0.124531
0.120648
0.116721
0.112870
0.109178
0.105361
0.101641
0.098008
0.094245
0.090695
0.087026
0.083398
0.079948
0.076469
0.073020
0.069561
0.066169
0.062715
0.059271
0.055850
0.052500
0.049212
0.045890
0.042497
0.039340
0.036090
0.032670
0.029369
0.026171
0.022939
0.019723
0.016537
0.013329
0.010078
0.006888
0.003690
0.000480
-0.002686
-0.005812
-0.008990
-0.012182
-0.015303
-0.018442
-0.021603
-0.024759
-0.027909
-0.030992
-0.034066
-0.037274
-0.040444
-0.043484
-0.046558
-0.049692
-0.052785
-0.055842
-0.058898
-0.061985
-0.065075
-0.068123
-0.071052
-0.074146
-0.077217
-0.080288
-0.083200
-0.086246
-0.089306
-0.092249
-0.095233
-0.098164
-0.101026
-0.103967
-0.106837
-0.106872
-0.106787
-0.106770
-0.106479
-0.106268
-0.105954
-0.105724
-0.105459
-0.105064
-0.104728
-0.104180
-0.103733
-0.103186
-0.102660
-0.101954
-0.101495
-0.100779
-0.100089
-0.099404
-0.098693
-0.097785
-0.096957
-0.096132
-0.095175
-0.094376
-0.093444
-0.092400
-0.091531
-0.090600
-0.089420
-0.088403
-0.087435
-0.086402
-0.085310
-0.084187
-0.083047
-0.081911
-0.080759
-0.079632
-0.078452
-0.077261
-0.076140
-0.075160
-0.073932
-0.072875
-0.071638
-0.070458
-0.069593
-0.068262
-0.067376
-0.066335
-0.065387
-0.064232
-0.063163
-0.062288
-0.061613
-0.060769
-0.059859
-0.059039
-0.058449
-0.057767
-0.057205
-0.056740
-0.056094
-0.055724
-0.055443
-0.055300
-0.055033
-0.054821
-0.054991
-0.055024
-0.055320
-0.055568
-0.055871
-0.056259
-0.056818
-0.057609
-0.058219
-0.059120
-0.060505
-0.061516
-0.062420
-0.064152
-0.065643
-0.066983
-0.069174
-0.070917
-0.072695
-0.075179
-0.077283
-0.079959
-0.082450
-0.085135
-0.087983
-0.090912
-0.094142
-0.097341
-0.100663
-0.104004
-0.107637
-0.111583
-0.115266
-0.119193
-0.123356
-0.127290
-0.131695
-0.136039
-0.140205
-0.144713
-0.149185
-0.153785
-0.158085
-0.162796
-0.167365
-0.171917
-0.176446
-0.180876
-0.185368
-0.189830
-0.193975
-0.198302
-0.202355
-0.206353
-0.210218
-0.213895
-0.217473
-0.220732
-0.223912
-0.226886
-0.229609
-0.232037
-0.234329
-0.236323
-0.238027
-0.239551
-0.240651
-0.241605
-0.242284
-0.242583
-0.242717
-0.242539
-0.242092
-0.241459
-0.240557
-0.239464
-0.238038
-0.236667
-0.235016
-0.233307
-0.231413
-0.229441
-0.227407
-0.225345
-0.223187
-0.221121
-0.218967
-0.216849
-0.214713
-0.212625
-0.210475
-0.208260
-0.205926
-0.203360
-0.200323
-0.196558
-0.191881
-0.186589
-0.181613
-0.177697
-0.175355
-0.170974
-0.182433
-0.243886
-0.125646
-0.124792
-0.123826
-0.122437
-0.120378
-0.117833
-0.115062
-0.112022
-0.108796
-0.105432
-0.102025
-0.098459
-0.094786
-0.090957
-0.086758
-0.082442
-0.077621
-0.072802
-0.067363
-0.061800
-0.055783
-0.049207
-0.041194
-0.033038
-0.139266
-0.101892
-0.160076
-0.166545
-0.188208
-0.211202
-0.137987
-0.157046
-0.150519
-0.184277
-0.183065
-0.162040
-0.168364
-0.171566
-0.175895
-0.174566
-0.177573
-0.165711
-0.157171
-0.140695
-0.152193
-0.158645
-0.153841
-0.149843
-0.147425
-0.148693
-0.147021
-0.146971
-0.149034
-0.157984
-0.162224
-0.169337
-0.175563
-0.179772
-0.173016
-0.170467
-0.156445
-0.151375
-0.143227
-0.139607
-0.130042
-0.147627
-0.156373
-0.155822
-0.160609
-0.169171
-0.178461
-0.175964
-0.158186
-0.143063
-0.145383
-0.117960
-0.090659
-0.061307
-0.022106
0.051587
-0.009892
-0.051686
-0.025781
-0.019894
-0.010822
-0.011218
0.006245
-0.011778
0.005871
0.000692
0.009410
0.029538
0.030938
-0.025448
-0.009478
-0.005739
0.036822
0.033127
0.035619
0.005411
0.019187
0.032298
0.022273
0.044207
0.059139
0.090187
0.101153
0.113602
0.098187
0.108838
0.076200
0.094826
0.089080
0.113747
0.154607
0.135831
0.162017
0.093492
0.131964
0.128882
0.136995
0.140825
0.144823
0.183112
0.169772
0.247282
0.214780
0.246463
0.238570
0.243441
0.249630
0.254308
0.264257
0.247061
0.234629
0.237470
0.245627
0.248178
0.249765
0.258606
0.264840
0.271440
0.278787
0.287029
0.293499
0.302632
0.310173
0.318541
0.325799
0.334163
0.341646
0.347413
0.355174
0.361126
0.367663
0.374133
0.380542
0.386415
0.391550
0.396317
0.401421
0.405719
0.407974
0.412595
0.418042
0.107923
0.111073
0.109856
0.110077
-0.207229
-0.207682
-0.205801
-0.205366
0.185550
0.182612
0.187245
0.181449
0.292439
0.282540
0.292826
0.122301
0.122699
0.119523
0.308938
0.306189
0.284588
0.296546
0.286083
0.210432
0.213791
0.213942
-0.057224
-0.059712
-0.061262
-0.056476
0.126439
0.129888
0.127561
0.130057
0.209417
-0.038067
-0.036352
-0.039847
-0.068159
-0.069641
-0.071425
-0.035170
-0.065491
-0.060576
-0.067917
-0.058577
-0.034064
-0.037514
-0.036003
-0.204990
-0.204088
-0.202967
-0.030016
-0.024367
-0.028453
-0.206425
-0.226591
-0.226106
-0.224454
-0.223292
0.113998
0.114411
0.229408
0.221910
-0.207419
-0.204134
-0.207610
-0.205601
-0.221374
-0.223250
0.197637
0.200193
0.198794
-0.026026
-0.030633
-0.066067
-0.067956
-0.068306
-0.070263
0.031861
0.029417
0.033631
0.027862
0.160553
0.164171
0.161055
0.163355
-0.015109
-0.012916
-0.014530
-0.011637
0.201183
0.032276
0.031259
0.029321
0.210998
0.213989
0.212563
0.215519
0.081526
0.084340
0.080142
-0.022843
-0.025734
-0.021163
0.087941
-0.162634
-0.183004
-0.180036
0.087915
0.086517
0.084087
0.090054
0.116624
0.120968
0.117819
0.085133
0.082374
0.080475
0.085314
0.001163
-0.001526
0.000169
-0.001808
-0.073341
-0.070819
-0.072797
-0.069534
0.047316
0.046651
0.044682
0.049556
0.043086
0.040207
0.039803
0.042326
0.080670
0.083823
0.084292
-0.062183
-0.061990
-0.064455
0.079977
0.244888
0.242370
0.027936
0.170585
0.171422
0.173360
0.174700
0.178232
0.176925
-0.178053
-0.178490
-0.182769
-0.181611
0.355940
0.335077
0.326113
0.123479
0.126900
0.123792
0.331068
0.357010
0.349143
0.342907
0.371652
0.394786
0.394975
0.382715
-0.029753
-0.027157
-0.030767
-0.028078
-0.089362
-0.086527
-0.086319
-0.088390
0.068995
0.072134
0.071296
0.009754
0.007117
0.010507
0.007682
0.199322
0.196452
0.198814
-0.003841
-0.005449
-0.002212
0.195019
-0.006064
-0.001730
0.001098
0.002813
-0.087396
-0.090768
-0.094259
-0.097074
0.085080
0.081817
0.082359
0.079274
-0.035440
-0.040426
-0.033206
-0.039794
0.037933
0.039174
0.035839
0.037231
0.098278
0.096947
0.094400
-0.084477
-0.084015
0.093937
-0.081961
0.139248
0.140806
0.141073
0.142532
0.280518
0.272124
0.270359
0.263559
0.070942
0.067376
0.076533
0.067594
-0.001851
-0.004721
-0.000673
-0.004763
0.174264
-0.077627
-0.080407
-0.078507
-0.078012
-0.065382
-0.062821
-0.066189
0.173023
0.174222
0.170651
0.129096
0.124889
0.125955
0.102687
0.100794
0.100578
0.102714
0.052657
0.052371
0.047386
0.047789
-0.112077
-0.114565
-0.118634
-0.120845
-0.053270
-0.049312
-0.050096
0.255635
-0.053349
-0.020168
-0.017297
-0.017535
-0.020299
-0.016938
-0.019702
-0.017416
-0.127471
-0.131633
-0.126847
-0.133157
-0.122092
0.201765
0.198016
0.201177
0.198865
0.204387
0.205896
0.207728
-0.121004
0.022150
0.023928
0.018217
0.018662
-0.002103
-0.000658
0.002699
0.003199
-0.039811
-0.035116
-0.041409
-0.035804
0.018513
0.012978
-0.049629
-0.050639
-0.052278
0.013293
0.182194
0.186267
0.184867
-0.092181
-0.093153
-0.090356
0.173146
0.221333
0.225185
0.223613
0.128018
0.129834
0.126854
-0.049646
-0.054481
-0.049973
-0.055782
-0.007307
-0.009966
-0.007893
-0.011591
0.047702
0.043981
0.043090
0.047241
0.073376
0.073902
0.076731
0.077017
0.099722
0.099360
0.106302
0.104208
-0.020753
-0.022789
0.029614
0.026737
0.027295
0.028555
0.129629
0.124659
0.124414
0.120305
0.001740
0.000605
-0.002732
-0.003342
-0.012527
-0.010163
-0.009740
-0.012862
0.076697
0.073823
0.074600
0.070526
0.095159
0.091668
0.095461
0.172547
0.169322
0.169902
0.140507
0.141806
0.142753
0.143434
0.087254
0.093317
0.093995
0.100156
0.126890
0.123533
0.124238
0.124272
0.156179
0.155124
0.156197
0.154997
0.057816
0.063121
0.061435
-0.092730
-0.095052
-0.094615
-0.037472
-0.032389
-0.038820
-0.030946
0.059774
0.004884
0.005774
0.003036
0.090197
0.092587
0.090957
0.091604
0.043058
0.041032
0.045840
0.161915
0.162583
0.158523
0.041628
-0.109684
-0.105893
-0.113965
0.127001
-0.195482
-0.193396
-0.192333
-0.189925
-0.231629
-0.232530
-0.230229
-0.233503
0.155285
0.157272
0.156064
-0.112740
-0.108991
-0.106909
0.184174
0.182801
0.179167
0.017045
0.014260
0.016753
0.014487
0.162246
0.161923
0.159686
-0.106603
-0.112861
-0.108875
-0.111861
-0.103887
0.057876
0.056478
0.059486
0.040347
0.041091
0.042829
-0.101682
-0.095766
-0.090554
-0.093066
-0.083148
-0.077022
-0.074142
-0.046255
-0.048673
-0.048318
-0.090437
-0.085749
-0.083682
-0.080205
0.198564
0.202203
0.200743
-0.102294
-0.100316
-0.108293
-0.075950
-0.076511
-0.073954
-0.115009
-0.114097
-0.110052
-0.091756
-0.093746
0.225798
0.229274
0.225685
0.165397
0.164460
-0.043896
-0.045075
-0.010725
-0.017497
-0.017247
-0.066742
-0.058686
-0.063851
-0.010806
-0.003450
-0.004319
-0.012144
-0.117612
-0.120539
0.059547
-0.177314
-0.018817
-0.023413
-0.104992
-0.205157
-0.205672
-0.207165
0.216187
0.222450
0.222258
0.218733
-0.208043
-0.118337
0.187875
0.191594
0.191576
-0.094485
-0.096827
-0.094735
-0.014249
-0.010623
0.230739
0.233574
0.229244
0.241592
0.188655
0.085257
0.087166
0.084264
-0.175514
-0.227285
-0.226470
-0.228129
0.003429
-0.003453
0.003854
0.087917
-0.052851
-0.048958
-0.050520
-0.176714
-0.177505
-0.174415
-0.225242
-0.007511
-0.005024
0.002981
-0.002839
0.001425
0.203865
0.207296
0.206040
0.011085
0.011088
0.076002
0.077772
0.074540
0.147276
0.147445
0.146016
-0.050915
-0.049500
0.148843
0.026437
0.022818
0.024616
-0.214645
-0.214527
-0.216689
-0.183140
-0.186568
0.061996
0.061947
0.065795
-0.188349
0.066679
0.025471
0.158300
0.161439
-0.096739
0.229315
0.233763
-0.089698
0.079382
0.008314
0.007255
-0.000201
0.013482
0.141277
0.143864
0.143705
0.093193
0.146514
-0.193427
-0.190463
-0.193300
-0.190174
0.140854
0.142901
0.143820
0.158918
-0.184998
-0.184328
-0.208665
-0.208091
-0.210911
-0.166091
-0.178573
-0.210941
-0.085637
-0.087110
-0.084763
-0.191682
-0.191013
-0.188950
-0.193104
-0.222094
-0.220539
-0.220288
-0.104184
-0.095834
-0.097226
-0.094375
-0.101413
-0.100654
-0.103172
-0.081075
-0.079150
-0.082241
0.155984
0.153124
0.154963
0.009416
0.004516
0.000748
0.013721
-0.003953
-0.016637
-0.004827
0.241781
-0.046389
0.153094
-0.213236
-0.215039
-0.212583
-0.106720
-0.104107
-0.101643
-0.098428
-0.035823
-0.040106
-0.038319
-0.042478
0.147456
0.144684
0.147438
0.145858
0.139168
0.138407
0.141318
0.140605
-0.181874
-0.189960
-0.190029
-0.168616
-0.194379
-0.102608
-0.099964
0.040358
0.042345
0.039925
0.011205
-0.094200
0.225857
0.222842
0.225776
0.118100
0.116371
0.119189
0.164750
0.166084
0.163583
0.165756
-0.195581
-0.192741
-0.197193
0.117885
-0.097529
-0.098106
-0.096096
0.219151
0.222026
0.222069
0.085184
0.086082
0.087340
0.229441
0.233314
0.231351
0.083396
-0.188500
-0.188607
-0.192227
-0.181694
-0.101920
-0.104872
-0.100311
-0.107211
0.059914
0.060204
0.056901
0.342201
0.062851
0.080280
0.082943
0.081325
0.084327
0.320794
0.082935
0.080476
0.083992
-0.019227
-0.017419
-0.020534
-0.197674
0.232614
0.227939
0.238277
-0.104382
0.222037
-0.099711
-0.098862
-0.061043
-0.062898
-0.060885
0.218215
0.215096
0.220574
0.215343
0.069070
0.070352
0.067637
0.072316
-0.015815
0.242222
0.063789
0.061200
0.237976
0.233821
0.234898
-0.197792
-0.195013
-0.200348
-0.184925
-0.189529
-0.193091
-0.182606
-0.034611
-0.029067
-0.025913
0.192908
0.194367
0.162750
0.163717
0.166692
-0.182879
-0.183302
-0.178178
0.270167
-0.183464
-0.212326
-0.213080
-0.210505
0.155920
0.158121
0.158368
-0.208085
-0.209635
-0.206527
-0.200082
0.234016
0.238875
0.235367
-0.239580
-0.238575
-0.237591
-0.236266
-0.091963
0.155023
0.144509
0.147278
0.146675
0.222556
0.237605
0.102517
0.100329
0.100968
-0.199530
-0.196243
-0.202945
-0.094336
-0.094683
-0.096573
0.226643
0.226410
0.229933
-0.186025
-0.190307
-0.193600
-0.182263
-0.202291
0.099052
-0.202060
-0.203604
-0.200419
0.328167
-0.003588
-0.000624
-0.001324
-0.195563
-0.197129
-0.193459
-0.047878
-0.045641
-0.044117
-0.085939
-0.087916
-0.002265
-0.047504
-0.048027
-0.045055
-0.103462
-0.101748
-0.098668
-0.097311
0.111654
0.112555
0.114737
-0.051374
-0.047558
-0.048334
0.241157
0.233523
0.238207
0.231217
-0.046101
0.273964
0.278559
0.251894
-0.200785
-0.197439
-0.205621
-0.187331
-0.191798
-0.194638
-0.181135
0.265719
-0.091899
-0.089474
0.221823
0.223898
0.224853
0.222513
0.218927
0.227062
-0.203884
-0.091977
-0.094645
0.222925
0.227167
-0.202138
-0.198607
-0.206644
0.149287
-0.203995
-0.201794
-0.200551
-0.205164
0.053170
0.051402
0.050067
0.210981
0.211264
0.214597
0.040033
0.037560
0.037237
0.034665
0.038193
0.040139
0.037542
0.040619
-0.190069
-0.193434
-0.196020
-0.191331
-0.217919
-0.216494
-0.219122
-0.100327
-0.102146
-0.231825
-0.229994
-0.097256
-0.095660
0.236358
0.239737
0.079996
0.231763
0.228882
-0.205174
-0.204076
0.163091
0.166142
0.164393
0.030309
0.027582
0.030476
0.027409
-0.061000
-0.061823
-0.063690
-0.214724
-0.215421
-0.058830
0.313107
0.294582
0.292990
0.215691
0.212895
0.215517
0.213287
0.054496
-0.199566
-0.082640
-0.083476
0.134112
0.132098
0.134927
-0.191211
0.133173
0.120837
0.117593
0.117777
-0.195065
-0.197255
-0.182846
-0.089291
0.120267
0.139269
0.136505
0.136049
0.218824
0.133659
-0.209363
-0.207253
-0.089752
-0.092330
-0.086930
0.219490
0.223918
0.215351
-0.210362
-0.206680
-0.191524
-0.189168
-0.188861
0.046471
0.042888
0.045626
0.208833
0.212085
0.210149
-0.213834
-0.211814
0.093261
0.091108
0.093584
-0.200342
-0.214595
-0.193907
0.156658
0.153536
0.156078
0.091718
-0.083427
-0.082522
-0.080781
-0.195740
-0.198195
0.044176
0.026299
0.025090
0.028303
0.212890
0.211434
0.210693
-0.098510
0.208767
0.025469
0.025005
-0.095476
-0.094423
-0.100894
0.234296
0.022835
0.229177
0.227225
0.238481
-0.192894
-0.192204
-0.194866
0.179321
0.176439
0.178497
0.112432
0.110957
0.110319
0.167905
0.172329
0.168823
0.170764
0.154454
0.154733
0.155440
0.122882
0.121816
0.124707
-0.052812
-0.055322
-0.053046
-0.055477
-0.203276
-0.200947
-0.205188
0.119522
-0.190349
-0.191952
-0.187019
0.040746
0.042509
-0.196511
-0.194019
-0.198717
-0.208184
-0.205580
-0.201559
-0.198968
-0.213912
-0.217567
-0.217304
0.038485
-0.087400
-0.190336
-0.187511
-0.188623
0.044363
0.044632
0.215163
-0.194558
-0.191647
-0.087437
0.046529
0.236971
0.233300
0.237576
0.216339
-0.193181
0.211295
-0.212856
-0.221253
-0.220444
-0.217728
0.234035
0.099149
0.096434
0.097636
0.095300
-0.217623
-0.216976
-0.195209
-0.196581
-0.071699
-0.069515
-0.068957
0.174771
0.172948
0.170641
0.174294
0.106746
0.109998
0.109960
-0.224231
-0.223196
-0.225400
-0.210644
-0.211753
0.158492
-0.097533
-0.096660
-0.215255
-0.097576
-0.216109
-0.084475
-0.086256
-0.222605
-0.075607
-0.071931
-0.074987
-0.073119
-0.231103
-0.233886
0.077870
0.079030
0.080940
0.075807
0.233880
0.200296
0.204081
0.199134
0.204779
-0.186750
-0.185559
-0.184446
-0.090745
-0.092091
-0.089867
-0.047486
-0.046269
-0.044675
-0.219284
-0.219819
-0.204210
0.231113
0.227488
0.228598
0.227198
0.223396
0.226845
-0.209427
-0.206760
-0.189760
-0.186067
-0.196961
-0.202548
-0.199896
-0.213757
-0.185228
-0.183246
0.276744
-0.194905
-0.191762
0.207950
0.208446
0.212404
-0.210955
-0.207794
-0.214267
0.211175
-0.222169
-0.218521
-0.001695
-0.001247
-0.004574
0.001622
0.114236
0.112484
0.110844
0.194271
0.197648
0.197562
0.296337
0.282437
0.286954
0.288699
-0.123379
-0.124430
-0.117547
-0.084644
-0.052134
-0.050880
-0.049068
-0.119498
-0.048241
-0.041695
-0.045920
-0.042338
0.224714
0.227543
0.229665
-0.050847
-0.047389
-0.054592
-0.211973
-0.213091
-0.216713
-0.217598
-0.042024
-0.040336
-0.042954
-0.047238
0.126453
0.122801
0.122508
0.124764
-0.224417
-0.224796
0.087911
0.087367
0.084679
0.250101
0.246518
0.245480
-0.081626
-0.078927
0.159693
0.159227
0.250084
0.136774
0.138350
0.134635
0.138390
0.190191
0.188467
0.192211
0.224248
0.227527
0.226789
0.230398
-0.187036
-0.187101
-0.185867
-0.186596
-0.184806
0.144741
0.145613
0.147631
-0.220881
-0.221499
-0.071337
-0.073947
-0.073276
-0.071999
-0.185619
-0.216239
-0.219142
-0.214918
-0.216521
-0.220272
-0.205306
-0.210684
-0.207982
-0.081300
-0.220006
-0.203621
-0.200696
-0.197741
-0.188107
0.052759
0.052485
0.054854
0.055346
0.011947
0.010852
0.210444
0.213509
0.208430
0.009235
0.011377
-0.195162
-0.192138
0.008681
0.148754
-0.197649
-0.197955
-0.200946
-0.064149
-0.065633
-0.062975
-0.215667
-0.067497
-0.024111
-0.025217
-0.031782
-0.029892
0.087764
0.088483
0.090145
-0.084517
-0.080243
-0.073025
-0.223859
-0.220087
-0.213331
-0.214409
0.200052
0.199384
0.196149
0.196561
0.318053
0.338414
0.345736
-0.098287
-0.097512
-0.094726
0.242448
0.241704
0.245962
0.238469
-0.083107
-0.085505
-0.082763
-0.218222
-0.219045
0.235734
0.234214
0.237816
0.231274
-0.092961
-0.095274
-0.091712
-0.226121
-0.226646
-0.222484
-0.223120
-0.211962
-0.209157
-0.206417
0.211500
0.208863
0.208259
0.204998
-0.217037
-0.218738
-0.219234
-0.071966
-0.071129
-0.073256
-0.078055
-0.074840
-0.083543
-0.075720
-0.204691
-0.201622
-0.062143
-0.065511
-0.060910
0.106770
0.108384
0.106890
0.106109
-0.182460
-0.181283
-0.183136
-0.177407
-0.066851
-0.198675
0.193489
0.195883
0.192388
0.196017
-0.196162
-0.191601
0.232297
0.230499
0.237222