# vtk DataFile Version 2.0
Test
ASCII
DATASET POLYDATA
POINTS 6352 float
0.000000 0.000000 0.000000
1.000000 0.000000 0.000000
1.000000 0.800000 0.000000
1.000000 1.000000 0.000000
0.000000 1.000000 0.000000
0.000000 0.200000 0.000000
0.300000 0.330000 0.000000
0.700000 0.680000 0.000000
0.050000 0.000000 0.000000
0.100000 0.000000 0.000000
0.150000 0.000000 0.000000
0.200000 0.000000 0.000000
0.250000 0.000000 0.000000
0.300000 0.000000 0.000000
0.350000 0.000000 0.000000
0.400000 0.000000 0.000000
0.450000 0.000000 0.000000
0.500000 0.000000 0.000000
0.550000 0.000000 0.000000
0.600000 0.000000 0.000000
0.650000 0.000000 0.000000
0.700000 0.000000 0.000000
0.750000 0.000000 0.000000
0.800000 0.000000 0.000000
0.850000 0.000000 0.000000
0.900000 0.000000 0.000000
0.950000 0.000000 0.000000
1.000000 0.048545 0.000000
1.000000 0.094438 0.000000
1.000000 0.137825 0.000000
1.000000 0.178843 0.000000
1.000000 0.217620 0.000000
1.000000 0.254280 0.000000
1.000000 0.288938 0.000000
1.000000 0.321703 0.000000
1.000000 0.352678 0.000000
1.000000 0.381962 0.000000
1.000000 0.409647 0.000000
1.000000 0.435820 0.000000
1.000000 0.460563 0.000000
1.000000 0.483955 0.000000
1.000000 0.506070 0.000000
1.000000 0.526976 0.000000
1.000000 0.546741 0.000000
1.000000 0.565427 0.000000
1.000000 0.583092 0.000000
1.000000 0.599793 0.000000
1.000000 0.615581 0.000000
1.000000 0.630507 0.000000
1.000000 0.644618 0.000000
1.000000 0.657958 0.000000
1.000000 0.670570 0.000000
1.000000 0.682493 0.000000
1.000000 0.693765 0.000000
1.000000 0.704421 0.000000
1.000000 0.714495 0.000000
1.000000 0.724019 0.000000
1.000000 0.733023 0.000000
1.000000 0.741536 0.000000
1.000000 0.749583 0.000000
1.000000 0.757191 0.000000
1.000000 0.764383 0.000000
1.000000 0.771183 0.000000
1.000000 0.777611 0.000000
1.000000 0.783688 0.000000
1.000000 0.789434 0.000000
1.000000 0.794865 0.000000
1.000000 0.805174 0.000000
1.000000 0.811554 0.000000
1.000000 0.819418 0.000000
1.000000 0.829114 0.000000
1.000000 0.841067 0.000000
1.000000 0.855804 0.000000
1.000000 0.873972 0.000000
1.000000 0.896371 0.000000
1.000000 0.923985 0.000000
1.000000 0.958029 0.000000
0.950000 1.000000 0.000000
0.900000 1.000000 0.000000
0.850000 1.000000 0.000000
0.800000 1.000000 0.000000
0.750000 1.000000 0.000000
0.700000 1.000000 0.000000
0.650000 1.000000 0.000000
0.600000 1.000000 0.000000
0.550000 1.000000 0.000000
0.500000 1.000000 0.000000
0.450000 1.000000 0.000000
0.400000 1.000000 0.000000
0.350000 1.000000 0.000000
0.300000 1.000000 0.000000
0.250000 1.000000 0.000000
0.200000 1.000000 0.000000
0.150000 1.000000 0.000000
0.100000 1.000000 0.000000
0.050000 1.000000 0.000000
0.000000 0.951455 0.000000
0.000000 0.905562 0.000000
0.000000 0.862175 0.000000
0.000000 0.821157 0.000000
0.000000 0.782380 0.000000
0.000000 0.745720 0.000000
0.000000 0.711062 0.000000
0.000000 0.678297 0.000000
0.000000 0.647322 0.000000
0.000000 0.618038 0.000000
0.000000 0.590353 0.000000
0.000000 0.564180 0.000000
0.000000 0.539437 0.000000
0.000000 0.516045 0.000000
0.000000 0.493930 0.000000
0.000000 0.473024 0.000000
0.000000 0.453259 0.000000
0.000000 0.434573 0.000000
0.000000 0.416908 0.000000
0.000000 0.400207 0.000000
0.000000 0.384419 0.000000
0.000000 0.369493 0.000000
0.000000 0.355382 0.000000
0.000000 0.342042 0.000000
0.000000 0.329430 0.000000
0.000000 0.317507 0.000000
0.000000 0.306235 0.000000
0.000000 0.295579 0.000000
0.000000 0.285505 0.000000
0.000000 0.275981 0.000000
0.000000 0.266977 0.000000
0.000000 0.258464 0.000000
0.000000 0.250417 0.000000
0.000000 0.242809 0.000000
0.000000 0.235617 0.000000
0.000000 0.228817 0.000000
0.000000 0.222389 0.000000
0.000000 0.216312 0.000000
0.000000 0.210566 0.000000
0.000000 0.205135 0.000000
0.000000 0.194826 0.000000
0.000000 0.188446 0.000000
0.000000 0.180582 0.000000
0.000000 0.170886 0.000000
0.000000 0.158933 0.000000
0.000000 0.144196 0.000000
0.000000 0.126028 0.000000
0.000000 0.103629 0.000000
0.000000 0.076015 0.000000
0.000000 0.041971 0.000000
0.303738 0.333271 0.000000
0.307477 0.336542 0.000000
0.311215 0.339813 0.000000
0.314953 0.343084 0.000000
0.318692 0.346355 0.000000
0.322430 0.349626 0.000000
0.326168 0.352897 0.000000
0.329907 0.356168 0.000000
0.333645 0.359439 0.000000
0.337383 0.362710 0.000000
0.341121 0.365981 0.000000
0.344860 0.369252 0.000000
0.348598 0.372523 0.000000
0.352336 0.375794 0.000000
0.356075 0.379065 0.000000
0.359813 0.382336 0.000000
0.363551 0.385607 0.000000
0.367290 0.388879 0.000000
0.371028 0.392150 0.000000
0.374766 0.395421 0.000000
0.378505 0.398692 0.000000
0.382243 0.401963 0.000000
0.385981 0.405234 0.000000
0.389720 0.408505 0.000000
0.393458 0.411776 0.000000
0.397196 0.415047 0.000000
0.400935 0.418318 0.000000
0.404673 0.421589 0.000000
0.408411 0.424860 0.000000
0.412150 0.428131 0.000000
0.415888 0.431402 0.000000
0.419626 0.434673 0.000000
0.423364 0.437944 0.000000
0.427103 0.441215 0.000000
0.430841 0.444486 0.000000
0.434579 0.447757 0.000000
0.438318 0.451028 0.000000
0.442056 0.454299 0.000000
0.445794 0.457570 0.000000
0.449533 0.460841 0.000000
0.453271 0.464112 0.000000
0.457009 0.467383 0.000000
0.460748 0.470654 0.000000
0.464486 0.473925 0.000000
0.468224 0.477196 0.000000
0.471963 0.480467 0.000000
0.475701 0.483738 0.000000
0.479439 0.487009 0.000000
0.483178 0.490280 0.000000
0.486916 0.493551 0.000000
0.490654 0.496822 0.000000
0.494393 0.500093 0.000000
0.498131 0.503364 0.000000
0.501869 0.506636 0.000000
0.505607 0.509907 0.000000
0.509346 0.513178 0.000000
0.513084 0.516449 0.000000
0.516822 0.519720 0.000000
0.520561 0.522991 0.000000
0.524299 0.526262 0.000000
0.528037 0.529533 0.000000
0.531776 0.532804 0.000000
0.535514 0.536075 0.000000
0.539252 0.539346 0.000000
0.542991 0.542617 0.000000
0.546729 0.545888 0.000000
0.550467 0.549159 0.000000
0.554206 0.552430 0.000000
0.557944 0.555701 0.000000
0.561682 0.558972 0.000000
0.565421 0.562243 0.000000
0.569159 0.565514 0.000000
0.572897 0.568785 0.000000
0.576636 0.572056 0.000000
0.580374 0.575327 0.000000
0.584112 0.578598 0.000000
0.587850 0.581869 0.000000
0.591589 0.585140 0.000000
0.595327 0.588411 0.000000
0.599065 0.591682 0.000000
0.602804 0.594953 0.000000
0.606542 0.598224 0.000000
0.610280 0.601495 0.000000
0.614019 0.604766 0.000000
0.617757 0.608037 0.000000
0.621495 0.611308 0.000000
0.625234 0.614579 0.000000
0.628972 0.617850 0.000000
0.632710 0.621121 0.000000
0.636449 0.624393 0.000000
0.640187 0.627664 0.000000
0.643925 0.630935 0.000000
0.647664 0.634206 0.000000
0.651402 0.637477 0.000000
0.655140 0.640748 0.000000
0.658879 0.644019 0.000000
0.662617 0.647290 0.000000
0.666355 0.650561 0.000000
0.670093 0.653832 0.000000
0.673832 0.657103 0.000000
0.677570 0.660374 0.000000
0.681308 0.663645 0.000000
0.685047 0.666916 0.000000
0.688785 0.670187 0.000000
0.692523 0.673458 0.000000
0.696262 0.676729 0.000000
0.004545 0.201970 0.000000
0.009091 0.203939 0.000000
0.013636 0.205909 0.000000
0.018182 0.207879 0.000000
0.022727 0.209848 0.000000
0.027273 0.211818 0.000000
0.031818 0.213788 0.000000
0.036364 0.215758 0.000000
0.040909 0.217727 0.000000
0.045455 0.219697 0.000000
0.050000 0.221667 0.000000
0.054545 0.223636 0.000000
0.059091 0.225606 0.000000
0.063636 0.227576 0.000000
0.068182 0.229545 0.000000
0.072727 0.231515 0.000000
0.077273 0.233485 0.000000
0.081818 0.235455 0.000000
0.086364 0.237424 0.000000
0.090909 0.239394 0.000000
0.095455 0.241364 0.000000
0.100000 0.243333 0.000000
0.104545 0.245303 0.000000
0.109091 0.247273 0.000000
0.113636 0.249242 0.000000
0.118182 0.251212 0.000000
0.122727 0.253182 0.000000
0.127273 0.255152 0.000000
0.131818 0.257121 0.000000
0.136364 0.259091 0.000000
0.140909 0.261061 0.000000
0.145455 0.263030 0.000000
0.150000 0.265000 0.000000
0.154545 0.266970 0.000000
0.159091 0.268939 0.000000
0.163636 0.270909 0.000000
0.168182 0.272879 0.000000
0.172727 0.274848 0.000000
0.177273 0.276818 0.000000
0.181818 0.278788 0.000000
0.186364 0.280758 0.000000
0.190909 0.282727 0.000000
0.195455 0.284697 0.000000
0.200000 0.286667 0.000000
0.204545 0.288636 0.000000
0.209091 0.290606 0.000000
0.213636 0.292576 0.000000
0.218182 0.294545 0.000000
0.222727 0.296515 0.000000
0.227273 0.298485 0.000000
0.231818 0.300455 0.000000
0.236364 0.302424 0.000000
0.240909 0.304394 0.000000
0.245455 0.306364 0.000000
0.250000 0.308333 0.000000
0.254545 0.310303 0.000000
0.259091 0.312273 0.000000
0.263636 0.314242 0.000000
0.268182 0.316212 0.000000
0.272727 0.318182 0.000000
0.277273 0.320152 0.000000
0.281818 0.322121 0.000000
0.286364 0.324091 0.000000
0.290909 0.326061 0.000000
0.295455 0.328030 0.000000
0.704615 0.681846 0.000000
0.709231 0.683692 0.000000
0.713846 0.685538 0.000000
0.718462 0.687385 0.000000
0.723077 0.689231 0.000000
0.727692 0.691077 0.000000
0.732308 0.692923 0.000000
0.736923 0.694769 0.000000
0.741538 0.696615 0.000000
0.746154 0.698462 0.000000
0.750769 0.700308 0.000000
0.755385 0.702154 0.000000
0.760000 0.704000 0.000000
0.764615 0.705846 0.000000
0.769231 0.707692 0.000000
0.773846 0.709538 0.000000
0.778462 0.711385 0.000000
0.783077 0.713231 0.000000
0.787692 0.715077 0.000000
0.792308 0.716923 0.000000
0.796923 0.718769 0.000000
0.801538 0.720615 0.000000
0.806154 0.722462 0.000000
0.810769 0.724308 0.000000
0.815385 0.726154 0.000000
0.820000 0.728000 0.000000
0.824615 0.729846 0.000000
0.829231 0.731692 0.000000
0.833846 0.733538 0.000000
0.838462 0.735385 0.000000
0.843077 0.737231 0.000000
0.847692 0.739077 0.000000
0.852308 0.740923 0.000000
0.856923 0.742769 0.000000
0.861538 0.744615 0.000000
0.866154 0.746462 0.000000
0.870769 0.748308 0.000000
0.875385 0.750154 0.000000
0.880000 0.752000 0.000000
0.884615 0.753846 0.000000
0.889231 0.755692 0.000000
0.893846 0.757538 0.000000
0.898462 0.759385 0.000000
0.903077 0.761231 0.000000
0.907692 0.763077 0.000000
0.912308 0.764923 0.000000
0.916923 0.766769 0.000000
0.921538 0.768615 0.000000
0.926154 0.770462 0.000000
0.930769 0.772308 0.000000
[...]
POINT_DATA 6352
SCALARS UX float 1
LOOKUP_TABLE default
-0.000002
0.000002
2.006082
1.490587
-3.126854
-2.084749
-1.249563
0.668655
0.000000
-0.000000
-0.000000
-0.000000
-0.000000
-0.000000
-0.000000
-0.000000
-0.000000
-0.000000
-0.000000
0.000000
0.000000
0.000000
0.000000
0.000000
0.000000
0.000000
-0.000000
0.699016
1.078955
1.349479
1.562970
1.729808
1.874322
1.997506
2.102395
2.193363
2.270237
2.334850
2.387914
2.431001
2.464338
2.488658
2.504280
2.512171
2.513452
2.508822
2.499219
2.485086
2.467638
2.446961
2.424718
2.399669
2.373888
2.347140
2.319735
2.291797
2.264390
2.237255
2.210481
2.184265
2.158724
2.134271
2.110526
2.087598
2.065631
2.044788
2.024892
1.987084
1.963517
1.934736
1.898671
1.854584
1.803405
1.742336
1.673672
1.603210
1.537481
1.174606
0.893107
0.645778
0.419216
0.220132
0.031529
-0.149255
-0.329445
-0.517488
-0.718290
-0.932044
-1.156892
-1.393849
-1.635085
-1.879032
-2.126364
-2.373683
-2.621878
-2.872665
-3.113598
-3.108475
-3.114555
-3.127666
-3.146663
-3.166976
-3.187710
-3.207334
-3.224426
-3.238079
-3.246755
-3.249283
-3.246470
-3.236667
-3.220018
-3.200007
-3.171430
-3.138507
-3.101582
-3.059330
-3.014587
-2.967780
-2.917848
-2.867161
-2.815487
-2.763186
-2.710827
-2.658490
-2.606692
-2.555412
-2.505634
-2.456753
-2.409246
-2.363124
-2.318620
-2.275678
-2.234210
-2.194386
-2.156163
-2.119637
-2.049064
-2.004705
-1.948882
-1.878835
-1.791107
-1.680755
-1.542732
-1.368567
-1.128107
-0.792775
-1.244979
-1.229951
-1.208094
-1.177729
-1.159991
-1.173756
-1.169505
-1.144939
-1.130909
-1.147792
-1.133324
-1.134260
-1.130308
-1.107126
-1.094603
-1.083709
-1.058905
-1.059001
-1.042281
-1.003015
-1.023880
-0.998527
-0.961714
-0.948598
-0.932808
-0.904045
-0.841968
-0.851756
-0.812391
-0.832278
-0.798132
-0.790173
-0.759195
-0.735141
-0.734220
-0.701899
-0.688853
-0.698337
-0.673955
-0.655644
-0.615247
-0.604775
-0.585852
-0.562161
-0.505903
-0.485943
-0.503485
-0.489866
-0.471164
-0.466751
-0.450343
-0.449171
-0.425140
-0.410085
-0.378469
-0.371965
-0.354214
-0.331651
-0.285044
-0.290233
-0.275920
-0.242971
-0.211625
-0.202239
-0.169018
-0.126441
-0.107909
-0.074523
-0.037547
-0.072969
-0.035703
-0.013376
-0.011772
-0.013896
0.002593
0.020223
0.037336
0.062859
0.077916
0.092299
0.089371
0.093830
0.109755
0.119170
0.106320
0.113498
0.142747
0.163271
0.187522
0.196986
0.209369
0.221324
0.246368
0.260311
0.278518
0.287530
0.323269
0.320468
0.375492
0.400687
0.451012
0.483270
0.539526
0.566341
0.589924
0.631651
-2.076339
-2.067988
-2.059715
-2.051396
-2.043072
-2.034698
-2.026193
-2.017642
-2.009028
-2.000365
-1.991534
-1.982609
-1.973687
-1.964698
-1.955474
-1.946206
-1.936935
-1.927610
-1.918216
-1.908673
-1.899117
-1.889518
-1.879718
-1.869904
-1.859983
-1.850038
-1.840009
-1.829960
-1.819925
-1.809787
-1.799642
-1.789493
-1.779184
-1.768943
-1.758625
-1.748275
-1.737840
-1.727356
-1.716896
-1.706365
-1.695859
-1.685388
-1.674747
-1.663952
-1.653301
-1.642752
-1.632179
-1.621434
-1.610545
-1.600009
-1.589760
-1.578474
-1.566999
-1.555952
-1.544889
-1.534514
-1.523163
-1.509007
-1.494905
-1.482305
-1.466895
-1.449492
-1.428883
-1.393888
-1.342063
0.776545
0.846963
0.895092
0.933538
0.961921
0.986104
1.008934
1.031838
1.051673
1.070880
1.090347
1.108241
1.126066
1.144298
1.162143
1.179511
1.196888
1.214677
1.232115
1.249498
1.266693
1.283935
1.300751
1.317841
1.335160
1.352080
1.368976
1.385858
1.402782
1.419773
1.436667
1.453328
1.470164
1.486939
1.503627
1.520317
1.536942
1.553581
1.570239
1.586745
1.603261
1.619875
1.636418
1.652888
1.669447
1.685885
1.702312
1.718729
1.735156
1.751630
1.768121
1.784603
1.801091
1.817684
1.834304
1.850977
1.867691
1.884492
1.901468
1.918431
1.935582
1.952864
1.970341
1.988048
1.187436
1.178127
1.223628
1.148969
0.051486
0.028604
0.073701
0.022417
-1.410678
-1.419858
-1.315800
-1.363245
-1.240051
-1.392475
-2.549901
-2.488034
-2.511715
-2.461427
-1.387863
-0.433121
-0.374675
-0.377026
-0.313544
0.276269
0.273462
0.366597
0.164687
-0.580598
-0.606140
-0.550359
-0.210679
-0.140797
-0.229239
-0.133799
1.843716
1.784568
1.892051
1.773054
-0.234039
-0.340570
-0.214529
-0.371373
-2.358825
-2.348179
-2.410659
-1.967364
-1.968425
-1.923023
-2.049034
-2.042583
-2.083285
1.451849
1.589342
1.494690
1.571616
0.201848
0.205707
0.252931
-0.462501
-0.425128
-0.209059
1.900875
1.964396
1.963738
-0.681811
-0.770681
-0.760382
-1.627362
-1.567095
-1.485559
1.547984
1.566751
1.527733
-0.714935
-2.003656
-2.008586
-1.952290
-0.305688
-0.328209
-0.363739
-0.274292
1.012895
0.991122
0.989729
-0.071429
-0.124890
-0.269002
1.002101
1.303117
1.339352
1.294597
0.447856
0.368393
0.469234
1.324545
1.338058
1.276746
0.906983
0.892312
0.924367
0.250630
0.176005
0.239745
0.877919
-0.089087
-0.029412
-0.015882
0.389663
-1.913377
-1.941698
-1.934033
-0.063340
1.224043
1.194453
1.227052
-0.776680
-0.799818
-0.702370
1.629921
1.603089
1.601095
1.575323
1.588990
1.564438
-1.445512
-1.596034
-1.417236
-1.543748
-0.439193
-0.383728
-0.384925
1.214393
1.514874
-0.320464
-2.824267
-2.749511
-2.773889
-2.024590
-2.064343
-2.018446
0.403144
0.569008
0.606811
-2.700199
1.393336
1.370765
1.388329
1.359917
0.061397
0.121535
0.164463
0.699811
-1.539782
-1.561548
-1.538416
0.239112
0.214527
0.235442
0.202405
1.655226
1.624627
1.608366
0.257434
1.275179
1.211049
1.237678
-2.685992
-2.650072
-2.609013
1.587997
1.608274
1.579130
1.578638
-2.049193
-2.015180
-2.063627
-2.028007
-0.283414
-0.243037
-0.243070
1.579506
-1.594786
-1.677161
-1.433142
-0.273719
-1.438323
-1.396889
-1.547050
-1.267270
1.840896
1.932205
-1.555333
1.829735
-1.908003
-1.907123
-1.892560
-1.919910
-0.655834
-0.666360
-0.732306
0.328635
-1.569100
-1.254074
-1.715256
-1.703909
-1.723955
-1.697643
1.101024
1.095574
1.080263
1.077410
-1.979139
-1.959942
-0.584768
-1.814667
-1.801778
-1.822135
-1.801890
0.051314
0.047984
0.080395
1.691174
1.698297
1.649383
0.021321
1.739192
-1.109550
-1.021912
-0.955456
1.648260
1.642329
1.603761
-0.917376
-0.948100
-0.958942
-0.994885
1.683851
-0.996521
-1.863927
-1.876006
-1.834831
-0.939784
-0.906318
-0.903962
-1.834769
1.219643
1.210356
1.171095
0.846495
0.831083
0.857658
-0.728727
-0.765439
-0.661575
-1.147682
-1.091766
-1.117133
1.218833
1.236576
1.225642
1.238060
0.305997
0.255478
0.278664
0.834373
1.172490
0.748152
0.747484
0.719654
1.265367
1.324859
1.291066
1.355345
1.557026
1.570488
1.544681
1.559372
2.252533
2.205244
2.183864
-1.376577
-1.342731
-1.282646
-1.464421
2.127816
0.635095
0.685710
0.639215
-1.227099
-1.193576
-1.212947
1.273942
1.251683
1.283569
2.211289
2.301176
1.246329
-2.991912
-3.068990
-2.982662
1.985088
1.951871
1.950460
1.915752
-0.733660
-0.624481
1.272259
1.282177
1.264750
-1.088105
-1.074375
-1.142771
-1.103941
1.592551
-1.196151
1.535675
1.556667
-1.276827
-1.317389
-1.301990
-1.873954
-1.828431
-1.881760
-1.828345
-2.113729
-2.165850
-2.157322
-2.209517
-2.061932
-2.060991
-2.012190
-1.928800
-1.891606
-1.905290
-2.259633
-2.214001
-2.271328
-1.872936
0.152362
0.115834
0.118364
0.781179
0.767551
-2.237064
-2.224583
-2.200267
-2.269573
-1.969373
-1.988615
-1.975462
-2.000703
-1.646936
-1.675540
-1.669213
-1.695914
-2.512016
-2.519905
-2.569612
-2.000672
-2.477186
0.785666
0.763018
0.926374
-0.839816
-0.906420
-0.708503
-0.972981
1.718526
1.746889
1.709855
1.766174
-2.163773
-2.223799
1.286676
1.291826
1.217974
-1.689352
-1.688405
1.233247
1.727416
1.763770
1.769094
1.805779
1.689433
1.685009
1.646751
-1.705483
0.456178
0.401600
0.444684
0.362871
1.557912
1.512560
1.576233
-1.853242
-1.768281
-1.803491
-1.687138
1.921120
1.930487
1.961264
1.887787
-3.139864
-3.081966
-3.045124
-2.977324
-1.954793
-2.008830
0.886917
0.934781
0.819583
0.817892
-1.866941
-1.754995
-1.717317
-1.635026
1.605527
1.654585
1.649134
1.684590
1.617332
0.377462
0.442431
0.303931
1.799853
1.827750
1.860953
-0.280070
-0.344074
-0.148982
1.458597
1.406274
1.473978
1.391163
1.768020
1.729920
1.706356
-0.123372
-0.086965
-1.942825
-1.958777
-1.916069
-0.088569
-0.090576
-0.020592
1.250095
1.257585
-1.988459
-1.965889
-1.927996
-1.919083
-1.812871
-1.824476
-1.792317
1.885485
0.231500
0.140934
0.239697
1.975509
-1.630629
-1.659701
-1.640915
0.564337
0.547397
0.434711
-1.833527
-0.048184
-0.161613
0.447991
-1.673139
-1.802767
-1.846581
-1.847527
-0.152234
-0.181434
-0.276750
1.479443
1.497897
1.448128
-1.169646
-1.124917
-1.807727
-1.792494
0.042229
0.093001
-0.037172
-1.831978
-0.064847
0.019471
0.038853
0.112013
-2.002412
-1.989873
-1.969005
-2.024909
-1.683359
-1.739013
-1.740955
-1.808971
-1.405726
-1.442560
-1.490110
1.347216
1.381741
1.394099
-0.066092
-0.127182
-0.058804
-2.214256
-2.259720
-1.323601
1.385283
-1.789707
-1.782456
-1.845225
-1.721490
-3.169554
-3.108122
-3.079468
-3.047911
-0.133419
-0.078377
-0.150777
-1.545038
-1.478948
-1.556387
-1.480902
-2.432247
-2.313888
-2.329386
1.248938
1.304611
1.285801
-1.606371
-1.544330
-1.938585
-1.942406
-1.970210
0.798642
0.908944
0.909793
-1.965722
-1.587683
-1.529575
-1.514144
1.581042
1.626134
1.624891
0.464776
0.370914
0.748542
-1.510385
-1.529553
-1.505891
-1.798680
-1.857277
-1.839318
-1.891446
-1.929967
-1.880208
-1.827280
-1.868298
-1.809167
0.019713
0.080802
0.043176
-0.184112
-0.120064
0.078546
-1.561478
-1.834517
-2.081381
-2.059064
-2.076283
-0.325840
-0.337199
-0.385451
-0.272979
-0.330189
-0.262604
-0.317434
-0.213007
-2.076434
-2.058089
-2.038513
-2.026586
0.170278
0.309072
0.074054
1.581947
1.551964
1.612286
1.542288
-1.872734
-1.891841
-1.872316
-1.676408
-1.580462
-1.666093
-1.891500
-1.735143
-1.791692
-1.786381
1.825915
1.708781
1.809958
1.688108
-2.009538
-2.014455
-2.046517
1.683452
1.701676
1.731158
1.216207
1.237858
1.223455
1.229892
-2.551423
-2.500630
-2.458016
-1.900132
-1.916064
-1.944937
-1.958129
1.640189
1.635328
1.670375
-0.722282
-0.724664
-0.762364
1.081969
1.082271
1.126208
1.129619
1.107981
1.066986
1.072638
-0.294389
-0.240926
-0.250952
0.003897
0.058122
0.033398
-0.290065
-2.145748
-2.178372
-2.131347
0.073118
0.024554
0.064793
-0.711760
-0.685691
-2.125165
-2.112011
-2.088370
1.904388
1.937068
1.902350
-2.067025
-0.676293
1.240588
1.126714
1.184864
-1.834447
-1.864298
-1.901351
-1.484182
-1.516660
-1.806971
-1.807265
-1.851825
1.512746
1.564991
1.560070
-2.049045
-2.054116
-2.105050
-2.108947
-1.911738
-1.910614
-1.885182
-1.924222
-0.703559
-0.753957
-0.751147
-0.720411
1.412938
1.418664
1.470706
1.364937
1.470447
1.523824
1.708261
1.743188
1.754109
2.220724
2.271779
2.255009
1.797554
1.468063
1.467659
1.506389
1.428812
1.425069
-1.559262
-1.549696
1.222159
-0.390670
-0.381775
-0.427787
-0.454686
-1.744362
-1.825735
-1.812871
-1.491521
1.432643
1.431943
1.399498
1.393730
-2.185424
-2.174550
-2.112207
-0.165919
-0.119040
-0.117992
0.654794
0.687433
0.753112
0.499095
-1.628355
-1.487859
-1.595768
1.766097
1.721969
1.723955
1.054177
1.065245
0.956953
-1.328410
-1.792837
-1.696182
-1.731848
1.598898
1.661245
1.642887
-1.748747
-0.310014
-1.753701
-1.807408
-1.739741
-1.812908
-0.086872
-0.163363
1.617161
1.674123
-2.692289
-2.644463
-0.293062
-0.233243
-0.246859
-0.173334
-0.431242
-0.489629
-0.488939
-0.082292
-0.022703
-0.024504
1.172487
1.269407
1.221950
-0.079035
-1.405837
-1.478485
-1.383260
1.894410
1.921291
1.943517
0.196445
0.262736
0.264925
-1.392275
-1.261579
-1.266627
-1.899665
-1.891674
-1.861832
1.230948
1.222921
1.294077
1.688695
1.723840
1.733589
1.774887
1.157786
-1.909818
-1.938788
-1.955628
-0.945337
-0.999778
-0.970098
1.416208
1.447160
1.431727
1.474600
1.387610
1.382723
1.337882
-1.638654
-1.725376
-1.707648
0.792757
-2.613899
-2.540766
-2.597746
-2.058076
-1.525999
-1.521732
-1.451801
-1.905153
-1.857894
-1.927101
-1.442386
1.486465
1.549108
-0.836736
-0.971603
-0.951760
-1.003412
-1.073645
-1.135964
-1.588258
-1.644469
-1.647716
-1.688007
-1.200249
0.864493
0.893474
0.900794
-2.360319
-2.405826
-2.379614
-1.788412
-1.799545
-1.739152
-1.883204
-1.902115
-1.901719
-1.922300
1.582450
1.972369
1.848714
1.922667
1.871230
-1.801749
-1.815931
-1.849298
1.953282
-1.900519
-1.874224
-0.207134
-0.157436
1.166057
1.174576
1.149857
1.434019
1.437068
1.473214
1.155872
1.513938
1.506777
-2.123916
-2.174867
-2.168637
-2.215993
-1.402808
-1.387933
-1.417621
0.355718
0.300941
0.246926
0.967258
0.947607
1.049794
-0.888128
-0.820834
-0.848798
-0.862849
0.985311
1.498412
1.506020
1.477289
0.160384
0.144633
0.194854
-0.710386
-0.708589
-0.839280
-2.060814
-2.100391
-2.052926
-1.429531
-2.094582
1.490865
-0.663188
-0.649879
-0.605849
0.036815
0.091046
0.084529
-1.112025
-1.058764
-0.976104
-0.931368
-2.028469
-2.060842
1.289913
1.355704
1.326841
0.998688
0.968696
1.105694
1.110206
-2.121216
-2.171637
-2.169871
-2.232070
1.203956
1.243997
1.254973
1.217481
-2.230273
-2.055209
-2.148853
1.387707
1.397209
1.429218
-2.200029
1.485926
1.456739
1.406577
1.464898
-1.711117
-1.718694
-1.700856
-1.745601
-1.754119
-1.802668
-1.860651
-1.837836
-1.942831
-1.964956
-2.005082
-1.913882
0.766411
0.787010
0.760478
1.611600
1.616298
1.654024
-1.644705
-1.647883
-1.613856
1.584810
-1.599553
-1.594015
-1.628166
-1.794654
-1.844487
-1.804163
1.883905
1.866177
-1.886779
-1.937603
-1.854159
-1.892274
0.061230
0.018652
-0.003738
-1.844939
0.750054
0.773255
0.787516
0.579982
0.474951
0.508196
0.183223
0.189439
0.224402
-2.306156
-2.261968
-2.249529
0.385711
1.840770
1.880378
1.834971
0.036208
0.008632
-0.061655
-0.579563
-0.632663
-0.643832
-0.580187
0.028758
-0.022064
-1.595728
-1.581660
-1.564361
-0.285249
-0.256931
-0.237653
1.141898
1.175371
-0.849473
-0.906736
-0.942446
-0.214237
-1.545331
-0.238216
-0.194828
-1.677782
-1.727984
-1.701390
-1.740456
-2.395438
-2.518899
-2.515830
-2.398529
-1.657730
-1.702318
-1.649644
0.327706
0.318064
0.378757
-1.680305
-1.668968
-1.912476
-1.951757
-1.606670
1.068886
1.053181
1.043824
1.079658
0.761644
0.695537
0.703213
0.747134
0.644271
0.728242
0.658685
-2.163496
-2.226561
-2.197905
1.928719
1.918699
1.232942
1.254295
1.290769
1.314288
-2.150711
-2.103786
-1.936733
-1.941784
-1.932350
-2.020767
-2.020649
-1.792925
-1.776678
-1.800679
-1.763528
-1.728924
-1.646940
-1.797351
-1.782753
-1.863165
1.004845
0.982968
1.037396
1.020342
-2.539899
-2.440556
-2.521696
0.997537
0.961645
1.886689
0.959013
-2.474876
-2.526915
-2.506282
1.896463
1.036815
0.869903
0.950527
-2.563121
0.892192
-2.387117
-1.962716
-0.484218
-0.444774
-0.424381
-1.979148
-1.733706
-1.753994
-1.751703
-1.772643
-1.645672
-1.638420
-1.705161
-1.659779
1.689321
1.672965
1.713025
1.678303
-1.716698
-1.737782
-1.711916
-1.751959
1.247058
1.250851
1.310036
1.288782
-1.689650
-1.704908
-2.054349
-2.037273
1.115904
1.094041
1.135258
1.083771
1.094171
1.056772
-1.786981
-1.786277
-1.073755
-1.052121
-1.117152
-1.062174
1.157272
-1.490837
-1.540085
-1.576070
-1.394914
-0.268157
-0.227432
-0.233125
1.026760
0.928998
-0.193421
-1.464670
-1.459459
-1.420410
-1.424718
-0.675532
-0.721886
-0.111463
-0.174632
0.873984
0.844040
-0.195127
-1.754923
-1.668736
-1.701476
-1.560882
1.281469
1.328247
1.307431
1.364287
0.726091
0.802242
1.181258
1.190264
1.247892
-1.841310
-1.784818
-1.785276
1.696630
1.693168
1.739455
0.884731
0.882591
1.743855
1.144674
1.012298
1.179875
-0.238482
-0.226411
-0.182806
0.966392
-1.625630
-1.653019
0.977401
1.039953
1.060933
1.412175
1.384286
1.421808
-2.409999
-2.437830
1.374587
-2.199168
-2.232326
-2.192474
1.570278
1.519041
0.616898
0.532591
0.683292
-1.843510
-1.838192
-1.857668
-1.850188
-1.978879
-1.957408
-1.009365
-0.989756
-1.155880
-1.799136
-1.818214
-1.858027
-1.873578
-1.529306
-1.536302
0.345788
0.396247
0.317999
1.180859
1.200554
1.036591
1.068352
1.007528
1.186536
1.195578
1.168086
1.179223
-0.685177
-0.601203
-0.573947
-1.808013
-1.884160
-1.840564
-1.943467
-1.736123
-1.782977
-1.689179
1.024429
1.068945
1.081071
1.034886
2.210865
2.154928
2.179674
-1.743264
-1.759310
-1.751318
-0.856380
-0.956194
-0.884813
-1.757517
-1.526209
-1.445569
-1.491517
-1.492613
-0.620625
-0.563921
-0.564766
-1.556861
-1.651044
-2.447962
-2.403040
-2.429010
1.493792
1.481115
1.536359
-1.643112
1.689595
-1.686110
-1.679812
0.940806
0.995989
0.962132
0.983125
0.997772
0.888376
0.960486
2.157420
2.107135
2.116776
2.071254
1.934506
1.965368
1.966203
-1.972777
-1.982453
-2.001684
1.997775
-2.006215
-1.939325
-1.917979
-1.514129
-1.439510
-1.573335
-1.143288
-1.003503
-1.051948
1.770510
1.767153
1.737424
1.713171
-1.130900
0.899361
0.881099
1.070433
0.891088
0.871751
0.897079
0.872923
-1.320534
-1.332876
-1.292579
-1.358742
-1.591703
-1.551404
-1.544930
0.705649
0.680339
0.650370
0.628323
-1.756277
-1.779281
-1.767023
2.077310
-1.792435
2.030914
-1.742419
-1.707569
-1.261110
-1.208946
-0.219002
-0.290905
-1.236005
-1.192655
-1.148369
0.270310
0.250647
-2.145234
-2.189625
-2.180441
-2.234170
0.233639
0.283729
0.263868
0.338317
0.343780
0.374358
1.111139
1.135504
1.048860
1.211286
-1.058313
-1.283550
-0.534606
-0.610559
-0.550128
-0.606497
0.062980
0.096923
0.167908
0.145674
0.136517
0.115053
0.766259
0.804694
0.816094
0.127283
-0.022600
-0.022303
0.765729
-0.399651
-0.440210
-0.379804
-0.419984
0.854734
0.826576
0.602629
0.807921
-1.782160
-1.712005
-1.725126
-1.644905
-2.535621
-2.549334
-2.611813
-2.491332
0.096449
1.238325
1.218197
1.224392
1.206931
-2.494930
-2.462517
1.207672
-2.392227
-1.627485
-1.625569
-1.653675
-1.645897
-1.549712
-1.505070
-1.572518
1.039628
-0.525128
-0.537400
-0.590782
-1.470555
-1.438028
1.031525
1.012757
1.023514
-1.596287
-1.611538
1.567529
1.506544
1.536448
2.164789
2.118819
-1.637056
-1.566044
-2.635219
-2.627339
-1.317183
-1.304418
-1.336064
-1.278735
-0.158746
-0.194663
-0.139578
-0.188953
-1.524105
-1.346376
-1.362318
0.114333
-1.375404
-1.697294
-1.661681
-1.660459
-0.175212
-0.236908
-0.858967
-0.801932
-0.845827
-0.784481
1.036232
1.058493
1.031739
1.061745
1.282442
1.279889
1.291602
1.260634
-0.609269
-0.639364
-0.671287
0.592085
0.576555
0.619785
-0.390210
-0.462681
0.555581
-1.384880
-1.373188
-2.650498
-2.535360
-1.345572
-1.407541
-2.428694
-1.407398
2.319089
2.385769
2.351774
2.098242
1.054965
1.110393
1.144403
-1.918174
-1.837471
-1.894639
-1.002157
-1.010154
-1.035284
-1.036554
1.945440
1.394807
1.419779
1.427910
-2.033157
-2.343633
-2.321140
-2.299013
-2.368705
1.454906
1.481644
-2.386733
-2.419193
-2.381629
-0.808430
1.415353
1.426777
1.453273
1.801826
1.745784
1.782610
1.416692
-1.270857
-1.303813
-1.284987
-1.296007
-0.978290
-0.950364
-0.974924
-2.223454
-2.273659
2.157356
2.117974
2.059797
-1.363419
-1.307034
-1.231340
2.150862
2.188494
2.152436
-0.206372
-0.255581
-1.162762
-0.930739
-1.259733
-1.196482
-1.110794
1.071954
0.974735
1.132904
-0.217515
-0.310531
-0.488144
0.188082
0.230253
0.203325
-1.080173
-1.041368
-1.042699
0.292732
0.261301
0.313383
0.279676
0.104063
0.166803
-0.835718
-0.826626
-0.756571
-0.751349
-2.854627
-2.912676
-2.783407
-3.004481
-1.674316
-1.726577
-1.684267
-2.758723
-1.588440
0.765041
0.750792
0.785444
0.754110
1.207633
2.204633
2.150543
1.186328
1.897340
1.925685
0.245940
0.293102
1.199334
-0.907090
1.167699
0.963712
0.950832
0.975549
1.866496
1.868695
1.578928
1.528060
1.789315
1.738712
1.977894
2.025255
0.971433
1.796932
0.990524
0.968921
0.492209
0.476679
0.512994
-2.765891
-2.765870
-2.814773
-2.714165
0.453426
1.215962
1.183294
1.120349
1.165827
1.222509
-1.602474
-1.628120
-2.455127
-2.397892
-1.581009
-2.162210
-1.900023
1.145146
1.154103
1.161253
1.134660
1.175472
2.058986
2.099049
0.182577
0.185365
1.153079
1.111007
1.149102
1.099271
1.135871
-1.874355
-1.769412
-1.011591
-1.031373
-1.773402
-1.769922
-2.310269
-2.509564
-1.101585
-1.048465
-2.124347
-2.112938
-2.161784
-2.091025
0.166130
0.191288
-1.767451
-1.714969
-1.727939
-1.796586
-1.785431
-0.408033
-0.840075
-1.766689
-1.859614
-1.808820
-1.814798
1.233236
1.306507
-1.823818
1.120180
1.120829
1.142899
1.081033
-1.370266
1.934662
-2.091703
-2.125318
-1.380809
-1.352825
-1.293655
0.035572
0.102650
0.094653
-2.047510
-2.056044
-0.027228
0.003826
0.025505
1.527559
1.538323
1.508008
1.526825
1.223910
1.242394
1.216342
1.248366
1.196481
1.162594
1.139795
-1.899287
-1.890355
0.922963
0.927608
0.946425
-0.412717
-0.323428
-0.397638
-0.352326
0.906468
-2.430014
-2.494595
2.216145
2.245512