# vtk DataFile Version 2.0
Test
ASCII
DATASET POLYDATA
POINTS 6352 float
0.000000 0.000000 0.000000
1.000000 0.000000 0.000000
1.000000 0.800000 0.000000
1.000000 1.000000 0.000000
0.000000 1.000000 0.000000
0.000000 0.200000 0.000000
0.300000 0.330000 0.000000
0.700000 0.680000 0.000000
0.050000 0.000000 0.000000
0.100000 0.000000 0.000000
0.150000 0.000000 0.000000
0.200000 0.000000 0.000000
0.250000 0.000000 0.000000
0.300000 0.000000 0.000000
0.350000 0.000000 0.000000
0.400000 0.000000 0.000000
0.450000 0.000000 0.000000
0.500000 0.000000 0.000000
0.550000 0.000000 0.000000
0.600000 0.000000 0.000000
0.650000 0.000000 0.000000
0.700000 0.000000 0.000000
0.750000 0.000000 0.000000
0.800000 0.000000 0.000000
0.850000 0.000000 0.000000
0.900000 0.000000 0.000000
0.950000 0.000000 0.000000
1.000000 0.048545 0.000000
1.000000 0.094438 0.000000
1.000000 0.137825 0.000000
1.000000 0.178843 0.000000
1.000000 0.217620 0.000000
1.000000 0.254280 0.000000
1.000000 0.288938 0.000000
1.000000 0.321703 0.000000
1.000000 0.352678 0.000000
1.000000 0.381962 0.000000
1.000000 0.409647 0.000000
1.000000 0.435820 0.000000
1.000000 0.460563 0.000000
1.000000 0.483955 0.000000
1.000000 0.506070 0.000000
1.000000 0.526976 0.000000
1.000000 0.546741 0.000000
1.000000 0.565427 0.000000
1.000000 0.583092 0.000000
1.000000 0.599793 0.000000
1.000000 0.615581 0.000000
1.000000 0.630507 0.000000
1.000000 0.644618 0.000000
1.000000 0.657958 0.000000
1.000000 0.670570 0.000000
1.000000 0.682493 0.000000
1.000000 0.693765 0.000000
1.000000 0.704421 0.000000
1.000000 0.714495 0.000000
1.000000 0.724019 0.000000
1.000000 0.733023 0.000000
1.000000 0.741536 0.000000
1.000000 0.749583 0.000000
1.000000 0.757191 0.000000
1.000000 0.764383 0.000000
1.000000 0.771183 0.000000
1.000000 0.777611 0.000000
1.000000 0.783688 0.000000
1.000000 0.789434 0.000000
1.000000 0.794865 0.000000
1.000000 0.805174 0.000000
1.000000 0.811554 0.000000
1.000000 0.819418 0.000000
1.000000 0.829114 0.000000
1.000000 0.841067 0.000000
1.000000 0.855804 0.000000
1.000000 0.873972 0.000000
1.000000 0.896371 0.000000
1.000000 0.923985 0.000000
1.000000 0.958029 0.000000
0.950000 1.000000 0.000000
0.900000 1.000000 0.000000
0.850000 1.000000 0.000000
0.800000 1.000000 0.000000
0.750000 1.000000 0.000000
0.700000 1.000000 0.000000
0.650000 1.000000 0.000000
0.600000 1.000000 0.000000
0.550000 1.000000 0.000000
0.500000 1.000000 0.000000
0.450000 1.000000 0.000000
0.400000 1.000000 0.000000
0.350000 1.000000 0.000000
0.300000 1.000000 0.000000
0.250000 1.000000 0.000000
0.200000 1.000000 0.000000
0.150000 1.000000 0.000000
0.100000 1.000000 0.000000
0.050000 1.000000 0.000000
0.000000 0.951455 0.000000
0.000000 0.905562 0.000000
0.000000 0.862175 0.000000
0.000000 0.821157 0.000000
0.000000 0.782380 0.000000
0.000000 0.745720 0.000000
0.000000 0.711062 0.000000
0.000000 0.678297 0.000000
0.000000 0.647322 0.000000
0.000000 0.618038 0.000000
0.000000 0.590353 0.000000
0.000000 0.564180 0.000000
0.000000 0.539437 0.000000
0.000000 0.516045 0.000000
0.000000 0.493930 0.000000
0.000000 0.473024 0.000000
0.000000 0.453259 0.000000
0.000000 0.434573 0.000000
0.000000 0.416908 0.000000
0.000000 0.400207 0.000000
0.000000 0.384419 0.000000
0.000000 0.369493 0.000000
0.000000 0.355382 0.000000
0.000000 0.342042 0.000000
0.000000 0.329430 0.000000
0.000000 0.317507 0.000000
0.000000 0.306235 0.000000
0.000000 0.295579 0.000000
0.000000 0.285505 0.000000
0.000000 0.275981 0.000000
0.000000 0.266977 0.000000
0.000000 0.258464 0.000000
0.000000 0.250417 0.000000
0.000000 0.242809 0.000000
0.000000 0.235617 0.000000
0.000000 0.228817 0.000000
0.000000 0.222389 0.000000
0.000000 0.216312 0.000000
0.000000 0.210566 0.000000
0.000000 0.205135 0.000000
0.000000 0.194826 0.000000
0.000000 0.188446 0.000000
0.000000 0.180582 0.000000
0.000000 0.170886 0.000000
0.000000 0.158933 0.000000
0.000000 0.144196 0.000000
0.000000 0.126028 0.000000
0.000000 0.103629 0.000000
0.000000 0.076015 0.000000
0.000000 0.041971 0.000000
0.303738 0.333271 0.000000
0.307477 0.336542 0.000000
0.311215 0.339813 0.000000
0.314953 0.343084 0.000000
0.318692 0.346355 0.000000
0.322430 0.349626 0.000000
0.326168 0.352897 0.000000
0.329907 0.356168 0.000000
0.333645 0.359439 0.000000
0.337383 0.362710 0.000000
0.341121 0.365981 0.000000
0.344860 0.369252 0.000000
0.348598 0.372523 0.000000
0.352336 0.375794 0.000000
0.356075 0.379065 0.000000
0.359813 0.382336 0.000000
0.363551 0.385607 0.000000
0.367290 0.388879 0.000000
0.371028 0.392150 0.000000
0.374766 0.395421 0.000000
0.378505 0.398692 0.000000
0.382243 0.401963 0.000000
0.385981 0.405234 0.000000
0.389720 0.408505 0.000000
0.393458 0.411776 0.000000
0.397196 0.415047 0.000000
0.400935 0.418318 0.000000
0.404673 0.421589 0.000000
0.408411 0.424860 0.000000
0.412150 0.428131 0.000000
0.415888 0.431402 0.000000
0.419626 0.434673 0.000000
0.423364 0.437944 0.000000
0.427103 0.441215 0.000000
0.430841 0.444486 0.000000
0.434579 0.447757 0.000000
0.438318 0.451028 0.000000
0.442056 0.454299 0.000000
0.445794 0.457570 0.000000
0.449533 0.460841 0.000000
0.453271 0.464112 0.000000
0.457009 0.467383 0.000000
0.460748 0.470654 0.000000
0.464486 0.473925 0.000000
0.468224 0.477196 0.000000
0.471963 0.480467 0.000000
0.475701 0.483738 0.000000
0.479439 0.487009 0.000000
0.483178 0.490280 0.000000
0.486916 0.493551 0.000000
0.490654 0.496822 0.000000
0.494393 0.500093 0.000000
0.498131 0.503364 0.000000
0.501869 0.506636 0.000000
0.505607 0.509907 0.000000
0.509346 0.513178 0.000000
0.513084 0.516449 0.000000
0.516822 0.519720 0.000000
0.520561 0.522991 0.000000
0.524299 0.526262 0.000000
0.528037 0.529533 0.000000
0.531776 0.532804 0.000000
0.535514 0.536075 0.000000
0.539252 0.539346 0.000000
0.542991 0.542617 0.000000
0.546729 0.545888 0.000000
0.550467 0.549159 0.000000
0.554206 0.552430 0.000000
0.557944 0.555701 0.000000
0.561682 0.558972 0.000000
0.565421 0.562243 0.000000
0.569159 0.565514 0.000000
0.572897 0.568785 0.000000
0.576636 0.572056 0.000000
0.580374 0.575327 0.000000
0.584112 0.578598 0.000000
0.587850 0.581869 0.000000
0.591589 0.585140 0.000000
0.595327 0.588411 0.000000
0.599065 0.591682 0.000000
0.602804 0.594953 0.000000
0.606542 0.598224 0.000000
0.610280 0.601495 0.000000
0.614019 0.604766 0.000000
0.617757 0.608037 0.000000
0.621495 0.611308 0.000000
0.625234 0.614579 0.000000
0.628972 0.617850 0.000000
0.632710 0.621121 0.000000
0.636449 0.624393 0.000000
0.640187 0.627664 0.000000
0.643925 0.630935 0.000000
0.647664 0.634206 0.000000
0.651402 0.637477 0.000000
0.655140 0.640748 0.000000
0.658879 0.644019 0.000000
0.662617 0.647290 0.000000
0.666355 0.650561 0.000000
0.670093 0.653832 0.000000
0.673832 0.657103 0.000000
0.677570 0.660374 0.000000
0.681308 0.663645 0.000000
0.685047 0.666916 0.000000
0.688785 0.670187 0.000000
0.692523 0.673458 0.000000
0.696262 0.676729 0.000000
0.004545 0.201970 0.000000
0.009091 0.203939 0.000000
0.013636 0.205909 0.000000
0.018182 0.207879 0.000000
0.022727 0.209848 0.000000
0.027273 0.211818 0.000000
0.031818 0.213788 0.000000
0.036364 0.215758 0.000000
0.040909 0.217727 0.000000
0.045455 0.219697 0.000000
0.050000 0.221667 0.000000
0.054545 0.223636 0.000000
0.059091 0.225606 0.000000
0.063636 0.227576 0.000000
0.068182 0.229545 0.000000
0.072727 0.231515 0.000000
0.077273 0.233485 0.000000
0.081818 0.235455 0.000000
0.086364 0.237424 0.000000
0.090909 0.239394 0.000000
0.095455 0.241364 0.000000
0.100000 0.243333 0.000000
0.104545 0.245303 0.000000
0.109091 0.247273 0.000000
0.113636 0.249242 0.000000
0.118182 0.251212 0.000000
0.122727 0.253182 0.000000
0.127273 0.255152 0.000000
0.131818 0.257121 0.000000
0.136364 0.259091 0.000000
0.140909 0.261061 0.000000
0.145455 0.263030 0.000000
0.150000 0.265000 0.000000
0.154545 0.266970 0.000000
0.159091 0.268939 0.000000
0.163636 0.270909 0.000000
0.168182 0.272879 0.000000
0.172727 0.274848 0.000000
0.177273 0.276818 0.000000
0.181818 0.278788 0.000000
0.186364 0.280758 0.000000
0.190909 0.282727 0.000000
0.195455 0.284697 0.000000
0.200000 0.286667 0.000000
0.204545 0.288636 0.000000
0.209091 0.290606 0.000000
0.213636 0.292576 0.000000
0.218182 0.294545 0.000000
0.222727 0.296515 0.000000
0.227273 0.298485 0.000000
0.231818 0.300455 0.000000
0.236364 0.302424 0.000000
0.240909 0.304394 0.000000
0.245455 0.306364 0.000000
0.250000 0.308333 0.000000
0.254545 0.310303 0.000000
0.259091 0.312273 0.000000
0.263636 0.314242 0.000000
0.268182 0.316212 0.000000
0.272727 0.318182 0.000000
0.277273 0.320152 0.000000
0.281818 0.322121 0.000000
0.286364 0.324091 0.000000
0.290909 0.326061 0.000000
0.295455 0.328030 0.000000
0.704615 0.681846 0.000000
0.709231 0.683692 0.000000
0.713846 0.685538 0.000000
0.718462 0.687385 0.000000
0.723077 0.689231 0.000000
0.727692 0.691077 0.000000
0.732308 0.692923 0.000000
0.736923 0.694769 0.000000
0.741538 0.696615 0.000000
0.746154 0.698462 0.000000
0.750769 0.700308 0.000000
0.755385 0.702154 0.000000
0.760000 0.704000 0.000000
0.764615 0.705846 0.000000
0.769231 0.707692 0.000000
0.773846 0.709538 0.000000
0.778462 0.711385 0.000000
0.783077 0.713231 0.000000
0.787692 0.715077 0.000000
0.792308 0.716923 0.000000
0.796923 0.718769 0.000000
0.801538 0.720615 0.000000
0.806154 0.722462 0.000000
0.810769 0.724308 0.000000
0.815385 0.726154 0.000000
0.820000 0.728000 0.000000
0.824615 0.729846 0.000000
0.829231 0.731692 0.000000
0.833846 0.733538 0.000000
0.838462 0.735385 0.000000
0.843077 0.737231 0.000000
0.847692 0.739077 0.000000
0.852308 0.740923 0.000000
0.856923 0.742769 0.000000
0.861538 0.744615 0.000000
0.866154 0.746462 0.000000
0.870769 0.748308 0.000000
0.875385 0.750154 0.000000
0.880000 0.752000 0.000000
0.884615 0.753846 0.000000
0.889231 0.755692 0.000000
0.893846 0.757538 0.000000
0.898462 0.759385 0.000000
0.903077 0.761231 0.000000
0.907692 0.763077 0.000000
0.912308 0.764923 0.000000
0.916923 0.766769 0.000000
0.921538 0.768615 0.000000
0.926154 0.770462 0.000000
0.930769 0.772308 0.000000
[...]
POINT_DATA 6352
SCALARS UX float 1
LOOKUP_TABLE default
-0.000015
0.000018
23.947549
16.673059
-13.438108
-10.231315
-3.485053
9.093250
0.000001
-0.000002
-0.000001
-0.000001
-0.000001
-0.000001
-0.000001
-0.000000
-0.000000
-0.000000
-0.000000
0.000000
0.000000
0.000000
0.000001
0.000001
0.000001
0.000003
-0.000003
2.624462
6.377990
7.670234
9.114718
10.354405
11.481278
12.521032
13.461395
14.330847
15.118357
15.836565
16.481588
17.068107
17.603870
18.099771
18.565865
19.017003
19.462676
19.908442
20.356131
20.810997
21.266772
21.721074
22.157501
22.570019
22.945766
23.275247
23.556234
23.787597
23.971379
24.109632
24.207326
24.271101
24.300567
24.305802
24.286565
24.246204
24.189940
24.120042
24.038100
23.838746
23.689779
23.459592
23.135861
22.683016
22.157402
21.755843
20.291941
18.538656
17.199111
15.669122
14.681527
13.434575
12.198532
11.351747
10.645558
9.935762
9.182071
8.382788
7.431346
6.210216
4.545562
2.161379
-0.489225
-3.211350
-5.641519
-7.683462
-9.550063
-11.455406
-13.366253
-13.223896
-13.133684
-13.093494
-13.068938
-12.975585
-12.817688
-12.606474
-12.374543
-12.136954
-11.898858
-11.667258
-11.447036
-11.236823
-11.045031
-10.874448
-10.714945
-10.679029
-10.728902
-10.720193
-10.663394
-10.631954
-10.591640
-10.528513
-10.430613
-10.407218
-10.365560
-10.270226
-10.189600
-10.065941
-10.020246
-9.957321
-9.870070
-9.853468
-9.873063
-9.905190
-9.952635
-9.995429
-10.043212
-10.163939
-10.283535
-10.329373
-10.379643
-10.454094
-10.492171
-10.386572
-9.609102
-8.807001
-6.683491
-3.456227
-4.902572
-1.939328
-2.172887
-2.269247
-2.370375
-0.336702
-1.420282
-1.722075
-1.789324
-1.420161
-1.282596
-1.122468
-1.201336
-0.904013
-0.201832
-0.444272
0.062101
-0.086194
0.569134
0.427026
0.361221
0.809498
1.207927
1.313075
1.298537
0.159071
0.743453
1.078743
1.490655
2.078851
2.432599
2.031095
2.041747
6.701762
2.418985
-3.205765
-3.507440
-0.994437
-0.752163
-1.003486
1.054458
3.384894
4.941790
3.963351
5.962354
4.222911
2.492212
0.707434
1.044272
1.174685
0.251064
0.377938
0.867542
0.644444
1.115130
0.303156
-0.062333
1.396950
1.994237
-0.242192
0.541721
1.193758
1.926244
1.566934
1.950827
1.803026
1.844562
2.700570
4.719261
2.628138
2.706531
2.948794
2.728136
2.715415
3.639552
3.460144
3.905891
4.589347
4.909546
5.643017
4.905327
4.612016
5.256386
5.686427
5.100470
6.232847
6.189493
5.287427
5.265748
5.056673
5.311651
5.608926
5.999992
5.851543
5.718628
4.724857
4.799738
4.654956
4.854405
5.063569
5.219570
5.538914
5.962436
6.626763
7.225421
8.169993
-10.084982
-9.897235
-9.712743
-9.535964
-9.368663
-9.204621
-9.039758
-8.888829
-8.739459
-8.596160
-8.447326
-8.309705
-8.170572
-8.026272
-7.863942
-7.690185
-7.567189
-7.416062
-7.253240
-7.092975
-6.893588
-6.736404
-6.541567
-6.435233
-6.309609
-6.197346
-6.084775
-5.924493
-5.821243
-5.669851
-5.541608
-5.430319
-5.328681
-5.237641
-5.149263
-5.051896
-4.935257
-4.802345
-4.657748
-4.491811
-4.299540
-4.102661
-3.904942
-3.690558
-3.455505
-3.223920
-2.996933
-2.802581
-2.559115
-1.970327
-1.042743
-0.645054
-1.019601
-0.475848
-0.218441
0.082321
-0.467798
-0.750512
-1.243640
-2.271035
-1.589447
-0.849171
-1.063443
-2.076951
-2.990121
10.632046
11.807146
12.935700
13.855765
14.827723
15.734636
16.607418
17.290529
17.790666
18.282234
18.670732
19.023465
19.397062
19.721965
19.866799
20.009684
20.254332
20.441478
20.515513
20.606842
20.713256
20.770275
20.810135
20.877523
20.960514
21.027689
21.118758
21.227095
21.310985
21.381770
21.427857
21.465035
21.518030
21.580054
21.654426
21.744250
21.848280
21.964083
22.086067
22.206639
22.326206
22.446234
22.561955
22.671984
22.779064
22.879650
22.974722
23.064129
23.149103
23.229384
23.304849
23.376782
23.444275
23.508104
23.570297
23.627158
23.679988
23.729214
23.773546
23.814611
23.850728
23.882734
23.910078
23.931904
11.526504
10.991494
11.578183
10.891391
0.872356
0.637064
0.707741
0.443237
-2.324729
-2.828288
-2.163644
-1.684296
-1.287042
-1.518580
-8.130584
-7.838548
-8.010242
-7.774099
-1.538998
0.666860
0.681289
0.738032
0.729630
10.451063
10.034972
10.663138
10.011775
0.715182
0.589051
0.690124
8.474700
8.780470
8.706819
9.024615
14.536715
13.840265
14.572943
14.151690
0.333816
0.167035
0.181039
0.271255
-7.673748
-7.544207
-7.797334
-8.459363
-8.592437
-8.361891
-6.637792
-6.528171
-6.676541
10.084279
11.339903
10.756696
10.839531
3.354584
3.348506
3.510736
1.007254
0.427656
0.744830
16.123399
16.210659
16.628988
3.673980
3.035700
2.977951
-1.957659
-1.652551
-1.130275
21.695654
21.757055
21.688394
3.632592
-6.147617
-6.230480
-5.982084
1.469261
1.531909
1.380726
1.631065
12.279929
12.197696
11.847288
3.293297
3.156420
2.812204
12.609357
19.664042
19.613297
19.933445
8.170788
7.813766
8.006407
19.894112
19.851940
20.305843
8.928516
8.503654
9.039154
7.288937
7.133185
6.958518
8.463192
1.960872
2.083115
2.326542
7.632271
-5.394353
-5.616947
-5.431569
1.864136
14.344474
13.649792
14.001529
0.061989
-0.014585
0.086374
19.633848
19.893925
19.763698
20.018029
19.713362
19.962618
0.522832
-1.391347
0.260085
-1.356621
0.756878
0.798723
0.879254
13.514242
21.629954
0.943950
-9.436926
-9.101607
-9.337215
-4.980511
-5.614248
-5.233947
9.041125
9.729707
10.112791
-8.945758
18.729855
18.564652
18.408980
18.832955
5.710345
5.574097
5.882445
10.021958
-4.265744
-4.523263
-4.460792
3.052301
2.863821
3.060031
2.824976
16.405250
16.648873
16.221826
5.634353
20.968939
21.161245
21.034663
-9.227353
-9.291084
-9.026186
19.168379
19.215512
19.371935
19.599563
-6.033443
-5.834633
-6.025021
-5.792379
0.109026
0.528475
0.095619
16.329297
-0.135734
0.124715
-0.233506
0.665482
-0.365603
1.603678
0.773869
1.043687
14.002924
14.434652
0.193494
13.608588
-3.562340
-3.160181
-2.848932
-3.785023
0.287537
0.257836
0.131241
8.942723
-4.402858
2.602013
-4.183916
-4.365586
-4.487338
-4.100678
13.663677
13.915710
13.424613
13.839428
-5.583882
-5.612201
0.437844
-4.168480
-4.341437
-4.632556
-4.629298
2.251859
2.421878
2.441375
15.962347
16.340153
15.916736
2.176815
16.267531
-1.613937
-0.816334
-0.625701
20.515938
20.699293
20.740848
-0.300574
0.289175
0.449198
-0.092028
20.475157
0.206691
-5.853722
-5.810651
-5.762410
0.052513
0.600855
0.274111
-5.636551
12.316318
12.684022
11.858509
10.897024
10.561738
10.527258
0.077483
0.080451
0.235982
-0.992749
-0.465023
-0.470048
15.911308
16.259430
16.376536
15.886963
3.724580
3.494235
3.620020
10.118843
12.415014
6.914294
7.066228
6.626150
21.040533
20.897012
21.036563
20.882955
19.065888
19.123545
19.300409
19.378569
16.989395
17.131031
16.605904
-1.526535
-1.556333
-1.437582
-1.790599
16.518329
8.370301
8.458030
8.652232
-3.192576
-3.062177
-2.727171
15.069245
14.497169
14.613027
16.444471
16.903703
14.885306
-10.293502
-10.537994
-10.068813
22.912338
23.038769
22.835522
22.916643
-3.018020
-2.755753
17.610575
18.068257
17.939711
0.186469
0.376260
-0.304478
0.139324
20.924362
-3.448256
21.113629
20.946940
-2.053025
-2.388062
-2.318936
-4.262764
-3.506725
-4.044476
-4.205944
-7.203683
-7.358061
-7.379886
-7.544513
-7.028417
-6.987216
-6.808735
-2.493447
-2.883777
-2.055828
-7.443616
-7.245785
-7.395457
-2.060263
2.560854
2.359437
2.407454
7.440686
7.440530
-6.668876
-6.627599
-6.494245
-6.813653
-4.931174
-5.215453
-4.849134
-5.174338
-1.799217
-3.025292
-1.723054
-3.146383
-7.850902
-7.931215
-8.125599
-6.410009
-7.712572
13.923930
13.501423
14.170878
-2.268715
-2.441996
-2.159117
-2.254322
17.821321
18.130133
18.116282
17.877263
-7.031363
-7.188703
9.947323
10.330523
9.468179
-4.436393
-4.237943
9.910885
21.475471
21.337151
21.507265
21.382304
21.581023
21.482659
21.545122
-4.568064
3.924008
3.681684
3.743277
3.451119
13.777483
13.175728
13.563919
-2.560377
-2.446185
-2.570662
-3.063207
21.485979
21.206859
21.335613
21.370201
-11.789419
-11.357429
-11.394190
-10.989278
-6.537789
-6.764854
13.432144
14.310357
12.750408
12.984225
-5.299006
-4.705241
-4.191191
-3.814490
21.519451
21.425547
20.365139
20.310822
20.565674
11.783117
12.194611
11.603723
15.897602
15.748315
16.293913
1.545508
1.588589
1.430874
12.471705
11.776842
12.261120
11.930420
16.033769
15.431062
15.703716
0.060411
0.173437
-5.370388
-5.589998
-5.236520
7.812651
7.414992
7.817264
12.974114
12.561798
-5.239050
-5.208045
-4.605511
-4.863959
-2.937796
-2.812978
-2.113147
13.765313
11.189869
10.728149
10.953835
14.304120
-4.802617
-4.978842
-4.863470
9.433585
9.664054
9.048266
-3.436404
3.359297
2.978911
9.419046
-5.049250
-2.348772
-1.888538
-2.458850
0.380204
0.461707
0.480313
21.601784
21.716091
21.494808
-0.885842
-0.363604
-5.621372
-5.633783
10.365877
10.732261
10.262981
-5.770973
9.929937
10.018079
9.750004
10.147124
-2.285475
-2.721020
-2.124659
-4.187622
-2.696882
-3.523727
-3.799226
-4.514546
1.649553
-1.242156
-2.160045
21.031527
20.793016
20.677509
0.362325
0.505274
0.270620
-6.598042
-6.779554
1.889616
20.915690
-6.782222
-6.534165
-6.973758
-5.985003
-11.185089
-10.833904
-10.877596
-10.601212
5.757449
6.231870
6.022244
-3.827110
-3.251409
-3.833678
-3.173537
-8.352337
-7.778999
-7.884665
19.996057
20.652123
20.429553
-4.309907
-3.879978
-5.036650
-5.239136
-5.403986
13.667632
14.706790
14.938098
-5.503705
-4.233144
-3.316307
-1.543153
22.465774
22.633598
22.675678
10.965593
9.849746
12.610890
-4.160595
-4.262902
-4.168898
-0.892263
-1.833407
-2.292211
-6.200065
-6.429803
-6.143487
-1.309573
-3.070574
-2.564532
2.677567
2.893683
2.751523
6.974292
6.934827
2.856667
-3.293388
-3.002605
-6.061263
-5.946357
-6.081717
4.605066
4.912056
4.298554
5.212646
3.248028
3.491559
3.603497
3.263452
-6.242844
-6.116685
-6.077027
-5.942544
6.177108
6.213017
5.975970
20.512045
20.552465
20.255950
20.667640
-1.473103
-1.940881
-1.128752
-4.565432
-2.970860
-3.780617
-2.375163
-3.842454
-4.493473
-4.515500
12.353715
11.333728
11.913779
11.449859
-5.925545
-6.018117
-6.191928
22.980707
23.067039
23.191946
17.657763
17.687345
17.955469
17.367315
-8.003330
-7.772627
-7.601509
-5.922878
-6.087339
-6.152132
-6.160893
22.787356
22.748326
22.905824
1.361489
1.714290
1.266187
9.881878
9.640105
10.315956
9.966941
10.459008
9.909295
10.335382
1.485593
1.619754
1.479280
2.553195
2.751105
2.601437
1.595837
-8.695712
-8.831561
-8.721358
2.743015
2.474917
2.595622
1.057179
1.431277
-6.183701
-6.034798
-5.949735
23.553281
23.633424
23.618570
-5.695882
1.155825
19.944309
18.311877
19.129196
-7.202469
-7.280296
-7.654175
-3.949195
-4.148757
-5.595841
-5.608673
-5.936837
22.031472
22.235477
22.289363
-6.445106
-6.500978
-6.658634
-6.701366
-2.490719
-2.888817
-1.132120
-3.638376
2.742565
2.384924
2.101419
2.886380
21.436483
21.415907
21.730780
21.057642
21.653960
21.931308
21.180191
21.010618
21.172860
21.748030
21.681257
21.956081
20.971259
21.509937
21.517064
21.554898
20.555663
20.611641
-2.618691
-2.538850
20.018075
-0.384713
-0.624126
-0.765432
-0.693866
-5.941206
-6.237785
-6.366054
-3.941588
16.203226
16.692595
16.282625
16.803976
-7.069059
-6.974377
-6.753355
0.926786
0.988889
1.027410
9.697758
9.341168
9.658312
9.075761
1.765722
2.117154
2.573595
20.275447
20.466458
20.309555
17.154668
17.278023
14.565429
2.372560
-1.409668
-1.300320
-0.659887
14.718922
15.099890
15.391188
-2.013826
0.828788
-3.378728
-2.641922
-2.956972
-3.549897
1.097524
0.521920
14.463976
14.787546
-9.018193
-8.727387
4.001813
4.091769
4.384772
4.381065
1.163611
1.026456
0.971265
2.021210
2.333813
2.155073
18.992540
19.981049
19.181070
2.148633
-0.714390
-1.135873
-0.876371
22.328739
22.076888
22.299066
3.168802
3.461663
3.378763
-2.545660
0.317180
0.188077
-2.945207
-2.722764
-2.726271
19.600276
19.545588
20.441421
20.912562
20.759122
20.862251
20.692186
18.432546
-3.048909
-2.615519
-2.921395
0.829157
0.407481
0.877275
20.468490
20.244414
20.493668
20.141671
20.663277
20.620003
20.832892
-3.384778
-4.686182
-4.358960
7.845380
-8.683710
-8.387863
-8.528118
-6.388818
-2.153777
-2.242790
-1.665062
-5.692012
-5.336406
-5.725759
-1.596306
13.336675
14.074324
-1.595501
-1.453213
-2.150322
-0.187275
-0.243672
-0.864899
1.820909
-0.256882
0.037897
-1.887044
-1.121029
7.619374
7.818688
8.184897
-7.352874
-7.533777
-7.384031
-3.754086
-4.141400
-3.201544
-1.483188
-1.559089
-1.805565
-2.558199
22.494450
22.067250
14.933871
15.602061
15.374400
-5.537164
-5.626038
-5.883453
21.894944
-6.179966
-6.057771
-0.264508
-0.202165
16.219232
16.578337
16.475587
21.422910
21.343231
21.534950
16.784489
21.490948
21.531207
-7.116545
-7.252023
-7.301086
-7.412735
-4.619752
-4.656869
-4.634949
4.151740
3.764190
2.990828
7.304328
6.900499
7.893875
1.933404
2.512757
2.399679
1.975259
7.051000
19.409436
19.550401
19.678855
3.116386
3.079328
3.284988
-1.162682
-0.748051
-1.038802
-5.817118
-6.079837
-5.846809
-1.333228
-6.118505
19.791084
3.317280
3.099250
3.736385
7.838371
7.747995
8.065114
-0.430307
-0.364509
-0.064393
-0.013854
-5.531617
-5.726379
10.600944
11.131062
11.154773
17.391427
17.220621
19.385847
19.016124
-6.761085
-6.879772
-6.965043
-7.126532
19.307306
19.127511
19.322057
19.058254
-7.018431
-5.754032
-6.340301
21.257422
21.358218
21.364553
-6.883277
21.409419
21.419655
20.789714
20.509498
-4.871247
-4.722499
-4.711686
-4.631277
-4.606858
-5.156940
-5.575210
-5.518949
-6.557495
-6.631847
-6.834964
-6.367965
7.890666
8.342945
8.099589
21.812562
21.706538
21.774082
-4.854942
-4.901593
-4.678055
21.724636
-4.555360
-4.476067
-4.712196
-0.123443
-0.426813
-0.215103
23.722831
23.665629
-2.925335
-3.001369
-3.097234
-3.334887
8.574104
8.758219
8.423456
-3.322292
7.487273
7.723005
8.123560
3.001782
2.614030
2.429741
3.286479
3.221466
3.401369
-7.653290
-7.592737
-7.481011
2.047949
22.742960
22.784461
22.859265
5.125854
5.413856
5.116731
1.095834
1.282733
0.943260
1.394135
2.671057
2.494086
-4.577001
-4.498797
-4.366498
1.015138
1.296778
0.994818
12.282344
13.021750
2.598916
2.163044
1.690198
1.363708
-4.263810
4.746758
4.772284
1.211445
-0.964338
0.420684
-0.785041
-8.253965
-8.978530
-8.911945
-8.287211
-4.675662
-4.972798
-4.655004
3.819722
3.739476
4.013223
-4.859085
-4.701456
-5.591075
-5.832418
-4.256910
12.308002
12.363581
11.855244
12.933200
5.153383
4.778967
4.663836
5.222838
4.217327
4.624059
4.121061
-6.891548
-7.152075
-6.989129
23.771145
23.775281
20.796351
21.154565
21.270617
21.203094
-6.797114
-6.620251
-4.232122
-4.094216
-3.573155
-9.772113
-9.596053
-5.412643
-5.443727
-5.540277
-5.338022
-5.043400
-4.467439
-5.402873
-5.380242
-5.772514
8.580195
8.176960
8.809582
8.401048
-8.935456
-8.449451
-8.890662
8.712855
8.123922
23.640701
8.333921
-8.387887
-8.515995
-8.546852
23.611066
17.563671
14.390297
15.500176
-8.717160
14.523846
-8.193255
-9.531790
0.262174
0.625419
0.284332
-9.886291
-5.009857
-5.102153
-4.934554
-5.082205
-4.787615
-4.688952
-5.074282
-4.772415
18.689635
18.468235
18.395519
18.196540
-5.239405
-5.271205
-5.145783
-5.378521
21.614228
21.396963
21.089648
21.027742
-3.669075
-3.971880
-8.892592
-8.747277
12.250161
11.459504
11.723300
12.244647
12.794809
11.698116
-4.445115
-4.117983
0.510912
0.808087
0.187463
0.839498
10.489736
-0.382374
-1.001786
-1.097744
-0.216849
-0.544866
-0.215801
-0.308322
16.739587
15.426724
0.095022
-3.549285
-3.567219
-3.163963
-3.282266
2.247437
2.058245
0.404255
0.547001
8.017273
7.540758
0.624586
-1.430179
0.315918
-0.579872
0.724535
20.994986
20.809448
20.833289
20.615748
4.379466
4.988143
9.885117
9.649574
10.330841
-5.651076
-5.236746
-5.161565
22.918221
22.969655
23.180014
5.519210
5.748593
23.232984
19.474079
18.573863
19.731716
6.376355
6.118802
6.587788
6.241013
-4.759863
-4.916755
6.571486
6.948031
7.368585
21.233552
21.273980
21.132490
-7.396788
-7.533305
21.230042
-7.873680
-8.058565
-7.940494
20.783532
20.992793
7.979897
8.070073
8.151172
-1.106296
-1.318988
-1.990848
-1.977452
-3.581834
-3.318275
-2.416067
-2.016953
-2.380228
-7.862670
-7.690424
-8.156671
-7.992409
-4.123767
-4.140043
3.153675
3.415369
3.193404
16.867737
16.741599
8.111929
8.725042
8.067542
16.322177
17.108315
17.066520
17.323855
0.469643
0.426369
0.639479
-5.323485
-5.742792
-5.580762
-6.095628
-4.870488
-5.056575
-4.435879
15.814481
15.712140
16.024580
15.598317
19.718871
19.767677
19.473572
-4.474856
-4.418593
-4.163339
-0.021852
-0.140577
-0.064865
-4.691455
-0.812778
-0.685380
-0.662030
-0.914705
1.671071
1.656881
2.005146
1.997462
1.588986
-9.487584
-9.384646
-9.361264
14.866538
14.433641
14.813986
1.146706
11.846656
-0.088579
-0.462739
14.369148
14.462198
14.608338
14.221463
14.882266
14.460507
15.001668
23.437091
23.553854
23.330960
23.448102
23.771110
23.792593
23.861537
-3.638618
-3.989277
-4.254085
23.861452
-4.523241
-2.920880
-2.736435
1.126850
0.301566
1.111695
-1.035891
0.097578
-0.635704
16.660542
16.939554
16.623120
16.856332
-0.599172
16.297149
16.241159
17.936396
9.961572
9.395173
9.713671
9.085830
-2.274346
-2.463505
-2.045281
-2.669341
-4.414668
-4.160987
-4.063794
5.322676
5.244972
4.952012
4.936181
-2.098075
-2.850387
-2.031037
23.208132
-2.714244
23.321939
-2.053238
-0.618841
0.661118
-3.510497
5.784587
5.512327
-1.102075
-0.760706
-0.224816
3.547264
3.432575
-8.904118
-9.000329
-9.049042
-9.150567
3.310645
3.485966
3.317231
3.858776
3.900275
4.049321
17.670285
18.059322
16.355219
19.445935
-1.575141
-1.496608
-0.179967
-0.473512
0.101764
-0.125060
2.463772
2.634518
2.812581
2.639374
2.735592
2.538008
6.315923
6.604820
6.839094
2.380292
1.914362
1.968517
6.160711
0.970880
1.078438
1.247938
1.241416
7.302709
7.139346
12.872021
14.439956
-1.954104
-2.137912
-2.495827
-2.603225
-9.591832
-9.507327
-9.760840
-9.371596
2.663478
17.104745
17.069092
16.743541
16.379361
-9.572333
-9.380376
16.054453
-9.167199
-2.264214
-2.719790
-3.207367
-3.490882
-4.194018
-3.869017
-4.393010
9.057897
3.899097
4.187578
3.493608
-3.547531
-3.275557
13.259663
13.022915
12.783658
-4.586491
-4.660664
15.793390
15.424202
15.272979
23.150921
23.125605
-4.801565
-4.409831
-9.532269
-9.570467
-3.992862
-3.663234
-3.761084
-3.986737
1.456412
1.649752
1.827983
1.835374
-3.500224
-3.462888
-3.880006
2.820566
-3.601841
-3.626908
-3.248728
-3.060976
0.202600
-0.026051
1.215572
1.875197
1.668256
2.365004
12.379608
12.858396
11.940462
13.277904
19.692880
19.423670
19.455933
19.548632
0.737525
0.612351
0.612250
5.059126
4.885007
5.197588
1.358804
1.148236
4.802417
-4.006721
-4.282156
-9.794556
-9.146446
-4.227320
-4.003389
-9.194814
-3.667980
17.976360
18.193860
18.355898
22.995565
17.661981
17.784454
18.215506
-8.711419
-8.400911
-8.442211
-0.843233
-0.539385
-1.063896
-0.617626
23.785295
21.212633
21.338605
21.365083
-10.005068
-7.122989
-7.018756
-6.933928
-7.219691
20.080314
19.985080
-7.289832
-7.423282
-7.262478
-2.963307
17.073641
20.190356
19.961133
23.423917
23.155254
23.367873
20.141818
-2.733432
-2.988981
-3.266690
-2.663046
-1.472565
-1.171423
-0.865409
-9.022421
-9.215101
23.668516
23.756078
23.631162
-1.231197
-1.460831
-0.798778
20.191429
20.414025
20.549612
5.457511
4.948574
-0.635764
-1.502052
1.532301
1.552692
2.756777
15.302753
14.736822
15.492358
-0.553989
-0.639695
-1.066395
3.101468
3.223595
3.096308
-0.615546
-0.081459
0.218016
3.489197
3.347222
3.665110
3.504788
2.879175
2.890164
-0.298538
0.119648
0.189355
0.392902
-11.192524
-11.425809
-10.623628
-12.090335
-0.045170
-0.936819
-0.758764
-10.350570
0.772172
7.014768
6.714095
7.112453
6.599932
17.366144
20.763261
20.942556
17.640126
23.718026
23.796718
3.377601
3.618957
17.880376
0.949054
17.939305
12.772380
12.422400
12.427959
23.654077
23.640128
20.626986
20.849244
23.319851
22.977613
23.736472
23.829970
11.824664
23.285686
12.945271
13.293974
4.860228
4.626891
4.965885
-8.915997
-8.949662
-9.153162
-8.701730
4.488208
19.802717
19.596033
19.566080
19.293836
19.470123
-4.587647
-4.720294
-9.185234
-9.014461
-4.489768
-8.869639
-10.174406
15.598521
15.317074
15.804983
15.163514
15.980671
22.953587
22.747186
2.714127
2.739733
17.427666
17.187277
17.211867
17.342632
17.013888
-8.863037
-8.630384
0.947279
0.848475
-2.053561
-2.690148
-7.325189
-8.827135
-0.034724
0.513761
-6.390738
-6.390893
-6.570139
-6.253387
0.200200
0.262551
-3.163852
-2.098790
-2.824833
-3.401044
-3.512587
-0.848231
-2.440753
-2.911892
-9.126666
-3.789922
-3.451967
15.945836
16.611720
-3.939439
16.479531
16.735909