# vtk DataFile Version 2.0
Test
ASCII
DATASET POLYDATA
POINTS 6352 float
0.000000 0.000000 0.000000
1.000000 0.000000 0.000000
1.000000 0.800000 0.000000
1.000000 1.000000 0.000000
0.000000 1.000000 0.000000
0.000000 0.200000 0.000000
0.300000 0.330000 0.000000
0.700000 0.680000 0.000000
0.050000 0.000000 0.000000
0.100000 0.000000 0.000000
0.150000 0.000000 0.000000
0.200000 0.000000 0.000000
0.250000 0.000000 0.000000
0.300000 0.000000 0.000000
0.350000 0.000000 0.000000
0.400000 0.000000 0.000000
0.450000 0.000000 0.000000
0.500000 0.000000 0.000000
0.550000 0.000000 0.000000
0.600000 0.000000 0.000000
0.650000 0.000000 0.000000
0.700000 0.000000 0.000000
0.750000 0.000000 0.000000
0.800000 0.000000 0.000000
0.850000 0.000000 0.000000
0.900000 0.000000 0.000000
0.950000 0.000000 0.000000
1.000000 0.048545 0.000000
1.000000 0.094438 0.000000
1.000000 0.137825 0.000000
1.000000 0.178843 0.000000
1.000000 0.217620 0.000000
1.000000 0.254280 0.000000
1.000000 0.288938 0.000000
1.000000 0.321703 0.000000
1.000000 0.352678 0.000000
1.000000 0.381962 0.000000
1.000000 0.409647 0.000000
1.000000 0.435820 0.000000
1.000000 0.460563 0.000000
1.000000 0.483955 0.000000
1.000000 0.506070 0.000000
1.000000 0.526976 0.000000
1.000000 0.546741 0.000000
1.000000 0.565427 0.000000
1.000000 0.583092 0.000000
1.000000 0.599793 0.000000
1.000000 0.615581 0.000000
1.000000 0.630507 0.000000
1.000000 0.644618 0.000000
1.000000 0.657958 0.000000
1.000000 0.670570 0.000000
1.000000 0.682493 0.000000
1.000000 0.693765 0.000000
1.000000 0.704421 0.000000
1.000000 0.714495 0.000000
1.000000 0.724019 0.000000
1.000000 0.733023 0.000000
1.000000 0.741536 0.000000
1.000000 0.749583 0.000000
1.000000 0.757191 0.000000
1.000000 0.764383 0.000000
1.000000 0.771183 0.000000
1.000000 0.777611 0.000000
1.000000 0.783688 0.000000
1.000000 0.789434 0.000000
1.000000 0.794865 0.000000
1.000000 0.805174 0.000000
1.000000 0.811554 0.000000
1.000000 0.819418 0.000000
1.000000 0.829114 0.000000
1.000000 0.841067 0.000000
1.000000 0.855804 0.000000
1.000000 0.873972 0.000000
1.000000 0.896371 0.000000
1.000000 0.923985 0.000000
1.000000 0.958029 0.000000
0.950000 1.000000 0.000000
0.900000 1.000000 0.000000
0.850000 1.000000 0.000000
0.800000 1.000000 0.000000
0.750000 1.000000 0.000000
0.700000 1.000000 0.000000
0.650000 1.000000 0.000000
0.600000 1.000000 0.000000
0.550000 1.000000 0.000000
0.500000 1.000000 0.000000
0.450000 1.000000 0.000000
0.400000 1.000000 0.000000
0.350000 1.000000 0.000000
0.300000 1.000000 0.000000
0.250000 1.000000 0.000000
0.200000 1.000000 0.000000
0.150000 1.000000 0.000000
0.100000 1.000000 0.000000
0.050000 1.000000 0.000000
0.000000 0.951455 0.000000
0.000000 0.905562 0.000000
0.000000 0.862175 0.000000
0.000000 0.821157 0.000000
0.000000 0.782380 0.000000
0.000000 0.745720 0.000000
0.000000 0.711062 0.000000
0.000000 0.678297 0.000000
0.000000 0.647322 0.000000
0.000000 0.618038 0.000000
0.000000 0.590353 0.000000
0.000000 0.564180 0.000000
0.000000 0.539437 0.000000
0.000000 0.516045 0.000000
0.000000 0.493930 0.000000
0.000000 0.473024 0.000000
0.000000 0.453259 0.000000
0.000000 0.434573 0.000000
0.000000 0.416908 0.000000
0.000000 0.400207 0.000000
0.000000 0.384419 0.000000
0.000000 0.369493 0.000000
0.000000 0.355382 0.000000
0.000000 0.342042 0.000000
0.000000 0.329430 0.000000
0.000000 0.317507 0.000000
0.000000 0.306235 0.000000
0.000000 0.295579 0.000000
0.000000 0.285505 0.000000
0.000000 0.275981 0.000000
0.000000 0.266977 0.000000
0.000000 0.258464 0.000000
0.000000 0.250417 0.000000
0.000000 0.242809 0.000000
0.000000 0.235617 0.000000
0.000000 0.228817 0.000000
0.000000 0.222389 0.000000
0.000000 0.216312 0.000000
0.000000 0.210566 0.000000
0.000000 0.205135 0.000000
0.000000 0.194826 0.000000
0.000000 0.188446 0.000000
0.000000 0.180582 0.000000
0.000000 0.170886 0.000000
0.000000 0.158933 0.000000
0.000000 0.144196 0.000000
0.000000 0.126028 0.000000
0.000000 0.103629 0.000000
0.000000 0.076015 0.000000
0.000000 0.041971 0.000000
0.303738 0.333271 0.000000
0.307477 0.336542 0.000000
0.311215 0.339813 0.000000
0.314953 0.343084 0.000000
0.318692 0.346355 0.000000
0.322430 0.349626 0.000000
0.326168 0.352897 0.000000
0.329907 0.356168 0.000000
0.333645 0.359439 0.000000
0.337383 0.362710 0.000000
0.341121 0.365981 0.000000
0.344860 0.369252 0.000000
0.348598 0.372523 0.000000
0.352336 0.375794 0.000000
0.356075 0.379065 0.000000
0.359813 0.382336 0.000000
0.363551 0.385607 0.000000
0.367290 0.388879 0.000000
0.371028 0.392150 0.000000
0.374766 0.395421 0.000000
0.378505 0.398692 0.000000
0.382243 0.401963 0.000000
0.385981 0.405234 0.000000
0.389720 0.408505 0.000000
0.393458 0.411776 0.000000
0.397196 0.415047 0.000000
0.400935 0.418318 0.000000
0.404673 0.421589 0.000000
0.408411 0.424860 0.000000
0.412150 0.428131 0.000000
0.415888 0.431402 0.000000
0.419626 0.434673 0.000000
0.423364 0.437944 0.000000
0.427103 0.441215 0.000000
0.430841 0.444486 0.000000
0.434579 0.447757 0.000000
0.438318 0.451028 0.000000
0.442056 0.454299 0.000000
0.445794 0.457570 0.000000
0.449533 0.460841 0.000000
0.453271 0.464112 0.000000
0.457009 0.467383 0.000000
0.460748 0.470654 0.000000
0.464486 0.473925 0.000000
0.468224 0.477196 0.000000
0.471963 0.480467 0.000000
0.475701 0.483738 0.000000
0.479439 0.487009 0.000000
0.483178 0.490280 0.000000
0.486916 0.493551 0.000000
0.490654 0.496822 0.000000
0.494393 0.500093 0.000000
0.498131 0.503364 0.000000
0.501869 0.506636 0.000000
0.505607 0.509907 0.000000
0.509346 0.513178 0.000000
0.513084 0.516449 0.000000
0.516822 0.519720 0.000000
0.520561 0.522991 0.000000
0.524299 0.526262 0.000000
0.528037 0.529533 0.000000
0.531776 0.532804 0.000000
0.535514 0.536075 0.000000
0.539252 0.539346 0.000000
0.542991 0.542617 0.000000
0.546729 0.545888 0.000000
0.550467 0.549159 0.000000
0.554206 0.552430 0.000000
0.557944 0.555701 0.000000
0.561682 0.558972 0.000000
0.565421 0.562243 0.000000
0.569159 0.565514 0.000000
0.572897 0.568785 0.000000
0.576636 0.572056 0.000000
0.580374 0.575327 0.000000
0.584112 0.578598 0.000000
0.587850 0.581869 0.000000
0.591589 0.585140 0.000000
0.595327 0.588411 0.000000
0.599065 0.591682 0.000000
0.602804 0.594953 0.000000
0.606542 0.598224 0.000000
0.610280 0.601495 0.000000
0.614019 0.604766 0.000000
0.617757 0.608037 0.000000
0.621495 0.611308 0.000000
0.625234 0.614579 0.000000
0.628972 0.617850 0.000000
0.632710 0.621121 0.000000
0.636449 0.624393 0.000000
0.640187 0.627664 0.000000
0.643925 0.630935 0.000000
0.647664 0.634206 0.000000
0.651402 0.637477 0.000000
0.655140 0.640748 0.000000
0.658879 0.644019 0.000000
0.662617 0.647290 0.000000
0.666355 0.650561 0.000000
0.670093 0.653832 0.000000
0.673832 0.657103 0.000000
0.677570 0.660374 0.000000
0.681308 0.663645 0.000000
0.685047 0.666916 0.000000
0.688785 0.670187 0.000000
0.692523 0.673458 0.000000
0.696262 0.676729 0.000000
0.004545 0.201970 0.000000
0.009091 0.203939 0.000000
0.013636 0.205909 0.000000
0.018182 0.207879 0.000000
0.022727 0.209848 0.000000
0.027273 0.211818 0.000000
0.031818 0.213788 0.000000
0.036364 0.215758 0.000000
0.040909 0.217727 0.000000
0.045455 0.219697 0.000000
0.050000 0.221667 0.000000
0.054545 0.223636 0.000000
0.059091 0.225606 0.000000
0.063636 0.227576 0.000000
0.068182 0.229545 0.000000
0.072727 0.231515 0.000000
0.077273 0.233485 0.000000
0.081818 0.235455 0.000000
0.086364 0.237424 0.000000
0.090909 0.239394 0.000000
0.095455 0.241364 0.000000
0.100000 0.243333 0.000000
0.104545 0.245303 0.000000
0.109091 0.247273 0.000000
0.113636 0.249242 0.000000
0.118182 0.251212 0.000000
0.122727 0.253182 0.000000
0.127273 0.255152 0.000000
0.131818 0.257121 0.000000
0.136364 0.259091 0.000000
0.140909 0.261061 0.000000
0.145455 0.263030 0.000000
0.150000 0.265000 0.000000
0.154545 0.266970 0.000000
0.159091 0.268939 0.000000
0.163636 0.270909 0.000000
0.168182 0.272879 0.000000
0.172727 0.274848 0.000000
0.177273 0.276818 0.000000
0.181818 0.278788 0.000000
0.186364 0.280758 0.000000
0.190909 0.282727 0.000000
0.195455 0.284697 0.000000
0.200000 0.286667 0.000000
0.204545 0.288636 0.000000
0.209091 0.290606 0.000000
0.213636 0.292576 0.000000
0.218182 0.294545 0.000000
0.222727 0.296515 0.000000
0.227273 0.298485 0.000000
0.231818 0.300455 0.000000
0.236364 0.302424 0.000000
0.240909 0.304394 0.000000
0.245455 0.306364 0.000000
0.250000 0.308333 0.000000
0.254545 0.310303 0.000000
0.259091 0.312273 0.000000
0.263636 0.314242 0.000000
0.268182 0.316212 0.000000
0.272727 0.318182 0.000000
0.277273 0.320152 0.000000
0.281818 0.322121 0.000000
0.286364 0.324091 0.000000
0.290909 0.326061 0.000000
0.295455 0.328030 0.000000
0.704615 0.681846 0.000000
0.709231 0.683692 0.000000
0.713846 0.685538 0.000000
0.718462 0.687385 0.000000
0.723077 0.689231 0.000000
0.727692 0.691077 0.000000
0.732308 0.692923 0.000000
0.736923 0.694769 0.000000
0.741538 0.696615 0.000000
0.746154 0.698462 0.000000
0.750769 0.700308 0.000000
0.755385 0.702154 0.000000
0.760000 0.704000 0.000000
0.764615 0.705846 0.000000
0.769231 0.707692 0.000000
0.773846 0.709538 0.000000
0.778462 0.711385 0.000000
0.783077 0.713231 0.000000
0.787692 0.715077 0.000000
0.792308 0.716923 0.000000
0.796923 0.718769 0.000000
0.801538 0.720615 0.000000
0.806154 0.722462 0.000000
0.810769 0.724308 0.000000
0.815385 0.726154 0.000000
0.820000 0.728000 0.000000
0.824615 0.729846 0.000000
0.829231 0.731692 0.000000
0.833846 0.733538 0.000000
0.838462 0.735385 0.000000
0.843077 0.737231 0.000000
0.847692 0.739077 0.000000
0.852308 0.740923 0.000000
0.856923 0.742769 0.000000
0.861538 0.744615 0.000000
0.866154 0.746462 0.000000
0.870769 0.748308 0.000000
0.875385 0.750154 0.000000
0.880000 0.752000 0.000000
0.884615 0.753846 0.000000
0.889231 0.755692 0.000000
0.893846 0.757538 0.000000
0.898462 0.759385 0.000000
0.903077 0.761231 0.000000
0.907692 0.763077 0.000000
0.912308 0.764923 0.000000
0.916923 0.766769 0.000000
0.921538 0.768615 0.000000
0.926154 0.770462 0.000000
0.930769 0.772308 0.000000
[...]
POINT_DATA 6352
SCALARS UX float 1
LOOKUP_TABLE default
-0.000000
0.000000
0.411193
0.345454
-0.501199
-0.371138
-0.247619
0.198221
-0.000000
-0.000000
-0.000000
-0.000000
-0.000000
-0.000000
-0.000000
-0.000000
-0.000000
-0.000000
-0.000000
0.000000
0.000000
0.000000
0.000000
0.000000
0.000000
0.000000
-0.000000
0.136771
0.214695
0.272360
0.316820
0.352592
0.383454
0.409930
0.432883
0.453103
0.470545
0.485469
0.497980
0.508316
0.516410
0.522394
0.526233
0.528124
0.528253
0.526770
0.523940
0.519899
0.514955
0.509189
0.503074
0.496387
0.489616
0.482788
0.475990
0.469259
0.462841
0.456673
0.450768
0.445162
0.439873
0.434926
0.430262
0.425883
0.421794
0.418009
0.414474
0.407961
0.404031
0.399399
0.393773
0.387187
0.379967
0.371734
0.363110
0.354938
0.348410
0.295017
0.246757
0.200799
0.156377
0.115969
0.078145
0.042989
0.008799
-0.026319
-0.063478
-0.102757
-0.143899
-0.187139
-0.231180
-0.275755
-0.320890
-0.365837
-0.410668
-0.455683
-0.503198
-0.507182
-0.513745
-0.521864
-0.531360
-0.541270
-0.551332
-0.561092
-0.570145
-0.578320
-0.585158
-0.590290
-0.593937
-0.595611
-0.595341
-0.593834
-0.589944
-0.584599
-0.577923
-0.569662
-0.560531
-0.550682
-0.539985
-0.529006
-0.517809
-0.506503
-0.495255
-0.484133
-0.473249
-0.462621
-0.452429
-0.442551
-0.433075
-0.423986
-0.415306
-0.407026
-0.399114
-0.391584
-0.384411
-0.377604
-0.364564
-0.356438
-0.346272
-0.333576
-0.317724
-0.297664
-0.272361
-0.240148
-0.194661
-0.129500
-0.240585
-0.235425
-0.235048
-0.229801
-0.226090
-0.223337
-0.222459
-0.216979
-0.212446
-0.214816
-0.211060
-0.210441
-0.208877
-0.203235
-0.199926
-0.196930
-0.191016
-0.190481
-0.186309
-0.177356
-0.180931
-0.174596
-0.165765
-0.161504
-0.156344
-0.149635
-0.143878
-0.135703
-0.128710
-0.124825
-0.125136
-0.123087
-0.115829
-0.110336
-0.110031
-0.102500
-0.099425
-0.101430
-0.096188
-0.091245
-0.083340
-0.080925
-0.076376
-0.071350
-0.061350
-0.053965
-0.058790
-0.055528
-0.051221
-0.049708
-0.046288
-0.044703
-0.042399
-0.037591
-0.031371
-0.030660
-0.027107
-0.022506
-0.012445
-0.014437
-0.011401
-0.004457
0.002237
0.004084
0.011251
0.020277
0.023538
0.034148
0.036417
0.042453
0.045727
0.049919
0.049691
0.048380
0.051617
0.055388
0.058774
0.064630
0.068188
0.071904
0.067013
0.067929
0.071509
0.073654
0.070922
0.073004
0.079769
0.084469
0.090769
0.091255
0.095172
0.097087
0.102194
0.104473
0.107321
0.114040
0.117464
0.122088
0.130305
0.139623
0.149661
0.159511
0.169900
0.175849
0.184586
0.189637
-0.369576
-0.368021
-0.366478
-0.364928
-0.363380
-0.361829
-0.360263
-0.358696
-0.357125
-0.355550
-0.353959
-0.352361
-0.350766
-0.349163
-0.347541
-0.345916
-0.344294
-0.342668
-0.341036
-0.339390
-0.337743
-0.336092
-0.334425
-0.332758
-0.331085
-0.329405
-0.327722
-0.326038
-0.324364
-0.322676
-0.320994
-0.319319
-0.317627
-0.315954
-0.314276
-0.312605
-0.310934
-0.309270
-0.307624
-0.305989
-0.304376
-0.302794
-0.301220
-0.299649
-0.298135
-0.296690
-0.295288
-0.293924
-0.292600
-0.291418
-0.290403
-0.289007
-0.287627
-0.286406
-0.285252
-0.284315
-0.283376
-0.282105
-0.280989
-0.280269
-0.279201
-0.277931
-0.276536
-0.272388
-0.264911
0.219377
0.230661
0.237139
0.241830
0.244792
0.247139
0.249418
0.251869
0.253973
0.256140
0.258471
0.260684
0.262999
0.265484
0.267961
0.270194
0.272531
0.275012
0.277513
0.280081
0.282684
0.285353
0.288005
0.290744
0.293536
0.296328
0.299126
0.301950
0.304815
0.307693
0.310587
0.313457
0.316354
0.319256
0.322161
0.325075
0.327982
0.330904
0.333831
0.336740
0.339648
0.342578
0.345499
0.348415
0.351344
0.354257
0.357173
0.360086
0.363002
0.365928
0.368858
0.371783
0.374715
0.377667
0.380614
0.383577
0.386548
0.389536
0.392559
0.395576
0.398633
0.401711
0.404825
0.407979
0.281139
0.277476
0.286308
0.273128
0.014493
0.008267
0.018682
0.006135
-0.256615
-0.257760
-0.241266
-0.249535
-0.230367
-0.254382
-0.465198
-0.454434
-0.457246
-0.448588
-0.253832
-0.084546
-0.073575
-0.073013
-0.061306
0.118464
0.117280
0.135564
0.096575
-0.108568
-0.114948
-0.103336
0.023082
0.036718
0.020636
0.038870
0.392912
0.380289
0.401175
0.379728
-0.050512
-0.073108
-0.047276
-0.078245
-0.428225
-0.426868
-0.438798
-0.349610
-0.349799
-0.341688
-0.368183
-0.367610
-0.375329
0.309164
0.336798
0.319480
0.331258
0.077094
0.076154
0.088132
-0.044756
-0.062883
0.003596
0.407622
0.418963
0.419755
-0.083160
-0.101377
-0.101439
-0.326469
-0.296740
-0.276277
0.329886
0.333171
0.326311
-0.087109
-0.362501
-0.362704
-0.352211
-0.048077
-0.050445
-0.059836
-0.038491
0.258491
0.254615
0.253788
0.032249
0.020644
-0.009645
0.257157
0.316560
0.321177
0.314353
0.153312
0.138415
0.157999
0.319589
0.321714
0.312039
0.232906
0.228997
0.235814
0.115172
0.099592
0.112857
0.226811
-0.005388
0.007117
0.012504
0.142954
-0.355177
-0.359265
-0.359445
-0.001561
0.295840
0.289709
0.295522
-0.153174
-0.157714
-0.139357
0.360215
0.354464
0.355335
0.349506
0.354192
0.348680
-0.203150
-0.232951
-0.200157
-0.225584
-0.083450
-0.073155
-0.071912
0.292427
0.324081
-0.059632
-0.514408
-0.500483
-0.502572
-0.378306
-0.385371
-0.375852
0.138805
0.172348
0.180379
-0.490018
0.329659
0.325899
0.328479
0.324437
0.067265
0.078370
0.087327
0.197832
-0.278198
-0.283517
-0.279034
0.094095
0.088949
0.092634
0.085554
0.367129
0.362662
0.359296
0.105809
0.300789
0.287524
0.294996
-0.492082
-0.484250
-0.476037
0.357489
0.359810
0.355287
0.353858
-0.375618
-0.369697
-0.379542
-0.373557
-0.028298
-0.019971
-0.018733
0.354958
-0.304982
-0.321935
-0.271708
-0.027853
-0.272762
-0.270506
-0.292238
-0.237225
0.390300
0.407493
-0.298926
0.386668
-0.362661
-0.363186
-0.360712
-0.364733
-0.128677
-0.130237
-0.143651
0.122410
-0.284369
-0.229463
-0.319332
-0.316379
-0.320197
-0.315880
0.275521
0.275139
0.271747
0.272036
-0.363410
-0.358467
-0.114165
-0.340645
-0.337318
-0.340467
-0.336204
0.050820
0.048916
0.056738
0.372064
0.373986
0.365217
0.043692
0.380570
-0.217216
-0.199685
-0.184722
0.354976
0.352668
0.345897
-0.178475
-0.150671
-0.152032
-0.160888
0.361235
-0.159920
-0.336828
-0.341382
-0.332338
-0.149819
-0.141666
-0.142231
-0.334903
0.288786
0.288888
0.280309
0.226673
0.223357
0.228376
-0.143274
-0.150702
-0.130421
-0.192378
-0.179998
-0.183976
0.298234
0.301596
0.300105
0.301146
0.103631
0.092219
0.096163
0.223491
0.282749
0.200725
0.201425
0.195004
0.290695
0.302010
0.294476
0.306661
0.353502
0.355156
0.351026
0.352666
0.473829
0.465147
0.459900
-0.252592
-0.247131
-0.237826
-0.266276
0.449253
0.183722
0.193355
0.184848
-0.213841
-0.206813
-0.210121
0.305136
0.300460
0.305715
0.464575
0.482899
0.300451
-0.544135
-0.560814
-0.545557
0.409832
0.403068
0.403262
0.396373
-0.113092
-0.089513
0.309233
0.311261
0.308389
-0.169683
-0.164157
-0.178952
-0.168038
0.342656
-0.208048
0.331528
0.336510
-0.219580
-0.227773
-0.225311
-0.346494
-0.338446
-0.349304
-0.336937
-0.378223
-0.388384
-0.386450
-0.396624
-0.368305
-0.368381
-0.359170
-0.368743
-0.362582
-0.365192
-0.408042
-0.399507
-0.410975
-0.360126
0.074569
0.067638
0.067085
0.208228
0.206131
-0.416185
-0.413868
-0.410531
-0.421066
-0.371919
-0.374731
-0.373537
-0.377517
-0.307447
-0.312874
-0.312132
-0.317007
-0.460934
-0.461271
-0.470844
-0.359404
-0.454413
0.223731
0.216576
0.244909
-0.134646
-0.147282
-0.111223
-0.160295
0.378870
0.383397
0.377422
0.386672
-0.390149
-0.402111
0.285961
0.289020
0.273964
-0.312875
-0.313401
0.278808
0.363775
0.371196
0.371615
0.379113
0.356246
0.355753
0.348379
-0.315876
0.123164
0.110765
0.118047
0.100578
0.344326
0.334987
0.346285
-0.357562
-0.344309
-0.351059
-0.335001
0.401240
0.404065
0.409674
0.395104
-0.557057
-0.548892
-0.537563
-0.526183
-0.348747
-0.358766
0.223433
0.231253
0.213404
0.213634
-0.299432
-0.280027
-0.269079
-0.256100
0.340875
0.350284
0.356349
0.362625
0.349789
0.142988
0.157608
0.130640
0.389868
0.394202
0.401135
-0.026565
-0.039258
0.010600
0.323819
0.312846
0.325041
0.311467
0.384874
0.377089
0.373950
-0.028546
-0.019587
-0.362027
-0.363611
-0.356948
0.044955
0.043645
0.058399
0.295501
0.295065
-0.368739
-0.363215
-0.357090
-0.353714
-0.343304
-0.346039
-0.340367
0.396694
0.114119
0.095299
0.113494
0.414438
-0.290015
-0.296055
-0.293698
0.172385
0.168671
0.148954
-0.346595
0.038685
0.014888
0.150794
-0.300671
-0.349280
-0.354479
-0.355306
-0.032476
-0.037608
-0.057717
0.318150
0.321370
0.313036
-0.194561
-0.183262
-0.328282
-0.323056
0.076089
0.087642
0.062476
-0.329138
0.055252
0.070147
0.072538
0.087210
-0.378497
-0.375422
-0.372626
-0.381265
-0.307328
-0.317762
-0.317239
-0.330146
-0.259628
-0.265924
-0.274743
0.307849
0.316241
0.317049
-0.012881
-0.024885
-0.011646
-0.411351
-0.419018
-0.243060
0.313889
-0.318536
-0.317394
-0.328189
-0.306998
-0.576936
-0.566247
-0.557495
-0.553860
0.030003
0.043184
0.027679
-0.253035
-0.238357
-0.252560
-0.236179
-0.420945
-0.398721
-0.397055
0.279217
0.288334
0.285239
-0.266643
-0.255433
-0.363634
-0.363029
-0.368434
0.212543
0.229499
0.230614
-0.366232
-0.265893
-0.281729
-0.279329
0.336585
0.343977
0.343988
0.150854
0.130879
0.208695
-0.270441
-0.275124
-0.270516
-0.337388
-0.348804
-0.343898
-0.337291
-0.344078
-0.335174
-0.344922
-0.348179
-0.336905
0.027889
0.043345
0.036077
0.023970
0.036775
0.040337
-0.287733
-0.340787
-0.387906
-0.384260
-0.386009
-0.013117
-0.014098
-0.026301
-0.000102
-0.020089
-0.005800
-0.015742
0.002937
-0.381921
-0.379958
-0.375592
-0.375218
0.092231
0.119169
0.071495
0.344865
0.340370
0.351859
0.336747
-0.358313
-0.361534
-0.358539
-0.299965
-0.284290
-0.298352
-0.361030
-0.315278
-0.325963
-0.324112
0.379943
0.355368
0.374983
0.352737
-0.371063
-0.370642
-0.375204
0.354841
0.357595
0.362755
0.300341
0.303863
0.301827
0.302228
-0.468397
-0.459545
-0.451807
-0.343505
-0.344406
-0.351706
-0.351737
0.347029
0.345947
0.351916
-0.103428
-0.102765
-0.111591
0.259490
0.258138
0.267363
0.265912
0.265726
0.257773
0.260680
-0.038110
-0.025732
-0.026394
0.031360
0.044386
0.040131
-0.038585
-0.382304
-0.388411
-0.379594
0.050913
0.039688
0.050415
-0.102242
-0.096003
-0.396964
-0.396043
-0.391404
0.393071
0.399026
0.392606
-0.388845
-0.094970
0.281484
0.264202
0.272178
-0.326221
-0.331456
-0.337912
-0.264047
-0.270689
-0.322540
-0.322699
-0.330389
0.324672
0.333223
0.332655
-0.363972
-0.361659
-0.373456
-0.372312
-0.364822
-0.364186
-0.360875
-0.365924
-0.094454
-0.105519
-0.106398
-0.096635
0.308240
0.308700
0.317311
0.300304
0.316958
0.325972
0.361328
0.368626
0.369997
0.460915
0.471814
0.467452
0.379169
0.316021
0.316019
0.322804
0.324689
0.322170
-0.281347
-0.279903
0.275046
-0.052173
-0.049060
-0.059335
-0.063990
-0.311116
-0.325016
-0.322743
-0.264390
0.332339
0.333362
0.327462
0.327375
-0.383304
-0.383804
-0.370498
0.003269
0.012459
0.013906
0.189031
0.194891
0.207489
0.157977
-0.306345
-0.278922
-0.300283
0.377389
0.368094
0.369650
0.249703
0.250770
0.234067
-0.246750
-0.346157
-0.327365
-0.334103
0.353984
0.365033
0.362897
-0.339687
-0.059299
-0.339097
-0.347472
-0.334789
-0.350243
0.019589
0.002683
0.356027
0.366131
-0.486371
-0.479019
-0.008799
0.002836
0.001647
0.015887
-0.075260
-0.087235
-0.088275
0.013399
0.026866
0.028600
0.273397
0.288712
0.282543
0.012376
-0.259574
-0.270629
-0.255290
0.393576
0.399469
0.403232
0.087521
0.100159
0.101429
-0.254602
-0.229798
-0.230154
-0.366843
-0.364469
-0.360718
0.277071
0.275406
0.286835
0.359063
0.366504
0.367532
0.376362
0.265500
-0.368737
-0.372260
-0.374779
-0.147747
-0.159384
-0.151456
0.325979
0.332137
0.327186
0.336260
0.319425
0.320502
0.310715
-0.294074
-0.308458
-0.305444
0.211633
-0.478201
-0.463670
-0.475430
-0.372430
-0.277155
-0.276147
-0.265108
-0.343907
-0.335664
-0.348986
-0.263372
0.331721
0.344063
-0.150508
-0.179035
-0.172698
-0.193052
-0.204791
-0.214736
-0.297163
-0.307844
-0.308898
-0.316206
-0.225124
0.219668
0.224321
0.227880
-0.430714
-0.438818
-0.435183
-0.328399
-0.329527
-0.318613
-0.360821
-0.363651
-0.363761
-0.366770
0.337139
0.409555
0.395243
0.410015
0.400519
-0.322010
-0.324649
-0.330394
0.406291
-0.339588
-0.334673
-0.047489
-0.036574
0.290372
0.292264
0.288012
0.310333
0.311093
0.317354
0.289370
0.324783
0.323232
-0.380925
-0.390957
-0.389311
-0.398764
-0.253568
-0.250044
-0.255869
0.121690
0.110382
0.099735
0.227588
0.221724
0.242065
-0.129053
-0.114256
-0.117891
-0.126307
0.227415
0.344695
0.345142
0.340985
0.070755
0.065707
0.077438
-0.126536
-0.123026
-0.151648
-0.382116
-0.389041
-0.379431
-0.261839
-0.386447
0.341860
-0.083931
-0.082737
-0.071143
0.070089
0.081517
0.079946
-0.214341
-0.204675
-0.190267
-0.181873
-0.376438
-0.383359
0.290383
0.302305
0.298463
0.259202
0.257256
0.288830
0.282544
-0.382987
-0.393183
-0.392026
-0.404489
0.301678
0.305253
0.306319
0.301628
-0.353894
-0.321501
-0.336059
0.302719
0.304745
0.310274
-0.351206
0.320618
0.314926
0.316696
0.328838
-0.315247
-0.317953
-0.314012
-0.313678
-0.315564
-0.323877
-0.334455
-0.329809
-0.346106
-0.350266
-0.357475
-0.341055
0.207422
0.212075
0.206868
0.341190
0.342261
0.349085
-0.289428
-0.292102
-0.284599
0.336470
-0.279833
-0.276826
-0.284272
-0.344404
-0.353254
-0.346531
0.389299
0.386171
-0.366077
-0.372285
-0.356591
-0.363957
0.075398
0.067004
0.062388
-0.357091
0.203492
0.208080
0.211630
0.134545
0.112772
0.118260
0.069421
0.068783
0.079132
-0.416753
-0.407556
-0.405575
0.092345
0.382424
0.389867
0.381125
0.060158
0.055852
0.040802
-0.076344
-0.086090
-0.089264
-0.075602
0.027672
0.015880
-0.282525
-0.281370
-0.275989
-0.032265
-0.026615
-0.020239
0.278164
0.285259
-0.113544
-0.123487
-0.134554
-0.016130
-0.273859
0.004773
0.013352
-0.317259
-0.327127
-0.322364
-0.330268
-0.400547
-0.422727
-0.426170
-0.396312
-0.278094
-0.288611
-0.278710
0.107230
0.102477
0.117792
-0.286615
-0.277369
-0.353105
-0.358661
-0.264216
0.267440
0.265164
0.262458
0.270610
0.181292
0.168173
0.167879
0.180240
0.154387
0.171168
0.155764
-0.383747
-0.395200
-0.392008
0.397638
0.395793
0.280010
0.284856
0.290577
0.295639
-0.383683
-0.375312
-0.367300
-0.368637
-0.367641
-0.359367
-0.359327
-0.329265
-0.324431
-0.328726
-0.322984
-0.287333
-0.269547
-0.299274
-0.299640
-0.313603
0.242178
0.236766
0.247532
0.242652
-0.438694
-0.417932
-0.431356
0.242288
0.234010
0.390412
0.235303
-0.449268
-0.460003
-0.455333
0.392293
0.269447
0.230209
0.241868
-0.466992
0.239360
-0.403436
-0.348832
-0.076729
-0.069311
-0.062945
-0.351818
-0.319298
-0.323182
-0.323917
-0.327536
-0.286284
-0.282609
-0.296365
-0.284862
0.373352
0.371300
0.377661
0.372374
-0.311460
-0.317218
-0.312253
-0.318946
0.289467
0.291623
0.302223
0.300116
-0.305124
-0.307266
-0.365377
-0.362255
0.274272
0.268628
0.275011
0.269505
0.272498
0.263974
-0.333745
-0.334667
-0.159162
-0.152398
-0.165024
-0.151726
0.272259
-0.276145
-0.284657
-0.292712
-0.256068
-0.021775
-0.013408
-0.013502
0.249334
0.234891
-0.006058
-0.253159
-0.254292
-0.244177
-0.247751
-0.091309
-0.100979
-0.022203
-0.034702
0.223793
0.216899
-0.038111
-0.334085
-0.317832
-0.324298
-0.296361
0.300352
0.310607
0.308414
0.318706
0.168779
0.185341
0.271976
0.271658
0.283252
-0.329930
-0.319777
-0.320161
0.358065
0.357066
0.364875
0.201420
0.203117
0.365307
0.283512
0.277108
0.298564
0.011334
0.012846
0.023099
0.218331
-0.292215
-0.297950
0.222454
0.233389
0.239268
0.310364
0.305537
0.313019
-0.443536
-0.447772
0.304576
-0.393371
-0.399677
-0.391931
0.340094
0.329933
0.179590
0.163671
0.192478
-0.352558
-0.351208
-0.354569
-0.352840
-0.378168
-0.375039
-0.190005
-0.188060
-0.214621
-0.319921
-0.323276
-0.330209
-0.332962
-0.269009
-0.268689
0.092854
0.105174
0.088902
0.293685
0.296728
0.242283
0.250562
0.238592
0.293851
0.296425
0.291822
0.294055
-0.098713
-0.082294
-0.076384
-0.296408
-0.311246
-0.305550
-0.325674
-0.282079
-0.288686
-0.270318
0.264670
0.272828
0.275426
0.266442
0.465103
0.453725
0.459465
-0.324289
-0.327869
-0.326942
-0.167534
-0.185127
-0.172727
-0.326472
-0.279847
-0.266681
-0.274530
-0.273659
-0.082504
-0.071687
-0.070498
-0.294457
-0.310509
-0.441063
-0.432024
-0.437352
0.337984
0.334762
0.344463
-0.308358
0.355134
-0.317403
-0.316046
0.247532
0.258107
0.251906
0.255412
0.258916
0.237920
0.251947
0.442726
0.432238
0.434828
0.425403
0.398329
0.404038
0.404055
-0.376848
-0.377739
-0.381022
0.410002
-0.381113
-0.371715
-0.369723
-0.282058
-0.266357
-0.293302
-0.221449
-0.195992
-0.205234
0.386434
0.386252
0.380872
0.377233
-0.218557
0.249016
0.244244
0.277105
0.233500
0.229023
0.233949
0.228372
-0.225752
-0.229996
-0.220884
-0.234382
-0.274250
-0.267497
-0.264097
0.177024
0.173306
0.165284
0.162906
-0.332269
-0.336221
-0.334932
0.427276
-0.339471
0.417785
-0.328873
-0.322104
-0.229778
-0.217826
0.013034
-0.002381
-0.192256
-0.187084
-0.174213
0.090073
0.083538
-0.382168
-0.390509
-0.388766
-0.398953
0.077612
0.089576
0.082345
0.112094
0.112186
0.119676
0.257603
0.261718
0.248432
0.273265
-0.183818
-0.234136
-0.086352
-0.102380
-0.091096
-0.104216
0.051398
0.059312
0.076217
0.072001
0.068665
0.064814
0.197034
0.203956
0.207609
0.071652
0.042505
0.041887
0.194948
-0.060533
-0.071572
-0.057924
-0.068711
0.215929
0.211595
0.179467
0.221926
-0.338778
-0.325470
-0.329990
-0.313905
-0.459122
-0.462194
-0.474997
-0.450241
0.066589
0.303234
0.299988
0.300506
0.297188
-0.450647
-0.444226
0.296756
-0.430117
-0.302926
-0.301981
-0.307619
-0.305510
-0.269213
-0.260887
-0.275717
0.249439
-0.055333
-0.056099
-0.069721
-0.252387
-0.245978
0.263253
0.259598
0.261135
-0.286151
-0.290571
0.351923
0.341490
0.345743
0.445103
0.435848
-0.295850
-0.279868
-0.451755
-0.446382
-0.233791
-0.230536
-0.237141
-0.225994
-0.002753
-0.013019
-0.000297
-0.013669
-0.274763
-0.238652
-0.242742
0.062074
-0.244705
-0.307000
-0.300680
-0.300911
-0.000935
-0.013091
-0.130409
-0.116914
-0.125868
-0.111066
0.262515
0.267099
0.260811
0.268445
0.306934
0.310320
0.312473
0.305659
-0.113417
-0.121162
-0.126917
0.162590
0.157624
0.167496
-0.063742
-0.079867
0.154122
-0.247658
-0.245800
-0.446958
-0.421587
-0.240073
-0.252196
-0.437555
-0.251096
0.488510
0.502001
0.495269
0.432071
0.273818
0.282715
0.289295
-0.340818
-0.326565
-0.336662
-0.164288
-0.165266
-0.171357
-0.170589
0.400624
0.303619
0.307763
0.309183
-0.361644
-0.432111
-0.429020
-0.425001
-0.436695
0.335135
0.338931
-0.439976
-0.445514
-0.439342
-0.142440
0.327184
0.331015
0.336333
0.375536
0.366315
0.372112
0.330571
-0.221855
-0.229012
-0.225706
-0.226540
-0.160828
-0.154699
-0.158999
-0.396925
-0.406534
0.441981
0.433784
0.422633
-0.251186
-0.242085
-0.230511
0.451566
0.458476
0.450713
0.014143
0.002194
-0.219352
-0.151401
-0.171850
-0.162340
-0.144792
0.274909
0.256264
0.281692
-0.047813
-0.068957
-0.098852
0.085150
0.093433
0.088567
-0.178776
-0.169254
-0.167543
0.104509
0.096615
0.108282
0.099802
0.068613
0.080522
-0.159087
-0.159724
-0.143024
-0.144135
-0.480639
-0.495602
-0.471894
-0.509331
-0.318891
-0.328874
-0.322132
-0.471276
-0.303819
0.203689
0.199803
0.207060
0.199182
0.298650
0.460681
0.449012
0.295439
0.391618
0.396689
0.091295
0.101899
0.297800
-0.140418
0.292616
0.250327
0.247544
0.252150
0.386179
0.386539
0.342978
0.332695
0.373742
0.365842
0.406511
0.415345
0.250594
0.375342
0.255488
0.251819
0.150532
0.146740
0.154242
-0.508609
-0.507844
-0.517227
-0.498603
0.142624
0.300152
0.296975
0.287520
0.292539
0.304590
-0.289834
-0.295255
-0.443052
-0.431532
-0.284379
-0.385348
-0.337521
0.286019
0.287020
0.288984
0.283624
0.291544
0.424319
0.432932
0.082161
0.083535
0.289888
0.282294
0.288839
0.280777
0.286212
-0.333039
-0.314607
-0.152243
-0.153083
-0.329019
-0.326805
-0.357201
-0.393291
-0.175653
-0.162913
-0.391457
-0.388152
-0.396877
-0.385782
0.039154
0.044725
-0.325308
-0.315950
-0.317391
-0.338890
-0.336101
-0.082201
-0.154259
-0.333085
-0.330430
-0.340542
-0.342687
0.300028
0.307684
-0.343267
0.282972
0.283253
0.286380
0.276409
-0.247285
0.398448
-0.372225
-0.378453
-0.250500
-0.245798
-0.234294
0.066987
0.080766
0.081050
-0.364114
-0.365677
-0.002055
0.003293
0.009828
0.347855
0.348645
0.343255
0.345447
0.302135
0.305062
0.301229
0.306013
0.297711
0.287809
0.283686
-0.337624
-0.336089
0.240714
0.241166
0.245341
-0.019746
-0.001496
-0.015723
-0.008772
0.237026
-0.438173
-0.451140
0.453049
0.459813
-0.350120
-0.340943
-0.493382
-0.482323
-0.479015
0.321766