# vtk DataFile Version 2.0
Test
ASCII
DATASET POLYDATA
POINTS 6352 float
0.000000 0.000000 0.000000
1.000000 0.000000 0.000000
1.000000 0.800000 0.000000
1.000000 1.000000 0.000000
0.000000 1.000000 0.000000
0.000000 0.200000 0.000000
0.300000 0.330000 0.000000
0.700000 0.680000 0.000000
0.050000 0.000000 0.000000
0.100000 0.000000 0.000000
0.150000 0.000000 0.000000
0.200000 0.000000 0.000000
0.250000 0.000000 0.000000
0.300000 0.000000 0.000000
0.350000 0.000000 0.000000
0.400000 0.000000 0.000000
0.450000 0.000000 0.000000
0.500000 0.000000 0.000000
0.550000 0.000000 0.000000
0.600000 0.000000 0.000000
0.650000 0.000000 0.000000
0.700000 0.000000 0.000000
0.750000 0.000000 0.000000
0.800000 0.000000 0.000000
0.850000 0.000000 0.000000
0.900000 0.000000 0.000000
0.950000 0.000000 0.000000
1.000000 0.048545 0.000000
1.000000 0.094438 0.000000
1.000000 0.137825 0.000000
1.000000 0.178843 0.000000
1.000000 0.217620 0.000000
1.000000 0.254280 0.000000
1.000000 0.288938 0.000000
1.000000 0.321703 0.000000
1.000000 0.352678 0.000000
1.000000 0.381962 0.000000
1.000000 0.409647 0.000000
1.000000 0.435820 0.000000
1.000000 0.460563 0.000000
1.000000 0.483955 0.000000
1.000000 0.506070 0.000000
1.000000 0.526976 0.000000
1.000000 0.546741 0.000000
1.000000 0.565427 0.000000
1.000000 0.583092 0.000000
1.000000 0.599793 0.000000
1.000000 0.615581 0.000000
1.000000 0.630507 0.000000
1.000000 0.644618 0.000000
1.000000 0.657958 0.000000
1.000000 0.670570 0.000000
1.000000 0.682493 0.000000
1.000000 0.693765 0.000000
1.000000 0.704421 0.000000
1.000000 0.714495 0.000000
1.000000 0.724019 0.000000
1.000000 0.733023 0.000000
1.000000 0.741536 0.000000
1.000000 0.749583 0.000000
1.000000 0.757191 0.000000
1.000000 0.764383 0.000000
1.000000 0.771183 0.000000
1.000000 0.777611 0.000000
1.000000 0.783688 0.000000
1.000000 0.789434 0.000000
1.000000 0.794865 0.000000
1.000000 0.805174 0.000000
1.000000 0.811554 0.000000
1.000000 0.819418 0.000000
1.000000 0.829114 0.000000
1.000000 0.841067 0.000000
1.000000 0.855804 0.000000
1.000000 0.873972 0.000000
1.000000 0.896371 0.000000
1.000000 0.923985 0.000000
1.000000 0.958029 0.000000
0.950000 1.000000 0.000000
0.900000 1.000000 0.000000
0.850000 1.000000 0.000000
0.800000 1.000000 0.000000
0.750000 1.000000 0.000000
0.700000 1.000000 0.000000
0.650000 1.000000 0.000000
0.600000 1.000000 0.000000
0.550000 1.000000 0.000000
0.500000 1.000000 0.000000
0.450000 1.000000 0.000000
0.400000 1.000000 0.000000
0.350000 1.000000 0.000000
0.300000 1.000000 0.000000
0.250000 1.000000 0.000000
0.200000 1.000000 0.000000
0.150000 1.000000 0.000000
0.100000 1.000000 0.000000
0.050000 1.000000 0.000000
0.000000 0.951455 0.000000
0.000000 0.905562 0.000000
0.000000 0.862175 0.000000
0.000000 0.821157 0.000000
0.000000 0.782380 0.000000
0.000000 0.745720 0.000000
0.000000 0.711062 0.000000
0.000000 0.678297 0.000000
0.000000 0.647322 0.000000
0.000000 0.618038 0.000000
0.000000 0.590353 0.000000
0.000000 0.564180 0.000000
0.000000 0.539437 0.000000
0.000000 0.516045 0.000000
0.000000 0.493930 0.000000
0.000000 0.473024 0.000000
0.000000 0.453259 0.000000
0.000000 0.434573 0.000000
0.000000 0.416908 0.000000
0.000000 0.400207 0.000000
0.000000 0.384419 0.000000
0.000000 0.369493 0.000000
0.000000 0.355382 0.000000
0.000000 0.342042 0.000000
0.000000 0.329430 0.000000
0.000000 0.317507 0.000000
0.000000 0.306235 0.000000
0.000000 0.295579 0.000000
0.000000 0.285505 0.000000
0.000000 0.275981 0.000000
0.000000 0.266977 0.000000
0.000000 0.258464 0.000000
0.000000 0.250417 0.000000
0.000000 0.242809 0.000000
0.000000 0.235617 0.000000
0.000000 0.228817 0.000000
0.000000 0.222389 0.000000
0.000000 0.216312 0.000000
0.000000 0.210566 0.000000
0.000000 0.205135 0.000000
0.000000 0.194826 0.000000
0.000000 0.188446 0.000000
0.000000 0.180582 0.000000
0.000000 0.170886 0.000000
0.000000 0.158933 0.000000
0.000000 0.144196 0.000000
0.000000 0.126028 0.000000
0.000000 0.103629 0.000000
0.000000 0.076015 0.000000
0.000000 0.041971 0.000000
0.303738 0.333271 0.000000
0.307477 0.336542 0.000000
0.311215 0.339813 0.000000
0.314953 0.343084 0.000000
0.318692 0.346355 0.000000
0.322430 0.349626 0.000000
0.326168 0.352897 0.000000
0.329907 0.356168 0.000000
0.333645 0.359439 0.000000
0.337383 0.362710 0.000000
0.341121 0.365981 0.000000
0.344860 0.369252 0.000000
0.348598 0.372523 0.000000
0.352336 0.375794 0.000000
0.356075 0.379065 0.000000
0.359813 0.382336 0.000000
0.363551 0.385607 0.000000
0.367290 0.388879 0.000000
0.371028 0.392150 0.000000
0.374766 0.395421 0.000000
0.378505 0.398692 0.000000
0.382243 0.401963 0.000000
0.385981 0.405234 0.000000
0.389720 0.408505 0.000000
0.393458 0.411776 0.000000
0.397196 0.415047 0.000000
0.400935 0.418318 0.000000
0.404673 0.421589 0.000000
0.408411 0.424860 0.000000
0.412150 0.428131 0.000000
0.415888 0.431402 0.000000
0.419626 0.434673 0.000000
0.423364 0.437944 0.000000
0.427103 0.441215 0.000000
0.430841 0.444486 0.000000
0.434579 0.447757 0.000000
0.438318 0.451028 0.000000
0.442056 0.454299 0.000000
0.445794 0.457570 0.000000
0.449533 0.460841 0.000000
0.453271 0.464112 0.000000
0.457009 0.467383 0.000000
0.460748 0.470654 0.000000
0.464486 0.473925 0.000000
0.468224 0.477196 0.000000
0.471963 0.480467 0.000000
0.475701 0.483738 0.000000
0.479439 0.487009 0.000000
0.483178 0.490280 0.000000
0.486916 0.493551 0.000000
0.490654 0.496822 0.000000
0.494393 0.500093 0.000000
0.498131 0.503364 0.000000
0.501869 0.506636 0.000000
0.505607 0.509907 0.000000
0.509346 0.513178 0.000000
0.513084 0.516449 0.000000
0.516822 0.519720 0.000000
0.520561 0.522991 0.000000
0.524299 0.526262 0.000000
0.528037 0.529533 0.000000
0.531776 0.532804 0.000000
0.535514 0.536075 0.000000
0.539252 0.539346 0.000000
0.542991 0.542617 0.000000
0.546729 0.545888 0.000000
0.550467 0.549159 0.000000
0.554206 0.552430 0.000000
0.557944 0.555701 0.000000
0.561682 0.558972 0.000000
0.565421 0.562243 0.000000
0.569159 0.565514 0.000000
0.572897 0.568785 0.000000
0.576636 0.572056 0.000000
0.580374 0.575327 0.000000
0.584112 0.578598 0.000000
0.587850 0.581869 0.000000
0.591589 0.585140 0.000000
0.595327 0.588411 0.000000
0.599065 0.591682 0.000000
0.602804 0.594953 0.000000
0.606542 0.598224 0.000000
0.610280 0.601495 0.000000
0.614019 0.604766 0.000000
0.617757 0.608037 0.000000
0.621495 0.611308 0.000000
0.625234 0.614579 0.000000
0.628972 0.617850 0.000000
0.632710 0.621121 0.000000
0.636449 0.624393 0.000000
0.640187 0.627664 0.000000
0.643925 0.630935 0.000000
0.647664 0.634206 0.000000
0.651402 0.637477 0.000000
0.655140 0.640748 0.000000
0.658879 0.644019 0.000000
0.662617 0.647290 0.000000
0.666355 0.650561 0.000000
0.670093 0.653832 0.000000
0.673832 0.657103 0.000000
0.677570 0.660374 0.000000
0.681308 0.663645 0.000000
0.685047 0.666916 0.000000
0.688785 0.670187 0.000000
0.692523 0.673458 0.000000
0.696262 0.676729 0.000000
0.004545 0.201970 0.000000
0.009091 0.203939 0.000000
0.013636 0.205909 0.000000
0.018182 0.207879 0.000000
0.022727 0.209848 0.000000
0.027273 0.211818 0.000000
0.031818 0.213788 0.000000
0.036364 0.215758 0.000000
0.040909 0.217727 0.000000
0.045455 0.219697 0.000000
0.050000 0.221667 0.000000
0.054545 0.223636 0.000000
0.059091 0.225606 0.000000
0.063636 0.227576 0.000000
0.068182 0.229545 0.000000
0.072727 0.231515 0.000000
0.077273 0.233485 0.000000
0.081818 0.235455 0.000000
0.086364 0.237424 0.000000
0.090909 0.239394 0.000000
0.095455 0.241364 0.000000
0.100000 0.243333 0.000000
0.104545 0.245303 0.000000
0.109091 0.247273 0.000000
0.113636 0.249242 0.000000
0.118182 0.251212 0.000000
0.122727 0.253182 0.000000
0.127273 0.255152 0.000000
0.131818 0.257121 0.000000
0.136364 0.259091 0.000000
0.140909 0.261061 0.000000
0.145455 0.263030 0.000000
0.150000 0.265000 0.000000
0.154545 0.266970 0.000000
0.159091 0.268939 0.000000
0.163636 0.270909 0.000000
0.168182 0.272879 0.000000
0.172727 0.274848 0.000000
0.177273 0.276818 0.000000
0.181818 0.278788 0.000000
0.186364 0.280758 0.000000
0.190909 0.282727 0.000000
0.195455 0.284697 0.000000
0.200000 0.286667 0.000000
0.204545 0.288636 0.000000
0.209091 0.290606 0.000000
0.213636 0.292576 0.000000
0.218182 0.294545 0.000000
0.222727 0.296515 0.000000
0.227273 0.298485 0.000000
0.231818 0.300455 0.000000
0.236364 0.302424 0.000000
0.240909 0.304394 0.000000
0.245455 0.306364 0.000000
0.250000 0.308333 0.000000
0.254545 0.310303 0.000000
0.259091 0.312273 0.000000
0.263636 0.314242 0.000000
0.268182 0.316212 0.000000
0.272727 0.318182 0.000000
0.277273 0.320152 0.000000
0.281818 0.322121 0.000000
0.286364 0.324091 0.000000
0.290909 0.326061 0.000000
0.295455 0.328030 0.000000
0.704615 0.681846 0.000000
0.709231 0.683692 0.000000
0.713846 0.685538 0.000000
0.718462 0.687385 0.000000
0.723077 0.689231 0.000000
0.727692 0.691077 0.000000
0.732308 0.692923 0.000000
0.736923 0.694769 0.000000
0.741538 0.696615 0.000000
0.746154 0.698462 0.000000
0.750769 0.700308 0.000000
0.755385 0.702154 0.000000
0.760000 0.704000 0.000000
0.764615 0.705846 0.000000
0.769231 0.707692 0.000000
0.773846 0.709538 0.000000
0.778462 0.711385 0.000000
0.783077 0.713231 0.000000
0.787692 0.715077 0.000000
0.792308 0.716923 0.000000
0.796923 0.718769 0.000000
0.801538 0.720615 0.000000
0.806154 0.722462 0.000000
0.810769 0.724308 0.000000
0.815385 0.726154 0.000000
0.820000 0.728000 0.000000
0.824615 0.729846 0.000000
0.829231 0.731692 0.000000
0.833846 0.733538 0.000000
0.838462 0.735385 0.000000
0.843077 0.737231 0.000000
0.847692 0.739077 0.000000
0.852308 0.740923 0.000000
0.856923 0.742769 0.000000
0.861538 0.744615 0.000000
0.866154 0.746462 0.000000
0.870769 0.748308 0.000000
0.875385 0.750154 0.000000
0.880000 0.752000 0.000000
0.884615 0.753846 0.000000
0.889231 0.755692 0.000000
0.893846 0.757538 0.000000
0.898462 0.759385 0.000000
0.903077 0.761231 0.000000
0.907692 0.763077 0.000000
0.912308 0.764923 0.000000
0.916923 0.766769 0.000000
0.921538 0.768615 0.000000
0.926154 0.770462 0.000000
0.930769 0.772308 0.000000
[...]
POINT_DATA 6352
SCALARS UX float 1
LOOKUP_TABLE default
-0.000000
0.000000
0.106119
0.089570
-0.128680
-0.095317
-0.063353
0.051524
-0.000000
-0.000000
-0.000000
-0.000000
-0.000000
-0.000000
-0.000000
-0.000000
-0.000000
-0.000000
-0.000000
0.000000
0.000000
0.000000
0.000000
0.000000
0.000000
0.000000
-0.000000
0.035236
0.055309
0.070158
0.081600
0.090799
0.098731
0.105530
0.111420
0.116603
0.121071
0.124889
0.128086
0.130724
0.132785
0.134305
0.135275
0.135747
0.135770
0.135383
0.134654
0.133619
0.132356
0.130887
0.129332
0.127634
0.125916
0.124186
0.122466
0.120763
0.119141
0.117584
0.116093
0.114679
0.113345
0.112098
0.110922
0.109819
0.108789
0.107835
0.106945
0.105305
0.104316
0.103150
0.101734
0.100076
0.098258
0.096186
0.094016
0.091958
0.090315
0.076620
0.064216
0.052385
0.040935
0.030492
0.020702
0.011596
0.002745
-0.006332
-0.015923
-0.026054
-0.036659
-0.047800
-0.059147
-0.070630
-0.082255
-0.093830
-0.105374
-0.116964
-0.129189
-0.130202
-0.131872
-0.133937
-0.136352
-0.138871
-0.141428
-0.143906
-0.146201
-0.148271
-0.149998
-0.151288
-0.152198
-0.152604
-0.152514
-0.152109
-0.151099
-0.149719
-0.148003
-0.145886
-0.143550
-0.141034
-0.138305
-0.135507
-0.132655
-0.129777
-0.126914
-0.124084
-0.121316
-0.118612
-0.116019
-0.113506
-0.111095
-0.108782
-0.106572
-0.104464
-0.102448
-0.100530
-0.098702
-0.096966
-0.093640
-0.091566
-0.088971
-0.085727
-0.081674
-0.076539
-0.070056
-0.061792
-0.050102
-0.033334
-0.061225
-0.060428
-0.059591
-0.059426
-0.058165
-0.057741
-0.057409
-0.055669
-0.054726
-0.055457
-0.054507
-0.054406
-0.054034
-0.052584
-0.051750
-0.051004
-0.049492
-0.049381
-0.048342
-0.046042
-0.047101
-0.045553
-0.043373
-0.042457
-0.041331
-0.039938
-0.037296
-0.036051
-0.033518
-0.034761
-0.032748
-0.032277
-0.030481
-0.029073
-0.028991
-0.027087
-0.026357
-0.026979
-0.025535
-0.024487
-0.022163
-0.021519
-0.020386
-0.018976
-0.015696
-0.014448
-0.015262
-0.014322
-0.013130
-0.012664
-0.011750
-0.011256
-0.010629
-0.009369
-0.007747
-0.007540
-0.006611
-0.005407
-0.002811
-0.003283
-0.002469
-0.000642
0.001131
0.001612
0.003503
0.005944
0.006959
0.008863
0.011035
0.008852
0.010994
0.012232
0.012261
0.012093
0.013013
0.013945
0.014873
0.016362
0.017255
0.018098
0.017926
0.018162
0.019014
0.019511
0.018736
0.019192
0.020844
0.021984
0.023392
0.024043
0.024740
0.025447
0.026921
0.027735
0.028861
0.029420
0.031521
0.031568
0.033445
0.035936
0.038782
0.039980
0.043744
0.045378
0.046743
0.048897
-0.094911
-0.094507
-0.094106
-0.093702
-0.093299
-0.092895
-0.092487
-0.092079
-0.091669
-0.091258
-0.090843
-0.090427
-0.090011
-0.089593
-0.089169
-0.088746
-0.088323
-0.087898
-0.087473
-0.087043
-0.086613
-0.086183
-0.085748
-0.085313
-0.084876
-0.084438
-0.083998
-0.083558
-0.083121
-0.082680
-0.082240
-0.081802
-0.081359
-0.080920
-0.080481
-0.080042
-0.079603
-0.079166
-0.078732
-0.078301
-0.077874
-0.077455
-0.077036
-0.076617
-0.076211
-0.075820
-0.075438
-0.075064
-0.074696
-0.074363
-0.074069
-0.073764
-0.073484
-0.073270
-0.073055
-0.072844
-0.072640
-0.072355
-0.072115
-0.071983
-0.071765
-0.071495
-0.071183
-0.070123
-0.068106
0.057060
0.059966
0.061550
0.062665
0.063334
0.063862
0.064387
0.064967
0.065467
0.065989
0.066557
0.067052
0.067551
0.068112
0.068699
0.069298
0.069929
0.070598
0.071271
0.071957
0.072651
0.073359
0.074061
0.074784
0.075519
0.076253
0.076987
0.077727
0.078477
0.079229
0.079985
0.080734
0.081490
0.082246
0.083003
0.083762
0.084518
0.085279
0.086040
0.086796
0.087552
0.088314
0.089073
0.089830
0.090591
0.091348
0.092105
0.092862
0.093619
0.094378
0.095139
0.095898
0.096659
0.097425
0.098190
0.098959
0.099730
0.100505
0.101289
0.102072
0.102864
0.103662
0.104469
0.105287
0.072128
0.071201
0.073479
0.070068
0.003749
0.002147
0.004828
0.001595
-0.065903
-0.066208
-0.061990
-0.064076
-0.059174
-0.065300
-0.118974
-0.116200
-0.116940
-0.114708
-0.065149
-0.021742
-0.018923
-0.018777
-0.015765
0.031043
0.030709
0.035438
0.025391
-0.028096
-0.029719
-0.026758
0.006446
0.009953
0.005800
0.010502
0.101010
0.097776
0.103145
0.097618
-0.013049
-0.018873
-0.012220
-0.020187
-0.109493
-0.109124
-0.112196
-0.089739
-0.089795
-0.087719
-0.094114
-0.093943
-0.095919
0.079531
0.086635
0.082169
0.085227
0.019564
0.019341
0.022420
-0.012848
-0.015863
0.000368
0.104749
0.107671
0.107859
-0.020623
-0.025324
-0.025315
-0.080896
-0.074361
-0.071360
0.084943
0.085790
0.084046
-0.021681
-0.092568
-0.092639
-0.089951
-0.012604
-0.013276
-0.015667
-0.010186
0.066473
0.065483
0.065256
0.008786
0.005876
-0.001916
0.066150
0.081488
0.082866
0.081341
0.040005
0.036216
0.041217
0.082560
0.083032
0.080493
0.059760
0.058695
0.060478
0.030286
0.026275
0.029695
0.058183
-0.001492
0.001737
0.003089
0.037386
-0.090620
-0.091613
-0.091723
-0.000477
0.076033
0.074425
0.075888
-0.039401
-0.040577
-0.035859
0.092426
0.090941
0.091174
0.089667
0.090887
0.089466
-0.051897
-0.059560
-0.051104
-0.057638
-0.021493
-0.018825
-0.018536
0.074997
0.083462
-0.015356
-0.131665
-0.128076
-0.128638
-0.096726
-0.098484
-0.096069
0.035631
0.044162
0.046420
-0.125394
0.084944
0.083977
0.084605
0.083656
0.017770
0.020454
0.023174
0.050785
-0.070897
-0.072270
-0.071121
0.024074
0.022746
0.023686
0.021853
0.094307
0.093148
0.092290
0.027590
0.077425
0.074045
0.075974
-0.125947
-0.123960
-0.121842
0.091752
0.092346
0.091191
0.090809
-0.095883
-0.094367
-0.096891
-0.095364
-0.007439
-0.005312
-0.004981
0.091165
-0.078358
-0.082595
-0.070028
-0.007344
-0.070287
-0.067002
-0.075032
-0.060587
0.100358
0.104786
-0.075878
0.099438
-0.092764
-0.092906
-0.092267
-0.093298
-0.033071
-0.033477
-0.036908
0.031559
-0.072482
-0.058896
-0.081544
-0.080770
-0.081748
-0.080659
0.070874
0.070791
0.069903
0.069997
-0.092760
-0.091488
-0.029350
-0.087010
-0.086149
-0.086944
-0.085849
0.012971
0.012459
0.014437
0.095590
0.096076
0.093825
0.011138
0.097775
-0.055922
-0.051470
-0.047614
0.091098
0.090524
0.088769
-0.046061
-0.038087
-0.038428
-0.040717
0.092720
-0.040453
-0.085889
-0.087041
-0.084720
-0.037875
-0.035771
-0.035925
-0.085354
0.074086
0.074092
0.071893
0.058211
0.057374
0.058666
-0.036821
-0.038748
-0.033533
-0.048803
-0.045611
-0.046613
0.076768
0.077644
0.077275
0.077502
0.026493
0.023540
0.024499
0.057427
0.072497
0.051476
0.051670
0.050005
0.074736
0.077611
0.075647
0.078726
0.090832
0.091207
0.090221
0.090583
0.121804
0.119553
0.118224
-0.064778
-0.063409
-0.061032
-0.068271
0.115477
0.047158
0.049636
0.047454
-0.054355
-0.052559
-0.053399
0.078430
0.077187
0.078440
0.119442
0.124155
0.077241
-0.139350
-0.143637
-0.139688
0.105470
0.103756
0.103783
0.102033
-0.028627
-0.022528
0.079671
0.080218
0.079488
-0.042913
-0.041515
-0.045322
-0.042536
0.087959
-0.052875
0.085108
0.086362
-0.055802
-0.057908
-0.057279
-0.088606
-0.086591
-0.089357
-0.086144
-0.096788
-0.099373
-0.098895
-0.101489
-0.094267
-0.094269
-0.091929
-0.094310
-0.092618
-0.093334
-0.104341
-0.102142
-0.105072
-0.092014
0.018963
0.017111
0.016966
0.053421
0.052891
-0.106245
-0.105652
-0.104776
-0.107514
-0.095114
-0.095817
-0.095538
-0.096536
-0.078595
-0.079940
-0.079784
-0.080997
-0.117840
-0.117944
-0.120400
-0.091857
-0.116167
0.058280
0.056414
0.063694
-0.034057
-0.037567
-0.027327
-0.040770
0.097289
0.098441
0.096905
0.099294
-0.099733
-0.102787
0.073489
0.074262
0.070388
-0.079856
-0.080006
0.071623
0.093528
0.095412
0.095542
0.097449
0.091618
0.091474
0.089599
-0.080625
0.031519
0.028332
0.030224
0.025725
0.088479
0.086080
0.088992
-0.091657
-0.088238
-0.090075
-0.085808
0.103137
0.103839
0.105290
0.101552
-0.142808
-0.140681
-0.137794
-0.134850
-0.089264
-0.091809
0.057805
0.059828
0.055288
0.055378
-0.076554
-0.071537
-0.068747
-0.065378
0.087671
0.090061
0.091436
0.093060
0.089751
0.037451
0.041238
0.034280
0.100180
0.101301
0.103072
-0.005588
-0.009163
0.002408
0.083209
0.080389
0.083534
0.080024
0.098890
0.096898
0.096082
-0.007388
-0.005074
-0.092443
-0.092742
-0.091149
0.012212
0.011936
0.015712
0.075807
0.075715
-0.094222
-0.092770
-0.091292
-0.090349
-0.087739
-0.088462
-0.087004
0.102025
0.029995
0.025118
0.029808
0.106589
-0.073838
-0.075390
-0.074772
0.044607
0.043765
0.038706
-0.088578
0.009798
0.003503
0.039225
-0.076562
-0.088672
-0.090809
-0.090972
-0.008392
-0.009701
-0.014889
0.082001
0.082839
0.080716
-0.049313
-0.046364
-0.083663
-0.082337
0.020149
0.023152
0.016637
-0.083920
0.014754
0.018594
0.019193
0.022991
-0.096823
-0.096049
-0.095361
-0.097505
-0.078412
-0.081095
-0.080928
-0.084236
-0.065735
-0.067396
-0.069835
0.079129
0.081291
0.081473
-0.003299
-0.006389
-0.002990
-0.105015
-0.106989
-0.061319
0.080622
-0.081758
-0.081451
-0.084213
-0.078802
-0.147826
-0.145057
-0.142826
-0.141868
0.008204
0.011668
0.007659
-0.064471
-0.060702
-0.064370
-0.060161
-0.107759
-0.102033
-0.101637
0.071918
0.074225
0.073466
-0.067966
-0.065069
-0.092925
-0.092742
-0.094126
0.055189
0.059492
0.059811
-0.093484
-0.067750
-0.071755
-0.071153
0.086848
0.088717
0.088742
0.038946
0.033750
0.053931
-0.068887
-0.070097
-0.068919
-0.086436
-0.089325
-0.088051
-0.086353
-0.088093
-0.085828
-0.088391
-0.089105
-0.086250
0.006957
0.010926
0.009038
0.006896
0.010088
0.010177
-0.073404
-0.087211
-0.098976
-0.098042
-0.098508
-0.002864
-0.003070
-0.006184
0.000489
-0.004550
-0.000926
-0.003538
0.001358
-0.097494
-0.096970
-0.095849
-0.095729
0.024190
0.030942
0.019017
0.088462
0.087296
0.090259
0.086373
-0.091632
-0.092474
-0.091683
-0.076938
-0.072937
-0.076513
-0.092347
-0.080432
-0.083163
-0.082700
0.097766
0.091456
0.096508
0.090766
-0.094667
-0.094574
-0.095770
0.091592
0.092273
0.093606
0.077425
0.078325
0.077809
0.077890
-0.119756
-0.117470
-0.115481
-0.087615
-0.087869
-0.089737
-0.089769
0.089556
0.089259
0.090788
-0.025943
-0.025766
-0.028045
0.066556
0.066220
0.068593
0.068238
0.068154
0.066103
0.066838
-0.010022
-0.006839
-0.007000
0.007786
0.011140
0.010123
-0.010153
-0.098051
-0.099616
-0.097369
0.012908
0.010032
0.012798
-0.025643
-0.024033
-0.101288
-0.101093
-0.099920
0.101291
0.102817
0.101190
-0.099376
-0.023771
0.072768
0.068373
0.070369
-0.083731
-0.085059
-0.086719
-0.067235
-0.068937
-0.082589
-0.082615
-0.084584
0.083764
0.085929
0.085810
-0.092969
-0.092397
-0.095424
-0.095142
-0.093336
-0.093167
-0.092298
-0.093611
-0.023601
-0.026446
-0.026686
-0.024146
0.079567
0.079654
0.081855
0.077530
0.081737
0.084045
0.092855
0.094709
0.095083
0.118477
0.121274
0.120167
0.097417
0.081356
0.081334
0.083072
0.083438
0.082743
-0.072109
-0.071721
0.070739
-0.013551
-0.012738
-0.015371
-0.016544
-0.079815
-0.083356
-0.082790
-0.067285
0.085271
0.085573
0.084063
0.084188
-0.098000
-0.098111
-0.094692
0.000730
0.003035
0.003409
0.048508
0.050023
0.053295
0.040589
-0.078334
-0.071140
-0.076604
0.096878
0.094494
0.094878
0.064082
0.064434
0.060188
-0.062899
-0.088234
-0.083560
-0.085335
0.090952
0.093796
0.093239
-0.086181
-0.015249
-0.087252
-0.089181
-0.086099
-0.089802
0.004861
0.000548
0.091486
0.094087
-0.124475
-0.122568
-0.001886
0.001132
0.000840
0.004423
-0.019613
-0.022647
-0.022940
0.003251
0.006719
0.007185
0.070789
0.074708
0.073165
0.002957
-0.066302
-0.069146
-0.065289
0.101254
0.102737
0.103721
0.022498
0.025710
0.026071
-0.064625
-0.057965
-0.058098
-0.093942
-0.093364
-0.092444
0.071487
0.071023
0.073931
0.092227
0.094123
0.094408
0.096659
0.068533
-0.094324
-0.095251
-0.095838
-0.037312
-0.040299
-0.038241
0.083821
0.085400
0.084103
0.086435
0.082132
0.082434
0.079922
-0.075377
-0.079034
-0.078281
0.054313
-0.122348
-0.118612
-0.121620
-0.095121
-0.070896
-0.070671
-0.067866
-0.087813
-0.085692
-0.089087
-0.067453
0.085229
0.088403
-0.038619
-0.045877
-0.044752
-0.049612
-0.052600
-0.055145
-0.075951
-0.078697
-0.078967
-0.080828
-0.057777
0.056266
0.057473
0.058372
-0.110105
-0.112192
-0.111245
-0.083915
-0.084123
-0.081379
-0.092281
-0.093029
-0.093060
-0.093846
0.087012
0.105320
0.101597
0.105385
0.102943
-0.082411
-0.083066
-0.084540
0.104468
-0.086877
-0.085642
-0.012273
-0.009449
0.074776
0.075274
0.074169
0.079845
0.080009
0.081623
0.074524
0.083510
0.083136
-0.097437
-0.099991
-0.099590
-0.101995
-0.064516
-0.063620
-0.065134
0.031289
0.028498
0.025559
0.058414
0.056920
0.062160
-0.032428
-0.028616
-0.029578
-0.031702
0.058402
0.088680
0.088767
0.087734
0.017998
0.016683
0.019701
-0.032562
-0.031693
-0.039004
-0.097570
-0.099331
-0.096875
-0.067014
-0.098661
0.087915
-0.020881
-0.020589
-0.017599
0.018708
0.021617
0.021230
-0.055112
-0.052525
-0.048971
-0.046714
-0.096161
-0.097920
0.074601
0.077678
0.076677
0.067748
0.066123
0.072372
0.072916
-0.097866
-0.100466
-0.100192
-0.103375
0.077180
0.078923
0.079425
0.077764
-0.090698
-0.082351
-0.086121
0.077839
0.078322
0.079748
-0.089985
0.082383
0.080957
0.081274
0.084385
-0.080435
-0.081150
-0.080131
-0.080176
-0.080631
-0.082761
-0.085449
-0.084291
-0.088641
-0.089683
-0.091530
-0.087339
0.053246
0.054452
0.053113
0.087830
0.088076
0.089826
-0.073714
-0.074385
-0.072459
0.086612
-0.071247
-0.070488
-0.072401
-0.088067
-0.090325
-0.088572
0.100416
0.099610
-0.093678
-0.095205
-0.091647
-0.093036
0.019955
0.017769
0.016624
-0.091369
0.052225
0.053405
0.054329
0.034596
0.028987
0.030421
0.017621
0.017476
0.020120
-0.106587
-0.104253
-0.103728
0.023748
0.098453
0.100356
0.098138
0.015726
0.014648
0.010801
-0.019004
-0.021491
-0.022314
-0.018808
0.006929
0.003892
-0.071914
-0.071607
-0.070232
-0.008494
-0.007048
-0.005394
0.071328
0.073194
-0.028512
-0.031096
-0.033907
-0.004347
-0.069672
0.001645
0.003797
-0.081016
-0.083549
-0.082449
-0.084490
-0.102602
-0.108324
-0.109182
-0.101547
-0.070906
-0.073602
-0.071047
0.027346
0.026122
0.030048
-0.073070
-0.070742
-0.090024
-0.091480
-0.067359
0.068741
0.068170
0.067451
0.069585
0.046532
0.043151
0.043092
0.046245
0.039631
0.043956
0.040001
-0.098083
-0.101037
-0.100200
0.102636
0.102150
0.071778
0.073019
0.074489
0.075781
-0.098050
-0.095887
-0.093953
-0.094305
-0.094060
-0.092292
-0.092275
-0.083939
-0.082659
-0.083758
-0.082328
-0.073323
-0.068753
-0.076411
-0.076481
-0.080092
0.062111
0.060726
0.063501
0.062257
-0.112349
-0.107015
-0.110487
0.062126
0.060003
0.100785
0.060320
-0.114960
-0.117702
-0.116526
0.101284
0.070353
0.059765
0.062382
-0.119509
0.062691
-0.103314
-0.089592
-0.019950
-0.018042
-0.016379
-0.090367
-0.081468
-0.082460
-0.082669
-0.083586
-0.072931
-0.072003
-0.075543
-0.072600
0.095833
0.095315
0.096954
0.095602
-0.079324
-0.080841
-0.079600
-0.081247
0.074460
0.075031
0.077716
0.077208
-0.077932
-0.078505
-0.093779
-0.092974
0.070437
0.068861
0.070513
0.069253
0.070051
0.067820
-0.085230
-0.085481
-0.040274
-0.038554
-0.041813
-0.038408
0.069866
-0.070704
-0.073081
-0.074933
-0.065721
-0.005713
-0.003589
-0.003585
0.064602
0.060941
-0.001715
-0.064377
-0.064653
-0.062063
-0.062966
-0.022812
-0.025299
-0.005710
-0.008924
0.057309
0.055542
-0.009794
-0.085455
-0.081335
-0.082936
-0.075913
0.077291
0.079915
0.079375
0.081996
0.043361
0.047614
0.069836
0.069770
0.072756
-0.084351
-0.081779
-0.081855
0.092476
0.092198
0.094201
0.051760
0.052177
0.094291
0.074031
0.067710
0.075160
0.003551
0.003896
0.006559
0.056109
-0.074377
-0.075852
0.057153
0.059982
0.061482
0.079619
0.078372
0.080280
-0.113349
-0.114452
0.078104
-0.100739
-0.102357
-0.100385
0.087264
0.084657
0.046098
0.042035
0.049409
-0.090160
-0.089821
-0.090682
-0.090239
-0.096684
-0.095875
-0.048898
-0.048391
-0.055196
-0.082164
-0.083011
-0.084790
-0.085484
-0.068433
-0.068365
0.023774
0.026932
0.022736
0.075646
0.076432
0.062192
0.064309
0.061224
0.075674
0.076368
0.075156
0.075742
-0.024760
-0.020575
-0.019034
-0.075709
-0.079532
-0.078044
-0.083228
-0.072020
-0.073742
-0.069010
0.068166
0.070256
0.070914
0.068636
0.119480
0.116549
0.118025
-0.082801
-0.083725
-0.083501
-0.043074
-0.047577
-0.044415
-0.083348
-0.071387
-0.068049
-0.070097
-0.069857
-0.020563
-0.017805
-0.017476
-0.074630
-0.079536
-0.113041
-0.110737
-0.112079
0.086808
0.085985
0.088489
-0.078890
0.091363
-0.081243
-0.080804
0.063799
0.066475
0.064908
0.065786
0.066699
0.061376
0.064963
0.113934
0.111265
0.111903
0.109507
0.102679
0.104126
0.104151
-0.096351
-0.096596
-0.097413
0.105653
-0.097452
-0.095042
-0.094505
-0.072124
-0.068161
-0.074999
-0.056988
-0.050491
-0.052869
0.099274
0.099219
0.097843
0.096899
-0.056225
0.062306
0.061331
0.070845
0.059991
0.058815
0.060092
0.058634
-0.057297
-0.058422
-0.056059
-0.059513
-0.069842
-0.068093
-0.067234
0.045371
0.044401
0.042351
0.041721
-0.084876
-0.085898
-0.085621
0.109959
-0.086752
0.107547
-0.084049
-0.082411
-0.058899
-0.055901
0.003897
-0.000042
-0.048802
-0.047437
-0.044154
0.022936
0.021270
-0.098045
-0.100172
-0.099737
-0.102333
0.019761
0.022837
0.020999
0.028693
0.028701
0.030638
0.066466
0.067546
0.064174
0.070441
-0.047286
-0.059864
-0.022426
-0.026470
-0.023617
-0.026937
0.013069
0.015077
0.019402
0.018291
0.017457
0.016454
0.050460
0.052250
0.053179
0.018334
0.010745
0.010640
0.049939
-0.015787
-0.018631
-0.015123
-0.017899
0.055317
0.054190
0.046309
0.057375
-0.086913
-0.083574
-0.084797
-0.080712
-0.117626
-0.118390
-0.121674
-0.115342
0.017004
0.078123
0.077296
0.077404
0.076532
-0.115478
-0.113821
0.076402
-0.110216
-0.077380
-0.077107
-0.078549
-0.077982
-0.068518
-0.066370
-0.070177
0.063979
-0.013561
-0.013749
-0.017247
-0.064193
-0.062541
0.067732
0.066790
0.067171
-0.072826
-0.074031
0.090394
0.087701
0.088808
0.114516
0.112145
-0.075376
-0.071220
-0.115750
-0.114394
-0.059464
-0.058636
-0.060332
-0.057460
-0.000900
-0.003557
-0.000282
-0.003738
-0.070541
-0.060725
-0.061772
0.015777
-0.062283
-0.078381
-0.076784
-0.076818
-0.000395
-0.003442
-0.032867
-0.029386
-0.031683
-0.027859
0.067501
0.068691
0.067042
0.069055
0.080840
0.080476
0.080942
0.079724
-0.029354
-0.031326
-0.032822
0.041583
0.040317
0.042852
-0.016638
-0.020753
0.039408
-0.063038
-0.062551
-0.114569
-0.108060
-0.061073
-0.064210
-0.112103
-0.063929
0.125548
0.129025
0.127279
0.111166
0.070063
0.072726
0.074356
-0.087514
-0.083871
-0.086444
-0.041612
-0.041857
-0.043438
-0.043225
0.103411
0.078240
0.079283
0.079661
-0.092882
-0.110407
-0.109592
-0.108564
-0.111580
0.086194
0.087142
-0.112420
-0.113848
-0.112247
-0.036677
0.084850
0.085158
0.086532
0.096941
0.094593
0.096051
0.085071
-0.056409
-0.058248
-0.057399
-0.057610
-0.040720
-0.039145
-0.040246
-0.101800
-0.104262
0.113769
0.111686
0.108824
-0.064346
-0.062068
-0.059107
0.116004
0.117791
0.115797
0.004124
0.001030
-0.056294
-0.038299
-0.043798
-0.041319
-0.036817
0.071445
0.066641
0.073166
-0.012332
-0.017792
-0.025477
0.021790
0.023933
0.022684
-0.045313
-0.042849
-0.042377
0.026769
0.024706
0.027736
0.025524
0.017512
0.020596
-0.041071
-0.041251
-0.036962
-0.037246
-0.123273
-0.127100
-0.120992
-0.130656
-0.081850
-0.084131
-0.082208
-0.120805
-0.077489
0.052230
0.051192
0.053055
0.050980
0.076973
0.118371
0.115377
0.076150
0.100978
0.102279
0.023313
0.026058
0.076761
-0.035437
0.075377
0.064417
0.063694
0.064867
0.099600
0.099679
0.087988
0.085347
0.096504
0.094508
0.104738
0.107001
0.064443
0.096932
0.065740
0.064821
0.038595
0.037627
0.039550
-0.130118
-0.129928
-0.132346
-0.127540
0.036556
0.077707
0.076148
0.072990
0.075523
0.078035
-0.073865
-0.075256
-0.113493
-0.110550
-0.072457
-0.098846
-0.086726
0.073636
0.073881
0.074403
0.073009
0.075068
0.109178
0.111365
0.020989
0.021376
0.074618
0.072608
0.074355
0.072127
0.073686
-0.085536
-0.080828
-0.038433
-0.038682
-0.084225
-0.083621
-0.091604
-0.100898
-0.044420
-0.041154
-0.099952
-0.099111
-0.101367
-0.098480
0.010095
0.011529
-0.083198
-0.080845
-0.081149
-0.086577
-0.085861
-0.021182
-0.039727
-0.085100
-0.084879
-0.086995
-0.087560
0.077892
0.079821
-0.087694
0.072850
0.072929
0.073738
0.071114
-0.062880
0.102690
-0.095511
-0.097107
-0.063643
-0.062363
-0.059351
0.017805
0.021293
0.021440
-0.093442
-0.093833
-0.000511
0.000868
0.002544
0.089426
0.089590
0.088234
0.088744
0.077902
0.078708
0.077649
0.079010
0.076697
0.074066
0.073004
-0.086625
-0.086224
0.061894
0.061994
0.063086
-0.004458
0.000221
-0.003455
-0.001596
0.060922
-0.112230
-0.115553
0.116631
0.118338
-0.089596
-0.087266
-0.126417
-0.123605
-0.122739
0.082671