# vtk DataFile Version 2.0
Test
ASCII
DATASET POLYDATA
POINTS 6352 float
0.000000 0.000000 0.000000
1.000000 0.000000 0.000000
1.000000 0.800000 0.000000
1.000000 1.000000 0.000000
0.000000 1.000000 0.000000
0.000000 0.200000 0.000000
0.300000 0.330000 0.000000
0.700000 0.680000 0.000000
0.050000 0.000000 0.000000
0.100000 0.000000 0.000000
0.150000 0.000000 0.000000
0.200000 0.000000 0.000000
0.250000 0.000000 0.000000
0.300000 0.000000 0.000000
0.350000 0.000000 0.000000
0.400000 0.000000 0.000000
0.450000 0.000000 0.000000
0.500000 0.000000 0.000000
0.550000 0.000000 0.000000
0.600000 0.000000 0.000000
0.650000 0.000000 0.000000
0.700000 0.000000 0.000000
0.750000 0.000000 0.000000
0.800000 0.000000 0.000000
0.850000 0.000000 0.000000
0.900000 0.000000 0.000000
0.950000 0.000000 0.000000
1.000000 0.048545 0.000000
1.000000 0.094438 0.000000
1.000000 0.137825 0.000000
1.000000 0.178843 0.000000
1.000000 0.217620 0.000000
1.000000 0.254280 0.000000
1.000000 0.288938 0.000000
1.000000 0.321703 0.000000
1.000000 0.352678 0.000000
1.000000 0.381962 0.000000
1.000000 0.409647 0.000000
1.000000 0.435820 0.000000
1.000000 0.460563 0.000000
1.000000 0.483955 0.000000
1.000000 0.506070 0.000000
1.000000 0.526976 0.000000
1.000000 0.546741 0.000000
1.000000 0.565427 0.000000
1.000000 0.583092 0.000000
1.000000 0.599793 0.000000
1.000000 0.615581 0.000000
1.000000 0.630507 0.000000
1.000000 0.644618 0.000000
1.000000 0.657958 0.000000
1.000000 0.670570 0.000000
1.000000 0.682493 0.000000
1.000000 0.693765 0.000000
1.000000 0.704421 0.000000
1.000000 0.714495 0.000000
1.000000 0.724019 0.000000
1.000000 0.733023 0.000000
1.000000 0.741536 0.000000
1.000000 0.749583 0.000000
1.000000 0.757191 0.000000
1.000000 0.764383 0.000000
1.000000 0.771183 0.000000
1.000000 0.777611 0.000000
1.000000 0.783688 0.000000
1.000000 0.789434 0.000000
1.000000 0.794865 0.000000
1.000000 0.805174 0.000000
1.000000 0.811554 0.000000
1.000000 0.819418 0.000000
1.000000 0.829114 0.000000
1.000000 0.841067 0.000000
1.000000 0.855804 0.000000
1.000000 0.873972 0.000000
1.000000 0.896371 0.000000
1.000000 0.923985 0.000000
1.000000 0.958029 0.000000
0.950000 1.000000 0.000000
0.900000 1.000000 0.000000
0.850000 1.000000 0.000000
0.800000 1.000000 0.000000
0.750000 1.000000 0.000000
0.700000 1.000000 0.000000
0.650000 1.000000 0.000000
0.600000 1.000000 0.000000
0.550000 1.000000 0.000000
0.500000 1.000000 0.000000
0.450000 1.000000 0.000000
0.400000 1.000000 0.000000
0.350000 1.000000 0.000000
0.300000 1.000000 0.000000
0.250000 1.000000 0.000000
0.200000 1.000000 0.000000
0.150000 1.000000 0.000000
0.100000 1.000000 0.000000
0.050000 1.000000 0.000000
0.000000 0.951455 0.000000
0.000000 0.905562 0.000000
0.000000 0.862175 0.000000
0.000000 0.821157 0.000000
0.000000 0.782380 0.000000
0.000000 0.745720 0.000000
0.000000 0.711062 0.000000
0.000000 0.678297 0.000000
0.000000 0.647322 0.000000
0.000000 0.618038 0.000000
0.000000 0.590353 0.000000
0.000000 0.564180 0.000000
0.000000 0.539437 0.000000
0.000000 0.516045 0.000000
0.000000 0.493930 0.000000
0.000000 0.473024 0.000000
0.000000 0.453259 0.000000
0.000000 0.434573 0.000000
0.000000 0.416908 0.000000
0.000000 0.400207 0.000000
0.000000 0.384419 0.000000
0.000000 0.369493 0.000000
0.000000 0.355382 0.000000
0.000000 0.342042 0.000000
0.000000 0.329430 0.000000
0.000000 0.317507 0.000000
0.000000 0.306235 0.000000
0.000000 0.295579 0.000000
0.000000 0.285505 0.000000
0.000000 0.275981 0.000000
0.000000 0.266977 0.000000
0.000000 0.258464 0.000000
0.000000 0.250417 0.000000
0.000000 0.242809 0.000000
0.000000 0.235617 0.000000
0.000000 0.228817 0.000000
0.000000 0.222389 0.000000
0.000000 0.216312 0.000000
0.000000 0.210566 0.000000
0.000000 0.205135 0.000000
0.000000 0.194826 0.000000
0.000000 0.188446 0.000000
0.000000 0.180582 0.000000
0.000000 0.170886 0.000000
0.000000 0.158933 0.000000
0.000000 0.144196 0.000000
0.000000 0.126028 0.000000
0.000000 0.103629 0.000000
0.000000 0.076015 0.000000
0.000000 0.041971 0.000000
0.303738 0.333271 0.000000
0.307477 0.336542 0.000000
0.311215 0.339813 0.000000
0.314953 0.343084 0.000000
0.318692 0.346355 0.000000
0.322430 0.349626 0.000000
0.326168 0.352897 0.000000
0.329907 0.356168 0.000000
0.333645 0.359439 0.000000
0.337383 0.362710 0.000000
0.341121 0.365981 0.000000
0.344860 0.369252 0.000000
0.348598 0.372523 0.000000
0.352336 0.375794 0.000000
0.356075 0.379065 0.000000
0.359813 0.382336 0.000000
0.363551 0.385607 0.000000
0.367290 0.388879 0.000000
0.371028 0.392150 0.000000
0.374766 0.395421 0.000000
0.378505 0.398692 0.000000
0.382243 0.401963 0.000000
0.385981 0.405234 0.000000
0.389720 0.408505 0.000000
0.393458 0.411776 0.000000
0.397196 0.415047 0.000000
0.400935 0.418318 0.000000
0.404673 0.421589 0.000000
0.408411 0.424860 0.000000
0.412150 0.428131 0.000000
0.415888 0.431402 0.000000
0.419626 0.434673 0.000000
0.423364 0.437944 0.000000
0.427103 0.441215 0.000000
0.430841 0.444486 0.000000
0.434579 0.447757 0.000000
0.438318 0.451028 0.000000
0.442056 0.454299 0.000000
0.445794 0.457570 0.000000
0.449533 0.460841 0.000000
0.453271 0.464112 0.000000
0.457009 0.467383 0.000000
0.460748 0.470654 0.000000
0.464486 0.473925 0.000000
0.468224 0.477196 0.000000
0.471963 0.480467 0.000000
0.475701 0.483738 0.000000
0.479439 0.487009 0.000000
0.483178 0.490280 0.000000
0.486916 0.493551 0.000000
0.490654 0.496822 0.000000
0.494393 0.500093 0.000000
0.498131 0.503364 0.000000
0.501869 0.506636 0.000000
0.505607 0.509907 0.000000
0.509346 0.513178 0.000000
0.513084 0.516449 0.000000
0.516822 0.519720 0.000000
0.520561 0.522991 0.000000
0.524299 0.526262 0.000000
0.528037 0.529533 0.000000
0.531776 0.532804 0.000000
0.535514 0.536075 0.000000
0.539252 0.539346 0.000000
0.542991 0.542617 0.000000
0.546729 0.545888 0.000000
0.550467 0.549159 0.000000
0.554206 0.552430 0.000000
0.557944 0.555701 0.000000
0.561682 0.558972 0.000000
0.565421 0.562243 0.000000
0.569159 0.565514 0.000000
0.572897 0.568785 0.000000
0.576636 0.572056 0.000000
0.580374 0.575327 0.000000
0.584112 0.578598 0.000000
0.587850 0.581869 0.000000
0.591589 0.585140 0.000000
0.595327 0.588411 0.000000
0.599065 0.591682 0.000000
0.602804 0.594953 0.000000
0.606542 0.598224 0.000000
0.610280 0.601495 0.000000
0.614019 0.604766 0.000000
0.617757 0.608037 0.000000
0.621495 0.611308 0.000000
0.625234 0.614579 0.000000
0.628972 0.617850 0.000000
0.632710 0.621121 0.000000
0.636449 0.624393 0.000000
0.640187 0.627664 0.000000
0.643925 0.630935 0.000000
0.647664 0.634206 0.000000
0.651402 0.637477 0.000000
0.655140 0.640748 0.000000
0.658879 0.644019 0.000000
0.662617 0.647290 0.000000
0.666355 0.650561 0.000000
0.670093 0.653832 0.000000
0.673832 0.657103 0.000000
0.677570 0.660374 0.000000
0.681308 0.663645 0.000000
0.685047 0.666916 0.000000
0.688785 0.670187 0.000000
0.692523 0.673458 0.000000
0.696262 0.676729 0.000000
0.004545 0.201970 0.000000
0.009091 0.203939 0.000000
0.013636 0.205909 0.000000
0.018182 0.207879 0.000000
0.022727 0.209848 0.000000
0.027273 0.211818 0.000000
0.031818 0.213788 0.000000
0.036364 0.215758 0.000000
0.040909 0.217727 0.000000
0.045455 0.219697 0.000000
0.050000 0.221667 0.000000
0.054545 0.223636 0.000000
0.059091 0.225606 0.000000
0.063636 0.227576 0.000000
0.068182 0.229545 0.000000
0.072727 0.231515 0.000000
0.077273 0.233485 0.000000
0.081818 0.235455 0.000000
0.086364 0.237424 0.000000
0.090909 0.239394 0.000000
0.095455 0.241364 0.000000
0.100000 0.243333 0.000000
0.104545 0.245303 0.000000
0.109091 0.247273 0.000000
0.113636 0.249242 0.000000
0.118182 0.251212 0.000000
0.122727 0.253182 0.000000
0.127273 0.255152 0.000000
0.131818 0.257121 0.000000
0.136364 0.259091 0.000000
0.140909 0.261061 0.000000
0.145455 0.263030 0.000000
0.150000 0.265000 0.000000
0.154545 0.266970 0.000000
0.159091 0.268939 0.000000
0.163636 0.270909 0.000000
0.168182 0.272879 0.000000
0.172727 0.274848 0.000000
0.177273 0.276818 0.000000
0.181818 0.278788 0.000000
0.186364 0.280758 0.000000
0.190909 0.282727 0.000000
0.195455 0.284697 0.000000
0.200000 0.286667 0.000000
0.204545 0.288636 0.000000
0.209091 0.290606 0.000000
0.213636 0.292576 0.000000
0.218182 0.294545 0.000000
0.222727 0.296515 0.000000
0.227273 0.298485 0.000000
0.231818 0.300455 0.000000
0.236364 0.302424 0.000000
0.240909 0.304394 0.000000
0.245455 0.306364 0.000000
0.250000 0.308333 0.000000
0.254545 0.310303 0.000000
0.259091 0.312273 0.000000
0.263636 0.314242 0.000000
0.268182 0.316212 0.000000
0.272727 0.318182 0.000000
0.277273 0.320152 0.000000
0.281818 0.322121 0.000000
0.286364 0.324091 0.000000
0.290909 0.326061 0.000000
0.295455 0.328030 0.000000
0.704615 0.681846 0.000000
0.709231 0.683692 0.000000
0.713846 0.685538 0.000000
0.718462 0.687385 0.000000
0.723077 0.689231 0.000000
0.727692 0.691077 0.000000
0.732308 0.692923 0.000000
0.736923 0.694769 0.000000
0.741538 0.696615 0.000000
0.746154 0.698462 0.000000
0.750769 0.700308 0.000000
0.755385 0.702154 0.000000
0.760000 0.704000 0.000000
0.764615 0.705846 0.000000
0.769231 0.707692 0.000000
0.773846 0.709538 0.000000
0.778462 0.711385 0.000000
0.783077 0.713231 0.000000
0.787692 0.715077 0.000000
0.792308 0.716923 0.000000
0.796923 0.718769 0.000000
0.801538 0.720615 0.000000
0.806154 0.722462 0.000000
0.810769 0.724308 0.000000
0.815385 0.726154 0.000000
0.820000 0.728000 0.000000
0.824615 0.729846 0.000000
0.829231 0.731692 0.000000
0.833846 0.733538 0.000000
0.838462 0.735385 0.000000
0.843077 0.737231 0.000000
0.847692 0.739077 0.000000
0.852308 0.740923 0.000000
0.856923 0.742769 0.000000
0.861538 0.744615 0.000000
0.866154 0.746462 0.000000
0.870769 0.748308 0.000000
0.875385 0.750154 0.000000
0.880000 0.752000 0.000000
0.884615 0.753846 0.000000
0.889231 0.755692 0.000000
0.893846 0.757538 0.000000
0.898462 0.759385 0.000000
0.903077 0.761231 0.000000
0.907692 0.763077 0.000000
0.912308 0.764923 0.000000
0.916923 0.766769 0.000000
0.921538 0.768615 0.000000
0.926154 0.770462 0.000000
0.930769 0.772308 0.000000
[...]
POINT_DATA 6352
SCALARS UX float 1
LOOKUP_TABLE default
-0.000004
0.000005
4.628582
1.665790
-10.563499
-6.659880
-3.502829
-0.226768
0.000000
-0.000001
-0.000000
-0.000000
-0.000000
-0.000000
-0.000000
-0.000000
-0.000000
-0.000000
-0.000000
0.000000
0.000000
0.000000
0.000000
0.000000
0.000000
0.000001
-0.000001
1.473595
2.293335
2.822558
3.256233
3.580972
3.872281
4.125768
4.342789
4.532405
4.693640
4.830271
4.943799
5.037858
5.114118
5.173882
5.218841
5.250704
5.272236
5.284728
5.289386
5.286807
5.278981
5.265689
5.249179
5.227121
5.202845
5.175276
5.144767
5.111541
5.077190
5.040969
5.003174
4.963982
4.923370
4.882891
4.841214
4.798616
4.755842
4.712979
4.670222
4.583473
4.524987
4.444816
4.334045
4.180270
3.956889
3.647654
3.194398
2.638469
2.049334
0.511383
-0.285847
-0.864363
-1.355334
-1.793039
-2.237508
-2.693654
-3.166981
-3.665665
-4.199962
-4.772162
-5.377798
-6.022298
-6.675745
-7.332433
-7.990672
-8.643895
-9.290723
-9.931357
-10.451993
-10.342525
-10.233301
-10.133006
-10.040018
-9.952445
-9.869498
-9.790420
-9.713894
-9.637248
-9.559210
-9.478697
-9.395290
-9.307534
-9.215082
-9.123786
-9.024988
-8.925011
-8.823949
-8.719373
-8.614900
-8.510808
-8.404736
-8.299972
-8.195280
-8.090917
-7.987336
-7.884028
-7.781567
-7.679670
-7.579837
-7.480670
-7.382832
-7.286384
-7.191935
-7.098970
-7.007233
-6.917229
-6.829208
-6.743430
-6.572259
-6.460344
-6.313725
-6.121592
-5.870005
-5.525824
-5.077696
-4.454562
-3.620014
-2.556993
-3.470961
-3.396434
-3.311602
-3.307154
-3.270956
-3.299641
-3.291935
-3.266900
-3.301479
-3.399696
-3.352216
-3.364460
-3.370374
-3.331732
-3.311645
-3.298542
-3.252669
-3.267140
-3.273115
-3.221173
-3.197768
-3.168156
-3.087336
-3.070330
-3.047955
-2.991042
-2.850875
-2.857354
-2.767719
-3.234369
-3.165359
-3.127548
-3.067403
-3.025363
-2.970673
-2.926516
-2.860090
-2.880701
-2.823452
-2.780065
-2.686028
-2.664346
-2.622138
-2.573967
-2.456111
-2.405162
-2.443548
-2.417420
-2.376307
-2.367716
-2.335587
-2.325399
-2.221392
-2.235753
-2.160921
-2.149734
-2.116732
-2.072420
-2.019665
-1.916322
-1.926288
-1.890964
-1.847974
-1.863862
-1.796639
-1.714636
-1.679840
-1.619644
-1.549364
-1.599236
-1.529860
-1.487399
-1.456814
-1.529654
-1.468328
-1.441783
-1.419201
-1.376443
-1.390368
-1.299345
-1.387641
-1.381218
-1.342034
-1.349283
-1.411802
-1.397218
-1.327285
-1.273599
-1.237729
-1.216185
-1.200021
-1.179895
-1.108035
-1.095669
-1.064706
-1.101103
-0.988423
-1.051341
-0.936774
-0.863068
-0.756164
-0.734415
-0.547822
-0.500864
-0.446490
-0.372978
-6.640730
-6.621376
-6.602055
-6.582228
-6.561936
-6.541052
-6.519198
-6.496900
-6.474019
-6.450745
-6.426378
-6.401463
-6.376654
-6.351554
-6.324721
-6.297604
-6.270643
-6.243544
-6.216039
-6.187514
-6.159105
-6.130444
-6.100111
-6.069816
-6.038485
-6.006986
-5.974748
-5.942319
-5.909799
-5.876744
-5.843306
-5.809140
-5.773425
-5.737613
-5.701029
-5.663794
-5.625183
-5.585593
-5.545332
-5.503227
-5.460555
-5.416514
-5.369686
-5.320561
-5.270845
-5.220235
-5.168527
-5.113322
-5.056336
-4.998722
-4.939362
-4.871182
-4.829741
-4.784893
-4.708026
-4.659421
-4.572649
-4.492606
-4.400858
-4.346747
-4.247158
-4.093464
-3.949690
-3.809298
-3.696033
0.007253
0.307617
0.536910
0.732200
0.858513
0.950864
1.134541
1.252257
1.309725
1.406573
1.542682
1.592449
1.693960
1.787821
1.876304
1.960189
2.041387
2.122970
2.201508
2.277851
2.350295
2.421303
2.487775
2.554570
2.622393
2.684555
2.746209
2.806554
2.865971
2.925803
2.983755
3.039490
3.096164
3.152028
3.206553
3.260149
3.313155
3.365694
3.418502
3.469597
3.520826
3.572353
3.623183
3.672873
3.723285
3.772584
3.821006
3.869028
3.916562
3.963728
4.010310
4.056255
4.101573
4.146881
4.192411
4.237215
4.281488
4.325470
4.369436
4.412640
4.455488
4.498397
4.541389
4.584727
2.045436
2.047969
2.157097
1.959579
0.057966
0.029683
0.104073
0.026564
-4.398510
-4.461163
-4.001157
-4.152425
-3.566793
-4.264765
-7.682485
-7.525909
-7.615203
-7.487649
-4.227563
-0.989770
-0.841905
-0.860523
-0.699355
-1.563318
-1.560945
-1.340028
-1.831340
-1.468562
-1.503505
-1.368892
-2.766011
-2.589448
-2.828167
-2.582555
3.713724
3.587398
3.830197
3.549716
-0.473394
-0.694878
-0.424876
-0.773338
-7.202618
-7.170875
-7.312953
-6.364509
-6.368686
-6.246239
-6.487010
-6.460948
-6.561425
2.885030
3.188212
2.968336
3.162051
-0.138407
-0.098914
-0.035943
-1.945180
-1.869082
-1.336041
3.828141
3.981739
3.980725
-3.687289
-3.895983
-3.831724
-4.806408
-4.675877
-4.329149
3.339111
3.396241
3.280917
-3.818676
-6.328952
-6.352293
-6.202954
-0.891237
-0.985093
-1.027170
-0.879665
1.400425
1.331065
1.344240
-1.895420
-2.025220
-2.385676
1.347526
2.055164
2.172874
2.042993
-1.070952
-1.294628
-1.013793
2.142839
2.168711
1.987091
1.249985
1.235691
1.304934
-1.579258
-1.751937
-1.584677
1.185267
-0.362356
-0.237407
-0.254799
-1.227934
-6.132312
-6.220167
-6.172102
-0.280489
2.025561
1.960124
2.050197
-1.818233
-1.877426
-1.620940
3.223108
3.172698
3.139471
3.096610
3.084253
3.041107
-6.052815
-6.412385
-5.943725
-6.237975
-1.042586
-0.894412
-0.922922
2.031601
3.239138
-0.757858
-8.365513
-8.187368
-8.294960
-6.177862
-6.295016
-6.183275
-0.279009
0.143485
0.240730
-8.097545
2.384374
2.342142
2.385020
2.294518
-1.821115
-1.620747
-1.537466
0.530740
-5.316107
-5.345570
-5.285088
-0.292700
-0.353636
-0.277292
-0.352545
3.186179
3.097458
3.061891
-1.259655
2.057207
1.871515
1.874308
-7.920407
-7.848430
-7.761327
3.009046
3.088330
2.997821
3.024284
-6.376360
-6.279014
-6.391898
-6.285463
-1.203442
-1.096511
-1.133990
2.979701
-4.730935
-4.974703
-4.240499
-1.131732
-4.264344
-4.401335
-4.859027
-4.028769
3.720147
3.928776
-4.883965
3.704157
-5.905517
-5.880673
-5.834550
-5.939121
-1.539678
-1.581530
-1.736849
-0.460504
-5.380150
-4.059494
-5.582052
-5.572696
-5.628535
-5.534056
1.633148
1.600072
1.572606
1.540192
-6.171309
-6.144717
-1.371526
-5.798183
-5.783924
-5.854500
-5.810637
-0.611250
-0.587614
-0.536206
3.291952
3.304198
3.180742
-0.663883
3.414174
-3.023447
-2.702781
-2.586327
3.448345
3.457087
3.349068
-2.402901
-4.044913
-4.094112
-4.143790
3.545693
-4.182109
-6.172094
-6.161474
-6.086445
-4.000675
-3.954897
-3.921109
-6.043034
2.104793
2.057474
1.973907
0.948945
0.914137
0.992896
-1.714796
-1.796066
-1.538213
-4.515698
-4.402442
-4.493841
1.936664
1.981871
1.937286
2.004628
-0.009650
-0.102617
-0.028967
0.938518
1.948593
0.867581
0.845489
0.797169
2.136283
2.361126
2.264441
2.470184
2.894536
2.945332
2.863908
2.923724
4.645888
4.542901
4.490217
-4.125079
-3.981266
-3.692474
-4.544714
4.363270
0.383837
0.551023
0.392857
-4.561411
-4.483843
-4.555751
2.154630
2.107406
2.201763
4.551489
4.752463
2.074507
-8.803062
-8.949264
-8.718953
4.456473
4.398307
4.379245
4.312813
-3.184896
-2.894860
2.043937
2.055634
1.999765
-4.584412
-4.603294
-4.749251
-4.713473
3.342873
-4.457495
3.202415
3.236663
-4.807278
-4.906957
-4.853438
-5.817252
-5.661789
-5.807959
-5.690343
-6.677770
-6.796260
-6.780955
-6.898739
-6.555732
-6.548997
-6.430032
-5.854454
-5.705607
-5.763610
-6.990368
-6.882670
-7.008782
-5.623275
-0.446280
-0.550997
-0.507276
0.928373
0.878546
-6.769646
-6.735123
-6.660073
-6.863563
-6.111458
-6.174665
-6.110692
-6.184726
-5.317332
-5.422036
-5.381568
-5.480247
-7.532847
-7.576967
-7.683629
-6.359908
-7.454904
-0.486998
-0.470551
-0.007731
-3.543287
-3.714706
-3.153392
-3.937431
3.359398
3.449176
3.342252
3.494678
-6.762052
-6.896221
2.443764
2.436852
2.272524
-5.554417
-5.530632
2.289560
3.779439
3.852139
3.880147
3.952268
3.697401
3.676671
3.587177
-5.599749
0.530615
0.431940
0.549329
0.384973
3.006991
2.910343
3.064523
-5.480562
-5.169848
-5.331154
-5.022907
4.213479
4.210226
4.286118
4.132145
-9.453506
-9.259706
-9.259681
-9.070079
-6.279228
-6.417397
0.451547
0.644437
0.111613
0.071382
-6.820319
-6.523356
-6.493456
-6.253186
3.476242
3.594219
3.426983
3.522645
3.357954
-1.380767
-1.260665
-1.576368
3.577014
3.649695
3.727824
-1.489588
-1.610820
-1.151938
2.795229
2.684173
2.847097
2.634122
3.492763
3.405448
3.337481
-0.229773
-0.168295
-6.172145
-6.238471
-6.110994
-2.411044
-2.399304
-2.242260
2.168087
2.210209
-6.128963
-6.090049
-5.973536
-5.955846
-5.715621
-5.722358
-5.632709
3.833768
-1.718073
-1.924066
-1.674452
4.033588
-5.657612
-5.719646
-5.652733
-0.763615
-0.831004
-1.149585
-5.785243
-1.287599
-1.585594
-1.119991
-5.716454
-5.273935
-5.473481
-5.504213
-0.310203
-0.378921
-0.579056
3.123228
3.184236
3.009413
-4.623171
-4.559210
-6.004210
-6.008158
-2.166146
-2.057317
-2.381416
-6.125732
-2.434443
-2.209708
-2.147875
-1.970686
-6.039598
-6.017793
-5.937628
-6.130177
-5.264642
-5.448886
-5.479725
-5.697994
-4.683733
-4.852089
-4.991643
2.428320
2.487566
2.542015
-0.138320
-0.271914
-0.122665
-6.716573
-6.840542
-4.532194
2.534642
-5.848480
-5.820346
-6.011416
-5.625084
-9.250381
-9.082088
-9.075947
-8.954657
-2.378779
-2.287463
-2.451057
-5.812050
-5.684420
-5.883047
-5.731060
-7.868977
-7.600682
-7.719727
2.274139
2.505370
2.425886
-5.929035
-5.767667
-6.105799
-6.146395
-6.205832
-0.093552
0.387942
0.340024
-6.227031
-5.836008
-5.125179
-5.044400
3.443242
3.592702
3.586595
-0.226556
-0.492889
0.578447
-5.288633
-5.315571
-5.254454
-5.478939
-5.675890
-5.656311
-6.107069
-6.216117
-6.078509
-5.549596
-5.719370
-5.568678
-0.327746
-0.244899
-0.338429
-2.613249
-2.446942
-0.202251
-5.212581
-5.646527
-6.474094
-6.418989
-6.481841
-2.753577
-2.820393
-2.885339
-2.682134
-2.607440
-2.426058
-2.604014
-2.272915
-6.560504
-6.493912
-6.464548
-6.405950
-1.591139
-1.166118
-1.836152
3.234320
3.135263
3.287756
3.142977
-5.727657
-5.794433
-5.712598
-5.444171
-5.079687
-5.400959
-5.811479
-5.489188
-5.665429
-5.670004
3.732298
3.484736
3.708642
3.429636
-6.385779
-6.420062
-6.516307
3.754849
3.817482
3.903607
1.834942
1.916199
1.848418
1.902350
-7.620347
-7.489601
-7.388694
-6.259173
-6.332803
-6.366664
-6.440160
3.628346
3.617041
3.726211
-3.511457
-3.550843
-3.612820
1.805298
1.826170
1.923076
1.959882
1.851965
1.751357
1.738657
-1.027062
-0.927993
-0.987859
-0.487565
-0.399878
-0.477970
-0.982896
-6.799160
-6.875780
-6.767185
-0.443515
-0.533444
-0.494146
-3.453692
-3.416157
-6.537885
-6.472411
-6.435102
4.343448
4.420110
4.345849
-6.349689
-3.360062
2.008989
1.398401
1.767091
-5.985863
-6.070492
-6.179323
-5.251065
-5.327337
-5.855960
-5.853699
-5.990241
3.216646
3.400585
3.379869
-6.734327
-6.803892
-6.879438
-6.921635
-5.863229
-5.876959
-5.748179
-5.936964
-3.599908
-3.704256
-3.661944
-3.670264
2.836946
2.879192
3.076066
2.640195
3.084001
3.268526
3.703182
3.771153
3.813587
4.836468
4.929932
4.915769
3.894492
3.085265
3.081185
3.201955
2.622900
2.649601
-4.960716
-4.914466
2.173452
-1.446810
-1.460715
-1.568647
-1.672929
-5.689304
-5.943912
-5.907639
-5.295004
2.575510
2.556765
2.479733
2.446427
-7.154454
-7.084094
-6.972552
-1.140891
-0.983582
-1.011938
0.402196
0.508967
0.715126
-0.036298
-5.149815
-4.708800
-5.056578
3.731100
3.645313
3.626116
1.413581
1.466921
0.941649
-4.245447
-5.382053
-5.035370
-5.156700
3.081094
3.234336
3.177177
-5.221114
-0.706868
-5.116893
-5.355837
-5.116552
-5.324633
-0.903342
-1.106118
3.138640
3.277841
-8.124479
-7.981146
-2.581921
-2.414244
-2.505854
-2.287984
-1.155223
-1.299716
-1.270715
-0.696077
-0.575284
-0.632418
1.514578
1.995137
1.683443
-0.645807
-4.186926
-4.520488
-4.094847
4.222364
4.260485
4.323868
-0.519207
-0.290357
-0.326541
-4.736873
-4.354519
-4.384034
-5.654839
-5.595434
-5.572894
2.144893
2.133019
2.441997
3.622179
3.690331
3.731720
3.808046
1.795699
-5.733388
-5.821679
-5.867095
-4.098715
-4.220419
-4.192337
2.522544
2.602924
2.599983
2.706000
2.480256
2.418710
2.285095
-5.285558
-5.598125
-5.537740
0.930486
-7.763072
-7.605091
-7.725065
-6.472918
-4.758575
-4.754882
-4.439455
-6.065675
-5.920854
-6.111618
-4.407620
2.832379
2.971607
-2.363955
-2.709614
-2.647716
-2.525629
-2.777272
-3.034978
-5.086860
-5.281594
-5.277077
-5.429396
-3.299431
1.231598
1.319504
1.303227
-7.246771
-7.352871
-7.267250
-5.578900
-5.633123
-5.419609
-5.719363
-5.809317
-5.796795
-5.885560
3.440908
4.366372
3.716543
3.885843
3.763631
-5.828656
-5.868089
-5.971459
4.313528
-6.117409
-6.047384
-0.386762
-0.287029
1.733228
1.744063
1.658483
2.967914
2.971053
3.087778
1.662892
3.205601
3.191759
-6.690203
-6.805411
-6.797171
-6.901660
-4.888157
-4.866506
-4.948257
-0.174794
-0.371709
-0.493296
1.659083
1.636998
1.871998
-4.105393
-3.965695
-4.070897
-4.002256
1.743042
2.699400
2.734560
2.634260
-0.279837
-0.274527
-0.188916
-2.017894
-2.100541
-2.434011
-6.331508
-6.443243
-6.330827
-4.326314
-6.453564
2.698502
-3.555371
-3.487754
-3.440695
-2.105515
-1.976084
-1.997710
-2.898417
-2.706344
-2.443720
-2.299793
-6.236020
-6.309013
2.415218
2.575460
2.491643
0.881110
0.799640
1.257370
1.242372
-6.647741
-6.760628
-6.767100
-6.905538
1.637911
1.816383
1.849465
1.743250
-7.978600
-7.530731
-7.831417
2.802720
2.825392
2.931168
-7.837222
3.100897
3.023205
2.641341
2.783374
-5.658776
-5.647067
-5.613621
-5.607645
-5.625395
-5.788065
-5.960290
-5.903760
-6.257964
-6.313002
-6.419536
-6.175574
0.836167
0.874210
0.803323
3.522350
3.525291
3.627545
-5.750320
-5.721003
-5.656016
3.443127
-5.657641
-5.679231
-5.746008
-5.428859
-5.632761
-5.456691
4.320320
4.274389
-5.708771
-5.849490
-5.564453
-5.720495
-2.061010
-2.171343
-2.218105
-5.530169
0.812009
0.872328
0.890307
0.966261
0.758037
0.836469
-0.109859
-0.060422
-0.041567
-7.098857
-7.007151
-6.973775
0.604317
4.136772
4.226662
4.132948
-1.798754
-1.924995
-2.080476
-3.076185
-3.255700
-3.240033
-3.116499
-0.267970
-0.356449
-5.586831
-5.525459
-5.519313
-1.105530
-1.028597
-1.043398
1.853617
1.927471
-4.157894
-4.326692
-4.340425
-0.965797
-5.446015
-2.533768
-2.420236
-5.307011
-5.470296
-5.365305
-5.494554
-8.044311
-8.356403
-8.265695
-8.151672
-6.024699
-6.097209
-5.968664
0.061458
0.089956
0.173382
-6.006862
-6.099453
-6.165657
-6.284387
-5.970968
1.596021
1.537137
1.534149
1.597777
1.253123
1.104911
1.143426
1.198579
1.034095
1.216797
1.081611
-7.022629
-7.170026
-7.065983
4.438383
4.413394
2.157815
2.211901
2.363002
2.428644
-6.951521
-6.838639
-5.996062
-5.994560
-5.947857
-6.504796
-6.505169
-5.903862
-5.896145
-5.958029
-5.844755
-6.266112
-6.105958
-6.445122
-6.359039
-6.569247
1.651352
1.615068
1.744098
1.724536
-8.161533
-7.974721
-8.196982
1.610929
1.542860
4.329592
1.508872
-7.475203
-7.583218
-7.544223
4.352663
1.161186
0.577825
0.884784
-7.662628
0.724925
-7.937156
-6.355972
-1.521782
-1.402119
-1.420098
-6.397949
-5.723635
-5.775753
-5.742576
-5.805699
-5.812595
-5.835925
-5.978389
-5.919746
3.311685
3.246744
3.363543
3.252562
-5.779146
-5.798041
-5.734107
-5.850664
2.076888
2.064226
2.260495
2.150473
-5.381692
-5.449573
-6.588046
-6.544486
1.765811
1.737514
1.862873
1.652912
1.657476
1.590236
-5.761519
-5.733516
-4.692134
-4.683370
-4.847134
-4.754882
2.013200
-4.842757
-5.012784
-5.118000
-4.574885
-1.279380
-1.164675
-1.225567
0.861407
0.371474
-1.085067
-5.338001
-5.286304
-5.235754
-5.196824
-3.468480
-3.576411
-0.235896
-0.374242
1.218573
1.161098
-0.425264
-5.489170
-5.202126
-5.329024
-4.870243
2.104434
2.198117
2.157631
2.316448
1.231463
1.385190
2.132341
2.176484
2.306929
-5.925446
-5.755715
-5.748668
3.768908
3.771061
3.916476
1.571724
1.548030
3.936494
1.383301
0.952673
1.559727
-2.709028
-2.653886
-2.581075
1.749318
-5.591622
-5.649225
1.757862
1.912385
1.946013
2.812090
2.718180
2.824898
-7.265886
-7.350803
2.671548
-6.894376
-6.970390
-6.882144
3.252697
3.126405
0.359457
0.073920
0.559462
-5.646998
-5.636537
-5.719250
-5.708936
-5.963763
-5.922480
-2.870823
-2.711321
-3.394720
-5.888770
-5.944746
-6.063855
-6.106378
-5.437431
-5.484313
0.413512
0.490672
0.328390
1.748088
1.825612
1.808616
1.858045
1.714772
1.802263
1.778548
1.687460
1.691661
-3.326862
-3.091171
-3.035429
-6.548926
-6.721654
-6.577700
-6.807778
-6.389195
-6.536920
-6.321918
1.244591
1.410735
1.433794
1.283060
4.675684
4.563738
4.593894
-5.670805
-5.700962
-5.663084
-2.048266
-2.358440
-2.130015
-5.723030
-4.693528
-4.352773
-4.540406
-4.566368
-3.267374
-3.091815
-3.139629
-4.916388
-5.225476
-7.454318
-7.362119
-7.413081
2.791698
2.772580
2.909440
-5.155303
3.419335
-5.349955
-5.344641
1.092947
1.244140
1.148542
1.219868
1.237345
0.941052
1.072955
4.834732
4.749013
4.749187
4.671120
4.430171
4.495134
4.505421
-5.994538
-6.041284
-6.075302
4.567560
-6.114896
-5.891477
-5.796886
-4.857482
-4.657615
-5.061677
-2.999222
-2.534126
-2.697946
3.493923
3.484790
3.406297
3.338935
-2.955926
0.717179
0.680794
1.256168
1.119300
1.088457
1.153708
1.113306
-4.970425
-4.965727
-4.889757
-5.043930
-5.712210
-5.595875
-5.619135
1.034243
0.955063
0.918324
0.835255
-5.564970
-5.645318
-5.585732
4.663343
-5.666174
4.581514
-5.535772
-5.417512
-4.171829
-4.046793
-2.602771
-2.762158
-5.071702
-4.904649
-4.870348
0.032313
0.034965
-6.802739
-6.904462
-6.885086
-7.005541
0.042108
0.122082
0.135467
0.020442
0.059488
0.100662
1.613990
1.707608
1.258570
2.101387
-3.725266
-4.269147
-1.666767
-1.826662
-1.649614
-1.758350
-0.533464
-0.472615
-0.361826
-0.423620
-0.407153
-0.474138
1.047450
1.151418
1.155617
-0.623452
-0.934668
-0.921624
1.079695
-1.273889
-1.304582
-1.185336
-1.222208
1.237732
1.148982
0.243535
0.620402
-5.364142
-5.116696
-5.119395
-4.822132
-7.629450
-7.653996
-7.782176
-7.536508
-0.733203
1.947010
1.870217
1.912686
1.869922
-7.549168
-7.479976
1.890390
-7.333959
-5.302142
-5.327282
-5.401988
-5.406082
-5.554604
-5.439518
-5.572129
1.728630
-3.228315
-3.297977
-3.366336
-5.387783
-5.309389
1.417204
1.365734
1.412283
-5.527863
-5.534453
2.961649
2.806677
2.893766
4.826652
4.737212
-5.590691
-5.461815
-8.478978
-8.541983
-4.742575
-4.730905
-4.808148
-4.637512
-0.880039
-0.893650
-0.792364
-0.833766
-4.878971
-4.851617
-4.867712
-0.409105
-4.919664
-5.394503
-5.269122
-5.254036
-1.093060
-1.306046
-3.878143
-3.783303
-3.891955
-3.795442
1.476703
1.528117
1.485913
1.517042
1.973999
1.984347
2.015382
1.867080
-1.574223
-1.610226
-1.723336
0.629047
0.626402
0.705383
-1.120667
-1.272408
0.564892
-4.913878
-4.868858
-8.677858
-8.487241
-4.802121
-4.971459
-7.407422
-5.000212
4.809688
4.957809
4.891980
4.687641
1.214493
1.407591
1.514129
-6.235784
-6.006564
-6.168300
-4.106568
-4.147318
-4.183129
-4.216526
4.480272
2.832141
2.923113
2.950831
-6.535054
-7.099865
-7.023121
-6.976160
-7.154854
2.593903
2.695957
-7.195053
-7.278829
-7.174382
-2.551301
1.672645
2.496335
2.563537
4.100324
3.927775
4.046790
2.436874
-4.701415
-4.771300
-4.707440
-4.776487
-3.997715
-3.933904
-4.026268
-6.979600
-7.091690
4.853591
4.787378
4.664860
-4.027262
-3.775086
-3.414794
4.587520
4.680341
4.617487
-2.535955
-2.605126
-3.128700
-3.843276
-5.523316
-5.329129
-5.130717
0.270365
0.039049
0.592602
-0.444329
-0.626810
-1.305581
-0.492168
-0.368899
-0.474198
-4.344934
-4.289312
-4.341293
-0.139697
-0.172744
-0.075120
-0.112492
-0.742008
-0.529904
-2.248645
-2.142002
-2.006991
-1.926590
-9.264363
-9.309487
-8.992073
-9.603588
-5.273787
-5.436042
-5.293222
-8.845899
-4.972070
0.919510
0.908101
0.986412
0.940682
1.812202
4.737399
4.642780
1.707209
4.346988
4.415706
-0.151199
-0.063145
1.758068
-3.992551
1.627904
1.219698
1.195033
1.270495
4.273274
4.276001
3.251482
3.130661
4.058319
3.884850
4.514251
4.617651
1.284818
4.073169
1.295364
1.211838
0.194515
0.175939
0.264867
-8.121131
-8.137543
-8.249900
-8.005224
0.091930
1.684693
1.545096
1.304906
1.428859
1.704000
-5.488674
-5.543033
-7.459544
-7.340525
-5.463855
-6.840657
-6.184002
1.692192
1.739005
1.738904
1.676747
1.780680
4.607750
4.670789
-0.430955
-0.458706
1.564018
1.480071
1.601555
1.354918
1.571765
-6.114889
-5.804078
-4.437220
-4.544643
-5.487758
-5.517003
-8.430563
-8.954595
-4.555969
-4.465413
-6.650423
-6.649664
-6.760765
-6.569949
0.268325
0.315529
-5.527462
-5.332827
-5.400285
-5.709353
-5.692341
-1.175161
-2.549306
-5.623033
-6.072275
-5.758968
-5.750869
0.859818
1.361280
-5.801497
1.546179
1.534250
1.656224
1.385779
-4.794107
4.423212
-6.676671
-6.757621
-4.785440
-4.676481
-4.505257
-2.008331
-1.832751
-1.897866
-6.569128
-6.588682
-0.091639
-0.019111
0.000124
2.815981
2.869138
2.781201
2.860057
1.831616
1.888467
1.779424
1.884533