# vtk DataFile Version 2.0
Test
ASCII
DATASET POLYDATA
POINTS 6352 float
0.000000 0.000000 0.000000
1.000000 0.000000 0.000000
1.000000 0.800000 0.000000
1.000000 1.000000 0.000000
0.000000 1.000000 0.000000
0.000000 0.200000 0.000000
0.300000 0.330000 0.000000
0.700000 0.680000 0.000000
0.050000 0.000000 0.000000
0.100000 0.000000 0.000000
0.150000 0.000000 0.000000
0.200000 0.000000 0.000000
0.250000 0.000000 0.000000
0.300000 0.000000 0.000000
0.350000 0.000000 0.000000
0.400000 0.000000 0.000000
0.450000 0.000000 0.000000
0.500000 0.000000 0.000000
0.550000 0.000000 0.000000
0.600000 0.000000 0.000000
0.650000 0.000000 0.000000
0.700000 0.000000 0.000000
0.750000 0.000000 0.000000
0.800000 0.000000 0.000000
0.850000 0.000000 0.000000
0.900000 0.000000 0.000000
0.950000 0.000000 0.000000
1.000000 0.048545 0.000000
1.000000 0.094438 0.000000
1.000000 0.137825 0.000000
1.000000 0.178843 0.000000
1.000000 0.217620 0.000000
1.000000 0.254280 0.000000
1.000000 0.288938 0.000000
1.000000 0.321703 0.000000
1.000000 0.352678 0.000000
1.000000 0.381962 0.000000
1.000000 0.409647 0.000000
1.000000 0.435820 0.000000
1.000000 0.460563 0.000000
1.000000 0.483955 0.000000
1.000000 0.506070 0.000000
1.000000 0.526976 0.000000
1.000000 0.546741 0.000000
1.000000 0.565427 0.000000
1.000000 0.583092 0.000000
1.000000 0.599793 0.000000
1.000000 0.615581 0.000000
1.000000 0.630507 0.000000
1.000000 0.644618 0.000000
1.000000 0.657958 0.000000
1.000000 0.670570 0.000000
1.000000 0.682493 0.000000
1.000000 0.693765 0.000000
1.000000 0.704421 0.000000
1.000000 0.714495 0.000000
1.000000 0.724019 0.000000
1.000000 0.733023 0.000000
1.000000 0.741536 0.000000
1.000000 0.749583 0.000000
1.000000 0.757191 0.000000
1.000000 0.764383 0.000000
1.000000 0.771183 0.000000
1.000000 0.777611 0.000000
1.000000 0.783688 0.000000
1.000000 0.789434 0.000000
1.000000 0.794865 0.000000
1.000000 0.805174 0.000000
1.000000 0.811554 0.000000
1.000000 0.819418 0.000000
1.000000 0.829114 0.000000
1.000000 0.841067 0.000000
1.000000 0.855804 0.000000
1.000000 0.873972 0.000000
1.000000 0.896371 0.000000
1.000000 0.923985 0.000000
1.000000 0.958029 0.000000
0.950000 1.000000 0.000000
0.900000 1.000000 0.000000
0.850000 1.000000 0.000000
0.800000 1.000000 0.000000
0.750000 1.000000 0.000000
0.700000 1.000000 0.000000
0.650000 1.000000 0.000000
0.600000 1.000000 0.000000
0.550000 1.000000 0.000000
0.500000 1.000000 0.000000
0.450000 1.000000 0.000000
0.400000 1.000000 0.000000
0.350000 1.000000 0.000000
0.300000 1.000000 0.000000
0.250000 1.000000 0.000000
0.200000 1.000000 0.000000
0.150000 1.000000 0.000000
0.100000 1.000000 0.000000
0.050000 1.000000 0.000000
0.000000 0.951455 0.000000
0.000000 0.905562 0.000000
0.000000 0.862175 0.000000
0.000000 0.821157 0.000000
0.000000 0.782380 0.000000
0.000000 0.745720 0.000000
0.000000 0.711062 0.000000
0.000000 0.678297 0.000000
0.000000 0.647322 0.000000
0.000000 0.618038 0.000000
0.000000 0.590353 0.000000
0.000000 0.564180 0.000000
0.000000 0.539437 0.000000
0.000000 0.516045 0.000000
0.000000 0.493930 0.000000
0.000000 0.473024 0.000000
0.000000 0.453259 0.000000
0.000000 0.434573 0.000000
0.000000 0.416908 0.000000
0.000000 0.400207 0.000000
0.000000 0.384419 0.000000
0.000000 0.369493 0.000000
0.000000 0.355382 0.000000
0.000000 0.342042 0.000000
0.000000 0.329430 0.000000
0.000000 0.317507 0.000000
0.000000 0.306235 0.000000
0.000000 0.295579 0.000000
0.000000 0.285505 0.000000
0.000000 0.275981 0.000000
0.000000 0.266977 0.000000
0.000000 0.258464 0.000000
0.000000 0.250417 0.000000
0.000000 0.242809 0.000000
0.000000 0.235617 0.000000
0.000000 0.228817 0.000000
0.000000 0.222389 0.000000
0.000000 0.216312 0.000000
0.000000 0.210566 0.000000
0.000000 0.205135 0.000000
0.000000 0.194826 0.000000
0.000000 0.188446 0.000000
0.000000 0.180582 0.000000
0.000000 0.170886 0.000000
0.000000 0.158933 0.000000
0.000000 0.144196 0.000000
0.000000 0.126028 0.000000
0.000000 0.103629 0.000000
0.000000 0.076015 0.000000
0.000000 0.041971 0.000000
0.303738 0.333271 0.000000
0.307477 0.336542 0.000000
0.311215 0.339813 0.000000
0.314953 0.343084 0.000000
0.318692 0.346355 0.000000
0.322430 0.349626 0.000000
0.326168 0.352897 0.000000
0.329907 0.356168 0.000000
0.333645 0.359439 0.000000
0.337383 0.362710 0.000000
0.341121 0.365981 0.000000
0.344860 0.369252 0.000000
0.348598 0.372523 0.000000
0.352336 0.375794 0.000000
0.356075 0.379065 0.000000
0.359813 0.382336 0.000000
0.363551 0.385607 0.000000
0.367290 0.388879 0.000000
0.371028 0.392150 0.000000
0.374766 0.395421 0.000000
0.378505 0.398692 0.000000
0.382243 0.401963 0.000000
0.385981 0.405234 0.000000
0.389720 0.408505 0.000000
0.393458 0.411776 0.000000
0.397196 0.415047 0.000000
0.400935 0.418318 0.000000
0.404673 0.421589 0.000000
0.408411 0.424860 0.000000
0.412150 0.428131 0.000000
0.415888 0.431402 0.000000
0.419626 0.434673 0.000000
0.423364 0.437944 0.000000
0.427103 0.441215 0.000000
0.430841 0.444486 0.000000
0.434579 0.447757 0.000000
0.438318 0.451028 0.000000
0.442056 0.454299 0.000000
0.445794 0.457570 0.000000
0.449533 0.460841 0.000000
0.453271 0.464112 0.000000
0.457009 0.467383 0.000000
0.460748 0.470654 0.000000
0.464486 0.473925 0.000000
0.468224 0.477196 0.000000
0.471963 0.480467 0.000000
0.475701 0.483738 0.000000
0.479439 0.487009 0.000000
0.483178 0.490280 0.000000
0.486916 0.493551 0.000000
0.490654 0.496822 0.000000
0.494393 0.500093 0.000000
0.498131 0.503364 0.000000
0.501869 0.506636 0.000000
0.505607 0.509907 0.000000
0.509346 0.513178 0.000000
0.513084 0.516449 0.000000
0.516822 0.519720 0.000000
0.520561 0.522991 0.000000
0.524299 0.526262 0.000000
0.528037 0.529533 0.000000
0.531776 0.532804 0.000000
0.535514 0.536075 0.000000
0.539252 0.539346 0.000000
0.542991 0.542617 0.000000
0.546729 0.545888 0.000000
0.550467 0.549159 0.000000
0.554206 0.552430 0.000000
0.557944 0.555701 0.000000
0.561682 0.558972 0.000000
0.565421 0.562243 0.000000
0.569159 0.565514 0.000000
0.572897 0.568785 0.000000
0.576636 0.572056 0.000000
0.580374 0.575327 0.000000
0.584112 0.578598 0.000000
0.587850 0.581869 0.000000
0.591589 0.585140 0.000000
0.595327 0.588411 0.000000
0.599065 0.591682 0.000000
0.602804 0.594953 0.000000
0.606542 0.598224 0.000000
0.610280 0.601495 0.000000
0.614019 0.604766 0.000000
0.617757 0.608037 0.000000
0.621495 0.611308 0.000000
0.625234 0.614579 0.000000
0.628972 0.617850 0.000000
0.632710 0.621121 0.000000
0.636449 0.624393 0.000000
0.640187 0.627664 0.000000
0.643925 0.630935 0.000000
0.647664 0.634206 0.000000
0.651402 0.637477 0.000000
0.655140 0.640748 0.000000
0.658879 0.644019 0.000000
0.662617 0.647290 0.000000
0.666355 0.650561 0.000000
0.670093 0.653832 0.000000
0.673832 0.657103 0.000000
0.677570 0.660374 0.000000
0.681308 0.663645 0.000000
0.685047 0.666916 0.000000
0.688785 0.670187 0.000000
0.692523 0.673458 0.000000
0.696262 0.676729 0.000000
0.004545 0.201970 0.000000
0.009091 0.203939 0.000000
0.013636 0.205909 0.000000
0.018182 0.207879 0.000000
0.022727 0.209848 0.000000
0.027273 0.211818 0.000000
0.031818 0.213788 0.000000
0.036364 0.215758 0.000000
0.040909 0.217727 0.000000
0.045455 0.219697 0.000000
0.050000 0.221667 0.000000
0.054545 0.223636 0.000000
0.059091 0.225606 0.000000
0.063636 0.227576 0.000000
0.068182 0.229545 0.000000
0.072727 0.231515 0.000000
0.077273 0.233485 0.000000
0.081818 0.235455 0.000000
0.086364 0.237424 0.000000
0.090909 0.239394 0.000000
0.095455 0.241364 0.000000
0.100000 0.243333 0.000000
0.104545 0.245303 0.000000
0.109091 0.247273 0.000000
0.113636 0.249242 0.000000
0.118182 0.251212 0.000000
0.122727 0.253182 0.000000
0.127273 0.255152 0.000000
0.131818 0.257121 0.000000
0.136364 0.259091 0.000000
0.140909 0.261061 0.000000
0.145455 0.263030 0.000000
0.150000 0.265000 0.000000
0.154545 0.266970 0.000000
0.159091 0.268939 0.000000
0.163636 0.270909 0.000000
0.168182 0.272879 0.000000
0.172727 0.274848 0.000000
0.177273 0.276818 0.000000
0.181818 0.278788 0.000000
0.186364 0.280758 0.000000
0.190909 0.282727 0.000000
0.195455 0.284697 0.000000
0.200000 0.286667 0.000000
0.204545 0.288636 0.000000
0.209091 0.290606 0.000000
0.213636 0.292576 0.000000
0.218182 0.294545 0.000000
0.222727 0.296515 0.000000
0.227273 0.298485 0.000000
0.231818 0.300455 0.000000
0.236364 0.302424 0.000000
0.240909 0.304394 0.000000
0.245455 0.306364 0.000000
0.250000 0.308333 0.000000
0.254545 0.310303 0.000000
0.259091 0.312273 0.000000
0.263636 0.314242 0.000000
0.268182 0.316212 0.000000
0.272727 0.318182 0.000000
0.277273 0.320152 0.000000
0.281818 0.322121 0.000000
0.286364 0.324091 0.000000
0.290909 0.326061 0.000000
0.295455 0.328030 0.000000
0.704615 0.681846 0.000000
0.709231 0.683692 0.000000
0.713846 0.685538 0.000000
0.718462 0.687385 0.000000
0.723077 0.689231 0.000000
0.727692 0.691077 0.000000
0.732308 0.692923 0.000000
0.736923 0.694769 0.000000
0.741538 0.696615 0.000000
0.746154 0.698462 0.000000
0.750769 0.700308 0.000000
0.755385 0.702154 0.000000
0.760000 0.704000 0.000000
0.764615 0.705846 0.000000
0.769231 0.707692 0.000000
0.773846 0.709538 0.000000
0.778462 0.711385 0.000000
0.783077 0.713231 0.000000
0.787692 0.715077 0.000000
0.792308 0.716923 0.000000
0.796923 0.718769 0.000000
0.801538 0.720615 0.000000
0.806154 0.722462 0.000000
0.810769 0.724308 0.000000
0.815385 0.726154 0.000000
0.820000 0.728000 0.000000
0.824615 0.729846 0.000000
0.829231 0.731692 0.000000
0.833846 0.733538 0.000000
0.838462 0.735385 0.000000
0.843077 0.737231 0.000000
0.847692 0.739077 0.000000
0.852308 0.740923 0.000000
0.856923 0.742769 0.000000
0.861538 0.744615 0.000000
0.866154 0.746462 0.000000
0.870769 0.748308 0.000000
0.875385 0.750154 0.000000
0.880000 0.752000 0.000000
0.884615 0.753846 0.000000
0.889231 0.755692 0.000000
0.893846 0.757538 0.000000
0.898462 0.759385 0.000000
0.903077 0.761231 0.000000
0.907692 0.763077 0.000000
0.912308 0.764923 0.000000
0.916923 0.766769 0.000000
0.921538 0.768615 0.000000
0.926154 0.770462 0.000000
0.930769 0.772308 0.000000
[...]
POINT_DATA 6352
SCALARS UX float 1
LOOKUP_TABLE default
-0.000005
0.000006
5.240582
1.193616
-12.468929
-7.987926
-3.878218
-0.813384
0.000000
-0.000001
-0.000000
-0.000000
-0.000000
-0.000000
-0.000000
-0.000000
-0.000000
-0.000000
-0.000000
0.000000
0.000000
0.000000
0.000000
0.000000
0.000000
0.000001
-0.000001
1.570404
2.452950
3.018724
3.484424
3.832292
4.146176
4.420695
4.657104
4.864953
5.043403
5.196429
5.325846
5.435313
5.526663
5.601072
5.660261
5.705658
5.740072
5.764772
5.780892
5.789110
5.791484
5.787811
5.780433
5.767079
5.751040
5.731197
5.707902
5.681417
5.653291
5.622730
5.590109
5.555618
5.519176
5.482435
5.443982
5.404092
5.363607
5.322500
5.281095
5.195766
5.137034
5.053485
4.934508
4.763426
4.495938
4.103757
3.466338
2.635198
1.735901
-0.179733
-1.057332
-1.678283
-2.204137
-2.683331
-3.176933
-3.687766
-4.219522
-4.780119
-5.381627
-6.026025
-6.707876
-7.433322
-8.167415
-8.903474
-9.637802
-10.363966
-11.078757
-11.781339
-12.335851
-12.201158
-12.059672
-11.925036
-11.796304
-11.674467
-11.558984
-11.449591
-11.345253
-11.243102
-11.141938
-11.040631
-10.938122
-10.833005
-10.724638
-10.618737
-10.506568
-10.394256
-10.281855
-10.166889
-10.052861
-9.939999
-9.825922
-9.713807
-9.602377
-9.491814
-9.382515
-9.273863
-9.166372
-9.059720
-8.955347
-8.851750
-8.749523
-8.648701
-8.549894
-8.452446
-8.356010
-8.261091
-8.168002
-8.076977
-7.893871
-7.772633
-7.611482
-7.396444
-7.109219
-6.698564
-6.148794
-5.346778
-4.186372
-2.421147
-3.853596
-3.817273
-3.789837
-3.741253
-3.677180
-3.744897
-3.725113
-3.700444
-3.709279
-3.723580
-3.685542
-3.689936
-3.669182
-3.629420
-3.590531
-3.528933
-3.510452
-3.507241
-3.416085
-3.438154
-3.980655
-3.862613
-3.802671
-3.730597
-3.699733
-3.633782
-3.636264
-3.501522
-3.409007
-3.375713
-3.376214
-3.375771
-3.303811
-3.259369
-3.285005
-3.211618
-3.201263
-3.194258
-3.147880
-3.095637
-3.013976
-3.003211
-2.964485
-2.887147
-2.820428
-2.757978
-2.800041
-2.775047
-2.721199
-2.694560
-2.662151
-2.652417
-2.737021
-2.624770
-2.534755
-2.522622
-2.486053
-2.432950
-2.346954
-2.420519
-2.335705
-2.284886
-2.335286
-2.288223
-2.246695
-2.157635
-2.140661
-2.034202
-1.987967
-1.977463
-1.974935
-1.921593
-1.938577
-1.962892
-1.975513
-1.931600
-1.886456
-1.875395
-1.806375
-1.953637
-1.886510
-1.880348
-1.831357
-1.841031
-1.941290
-1.933034
-1.884269
-1.852383
-1.754639
-1.787710
-1.690879
-1.775240
-1.733973
-1.734771
-1.729052
-1.688361
-1.719589
-1.690862
-1.611372
-1.510500
-1.351179
-1.207090
-1.143617
-1.041923
-0.966191
-0.892944
-7.965495
-7.942701
-7.919919
-7.896476
-7.872388
-7.847489
-7.821276
-7.794555
-7.767068
-7.739127
-7.709783
-7.679840
-7.650156
-7.620120
-7.587651
-7.554885
-7.522499
-7.490071
-7.457154
-7.422829
-7.388748
-7.354344
-7.317563
-7.280955
-7.242879
-7.204524
-7.165207
-7.125677
-7.086075
-7.045856
-7.005103
-6.963163
-6.918872
-6.874279
-6.828615
-6.782111
-6.733560
-6.683666
-6.632712
-6.578859
-6.524231
-6.467267
-6.406248
-6.342046
-6.277098
-6.210844
-6.143866
-6.073088
-6.000196
-5.927793
-5.855796
-5.771754
-5.650294
-5.574531
-5.595236
-5.499950
-5.378583
-5.255675
-5.137260
-5.013648
-4.799633
-4.678357
-4.540919
-4.317217
-4.196090
-0.449018
-0.079895
0.241052
0.420918
0.665719
0.949973
1.154473
1.223819
1.422092
1.589655
1.572175
1.681425
1.830085
1.966797
2.071796
2.085739
2.190332
2.317207
2.409473
2.510991
2.557569
2.654968
2.736818
2.820978
2.906967
2.984906
3.062100
3.137167
3.210769
3.284934
3.356088
3.423632
3.492454
3.560003
3.625408
3.689161
3.751993
3.814084
3.876628
3.936417
3.996464
4.056952
4.116394
4.174137
4.233016
4.290297
4.346149
4.401331
4.455638
4.509221
4.561769
4.613236
4.663803
4.714304
4.765118
4.814849
4.863764
4.912235
4.960563
5.007719
5.054192
5.100600
5.146948
5.193550
2.213550
2.217367
2.337175
2.119253
0.078701
0.044529
0.121802
0.036593
-5.165875
-5.254446
-4.630381
-4.826324
-4.029949
-4.975046
-9.038709
-8.866075
-8.969635
-8.829058
-4.922305
-0.992163
-0.838077
-0.857328
-0.691068
-2.435691
-2.429670
-2.190356
-2.728625
-1.513354
-1.550042
-1.402268
-3.773786
-3.574585
-3.841015
-3.564997
4.004145
3.866141
4.126779
3.828969
-0.464857
-0.682959
-0.416331
-0.762592
-8.512161
-8.475655
-8.630906
-7.642712
-7.649622
-7.510844
-7.726073
-7.694116
-7.806647
3.101762
3.428745
3.194809
3.396971
-0.159635
-0.110665
-0.050432
-2.344086
-2.548361
-1.646369
4.138879
4.302788
4.306843
-4.756657
-4.987124
-4.908747
-5.424965
-4.854543
-4.615379
3.776112
3.842167
3.710853
-4.911531
-7.537141
-7.565956
-7.394498
-0.902497
-1.010787
-1.048444
-0.900441
1.459253
1.376244
1.396485
-2.557726
-2.754749
-3.168117
1.391136
2.190150
2.279120
2.161900
-1.852129
-2.106111
-1.770276
2.245751
2.295761
2.144990
1.314384
1.302888
1.378750
-2.436264
-2.640431
-2.451491
1.243299
-0.339986
-0.210298
-0.231506
-2.018988
-7.340659
-7.440122
-7.380158
-0.253802
2.180997
2.108835
2.211006
-1.873572
-1.935993
-1.657077
3.535154
3.486465
3.444387
3.404835
3.380278
3.339613
-7.449426
-7.844156
-7.320731
-7.642217
-1.048865
-0.892538
-0.922245
2.191928
3.660991
-0.749465
-9.793437
-9.597319
-9.723684
-7.325652
-7.463490
-7.334424
-0.482970
-0.038534
0.010989
-9.503251
2.563300
2.504535
2.582712
2.456752
-2.622076
-2.361044
-2.303264
0.422449
-6.458420
-6.483841
-6.414820
-0.405945
-0.471523
-0.376251
-0.453509
3.454272
3.359211
3.320014
-1.919138
2.228424
2.049161
2.103463
-9.294562
-9.218632
-9.123631
3.279132
3.371275
3.271812
3.308843
-7.576629
-7.462610
-7.588279
-7.461718
-1.334124
-1.205736
-1.260152
3.231627
-5.451970
-5.781364
-4.816980
-1.237094
-4.826208
-5.304962
-5.688462
-4.914367
4.006624
4.229072
-5.821544
3.986518
-7.031589
-6.999669
-6.946251
-7.071255
-1.579743
-1.630985
-1.798330
-0.858655
-6.527673
-4.746697
-6.713389
-6.707511
-6.773953
-6.655218
1.716727
1.672054
1.645744
1.598077
-7.332607
-7.309355
-1.399733
-6.952722
-6.939760
-7.025346
-6.976550
-0.721858
-0.682792
-0.632403
3.566255
3.581006
3.446928
-0.772954
3.698632
-3.351243
-2.956247
-2.819413
3.846211
3.865698
3.745391
-2.586705
-5.097255
-5.156195
-5.201791
3.954520
-5.251472
-7.421726
-7.401632
-7.325282
-5.043482
-4.998529
-4.954377
-7.268652
2.278003
2.223995
2.132421
0.926852
0.882810
0.982309
-1.768014
-1.851836
-1.572994
-5.611500
-5.490555
-5.599446
2.063596
2.113991
2.058675
2.145638
-0.042553
-0.140114
-0.053823
0.912934
2.101586
0.889278
0.859285
0.810889
2.419298
2.615961
2.512086
2.779481
3.148070
3.206520
3.117758
3.186946
5.018060
4.911749
4.846671
-4.775514
-4.583266
-4.195249
-5.345993
4.710957
0.262275
0.459377
0.252109
-5.620503
-5.533705
-5.623160
2.325915
2.274360
2.381211
4.908979
5.129314
2.234781
-10.282469
-10.439315
-10.180671
4.992367
4.938076
4.911322
4.846759
-4.011410
-3.691818
2.164785
2.177496
2.101324
-5.733467
-5.763975
-5.921604
-5.892395
3.747315
-5.494548
3.596560
3.627190
-5.931008
-6.041588
-5.978429
-6.901727
-6.722950
-6.885783
-6.765175
-7.948682
-8.077498
-8.062380
-8.190314
-7.815078
-7.805747
-7.674350
-6.974835
-6.733509
-6.846304
-8.283586
-8.164818
-8.301593
-6.667138
-0.554934
-0.681607
-0.613320
0.952014
0.891691
-8.013733
-7.973357
-7.890485
-8.117443
-7.278307
-7.352182
-7.273994
-7.359595
-6.353207
-6.498086
-6.449536
-6.577042
-8.864243
-8.917188
-9.031680
-7.581563
-8.780140
-1.266281
-1.236454
-0.718485
-4.447920
-4.636377
-4.021519
-4.913805
3.650590
3.752723
3.635194
3.799086
-8.031220
-8.177415
2.641513
2.636553
2.457887
-6.692318
-6.659067
2.478220
4.247042
4.319223
4.354198
4.425458
4.163290
4.137661
4.043464
-6.745505
0.578255
0.474898
0.602060
0.428350
3.255280
3.150694
3.315305
-6.402060
-6.172402
-6.342327
-5.959940
4.699311
4.687397
4.769633
4.611735
-11.047949
-10.824811
-10.839843
-10.626219
-7.503738
-7.658423
-0.010831
0.231907
-0.464046
-0.526879
-8.245282
-7.915398
-7.893082
-7.622741
3.921091
4.046848
3.811505
3.918601
3.742616
-2.230257
-2.099818
-2.443419
3.870097
3.946193
4.033878
-2.016595
-2.137068
-1.422206
3.025999
2.905406
3.079776
2.853014
3.781230
3.684770
3.613765
-0.223525
-0.165077
-7.374035
-7.453432
-7.309494
-3.376786
-3.359469
-3.188924
2.347342
2.394787
-7.278662
-7.243332
-7.080346
-7.100075
-6.837334
-6.833919
-6.725249
4.123663
-2.600714
-2.829807
-2.556059
4.338109
-6.867966
-6.934621
-6.856135
-1.477750
-1.572198
-1.940799
-6.920124
-1.538301
-1.850627
-1.914199
-6.923502
-6.223340
-6.458462
-6.497494
-0.304346
-0.371699
-0.570095
3.526289
3.600061
3.388425
-5.743838
-5.682535
-7.231916
-7.244844
-3.097895
-2.975459
-3.336562
-7.377729
-3.396528
-3.147480
-3.078470
-2.883136
-7.160608
-7.134270
-7.034821
-7.270566
-6.250427
-6.494933
-6.518768
-6.770568
-5.616816
-5.832409
-6.002430
2.663801
2.740178
2.834164
-0.130881
-0.262059
-0.117702
-7.950513
-8.090178
-5.363264
2.845667
-7.037303
-6.999784
-7.225409
-6.765176
-10.781738
-10.591913
-10.593807
-10.452843
-3.300916
-3.206073
-3.390828
-7.104554
-6.969984
-7.189233
-7.027652
-9.331187
-9.041847
-9.187490
2.457295
2.757213
2.653551
-7.227381
-7.048939
-7.286264
-7.339225
-7.402297
-0.759154
-0.141978
-0.218792
-7.433506
-7.117591
-6.172874
-6.061768
3.915320
4.086676
4.082372
-0.549410
-0.792929
0.375180
-6.440747
-6.465077
-6.396276
-6.480642
-6.682119
-6.641492
-7.307888
-7.434044
-7.276855
-6.537681
-6.812784
-6.563925
-0.326133
-0.245312
-0.347283
-3.592957
-3.404860
-0.192775
-6.277546
-6.705371
-7.698980
-7.637589
-7.711282
-3.702910
-3.786794
-3.845843
-3.638392
-3.485049
-3.283891
-3.499215
-3.069763
-7.814004
-7.736126
-7.707984
-7.636964
-2.378954
-1.840648
-2.672867
3.587996
3.469167
3.635127
3.492456
-6.825033
-6.905999
-6.815211
-6.528095
-6.063531
-6.471184
-6.920667
-6.531825
-6.738761
-6.749463
4.006129
3.738507
3.977983
3.681714
-7.619869
-7.662654
-7.771930
4.281019
4.350455
4.447708
1.915843
2.007181
1.928967
1.999074
-8.958829
-8.813899
-8.703965
-7.516202
-7.603563
-7.632398
-7.721104
4.134164
4.119141
4.243961
-4.508457
-4.558882
-4.620459
1.949610
1.973753
2.080031
2.121371
2.000034
1.888813
1.872399
-1.082036
-0.976901
-1.051386
-0.519750
-0.431189
-0.521209
-1.025976
-8.111352
-8.195228
-8.078634
-0.496303
-0.590561
-0.560687
-4.436874
-4.401128
-7.763591
-7.686360
-7.647226
4.907140
4.987423
4.913803
-7.547809
-4.329778
2.053679
1.204581
1.730150
-7.201372
-7.296888
-7.425299
-6.406122
-6.489872
-7.014064
-7.009654
-7.171198
3.641605
3.860062
3.837688
-8.055705
-8.142701
-8.215173
-8.267593
-6.973390
-6.993815
-6.870151
-7.066574
-4.633236
-4.745468
-4.691340
-4.717231
3.168473
3.224692
3.470333
2.912584
3.479815
3.702282
4.156012
4.222891
4.273181
5.346249
5.440534
5.432781
4.351427
3.476842
3.471016
3.613011
2.913312
2.930970
-5.899250
-5.836641
2.336461
-1.614183
-1.638525
-1.756048
-1.882825
-6.836324
-7.138147
-7.097985
-6.461337
2.794778
2.774082
2.689822
2.652943
-8.529983
-8.444878
-8.331347
-1.363203
-1.142407
-1.197488
0.258679
0.415276
0.649562
-0.229950
-6.085017
-5.559017
-6.005857
4.146304
4.063349
4.032781
1.375266
1.435583
0.732716
-5.071225
-6.325132
-5.837972
-5.969221
3.337069
3.501342
3.441513
-6.105799
-0.697642
-6.062319
-6.177075
-5.973539
-6.261930
-1.045798
-1.287943
3.397337
3.546231
-9.540842
-9.378628
-3.481295
-3.287450
-3.410396
-3.144725
-1.179872
-1.336860
-1.300970
-0.750522
-0.621146
-0.696371
1.341552
2.003938
1.557980
-0.686283
-4.841576
-5.288986
-4.723109
4.734283
4.765578
4.837282
-0.693629
-0.419303
-0.468237
-5.684300
-5.200417
-5.239326
-6.779838
-6.655043
-6.516395
2.277146
2.266007
2.670676
4.059303
4.125972
4.175748
4.249011
1.805258
-6.828101
-6.857061
-6.961489
-5.169077
-5.300234
-5.279129
2.762915
2.850069
2.872771
2.961965
2.715580
2.624648
2.534207
-6.320157
-6.708714
-6.635332
0.946905
-9.121575
-8.950081
-9.079010
-7.701581
-5.616248
-5.614872
-5.192204
-7.233090
-7.059914
-7.283517
-5.152595
3.068515
3.218721
-2.590706
-3.046391
-2.896344
-2.696922
-3.008012
-3.332357
-6.066792
-6.310938
-6.296337
-6.499377
-3.675123
1.309554
1.409531
1.386512
-8.566431
-8.681687
-8.583984
-6.633048
-6.680437
-6.441731
-6.843510
-6.918731
-6.894758
-6.980371
3.914045
4.873814
4.010369
4.194850
4.063815
-6.976417
-7.021280
-7.144087
4.814497
-7.313054
-7.233905
-0.371373
-0.269895
1.811043
1.820390
1.714882
3.334844
3.337708
3.476852
1.717881
3.613230
3.598495
-7.958278
-8.083729
-8.076613
-8.189628
-5.939469
-5.918446
-6.019589
-0.318205
-0.583271
-0.681762
1.793129
1.768773
2.024164
-5.205452
-5.055019
-5.178393
-5.083195
1.882842
2.933827
2.975801
2.863708
-0.324421
-0.309333
-0.222316
-2.195370
-2.292017
-2.686708
-7.509302
-7.639564
-7.512712
-5.036893
-7.655606
2.940154
-4.593700
-4.511145
-4.469699
-3.036730
-2.891842
-2.915558
-3.194949
-2.952200
-2.636069
-2.459895
-7.397097
-7.480535
2.614858
2.787317
2.698547
0.495953
0.461876
1.212556
1.086812
-7.901472
-8.024950
-8.034510
-8.185349
1.623226
1.821454
1.846979
1.710639
-9.573880
-9.076592
-9.422746
3.132447
3.160278
3.288556
-9.403985
3.489389
3.398748
2.939508
3.083269
-6.824531
-6.803464
-6.768299
-6.695590
-6.713701
-6.911745
-7.115246
-7.052036
-7.485362
-7.545498
-7.666276
-7.389754
0.831190
0.870370
0.786606
3.983188
3.982348
4.095308
-6.982207
-6.942391
-6.874430
3.892748
-6.883692
-6.914391
-6.984571
-6.407266
-6.696070
-6.445046
4.901668
4.851963
-6.797647
-6.925951
-6.574411
-6.717935
-2.984067
-3.106577
-3.161619
-6.577459
0.809274
0.878571
0.893515
1.039145
0.820832
0.899333
-0.115293
-0.055989
-0.045539
-8.402904
-8.305167
-8.267214
0.657333
4.660587
4.754020
4.661142
-2.565396
-2.720900
-2.923233
-3.992570
-4.206318
-4.181817
-4.029404
-0.257057
-0.348070
-6.792807
-6.718963
-6.720167
-1.193827
-1.103228
-1.134349
1.993174
2.074569
-5.289395
-5.480801
-5.483937
-1.040397
-6.633133
-3.456920
-3.326561
-6.307737
-6.513592
-6.372170
-6.541641
-9.575400
-9.920062
-9.803613
-9.713776
-7.327154
-7.400347
-7.259706
0.041371
0.083151
0.163889
-7.295192
-7.416765
-7.386054
-7.519850
-7.279985
1.690204
1.619752
1.622515
1.683911
1.353321
1.194524
1.235533
1.294810
1.118662
1.313001
1.168301
-8.371147
-8.530469
-8.410256
5.040158
5.011936
2.377637
2.456541
2.647919
2.723216
-8.285658
-8.163097
-7.140476
-7.136343
-7.076371
-7.814733
-7.813292
-7.107755
-7.106273
-7.175073
-7.045348
-7.602323
-7.433615
-7.799900
-7.697443
-7.929279
1.781973
1.742971
1.884690
1.863928
-9.657268
-9.463471
-9.711724
1.735883
1.662199
4.924970
1.622402
-8.813407
-8.929113
-8.888775
4.951546
1.485149
-0.008121
0.414389
-9.016002
0.285763
-9.440477
-7.648585
-1.647090
-1.507128
-1.553506
-7.698759
-6.899618
-6.958248
-6.914578
-6.987700
-7.062323
-7.095599
-7.247978
-7.193228
3.611122
3.534596
3.662655
3.537515
-6.983566
-6.997285
-6.926211
-7.059409
2.270300
2.244899
2.498859
2.380744
-6.409532
-6.496525
-7.893029
-7.843283
1.891257
1.864272
2.006797
1.758347
1.757542
1.690237
-6.917112
-6.877576
-5.877519
-5.874805
-6.056183
-5.960802
2.179503
-5.789096
-5.985302
-6.123485
-5.422038
-1.461461
-1.320050
-1.412706
0.464001
-0.189182
-1.224729
-6.533323
-6.467834
-6.421782
-6.367957
-4.473968
-4.593828
-0.228760
-0.364614
1.289069
1.227917
-0.413948
-6.508789
-6.072331
-6.275282
-5.688776
2.324038
2.462641
2.300618
2.532071
1.326939
1.492350
2.309598
2.356390
2.498352
-7.081512
-6.881526
-6.869831
4.297490
4.300600
4.466692
1.692067
1.668980
4.487863
1.298139
0.908608
1.388445
-3.691320
-3.624727
-3.549895
1.884116
-6.783036
-6.845004
1.895829
2.060889
2.099679
3.130083
3.028869
3.132306
-8.568744
-8.664756
2.956502
-8.193785
-8.276946
-8.182171
3.636306
3.502213
0.260872
-0.098982
0.487117
-6.711527
-6.691100
-6.805774
-6.779997
-7.096012
-7.031437
-3.142027
-2.934667
-3.823520
-7.098698
-7.161584
-7.303224
-7.349090
-6.630497
-6.688708
0.462951
0.542885
0.371562
1.818959
1.915587
1.956163
2.010303
1.853704
1.894766
1.854351
1.738024
1.740649
-4.265875
-3.992285
-3.927566
-7.926252
-8.112920
-7.949243
-8.196894
-7.754039
-7.921215
-7.687975
1.210288
1.413439
1.439107
1.260709
5.124187
5.008917
5.030905
-6.819984
-6.851146
-6.802685
-2.135318
-2.497486
-2.225840
-6.883737
-5.504869
-5.054390
-5.280200
-5.343403
-4.221223
-4.015909
-4.085423
-5.825025
-6.178427
-8.810583
-8.713055
-8.764758
3.028113
3.006859
3.154206
-6.063307
3.674188
-6.358508
-6.374553
0.998844
1.207453
1.066182
1.184521
1.182240
0.704374
0.941807
5.391457
5.309792
5.301966
5.227963
5.007069
5.071063
5.086448
-7.127352
-7.201351
-7.240115
5.145814
-7.283570
-7.004900
-6.913496
-5.809119
-5.546356
-6.018136
-3.322908
-2.747483
-2.954767
3.786728
3.779012
3.692269
3.620999
-3.267303
0.454113
0.369341
1.156739
1.140082
1.112709
1.186120
1.147285
-6.124448
-6.111383
-6.032589
-6.201111
-6.958021
-6.826711
-6.859671
1.114238
1.026647
0.989963
0.897042
-6.647099
-6.755620
-6.673005
5.211461
-6.783545
5.133403
-6.612184
-6.459293
-4.875761
-4.737764
-3.560708
-3.734941
-6.293521
-6.099252
-6.073517
0.029395
0.040284
-8.120995
-8.229947
-8.211186
-8.339371
0.054905
0.136453
0.158794
-0.019827
0.030412
0.069489
1.570849
1.690406
1.075675
2.229157
-4.312363
-5.022492
-1.812179
-1.982003
-1.776115
-1.888564
-0.615113
-0.551052
-0.441222
-0.513636
-0.484014
-0.564458
1.114342
1.230096
1.231649
-0.776523
-1.299794
-1.262961
1.154146
-1.358551
-1.372013
-1.248266
-1.272962
1.320690
1.219614
-0.256206
0.300600
-6.260914
-5.982450
-5.984661
-5.670546
-8.993609
-9.017357
-9.155603
-8.892622
-0.942925
2.059405
1.965693
2.023439
1.976355
-8.910225
-8.834259
2.005883
-8.678355
-6.362064
-6.399068
-6.494812
-6.505405
-6.773958
-6.645884
-6.785451
1.866694
-4.226768
-4.313981
-4.378330
-6.595435
-6.509261
1.463000
1.405910
1.465674
-6.713965
-6.714004
3.211582
3.044739
3.138135
5.374153
5.283207
-6.775302
-6.642474
-10.022009
-10.107619
-5.805341
-5.803198
-5.888206
-5.683088
-0.953744
-0.953985
-0.847859
-0.878260
-5.808079
-5.943839
-5.952588
-0.472937
-6.018231
-6.422052
-6.267059
-6.245731
-1.239188
-1.510946
-4.920657
-4.824811
-4.946287
-4.850067
1.548072
1.601988
1.564594
1.581636
1.881378
2.027642
2.089565
1.847008
-1.633683
-1.669668
-1.798873
0.655174
0.658177
0.740592
-1.155487
-1.314911
0.588948
-6.000282
-5.942151
-10.272934
-10.082463
-5.866939
-6.065192
-8.755029
-6.108158
5.213299
5.375186
5.310207
5.229008
1.158247
1.407673
1.507679
-7.504599
-7.241059
-7.424731
-5.147176
-5.196202
-5.224504
-5.270884
5.085777
3.169792
3.281674
3.316158
-7.850145
-8.386683
-8.299046
-8.248846
-8.445616
2.830239
2.942325
-8.488590
-8.580782
-8.463859
-2.721948
1.307755
2.711308
2.793731
4.672503
4.481175
4.611899
2.654978
-5.788769
-5.863471
-5.786297
-5.876557
-5.017071
-4.954729
-5.060630
-8.308687
-8.430270
5.418493
5.356069
5.229166
-4.639221
-4.303430
-3.826556
5.046960
5.149743
5.088589
-3.478687
-3.544378
-3.454699
-4.854740
-6.850113
-6.629007
-6.412130
-0.433925
-0.684809
-0.030997
-0.416655
-0.575907
-1.214580
-0.663321
-0.511320
-0.638925
-5.418713
-5.367568
-5.436866
-0.218709
-0.242464
-0.139065
-0.169134
-0.953228
-0.704605
-2.409404
-2.279494
-2.128231
-2.029946
-10.934376
-10.964463
-10.615699
-11.300888
-6.253849
-6.479130
-6.268087
-10.437903
-5.848412
0.949724
0.942323
1.027915
0.983527
1.892519
5.218506
5.125808
1.752612
4.923686
4.996163
-0.200861
-0.108467
1.808062
-5.048565
1.642094
1.229121
1.206037
1.298977
4.848539
4.848900
3.621839
3.495878
4.628607
4.432853
5.085906
5.192461
1.324572
4.646074
1.322769
1.208292
0.124341
0.108563
0.210791
-9.509663
-9.529475
-9.653120
-9.382381
0.002839
1.588513
1.505534
1.191546
1.336391
1.727381
-6.656905
-6.715748
-8.808917
-8.681795
-6.636230
-8.159721
-7.464844
1.764052
1.826526
1.819857
1.751643
1.872281
5.146855
5.204258
-0.550239
-0.598891
1.591801
1.459252
1.629916
1.333736
1.605448
-7.370503
-7.008569
-5.578125
-5.707333
-6.470252
-6.511757
-10.121329
-10.702641
-5.690065
-5.597504
-7.907447
-7.912053
-8.032623
-7.818904
0.280854
0.329895
-6.516258
-6.301201
-6.375413
-6.838885
-6.819742
-1.014896
-2.717426
-6.729838
-7.324331
-6.902127
-6.888907
0.265155
0.953181
-6.952547
1.566970
1.560097
1.709586
1.369875
-5.815969
4.995405
-7.985317
-8.074480
-5.790493
-5.634495
-5.414547
-2.891424
-2.686196
-2.783557
-7.868626
-7.887884
-0.071370
-0.002756
0.023466
3.067901
3.130593