# vtk DataFile Version 2.0
Test
ASCII
DATASET POLYDATA
POINTS 6352 float
0.000000 0.000000 0.000000
1.000000 0.000000 0.000000
1.000000 0.800000 0.000000
1.000000 1.000000 0.000000
0.000000 1.000000 0.000000
0.000000 0.200000 0.000000
0.300000 0.330000 0.000000
0.700000 0.680000 0.000000
0.050000 0.000000 0.000000
0.100000 0.000000 0.000000
0.150000 0.000000 0.000000
0.200000 0.000000 0.000000
0.250000 0.000000 0.000000
0.300000 0.000000 0.000000
0.350000 0.000000 0.000000
0.400000 0.000000 0.000000
0.450000 0.000000 0.000000
0.500000 0.000000 0.000000
0.550000 0.000000 0.000000
0.600000 0.000000 0.000000
0.650000 0.000000 0.000000
0.700000 0.000000 0.000000
0.750000 0.000000 0.000000
0.800000 0.000000 0.000000
0.850000 0.000000 0.000000
0.900000 0.000000 0.000000
0.950000 0.000000 0.000000
1.000000 0.048545 0.000000
1.000000 0.094438 0.000000
1.000000 0.137825 0.000000
1.000000 0.178843 0.000000
1.000000 0.217620 0.000000
1.000000 0.254280 0.000000
1.000000 0.288938 0.000000
1.000000 0.321703 0.000000
1.000000 0.352678 0.000000
1.000000 0.381962 0.000000
1.000000 0.409647 0.000000
1.000000 0.435820 0.000000
1.000000 0.460563 0.000000
1.000000 0.483955 0.000000
1.000000 0.506070 0.000000
1.000000 0.526976 0.000000
1.000000 0.546741 0.000000
1.000000 0.565427 0.000000
1.000000 0.583092 0.000000
1.000000 0.599793 0.000000
1.000000 0.615581 0.000000
1.000000 0.630507 0.000000
1.000000 0.644618 0.000000
1.000000 0.657958 0.000000
1.000000 0.670570 0.000000
1.000000 0.682493 0.000000
1.000000 0.693765 0.000000
1.000000 0.704421 0.000000
1.000000 0.714495 0.000000
1.000000 0.724019 0.000000
1.000000 0.733023 0.000000
1.000000 0.741536 0.000000
1.000000 0.749583 0.000000
1.000000 0.757191 0.000000
1.000000 0.764383 0.000000
1.000000 0.771183 0.000000
1.000000 0.777611 0.000000
1.000000 0.783688 0.000000
1.000000 0.789434 0.000000
1.000000 0.794865 0.000000
1.000000 0.805174 0.000000
1.000000 0.811554 0.000000
1.000000 0.819418 0.000000
1.000000 0.829114 0.000000
1.000000 0.841067 0.000000
1.000000 0.855804 0.000000
1.000000 0.873972 0.000000
1.000000 0.896371 0.000000
1.000000 0.923985 0.000000
1.000000 0.958029 0.000000
0.950000 1.000000 0.000000
0.900000 1.000000 0.000000
0.850000 1.000000 0.000000
0.800000 1.000000 0.000000
0.750000 1.000000 0.000000
0.700000 1.000000 0.000000
0.650000 1.000000 0.000000
0.600000 1.000000 0.000000
0.550000 1.000000 0.000000
0.500000 1.000000 0.000000
0.450000 1.000000 0.000000
0.400000 1.000000 0.000000
0.350000 1.000000 0.000000
0.300000 1.000000 0.000000
0.250000 1.000000 0.000000
0.200000 1.000000 0.000000
0.150000 1.000000 0.000000
0.100000 1.000000 0.000000
0.050000 1.000000 0.000000
0.000000 0.951455 0.000000
0.000000 0.905562 0.000000
0.000000 0.862175 0.000000
0.000000 0.821157 0.000000
0.000000 0.782380 0.000000
0.000000 0.745720 0.000000
0.000000 0.711062 0.000000
0.000000 0.678297 0.000000
0.000000 0.647322 0.000000
0.000000 0.618038 0.000000
0.000000 0.590353 0.000000
0.000000 0.564180 0.000000
0.000000 0.539437 0.000000
0.000000 0.516045 0.000000
0.000000 0.493930 0.000000
0.000000 0.473024 0.000000
0.000000 0.453259 0.000000
0.000000 0.434573 0.000000
0.000000 0.416908 0.000000
0.000000 0.400207 0.000000
0.000000 0.384419 0.000000
0.000000 0.369493 0.000000
0.000000 0.355382 0.000000
0.000000 0.342042 0.000000
0.000000 0.329430 0.000000
0.000000 0.317507 0.000000
0.000000 0.306235 0.000000
0.000000 0.295579 0.000000
0.000000 0.285505 0.000000
0.000000 0.275981 0.000000
0.000000 0.266977 0.000000
0.000000 0.258464 0.000000
0.000000 0.250417 0.000000
0.000000 0.242809 0.000000
0.000000 0.235617 0.000000
0.000000 0.228817 0.000000
0.000000 0.222389 0.000000
0.000000 0.216312 0.000000
0.000000 0.210566 0.000000
0.000000 0.205135 0.000000
0.000000 0.194826 0.000000
0.000000 0.188446 0.000000
0.000000 0.180582 0.000000
0.000000 0.170886 0.000000
0.000000 0.158933 0.000000
0.000000 0.144196 0.000000
0.000000 0.126028 0.000000
0.000000 0.103629 0.000000
0.000000 0.076015 0.000000
0.000000 0.041971 0.000000
0.303738 0.333271 0.000000
0.307477 0.336542 0.000000
0.311215 0.339813 0.000000
0.314953 0.343084 0.000000
0.318692 0.346355 0.000000
0.322430 0.349626 0.000000
0.326168 0.352897 0.000000
0.329907 0.356168 0.000000
0.333645 0.359439 0.000000
0.337383 0.362710 0.000000
0.341121 0.365981 0.000000
0.344860 0.369252 0.000000
0.348598 0.372523 0.000000
0.352336 0.375794 0.000000
0.356075 0.379065 0.000000
0.359813 0.382336 0.000000
0.363551 0.385607 0.000000
0.367290 0.388879 0.000000
0.371028 0.392150 0.000000
0.374766 0.395421 0.000000
0.378505 0.398692 0.000000
0.382243 0.401963 0.000000
0.385981 0.405234 0.000000
0.389720 0.408505 0.000000
0.393458 0.411776 0.000000
0.397196 0.415047 0.000000
0.400935 0.418318 0.000000
0.404673 0.421589 0.000000
0.408411 0.424860 0.000000
0.412150 0.428131 0.000000
0.415888 0.431402 0.000000
0.419626 0.434673 0.000000
0.423364 0.437944 0.000000
0.427103 0.441215 0.000000
0.430841 0.444486 0.000000
0.434579 0.447757 0.000000
0.438318 0.451028 0.000000
0.442056 0.454299 0.000000
0.445794 0.457570 0.000000
0.449533 0.460841 0.000000
0.453271 0.464112 0.000000
0.457009 0.467383 0.000000
0.460748 0.470654 0.000000
0.464486 0.473925 0.000000
0.468224 0.477196 0.000000
0.471963 0.480467 0.000000
0.475701 0.483738 0.000000
0.479439 0.487009 0.000000
0.483178 0.490280 0.000000
0.486916 0.493551 0.000000
0.490654 0.496822 0.000000
0.494393 0.500093 0.000000
0.498131 0.503364 0.000000
0.501869 0.506636 0.000000
0.505607 0.509907 0.000000
0.509346 0.513178 0.000000
0.513084 0.516449 0.000000
0.516822 0.519720 0.000000
0.520561 0.522991 0.000000
0.524299 0.526262 0.000000
0.528037 0.529533 0.000000
0.531776 0.532804 0.000000
0.535514 0.536075 0.000000
0.539252 0.539346 0.000000
0.542991 0.542617 0.000000
0.546729 0.545888 0.000000
0.550467 0.549159 0.000000
0.554206 0.552430 0.000000
0.557944 0.555701 0.000000
0.561682 0.558972 0.000000
0.565421 0.562243 0.000000
0.569159 0.565514 0.000000
0.572897 0.568785 0.000000
0.576636 0.572056 0.000000
0.580374 0.575327 0.000000
0.584112 0.578598 0.000000
0.587850 0.581869 0.000000
0.591589 0.585140 0.000000
0.595327 0.588411 0.000000
0.599065 0.591682 0.000000
0.602804 0.594953 0.000000
0.606542 0.598224 0.000000
0.610280 0.601495 0.000000
0.614019 0.604766 0.000000
0.617757 0.608037 0.000000
0.621495 0.611308 0.000000
0.625234 0.614579 0.000000
0.628972 0.617850 0.000000
0.632710 0.621121 0.000000
0.636449 0.624393 0.000000
0.640187 0.627664 0.000000
0.643925 0.630935 0.000000
0.647664 0.634206 0.000000
0.651402 0.637477 0.000000
0.655140 0.640748 0.000000
0.658879 0.644019 0.000000
0.662617 0.647290 0.000000
0.666355 0.650561 0.000000
0.670093 0.653832 0.000000
0.673832 0.657103 0.000000
0.677570 0.660374 0.000000
0.681308 0.663645 0.000000
0.685047 0.666916 0.000000
0.688785 0.670187 0.000000
0.692523 0.673458 0.000000
0.696262 0.676729 0.000000
0.004545 0.201970 0.000000
0.009091 0.203939 0.000000
0.013636 0.205909 0.000000
0.018182 0.207879 0.000000
0.022727 0.209848 0.000000
0.027273 0.211818 0.000000
0.031818 0.213788 0.000000
0.036364 0.215758 0.000000
0.040909 0.217727 0.000000
0.045455 0.219697 0.000000
0.050000 0.221667 0.000000
0.054545 0.223636 0.000000
0.059091 0.225606 0.000000
0.063636 0.227576 0.000000
0.068182 0.229545 0.000000
0.072727 0.231515 0.000000
0.077273 0.233485 0.000000
0.081818 0.235455 0.000000
0.086364 0.237424 0.000000
0.090909 0.239394 0.000000
0.095455 0.241364 0.000000
0.100000 0.243333 0.000000
0.104545 0.245303 0.000000
0.109091 0.247273 0.000000
0.113636 0.249242 0.000000
0.118182 0.251212 0.000000
0.122727 0.253182 0.000000
0.127273 0.255152 0.000000
0.131818 0.257121 0.000000
0.136364 0.259091 0.000000
0.140909 0.261061 0.000000
0.145455 0.263030 0.000000
0.150000 0.265000 0.000000
0.154545 0.266970 0.000000
0.159091 0.268939 0.000000
0.163636 0.270909 0.000000
0.168182 0.272879 0.000000
0.172727 0.274848 0.000000
0.177273 0.276818 0.000000
0.181818 0.278788 0.000000
0.186364 0.280758 0.000000
0.190909 0.282727 0.000000
0.195455 0.284697 0.000000
0.200000 0.286667 0.000000
0.204545 0.288636 0.000000
0.209091 0.290606 0.000000
0.213636 0.292576 0.000000
0.218182 0.294545 0.000000
0.222727 0.296515 0.000000
0.227273 0.298485 0.000000
0.231818 0.300455 0.000000
0.236364 0.302424 0.000000
0.240909 0.304394 0.000000
0.245455 0.306364 0.000000
0.250000 0.308333 0.000000
0.254545 0.310303 0.000000
0.259091 0.312273 0.000000
0.263636 0.314242 0.000000
0.268182 0.316212 0.000000
0.272727 0.318182 0.000000
0.277273 0.320152 0.000000
0.281818 0.322121 0.000000
0.286364 0.324091 0.000000
0.290909 0.326061 0.000000
0.295455 0.328030 0.000000
0.704615 0.681846 0.000000
0.709231 0.683692 0.000000
0.713846 0.685538 0.000000
0.718462 0.687385 0.000000
0.723077 0.689231 0.000000
0.727692 0.691077 0.000000
0.732308 0.692923 0.000000
0.736923 0.694769 0.000000
0.741538 0.696615 0.000000
0.746154 0.698462 0.000000
0.750769 0.700308 0.000000
0.755385 0.702154 0.000000
0.760000 0.704000 0.000000
0.764615 0.705846 0.000000
0.769231 0.707692 0.000000
0.773846 0.709538 0.000000
0.778462 0.711385 0.000000
0.783077 0.713231 0.000000
0.787692 0.715077 0.000000
0.792308 0.716923 0.000000
0.796923 0.718769 0.000000
0.801538 0.720615 0.000000
0.806154 0.722462 0.000000
0.810769 0.724308 0.000000
0.815385 0.726154 0.000000
0.820000 0.728000 0.000000
0.824615 0.729846 0.000000
0.829231 0.731692 0.000000
0.833846 0.733538 0.000000
0.838462 0.735385 0.000000
0.843077 0.737231 0.000000
0.847692 0.739077 0.000000
0.852308 0.740923 0.000000
0.856923 0.742769 0.000000
0.861538 0.744615 0.000000
0.866154 0.746462 0.000000
0.870769 0.748308 0.000000
0.875385 0.750154 0.000000
0.880000 0.752000 0.000000
0.884615 0.753846 0.000000
0.889231 0.755692 0.000000
0.893846 0.757538 0.000000
0.898462 0.759385 0.000000
0.903077 0.761231 0.000000
0.907692 0.763077 0.000000
0.912308 0.764923 0.000000
0.916923 0.766769 0.000000
0.921538 0.768615 0.000000
0.926154 0.770462 0.000000
0.930769 0.772308 0.000000
[...]
POINT_DATA 6352
SCALARS UX float 1
LOOKUP_TABLE default
-0.000001
0.000001
1.682057
1.292444
-2.495407
-1.697099
-1.056366
0.623056
0.000000
-0.000000
-0.000000
-0.000000
-0.000000
-0.000000
-0.000000
-0.000000
-0.000000
-0.000000
-0.000000
0.000000
0.000000
0.000000
0.000000
0.000000
0.000000
0.000000
-0.000000
0.583810
0.903193
1.133073
1.313351
1.455083
1.577523
1.681859
1.770931
1.848351
1.913994
1.969329
2.014932
2.052056
2.080796
2.101756
2.115119
2.121698
2.122399
2.117819
2.108807
2.095771
2.079779
2.060953
2.040795
2.018277
1.995197
1.971418
1.947223
1.922722
1.898840
1.875359
1.852350
1.829981
1.808352
1.787753
1.767892
1.748843
1.730702
1.713594
1.697350
1.666710
1.647764
1.624839
1.596337
1.561867
1.522435
1.475882
1.424401
1.372360
1.324943
1.041716
0.814048
0.609817
0.420375
0.252870
0.094982
-0.055059
-0.203630
-0.358125
-0.522829
-0.697979
-0.882132
-1.076131
-1.273733
-1.473659
-1.676393
-1.879011
-2.082186
-2.287366
-2.488591
-2.489063
-2.499440
-2.515849
-2.537381
-2.560092
-2.583163
-2.605174
-2.624832
-2.641400
-2.653447
-2.659871
-2.661418
-2.656555
-2.645410
-2.630939
-2.608664
-2.582230
-2.551977
-2.516796
-2.479207
-2.439623
-2.397210
-2.354045
-2.310016
-2.265457
-2.220891
-2.176432
-2.132528
-2.089179
-2.047206
-2.006107
-1.966279
-1.927716
-1.890596
-1.854877
-1.820474
-1.787512
-1.755938
-1.725821
-1.667774
-1.631381
-1.585670
-1.528410
-1.456802
-1.366655
-1.253764
-1.111111
-0.913088
-0.635324
-1.040462
-1.029020
-1.015319
-1.002253
-0.991919
-0.992743
-0.982809
-0.960504
-0.944299
-0.947200
-0.937843
-0.934825
-0.928454
-0.907230
-0.895053
-0.883840
-0.861662
-0.859781
-0.844197
-0.810521
-0.824176
-0.800488
-0.767256
-0.751671
-0.733182
-0.706756
-0.695568
-0.653366
-0.627361
-0.615015
-0.617655
-0.610335
-0.583110
-0.563103
-0.563074
-0.534917
-0.523102
-0.530441
-0.510753
-0.491564
-0.461595
-0.452849
-0.435541
-0.416901
-0.378677
-0.352077
-0.369311
-0.356556
-0.339760
-0.333453
-0.320410
-0.313693
-0.304847
-0.286190
-0.262265
-0.258862
-0.246577
-0.226786
-0.188712
-0.194314
-0.184032
-0.156995
-0.131820
-0.125186
-0.097960
-0.063124
-0.050445
-0.010505
-0.001810
0.021674
0.034699
0.050930
0.050572
0.045857
0.058380
0.073653
0.087044
0.109146
0.122394
0.136319
0.117452
0.121353
0.135665
0.144343
0.134386
0.141976
0.168111
0.186497
0.210455
0.211965
0.226761
0.234009
0.253186
0.261853
0.272330
0.297059
0.310507
0.327824
0.359103
0.395799
0.438871
0.472614
0.513695
0.539875
0.576103
0.591965
-1.690133
-1.683212
-1.676352
-1.669457
-1.662564
-1.655636
-1.648613
-1.641560
-1.634463
-1.627333
-1.620081
-1.612762
-1.605448
-1.598082
-1.590551
-1.582990
-1.575429
-1.567828
-1.560179
-1.552421
-1.544654
-1.536855
-1.528918
-1.520969
-1.512950
-1.504908
-1.496811
-1.488699
-1.480606
-1.472434
-1.464263
-1.456099
-1.447816
-1.439595
-1.431320
-1.423031
-1.414690
-1.406322
-1.397985
-1.389615
-1.381275
-1.372986
-1.364596
-1.356103
-1.347746
-1.339506
-1.331271
-1.322948
-1.314540
-1.306457
-1.298670
-1.290155
-1.281556
-1.273383
-1.265260
-1.257775
-1.249684
-1.239584
-1.229685
-1.221085
-1.210484
-1.198597
-1.185074
-1.160472
-1.124221
0.710849
0.765181
0.801957
0.831087
0.852369
0.870182
0.886865
0.903665
0.918103
0.932187
0.946589
0.959899
0.973289
0.987121
1.000749
1.014092
1.027545
1.041387
1.055010
1.068650
1.082202
1.095842
1.109194
1.122801
1.136598
1.150149
1.163691
1.177250
1.190876
1.204557
1.218194
1.231664
1.245268
1.258840
1.272362
1.285897
1.299386
1.312897
1.326426
1.339845
1.353270
1.366777
1.380232
1.393641
1.407118
1.420505
1.433892
1.447271
1.460662
1.474095
1.487545
1.500989
1.514446
1.527994
1.541554
1.555170
1.568823
1.582553
1.596434
1.610306
1.624343
1.638487
1.652794
1.667290
1.028398
1.019204
1.056958
0.996058
0.046297
0.025852
0.064873
0.020026
-1.153887
-1.160778
-1.078592
-1.116966
-1.020220
-1.140281
-2.087168
-2.036743
-2.054838
-2.013927
-1.136859
-0.361960
-0.313624
-0.314675
-0.262341
0.292245
0.289373
0.367044
0.199241
-0.480307
-0.503077
-0.455835
-0.112379
-0.054497
-0.126868
-0.048088
1.561525
1.511575
1.600984
1.503147
-0.200003
-0.290708
-0.184201
-0.315635
-1.927686
-1.919375
-1.971357
-1.600340
-1.601233
-1.564168
-1.669626
-1.664792
-1.698503
1.230347
1.345348
1.267346
1.329201
0.199100
0.200993
0.242588
-0.309877
-0.383116
-0.125265
1.611307
1.663464
1.663417
-0.515401
-0.590051
-0.583236
-1.361604
-1.253678
-1.201036
1.308169
1.323391
1.291768
-0.540764
-1.634344
-1.637853
-1.591430
-0.245431
-0.262722
-0.294190
-0.216615
0.893371
0.875766
0.874036
-0.014804
-0.060517
-0.181253
0.885235
1.138537
1.154998
1.130103
0.437098
0.371733
0.455390
1.144837
1.155808
1.112101
0.800774
0.787593
0.814692
0.273575
0.210605
0.264117
0.776296
-0.065010
-0.014601
-0.000973
0.389777
-1.568128
-1.590323
-1.585441
-0.044609
1.064510
1.039653
1.066184
-0.649685
-0.668942
-0.588423
1.388577
1.365824
1.365260
1.343162
1.356240
1.335260
-1.124145
-1.249568
-1.102784
-1.208566
-0.364874
-0.319192
-0.318799
1.055092
1.281347
-0.265428
-2.312139
-2.250372
-2.268250
-1.662152
-1.694667
-1.655747
0.393413
0.530465
0.562571
-2.208446
1.205019
1.186910
1.200871
1.178165
0.104494
0.153881
0.187645
0.637046
-1.253504
-1.272618
-1.253547
0.239527
0.218922
0.235711
0.207902
1.412507
1.388162
1.374641
0.266232
1.106288
1.052956
1.077564
-2.201183
-2.170526
-2.136021
1.358210
1.373790
1.350516
1.349031
-1.675734
-1.647967
-1.688730
-1.659827
-0.214135
-0.180065
-0.179072
1.351629
-1.308385
-1.376759
-1.173667
-0.207257
-1.177915
-1.193038
-1.274179
-1.066897
1.557814
1.633457
-1.300400
1.547551
-1.571939
-1.572012
-1.560361
-1.581500
-0.548114
-0.556398
-0.611835
0.329994
-1.278205
-1.028753
-1.405907
-1.395765
-1.412327
-1.391265
0.966018
0.962131
0.949132
0.947561
-1.618551
-1.601564
-0.488309
-1.491793
-1.479854
-1.495988
-1.478567
0.077265
0.073244
0.101745
1.440905
1.447126
1.407194
0.051173
1.480073
-0.929109
-0.853584
-0.795577
1.396104
1.390168
1.358789
-0.764555
-0.751230
-0.759339
-0.791076
1.425092
-0.790995
-1.519199
-1.531264
-1.495969
-0.745263
-0.715764
-0.714996
-1.498171
1.056173
1.049858
1.016635
0.757727
0.744394
0.765929
-0.609202
-0.640069
-0.553511
-0.919308
-0.871414
-0.891327
1.063058
1.077599
1.069016
1.078299
0.291091
0.247779
0.266384
0.746039
1.019328
0.668061
0.668357
0.644300
1.089059
1.137729
1.108880
1.161459
1.334243
1.344610
1.324076
1.335230
1.902893
1.863643
1.845263
-1.128517
-1.101788
-1.054700
-1.197464
1.798645
0.581371
0.622439
0.585280
-0.991971
-0.963785
-0.979083
1.105482
1.086725
1.112283
1.867798
1.943350
1.083217
-2.449198
-2.514971
-2.444480
1.666831
1.638856
1.638119
1.609071
-0.579739
-0.487092
1.107408
1.115587
1.101335
-0.859486
-0.845475
-0.903607
-0.868283
1.348560
-0.966947
1.301328
1.319520
-1.028333
-1.062198
-1.050060
-1.534290
-1.497231
-1.541934
-1.495821
-1.721514
-1.764930
-1.757621
-1.801123
-1.678564
-1.677966
-1.637646
-1.589948
-1.564563
-1.576769
-1.844204
-1.806416
-1.854482
-1.559302
0.165803
0.136795
0.137678
0.696495
0.685795
-1.836851
-1.826334
-1.807403
-1.862561
-1.619936
-1.635030
-1.625428
-1.645580
-1.350106
-1.374024
-1.369020
-1.391116
-2.058350
-2.063886
-2.105213
-1.629911
-2.029573
0.722598
0.700945
0.833483
-0.668615
-0.720281
-0.571440
-0.776116
1.464038
1.486679
1.456873
1.502463
-1.764873
-1.815142
1.099376
1.105230
1.043315
-1.383039
-1.382954
1.057466
1.456049
1.486588
1.490460
1.521308
1.424371
1.421022
1.389322
-1.396265
0.407904
0.360999
0.395908
0.326527
1.329091
1.291024
1.343097
-1.525701
-1.460608
-1.480565
-1.436659
1.617071
1.625786
1.651094
1.589618
-2.557560
-2.512250
-2.477625
-2.422846
-1.590588
-1.635032
0.785312
0.823349
0.733078
0.732352
-1.487144
-1.396052
-1.361468
-1.295677
1.355574
1.396155
1.397882
1.426800
1.371145
0.380864
0.436862
0.321324
1.528717
1.551155
1.578960
-0.235875
-0.284801
-0.088006
1.245666
1.201566
1.257094
1.190220
1.503115
1.471313
1.452768
-0.107134
-0.075032
-1.593537
-1.605318
-1.571604
-0.012275
-0.014194
0.044659
1.082008
1.086818
-1.629507
-1.609621
-1.579277
-1.570335
-1.493793
-1.503077
-1.477943
1.593443
0.258826
0.182397
0.263671
1.668603
-1.323403
-1.347937
-1.333378
0.529863
0.515790
0.424171
-1.509725
0.005630
-0.086912
0.434593
-1.360820
-1.493311
-1.524510
-1.534582
-0.129784
-0.153732
-0.234720
1.253090
1.268044
1.228212
-0.935195
-0.895694
-1.474388
-1.459688
0.100333
0.143980
0.035946
-1.491208
0.011435
0.080151
0.095080
0.156210
-1.648607
-1.637216
-1.621084
-1.665598
-1.374580
-1.420184
-1.421026
-1.477034
-1.156240
-1.184879
-1.221624
1.157674
1.187689
1.196242
-0.055432
-0.106626
-0.049451
-1.817034
-1.854042
-1.089354
1.187542
-1.455965
-1.450168
-1.500916
-1.401055
-2.595508
-2.545535
-2.518709
-2.494762
-0.054404
-0.006863
-0.067830
-1.233805
-1.177212
-1.240805
-1.176510
-1.969023
-1.870992
-1.879603
1.068015
1.112189
1.097319
-1.286336
-1.235534
-1.592362
-1.594237
-1.617188
0.719272
0.805820
0.807619
-1.612211
-1.273434
-1.251904
-1.239800
1.336322
1.372257
1.371540
0.442935
0.364908
0.676700
-1.227110
-1.243929
-1.224431
-1.476470
-1.525170
-1.509089
-1.538809
-1.570176
-1.529595
-1.501613
-1.532057
-1.483181
0.035952
0.089851
0.058542
-0.092939
-0.039563
0.085772
-1.276799
-1.503297
-1.707887
-1.689717
-1.702910
-0.218583
-0.227085
-0.270038
-0.172412
-0.230050
-0.172754
-0.216332
-0.133551
-1.699665
-1.685675
-1.668894
-1.660482
0.200559
0.317731
0.116197
1.343483
1.319772
1.369613
1.310232
-1.545846
-1.561222
-1.546141
-1.365238
-1.288828
-1.357056
-1.560187
-1.415622
-1.462096
-1.457097
1.540509
1.441753
1.526048
1.425421
-1.645628
-1.648617
-1.673940
1.419811
1.434059
1.457997
1.061727
1.079415
1.067639
1.072950
-2.090979
-2.049538
-2.014560
-1.549073
-1.560349
-1.585967
-1.594646
1.384405
1.380174
1.408402
-0.561231
-0.561900
-0.594658
0.939969
0.939072
0.976097
0.977212
0.962496
0.928495
0.934607
-0.229778
-0.183761
-0.190919
0.027944
0.075281
0.055287
-0.227370
-1.746800
-1.773768
-1.734914
0.091214
0.049176
0.085438
-0.553622
-0.530758
-1.745294
-1.735920
-1.715846
1.598612
1.625451
1.596864
-1.699795
-0.524015
1.066357
0.977638
1.021875
-1.492155
-1.516359
-1.546451
-1.204119
-1.231244
-1.470302
-1.470587
-1.506653
1.281014
1.322601
1.318991
-1.665449
-1.666630
-1.710877
-1.712374
-1.576882
-1.575329
-1.557037
-1.585425
-0.539939
-0.582889
-0.582084
-0.552712
1.201478
1.205420
1.246941
1.163215
1.246327
1.289160
1.441270
1.470753
1.479164
1.868282
1.911785
1.896786
1.515951
1.243490
1.243181
1.274550
1.225615
1.220799
-1.272302
-1.264753
1.046580
-0.306019
-0.297819
-0.337319
-0.359925
-1.419577
-1.485176
-1.474771
-1.208997
1.234014
1.234149
1.207672
1.203774
-1.772607
-1.765953
-1.712828
-0.109728
-0.069316
-0.067525
0.600218
0.625852
0.679296
0.471997
-1.337231
-1.225494
-1.312916
1.493633
1.456292
1.458976
0.914713
0.923106
0.838432
-1.096091
-1.483381
-1.398603
-1.428082
1.364376
1.415294
1.401096
-1.448838
-0.258249
-1.449252
-1.489142
-1.435489
-1.493572
-0.041562
-0.107854
1.378414
1.424966
-2.199891
-2.161815
-0.192334
-0.143693
-0.153292
-0.092328
-0.352152
-0.401074
-0.401743
-0.044708
0.006489
0.006967
1.016031
1.092339
1.056572
-0.043543
-1.152774
-1.209639
-1.134745
1.592555
1.615560
1.633562
0.205558
0.259872
0.262393
-1.139616
-1.035347
-1.038181
-1.576024
-1.562567
-1.535360
1.054999
1.048104
1.104347
1.426377
1.456124
1.463459
1.498519
0.997425
-1.584643
-1.605267
-1.617311
-0.746305
-0.792408
-0.765576
1.218809
1.244289
1.229850
1.265697
1.194492
1.192455
1.154894
-1.335273
-1.404542
-1.390356
0.707279
-2.141019
-2.079675
-2.127810
-1.679102
-1.246555
-1.243004
-1.187989
-1.552977
-1.514529
-1.571799
-1.180450
1.270739
1.322881
-0.680092
-0.781808
-0.773039
-0.833742
-0.889990
-0.939248
-1.303546
-1.349160
-1.352224
-1.385017
-0.990181
0.761455
0.784732
0.792478
-1.931194
-1.968498
-1.947987
-1.462019
-1.470265
-1.421068
-1.556171
-1.570034
-1.570038
-1.585159
1.337848
1.658267
1.566585
1.628293
1.585881
-1.466282
-1.477863
-1.504868
1.642770
-1.546638
-1.525057
-0.179637
-0.137056
1.021326
1.028435
1.008595
1.216079
1.218704
1.247921
1.013603
1.281171
1.275126
-1.730535
-1.773067
-1.767543
-1.807193
-1.144488
-1.131531
-1.155606
0.339465
0.290874
0.249302
0.836870
0.818902
0.904184
-0.691824
-0.634406
-0.656083
-0.672567
0.848942
1.288081
1.293645
1.271249
0.166325
0.151278
0.194724
-0.580814
-0.570210
-0.674144
-1.689134
-1.721513
-1.681522
-1.170640
-1.715338
1.281059
-0.503774
-0.494256
-0.454702
0.092944
0.138742
0.132930
-0.923523
-0.880061
-0.813512
-0.776610
-1.662772
-1.690359
1.104991
1.158989
1.136381
0.868937
0.861045
0.990657
0.966706
-1.730302
-1.772629
-1.770504
-1.822657
1.057735
1.079735
1.085166
1.060727
-1.774676
-1.630588
-1.705037
1.178977
1.186935
1.212784
-1.752545
1.259069
1.234939
1.203704
1.252530
-1.399199
-1.406739
-1.391456
-1.421791
-1.428941
-1.468149
-1.515537
-1.496531
-1.580516
-1.598713
-1.631547
-1.556966
0.686485
0.704246
0.682286
1.359892
1.363906
1.394740
-1.332206
-1.336668
-1.307579
1.338124
-1.293924
-1.287583
-1.316707
-1.480384
-1.522362
-1.489183
1.581887
1.567435
-1.572288
-1.604328
-1.521065
-1.556513
0.112817
0.077214
0.058598
-1.531997
0.672137
0.691404
0.704044
0.501134
0.412402
0.439587
0.180328
0.183943
0.216031
-1.882753
-1.845417
-1.835383
0.335583
1.547233
1.579960
1.542249
0.084911
0.062129
0.002788
-0.444753
-0.487653
-0.498117
-0.444084
0.041783
-0.002140
-1.293759
-1.283381
-1.267294
-0.218705
-0.195052
-0.176734
0.994940
1.023152
-0.652612
-0.699002
-0.732400
-0.157680
-1.252779
-0.145243
-0.109448
-1.380080
-1.423408
-1.400781
-1.435825
-1.925991
-2.027167
-2.028430
-1.924006
-1.330394
-1.369181
-1.325667
0.308455
0.298232
0.351530
-1.352954
-1.337093
-1.565636
-1.596611
-1.284322
0.937759
0.925517
0.916924
0.947680
0.660927
0.605724
0.610702
0.650267
0.560052
0.630327
0.570973
-1.758665
-1.810560
-1.788843
1.619035
1.610755
1.057500
1.075762
1.104611
1.124460
-1.750233
-1.711766
-1.594636
-1.599139
-1.592208
-1.644411
-1.644260
-1.465363
-1.450269
-1.470028
-1.440279
-1.385454
-1.315557
-1.441194
-1.431943
-1.497404
0.874060
0.854943
0.900280
0.884834
-2.055864
-1.971650
-2.037125
0.869251
0.838391
1.584986
0.837692
-2.023398
-2.067349
-2.049606
1.593160
0.925308
0.754807
0.814891
-2.097568
0.800508
-1.923263
-1.596826
-0.388259
-0.355823
-0.337312
-1.610352
-1.417619
-1.434450
-1.433750
-1.450761
-1.330001
-1.321903
-1.378143
-1.337929
1.439466
1.426871
1.459072
1.431460
-1.399042
-1.418098
-1.396633
-1.429014
1.076614
1.081340
1.128871
1.113661
-1.377399
-1.389375
-1.671645
-1.657600
0.974483
0.955108
0.988128
0.949282
0.958797
0.926672
-1.466467
-1.467105
-0.840463
-0.820159
-0.874088
-0.826086
1.000956
-1.219492
-1.256314
-1.289497
-1.137097
-0.199110
-0.164346
-0.168724
0.900057
0.824150
-0.135137
-1.181471
-1.179024
-1.144379
-1.150346
-0.519275
-0.558232
-0.093761
-0.146751
0.771065
0.745399
-0.163402
-1.446421
-1.374295
-1.404203
-1.283403
1.109513
1.148912
1.134106
1.179155
0.627072
0.691774
1.016873
1.022704
1.070892
-1.499006
-1.453025
-1.453598
1.431652
1.428348
1.465568
0.760452
0.760228
1.468719
1.012879
0.953411
1.018406
-0.139695
-0.130474
-0.092787
0.829138
-1.321826
-1.344992
0.839749
0.890856
0.909623
1.201555
1.179023
1.210195
-1.975522
-1.997686
1.171806
-1.791595
-1.819123
-1.785926
1.331623
1.288967
0.565302
0.497306
0.619737
-1.520836
-1.516023
-1.531958
-1.525454
-1.634961
-1.618070
-0.833188
-0.819083
-0.950682
-1.463566
-1.479006
-1.511309
-1.523923
-1.238009
-1.242378
0.308620
0.352714
0.286693
1.033652
1.049317
0.895446
0.923534
0.872904
1.037792
1.045469
1.023603
1.032552
-0.533876
-0.464808
-0.441694
-1.445625
-1.509081
-1.475270
-1.561113
-1.385456
-1.422223
-1.344027
0.906596
0.942715
0.952967
0.914797
1.865772
1.818589
1.840175
-1.428742
-1.442627
-1.436565
-0.714843
-0.795913
-0.738113
-1.440062
-1.248125
-1.184387
-1.221070
-1.221162
-0.476161
-0.429664
-0.428798
-1.286164
-1.353318
-1.998743
-1.960997
-1.982876
1.280501
1.269427
1.314465
-1.340743
1.428029
-1.383919
-1.379754
0.836761
0.882235
0.854654
0.871395
0.884095
0.793959
0.853362
1.810067
1.767423
1.776133
1.737602
1.623163
1.648586
1.649162
-1.629212
-1.635531
-1.651485
1.675282
-1.653903
-1.602898
-1.589952
-1.241680
-1.178251
-1.289661
-0.950792
-0.836903
-0.877006
1.505784
1.503242
1.478972
1.459567
-0.939883
0.830986
0.812278
0.950163
0.791426
0.774782
0.795603
0.774778
-1.062198
-1.074141
-1.039455
-1.095002
-1.283722
-1.251221
-1.243883
0.619783
0.599770
0.573016
0.556315
-1.446925
-1.465658
-1.457446
1.743301
-1.478033
1.704153
-1.433416
-1.402964
-1.028840
-0.982401
-0.125456
-0.186252
-0.976507
-0.943550
-0.902862
0.255912
0.237286
-1.746412
-1.783113
-1.775527
-1.820045
0.220904
0.264469
0.245054
0.319953
0.323526
0.350380
0.959955
0.979526
0.911934
1.038481
-0.850645
-1.047754
-0.429319
-0.490722
-0.442604
-0.491365
0.085271
0.114884
0.176970
0.159059
0.149541
0.132334
0.677039
0.708490
0.719141
0.147174
0.026985
0.025998
0.674944
-0.318534
-0.354522
-0.303166
-0.338870
0.751879
0.729421
0.557405
0.726716
-1.466039
-1.409091
-1.421560
-1.355539
-2.072734
-2.084486
-2.137229
-2.035502
0.123634
1.079726
1.063468
1.068312
1.054116
-2.038316
-2.011125
1.054360
-1.952079
-1.333756
-1.331627
-1.355134
-1.348177
-1.251668
-1.214906
-1.272464
0.903342
-0.387889
-0.396312
-0.443849
-1.184628
-1.157542
0.909858
0.894381
0.902709
-1.297098
-1.311190
1.341280
1.291808
1.315459
1.817086
1.778412
-1.332658
-1.271620
-2.130202
-2.119988
-1.069253
-1.057729
-1.084358
-1.037223
-0.109290
-0.142073
-0.094568
-0.138947
-1.243696
-1.092227
-1.106663
0.128634
-1.116720
-1.383927
-1.355149
-1.354427
-0.118588
-0.171631
-0.674397
-0.624697
-0.661392
-0.607684
0.912138
0.930771
0.907611
0.934136
1.091847
1.108603
1.120733
1.083058
-0.503015
-0.530263
-0.555962
0.531869
0.517365
0.554509
-0.315143
-0.376758
0.500399
-1.126038
-1.117017
-2.135537
-2.036735
-1.093677
-1.144910
-1.982788
-1.143339
1.959250
2.015294
1.986648
1.761443
0.937395
0.977601
1.005790
-1.560280
-1.494636
-1.541101
-0.799366
-0.805260
-0.827326
-0.827233
1.632729
1.184832
1.204734
1.211344
-1.654635
-1.921591
-1.903963
-1.885812
-1.942185
1.251892
1.272601
-1.956950
-1.983279
-1.952921
-0.657556
1.226213
1.229942
1.251787
1.515928
1.471123
1.500235
1.222769
-1.027348
-1.055433
-1.040367
-1.047847
-0.781409
-0.757513
-0.777059
-1.811125
-1.852857
1.809344
1.775958
1.727538
-1.118655
-1.074259
-1.015113
1.813884
1.844911
1.814111
-0.116232
-0.158931
-0.960809
-0.742150
-0.973991
-0.923818
-0.851997
0.956414
0.875817
1.001715
-0.186946
-0.267608
-0.410931
0.198936
0.233319
0.211761
-0.862983
-0.828713
-0.827660
0.283495
0.255893
0.300301
0.270634
0.130602
0.181022
-0.691378
-0.687732
-0.625377
-0.624271
-2.299825
-2.351762
-2.245419
-2.424290
-1.384938
-1.427857
-1.397463
-2.228865
-1.315614
0.681711
0.668809
0.697995
0.670501
1.054883
1.857507
1.811300
1.037578
1.592727
1.615912
0.240857
0.281196
1.048107
-0.714844
1.022945
0.854263
0.843337
0.863502
1.567624
1.569366
1.339844
1.297317
1.506256
1.466335
1.659045
1.698189
0.859307
1.512782
0.876278
0.859036
0.456793
0.442955
0.473395
-2.268490
-2.267798
-2.308470
-2.225390
0.424427
1.047476
1.032659
0.983648
1.011206
1.071527
-1.304744
-1.326426
-2.005131
-1.957028
-1.285653
-1.760409
-1.545756
1.003982
1.010775
1.017088
0.995079
1.028613
1.728574
1.762766
0.192179
0.195214
1.012088
0.978785
1.008741
0.970541
0.997869
-1.524639
-1.439469
-0.793644
-0.807304
-1.452748
-1.448523
-1.829622
-1.992815
-0.873668
-0.827406
-1.739912
-1.729427
-1.769592
-1.712717
0.144538
0.166133
-1.445566
-1.402973
-1.412693
-1.479136
-1.468560
-0.343268
-0.689610
-1.453441
-1.512705
-1.488350
-1.494681
1.083923
1.137474
-1.500526
0.985012
0.985549
1.002744
0.954128
-1.118542
1.623357
-1.702286
-1.730001
-1.127835
-1.106023
-1.058009
0.088941
0.145910
0.140665
-1.665970
-1.672953
-0.020529
0.004959
0.024812
1.310194
1.318001
1.293542
1.307746
1.067653
1.082012
1.061257
1.085941
1.046164
1.017083
0.998538
-1.544785
-1.537530
0.818679
0.822064
0.838159
-0.282517
-0.207786
-0.269097
-0.233056
0.804596
-1.984144
-2.038416
1.858143
1.883635
-1.595931