# vtk DataFile Version 2.0
Test
ASCII
DATASET POLYDATA
POINTS 6352 float
0.000000 0.000000 0.000000
1.000000 0.000000 0.000000
1.000000 0.800000 0.000000
1.000000 1.000000 0.000000
0.000000 1.000000 0.000000
0.000000 0.200000 0.000000
0.300000 0.330000 0.000000
0.700000 0.680000 0.000000
0.050000 0.000000 0.000000
0.100000 0.000000 0.000000
0.150000 0.000000 0.000000
0.200000 0.000000 0.000000
0.250000 0.000000 0.000000
0.300000 0.000000 0.000000
0.350000 0.000000 0.000000
0.400000 0.000000 0.000000
0.450000 0.000000 0.000000
0.500000 0.000000 0.000000
0.550000 0.000000 0.000000
0.600000 0.000000 0.000000
0.650000 0.000000 0.000000
0.700000 0.000000 0.000000
0.750000 0.000000 0.000000
0.800000 0.000000 0.000000
0.850000 0.000000 0.000000
0.900000 0.000000 0.000000
0.950000 0.000000 0.000000
1.000000 0.048545 0.000000
1.000000 0.094438 0.000000
1.000000 0.137825 0.000000
1.000000 0.178843 0.000000
1.000000 0.217620 0.000000
1.000000 0.254280 0.000000
1.000000 0.288938 0.000000
1.000000 0.321703 0.000000
1.000000 0.352678 0.000000
1.000000 0.381962 0.000000
1.000000 0.409647 0.000000
1.000000 0.435820 0.000000
1.000000 0.460563 0.000000
1.000000 0.483955 0.000000
1.000000 0.506070 0.000000
1.000000 0.526976 0.000000
1.000000 0.546741 0.000000
1.000000 0.565427 0.000000
1.000000 0.583092 0.000000
1.000000 0.599793 0.000000
1.000000 0.615581 0.000000
1.000000 0.630507 0.000000
1.000000 0.644618 0.000000
1.000000 0.657958 0.000000
1.000000 0.670570 0.000000
1.000000 0.682493 0.000000
1.000000 0.693765 0.000000
1.000000 0.704421 0.000000
1.000000 0.714495 0.000000
1.000000 0.724019 0.000000
1.000000 0.733023 0.000000
1.000000 0.741536 0.000000
1.000000 0.749583 0.000000
1.000000 0.757191 0.000000
1.000000 0.764383 0.000000
1.000000 0.771183 0.000000
1.000000 0.777611 0.000000
1.000000 0.783688 0.000000
1.000000 0.789434 0.000000
1.000000 0.794865 0.000000
1.000000 0.805174 0.000000
1.000000 0.811554 0.000000
1.000000 0.819418 0.000000
1.000000 0.829114 0.000000
1.000000 0.841067 0.000000
1.000000 0.855804 0.000000
1.000000 0.873972 0.000000
1.000000 0.896371 0.000000
1.000000 0.923985 0.000000
1.000000 0.958029 0.000000
0.950000 1.000000 0.000000
0.900000 1.000000 0.000000
0.850000 1.000000 0.000000
0.800000 1.000000 0.000000
0.750000 1.000000 0.000000
0.700000 1.000000 0.000000
0.650000 1.000000 0.000000
0.600000 1.000000 0.000000
0.550000 1.000000 0.000000
0.500000 1.000000 0.000000
0.450000 1.000000 0.000000
0.400000 1.000000 0.000000
0.350000 1.000000 0.000000
0.300000 1.000000 0.000000
0.250000 1.000000 0.000000
0.200000 1.000000 0.000000
0.150000 1.000000 0.000000
0.100000 1.000000 0.000000
0.050000 1.000000 0.000000
0.000000 0.951455 0.000000
0.000000 0.905562 0.000000
0.000000 0.862175 0.000000
0.000000 0.821157 0.000000
0.000000 0.782380 0.000000
0.000000 0.745720 0.000000
0.000000 0.711062 0.000000
0.000000 0.678297 0.000000
0.000000 0.647322 0.000000
0.000000 0.618038 0.000000
0.000000 0.590353 0.000000
0.000000 0.564180 0.000000
0.000000 0.539437 0.000000
0.000000 0.516045 0.000000
0.000000 0.493930 0.000000
0.000000 0.473024 0.000000
0.000000 0.453259 0.000000
0.000000 0.434573 0.000000
0.000000 0.416908 0.000000
0.000000 0.400207 0.000000
0.000000 0.384419 0.000000
0.000000 0.369493 0.000000
0.000000 0.355382 0.000000
0.000000 0.342042 0.000000
0.000000 0.329430 0.000000
0.000000 0.317507 0.000000
0.000000 0.306235 0.000000
0.000000 0.295579 0.000000
0.000000 0.285505 0.000000
0.000000 0.275981 0.000000
0.000000 0.266977 0.000000
0.000000 0.258464 0.000000
0.000000 0.250417 0.000000
0.000000 0.242809 0.000000
0.000000 0.235617 0.000000
0.000000 0.228817 0.000000
0.000000 0.222389 0.000000
0.000000 0.216312 0.000000
0.000000 0.210566 0.000000
0.000000 0.205135 0.000000
0.000000 0.194826 0.000000
0.000000 0.188446 0.000000
0.000000 0.180582 0.000000
0.000000 0.170886 0.000000
0.000000 0.158933 0.000000
0.000000 0.144196 0.000000
0.000000 0.126028 0.000000
0.000000 0.103629 0.000000
0.000000 0.076015 0.000000
0.000000 0.041971 0.000000
0.303738 0.333271 0.000000
0.307477 0.336542 0.000000
0.311215 0.339813 0.000000
0.314953 0.343084 0.000000
0.318692 0.346355 0.000000
0.322430 0.349626 0.000000
0.326168 0.352897 0.000000
0.329907 0.356168 0.000000
0.333645 0.359439 0.000000
0.337383 0.362710 0.000000
0.341121 0.365981 0.000000
0.344860 0.369252 0.000000
0.348598 0.372523 0.000000
0.352336 0.375794 0.000000
0.356075 0.379065 0.000000
0.359813 0.382336 0.000000
0.363551 0.385607 0.000000
0.367290 0.388879 0.000000
0.371028 0.392150 0.000000
0.374766 0.395421 0.000000
0.378505 0.398692 0.000000
0.382243 0.401963 0.000000
0.385981 0.405234 0.000000
0.389720 0.408505 0.000000
0.393458 0.411776 0.000000
0.397196 0.415047 0.000000
0.400935 0.418318 0.000000
0.404673 0.421589 0.000000
0.408411 0.424860 0.000000
0.412150 0.428131 0.000000
0.415888 0.431402 0.000000
0.419626 0.434673 0.000000
0.423364 0.437944 0.000000
0.427103 0.441215 0.000000
0.430841 0.444486 0.000000
0.434579 0.447757 0.000000
0.438318 0.451028 0.000000
0.442056 0.454299 0.000000
0.445794 0.457570 0.000000
0.449533 0.460841 0.000000
0.453271 0.464112 0.000000
0.457009 0.467383 0.000000
0.460748 0.470654 0.000000
0.464486 0.473925 0.000000
0.468224 0.477196 0.000000
0.471963 0.480467 0.000000
0.475701 0.483738 0.000000
0.479439 0.487009 0.000000
0.483178 0.490280 0.000000
0.486916 0.493551 0.000000
0.490654 0.496822 0.000000
0.494393 0.500093 0.000000
0.498131 0.503364 0.000000
0.501869 0.506636 0.000000
0.505607 0.509907 0.000000
0.509346 0.513178 0.000000
0.513084 0.516449 0.000000
0.516822 0.519720 0.000000
0.520561 0.522991 0.000000
0.524299 0.526262 0.000000
0.528037 0.529533 0.000000
0.531776 0.532804 0.000000
0.535514 0.536075 0.000000
0.539252 0.539346 0.000000
0.542991 0.542617 0.000000
0.546729 0.545888 0.000000
0.550467 0.549159 0.000000
0.554206 0.552430 0.000000
0.557944 0.555701 0.000000
0.561682 0.558972 0.000000
0.565421 0.562243 0.000000
0.569159 0.565514 0.000000
0.572897 0.568785 0.000000
0.576636 0.572056 0.000000
0.580374 0.575327 0.000000
0.584112 0.578598 0.000000
0.587850 0.581869 0.000000
0.591589 0.585140 0.000000
0.595327 0.588411 0.000000
0.599065 0.591682 0.000000
0.602804 0.594953 0.000000
0.606542 0.598224 0.000000
0.610280 0.601495 0.000000
0.614019 0.604766 0.000000
0.617757 0.608037 0.000000
0.621495 0.611308 0.000000
0.625234 0.614579 0.000000
0.628972 0.617850 0.000000
0.632710 0.621121 0.000000
0.636449 0.624393 0.000000
0.640187 0.627664 0.000000
0.643925 0.630935 0.000000
0.647664 0.634206 0.000000
0.651402 0.637477 0.000000
0.655140 0.640748 0.000000
0.658879 0.644019 0.000000
0.662617 0.647290 0.000000
0.666355 0.650561 0.000000
0.670093 0.653832 0.000000
0.673832 0.657103 0.000000
0.677570 0.660374 0.000000
0.681308 0.663645 0.000000
0.685047 0.666916 0.000000
0.688785 0.670187 0.000000
0.692523 0.673458 0.000000
0.696262 0.676729 0.000000
0.004545 0.201970 0.000000
0.009091 0.203939 0.000000
0.013636 0.205909 0.000000
0.018182 0.207879 0.000000
0.022727 0.209848 0.000000
0.027273 0.211818 0.000000
0.031818 0.213788 0.000000
0.036364 0.215758 0.000000
0.040909 0.217727 0.000000
0.045455 0.219697 0.000000
0.050000 0.221667 0.000000
0.054545 0.223636 0.000000
0.059091 0.225606 0.000000
0.063636 0.227576 0.000000
0.068182 0.229545 0.000000
0.072727 0.231515 0.000000
0.077273 0.233485 0.000000
0.081818 0.235455 0.000000
0.086364 0.237424 0.000000
0.090909 0.239394 0.000000
0.095455 0.241364 0.000000
0.100000 0.243333 0.000000
0.104545 0.245303 0.000000
0.109091 0.247273 0.000000
0.113636 0.249242 0.000000
0.118182 0.251212 0.000000
0.122727 0.253182 0.000000
0.127273 0.255152 0.000000
0.131818 0.257121 0.000000
0.136364 0.259091 0.000000
0.140909 0.261061 0.000000
0.145455 0.263030 0.000000
0.150000 0.265000 0.000000
0.154545 0.266970 0.000000
0.159091 0.268939 0.000000
0.163636 0.270909 0.000000
0.168182 0.272879 0.000000
0.172727 0.274848 0.000000
0.177273 0.276818 0.000000
0.181818 0.278788 0.000000
0.186364 0.280758 0.000000
0.190909 0.282727 0.000000
0.195455 0.284697 0.000000
0.200000 0.286667 0.000000
0.204545 0.288636 0.000000
0.209091 0.290606 0.000000
0.213636 0.292576 0.000000
0.218182 0.294545 0.000000
0.222727 0.296515 0.000000
0.227273 0.298485 0.000000
0.231818 0.300455 0.000000
0.236364 0.302424 0.000000
0.240909 0.304394 0.000000
0.245455 0.306364 0.000000
0.250000 0.308333 0.000000
0.254545 0.310303 0.000000
0.259091 0.312273 0.000000
0.263636 0.314242 0.000000
0.268182 0.316212 0.000000
0.272727 0.318182 0.000000
0.277273 0.320152 0.000000
0.281818 0.322121 0.000000
0.286364 0.324091 0.000000
0.290909 0.326061 0.000000
0.295455 0.328030 0.000000
0.704615 0.681846 0.000000
0.709231 0.683692 0.000000
0.713846 0.685538 0.000000
0.718462 0.687385 0.000000
0.723077 0.689231 0.000000
0.727692 0.691077 0.000000
0.732308 0.692923 0.000000
0.736923 0.694769 0.000000
0.741538 0.696615 0.000000
0.746154 0.698462 0.000000
0.750769 0.700308 0.000000
0.755385 0.702154 0.000000
0.760000 0.704000 0.000000
0.764615 0.705846 0.000000
0.769231 0.707692 0.000000
0.773846 0.709538 0.000000
0.778462 0.711385 0.000000
0.783077 0.713231 0.000000
0.787692 0.715077 0.000000
0.792308 0.716923 0.000000
0.796923 0.718769 0.000000
0.801538 0.720615 0.000000
0.806154 0.722462 0.000000
0.810769 0.724308 0.000000
0.815385 0.726154 0.000000
0.820000 0.728000 0.000000
0.824615 0.729846 0.000000
0.829231 0.731692 0.000000
0.833846 0.733538 0.000000
0.838462 0.735385 0.000000
0.843077 0.737231 0.000000
0.847692 0.739077 0.000000
0.852308 0.740923 0.000000
0.856923 0.742769 0.000000
0.861538 0.744615 0.000000
0.866154 0.746462 0.000000
0.870769 0.748308 0.000000
0.875385 0.750154 0.000000
0.880000 0.752000 0.000000
0.884615 0.753846 0.000000
0.889231 0.755692 0.000000
0.893846 0.757538 0.000000
0.898462 0.759385 0.000000
0.903077 0.761231 0.000000
0.907692 0.763077 0.000000
0.912308 0.764923 0.000000
0.916923 0.766769 0.000000
0.921538 0.768615 0.000000
0.926154 0.770462 0.000000
0.930769 0.772308 0.000000
[...]
POINT_DATA 6352
SCALARS UX float 1
LOOKUP_TABLE default
-0.000017
0.000021
16.913535
9.686534
-16.051646
-17.626174
-5.722929
8.208597
0.000001
-0.000003
-0.000001
-0.000001
-0.000001
-0.000001
-0.000001
-0.000001
-0.000001
-0.000000
-0.000000
0.000000
0.000001
0.000000
0.000001
0.000002
0.000001
0.000004
-0.000003
2.804154
4.428404
5.821442
7.002834
8.106314
9.230416
10.417545
11.811972
13.178519
14.177279
15.446095
16.483826
17.457011
18.463103
19.357184
20.059121
20.586823
20.963155
21.215812
21.364329
21.427849
21.418768
21.337942
21.209585
21.026845
20.812923
20.568237
20.301826
20.018707
19.729636
19.435532
19.140714
18.849772
18.564852
18.291595
18.027590
17.774867
17.535599
17.311941
17.103707
16.727197
16.499756
16.231526
15.904949
15.545868
15.191478
14.787370
13.979319
12.785134
10.695917
7.429081
5.855880
4.502129
3.313298
2.387564
1.650314
1.170725
0.831974
0.457310
0.013073
-0.514525
-1.157763
-2.038007
-3.132489
-4.458166
-6.088416
-7.895202
-10.369876
-13.138937
-15.868773
-15.873420
-16.179858
-16.667455
-17.308405
-17.950173
-18.565825
-19.147607
-19.682353
-20.157225
-20.569353
-20.920032
-21.215596
-21.444165
-21.606302
-21.734574
-21.769701
-21.751236
-21.680085
-21.546458
-21.375030
-21.171246
-20.929703
-20.672587
-20.404226
-20.131088
-19.862848
-19.603283
-19.357856
-19.128479
-18.920418
-18.727929
-18.552235
-18.392651
-18.249030
-18.119741
-18.002607
-17.896202
-17.799040
-17.710217
-17.539655
-17.422418
-17.262492
-17.021572
-16.620936
-15.768059
-14.470568
-12.093264
-8.823084
-4.634544
-5.472139
-5.209319
-5.030738
-4.813427
-4.660319
-4.499233
-4.270862
-4.036426
-3.704589
-3.140430
-4.572724
-4.761955
-5.942917
-6.329197
-7.232011
-6.156099
-5.871282
-5.082560
-4.020962
-3.695622
-4.882673
-4.566428
-3.895149
-3.439900
-3.517270
-3.779664
-5.257070
-4.568323
-4.229482
-5.331165
-6.235640
-6.158954
-6.097789
-5.446288
-4.347348
-2.847099
-3.087801
-2.519189
-2.038584
-2.020274
-1.998422
-2.610008
-3.486481
-3.472926
-2.796054
0.444985
-2.092912
-2.008790
-2.116250
-3.870173
-3.695625
-3.704765
0.837286
1.291496
1.945851
0.895203
0.361785
2.428413
2.895359
0.543329
1.581699
2.665838
3.722471
2.975297
3.256230
2.994658
2.269629
2.796699
4.477426
2.459951
2.553163
3.131194
2.578923
1.994546
2.728693
2.235969
2.191415
3.174932
4.356058
5.921497
6.548274
5.749425
6.004182
5.779575
4.470272
5.239115
5.234766
4.266979
4.389298
4.322248
4.650833
4.942575
5.210048
5.032530
5.147762
3.789323
3.845000
3.695965
4.088128
5.265113
5.955328
7.586624
9.908249
10.132064
10.303489
8.261187
-17.487349
-17.354037
-17.225861
-17.101740
-16.980431
-16.859475
-16.735128
-16.608817
-16.478952
-16.344865
-16.203495
-16.056589
-15.911214
-15.765621
-15.612296
-15.463614
-15.322349
-15.187866
-15.057392
-14.928871
-14.807172
-14.688585
-14.564208
-14.445359
-14.326814
-14.213311
-14.100950
-13.992559
-13.887497
-13.784558
-13.685529
-13.588749
-13.491285
-13.396085
-13.302314
-13.209884
-13.119746
-13.033004
-12.950966
-12.871926
-12.799375
-12.733347
-12.670975
-12.612902
-12.562896
-12.517840
-12.471865
-12.418748
-12.351267
-12.275275
-12.181036
-12.004374
-11.769280
-11.546304
-11.331533
-11.099457
-10.811802
-10.440785
-10.006427
-9.773041
-9.112188
-8.445832
-7.799935
-7.137859
-6.475050
9.235671
10.464189
11.760272
12.534751
13.448497
13.902415
14.198479
14.341307
14.386584
14.431249
14.479793
14.522638
14.573103
14.634400
14.700045
14.767357
14.841337
14.924169
15.007849
15.096824
15.192678
15.295977
15.398166
15.506866
15.620032
15.721961
15.818933
15.910339
15.994880
16.077557
16.151951
16.218630
16.286035
16.348379
16.404370
16.457269
16.506893
16.553074
16.596974
16.635421
16.672207
16.708387
16.741641
16.771437
16.801968
16.828546
16.852762
16.873967
16.892695
16.909480
16.923664
16.933220
16.939740
16.943553
16.947816
16.948581
16.946791
16.942807
16.937868
16.930104
16.921492
16.913756
16.908378
16.907715
9.395622
8.951962
9.441266
8.883663
0.003851
-0.008979
0.040390
-0.024772
-8.793938
-8.930151
-7.782035
-8.304003
-7.106902
-8.690446
-16.969809
-16.599424
-16.450693
-16.149061
-8.699107
-1.395348
-0.986623
-1.006142
-0.606731
3.565084
3.911124
4.256315
3.037675
-2.011625
-2.358423
-1.934666
2.076299
2.286324
1.757447
2.073067
12.801554
11.681734
12.772958
12.256773
-0.377778
-0.861165
-0.435504
-0.948957
-17.944154
-17.901652
-18.218495
-16.125038
-16.217508
-15.878479
-16.052608
-16.064700
-16.341121
6.952878
8.184800
7.733398
7.585960
0.866969
0.827836
1.143479
-1.337116
-1.519339
-0.288846
15.499901
15.741760
16.485653
-0.210550
-0.690201
-0.765233
-8.400007
-7.195836
-6.472348
16.891338
16.995372
16.672983
-0.224889
-15.990893
-15.965543
-15.575237
-0.547121
-0.553970
-0.656163
-0.467135
9.914393
9.827793
9.598390
1.148624
0.726277
0.281335
10.117211
14.272439
14.552687
14.459383
8.967611
8.162793
9.465991
14.692882
14.961552
14.671826
7.504536
7.159311
7.576531
5.910736
4.591001
5.033692
7.146510
-0.241252
-0.144856
-0.130154
8.466045
-11.645844
-11.850944
-11.922543
-0.189260
11.341798
10.872094
11.144869
-3.749739
-3.813221
-3.179281
17.841686
17.773736
17.688959
17.637240
17.548808
17.525683
-2.597942
-3.523768
-2.646394
-3.477235
-1.382569
-1.030625
-0.980087
10.816958
16.638493
-0.622175
-18.581263
-18.086215
-17.849860
-15.821053
-16.027836
-15.956248
7.571610
7.966157
8.269653
-17.513743
14.459375
14.144056
14.251861
14.225345
2.530459
2.579445
2.917641
8.158620
-7.860658
-8.238885
-8.073846
2.040773
1.893991
1.846965
1.606847
15.075866
15.138394
14.625672
3.152930
15.886843
15.647756
15.657060
-19.654063
-19.476871
-19.254548
17.016451
17.323985
17.135075
17.345314
-16.383760
-16.194950
-16.436611
-16.240873
-1.267288
-1.150427
-1.445038
14.547357
-10.309911
-10.960312
-8.740708
-0.938805
-8.781205
-9.632503
-10.282681
-9.093639
11.830626
12.407686
-10.328415
11.117078
-12.170426
-12.129303
-11.984627
-12.297003
-3.100256
-3.218565
-3.705178
7.586658
-8.174701
-8.952285
-10.069414
-9.906554
-10.036410
-9.951480
10.860711
11.022475
10.708817
10.976464
-15.981546
-15.866892
-2.562584
-10.994646
-10.805917
-10.926721
-10.702733
0.278846
0.182529
0.439060
14.740583
15.220083
14.521820
0.021022
15.298430
-4.911616
-4.485312
-4.009963
18.095284
18.035018
17.818674
-3.897421
-2.671395
-2.633899
-2.991800
18.292203
-2.860867
-10.274441
-10.641471
-10.113890
-2.732855
-2.418272
-2.539494
-10.363882
10.021375
10.267535
9.642255
8.854748
8.640766
8.635129
-3.616770
-3.782410
-3.060747
-3.993881
-3.509165
-3.536426
12.173032
12.384053
12.412076
12.215767
1.724672
1.364736
1.422702
8.367670
10.038330
5.923354
6.098467
5.681861
15.947620
16.337094
16.089884
16.510845
16.523811
16.769775
16.618028
16.892405
17.541743
17.831046
16.755478
-8.801707
-8.368870
-7.786806
-9.775151
16.554281
7.165586
7.243296
7.365764
-5.550020
-5.267914
-5.212414
11.902881
11.516036
11.682121
16.402759
17.318396
11.743137
-19.397598
-20.136369
-19.754821
19.219845
18.950742
19.079725
18.825105
-4.093848
-3.532837
13.031137
13.224673
13.118391
-2.724159
-2.473114
-2.953778
-2.534409
17.714579
-5.549155
17.336483
17.513976
-4.991290
-5.257478
-5.262882
-15.202820
-14.789953
-15.200184
-14.853799
-16.337497
-16.699631
-16.627623
-16.974599
-15.960496
-15.967631
-15.593799
-13.651304
-13.108450
-13.133884
-17.363687
-17.109002
-17.459022
-12.548110
1.195206
1.102770
0.910362
6.395818
6.429722
-16.344776
-16.483161
-16.225174
-16.652779
-12.976226
-13.255965
-13.225249
-13.633741
-10.074382
-10.078798
-10.175502
-10.173917
-17.419198
-17.124613
-17.668678
-15.731306
-17.050244
5.196498
5.111229
6.055783
-3.652871
-3.909883
-3.315798
-3.822810
16.971971
17.498579
17.213874
17.356303
-16.821227
-17.202247
7.617521
8.072973
7.286137
-9.730514
-9.813606
7.764502
18.341931
18.598391
18.586386
18.833102
18.061088
18.071670
17.795746
-9.820929
1.929420
1.569132
1.725201
1.278464
11.839568
11.103326
11.579551
-13.417547
-12.096641
-12.709778
-11.170687
19.442948
19.541929
19.672937
19.291200
-19.119286
-18.837902
-18.154210
-17.689558
-15.141989
-15.581415
9.861974
10.132903
8.932576
8.627136
-6.907525
-6.297048
-5.649149
-5.330784
17.540144
17.902413
18.117067
18.312368
17.929869
3.153744
3.417597
2.736508
14.967795
14.796104
15.696976
-1.015525
-1.308954
-0.612886
10.288704
9.526634
10.009661
9.724901
15.079652
14.171081
14.469727
-0.308602
-0.048610
-12.121821
-12.147573
-11.816446
3.092247
2.983601
3.449692
10.540232
10.257237
-15.934984
-15.862227
-15.594401
-15.579985
-11.163065
-11.286098
-11.041275
11.251633
2.492083
2.218535
2.769761
12.066930
-7.851081
-8.170769
-8.135167
8.281389
7.527683
6.856354
-11.338422
2.308005
2.145566
6.436604
-8.520756
-10.629482
-11.610229
-11.900932
-0.040052
-0.062559
-0.452819
16.079616
16.136565
15.679489
-3.863961
-3.377742
-9.962013
-9.580762
1.859613
1.907025
1.485650
-9.793269
1.584408
2.031260
2.423411
2.547722
-15.180766
-15.190222
-14.948333
-15.443505
-13.410984
-14.027757
-14.060616
-14.722518
-9.247849
-9.173427
-9.289981
16.469706
16.609613
16.712568
0.164704
0.150776
0.176805
-16.650337
-16.802373
-8.932180
16.689011
-14.156834
-13.900428
-14.573448
-13.236751
-20.495064
-20.176910
-19.647403
-19.673509
2.049032
2.444876
2.134413
-5.626254
-4.997880
-5.575695
-4.874495
-12.861848
-11.896069
-11.521366
14.639812
15.265428
14.988605
-6.234894
-5.750660
-12.302778
-12.224558
-12.543162
7.320163
8.702084
8.241765
-12.362225
-6.228843
-9.276042
-9.356488
15.864226
16.399896
16.206057
9.075591
8.414358
9.980719
-7.279848
-7.587650
-7.410133
-13.867847
-14.427383
-14.537281
-14.589395
-14.917851
-14.478553
-13.819195
-14.979152
-14.450367
-0.026314
0.173190
0.060764
2.473384
2.673409
0.137758
-9.309723
-14.772408
-14.002811
-13.749825
-13.769250
1.020613
1.139149
0.731748
1.435223
0.394598
0.660337
0.586859
0.648303
-13.099973
-13.097870
-12.744627
-12.838068
3.310950
3.927063
2.772194
17.757463
17.607453
17.929204
17.523241
-11.743005
-11.943872
-11.684204
-12.191909
-10.910870
-12.066506
-11.899114
-13.969328
-14.551949
-14.456936
9.215878
8.194798
8.915370
8.196786
-12.493226
-12.388933
-12.567187
15.985717
16.340404
16.436247
12.927277
12.972443
13.041739
12.846494
-17.861228
-17.628018
-17.204171
-10.597269
-10.497487
-10.986724
-10.810957
15.995732
16.141281
16.391736
-1.531890
-1.393720
-1.707995
8.086062
7.855736
8.409164
8.077048
8.553415
8.133491
8.489769
-0.538618
-0.528294
-0.610179
-0.064018
0.150545
0.045364
-0.499584
-16.852186
-17.065033
-16.832509
0.251149
-0.011238
0.222216
-1.621794
-1.370039
-14.812000
-14.968408
-14.555722
18.044932
18.186461
17.890982
-14.601807
-1.454654
12.390914
10.788319
12.001804
-14.713420
-14.861450
-15.295503
-6.879099
-7.171984
-13.794594
-13.814685
-14.231984
15.631109
16.238618
15.987402
-11.078706
-10.832258
-11.487608
-11.348946
-12.250132
-12.119911
-11.734332
-12.336554
-0.856429
-1.166579
-1.307062
-0.809687
14.703076
15.045336
15.508163
14.307419
15.727214
16.144950
18.305416
18.544519
18.578250
20.664405
20.849453
20.737439
18.864415
16.455257
16.518824
16.794775
16.845332
16.890703
-10.935255
-10.868388
14.670120
-0.902861
-1.364781
-1.423490
-2.143591
-13.206056
-14.088541
-14.023795
-6.771064
13.431057
13.704490
13.223361
13.439532
-11.713029
-11.865283
-11.140488
-0.913182
-0.895300
-0.704992
7.863341
7.724298
7.947411
7.525002
-10.395689
-9.949098
-10.254023
18.759198
18.505126
18.529607
13.420882
13.314591
12.122939
-9.440923
-10.026702
-8.568827
-9.445007
13.002486
13.597381
13.898245
-9.063566
-0.582043
-11.871657
-12.802589
-11.803437
-12.792497
-0.699640
-1.234316
12.732896
13.224687
-17.090350
-16.980971
0.823555
0.991326
1.105267
1.258796
-0.875266
-1.176884
-1.264210
-0.417581
-0.187952
-0.265491
10.408230
11.497660
10.437343
-0.329959
-9.716572
-10.581230
-9.387348
19.032116
19.280453
19.312719
2.503900
2.539997
2.714581
-8.713572
-8.391052
-8.375129
-14.054916
-13.964988
-13.597690
13.827478
13.994831
14.818134
18.246632
18.477632
18.513357
18.774719
12.954418
-14.093477
-14.418269
-14.498917
-2.408072
-2.759614
-2.416531
16.543680
16.606132
16.743516
16.796490
16.529793
16.376114
16.280058
-11.838728
-12.891319
-12.652051
6.755011
-19.254403
-18.882182
-19.153789
-16.318170
-10.967726
-10.811234
-9.971347
-15.266258
-14.940216
-15.527519
-9.760805
11.275833
12.171959
-3.187313
-3.890842
-3.782294
-5.383076
-6.001125
-6.459953
-10.029930
-10.199398
-10.277733
-10.305203
-7.087171
6.354662
6.491714
6.845766
-15.384859
-15.752201
-15.771316
-14.512318
-14.629684
-14.008867
-11.656992
-12.160182
-12.239198
-12.656406
15.668274
19.544672
13.492578
14.629257
14.237102
-13.798819
-13.970130
-14.267397
19.502120
-14.741610
-14.478232
-0.754858
-0.703804
12.306898
12.483535
12.400231
16.353398
16.434879
16.679681
12.555155
16.996371
16.902247
-16.452832
-16.806012
-16.739841
-17.060603
-7.545181
-7.403786
-7.478396
4.038776
4.188907
3.901270
5.623732
5.204886
6.040010
-1.560713
-1.121920
-1.151211
-1.570410
5.259767
16.066987
16.334072
16.108139
0.758355
0.607499
0.906101
-2.500594
-2.514955
-3.242481
-16.285849
-16.478197
-16.317928
-9.782443
-16.547421
16.455258
-0.446025
-0.537779
-0.087441
3.830388
4.253119
4.239709
-6.506325
-6.202402
-5.490065
-5.222797
-16.111519
-16.178231
8.401343
8.856061
8.944557
12.990026
12.556777
13.466229
13.372563
-16.619162
-16.951762
-16.899953
-17.282522
13.344694
13.393729
13.454753
13.310485
-7.780216
-6.624029
-7.002656
16.100644
16.230672
16.456818
-7.904172
16.889592
16.632721
16.814900
17.116727
-9.654207
-9.862774
-9.703826
-13.542815
-13.722896
-14.154714
-14.718051
-14.420595
-15.017254
-15.203992
-15.520043
-14.772694
6.841045
7.174513
7.012822
17.354566
17.479721
17.720098
-7.628833
-7.876364
-7.463158
17.206743
-7.132361
-6.909172
-7.288636
-10.666642
-11.283464
-10.911868
17.179261
17.137633
-13.818691
-14.261079
-13.129355
-13.462504
3.841638
3.392524
3.494259
-12.752186
6.517332
6.685106
7.002720
1.716974
1.288530
1.365986
0.660633
0.628669
0.882415
-17.618732
-17.335150
-17.280330
0.898214
18.469126
18.701713
18.341981
2.109672
2.223611
1.894533
-1.208128
-1.239459
-1.465098
-1.013526
-0.012830
-0.124980
-7.448637
-7.488127
-7.117477
-0.706476
-0.677253
-0.898186
9.925868
10.445345
-0.908498
-1.146577
-1.540299
-0.751067
-7.109526
1.296310
1.412336
-10.579364
-10.735521
-10.628933
-10.757868
-11.030571
-11.960138
-12.377345
-10.499147
-6.770927
-7.282494
-6.821586
1.766380
1.544349
2.082215
-7.209772
-6.697695
-11.464891
-11.716389
-6.099364
9.951523
9.992021
9.637175
10.380931
3.519134
3.121382
3.017586
3.595790
2.566737
3.007925
2.522369
-11.971646
-12.510202
-12.492900
16.667952
16.734846
15.351696
15.630951
15.864091
16.099153
-12.104374
-11.698753
-12.482194
-12.662564
-12.613724
-17.093168
-17.002073
-10.142751
-9.853450
-10.057409
-9.821572
-7.109716
-6.285763
-7.597920
-7.706779
-8.286623
6.980055
6.609725
7.129002
6.736353
-13.466461
-12.420568
-12.879144
7.140998
6.619475
16.478737
6.854524
-18.534088
-18.816067
-18.702248
16.385609
14.350362
14.413151
14.138443
-19.008415
13.851384
-11.477474
-16.706055
-1.066027
-0.781357
-0.771308
-16.970613
-9.806932
-9.970828
-10.062816
-10.165635
-7.326859
-7.087860
-7.767161
-7.155269
17.642564
17.268598
17.522525
17.058465
-9.161273
-9.512053
-9.288825
-9.552217
15.871747
15.901251
16.251062
16.097714
-13.178106
-13.248531
-16.751998
-16.587541
9.900856
9.339603
9.529682
9.902268
10.281157
9.523263
-10.620399
-10.715166
-2.209836
-1.968372
-2.345324
-1.910149
8.524727
-9.868521
-9.848449
-10.005914
-9.479273
-2.396715
-1.947963
-2.266172
9.302798
7.904554
-1.665746
-5.950462
-6.107791
-5.575778
-5.861283
-1.007883
-1.238608
0.164585
0.034498
6.739399
6.323328
-0.033234
-10.785021
-10.459638
-10.578598
-10.290397
16.012468
16.140759
15.966660
16.212366
2.809739
3.356906
7.877298
7.595963
8.201458
-14.362152
-13.776876
-13.847921
15.560191
15.731885
16.028680
3.796381
4.043344
16.239785
13.776806
13.613391
13.680192
2.073079
1.984065
2.319390
4.397248
-8.150511
-8.457237
4.740511
4.960778
5.377421
16.608095
16.428219
16.729161
-16.876810
-16.852057
16.415760
-16.866048
-17.076722
-16.824212
17.633529
17.299202
6.876544
6.920009
7.040066
-11.275680
-11.332262
-11.498967
-11.458169
-14.635439
-14.354485
-5.313786
-4.756756
-6.356963
-14.962654
-14.990679
-15.441662
-15.434879
-6.793285
-6.686955
1.066024
1.359969
0.992748
12.630583
12.551425
6.347653
6.940514
6.395514
12.379088
12.750736
12.734221
12.850391
-1.811621
-1.599132
-1.441446
-7.270260
-7.893004
-7.788112
-8.655131
-6.659209
-6.816943
-6.065153
11.986584
11.977761
12.142312
11.878656
20.569669
20.419682
20.386609
-10.211487
-10.372842
-10.384869
-4.375915
-5.102014
-4.499240
-10.250616
-11.297513
-10.231970
-10.800289
-10.825434
-1.025936
-0.872324
-0.747511
-10.440952
-10.596691
-18.434450
-18.204454
-18.309486
12.809287
12.378693
12.926756
-10.451805
8.646328
-10.573387
-10.442062
11.146818
11.265978
11.321181
11.105101
11.498123
11.212177
11.507972
19.712329
19.373191
19.598390
19.279564
17.841229
18.110699
17.938308
-14.389874
-14.342799
-14.628670
18.255219
-14.507558
-14.022686
-13.963062
-9.749258
-9.507274
-10.018490
-6.299656
-5.364008
-5.437700
15.930080
16.272189
15.740566
15.891406
-6.401271
12.085151
11.999111
12.839451
8.282431
7.893485
8.112845
7.664014
-4.964399
-5.241079
-4.836795
-5.333763
-6.718186
-6.450793
-6.238499
3.775929
3.717226
3.332310
3.348277
-10.781198
-10.874851
-10.867928
19.495498
-11.006639
19.170626
-10.683560
-10.627064
-8.960454
-8.471611
1.841115
1.537523
-3.278085
-3.160264
-2.677536
1.165437
0.968036
-17.038986
-17.244615
-17.264550
-17.497066
0.809849
1.095910
0.891025
2.100239
2.013812
2.329108
12.738938
12.846189
11.655442
14.071908
-7.147978
-9.240141
-1.468395
-1.924226
-1.503724
-1.850642
0.244565
0.482907
1.069318
0.977507
0.787985
0.709796
5.075822
5.328848
5.594549
1.599642
1.335810
1.131782
4.850131
-0.662454
-0.762909
-0.616719
-0.702652
6.030317
5.926031
10.302819
11.101162
-13.207560
-12.214955
-11.979919
-11.095189
-18.875656
-18.940173
-19.287326
-18.622298
1.909988
12.754001
12.697727
12.575732
12.388655
-18.670449
-18.475678
12.228409
-18.086171
-9.898403
-9.830287
-9.839501
-9.682406
-6.607213
-6.263667
-7.002143
7.380331
0.183664
0.308813
-0.186033
-5.836003
-5.574594
10.575667
10.401496
10.255696
-7.831990
-8.172320
13.998599
13.353257
13.363019
19.933886
19.742731
-8.445016
-7.509714
-13.730792
-13.253254
-6.634912
-6.346561
-6.570453
-6.447430
-0.751257
-0.618816
-0.538033
-0.496014
-10.159923
-6.448315
-6.775207
0.545313
-6.635268
-13.357977
-12.906357
-12.968030
-1.583687
-2.027924
-2.015634
-1.551232
-1.754651
-1.238949
9.998365
10.329791
9.696455
10.609133
13.671660
13.647460
13.770791
13.532892
-2.038497
-2.438862
-2.477892
3.705282
3.416771
3.852783
-0.677125
-0.942778
3.328802
-6.949796
-7.051435
-13.071465
-11.653637
-6.933449
-7.025963
-18.274519
-6.774034
19.278454
19.601032
19.809739
19.725182
12.760123
12.900237
13.040962
-16.055963
-15.442954
-15.785106
-3.278411
-3.234234
-3.525682
-3.383128
16.654366
15.642478
15.930276
15.926519
-17.267826
-16.339614
-16.442318
-16.133626
-16.660347
16.437747
16.646280
-16.921895
-17.164369
-17.110307
-4.942722
9.727434
16.261580
16.200952
16.339320
15.877071
16.328959
16.100987
-5.603896
-5.935852
-5.960440
-5.675759
-3.390002
-3.169727
-3.164344
-17.357360
-17.657857
19.521635
19.226749
19.036524
-8.928123
-8.203041
-7.551997
20.493580
20.641288
20.528213
1.714605
1.350265
-6.826515
-3.222617
-1.989835
-1.858135
-1.393184
6.815120
6.270204
7.350643
-1.315219
-1.530310
-2.609574
2.324977
2.381073
2.460284
-3.569656
-3.145398
-2.947719
2.146352
1.739000
2.160475
1.758872
2.168033
2.114720
-3.276724
-3.385311
-2.834156
-3.000296
-14.586255
-15.513102
-14.301160
-16.161843
-10.625534
-10.828788
-10.581421
-14.450963
-10.454115
5.982264
5.667782
6.027250
5.509871
12.812355
20.711535
20.518848
12.965431
17.520072
17.631594
1.408168
1.750463
12.992434
-2.261797
13.013242
10.153824
9.878293
9.945781
17.244588
17.368884
17.718323
17.398186
16.078487
15.539630
18.340703
18.541469
9.551365
15.972785
10.323972
10.529863
4.493742
4.207941
4.399546
-19.335862