# vtk DataFile Version 2.0
Test
ASCII
DATASET POLYDATA
POINTS 6352 float
0.000000 0.000000 0.000000
1.000000 0.000000 0.000000
1.000000 0.800000 0.000000
1.000000 1.000000 0.000000
0.000000 1.000000 0.000000
0.000000 0.200000 0.000000
0.300000 0.330000 0.000000
0.700000 0.680000 0.000000
0.050000 0.000000 0.000000
0.100000 0.000000 0.000000
0.150000 0.000000 0.000000
0.200000 0.000000 0.000000
0.250000 0.000000 0.000000
0.300000 0.000000 0.000000
0.350000 0.000000 0.000000
0.400000 0.000000 0.000000
0.450000 0.000000 0.000000
0.500000 0.000000 0.000000
0.550000 0.000000 0.000000
0.600000 0.000000 0.000000
0.650000 0.000000 0.000000
0.700000 0.000000 0.000000
0.750000 0.000000 0.000000
0.800000 0.000000 0.000000
0.850000 0.000000 0.000000
0.900000 0.000000 0.000000
0.950000 0.000000 0.000000
1.000000 0.048545 0.000000
1.000000 0.094438 0.000000
1.000000 0.137825 0.000000
1.000000 0.178843 0.000000
1.000000 0.217620 0.000000
1.000000 0.254280 0.000000
1.000000 0.288938 0.000000
1.000000 0.321703 0.000000
1.000000 0.352678 0.000000
1.000000 0.381962 0.000000
1.000000 0.409647 0.000000
1.000000 0.435820 0.000000
1.000000 0.460563 0.000000
1.000000 0.483955 0.000000
1.000000 0.506070 0.000000
1.000000 0.526976 0.000000
1.000000 0.546741 0.000000
1.000000 0.565427 0.000000
1.000000 0.583092 0.000000
1.000000 0.599793 0.000000
1.000000 0.615581 0.000000
1.000000 0.630507 0.000000
1.000000 0.644618 0.000000
1.000000 0.657958 0.000000
1.000000 0.670570 0.000000
1.000000 0.682493 0.000000
1.000000 0.693765 0.000000
1.000000 0.704421 0.000000
1.000000 0.714495 0.000000
1.000000 0.724019 0.000000
1.000000 0.733023 0.000000
1.000000 0.741536 0.000000
1.000000 0.749583 0.000000
1.000000 0.757191 0.000000
1.000000 0.764383 0.000000
1.000000 0.771183 0.000000
1.000000 0.777611 0.000000
1.000000 0.783688 0.000000
1.000000 0.789434 0.000000
1.000000 0.794865 0.000000
1.000000 0.805174 0.000000
1.000000 0.811554 0.000000
1.000000 0.819418 0.000000
1.000000 0.829114 0.000000
1.000000 0.841067 0.000000
1.000000 0.855804 0.000000
1.000000 0.873972 0.000000
1.000000 0.896371 0.000000
1.000000 0.923985 0.000000
1.000000 0.958029 0.000000
0.950000 1.000000 0.000000
0.900000 1.000000 0.000000
0.850000 1.000000 0.000000
0.800000 1.000000 0.000000
0.750000 1.000000 0.000000
0.700000 1.000000 0.000000
0.650000 1.000000 0.000000
0.600000 1.000000 0.000000
0.550000 1.000000 0.000000
0.500000 1.000000 0.000000
0.450000 1.000000 0.000000
0.400000 1.000000 0.000000
0.350000 1.000000 0.000000
0.300000 1.000000 0.000000
0.250000 1.000000 0.000000
0.200000 1.000000 0.000000
0.150000 1.000000 0.000000
0.100000 1.000000 0.000000
0.050000 1.000000 0.000000
0.000000 0.951455 0.000000
0.000000 0.905562 0.000000
0.000000 0.862175 0.000000
0.000000 0.821157 0.000000
0.000000 0.782380 0.000000
0.000000 0.745720 0.000000
0.000000 0.711062 0.000000
0.000000 0.678297 0.000000
0.000000 0.647322 0.000000
0.000000 0.618038 0.000000
0.000000 0.590353 0.000000
0.000000 0.564180 0.000000
0.000000 0.539437 0.000000
0.000000 0.516045 0.000000
0.000000 0.493930 0.000000
0.000000 0.473024 0.000000
0.000000 0.453259 0.000000
0.000000 0.434573 0.000000
0.000000 0.416908 0.000000
0.000000 0.400207 0.000000
0.000000 0.384419 0.000000
0.000000 0.369493 0.000000
0.000000 0.355382 0.000000
0.000000 0.342042 0.000000
0.000000 0.329430 0.000000
0.000000 0.317507 0.000000
0.000000 0.306235 0.000000
0.000000 0.295579 0.000000
0.000000 0.285505 0.000000
0.000000 0.275981 0.000000
0.000000 0.266977 0.000000
0.000000 0.258464 0.000000
0.000000 0.250417 0.000000
0.000000 0.242809 0.000000
0.000000 0.235617 0.000000
0.000000 0.228817 0.000000
0.000000 0.222389 0.000000
0.000000 0.216312 0.000000
0.000000 0.210566 0.000000
0.000000 0.205135 0.000000
0.000000 0.194826 0.000000
0.000000 0.188446 0.000000
0.000000 0.180582 0.000000
0.000000 0.170886 0.000000
0.000000 0.158933 0.000000
0.000000 0.144196 0.000000
0.000000 0.126028 0.000000
0.000000 0.103629 0.000000
0.000000 0.076015 0.000000
0.000000 0.041971 0.000000
0.303738 0.333271 0.000000
0.307477 0.336542 0.000000
0.311215 0.339813 0.000000
0.314953 0.343084 0.000000
0.318692 0.346355 0.000000
0.322430 0.349626 0.000000
0.326168 0.352897 0.000000
0.329907 0.356168 0.000000
0.333645 0.359439 0.000000
0.337383 0.362710 0.000000
0.341121 0.365981 0.000000
0.344860 0.369252 0.000000
0.348598 0.372523 0.000000
0.352336 0.375794 0.000000
0.356075 0.379065 0.000000
0.359813 0.382336 0.000000
0.363551 0.385607 0.000000
0.367290 0.388879 0.000000
0.371028 0.392150 0.000000
0.374766 0.395421 0.000000
0.378505 0.398692 0.000000
0.382243 0.401963 0.000000
0.385981 0.405234 0.000000
0.389720 0.408505 0.000000
0.393458 0.411776 0.000000
0.397196 0.415047 0.000000
0.400935 0.418318 0.000000
0.404673 0.421589 0.000000
0.408411 0.424860 0.000000
0.412150 0.428131 0.000000
0.415888 0.431402 0.000000
0.419626 0.434673 0.000000
0.423364 0.437944 0.000000
0.427103 0.441215 0.000000
0.430841 0.444486 0.000000
0.434579 0.447757 0.000000
0.438318 0.451028 0.000000
0.442056 0.454299 0.000000
0.445794 0.457570 0.000000
0.449533 0.460841 0.000000
0.453271 0.464112 0.000000
0.457009 0.467383 0.000000
0.460748 0.470654 0.000000
0.464486 0.473925 0.000000
0.468224 0.477196 0.000000
0.471963 0.480467 0.000000
0.475701 0.483738 0.000000
0.479439 0.487009 0.000000
0.483178 0.490280 0.000000
0.486916 0.493551 0.000000
0.490654 0.496822 0.000000
0.494393 0.500093 0.000000
0.498131 0.503364 0.000000
0.501869 0.506636 0.000000
0.505607 0.509907 0.000000
0.509346 0.513178 0.000000
0.513084 0.516449 0.000000
0.516822 0.519720 0.000000
0.520561 0.522991 0.000000
0.524299 0.526262 0.000000
0.528037 0.529533 0.000000
0.531776 0.532804 0.000000
0.535514 0.536075 0.000000
0.539252 0.539346 0.000000
0.542991 0.542617 0.000000
0.546729 0.545888 0.000000
0.550467 0.549159 0.000000
0.554206 0.552430 0.000000
0.557944 0.555701 0.000000
0.561682 0.558972 0.000000
0.565421 0.562243 0.000000
0.569159 0.565514 0.000000
0.572897 0.568785 0.000000
0.576636 0.572056 0.000000
0.580374 0.575327 0.000000
0.584112 0.578598 0.000000
0.587850 0.581869 0.000000
0.591589 0.585140 0.000000
0.595327 0.588411 0.000000
0.599065 0.591682 0.000000
0.602804 0.594953 0.000000
0.606542 0.598224 0.000000
0.610280 0.601495 0.000000
0.614019 0.604766 0.000000
0.617757 0.608037 0.000000
0.621495 0.611308 0.000000
0.625234 0.614579 0.000000
0.628972 0.617850 0.000000
0.632710 0.621121 0.000000
0.636449 0.624393 0.000000
0.640187 0.627664 0.000000
0.643925 0.630935 0.000000
0.647664 0.634206 0.000000
0.651402 0.637477 0.000000
0.655140 0.640748 0.000000
0.658879 0.644019 0.000000
0.662617 0.647290 0.000000
0.666355 0.650561 0.000000
0.670093 0.653832 0.000000
0.673832 0.657103 0.000000
0.677570 0.660374 0.000000
0.681308 0.663645 0.000000
0.685047 0.666916 0.000000
0.688785 0.670187 0.000000
0.692523 0.673458 0.000000
0.696262 0.676729 0.000000
0.004545 0.201970 0.000000
0.009091 0.203939 0.000000
0.013636 0.205909 0.000000
0.018182 0.207879 0.000000
0.022727 0.209848 0.000000
0.027273 0.211818 0.000000
0.031818 0.213788 0.000000
0.036364 0.215758 0.000000
0.040909 0.217727 0.000000
0.045455 0.219697 0.000000
0.050000 0.221667 0.000000
0.054545 0.223636 0.000000
0.059091 0.225606 0.000000
0.063636 0.227576 0.000000
0.068182 0.229545 0.000000
0.072727 0.231515 0.000000
0.077273 0.233485 0.000000
0.081818 0.235455 0.000000
0.086364 0.237424 0.000000
0.090909 0.239394 0.000000
0.095455 0.241364 0.000000
0.100000 0.243333 0.000000
0.104545 0.245303 0.000000
0.109091 0.247273 0.000000
0.113636 0.249242 0.000000
0.118182 0.251212 0.000000
0.122727 0.253182 0.000000
0.127273 0.255152 0.000000
0.131818 0.257121 0.000000
0.136364 0.259091 0.000000
0.140909 0.261061 0.000000
0.145455 0.263030 0.000000
0.150000 0.265000 0.000000
0.154545 0.266970 0.000000
0.159091 0.268939 0.000000
0.163636 0.270909 0.000000
0.168182 0.272879 0.000000
0.172727 0.274848 0.000000
0.177273 0.276818 0.000000
0.181818 0.278788 0.000000
0.186364 0.280758 0.000000
0.190909 0.282727 0.000000
0.195455 0.284697 0.000000
0.200000 0.286667 0.000000
0.204545 0.288636 0.000000
0.209091 0.290606 0.000000
0.213636 0.292576 0.000000
0.218182 0.294545 0.000000
0.222727 0.296515 0.000000
0.227273 0.298485 0.000000
0.231818 0.300455 0.000000
0.236364 0.302424 0.000000
0.240909 0.304394 0.000000
0.245455 0.306364 0.000000
0.250000 0.308333 0.000000
0.254545 0.310303 0.000000
0.259091 0.312273 0.000000
0.263636 0.314242 0.000000
0.268182 0.316212 0.000000
0.272727 0.318182 0.000000
0.277273 0.320152 0.000000
0.281818 0.322121 0.000000
0.286364 0.324091 0.000000
0.290909 0.326061 0.000000
0.295455 0.328030 0.000000
0.704615 0.681846 0.000000
0.709231 0.683692 0.000000
0.713846 0.685538 0.000000
0.718462 0.687385 0.000000
0.723077 0.689231 0.000000
0.727692 0.691077 0.000000
0.732308 0.692923 0.000000
0.736923 0.694769 0.000000
0.741538 0.696615 0.000000
0.746154 0.698462 0.000000
0.750769 0.700308 0.000000
0.755385 0.702154 0.000000
0.760000 0.704000 0.000000
0.764615 0.705846 0.000000
0.769231 0.707692 0.000000
0.773846 0.709538 0.000000
0.778462 0.711385 0.000000
0.783077 0.713231 0.000000
0.787692 0.715077 0.000000
0.792308 0.716923 0.000000
0.796923 0.718769 0.000000
0.801538 0.720615 0.000000
0.806154 0.722462 0.000000
0.810769 0.724308 0.000000
0.815385 0.726154 0.000000
0.820000 0.728000 0.000000
0.824615 0.729846 0.000000
0.829231 0.731692 0.000000
0.833846 0.733538 0.000000
0.838462 0.735385 0.000000
0.843077 0.737231 0.000000
0.847692 0.739077 0.000000
0.852308 0.740923 0.000000
0.856923 0.742769 0.000000
0.861538 0.744615 0.000000
0.866154 0.746462 0.000000
0.870769 0.748308 0.000000
0.875385 0.750154 0.000000
0.880000 0.752000 0.000000
0.884615 0.753846 0.000000
0.889231 0.755692 0.000000
0.893846 0.757538 0.000000
0.898462 0.759385 0.000000
0.903077 0.761231 0.000000
0.907692 0.763077 0.000000
0.912308 0.764923 0.000000
0.916923 0.766769 0.000000
0.921538 0.768615 0.000000
0.926154 0.770462 0.000000
0.930769 0.772308 0.000000
[...]
POINT_DATA 6352
SCALARS UX float 1
LOOKUP_TABLE default
-0.000009
0.000011
7.836582
-10.983995
-28.294988
-20.254552
-7.715330
-8.508060
0.000000
-0.000001
-0.000001
-0.000001
-0.000001
-0.000000
-0.000000
-0.000000
-0.000000
-0.000000
-0.000000
0.000000
0.000000
0.000000
0.000001
0.000001
0.000001
0.000002
-0.000002
1.418759
2.196416
2.742502
3.184824
3.541734
3.862586
4.148496
4.406159
4.642395
4.858781
5.058185
5.242756
5.414364
5.573818
5.722685
5.861879
5.993823
6.119747
6.240757
6.358695
6.474712
6.589159
6.703692
6.816043
6.926340
7.031577
7.130753
7.222878
7.307479
7.384895
7.454272
7.516439
7.572240
7.621300
7.665324
7.703649
7.736956
7.766127
7.791435
7.814061
7.858491
7.884603
7.907250
7.915631
7.899553
7.533272
6.480068
3.480478
-2.524664
-8.976303
-12.538345
-13.213318
-14.050826
-14.854315
-15.670849
-16.485212
-17.309279
-18.146166
-18.990890
-19.850209
-20.726475
-21.617075
-22.523088
-23.420705
-24.303248
-25.155390
-25.983263
-26.781498
-27.551278
-28.133058
-27.958594
-27.754524
-27.544602
-27.320438
-27.098664
-26.880396
-26.664143
-26.450750
-26.239024
-26.029286
-25.821540
-25.617262
-25.416136
-25.217185
-25.023923
-24.829397
-24.636152
-24.442034
-24.235801
-24.022394
-23.804769
-23.577775
-23.349039
-23.117648
-22.884226
-22.651720
-22.421120
-22.195568
-21.976075
-21.767168
-21.566530
-21.376467
-21.197161
-21.029492
-20.874049
-20.729689
-20.596215
-20.472665
-20.359744
-20.148881
-20.015147
-19.843415
-19.611242
-19.297574
-18.773539
-17.712025
-14.584916
-9.573850
-4.339044
-7.775016
-7.780595
-7.841028
-7.734863
-7.927038
-7.942685
-8.031064
-8.114490
-8.108520
-8.106011
-8.071184
-8.137308
-8.200717
-8.227643
-8.346977
-8.371681
-8.300730
-8.496781
-8.603512
-8.821087
-8.815687
-8.715950
-8.784486
-8.645956
-8.717492
-8.814659
-8.655890
-8.911785
-8.964275
-8.907459
-9.100602
-9.201337
-9.159126
-9.148086
-9.239299
-9.153338
-9.108117
-8.991175
-8.411018
-8.316601
-8.144304
-8.176211
-7.974224
-7.899540
-7.757883
-7.726827
-7.687679
-7.541323
-7.460450
-7.548643
-7.280195
-8.240553
-8.122504
-8.222641
-8.149442
-8.157999
-8.182937
-8.085508
-8.128344
-7.936572
-8.072784
-8.629135
-8.163278
-8.329948
-8.322540
-8.335899
-8.207161
-8.074338
-8.124684
-8.278616
-8.093039
-8.089567
-7.875110
-10.252787
-10.290186
-10.193920
-10.056528
-10.118148
-10.226915
-9.715695
-9.867336
-9.881049
-9.810785
-9.910302
-9.975960
-10.094587
-9.973299
-9.932379
-9.857601
-9.926775
-10.038982
-10.017203
-9.937759
-9.926206
-9.961113
-9.858359
-9.828175
-10.012778
-9.263021
-9.265284
-9.050770
-9.316570
-8.887126
-8.710317
-8.336911
-8.529310
-20.219598
-20.185563
-20.153748
-20.123776
-20.096203
-20.070532
-20.046072
-20.025062
-20.005305
-19.985500
-19.963852
-19.940850
-19.915980
-19.889095
-19.854914
-19.822662
-19.793450
-19.766457
-19.740344
-19.712426
-19.683129
-19.651816
-19.612826
-19.574780
-19.530025
-19.481969
-19.426638
-19.366990
-19.298181
-19.234916
-19.167707
-19.108292
-19.089751
-19.080524
-19.077879
-19.070901
-19.062992
-19.072254
-18.923186
-18.784273
-18.589920
-18.382225
-18.187822
-18.022640
-17.686723
-17.330041
-17.011767
-16.471006
-15.932749
-15.411098
-14.914140
-14.363253
-13.809835
-13.238906
-12.877508
-12.373149
-11.988969
-11.639195
-11.132859
-10.742267
-10.369199
-9.998952
-9.524845
-8.955954
-8.315972
-7.639517
-6.558647
-5.572123
-4.918888
-4.045420
-2.957033
-2.029507
-1.294527
-0.642936
0.007911
0.647087
0.802441
1.159859
1.690732
2.197819
2.546713
2.781389
3.009774
3.228041
3.287774
3.422511
3.549837
3.742588
3.948077
4.133889
4.286358
4.404770
4.609842
4.763122
4.898435
5.055638
5.124227
5.196888
5.262732
5.339062
5.450436
5.561063
5.690514
5.796861
5.899991
6.011954
6.126912
6.238512
6.344676
6.448569
6.541776
6.629166
6.712473
6.791982
6.866676
6.935781
6.999551
7.064733
7.133167
7.205154
7.278191
7.348489
7.416343
7.481497
7.542456
7.600744
7.657970
7.715519
7.774536
2.665239
2.632224
2.761705
2.548851
0.119122
0.070285
0.137459
0.047624
-14.388953
-14.742338
-11.814898
-12.745979
-9.056055
-13.353256
-22.863562
-22.626506
-22.815784
-22.618559
-12.984692
-0.918771
-0.741344
-0.740082
-0.555542
-15.701887
-15.764993
-15.441519
-16.079410
-2.123903
-2.121045
-1.798496
-17.535674
-17.267295
-17.614322
-17.228291
3.999668
3.832395
4.081946
3.848569
-0.560013
-0.798373
-0.539135
-0.922231
-21.505047
-21.438999
-21.713277
-19.864089
-19.858450
-19.686977
-20.178152
-20.176245
-20.336639
2.994228
3.302991
3.115411
3.235894
-0.325207
-0.203812
-0.146579
-6.346963
-6.068856
-4.470182
4.304321
4.417826
4.488059
-18.409501
-18.701874
-18.540028
-13.523380
-13.973400
-12.618282
5.429242
5.495535
5.394904
-18.680778
-20.141183
-20.124407
-19.900038
-1.109855
-1.384437
-1.383702
-1.205190
1.613207
1.378188
1.485566
-11.993099
-12.541950
-13.648074
1.380935
2.142240
2.411505
1.986611
-14.072082
-14.673396
-13.761564
2.256732
2.457127
1.629756
1.576874
1.570393
1.669803
-15.269591
-15.648077
-15.143309
1.479630
-0.252114
-0.103529
-0.149107
-14.371030
-20.517826
-20.703985
-20.530357
-0.138997
2.758871
2.658708
2.784238
-2.417333
-2.584791
-2.071139
4.473217
4.461841
4.400854
4.395172
4.324787
4.319771
-22.424324
-22.864204
-22.193626
-22.541801
-1.038945
-0.795925
-0.876595
2.747874
5.336193
-0.628478
-23.933154
-23.660549
-23.918290
-20.104476
-20.436903
-20.116164
-4.725643
-2.825067
-2.800182
-23.580347
3.144670
3.044544
3.165955
2.905017
-14.367958
-13.533293
-13.433528
-1.561229
-19.583379
-19.533804
-19.416320
-1.550475
-1.777800
-1.380212
-1.576036
3.912487
3.873970
3.799162
-12.501556
1.966118
1.336782
1.366127
-22.767828
-22.618671
-22.479164
4.133604
4.243149
4.153159
4.226299
-20.472064
-20.304799
-20.505611
-20.326916
-2.859101
-2.516334
-2.765429
3.747168
-14.034567
-15.470906
-11.709876
-2.487872
-11.805141
-13.889608
-15.507617
-12.276424
3.940684
4.136661
-15.707202
3.884404
-19.100701
-18.907847
-18.672260
-19.232425
-1.818310
-1.950540
-2.243071
-5.419684
-19.656368
-12.619800
-19.498201
-19.537044
-19.636313
-19.272110
2.050608
1.927159
1.906569
1.733178
-20.060304
-20.009790
-1.522658
-19.704507
-19.813747
-19.998765
-19.993001
-1.776968
-1.582729
-1.543929
3.932022
3.989443
3.850259
-1.851714
4.055698
-6.747618
-5.922377
-5.572103
4.888047
4.923880
4.824394
-5.039018
-18.274450
-18.442273
-18.385637
4.973158
-18.570290
-21.087386
-20.970806
-20.956475
-18.080502
-18.142051
-17.941043
-20.796008
2.766183
2.740193
2.615186
0.242691
0.156616
0.573229
-2.151147
-2.308940
-1.811359
-18.921870
-18.834906
-19.056851
2.565184
2.635196
2.518963
2.713431
-0.264446
-0.429254
-0.221649
0.460455
2.611831
0.921469
0.837273
0.807004
2.776180
3.281371
3.102357
3.585722
3.978234
4.050476
3.966291
4.055223
5.041272
4.979790
4.852382
-11.642466
-10.998127
-9.405916
-14.368209
4.737826
-1.437529
-0.867677
-1.510274
-18.171161
-17.945302
-18.373443
2.942594
2.868977
2.982698
4.879242
5.120701
2.834741
-24.690734
-24.870647
-24.456570
6.598879
6.646961
6.524107
6.543640
-13.679179
-12.473413
2.561332
2.488343
2.347976
-19.537275
-19.645402
-19.805809
-19.845940
4.843282
-17.537964
4.723154
4.736898
-19.314053
-19.468232
-19.338077
-18.876338
-18.210231
-18.818304
-18.456631
-20.636185
-20.834264
-20.815595
-21.014308
-20.433295
-20.407962
-20.217271
-18.813957
-17.897456
-18.303402
-21.128910
-20.927140
-21.145940
-17.539690
-1.712800
-2.150477
-1.772844
0.983782
0.844771
-21.386653
-21.321442
-21.222202
-21.498816
-19.932202
-20.150059
-19.885962
-20.127848
-18.089358
-18.579066
-18.241372
-18.786150
-22.499747
-22.638645
-22.740060
-19.960668
-22.422941
-13.594021
-13.748919
-13.136151
-14.874178
-15.447396
-13.342495
-16.510761
4.253345
4.384673
4.292877
4.372483
-20.687664
-20.937309
2.774501
2.815517
2.634153
-19.541912
-19.388288
2.692847
5.582830
5.576634
5.660457
5.659456
5.577874
5.517037
5.490619
-19.666225
0.765230
0.650620
0.791396
0.600429
3.504059
3.383328
3.510995
-16.869901
-14.824860
-16.290825
-13.391976
5.857287
5.762433
5.852974
5.767385
-26.034036
-25.698274
-25.799570
-25.498672
-19.963075
-20.181988
-9.486631
-8.859660
-11.655561
-12.162225
-22.947559
-22.503568
-22.564641
-22.174876
5.388629
5.424529
4.847369
4.923038
4.810641
-15.074283
-14.792386
-15.300567
4.109762
4.133754
4.267274
-5.008859
-5.284148
-3.868951
3.242560
3.105789
3.244109
3.097262
4.075215
3.936600
3.929191
-0.363358
-0.226251
-20.459621
-20.656362
-20.367323
-16.975371
-16.886012
-16.718847
2.863969
2.874863
-19.959568
-19.847417
-19.484367
-19.452134
-18.929198
-18.602155
-18.389701
3.994474
-15.619597
-15.999913
-15.661319
4.202796
-20.463614
-20.540492
-20.389799
-13.907671
-14.358980
-14.917806
-19.124482
-5.216392
-5.899973
-15.040664
-20.461870
-16.159073
-16.808513
-16.852037
-0.340772
-0.372800
-0.630469
5.276973
5.418022
5.162038
-19.247377
-19.272436
-20.820212
-20.913166
-16.406484
-16.176901
-16.751078
-21.103505
-16.874060
-16.542457
-16.519423
-16.215737
-19.621018
-19.532986
-19.177824
-19.961650
-16.811460
-17.641581
-17.879846
-18.673493
-15.480135
-16.544078
-17.252909
3.314233
3.419986
3.629320
-0.054369
-0.147544
-0.067107
-21.253881
-21.434143
-14.743977
3.677935
-19.079784
-19.027860
-19.361522
-18.617749
-25.427974
-25.135457
-25.205838
-24.955337
-16.227580
-16.283547
-16.528211
-21.277063
-21.162170
-21.428200
-21.278528
-23.901925
-23.547109
-23.844773
3.217722
3.936288
3.760338
-21.380651
-21.160455
-20.134099
-20.330020
-20.425378
-13.101200
-10.991058
-11.579890
-20.553753
-21.193927
-18.113108
-17.412837
6.281870
6.368016
6.441331
-5.520698
-6.022187
-3.053991
-19.688000
-19.667009
-19.549650
-16.815546
-17.915557
-17.814157
-19.671048
-19.863173
-19.614634
-17.068244
-18.450395
-17.532158
-0.370504
-0.288505
-0.456756
-17.137528
-16.846907
-0.178331
-18.548502
-18.087556
-20.926618
-20.828187
-20.977118
-16.637377
-16.940847
-16.850745
-16.725415
-15.125241
-14.618912
-15.465744
-13.652672
-21.251290
-21.104955
-21.096710
-20.941541
-14.047863
-12.465355
-14.759590
4.685254
4.573573
4.691049
4.632204
-17.934079
-18.332936
-17.813456
-18.338990
-17.412380
-18.291514
-18.486372
-18.000519
-18.626971
-18.688770
3.784854
3.506735
3.731066
3.475242
-20.955905
-21.059335
-21.243315
6.804135
6.823288
6.919170
1.787314
2.129773
1.702055
2.200772
-22.573296
-22.370511
-22.273298
-21.179860
-21.345314
-21.293982
-21.478680
6.603776
6.530081
6.642651
-17.205991
-17.486999
-17.461661
2.346131
2.351027
2.481091
2.486270
2.422909
2.293407
2.296943
-1.756827
-1.573601
-1.816267
-0.830028
-0.710108
-0.914911
-1.570233
-20.576618
-20.684682
-20.507933
-0.967118
-1.122490
-1.167149
-16.801502
-16.931813
-20.974002
-20.813196
-20.759836
7.014100
7.071175
7.079965
-20.537489
-16.494139
0.074421
-5.080991
-1.862652
-19.324029
-19.454232
-19.628336
-19.720935
-19.827091
-19.320522
-19.362749
-19.527928
5.811665
5.963469
6.052794
-21.990536
-22.187499
-22.192971
-22.310403
-18.747965
-18.854121
-18.004647
-19.192885
-17.957808
-18.082032
-17.898410
-18.154923
4.937206
5.283578
5.475858
4.456866
5.404690
5.669418
5.393035
5.382548
5.482333
6.359209
6.406974
6.484206
5.466030
5.120625
5.054077
5.201608
3.759516
3.858504
-17.107857
-16.813561
2.792288
-3.441638
-3.580640
-3.835253
-4.217898
-18.843334
-19.329824
-19.242792
-19.867933
3.403277
3.405124
3.317479
3.293087
-22.703227
-22.530827
-22.453521
-3.483039
-2.858564
-3.112431
-2.006039
-1.457198
-0.708478
-3.455984
-16.703886
-14.985418
-16.460459
5.088568
5.062090
5.006848
0.054822
0.260920
-3.478691
-13.454538
-16.672389
-14.822158
-15.584321
3.651325
3.788729
3.786824
-15.832170
-0.543320
-13.866107
-15.654556
-13.836589
-15.639434
-2.612025
-3.192859
3.656975
3.777259
-23.704919
-23.439056
-15.703001
-15.029282
-15.680300
-14.802580
-1.570932
-1.907050
-1.747465
-1.339335
-1.076226
-1.341848
-4.944157
-1.360950
-4.084058
-1.126505
-10.715838
-12.567142
-10.428553
6.189704
6.102448
6.233194
-2.860813
-1.822204
-2.028687
-16.322588
-14.310781
-14.600259
-18.107994
-17.859012
-17.288565
2.787220
2.841737
3.974871
5.189730
5.195305
5.288411
5.283704
0.544053
-18.044717
-18.408039
-18.655886
-18.565795
-18.717467
-18.795248
3.447383
3.606115
3.634714
3.802994
3.295180
3.143837
2.761581
-18.014937
-18.772164
-18.617781
0.915218
-22.514767
-22.240517
-22.455316
-20.327722
-14.600660
-14.793685
-12.667804
-19.693586
-19.418214
-19.855782
-12.688266
3.357966
3.516389
-5.398243
-6.374187
-5.950248
-4.378040
-5.274964
-6.265782
-17.194429
-17.713047
-17.537108
-18.361549
-7.391337
1.589619
1.716024
1.689753
-22.268935
-22.419968
-22.258146
-18.051715
-18.437664
-17.376584
-17.836240
-18.373210
-18.290084
-18.857363
6.357341
6.163069
4.055466
4.258869
4.148913
-19.416335
-19.439144
-19.532846
6.064910
-19.715982
-19.650185
-0.467670
-0.305356
1.939548
1.883945
1.504947
4.805456
4.699447
4.908167
1.398999
5.006092
5.062344
-20.620098
-20.816008
-20.821762
-20.995686
-18.169374
-18.353233
-18.572189
-2.022875
-2.928462
-3.095287
2.037179
1.986892
2.240876
-18.890553
-18.719500
-18.935653
-18.658233
2.073702
3.741340
3.801776
3.652644
-0.711990
-0.603913
-0.495238
-4.531057
-4.890965
-5.728875
-20.491844
-20.700022
-20.464065
-11.837564
-20.664804
3.761509
-18.026993
-17.813731
-17.898492
-16.508857
-16.275478
-16.370132
-6.045457
-5.297249
-4.579522
-3.990507
-20.244204
-20.457293
2.834713
2.976721
2.936412
-5.395978
-5.507915
-2.685217
-2.951473
-20.506504
-20.680953
-20.687502
-20.959088
-0.045045
1.152144
1.200354
0.443333
-24.898280
-24.298719
-24.771116
4.372650
4.335375
4.513185
-24.632686
4.714010
4.684388
3.872200
4.078382
-19.970990
-19.833170
-19.802221
-18.809621
-18.758060
-19.132471
-19.421212
-19.291675
-19.941944
-20.033605
-20.215219
-19.792982
0.602998
0.598074
0.426357
5.590001
5.539492
5.624907
-20.717022
-20.603410
-20.543546
5.501958
-20.618390
-20.714186
-20.776243
-16.716771
-17.554483
-16.779847
7.312945
7.258821
-17.775227
-18.552221
-17.065315
-17.664622
-16.508603
-16.673384
-16.742161
-17.128629
0.639880
0.760341
0.718848
1.150549
0.943160
0.993038
-0.169874
-0.049049
-0.080694
-21.334282
-21.185207
-21.113433
0.758734
6.373786
6.430315
6.449867
-13.625106
-14.411293
-14.665884
-15.157267
-16.068472
-15.762440
-15.405014
-0.242147
-0.356880
-20.389644
-20.235362
-20.312849
-2.241084
-1.996300
-2.226698
2.492299
2.605382
-19.177059
-19.446727
-19.376887
-1.932217
-20.142408
-16.043242
-15.664033
-17.230491
-17.973415
-17.356056
-17.974268
-24.545739
-24.991236
-24.754892
-24.827061
-21.463281
-21.507630
-21.338908
-0.066716
0.061021
0.139784
-21.336902
-21.626587
-20.691937
-20.915965
-21.492502
2.073840
1.948750
1.978748
2.029214
1.545646
1.391708
1.419087
1.501618
1.295239
1.479091
1.330479
-22.385148
-22.575740
-22.369016
7.669429
7.612432
3.128567
3.102846
3.565347
3.609651
-22.213221
-22.066053
-19.481707
-19.442197
-19.221899
-20.030042
-20.023338
-20.535434
-20.601820
-20.694347
-20.480081
-21.873667
-21.719123
-22.128295
-21.943739
-22.242926
2.123715
2.065242
2.223819
2.177621
-24.374822
-24.186581
-24.541966
2.090074
1.990822
7.594450
1.962364
-22.001379
-22.192031
-22.113256
7.660552
-2.646494
-5.892516
-5.081359
-22.320766
-5.487567
-24.270333
-19.827504
-3.334626
-2.897546
-3.133049
-19.903904
-20.138793
-20.248954
-20.108860
-20.257985
-20.908632
-21.006647
-21.169278
-21.166987
4.384743
4.274166
4.365450
4.231033
-20.476560
-20.438153
-20.320825
-20.565876
2.330377
2.177627
2.844888
2.411890
-17.916655
-18.208650
-20.164289
-20.114908
2.368904
2.322967
2.487047
2.184006
2.169131
2.090608
-19.869166
-19.676558
-19.887487
-19.929029
-20.149931
-20.078132
2.566873
-15.725428
-16.660016
-17.198512
-14.661281
-3.431784
-3.053190
-3.346200
-8.878958
-11.719273
-2.819045
-20.212096
-20.051997
-20.098165
-19.927896
-17.486125
-17.685927
-0.156192
-0.255393
1.559343
1.477851
-0.270828
-17.209438
-16.073102
-16.891570
-15.278915
2.181195
2.623237
2.204468
2.918688
1.473954
1.640294
2.599842
2.601923
2.747087
-19.389194
-19.181179
-19.123923
6.956501
6.897898
7.092930
1.818674
1.822722
7.041313
-2.385590
-4.806051
-1.449324
-17.165214
-16.990125
-16.985019
2.001986
-20.233427
-20.307760
2.039715
2.169155
2.231866
4.317295
4.211726
4.343965
-22.113298
-22.266863
4.150750
-20.974088
-21.089055
-20.937822
4.740902
4.636847
-1.360396
-2.583508
-0.623550
-17.658936
-17.646355
-18.052145
-18.047005
-19.195572
-19.036852
-5.834386
-5.103439
-8.239512
-19.111746
-19.226191
-19.406969
-19.485450
-20.205809
-20.340037
0.633930
0.724431
0.535561
1.774184
2.132128
2.218127
2.307757
2.143879
2.092855
1.834153
1.338142
1.276768
-15.696522
-14.645886
-14.613822
-22.379851
-22.594787
-22.345108
-22.625180
-22.188541
-22.437349
-22.169151
-0.490227
0.605118
0.535712
-0.140007
5.656914
5.586046
5.532133
-19.765492
-19.797601
-19.627855
-2.958264
-3.841419
-3.182966
-19.960178
-13.276845
-11.409144
-12.245537
-12.642462
-16.367426
-15.521114
-16.186416
-15.781155
-17.010668
-21.693856
-21.520596
-21.648747
3.480435
3.428933
3.553445
-16.344710
3.504976
-17.573136
-17.637922
-0.878716
-0.034091
-0.771277
0.020060
-0.408022
-2.631871
-1.450205
7.014135
7.045836
6.929196
6.965565
7.219970
7.209611
7.289714
-19.298167
-19.476934
-19.661676
7.255702
-19.792264
-18.905105
-18.451583
-15.891327
-15.096771
-16.904967
-6.647448
-5.187170
-5.818068
4.167810
4.204671
4.100885
4.085451
-6.435003
-4.843669
-4.903620
-2.158845
1.168837
1.165842
1.302790
1.273809
-19.705250
-19.610312
-19.562168
-19.756385
-20.824948
-20.639732
-20.738434
1.339619
1.246504
1.206223
1.105033
-18.509144
-18.944400
-18.515791
6.835136
-18.886867
6.869135
-18.528655
-17.892720
-13.028790
-12.742057
-16.765492
-17.023305
-20.358391
-20.060382
-20.114481
0.013487
0.066012
-20.524294
-20.687413
-20.635907
-20.835446
0.113369
0.214079
0.267318
-0.294758
-0.142538
-0.114534
-0.527668
0.064353
-3.493363
2.726707
-11.643008
-13.375614
-3.817184
-4.149270
-3.591007
-3.786468
-1.372201
-1.284545
-1.234567
-1.434002
-1.226399
-1.463333
1.341048
1.484962
1.487971
-2.870262
-4.452444
-4.279519
1.392894
-2.443585
-2.341631
-2.072342
-2.012541
1.601780
1.471056
-5.330324
-3.895266
-15.768817
-14.189801
-13.953738
-12.587035
-22.067033
-22.151513
-22.369816
-21.926515
-3.511013
2.406754
2.197990
2.395961
2.334354
-21.886173
-21.795004
2.429413
-21.540825
-18.256677
-18.460425
-18.714990
-18.888118
-20.513909
-20.349083
-20.459899
2.225867
-17.490561
-17.726681
-17.663311
-20.350327
-20.254171
1.505910
1.390775
1.572406
-20.152445
-20.076815
3.682146
3.537455
3.585957
6.877387
6.826234
-20.155663
-20.072879
-24.951534
-25.146031
-18.328039
-18.509956
-18.666841
-17.928884
-1.817782
-1.672378
-1.486793
-1.413805
-16.512527
-18.879637
-18.769786
-1.056206
-19.005226
-17.848803
-17.335081
-17.179692
-2.989354
-3.708265
-18.130426
-18.103188
-18.302807
-18.281296
1.807918
1.873712
1.872699
1.777781
0.831554
1.608333
1.732531
1.057794
-2.511284
-2.485417
-2.902798
0.769429
0.798976
0.884545
-1.672182
-1.971583
0.704180
-18.827780
-18.611199
-25.428826
-25.278557
-18.407636
-18.960431
-21.694902
-19.173618
5.360389
5.535451
5.510186
6.743051
-2.141371
-0.864756
-0.438864
-19.648276
-19.300267
-19.557370
-18.009500
-18.223538
-18.107829
-18.362284
7.732652
4.827358
4.974608
4.990828
-20.080993
-21.899245
-21.766331
-21.709279
-21.956083
3.579760
3.765551
-21.985307
-22.082973
-21.914037
-4.594146
-8.970897
3.358745
3.523335
7.309370
7.181912
7.215658
3.244486
-18.779187
-18.871611
-18.651330
-18.991044
-17.344200
-17.268594
-17.762888
-20.827809
-20.988567
7.139532
7.173222
7.073024
-10.488202
-9.443647
-7.704609
5.717637
5.846648
5.839422
-16.464481
-16.389107
-6.594170
-16.720894
-21.564121
-21.211116
-20.981824
-12.615107
-12.969255
-12.054071
-0.627343
-0.784054
-1.885794
-2.555075
-2.032820
-2.521151
-18.643759
-18.715271
-18.932594
-0.930126
-0.865516
-0.671988
-0.639427
-3.487645
-2.678231
-4.631122
-4.241698
-3.895679
-3.526583
-26.294921
-26.257050
-25.838559
-26.701045
-16.929033
-17.592139
-16.949581
-25.544243
-15.938284
1.029824
1.049165
1.169076
1.131929
1.853234
5.987262
5.971060
1.123941
7.220902
7.278276
-0.614889
-0.453072
1.238937
-18.344932
0.403711