# vtk DataFile Version 2.0
Test
ASCII
DATASET POLYDATA
POINTS 6352 float
0.000000 0.000000 0.000000
1.000000 0.000000 0.000000
1.000000 0.800000 0.000000
1.000000 1.000000 0.000000
0.000000 1.000000 0.000000
0.000000 0.200000 0.000000
0.300000 0.330000 0.000000
0.700000 0.680000 0.000000
0.050000 0.000000 0.000000
0.100000 0.000000 0.000000
0.150000 0.000000 0.000000
0.200000 0.000000 0.000000
0.250000 0.000000 0.000000
0.300000 0.000000 0.000000
0.350000 0.000000 0.000000
0.400000 0.000000 0.000000
0.450000 0.000000 0.000000
0.500000 0.000000 0.000000
0.550000 0.000000 0.000000
0.600000 0.000000 0.000000
0.650000 0.000000 0.000000
0.700000 0.000000 0.000000
0.750000 0.000000 0.000000
0.800000 0.000000 0.000000
0.850000 0.000000 0.000000
0.900000 0.000000 0.000000
0.950000 0.000000 0.000000
1.000000 0.048545 0.000000
1.000000 0.094438 0.000000
1.000000 0.137825 0.000000
1.000000 0.178843 0.000000
1.000000 0.217620 0.000000
1.000000 0.254280 0.000000
1.000000 0.288938 0.000000
1.000000 0.321703 0.000000
1.000000 0.352678 0.000000
1.000000 0.381962 0.000000
1.000000 0.409647 0.000000
1.000000 0.435820 0.000000
1.000000 0.460563 0.000000
1.000000 0.483955 0.000000
1.000000 0.506070 0.000000
1.000000 0.526976 0.000000
1.000000 0.546741 0.000000
1.000000 0.565427 0.000000
1.000000 0.583092 0.000000
1.000000 0.599793 0.000000
1.000000 0.615581 0.000000
1.000000 0.630507 0.000000
1.000000 0.644618 0.000000
1.000000 0.657958 0.000000
1.000000 0.670570 0.000000
1.000000 0.682493 0.000000
1.000000 0.693765 0.000000
1.000000 0.704421 0.000000
1.000000 0.714495 0.000000
1.000000 0.724019 0.000000
1.000000 0.733023 0.000000
1.000000 0.741536 0.000000
1.000000 0.749583 0.000000
1.000000 0.757191 0.000000
1.000000 0.764383 0.000000
1.000000 0.771183 0.000000
1.000000 0.777611 0.000000
1.000000 0.783688 0.000000
1.000000 0.789434 0.000000
1.000000 0.794865 0.000000
1.000000 0.805174 0.000000
1.000000 0.811554 0.000000
1.000000 0.819418 0.000000
1.000000 0.829114 0.000000
1.000000 0.841067 0.000000
1.000000 0.855804 0.000000
1.000000 0.873972 0.000000
1.000000 0.896371 0.000000
1.000000 0.923985 0.000000
1.000000 0.958029 0.000000
0.950000 1.000000 0.000000
0.900000 1.000000 0.000000
0.850000 1.000000 0.000000
0.800000 1.000000 0.000000
0.750000 1.000000 0.000000
0.700000 1.000000 0.000000
0.650000 1.000000 0.000000
0.600000 1.000000 0.000000
0.550000 1.000000 0.000000
0.500000 1.000000 0.000000
0.450000 1.000000 0.000000
0.400000 1.000000 0.000000
0.350000 1.000000 0.000000
0.300000 1.000000 0.000000
0.250000 1.000000 0.000000
0.200000 1.000000 0.000000
0.150000 1.000000 0.000000
0.100000 1.000000 0.000000
0.050000 1.000000 0.000000
0.000000 0.951455 0.000000
0.000000 0.905562 0.000000
0.000000 0.862175 0.000000
0.000000 0.821157 0.000000
0.000000 0.782380 0.000000
0.000000 0.745720 0.000000
0.000000 0.711062 0.000000
0.000000 0.678297 0.000000
0.000000 0.647322 0.000000
0.000000 0.618038 0.000000
0.000000 0.590353 0.000000
0.000000 0.564180 0.000000
0.000000 0.539437 0.000000
0.000000 0.516045 0.000000
0.000000 0.493930 0.000000
0.000000 0.473024 0.000000
0.000000 0.453259 0.000000
0.000000 0.434573 0.000000
0.000000 0.416908 0.000000
0.000000 0.400207 0.000000
0.000000 0.384419 0.000000
0.000000 0.369493 0.000000
0.000000 0.355382 0.000000
0.000000 0.342042 0.000000
0.000000 0.329430 0.000000
0.000000 0.317507 0.000000
0.000000 0.306235 0.000000
0.000000 0.295579 0.000000
0.000000 0.285505 0.000000
0.000000 0.275981 0.000000
0.000000 0.266977 0.000000
0.000000 0.258464 0.000000
0.000000 0.250417 0.000000
0.000000 0.242809 0.000000
0.000000 0.235617 0.000000
0.000000 0.228817 0.000000
0.000000 0.222389 0.000000
0.000000 0.216312 0.000000
0.000000 0.210566 0.000000
0.000000 0.205135 0.000000
0.000000 0.194826 0.000000
0.000000 0.188446 0.000000
0.000000 0.180582 0.000000
0.000000 0.170886 0.000000
0.000000 0.158933 0.000000
0.000000 0.144196 0.000000
0.000000 0.126028 0.000000
0.000000 0.103629 0.000000
0.000000 0.076015 0.000000
0.000000 0.041971 0.000000
0.303738 0.333271 0.000000
0.307477 0.336542 0.000000
0.311215 0.339813 0.000000
0.314953 0.343084 0.000000
0.318692 0.346355 0.000000
0.322430 0.349626 0.000000
0.326168 0.352897 0.000000
0.329907 0.356168 0.000000
0.333645 0.359439 0.000000
0.337383 0.362710 0.000000
0.341121 0.365981 0.000000
0.344860 0.369252 0.000000
0.348598 0.372523 0.000000
0.352336 0.375794 0.000000
0.356075 0.379065 0.000000
0.359813 0.382336 0.000000
0.363551 0.385607 0.000000
0.367290 0.388879 0.000000
0.371028 0.392150 0.000000
0.374766 0.395421 0.000000
0.378505 0.398692 0.000000
0.382243 0.401963 0.000000
0.385981 0.405234 0.000000
0.389720 0.408505 0.000000
0.393458 0.411776 0.000000
0.397196 0.415047 0.000000
0.400935 0.418318 0.000000
0.404673 0.421589 0.000000
0.408411 0.424860 0.000000
0.412150 0.428131 0.000000
0.415888 0.431402 0.000000
0.419626 0.434673 0.000000
0.423364 0.437944 0.000000
0.427103 0.441215 0.000000
0.430841 0.444486 0.000000
0.434579 0.447757 0.000000
0.438318 0.451028 0.000000
0.442056 0.454299 0.000000
0.445794 0.457570 0.000000
0.449533 0.460841 0.000000
0.453271 0.464112 0.000000
0.457009 0.467383 0.000000
0.460748 0.470654 0.000000
0.464486 0.473925 0.000000
0.468224 0.477196 0.000000
0.471963 0.480467 0.000000
0.475701 0.483738 0.000000
0.479439 0.487009 0.000000
0.483178 0.490280 0.000000
0.486916 0.493551 0.000000
0.490654 0.496822 0.000000
0.494393 0.500093 0.000000
0.498131 0.503364 0.000000
0.501869 0.506636 0.000000
0.505607 0.509907 0.000000
0.509346 0.513178 0.000000
0.513084 0.516449 0.000000
0.516822 0.519720 0.000000
0.520561 0.522991 0.000000
0.524299 0.526262 0.000000
0.528037 0.529533 0.000000
0.531776 0.532804 0.000000
0.535514 0.536075 0.000000
0.539252 0.539346 0.000000
0.542991 0.542617 0.000000
0.546729 0.545888 0.000000
0.550467 0.549159 0.000000
0.554206 0.552430 0.000000
0.557944 0.555701 0.000000
0.561682 0.558972 0.000000
0.565421 0.562243 0.000000
0.569159 0.565514 0.000000
0.572897 0.568785 0.000000
0.576636 0.572056 0.000000
0.580374 0.575327 0.000000
0.584112 0.578598 0.000000
0.587850 0.581869 0.000000
0.591589 0.585140 0.000000
0.595327 0.588411 0.000000
0.599065 0.591682 0.000000
0.602804 0.594953 0.000000
0.606542 0.598224 0.000000
0.610280 0.601495 0.000000
0.614019 0.604766 0.000000
0.617757 0.608037 0.000000
0.621495 0.611308 0.000000
0.625234 0.614579 0.000000
0.628972 0.617850 0.000000
0.632710 0.621121 0.000000
0.636449 0.624393 0.000000
0.640187 0.627664 0.000000
0.643925 0.630935 0.000000
0.647664 0.634206 0.000000
0.651402 0.637477 0.000000
0.655140 0.640748 0.000000
0.658879 0.644019 0.000000
0.662617 0.647290 0.000000
0.666355 0.650561 0.000000
0.670093 0.653832 0.000000
0.673832 0.657103 0.000000
0.677570 0.660374 0.000000
0.681308 0.663645 0.000000
0.685047 0.666916 0.000000
0.688785 0.670187 0.000000
0.692523 0.673458 0.000000
0.696262 0.676729 0.000000
0.004545 0.201970 0.000000
0.009091 0.203939 0.000000
0.013636 0.205909 0.000000
0.018182 0.207879 0.000000
0.022727 0.209848 0.000000
0.027273 0.211818 0.000000
0.031818 0.213788 0.000000
0.036364 0.215758 0.000000
0.040909 0.217727 0.000000
0.045455 0.219697 0.000000
0.050000 0.221667 0.000000
0.054545 0.223636 0.000000
0.059091 0.225606 0.000000
0.063636 0.227576 0.000000
0.068182 0.229545 0.000000
0.072727 0.231515 0.000000
0.077273 0.233485 0.000000
0.081818 0.235455 0.000000
0.086364 0.237424 0.000000
0.090909 0.239394 0.000000
0.095455 0.241364 0.000000
0.100000 0.243333 0.000000
0.104545 0.245303 0.000000
0.109091 0.247273 0.000000
0.113636 0.249242 0.000000
0.118182 0.251212 0.000000
0.122727 0.253182 0.000000
0.127273 0.255152 0.000000
0.131818 0.257121 0.000000
0.136364 0.259091 0.000000
0.140909 0.261061 0.000000
0.145455 0.263030 0.000000
0.150000 0.265000 0.000000
0.154545 0.266970 0.000000
0.159091 0.268939 0.000000
0.163636 0.270909 0.000000
0.168182 0.272879 0.000000
0.172727 0.274848 0.000000
0.177273 0.276818 0.000000
0.181818 0.278788 0.000000
0.186364 0.280758 0.000000
0.190909 0.282727 0.000000
0.195455 0.284697 0.000000
0.200000 0.286667 0.000000
0.204545 0.288636 0.000000
0.209091 0.290606 0.000000
0.213636 0.292576 0.000000
0.218182 0.294545 0.000000
0.222727 0.296515 0.000000
0.227273 0.298485 0.000000
0.231818 0.300455 0.000000
0.236364 0.302424 0.000000
0.240909 0.304394 0.000000
0.245455 0.306364 0.000000
0.250000 0.308333 0.000000
0.254545 0.310303 0.000000
0.259091 0.312273 0.000000
0.263636 0.314242 0.000000
0.268182 0.316212 0.000000
0.272727 0.318182 0.000000
0.277273 0.320152 0.000000
0.281818 0.322121 0.000000
0.286364 0.324091 0.000000
0.290909 0.326061 0.000000
0.295455 0.328030 0.000000
0.704615 0.681846 0.000000
0.709231 0.683692 0.000000
0.713846 0.685538 0.000000
0.718462 0.687385 0.000000
0.723077 0.689231 0.000000
0.727692 0.691077 0.000000
0.732308 0.692923 0.000000
0.736923 0.694769 0.000000
0.741538 0.696615 0.000000
0.746154 0.698462 0.000000
0.750769 0.700308 0.000000
0.755385 0.702154 0.000000
0.760000 0.704000 0.000000
0.764615 0.705846 0.000000
0.769231 0.707692 0.000000
0.773846 0.709538 0.000000
0.778462 0.711385 0.000000
0.783077 0.713231 0.000000
0.787692 0.715077 0.000000
0.792308 0.716923 0.000000
0.796923 0.718769 0.000000
0.801538 0.720615 0.000000
0.806154 0.722462 0.000000
0.810769 0.724308 0.000000
0.815385 0.726154 0.000000
0.820000 0.728000 0.000000
0.824615 0.729846 0.000000
0.829231 0.731692 0.000000
0.833846 0.733538 0.000000
0.838462 0.735385 0.000000
0.843077 0.737231 0.000000
0.847692 0.739077 0.000000
0.852308 0.740923 0.000000
0.856923 0.742769 0.000000
0.861538 0.744615 0.000000
0.866154 0.746462 0.000000
0.870769 0.748308 0.000000
0.875385 0.750154 0.000000
0.880000 0.752000 0.000000
0.884615 0.753846 0.000000
0.889231 0.755692 0.000000
0.893846 0.757538 0.000000
0.898462 0.759385 0.000000
0.903077 0.761231 0.000000
0.907692 0.763077 0.000000
0.912308 0.764923 0.000000
0.916923 0.766769 0.000000
0.921538 0.768615 0.000000
0.926154 0.770462 0.000000
0.930769 0.772308 0.000000
[...]
POINT_DATA 6352
SCALARS UX float 1
LOOKUP_TABLE default
-0.000006
0.000007
5.459719
-0.222447
-14.821371
-9.959347
-4.653590
-2.152451
0.000000
-0.000001
-0.000000
-0.000000
-0.000000
-0.000000
-0.000000
-0.000000
-0.000000
-0.000000
-0.000000
0.000000
0.000000
0.000000
0.000000
0.000001
0.000001
0.000001
-0.000001
1.598559
2.500965
3.074603
3.546256
3.895495
4.210726
4.486093
4.722875
4.930985
5.110101
5.264494
5.396509
5.509646
5.605806
5.685990
5.751870
5.804343
5.845981
5.877879
5.900941
5.915816
5.924559
5.926953
5.925443
5.917888
5.907459
5.893051
5.875013
5.853633
5.830371
5.804441
5.776296
5.746166
5.713960
5.681277
5.646728
5.610558
5.573610
5.535745
5.497355
5.417141
5.360791
5.277098
5.153905
4.970227
4.659402
4.165943
3.250668
1.967849
0.553288
-1.825736
-2.752656
-3.396930
-3.941188
-4.447509
-4.974542
-5.521481
-6.090905
-6.692447
-7.339214
-8.031868
-8.763408
-9.538751
-10.320614
-11.101864
-11.876482
-12.639475
-13.385868
-14.114045
-14.675403
-14.524398
-14.359754
-14.198937
-14.041348
-13.891367
-13.748749
-13.613715
-13.485761
-13.362289
-13.242311
-13.124822
-13.008260
-12.891248
-12.772786
-12.658097
-12.538564
-12.419742
-12.301527
-12.181493
-12.062918
-11.946033
-11.828511
-11.713400
-11.599370
-11.486601
-11.375407
-11.265140
-11.156228
-11.048351
-10.942783
-10.838059
-10.734683
-10.632683
-10.532649
-10.433826
-10.335813
-10.239100
-10.144059
-10.050884
-9.861860
-9.734842
-9.563004
-9.328466
-9.007757
-8.518262
-7.830589
-6.722344
-5.170598
-3.315086
-4.615312
-4.522159
-4.438478
-4.424586
-4.455214
-4.411845
-4.402737
-4.393041
-4.510357
-4.637916
-4.582556
-4.687354
-4.686944
-4.633306
-4.608424
-4.636959
-4.607706
-4.663550
-4.680113
-4.612129
-4.533032
-4.581867
-4.512531
-4.498923
-4.481323
-4.444095
-4.308178
-4.340278
-4.260620
-4.352793
-4.319122
-4.312436
-4.252173
-4.235953
-4.286419
-4.208531
-4.177971
-4.272424
-4.274310
-4.293021
-4.196176
-4.193678
-4.155462
-4.128585
-4.025260
-4.052770
-3.981590
-3.989899
-3.964603
-3.966061
-3.921660
-3.920413
-3.804632
-3.869118
-3.800884
-3.787777
-3.751369
-3.692270
-3.606146
-3.539377
-3.573769
-3.543013
-3.472091
-3.463631
-3.383139
-3.313884
-3.285747
-3.174292
-3.182779
-3.270885
-3.224940
-3.182987
-3.126977
-3.186960
-3.274225
-3.282499
-3.252360
-3.225752
-3.264152
-3.228475
-3.295005
-3.306273
-3.259503
-3.278194
-3.372447
-3.338848
-3.270006
-3.230509
-3.151395
-3.179177
-3.141847
-3.169637
-3.112178
-3.118950
-3.101757
-3.156540
-3.041952
-3.142599
-3.011095
-2.915852
-2.798769
-2.736170
-2.524783
-2.464768
-2.395032
-2.306669
-9.936041
-9.912086
-9.888094
-9.863276
-9.837638
-9.810940
-9.782559
-9.753657
-9.723753
-9.693302
-9.661072
-9.628181
-9.595651
-9.562621
-9.526052
-9.489033
-9.452639
-9.416322
-9.379347
-9.340266
-9.301546
-9.262372
-9.219657
-9.177370
-9.132901
-9.087825
-9.041368
-8.994608
-8.947863
-8.900374
-8.852080
-8.801816
-8.747648
-8.692949
-8.636634
-8.579654
-8.519056
-8.453979
-8.386629
-8.323098
-8.254190
-8.182458
-8.104376
-8.022873
-7.935227
-7.835532
-7.737177
-7.657030
-7.652952
-7.541542
-7.459707
-7.363599
-7.247536
-7.134204
-6.971445
-6.857858
-6.767707
-6.521217
-6.451275
-6.342059
-6.066812
-5.745201
-5.440304
-5.139468
-4.957960
-1.884203
-1.297316
-0.771603
-0.376189
-0.135897
0.027143
0.390635
0.639130
0.727637
0.921506
1.211196
1.329652
1.590880
1.582664
1.696233
1.862078
1.957588
2.073995
2.171945
2.258680
2.389350
2.461653
2.605849
2.716291
2.828062
2.923141
3.016873
3.107824
3.196741
3.286856
3.372281
3.451483
3.532782
3.612335
3.688436
3.761677
3.833669
3.904608
3.976364
4.043699
4.111606
4.180239
4.247434
4.312249
4.378926
4.443470
4.505805
4.567091
4.626905
4.685435
4.742238
4.797330
4.851278
4.905191
4.959631
5.012698
5.064700
5.116202
5.167511
5.217190
5.265852
5.314321
5.362591
5.410999
2.149002
2.157169
2.282424
2.051158
0.063340
0.034386
0.110935
0.030417
-6.452183
-6.583047
-5.708417
-5.964198
-4.838981
-6.166353
-10.992470
-10.810749
-10.925600
-10.777984
-6.086281
-1.094222
-0.922603
-0.944670
-0.759993
-4.179164
-4.161444
-3.916876
-4.486478
-1.691839
-1.724620
-1.559858
-5.611924
-5.396917
-5.683773
-5.386011
4.013364
3.875943
4.141549
3.833878
-0.508404
-0.749005
-0.455513
-0.835482
-10.459198
-10.417241
-10.579511
-9.590369
-9.598819
-9.448485
-9.641914
-9.603299
-9.722639
3.110637
3.443400
3.201284
3.416574
-0.316460
-0.256840
-0.202504
-3.000585
-2.872013
-2.061468
4.140858
4.311914
4.314062
-6.598601
-6.839537
-6.745669
-6.639037
-6.155831
-5.680036
3.858921
3.933092
3.786286
-6.775154
-9.411707
-9.449603
-9.259268
-1.035327
-1.164986
-1.195376
-1.049162
1.282478
1.188763
1.216841
-4.064083
-4.293121
-4.705519
1.205234
1.973873
2.151158
1.939091
-3.455840
-3.756107
-3.366575
2.091083
2.120941
1.835116
1.181231
1.175555
1.250924
-4.110404
-4.331498
-4.106616
1.109664
-0.418673
-0.282091
-0.315575
-3.646161
-9.212631
-9.323266
-9.252464
-0.320500
2.090433
2.017662
2.126905
-2.075701
-2.143735
-1.830563
3.504828
3.455256
3.407467
3.368116
3.336389
3.295012
-9.536782
-9.947711
-9.391347
-9.724456
-1.158346
-0.984534
-1.019934
2.110598
3.728867
-0.828508
-11.789806
-11.583203
-11.723742
-9.137203
-9.287022
-9.149349
-1.282444
-0.491816
-0.361753
-11.488928
2.471389
2.406335
2.476793
2.337631
-4.240526
-3.936451
-3.844829
0.069257
-8.292415
-8.312241
-8.235485
-0.652857
-0.729295
-0.613849
-0.698923
3.425446
3.324522
3.287275
-3.432683
2.002531
1.742013
1.704987
-11.273526
-11.197366
-11.098663
3.221351
3.322619
3.214624
3.256654
-9.428465
-9.302471
-9.437045
-9.299793
-1.617299
-1.474000
-1.549820
3.194385
-6.820172
-7.207556
-6.045714
-1.493363
-6.133488
-6.467702
-7.216771
-5.934495
4.021646
4.250682
-7.270457
4.005009
-8.817702
-8.775119
-8.702081
-8.867129
-1.751880
-1.809663
-1.999498
-1.608096
-8.364860
-5.943033
-8.516045
-8.514610
-8.590663
-8.449931
1.563248
1.501957
1.479315
1.405623
-9.157115
-9.139100
-1.549535
-8.767826
-8.760528
-8.859366
-8.808846
-0.956075
-0.907294
-0.856670
3.545425
3.557825
3.421690
-1.013080
3.680810
-3.945316
-3.444933
-3.287376
3.865711
3.897206
3.759603
-2.980011
-6.867332
-6.941478
-6.977318
3.987260
-7.046133
-9.335510
-9.305661
-9.230585
-6.798216
-6.762569
-6.702153
-9.160966
2.213280
2.152064
2.058064
0.710029
0.661165
0.782413
-1.964091
-2.055760
-1.742691
-7.430601
-7.307257
-7.433751
1.932104
1.983464
1.914597
2.028333
-0.218431
-0.317388
-0.219019
0.709246
2.020018
0.740497
0.703453
0.658210
2.186178
2.495997
2.388079
2.648246
3.078977
3.141781
3.043625
3.120359
5.062965
4.949823
4.882798
-5.862484
-5.595690
-5.052999
-6.670385
4.739614
-0.043509
0.225950
-0.055882
-7.385837
-7.283163
-7.398490
2.242180
2.191548
2.307202
4.949947
5.181812
2.143682
-12.311847
-12.474305
-12.197097
5.144168
5.094578
5.061230
4.999838
-5.353916
-4.912192
2.017172
2.019261
1.930743
-7.616112
-7.659130
-7.823235
-7.803270
3.773676
-7.231119
3.611542
3.632266
-7.771306
-7.890177
-7.817676
-8.690896
-8.495851
-8.661236
-8.504923
-9.888183
-10.021375
-10.007197
-10.139225
-9.748564
-9.737111
-9.598119
-8.705141
-8.458674
-8.539948
-10.227529
-10.102894
-10.242647
-8.327665
-0.801028
-0.945973
-0.862864
0.799934
0.731742
-9.885042
-9.840306
-9.750939
-9.995945
-9.111557
-9.196299
-9.101616
-9.198707
-8.094052
-8.262520
-8.192385
-8.344898
-10.797599
-10.858476
-10.975909
-9.485317
-10.710920
-2.964184
-2.919889
-2.358437
-5.993757
-6.257806
-5.315389
-6.628026
3.621416
3.728878
3.604383
3.778010
-9.962178
-10.111902
2.620080
2.611611
2.428272
-8.500326
-8.455062
2.446142
4.352986
4.422906
4.463749
4.532551
4.269563
4.239885
4.143252
-8.563508
0.485056
0.381248
0.518158
0.340094
3.238692
3.133722
3.302940
-8.120566
-7.603055
-7.881003
-7.352997
4.812473
4.792956
4.879618
4.720848
-13.163240
-12.919294
-12.949411
-12.720199
-9.412732
-9.579561
-1.243746
-0.942763
-1.861465
-1.965147
-10.314631
-9.965041
-9.952949
-9.662736
4.012385
4.143133
3.821742
3.939095
3.749579
-3.968053
-3.831104
-4.192106
3.862033
3.942430
4.030145
-2.287479
-2.451481
-1.760066
3.007848
2.885738
3.065839
2.829426
3.768492
3.672794
3.596839
-0.243217
-0.179719
-9.241133
-9.332362
-9.172471
-5.172064
-5.145041
-4.964530
2.283731
2.337698
-9.096660
-9.055046
-8.893824
-8.875040
-8.609277
-8.594113
-8.472657
4.147766
-4.360237
-4.603996
-4.314470
4.367460
-8.762238
-8.830501
-8.742208
-3.056688
-3.165791
-3.597489
-8.707963
-2.195827
-2.614834
-3.566822
-8.809912
-7.784766
-8.079124
-8.149125
-0.332132
-0.405843
-0.623474
3.568834
3.655962
3.399770
-7.590174
-7.535567
-9.128166
-9.150968
-4.888435
-4.758234
-5.143785
-9.295826
-5.206166
-4.939124
-4.861741
-4.656043
-8.950325
-8.924461
-8.814600
-9.074661
-7.976626
-8.196496
-8.292146
-8.575160
-7.237453
-7.485734
-7.703121
2.556304
2.624068
2.702007
-0.143229
-0.286914
-0.128213
-9.815339
-9.965749
-6.913214
2.706612
-8.910619
-8.863488
-9.122850
-8.583873
-12.844857
-12.640501
-12.649663
-12.494561
-5.036696
-4.945522
-5.146924
-9.084377
-8.949141
-9.180104
-9.016283
-11.387621
-11.089575
-11.256538
2.207798
2.619154
2.471949
-9.207104
-9.018895
-9.133427
-9.198140
-9.265346
-2.307044
-1.505909
-1.633007
-9.305125
-9.084001
-7.914864
-7.775036
4.026364
4.219162
4.217101
-1.380580
-1.549696
-0.090840
-8.288184
-8.307751
-8.233152
-8.172392
-8.474836
-8.431045
-9.195991
-9.337340
-9.162439
-8.273317
-8.536613
-8.318044
-0.448223
-0.372062
-0.483742
-5.395618
-5.185293
-0.306357
-8.040977
-8.454255
-9.581044
-9.516445
-9.598586
-5.449346
-5.554033
-5.597459
-5.397727
-5.123518
-4.895611
-5.160390
-4.651460
-9.722432
-9.636086
-9.609849
-9.529076
-3.960984
-3.334701
-4.297634
3.578155
3.445890
3.623669
3.475862
-8.518951
-8.629549
-8.489934
-8.277507
-7.672863
-8.201458
-8.662083
-8.272758
-8.510350
-8.534719
4.044004
3.775201
4.021654
3.712178
-9.514832
-9.564503
-9.683659
4.442442
4.518360
4.623732
1.677660
1.811976
1.682969
1.809029
-10.895710
-10.741404
-10.626543
-9.434801
-9.533832
-9.556637
-9.658210
4.278612
4.259965
4.398859
-6.233408
-6.304704
-6.353471
1.874455
1.903577
2.013249
2.061456
1.924224
1.807148
1.784185
-1.275895
-1.167249
-1.260224
-0.683971
-0.594402
-0.697518
-1.204822
-10.077987
-10.164918
-10.045158
-0.682907
-0.781926
-0.760562
-6.136975
-6.113369
-9.638298
-9.548997
-9.512925
5.088000
5.169235
5.098565
-9.399585
-6.017127
1.549065
0.326663
1.104116
-9.099940
-9.205608
-9.350830
-8.259594
-8.347679
-8.857963
-8.851950
-9.039880
3.700961
3.959429
3.934368
-10.022284
-10.123523
-10.190233
-10.250842
-8.721234
-8.762236
-8.541330
-8.857897
-6.424247
-6.535725
-6.464717
-6.523051
3.105584
3.185948
3.495535
2.764083
3.509796
3.776122
4.249166
4.312537
4.370333
5.473316
5.568424
5.565350
4.443538
3.515837
3.509874
3.673564
2.797786
2.842469
-7.436300
-7.348130
2.086966
-1.941370
-1.978375
-2.126915
-2.286153
-8.665551
-9.018546
-8.974062
-8.325916
2.737053
2.710232
2.624427
2.579806
-10.532505
-10.436019
-10.325028
-1.691626
-1.435586
-1.502675
-0.137902
0.065032
0.414493
-0.879677
-7.698659
-7.061385
-7.635226
4.188629
4.108193
4.064941
0.921303
0.972523
-0.108586
-6.263836
-7.860272
-7.244670
-7.469310
3.316943
3.484778
3.420316
-7.500368
-0.768510
-7.517409
-7.924285
-7.528295
-7.863075
-1.325264
-1.600127
3.381606
3.533913
-11.536460
-11.361603
-5.169281
-4.935715
-5.099549
-4.785011
-1.332111
-1.508610
-1.460814
-0.944782
-0.802155
-0.898181
0.483698
1.428406
0.766275
-0.863088
-6.010632
-6.603998
-5.856838
4.869641
4.894345
4.971954
-1.038296
-0.688004
-0.765463
-7.341834
-6.727836
-6.757700
-8.403853
-8.315410
-8.270955
1.932446
1.926157
2.480858
4.134401
4.195854
4.256687
4.323390
1.272420
-8.528623
-8.647824
-8.750419
-6.968971
-7.110094
-7.100289
2.649308
2.748722
2.764992
2.879856
2.608685
2.501042
2.342955
-7.999834
-8.493028
-8.401623
0.785928
-11.091262
-10.913678
-11.044728
-9.592913
-7.055455
-7.037279
-6.456368
-9.058713
-8.877271
-9.127728
-6.392238
3.046587
3.198433
-3.049583
-3.562308
-3.433682
-3.058383
-3.452754
-3.876049
-7.729144
-7.999033
-7.990865
-8.226690
-4.334318
1.198697
1.306263
1.274194
-10.506004
-10.624761
-10.518228
-8.371114
-8.452343
-8.170707
-8.468822
-8.615838
-8.591032
-8.744491
4.025825
5.002761
4.016097
4.203236
4.068180
-8.809132
-8.860478
-9.004665
4.938873
-9.196633
-9.108808
-0.406136
-0.298587
1.607537
1.602898
1.465759
3.352951
3.358014
3.519103
1.454853
3.673364
3.657239
-9.894206
-10.023727
-10.018513
-10.134286
-7.683928
-7.674234
-7.787083
-0.610739
-0.917310
-1.058708
1.735998
1.715262
1.978284
-7.051447
-6.897125
-7.038423
-6.908619
1.836460
2.843927
2.885185
2.761642
-0.505988
-0.479145
-0.392473
-2.550963
-2.724836
-3.184758
-9.342309
-9.482319
-9.342649
-6.248842
-9.502633
2.842463
-6.400690
-6.301485
-6.277051
-4.797605
-4.635871
-4.670739
-3.690057
-3.384538
-2.991226
-2.777524
-9.221380
-9.308595
2.586351
2.765551
2.671341
-0.119440
-0.218459
0.516268
0.497456
-9.819454
-9.944836
-9.961117
-10.114920
1.239991
1.591937
1.644571
1.459829
-11.762543
-11.238258
-11.615290
3.108446
3.137929
3.294053
-11.570626
3.523123
3.426106
2.854951
3.011086
-8.663339
-8.631963
-8.595237
-8.448079
-8.478324
-8.729567
-8.958305
-8.892316
-9.396388
-9.460757
-9.592068
-9.289654
0.653866
0.687633
0.599570
4.087435
4.083474
4.204478
-8.896464
-8.845932
-8.778547
3.987479
-8.796824
-8.836955
-8.907002
-8.020477
-8.331737
-8.079369
5.100049
5.048276
-8.487773
-8.710458
-8.255201
-8.493294
-4.753384
-4.888720
-4.945851
-8.192913
0.638904
0.710872
0.718989
1.001715
0.779689
0.866230
-0.252870
-0.182063
-0.183844
-10.352503
-10.254350
-10.213111
0.621381
4.808555
4.903032
4.813336
-4.154788
-4.360859
-4.557673
-5.601683
-5.876695
-5.830099
-5.675286
-0.366106
-0.458936
-8.686447
-8.601556
-8.612058
-1.428558
-1.325670
-1.379990
1.900829
1.985482
-7.176315
-7.384809
-7.372731
-1.268281
-8.513224
-5.171190
-5.018331
-7.983905
-8.252444
-8.080792
-8.286938
-11.693820
-12.056604
-11.918200
-11.858900
-9.306038
-9.375940
-9.229066
-0.122465
-0.064978
0.007539
-9.259348
-9.407846
-9.269555
-9.416814
-9.269102
1.552072
1.468007
1.479520
1.534782
1.295396
1.131812
1.178249
1.230974
1.062225
1.261923
1.117109
-10.352937
-10.517721
-10.386252
5.256270
5.225418
2.259617
2.331173
2.484035
2.576291
-10.256531
-10.128956
-8.950568
-8.938595
-8.860153
-9.778668
-9.776669
-8.981100
-8.987127
-9.061220
-8.917373
-9.604925
-9.435670
-9.813084
-9.697468
-9.941687
1.705957
1.668730
1.815620
1.798098
-11.733711
-11.541763
-11.805892
1.653255
1.580730
5.139034
1.533537
-10.778452
-10.896155
-10.856808
5.168777
0.282817
-0.655304
-0.121225
-10.986854
-0.397222
-11.535521
-9.602702
-1.929700
-1.759831
-1.831838
-9.657230
-8.747956
-8.812088
-8.757487
-8.839835
-8.993749
-9.037122
-9.192663
-9.145618
3.579330
3.496983
3.633537
3.500503
-8.863145
-8.869808
-8.793225
-8.940670
2.066372
2.001343
2.308034
2.153396
-8.099160
-8.220199
-9.856285
-9.803363
1.785979
1.763311
1.920503
1.632868
1.624701
1.560890
-8.740646
-8.688877
-7.796770
-7.801500
-7.994201
-7.900502
2.119970
-7.269179
-7.602336
-7.762131
-6.973171
-1.820559
-1.651057
-1.771108
-0.725780
-1.613888
-1.539776
-8.430425
-8.351619
-8.314179
-8.244795
-6.230926
-6.356305
-0.249709
-0.399077
1.168612
1.109057
-0.454228
-8.252587
-7.768172
-7.998541
-7.218048
2.102782
2.200895
2.101787
2.338310
1.281135
1.447421
2.265643
2.317900
2.464229
-8.930417
-8.694739
-8.678318
4.458354
4.463534
4.647821
1.653196
1.624742
4.669814
0.718330
0.059085
0.958747
-5.491232
-5.410562
-5.339404
1.848839
-8.658476
-8.721795
1.856774
2.029505
2.065915
3.067420
2.930221
3.070122
-10.483832
-10.588387
2.879004
-10.149468
-10.235791
-10.138700
3.636599
3.492529
-0.060159
-0.553207
0.257540
-8.381211
-8.379164
-8.533862
-8.517941
-8.853284
-8.827405
-3.742148
-3.446125
-4.619588
-8.985119
-9.057196
-9.219232
-9.269102
-8.518360
-8.587172
0.389333
0.465901
0.288985
1.585430
1.722722
1.902060
1.953552
1.791368
1.712256
1.624176
1.465682
1.465590
-5.905349
-5.547900
-5.493308
-9.958313
-10.150861
-9.973536
-10.228185
-9.781201
-9.961552
-9.720192
0.757598
1.050991
1.077778
0.819999
5.204239
5.085191
5.101459
-8.638910
-8.670422
-8.611289
-2.380612
-2.813872
-2.482421
-8.714176
-7.043580
-6.314833
-6.696486
-6.726914
-5.921597
-5.663050
-5.773137
-7.330111
-7.850565
-10.790668
-10.691912
-10.743045
2.993568
2.974298
3.125752
-7.724769
3.697799
-8.047484
-8.071276
0.735956
0.990025
0.756484
0.981969
0.743727
0.121702
0.448113
5.555371
5.478205
5.463662
5.394327
5.197344
5.258463
5.278168
-8.908781
-8.985289
-9.030765
5.333206
-9.088718
-8.764817
-8.630042
-7.328552
-7.021281
-7.705549
-3.868537
-3.134407
-3.392635
3.769939
3.760222
3.671629
3.595677
-3.795540
-0.326330
-0.351031
0.613861
0.972896
0.947844
1.026928
0.991643
-7.993669
-7.970526
-7.892538
-8.070050
-8.890988
-8.749447
-8.792291
1.032023
0.937415
0.905024
0.802551
-8.402685
-8.528606
-8.428316
5.370440
-8.546915
5.297085
-8.363752
-8.171540
-6.220528
-6.048685
-5.329311
-5.515676
-8.234677
-8.018602
-8.003856
-0.110666
-0.088719
-10.090540
-10.202238
-10.183832
-10.314623
-0.063726
0.015942
0.051340
-0.206884
-0.144942
-0.111414
0.968525
1.120325
0.252586
1.885356
-5.726651
-6.368613
-2.133793
-2.328567
-2.072245
-2.197398
-0.828168
-0.763391
-0.662099
-0.744877
-0.699872
-0.792518
1.007767
1.130363
1.127179
-1.080084
-1.667145
-1.621888
1.055857
-1.584325
-1.581650
-1.449084
-1.460908
1.217047
1.107613
-0.526492
0.058561
-7.962580
-7.556696
-7.543400
-7.050530
-10.974757
-10.997364
-11.139215
-10.870768
-1.274305
1.893945
1.777338
1.860592
1.813431
-10.891238
-10.812636
1.859480
-10.653962
-8.085363
-8.154086
-8.243993
-8.274149
-8.685754
-8.549656
-8.688888
1.792812
-6.011643
-6.118200
-6.167363
-8.504019
-8.413534
1.286078
1.225736
1.287115
-8.587394
-8.578850
3.177923
3.006763
3.105486
5.530660
5.439424
-8.642256
-8.513698
-12.131404
-12.237061
-7.569884
-7.575710
-7.671151
-7.424706
-1.183119
-1.162801
-1.048974
-1.064854
-7.338279
-7.740680
-7.739348
-0.672947
-7.820309
-8.144156
-7.922661
-7.915019
-1.569007
-1.898957
-6.690293
-6.604587
-6.736817
-6.652769
1.383160
1.438217
1.410133
1.403222
1.762302
1.826644
1.902385
1.658682
-1.839800
-1.867839
-2.028103
0.524722
0.534915
0.617586
-1.321941
-1.494044
0.458774
-7.788165
-7.716635
-12.425637
-12.244625
-7.633321
-7.860776
-10.730858
-7.918994
5.271784
5.445112
5.377537
5.381943
0.548218
0.905609
1.068968
-9.444275
-9.151055
-9.354721
-6.891554
-6.958306
-6.983676
-7.047602
5.304270
3.137096
3.277735
3.318951
-9.816335
-10.293302
-10.196117
-10.146168
-10.352826
2.717461
2.851503
-10.396354
-10.493708
-10.367786
-3.314530
0.082126
2.580136
2.675045
4.870640
4.665539
4.804320
2.527697
-7.586539
-7.662858
-7.570694
-7.686926
-6.712373
-6.642867
-6.781279
-10.282080
-10.406872
5.588832
5.530480
5.402102
-5.678269
-5.199366
-4.549701
5.134781
5.245832
5.185847
-5.225199
-5.280886
-4.040332
-6.507179
-8.889323
-8.647905
-8.423821
-2.079132
-2.343865
-1.586156
-0.485100
-0.659823
-1.523928
-0.990100
-0.801355
-0.963831
-7.220429
-7.175687
-7.265225
-0.439925
-0.453209
-0.347833
-0.367709
-1.241613
-1.003371
-2.788199
-2.603770
-2.437745
-2.298148
-13.133272
-13.146428
-12.781843
-13.510194
-7.933032
-8.183875
-7.957973
-12.579276
-7.399313
0.806554
0.804998
0.892789
0.854149
1.663201
5.323786
5.232506
1.471110
5.116503
5.190234
-0.390653
-0.296348
1.540136
-6.831902
1.307107
1.021099
1.006771
1.100782
5.042584
5.040564
3.616903
3.478125
4.827035
4.612860
5.268875
5.375514
1.139371
4.847072
1.131457
1.013330
-0.136859
-0.139284
-0.022404
-11.480612
-11.501466
-11.632617
-11.345087
-0.283336
1.255927
1.071935
0.541523
0.872176
1.352535
-8.511230
-8.571418
-10.784510
-10.655109
-8.497380
-10.129516
-9.406761
1.574888
1.664732
1.639682
1.574411
1.697637
5.298918
5.350780
-0.819007
-0.887389
1.277734
1.058968
1.316625
0.849429
1.279246
-9.298620
-8.885916
-7.457988
-7.607938
-8.203189
-8.279088
-12.380663
-12.990053
-7.556342
-7.465502
-9.815168
-9.825486
-9.950014
-9.722549
0.279514
0.329948
-8.294932
-8.015134
-8.119613
-8.627276
-8.611636
-1.394205
-3.328921
-8.503372
-9.247554
-8.703087
-8.677174
-1.266250
-0.316098
-8.759233
1.263218
1.241288
1.481956