# vtk DataFile Version 2.0
Test
ASCII
DATASET POLYDATA
POINTS 6352 float
0.000000 0.000000 0.000000
1.000000 0.000000 0.000000
1.000000 0.800000 0.000000
1.000000 1.000000 0.000000
0.000000 1.000000 0.000000
0.000000 0.200000 0.000000
0.300000 0.330000 0.000000
0.700000 0.680000 0.000000
0.050000 0.000000 0.000000
0.100000 0.000000 0.000000
0.150000 0.000000 0.000000
0.200000 0.000000 0.000000
0.250000 0.000000 0.000000
0.300000 0.000000 0.000000
0.350000 0.000000 0.000000
0.400000 0.000000 0.000000
0.450000 0.000000 0.000000
0.500000 0.000000 0.000000
0.550000 0.000000 0.000000
0.600000 0.000000 0.000000
0.650000 0.000000 0.000000
0.700000 0.000000 0.000000
0.750000 0.000000 0.000000
0.800000 0.000000 0.000000
0.850000 0.000000 0.000000
0.900000 0.000000 0.000000
0.950000 0.000000 0.000000
1.000000 0.048545 0.000000
1.000000 0.094438 0.000000
1.000000 0.137825 0.000000
1.000000 0.178843 0.000000
1.000000 0.217620 0.000000
1.000000 0.254280 0.000000
1.000000 0.288938 0.000000
1.000000 0.321703 0.000000
1.000000 0.352678 0.000000
1.000000 0.381962 0.000000
1.000000 0.409647 0.000000
1.000000 0.435820 0.000000
1.000000 0.460563 0.000000
1.000000 0.483955 0.000000
1.000000 0.506070 0.000000
1.000000 0.526976 0.000000
1.000000 0.546741 0.000000
1.000000 0.565427 0.000000
1.000000 0.583092 0.000000
1.000000 0.599793 0.000000
1.000000 0.615581 0.000000
1.000000 0.630507 0.000000
1.000000 0.644618 0.000000
1.000000 0.657958 0.000000
1.000000 0.670570 0.000000
1.000000 0.682493 0.000000
1.000000 0.693765 0.000000
1.000000 0.704421 0.000000
1.000000 0.714495 0.000000
1.000000 0.724019 0.000000
1.000000 0.733023 0.000000
1.000000 0.741536 0.000000
1.000000 0.749583 0.000000
1.000000 0.757191 0.000000
1.000000 0.764383 0.000000
1.000000 0.771183 0.000000
1.000000 0.777611 0.000000
1.000000 0.783688 0.000000
1.000000 0.789434 0.000000
1.000000 0.794865 0.000000
1.000000 0.805174 0.000000
1.000000 0.811554 0.000000
1.000000 0.819418 0.000000
1.000000 0.829114 0.000000
1.000000 0.841067 0.000000
1.000000 0.855804 0.000000
1.000000 0.873972 0.000000
1.000000 0.896371 0.000000
1.000000 0.923985 0.000000
1.000000 0.958029 0.000000
0.950000 1.000000 0.000000
0.900000 1.000000 0.000000
0.850000 1.000000 0.000000
0.800000 1.000000 0.000000
0.750000 1.000000 0.000000
0.700000 1.000000 0.000000
0.650000 1.000000 0.000000
0.600000 1.000000 0.000000
0.550000 1.000000 0.000000
0.500000 1.000000 0.000000
0.450000 1.000000 0.000000
0.400000 1.000000 0.000000
0.350000 1.000000 0.000000
0.300000 1.000000 0.000000
0.250000 1.000000 0.000000
0.200000 1.000000 0.000000
0.150000 1.000000 0.000000
0.100000 1.000000 0.000000
0.050000 1.000000 0.000000
0.000000 0.951455 0.000000
0.000000 0.905562 0.000000
0.000000 0.862175 0.000000
0.000000 0.821157 0.000000
0.000000 0.782380 0.000000
0.000000 0.745720 0.000000
0.000000 0.711062 0.000000
0.000000 0.678297 0.000000
0.000000 0.647322 0.000000
0.000000 0.618038 0.000000
0.000000 0.590353 0.000000
0.000000 0.564180 0.000000
0.000000 0.539437 0.000000
0.000000 0.516045 0.000000
0.000000 0.493930 0.000000
0.000000 0.473024 0.000000
0.000000 0.453259 0.000000
0.000000 0.434573 0.000000
0.000000 0.416908 0.000000
0.000000 0.400207 0.000000
0.000000 0.384419 0.000000
0.000000 0.369493 0.000000
0.000000 0.355382 0.000000
0.000000 0.342042 0.000000
0.000000 0.329430 0.000000
0.000000 0.317507 0.000000
0.000000 0.306235 0.000000
0.000000 0.295579 0.000000
0.000000 0.285505 0.000000
0.000000 0.275981 0.000000
0.000000 0.266977 0.000000
0.000000 0.258464 0.000000
0.000000 0.250417 0.000000
0.000000 0.242809 0.000000
0.000000 0.235617 0.000000
0.000000 0.228817 0.000000
0.000000 0.222389 0.000000
0.000000 0.216312 0.000000
0.000000 0.210566 0.000000
0.000000 0.205135 0.000000
0.000000 0.194826 0.000000
0.000000 0.188446 0.000000
0.000000 0.180582 0.000000
0.000000 0.170886 0.000000
0.000000 0.158933 0.000000
0.000000 0.144196 0.000000
0.000000 0.126028 0.000000
0.000000 0.103629 0.000000
0.000000 0.076015 0.000000
0.000000 0.041971 0.000000
0.303738 0.333271 0.000000
0.307477 0.336542 0.000000
0.311215 0.339813 0.000000
0.314953 0.343084 0.000000
0.318692 0.346355 0.000000
0.322430 0.349626 0.000000
0.326168 0.352897 0.000000
0.329907 0.356168 0.000000
0.333645 0.359439 0.000000
0.337383 0.362710 0.000000
0.341121 0.365981 0.000000
0.344860 0.369252 0.000000
0.348598 0.372523 0.000000
0.352336 0.375794 0.000000
0.356075 0.379065 0.000000
0.359813 0.382336 0.000000
0.363551 0.385607 0.000000
0.367290 0.388879 0.000000
0.371028 0.392150 0.000000
0.374766 0.395421 0.000000
0.378505 0.398692 0.000000
0.382243 0.401963 0.000000
0.385981 0.405234 0.000000
0.389720 0.408505 0.000000
0.393458 0.411776 0.000000
0.397196 0.415047 0.000000
0.400935 0.418318 0.000000
0.404673 0.421589 0.000000
0.408411 0.424860 0.000000
0.412150 0.428131 0.000000
0.415888 0.431402 0.000000
0.419626 0.434673 0.000000
0.423364 0.437944 0.000000
0.427103 0.441215 0.000000
0.430841 0.444486 0.000000
0.434579 0.447757 0.000000
0.438318 0.451028 0.000000
0.442056 0.454299 0.000000
0.445794 0.457570 0.000000
0.449533 0.460841 0.000000
0.453271 0.464112 0.000000
0.457009 0.467383 0.000000
0.460748 0.470654 0.000000
0.464486 0.473925 0.000000
0.468224 0.477196 0.000000
0.471963 0.480467 0.000000
0.475701 0.483738 0.000000
0.479439 0.487009 0.000000
0.483178 0.490280 0.000000
0.486916 0.493551 0.000000
0.490654 0.496822 0.000000
0.494393 0.500093 0.000000
0.498131 0.503364 0.000000
0.501869 0.506636 0.000000
0.505607 0.509907 0.000000
0.509346 0.513178 0.000000
0.513084 0.516449 0.000000
0.516822 0.519720 0.000000
0.520561 0.522991 0.000000
0.524299 0.526262 0.000000
0.528037 0.529533 0.000000
0.531776 0.532804 0.000000
0.535514 0.536075 0.000000
0.539252 0.539346 0.000000
0.542991 0.542617 0.000000
0.546729 0.545888 0.000000
0.550467 0.549159 0.000000
0.554206 0.552430 0.000000
0.557944 0.555701 0.000000
0.561682 0.558972 0.000000
0.565421 0.562243 0.000000
0.569159 0.565514 0.000000
0.572897 0.568785 0.000000
0.576636 0.572056 0.000000
0.580374 0.575327 0.000000
0.584112 0.578598 0.000000
0.587850 0.581869 0.000000
0.591589 0.585140 0.000000
0.595327 0.588411 0.000000
0.599065 0.591682 0.000000
0.602804 0.594953 0.000000
0.606542 0.598224 0.000000
0.610280 0.601495 0.000000
0.614019 0.604766 0.000000
0.617757 0.608037 0.000000
0.621495 0.611308 0.000000
0.625234 0.614579 0.000000
0.628972 0.617850 0.000000
0.632710 0.621121 0.000000
0.636449 0.624393 0.000000
0.640187 0.627664 0.000000
0.643925 0.630935 0.000000
0.647664 0.634206 0.000000
0.651402 0.637477 0.000000
0.655140 0.640748 0.000000
0.658879 0.644019 0.000000
0.662617 0.647290 0.000000
0.666355 0.650561 0.000000
0.670093 0.653832 0.000000
0.673832 0.657103 0.000000
0.677570 0.660374 0.000000
0.681308 0.663645 0.000000
0.685047 0.666916 0.000000
0.688785 0.670187 0.000000
0.692523 0.673458 0.000000
0.696262 0.676729 0.000000
0.004545 0.201970 0.000000
0.009091 0.203939 0.000000
0.013636 0.205909 0.000000
0.018182 0.207879 0.000000
0.022727 0.209848 0.000000
0.027273 0.211818 0.000000
0.031818 0.213788 0.000000
0.036364 0.215758 0.000000
0.040909 0.217727 0.000000
0.045455 0.219697 0.000000
0.050000 0.221667 0.000000
0.054545 0.223636 0.000000
0.059091 0.225606 0.000000
0.063636 0.227576 0.000000
0.068182 0.229545 0.000000
0.072727 0.231515 0.000000
0.077273 0.233485 0.000000
0.081818 0.235455 0.000000
0.086364 0.237424 0.000000
0.090909 0.239394 0.000000
0.095455 0.241364 0.000000
0.100000 0.243333 0.000000
0.104545 0.245303 0.000000
0.109091 0.247273 0.000000
0.113636 0.249242 0.000000
0.118182 0.251212 0.000000
0.122727 0.253182 0.000000
0.127273 0.255152 0.000000
0.131818 0.257121 0.000000
0.136364 0.259091 0.000000
0.140909 0.261061 0.000000
0.145455 0.263030 0.000000
0.150000 0.265000 0.000000
0.154545 0.266970 0.000000
0.159091 0.268939 0.000000
0.163636 0.270909 0.000000
0.168182 0.272879 0.000000
0.172727 0.274848 0.000000
0.177273 0.276818 0.000000
0.181818 0.278788 0.000000
0.186364 0.280758 0.000000
0.190909 0.282727 0.000000
0.195455 0.284697 0.000000
0.200000 0.286667 0.000000
0.204545 0.288636 0.000000
0.209091 0.290606 0.000000
0.213636 0.292576 0.000000
0.218182 0.294545 0.000000
0.222727 0.296515 0.000000
0.227273 0.298485 0.000000
0.231818 0.300455 0.000000
0.236364 0.302424 0.000000
0.240909 0.304394 0.000000
0.245455 0.306364 0.000000
0.250000 0.308333 0.000000
0.254545 0.310303 0.000000
0.259091 0.312273 0.000000
0.263636 0.314242 0.000000
0.268182 0.316212 0.000000
0.272727 0.318182 0.000000
0.277273 0.320152 0.000000
0.281818 0.322121 0.000000
0.286364 0.324091 0.000000
0.290909 0.326061 0.000000
0.295455 0.328030 0.000000
0.704615 0.681846 0.000000
0.709231 0.683692 0.000000
0.713846 0.685538 0.000000
0.718462 0.687385 0.000000
0.723077 0.689231 0.000000
0.727692 0.691077 0.000000
0.732308 0.692923 0.000000
0.736923 0.694769 0.000000
0.741538 0.696615 0.000000
0.746154 0.698462 0.000000
0.750769 0.700308 0.000000
0.755385 0.702154 0.000000
0.760000 0.704000 0.000000
0.764615 0.705846 0.000000
0.769231 0.707692 0.000000
0.773846 0.709538 0.000000
0.778462 0.711385 0.000000
0.783077 0.713231 0.000000
0.787692 0.715077 0.000000
0.792308 0.716923 0.000000
0.796923 0.718769 0.000000
0.801538 0.720615 0.000000
0.806154 0.722462 0.000000
0.810769 0.724308 0.000000
0.815385 0.726154 0.000000
0.820000 0.728000 0.000000
0.824615 0.729846 0.000000
0.829231 0.731692 0.000000
0.833846 0.733538 0.000000
0.838462 0.735385 0.000000
0.843077 0.737231 0.000000
0.847692 0.739077 0.000000
0.852308 0.740923 0.000000
0.856923 0.742769 0.000000
0.861538 0.744615 0.000000
0.866154 0.746462 0.000000
0.870769 0.748308 0.000000
0.875385 0.750154 0.000000
0.880000 0.752000 0.000000
0.884615 0.753846 0.000000
0.889231 0.755692 0.000000
0.893846 0.757538 0.000000
0.898462 0.759385 0.000000
0.903077 0.761231 0.000000
0.907692 0.763077 0.000000
0.912308 0.764923 0.000000
0.916923 0.766769 0.000000
0.921538 0.768615 0.000000
0.926154 0.770462 0.000000
0.930769 0.772308 0.000000
[...]
POINT_DATA 6352
SCALARS UX float 1
LOOKUP_TABLE default
-0.000007
0.000008
5.183458
-6.499530
-20.336463
-16.071764
-6.204345
-6.729285
0.000000
-0.000001
-0.000000
-0.000000
-0.000000
-0.000000
-0.000000
-0.000000
-0.000000
-0.000000
-0.000000
0.000000
0.000000
0.000000
0.000000
0.000001
0.000001
0.000002
-0.000001
1.446709
2.251008
2.764898
3.181966
3.486446
3.756298
3.987272
4.182332
4.351240
4.495521
4.620062
4.727951
4.821852
4.903433
4.973479
5.033421
5.084032
5.127349
5.164381
5.196142
5.223258
5.247078
5.267766
5.286152
5.300809
5.312892
5.321251
5.325734
5.326495
5.324369
5.318646
5.310167
5.299548
5.287124
5.274388
5.260529
5.245750
5.230518
5.214639
5.198459
5.162597
5.133251
5.071995
4.967684
4.783732
4.236881
3.503919
1.495246
-1.582933
-5.005170
-8.349879
-9.145468
-9.722004
-10.209957
-10.690339
-11.204621
-11.748120
-12.315554
-12.903983
-13.523093
-14.177007
-14.861859
-15.579018
-16.297039
-17.009086
-17.707541
-18.392615
-19.059827
-19.708191
-20.208995
-20.075619
-19.926637
-19.778246
-19.627649
-19.481852
-19.340893
-19.204671
-19.073479
-18.946178
-18.822510
-18.702486
-18.585780
-18.471838
-18.360403
-18.253975
-18.148009
-18.044860
-17.943985
-17.843328
-17.744689
-17.648162
-17.551898
-17.458011
-17.365316
-17.274079
-17.184597
-17.096708
-17.010688
-16.926485
-16.844613
-16.763818
-16.684115
-16.605409
-16.528001
-16.451050
-16.374219
-16.297764
-16.222200
-16.147188
-15.988269
-15.873778
-15.709052
-15.465662
-15.109616
-14.464630
-13.369928
-11.022210
-7.719340
-4.068627
-6.126851
-5.977927
-5.924202
-5.776313
-5.804030
-5.868659
-5.881177
-5.890322
-6.000493
-6.121259
-6.213737
-6.199613
-6.300722
-6.305650
-6.519886
-6.230911
-6.346575
-6.196001
-5.966943
-6.168332
-6.048113
-6.059108
-6.065942
-6.078308
-5.975515
-6.019689
-6.008154
-5.936349
-6.147566
-6.092713
-6.212622
-6.280584
-6.289393
-6.412183
-6.377970
-6.425338
-6.434649
-6.472886
-6.548282
-6.544782
-6.509812
-6.535874
-6.542093
-6.529990
-6.429739
-6.297499
-6.660215
-6.567761
-6.636741
-6.520530
-6.746744
-6.638783
-6.844606
-6.874417
-6.860022
-6.748337
-6.777010
-6.819487
-6.747431
-6.964031
-6.849642
-6.780619
-6.788030
-6.880667
-6.754751
-6.723391
-6.793250
-6.853229
-6.740579
-6.640853
-6.626691
-6.562401
-6.443013
-6.624343
-6.509407
-6.449667
-6.399796
-6.344476
-6.340574
-6.470939
-7.193585
-7.175525
-7.154731
-7.146483
-7.272470
-7.319154
-7.232249
-7.172034
-6.933210
-5.987018
-8.062695
-7.876176
-7.812492
-7.799349
-7.962007
-8.002300
-7.845564
-7.614644
-7.379635
-7.196632
-7.055914
-6.896399
-6.901532
-6.850581
-6.765463
-6.701139
-16.048365
-16.022300
-15.995559
-15.967472
-15.938259
-15.907443
-15.874195
-15.840796
-15.805795
-15.770092
-15.731516
-15.690790
-15.645093
-15.595821
-15.539521
-15.491574
-15.454265
-15.421489
-15.387065
-15.350041
-15.308064
-15.257270
-15.190192
-15.135933
-15.081182
-15.023872
-14.952602
-14.909246
-14.847645
-14.770626
-14.719878
-14.673539
-14.588003
-14.486897
-14.392484
-14.276424
-14.252067
-14.159519
-14.141131
-14.060482
-13.940635
-13.761786
-13.592633
-13.434081
-13.305836
-13.126209
-12.989061
-12.930879
-12.718695
-12.515472
-12.550201
-12.444999
-12.096694
-11.675493
-11.252063
-10.913166
-10.724952
-10.339897
-9.823276
-9.480231
-9.166468
-8.512133
-7.843043
-7.198091
-6.757574
-6.167788
-5.435748
-4.681501
-4.130159
-3.597162
-3.154304
-2.427570
-1.753127
-1.562662
-1.027120
-0.559406
-0.315970
0.132206
0.141165
0.350812
0.685017
0.958407
1.253572
1.475888
1.571165
1.856369
1.898895
2.024085
2.159145
2.368169
2.462997
2.589879
2.684845
2.728459
2.791136
2.919889
3.004816
3.112545
3.192026
3.268286
3.315445
3.407646
3.506204
3.592033
3.666650
3.733591
3.812439
3.891341
3.965900
4.043508
4.121766
4.196745
4.271529
4.342390
4.409248
4.469509
4.522774
4.572611
4.621228
4.672811
4.724085
4.775010
4.826971
4.881184
4.932717
4.982920
5.032743
5.082548
5.132650
1.780691
1.797184
1.901765
1.701096
0.071023
0.043700
0.115593
0.037782
-10.018056
-10.364914
-8.298680
-8.848780
-6.459051
-9.304933
-16.677560
-16.510643
-16.623319
-16.487478
-9.120914
-1.073938
-0.913889
-0.920817
-0.750092
-10.481410
-10.472976
-10.223889
-10.785564
-1.658490
-1.683956
-1.509629
-11.857619
-11.658110
-11.932363
-11.649966
3.431981
3.324562
3.554391
3.273035
-0.516860
-0.747639
-0.460987
-0.833609
-16.211956
-16.155467
-16.312407
-15.671448
-15.687355
-15.534548
-15.465416
-15.393325
-15.511572
2.720965
3.000488
2.784211
2.994715
-0.476676
-0.400798
-0.364627
-4.190221
-4.405265
-2.911282
3.508423
3.667870
3.662410
-12.666262
-12.901749
-12.796759
-10.408953
-9.484079
-8.599381
3.436422
3.508637
3.374445
-12.857155
-15.147733
-15.185760
-14.989850
-1.018000
-1.164952
-1.172715
-1.063134
0.867968
0.739637
0.799814
-9.118790
-9.561303
-10.073898
0.731553
1.084458
1.325262
1.000769
-9.320556
-9.735818
-9.168852
1.243107
1.313594
0.790021
0.853438
0.860550
0.930389
-10.177427
-10.442229
-10.158943
0.786802
-0.417809
-0.290568
-0.337768
-9.565828
-14.987197
-15.101632
-15.022170
-0.316811
1.668501
1.617723
1.710748
-2.093632
-2.159880
-1.834033
2.943915
2.903538
2.846553
2.817099
2.770951
2.732761
-15.561296
-15.930751
-15.413387
-15.710348
-1.105890
-0.944460
-0.968492
1.707227
3.313992
-0.785999
-17.418117
-17.226212
-17.367968
-14.855518
-15.018778
-14.878472
-3.193300
-1.895498
-1.656370
-17.146046
1.852226
1.785562
1.897841
1.691055
-9.926035
-9.411409
-9.417185
-0.800254
-14.071888
-14.080548
-13.990020
-1.075325
-1.174072
-0.991006
-1.112382
2.841039
2.744240
2.715663
-8.583243
0.911305
0.332572
0.368269
-16.996615
-16.942817
-16.846317
2.652342
2.752582
2.644964
2.687088
-15.172339
-15.047657
-15.177905
-15.039260
-1.971187
-1.765185
-1.907185
2.627286
-10.399146
-11.218750
-8.682144
-1.749875
-8.855774
-10.659468
-11.573218
-9.381641
3.459678
3.666117
-11.742738
3.459167
-14.433738
-14.363486
-14.271034
-14.494979
-1.720386
-1.765755
-1.975060
-3.733046
-14.148138
-9.598427
-14.221044
-14.231335
-14.322244
-14.141465
1.159488
1.082334
1.074535
0.977245
-14.899501
-14.881570
-1.508980
-14.490169
-14.490849
-14.608877
-14.558226
-1.299722
-1.202881
-1.178720
2.958688
2.964414
2.845212
-1.334677
3.078927
-4.990730
-4.149780
-3.928467
3.334784
3.364725
3.243152
-3.388057
-12.766186
-12.859891
-12.858362
3.442537
-12.955842
-15.152270
-15.114097
-15.047713
-12.668207
-12.671783
-12.575472
-14.968945
1.825126
1.762561
1.691365
-0.004669
0.023095
0.193707
-1.947228
-2.070430
-1.733282
-13.297869
-13.189179
-13.337804
1.459466
1.495333
1.414423
1.559726
-0.433472
-0.527312
-0.409043
0.168504
1.646218
0.425077
0.370796
0.340293
1.282115
1.757830
1.606459
2.014966
2.505030
2.570683
2.466624
2.549051
4.375053
4.260542
4.208575
-8.715251
-8.118577
-6.968919
-10.414729
4.070986
-0.880822
-0.518138
-0.928733
-13.101501
-12.998089
-13.161849
1.791329
1.758479
1.861746
4.279845
4.495601
1.703974
-17.917506
-18.067263
-17.798192
4.649739
4.626536
4.572916
4.534410
-9.780654
-9.161612
1.488700
1.437704
1.368580
-13.596033
-13.656415
-13.800689
-13.802999
3.254772
-12.854205
3.103337
3.129515
-13.628340
-13.746328
-13.664216
-14.321446
-14.037150
-14.296971
-14.098617
-15.757972
-15.872115
-15.870123
-15.984485
-15.637068
-15.612521
-15.487744
-14.364020
-14.042327
-14.187708
-16.021454
-15.900710
-16.018635
-13.869252
-1.193526
-1.395627
-1.244496
0.470758
0.385417
-15.618182
-15.570654
-15.486503
-15.721114
-14.823929
-14.928769
-14.821358
-14.941314
-13.592855
-13.861697
-13.713058
-13.961680
-16.480944
-16.545703
-16.647157
-15.291729
-16.405435
-9.341566
-9.283931
-8.751972
-11.166172
-11.524652
-10.020990
-12.206120
3.019444
3.123103
3.007146
3.165426
-15.762179
-15.888284
2.246579
2.229300
2.076487
-14.223157
-14.154745
2.083488
3.837219
3.887937
3.938148
3.988115
3.774598
3.736452
3.655437
-14.300227
0.340912
0.251482
0.386043
0.225384
2.725736
2.644461
2.790873
-13.098325
-12.243442
-12.921893
-12.111580
4.239376
4.204120
4.288082
4.151704
-18.767217
-18.531500
-18.573551
-18.355886
-15.297101
-15.456049
-6.478630
-5.886951
-7.496023
-7.711273
-16.192667
-15.860950
-15.865219
-15.584898
3.529455
3.642296
3.292959
3.396642
3.233315
-10.245523
-10.116088
-10.449390
3.252720
3.330594
3.402077
-3.647378
-3.720098
-2.486296
2.546291
2.450500
2.605701
2.394701
3.163557
3.086624
3.010766
-0.243922
-0.186363
-15.002397
-15.102209
-14.936994
-11.384671
-11.321174
-11.178571
1.876566
1.933436
-14.824376
-14.769945
-14.592068
-14.577051
-14.247263
-14.200969
-14.004238
3.592787
-10.617835
-10.861025
-10.587646
3.786309
-14.605207
-14.669862
-14.576491
-9.025424
-9.269118
-9.759550
-14.375770
-3.505469
-4.169535
-9.785696
-14.639040
-12.640441
-13.434592
-13.496016
-0.343120
-0.417365
-0.633126
3.072273
3.189047
2.845578
-13.494045
-13.465883
-14.943739
-14.975920
-11.140161
-11.000653
-11.379857
-15.121111
-11.455994
-11.206386
-11.146140
-10.939049
-14.650060
-14.614105
-14.491176
-14.785994
-13.327997
-13.660139
-13.783164
-14.218799
-12.266872
-12.739051
-13.108581
1.796203
1.928378
2.048962
-0.141288
-0.286873
-0.131367
-15.545184
-15.689602
-11.812670
2.070425
-14.854649
-14.778152
-15.087759
-14.328557
-18.430283
-18.231344
-18.248778
-18.094002
-10.973503
-10.958719
-11.142304
-14.997334
-14.878626
-15.095646
-14.950299
-17.132429
-16.857058
-17.028071
1.432967
2.034381
1.884358
-15.105524
-14.927231
-14.869112
-14.948929
-15.011704
-8.357928
-7.071171
-7.369065
-15.064709
-14.980677
-13.460731
-13.204042
3.680156
3.884603
3.899884
-3.491372
-4.035487
-1.599736
-14.095354
-14.103720
-14.024090
-13.432781
-13.913508
-13.910200
-15.078615
-15.239850
-15.060700
-13.496559
-14.113106
-13.754823
-0.516486
-0.461192
-0.575795
-11.531915
-11.309715
-0.379494
-13.644844
-14.000035
-15.348212
-15.280217
-15.364485
-11.335718
-11.507597
-11.530140
-11.327660
-10.780476
-10.388679
-10.818096
-10.055610
-15.493987
-15.405435
-15.382761
-15.296632
-9.675200
-8.674012
-10.123506
3.067929
2.934887
3.099286
2.984145
-13.981749
-14.183493
-13.971037
-13.910627
-12.759690
-13.752653
-14.203302
-13.853914
-14.201257
-14.193443
3.552335
3.330776
3.550107
3.262786
-15.287778
-15.341734
-15.461236
4.194012
4.270298
4.371604
0.962304
1.204477
0.963646
1.209426
-16.566161
-16.422641
-16.321044
-15.247210
-15.348918
-15.362705
-15.467691
4.006257
3.960689
4.116952
-12.091929
-12.211298
-12.243801
1.550849
1.582100
1.674873
1.724919
1.589757
1.486629
1.458687
-1.355706
-1.261906
-1.389791
-0.807292
-0.732513
-0.853257
-1.259096
-16.065365
-16.146526
-16.047207
-0.875032
-0.966584
-0.985136
-11.931965
-11.930276
-15.406914
-15.317369
-15.281433
4.724641
4.792972
4.749069
-15.166468
-11.763324
-0.813384
-3.670747
-1.757087
-15.062751
-15.173970
-15.376006
-14.082540
-14.168827
-14.674904
-14.658761
-14.889932
3.236294
3.574012
3.555820
-15.823257
-15.927582
-15.981627
-16.043667
-14.348144
-14.363794
-14.115784
-14.491142
-12.421647
-12.532357
-12.434261
-12.544062
2.429247
2.573492
2.992784
1.941319
3.013836
3.359940
3.722833
3.770880
3.830416
4.842249
4.925862
4.938281
3.883653
3.058563
3.051634
3.211790
2.163553
2.237115
-12.433912
-12.208558
1.157954
-2.328425
-2.448638
-2.622252
-2.918664
-14.530911
-14.983543
-14.944004
-14.161974
2.200707
2.158448
2.094252
2.034824
-16.314053
-16.216825
-16.120061
-2.264618
-1.847765
-2.005591
-1.001434
-0.797720
-0.295672
-2.237150
-12.696333
-11.536024
-12.560718
3.617416
3.551975
3.507662
-1.509568
-1.363493
-3.690983
-10.255889
-12.712872
-11.484566
-11.907267
2.774217
2.920056
2.854088
-11.898704
-0.742030
-11.740689
-12.619968
-11.792765
-12.567861
-1.711530
-2.080448
2.840108
2.972929
-17.200659
-17.033148
-10.841393
-10.462768
-10.779805
-10.320472
-1.294375
-1.479708
-1.420057
-1.092609
-0.946091
-1.083721
-3.485647
-1.445473
-3.048379
-0.980712
-9.111914
-10.709016
-8.791759
4.358664
4.355612
4.441466
-1.700244
-1.229495
-1.324684
-12.545938
-11.274827
-11.585247
-13.851530
-13.642160
-13.351268
0.955414
0.833581
1.738431
3.605059
3.649403
3.713351
3.760881
-0.888405
-14.066629
-14.250625
-14.373519
-12.916667
-13.039961
-13.062660
2.005599
2.125882
2.131964
2.281641
1.923627
1.793136
1.568495
-13.368537
-14.243602
-14.122031
0.432557
-16.805557
-16.639736
-16.749395
-15.327434
-12.047737
-11.691856
-10.311476
-14.799929
-14.638032
-14.868580
-10.083861
2.560176
2.681127
-3.702951
-4.525983
-4.246423
-3.362125
-3.977239
-4.696476
-12.641617
-13.278961
-13.258412
-13.738390
-5.497875
0.913426
1.022051
0.978463
-16.239385
-16.347744
-16.245555
-13.913206
-14.037495
-13.582870
-14.053793
-14.236350
-14.199046
-14.387883
3.673642
4.447578
3.421359
3.579888
3.458122
-14.612848
-14.691672
-14.844727
4.378903
-15.054831
-14.954710
-0.392652
-0.280537
1.059110
1.019714
0.818821
2.911524
2.922709
3.079089
0.752824
3.223275
3.203614
-15.739800
-15.852764
-15.858186
-15.955732
-13.333757
-13.340695
-13.480947
-1.266724
-1.723872
-1.863382
1.462912
1.452570
1.683568
-13.076904
-12.939908
-13.087667
-12.923252
1.566611
2.237426
2.288975
2.141307
-0.706955
-0.651633
-0.576312
-2.921086
-3.217326
-3.943910
-15.089200
-15.227387
-15.090664
-9.660664
-15.245137
2.240455
-12.425646
-12.296929
-12.304747
-11.010909
-10.833547
-10.893070
-4.385635
-3.870093
-3.248085
-2.943694
-14.963939
-15.051111
2.199506
2.354467
2.266399
-4.161675
-4.310673
-1.986491
-2.360273
-15.589048
-15.694085
-15.736117
-15.867558
-0.301449
0.474656
0.441753
0.200301
-17.583524
-17.103379
-17.456878
2.668887
2.642422
2.834568
-17.398486
3.060244
2.979513
2.275526
2.435563
-14.432126
-14.384435
-14.348040
-14.075978
-14.096968
-14.402078
-14.675764
-14.617861
-15.323547
-15.376211
-15.508973
-15.206801
0.255228
0.271330
0.163426
3.653095
3.633523
3.745988
-14.752244
-14.693359
-14.632267
3.553062
-14.660027
-14.707948
-14.771283
-13.015756
-13.768974
-13.022265
4.794033
4.747123
-14.038200
-14.333398
-13.867441
-14.103726
-11.009903
-11.158512
-11.198503
-13.770037
0.259689
0.342084
0.329316
0.890411
0.689787
0.780010
-0.379515
-0.294895
-0.320074
-16.142783
-16.067573
-16.020218
0.558160
4.358671
4.438858
4.379873
-9.561421
-9.981425
-10.174026
-11.091432
-11.551922
-11.444634
-11.255100
-0.422422
-0.504413
-14.534565
-14.441598
-14.463923
-1.612143
-1.486128
-1.607481
1.537558
1.602012
-13.244962
-13.447821
-13.414745
-1.449376
-14.356546
-10.956495
-10.750185
-13.084135
-13.614253
-13.161086
-13.666186
-17.466198
-17.804787
-17.662650
-17.635851
-15.192634
-15.251726
-15.113508
-0.319179
-0.234811
-0.189763
-15.135134
-15.296818
-15.055078
-15.204332
-15.171589
1.189497
1.095319
1.121831
1.153167
1.094555
0.947225
0.997922
1.028037
0.901922
1.081924
0.959623
-16.133611
-16.286383
-16.158138
5.000687
4.961207
1.304679
1.487684
1.779356
1.915133
-16.036961
-15.917870
-14.610095
-14.611026
-14.525602
-15.902902
-15.894736
-14.780529
-14.795358
-14.870353
-14.719382
-15.484957
-15.334302
-15.681855
-15.564717
-15.795722
1.409161
1.379740
1.511211
1.501029
-17.461762
-17.292119
-17.543567
1.355671
1.294284
4.899472
1.243425
-16.547653
-16.646465
-16.624370
4.941872
-2.580942
-4.974818
-4.410182
-16.737128
-4.592404
-17.303202
-15.735478
-2.125482
-1.890824
-2.037774
-15.799072
-14.526807
-14.596051
-14.528578
-14.620418
-14.860246
-14.910707
-15.054817
-15.020292
2.993422
2.911479
3.038676
2.911156
-14.678622
-14.675437
-14.596628
-14.752669
1.021239
0.893144
1.461106
1.165544
-13.608454
-13.804909
-15.927235
-15.872894
1.427966
1.421279
1.565938
1.275817
1.253386
1.213279
-14.480155
-14.404759
-13.814128
-13.831921
-14.009702
-13.935947
1.770933
-12.077461
-12.646489
-12.944939
-11.587549
-2.349598
-2.087314
-2.302605
-5.845907
-7.407636
-1.930162
-14.308479
-14.217619
-14.198403
-14.111776
-12.154957
-12.299477
-0.255571
-0.403696
0.868418
0.818969
-0.450847
-13.427787
-12.475436
-12.908027
-11.348115
1.118121
1.398921
1.065721
1.561241
1.110109
1.250861
1.915919
1.968877
2.091614
-14.723307
-14.500481
-14.414501
4.177730
4.192742
4.392831
1.434842
1.398446
4.413335
-1.747654
-3.706854
-1.052886
-11.572584
-11.452698
-11.429549
1.603047
-14.485209
-14.545502
1.600116
1.758206
1.781260
2.637285
2.502089
2.623000
-16.190721
-16.291977
2.388710
-16.042228
-16.122181
-16.041778
3.136371
3.017490
-0.815577
-1.639985
-0.402772
-13.823675
-13.811609
-14.022667
-14.011735
-14.540757
-14.505404
-4.499746
-4.011833
-6.128686
-14.993133
-15.079114
-15.285978
-15.332832
-14.372892
-14.450453
0.292403
0.353185
0.190428
0.955781
1.168415
1.605826
1.643616
1.500611
1.199206
0.968897
0.735649
0.670918
-11.494051
-10.870302
-10.832227
-15.832194
-16.009679
-15.836790
-16.071124
-15.670005
-15.845410
-15.623250
-0.222929
0.397323
0.393396
0.005368
4.510637
4.402582
4.409618
-14.375203
-14.410084
-14.334151
-2.451441
-3.017823
-2.561500
-14.469176
-11.514007
-9.766577
-10.769455
-11.008033
-11.672814
-11.282518
-11.508092
-12.040528
-12.847321
-16.665218
-16.584057
-16.616837
2.474235
2.467289
2.596312
-12.329851
3.230967
-13.321026
-13.406956
-0.520616
0.057024
-0.459728
0.065142
-0.176244
-1.424670
-0.762141
5.044203
4.996124
4.958215
4.917651
4.845561
4.884567
4.914286
-14.623665
-14.700659
-14.759134
4.944510
-14.822193
-14.419682
-14.246086
-12.136229
-11.621813
-12.780265
-4.846411
-3.562334
-4.065151
3.156992
3.146213
3.066596
2.994439
-4.627173
-3.612584
-3.662432
-1.633894
0.534209
0.542832
0.625702
0.617257
-13.877725
-13.837644
-13.772834
-13.943569
-14.769092
-14.629199
-14.679906
0.823766
0.730069
0.711324
0.606003
-13.915024
-14.153801
-13.959219
4.868794
-14.179797
4.825137
-13.901161
-13.520177
-10.144236
-9.917390
-11.316939
-11.510146
-14.211617
-13.993607
-14.002872
-0.259168
-0.218530
-16.107666
-16.198722
-16.193167
-16.297794
-0.177736
-0.111303
-0.057545
-0.449456
-0.365519
-0.350027
-1.417962
-1.236017
-3.136821
0.822650
-9.116211
-10.608768
-2.423180
-2.650567
-2.278096
-2.402179
-1.093473
-1.036870
-0.969392
-1.076156
-0.984474
-1.114230
0.755856
0.874374
0.862824
-1.755715
-2.534838
-2.439785
0.813198
-1.671865
-1.621465
-1.497512
-1.471108
0.942582
0.831546
-3.458112
-2.323317
-12.836605
-12.005005
-11.898429
-11.104874
-16.806361
-16.813849
-16.942528
-16.709112
-1.990062
1.340185
1.183334
1.324789
1.303957
-16.744854
-16.668427
1.375091
-16.533191
-13.536957
-13.709881
-13.845147
-13.925668
-14.557618
-14.424391
-14.549473
1.485602
-12.001867
-12.146266
-12.160751
-14.390658
-14.304217
0.805054
0.725957
0.842985
-14.416018
-14.396382
2.622181
2.472365
2.566889
4.995200
4.916685
-14.458616
-14.343838
-17.848007
-17.959481
-13.232829
-13.285627
-13.376722
-13.071330
-1.371533
-1.305652
-1.189667
-1.167132
-11.970041
-13.478980
-13.447303
-0.910107
-13.569806
-13.673332
-13.329857
-13.328191
-1.987423
-2.506540
-12.638565
-12.583532
-12.717698
-12.664208
0.994716
1.044947
1.040964
0.991160
0.528860
0.776869
0.905994
0.390241
-1.837856
-1.852953
-2.056138
0.295075
0.321022
0.389431
-1.313279
-1.478447
0.242349
-13.512583
-13.407336
-18.145454
-17.991127
-13.280937
-13.609729
-16.591118
-13.694910
4.560881
4.729149
4.660900
4.855403
-1.718633
-0.789719
-0.375448
-15.548976
-15.220664
-15.441864
-12.701038
-12.796507
-12.776550
-12.884955
5.052951
2.620557
2.802260
2.873726
-15.943784
-16.019077
-15.922384
-15.881553
-16.069145
2.085208
2.252259
-16.105263
-16.194004
-16.073748
-3.993044
-5.458295
1.895221
2.022005
4.618362
4.417417
4.548009
1.788787
-13.364675
-13.432739
-13.315014
-13.482566
-12.423574
-12.378852
-12.576564
-16.255913
-16.368922
5.096423
5.062223
4.949439
-8.236207
-7.180911
-6.038044
4.461532
4.571072
4.521697
-11.147603
-11.139052
-5.023043
-12.173019
-14.940616
-14.700967
-14.501538
-8.522075
-8.778366
-7.921500
-0.443631
-0.595105
-1.471908
-1.580098
-1.329065
-1.568215
-13.073554
-13.072279
-13.196366
-0.774298
-0.747461
-0.642628
-0.631689
-1.979615
-1.606629
-3.145359
-2.826594
-2.625763
-2.398310
-18.803132
-18.804376
-18.471370
-19.141862
-12.919270
-13.463882
-12.966881
-18.273245
-11.872147
0.499832
0.512817
0.595231
0.574795
0.977248
4.656437
4.581207
0.569625
4.789834
4.851624
-0.627439
-0.535414
0.640907
-12.774487
0.093923
0.416483
0.409233
0.587152
4.736127
4.727886
3.115702