# vtk DataFile Version 2.0
Test
ASCII
DATASET POLYDATA
POINTS 6352 float
0.000000 0.000000 0.000000
1.000000 0.000000 0.000000
1.000000 0.800000 0.000000
1.000000 1.000000 0.000000
0.000000 1.000000 0.000000
0.000000 0.200000 0.000000
0.300000 0.330000 0.000000
0.700000 0.680000 0.000000
0.050000 0.000000 0.000000
0.100000 0.000000 0.000000
0.150000 0.000000 0.000000
0.200000 0.000000 0.000000
0.250000 0.000000 0.000000
0.300000 0.000000 0.000000
0.350000 0.000000 0.000000
0.400000 0.000000 0.000000
0.450000 0.000000 0.000000
0.500000 0.000000 0.000000
0.550000 0.000000 0.000000
0.600000 0.000000 0.000000
0.650000 0.000000 0.000000
0.700000 0.000000 0.000000
0.750000 0.000000 0.000000
0.800000 0.000000 0.000000
0.850000 0.000000 0.000000
0.900000 0.000000 0.000000
0.950000 0.000000 0.000000
1.000000 0.048545 0.000000
1.000000 0.094438 0.000000
1.000000 0.137825 0.000000
1.000000 0.178843 0.000000
1.000000 0.217620 0.000000
1.000000 0.254280 0.000000
1.000000 0.288938 0.000000
1.000000 0.321703 0.000000
1.000000 0.352678 0.000000
1.000000 0.381962 0.000000
1.000000 0.409647 0.000000
1.000000 0.435820 0.000000
1.000000 0.460563 0.000000
1.000000 0.483955 0.000000
1.000000 0.506070 0.000000
1.000000 0.526976 0.000000
1.000000 0.546741 0.000000
1.000000 0.565427 0.000000
1.000000 0.583092 0.000000
1.000000 0.599793 0.000000
1.000000 0.615581 0.000000
1.000000 0.630507 0.000000
1.000000 0.644618 0.000000
1.000000 0.657958 0.000000
1.000000 0.670570 0.000000
1.000000 0.682493 0.000000
1.000000 0.693765 0.000000
1.000000 0.704421 0.000000
1.000000 0.714495 0.000000
1.000000 0.724019 0.000000
1.000000 0.733023 0.000000
1.000000 0.741536 0.000000
1.000000 0.749583 0.000000
1.000000 0.757191 0.000000
1.000000 0.764383 0.000000
1.000000 0.771183 0.000000
1.000000 0.777611 0.000000
1.000000 0.783688 0.000000
1.000000 0.789434 0.000000
1.000000 0.794865 0.000000
1.000000 0.805174 0.000000
1.000000 0.811554 0.000000
1.000000 0.819418 0.000000
1.000000 0.829114 0.000000
1.000000 0.841067 0.000000
1.000000 0.855804 0.000000
1.000000 0.873972 0.000000
1.000000 0.896371 0.000000
1.000000 0.923985 0.000000
1.000000 0.958029 0.000000
0.950000 1.000000 0.000000
0.900000 1.000000 0.000000
0.850000 1.000000 0.000000
0.800000 1.000000 0.000000
0.750000 1.000000 0.000000
0.700000 1.000000 0.000000
0.650000 1.000000 0.000000
0.600000 1.000000 0.000000
0.550000 1.000000 0.000000
0.500000 1.000000 0.000000
0.450000 1.000000 0.000000
0.400000 1.000000 0.000000
0.350000 1.000000 0.000000
0.300000 1.000000 0.000000
0.250000 1.000000 0.000000
0.200000 1.000000 0.000000
0.150000 1.000000 0.000000
0.100000 1.000000 0.000000
0.050000 1.000000 0.000000
0.000000 0.951455 0.000000
0.000000 0.905562 0.000000
0.000000 0.862175 0.000000
0.000000 0.821157 0.000000
0.000000 0.782380 0.000000
0.000000 0.745720 0.000000
0.000000 0.711062 0.000000
0.000000 0.678297 0.000000
0.000000 0.647322 0.000000
0.000000 0.618038 0.000000
0.000000 0.590353 0.000000
0.000000 0.564180 0.000000
0.000000 0.539437 0.000000
0.000000 0.516045 0.000000
0.000000 0.493930 0.000000
0.000000 0.473024 0.000000
0.000000 0.453259 0.000000
0.000000 0.434573 0.000000
0.000000 0.416908 0.000000
0.000000 0.400207 0.000000
0.000000 0.384419 0.000000
0.000000 0.369493 0.000000
0.000000 0.355382 0.000000
0.000000 0.342042 0.000000
0.000000 0.329430 0.000000
0.000000 0.317507 0.000000
0.000000 0.306235 0.000000
0.000000 0.295579 0.000000
0.000000 0.285505 0.000000
0.000000 0.275981 0.000000
0.000000 0.266977 0.000000
0.000000 0.258464 0.000000
0.000000 0.250417 0.000000
0.000000 0.242809 0.000000
0.000000 0.235617 0.000000
0.000000 0.228817 0.000000
0.000000 0.222389 0.000000
0.000000 0.216312 0.000000
0.000000 0.210566 0.000000
0.000000 0.205135 0.000000
0.000000 0.194826 0.000000
0.000000 0.188446 0.000000
0.000000 0.180582 0.000000
0.000000 0.170886 0.000000
0.000000 0.158933 0.000000
0.000000 0.144196 0.000000
0.000000 0.126028 0.000000
0.000000 0.103629 0.000000
0.000000 0.076015 0.000000
0.000000 0.041971 0.000000
0.303738 0.333271 0.000000
0.307477 0.336542 0.000000
0.311215 0.339813 0.000000
0.314953 0.343084 0.000000
0.318692 0.346355 0.000000
0.322430 0.349626 0.000000
0.326168 0.352897 0.000000
0.329907 0.356168 0.000000
0.333645 0.359439 0.000000
0.337383 0.362710 0.000000
0.341121 0.365981 0.000000
0.344860 0.369252 0.000000
0.348598 0.372523 0.000000
0.352336 0.375794 0.000000
0.356075 0.379065 0.000000
0.359813 0.382336 0.000000
0.363551 0.385607 0.000000
0.367290 0.388879 0.000000
0.371028 0.392150 0.000000
0.374766 0.395421 0.000000
0.378505 0.398692 0.000000
0.382243 0.401963 0.000000
0.385981 0.405234 0.000000
0.389720 0.408505 0.000000
0.393458 0.411776 0.000000
0.397196 0.415047 0.000000
0.400935 0.418318 0.000000
0.404673 0.421589 0.000000
0.408411 0.424860 0.000000
0.412150 0.428131 0.000000
0.415888 0.431402 0.000000
0.419626 0.434673 0.000000
0.423364 0.437944 0.000000
0.427103 0.441215 0.000000
0.430841 0.444486 0.000000
0.434579 0.447757 0.000000
0.438318 0.451028 0.000000
0.442056 0.454299 0.000000
0.445794 0.457570 0.000000
0.449533 0.460841 0.000000
0.453271 0.464112 0.000000
0.457009 0.467383 0.000000
0.460748 0.470654 0.000000
0.464486 0.473925 0.000000
0.468224 0.477196 0.000000
0.471963 0.480467 0.000000
0.475701 0.483738 0.000000
0.479439 0.487009 0.000000
0.483178 0.490280 0.000000
0.486916 0.493551 0.000000
0.490654 0.496822 0.000000
0.494393 0.500093 0.000000
0.498131 0.503364 0.000000
0.501869 0.506636 0.000000
0.505607 0.509907 0.000000
0.509346 0.513178 0.000000
0.513084 0.516449 0.000000
0.516822 0.519720 0.000000
0.520561 0.522991 0.000000
0.524299 0.526262 0.000000
0.528037 0.529533 0.000000
0.531776 0.532804 0.000000
0.535514 0.536075 0.000000
0.539252 0.539346 0.000000
0.542991 0.542617 0.000000
0.546729 0.545888 0.000000
0.550467 0.549159 0.000000
0.554206 0.552430 0.000000
0.557944 0.555701 0.000000
0.561682 0.558972 0.000000
0.565421 0.562243 0.000000
0.569159 0.565514 0.000000
0.572897 0.568785 0.000000
0.576636 0.572056 0.000000
0.580374 0.575327 0.000000
0.584112 0.578598 0.000000
0.587850 0.581869 0.000000
0.591589 0.585140 0.000000
0.595327 0.588411 0.000000
0.599065 0.591682 0.000000
0.602804 0.594953 0.000000
0.606542 0.598224 0.000000
0.610280 0.601495 0.000000
0.614019 0.604766 0.000000
0.617757 0.608037 0.000000
0.621495 0.611308 0.000000
0.625234 0.614579 0.000000
0.628972 0.617850 0.000000
0.632710 0.621121 0.000000
0.636449 0.624393 0.000000
0.640187 0.627664 0.000000
0.643925 0.630935 0.000000
0.647664 0.634206 0.000000
0.651402 0.637477 0.000000
0.655140 0.640748 0.000000
0.658879 0.644019 0.000000
0.662617 0.647290 0.000000
0.666355 0.650561 0.000000
0.670093 0.653832 0.000000
0.673832 0.657103 0.000000
0.677570 0.660374 0.000000
0.681308 0.663645 0.000000
0.685047 0.666916 0.000000
0.688785 0.670187 0.000000
0.692523 0.673458 0.000000
0.696262 0.676729 0.000000
0.004545 0.201970 0.000000
0.009091 0.203939 0.000000
0.013636 0.205909 0.000000
0.018182 0.207879 0.000000
0.022727 0.209848 0.000000
0.027273 0.211818 0.000000
0.031818 0.213788 0.000000
0.036364 0.215758 0.000000
0.040909 0.217727 0.000000
0.045455 0.219697 0.000000
0.050000 0.221667 0.000000
0.054545 0.223636 0.000000
0.059091 0.225606 0.000000
0.063636 0.227576 0.000000
0.068182 0.229545 0.000000
0.072727 0.231515 0.000000
0.077273 0.233485 0.000000
0.081818 0.235455 0.000000
0.086364 0.237424 0.000000
0.090909 0.239394 0.000000
0.095455 0.241364 0.000000
0.100000 0.243333 0.000000
0.104545 0.245303 0.000000
0.109091 0.247273 0.000000
0.113636 0.249242 0.000000
0.118182 0.251212 0.000000
0.122727 0.253182 0.000000
0.127273 0.255152 0.000000
0.131818 0.257121 0.000000
0.136364 0.259091 0.000000
0.140909 0.261061 0.000000
0.145455 0.263030 0.000000
0.150000 0.265000 0.000000
0.154545 0.266970 0.000000
0.159091 0.268939 0.000000
0.163636 0.270909 0.000000
0.168182 0.272879 0.000000
0.172727 0.274848 0.000000
0.177273 0.276818 0.000000
0.181818 0.278788 0.000000
0.186364 0.280758 0.000000
0.190909 0.282727 0.000000
0.195455 0.284697 0.000000
0.200000 0.286667 0.000000
0.204545 0.288636 0.000000
0.209091 0.290606 0.000000
0.213636 0.292576 0.000000
0.218182 0.294545 0.000000
0.222727 0.296515 0.000000
0.227273 0.298485 0.000000
0.231818 0.300455 0.000000
0.236364 0.302424 0.000000
0.240909 0.304394 0.000000
0.245455 0.306364 0.000000
0.250000 0.308333 0.000000
0.254545 0.310303 0.000000
0.259091 0.312273 0.000000
0.263636 0.314242 0.000000
0.268182 0.316212 0.000000
0.272727 0.318182 0.000000
0.277273 0.320152 0.000000
0.281818 0.322121 0.000000
0.286364 0.324091 0.000000
0.290909 0.326061 0.000000
0.295455 0.328030 0.000000
0.704615 0.681846 0.000000
0.709231 0.683692 0.000000
0.713846 0.685538 0.000000
0.718462 0.687385 0.000000
0.723077 0.689231 0.000000
0.727692 0.691077 0.000000
0.732308 0.692923 0.000000
0.736923 0.694769 0.000000
0.741538 0.696615 0.000000
0.746154 0.698462 0.000000
0.750769 0.700308 0.000000
0.755385 0.702154 0.000000
0.760000 0.704000 0.000000
0.764615 0.705846 0.000000
0.769231 0.707692 0.000000
0.773846 0.709538 0.000000
0.778462 0.711385 0.000000
0.783077 0.713231 0.000000
0.787692 0.715077 0.000000
0.792308 0.716923 0.000000
0.796923 0.718769 0.000000
0.801538 0.720615 0.000000
0.806154 0.722462 0.000000
0.810769 0.724308 0.000000
0.815385 0.726154 0.000000
0.820000 0.728000 0.000000
0.824615 0.729846 0.000000
0.829231 0.731692 0.000000
0.833846 0.733538 0.000000
0.838462 0.735385 0.000000
0.843077 0.737231 0.000000
0.847692 0.739077 0.000000
0.852308 0.740923 0.000000
0.856923 0.742769 0.000000
0.861538 0.744615 0.000000
0.866154 0.746462 0.000000
0.870769 0.748308 0.000000
0.875385 0.750154 0.000000
0.880000 0.752000 0.000000
0.884615 0.753846 0.000000
0.889231 0.755692 0.000000
0.893846 0.757538 0.000000
0.898462 0.759385 0.000000
0.903077 0.761231 0.000000
0.907692 0.763077 0.000000
0.912308 0.764923 0.000000
0.916923 0.766769 0.000000
0.921538 0.768615 0.000000
0.926154 0.770462 0.000000
0.930769 0.772308 0.000000
[...]
POINT_DATA 6352
SCALARS UX float 1
LOOKUP_TABLE default
-0.000018
0.000022
17.431871
-2.424750
-26.097123
-22.074048
-10.127590
0.670452
0.000001
-0.000003
-0.000001
-0.000001
-0.000001
-0.000001
-0.000001
-0.000001
-0.000001
-0.000000
-0.000000
0.000000
0.000001
0.000000
0.000001
0.000002
0.000002
0.000004
-0.000004
2.047913
3.047414
3.817740
4.477263
5.083647
5.716710
6.458908
7.270066
8.130380
8.990050
9.747089
10.576123
11.415900
12.253338
13.235423
14.324243
15.469049
16.625057
17.728965
18.700783
19.564162
20.292328
20.867915
21.318118
21.666827
21.919429
22.073419
22.139735
22.120543
22.019243
21.832453
21.558332
21.195979
20.763489
20.322900
19.869724
19.397344
18.919010
18.435244
17.935382
16.882787
16.167532
15.193937
13.897623
12.220591
9.793403
7.096045
3.653541
0.647632
-1.779565
-3.512012
-4.420353
-5.017237
-5.373758
-5.725108
-6.144324
-6.622049
-7.259963
-8.168912
-9.447080
-11.029568
-12.803999
-14.691030
-16.535430
-18.316664
-20.025077
-21.665759
-23.217553
-24.682407
-26.108849
-26.137324
-26.173908
-26.217238
-26.273850
-26.364888
-26.607632
-26.772239
-26.883899
-26.994443
-27.064829
-27.075571
-27.035376
-26.914038
-26.710108
-26.459825
-26.086268
-25.652148
-25.181088
-24.662442
-24.093329
-23.615662
-23.147223
-22.822467
-22.542519
-22.295884
-22.099928
-21.980800
-21.898478
-21.844158
-21.801747
-21.772569
-21.750669
-21.738398
-21.736855
-21.750515
-21.782225
-21.832696
-21.904138
-21.985118
-22.193997
-22.495652
-22.954731
-23.688546
-25.159194
-27.785635
-30.092685
-23.933038
-9.727132
-4.269785
-8.450389
-7.688195
-6.638486
-5.841151
-11.709339
-8.198108
-7.270268
-6.906840
-5.278865
-7.208157
-5.228960
-6.503772
-7.632193
-7.298425
-5.958199
-6.471544
-8.535576
-8.673433
-6.296860
-11.264407
-6.110247
-13.794093
-11.194724
-11.424400
-12.522824
-11.349679
-11.455694
-10.239448
-9.079014
-6.033570
3.813683
-16.867905
-10.415319
-9.103778
-9.474224
-6.601225
-1.204557
-11.414624
-9.987693
-1.963249
-2.963068
-1.413326
-12.081867
-9.630110
-6.707944
-3.146635
-4.005764
-0.854342
0.562519
-0.535116
-1.488239
-6.774989
-3.898728
-5.979306
-6.198961
-9.247250
-10.061110
-5.453018
-4.507326
-11.199223
-9.238344
-7.556348
-5.827530
-7.199305
-6.223848
-6.330910
-5.498952
-3.606233
0.538334
-2.984911
-3.325315
-3.095636
-4.636546
-6.970102
-6.303899
-7.864981
-8.465928
-6.109205
-3.257652
0.354727
-0.697924
-3.802850
-3.691396
-4.608630
-8.918675
-7.762745
-6.952951
-7.627142
-7.162366
-6.990365
-5.877616
-3.933026
-2.267239
-1.619397
-1.775367
-5.163615
-5.230783
-6.262675
-4.143805
-1.335473
0.440860
2.982818
5.858834
5.018348
4.574116
2.627529
-21.931495
-21.761357
-21.613091
-21.479553
-21.359016
-21.244573
-21.134218
-21.029778
-20.924763
-20.811334
-20.690472
-20.561968
-20.438353
-20.309251
-20.141377
-19.940492
-19.704525
-19.446488
-19.170443
-18.877082
-18.594291
-18.307970
-17.997086
-17.713797
-17.384608
-17.146042
-16.883598
-16.639280
-16.360387
-16.142237
-15.988163
-15.766277
-15.405474
-15.141343
-15.021442
-14.389863
-13.954710
-13.417974
-12.908344
-12.494391
-12.176267
-11.925086
-11.694783
-11.540693
-11.435038
-11.396299
-11.424423
-11.427717
-11.467493
-11.517995
-11.576119
-11.625985
-11.668822
-11.699938
-11.708945
-11.700797
-11.636878
-11.518028
-11.350207
-11.144340
-10.837120
-10.450213
-10.277284
-10.303331
-9.086187
3.970549
8.942178
10.465489
13.383350
13.020217
13.482671
13.699894
13.805806
14.056043
14.416058
14.744223
14.867119
15.000509
15.290536
15.911635
16.386172
16.600977
16.666015
16.591625
16.546770
16.802128
17.051866
17.074958
17.085842
17.137715
17.186531
17.277440
17.371232
17.506363
17.677276
17.842374
18.022162
18.237664
18.432957
18.535162
18.727442
18.834000
18.779999
18.751718
18.828606
18.922316
19.001434
19.022619
19.041262
19.078423
19.123454
19.158562
19.174284
19.167871
19.135226
19.072531
18.988171
18.876801
18.745553
18.614461
18.477879
18.374656
18.285351
18.187781
18.083733
17.975805
17.858136
17.728503
17.586233
3.494522
3.100303
3.441071
3.102620
0.680808
0.556188
0.546372
0.371510
-10.472169
-11.064486
-7.797871
-9.040281
-6.416341
-8.489900
-21.915609
-21.448701
-21.619028
-21.231293
-10.000184
0.599996
0.959115
0.826667
1.198165
-5.642554
-5.710657
-5.425670
-5.924000
-3.095068
-2.936452
-2.412357
-7.089548
-6.785013
-7.063554
-6.722246
5.764088
5.220182
6.006812
5.295922
0.069462
-0.440995
-0.289082
-0.096115
-20.312248
-20.389170
-20.778743
-20.747284
-20.858537
-20.749324
-17.453426
-17.465091
-17.915510
3.685321
4.283938
3.671401
4.442662
-2.254627
-2.092951
-2.055523
-9.745225
-11.125025
-10.005884
7.388121
7.596767
8.195973
-10.543176
-11.015046
-11.104590
-13.921058
-5.193280
-13.645143
18.841195
18.896884
18.815844
-10.527512
-17.243545
-17.240098
-16.500578
-2.012190
-2.687469
-2.468250
-2.474608
4.675377
4.659494
4.407383
-10.891697
-11.071048
-11.359597
4.937631
11.657810
11.653117
12.075131
-6.290332
-6.796999
-6.812405
12.056297
12.218911
12.552752
2.364424
2.050587
2.398678
-7.378700
-7.616204
-7.700027
2.061558
-0.343692
-0.237849
-0.722410
-7.043895
-17.646882
-17.762703
-17.660932
0.025504
5.648789
5.166237
5.378561
-0.945457
-1.169588
-0.570893
13.289162
13.791050
13.373167
13.918310
13.108472
13.630284
-15.274798
-16.434177
-15.082544
-16.063963
-0.211660
0.496182
0.009524
5.020781
18.631735
0.654803
-23.859428
-23.281614
-23.458147
-17.547716
-18.012503
-17.609912
3.470681
3.531362
3.781868
-22.961916
10.014710
9.662586
9.432454
10.112324
-8.407088
-8.207259
-7.921097
3.486345
-16.389977
-16.498651
-16.575183
-2.731912
-2.885206
-2.609086
-2.744432
7.519560
7.750305
7.249710
-7.210083
14.143020
14.260778
14.066308
-21.948010
-21.580631
-21.388104
11.698661
12.042975
12.151522
12.690824
-18.126491
-17.752573
-18.313472
-17.923284
-5.598704
-4.844480
-5.329014
7.326148
-14.913481
-15.208484
-14.816039
-4.862698
-14.378914
-10.977724
-10.600170
-10.830634
5.577066
6.222983
-10.346841
5.483444
-16.630814
-16.553772
-16.424030
-16.719962
-0.963918
-1.551741
-1.679165
3.445402
-16.411827
-10.616699
-16.802839
-16.676142
-16.856568
-16.708546
5.476948
5.710436
5.378693
5.711447
-17.332490
-17.042030
-0.664485
-17.199425
-17.204642
-17.324707
-17.252874
-3.371012
-3.275914
-3.124377
7.044028
7.507488
6.957628
-3.632621
7.463041
-7.474320
-6.427861
-6.048189
16.455745
16.755214
16.742097
-5.855351
-13.209054
-13.081540
-13.493856
16.440602
-13.243522
-17.747150
-17.737456
-17.578517
-13.378038
-13.020840
-13.227423
-17.517984
4.043026
4.366482
3.813352
3.970308
3.743949
3.688141
-1.265322
-1.098191
-0.599192
-14.067557
-13.703125
-13.630161
6.947472
7.227933
7.349475
6.888181
-1.919071
-2.207449
-2.028295
3.415997
4.262912
1.012414
1.142619
0.794059
15.254414
15.180003
15.468783
15.355032
11.273511
11.514835
11.729600
11.997462
9.817255
9.737789
8.958540
-6.812343
-5.491787
-5.563286
-8.328858
8.545783
2.312715
2.310378
2.528143
-15.497946
-15.372338
-15.228501
6.172306
5.733814
5.789071
8.992717
10.051175
6.049975
-25.143333
-25.748194
-25.123343
21.213968
21.152709
21.061232
20.971226
-15.550299
-15.214242
8.516407
9.022098
8.868981
-13.011814
-12.835397
-13.295922
-12.964907
17.014706
-15.603173
17.180011
16.946297
-14.801605
-14.961999
-14.998028
-16.031648
-15.438493
-16.068413
-15.454545
-17.970573
-18.404983
-18.354996
-18.774712
-17.568898
-17.488883
-17.094852
-16.809350
-16.813884
-16.737563
-19.377603
-19.040674
-19.597542
-16.741200
-2.879384
-3.389407
-3.150675
1.416352
1.432593
-19.564767
-19.547089
-19.222752
-19.960686
-17.170414
-17.312265
-17.173725
-17.346257
-15.505378
-16.169414
-15.636440
-16.299370
-21.761653
-21.735558
-22.141746
-16.937692
-21.455841
-4.708960
-4.675572
-4.183354
-14.850574
-14.898192
-14.785958
-14.701377
9.620086
10.284021
10.121703
9.894102
-18.638400
-19.258113
2.328987
2.458687
2.037088
-16.717108
-16.689250
2.234202
18.763423
18.659779
18.979488
18.930555
18.863840
18.721258
18.758722
-16.736784
-0.923303
-1.010480
-0.775831
-0.949496
4.789352
4.262111
4.585101
-15.921879
-16.228373
-16.560185
-16.766606
19.573112
19.110925
19.451532
19.252510
-26.219641
-25.767653
-25.484190
-24.946389
-16.552626
-16.988892
-2.192733
-2.266941
-3.617749
-3.806009
-18.403882
-17.623944
-17.363032
-16.768403
18.524269
18.450938
16.092929
16.117197
16.368954
-5.331506
-5.288910
-5.538948
7.022302
6.851519
7.588770
-12.578115
-11.569355
-6.790943
3.716331
3.253189
3.563244
3.372841
7.183347
6.434451
6.748026
-0.411047
-0.012245
-17.607107
-17.735371
-17.574040
-7.237629
-7.578974
-7.145349
4.501217
4.145641
-17.390920
-17.180715
-16.695132
-16.618734
-16.757265
-16.672057
-16.176231
5.910066
-5.650042
-5.880895
-5.616033
6.564699
-16.561387
-16.714942
-16.620253
-4.290574
-4.526864
-5.056688
-16.989875
-11.964501
-11.256325
-5.099738
-16.771258
-16.948980
-16.617693
-16.970261
0.498180
0.947298
0.646941
18.402423
18.283451
17.522891
-13.907536
-13.509574
-17.411566
-17.386929
-6.138639
-5.996825
-6.324677
-17.633535
-6.440208
-6.229356
-6.213682
-6.003993
-16.888187
-16.794098
-16.456782
-17.259114
-13.189358
-14.067076
-13.956810
-14.997827
-13.996672
-15.217256
-15.887543
14.827234
14.401796
14.602087
1.062339
1.458287
1.115920
-19.582200
-19.987038
-9.423923
14.924163
-18.962249
-18.518561
-19.186315
-18.152525
-26.474474
-26.023637
-25.778805
-25.562989
-8.821691
-8.485267
-8.677268
-16.057468
-15.587682
-16.155912
-15.605154
-21.777940
-21.080018
-21.257051
16.165979
16.929575
16.667203
-16.486002
-16.036614
-17.376821
-17.514548
-17.537088
-3.310014
-2.219373
-1.879392
-17.653130
-16.336678
-16.138846
-15.690556
17.283600
18.386758
17.985897
5.188779
4.651561
5.530547
-16.119340
-16.251893
-16.239722
-14.778320
-15.427609
-15.356647
-16.097031
-16.506385
-16.177302
-14.929138
-15.809803
-15.096768
-1.721677
-1.811016
-2.005979
-8.004484
-7.997212
-1.557199
-16.260746
-15.461590
-18.026865
-17.884458
-18.049682
-9.754315
-9.556278
-10.009079
-9.307382
-10.810761
-10.592267
-10.497321
-10.831351
-18.320105
-18.143343
-18.119965
-17.952893
-8.047545
-6.947134
-8.338075
15.895310
15.612363
15.269936
16.283745
-16.171958
-16.381428
-16.196410
-16.478421
-12.989113
-15.907037
-16.374113
-13.692616
-14.617077
-14.378857
5.942147
5.400504
5.907654
5.211360
-17.970080
-18.070904
-18.271334
16.754015
17.894570
17.910662
8.640425
8.615843
8.932468
8.305831
-22.090852
-21.761564
-21.387204
-17.921391
-18.072824
-18.129158
-18.296154
17.354265
17.812359
18.285608
-12.457695
-12.172246
-12.524806
2.519794
2.326970
2.721793
2.445988
2.887789
2.589751
2.917660
-3.610620
-3.330128
-3.732279
-2.542024
-2.480208
-2.694240
-3.258076
-20.564230
-20.664029
-20.649669
-2.747668
-2.951083
-2.880901
-12.721808
-12.409436
-18.321266
-18.195769
-18.002779
20.667094
20.792607
20.459423
-17.815875
-12.651101
7.886972
3.547450
6.609499
-19.649772
-19.645666
-20.096114
-15.919899
-16.046196
-15.378594
-15.062802
-15.651049
17.024482
18.360646
17.641100
-18.992383
-19.165119
-19.351696
-19.463535
-16.595703
-16.569450
-16.366208
-16.719115
-11.350354
-11.642535
-11.871227
-11.231021
15.790663
16.457091
17.340166
14.729986
17.669036
18.198973
18.111721
17.994612
18.265790
20.614103
20.577250
20.910802
18.130087
18.008183
17.926376
18.186344
14.221053
14.593481
-10.650882
-9.853279
16.369357
-5.985259
-6.414193
-6.336246
-6.482461
-17.093249
-17.746555
-18.003664
-15.858579
7.139768
7.668214
7.240129
7.765219
-20.051996
-19.880632
-19.584068
-6.795003
-5.788779
-6.170401
3.266179
2.971902
3.133991
3.058493
-10.342388
-10.450118
-10.423194
16.232635
16.524606
16.171112
13.025154
12.331143
6.797942
-10.536741
-16.057679
-16.038398
-15.844803
5.682745
6.066010
6.374034
-16.231391
1.085792
-15.723738
-15.025301
-15.034144
-15.661722
-5.333428
-6.788813
5.423818
5.733621
-22.930681
-22.587554
-10.159408
-10.060527
-9.837535
-9.764032
-2.574290
-3.092628
-2.677690
-3.129998
-2.853844
-3.218844
3.536938
5.732202
3.136938
-2.817583
-8.450074
-9.185051
-7.621707
20.520529
20.377736
20.666526
-2.823795
-2.927705
-2.459353
-15.454941
-3.155988
-11.130246
-16.460409
-15.967679
-16.190331
14.995283
14.900341
16.413014
17.409593
17.164229
17.485503
17.256180
11.740841
-16.543420
-16.341106
-16.530040
-12.789438
-13.072070
-12.723377
13.670894
13.329400
13.857500
13.284053
14.043258
13.780238
14.188708
-14.572417
-15.581551
-16.062183
1.733670
-21.830136
-21.415832
-21.891520
-17.885183
-9.183486
-9.101988
-7.861428
-15.858081
-15.162202
-16.262664
-7.602880
4.425594
5.072826
-6.690947
-6.975300
-7.159316
-2.569814
-3.050115
-3.660107
-13.537294
-14.941234
-14.102110
-15.686238
-4.212643
1.364478
1.447041
1.743601
-20.429937
-20.790558
-20.571723
-14.900315
-14.981823
-14.175393
-16.438336
-16.555432
-16.606652
-16.745160
16.798085
20.533890
6.037997
6.815281
6.489686
-14.582863
-14.648038
-15.138014
20.269217
-15.706028
-15.514677
-0.873879
-0.745687
7.288771
7.606571
7.566712
17.596626
17.557260
17.750976
7.876071
17.855942
17.965088
-18.042029
-18.531959
-18.436155
-18.881193
-16.680252
-16.615680
-16.736142
-2.290740
-1.957572
-3.677254
0.981344
0.847671
1.278535
-11.881912
-11.453489
-11.479635
-11.916680
0.993072
11.604663
11.962008
12.088569
-2.471808
-2.413325
-2.343592
-5.928499
-6.031649
-6.415184
-18.204649
-18.644764
-18.173177
-7.533656
-18.647388
12.396691
-10.880024
-11.054424
-10.538989
-7.032743
-7.042627
-6.714950
-6.792281
-5.561704
-5.313843
-4.330622
-17.825458
-18.110380
2.598439
2.881481
2.908357
10.951079
10.782210
11.394995
11.242636
-18.385258
-18.972204
-18.820735
-19.468951
10.710454
10.357886
10.574310
10.330664
-20.846788
-19.689900
-20.319585
17.340898
17.337178
17.433839
-20.634436
17.523952
17.546172
15.112059
14.590982
-16.752160
-16.773777
-16.686803
-13.061566
-13.267882
-14.082744
-15.055145
-14.657323
-16.937876
-16.905203
-17.305380
-16.565696
1.794433
2.130534
1.962177
19.033855
18.993256
19.090976
-16.648070
-16.657662
-16.462021
18.945537
-16.374001
-16.338981
-16.552751
-15.490393
-15.901908
-15.573253
18.929462
18.923423
-16.533295
-16.479394
-16.976410
-16.816003
-6.329681
-6.360941
-6.589344
-17.118936
1.484640
1.656417
1.959571
1.050391
0.728594
1.024249
-1.974036
-1.775617
-1.944636
-19.685702
-19.254273
-19.211912
0.664242
20.587010
20.775739
20.605103
-8.772471
-8.707289
-9.028706
-12.708351
-12.543940
-12.844770
-12.446668
-1.432861
-1.440869
-16.361697
-16.296546
-16.175140
-4.454726
-4.026731
-4.350794
4.253970
4.732551
-11.256592
-11.553165
-11.913729
-3.878116
-16.088916
-9.569000
-9.487582
-11.933965
-14.708889
-13.096912
-14.777073
-21.748284
-22.488168
-22.425560
-21.813636
-16.838398
-17.127944
-16.764812
-1.792661
-1.787081
-1.557129
-16.955261
-16.941088
-17.724863
-17.899601
-16.505727
4.523126
4.630215
4.252696
5.004678
0.274704
0.055077
0.219487
0.132820
0.208176
0.480759
0.453663
-19.719321
-20.106055
-19.818037
17.238606
17.516819
16.843141
16.416942
16.825571
16.470931
-19.517745
-19.233219
-16.876681
-16.884288
-16.788503
-21.688119
-21.546108
-17.262150
-17.195296
-17.337276
-17.092294
-17.375055
-16.812053
-17.854827
-17.721397
-18.277474
1.730011
1.482916
1.819716
1.563986
-22.448988
-21.907784
-22.405837
1.856220
1.493737
16.889861
1.670741
-20.672747
-21.059904
-20.808651
16.482669
12.597929
10.401684
11.121114
-21.187801
10.900216
-21.657462
-21.554391
-5.309692
-4.961771
-5.331570
-21.849377
-16.861106
-16.999907
-16.998098
-17.122746
-16.670282
-16.641549
-17.065445
-16.796173
11.335102
10.694223
10.693328
10.170265
-16.909013
-16.961017
-16.810266
-17.073467
14.878055
14.675918
14.706415
14.485236
-12.320591
-12.450738
-20.996922
-20.891794
4.317667
3.760361
3.824742
4.421479
4.830712
4.081315
-17.169794
-17.098366
-12.701789
-12.509507
-12.952401
-12.531628
2.769617
-15.438523
-15.819544
-15.664209
-15.097581
-7.918355
-6.373968
-7.550717
0.648656
-1.442434
-5.786498
-15.526380
-15.545976
-15.253560
-15.362053
-11.733949
-11.896508
1.348156
1.447234
1.686622
1.356657
1.502971
-15.132306
-8.602962
-11.368026
-10.938273
14.304720
14.020987
13.891984
13.651074
0.751360
0.788913
2.266657
2.109254
2.466665
-14.724233
-13.805292
-13.757236
14.428907
15.364964
16.120449
1.099408
0.836607
16.981235
12.153588
11.770118
12.058383
-8.482125
-8.663898
-8.297529
1.263757
-16.549833
-16.680385
1.100736
1.436859
1.370221
17.168541
17.195848
17.061200
-20.982277
-21.149917
17.107860
-19.084829
-19.319203
-19.190236
16.705677
16.954636
2.001578
2.244326
2.063924
-15.974220
-15.953627
-16.133069
-16.111580
-17.063347
-17.028846
-4.217005
-3.502786
-5.576978
-20.517123
-20.355561
-20.687327
-20.535118
-15.969894
-15.988123
-0.584332
-0.656966
-0.841137
7.887037
7.723114
1.361204
1.691899
1.362366
7.347108
8.105566
8.132676
8.393838
-13.184311
-13.274098
-13.132037
-17.964883
-18.478356
-18.167260
-18.844145
-17.470329
-17.809990
-17.150174
7.326577
7.146144
7.378807
7.131191
16.379677
16.376108
15.626184
-16.965719
-17.047180
-16.982954
-1.519050
-2.192765
-1.656092
-17.048721
-10.637861
-9.429256
-10.374724
-9.833890
-12.190503
-12.206199
-11.890082
-10.548377
-10.296521
-20.961280
-20.894222
-20.797246
5.832993
5.436050
5.778779
-10.293885
4.980243
-13.701123
-14.384241
6.385203
6.323508
6.558059
6.154729
6.677663
6.671064
6.815418
21.846685
21.712427
21.726997
21.609999
20.210013
20.614012
20.269116
-17.184534
-17.254050
-17.394072
20.774046
-17.414890
-16.819031
-16.451157
-12.591845
-12.518024
-14.929731
-7.967570
-6.504365
-7.154695
8.026630
8.415748
7.928139
8.187779
-7.644162
9.719040
9.506294
9.891686
3.227314
2.832382
3.026605
2.588989
-14.758435
-14.943219
-14.655934
-15.005335
-16.328158
-16.061232
-16.012640
-0.118210
-0.219988
-0.336813
-0.445065
-15.814453
-16.494729
-15.838123
21.597157
-16.527604
21.479905
-15.795699
-14.377460
-12.015301
-5.685229
-8.889174
-9.121864
-13.827926
-13.575725
-13.212885
-1.867080
-1.763336
-20.857692
-20.879250
-20.964452
-20.982077
-1.613947
-1.590952
-1.403453
-1.739222
-1.722227
-1.570039
11.625595
11.340736
3.442373
15.466303
-6.225772
-7.547148
-5.602416
-5.713272
-5.362125
-5.416414
-3.057508
-2.874751
-2.679590
-2.819543
-2.776072
-2.940647
0.453978
0.633784
0.809381
-3.416108
-4.017604
-4.402861
0.334013
-4.521007
-4.183432
-3.968484
-3.686815
1.113734
1.046440
6.184952
6.572294
-14.300654
-13.608546
-14.070752
-12.616296
-21.023858
-20.978691
-21.285882
-20.771291
-3.713915
8.020989
8.023268
7.699543
7.372817
-21.004135
-20.781096
7.089691
-20.582408
-16.345563
-16.731429
-16.650464
-16.721274
-16.055686
-15.774105
-16.210469
2.000805
-10.389900
-10.175197
-10.727039
-15.534718
-15.327318
5.361028
5.219246
5.025944
-16.390455
-16.477413
6.757091
6.363321
6.222964
21.776917
21.667533
-16.614852
-16.231672
-23.072639
-23.081354
-16.111586
-15.927142
-16.050181
-16.040625
-3.691179
-3.498871
-3.253096
-3.099942
-12.955308
-15.972666
-16.175297
-2.709443
-16.114910
-12.662010
-12.033313
-12.192131
-6.406108
-8.149234
-12.556883
-12.048617
-12.198330
-11.652759
4.692443
5.001132
4.365072
5.318482
11.231691
10.783232
10.859335
10.937837
-3.765142
-3.578217
-4.157426
-0.515544
-0.640146
-0.387916
-3.088200
-3.400800
-0.730272
-16.307657
-16.361029
-23.260608
-22.631071
-16.279793
-16.408703
-20.582944
-16.150832
11.912419
12.755923
12.962383
21.562552
9.537500
9.253332
9.550944
-20.994956
-20.871590
-20.844739
-13.945634
-13.829445
-14.114981
-13.899879
17.053662
17.555390
17.790117
17.861571
-21.880826
-20.356773
-20.224344
-19.961254
-20.634705
12.904544
12.869701
-20.855349
-21.151401
-20.912303
-4.086254
-1.897776
12.986703
12.621341
16.834261
15.396142
16.937268
12.838686
-15.406252
-15.623691
-15.674270
-15.420052
-14.250613
-14.070634
-13.929783
-20.818773
-20.975695
21.846117
21.675964
21.512168
-6.313594
-5.470034
-4.762415
17.455937
18.075374
18.310209
-9.086383
-9.458527
-3.914507
-14.260470
-13.867121
-13.393429
-12.707430
-3.826592
-4.101590
-3.328467
-0.675469
-1.198629
-1.762245
-3.273529
-3.080196
-3.014194
-13.881906
-13.434844
-13.171213
-2.139152
-2.224944
-1.922650
-2.084552
-3.604595
-3.372708
-5.549834
-5.183461
-5.006442
-4.683131
-24.509867
-24.800048
-24.035459
-25.384901
-11.989164
-14.041650