# vtk DataFile Version 2.0
Test
ASCII
DATASET POLYDATA
POINTS 6352 float
0.000000 0.000000 0.000000
1.000000 0.000000 0.000000
1.000000 0.800000 0.000000
1.000000 1.000000 0.000000
0.000000 1.000000 0.000000
0.000000 0.200000 0.000000
0.300000 0.330000 0.000000
0.700000 0.680000 0.000000
0.050000 0.000000 0.000000
0.100000 0.000000 0.000000
0.150000 0.000000 0.000000
0.200000 0.000000 0.000000
0.250000 0.000000 0.000000
0.300000 0.000000 0.000000
0.350000 0.000000 0.000000
0.400000 0.000000 0.000000
0.450000 0.000000 0.000000
0.500000 0.000000 0.000000
0.550000 0.000000 0.000000
0.600000 0.000000 0.000000
0.650000 0.000000 0.000000
0.700000 0.000000 0.000000
0.750000 0.000000 0.000000
0.800000 0.000000 0.000000
0.850000 0.000000 0.000000
0.900000 0.000000 0.000000
0.950000 0.000000 0.000000
1.000000 0.048545 0.000000
1.000000 0.094438 0.000000
1.000000 0.137825 0.000000
1.000000 0.178843 0.000000
1.000000 0.217620 0.000000
1.000000 0.254280 0.000000
1.000000 0.288938 0.000000
1.000000 0.321703 0.000000
1.000000 0.352678 0.000000
1.000000 0.381962 0.000000
1.000000 0.409647 0.000000
1.000000 0.435820 0.000000
1.000000 0.460563 0.000000
1.000000 0.483955 0.000000
1.000000 0.506070 0.000000
1.000000 0.526976 0.000000
1.000000 0.546741 0.000000
1.000000 0.565427 0.000000
1.000000 0.583092 0.000000
1.000000 0.599793 0.000000
1.000000 0.615581 0.000000
1.000000 0.630507 0.000000
1.000000 0.644618 0.000000
1.000000 0.657958 0.000000
1.000000 0.670570 0.000000
1.000000 0.682493 0.000000
1.000000 0.693765 0.000000
1.000000 0.704421 0.000000
1.000000 0.714495 0.000000
1.000000 0.724019 0.000000
1.000000 0.733023 0.000000
1.000000 0.741536 0.000000
1.000000 0.749583 0.000000
1.000000 0.757191 0.000000
1.000000 0.764383 0.000000
1.000000 0.771183 0.000000
1.000000 0.777611 0.000000
1.000000 0.783688 0.000000
1.000000 0.789434 0.000000
1.000000 0.794865 0.000000
1.000000 0.805174 0.000000
1.000000 0.811554 0.000000
1.000000 0.819418 0.000000
1.000000 0.829114 0.000000
1.000000 0.841067 0.000000
1.000000 0.855804 0.000000
1.000000 0.873972 0.000000
1.000000 0.896371 0.000000
1.000000 0.923985 0.000000
1.000000 0.958029 0.000000
0.950000 1.000000 0.000000
0.900000 1.000000 0.000000
0.850000 1.000000 0.000000
0.800000 1.000000 0.000000
0.750000 1.000000 0.000000
0.700000 1.000000 0.000000
0.650000 1.000000 0.000000
0.600000 1.000000 0.000000
0.550000 1.000000 0.000000
0.500000 1.000000 0.000000
0.450000 1.000000 0.000000
0.400000 1.000000 0.000000
0.350000 1.000000 0.000000
0.300000 1.000000 0.000000
0.250000 1.000000 0.000000
0.200000 1.000000 0.000000
0.150000 1.000000 0.000000
0.100000 1.000000 0.000000
0.050000 1.000000 0.000000
0.000000 0.951455 0.000000
0.000000 0.905562 0.000000
0.000000 0.862175 0.000000
0.000000 0.821157 0.000000
0.000000 0.782380 0.000000
0.000000 0.745720 0.000000
0.000000 0.711062 0.000000
0.000000 0.678297 0.000000
0.000000 0.647322 0.000000
0.000000 0.618038 0.000000
0.000000 0.590353 0.000000
0.000000 0.564180 0.000000
0.000000 0.539437 0.000000
0.000000 0.516045 0.000000
0.000000 0.493930 0.000000
0.000000 0.473024 0.000000
0.000000 0.453259 0.000000
0.000000 0.434573 0.000000
0.000000 0.416908 0.000000
0.000000 0.400207 0.000000
0.000000 0.384419 0.000000
0.000000 0.369493 0.000000
0.000000 0.355382 0.000000
0.000000 0.342042 0.000000
0.000000 0.329430 0.000000
0.000000 0.317507 0.000000
0.000000 0.306235 0.000000
0.000000 0.295579 0.000000
0.000000 0.285505 0.000000
0.000000 0.275981 0.000000
0.000000 0.266977 0.000000
0.000000 0.258464 0.000000
0.000000 0.250417 0.000000
0.000000 0.242809 0.000000
0.000000 0.235617 0.000000
0.000000 0.228817 0.000000
0.000000 0.222389 0.000000
0.000000 0.216312 0.000000
0.000000 0.210566 0.000000
0.000000 0.205135 0.000000
0.000000 0.194826 0.000000
0.000000 0.188446 0.000000
0.000000 0.180582 0.000000
0.000000 0.170886 0.000000
0.000000 0.158933 0.000000
0.000000 0.144196 0.000000
0.000000 0.126028 0.000000
0.000000 0.103629 0.000000
0.000000 0.076015 0.000000
0.000000 0.041971 0.000000
0.303738 0.333271 0.000000
0.307477 0.336542 0.000000
0.311215 0.339813 0.000000
0.314953 0.343084 0.000000
0.318692 0.346355 0.000000
0.322430 0.349626 0.000000
0.326168 0.352897 0.000000
0.329907 0.356168 0.000000
0.333645 0.359439 0.000000
0.337383 0.362710 0.000000
0.341121 0.365981 0.000000
0.344860 0.369252 0.000000
0.348598 0.372523 0.000000
0.352336 0.375794 0.000000
0.356075 0.379065 0.000000
0.359813 0.382336 0.000000
0.363551 0.385607 0.000000
0.367290 0.388879 0.000000
0.371028 0.392150 0.000000
0.374766 0.395421 0.000000
0.378505 0.398692 0.000000
0.382243 0.401963 0.000000
0.385981 0.405234 0.000000
0.389720 0.408505 0.000000
0.393458 0.411776 0.000000
0.397196 0.415047 0.000000
0.400935 0.418318 0.000000
0.404673 0.421589 0.000000
0.408411 0.424860 0.000000
0.412150 0.428131 0.000000
0.415888 0.431402 0.000000
0.419626 0.434673 0.000000
0.423364 0.437944 0.000000
0.427103 0.441215 0.000000
0.430841 0.444486 0.000000
0.434579 0.447757 0.000000
0.438318 0.451028 0.000000
0.442056 0.454299 0.000000
0.445794 0.457570 0.000000
0.449533 0.460841 0.000000
0.453271 0.464112 0.000000
0.457009 0.467383 0.000000
0.460748 0.470654 0.000000
0.464486 0.473925 0.000000
0.468224 0.477196 0.000000
0.471963 0.480467 0.000000
0.475701 0.483738 0.000000
0.479439 0.487009 0.000000
0.483178 0.490280 0.000000
0.486916 0.493551 0.000000
0.490654 0.496822 0.000000
0.494393 0.500093 0.000000
0.498131 0.503364 0.000000
0.501869 0.506636 0.000000
0.505607 0.509907 0.000000
0.509346 0.513178 0.000000
0.513084 0.516449 0.000000
0.516822 0.519720 0.000000
0.520561 0.522991 0.000000
0.524299 0.526262 0.000000
0.528037 0.529533 0.000000
0.531776 0.532804 0.000000
0.535514 0.536075 0.000000
0.539252 0.539346 0.000000
0.542991 0.542617 0.000000
0.546729 0.545888 0.000000
0.550467 0.549159 0.000000
0.554206 0.552430 0.000000
0.557944 0.555701 0.000000
0.561682 0.558972 0.000000
0.565421 0.562243 0.000000
0.569159 0.565514 0.000000
0.572897 0.568785 0.000000
0.576636 0.572056 0.000000
0.580374 0.575327 0.000000
0.584112 0.578598 0.000000
0.587850 0.581869 0.000000
0.591589 0.585140 0.000000
0.595327 0.588411 0.000000
0.599065 0.591682 0.000000
0.602804 0.594953 0.000000
0.606542 0.598224 0.000000
0.610280 0.601495 0.000000
0.614019 0.604766 0.000000
0.617757 0.608037 0.000000
0.621495 0.611308 0.000000
0.625234 0.614579 0.000000
0.628972 0.617850 0.000000
0.632710 0.621121 0.000000
0.636449 0.624393 0.000000
0.640187 0.627664 0.000000
0.643925 0.630935 0.000000
0.647664 0.634206 0.000000
0.651402 0.637477 0.000000
0.655140 0.640748 0.000000
0.658879 0.644019 0.000000
0.662617 0.647290 0.000000
0.666355 0.650561 0.000000
0.670093 0.653832 0.000000
0.673832 0.657103 0.000000
0.677570 0.660374 0.000000
0.681308 0.663645 0.000000
0.685047 0.666916 0.000000
0.688785 0.670187 0.000000
0.692523 0.673458 0.000000
0.696262 0.676729 0.000000
0.004545 0.201970 0.000000
0.009091 0.203939 0.000000
0.013636 0.205909 0.000000
0.018182 0.207879 0.000000
0.022727 0.209848 0.000000
0.027273 0.211818 0.000000
0.031818 0.213788 0.000000
0.036364 0.215758 0.000000
0.040909 0.217727 0.000000
0.045455 0.219697 0.000000
0.050000 0.221667 0.000000
0.054545 0.223636 0.000000
0.059091 0.225606 0.000000
0.063636 0.227576 0.000000
0.068182 0.229545 0.000000
0.072727 0.231515 0.000000
0.077273 0.233485 0.000000
0.081818 0.235455 0.000000
0.086364 0.237424 0.000000
0.090909 0.239394 0.000000
0.095455 0.241364 0.000000
0.100000 0.243333 0.000000
0.104545 0.245303 0.000000
0.109091 0.247273 0.000000
0.113636 0.249242 0.000000
0.118182 0.251212 0.000000
0.122727 0.253182 0.000000
0.127273 0.255152 0.000000
0.131818 0.257121 0.000000
0.136364 0.259091 0.000000
0.140909 0.261061 0.000000
0.145455 0.263030 0.000000
0.150000 0.265000 0.000000
0.154545 0.266970 0.000000
0.159091 0.268939 0.000000
0.163636 0.270909 0.000000
0.168182 0.272879 0.000000
0.172727 0.274848 0.000000
0.177273 0.276818 0.000000
0.181818 0.278788 0.000000
0.186364 0.280758 0.000000
0.190909 0.282727 0.000000
0.195455 0.284697 0.000000
0.200000 0.286667 0.000000
0.204545 0.288636 0.000000
0.209091 0.290606 0.000000
0.213636 0.292576 0.000000
0.218182 0.294545 0.000000
0.222727 0.296515 0.000000
0.227273 0.298485 0.000000
0.231818 0.300455 0.000000
0.236364 0.302424 0.000000
0.240909 0.304394 0.000000
0.245455 0.306364 0.000000
0.250000 0.308333 0.000000
0.254545 0.310303 0.000000
0.259091 0.312273 0.000000
0.263636 0.314242 0.000000
0.268182 0.316212 0.000000
0.272727 0.318182 0.000000
0.277273 0.320152 0.000000
0.281818 0.322121 0.000000
0.286364 0.324091 0.000000
0.290909 0.326061 0.000000
0.295455 0.328030 0.000000
0.704615 0.681846 0.000000
0.709231 0.683692 0.000000
0.713846 0.685538 0.000000
0.718462 0.687385 0.000000
0.723077 0.689231 0.000000
0.727692 0.691077 0.000000
0.732308 0.692923 0.000000
0.736923 0.694769 0.000000
0.741538 0.696615 0.000000
0.746154 0.698462 0.000000
0.750769 0.700308 0.000000
0.755385 0.702154 0.000000
0.760000 0.704000 0.000000
0.764615 0.705846 0.000000
0.769231 0.707692 0.000000
0.773846 0.709538 0.000000
0.778462 0.711385 0.000000
0.783077 0.713231 0.000000
0.787692 0.715077 0.000000
0.792308 0.716923 0.000000
0.796923 0.718769 0.000000
0.801538 0.720615 0.000000
0.806154 0.722462 0.000000
0.810769 0.724308 0.000000
0.815385 0.726154 0.000000
0.820000 0.728000 0.000000
0.824615 0.729846 0.000000
0.829231 0.731692 0.000000
0.833846 0.733538 0.000000
0.838462 0.735385 0.000000
0.843077 0.737231 0.000000
0.847692 0.739077 0.000000
0.852308 0.740923 0.000000
0.856923 0.742769 0.000000
0.861538 0.744615 0.000000
0.866154 0.746462 0.000000
0.870769 0.748308 0.000000
0.875385 0.750154 0.000000
0.880000 0.752000 0.000000
0.884615 0.753846 0.000000
0.889231 0.755692 0.000000
0.893846 0.757538 0.000000
0.898462 0.759385 0.000000
0.903077 0.761231 0.000000
0.907692 0.763077 0.000000
0.912308 0.764923 0.000000
0.916923 0.766769 0.000000
0.921538 0.768615 0.000000
0.926154 0.770462 0.000000
0.930769 0.772308 0.000000
[...]
POINT_DATA 6352
SCALARS UX float 1
LOOKUP_TABLE default
-0.000019
0.000024
21.223130
11.082396
-10.275459
-20.020123
-8.155287
10.516605
0.000001
-0.000003
-0.000001
-0.000001
-0.000001
-0.000001
-0.000001
-0.000001
-0.000001
-0.000000
-0.000000
0.000000
0.000001
0.000001
0.000001
0.000002
0.000002
0.000005
-0.000004
3.238677
5.558188
7.744425
9.766367
11.783526
13.918644
16.191010
18.579998
20.951434
23.430704
25.845694
27.844047
29.052943
29.703337
29.815191
29.624834
29.269434
28.826953
28.340738
27.840978
27.343017
26.855823
26.379848
25.928801
25.496840
25.092769
24.717066
24.368769
24.045745
23.750921
23.478559
23.224230
22.984368
22.754870
22.533221
22.314811
22.097433
21.880230
21.664556
21.445091
20.984267
20.669936
20.261699
19.718174
18.986232
17.968091
16.645603
15.004476
13.273136
11.740213
9.115124
8.054514
7.402979
6.715935
6.091996
5.366306
4.572216
3.791273
3.044656
2.323786
1.633333
0.976521
0.313414
-0.378804
-1.180654
-2.326198
-3.773162
-5.609025
-7.846342
-10.244373
-10.225440
-10.441896
-10.883364
-11.444948
-11.985715
-12.572393
-13.288266
-14.148557
-15.162918
-16.308106
-17.488152
-18.591089
-19.570785
-20.434132
-21.220282
-21.908623
-22.522316
-23.084264
-23.612094
-24.095823
-24.534653
-24.912413
-25.338640
-25.656594
-25.802519
-25.813294
-25.722811
-25.479796
-25.209858
-24.803393
-24.378228
-23.929010
-23.433857
-22.924297
-22.410665
-21.875479
-21.391171
-20.924239
-20.477714
-19.594929
-18.964970
-18.228414
-17.188721
-15.913946
-14.371696
-12.393136
-10.284173
-6.368066
-4.067516
-9.163155
-10.921160
-10.481036
-9.871178
-11.627833
-10.159891
-10.911835
-12.001979
-9.988514
-4.625663
-4.505751
-4.511677
-4.503664
-4.751464
-4.631988
-4.498578
-6.373185
-2.754636
-4.648877
-2.903682
-2.239567
-1.989407
-2.556038
-4.358619
-6.708049
-6.572896
-3.691658
-2.566465
-3.591212
-7.009331
2.006990
0.026117
-0.457436
0.284835
0.353637
0.602835
0.520522
0.941308
0.735951
0.607089
1.867188
1.456558
0.603559
1.761733
1.484028
1.644998
1.756109
0.866022
4.145449
3.734224
2.588935
-1.789115
-8.217301
-5.153946
-4.411895
-3.322215
-0.474193
2.721500
1.695037
-1.562220
-1.443832
-2.053686
2.514473
5.172582
5.357712
4.597547
7.668866
8.916988
9.787813
10.425217
9.785739
9.960091
8.317217
7.057412
7.482494
6.355225
6.122078
7.139728
8.125100
9.190366
9.904972
8.912119
8.950509
8.331674
6.874816
7.998818
8.283615
7.580499
7.804711
7.760327
8.151008
8.368263
8.652010
8.459693
8.440132
7.045519
7.369484
6.778694
7.269300
7.972501
8.261626
9.235640
7.718585
9.276235
7.580492
8.846652
-20.098022
-20.169825
-20.215070
-20.316133
-20.426736
-20.524587
-20.618403
-20.707154
-20.789737
-20.865286
-20.929857
-20.985783
-21.034735
-21.074971
-21.097683
-21.110491
-21.117919
-21.118825
-21.113628
-21.097931
-21.083634
-21.071813
-21.052430
-21.035633
-21.012668
-20.996081
-20.964804
-20.925295
-20.874238
-20.815411
-20.750443
-20.677304
-20.596255
-20.514622
-20.442730
-20.375730
-20.320771
-20.273320
-20.234136
-20.187279
-20.132865
-20.066528
-19.958088
-19.786531
-19.606396
-19.399128
-19.081078
-18.655246
-18.174823
-17.708746
-17.276412
-16.672032
-16.011490
-15.352276
-14.608116
-13.855470
-13.120880
-12.511155
-11.931058
-11.317008
-10.788511
-10.339264
-9.900744
-9.532297
-9.308513
11.796866
12.453040
12.983417
13.444988
13.728820
13.896287
14.096138
14.327368
14.557456
14.821997
15.153625
15.525171
15.926600
16.327078
16.630864
16.831311
17.010627
17.240833
17.445284
17.564747
17.576260
17.564315
17.909901
18.033554
18.141002
18.227597
18.301276
18.363653
18.416601
18.468106
18.513966
18.553097
18.602675
18.657401
18.719205
18.793547
18.881041
18.981758
19.090892
19.180765
19.264143
19.343473
19.412143
19.477655
19.547823
19.617158
19.689603
19.765494
19.843930
19.925129
20.007547
20.092026
20.176729
20.263943
20.351236
20.438605
20.525593
20.612912
20.700162
20.786699
20.871087
20.957993
21.039072
21.132510
9.603723
8.978995
9.607669
8.916754
-0.740937
-0.610685
-0.429533
-0.397212
-12.072689
-11.891450
-10.305128
-11.945134
-10.274556
-12.749527
-15.866574
-15.653925
-14.938411
-14.772765
-12.809363
-3.579311
-3.252915
-3.358516
-2.936779
5.643623
5.453773
5.959197
5.164762
-4.265962
-4.273915
-4.188013
3.573583
3.831560
3.633818
3.976308
17.156993
16.226014
18.277167
15.722539
-1.520440
-1.951477
-1.188288
-2.421714
-22.841576
-22.622730
-22.729903
-20.565146
-20.422301
-20.018167
-22.378834
-22.294931
-22.378810
11.461801
13.708230
12.065865
13.125217
-1.007847
-1.177039
-0.674279
-3.171074
-3.935419
-3.003791
18.846095
19.930618
19.978456
1.493139
1.084136
1.029504
-14.226119
-12.375680
-11.148216
19.313941
19.409978
19.046361
1.457301
-22.240613
-22.206997
-22.216699
-3.901117
-3.881092
-3.968798
-3.787377
10.731493
10.656867
10.318796
3.838217
3.284544
2.777128
11.051997
18.852715
19.283850
19.053453
6.036897
5.586697
6.546110
19.481827
19.850377
19.234876
7.309760
6.818509
7.382470
5.245493
5.000640
5.543951
6.824420
-3.104237
-2.743520
-2.919880
6.025705
-11.804595
-11.734762
-12.264401
-2.740286
12.726633
11.979486
12.372465
-4.760679
-4.930117
-4.465642
21.243458
21.255607
21.201681
21.200144
21.158122
21.158470
-0.095842
-0.736468
-0.144035
-0.737871
-3.782863
-3.498464
-3.646852
11.843702
19.028205
-3.299590
-16.692389
-16.312799
-15.291206
-22.314187
-22.166306
-22.406995
9.123349
8.516965
8.981150
-15.359352
18.716399
18.002965
18.125332
18.383403
4.899014
5.011178
5.304395
8.539120
-6.271959
-6.624832
-6.460743
0.946958
0.808145
0.719299
0.459883
17.169026
17.567932
16.557464
5.408522
19.176911
18.051527
18.594450
-23.669298
-24.024241
-23.824649
21.037332
21.060148
21.090784
21.117617
-22.116888
-22.249305
-22.015070
-22.152463
-3.407219
-3.115010
-3.234346
16.623221
-12.168222
-13.554425
-7.992037
-3.261648
-8.467598
-6.737226
-6.773851
-6.124680
17.453816
18.949990
-6.482217
17.493044
-16.260959
-16.802463
-16.513692
-16.492958
-4.315767
-4.321858
-4.518586
9.196233
-6.563331
-1.688372
-10.081166
-9.634568
-9.885670
-9.836160
12.058244
12.320201
11.841863
12.261935
-22.602631
-22.769525
-4.125270
-12.110195
-11.625589
-11.596108
-11.207336
-0.690917
-0.943366
-0.664007
16.572007
17.319955
16.219493
-0.941106
17.462394
-7.344511
-6.301726
-5.970959
21.589934
21.501699
21.347683
-5.485409
-0.549118
-0.552174
-0.867007
21.692871
-0.778569
-8.522471
-9.242667
-8.489726
-0.556653
-0.284654
-0.330608
-9.140237
10.497460
10.924135
10.019583
9.411742
9.073685
9.064161
-4.542232
-4.694514
-4.341764
-1.873235
-1.410246
-1.457085
14.263442
14.652247
14.720838
14.300062
0.296186
-0.147376
-0.180898
8.649331
10.651047
5.239440
5.478824
4.950556
18.582111
19.332488
18.859266
19.622834
20.990754
21.024839
21.122099
21.120667
25.954088
24.806260
24.832624
-11.642487
-11.424753
-9.992645
-14.169481
23.178047
7.109772
7.186837
7.449602
-3.044766
-2.512459
-2.780846
13.605481
12.935612
13.145649
25.371466
27.092190
13.343607
-16.710970
-17.849210
-17.934865
21.728290
21.477800
21.508644
21.263748
0.097029
0.958209
16.092695
16.569310
16.339421
-0.647393
-0.394365
-0.823286
-0.412853
21.184245
-2.585002
20.744962
21.021968
-3.097539
-3.486253
-3.449108
-22.981176
-23.747819
-23.360788
-22.918598
-22.950668
-23.077121
-23.109874
-23.224706
-22.772766
-22.721227
-22.506525
-19.421977
-19.617311
-19.232166
-22.956941
-22.810903
-22.812580
-19.164630
-0.030799
-0.340192
-0.288669
5.852965
5.909898
-19.255265
-19.988868
-19.826846
-19.411757
-16.238888
-16.104676
-16.741044
-16.747994
-10.164711
-10.217651
-10.156375
-10.406365
-17.745776
-16.741250
-17.666372
-22.209795
-17.148032
7.879611
8.005049
8.810257
-1.252157
-1.439145
-0.644470
-1.554151
20.859066
21.109843
20.947276
20.818261
-22.647176
-22.663199
8.434597
8.537762
7.617125
-9.185674
-9.445928
7.914193
20.940494
21.237238
21.117056
21.346983
20.667738
20.740701
20.436033
-9.360915
0.045499
-0.412462
-0.118465
-0.749278
12.757310
11.883420
12.667005
-21.590097
-20.100988
-20.732993
-18.720414
21.754295
21.864440
21.979122
21.676322
-13.904087
-13.982686
-12.942160
-12.683615
-22.159993
-22.454303
10.690068
11.303372
9.656521
9.518097
-3.280834
-2.867639
-2.367168
-2.165976
20.257867
20.616502
21.617687
21.709895
21.478515
6.517171
6.771367
6.338592
17.329567
17.435593
18.508099
-2.565460
-4.384871
-1.359420
10.949741
10.115774
10.938320
10.137383
17.271014
16.007415
16.246899
-0.451702
-0.379253
-12.825334
-12.409028
-12.411802
3.761306
3.830088
3.952867
11.248199
10.759908
-22.375365
-22.565491
-22.734010
-22.821858
-13.271630
-13.894117
-13.105772
18.730486
5.991990
5.547214
5.830596
20.150547
-5.929003
-6.241137
-6.295991
6.540285
6.524378
5.700202
-13.447179
1.864932
1.586304
5.921477
-6.718682
-17.948283
-18.631126
-18.957166
-1.145787
-1.580368
-2.168583
18.321729
18.433031
17.830782
-1.797259
-1.309075
-8.475947
-7.775676
5.145783
5.499610
4.963868
-7.821347
4.672009
4.862667
4.735403
5.113749
-22.401791
-22.309475
-22.296825
-22.248302
-20.084694
-21.231278
-21.280649
-22.107409
-3.646094
-6.126380
-6.552130
19.670780
20.198784
20.221237
-0.995165
-1.556131
-0.753398
-20.613104
-20.047227
-0.234139
20.029596
-19.176890
-19.186905
-20.024668
-18.085107
-17.432959
-17.375505
-16.180567
-16.722907
4.060641
4.238448
3.935106
-2.748202
-2.207803
-2.591651
-2.031499
-8.376306
-7.547560
-7.024527
16.846507
17.640447
17.218708
-3.271733
-2.974990
-13.996802
-13.360734
-13.916791
8.710842
9.919535
9.612498
-13.112770
-3.440316
-7.220831
-7.045875
18.710875
19.185356
19.081437
11.271765
10.893417
11.444551
-5.719722
-6.009968
-5.868975
-22.788124
-23.118032
-23.351573
-21.713323
-22.005799
-21.617764
-23.402230
-23.293085
-23.626098
-2.816718
-2.398293
-2.514608
3.590743
3.845893
-2.542736
-7.678558
-23.583059
-15.039614
-14.914812
-14.488883
3.143994
3.113915
2.836408
3.424346
2.792293
3.081646
2.952649
3.124266
-12.585813
-12.974396
-12.409543
-13.006023
5.644123
6.159493
5.076604
21.320682
21.171239
21.446915
21.076089
-17.170347
-17.510335
-17.529467
-18.081209
-16.209095
-18.161819
-16.972924
-21.221083
-21.940902
-21.897982
16.115084
13.833962
15.204434
14.337291
-12.369878
-11.919238
-11.762640
19.223152
19.470210
19.642399
15.872125
15.968986
16.134982
15.653358
-18.516694
-18.539693
-17.905754
-8.835275
-8.436912
-9.203015
-8.662248
19.050187
19.096261
19.359959
0.724447
0.788338
0.531450
7.870223
7.564518
8.277377
7.847209
8.493245
7.947531
8.447497
-3.554126
-3.392492
-3.304431
-2.357013
-1.989985
-1.946412
-3.638037
-22.719548
-22.930537
-22.502614
-1.463830
-1.761316
-1.282686
0.704580
0.897005
-16.354903
-17.187942
-16.522122
21.025647
21.241741
20.983165
-17.263892
0.873049
13.841020
12.072618
13.287775
-19.643656
-20.142989
-20.424133
-5.325039
-5.569270
-20.962581
-21.007287
-21.386358
18.187909
18.843539
18.666057
-8.237326
-7.597408
-8.457876
-8.086729
-17.795866
-17.277611
-17.983463
-16.965415
1.101628
0.804736
0.747616
1.072222
16.861773
17.141775
17.826457
16.201765
17.977904
18.572833
21.131119
21.395131
21.316774
23.969224
24.506330
24.251274
21.513555
18.937814
19.085631
19.399806
20.604433
20.455305
-16.764543
-16.492497
16.796140
-3.978456
-4.045583
-4.315349
-4.591223
-18.848779
-20.282867
-19.917531
-5.153668
15.523192
16.166764
15.440514
16.007937
-8.020640
-8.425225
-7.645923
-3.055264
-2.373820
-2.371454
8.147931
7.900695
8.123991
7.738422
-7.433475
-4.620973
-7.765372
21.832433
21.746611
21.788791
14.167589
14.340872
11.684712
-2.340273
-16.975268
-14.843691
-15.615343
14.117002
15.020213
15.316230
-15.935128
-3.056744
-19.239754
-21.072966
-18.723485
-21.133076
-1.994110
-2.921458
13.893167
14.689753
-14.341416
-14.653874
3.163232
3.379885
3.430549
3.674476
-4.074159
-4.154263
-4.146940
-2.542598
-2.288393
-2.000481
12.292994
13.873644
12.915661
-2.730634
-10.974199
-13.330586
-10.782955
21.286984
21.519333
21.588099
1.626252
1.505539
1.816222
-4.559249
0.898724
0.706455
-21.403591
-21.726935
-21.335178
15.556517
15.869509
16.834847
21.390709
21.590440
21.507954
21.720045
14.620515
-21.048699
-21.373687
-20.990672
-0.370823
-0.702936
-0.402514
20.787473
21.038007
20.774786
21.086082
20.411652
20.521414
19.888217
-18.303377
-19.835561
-19.422981
6.339580
-23.100670
-23.047673
-22.828208
-22.184627
-15.342808
-15.231375
-12.860558
-22.280096
-22.287080
-22.469374
-12.632857
11.919723
13.047118
-5.782803
-7.070538
-6.033983
-6.243257
-6.710354
-7.561301
-9.469727
-9.830221
-9.879616
-10.403602
-8.119922
5.693341
5.849205
6.344781
-14.072295
-14.431337
-14.826884
-22.162254
-22.095936
-21.276777
-18.299573
-18.144602
-18.386436
-18.165979
18.620976
21.830671
16.902951
18.515198
17.572039
-21.040700
-21.224525
-21.441777
21.764773
-21.794564
-21.601758
-0.844312
-0.982835
14.484464
14.843510
14.739030
18.988684
19.165087
19.433950
15.040583
19.845709
19.670699
-22.843894
-22.936472
-23.009513
-23.058814
-4.906001
-4.558800
-5.231778
3.019292
3.003803
2.500644
4.953130
4.574898
5.707370
0.346540
0.721353
0.702770
0.343123
4.906120
21.097009
21.159665
21.239141
-0.887486
-1.223650
-0.814077
-5.099343
-5.258856
-6.057547
-21.849211
-21.652590
-21.951740
-12.169210
-21.748725
21.223354
1.406905
1.412460
1.738077
4.096942
4.271043
4.171175
-6.031666
-5.703967
-5.245452
-5.078154
-22.281796
-21.722076
8.658140
9.392759
9.218729
16.508305
16.069722
17.220070
16.783907
-22.384004
-22.345034
-22.511965
-22.490951
17.045962
17.118021
17.274042
16.964564
-3.891747
-2.957289
-3.208096
18.760870
18.932576
19.238264
-3.982513
19.768558
19.462107
20.172967
20.724043
-8.875182
-9.378982
-8.974935
-21.167994
-21.368107
-21.645769
-21.927856
-21.719138
-22.124697
-22.266509
-22.535988
-21.894352
6.470954
6.922618
6.714920
19.780767
19.982162
20.185772
-5.490261
-5.858511
-5.446967
19.668824
-5.028909
-4.700256
-5.062584
-14.098836
-16.044340
-15.350054
20.698569
20.587066
-20.640061
-20.643443
-20.416181
-20.139483
4.169706
4.147807
3.986558
-19.792997
6.043986
6.253271
6.683268
1.706659
0.911980
1.266496
-1.508775
-1.658241
-1.175942
-23.106573
-23.173493
-23.054328
0.450197
20.833816
21.067779
20.765960
4.641621
4.631361
4.309658
1.211299
1.084986
0.941022
1.327324
-2.839646
-3.089463
-5.542412
-5.681178
-5.246282
-3.332107
-3.250562
-3.083538
10.535971
11.313030
0.926234
0.759555
0.410113
-3.030823
-5.347581
3.542800
3.730531
-8.706470
-11.063924
-8.239293
-10.940636
-6.375565
-7.097438
-7.524836
-5.893967
-3.737950
-4.226801
-3.919394
0.243941
-0.186032
0.571913
-4.346972
-3.524621
-11.099271
-11.031686
-3.050134
10.693393
10.779642
10.255517
11.337965
2.631161
2.022223
2.140882
2.501467
1.701629
2.468160
1.952203
-8.769967
-9.191523
-9.483948
20.690564
20.685652
17.807193
18.192582
18.631634
18.971410
-9.219349
-8.937381
-16.524323
-16.995912
-17.431714
-19.705327
-19.900795
-9.276926
-8.631148
-8.830965
-8.761075
-3.743584
-3.078872
-4.048844
-4.267431
-4.621274
6.449696
5.986284
6.649102
6.177020
-8.773899
-7.781080
-8.087395
6.655816
5.986843
20.371300
6.293384
-23.509498
-23.431799
-23.641492
20.338058
15.988946
12.860371
15.312009
-23.613615
13.783859
-6.829539
-19.263533
-4.091904
-3.922379
-3.867316
-19.082645
-9.063916
-9.297514
-9.666229
-9.771192
-4.975180
-4.599843
-5.187050
-4.489758
20.966634
20.857034
21.016155
20.887332
-7.624909
-8.255670
-7.975470
-8.170042
18.409479
18.541414
19.348752
19.098840
-20.555225
-20.813028
-21.181945
-21.161187
10.541239
9.698510
9.918446
10.587927
11.168741
10.051833
-11.190006
-11.575767
-0.101483
0.125028
-0.161059
0.207835
8.417852
-9.306411
-9.243799
-9.800612
-8.462667
-3.909351
-3.283827
-3.419679
10.695134
9.591087
-2.724371
-4.065076
-4.346838
-3.715399
-4.141646
1.121218
0.871715
-1.259800
-1.859641
6.232220
5.678474
-2.118363
-12.509604
-11.652809
-8.977550
-6.616395
19.080858
19.910670
19.732452
20.418139
2.612329
3.208426
7.714318
7.535154
8.267530
-21.617449
-21.203184
-21.319780
19.000909
19.110901
19.463574
4.057009
3.884334
19.602411
17.564856
17.390305
17.758934
3.473482
3.566548
3.671713
4.857357
-6.397311
-6.726086
4.844079
5.618591
5.762871
19.835329
19.595037
20.021832
-17.681864
-17.150808
19.514513
-23.416581
-23.538830
-23.401653
21.200534
20.814320
6.518128
6.713876
6.831828
-15.460590
-15.194279
-15.696158
-15.464839
-20.531216
-20.211541
-5.795270
-5.952343
-7.544888
-18.305675
-18.841765
-19.169083
-19.576077
-4.979642
-4.772288
-0.756543
-0.459000
-1.051000
15.140466
14.999190
5.839191
6.491758
5.787980
14.601611
15.387056
15.334292
15.589313
0.666331
0.946156
1.113128
-3.677136
-4.139608
-4.121170
-4.785205
-3.221198
-3.288357
-2.743758
14.192565
14.045729
14.344969
13.948079
24.307330
23.503706
23.898186
-10.281889
-10.669645
-10.808900
-5.129946
-5.745274
-5.348880
-10.251805
-14.738660
-11.867558
-13.297282
-13.582751
1.248000
1.467794
1.558496
-7.820282
-7.339993
-24.768639
-24.544830
-24.674496
13.869077
13.264379
13.936538
-7.468794
15.113645
-9.457801
-9.989371
12.886532
12.915238
13.152159
12.646989
13.365419
13.250712
13.528249
22.982369
22.541682
22.660293
22.264661
21.160973
21.396616
21.370523
-19.741034
-19.241391
-19.499441
21.619866
-18.930454
-19.814954
-20.253633
-8.944110
-9.223875
-9.441105
-6.567325
-5.539535
-5.988368
18.472796
19.051064
18.176575
18.531226
-6.370250
15.604813
15.463775
16.310105
8.519990
7.944467
8.254590
7.602216
-3.109404
-3.469819
-2.958417
-3.571338
-4.380952
-4.264365
-3.936778
2.397959
2.296309
1.834951
1.823308
-12.042814
-12.380471
-12.163752
22.345065
-12.746838
21.974324
-11.764149
-10.228389
-7.174414
-6.373370
3.648078
3.331712
-0.968457
-0.963877
-0.475364
-0.765473
-1.135624
-22.384937
-22.803408
-22.596390
-23.114011
-1.436724
-1.019454
-1.366332
0.844304
0.651127
1.083156
14.510698
14.568638
13.184356
16.064922
-4.400631
-7.309540
-4.377267
-4.721714
-4.352482
-4.573992
-1.040875
-0.804497
-0.183632
-0.231381
-0.490623
-0.457325
4.032719
4.336022
4.688579
0.705768
0.841298
0.464673
3.723732
-3.790241
-3.964128
-3.802983
-3.966473
5.248680
5.138383
12.656916
13.308468
-21.132757
-18.393454
-18.549167
-15.368765
-25.036388
-24.903290
-25.134244
-24.795297
1.078373
15.450145
15.336389
15.058942
14.653983
-24.969965
-24.780032
14.360211
-24.472079
-9.698416
-9.234864
-9.590510
-9.151695
-4.548955
-4.309138
-5.016094
6.958919
2.124597
2.113990
1.755491
-3.832327
-3.609546
11.684499
11.450924
11.220672
-6.088351
-6.488657
15.557157
14.726844
14.597825
23.106567
22.715439
-6.773468
-5.793604
-8.762176
-8.233107
-4.350920
-4.351218
-4.679094
-4.015657
-2.731741
-3.066255
-2.842280
-3.220315
-14.043513
-4.784991
-5.111885
-0.912592
-5.130673
-20.626992
-19.835698
-19.766677
-3.228268
-4.166524
0.070218
0.472659
0.245889
0.683746
10.816252
11.283482
10.368822
11.705122
17.742529
17.666326
17.883804
17.475967
-4.343022
-4.359407
-4.462477
2.410897
2.004993
2.554913
-3.969356
-4.096550
1.935171
-5.326496
-5.187007
-8.007230
-6.805745
-4.874358
-5.489488
-24.578692
-5.332161
26.911540
27.969468
27.227517
22.560144
16.067111
16.045043
16.349239
-19.568872
-18.605432
-19.477736
-1.074983
-1.062494
-1.325786
-1.219491
20.751517
17.779783
18.181378
18.142753
-19.666343
-17.097808
-17.840701
-17.167330
-17.706587
21.205337
21.190504
-18.214842
-18.382983
-18.769549
-3.906196
11.440455
21.084241
21.278698
19.903580
19.383809
19.816668
21.108175
-3.571124
-4.111561
-4.006557
-3.829205
-1.141342
-0.854658
-0.930452
-23.198048
-23.496442
22.933183
22.592596
22.143784
-10.642398
-9.604295
-8.306786
23.456596
23.915604
23.459909
3.733467
3.491770
-7.508122
-0.872832
0.323039
0.410823
0.776849
8.811446
8.619381
9.651691
-0.907049
-1.477478
-1.832720
1.307957
1.330935
1.457872
-1.437710
-1.059707
-0.893524
1.031725
0.525781
1.022579
0.490805
1.280214
1.145850
-5.231217
-4.986989
-4.810314
-4.670952
-9.194945
-10.022003
-9.026592
-10.512574
-8.467120
-10.886615
-9.286572
-9.239543
-6.229319
5.299678
4.884129
5.337352
4.659284
15.612331
24.043160
23.408063
15.871450
20.872207
21.063442
0.007068
0.419103
16.066557
-0.200852
16.122510
11.196618
10.863399
10.874448
20.623175
20.670761
21.291003
20.930414
19.683422
19.077139
21.512027
21.833944
10.306470
19.623433
11.370156
11.703171
3.917397
3.522104
3.875541
-20.025087
-19.279331