# vtk DataFile Version 2.0
Test
ASCII
DATASET POLYDATA
POINTS 6352 float
0.000000 0.000000 0.000000
1.000000 0.000000 0.000000
1.000000 0.800000 0.000000
1.000000 1.000000 0.000000
0.000000 1.000000 0.000000
0.000000 0.200000 0.000000
0.300000 0.330000 0.000000
0.700000 0.680000 0.000000
0.050000 0.000000 0.000000
0.100000 0.000000 0.000000
0.150000 0.000000 0.000000
0.200000 0.000000 0.000000
0.250000 0.000000 0.000000
0.300000 0.000000 0.000000
0.350000 0.000000 0.000000
0.400000 0.000000 0.000000
0.450000 0.000000 0.000000
0.500000 0.000000 0.000000
0.550000 0.000000 0.000000
0.600000 0.000000 0.000000
0.650000 0.000000 0.000000
0.700000 0.000000 0.000000
0.750000 0.000000 0.000000
0.800000 0.000000 0.000000
0.850000 0.000000 0.000000
0.900000 0.000000 0.000000
0.950000 0.000000 0.000000
1.000000 0.048545 0.000000
1.000000 0.094438 0.000000
1.000000 0.137825 0.000000
1.000000 0.178843 0.000000
1.000000 0.217620 0.000000
1.000000 0.254280 0.000000
1.000000 0.288938 0.000000
1.000000 0.321703 0.000000
1.000000 0.352678 0.000000
1.000000 0.381962 0.000000
1.000000 0.409647 0.000000
1.000000 0.435820 0.000000
1.000000 0.460563 0.000000
1.000000 0.483955 0.000000
1.000000 0.506070 0.000000
1.000000 0.526976 0.000000
1.000000 0.546741 0.000000
1.000000 0.565427 0.000000
1.000000 0.583092 0.000000
1.000000 0.599793 0.000000
1.000000 0.615581 0.000000
1.000000 0.630507 0.000000
1.000000 0.644618 0.000000
1.000000 0.657958 0.000000
1.000000 0.670570 0.000000
1.000000 0.682493 0.000000
1.000000 0.693765 0.000000
1.000000 0.704421 0.000000
1.000000 0.714495 0.000000
1.000000 0.724019 0.000000
1.000000 0.733023 0.000000
1.000000 0.741536 0.000000
1.000000 0.749583 0.000000
1.000000 0.757191 0.000000
1.000000 0.764383 0.000000
1.000000 0.771183 0.000000
1.000000 0.777611 0.000000
1.000000 0.783688 0.000000
1.000000 0.789434 0.000000
1.000000 0.794865 0.000000
1.000000 0.805174 0.000000
1.000000 0.811554 0.000000
1.000000 0.819418 0.000000
1.000000 0.829114 0.000000
1.000000 0.841067 0.000000
1.000000 0.855804 0.000000
1.000000 0.873972 0.000000
1.000000 0.896371 0.000000
1.000000 0.923985 0.000000
1.000000 0.958029 0.000000
0.950000 1.000000 0.000000
0.900000 1.000000 0.000000
0.850000 1.000000 0.000000
0.800000 1.000000 0.000000
0.750000 1.000000 0.000000
0.700000 1.000000 0.000000
0.650000 1.000000 0.000000
0.600000 1.000000 0.000000
0.550000 1.000000 0.000000
0.500000 1.000000 0.000000
0.450000 1.000000 0.000000
0.400000 1.000000 0.000000
0.350000 1.000000 0.000000
0.300000 1.000000 0.000000
0.250000 1.000000 0.000000
0.200000 1.000000 0.000000
0.150000 1.000000 0.000000
0.100000 1.000000 0.000000
0.050000 1.000000 0.000000
0.000000 0.951455 0.000000
0.000000 0.905562 0.000000
0.000000 0.862175 0.000000
0.000000 0.821157 0.000000
0.000000 0.782380 0.000000
0.000000 0.745720 0.000000
0.000000 0.711062 0.000000
0.000000 0.678297 0.000000
0.000000 0.647322 0.000000
0.000000 0.618038 0.000000
0.000000 0.590353 0.000000
0.000000 0.564180 0.000000
0.000000 0.539437 0.000000
0.000000 0.516045 0.000000
0.000000 0.493930 0.000000
0.000000 0.473024 0.000000
0.000000 0.453259 0.000000
0.000000 0.434573 0.000000
0.000000 0.416908 0.000000
0.000000 0.400207 0.000000
0.000000 0.384419 0.000000
0.000000 0.369493 0.000000
0.000000 0.355382 0.000000
0.000000 0.342042 0.000000
0.000000 0.329430 0.000000
0.000000 0.317507 0.000000
0.000000 0.306235 0.000000
0.000000 0.295579 0.000000
0.000000 0.285505 0.000000
0.000000 0.275981 0.000000
0.000000 0.266977 0.000000
0.000000 0.258464 0.000000
0.000000 0.250417 0.000000
0.000000 0.242809 0.000000
0.000000 0.235617 0.000000
0.000000 0.228817 0.000000
0.000000 0.222389 0.000000
0.000000 0.216312 0.000000
0.000000 0.210566 0.000000
0.000000 0.205135 0.000000
0.000000 0.194826 0.000000
0.000000 0.188446 0.000000
0.000000 0.180582 0.000000
0.000000 0.170886 0.000000
0.000000 0.158933 0.000000
0.000000 0.144196 0.000000
0.000000 0.126028 0.000000
0.000000 0.103629 0.000000
0.000000 0.076015 0.000000
0.000000 0.041971 0.000000
0.303738 0.333271 0.000000
0.307477 0.336542 0.000000
0.311215 0.339813 0.000000
0.314953 0.343084 0.000000
0.318692 0.346355 0.000000
0.322430 0.349626 0.000000
0.326168 0.352897 0.000000
0.329907 0.356168 0.000000
0.333645 0.359439 0.000000
0.337383 0.362710 0.000000
0.341121 0.365981 0.000000
0.344860 0.369252 0.000000
0.348598 0.372523 0.000000
0.352336 0.375794 0.000000
0.356075 0.379065 0.000000
0.359813 0.382336 0.000000
0.363551 0.385607 0.000000
0.367290 0.388879 0.000000
0.371028 0.392150 0.000000
0.374766 0.395421 0.000000
0.378505 0.398692 0.000000
0.382243 0.401963 0.000000
0.385981 0.405234 0.000000
0.389720 0.408505 0.000000
0.393458 0.411776 0.000000
0.397196 0.415047 0.000000
0.400935 0.418318 0.000000
0.404673 0.421589 0.000000
0.408411 0.424860 0.000000
0.412150 0.428131 0.000000
0.415888 0.431402 0.000000
0.419626 0.434673 0.000000
0.423364 0.437944 0.000000
0.427103 0.441215 0.000000
0.430841 0.444486 0.000000
0.434579 0.447757 0.000000
0.438318 0.451028 0.000000
0.442056 0.454299 0.000000
0.445794 0.457570 0.000000
0.449533 0.460841 0.000000
0.453271 0.464112 0.000000
0.457009 0.467383 0.000000
0.460748 0.470654 0.000000
0.464486 0.473925 0.000000
0.468224 0.477196 0.000000
0.471963 0.480467 0.000000
0.475701 0.483738 0.000000
0.479439 0.487009 0.000000
0.483178 0.490280 0.000000
0.486916 0.493551 0.000000
0.490654 0.496822 0.000000
0.494393 0.500093 0.000000
0.498131 0.503364 0.000000
0.501869 0.506636 0.000000
0.505607 0.509907 0.000000
0.509346 0.513178 0.000000
0.513084 0.516449 0.000000
0.516822 0.519720 0.000000
0.520561 0.522991 0.000000
0.524299 0.526262 0.000000
0.528037 0.529533 0.000000
0.531776 0.532804 0.000000
0.535514 0.536075 0.000000
0.539252 0.539346 0.000000
0.542991 0.542617 0.000000
0.546729 0.545888 0.000000
0.550467 0.549159 0.000000
0.554206 0.552430 0.000000
0.557944 0.555701 0.000000
0.561682 0.558972 0.000000
0.565421 0.562243 0.000000
0.569159 0.565514 0.000000
0.572897 0.568785 0.000000
0.576636 0.572056 0.000000
0.580374 0.575327 0.000000
0.584112 0.578598 0.000000
0.587850 0.581869 0.000000
0.591589 0.585140 0.000000
0.595327 0.588411 0.000000
0.599065 0.591682 0.000000
0.602804 0.594953 0.000000
0.606542 0.598224 0.000000
0.610280 0.601495 0.000000
0.614019 0.604766 0.000000
0.617757 0.608037 0.000000
0.621495 0.611308 0.000000
0.625234 0.614579 0.000000
0.628972 0.617850 0.000000
0.632710 0.621121 0.000000
0.636449 0.624393 0.000000
0.640187 0.627664 0.000000
0.643925 0.630935 0.000000
0.647664 0.634206 0.000000
0.651402 0.637477 0.000000
0.655140 0.640748 0.000000
0.658879 0.644019 0.000000
0.662617 0.647290 0.000000
0.666355 0.650561 0.000000
0.670093 0.653832 0.000000
0.673832 0.657103 0.000000
0.677570 0.660374 0.000000
0.681308 0.663645 0.000000
0.685047 0.666916 0.000000
0.688785 0.670187 0.000000
0.692523 0.673458 0.000000
0.696262 0.676729 0.000000
0.004545 0.201970 0.000000
0.009091 0.203939 0.000000
0.013636 0.205909 0.000000
0.018182 0.207879 0.000000
0.022727 0.209848 0.000000
0.027273 0.211818 0.000000
0.031818 0.213788 0.000000
0.036364 0.215758 0.000000
0.040909 0.217727 0.000000
0.045455 0.219697 0.000000
0.050000 0.221667 0.000000
0.054545 0.223636 0.000000
0.059091 0.225606 0.000000
0.063636 0.227576 0.000000
0.068182 0.229545 0.000000
0.072727 0.231515 0.000000
0.077273 0.233485 0.000000
0.081818 0.235455 0.000000
0.086364 0.237424 0.000000
0.090909 0.239394 0.000000
0.095455 0.241364 0.000000
0.100000 0.243333 0.000000
0.104545 0.245303 0.000000
0.109091 0.247273 0.000000
0.113636 0.249242 0.000000
0.118182 0.251212 0.000000
0.122727 0.253182 0.000000
0.127273 0.255152 0.000000
0.131818 0.257121 0.000000
0.136364 0.259091 0.000000
0.140909 0.261061 0.000000
0.145455 0.263030 0.000000
0.150000 0.265000 0.000000
0.154545 0.266970 0.000000
0.159091 0.268939 0.000000
0.163636 0.270909 0.000000
0.168182 0.272879 0.000000
0.172727 0.274848 0.000000
0.177273 0.276818 0.000000
0.181818 0.278788 0.000000
0.186364 0.280758 0.000000
0.190909 0.282727 0.000000
0.195455 0.284697 0.000000
0.200000 0.286667 0.000000
0.204545 0.288636 0.000000
0.209091 0.290606 0.000000
0.213636 0.292576 0.000000
0.218182 0.294545 0.000000
0.222727 0.296515 0.000000
0.227273 0.298485 0.000000
0.231818 0.300455 0.000000
0.236364 0.302424 0.000000
0.240909 0.304394 0.000000
0.245455 0.306364 0.000000
0.250000 0.308333 0.000000
0.254545 0.310303 0.000000
0.259091 0.312273 0.000000
0.263636 0.314242 0.000000
0.268182 0.316212 0.000000
0.272727 0.318182 0.000000
0.277273 0.320152 0.000000
0.281818 0.322121 0.000000
0.286364 0.324091 0.000000
0.290909 0.326061 0.000000
0.295455 0.328030 0.000000
0.704615 0.681846 0.000000
0.709231 0.683692 0.000000
0.713846 0.685538 0.000000
0.718462 0.687385 0.000000
0.723077 0.689231 0.000000
0.727692 0.691077 0.000000
0.732308 0.692923 0.000000
0.736923 0.694769 0.000000
0.741538 0.696615 0.000000
0.746154 0.698462 0.000000
0.750769 0.700308 0.000000
0.755385 0.702154 0.000000
0.760000 0.704000 0.000000
0.764615 0.705846 0.000000
0.769231 0.707692 0.000000
0.773846 0.709538 0.000000
0.778462 0.711385 0.000000
0.783077 0.713231 0.000000
0.787692 0.715077 0.000000
0.792308 0.716923 0.000000
0.796923 0.718769 0.000000
0.801538 0.720615 0.000000
0.806154 0.722462 0.000000
0.810769 0.724308 0.000000
0.815385 0.726154 0.000000
0.820000 0.728000 0.000000
0.824615 0.729846 0.000000
0.829231 0.731692 0.000000
0.833846 0.733538 0.000000
0.838462 0.735385 0.000000
0.843077 0.737231 0.000000
0.847692 0.739077 0.000000
0.852308 0.740923 0.000000
0.856923 0.742769 0.000000
0.861538 0.744615 0.000000
0.866154 0.746462 0.000000
0.870769 0.748308 0.000000
0.875385 0.750154 0.000000
0.880000 0.752000 0.000000
0.884615 0.753846 0.000000
0.889231 0.755692 0.000000
0.893846 0.757538 0.000000
0.898462 0.759385 0.000000
0.903077 0.761231 0.000000
0.907692 0.763077 0.000000
0.912308 0.764923 0.000000
0.916923 0.766769 0.000000
0.921538 0.768615 0.000000
0.926154 0.770462 0.000000
0.930769 0.772308 0.000000
[...]
POINT_DATA 6352
SCALARS UX float 1
LOOKUP_TABLE default
-0.000014
0.000016
8.339731
-13.648318
-37.010288
-29.762836
-10.703761
-13.868941
0.000001
-0.000002
-0.000001
-0.000001
-0.000001
-0.000001
-0.000001
-0.000000
-0.000000
-0.000000
-0.000000
0.000000
0.000000
0.000000
0.000001
0.000001
0.000001
0.000003
-0.000003
2.662858
4.201180
5.351764
6.222546
6.931300
7.535564
8.075985
8.589805
9.080080
9.584486
10.096371
10.592491
11.051593
11.455934
11.787100
12.037720
12.211302
12.312273
12.355199
12.346111
12.303438
12.235624
12.147207
12.045242
11.932431
11.810093
11.668313
11.505240
11.321285
11.123179
10.908982
10.673053
10.424244
10.160800
9.897928
9.624734
9.354052
9.086801
8.819752
8.557774
8.096504
7.780285
7.434938
6.956936
6.363795
5.503296
3.680589
-0.746331
-6.168616
-11.356640
-16.245779
-18.093964
-19.506549
-20.352236
-20.278053
-20.768037
-21.611224
-22.531225
-23.469028
-24.433498
-25.441485
-26.493336
-27.684400
-28.901537
-30.141361
-31.461371
-32.837257
-34.238645
-35.637730
-36.706557
-36.396399
-36.074209
-35.770419
-35.496438
-35.241006
-35.001180
-34.779424
-34.573080
-34.383344
-34.199607
-34.014003
-33.830054
-33.639287
-33.442987
-33.247331
-33.041544
-32.838243
-32.634344
-32.424968
-32.218188
-32.016993
-31.820138
-31.633218
-31.457037
-31.299150
-31.161614
-31.046871
-30.948958
-30.864100
-30.785214
-30.705327
-30.620794
-30.533229
-30.442304
-30.347065
-30.242963
-30.126378
-30.005856
-29.877321
-29.658642
-29.539329
-29.518981
-29.417279
-29.169774
-27.989292
-25.511795
-19.761838
-13.042089
-5.316840
-10.980057
-10.988743
-11.223141
-11.309147
-11.430315
-11.741942
-11.692569
-11.796531
-11.800700
-12.094843
-12.097618
-12.265847
-12.398001
-12.318694
-12.329144
-12.434458
-12.390793
-12.518152
-12.535675
-12.451940
-12.839160
-12.785328
-12.546151
-12.533942
-12.535499
-12.426918
-12.408856
-12.268350
-12.065966
-12.247819
-12.362486
-12.542883
-12.387046
-12.508079
-12.719443
-12.689150
-12.933778
-13.544301
-13.453070
-13.493567
-13.317492
-13.453085
-13.502875
-13.587957
-13.374539
-13.372360
-13.588952
-13.647744
-13.621939
-13.699911
-13.720637
-13.741499
-13.737560
-13.675726
-13.553330
-13.566941
-13.652006
-13.656546
-13.376985
-13.611363
-13.562143
-13.570795
-13.633430
-13.850438
-13.764634
-13.829974
-14.030108
-13.883703
-13.839168
-14.205297
-14.189941
-14.137796
-14.015449
-14.557258
-14.771470
-14.969176
-14.910703
-14.946734
-15.225462
-14.928561
-15.628159
-15.796690
-15.744258
-15.674256
-15.695408
-16.080067
-16.154180
-15.961259
-15.704203
-15.788277
-15.712142
-15.839782
-15.838346
-16.119743
-16.239659
-16.164351
-15.946424
-16.037691
-15.837496
-15.519169
-15.268493
-14.939973
-14.595301
-14.437234
-14.274354
-14.090268
-29.712549
-29.674575
-29.627442
-29.560245
-29.469810
-29.373612
-29.298926
-29.179877
-29.049976
-28.913148
-28.769944
-28.619998
-28.463200
-28.299636
-28.107393
-27.938807
-27.802058
-27.680923
-27.568470
-27.451412
-27.325324
-27.189935
-27.041310
-26.926421
-26.819722
-26.700257
-26.591954
-26.497177
-26.407071
-26.325008
-26.259097
-26.174414
-26.062486
-25.916560
-25.799237
-25.742065
-25.619750
-25.399306
-25.112546
-24.925281
-24.900117
-24.883771
-24.739521
-24.531280
-24.302189
-24.059287
-23.791949
-23.512867
-23.483113
-22.558641
-21.693196
-21.052802
-20.396379
-19.594542
-19.072482
-18.455429
-17.792144
-16.958299
-16.155555
-15.408170
-14.643988
-13.887861
-13.190753
-12.521916
-11.793060
-12.592045
-11.348484
-10.296388
-9.515295
-8.746862
-7.927938
-7.230686
-6.710991
-6.268783
-5.909869
-5.562023
-5.275132
-5.018947
-4.792783
-4.546157
-4.232800
-3.893005
-3.537778
-3.076476
-2.615690
-2.227635
-1.682647
-1.087032
-0.529098
0.034388
0.692419
1.362208
1.991511
2.589853
3.170448
3.692596
4.180371
4.668759
5.083574
5.447420
5.772095
6.065382
6.350673
6.608846
6.806165
6.990495
7.166201
7.310619
7.426780
7.545512
7.635125
7.707412
7.775077
7.834706
7.887855
7.933078
7.974804
8.013333
8.051932
8.090112
8.121197
8.148025
8.173714
8.198506
8.218030
8.235033
8.254397
8.276568
8.304250
2.739265
2.859633
3.088747
2.584397
0.556528
0.435018
0.580788
0.330362
-16.356874
-17.075333
-12.762225
-14.027256
-9.570983
-15.173774
-29.389222
-29.068181
-29.347238
-29.093084
-14.814503
-1.701810
-1.448226
-1.403469
-1.126050
-19.249835
-19.275634
-18.714807
-19.773324
-2.901336
-2.857559
-2.560339
-22.170687
-21.778171
-22.204099
-21.666783
7.668958
7.365872
8.002412
7.206788
-1.020023
-1.442334
-0.955982
-1.573092
-28.350156
-28.189635
-28.532279
-28.763518
-28.874407
-28.625538
-27.022404
-26.860451
-27.042845
5.957341
6.545201
6.113244
6.470501
-1.623201
-1.438618
-1.444929
-8.412635
-8.839625
-5.982065
7.885359
8.442364
8.421420
-23.902685
-24.276676
-24.151075
-18.918623
-16.361462
-15.390813
6.406913
6.652898
6.023536
-24.137228
-26.272622
-26.402997
-26.139969
-2.029197
-2.405103
-2.330004
-2.234332
0.115428
-0.157610
-0.022331
-18.032185
-18.552066
-19.662728
-0.145377
-0.173306
0.038510
-0.424161
-17.848609
-18.628063
-17.566776
-0.114011
-0.073712
-0.607238
0.407964
0.480565
0.595257
-19.523943
-20.007663
-19.413612
0.295021
-0.711981
-0.446105
-0.666718
-18.347560
-26.743626
-26.932710
-26.756809
-0.423891
2.110389
2.076617
2.290173
-3.645338
-3.762811
-3.194428
6.318027
6.201286
5.971486
5.734858
5.615524
5.298468
-27.880403
-28.568259
-27.708332
-28.269491
-1.728973
-1.426406
-1.492581
2.353359
5.818300
-1.138717
-31.000965
-30.567986
-30.919509
-25.458998
-25.771922
-25.477731
-6.984102
-4.288243
-4.051029
-30.424439
1.237652
1.113040
1.601267
0.813406
-19.279151
-18.367159
-18.226321
-2.579124
-25.984196
-25.933774
-25.833431
-2.910337
-3.063253
-2.760875
-2.926976
5.304126
4.989588
4.954809
-16.942293
-2.521932
-3.413640
-3.120395
-30.220841
-30.147634
-29.899742
5.049164
5.493676
4.988709
5.202799
-26.017616
-25.799117
-26.008252
-25.763445
-3.992734
-3.669390
-3.891233
4.618998
-19.785452
-20.929864
-17.150925
-3.650088
-17.448089
-19.619469
-21.844630
-17.981633
7.710203
8.235976
-21.864214
7.662279
-25.420945
-25.259679
-25.143028
-25.492409
-2.859083
-2.872815
-3.288817
-8.283951
-26.042732
-17.904224
-25.705702
-25.776247
-25.898984
-25.600771
0.671055
0.413356
0.410581
0.118476
-25.563682
-25.587105
-2.444161
-25.928120
-25.992906
-26.175690
-26.142517
-3.171700
-2.977782
-2.969826
5.796897
5.768401
5.388831
-3.214073
6.184248
-8.215196
-6.985924
-6.598603
7.072422
7.011835
6.501698
-5.845966
-24.246369
-24.392499
-24.398929
7.415353
-24.554113
-27.297104
-27.177350
-27.143717
-24.102062
-24.081232
-23.937314
-26.968293
2.776207
2.577663
2.457003
-1.100944
-1.171813
-0.886294
-3.319314
-3.636744
-2.979849
-25.116722
-24.953577
-25.165410
1.150454
1.075428
0.947586
1.360314
-1.710327
-1.836259
-1.602921
-1.014454
2.287764
-0.399346
-0.534428
-0.549999
-2.543440
-1.561404
-2.126670
-0.941481
4.384937
4.703845
4.003917
4.458049
10.523042
10.308228
10.023444
-14.413225
-12.840637
-10.688178
-18.343917
9.675135
-2.532339
-1.980997
-2.625010
-24.705111
-24.600682
-24.845041
2.308794
2.337744
2.609927
10.130147
10.624178
2.094330
-32.177753
-32.565696
-31.918037
10.059740
9.851651
9.876038
9.661722
-19.134442
-17.857859
0.559608
0.640943
0.169869
-25.449472
-25.492267
-25.726714
-25.676475
6.742660
-24.322400
6.530213
6.279804
-25.567469
-25.730029
-25.611190
-24.553338
-24.102302
-24.468804
-24.322579
-27.803157
-27.958725
-27.995223
-28.168511
-27.639412
-27.568061
-27.400065
-24.822692
-24.135824
-24.555590
-28.039266
-27.782724
-27.977400
-24.046042
-3.103294
-3.469771
-3.164703
-0.363144
-0.544372
-27.148589
-26.963598
-26.882803
-27.258936
-26.036157
-26.228368
-25.978343
-26.194354
-24.729050
-25.097989
-24.853098
-25.235215
-28.843537
-29.054484
-29.204821
-26.736608
-28.738486
-18.648956
-18.439165
-17.438252
-21.565242
-22.218467
-19.802416
-23.159452
5.953723
6.341796
5.947763
6.465578
-27.503564
-27.703015
4.689707
4.517820
4.199202
-25.817869
-25.675874
4.096583
8.343023
8.585467
8.677578
8.910567
8.014339
7.934288
7.615864
-25.922056
0.177536
0.047535
0.402199
0.095213
5.371986
5.229703
5.658787
-23.203074
-21.573510
-22.563623
-20.931708
9.666547
9.676042
9.875119
9.447450
-33.942280
-33.460503
-33.513491
-33.070084
-27.112049
-27.325652
-12.078179
-11.428152
-13.586406
-13.729711
-29.254570
-28.707581
-28.699441
-28.251715
7.193288
7.661415
7.069556
7.397365
6.772547
-19.750186
-19.860105
-20.262888
6.934551
7.249161
7.478491
-7.211589
-7.503569
-5.202855
5.064462
4.911853
5.340002
4.667803
6.565837
6.353444
6.043792
-0.598157
-0.417969
-26.673690
-26.873131
-26.606146
-21.729586
-21.721366
-21.395846
2.842163
3.038144
-25.342364
-25.285762
-24.928807
-25.037122
-25.367572
-25.260631
-24.986944
7.949048
-20.042180
-20.206507
-19.707115
8.428174
-26.741639
-26.802428
-26.670518
-16.832770
-17.053864
-18.241809
-25.589029
-7.104481
-8.488409
-18.088088
-26.718103
-22.458236
-23.474520
-23.358155
-0.666119
-0.755976
-1.183234
4.616407
5.071106
3.479598
-25.386992
-25.332573
-26.991180
-27.099524
-20.548662
-20.410436
-21.005018
-27.309025
-21.143686
-20.625361
-20.517462
-20.168863
-25.148558
-25.024242
-24.787559
-25.374920
-23.551305
-24.059035
-24.333812
-24.742433
-23.254829
-23.837010
-24.345426
-1.218777
-0.858050
-0.536210
-0.065707
-0.309803
-0.134840
-26.830310
-27.119196
-22.353404
-0.418538
-26.765189
-26.508112
-27.156027
-25.662932
-33.396048
-32.931891
-32.923545
-32.588016
-21.354355
-21.243594
-21.646245
-27.391529
-27.214108
-27.528602
-27.305486
-30.774367
-30.295839
-30.635098
-2.932889
-1.084838
-1.736578
-27.545341
-27.295326
-26.348391
-26.537354
-26.588015
-14.446385
-12.517573
-12.832341
-26.749040
-27.367390
-24.808038
-24.470772
5.992538
6.944188
6.706127
-7.946397
-9.237022
-3.865492
-26.090572
-26.065744
-25.976849
-23.186186
-23.793882
-23.784552
-26.801818
-27.046443
-26.781206
-23.259790
-24.216776
-23.635798
-1.341441
-1.327275
-1.559870
-22.134620
-21.794398
-1.081936
-25.034157
-24.002845
-27.062072
-26.952147
-27.132880
-21.941510
-22.206661
-22.151988
-21.973071
-20.871047
-20.478762
-21.102845
-19.712665
-27.506086
-27.326160
-27.334646
-27.141781
-18.650722
-16.805043
-19.542148
6.354424
5.953568
6.656603
5.968996
-24.688690
-24.907211
-24.622641
-24.620980
-22.456337
-24.421577
-25.006107
-24.517223
-24.826252
-24.977026
7.529062
7.017754
7.357678
6.971671
-27.180215
-27.306323
-27.517323
6.614547
7.127589
7.301565
-0.353526
-0.136843
-0.556097
0.323952
-28.975646
-28.661468
-28.503939
-27.414917
-27.604602
-27.564617
-27.773562
6.506270
6.669170
7.108796
-23.140921
-23.314007
-23.386520
2.267283
2.404523
2.583048
2.805792
2.306336
2.070352
1.933788
-2.920225
-2.749110
-3.006986
-2.066624
-1.983564
-2.221117
-2.704965
-28.970904
-29.146360
-29.025169
-2.329917
-2.455872
-2.553199
-22.922500
-22.870557
-27.077779
-26.871650
-26.842108
9.231637
9.420405
9.112755
-26.589443
-22.644845
-4.849335
-7.969649
-5.764362
-27.403154
-27.458794
-27.945695
-26.111073
-26.202624
-26.217937
-26.217495
-26.528173
4.860093
6.282005
5.947471
-28.385953
-28.608496
-28.640834
-28.775481
-25.097077
-25.192587
-24.748341
-25.421945
-23.613828
-23.804489
-23.660373
-23.798331
1.540550
2.091009
3.909631
-0.193212
4.118621
5.616142
8.053045
8.281168
8.447511
11.232081
11.462303
11.393417
8.716679
4.739080
4.799477
5.746235
0.198640
0.451430
-22.285768
-21.856902
-3.252308
-4.607464
-4.775032
-5.065110
-5.542127
-25.881779
-26.691325
-26.687430
-26.228518
3.479850
3.344314
3.213018
2.993264
-29.261397
-29.058370
-28.939109
-4.621145
-3.955324
-4.251781
-2.515110
-2.543690
-1.794281
-5.122680
-23.599167
-21.504343
-23.265260
8.045549
7.704338
7.582245
-6.832327
-6.781009
-9.462582
-19.168593
-23.025634
-20.989059
-21.789989
5.364953
5.796531
5.571253
-21.986626
-1.056803
-21.184154
-22.327312
-20.973324
-22.380887
-3.768496
-4.258934
5.629259
6.027722
-30.591835
-30.215946
-21.227187
-20.660842
-21.114868
-20.326643
-2.462227
-2.798468
-2.590225
-2.564054
-2.341414
-2.635463
-8.396937
-5.712520
-8.145811
-2.327568
-14.906350
-18.092216
-14.322476
9.578770
9.726070
9.858804
-3.916006
-3.118885
-3.341117
-23.575013
-21.854845
-22.319472
-24.186649
-23.913023
-23.603180
-3.503747
-3.682468
-1.479724
7.718939
7.928369
8.115639
8.379807
-5.476137
-24.439345
-24.660208
-24.951799
-24.469560
-24.681292
-24.693878
-0.987104
-0.085132
-0.142192
1.439272
-1.016099
-1.375562
-1.629162
-24.396795
-25.563731
-25.177120
-0.489927
-29.691293
-29.303432
-29.522005
-26.579904
-20.392393
-20.476177
-17.642292
-25.892814
-25.625195
-25.837866
-17.263550
4.899327
5.165287
-6.426404
-7.927094
-7.101725
-5.393668
-6.267312
-7.126112
-23.631275
-24.380786
-24.277666
-24.914304
-8.407627
0.751048
1.025796
0.845157
-28.684446
-28.855558
-28.635475
-24.151005
-24.443181
-23.809296
-24.650792
-24.905685
-24.846891
-25.122478
5.711975
10.007616
7.631692
8.144179
7.739772
-26.086857
-26.098526
-26.381382
9.891923
-26.648040
-26.580718
-0.998339
-0.804929
0.231263
0.197365
-0.346907
3.790406
3.879237
4.995782
-0.333289
6.086045
5.882463
-27.664783
-27.813464
-27.882815
-28.007572
-24.864274
-24.935202
-25.131993
-3.242126
-3.955477
-4.234265
2.568672
2.660419
3.198020
-24.629874
-24.389602
-24.585571
-24.418714
3.032985
2.518009
2.570047
1.215643
-2.091514
-1.939916
-1.847974
-5.390430
-5.935506
-7.039621
-25.835850
-26.095155
-25.839127
-16.551666
-26.116527
1.829962
-23.591750
-23.396089
-23.381094
-21.103337
-20.796098
-20.859084
-6.489749
-5.767975
-5.022148
-4.558895
-25.609366
-25.803053
4.329770
4.747730
4.419847
-9.631456
-9.400695
-4.872641
-5.164498
-27.133442
-27.277188
-27.405583
-27.615275
-2.273437
-1.252196
-1.259032
-1.718339
-31.497395
-30.653381
-31.214598
2.141186
2.488087
3.627697
-31.219288
5.412214
4.495730
0.177315
2.362836
-26.189826
-26.057721
-26.045032
-25.325069
-25.337004
-25.627527
-25.886117
-25.821509
-27.200407
-27.265587
-27.482149
-27.008504
-0.832517
-0.842708
-1.001136
7.312249
7.359184
7.754389
-26.971128
-26.865087
-26.814848
6.922656
-26.878638
-26.959287
-27.023910
-23.487324
-24.374169
-23.543509
8.431663
8.352501
-24.302632
-24.840462
-23.464774
-24.089325
-20.885653
-21.033382
-21.258083
-23.528281
-0.789393
-0.658061
-0.721430
2.084996
1.662830
1.902161
-1.334082
-1.111777
-1.265402
-28.306907
-28.224841
-28.089386
1.455679
9.222606
9.470482
9.160259
-18.859731
-19.521932
-19.982843
-21.611840
-22.298348
-22.255247
-21.867962
-1.081696
-1.200298
-26.679717
-26.546652
-26.610038
-3.425182
-3.192020
-3.407057
1.987023
2.110911
-24.724843
-25.003846
-25.050807
-3.132196
-26.464407
-21.376446
-21.036932
-23.879530
-24.600719
-24.068343
-24.621686
-31.427496
-32.021661
-31.772027
-31.711926
-27.663338
-27.733778
-27.544006
-1.479087
-1.245439
-1.252032
-27.560005
-27.821811
-26.916654
-27.159125
-27.641792
0.885965
0.609657
0.758510
0.695115
2.018329
1.674118
1.891262
1.762407
1.761582
2.180473
1.976987
-28.885700
-29.130502
-28.878497
7.908982
7.978867
-3.170505
-2.732729
-2.090427
-1.644731
-28.682886
-28.496836
-25.663882
-25.600750
-25.403939
-29.494142
-29.474624
-26.675437
-26.759612
-26.850755
-26.635485
-28.103185
-27.883117
-28.405355
-28.211061
-28.568219
2.054400
2.043851
2.336532
2.396176
-31.381077
-31.095058
-31.550614
1.862108
1.783000
7.598232
1.588200
-29.210037
-29.395789
-29.395726
7.482163
-6.573266
-10.736154
-9.393029
-29.627004
-10.226849
-31.137973
-29.274905
-4.315034
-3.922278
-4.180167
-29.349334
-26.315962
-26.396832
-26.254574
-26.385131
-27.148218
-27.235708
-27.405188
-27.392119
6.045909
5.727531
6.080166
5.644101
-26.688133
-26.621322
-26.534715
-26.741632
-2.802748
-2.744024
-1.839818
-2.197445
-24.700154
-24.938717
-29.240263
-29.087558
1.649437
1.706593
2.113710
1.161113
1.027135
1.040613
-26.022244
-25.864409
-25.635755
-25.608688
-25.881429
-25.711610
2.859942
-22.944818
-23.689591
-24.085273
-22.108506
-4.600666
-4.196087
-4.527347
-10.801215
-13.206218
-3.950540
-26.468725
-26.343197
-26.334889
-26.212134
-23.191713
-23.443213
-0.343739
-0.568983
0.566616
0.502432
-0.585899
-24.219178
-22.826698
-23.600075
-21.324729
-2.349981
-1.861155
-2.194536
-1.639848
2.351898
2.607527
3.489080
3.745368
4.008551
-25.954787
-25.578786
-25.602360
5.923609
6.239011
6.758330
3.053030
2.857378
7.076573
-5.101617
-8.065113
-3.961444
-22.284830
-22.144301
-22.052955
3.411497
-26.535953
-26.586665
3.306740
3.752205
3.720050
2.124794
0.992446
2.236558
-28.278336
-28.519411
0.422321
-28.425572
-28.577117
-28.448182
6.173102
5.637118
-2.528879
-3.861631
-1.835896
-24.506558
-24.564858
-24.831942
-24.892030
-25.301343
-25.143900
-6.220012
-5.521709
-8.690339
-27.799061
-27.796330
-28.285121
-28.221546
-26.510921
-26.622179
0.441143
0.476268
0.134772
0.030731
0.469584
2.843827
2.811470
2.481089
0.638401
-0.033976
-0.378968
-0.555414
-22.411749
-21.520677
-21.412455
-28.660254
-28.943381
-28.656528
-29.023844
-28.403962
-28.685972
-28.327899
-2.017974
-1.127058
-0.993962
-1.623837
10.978083
10.665613
10.748389
-25.944808
-25.957357
-25.815833
-4.183770
-4.918902
-4.277821
-26.098652
-19.376337
-16.328194
-17.972621
-18.336634
-22.460095
-21.909717
-22.132308
-22.159293
-23.809390
-29.932720
-29.801609
-29.773586
4.324638
4.360911
4.715586
-23.264316
6.980964
-24.341919
-24.424498
-1.948014
-1.293087
-1.600796
-1.376689
-1.602553
-3.375167
-2.719654
10.859134
10.571804
10.682446
10.414889
9.154796
9.442036
9.311890
-25.392092
-25.575483
-25.714957
9.632165
-25.850211
-24.975079
-24.676062
-22.750000
-21.970234
-23.748015
-7.429585
-5.617552
-6.421119
6.450783
6.405680
6.125892
5.834424
-7.060626
-8.494905
-8.428852
-4.341175
-0.392060
-0.347554
-0.204676
-0.171572
-25.915988
-25.857303
-25.773960
-26.000648
-27.054219
-26.874691
-26.951454
1.042739
0.777752
0.831341
0.513084
-24.992998
-25.320665
-25.011295
10.506941
-25.297161
10.230867
-25.010523
-24.500750
-19.495315
-19.124933
-21.957713
-22.245447
-26.253069
-25.983047
-25.929377
-1.203100
-1.042043
-29.289997
-29.403434
-29.484881
-29.604621
-0.875662
-0.808761
-0.580750
-1.803305
-1.619261
-1.633069
-6.746720
-6.128976
-8.494768
-4.055998
-17.788508
-20.338720
-4.778957
-5.096824
-4.536836
-4.683632
-2.775200
-2.708902
-2.662762
-2.864598
-2.660019
-2.895548
0.548569
0.827807
0.746176
-3.915172
-5.592353
-5.463261
0.750933
-3.533284
-3.375381
-3.171857
-3.044344
0.887432
0.602213
-7.652701
-5.602403
-22.270503
-20.946334
-20.906901
-19.192989
-30.095898
-30.045174
-30.352818
-29.849657
-4.488792
0.554534
0.340174
0.762171
0.849630
-30.038732
-29.821233
1.004468
-29.555844
-24.755570
-25.002540
-25.174189
-25.322126
-26.770901
-26.609253
-26.735672
2.203991
-22.884202
-23.116154
-23.156624
-26.579561
-26.472012
-0.113397
-0.209794
0.009513
-26.474021
-26.403466
4.684493
4.236147
4.555526
10.946782
10.728094
-26.458943
-26.408555
-32.100069
-32.303515
-24.898271
-24.979551
-25.112367
-24.668901
-3.022396
-2.868215
-2.686867
-2.588961
-20.747003
-25.274476
-25.196181
-2.470306
-25.388637
-24.651325
-24.264409
-24.198452
-4.075188
-4.909917
-24.005226
-23.900916
-24.120433
-24.009596
0.358458
0.405165
0.535002
0.183652
-1.377673
-0.766453
-0.695544
-1.982800
-3.328086
-3.228131
-3.675838
-0.392406
-0.276270
-0.183936
-2.679191
-2.931471
-0.456412
-25.261060
-25.091663
-32.634121
-32.339663
-24.940518
-25.394870
-29.622576
-25.555625
11.202926
11.520436
11.440876
10.641615
-3.989089
-2.821669
-2.508446
-28.893011
-28.370398
-28.610570
-24.153772
-24.305841
-24.286301
-24.460427
7.916732
2.029474
2.998766
3.228351
-29.548514
-28.036432
-27.799153
-27.800148
-28.060035
-0.167045
1.479572
-28.066283
-28.208012
-27.932336
-5.355547
-12.248995
-0.900705
-0.485602
7.280960
6.523071
7.243006
-0.957682
-25.143255
-25.234397
-25.052495
-25.323569
-23.714811
-23.666925
-23.959466
-29.403480
-29.664806
10.789053
10.539742
10.273238
-13.807333
-11.642573
-9.023275
10.727336
10.965768
10.792594
-21.684988
-21.669430
-7.476598
-23.301842
-26.935470
-26.607167
-26.220613
-16.785878
-17.425384
-16.048496
-1.236197
-1.640088
-2.909987
-3.717347
-3.309426
-3.693214
-24.785012
-24.756409
-24.931974
-2.405385
-2.312578
-2.177359
-2.100577
-4.563136