# vtk DataFile Version 2.0
Test
ASCII
DATASET POLYDATA
POINTS 6352 float
0.000000 0.000000 0.000000
1.000000 0.000000 0.000000
1.000000 0.800000 0.000000
1.000000 1.000000 0.000000
0.000000 1.000000 0.000000
0.000000 0.200000 0.000000
0.300000 0.330000 0.000000
0.700000 0.680000 0.000000
0.050000 0.000000 0.000000
0.100000 0.000000 0.000000
0.150000 0.000000 0.000000
0.200000 0.000000 0.000000
0.250000 0.000000 0.000000
0.300000 0.000000 0.000000
0.350000 0.000000 0.000000
0.400000 0.000000 0.000000
0.450000 0.000000 0.000000
0.500000 0.000000 0.000000
0.550000 0.000000 0.000000
0.600000 0.000000 0.000000
0.650000 0.000000 0.000000
0.700000 0.000000 0.000000
0.750000 0.000000 0.000000
0.800000 0.000000 0.000000
0.850000 0.000000 0.000000
0.900000 0.000000 0.000000
0.950000 0.000000 0.000000
1.000000 0.048545 0.000000
1.000000 0.094438 0.000000
1.000000 0.137825 0.000000
1.000000 0.178843 0.000000
1.000000 0.217620 0.000000
1.000000 0.254280 0.000000
1.000000 0.288938 0.000000
1.000000 0.321703 0.000000
1.000000 0.352678 0.000000
1.000000 0.381962 0.000000
1.000000 0.409647 0.000000
1.000000 0.435820 0.000000
1.000000 0.460563 0.000000
1.000000 0.483955 0.000000
1.000000 0.506070 0.000000
1.000000 0.526976 0.000000
1.000000 0.546741 0.000000
1.000000 0.565427 0.000000
1.000000 0.583092 0.000000
1.000000 0.599793 0.000000
1.000000 0.615581 0.000000
1.000000 0.630507 0.000000
1.000000 0.644618 0.000000
1.000000 0.657958 0.000000
1.000000 0.670570 0.000000
1.000000 0.682493 0.000000
1.000000 0.693765 0.000000
1.000000 0.704421 0.000000
1.000000 0.714495 0.000000
1.000000 0.724019 0.000000
1.000000 0.733023 0.000000
1.000000 0.741536 0.000000
1.000000 0.749583 0.000000
1.000000 0.757191 0.000000
1.000000 0.764383 0.000000
1.000000 0.771183 0.000000
1.000000 0.777611 0.000000
1.000000 0.783688 0.000000
1.000000 0.789434 0.000000
1.000000 0.794865 0.000000
1.000000 0.805174 0.000000
1.000000 0.811554 0.000000
1.000000 0.819418 0.000000
1.000000 0.829114 0.000000
1.000000 0.841067 0.000000
1.000000 0.855804 0.000000
1.000000 0.873972 0.000000
1.000000 0.896371 0.000000
1.000000 0.923985 0.000000
1.000000 0.958029 0.000000
0.950000 1.000000 0.000000
0.900000 1.000000 0.000000
0.850000 1.000000 0.000000
0.800000 1.000000 0.000000
0.750000 1.000000 0.000000
0.700000 1.000000 0.000000
0.650000 1.000000 0.000000
0.600000 1.000000 0.000000
0.550000 1.000000 0.000000
0.500000 1.000000 0.000000
0.450000 1.000000 0.000000
0.400000 1.000000 0.000000
0.350000 1.000000 0.000000
0.300000 1.000000 0.000000
0.250000 1.000000 0.000000
0.200000 1.000000 0.000000
0.150000 1.000000 0.000000
0.100000 1.000000 0.000000
0.050000 1.000000 0.000000
0.000000 0.951455 0.000000
0.000000 0.905562 0.000000
0.000000 0.862175 0.000000
0.000000 0.821157 0.000000
0.000000 0.782380 0.000000
0.000000 0.745720 0.000000
0.000000 0.711062 0.000000
0.000000 0.678297 0.000000
0.000000 0.647322 0.000000
0.000000 0.618038 0.000000
0.000000 0.590353 0.000000
0.000000 0.564180 0.000000
0.000000 0.539437 0.000000
0.000000 0.516045 0.000000
0.000000 0.493930 0.000000
0.000000 0.473024 0.000000
0.000000 0.453259 0.000000
0.000000 0.434573 0.000000
0.000000 0.416908 0.000000
0.000000 0.400207 0.000000
0.000000 0.384419 0.000000
0.000000 0.369493 0.000000
0.000000 0.355382 0.000000
0.000000 0.342042 0.000000
0.000000 0.329430 0.000000
0.000000 0.317507 0.000000
0.000000 0.306235 0.000000
0.000000 0.295579 0.000000
0.000000 0.285505 0.000000
0.000000 0.275981 0.000000
0.000000 0.266977 0.000000
0.000000 0.258464 0.000000
0.000000 0.250417 0.000000
0.000000 0.242809 0.000000
0.000000 0.235617 0.000000
0.000000 0.228817 0.000000
0.000000 0.222389 0.000000
0.000000 0.216312 0.000000
0.000000 0.210566 0.000000
0.000000 0.205135 0.000000
0.000000 0.194826 0.000000
0.000000 0.188446 0.000000
0.000000 0.180582 0.000000
0.000000 0.170886 0.000000
0.000000 0.158933 0.000000
0.000000 0.144196 0.000000
0.000000 0.126028 0.000000
0.000000 0.103629 0.000000
0.000000 0.076015 0.000000
0.000000 0.041971 0.000000
0.303738 0.333271 0.000000
0.307477 0.336542 0.000000
0.311215 0.339813 0.000000
0.314953 0.343084 0.000000
0.318692 0.346355 0.000000
0.322430 0.349626 0.000000
0.326168 0.352897 0.000000
0.329907 0.356168 0.000000
0.333645 0.359439 0.000000
0.337383 0.362710 0.000000
0.341121 0.365981 0.000000
0.344860 0.369252 0.000000
0.348598 0.372523 0.000000
0.352336 0.375794 0.000000
0.356075 0.379065 0.000000
0.359813 0.382336 0.000000
0.363551 0.385607 0.000000
0.367290 0.388879 0.000000
0.371028 0.392150 0.000000
0.374766 0.395421 0.000000
0.378505 0.398692 0.000000
0.382243 0.401963 0.000000
0.385981 0.405234 0.000000
0.389720 0.408505 0.000000
0.393458 0.411776 0.000000
0.397196 0.415047 0.000000
0.400935 0.418318 0.000000
0.404673 0.421589 0.000000
0.408411 0.424860 0.000000
0.412150 0.428131 0.000000
0.415888 0.431402 0.000000
0.419626 0.434673 0.000000
0.423364 0.437944 0.000000
0.427103 0.441215 0.000000
0.430841 0.444486 0.000000
0.434579 0.447757 0.000000
0.438318 0.451028 0.000000
0.442056 0.454299 0.000000
0.445794 0.457570 0.000000
0.449533 0.460841 0.000000
0.453271 0.464112 0.000000
0.457009 0.467383 0.000000
0.460748 0.470654 0.000000
0.464486 0.473925 0.000000
0.468224 0.477196 0.000000
0.471963 0.480467 0.000000
0.475701 0.483738 0.000000
0.479439 0.487009 0.000000
0.483178 0.490280 0.000000
0.486916 0.493551 0.000000
0.490654 0.496822 0.000000
0.494393 0.500093 0.000000
0.498131 0.503364 0.000000
0.501869 0.506636 0.000000
0.505607 0.509907 0.000000
0.509346 0.513178 0.000000
0.513084 0.516449 0.000000
0.516822 0.519720 0.000000
0.520561 0.522991 0.000000
0.524299 0.526262 0.000000
0.528037 0.529533 0.000000
0.531776 0.532804 0.000000
0.535514 0.536075 0.000000
0.539252 0.539346 0.000000
0.542991 0.542617 0.000000
0.546729 0.545888 0.000000
0.550467 0.549159 0.000000
0.554206 0.552430 0.000000
0.557944 0.555701 0.000000
0.561682 0.558972 0.000000
0.565421 0.562243 0.000000
0.569159 0.565514 0.000000
0.572897 0.568785 0.000000
0.576636 0.572056 0.000000
0.580374 0.575327 0.000000
0.584112 0.578598 0.000000
0.587850 0.581869 0.000000
0.591589 0.585140 0.000000
0.595327 0.588411 0.000000
0.599065 0.591682 0.000000
0.602804 0.594953 0.000000
0.606542 0.598224 0.000000
0.610280 0.601495 0.000000
0.614019 0.604766 0.000000
0.617757 0.608037 0.000000
0.621495 0.611308 0.000000
0.625234 0.614579 0.000000
0.628972 0.617850 0.000000
0.632710 0.621121 0.000000
0.636449 0.624393 0.000000
0.640187 0.627664 0.000000
0.643925 0.630935 0.000000
0.647664 0.634206 0.000000
0.651402 0.637477 0.000000
0.655140 0.640748 0.000000
0.658879 0.644019 0.000000
0.662617 0.647290 0.000000
0.666355 0.650561 0.000000
0.670093 0.653832 0.000000
0.673832 0.657103 0.000000
0.677570 0.660374 0.000000
0.681308 0.663645 0.000000
0.685047 0.666916 0.000000
0.688785 0.670187 0.000000
0.692523 0.673458 0.000000
0.696262 0.676729 0.000000
0.004545 0.201970 0.000000
0.009091 0.203939 0.000000
0.013636 0.205909 0.000000
0.018182 0.207879 0.000000
0.022727 0.209848 0.000000
0.027273 0.211818 0.000000
0.031818 0.213788 0.000000
0.036364 0.215758 0.000000
0.040909 0.217727 0.000000
0.045455 0.219697 0.000000
0.050000 0.221667 0.000000
0.054545 0.223636 0.000000
0.059091 0.225606 0.000000
0.063636 0.227576 0.000000
0.068182 0.229545 0.000000
0.072727 0.231515 0.000000
0.077273 0.233485 0.000000
0.081818 0.235455 0.000000
0.086364 0.237424 0.000000
0.090909 0.239394 0.000000
0.095455 0.241364 0.000000
0.100000 0.243333 0.000000
0.104545 0.245303 0.000000
0.109091 0.247273 0.000000
0.113636 0.249242 0.000000
0.118182 0.251212 0.000000
0.122727 0.253182 0.000000
0.127273 0.255152 0.000000
0.131818 0.257121 0.000000
0.136364 0.259091 0.000000
0.140909 0.261061 0.000000
0.145455 0.263030 0.000000
0.150000 0.265000 0.000000
0.154545 0.266970 0.000000
0.159091 0.268939 0.000000
0.163636 0.270909 0.000000
0.168182 0.272879 0.000000
0.172727 0.274848 0.000000
0.177273 0.276818 0.000000
0.181818 0.278788 0.000000
0.186364 0.280758 0.000000
0.190909 0.282727 0.000000
0.195455 0.284697 0.000000
0.200000 0.286667 0.000000
0.204545 0.288636 0.000000
0.209091 0.290606 0.000000
0.213636 0.292576 0.000000
0.218182 0.294545 0.000000
0.222727 0.296515 0.000000
0.227273 0.298485 0.000000
0.231818 0.300455 0.000000
0.236364 0.302424 0.000000
0.240909 0.304394 0.000000
0.245455 0.306364 0.000000
0.250000 0.308333 0.000000
0.254545 0.310303 0.000000
0.259091 0.312273 0.000000
0.263636 0.314242 0.000000
0.268182 0.316212 0.000000
0.272727 0.318182 0.000000
0.277273 0.320152 0.000000
0.281818 0.322121 0.000000
0.286364 0.324091 0.000000
0.290909 0.326061 0.000000
0.295455 0.328030 0.000000
0.704615 0.681846 0.000000
0.709231 0.683692 0.000000
0.713846 0.685538 0.000000
0.718462 0.687385 0.000000
0.723077 0.689231 0.000000
0.727692 0.691077 0.000000
0.732308 0.692923 0.000000
0.736923 0.694769 0.000000
0.741538 0.696615 0.000000
0.746154 0.698462 0.000000
0.750769 0.700308 0.000000
0.755385 0.702154 0.000000
0.760000 0.704000 0.000000
0.764615 0.705846 0.000000
0.769231 0.707692 0.000000
0.773846 0.709538 0.000000
0.778462 0.711385 0.000000
0.783077 0.713231 0.000000
0.787692 0.715077 0.000000
0.792308 0.716923 0.000000
0.796923 0.718769 0.000000
0.801538 0.720615 0.000000
0.806154 0.722462 0.000000
0.810769 0.724308 0.000000
0.815385 0.726154 0.000000
0.820000 0.728000 0.000000
0.824615 0.729846 0.000000
0.829231 0.731692 0.000000
0.833846 0.733538 0.000000
0.838462 0.735385 0.000000
0.843077 0.737231 0.000000
0.847692 0.739077 0.000000
0.852308 0.740923 0.000000
0.856923 0.742769 0.000000
0.861538 0.744615 0.000000
0.866154 0.746462 0.000000
0.870769 0.748308 0.000000
0.875385 0.750154 0.000000
0.880000 0.752000 0.000000
0.884615 0.753846 0.000000
0.889231 0.755692 0.000000
0.893846 0.757538 0.000000
0.898462 0.759385 0.000000
0.903077 0.761231 0.000000
0.907692 0.763077 0.000000
0.912308 0.764923 0.000000
0.916923 0.766769 0.000000
0.921538 0.768615 0.000000
0.926154 0.770462 0.000000
0.930769 0.772308 0.000000
[...]
POINT_DATA 6352
SCALARS UX float 1
LOOKUP_TABLE default
-0.000014
0.000017
18.920515
5.651186
-45.756838
-18.729265
-12.569603
1.686644
0.000001
-0.000002
-0.000001
-0.000001
-0.000001
-0.000001
-0.000001
-0.000000
-0.000000
-0.000000
-0.000000
0.000000
0.000000
0.000000
0.000001
0.000001
0.000001
0.000003
-0.000003
4.914832
8.783548
10.967650
12.720442
13.908092
14.973766
15.898951
16.745412
17.610351
18.405012
19.045497
19.516378
19.788630
19.952455
20.054192
20.085590
20.092602
20.096069
20.095272
20.087049
20.061841
20.023982
19.967970
19.909822
19.834268
19.755670
19.672665
19.587713
19.502516
19.423295
19.348283
19.278738
19.215068
19.157499
19.105017
19.057369
19.015959
18.980392
18.951957
18.931669
18.913008
18.903454
18.889647
18.828135
18.677728
18.153640
17.164899
14.829533
11.702952
7.813384
2.777318
1.004735
-0.644743
-2.012889
-3.102344
-4.125063
-5.238687
-6.582909
-8.185786
-10.112990
-12.333365
-14.812423
-17.723100
-20.867214
-24.221824
-28.165051
-32.403825
-36.895943
-41.451083
-44.161357
-42.442954
-40.588860
-38.872157
-37.524969
-36.430494
-35.556163
-34.836988
-34.190797
-33.583534
-32.985176
-32.442971
-31.903087
-31.379896
-30.815939
-30.270104
-29.663860
-29.042640
-28.411381
-27.732986
-27.073582
-26.433169
-25.802746
-25.193966
-24.606369
-24.040036
-23.499976
-22.987127
-22.504153
-22.049845
-21.628203
-21.234142
-20.867951
-20.527661
-20.211848
-19.919306
-19.647261
-19.393949
-19.157231
-18.936699
-18.517982
-18.250855
-17.902151
-17.439379
-16.826843
-15.911207
-14.697389
-12.975325
-10.604233
-7.319725
-12.347824
-12.177001
-12.136784
-12.982487
-12.910472
-12.920128
-12.781539
-12.790474
-12.597908
-12.398323
-14.520227
-14.373530
-14.202546
-14.033613
-13.982056
-13.903263
-13.748785
-13.718325
-13.702781
-13.458403
-13.830546
-13.774780
-13.616752
-13.687612
-13.719587
-13.626795
-13.391859
-13.465176
-13.239528
-13.299016
-13.223009
-13.109749
-12.892782
-12.776326
-12.487277
-12.277954
-12.329771
-12.233963
-12.201913
-12.056685
-11.761162
-11.689475
-11.602000
-11.325855
-11.109277
-11.119977
-10.860412
-10.699389
-10.488504
-10.352982
-10.157880
-9.973528
-10.016917
-9.702070
-9.484513
-9.287037
-9.228793
-8.954475
-8.786329
-8.651110
-8.555394
-8.163709
-7.989632
-7.711124
-8.213324
-7.918866
-7.762102
-7.482266
-7.158348
-7.030526
-6.769237
-6.461715
-6.223114
-6.028856
-5.795856
-5.581941
-5.362469
-5.160196
-5.451101
-4.540064
-4.456525
-4.285260
-4.084719
-3.878626
-3.734632
-3.664369
-3.413300
-3.108900
-2.669617
-2.502871
-2.424962
-2.242147
-2.007634
-1.764577
-1.624444
-1.335456
-1.100233
-0.949789
-0.617443
-0.298215
-0.081228
0.346624
0.496336
0.768114
1.150845
1.367074
-18.686679
-18.647542
-18.611997
-18.579253
-18.549217
-18.520596
-18.492100
-18.466277
-18.441125
-18.417358
-18.392320
-18.366198
-18.340895
-18.316103
-18.293868
-18.276257
-18.264524
-18.295463
-18.321711
-18.342862
-18.366704
-18.393680
-18.418559
-18.440708
-18.456661
-18.466398
-18.467306
-18.460259
-18.446526
-18.422443
-18.392133
-18.356101
-18.312838
-18.270255
-18.225767
-18.182535
-18.136728
-18.085177
-18.022242
-17.950328
-17.883202
-17.813314
-17.745074
-17.538925
-17.368764
-17.309314
-17.229076
-17.158750
-17.114458
-16.980203
-16.847739
-16.915801
-16.756421
-16.574269
-16.424733
-16.298146
-16.094653
-15.791817
-15.468340
-15.134522
-14.684380
-14.165289
-14.284528
-14.405597
-13.590775
2.633138
3.381807
4.013704
4.518008
4.998388
5.284812
5.670669
6.067681
6.343534
6.649333
6.810146
7.067649
7.372545
7.654797
7.929237
8.207295
8.493814
8.792116
9.098396
9.409816
9.722710
10.035694
10.336952
10.642584
10.952104
11.232576
11.507515
11.774766
12.036861
12.299794
12.550044
12.783235
13.022934
13.261708
13.494184
13.721103
13.947431
14.169834
14.395219
14.609687
14.824033
15.039841
15.249848
15.449239
15.654040
15.852212
16.041743
16.229949
16.414004
16.594044
16.768889
16.943216
17.105997
17.259859
17.423414
17.585752
17.743224
17.899514
18.051037
18.193224
18.331859
18.470865
18.612566
18.761365
7.672128
7.554431
8.037990
7.239341
-0.313320
-0.252249
-0.123594
-0.155924
-13.916563
-13.852270
-12.517504
-13.417188
-11.281029
-14.064856
-25.425524
-24.916541
-25.176666
-24.760890
-14.134803
-3.159877
-2.726257
-2.835741
-2.363320
-2.675732
-2.705938
-2.191661
-3.291654
-5.065644
-5.084568
-4.686654
-5.751207
-5.221329
-5.848963
-5.162640
13.747219
13.206346
14.255948
13.055632
-1.541858
-2.025117
-1.358994
-2.436884
-22.780870
-22.852928
-23.178236
-18.210725
-18.189884
-17.905202
-20.735846
-20.781822
-21.076477
10.079224
11.474506
10.481000
11.364559
-2.046601
-1.898492
-1.720971
-7.270293
-9.425054
-6.724741
14.279066
14.938372
14.944841
-9.820567
-10.729981
-10.551493
-16.687814
-15.141782
-14.548627
13.780910
13.992145
13.663688
-10.250833
-20.797052
-20.735248
-20.268760
-3.801774
-4.134835
-4.155519
-3.897007
4.887695
4.490807
4.587976
-3.672962
-3.878397
-4.914532
4.558219
8.359843
8.844719
8.316657
-0.779877
-1.408686
-0.474856
8.667791
8.841254
8.096394
4.009021
3.910122
4.304220
-2.217086
-2.742400
-2.202041
3.634625
-2.148442
-1.773916
-1.959895
-1.135330
-20.740949
-20.956355
-20.878173
-1.803769
8.050806
7.708245
8.120330
-5.161421
-5.278139
-4.593801
12.644724
12.495511
12.402407
12.268482
12.240877
12.107749
-17.750478
-19.503936
-17.392263
-18.862005
-3.489702
-3.019875
-3.251999
7.991590
13.474221
-2.751605
-27.604417
-27.064196
-27.369694
-21.220674
-21.579392
-21.292568
-2.974227
-1.713005
-1.884182
-26.757304
9.840158
9.611187
9.862812
9.393350
-3.029622
-2.415598
-2.226128
-0.179344
-18.273607
-18.424822
-18.261457
-2.770886
-2.979026
-2.653895
-2.905595
12.028820
11.812294
11.635933
-1.366852
8.613256
7.894877
8.120917
-24.567031
-24.111822
-23.848836
11.978422
12.226967
11.965232
12.061409
-21.768439
-21.358917
-21.905516
-21.454255
-5.236111
-4.853958
-5.043687
11.427332
-17.300663
-17.577139
-16.437633
-4.926222
-16.414267
-16.514158
-17.502364
-15.824021
13.789608
14.723159
-17.633033
13.743687
-20.667874
-20.644152
-20.525777
-20.797784
-4.644006
-4.871728
-5.258346
-3.871699
-18.481058
-15.601143
-19.347430
-19.293365
-19.442621
-19.215563
6.121315
5.992584
5.788010
5.500052
-20.947413
-20.680754
-4.228399
-19.974371
-19.907737
-20.069251
-19.941969
-3.610924
-3.477670
-3.355805
12.281769
12.381397
11.927523
-3.736008
12.729888
-10.322608
-9.419223
-8.634827
13.344565
13.400362
13.053375
-8.255352
-12.190328
-12.359235
-12.713368
13.657344
-12.788160
-20.576039
-20.605729
-20.356455
-12.050301
-11.718464
-11.640390
-20.307181
8.040668
7.951871
7.497616
2.457151
2.201778
2.573723
-5.091551
-5.209992
-4.536594
-14.412693
-13.832397
-14.118982
7.601352
7.773142
7.614402
7.932203
-1.694269
-1.982387
-1.729939
2.170600
7.503850
1.872347
1.744985
1.504248
8.952980
9.616588
9.294354
10.065527
11.604581
11.774453
11.529584
11.733977
17.912599
17.418231
17.223109
-13.644208
-13.069094
-11.893053
-15.121521
16.637680
-0.625451
0.228647
-0.582043
-15.262626
-14.850083
-15.077435
8.664293
8.406594
8.791696
17.540489
18.452801
8.304202
-29.315839
-29.971674
-28.920274
17.300945
17.201617
17.063807
16.929850
-10.784902
-10.222738
8.143555
8.162463
7.940404
-13.937177
-13.850536
-14.525800
-14.192991
13.068150
-14.895737
12.655448
12.722174
-15.770371
-16.180969
-16.030431
-19.914817
-19.517103
-19.993490
-19.466534
-20.705604
-21.091356
-20.950146
-21.315225
-20.320167
-20.395812
-20.033736
-20.497109
-20.196683
-20.344616
-22.016432
-21.795258
-22.213317
-19.931910
-3.190924
-3.628639
-3.353010
2.174498
1.905246
-23.076381
-23.015246
-22.771338
-23.366693
-21.074020
-21.197494
-21.095595
-21.273428
-18.681839
-18.958239
-18.853857
-19.114635
-25.017132
-25.108769
-25.453344
-20.424409
-24.767917
0.341744
0.167349
1.355630
-10.847594
-11.502698
-9.677297
-12.305259
12.810724
13.161017
12.812275
13.267945
-21.533098
-21.982341
8.515211
8.586266
7.874629
-19.211204
-19.175027
8.038279
14.804338
14.959609
15.123758
15.284623
14.621418
14.494493
14.269379
-19.333524
0.416355
0.060087
0.532176
-0.075466
11.034245
10.628117
11.194852
-19.165650
-18.107029
-18.991530
-17.920074
16.124403
16.035892
16.313207
15.834175
-32.726572
-31.650388
-31.843693
-30.886052
-19.678654
-20.079957
3.132532
3.724329
1.963321
1.755433
-22.456944
-21.255192
-20.923182
-20.030262
13.904250
14.199039
13.261726
13.561061
13.057627
-2.156338
-1.819955
-2.601633
13.264458
13.532965
13.882401
-7.303074
-8.178066
-5.865660
10.140818
9.662257
10.274091
9.536961
12.973430
12.592819
12.394079
-0.925222
-0.647520
-20.925397
-21.060345
-20.737421
-4.801034
-4.785499
-4.284269
8.383198
8.430469
-21.027073
-20.821221
-20.424539
-20.336018
-19.850980
-19.910736
-19.600001
14.343033
-2.936590
-3.407466
-2.850081
15.246917
-18.964961
-19.175995
-19.020881
-0.266752
-0.636325
-1.480402
-20.049039
-6.975332
-8.025397
-1.514251
-19.245740
-18.561372
-19.341737
-19.322755
-1.113965
-1.340451
-1.928562
13.298216
13.556398
12.991260
-14.659215
-14.220357
-20.154387
-20.097210
-3.969533
-3.712348
-4.468328
-20.399423
-4.623765
-4.107829
-4.018410
-3.572603
-20.767131
-20.713847
-20.534836
-20.945944
-17.873425
-18.462943
-18.445780
-19.149601
-16.805499
-17.227234
-17.613796
9.770619
10.048118
10.299257
-0.569127
-1.043593
-0.487512
-22.983006
-23.344771
-16.234965
10.301430
-17.185398
-17.239497
-17.636745
-16.792004
-31.330335
-30.564315
-30.560012
-29.997178
-4.784911
-4.480064
-5.019076
-18.853860
-18.225319
-19.039866
-18.301617
-26.141486
-25.183273
-25.741697
9.703147
10.575071
10.333611
-19.387943
-18.766449
-20.867349
-20.907740
-21.104997
1.011728
2.642029
2.377686
-21.090872
-19.103240
-17.985801
-17.776062
14.930792
15.316017
15.397973
-2.726617
-3.557592
0.124879
-18.038322
-18.191648
-18.011292
-19.371686
-19.763433
-19.631214
-19.204179
-19.430942
-19.068021
-19.525600
-19.866107
-19.395872
-2.451081
-2.249408
-2.548329
-5.523108
-4.971509
-2.057965
-18.248025
-19.590183
-21.890105
-21.728727
-21.874483
-6.107556
-6.342941
-6.598324
-5.836465
-5.553050
-4.940059
-5.563026
-4.438473
-21.951886
-21.796782
-21.669565
-21.556289
-2.274189
-0.992678
-3.096420
12.668289
12.364186
12.829484
12.390789
-20.096687
-20.449940
-20.010424
-17.149987
-16.317391
-17.154100
-20.498611
-18.336734
-18.930680
-18.828196
14.020778
12.886182
13.924530
12.623996
-21.449366
-21.505922
-21.760787
16.247053
16.298818
16.606850
6.754848
7.399210
6.863778
7.310729
-25.288534
-24.919229
-24.617986
-20.825927
-20.997526
-21.141289
-21.311456
15.700013
15.567802
15.894790
-9.567201
-9.672740
-10.028812
6.487129
6.504014
6.985870
7.023749
6.772142
6.301179
6.332900
-4.429991
-4.183915
-4.385465
-3.031597
-2.801242
-3.037658
-4.269463
-19.533482
-19.719894
-19.389804
-2.968415
-3.212588
-3.135933
-9.377721
-9.127178
-22.168741
-22.037263
-21.883927
17.423062
17.623836
17.500889
-21.676055
-8.931456
9.142508
6.465008
8.076043
-17.449419
-17.706287
-17.876590
-17.808313
-18.079887
-18.597707
-18.649299
-18.951604
13.975246
14.530795
14.570922
-22.186351
-22.408279
-22.651737
-22.786443
-20.583333
-20.631228
-20.219246
-20.775099
-9.707538
-10.221634
-10.091561
-9.976749
12.696683
12.735171
13.376448
11.842288
13.307525
13.953953
14.416098
14.568309
14.767445
18.262593
18.608445
18.581254
14.949511
12.816582
12.731163
13.126489
10.631751
10.718155
-16.268084
-16.214198
9.101245
-6.096186
-6.241749
-6.640728
-7.139818
-17.376870
-17.994603
-17.759146
-17.864495
10.322215
10.363073
10.054399
10.031756
-23.560032
-23.315830
-22.961005
-5.535847
-4.784231
-4.991416
-0.752805
-0.124079
1.013362
-2.371699
-18.333042
-17.158579
-18.089604
14.229030
13.980240
13.890645
6.438238
6.591747
4.976891
-16.031892
-18.879193
-17.737274
-18.121704
11.420244
11.967646
11.828295
-18.229185
-2.453479
-17.991210
-18.686694
-17.967850
-18.558082
-4.486531
-5.139341
11.564144
12.073728
-26.816361
-26.366098
-5.484557
-4.871020
-5.205193
-4.411628
-4.401806
-4.769545
-4.606206
-3.616835
-3.291086
-3.473904
6.991192
9.170936
7.794290
-3.457741
-14.333262
-15.503386
-13.915972
16.439055
16.454657
16.711070
-3.846233
-2.876472
-3.138665
-16.768974
-15.694237
-15.804399
-20.019898
-19.912516
-19.610355
9.469322
9.311566
10.550496
14.033421
14.203430
14.386000
14.573383
8.024080
-20.118615
-20.311849
-20.495777
-12.267790
-12.867977
-12.597914
10.256182
10.586088
10.542307
10.962569
10.000320
9.836657
9.449593
-17.038843
-17.844378
-17.644806
2.157913
-24.194844
-23.756918
-24.261467
-21.180061
-16.149947
-16.156113
-15.124152
-19.890664
-19.467139
-20.204730
-14.986291
10.412768
10.971810
-8.188302
-9.482219
-8.853224
-7.422683
-8.378168
-9.336514
-18.104041
-18.604290
-18.614819
-19.000443
-10.399443
3.807296
4.235123
4.216494
-23.991808
-24.330008
-24.094290
-19.033786
-19.097256
-18.506173
-20.133328
-20.401148
-20.380165
-20.631398
15.024721
16.764151
13.768298
14.504028
13.979469
-18.686737
-18.834929
-19.068754
16.553544
-19.465910
-19.222156
-0.807264
-0.552839
6.498932
6.568931
6.048080
12.263874
12.191478
12.600571
6.143871
12.934520
12.955256
-20.967565
-21.349375
-21.209102
-21.579704
-17.041543
-16.880989
-17.193507
-2.709436
-3.791079
-4.047423
5.374500
5.202666
6.232025
-11.857542
-11.172079
-11.525336
-11.515365
5.594198
10.960782
11.089686
10.721177
-2.506800
-2.470521
-2.225782
-7.216788
-7.677691
-8.688471
-21.714039
-22.145288
-21.676443
-14.726240
-22.201923
10.966569
-9.416792
-9.166321
-8.868157
-3.880461
-3.489863
-3.593963
-9.652340
-8.774384
-7.977580
-7.333383
-21.457437
-21.651764
8.581412
9.192713
8.939930
2.588790
2.459160
4.608798
4.345689
-21.410707
-21.833444
-21.690329
-22.165060
5.920218
6.790509
6.908781
6.196161
-27.857007
-25.431615
-27.013420
11.554769
11.560252
11.940385
-27.116189
12.467054
12.281703
10.655338
11.237265
-19.416453
-19.441313
-19.326852
-18.299099
-18.365688
-18.813454
-19.353291
-19.114366
-19.381102
-19.612119
-19.830243
-19.253492
1.674865
1.863552
1.522019
14.345660
14.243953
14.568519
-19.135874
-19.115505
-18.871401
14.052566
-18.799185
-18.800713
-19.056880
-19.105683
-19.801976
-19.188030
17.747501
17.610624
-19.957251
-20.414225
-19.593195
-19.787228
-3.840558
-4.142314
-4.242204
-19.586484
1.553588
1.864459
1.948331
2.107327
1.386868
1.650217
-1.904703
-1.711037
-1.697428
-22.222753
-21.829720
-21.851888
0.895549
16.416892
16.651551
16.473858
-2.926256
-3.311893
-3.796020
-7.738173
-8.417932
-8.433419
-7.790952
-2.209098
-2.455467
-18.708650
-18.585955
-18.467688
-4.779232
-4.530329
-4.637047
7.091106
7.507188
-11.640467
-12.261852
-12.552238
-4.369886
-18.306344
-5.309041
-4.904633
-18.559257
-19.047715
-18.733711
-19.128768
-27.487088
-28.867247
-28.208437
-28.276319
-19.788713
-20.088488
-19.623935
-1.443296
-1.309330
-1.061599
-19.797940
-20.014744
-20.765778
-21.064330
-19.478917
5.867655
5.601417
5.566992
5.903065
3.438238
2.813800
2.952984
3.235964
2.489419
3.217267
2.655301
-23.114044
-23.596357
-23.262907
18.423892
18.302361
8.867506
9.047335
9.593155
9.823579
-22.892412
-22.528992
-20.898806
-20.898094
-20.803905
-18.372826
-18.384887
-19.996047
-19.915359
-20.078344
-19.812199
-20.621909
-19.948347
-21.271081
-20.982963
-21.722935
5.660435
5.438425
6.032823
5.868979
-27.342984
-26.710522
-27.672406
5.550052
5.169607
18.187702
5.092461
-22.971820
-23.373218
-23.129849
18.332370
5.266252
3.181709
3.732693
-23.532442
3.675273
-26.772431
-18.031968
-5.864184
-5.473659
-5.679804
-18.115083
-19.577114
-19.713780
-19.676656
-19.823099
-19.243490
-19.268558
-19.769236
-19.525430
12.826586
12.582818
12.929021
12.548601
-19.527070
-19.650528
-19.472371
-19.760785
8.615499
8.593320
9.248594
9.016441
-17.766668
-17.855062
-18.716695
-18.639225
6.687264
6.483773
7.047941
6.130799
6.188645
5.815005
-19.830103
-19.785535
-13.941397
-13.759699
-14.436686
-13.899224
7.320460
-17.292120
-17.703720
-18.040180
-16.553612
-5.702087
-5.233453
-5.525075
4.230728
2.411453
-4.923513
-17.637397
-17.576180
-17.219506
-17.247021
-9.212894
-9.724965
-0.890460
-1.362968
3.788286
3.453051
-1.554133
-19.121806
-18.367839
-18.670134
-17.668290
8.785868
9.227851
8.866844
9.520973
3.226180
3.871631
7.549016
7.626805
8.189966
-19.116318
-18.637701
-18.647084
16.524841
16.408010
16.887591
4.612580
4.610107
16.841006
5.072986
3.705516
5.543586
-5.899144
-5.717207
-5.443556
5.375984
-18.896490
-19.089863
5.509592
6.076683
6.314045
11.313644
10.960896
11.338613
-24.281928
-24.476353
10.767018
-20.739052
-20.889894
-20.596910
12.748702
12.368726
-0.682776
-1.966527
0.301570
-19.835969
-19.823903
-20.023586
-20.031801
-20.747722
-20.652667
-8.333178
-7.867306
-10.556407
-17.022223
-17.194711
-17.452667
-17.590245
-18.183806
-18.257708
0.115055
0.359126
-0.226380
6.533014
7.008780
6.077550
6.391202
5.753276
6.935650
6.548366
6.253066
6.294137
-8.936446
-8.133251
-7.823422
-21.587601
-22.241394
-21.733993
-22.553873
-20.934053
-21.449081
-20.545407
3.511400
4.376118
4.602133
4.413222
17.560560
17.121754
17.258509
-19.568127
-19.662366
-19.584512
-5.907933
-6.898955
-6.089100
-19.682803
-16.192808
-15.007025
-15.696964
-15.726865
-8.416974
-7.646044
-7.822716
-17.608908
-18.385896
-21.694705
-21.341431
-21.647874
10.614483
10.465563
10.929943
-18.107002
12.552344
-18.796339
-18.806351
2.944142
3.767729
3.255559
3.671677
3.605507
1.468072
2.641178
18.546423
18.333085
18.263562
18.083515
17.803608
17.906598
18.009057
-20.845428
-20.985807
-21.073965
18.087343
-21.205599
-20.583225
-20.322453
-17.482490
-16.979136
-18.013985
-10.344951
-8.621244
-9.358845
13.059647
13.072424
12.756515
12.575621
-10.095843
1.794463
1.493440
3.856076
3.249427
3.077234
3.475221
3.229660
-16.210711
-16.334350
-15.924597
-16.595308
-18.851779
-18.467794
-18.477719
2.563914
2.216960
2.033542
1.668895
-19.344276
-19.592527
-19.420321
17.978756
-19.681465
17.796341
-19.250787
-18.891489
-15.688370
-15.406965
-5.545378
-6.118615
-15.609934
-15.077492
-14.707281
-1.469797
-1.424240
-19.388235
-19.690730
-19.581983
-19.955565
-1.358154
-1.111714
-1.008425
-1.624524
-1.477833
-1.362620
7.237760
7.633439
5.938807
9.103956
-14.463704
-15.827219
-6.361856
-6.749819
-6.136528
-6.365951
-3.286452
-3.115966
-2.817570
-3.027237
-2.930812
-3.165562
2.777080
3.285253
3.343418
-4.036804
-5.254590
-5.096328
2.895467
-5.090468
-5.036168
-4.783618
-4.765421
3.787159
3.354278
-1.396086
0.777749
-18.800872
-17.995688
-17.983352
-17.125363
-22.538808
-22.794942
-23.203127
-22.306766
-4.411176
7.614448
7.117739
7.446805
7.275609
-22.110082
-21.985417
7.430831
-21.476800
-18.567662
-18.614938
-18.842335
-18.827108
-18.406185
-18.009339
-18.557142
6.038395
-7.954809
-8.219108
-8.587373
-17.720855
-17.413828
4.884261
4.632936
4.910132
-18.684628
-18.787599
11.274763
10.778011
10.982013
18.454392
18.173362
-18.967225
-18.460941
-28.892154
-29.420905
-16.169069
-16.074604
-16.367118
-15.797961
-4.129590
-4.140514
-3.865743
-3.942987
-15.362231
-16.473049
-16.611547
-2.900760
-16.752252
-17.887583
-17.533979
-17.562744
-4.971432
-5.823403
-11.225041
-10.664618
-11.180223
-10.607618
5.309115
5.559349
5.349282
5.448120
7.233986
7.606353
7.921530
6.948157
-5.447367
-5.472486
-5.871605
0.729293
0.728531
1.086689
-4.456713
-4.781842
0.452440
-16.839825
-16.710519
-30.299002
-29.777479
-16.423872
-17.082005
-21.826525
-17.084348
18.438298
19.034443
18.707362
17.988338
3.784999
4.338065
5.115632
-17.820161
-17.278085
-17.685082
-12.705643
-12.838151
-13.095945
-13.157080
18.577687
12.149329
12.403715
12.551384
-18.435059
-23.806101
-23.666160
-23.486260
-23.997585
10.569241
10.946844
-24.138982
-24.362223
-24.135118
-7.403201
6.962135
10.175215
10.456611
17.463424
17.056220
17.244647
9.969535
-15.733533
-16.071666
-15.891555
-15.987762
-12.361308
-12.012295
-12.353686
-19.966211
-20.250407
18.664973
18.511372
18.143763
-13.515755
-12.410221
-11.031062
17.209075
17.567438
17.337642
-5.317560
-5.565124
-9.809220
-11.745844
-15.668087
-15.070184
-14.136572
2.355167
1.670959
3.304351
-0.276585
-0.804333
-1.715045
-3.698966
-3.174076
-3.635038
-13.679674
-13.295135
-13.357460
-2.189897
-2.255212
-1.962347
-2.051302
-4.403079
-3.752752
-7.629699
-7.316321
-6.761321
-6.529498
-33.369352
-33.177943