# vtk DataFile Version 2.0
Test
ASCII
DATASET POLYDATA
POINTS 6352 float
0.000000 0.000000 0.000000
1.000000 0.000000 0.000000
1.000000 0.800000 0.000000
1.000000 1.000000 0.000000
0.000000 1.000000 0.000000
0.000000 0.200000 0.000000
0.300000 0.330000 0.000000
0.700000 0.680000 0.000000
0.050000 0.000000 0.000000
0.100000 0.000000 0.000000
0.150000 0.000000 0.000000
0.200000 0.000000 0.000000
0.250000 0.000000 0.000000
0.300000 0.000000 0.000000
0.350000 0.000000 0.000000
0.400000 0.000000 0.000000
0.450000 0.000000 0.000000
0.500000 0.000000 0.000000
0.550000 0.000000 0.000000
0.600000 0.000000 0.000000
0.650000 0.000000 0.000000
0.700000 0.000000 0.000000
0.750000 0.000000 0.000000
0.800000 0.000000 0.000000
0.850000 0.000000 0.000000
0.900000 0.000000 0.000000
0.950000 0.000000 0.000000
1.000000 0.048545 0.000000
1.000000 0.094438 0.000000
1.000000 0.137825 0.000000
1.000000 0.178843 0.000000
1.000000 0.217620 0.000000
1.000000 0.254280 0.000000
1.000000 0.288938 0.000000
1.000000 0.321703 0.000000
1.000000 0.352678 0.000000
1.000000 0.381962 0.000000
1.000000 0.409647 0.000000
1.000000 0.435820 0.000000
1.000000 0.460563 0.000000
1.000000 0.483955 0.000000
1.000000 0.506070 0.000000
1.000000 0.526976 0.000000
1.000000 0.546741 0.000000
1.000000 0.565427 0.000000
1.000000 0.583092 0.000000
1.000000 0.599793 0.000000
1.000000 0.615581 0.000000
1.000000 0.630507 0.000000
1.000000 0.644618 0.000000
1.000000 0.657958 0.000000
1.000000 0.670570 0.000000
1.000000 0.682493 0.000000
1.000000 0.693765 0.000000
1.000000 0.704421 0.000000
1.000000 0.714495 0.000000
1.000000 0.724019 0.000000
1.000000 0.733023 0.000000
1.000000 0.741536 0.000000
1.000000 0.749583 0.000000
1.000000 0.757191 0.000000
1.000000 0.764383 0.000000
1.000000 0.771183 0.000000
1.000000 0.777611 0.000000
1.000000 0.783688 0.000000
1.000000 0.789434 0.000000
1.000000 0.794865 0.000000
1.000000 0.805174 0.000000
1.000000 0.811554 0.000000
1.000000 0.819418 0.000000
1.000000 0.829114 0.000000
1.000000 0.841067 0.000000
1.000000 0.855804 0.000000
1.000000 0.873972 0.000000
1.000000 0.896371 0.000000
1.000000 0.923985 0.000000
1.000000 0.958029 0.000000
0.950000 1.000000 0.000000
0.900000 1.000000 0.000000
0.850000 1.000000 0.000000
0.800000 1.000000 0.000000
0.750000 1.000000 0.000000
0.700000 1.000000 0.000000
0.650000 1.000000 0.000000
0.600000 1.000000 0.000000
0.550000 1.000000 0.000000
0.500000 1.000000 0.000000
0.450000 1.000000 0.000000
0.400000 1.000000 0.000000
0.350000 1.000000 0.000000
0.300000 1.000000 0.000000
0.250000 1.000000 0.000000
0.200000 1.000000 0.000000
0.150000 1.000000 0.000000
0.100000 1.000000 0.000000
0.050000 1.000000 0.000000
0.000000 0.951455 0.000000
0.000000 0.905562 0.000000
0.000000 0.862175 0.000000
0.000000 0.821157 0.000000
0.000000 0.782380 0.000000
0.000000 0.745720 0.000000
0.000000 0.711062 0.000000
0.000000 0.678297 0.000000
0.000000 0.647322 0.000000
0.000000 0.618038 0.000000
0.000000 0.590353 0.000000
0.000000 0.564180 0.000000
0.000000 0.539437 0.000000
0.000000 0.516045 0.000000
0.000000 0.493930 0.000000
0.000000 0.473024 0.000000
0.000000 0.453259 0.000000
0.000000 0.434573 0.000000
0.000000 0.416908 0.000000
0.000000 0.400207 0.000000
0.000000 0.384419 0.000000
0.000000 0.369493 0.000000
0.000000 0.355382 0.000000
0.000000 0.342042 0.000000
0.000000 0.329430 0.000000
0.000000 0.317507 0.000000
0.000000 0.306235 0.000000
0.000000 0.295579 0.000000
0.000000 0.285505 0.000000
0.000000 0.275981 0.000000
0.000000 0.266977 0.000000
0.000000 0.258464 0.000000
0.000000 0.250417 0.000000
0.000000 0.242809 0.000000
0.000000 0.235617 0.000000
0.000000 0.228817 0.000000
0.000000 0.222389 0.000000
0.000000 0.216312 0.000000
0.000000 0.210566 0.000000
0.000000 0.205135 0.000000
0.000000 0.194826 0.000000
0.000000 0.188446 0.000000
0.000000 0.180582 0.000000
0.000000 0.170886 0.000000
0.000000 0.158933 0.000000
0.000000 0.144196 0.000000
0.000000 0.126028 0.000000
0.000000 0.103629 0.000000
0.000000 0.076015 0.000000
0.000000 0.041971 0.000000
0.303738 0.333271 0.000000
0.307477 0.336542 0.000000
0.311215 0.339813 0.000000
0.314953 0.343084 0.000000
0.318692 0.346355 0.000000
0.322430 0.349626 0.000000
0.326168 0.352897 0.000000
0.329907 0.356168 0.000000
0.333645 0.359439 0.000000
0.337383 0.362710 0.000000
0.341121 0.365981 0.000000
0.344860 0.369252 0.000000
0.348598 0.372523 0.000000
0.352336 0.375794 0.000000
0.356075 0.379065 0.000000
0.359813 0.382336 0.000000
0.363551 0.385607 0.000000
0.367290 0.388879 0.000000
0.371028 0.392150 0.000000
0.374766 0.395421 0.000000
0.378505 0.398692 0.000000
0.382243 0.401963 0.000000
0.385981 0.405234 0.000000
0.389720 0.408505 0.000000
0.393458 0.411776 0.000000
0.397196 0.415047 0.000000
0.400935 0.418318 0.000000
0.404673 0.421589 0.000000
0.408411 0.424860 0.000000
0.412150 0.428131 0.000000
0.415888 0.431402 0.000000
0.419626 0.434673 0.000000
0.423364 0.437944 0.000000
0.427103 0.441215 0.000000
0.430841 0.444486 0.000000
0.434579 0.447757 0.000000
0.438318 0.451028 0.000000
0.442056 0.454299 0.000000
0.445794 0.457570 0.000000
0.449533 0.460841 0.000000
0.453271 0.464112 0.000000
0.457009 0.467383 0.000000
0.460748 0.470654 0.000000
0.464486 0.473925 0.000000
0.468224 0.477196 0.000000
0.471963 0.480467 0.000000
0.475701 0.483738 0.000000
0.479439 0.487009 0.000000
0.483178 0.490280 0.000000
0.486916 0.493551 0.000000
0.490654 0.496822 0.000000
0.494393 0.500093 0.000000
0.498131 0.503364 0.000000
0.501869 0.506636 0.000000
0.505607 0.509907 0.000000
0.509346 0.513178 0.000000
0.513084 0.516449 0.000000
0.516822 0.519720 0.000000
0.520561 0.522991 0.000000
0.524299 0.526262 0.000000
0.528037 0.529533 0.000000
0.531776 0.532804 0.000000
0.535514 0.536075 0.000000
0.539252 0.539346 0.000000
0.542991 0.542617 0.000000
0.546729 0.545888 0.000000
0.550467 0.549159 0.000000
0.554206 0.552430 0.000000
0.557944 0.555701 0.000000
0.561682 0.558972 0.000000
0.565421 0.562243 0.000000
0.569159 0.565514 0.000000
0.572897 0.568785 0.000000
0.576636 0.572056 0.000000
0.580374 0.575327 0.000000
0.584112 0.578598 0.000000
0.587850 0.581869 0.000000
0.591589 0.585140 0.000000
0.595327 0.588411 0.000000
0.599065 0.591682 0.000000
0.602804 0.594953 0.000000
0.606542 0.598224 0.000000
0.610280 0.601495 0.000000
0.614019 0.604766 0.000000
0.617757 0.608037 0.000000
0.621495 0.611308 0.000000
0.625234 0.614579 0.000000
0.628972 0.617850 0.000000
0.632710 0.621121 0.000000
0.636449 0.624393 0.000000
0.640187 0.627664 0.000000
0.643925 0.630935 0.000000
0.647664 0.634206 0.000000
0.651402 0.637477 0.000000
0.655140 0.640748 0.000000
0.658879 0.644019 0.000000
0.662617 0.647290 0.000000
0.666355 0.650561 0.000000
0.670093 0.653832 0.000000
0.673832 0.657103 0.000000
0.677570 0.660374 0.000000
0.681308 0.663645 0.000000
0.685047 0.666916 0.000000
0.688785 0.670187 0.000000
0.692523 0.673458 0.000000
0.696262 0.676729 0.000000
0.004545 0.201970 0.000000
0.009091 0.203939 0.000000
0.013636 0.205909 0.000000
0.018182 0.207879 0.000000
0.022727 0.209848 0.000000
0.027273 0.211818 0.000000
0.031818 0.213788 0.000000
0.036364 0.215758 0.000000
0.040909 0.217727 0.000000
0.045455 0.219697 0.000000
0.050000 0.221667 0.000000
0.054545 0.223636 0.000000
0.059091 0.225606 0.000000
0.063636 0.227576 0.000000
0.068182 0.229545 0.000000
0.072727 0.231515 0.000000
0.077273 0.233485 0.000000
0.081818 0.235455 0.000000
0.086364 0.237424 0.000000
0.090909 0.239394 0.000000
0.095455 0.241364 0.000000
0.100000 0.243333 0.000000
0.104545 0.245303 0.000000
0.109091 0.247273 0.000000
0.113636 0.249242 0.000000
0.118182 0.251212 0.000000
0.122727 0.253182 0.000000
0.127273 0.255152 0.000000
0.131818 0.257121 0.000000
0.136364 0.259091 0.000000
0.140909 0.261061 0.000000
0.145455 0.263030 0.000000
0.150000 0.265000 0.000000
0.154545 0.266970 0.000000
0.159091 0.268939 0.000000
0.163636 0.270909 0.000000
0.168182 0.272879 0.000000
0.172727 0.274848 0.000000
0.177273 0.276818 0.000000
0.181818 0.278788 0.000000
0.186364 0.280758 0.000000
0.190909 0.282727 0.000000
0.195455 0.284697 0.000000
0.200000 0.286667 0.000000
0.204545 0.288636 0.000000
0.209091 0.290606 0.000000
0.213636 0.292576 0.000000
0.218182 0.294545 0.000000
0.222727 0.296515 0.000000
0.227273 0.298485 0.000000
0.231818 0.300455 0.000000
0.236364 0.302424 0.000000
0.240909 0.304394 0.000000
0.245455 0.306364 0.000000
0.250000 0.308333 0.000000
0.254545 0.310303 0.000000
0.259091 0.312273 0.000000
0.263636 0.314242 0.000000
0.268182 0.316212 0.000000
0.272727 0.318182 0.000000
0.277273 0.320152 0.000000
0.281818 0.322121 0.000000
0.286364 0.324091 0.000000
0.290909 0.326061 0.000000
0.295455 0.328030 0.000000
0.704615 0.681846 0.000000
0.709231 0.683692 0.000000
0.713846 0.685538 0.000000
0.718462 0.687385 0.000000
0.723077 0.689231 0.000000
0.727692 0.691077 0.000000
0.732308 0.692923 0.000000
0.736923 0.694769 0.000000
0.741538 0.696615 0.000000
0.746154 0.698462 0.000000
0.750769 0.700308 0.000000
0.755385 0.702154 0.000000
0.760000 0.704000 0.000000
0.764615 0.705846 0.000000
0.769231 0.707692 0.000000
0.773846 0.709538 0.000000
0.778462 0.711385 0.000000
0.783077 0.713231 0.000000
0.787692 0.715077 0.000000
0.792308 0.716923 0.000000
0.796923 0.718769 0.000000
0.801538 0.720615 0.000000
0.806154 0.722462 0.000000
0.810769 0.724308 0.000000
0.815385 0.726154 0.000000
0.820000 0.728000 0.000000
0.824615 0.729846 0.000000
0.829231 0.731692 0.000000
0.833846 0.733538 0.000000
0.838462 0.735385 0.000000
0.843077 0.737231 0.000000
0.847692 0.739077 0.000000
0.852308 0.740923 0.000000
0.856923 0.742769 0.000000
0.861538 0.744615 0.000000
0.866154 0.746462 0.000000
0.870769 0.748308 0.000000
0.875385 0.750154 0.000000
0.880000 0.752000 0.000000
0.884615 0.753846 0.000000
0.889231 0.755692 0.000000
0.893846 0.757538 0.000000
0.898462 0.759385 0.000000
0.903077 0.761231 0.000000
0.907692 0.763077 0.000000
0.912308 0.764923 0.000000
0.916923 0.766769 0.000000
0.921538 0.768615 0.000000
0.926154 0.770462 0.000000
0.930769 0.772308 0.000000
[...]
POINT_DATA 6352
SCALARS UX float 1
LOOKUP_TABLE default
-0.000000
0.000000
0.726386
0.595517
-0.922442
-0.671755
-0.440065
0.336529
-0.000000
-0.000000
-0.000000
-0.000000
-0.000000
-0.000000
-0.000000
-0.000000
-0.000000
-0.000000
-0.000000
0.000000
0.000000
0.000000
0.000000
0.000000
0.000000
0.000000
-0.000000
0.244662
0.382469
0.484147
0.563090
0.626568
0.681457
0.728581
0.769212
0.803717
0.833966
0.859792
0.881243
0.898924
0.912690
0.922773
0.929139
0.932174
0.932233
0.929604
0.924748
0.917911
0.909613
0.900000
0.889848
0.878809
0.867818
0.856498
0.844541
0.832564
0.821071
0.809977
0.799313
0.789142
0.779499
0.770444
0.761869
0.753782
0.746197
0.739147
0.732540
0.720300
0.712874
0.704070
0.693324
0.680644
0.666600
0.650446
0.633288
0.616712
0.602897
0.501427
0.412543
0.329184
0.249582
0.180020
0.115339
0.054795
-0.004438
-0.065605
-0.130497
-0.199068
-0.270709
-0.349011
-0.429095
-0.510237
-0.592519
-0.674534
-0.756468
-0.838920
-0.924627
-0.930476
-0.941130
-0.954628
-0.970615
-0.987275
-1.004141
-1.020457
-1.035559
-1.047963
-1.057777
-1.065115
-1.070122
-1.071839
-1.070280
-1.066648
-1.059047
-1.049072
-1.036944
-1.022248
-1.006175
-0.988969
-0.970393
-0.951382
-0.932031
-0.912528
-0.893163
-0.874049
-0.855542
-0.836676
-0.818425
-0.800695
-0.783654
-0.767286
-0.751637
-0.736690
-0.722392
-0.708774
-0.695794
-0.683467
-0.659844
-0.645115
-0.626690
-0.603685
-0.574981
-0.538758
-0.493201
-0.435403
-0.354236
-0.238590
-0.429540
-0.421315
-0.419079
-0.414713
-0.409154
-0.410153
-0.405388
-0.395299
-0.387650
-0.388494
-0.384032
-0.382305
-0.379074
-0.368952
-0.363021
-0.357575
-0.347107
-0.345980
-0.338621
-0.322914
-0.329078
-0.317977
-0.302547
-0.295109
-0.286139
-0.274451
-0.264366
-0.250093
-0.237945
-0.231147
-0.231677
-0.228108
-0.215439
-0.205859
-0.205353
-0.192215
-0.186817
-0.190254
-0.181092
-0.172411
-0.158582
-0.154383
-0.146422
-0.137649
-0.120131
-0.107303
-0.115639
-0.109880
-0.102285
-0.099569
-0.093540
-0.090666
-0.086565
-0.078062
-0.067096
-0.065736
-0.059447
-0.051325
-0.033633
-0.036962
-0.031619
-0.019360
-0.007580
-0.004281
0.008332
0.024225
0.030027
0.048627
0.052650
0.063330
0.069143
0.076548
0.076234
0.074003
0.079718
0.086422
0.092412
0.102670
0.108901
0.115403
0.106850
0.108491
0.114805
0.118598
0.113866
0.117484
0.129321
0.137566
0.148580
0.149423
0.156231
0.159549
0.168415
0.172399
0.177362
0.189062
0.194911
0.202540
0.217048
0.233903
0.252764
0.268149
0.285919
0.297036
0.312531
0.321475
-0.668862
-0.665985
-0.663131
-0.660268
-0.657411
-0.654547
-0.651658
-0.648769
-0.645871
-0.642970
-0.640039
-0.637094
-0.634159
-0.631210
-0.628224
-0.625237
-0.622256
-0.619270
-0.616274
-0.613251
-0.610230
-0.607203
-0.604146
-0.601088
-0.598018
-0.594939
-0.591852
-0.588764
-0.585692
-0.582594
-0.579505
-0.576429
-0.573315
-0.570234
-0.567140
-0.564053
-0.560960
-0.557869
-0.554804
-0.551747
-0.548715
-0.545726
-0.542729
-0.539713
-0.536775
-0.533923
-0.531105
-0.528300
-0.525503
-0.522889
-0.520470
-0.517860
-0.515291
-0.512991
-0.510797
-0.508969
-0.507092
-0.504579
-0.502304
-0.500700
-0.498420
-0.495730
-0.492690
-0.484708
-0.470862
0.374298
0.394960
0.407116
0.416008
0.421730
0.426281
0.430649
0.435280
0.439231
0.443248
0.447532
0.451566
0.455762
0.460246
0.464752
0.469237
0.473863
0.478698
0.483507
0.488380
0.493271
0.498244
0.503153
0.508196
0.513319
0.518413
0.523510
0.528640
0.533829
0.539039
0.544267
0.549444
0.554671
0.559901
0.565133
0.570379
0.575613
0.580871
0.586139
0.591375
0.596614
0.601891
0.607154
0.612411
0.617696
0.622952
0.628218
0.633482
0.638756
0.644050
0.649356
0.654658
0.659974
0.665331
0.670684
0.676068
0.681471
0.686907
0.692409
0.697906
0.703477
0.709088
0.714767
0.720521
0.490276
0.484373
0.500306
0.476039
0.024352
0.013884
0.031795
0.010412
-0.460578
-0.462803
-0.432188
-0.447330
-0.411669
-0.456302
-0.841847
-0.822116
-0.827694
-0.811800
-0.455270
-0.147854
-0.128686
-0.127936
-0.107439
0.187007
0.185570
0.218256
0.149048
-0.192613
-0.203286
-0.182217
0.021844
0.045403
0.017372
0.048954
0.696448
0.673936
0.711537
0.672596
-0.086716
-0.125118
-0.080642
-0.134567
-0.773580
-0.770934
-0.792608
-0.632128
-0.632505
-0.617680
-0.664926
-0.663646
-0.677650
0.546424
0.596275
0.564813
0.586483
0.127485
0.126996
0.147058
-0.090658
-0.122366
-0.005490
0.721956
0.742589
0.743690
-0.161807
-0.194369
-0.193255
-0.569433
-0.525216
-0.501224
0.579503
0.585476
0.572863
-0.170372
-0.653438
-0.654123
-0.635021
-0.085625
-0.091794
-0.107302
-0.070506
0.445314
0.438274
0.436908
0.046127
0.025708
-0.027620
0.442748
0.546658
0.555596
0.543904
0.255277
0.228648
0.263950
0.553672
0.558004
0.540482
0.400325
0.393511
0.405650
0.187582
0.160088
0.183824
0.389453
-0.012260
0.009308
0.018386
0.237018
-0.638264
-0.646147
-0.645804
-0.005486
0.513161
0.502225
0.512772
-0.269134
-0.277301
-0.243786
0.631781
0.621360
0.622624
0.612163
0.620183
0.610298
-0.377259
-0.431150
-0.371965
-0.417872
-0.146345
-0.128401
-0.126490
0.507304
0.568859
-0.105154
-0.931107
-0.906058
-0.910439
-0.677876
-0.690805
-0.673756
0.232055
0.291419
0.305658
-0.887530
0.572893
0.566083
0.570978
0.563148
0.105749
0.125747
0.141285
0.336729
-0.502392
-0.511686
-0.503721
0.153965
0.144888
0.151602
0.139174
0.646508
0.637772
0.631981
0.174232
0.522876
0.499277
0.512322
-0.888741
-0.875011
-0.860328
0.625267
0.630057
0.621329
0.619049
-0.675415
-0.664377
-0.682108
-0.670843
-0.058048
-0.043200
-0.041494
0.623612
-0.545467
-0.574977
-0.487352
-0.056638
-0.489170
-0.486088
-0.524649
-0.427681
0.692138
0.723169
-0.536366
0.685846
-0.649720
-0.650506
-0.646053
-0.653424
-0.224889
-0.227978
-0.252236
0.203331
-0.513288
-0.414212
-0.574219
-0.569131
-0.575912
-0.568106
0.475898
0.475035
0.469066
0.469363
-0.652675
-0.644220
-0.199298
-0.611661
-0.605908
-0.611647
-0.604140
0.078990
0.076007
0.089470
0.656297
0.659445
0.643528
0.066650
0.671817
-0.386278
-0.355087
-0.328906
0.624421
0.620504
0.608057
-0.317469
-0.276933
-0.279528
-0.294937
0.635933
-0.293478
-0.609077
-0.616411
-0.600553
-0.275249
-0.261051
-0.261834
-0.604027
0.503420
0.502607
0.487712
0.388192
0.382274
0.391257
-0.251403
-0.264795
-0.227799
-0.350816
-0.328996
-0.336273
0.516614
0.522641
0.519771
0.522065
0.172128
0.152314
0.159585
0.382526
0.490871
0.342652
0.343738
0.332393
0.505849
0.526190
0.512754
0.534669
0.617701
0.620858
0.613216
0.616387
0.839996
0.825090
0.816147
-0.453036
-0.442847
-0.425560
-0.478442
0.797104
0.311546
0.328739
0.313552
-0.388210
-0.375747
-0.381678
0.529906
0.521597
0.531186
0.824287
0.855551
0.521373
-0.984629
-1.012732
-0.985983
0.724884
0.712596
0.712968
0.700441
-0.209800
-0.168386
0.535939
0.539430
0.534119
-0.314768
-0.305489
-0.331449
-0.311989
0.602438
-0.377897
0.582310
0.591105
-0.398993
-0.413559
-0.409086
-0.621215
-0.606590
-0.625963
-0.604196
-0.683797
-0.702145
-0.698714
-0.717088
-0.665844
-0.665925
-0.649223
-0.659180
-0.649563
-0.654127
-0.737293
-0.721761
-0.742414
-0.647560
0.120015
0.107645
0.107032
0.355936
0.352045
-0.748516
-0.743991
-0.737383
-0.757880
-0.666638
-0.671844
-0.669365
-0.676643
-0.552761
-0.562473
-0.561009
-0.569775
-0.833127
-0.834191
-0.851407
-0.648876
-0.821341
0.372059
0.360415
0.412490
-0.247678
-0.270076
-0.206159
-0.293241
0.666934
0.675165
0.663933
0.681502
-0.704713
-0.726259
0.502927
0.508047
0.480917
-0.563046
-0.563846
0.489301
0.641433
0.654856
0.655649
0.669201
0.627767
0.626871
0.613468
-0.568388
0.209069
0.187468
0.200015
0.169704
0.607146
0.590447
0.611124
-0.635822
-0.613788
-0.623382
-0.599434
0.709238
0.714274
0.724439
0.698121
-1.011012
-0.995994
-0.976179
-0.955469
-0.630228
-0.648435
0.382735
0.396851
0.363591
0.363471
-0.549793
-0.514586
-0.495408
-0.471671
0.599821
0.616936
0.626623
0.638178
0.614802
0.227986
0.253369
0.205327
0.689481
0.697633
0.709874
-0.058661
-0.080870
0.007224
0.570452
0.550811
0.573088
0.547939
0.680076
0.666290
0.660124
-0.047984
-0.033347
-0.650188
-0.653430
-0.641172
0.060429
0.060166
0.085325
0.515086
0.515221
-0.661238
-0.651520
-0.640233
-0.634525
-0.615731
-0.620396
-0.610266
0.704023
0.177579
0.145525
0.177220
0.735915
-0.525369
-0.536090
-0.531266
0.288498
0.281926
0.245802
-0.621701
0.055130
0.013353
0.248903
-0.543535
-0.622819
-0.634432
-0.638061
-0.056053
-0.065330
-0.099887
0.557579
0.563375
0.547976
-0.355147
-0.335954
-0.592714
-0.584252
0.112422
0.131951
0.088622
-0.595779
0.076499
0.102581
0.107165
0.132396
-0.677025
-0.671619
-0.666190
-0.682481
-0.551159
-0.570009
-0.569359
-0.592664
-0.468454
-0.479776
-0.495407
0.536485
0.551283
0.552962
-0.022869
-0.043926
-0.020579
-0.739385
-0.753983
-0.439218
0.547485
-0.575092
-0.572945
-0.592772
-0.553848
-1.041549
-1.022776
-1.008795
-1.001711
0.039128
0.061687
0.034487
-0.463619
-0.437516
-0.463262
-0.434088
-0.766432
-0.726363
-0.724103
0.486816
0.503686
0.497876
-0.487832
-0.467495
-0.652543
-0.651749
-0.661329
0.359364
0.391518
0.392804
-0.657691
-0.485980
-0.507858
-0.503471
0.590188
0.604041
0.603842
0.253824
0.218691
0.356055
-0.488885
-0.497079
-0.488889
-0.603599
-0.624003
-0.615577
-0.609337
-0.621752
-0.605487
-0.616548
-0.623585
-0.603332
0.044807
0.071290
0.058764
0.025900
0.049042
0.066120
-0.518484
-0.610527
-0.696906
-0.689913
-0.694063
-0.035955
-0.038168
-0.059033
-0.013680
-0.046628
-0.021436
-0.039291
-0.005686
-0.688779
-0.684476
-0.676881
-0.675191
0.149351
0.197698
0.112664
0.605334
0.596782
0.617765
0.590700
-0.641505
-0.647373
-0.641904
-0.540757
-0.511780
-0.537778
-0.646520
-0.566270
-0.585531
-0.582617
0.674388
0.630112
0.665423
0.625341
-0.668148
-0.668074
-0.677059
0.623081
0.628434
0.637839
0.519105
0.525769
0.521615
0.522963
-0.846572
-0.830237
-0.816169
-0.621225
-0.623581
-0.636159
-0.637032
0.609058
0.607283
0.618277
-0.193386
-0.192487
-0.207861
0.451662
0.449696
0.466134
0.464184
0.462467
0.448110
0.452583
-0.072505
-0.050995
-0.052752
0.048044
0.070447
0.062495
-0.072761
-0.691549
-0.702645
-0.686648
0.080627
0.061184
0.079325
-0.191066
-0.180214
-0.712981
-0.710515
-0.702208
0.694112
0.705008
0.693182
-0.697215
-0.178186
0.488107
0.455631
0.471205
-0.589226
-0.598789
-0.610644
-0.477688
-0.489454
-0.582318
-0.582588
-0.596693
0.568627
0.584617
0.583305
-0.660521
-0.657130
-0.677922
-0.676300
-0.653289
-0.652218
-0.646226
-0.655438
-0.178797
-0.198181
-0.199362
-0.183005
0.538249
0.539480
0.555360
0.523693
0.555004
0.571573
0.636909
0.650063
0.652629
0.817014
0.836512
0.828817
0.669148
0.554315
0.554395
0.566801
0.566522
0.562270
-0.506378
-0.503715
0.479274
-0.099972
-0.095050
-0.113163
-0.122072
-0.561334
-0.586889
-0.582722
-0.478435
0.579867
0.580905
0.570307
0.569851
-0.696901
-0.697261
-0.673563
-0.004839
0.011881
0.013954
0.321009
0.331434
0.353947
0.265856
-0.550042
-0.501408
-0.539350
0.665233
0.648495
0.651081
0.431372
0.433906
0.402810
-0.444587
-0.618525
-0.584293
-0.596427
0.623997
0.644206
0.639846
-0.605140
-0.104253
-0.604802
-0.619641
-0.597216
-0.624112
0.024400
-0.005367
0.628167
0.646646
-0.881441
-0.867824
-0.027417
-0.006758
-0.009361
0.015977
-0.134198
-0.155869
-0.156948
0.016108
0.039591
0.041855
0.471395
0.499834
0.487595
0.014985
-0.464511
-0.485363
-0.457282
0.695437
0.706110
0.712926
0.141650
0.164271
0.166286
-0.459822
-0.415780
-0.416492
-0.653435
-0.648632
-0.640432
0.482052
0.479315
0.500486
0.632604
0.645978
0.647978
0.663845
0.460652
-0.657362
-0.664240
-0.669278
-0.272245
-0.292771
-0.279131
0.568225
0.579230
0.570689
0.586832
0.556664
0.558260
0.540942
-0.529905
-0.556450
-0.550885
0.361829
-0.863906
-0.837699
-0.858851
-0.671646
-0.498214
-0.496536
-0.476092
-0.619705
-0.604470
-0.628462
-0.472993
0.584045
0.606234
-0.270781
-0.321092
-0.310276
-0.342486
-0.364280
-0.382670
-0.534178
-0.553237
-0.554994
-0.568145
-0.402010
0.378682
0.387568
0.392966
-0.779083
-0.793904
-0.786902
-0.588989
-0.591173
-0.571413
-0.646132
-0.651126
-0.651304
-0.656618
0.590953
0.724342
0.700346
0.726776
0.709595
-0.581254
-0.586032
-0.596580
0.718425
-0.613348
-0.604444
-0.080155
-0.062021
0.501741
0.504987
0.497192
0.544076
0.545505
0.556944
0.499477
0.570514
0.567673
-0.688495
-0.706580
-0.703722
-0.720737
-0.458415
-0.452217
-0.462547
0.201772
0.181588
0.162845
0.396351
0.386085
0.422924
-0.241994
-0.215986
-0.223589
-0.235569
0.396733
0.601276
0.602288
0.594516
0.115064
0.106793
0.127002
-0.228159
-0.223658
-0.271697
-0.685569
-0.698511
-0.681131
-0.469914
-0.694334
0.596446
-0.160770
-0.158250
-0.138463
0.106562
0.127088
0.123484
-0.381077
-0.363229
-0.337290
-0.321791
-0.675157
-0.687465
0.510132
0.531906
0.524548
0.442422
0.439175
0.493245
0.482489
-0.691384
-0.709695
-0.707880
-0.730320
0.515796
0.526923
0.529322
0.518752
-0.649589
-0.590963
-0.617639
0.530175
0.533840
0.543970
-0.644373
0.562828
0.552500
0.552679
0.574381
-0.567567
-0.572156
-0.565253
-0.565383
-0.568614
-0.583928
-0.603131
-0.594917
-0.625496
-0.633061
-0.646213
-0.616252
0.354071
0.362325
0.352979
0.600192
0.602245
0.614673
-0.525503
-0.529614
-0.516440
0.591613
-0.508534
-0.503691
-0.516819
-0.616006
-0.632277
-0.619764
0.686677
0.680949
-0.652398
-0.664634
-0.632928
-0.646433
0.112975
0.098115
0.090208
-0.636033
0.347143
0.355384
0.361621
0.231122
0.191861
0.202099
0.116099
0.115082
0.132854
-0.753135
-0.736663
-0.732970
0.156333
0.675079
0.688631
0.672664
0.094458
0.086222
0.059772
-0.144972
-0.162447
-0.167892
-0.143817
0.044373
0.024140
-0.512158
-0.509366
-0.500545
-0.063704
-0.053554
-0.043138
0.481840
0.494359
-0.216683
-0.233616
-0.253625
-0.035536
-0.495964
-0.004302
0.010947
-0.569319
-0.586937
-0.578318
-0.592412
-0.731741
-0.771896
-0.777478
-0.724802
-0.508178
-0.526754
-0.508891
0.178791
0.172236
0.197683
-0.522739
-0.507398
-0.635278
-0.646402
-0.483906
0.461832
0.457567
0.452902
0.467276
0.313422
0.289620
0.289510
0.311114
0.265484
0.295855
0.268312
-0.696698
-0.717501
-0.711212
0.701423
0.698122
0.486950
0.495473
0.506242
0.515198
-0.696016
-0.680757
-0.658094
-0.660340
-0.658393
-0.650218
-0.650099
-0.592714
-0.584697
-0.592629
-0.581660
-0.525635
-0.493959
-0.547361
-0.547440
-0.572864
0.421144
0.411686
0.431096
0.422669
-0.798801
-0.761722
-0.786184
0.420866
0.406321
0.688046
0.408078
-0.811989
-0.831269
-0.822964
0.691364
0.465689
0.394862
0.416219
-0.843927
0.410840
-0.736286
-0.630985
-0.141760
-0.128173
-0.117640
-0.636515
-0.574799
-0.581689
-0.582799
-0.589284
-0.520783
-0.514719
-0.539219
-0.519157
0.655904
0.652065
0.664195
0.654305
-0.561874
-0.571586
-0.562720
-0.575093
0.503400
0.507093
0.526196
0.522146
-0.549081
-0.553298
-0.660913
-0.655199
0.474587
0.464803
0.477267
0.465719
0.470878
0.455840
-0.599692
-0.601125
-0.295998
-0.283895
-0.306196
-0.282784
0.475341
-0.497256
-0.512467
-0.526717
-0.461746
-0.047911
-0.032890
-0.033565
0.427416
0.399827
-0.019882
-0.460771
-0.461918
-0.444710
-0.449947
-0.172545
-0.189626
-0.039038
-0.060908
0.384895
0.372988
-0.067062
-0.598715
-0.569646
-0.581334
-0.531657
0.522331
0.540480
0.536292
0.554757
0.291971
0.321646
0.476197
0.476089
0.496991
-0.595363
-0.576893
-0.577458
0.628356
0.626774
0.641198
0.350826
0.353462
0.642223
0.501109
0.478143
0.504021
0.004714
0.007868
0.025350
0.381303
-0.527792
-0.537982
0.388398
0.408481
0.418804
0.543248
0.534340
0.547793
-0.800896
-0.809021
0.532292
-0.711445
-0.722865
-0.708859
0.597354
0.578997
0.304213
0.275863
0.327186
-0.631149
-0.628826
-0.634952
-0.631944
-0.675855
-0.669765
-0.338312
-0.334112
-0.383290
-0.577909
-0.583982
-0.596716
-0.601700
-0.488001
-0.488124
0.156304
0.177558
0.149505
0.507384
0.513165
0.422770
0.437314
0.415674
0.508134
0.512263
0.503735
0.507577
-0.184450
-0.155271
-0.144857
-0.543062
-0.569739
-0.559023
-0.595197
-0.517351
-0.529649
-0.496644
0.455242
0.469979
0.474507
0.458502
0.824227
0.803823
0.814253
-0.583099
-0.589358
-0.587592
-0.295566
-0.327938
-0.304994
-0.587079
-0.501085
-0.476915
-0.491369
-0.490293
-0.156334
-0.137003
-0.135208
-0.528711
-0.557390
-0.797741
-0.781462
-0.791039
0.593582
0.588121
0.605936
-0.553315
0.629517
-0.569766
-0.567473
0.424998
0.443926
0.432742
0.439165
0.445219
0.407667
0.432663
0.784537
0.765578
0.770220
0.753163
0.703566
0.714094
0.714048
-0.673691
-0.675713
-0.681653
0.725016
-0.682153
-0.664074
-0.659237
-0.507470
-0.479784
-0.527549
-0.394060
-0.348045
-0.364802
0.682303
0.681667
0.671989
0.664924
-0.388848
0.425630
0.417373
0.475441
0.400648
0.392736
0.401597
0.391741
-0.410750
-0.417650
-0.401629
-0.425832
-0.499587
-0.487250
-0.481623
0.304338
0.297398
0.283108
0.278870
-0.596181
-0.603330
-0.600830
0.756522
-0.608979
0.739324
-0.590229
-0.578084
-0.415052
-0.394160
0.008794
-0.018239
-0.354294
-0.345376
-0.322293
0.151585
0.140589
-0.691371
-0.706502
-0.703370
-0.721824
0.130279
0.150984
0.138365
0.186493
0.186963
0.199836
0.446523
0.453882
0.429104
0.475625
-0.334654
-0.422959
-0.159294
-0.187461
-0.166960
-0.189566
0.080605
0.094306
0.123436
0.115894
0.110454
0.103475
0.339217
0.351911
0.358006
0.114107
0.062318
0.061362
0.336075
-0.112255
-0.130769
-0.106940
-0.125043
0.372742
0.364380
0.304352
0.379169
-0.605003
-0.581302
-0.588988
-0.560405
-0.830244
-0.835712
-0.858734
-0.814214
0.104874
0.525062
0.518994
0.520231
0.514313
-0.815007
-0.803407
0.513752
-0.777972
-0.544955
-0.543413
-0.553392
-0.549782
-0.489767
-0.474720
-0.500769
0.434114
-0.110305
-0.112158
-0.135485
-0.460006
-0.448530
0.453588
0.447039
0.449925
-0.516993
-0.524586
0.618635
0.599373
0.607689
0.788738
0.772011
-0.533912
-0.505838
-0.823090
-0.814048
-0.423513
-0.417778
-0.429495
-0.409677
-0.012475
-0.029625
-0.007509
-0.030041
-0.494222
-0.432238
-0.439416
0.099463
-0.442980
-0.552171
-0.540727
-0.540847
-0.011304
-0.033415
-0.241433
-0.217951
-0.233812
-0.208172
0.452659
0.460828
0.449786
0.463069
0.531766
0.537542
0.541577
0.529154
-0.202014
-0.215009
-0.225878
0.277057
0.269162
0.286166
-0.115569
-0.143784
0.262519
-0.448117
-0.444774
-0.815729
-0.770519
-0.434618
-0.456185
-0.791361
-0.454350
0.864712
0.887751
0.876121
0.765156
0.469923
0.486079
0.497566
-0.616180
-0.590131
-0.608541
-0.300616
-0.302470
-0.313119
-0.311937
0.706853
0.531234
0.538962
0.541472
-0.654423
-0.779829
-0.773624
-0.766378
-0.788110
0.584328
0.591398
-0.794016
-0.804266
-0.792579
-0.257862
0.564094
0.576699
0.586179
0.660839
0.643600
0.654630
0.575610
-0.402539
-0.415210
-0.409278
-0.410925
-0.294268
-0.283440
-0.291180
-0.718106
-0.735527
0.783264
0.768420
0.748144
-0.450340
-0.433536
-0.412003
0.799953
0.812467
0.798444
0.011330
-0.009175
-0.391322
-0.277507
-0.320918
-0.303784
-0.271978
0.465468
0.431991
0.479443
-0.082928
-0.118924
-0.174035
0.137712
0.152441
0.143667
-0.326619
-0.310012
-0.307351
0.172553
0.159058
0.179364
0.164868
0.108345
0.129608
-0.283879
-0.284223
-0.255285
-0.256411
-0.877578
-0.903906
-0.860831
-0.929554
-0.572012
-0.589769
-0.577628
-0.858959
-0.544949
0.348057
0.341315
0.354253
0.340792
0.516193
0.816556
0.795413
0.509830
0.691150
0.700456
0.150347
0.168776
0.514035
-0.259142
0.504225
0.430376
0.425438
0.433734
0.681052
0.681803
0.602262
0.583717
0.657281
0.642282
0.718688
0.734828
0.431093
0.660035
0.439630
0.432954
0.252870
0.246245
0.259537
-0.919168
-0.918056
-0.934791
-0.901289
0.238841
0.515906
0.509287
0.490291
0.502666
0.519351
-0.523136
-0.532690
-0.801240
-0.780479
-0.513631
-0.697117
-0.610669
0.494102
0.496142
0.499447
0.489953
0.504088
0.751130
0.766664
0.132953
0.135128
0.499698
0.486082
0.498064
0.483035
0.493472
-0.602037
-0.568394
-0.284472
-0.285910
-0.589415
-0.585760
-0.657777
-0.723667
-0.323888
-0.302045
-0.705898
-0.700401
-0.716455
-0.695282
0.066083
0.076297
-0.583264
-0.566317
-0.569080
-0.608210
-0.603361
-0.145260
-0.276593
-0.597858
-0.597349
-0.611284
-0.614893
0.512640
0.528689
-0.616147
0.487925
0.488298
0.494430
0.475713
-0.447275
0.703872
-0.673314
-0.684654
-0.452822
-0.444374
-0.423959
0.103756
0.128297
0.128074
-0.658563
-0.661381
-0.004575
0.005109
0.015970
0.607459
0.609121
0.599313
0.603511
0.521842
0.527419
0.519384
0.529081
0.513449
0.497819
0.490353
-0.610063
-0.607235
0.413426
0.414324
0.421729
-0.052814
-0.021020
-0.045469
-0.034011
0.406885
-0.792417
-0.815791
0.803374
0.815529
-0.632675
-0.615969
-0.890055
-0.871046
-0.865487