# vtk DataFile Version 2.0
Test
ASCII
DATASET POLYDATA
POINTS 6352 float
0.000000 0.000000 0.000000
1.000000 0.000000 0.000000
1.000000 0.800000 0.000000
1.000000 1.000000 0.000000
0.000000 1.000000 0.000000
0.000000 0.200000 0.000000
0.300000 0.330000 0.000000
0.700000 0.680000 0.000000
0.050000 0.000000 0.000000
0.100000 0.000000 0.000000
0.150000 0.000000 0.000000
0.200000 0.000000 0.000000
0.250000 0.000000 0.000000
0.300000 0.000000 0.000000
0.350000 0.000000 0.000000
0.400000 0.000000 0.000000
0.450000 0.000000 0.000000
0.500000 0.000000 0.000000
0.550000 0.000000 0.000000
0.600000 0.000000 0.000000
0.650000 0.000000 0.000000
0.700000 0.000000 0.000000
0.750000 0.000000 0.000000
0.800000 0.000000 0.000000
0.850000 0.000000 0.000000
0.900000 0.000000 0.000000
0.950000 0.000000 0.000000
1.000000 0.048545 0.000000
1.000000 0.094438 0.000000
1.000000 0.137825 0.000000
1.000000 0.178843 0.000000
1.000000 0.217620 0.000000
1.000000 0.254280 0.000000
1.000000 0.288938 0.000000
1.000000 0.321703 0.000000
1.000000 0.352678 0.000000
1.000000 0.381962 0.000000
1.000000 0.409647 0.000000
1.000000 0.435820 0.000000
1.000000 0.460563 0.000000
1.000000 0.483955 0.000000
1.000000 0.506070 0.000000
1.000000 0.526976 0.000000
1.000000 0.546741 0.000000
1.000000 0.565427 0.000000
1.000000 0.583092 0.000000
1.000000 0.599793 0.000000
1.000000 0.615581 0.000000
1.000000 0.630507 0.000000
1.000000 0.644618 0.000000
1.000000 0.657958 0.000000
1.000000 0.670570 0.000000
1.000000 0.682493 0.000000
1.000000 0.693765 0.000000
1.000000 0.704421 0.000000
1.000000 0.714495 0.000000
1.000000 0.724019 0.000000
1.000000 0.733023 0.000000
1.000000 0.741536 0.000000
1.000000 0.749583 0.000000
1.000000 0.757191 0.000000
1.000000 0.764383 0.000000
1.000000 0.771183 0.000000
1.000000 0.777611 0.000000
1.000000 0.783688 0.000000
1.000000 0.789434 0.000000
1.000000 0.794865 0.000000
1.000000 0.805174 0.000000
1.000000 0.811554 0.000000
1.000000 0.819418 0.000000
1.000000 0.829114 0.000000
1.000000 0.841067 0.000000
1.000000 0.855804 0.000000
1.000000 0.873972 0.000000
1.000000 0.896371 0.000000
1.000000 0.923985 0.000000
1.000000 0.958029 0.000000
0.950000 1.000000 0.000000
0.900000 1.000000 0.000000
0.850000 1.000000 0.000000
0.800000 1.000000 0.000000
0.750000 1.000000 0.000000
0.700000 1.000000 0.000000
0.650000 1.000000 0.000000
0.600000 1.000000 0.000000
0.550000 1.000000 0.000000
0.500000 1.000000 0.000000
0.450000 1.000000 0.000000
0.400000 1.000000 0.000000
0.350000 1.000000 0.000000
0.300000 1.000000 0.000000
0.250000 1.000000 0.000000
0.200000 1.000000 0.000000
0.150000 1.000000 0.000000
0.100000 1.000000 0.000000
0.050000 1.000000 0.000000
0.000000 0.951455 0.000000
0.000000 0.905562 0.000000
0.000000 0.862175 0.000000
0.000000 0.821157 0.000000
0.000000 0.782380 0.000000
0.000000 0.745720 0.000000
0.000000 0.711062 0.000000
0.000000 0.678297 0.000000
0.000000 0.647322 0.000000
0.000000 0.618038 0.000000
0.000000 0.590353 0.000000
0.000000 0.564180 0.000000
0.000000 0.539437 0.000000
0.000000 0.516045 0.000000
0.000000 0.493930 0.000000
0.000000 0.473024 0.000000
0.000000 0.453259 0.000000
0.000000 0.434573 0.000000
0.000000 0.416908 0.000000
0.000000 0.400207 0.000000
0.000000 0.384419 0.000000
0.000000 0.369493 0.000000
0.000000 0.355382 0.000000
0.000000 0.342042 0.000000
0.000000 0.329430 0.000000
0.000000 0.317507 0.000000
0.000000 0.306235 0.000000
0.000000 0.295579 0.000000
0.000000 0.285505 0.000000
0.000000 0.275981 0.000000
0.000000 0.266977 0.000000
0.000000 0.258464 0.000000
0.000000 0.250417 0.000000
0.000000 0.242809 0.000000
0.000000 0.235617 0.000000
0.000000 0.228817 0.000000
0.000000 0.222389 0.000000
0.000000 0.216312 0.000000
0.000000 0.210566 0.000000
0.000000 0.205135 0.000000
0.000000 0.194826 0.000000
0.000000 0.188446 0.000000
0.000000 0.180582 0.000000
0.000000 0.170886 0.000000
0.000000 0.158933 0.000000
0.000000 0.144196 0.000000
0.000000 0.126028 0.000000
0.000000 0.103629 0.000000
0.000000 0.076015 0.000000
0.000000 0.041971 0.000000
0.303738 0.333271 0.000000
0.307477 0.336542 0.000000
0.311215 0.339813 0.000000
0.314953 0.343084 0.000000
0.318692 0.346355 0.000000
0.322430 0.349626 0.000000
0.326168 0.352897 0.000000
0.329907 0.356168 0.000000
0.333645 0.359439 0.000000
0.337383 0.362710 0.000000
0.341121 0.365981 0.000000
0.344860 0.369252 0.000000
0.348598 0.372523 0.000000
0.352336 0.375794 0.000000
0.356075 0.379065 0.000000
0.359813 0.382336 0.000000
0.363551 0.385607 0.000000
0.367290 0.388879 0.000000
0.371028 0.392150 0.000000
0.374766 0.395421 0.000000
0.378505 0.398692 0.000000
0.382243 0.401963 0.000000
0.385981 0.405234 0.000000
0.389720 0.408505 0.000000
0.393458 0.411776 0.000000
0.397196 0.415047 0.000000
0.400935 0.418318 0.000000
0.404673 0.421589 0.000000
0.408411 0.424860 0.000000
0.412150 0.428131 0.000000
0.415888 0.431402 0.000000
0.419626 0.434673 0.000000
0.423364 0.437944 0.000000
0.427103 0.441215 0.000000
0.430841 0.444486 0.000000
0.434579 0.447757 0.000000
0.438318 0.451028 0.000000
0.442056 0.454299 0.000000
0.445794 0.457570 0.000000
0.449533 0.460841 0.000000
0.453271 0.464112 0.000000
0.457009 0.467383 0.000000
0.460748 0.470654 0.000000
0.464486 0.473925 0.000000
0.468224 0.477196 0.000000
0.471963 0.480467 0.000000
0.475701 0.483738 0.000000
0.479439 0.487009 0.000000
0.483178 0.490280 0.000000
0.486916 0.493551 0.000000
0.490654 0.496822 0.000000
0.494393 0.500093 0.000000
0.498131 0.503364 0.000000
0.501869 0.506636 0.000000
0.505607 0.509907 0.000000
0.509346 0.513178 0.000000
0.513084 0.516449 0.000000
0.516822 0.519720 0.000000
0.520561 0.522991 0.000000
0.524299 0.526262 0.000000
0.528037 0.529533 0.000000
0.531776 0.532804 0.000000
0.535514 0.536075 0.000000
0.539252 0.539346 0.000000
0.542991 0.542617 0.000000
0.546729 0.545888 0.000000
0.550467 0.549159 0.000000
0.554206 0.552430 0.000000
0.557944 0.555701 0.000000
0.561682 0.558972 0.000000
0.565421 0.562243 0.000000
0.569159 0.565514 0.000000
0.572897 0.568785 0.000000
0.576636 0.572056 0.000000
0.580374 0.575327 0.000000
0.584112 0.578598 0.000000
0.587850 0.581869 0.000000
0.591589 0.585140 0.000000
0.595327 0.588411 0.000000
0.599065 0.591682 0.000000
0.602804 0.594953 0.000000
0.606542 0.598224 0.000000
0.610280 0.601495 0.000000
0.614019 0.604766 0.000000
0.617757 0.608037 0.000000
0.621495 0.611308 0.000000
0.625234 0.614579 0.000000
0.628972 0.617850 0.000000
0.632710 0.621121 0.000000
0.636449 0.624393 0.000000
0.640187 0.627664 0.000000
0.643925 0.630935 0.000000
0.647664 0.634206 0.000000
0.651402 0.637477 0.000000
0.655140 0.640748 0.000000
0.658879 0.644019 0.000000
0.662617 0.647290 0.000000
0.666355 0.650561 0.000000
0.670093 0.653832 0.000000
0.673832 0.657103 0.000000
0.677570 0.660374 0.000000
0.681308 0.663645 0.000000
0.685047 0.666916 0.000000
0.688785 0.670187 0.000000
0.692523 0.673458 0.000000
0.696262 0.676729 0.000000
0.004545 0.201970 0.000000
0.009091 0.203939 0.000000
0.013636 0.205909 0.000000
0.018182 0.207879 0.000000
0.022727 0.209848 0.000000
0.027273 0.211818 0.000000
0.031818 0.213788 0.000000
0.036364 0.215758 0.000000
0.040909 0.217727 0.000000
0.045455 0.219697 0.000000
0.050000 0.221667 0.000000
0.054545 0.223636 0.000000
0.059091 0.225606 0.000000
0.063636 0.227576 0.000000
0.068182 0.229545 0.000000
0.072727 0.231515 0.000000
0.077273 0.233485 0.000000
0.081818 0.235455 0.000000
0.086364 0.237424 0.000000
0.090909 0.239394 0.000000
0.095455 0.241364 0.000000
0.100000 0.243333 0.000000
0.104545 0.245303 0.000000
0.109091 0.247273 0.000000
0.113636 0.249242 0.000000
0.118182 0.251212 0.000000
0.122727 0.253182 0.000000
0.127273 0.255152 0.000000
0.131818 0.257121 0.000000
0.136364 0.259091 0.000000
0.140909 0.261061 0.000000
0.145455 0.263030 0.000000
0.150000 0.265000 0.000000
0.154545 0.266970 0.000000
0.159091 0.268939 0.000000
0.163636 0.270909 0.000000
0.168182 0.272879 0.000000
0.172727 0.274848 0.000000
0.177273 0.276818 0.000000
0.181818 0.278788 0.000000
0.186364 0.280758 0.000000
0.190909 0.282727 0.000000
0.195455 0.284697 0.000000
0.200000 0.286667 0.000000
0.204545 0.288636 0.000000
0.209091 0.290606 0.000000
0.213636 0.292576 0.000000
0.218182 0.294545 0.000000
0.222727 0.296515 0.000000
0.227273 0.298485 0.000000
0.231818 0.300455 0.000000
0.236364 0.302424 0.000000
0.240909 0.304394 0.000000
0.245455 0.306364 0.000000
0.250000 0.308333 0.000000
0.254545 0.310303 0.000000
0.259091 0.312273 0.000000
0.263636 0.314242 0.000000
0.268182 0.316212 0.000000
0.272727 0.318182 0.000000
0.277273 0.320152 0.000000
0.281818 0.322121 0.000000
0.286364 0.324091 0.000000
0.290909 0.326061 0.000000
0.295455 0.328030 0.000000
0.704615 0.681846 0.000000
0.709231 0.683692 0.000000
0.713846 0.685538 0.000000
0.718462 0.687385 0.000000
0.723077 0.689231 0.000000
0.727692 0.691077 0.000000
0.732308 0.692923 0.000000
0.736923 0.694769 0.000000
0.741538 0.696615 0.000000
0.746154 0.698462 0.000000
0.750769 0.700308 0.000000
0.755385 0.702154 0.000000
0.760000 0.704000 0.000000
0.764615 0.705846 0.000000
0.769231 0.707692 0.000000
0.773846 0.709538 0.000000
0.778462 0.711385 0.000000
0.783077 0.713231 0.000000
0.787692 0.715077 0.000000
0.792308 0.716923 0.000000
0.796923 0.718769 0.000000
0.801538 0.720615 0.000000
0.806154 0.722462 0.000000
0.810769 0.724308 0.000000
0.815385 0.726154 0.000000
0.820000 0.728000 0.000000
0.824615 0.729846 0.000000
0.829231 0.731692 0.000000
0.833846 0.733538 0.000000
0.838462 0.735385 0.000000
0.843077 0.737231 0.000000
0.847692 0.739077 0.000000
0.852308 0.740923 0.000000
0.856923 0.742769 0.000000
0.861538 0.744615 0.000000
0.866154 0.746462 0.000000
0.870769 0.748308 0.000000
0.875385 0.750154 0.000000
0.880000 0.752000 0.000000
0.884615 0.753846 0.000000
0.889231 0.755692 0.000000
0.893846 0.757538 0.000000
0.898462 0.759385 0.000000
0.903077 0.761231 0.000000
0.907692 0.763077 0.000000
0.912308 0.764923 0.000000
0.916923 0.766769 0.000000
0.921538 0.768615 0.000000
0.926154 0.770462 0.000000
0.930769 0.772308 0.000000
[...]
POINT_DATA 6352
SCALARS UX float 1
LOOKUP_TABLE default
-0.000000
0.000000
0.552229
0.460646
-0.678081
-0.503224
-0.333135
0.263074
-0.000000
-0.000000
-0.000000
-0.000000
-0.000000
-0.000000
-0.000000
-0.000000
-0.000000
-0.000000
-0.000000
0.000000
0.000000
0.000000
0.000000
0.000000
0.000000
0.000000
-0.000000
0.185921
0.289424
0.366558
0.426467
0.474558
0.516086
0.551733
0.582663
0.609940
0.633513
0.653722
0.670708
0.684783
0.695853
0.704089
0.709435
0.712148
0.712470
0.710601
0.706884
0.701509
0.694883
0.687109
0.678834
0.669750
0.660525
0.651196
0.641885
0.632642
0.623810
0.615307
0.607153
0.599401
0.592076
0.585218
0.578746
0.572663
0.566979
0.561715
0.556797
0.547728
0.542253
0.535798
0.527957
0.518776
0.508709
0.497233
0.485215
0.473839
0.464754
0.392516
0.327459
0.265666
0.206066
0.151992
0.101359
0.054213
0.008243
-0.039075
-0.089181
-0.142132
-0.197561
-0.255778
-0.315035
-0.374985
-0.435670
-0.496095
-0.556363
-0.616883
-0.680786
-0.686174
-0.695050
-0.706031
-0.718880
-0.732294
-0.745924
-0.759162
-0.771465
-0.782605
-0.791965
-0.799049
-0.804149
-0.806605
-0.806452
-0.804635
-0.799599
-0.792591
-0.783766
-0.772775
-0.760581
-0.747388
-0.733007
-0.718215
-0.703090
-0.687785
-0.672533
-0.657425
-0.642623
-0.628148
-0.614256
-0.600781
-0.587846
-0.575433
-0.563577
-0.552264
-0.541451
-0.531161
-0.521360
-0.512058
-0.494246
-0.483151
-0.469283
-0.451984
-0.430408
-0.403385
-0.369706
-0.328261
-0.267830
-0.180165
-0.321990
-0.317807
-0.313450
-0.312541
-0.305895
-0.303704
-0.301950
-0.292827
-0.287910
-0.291774
-0.286823
-0.286336
-0.284425
-0.276866
-0.272548
-0.268687
-0.260804
-0.260276
-0.254875
-0.242858
-0.248461
-0.240397
-0.229010
-0.224277
-0.218461
-0.211226
-0.197418
-0.190944
-0.177732
-0.184258
-0.173781
-0.171353
-0.161983
-0.154663
-0.154299
-0.144376
-0.140583
-0.143869
-0.136366
-0.130910
-0.118768
-0.115460
-0.109569
-0.102237
-0.085111
-0.078646
-0.082929
-0.078038
-0.071825
-0.069420
-0.064684
-0.062120
-0.058882
-0.052312
-0.043851
-0.042790
-0.037978
-0.031722
-0.018163
-0.020648
-0.016473
-0.006935
0.002290
0.004752
0.014597
0.027341
0.032604
0.042506
0.053816
0.042319
0.053485
0.059924
0.060024
0.059080
0.063839
0.068688
0.073510
0.081236
0.085825
0.090157
0.089158
0.090324
0.094753
0.097303
0.093157
0.095441
0.104061
0.109995
0.117293
0.120554
0.124133
0.127758
0.135422
0.139618
0.145395
0.148236
0.159185
0.159676
0.169619
0.182265
0.197713
0.206215
0.223877
0.231684
0.238398
0.249442
-0.501195
-0.499176
-0.497173
-0.495161
-0.493154
-0.491140
-0.489106
-0.487069
-0.485024
-0.482974
-0.480899
-0.478811
-0.476727
-0.474630
-0.472504
-0.470374
-0.468246
-0.466111
-0.463969
-0.461805
-0.459643
-0.457475
-0.455287
-0.453099
-0.450905
-0.448706
-0.446506
-0.444309
-0.442132
-0.439940
-0.437765
-0.435609
-0.433437
-0.431302
-0.429173
-0.427065
-0.424970
-0.422892
-0.420840
-0.418775
-0.416651
-0.414360
-0.412050
-0.409729
-0.407467
-0.405276
-0.403117
-0.400976
-0.398848
-0.396869
-0.395049
-0.393096
-0.391188
-0.389500
-0.387911
-0.386620
-0.385323
-0.383565
-0.382019
-0.381026
-0.379539
-0.377743
-0.375655
-0.369575
-0.358457
0.292335
0.308121
0.317028
0.323439
0.327451
0.330667
0.333824
0.337231
0.340174
0.343196
0.346437
0.349511
0.352718
0.356153
0.359612
0.363065
0.366630
0.370357
0.374067
0.377831
0.381614
0.385465
0.389274
0.393175
0.397125
0.400839
0.404505
0.408174
0.411880
0.415603
0.419343
0.423059
0.426820
0.430597
0.434384
0.438191
0.441998
0.445830
0.449676
0.453502
0.457333
0.461197
0.465052
0.468904
0.472778
0.476631
0.480491
0.484349
0.488213
0.492091
0.495978
0.499858
0.503747
0.507666
0.511578
0.515513
0.519458
0.523427
0.527444
0.531453
0.535517
0.539610
0.543752
0.547949
0.379279
0.374252
0.386169
0.368440
0.019420
0.011040
0.025051
0.008187
-0.348904
-0.350398
-0.327878
-0.339323
-0.313104
-0.346052
-0.631416
-0.616946
-0.620600
-0.608965
-0.345373
-0.114710
-0.099883
-0.099025
-0.083217
0.156032
0.154521
0.179120
0.126545
-0.146132
-0.154737
-0.138939
0.026957
0.045446
0.023891
0.048526
0.529400
0.512299
0.540484
0.511625
-0.068045
-0.098538
-0.063496
-0.105735
-0.583250
-0.581408
-0.597414
-0.474923
-0.475098
-0.464122
-0.502750
-0.501991
-0.512334
0.416282
0.453508
0.430209
0.446008
0.104355
0.103156
0.119281
-0.068971
-0.084791
0.000724
0.549615
0.564850
0.566068
-0.117589
-0.141956
-0.141999
-0.426273
-0.391530
-0.375611
0.445173
0.449545
0.440181
-0.122742
-0.494988
-0.495324
-0.481293
-0.064148
-0.067335
-0.079903
-0.051114
0.347080
0.341792
0.340749
0.040130
0.024665
-0.016449
0.345177
0.424637
0.430945
0.422193
0.202193
0.181961
0.208610
0.429182
0.431918
0.417452
0.313176
0.308069
0.317189
0.150531
0.129416
0.147441
0.305001
-0.006981
0.009847
0.017223
0.188166
-0.481816
-0.487893
-0.487594
-0.001919
0.397826
0.389621
0.397505
-0.208088
-0.214175
-0.189274
0.486553
0.478575
0.479611
0.471610
0.477812
0.470240
-0.277469
-0.317619
-0.273549
-0.307817
-0.112762
-0.099038
-0.097119
0.393424
0.437301
-0.080655
-0.697515
-0.678794
-0.681412
-0.514099
-0.523670
-0.510933
0.183600
0.228878
0.240722
-0.664606
0.443752
0.438537
0.442057
0.436630
0.086993
0.101847
0.115308
0.264122
-0.377943
-0.384951
-0.378845
0.125702
0.118694
0.123814
0.114178
0.495572
0.489778
0.485076
0.139605
0.403485
0.385535
0.395436
-0.668882
-0.658327
-0.647325
0.481954
0.485464
0.478898
0.477051
-0.511852
-0.503572
-0.516910
-0.508487
-0.038763
-0.027466
-0.025910
0.479402
-0.413076
-0.435525
-0.368899
-0.038013
-0.370290
-0.353827
-0.396392
-0.319929
0.525757
0.548909
-0.400855
0.520793
-0.490889
-0.491503
-0.488027
-0.493784
-0.174352
-0.176019
-0.194361
0.162068
-0.386236
-0.311205
-0.432684
-0.428764
-0.433981
-0.427979
0.370102
0.369517
0.364976
0.365271
-0.494791
-0.488376
-0.154614
-0.461327
-0.456929
-0.461335
-0.455594
0.067920
0.065415
0.075693
0.501946
0.504677
0.492792
0.058359
0.513438
-0.293649
-0.269926
-0.249482
0.479841
0.476795
0.467654
-0.241124
-0.206787
-0.208759
-0.220501
0.488293
-0.219390
-0.458385
-0.464560
-0.452320
-0.205490
-0.194687
-0.195282
-0.455656
0.389689
0.389794
0.378244
0.303426
0.299085
0.305988
-0.194238
-0.204645
-0.177033
-0.262994
-0.246414
-0.251955
0.400816
0.405384
0.403349
0.404793
0.139455
0.124039
0.129564
0.299529
0.381168
0.269768
0.270572
0.262027
0.390496
0.405973
0.395749
0.412431
0.476436
0.478717
0.472977
0.475248
0.638645
0.627092
0.619842
-0.344329
-0.336456
-0.323752
-0.363078
0.605553
0.245368
0.258597
0.246838
-0.290929
-0.281497
-0.286129
0.410372
0.404121
0.411294
0.626028
0.650734
0.404003
-0.737278
-0.759796
-0.739436
0.552734
0.543457
0.543881
0.534464
-0.154341
-0.122119
0.415803
0.418647
0.414776
-0.233659
-0.226224
-0.246100
-0.231416
0.463356
-0.282938
0.448421
0.455055
-0.299627
-0.310718
-0.307269
-0.471352
-0.460399
-0.475073
-0.458431
-0.515817
-0.529569
-0.526874
-0.540617
-0.502353
-0.502577
-0.490060
-0.498920
-0.489610
-0.493510
-0.556174
-0.544740
-0.560122
-0.486243
0.099073
0.089206
0.088661
0.279765
0.276819
-0.566072
-0.562897
-0.557885
-0.572896
-0.503971
-0.507914
-0.506158
-0.511696
-0.416486
-0.423758
-0.422753
-0.429360
-0.626033
-0.626301
-0.639306
-0.490991
-0.617182
0.296559
0.287114
0.325317
-0.183770
-0.202316
-0.147943
-0.219547
0.511831
0.517929
0.509988
0.522233
-0.532201
-0.548236
0.385231
0.389403
0.369121
-0.424080
-0.424690
0.375690
0.491484
0.501549
0.502011
0.512170
0.481250
0.480683
0.470685
-0.428203
0.166350
0.149661
0.159418
0.135922
0.464115
0.451469
0.466678
-0.484980
-0.466328
-0.476196
-0.453024
0.541902
0.545796
0.553304
0.533688
-0.753951
-0.743070
-0.727710
-0.712460
-0.476014
-0.489636
0.299623
0.310106
0.285384
0.285292
-0.407466
-0.381475
-0.366662
-0.349325
0.460630
0.473391
0.481627
0.490105
0.472818
0.188333
0.207820
0.171668
0.525740
0.531497
0.540981
-0.030704
-0.049429
0.011731
0.436368
0.421543
0.437950
0.419741
0.519103
0.508464
0.504362
-0.038049
-0.026176
-0.490957
-0.493432
-0.484037
0.055214
0.053545
0.073495
0.398837
0.398131
-0.501457
-0.494064
-0.485688
-0.481241
-0.464522
-0.468190
-0.460378
0.534266
0.149662
0.124521
0.149026
0.558175
-0.395288
-0.403414
-0.400203
0.228001
0.223440
0.196063
-0.469108
0.049166
0.015965
0.199053
-0.409525
-0.468016
-0.479655
-0.480554
-0.043777
-0.050891
-0.078096
0.428704
0.432921
0.421535
-0.266319
-0.251686
-0.446808
-0.439788
0.098744
0.114147
0.080403
-0.448004
0.070757
0.090834
0.094089
0.113850
-0.513792
-0.509797
-0.505927
-0.517707
-0.418174
-0.432412
-0.431880
-0.449483
-0.348729
-0.357788
-0.370741
0.413836
0.425169
0.426427
-0.017533
-0.033826
-0.015834
-0.559585
-0.570134
-0.325439
0.422220
-0.433099
-0.431664
-0.446312
-0.417456
-0.781220
-0.766945
-0.755013
-0.750271
0.035441
0.053380
0.032246
-0.345557
-0.325814
-0.344870
-0.322838
-0.570962
-0.541111
-0.538767
0.377338
0.389959
0.385551
-0.363859
-0.348817
-0.492845
-0.492181
-0.499548
0.283001
0.306298
0.307549
-0.496708
-0.362892
-0.381044
-0.377650
0.452444
0.462679
0.462502
0.200474
0.173153
0.279861
-0.367799
-0.373979
-0.367721
-0.458771
-0.474160
-0.467613
-0.460393
-0.469504
-0.457358
-0.468850
-0.473463
-0.458205
0.038201
0.059025
0.049273
0.026956
0.044453
0.054928
-0.389782
-0.463508
-0.526652
-0.521357
-0.524439
-0.022747
-0.024058
-0.040205
-0.005313
-0.030854
-0.011762
-0.025723
0.000569
-0.519491
-0.516872
-0.510976
-0.510075
0.119700
0.155712
0.092827
0.466071
0.459819
0.475448
0.455190
-0.484357
-0.488942
-0.484572
-0.408415
-0.386994
-0.406335
-0.488351
-0.429527
-0.444063
-0.441849
0.511524
0.478417
0.504808
0.474901
-0.504663
-0.504194
-0.510333
0.476599
0.480550
0.487451
0.403812
0.408605
0.405831
0.406335
-0.636187
-0.624324
-0.613831
-0.467400
-0.468584
-0.478457
-0.478446
0.466310
0.465019
0.473113
-0.143075
-0.142359
-0.154138
0.350008
0.348143
0.360608
0.358572
0.358466
0.347724
0.351691
-0.051344
-0.034636
-0.035689
0.042517
0.060057
0.054084
-0.051840
-0.519683
-0.527925
-0.515918
0.068387
0.053325
0.067570
-0.141294
-0.133004
-0.538942
-0.537222
-0.530878
0.529195
0.537253
0.528422
-0.527272
-0.131442
0.377338
0.353540
0.364835
-0.443457
-0.450661
-0.459341
-0.359350
-0.368309
-0.440390
-0.440786
-0.451119
0.436594
0.448424
0.447409
-0.494779
-0.491598
-0.507494
-0.505913
-0.493654
-0.492831
-0.487884
-0.495384
-0.131674
-0.146527
-0.147523
-0.134805
0.414206
0.415146
0.426853
0.403487
0.426655
0.438873
0.488383
0.498238
0.500020
0.622187
0.636871
0.630945
0.512405
0.426846
0.427033
0.436145
0.436833
0.433534
-0.383844
-0.382207
0.371169
-0.070941
-0.066833
-0.080690
-0.087071
-0.423381
-0.442390
-0.439169
-0.359994
0.447966
0.448834
0.440794
0.440558
-0.520600
-0.521329
-0.503423
0.003337
0.015723
0.017482
0.252083
0.260296
0.277670
0.210074
-0.414357
-0.376064
-0.405215
0.510020
0.497540
0.499588
0.334647
0.336698
0.313407
-0.332376
-0.465720
-0.440615
-0.450114
0.477317
0.492217
0.489469
-0.454607
-0.080396
-0.461362
-0.471991
-0.455469
-0.475036
0.025336
0.002605
0.479964
0.493584
-0.659547
-0.649748
-0.017202
-0.001184
-0.002888
0.016288
-0.100811
-0.117256
-0.118511
0.018005
0.036234
0.038352
0.365532
0.386373
0.377682
0.016819
-0.353064
-0.368731
-0.347713
0.531118
0.539237
0.544194
0.116774
0.134008
0.135687
-0.343257
-0.307749
-0.308610
-0.497305
-0.494268
-0.489130
0.373135
0.371457
0.387086
0.485436
0.495439
0.496806
0.508683
0.357386
-0.499265
-0.504483
-0.507588
-0.203184
-0.218836
-0.208393
0.438248
0.446739
0.440086
0.452532
0.429337
0.430593
0.417291
-0.400961
-0.420773
-0.416459
0.284180
-0.650274
-0.630787
-0.646541
-0.508330
-0.378523
-0.377347
-0.361997
-0.469866
-0.458344
-0.476458
-0.359763
0.447150
0.463852
-0.202588
-0.241099
-0.234935
-0.262392
-0.278565
-0.292083
-0.402061
-0.416795
-0.418118
-0.428219
-0.306652
0.296293
0.302579
0.307333
-0.584904
-0.595815
-0.591014
-0.446857
-0.448424
-0.433533
-0.487738
-0.491891
-0.492026
-0.496413
0.452996
0.552854
0.532635
0.552645
0.539845
-0.440172
-0.443910
-0.451584
0.548532
-0.464052
-0.457264
-0.063318
-0.048545
0.390003
0.392558
0.386691
0.419637
0.420820
0.429177
0.388508
0.439227
0.437025
-0.519669
-0.533191
-0.530906
-0.543658
-0.343560
-0.338968
-0.346994
0.162785
0.147782
0.132391
0.306800
0.298864
0.326229
-0.179139
-0.159248
-0.164102
-0.174978
0.306477
0.464202
0.464771
0.458945
0.095074
0.088502
0.104252
-0.170400
-0.166178
-0.204905
-0.519631
-0.529278
-0.516249
-0.357300
-0.526099
0.460169
-0.117740
-0.115919
-0.100584
0.089506
0.104929
0.102760
-0.290232
-0.276880
-0.257152
-0.245605
-0.511878
-0.521106
0.391290
0.407318
0.402200
0.352432
0.343150
0.379159
0.381201
-0.522584
-0.536221
-0.534710
-0.551398
0.403194
0.411578
0.414037
0.405782
-0.480224
-0.436709
-0.456202
0.409624
0.412428
0.419858
-0.476680
0.433793
0.426081
0.426174
0.442773
-0.427630
-0.431112
-0.425820
-0.429035
-0.431400
-0.442962
-0.457456
-0.451262
-0.471967
-0.477786
-0.487490
-0.465236
0.278286
0.284480
0.277406
0.460481
0.462148
0.471324
-0.394552
-0.398122
-0.388033
0.454196
-0.381651
-0.377625
-0.387633
-0.465064
-0.477298
-0.467725
0.523339
0.519141
-0.495614
-0.504015
-0.484506
-0.492017
0.096859
0.085908
0.079263
-0.482879
0.273088
0.279312
0.283984
0.181230
0.151942
0.159245
0.094106
0.093246
0.107172
-0.567842
-0.555447
-0.552832
0.124376
0.515648
0.525738
0.513763
0.076403
0.070804
0.049954
-0.106021
-0.119416
-0.123546
-0.105214
0.037843
0.021957
-0.385207
-0.383593
-0.376416
-0.043805
-0.036101
-0.027684
0.374374
0.383724
-0.158170
-0.171476
-0.186431
-0.022012
-0.373437
0.001204
0.012692
-0.428552
-0.442137
-0.436122
-0.447046
-0.543247
-0.573015
-0.577731
-0.537450
-0.379257
-0.393408
-0.380115
0.144525
0.138627
0.159012
-0.390756
-0.378237
-0.479567
-0.487959
-0.360556
0.359406
0.356240
0.352700
0.363554
0.244416
0.226782
0.226340
0.243045
0.208158
0.230715
0.209963
-0.521300
-0.536679
-0.532446
0.533946
0.531555
0.376355
0.382730
0.390930
0.397683
-0.521275
-0.510040
-0.497421
-0.499231
-0.497758
-0.487468
-0.487503
-0.446995
-0.440953
-0.447040
-0.438565
-0.391582
-0.367667
-0.407585
-0.408140
-0.426855
0.326609
0.319292
0.333797
0.327185
-0.594747
-0.566806
-0.584792
0.326786
0.315608
0.524146
0.317375
-0.611415
-0.625849
-0.619536
0.526553
0.362524
0.306564
0.320538
-0.635208
0.321983
-0.547230
-0.473255
-0.104010
-0.093805
-0.085340
-0.477146
-0.433199
-0.438486
-0.439297
-0.444282
-0.390345
-0.385402
-0.403895
-0.388421
0.504495
0.501803
0.510323
0.503332
-0.423565
-0.430886
-0.424097
-0.433624
0.388637
0.391450
0.405991
0.402919
-0.416625
-0.419843
-0.496204
-0.492045
0.368922
0.361629
0.370894
0.362295
0.366206
0.354879
-0.452191
-0.453280
-0.219448
-0.210306
-0.227264
-0.209332
0.367165
-0.374504
-0.387273
-0.397094
-0.348093
-0.030170
-0.018872
-0.019050
0.333019
0.313105
-0.008965
-0.345791
-0.347288
-0.333706
-0.338377
-0.127061
-0.140119
-0.030154
-0.047122
0.301595
0.292461
-0.051759
-0.451800
-0.429680
-0.438376
-0.400862
0.403071
0.416933
0.413688
0.427905
0.227443
0.249753
0.366597
0.366104
0.381721
-0.451370
-0.437603
-0.438181
0.480476
0.479308
0.489876
0.271366
0.273703
0.490639
0.384998
0.351036
0.395007
0.010052
0.012111
0.025980
0.294127
-0.397576
-0.405345
0.299721
0.314396
0.322346
0.419183
0.412390
0.422581
-0.602711
-0.608285
0.410773
-0.535745
-0.544227
-0.533698
0.459817
0.446201
0.239898
0.218114
0.257518
-0.476524
-0.474785
-0.479461
-0.477166
-0.512177
-0.507651
-0.257780
-0.255129
-0.291418
-0.434475
-0.439150
-0.448485
-0.452331
-0.367015
-0.366643
0.125428
0.142044
0.120167
0.394475
0.398702
0.326594
0.337792
0.321682
0.394777
0.398271
0.391825
0.394906
-0.136169
-0.113799
-0.105797
-0.403628
-0.423549
-0.415965
-0.442984
-0.384381
-0.393189
-0.368523
0.354820
0.366009
0.369438
0.357385
0.627906
0.612634
0.620296
-0.439498
-0.444294
-0.442947
-0.227607
-0.251617
-0.234671
-0.442550
-0.380478
-0.362333
-0.373181
-0.372388
-0.114775
-0.100070
-0.098620
-0.394462
-0.420705
-0.599460
-0.587189
-0.594534
0.456076
0.451594
0.464654
-0.417044
0.478175
-0.429933
-0.427708
0.331937
0.346195
0.337756
0.342614
0.347234
0.318856
0.337901
0.596968
0.582657
0.586336
0.573461
0.535987
0.543848
0.543706
-0.510242
-0.511592
-0.516122
0.551934
-0.516349
-0.502998
-0.500091
-0.381767
-0.360817
-0.397219
-0.299974
-0.265028
-0.277680
0.521440
0.521312
0.513991
0.509242
-0.296034
0.323311
0.318142
0.369071
0.313387
0.307401
0.314119
0.306683
-0.308615
-0.313873
-0.301741
-0.320127
-0.374170
-0.365088
-0.360524
0.238816
0.233833
0.223019
0.219847
-0.449317
-0.454890
-0.453208
0.576180
-0.459319
0.563216
-0.444986
-0.436126
-0.311607
-0.295918
0.012393
-0.008386
-0.263919
-0.257013
-0.239670
0.121899
0.113096
-0.519235
-0.530591
-0.528129
-0.542008
0.105111
0.121215
0.111455
0.150700
0.150965
0.160974
0.347260
0.352681
0.334240
0.369046
-0.250761
-0.316985
-0.117210
-0.138467
-0.123241
-0.140631
0.068762
0.079240
0.101710
0.095771
0.091629
0.086216
0.265801
0.275128
0.280054
0.095220
0.054857
0.054419
0.262992
-0.081790
-0.096496
-0.078079
-0.092488
0.291266
0.285420
0.239036
0.297492
-0.460536
-0.442691
-0.448870
-0.427174
-0.624066
-0.628332
-0.645552
-0.612153
0.087955
0.407649
0.403232
0.403908
0.399355
-0.612498
-0.603925
0.398785
-0.584845
-0.410267
-0.408997
-0.416652
-0.413816
-0.367381
-0.356185
-0.376096
0.336405
-0.079127
-0.080386
-0.098441
-0.344770
-0.336150
0.353375
0.348431
0.350581
-0.389335
-0.395043
0.475054
0.461034
0.466577
0.600359
0.587843
-0.402158
-0.380843
-0.612174
-0.604866
-0.317445
-0.313262
-0.322175
-0.306842
-0.004006
-0.017667
-0.000470
-0.018352
-0.373693
-0.324408
-0.329715
0.083110
-0.332596
-0.418923
-0.410322
-0.410391
-0.002186
-0.018530
-0.179706
-0.161714
-0.173811
-0.154108
0.352583
0.358743
0.350387
0.360477
0.419218
0.419987
0.422815
0.415141
-0.152734
-0.163193
-0.171026
0.219423
0.212752
0.226034
-0.085626
-0.107447
0.208030
-0.336321
-0.333613
-0.605559
-0.571396
-0.325819
-0.342530
-0.594994
-0.341313
0.658739
0.676882
0.667948
0.582805
0.364799
0.378890
0.387613
-0.462748
-0.443402
-0.457191
-0.224772
-0.226218
-0.234307
-0.233433
0.537903
0.409531
0.415320
0.417074
-0.490451
-0.587325
-0.583353
-0.577867
-0.593565
0.450776
0.456140
-0.598045
-0.605491
-0.597304
-0.195367
0.436201
0.444935
0.452368
0.504263
0.491631
0.499723
0.444189
-0.302011
-0.311593
-0.306973
-0.308452
-0.219714
-0.211532
-0.217524
-0.539398
-0.552355
0.595788
0.584573
0.569526
-0.342726
-0.330291
-0.314045
0.609765
0.619052
0.608618
0.013892
-0.002223
-0.298691
-0.206861
-0.235536
-0.222891
-0.199181
0.365459
0.340413
0.374784
-0.063504
-0.091689
-0.132568
0.113266
0.124666
0.117909
-0.244590
-0.231973
-0.229931
0.140093
0.129509
0.145325
0.133973
0.090536
0.107027
-0.214729
-0.215592
-0.192934
-0.194394
-0.650739
-0.670925
-0.639068
-0.689324
-0.432782
-0.444986
-0.434616
-0.638320
-0.409330
0.273850
0.268769
0.278530
0.268372
0.401448
0.622007
0.606302
0.397039
0.526747
0.533603
0.122609
0.136948
0.400270
-0.193208
0.392938
0.335846
0.332124
0.338384
0.519253
0.519851
0.463617
0.449859
0.501640
0.490686
0.547365
0.559329
0.336381
0.503653
0.342842
0.337805
0.201410
0.196453
0.206601
-0.690424
-0.689233
-0.701857
-0.676919
0.190618
0.408220
0.399446
0.384884
0.395296
0.407648
-0.393854
-0.401131
-0.602514
-0.586939
-0.386683
-0.523658
-0.457492
0.384113
0.385538
0.388150
0.380909
0.391649
0.572337
0.584103
0.109456
0.111314
0.388923
0.378240
0.387544
0.375673
0.384001
-0.452061
-0.426985
-0.210231
-0.211324
-0.447563
-0.444614
-0.484495
-0.533010
-0.241656
-0.224560
-0.532436
-0.527843
-0.539563
-0.524831
0.052357
0.059686
-0.442617
-0.429860
-0.431848
-0.458656
-0.454953
-0.110938
-0.209516
-0.450737
-0.448397
-0.461028
-0.463824
0.399405
0.410040
-0.464776
0.379657
0.380015
0.384501
0.370308
-0.334894
0.536308
-0.505691
-0.514090
-0.338567
-0.331579
-0.315600
0.085653
0.103975
0.104329
-0.494642
-0.496853
-0.002891
0.004330
0.013142
0.468550
0.469680
0.462177
0.465285
0.406312
0.410578
0.405025
0.412175
0.399948
0.386674
0.381077
-0.459123
-0.457115
0.323090
0.323757
0.329349
-0.031810
-0.007128
-0.026172
-0.017331
0.318128
-0.596016
-0.613476
0.610576
0.619905
-0.478017
-0.465518
-0.670117
-0.655101
-0.650760
0.433665