# vtk DataFile Version 2.0
Test
ASCII
DATASET POLYDATA
POINTS 6352 float
0.000000 0.000000 0.000000
1.000000 0.000000 0.000000
1.000000 0.800000 0.000000
1.000000 1.000000 0.000000
0.000000 1.000000 0.000000
0.000000 0.200000 0.000000
0.300000 0.330000 0.000000
0.700000 0.680000 0.000000
0.050000 0.000000 0.000000
0.100000 0.000000 0.000000
0.150000 0.000000 0.000000
0.200000 0.000000 0.000000
0.250000 0.000000 0.000000
0.300000 0.000000 0.000000
0.350000 0.000000 0.000000
0.400000 0.000000 0.000000
0.450000 0.000000 0.000000
0.500000 0.000000 0.000000
0.550000 0.000000 0.000000
0.600000 0.000000 0.000000
0.650000 0.000000 0.000000
0.700000 0.000000 0.000000
0.750000 0.000000 0.000000
0.800000 0.000000 0.000000
0.850000 0.000000 0.000000
0.900000 0.000000 0.000000
0.950000 0.000000 0.000000
1.000000 0.048545 0.000000
1.000000 0.094438 0.000000
1.000000 0.137825 0.000000
1.000000 0.178843 0.000000
1.000000 0.217620 0.000000
1.000000 0.254280 0.000000
1.000000 0.288938 0.000000
1.000000 0.321703 0.000000
1.000000 0.352678 0.000000
1.000000 0.381962 0.000000
1.000000 0.409647 0.000000
1.000000 0.435820 0.000000
1.000000 0.460563 0.000000
1.000000 0.483955 0.000000
1.000000 0.506070 0.000000
1.000000 0.526976 0.000000
1.000000 0.546741 0.000000
1.000000 0.565427 0.000000
1.000000 0.583092 0.000000
1.000000 0.599793 0.000000
1.000000 0.615581 0.000000
1.000000 0.630507 0.000000
1.000000 0.644618 0.000000
1.000000 0.657958 0.000000
1.000000 0.670570 0.000000
1.000000 0.682493 0.000000
1.000000 0.693765 0.000000
1.000000 0.704421 0.000000
1.000000 0.714495 0.000000
1.000000 0.724019 0.000000
1.000000 0.733023 0.000000
1.000000 0.741536 0.000000
1.000000 0.749583 0.000000
1.000000 0.757191 0.000000
1.000000 0.764383 0.000000
1.000000 0.771183 0.000000
1.000000 0.777611 0.000000
1.000000 0.783688 0.000000
1.000000 0.789434 0.000000
1.000000 0.794865 0.000000
1.000000 0.805174 0.000000
1.000000 0.811554 0.000000
1.000000 0.819418 0.000000
1.000000 0.829114 0.000000
1.000000 0.841067 0.000000
1.000000 0.855804 0.000000
1.000000 0.873972 0.000000
1.000000 0.896371 0.000000
1.000000 0.923985 0.000000
1.000000 0.958029 0.000000
0.950000 1.000000 0.000000
0.900000 1.000000 0.000000
0.850000 1.000000 0.000000
0.800000 1.000000 0.000000
0.750000 1.000000 0.000000
0.700000 1.000000 0.000000
0.650000 1.000000 0.000000
0.600000 1.000000 0.000000
0.550000 1.000000 0.000000
0.500000 1.000000 0.000000
0.450000 1.000000 0.000000
0.400000 1.000000 0.000000
0.350000 1.000000 0.000000
0.300000 1.000000 0.000000
0.250000 1.000000 0.000000
0.200000 1.000000 0.000000
0.150000 1.000000 0.000000
0.100000 1.000000 0.000000
0.050000 1.000000 0.000000
0.000000 0.951455 0.000000
0.000000 0.905562 0.000000
0.000000 0.862175 0.000000
0.000000 0.821157 0.000000
0.000000 0.782380 0.000000
0.000000 0.745720 0.000000
0.000000 0.711062 0.000000
0.000000 0.678297 0.000000
0.000000 0.647322 0.000000
0.000000 0.618038 0.000000
0.000000 0.590353 0.000000
0.000000 0.564180 0.000000
0.000000 0.539437 0.000000
0.000000 0.516045 0.000000
0.000000 0.493930 0.000000
0.000000 0.473024 0.000000
0.000000 0.453259 0.000000
0.000000 0.434573 0.000000
0.000000 0.416908 0.000000
0.000000 0.400207 0.000000
0.000000 0.384419 0.000000
0.000000 0.369493 0.000000
0.000000 0.355382 0.000000
0.000000 0.342042 0.000000
0.000000 0.329430 0.000000
0.000000 0.317507 0.000000
0.000000 0.306235 0.000000
0.000000 0.295579 0.000000
0.000000 0.285505 0.000000
0.000000 0.275981 0.000000
0.000000 0.266977 0.000000
0.000000 0.258464 0.000000
0.000000 0.250417 0.000000
0.000000 0.242809 0.000000
0.000000 0.235617 0.000000
0.000000 0.228817 0.000000
0.000000 0.222389 0.000000
0.000000 0.216312 0.000000
0.000000 0.210566 0.000000
0.000000 0.205135 0.000000
0.000000 0.194826 0.000000
0.000000 0.188446 0.000000
0.000000 0.180582 0.000000
0.000000 0.170886 0.000000
0.000000 0.158933 0.000000
0.000000 0.144196 0.000000
0.000000 0.126028 0.000000
0.000000 0.103629 0.000000
0.000000 0.076015 0.000000
0.000000 0.041971 0.000000
0.303738 0.333271 0.000000
0.307477 0.336542 0.000000
0.311215 0.339813 0.000000
0.314953 0.343084 0.000000
0.318692 0.346355 0.000000
0.322430 0.349626 0.000000
0.326168 0.352897 0.000000
0.329907 0.356168 0.000000
0.333645 0.359439 0.000000
0.337383 0.362710 0.000000
0.341121 0.365981 0.000000
0.344860 0.369252 0.000000
0.348598 0.372523 0.000000
0.352336 0.375794 0.000000
0.356075 0.379065 0.000000
0.359813 0.382336 0.000000
0.363551 0.385607 0.000000
0.367290 0.388879 0.000000
0.371028 0.392150 0.000000
0.374766 0.395421 0.000000
0.378505 0.398692 0.000000
0.382243 0.401963 0.000000
0.385981 0.405234 0.000000
0.389720 0.408505 0.000000
0.393458 0.411776 0.000000
0.397196 0.415047 0.000000
0.400935 0.418318 0.000000
0.404673 0.421589 0.000000
0.408411 0.424860 0.000000
0.412150 0.428131 0.000000
0.415888 0.431402 0.000000
0.419626 0.434673 0.000000
0.423364 0.437944 0.000000
0.427103 0.441215 0.000000
0.430841 0.444486 0.000000
0.434579 0.447757 0.000000
0.438318 0.451028 0.000000
0.442056 0.454299 0.000000
0.445794 0.457570 0.000000
0.449533 0.460841 0.000000
0.453271 0.464112 0.000000
0.457009 0.467383 0.000000
0.460748 0.470654 0.000000
0.464486 0.473925 0.000000
0.468224 0.477196 0.000000
0.471963 0.480467 0.000000
0.475701 0.483738 0.000000
0.479439 0.487009 0.000000
0.483178 0.490280 0.000000
0.486916 0.493551 0.000000
0.490654 0.496822 0.000000
0.494393 0.500093 0.000000
0.498131 0.503364 0.000000
0.501869 0.506636 0.000000
0.505607 0.509907 0.000000
0.509346 0.513178 0.000000
0.513084 0.516449 0.000000
0.516822 0.519720 0.000000
0.520561 0.522991 0.000000
0.524299 0.526262 0.000000
0.528037 0.529533 0.000000
0.531776 0.532804 0.000000
0.535514 0.536075 0.000000
0.539252 0.539346 0.000000
0.542991 0.542617 0.000000
0.546729 0.545888 0.000000
0.550467 0.549159 0.000000
0.554206 0.552430 0.000000
0.557944 0.555701 0.000000
0.561682 0.558972 0.000000
0.565421 0.562243 0.000000
0.569159 0.565514 0.000000
0.572897 0.568785 0.000000
0.576636 0.572056 0.000000
0.580374 0.575327 0.000000
0.584112 0.578598 0.000000
0.587850 0.581869 0.000000
0.591589 0.585140 0.000000
0.595327 0.588411 0.000000
0.599065 0.591682 0.000000
0.602804 0.594953 0.000000
0.606542 0.598224 0.000000
0.610280 0.601495 0.000000
0.614019 0.604766 0.000000
0.617757 0.608037 0.000000
0.621495 0.611308 0.000000
0.625234 0.614579 0.000000
0.628972 0.617850 0.000000
0.632710 0.621121 0.000000
0.636449 0.624393 0.000000
0.640187 0.627664 0.000000
0.643925 0.630935 0.000000
0.647664 0.634206 0.000000
0.651402 0.637477 0.000000
0.655140 0.640748 0.000000
0.658879 0.644019 0.000000
0.662617 0.647290 0.000000
0.666355 0.650561 0.000000
0.670093 0.653832 0.000000
0.673832 0.657103 0.000000
0.677570 0.660374 0.000000
0.681308 0.663645 0.000000
0.685047 0.666916 0.000000
0.688785 0.670187 0.000000
0.692523 0.673458 0.000000
0.696262 0.676729 0.000000
0.004545 0.201970 0.000000
0.009091 0.203939 0.000000
0.013636 0.205909 0.000000
0.018182 0.207879 0.000000
0.022727 0.209848 0.000000
0.027273 0.211818 0.000000
0.031818 0.213788 0.000000
0.036364 0.215758 0.000000
0.040909 0.217727 0.000000
0.045455 0.219697 0.000000
0.050000 0.221667 0.000000
0.054545 0.223636 0.000000
0.059091 0.225606 0.000000
0.063636 0.227576 0.000000
0.068182 0.229545 0.000000
0.072727 0.231515 0.000000
0.077273 0.233485 0.000000
0.081818 0.235455 0.000000
0.086364 0.237424 0.000000
0.090909 0.239394 0.000000
0.095455 0.241364 0.000000
0.100000 0.243333 0.000000
0.104545 0.245303 0.000000
0.109091 0.247273 0.000000
0.113636 0.249242 0.000000
0.118182 0.251212 0.000000
0.122727 0.253182 0.000000
0.127273 0.255152 0.000000
0.131818 0.257121 0.000000
0.136364 0.259091 0.000000
0.140909 0.261061 0.000000
0.145455 0.263030 0.000000
0.150000 0.265000 0.000000
0.154545 0.266970 0.000000
0.159091 0.268939 0.000000
0.163636 0.270909 0.000000
0.168182 0.272879 0.000000
0.172727 0.274848 0.000000
0.177273 0.276818 0.000000
0.181818 0.278788 0.000000
0.186364 0.280758 0.000000
0.190909 0.282727 0.000000
0.195455 0.284697 0.000000
0.200000 0.286667 0.000000
0.204545 0.288636 0.000000
0.209091 0.290606 0.000000
0.213636 0.292576 0.000000
0.218182 0.294545 0.000000
0.222727 0.296515 0.000000
0.227273 0.298485 0.000000
0.231818 0.300455 0.000000
0.236364 0.302424 0.000000
0.240909 0.304394 0.000000
0.245455 0.306364 0.000000
0.250000 0.308333 0.000000
0.254545 0.310303 0.000000
0.259091 0.312273 0.000000
0.263636 0.314242 0.000000
0.268182 0.316212 0.000000
0.272727 0.318182 0.000000
0.277273 0.320152 0.000000
0.281818 0.322121 0.000000
0.286364 0.324091 0.000000
0.290909 0.326061 0.000000
0.295455 0.328030 0.000000
0.704615 0.681846 0.000000
0.709231 0.683692 0.000000
0.713846 0.685538 0.000000
0.718462 0.687385 0.000000
0.723077 0.689231 0.000000
0.727692 0.691077 0.000000
0.732308 0.692923 0.000000
0.736923 0.694769 0.000000
0.741538 0.696615 0.000000
0.746154 0.698462 0.000000
0.750769 0.700308 0.000000
0.755385 0.702154 0.000000
0.760000 0.704000 0.000000
0.764615 0.705846 0.000000
0.769231 0.707692 0.000000
0.773846 0.709538 0.000000
0.778462 0.711385 0.000000
0.783077 0.713231 0.000000
0.787692 0.715077 0.000000
0.792308 0.716923 0.000000
0.796923 0.718769 0.000000
0.801538 0.720615 0.000000
0.806154 0.722462 0.000000
0.810769 0.724308 0.000000
0.815385 0.726154 0.000000
0.820000 0.728000 0.000000
0.824615 0.729846 0.000000
0.829231 0.731692 0.000000
0.833846 0.733538 0.000000
0.838462 0.735385 0.000000
0.843077 0.737231 0.000000
0.847692 0.739077 0.000000
0.852308 0.740923 0.000000
0.856923 0.742769 0.000000
0.861538 0.744615 0.000000
0.866154 0.746462 0.000000
0.870769 0.748308 0.000000
0.875385 0.750154 0.000000
0.880000 0.752000 0.000000
0.884615 0.753846 0.000000
0.889231 0.755692 0.000000
0.893846 0.757538 0.000000
0.898462 0.759385 0.000000
0.903077 0.761231 0.000000
0.907692 0.763077 0.000000
0.912308 0.764923 0.000000
0.916923 0.766769 0.000000
0.921538 0.768615 0.000000
0.926154 0.770462 0.000000
0.930769 0.772308 0.000000
[...]
POINT_DATA 6352
SCALARS UX float 1
LOOKUP_TABLE default
-0.000003
0.000003
3.238603
2.031138
-5.906545
-3.718953
-2.107062
0.647818
0.000000
-0.000000
-0.000000
-0.000000
-0.000000
-0.000000
-0.000000
-0.000000
-0.000000
-0.000000
-0.000000
0.000000
0.000000
0.000000
0.000000
0.000000
0.000000
0.000001
-0.000000
1.101419
1.699554
2.106544
2.435054
2.686840
2.908279
3.098414
3.259930
3.399776
3.517421
3.615934
3.696516
3.761979
3.813253
3.851523
3.877791
3.893532
3.900685
3.900270
3.893401
3.880593
3.863460
3.841920
3.817982
3.789745
3.760067
3.728279
3.694740
3.659611
3.624330
3.588428
3.552077
3.515504
3.478824
3.443014
3.407264
3.371812
3.337054
3.303236
3.270266
3.205690
3.164057
3.110942
3.041921
2.953340
2.842538
2.703719
2.534407
2.349915
2.166334
1.410381
0.904887
0.497248
0.139418
-0.172110
-0.475450
-0.776167
-1.082748
-1.405563
-1.751467
-2.120671
-2.509797
-2.921201
-3.339350
-3.761344
-4.188247
-4.614897
-5.042513
-5.473126
-5.856992
-5.815999
-5.787042
-5.768015
-5.756924
-5.748128
-5.740582
-5.732683
-5.722754
-5.709086
-5.690072
-5.664545
-5.633220
-5.594415
-5.548264
-5.499894
-5.441980
-5.380330
-5.315248
-5.244713
-5.172297
-5.098387
-5.021152
-4.943695
-4.865289
-4.786286
-4.707297
-4.628166
-4.549548
-4.471291
-4.394850
-4.319209
-4.245059
-4.172453
-4.101845
-4.033055
-3.965958
-3.900910
-3.837956
-3.777313
-3.658723
-3.583197
-3.486982
-3.364779
-3.209884
-3.013038
-2.765946
-2.452373
-2.028479
-1.439585
-2.089451
-2.068799
-2.051065
-2.029055
-2.047809
-2.021442
-2.009461
-1.974975
-1.950485
-1.964124
-1.949836
-1.949339
-1.942449
-1.908273
-1.890958
-1.875771
-1.847009
-1.828028
-1.818237
-1.761659
-1.787596
-1.746889
-1.700670
-1.663008
-1.650404
-1.615185
-1.617930
-1.543394
-1.484845
-1.466543
-1.474173
-1.463429
-1.416999
-1.384214
-1.387420
-1.339997
-1.319850
-1.332782
-1.299488
-1.266358
-1.214300
-1.201629
-1.178007
-1.123757
-1.079690
-1.028504
-1.053920
-1.028819
-0.996475
-0.981728
-0.957174
-0.941055
-0.967477
-0.922488
-0.881217
-0.874157
-0.852243
-0.817807
-0.749579
-0.757072
-0.742152
-0.691376
-0.651071
-0.640061
-0.591414
-0.527828
-0.503767
-0.433216
-0.416123
-0.374084
-0.347896
-0.316265
-0.323979
-0.331584
-0.348463
-0.318742
-0.290828
-0.250929
-0.226954
-0.201870
-0.236200
-0.228009
-0.200371
-0.184908
-0.205380
-0.173346
-0.140571
-0.105781
-0.062810
-0.061750
-0.035996
-0.023225
0.009876
0.025227
0.041908
0.082950
0.106168
0.138082
0.193146
0.264621
0.352552
0.433423
0.479170
0.520195
0.579489
0.599355
-3.705246
-3.691610
-3.678096
-3.664433
-3.650687
-3.636772
-3.622508
-3.608096
-3.593496
-3.578762
-3.563599
-3.548204
-3.532824
-3.517304
-3.501154
-3.484887
-3.468629
-3.452260
-3.435717
-3.418789
-3.401853
-3.384811
-3.367184
-3.349529
-3.331532
-3.313493
-3.295182
-3.276800
-3.258383
-3.239722
-3.220960
-3.202058
-3.182686
-3.163368
-3.143789
-3.124006
-3.103853
-3.083424
-3.062876
-3.041884
-3.020773
-2.999436
-2.977344
-2.954624
-2.931915
-2.909022
-2.885772
-2.861635
-2.836801
-2.812157
-2.787423
-2.759536
-2.730559
-2.701576
-2.671803
-2.642207
-2.609277
-2.568910
-2.540825
-2.514387
-2.459003
-2.436285
-2.405102
-2.318244
-2.232529
0.832723
0.962821
1.076649
1.167316
1.217411
1.280385
1.333641
1.385967
1.430920
1.468157
1.505339
1.550973
1.593993
1.636717
1.677381
1.716102
1.753995
1.792105
1.828951
1.865150
1.900327
1.935157
1.968585
2.002295
2.036424
2.068990
2.101419
2.133545
2.165471
2.197543
2.229091
2.259987
2.291273
2.322302
2.352966
2.383488
2.413823
2.444066
2.474360
2.504195
2.534065
2.564089
2.593908
2.623429
2.653172
2.682569
2.711815
2.740995
2.770128
2.799277
2.828368
2.857375
2.886261
2.915264
2.944369
2.973392
3.002375
3.031399
3.060618
3.089708
3.118951
3.148377
3.178054
3.208084
1.694950
1.688315
1.763462
1.633731
0.068638
0.038461
0.101615
0.030798
-2.471456
-2.494033
-2.282996
-2.368799
-2.111962
-2.425236
-4.472574
-4.367088
-4.416420
-4.330221
-2.412993
-0.676886
-0.581061
-0.588934
-0.484615
-0.039004
-0.040717
0.110745
-0.221088
-0.940520
-0.975595
-0.887331
-0.845349
-0.728427
-0.881402
-0.720016
2.825482
2.733168
2.906597
2.709566
-0.340596
-0.497569
-0.307493
-0.550386
-4.146329
-4.126534
-4.227469
-3.521972
-3.523782
-3.444894
-3.643773
-3.629815
-3.697571
2.215533
2.434810
2.279144
2.411759
0.138121
0.153716
0.214555
-0.923722
-1.041456
-0.568388
2.909602
3.015600
3.013474
-1.546074
-1.688498
-1.659691
-2.758478
-2.534516
-2.444296
2.433213
2.467101
2.397113
-1.615800
-3.553338
-3.565272
-3.469093
-0.531549
-0.578780
-0.622096
-0.500758
1.335156
1.294395
1.296989
-0.472369
-0.560099
-0.791662
1.310028
1.812825
1.854867
1.792184
0.242124
0.105456
0.280086
1.828123
1.859734
1.757849
1.193644
1.176221
1.226130
-0.090822
-0.210415
-0.107166
1.147823
-0.182748
-0.091808
-0.085665
0.141771
-3.397181
-3.450174
-3.428231
-0.134893
1.719086
1.672124
1.729721
-1.224944
-1.262353
-1.100367
2.469282
2.429954
2.417928
2.382061
2.389982
2.355440
-2.974259
-3.220441
-2.914312
-3.118705
-0.697103
-0.604647
-0.613348
1.712707
2.373496
-0.507708
-4.934582
-4.811571
-4.868182
-3.525922
-3.598483
-3.522584
0.308720
0.584062
0.646242
-4.739370
1.979587
1.944415
1.977356
1.917287
-0.317206
-0.199239
-0.154187
0.806592
-2.805198
-2.833658
-2.794896
0.128754
0.089788
0.129093
0.078484
2.480604
2.424088
2.397954
0.026350
1.813676
1.714880
1.768517
-4.665211
-4.610705
-4.546769
2.364199
2.407464
2.353161
2.361742
-3.608344
-3.547994
-3.626856
-3.562572
-0.607570
-0.540363
-0.552176
2.345059
-2.705448
-2.845185
-2.427778
-0.577256
-2.437447
-2.541773
-2.698234
-2.337731
2.826540
2.974856
-2.768793
2.812544
-3.325600
-3.319022
-3.292274
-3.346561
-1.035709
-1.056549
-1.160696
0.191275
-2.850833
-2.233967
-3.048811
-3.035564
-3.070119
-3.019057
1.487220
1.472759
1.449943
1.438502
-3.483266
-3.457138
-0.923421
-3.206311
-3.189105
-3.229263
-3.196787
-0.138617
-0.134206
-0.089916
2.547758
2.557770
2.473902
-0.179876
2.630324
-1.835968
-1.672777
-1.572133
2.557525
2.555411
2.487536
-1.493476
-1.890730
-1.914792
-1.961919
2.619740
-1.974570
-3.364819
-3.372301
-3.311423
-1.870622
-1.827206
-1.815859
-3.297697
1.741889
1.717995
1.656882
1.055425
1.030451
1.076186
-1.151849
-1.208802
-1.040676
-2.211138
-2.126446
-2.176601
1.687195
1.717320
1.694042
1.725380
0.269702
0.196612
0.239476
1.037947
1.649518
0.934611
0.927554
0.887591
1.838787
1.945377
1.894869
2.011911
2.300038
2.328343
2.279950
2.312130
3.481061
3.406036
3.372187
-2.381223
-2.313423
-2.187132
-2.565175
3.282336
0.705945
0.794536
0.710737
-2.303143
-2.249486
-2.286192
1.804441
1.769722
1.828224
3.416528
3.558109
1.754403
-5.222612
-5.335789
-5.186064
3.176081
3.126697
3.120163
3.066913
-1.473428
-1.298317
1.770502
1.784958
1.750892
-2.179015
-2.173410
-2.278792
-2.234307
2.476092
-2.248002
2.382820
2.411540
-2.415641
-2.482111
-2.452394
-3.278155
-3.189420
-3.282139
-3.201885
-3.761217
-3.845432
-3.832848
-3.916927
-3.676205
-3.673467
-3.592277
-3.349777
-3.271810
-3.310338
-3.990660
-3.915724
-4.006782
-3.259762
0.005773
-0.054041
-0.041034
0.982915
0.955858
-3.904511
-3.881976
-3.837508
-3.962610
-3.442459
-3.479451
-3.448514
-3.494743
-2.914392
-2.968457
-2.951118
-3.002542
-4.391161
-4.412301
-4.490427
-3.560994
-4.335335
0.745474
0.729965
1.020518
-1.663666
-1.766454
-1.466555
-1.887792
2.592469
2.646137
2.578912
2.678289
-3.832658
-3.928590
1.920144
1.920755
1.803145
-3.016248
-3.009007
1.820599
2.732100
2.787889
2.801216
2.857221
2.671969
2.661833
2.599397
-3.044495
0.572639
0.493635
0.569577
0.445398
2.337905
2.266678
2.373995
-3.128000
-3.016671
-3.098862
-2.944570
3.043699
3.051202
3.102902
2.987992
-5.564756
-5.451354
-5.419316
-5.298544
-3.494020
-3.585558
1.087401
1.182658
0.940196
0.930507
-3.585971
-3.390929
-3.349578
-3.198730
2.528262
2.609013
2.551144
2.612728
2.501703
0.100589
0.193668
-0.028529
2.738273
2.787194
2.841040
-0.771230
-0.849483
-0.475887
2.182092
2.100492
2.213918
2.069717
2.682087
2.620426
2.576596
-0.170250
-0.122873
-3.436182
-3.471340
-3.393010
-0.632031
-0.631463
-0.522338
1.788766
1.809529
-3.478857
-3.447120
-3.373214
-3.368625
-3.182748
-3.194694
-3.139530
2.904128
-0.133449
-0.275690
-0.108898
3.047709
-2.992433
-3.038007
-3.000033
0.451163
0.420056
0.220821
-3.221206
-0.359443
-0.528041
0.245271
-3.049036
-3.089469
-3.173719
-3.194834
-0.223000
-0.270427
-0.412259
2.306764
2.340732
2.245824
-2.262930
-2.203328
-3.260994
-3.248508
-0.438203
-0.362260
-0.577959
-3.321391
-0.616043
-0.469430
-0.431382
-0.311959
-3.467255
-3.445477
-3.402077
-3.513188
-2.959831
-3.059706
-3.070342
-3.191031
-2.524372
-2.601092
-2.675826
1.980459
2.030830
2.059982
-0.098983
-0.192757
-0.088207
-3.865834
-3.945860
-2.400715
2.056728
-3.206710
-3.192829
-3.306422
-3.080563
-5.521328
-5.413481
-5.387948
-5.320557
-0.658409
-0.584133
-0.697171
-2.970840
-2.872637
-3.004798
-2.890489
-4.424842
-4.232022
-4.284926
1.865896
1.977294
1.939400
-3.061712
-2.954982
-3.411895
-3.427809
-3.471433
0.873139
1.101596
1.092925
-3.474030
-3.014323
-2.744043
-2.709738
2.487862
2.573797
2.569919
0.405723
0.280735
0.855588
-2.770592
-2.795861
-2.756418
-3.117036
-3.214479
-3.179603
-3.384126
-3.451918
-3.364944
-3.146945
-3.246620
-3.129611
-0.078476
-0.000079
-0.061808
-0.777710
-0.671648
0.011628
-2.795697
-3.188903
-3.658445
-3.620204
-3.655703
-0.947539
-0.977310
-1.040920
-0.877547
-0.913376
-0.803026
-0.900855
-0.710858
-3.680165
-3.642290
-3.615079
-3.585599
-0.161027
0.093641
-0.319495
2.431373
2.373895
2.474049
2.368697
-3.248001
-3.284531
-3.245498
-2.992149
-2.805601
-2.971590
-3.286711
-3.066151
-3.166470
-3.162564
2.821230
2.638277
2.799939
2.601835
-3.563761
-3.579143
-3.638806
2.671129
2.707421
2.760280
1.653975
1.698933
1.664412
1.687431
-4.453650
-4.366897
-4.297207
-3.425090
-3.462994
-3.499653
-3.535137
2.594882
2.587855
2.652472
-1.533291
-1.545527
-1.598913
1.525487
1.533020
1.602494
1.618320
1.562915
1.494587
1.494960
-0.562556
-0.486823
-0.513698
-0.142021
-0.068125
-0.113623
-0.545440
-3.822768
-3.876516
-3.799128
-0.068384
-0.138287
-0.091116
-1.508719
-1.472975
-3.721513
-3.690281
-3.654789
3.061458
3.115970
3.059483
-3.609372
-1.450613
1.802575
1.553486
1.691329
-3.287640
-3.340823
-3.406752
-2.735836
-2.787870
-3.232733
-3.232680
-3.313352
2.361957
2.462818
2.451513
-3.711767
-3.739275
-3.809020
-3.826441
-3.321614
-3.322535
-3.269659
-3.350865
-1.539438
-1.616064
-1.601416
-1.575469
2.166780
2.183081
2.284485
2.071704
2.286840
2.387848
2.691446
2.744174
2.767251
3.508841
3.583302
3.564278
2.831842
2.287010
2.285720
2.356019
2.113648
2.119473
-2.758455
-2.738312
1.813578
-0.771631
-0.770030
-0.840295
-0.896304
-3.121689
-3.270698
-3.247589
-2.755646
2.080960
2.074052
2.020329
2.004292
-3.970924
-3.937995
-3.846218
-0.486186
-0.394559
-0.409128
0.730370
0.788595
0.902366
0.468489
-2.857234
-2.624950
-2.808528
2.751358
2.685117
2.680496
1.462836
1.488179
1.259001
-2.363449
-3.081153
-2.888112
-2.954298
2.397294
2.503172
2.467464
-2.996352
-0.483813
-2.980424
-3.062717
-2.959021
-3.057572
-0.345952
-0.465952
2.433168
2.529622
-4.741044
-4.652398
-0.868738
-0.768099
-0.803427
-0.672003
-0.718321
-0.810706
-0.802476
-0.279334
-0.191807
-0.210694
1.627713
1.831840
1.716655
-0.261548
-2.423241
-2.575257
-2.380504
3.020917
3.058000
3.097808
0.034602
0.152052
0.146248
-2.518077
-2.295512
-2.307879
-3.279293
-3.241082
-3.180409
1.818567
1.807148
1.952125
2.648676
2.701375
2.723182
2.784134
1.665329
-3.302881
-3.324316
-3.370870
-1.903933
-1.988912
-1.954004
2.067287
2.116754
2.105779
2.171049
2.028052
2.005090
1.941988
-2.916733
-3.082890
-3.049424
0.994366
-4.551397
-4.436306
-4.524908
-3.646755
-2.680182
-2.674473
-2.530107
-3.385204
-3.299652
-3.418040
-2.513012
2.216956
2.317609
-1.412213
-1.644828
-1.579555
-1.629485
-1.761943
-1.886437
-2.801916
-2.902169
-2.903848
-2.980346
-2.013813
1.150723
1.204188
1.205116
-4.160805
-4.236532
-4.185817
-3.137399
-3.165612
-3.052495
-3.263890
-3.300950
-3.299055
-3.338868
2.487814
3.137796
2.829761
2.949085
2.864002
-3.220979
-3.245681
-3.306304
3.104020
-3.396438
-3.351359
-0.286070
-0.214117
1.578383
1.590152
1.543173
2.222797
2.226652
2.293025
1.551130
2.364481
2.353811
-3.774495
-3.856461
-3.848277
-3.923687
-2.563239
-2.543299
-2.592114
0.273021
0.160966
0.094555
1.382861
1.359871
1.525176
-1.855615
-1.753861
-1.810837
-1.801852
1.428462
2.186631
2.205255
2.148197
0.058669
0.046160
0.116602
-1.211984
-1.241306
-1.439618
-3.606482
-3.676643
-3.599083
-2.481647
-3.674181
2.181573
-1.489550
-1.457391
-1.403626
-0.431197
-0.345702
-0.354962
-1.822244
-1.724031
-1.575295
-1.496473
-3.547900
-3.599815
1.910705
2.021226
1.967242
1.186867
1.168343
1.484011
1.418231
-3.758395
-3.838820
-3.839525
-3.938706
1.601658
1.675841
1.689429
1.624280
-4.276746
-3.979794
-4.157205
2.134183
2.149174
2.208265
-4.205993
2.308486
2.259621
2.102356
2.194851
-3.066631
-3.070433
-3.043881
-3.108389
-3.121398
-3.211711
-3.314355
-3.277049
-3.475635
-3.512998
-3.582034
-3.424603
0.943107
0.973536
0.928763
2.546042
2.551954
2.617385
-3.034602
-3.027967
-2.977142
2.498120
-2.965161
-2.967402
-3.018787
-3.092345
-3.194319
-3.109542
3.030682
2.999956
-3.287472
-3.349870
-3.196191
-3.251573
-0.390087
-0.459552
-0.496031
-3.202279
0.920675
0.959546
0.978244
0.826847
0.667183
0.721268
0.130728
0.151741
0.187916
-4.066691
-3.998224
-3.976465
0.538885
2.943000
3.007729
2.935754
-0.326634
-0.385355
-0.503388
-1.281555
-1.377384
-1.389657
-1.284795
-0.051759
-0.123176
-2.939043
-2.907131
-2.889977
-0.579027
-0.531335
-0.519494
1.592028
1.644973
-1.839140
-1.942337
-1.976710
-0.475284
-2.850040
-0.802513
-0.729251
-2.941796
-3.030257
-2.978587
-3.047442
-4.448441
-4.658534
-4.627345
-4.484723
-3.137226
-3.199307
-3.111313
0.310622
0.310845
0.390374
-3.150087
-3.172311
-3.406685
-3.479487
-3.076475
1.445757
1.413395
1.403803
1.456446
1.075202
0.969193
0.989453
1.043715
0.903172
1.036183
0.931989
-3.907919
-4.012397
-3.952732
3.105872
3.089152
1.816059
1.849123
1.922859
1.961222
-3.873157
-3.794456
-3.378504
-3.383676
-3.362689
-3.611871
-3.612046
-3.216241
-3.199016
-3.240122
-3.171113
-3.279631
-3.156487
-3.398427
-3.356526
-3.496224
1.409260
1.378939
1.468089
1.447636
-4.615844
-4.466661
-4.610856
1.389249
1.336446
3.032054
1.322590
-4.336805
-4.417299
-4.386708
3.047732
1.359070
0.977570
1.106614
-4.474715
1.070021
-4.406820
-3.512666
-0.871845
-0.802452
-0.790025
-3.540376
-3.106902
-3.141321
-3.129252
-3.167602
-3.055741
-3.057208
-3.161842
-3.103386
2.550270
2.515220
2.588219
2.521993
-3.108097
-3.133180
-3.089859
-3.162383
1.796939
1.795939
1.914852
1.857165
-2.995618
-3.027885
-3.670469
-3.641595
1.541022
1.512805
1.589418
1.476826
1.487772
1.432916
-3.168051
-3.159346
-2.202130
-2.181482
-2.290134
-2.214055
1.659334
-2.640166
-2.723284
-2.791209
-2.473126
-0.619957
-0.547451
-0.568362
1.333098
1.120497
-0.490641
-2.745335
-2.724569
-2.674381
-2.666160
-1.475538
-1.549771
-0.168172
-0.264856
1.154748
1.110405
-0.298296
-3.054137
-2.888516
-2.958461
-2.715942
1.845599
1.913993
1.868647
1.962564
1.040074
1.156105
1.721675
1.745335
1.837895
-3.286324
-3.185505
-3.184266
2.686415
2.684028
2.769870
1.289139
1.278198
2.780618
1.472065
1.339040
1.510873
-0.854625
-0.827101
-0.766583
1.417842
-2.967109
-3.009816
1.428860
1.534796
1.562750
2.157288
2.105728
2.168900
-4.215358
-4.267046
2.083370
-3.905459
-3.959278
-3.895288
2.427995
2.344540
0.678419
0.529794
0.793272
-3.195393
-3.188539
-3.227029
-3.216898
-3.420013
-3.386334
-1.699378
-1.645830
-1.976421
-3.224455
-3.258859
-3.330154
-3.357732
-2.833301
-2.854303
0.441089
0.509377
0.388839
1.597782
1.638662
1.491159
1.533631
1.434145
1.617383
1.622477
1.569680
1.585999
-1.448755
-1.302782
-1.261324
-3.443372
-3.566434
-3.480319
-3.645779
-3.328579
-3.418602
-3.266747
1.317643
1.400223
1.418817
1.338203
3.447898
3.362974
3.394445
-3.100257
-3.124108
-3.105625
-1.363087
-1.540793
-1.412000
-3.128856
-2.661779
-2.499972
-2.587568
-2.599061
-1.365123
-1.264665
-1.280963
-2.743754
-2.889573
-4.304882
-4.235099
-4.275019
2.207435
2.190348
2.284396
-2.855536
2.598978
-2.956930
-2.952937
1.180743
1.280481
1.216251
1.260115
1.278023
1.081788
1.207752
3.451696
3.378662
3.387932
3.321413
3.114985
3.164972
3.168139
-3.415524
-3.437709
-3.470340
3.218099
-3.483800
-3.366377
-3.324899
-2.675513
-2.550114
-2.781770
-1.879598
-1.625813
-1.714778
2.683746
2.677393
2.625770
2.581973
-1.857293
1.116965
1.080028
1.377960
1.140734
1.113836
1.155985
1.121870
-2.503873
-2.513646
-2.454318
-2.560526
-2.976212
-2.903420
-2.905515
0.951756
0.903648
0.866330
0.819645
-3.084189
-3.129430
-3.101373
3.325071
-3.151040
3.256385
-3.061278
-2.993675
-2.246169
-2.162802
-0.804523
-0.917662
-2.463638
-2.371737
-2.323502
0.251070
0.234861
-3.822230
-3.895079
-3.880166
-3.967570
0.222570
0.291266
0.278695
0.307812
0.324432
0.364463
1.575271
1.622227
1.434359
1.787321
-1.924355
-2.292716
-0.958393
-1.072367
-0.967329
-1.049624
-0.104643
-0.055600
0.042778
0.005547
0.000528
-0.038008
1.006665
1.073558
1.084581
-0.057001
-0.302251
-0.298755
1.016868
-0.725829
-0.769699
-0.682559
-0.727986
1.144400
1.091386
0.606503
0.941372
-3.043179
-2.911939
-2.944342
-2.808483
-4.439360
-4.459562
-4.555605
-4.370505
-0.114396
1.708537
1.668363
1.685946
1.656866
-4.377275
-4.326559
1.663103
-4.217102
-2.890396
-2.893085
-2.940987
-2.933389
-2.888536
-2.812796
-2.914022
1.464393
-1.267781
-1.299507
-1.367841
-2.766330
-2.713038
1.358680
1.325848
1.349038
-2.920855
-2.936590
2.328615
2.223216
2.278816
3.456041
3.386253
-2.977140
-2.873286
-4.803011
-4.815567
-2.439071
-2.422925
-2.473724
-2.375201
-0.400105
-0.436313
-0.357649
-0.413301
-2.698694
-2.494775
-2.514930
-0.021018
-2.541168
-3.006187
-2.939783
-2.934463
-0.473184
-0.591858
-1.762265
-1.682918
-1.754076
-1.670394
1.379532
1.415861
1.378023
1.416039
1.703073
1.756094
1.793697
1.688057
-0.992947
-1.032828
-1.089420
0.721294
0.706802
0.769739
-0.672362
-0.779400
0.668930
-2.549667
-2.527044
-4.878932
-4.714004
-2.482224
-2.587059
-4.273412
-2.593955
3.588141
3.692836
3.641788
3.352120
1.352438
1.445542
1.506264
-3.436270
-3.293563
-3.394826
-1.958592
-1.977239
-2.011350
-2.021529
3.134359
2.148366
2.196630
2.211618
-3.632503
-4.102751
-4.058890
-4.023282
-4.143181
2.119824
2.173477
-4.172151
-4.227611
-4.160822
-1.419195
1.942366
2.065292
2.108539
2.883121
2.778320
2.849464
2.040519
-2.381442
-2.432086
-2.397585
-2.425581
-1.907803
-1.863388
-1.910960
-3.950131
-4.031092
3.457308
3.400228
3.308281
-2.346358
-2.231645
-2.072146
3.367129
3.429995
3.378261
-0.772736
-0.839012
-1.935919
-1.821741
-2.641811
-2.523229
-2.385500
1.241549
1.081521
1.386884
-0.314066
-0.438899
-0.759518
0.032856
0.103133
0.054141
-2.099123
-2.046950
-2.063635
0.219908
0.181681
0.257116
0.215643
-0.105291
0.001218
-1.371063
-1.341595
-1.237162
-1.217114
-5.247828
-5.315426
-5.098371
-5.490825
-2.934737
-3.029031
-2.946961
-5.030495
-2.780529
0.965481
0.949134
1.004150
0.962091
1.641410
3.462573
3.384903
1.592941
3.053211
3.101263
0.173720
0.242177
1.615944
-1.838546
1.552591
1.236619
1.218380
1.262235
3.000532
3.004110
2.434620
2.353182
2.857682
2.758305
3.183528
3.260193
1.263005
2.868747
1.284681
1.242078
0.504985
0.484169
0.542934
-4.801634
-4.807713
-4.886436
-4.719459
0.440692
1.610826
1.569371
1.488085
1.522251
1.624687
-2.914227
-2.954274
-4.313839
-4.224741
-2.887213
-3.850173
-3.402272
1.545951
1.567576
1.574530
1.531555
1.600329
3.291311
3.347848
0.040592
0.036805
1.533536
1.458810
1.530357
1.434896
1.510621
-3.359034
-3.171103
-2.066460
-2.117998
-3.078841
-3.087035
-4.489191
-4.832990
-2.181726
-2.107103
-3.753005
-3.742013
-3.822457
-3.696657
0.229199
0.265567
-3.091623
-2.990861
-3.023944
-3.164332
-3.147341
-0.636012
-1.438262
-3.109414
-3.332468
-3.190148
-3.194936
1.560148
1.749931
-3.216846
1.485322
1.485111
1.534356
1.412179
-2.509425
3.113828
-3.733338
-3.789326
-2.515983
-2.462331
-2.363049
-0.403823
-0.293229
-0.323895
-3.659009
-3.673390
-0.047026
0.001917
0.028403
2.250254
2.276753
2.222920
2.264654
1.659238
1.694987
1.635704
1.701965
1.606044
1.588923
1.548021
-3.402639
-3.386722
1.185703
1.197216
1.224526
-1.162595