# vtk DataFile Version 2.0
Test
ASCII
DATASET POLYDATA
POINTS 6352 float
0.000000 0.000000 0.000000
1.000000 0.000000 0.000000
1.000000 0.800000 0.000000
1.000000 1.000000 0.000000
0.000000 1.000000 0.000000
0.000000 0.200000 0.000000
0.300000 0.330000 0.000000
0.700000 0.680000 0.000000
0.050000 0.000000 0.000000
0.100000 0.000000 0.000000
0.150000 0.000000 0.000000
0.200000 0.000000 0.000000
0.250000 0.000000 0.000000
0.300000 0.000000 0.000000
0.350000 0.000000 0.000000
0.400000 0.000000 0.000000
0.450000 0.000000 0.000000
0.500000 0.000000 0.000000
0.550000 0.000000 0.000000
0.600000 0.000000 0.000000
0.650000 0.000000 0.000000
0.700000 0.000000 0.000000
0.750000 0.000000 0.000000
0.800000 0.000000 0.000000
0.850000 0.000000 0.000000
0.900000 0.000000 0.000000
0.950000 0.000000 0.000000
1.000000 0.048545 0.000000
1.000000 0.094438 0.000000
1.000000 0.137825 0.000000
1.000000 0.178843 0.000000
1.000000 0.217620 0.000000
1.000000 0.254280 0.000000
1.000000 0.288938 0.000000
1.000000 0.321703 0.000000
1.000000 0.352678 0.000000
1.000000 0.381962 0.000000
1.000000 0.409647 0.000000
1.000000 0.435820 0.000000
1.000000 0.460563 0.000000
1.000000 0.483955 0.000000
1.000000 0.506070 0.000000
1.000000 0.526976 0.000000
1.000000 0.546741 0.000000
1.000000 0.565427 0.000000
1.000000 0.583092 0.000000
1.000000 0.599793 0.000000
1.000000 0.615581 0.000000
1.000000 0.630507 0.000000
1.000000 0.644618 0.000000
1.000000 0.657958 0.000000
1.000000 0.670570 0.000000
1.000000 0.682493 0.000000
1.000000 0.693765 0.000000
1.000000 0.704421 0.000000
1.000000 0.714495 0.000000
1.000000 0.724019 0.000000
1.000000 0.733023 0.000000
1.000000 0.741536 0.000000
1.000000 0.749583 0.000000
1.000000 0.757191 0.000000
1.000000 0.764383 0.000000
1.000000 0.771183 0.000000
1.000000 0.777611 0.000000
1.000000 0.783688 0.000000
1.000000 0.789434 0.000000
1.000000 0.794865 0.000000
1.000000 0.805174 0.000000
1.000000 0.811554 0.000000
1.000000 0.819418 0.000000
1.000000 0.829114 0.000000
1.000000 0.841067 0.000000
1.000000 0.855804 0.000000
1.000000 0.873972 0.000000
1.000000 0.896371 0.000000
1.000000 0.923985 0.000000
1.000000 0.958029 0.000000
0.950000 1.000000 0.000000
0.900000 1.000000 0.000000
0.850000 1.000000 0.000000
0.800000 1.000000 0.000000
0.750000 1.000000 0.000000
0.700000 1.000000 0.000000
0.650000 1.000000 0.000000
0.600000 1.000000 0.000000
0.550000 1.000000 0.000000
0.500000 1.000000 0.000000
0.450000 1.000000 0.000000
0.400000 1.000000 0.000000
0.350000 1.000000 0.000000
0.300000 1.000000 0.000000
0.250000 1.000000 0.000000
0.200000 1.000000 0.000000
0.150000 1.000000 0.000000
0.100000 1.000000 0.000000
0.050000 1.000000 0.000000
0.000000 0.951455 0.000000
0.000000 0.905562 0.000000
0.000000 0.862175 0.000000
0.000000 0.821157 0.000000
0.000000 0.782380 0.000000
0.000000 0.745720 0.000000
0.000000 0.711062 0.000000
0.000000 0.678297 0.000000
0.000000 0.647322 0.000000
0.000000 0.618038 0.000000
0.000000 0.590353 0.000000
0.000000 0.564180 0.000000
0.000000 0.539437 0.000000
0.000000 0.516045 0.000000
0.000000 0.493930 0.000000
0.000000 0.473024 0.000000
0.000000 0.453259 0.000000
0.000000 0.434573 0.000000
0.000000 0.416908 0.000000
0.000000 0.400207 0.000000
0.000000 0.384419 0.000000
0.000000 0.369493 0.000000
0.000000 0.355382 0.000000
0.000000 0.342042 0.000000
0.000000 0.329430 0.000000
0.000000 0.317507 0.000000
0.000000 0.306235 0.000000
0.000000 0.295579 0.000000
0.000000 0.285505 0.000000
0.000000 0.275981 0.000000
0.000000 0.266977 0.000000
0.000000 0.258464 0.000000
0.000000 0.250417 0.000000
0.000000 0.242809 0.000000
0.000000 0.235617 0.000000
0.000000 0.228817 0.000000
0.000000 0.222389 0.000000
0.000000 0.216312 0.000000
0.000000 0.210566 0.000000
0.000000 0.205135 0.000000
0.000000 0.194826 0.000000
0.000000 0.188446 0.000000
0.000000 0.180582 0.000000
0.000000 0.170886 0.000000
0.000000 0.158933 0.000000
0.000000 0.144196 0.000000
0.000000 0.126028 0.000000
0.000000 0.103629 0.000000
0.000000 0.076015 0.000000
0.000000 0.041971 0.000000
0.303738 0.333271 0.000000
0.307477 0.336542 0.000000
0.311215 0.339813 0.000000
0.314953 0.343084 0.000000
0.318692 0.346355 0.000000
0.322430 0.349626 0.000000
0.326168 0.352897 0.000000
0.329907 0.356168 0.000000
0.333645 0.359439 0.000000
0.337383 0.362710 0.000000
0.341121 0.365981 0.000000
0.344860 0.369252 0.000000
0.348598 0.372523 0.000000
0.352336 0.375794 0.000000
0.356075 0.379065 0.000000
0.359813 0.382336 0.000000
0.363551 0.385607 0.000000
0.367290 0.388879 0.000000
0.371028 0.392150 0.000000
0.374766 0.395421 0.000000
0.378505 0.398692 0.000000
0.382243 0.401963 0.000000
0.385981 0.405234 0.000000
0.389720 0.408505 0.000000
0.393458 0.411776 0.000000
0.397196 0.415047 0.000000
0.400935 0.418318 0.000000
0.404673 0.421589 0.000000
0.408411 0.424860 0.000000
0.412150 0.428131 0.000000
0.415888 0.431402 0.000000
0.419626 0.434673 0.000000
0.423364 0.437944 0.000000
0.427103 0.441215 0.000000
0.430841 0.444486 0.000000
0.434579 0.447757 0.000000
0.438318 0.451028 0.000000
0.442056 0.454299 0.000000
0.445794 0.457570 0.000000
0.449533 0.460841 0.000000
0.453271 0.464112 0.000000
0.457009 0.467383 0.000000
0.460748 0.470654 0.000000
0.464486 0.473925 0.000000
0.468224 0.477196 0.000000
0.471963 0.480467 0.000000
0.475701 0.483738 0.000000
0.479439 0.487009 0.000000
0.483178 0.490280 0.000000
0.486916 0.493551 0.000000
0.490654 0.496822 0.000000
0.494393 0.500093 0.000000
0.498131 0.503364 0.000000
0.501869 0.506636 0.000000
0.505607 0.509907 0.000000
0.509346 0.513178 0.000000
0.513084 0.516449 0.000000
0.516822 0.519720 0.000000
0.520561 0.522991 0.000000
0.524299 0.526262 0.000000
0.528037 0.529533 0.000000
0.531776 0.532804 0.000000
0.535514 0.536075 0.000000
0.539252 0.539346 0.000000
0.542991 0.542617 0.000000
0.546729 0.545888 0.000000
0.550467 0.549159 0.000000
0.554206 0.552430 0.000000
0.557944 0.555701 0.000000
0.561682 0.558972 0.000000
0.565421 0.562243 0.000000
0.569159 0.565514 0.000000
0.572897 0.568785 0.000000
0.576636 0.572056 0.000000
0.580374 0.575327 0.000000
0.584112 0.578598 0.000000
0.587850 0.581869 0.000000
0.591589 0.585140 0.000000
0.595327 0.588411 0.000000
0.599065 0.591682 0.000000
0.602804 0.594953 0.000000
0.606542 0.598224 0.000000
0.610280 0.601495 0.000000
0.614019 0.604766 0.000000
0.617757 0.608037 0.000000
0.621495 0.611308 0.000000
0.625234 0.614579 0.000000
0.628972 0.617850 0.000000
0.632710 0.621121 0.000000
0.636449 0.624393 0.000000
0.640187 0.627664 0.000000
0.643925 0.630935 0.000000
0.647664 0.634206 0.000000
0.651402 0.637477 0.000000
0.655140 0.640748 0.000000
0.658879 0.644019 0.000000
0.662617 0.647290 0.000000
0.666355 0.650561 0.000000
0.670093 0.653832 0.000000
0.673832 0.657103 0.000000
0.677570 0.660374 0.000000
0.681308 0.663645 0.000000
0.685047 0.666916 0.000000
0.688785 0.670187 0.000000
0.692523 0.673458 0.000000
0.696262 0.676729 0.000000
0.004545 0.201970 0.000000
0.009091 0.203939 0.000000
0.013636 0.205909 0.000000
0.018182 0.207879 0.000000
0.022727 0.209848 0.000000
0.027273 0.211818 0.000000
0.031818 0.213788 0.000000
0.036364 0.215758 0.000000
0.040909 0.217727 0.000000
0.045455 0.219697 0.000000
0.050000 0.221667 0.000000
0.054545 0.223636 0.000000
0.059091 0.225606 0.000000
0.063636 0.227576 0.000000
0.068182 0.229545 0.000000
0.072727 0.231515 0.000000
0.077273 0.233485 0.000000
0.081818 0.235455 0.000000
0.086364 0.237424 0.000000
0.090909 0.239394 0.000000
0.095455 0.241364 0.000000
0.100000 0.243333 0.000000
0.104545 0.245303 0.000000
0.109091 0.247273 0.000000
0.113636 0.249242 0.000000
0.118182 0.251212 0.000000
0.122727 0.253182 0.000000
0.127273 0.255152 0.000000
0.131818 0.257121 0.000000
0.136364 0.259091 0.000000
0.140909 0.261061 0.000000
0.145455 0.263030 0.000000
0.150000 0.265000 0.000000
0.154545 0.266970 0.000000
0.159091 0.268939 0.000000
0.163636 0.270909 0.000000
0.168182 0.272879 0.000000
0.172727 0.274848 0.000000
0.177273 0.276818 0.000000
0.181818 0.278788 0.000000
0.186364 0.280758 0.000000
0.190909 0.282727 0.000000
0.195455 0.284697 0.000000
0.200000 0.286667 0.000000
0.204545 0.288636 0.000000
0.209091 0.290606 0.000000
0.213636 0.292576 0.000000
0.218182 0.294545 0.000000
0.222727 0.296515 0.000000
0.227273 0.298485 0.000000
0.231818 0.300455 0.000000
0.236364 0.302424 0.000000
0.240909 0.304394 0.000000
0.245455 0.306364 0.000000
0.250000 0.308333 0.000000
0.254545 0.310303 0.000000
0.259091 0.312273 0.000000
0.263636 0.314242 0.000000
0.268182 0.316212 0.000000
0.272727 0.318182 0.000000
0.277273 0.320152 0.000000
0.281818 0.322121 0.000000
0.286364 0.324091 0.000000
0.290909 0.326061 0.000000
0.295455 0.328030 0.000000
0.704615 0.681846 0.000000
0.709231 0.683692 0.000000
0.713846 0.685538 0.000000
0.718462 0.687385 0.000000
0.723077 0.689231 0.000000
0.727692 0.691077 0.000000
0.732308 0.692923 0.000000
0.736923 0.694769 0.000000
0.741538 0.696615 0.000000
0.746154 0.698462 0.000000
0.750769 0.700308 0.000000
0.755385 0.702154 0.000000
0.760000 0.704000 0.000000
0.764615 0.705846 0.000000
0.769231 0.707692 0.000000
0.773846 0.709538 0.000000
0.778462 0.711385 0.000000
0.783077 0.713231 0.000000
0.787692 0.715077 0.000000
0.792308 0.716923 0.000000
0.796923 0.718769 0.000000
0.801538 0.720615 0.000000
0.806154 0.722462 0.000000
0.810769 0.724308 0.000000
0.815385 0.726154 0.000000
0.820000 0.728000 0.000000
0.824615 0.729846 0.000000
0.829231 0.731692 0.000000
0.833846 0.733538 0.000000
0.838462 0.735385 0.000000
0.843077 0.737231 0.000000
0.847692 0.739077 0.000000
0.852308 0.740923 0.000000
0.856923 0.742769 0.000000
0.861538 0.744615 0.000000
0.866154 0.746462 0.000000
0.870769 0.748308 0.000000
0.875385 0.750154 0.000000
0.880000 0.752000 0.000000
0.884615 0.753846 0.000000
0.889231 0.755692 0.000000
0.893846 0.757538 0.000000
0.898462 0.759385 0.000000
0.903077 0.761231 0.000000
0.907692 0.763077 0.000000
0.912308 0.764923 0.000000
0.916923 0.766769 0.000000
0.921538 0.768615 0.000000
0.926154 0.770462 0.000000
0.930769 0.772308 0.000000
[...]
POINT_DATA 6352
SCALARS UX float 1
LOOKUP_TABLE default
-0.000011
0.000012
8.716056
-14.700608
-36.897965
-27.297861
-7.809771
-13.735938
0.000001
-0.000001
-0.000001
-0.000001
-0.000001
-0.000000
-0.000000
-0.000000
-0.000000
-0.000000
-0.000000
0.000000
0.000000
0.000000
0.000001
0.000001
0.000001
0.000002
-0.000002
1.688808
2.849647
3.531633
4.174762
4.623765
5.040238
5.411626
5.735997
6.026071
6.280249
6.502798
6.701436
6.882661
7.049572
7.204012
7.349563
7.487872
7.620227
7.747814
7.870858
7.987730
8.098924
8.201284
8.296701
8.382528
8.458468
8.518678
8.562145
8.593696
8.615388
8.629686
8.644317
8.660740
8.680644
8.697202
8.705650
8.707103
8.705121
8.700731
8.701527
8.715642
8.711524
8.677746
8.599628
8.421855
7.767028
6.142039
1.816764
-4.507977
-12.972415
-16.703441
-17.819045
-18.521196
-19.149350
-19.826565
-20.533845
-21.313879
-22.235996
-23.301169
-24.512545
-25.809910
-27.171325
-28.623139
-30.074341
-31.495674
-32.802123
-34.023080
-35.114360
-36.069664
-36.558727
-36.155052
-35.609416
-35.004713
-34.342882
-33.697853
-33.073965
-32.482348
-31.934388
-31.434749
-30.986064
-30.592894
-30.241064
-29.931738
-29.658653
-29.411513
-29.198042
-29.005777
-28.835467
-28.688763
-28.560005
-28.447581
-28.352832
-28.270184
-28.198273
-28.134331
-28.075657
-28.020750
-27.968562
-27.918197
-27.868741
-27.819976
-27.770821
-27.721222
-27.671201
-27.618759
-27.562837
-27.502829
-27.440344
-27.372620
-27.203521
-27.058462
-26.828598
-26.448658
-25.819497
-24.044360
-21.545766
-16.173274
-11.233692
-6.025603
-7.894247
-7.849431
-7.846760
-7.752591
-7.736661
-7.725780
-7.688502
-7.588103
-7.489370
-7.341565
-7.312897
-7.284451
-7.340499
-7.330404
-7.379813
-7.605567
-7.617722
-7.629578
-8.759845
-8.747638
-8.593940
-8.468072
-8.501618
-7.135121
-7.113883
-6.942582
-6.796234
-6.899434
-6.855133
-10.851484
-10.715272
-10.835024
-10.899079
-10.688141
-10.565631
-10.568491
-10.691745
-11.141623
-9.919755
-10.896597
-10.956952
-11.031465
-10.883168
-10.591953
-10.755625
-10.399919
-10.344095
-12.254562
-12.105047
-12.101181
-12.021570
-12.003717
-13.289533
-13.086642
-12.996468
-12.986379
-13.016727
-13.046816
-12.842205
-12.756573
-12.775416
-12.844843
-12.969799
-12.918761
-12.797243
-12.879825
-13.080027
-12.969516
-12.856717
-12.951914
-12.830457
-12.747424
-12.940807
-13.253610
-13.482596
-13.343295
-13.422551
-13.470200
-14.205843
-14.236827
-14.350044
-14.456976
-14.456002
-14.407535
-14.477750
-14.788760
-14.902422
-14.692225
-14.582408
-14.634331
-14.735968
-14.772752
-14.756419
-14.842448
-14.849198
-14.980235
-15.002890
-15.112408
-15.317153
-15.000791
-14.694442
-14.459975
-14.248470
-14.161145
-14.078420
-14.069760
-27.265265
-27.222373
-27.175530
-27.123554
-27.066103
-27.003178
-26.931930
-26.867742
-26.801466
-26.731686
-26.653998
-26.570912
-26.493485
-26.416725
-26.331496
-26.275920
-26.217604
-26.161472
-26.099514
-26.016699
-25.918622
-25.800373
-25.712683
-25.601974
-25.480622
-25.347965
-25.223766
-25.096759
-24.965813
-24.861712
-24.754215
-24.669992
-24.552436
-24.453536
-24.330785
-24.199129
-24.096562
-23.986717
-23.874926
-23.732145
-23.584451
-23.473289
-23.425237
-23.086891
-23.024302
-22.886084
-22.714937
-22.281585
-21.840751
-21.435807
-21.030093
-20.384728
-19.638062
-18.931126
-18.865283
-17.042449
-15.338784
-14.278714
-13.377659
-12.796877
-12.342775
-11.756387
-11.135594
-10.275699
-9.221379
-12.794676
-11.693266
-10.518634
-9.420852
-8.599692
-7.240872
-5.818656
-4.731046
-4.203287
-3.463695
-2.439718
-1.703804
-1.173793
-0.924025
-0.814788
-0.237516
0.424875
1.024663
1.051974
1.333926
1.633623
1.934759
2.239222
2.553960
2.901968
3.238919
3.588984
3.880187
4.144285
4.382438
4.567403
4.810537
4.993302
5.235821
5.357703
5.534582
5.703947
5.911433
6.172381
6.338267
6.464511
6.578542
6.682099
6.796825
6.949447
7.100342
7.258236
7.412479
7.549517
7.669050
7.767722
7.825325
7.862864
7.889724
7.960597
8.040376
8.129367
8.230564
8.322503
8.394599
8.456782
8.511436
8.567258
8.631906
1.854408
1.891832
2.071730
1.721876
0.013966
0.003655
0.085615
0.015981
-14.833274
-15.295115
-11.789729
-13.029777
-9.176290
-13.181168
-27.417917
-27.218951
-27.444942
-27.287745
-12.296833
-1.586798
-1.325883
-1.387560
-1.105555
-19.632495
-19.656625
-19.319577
-20.041125
-2.579435
-2.623769
-2.359720
-21.868668
-21.518336
-21.874981
-21.409683
4.667452
4.465745
4.849285
4.409990
-0.608332
-0.880828
-0.528000
-1.022989
-26.580344
-26.493448
-26.695874
-26.605061
-26.653151
-26.441476
-25.615995
-25.512800
-25.670681
3.366196
3.844986
3.484439
3.821211
-1.068525
-0.951781
-0.956669
-5.415492
-5.419589
-4.261373
4.884457
5.118182
5.137260
-23.348203
-23.722483
-23.558009
-14.947754
-12.241132
-11.218184
5.507588
5.648995
5.473684
-23.637638
-25.100682
-25.198507
-24.921866
-1.612689
-1.836973
-1.866719
-1.667403
0.382365
0.234477
0.294579
-16.936590
-17.620309
-18.602912
0.231756
0.173485
0.779735
0.037342
-18.213930
-18.971380
-17.999683
0.529122
0.674694
-0.267120
0.340570
0.370416
0.463185
-19.609123
-19.995098
-19.451718
0.254893
-0.729678
-0.561589
-0.638649
-18.636404
-25.917593
-26.048077
-25.905408
-0.588167
1.606355
1.519197
1.691910
-2.826405
-2.843682
-2.475571
4.060004
3.976125
3.877986
3.804391
3.752644
3.656405
-28.328250
-28.946644
-27.954731
-28.433725
-1.728936
-1.467180
-1.536670
1.692960
5.295373
-1.255556
-28.417065
-28.160368
-28.477467
-24.492819
-24.727880
-24.524355
-7.437959
-4.607442
-4.346796
-28.134735
2.153915
2.079018
2.271181
1.767617
-18.973791
-18.088676
-17.982917
-2.773371
-25.146592
-25.108211
-24.990808
-2.151324
-2.281349
-1.988842
-2.130682
3.896779
3.750378
3.691963
-16.556944
0.227306
-0.509109
-0.337221
-27.589805
-27.551314
-27.421647
3.628025
3.783273
3.594680
3.634146
-24.992076
-24.804172
-24.994535
-24.790255
-2.977780
-2.715449
-2.951677
3.556633
-16.268280
-17.953491
-12.411344
-2.657378
-12.835756
-16.616198
-19.577863
-14.936057
4.676153
5.006724
-19.784614
4.653418
-24.889638
-24.868357
-24.660525
-25.020148
-2.532728
-2.650187
-2.916640
-8.499099
-25.220291
-15.235470
-25.046499
-25.097911
-25.225918
-24.929907
0.649771
0.508065
0.567540
0.397626
-24.595220
-24.573989
-2.255658
-25.308677
-25.359952
-25.512706
-25.482500
-2.217631
-2.052241
-2.053338
4.059144
4.087308
3.881928
-2.259501
4.259910
-7.001755
-6.086559
-5.689429
4.908789
4.959515
4.745911
-5.083717
-23.569598
-23.712883
-23.703147
5.093022
-23.852625
-26.430280
-26.317431
-26.306561
-23.427412
-23.390175
-23.236015
-26.154523
1.926920
1.806110
1.684833
-0.960591
-0.918461
-0.604357
-2.813084
-2.861266
-2.462651
-24.382257
-24.211922
-24.451719
1.191795
1.222884
1.095834
1.340982
-1.148358
-1.222652
-1.065758
-0.625647
1.590062
-0.221230
-0.308166
-0.338855
0.706441
1.475139
1.147602
2.003906
3.347761
3.478176
3.271638
3.432214
6.199536
6.039630
5.927028
-11.741553
-10.813223
-9.479819
-15.479192
5.718586
-2.633860
-1.621842
-2.674775
-23.855849
-23.679801
-24.037098
1.831122
1.775709
1.981668
6.023144
6.374862
1.661583
-29.226952
-29.371684
-28.911507
7.622175
7.631009
7.511381
7.489339
-18.821694
-17.276536
0.879286
0.789361
0.647078
-24.845523
-24.934329
-25.150762
-25.153790
4.767039
-23.349141
4.504592
4.541140
-24.814555
-24.967971
-24.845301
-23.868702
-23.576933
-23.828731
-23.662640
-26.119208
-26.246780
-26.259869
-26.389451
-25.976252
-25.934241
-25.791127
-24.313627
-23.820594
-24.221717
-26.365324
-26.201129
-26.342104
-23.817950
-2.253420
-2.578681
-2.261974
-0.170767
-0.294981
-25.759232
-25.624842
-25.540786
-25.861666
-25.399889
-25.507135
-25.332111
-25.418232
-23.983222
-24.399326
-24.361192
-24.552528
-26.987197
-27.158369
-27.218644
-25.379651
-26.938110
-18.018677
-17.956889
-17.253496
-20.573757
-21.168259
-18.883615
-22.260546
4.242010
4.407295
4.228176
4.467390
-26.012132
-26.167144
2.627495
2.609547
2.356054
-25.120275
-25.000469
2.372977
6.048711
6.100370
6.209078
6.258576
5.970147
5.890527
5.775192
-25.229837
-0.022321
-0.108504
0.070200
-0.104477
3.558377
3.386648
3.645212
-23.248730
-22.084989
-22.918805
-20.928394
6.661893
6.549066
6.703998
6.501970
-31.281325
-30.760464
-31.075177
-30.666341
-25.535255
-25.738877
-12.712014
-12.206298
-14.910956
-15.411179
-28.752452
-28.212765
-28.333429
-27.846348
5.573318
5.730967
4.844159
5.017285
4.743399
-19.255868
-19.048659
-19.488430
4.497189
4.600680
4.742277
-4.803638
-5.050647
-3.915825
3.187239
3.002370
3.271524
2.917612
4.373856
4.220957
4.124026
-0.284671
-0.214798
-25.822529
-25.976787
-25.798595
-21.414736
-21.375510
-21.130810
2.017096
2.125263
-24.448377
-24.404043
-24.145642
-24.198015
-24.791405
-24.682793
-24.335411
4.862804
-19.735215
-20.054438
-19.717392
5.179971
-25.935750
-25.995920
-25.862226
-17.549650
-18.025733
-18.833503
-25.023989
-6.496840
-7.727068
-18.910708
-25.912711
-21.399432
-23.182809
-23.073556
-0.412820
-0.531097
-0.795507
5.276705
5.477756
5.083078
-24.682223
-24.648975
-26.179032
-26.278027
-20.427686
-20.233788
-20.757966
-26.456628
-20.886447
-20.558925
-20.543966
-20.212476
-24.203838
-24.146096
-23.986343
-24.381345
-22.844516
-23.284193
-23.375853
-23.767995
-21.124648
-22.574727
-23.187424
1.596840
1.899236
2.167755
-0.221046
-0.429137
-0.187551
-25.547290
-25.774114
-20.200910
2.204489
-25.288073
-25.217753
-25.699665
-24.456688
-30.069202
-29.708157
-29.874451
-29.532032
-21.029666
-20.936576
-21.273897
-26.799999
-26.674239
-26.966270
-26.802179
-29.282713
-28.969325
-29.407217
1.188897
2.415103
2.091648
-26.902539
-26.672323
-25.555413
-25.708747
-25.735491
-16.642213
-14.368123
-15.083722
-25.865973
-26.700144
-23.698992
-23.205032
6.554025
6.716492
6.780990
-8.251791
-8.947590
-4.093699
-25.253840
-25.228787
-25.130063
-23.166844
-23.467521
-23.448843
-25.237060
-25.461736
-25.211378
-23.203902
-23.670526
-23.366016
-0.940258
-0.907094
-1.052543
-21.718641
-21.412863
-0.776350
-24.065537
-23.542020
-25.999083
-25.953860
-26.082846
-21.397503
-21.656722
-21.574513
-21.495706
-20.062493
-19.515370
-20.342233
-18.613862
-26.408826
-26.272820
-26.298578
-26.146881
-18.505603
-16.591654
-19.358583
4.429179
4.140059
4.457944
4.285809
-24.463242
-24.671085
-24.435829
-23.716159
-21.969459
-23.439302
-24.674711
-23.404137
-23.735155
-23.765310
4.746109
4.370835
4.730812
4.264320
-26.192740
-26.298328
-26.451341
7.418923
7.532813
7.647453
0.214085
0.460633
0.082492
0.590685
-27.048875
-26.851955
-26.763151
-26.513880
-26.676011
-26.611047
-26.794136
7.061721
6.941797
7.217413
-22.425302
-22.641793
-22.650340
1.485164
1.547068
1.688815
1.783727
1.533656
1.372171
1.306180
-2.095249
-1.952433
-2.139155
-1.376822
-1.308320
-1.471635
-1.954963
-26.956708
-27.051746
-26.956902
-1.544627
-1.640334
-1.710696
-22.089587
-22.170297
-25.876994
-25.693331
-25.742630
7.992002
8.067704
8.041547
-25.524656
-21.795296
-3.158441
-8.630478
-4.205851
-25.689190
-25.837516
-26.122997
-25.284839
-25.375552
-24.712320
-24.670157
-24.989006
5.736467
6.260518
6.209991
-27.287124
-27.511665
-27.465806
-27.600256
-24.783468
-24.879871
-24.504464
-25.033435
-22.976399
-23.121396
-22.965711
-23.157455
4.436895
4.620909
5.634979
2.934693
5.577845
5.782584
5.803464
5.832197
5.977079
7.625210
7.727358
7.796615
6.009277
4.807350
4.822236
5.086423
2.480559
2.569883
-21.041650
-21.495092
0.624065
-3.563957
-3.630382
-3.952346
-4.199358
-24.730162
-25.415072
-25.420074
-25.412558
2.858355
2.829838
2.658127
2.600001
-27.996479
-27.790755
-27.773135
-3.529619
-2.967588
-3.159101
-3.367919
-2.344964
-1.426251
-5.764532
-21.727960
-18.840144
-21.166024
5.371176
5.278700
5.195123
-4.235059
-4.118569
-8.533414
-16.489295
-22.505638
-18.670107
-19.948799
3.702863
3.950454
3.868928
-21.311248
-1.147330
-21.261473
-22.614269
-21.184699
-22.605011
-2.755701
-3.326575
3.785999
4.009551
-28.334931
-28.047881
-20.602779
-19.988691
-20.605837
-19.720617
-2.063664
-2.340679
-2.230772
-1.761225
-1.571054
-1.785939
-8.244944
-3.832304
-7.263279
-1.589824
-11.935290
-15.293993
-11.564404
7.103443
7.008877
7.202359
-3.276300
-2.490130
-2.812005
-22.007870
-19.228694
-19.882061
-23.771819
-23.547036
-23.535592
0.182714
0.499477
1.953081
5.476278
5.513521
5.679460
5.706378
-2.859906
-23.856073
-23.911630
-24.034796
-23.797345
-23.983310
-24.024941
2.145064
2.485139
2.421232
2.797745
1.865927
1.672043
1.175384
-22.863201
-24.069265
-23.854189
-0.234283
-27.326854
-27.119633
-27.246074
-25.378187
-18.590402
-18.698952
-13.855812
-24.622883
-24.307723
-24.640364
-13.272778
3.259979
3.509591
-5.485832
-6.475113
-6.089987
-4.610595
-5.563591
-6.489619
-22.266703
-23.605697
-23.339623
-24.257770
-7.690673
0.504252
0.673359
0.580976
-27.064943
-27.152476
-26.981959
-23.499782
-23.631251
-23.209867
-24.298965
-24.552634
-24.412345
-24.693619
6.436005
7.138350
4.678533
4.951572
4.760096
-24.546973
-24.596670
-24.845860
6.985778
-25.124419
-25.030126
-0.458007
-0.289745
0.653146
0.623293
0.352716
4.474692
4.303084
4.767473
0.287907
4.948656
4.983177
-26.054552
-26.180773
-26.210332
-26.314542
-24.009720
-24.042003
-24.262422
-3.046078
-3.990138
-4.120880
1.413148
1.404971
1.743735
-24.029354
-23.794041
-24.029637
-23.785698
1.573516
2.778176
2.886193
2.560710
-1.382709
-1.275263
-1.217729
-4.565090
-4.976807
-5.850004
-24.832595
-25.044016
-24.851225
-12.826573
-25.085829
2.792824
-22.985627
-22.801290
-22.800568
-20.902032
-20.660381
-20.737501
-6.399673
-5.655463
-4.872223
-4.375744
-24.646338
-24.772849
2.568333
2.827545
2.686585
-9.957748
-9.789261
-6.275328
-6.725450
-25.767262
-25.896294
-25.965249
-26.125365
-3.511028
-1.258194
-0.992689
-2.621481
-31.809871
-30.946844
-31.772601
3.578436
3.573640
3.961948
-31.276731
4.472701
4.340782
2.562752
3.007496
-25.462644
-25.357899
-25.329664
-23.838797
-23.850697
-24.208545
-24.539937
-24.486459
-25.612953
-25.654977
-25.836174
-25.426487
-0.487863
-0.462298
-0.620079
5.876305
5.783719
5.983702
-26.176847
-26.062630
-26.018389
5.676386
-26.096286
-26.192721
-26.243707
-23.283390
-24.022353
-23.753929
8.112964
8.047563
-23.808168
-24.005822
-23.444796
-23.784562
-20.765370
-20.897346
-21.061139
-23.395339
-0.477444
-0.361981
-0.381381
0.772229
0.554662
0.673422
-0.889521
-0.760021
-0.845270
-26.527776
-26.456609
-26.381725
0.443507
7.249615
7.346555
7.303236
-18.568396
-19.104165
-19.598819
-20.604159
-21.436967
-21.125919
-20.964792
-0.801134
-0.892912
-25.876829
-25.736645
-25.810760
-2.453390
-2.276232
-2.471571
1.383085
1.496979
-24.258401
-24.575969
-24.547529
-2.247623
-25.655747
-20.932579
-20.650433
-22.655806
-23.844242
-23.006391
-23.773034
-30.514457
-31.070214
-30.591769
-31.095463
-26.974742
-27.001639
-26.838004
-0.991943
-0.834354
-0.848327
-26.820519
-27.158422
-26.065585
-26.235950
-27.028974
0.761454
0.615333
0.681520
0.681663
0.933595
0.748032
0.825233
0.835961
0.723181
0.940463
0.804619
-27.625096
-27.773183
-27.558260
8.492026
8.445943
0.888826
1.111785
1.794772
1.973146
-27.434648
-27.317723
-25.177408
-25.140443
-25.009039
-27.082490
-27.055159
-25.911492
-25.977931
-26.058711
-25.869148
-27.419003
-27.277765
-27.684413
-27.465303
-27.770914
1.290045
1.255458
1.452802
1.447749
-29.819927
-29.735201
-30.164903
1.194683
1.115422
8.395943
1.021102
-27.046047
-27.153578
-27.148407
8.439742
-8.181471
-11.006191
-9.562784
-27.275768
-10.657779
-30.010501
-26.867442
-3.453076
-3.061197
-3.276237
-26.972172
-25.585326
-25.664599
-25.545216
-25.665995
-26.373097
-26.479776
-26.617585
-26.643043
4.196330
4.077659
4.277754
4.077977
-25.898457
-25.846982
-25.759456
-25.956934
0.263796
0.211432
0.992795
0.603777
-23.247819
-23.451418
-26.947523
-26.861399
1.177612
1.192527
1.452006
0.904499
0.839612
0.822871
-25.377653
-25.239302
-25.165777
-25.185522
-25.459351
-25.338235
1.853199
-21.364850
-22.401332
-23.190920
-19.664536
-3.646664
-3.297513
-3.633621
-12.592593
-15.308165
-3.084544
-25.711264
-25.565141
-25.589928
-25.439037
-22.596324
-22.780203
-0.357507
-0.574234
0.407582
0.355557
-0.672290
-23.230230
-21.075083
-22.093627
-19.129712
0.453393
0.928208
0.510601
1.306940
0.988336
1.154654
2.103842
2.189205
2.390921
-24.601715
-24.269328
-24.206435
7.361272
7.328496
7.633238
1.398879
1.344054
7.623896
-4.824140
-8.838044
-4.441499
-21.816921
-21.684741
-21.622110
1.628695
-25.725038
-25.780779
1.623666
1.852683
1.889135
3.559739
3.257539
3.549932
-26.617642
-26.793590
3.027434
-26.588072
-26.693993
-26.623166
4.564022
4.329462
-2.644321
-3.919971
-1.498283
-23.992176
-23.941568
-24.266160
-24.278947
-24.338421
-24.323080
-6.135918
-5.353359
-8.613455
-25.528673
-25.753739
-26.089156
-26.137279
-25.714732
-25.838793
0.031325
0.073206
-0.107855
0.531357
0.791939
1.621396
1.672413
1.455318
0.840551
0.495475
0.255642
0.073859
-21.600179
-20.608135
-20.490359
-28.004266
-28.220800
-27.926382
-28.193899
-27.808001
-28.100827
-27.812168
-1.343712
-0.559656
-0.568211
-1.098934
6.740105
6.585185
6.544685
-25.272002
-25.297709
-25.165133
-3.348186
-4.167996
-3.441392
-25.418843
-17.813909
-13.195931
-15.728805
-15.942637
-21.788615
-21.034690
-21.446114
-19.859368
-22.253394
-27.509664
-27.443155
-27.434493
3.228608
3.180790
3.429964
-21.730446
4.226217
-23.091614
-23.263107
-1.919034
-0.976206
-1.859319
-1.002304
-1.471626
-3.930916
-2.478695
8.230987
8.207921
8.107355
8.097222
8.136985
8.173346
8.208997
-24.553492
-24.733559
-24.721167
8.232799
-24.912827
-24.351020
-23.973597
-20.844083
-19.840934
-22.286601
-6.991651
-5.324929
-5.992543
4.401792
4.401303
4.261202
4.161103
-6.766500
-8.737817
-8.730972
-2.946447
-0.159725
-0.134004
-0.030877
-0.023211
-25.179891
-25.101295
-25.037657
-25.246447
-26.307315
-26.127394
-26.228260
0.525929
0.388719
0.390713
0.230143
-24.357120
-24.734186
-24.313616
7.969249
-24.694174
7.954156
-24.335249
-23.573624
-16.580555
-16.228060
-21.526599
-21.731607
-25.756485
-25.435200
-25.451150
-0.806644
-0.712405
-27.067881
-27.152258
-27.175209
-27.264204
-0.622390
-0.576846
-0.459810
-1.229705
-1.095916
-1.119396
-2.543782
-3.392565
-7.637619
0.244767
-14.971402
-17.756718
-3.911842
-4.234053
-3.687329
-3.857676
-1.885724
-1.838190
-1.843135
-2.004398
-1.815435
-2.003255
0.335297
0.506167
0.471384
-3.161660
-4.644150
-4.563145
0.439930
-2.675100
-2.616914
-2.380164
-2.367012
0.571765
0.400895
-7.583322
-5.693695
-22.956099
-21.315489
-21.016777
-18.616287
-27.583949
-27.546222
-27.697499
-27.457511
-3.717843
0.821301
0.685808
0.973747
0.959216
-27.563002
-27.453266
1.064952
-27.323039
-24.022737
-24.197916
-24.542390
-24.597896
-26.004139
-25.846493
-25.948345
1.401503
-22.309922
-22.534961
-22.589383
-25.842273
-25.742768
0.255325
0.189950
0.329860
-25.659449
-25.589381
3.529312
3.270006
3.413507
8.107865
8.005700
-25.650960
-25.591378
-30.631505
-31.056987
-23.951287
-24.091496
-24.233137
-23.569981
-2.172749
-2.039598
-1.890057
-1.828969
-19.860303
-24.434609
-24.362603
-1.653208
-24.571121
-23.238083
-22.929470
-22.885007
-3.214550
-3.945807
-23.294666
-23.202019
-23.443447
-23.338124
0.497666
0.538202
0.567525
0.471789
-0.578534
-0.038113
0.210455
-0.672413
-2.836420
-2.861922
-3.152064
-0.279442
-0.213577
-0.146255
-2.096361
-2.366592
-0.327010
-24.426681
-24.234734
-31.599762
-31.657885
-24.050423
-24.556433
-27.347797
-24.728495
6.562481
6.839063
6.755153
7.897104
-3.740850
-2.075668
-1.763243
-26.510468
-25.983713
-26.330793
-23.445768
-23.606940
-23.524505
-23.705482
8.555565
3.939793
4.309787
4.497760
-27.147708
-26.465438
-26.276005
-26.294510
-26.466384
2.453901
2.791072
-26.463643
-26.559115
-26.370095
-5.364194
-13.653529
2.026364
2.314098
8.021466
7.746499
7.859154
1.808880
-24.330806
-24.404706
-24.202165
-24.520182
-22.972447
-22.940292
-23.267435
-27.182892
-27.315952
8.333259
8.316082
8.184954
-11.214913
-9.969655
-8.279350
6.752217
6.957468
6.908423
-21.301898
-21.218359
-6.989125
-22.640149
-27.040008
-26.568807
-26.228892
-17.014998
-17.299328
-16.169142
-0.177871
-0.734616
-0.799559
-2.975674
-2.613637
-3.001480
-24.012890
-24.019404
-24.226905
-1.704495
-1.591790
-1.516708
-1.431628
-3.823568
-3.031379
-4.659380
-4.311978
-3.960430
-3.677716
-32.904834
-32.588676
-32.069785
-33.331162
-22.424171
-23.543617
-22.341290
-31.484693
-20.040201