# vtk DataFile Version 2.0
Test
ASCII
DATASET POLYDATA
POINTS 6352 float
0.000000 0.000000 0.000000
1.000000 0.000000 0.000000
1.000000 0.800000 0.000000
1.000000 1.000000 0.000000
0.000000 1.000000 0.000000
0.000000 0.200000 0.000000
0.300000 0.330000 0.000000
0.700000 0.680000 0.000000
0.050000 0.000000 0.000000
0.100000 0.000000 0.000000
0.150000 0.000000 0.000000
0.200000 0.000000 0.000000
0.250000 0.000000 0.000000
0.300000 0.000000 0.000000
0.350000 0.000000 0.000000
0.400000 0.000000 0.000000
0.450000 0.000000 0.000000
0.500000 0.000000 0.000000
0.550000 0.000000 0.000000
0.600000 0.000000 0.000000
0.650000 0.000000 0.000000
0.700000 0.000000 0.000000
0.750000 0.000000 0.000000
0.800000 0.000000 0.000000
0.850000 0.000000 0.000000
0.900000 0.000000 0.000000
0.950000 0.000000 0.000000
1.000000 0.048545 0.000000
1.000000 0.094438 0.000000
1.000000 0.137825 0.000000
1.000000 0.178843 0.000000
1.000000 0.217620 0.000000
1.000000 0.254280 0.000000
1.000000 0.288938 0.000000
1.000000 0.321703 0.000000
1.000000 0.352678 0.000000
1.000000 0.381962 0.000000
1.000000 0.409647 0.000000
1.000000 0.435820 0.000000
1.000000 0.460563 0.000000
1.000000 0.483955 0.000000
1.000000 0.506070 0.000000
1.000000 0.526976 0.000000
1.000000 0.546741 0.000000
1.000000 0.565427 0.000000
1.000000 0.583092 0.000000
1.000000 0.599793 0.000000
1.000000 0.615581 0.000000
1.000000 0.630507 0.000000
1.000000 0.644618 0.000000
1.000000 0.657958 0.000000
1.000000 0.670570 0.000000
1.000000 0.682493 0.000000
1.000000 0.693765 0.000000
1.000000 0.704421 0.000000
1.000000 0.714495 0.000000
1.000000 0.724019 0.000000
1.000000 0.733023 0.000000
1.000000 0.741536 0.000000
1.000000 0.749583 0.000000
1.000000 0.757191 0.000000
1.000000 0.764383 0.000000
1.000000 0.771183 0.000000
1.000000 0.777611 0.000000
1.000000 0.783688 0.000000
1.000000 0.789434 0.000000
1.000000 0.794865 0.000000
1.000000 0.805174 0.000000
1.000000 0.811554 0.000000
1.000000 0.819418 0.000000
1.000000 0.829114 0.000000
1.000000 0.841067 0.000000
1.000000 0.855804 0.000000
1.000000 0.873972 0.000000
1.000000 0.896371 0.000000
1.000000 0.923985 0.000000
1.000000 0.958029 0.000000
0.950000 1.000000 0.000000
0.900000 1.000000 0.000000
0.850000 1.000000 0.000000
0.800000 1.000000 0.000000
0.750000 1.000000 0.000000
0.700000 1.000000 0.000000
0.650000 1.000000 0.000000
0.600000 1.000000 0.000000
0.550000 1.000000 0.000000
0.500000 1.000000 0.000000
0.450000 1.000000 0.000000
0.400000 1.000000 0.000000
0.350000 1.000000 0.000000
0.300000 1.000000 0.000000
0.250000 1.000000 0.000000
0.200000 1.000000 0.000000
0.150000 1.000000 0.000000
0.100000 1.000000 0.000000
0.050000 1.000000 0.000000
0.000000 0.951455 0.000000
0.000000 0.905562 0.000000
0.000000 0.862175 0.000000
0.000000 0.821157 0.000000
0.000000 0.782380 0.000000
0.000000 0.745720 0.000000
0.000000 0.711062 0.000000
0.000000 0.678297 0.000000
0.000000 0.647322 0.000000
0.000000 0.618038 0.000000
0.000000 0.590353 0.000000
0.000000 0.564180 0.000000
0.000000 0.539437 0.000000
0.000000 0.516045 0.000000
0.000000 0.493930 0.000000
0.000000 0.473024 0.000000
0.000000 0.453259 0.000000
0.000000 0.434573 0.000000
0.000000 0.416908 0.000000
0.000000 0.400207 0.000000
0.000000 0.384419 0.000000
0.000000 0.369493 0.000000
0.000000 0.355382 0.000000
0.000000 0.342042 0.000000
0.000000 0.329430 0.000000
0.000000 0.317507 0.000000
0.000000 0.306235 0.000000
0.000000 0.295579 0.000000
0.000000 0.285505 0.000000
0.000000 0.275981 0.000000
0.000000 0.266977 0.000000
0.000000 0.258464 0.000000
0.000000 0.250417 0.000000
0.000000 0.242809 0.000000
0.000000 0.235617 0.000000
0.000000 0.228817 0.000000
0.000000 0.222389 0.000000
0.000000 0.216312 0.000000
0.000000 0.210566 0.000000
0.000000 0.205135 0.000000
0.000000 0.194826 0.000000
0.000000 0.188446 0.000000
0.000000 0.180582 0.000000
0.000000 0.170886 0.000000
0.000000 0.158933 0.000000
0.000000 0.144196 0.000000
0.000000 0.126028 0.000000
0.000000 0.103629 0.000000
0.000000 0.076015 0.000000
0.000000 0.041971 0.000000
0.303738 0.333271 0.000000
0.307477 0.336542 0.000000
0.311215 0.339813 0.000000
0.314953 0.343084 0.000000
0.318692 0.346355 0.000000
0.322430 0.349626 0.000000
0.326168 0.352897 0.000000
0.329907 0.356168 0.000000
0.333645 0.359439 0.000000
0.337383 0.362710 0.000000
0.341121 0.365981 0.000000
0.344860 0.369252 0.000000
0.348598 0.372523 0.000000
0.352336 0.375794 0.000000
0.356075 0.379065 0.000000
0.359813 0.382336 0.000000
0.363551 0.385607 0.000000
0.367290 0.388879 0.000000
0.371028 0.392150 0.000000
0.374766 0.395421 0.000000
0.378505 0.398692 0.000000
0.382243 0.401963 0.000000
0.385981 0.405234 0.000000
0.389720 0.408505 0.000000
0.393458 0.411776 0.000000
0.397196 0.415047 0.000000
0.400935 0.418318 0.000000
0.404673 0.421589 0.000000
0.408411 0.424860 0.000000
0.412150 0.428131 0.000000
0.415888 0.431402 0.000000
0.419626 0.434673 0.000000
0.423364 0.437944 0.000000
0.427103 0.441215 0.000000
0.430841 0.444486 0.000000
0.434579 0.447757 0.000000
0.438318 0.451028 0.000000
0.442056 0.454299 0.000000
0.445794 0.457570 0.000000
0.449533 0.460841 0.000000
0.453271 0.464112 0.000000
0.457009 0.467383 0.000000
0.460748 0.470654 0.000000
0.464486 0.473925 0.000000
0.468224 0.477196 0.000000
0.471963 0.480467 0.000000
0.475701 0.483738 0.000000
0.479439 0.487009 0.000000
0.483178 0.490280 0.000000
0.486916 0.493551 0.000000
0.490654 0.496822 0.000000
0.494393 0.500093 0.000000
0.498131 0.503364 0.000000
0.501869 0.506636 0.000000
0.505607 0.509907 0.000000
0.509346 0.513178 0.000000
0.513084 0.516449 0.000000
0.516822 0.519720 0.000000
0.520561 0.522991 0.000000
0.524299 0.526262 0.000000
0.528037 0.529533 0.000000
0.531776 0.532804 0.000000
0.535514 0.536075 0.000000
0.539252 0.539346 0.000000
0.542991 0.542617 0.000000
0.546729 0.545888 0.000000
0.550467 0.549159 0.000000
0.554206 0.552430 0.000000
0.557944 0.555701 0.000000
0.561682 0.558972 0.000000
0.565421 0.562243 0.000000
0.569159 0.565514 0.000000
0.572897 0.568785 0.000000
0.576636 0.572056 0.000000
0.580374 0.575327 0.000000
0.584112 0.578598 0.000000
0.587850 0.581869 0.000000
0.591589 0.585140 0.000000
0.595327 0.588411 0.000000
0.599065 0.591682 0.000000
0.602804 0.594953 0.000000
0.606542 0.598224 0.000000
0.610280 0.601495 0.000000
0.614019 0.604766 0.000000
0.617757 0.608037 0.000000
0.621495 0.611308 0.000000
0.625234 0.614579 0.000000
0.628972 0.617850 0.000000
0.632710 0.621121 0.000000
0.636449 0.624393 0.000000
0.640187 0.627664 0.000000
0.643925 0.630935 0.000000
0.647664 0.634206 0.000000
0.651402 0.637477 0.000000
0.655140 0.640748 0.000000
0.658879 0.644019 0.000000
0.662617 0.647290 0.000000
0.666355 0.650561 0.000000
0.670093 0.653832 0.000000
0.673832 0.657103 0.000000
0.677570 0.660374 0.000000
0.681308 0.663645 0.000000
0.685047 0.666916 0.000000
0.688785 0.670187 0.000000
0.692523 0.673458 0.000000
0.696262 0.676729 0.000000
0.004545 0.201970 0.000000
0.009091 0.203939 0.000000
0.013636 0.205909 0.000000
0.018182 0.207879 0.000000
0.022727 0.209848 0.000000
0.027273 0.211818 0.000000
0.031818 0.213788 0.000000
0.036364 0.215758 0.000000
0.040909 0.217727 0.000000
0.045455 0.219697 0.000000
0.050000 0.221667 0.000000
0.054545 0.223636 0.000000
0.059091 0.225606 0.000000
0.063636 0.227576 0.000000
0.068182 0.229545 0.000000
0.072727 0.231515 0.000000
0.077273 0.233485 0.000000
0.081818 0.235455 0.000000
0.086364 0.237424 0.000000
0.090909 0.239394 0.000000
0.095455 0.241364 0.000000
0.100000 0.243333 0.000000
0.104545 0.245303 0.000000
0.109091 0.247273 0.000000
0.113636 0.249242 0.000000
0.118182 0.251212 0.000000
0.122727 0.253182 0.000000
0.127273 0.255152 0.000000
0.131818 0.257121 0.000000
0.136364 0.259091 0.000000
0.140909 0.261061 0.000000
0.145455 0.263030 0.000000
0.150000 0.265000 0.000000
0.154545 0.266970 0.000000
0.159091 0.268939 0.000000
0.163636 0.270909 0.000000
0.168182 0.272879 0.000000
0.172727 0.274848 0.000000
0.177273 0.276818 0.000000
0.181818 0.278788 0.000000
0.186364 0.280758 0.000000
0.190909 0.282727 0.000000
0.195455 0.284697 0.000000
0.200000 0.286667 0.000000
0.204545 0.288636 0.000000
0.209091 0.290606 0.000000
0.213636 0.292576 0.000000
0.218182 0.294545 0.000000
0.222727 0.296515 0.000000
0.227273 0.298485 0.000000
0.231818 0.300455 0.000000
0.236364 0.302424 0.000000
0.240909 0.304394 0.000000
0.245455 0.306364 0.000000
0.250000 0.308333 0.000000
0.254545 0.310303 0.000000
0.259091 0.312273 0.000000
0.263636 0.314242 0.000000
0.268182 0.316212 0.000000
0.272727 0.318182 0.000000
0.277273 0.320152 0.000000
0.281818 0.322121 0.000000
0.286364 0.324091 0.000000
0.290909 0.326061 0.000000
0.295455 0.328030 0.000000
0.704615 0.681846 0.000000
0.709231 0.683692 0.000000
0.713846 0.685538 0.000000
0.718462 0.687385 0.000000
0.723077 0.689231 0.000000
0.727692 0.691077 0.000000
0.732308 0.692923 0.000000
0.736923 0.694769 0.000000
0.741538 0.696615 0.000000
0.746154 0.698462 0.000000
0.750769 0.700308 0.000000
0.755385 0.702154 0.000000
0.760000 0.704000 0.000000
0.764615 0.705846 0.000000
0.769231 0.707692 0.000000
0.773846 0.709538 0.000000
0.778462 0.711385 0.000000
0.783077 0.713231 0.000000
0.787692 0.715077 0.000000
0.792308 0.716923 0.000000
0.796923 0.718769 0.000000
0.801538 0.720615 0.000000
0.806154 0.722462 0.000000
0.810769 0.724308 0.000000
0.815385 0.726154 0.000000
0.820000 0.728000 0.000000
0.824615 0.729846 0.000000
0.829231 0.731692 0.000000
0.833846 0.733538 0.000000
0.838462 0.735385 0.000000
0.843077 0.737231 0.000000
0.847692 0.739077 0.000000
0.852308 0.740923 0.000000
0.856923 0.742769 0.000000
0.861538 0.744615 0.000000
0.866154 0.746462 0.000000
0.870769 0.748308 0.000000
0.875385 0.750154 0.000000
0.880000 0.752000 0.000000
0.884615 0.753846 0.000000
0.889231 0.755692 0.000000
0.893846 0.757538 0.000000
0.898462 0.759385 0.000000
0.903077 0.761231 0.000000
0.907692 0.763077 0.000000
0.912308 0.764923 0.000000
0.916923 0.766769 0.000000
0.921538 0.768615 0.000000
0.926154 0.770462 0.000000
0.930769 0.772308 0.000000
[...]
POINT_DATA 6352
SCALARS UX float 1
LOOKUP_TABLE default
-0.000000
0.000000
0.044823
0.037815
-0.054474
-0.040319
-0.026956
0.021731
-0.000000
-0.000000
-0.000000
-0.000000
-0.000000
-0.000000
-0.000000
-0.000000
-0.000000
-0.000000
-0.000000
0.000000
0.000000
0.000000
0.000000
0.000000
0.000000
0.000000
-0.000000
0.014903
0.023393
0.029673
0.034512
0.038402
0.041756
0.044631
0.047120
0.049312
0.051199
0.052812
0.054162
0.055275
0.056144
0.056784
0.057191
0.057388
0.057395
0.057228
0.056917
0.056477
0.055941
0.055317
0.054657
0.053937
0.053209
0.052476
0.051747
0.051026
0.050339
0.049679
0.049048
0.048449
0.047884
0.047355
0.046858
0.046390
0.045954
0.045550
0.045173
0.044479
0.044060
0.043566
0.042966
0.042264
0.041495
0.040617
0.039698
0.038827
0.038130
0.032335
0.027086
0.022081
0.017237
0.012821
0.008683
0.004836
0.001099
-0.002734
-0.006785
-0.011064
-0.015547
-0.020257
-0.025056
-0.029913
-0.034831
-0.039728
-0.044613
-0.049516
-0.054690
-0.055120
-0.055828
-0.056705
-0.057729
-0.058798
-0.059884
-0.060935
-0.061909
-0.062787
-0.063519
-0.064065
-0.064450
-0.064621
-0.064581
-0.064407
-0.063977
-0.063389
-0.062659
-0.061759
-0.060766
-0.059698
-0.058539
-0.057351
-0.056141
-0.054920
-0.053705
-0.052505
-0.051332
-0.050186
-0.049087
-0.048022
-0.047000
-0.046020
-0.045084
-0.044191
-0.043338
-0.042525
-0.041751
-0.041017
-0.039609
-0.038731
-0.037632
-0.036259
-0.034545
-0.032372
-0.029629
-0.026134
-0.021190
-0.014099
-0.026191
-0.025628
-0.025585
-0.025017
-0.024619
-0.024322
-0.024222
-0.023629
-0.023135
-0.023391
-0.022981
-0.022912
-0.022741
-0.022125
-0.021763
-0.021435
-0.020789
-0.020729
-0.020273
-0.019297
-0.019685
-0.018993
-0.018030
-0.017564
-0.017000
-0.016267
-0.015638
-0.014746
-0.013981
-0.013558
-0.013590
-0.013365
-0.012574
-0.011974
-0.011939
-0.011117
-0.010782
-0.011000
-0.010427
-0.009889
-0.009027
-0.008762
-0.008265
-0.007715
-0.006625
-0.005817
-0.006342
-0.005986
-0.005516
-0.005351
-0.004977
-0.004804
-0.004551
-0.004027
-0.003349
-0.003271
-0.002883
-0.002380
-0.001283
-0.001500
-0.001167
-0.000410
0.000321
0.000524
0.001307
0.002291
0.002647
0.003805
0.004056
0.004712
0.005071
0.005530
0.005507
0.005367
0.005721
0.006133
0.006503
0.007144
0.007535
0.007943
0.007414
0.007516
0.007907
0.008142
0.007847
0.008077
0.008815
0.009328
0.010017
0.010073
0.010503
0.010714
0.011272
0.011523
0.011836
0.012569
0.012944
0.013449
0.014345
0.015361
0.016449
0.017523
0.018646
0.019291
0.020242
0.020795
-0.040147
-0.039976
-0.039806
-0.039635
-0.039465
-0.039294
-0.039121
-0.038948
-0.038775
-0.038601
-0.038426
-0.038250
-0.038074
-0.037897
-0.037718
-0.037539
-0.037360
-0.037180
-0.037000
-0.036819
-0.036637
-0.036455
-0.036271
-0.036087
-0.035902
-0.035716
-0.035530
-0.035344
-0.035159
-0.034972
-0.034786
-0.034600
-0.034412
-0.034227
-0.034040
-0.033854
-0.033668
-0.033483
-0.033299
-0.033115
-0.032934
-0.032756
-0.032578
-0.032399
-0.032226
-0.032060
-0.031897
-0.031737
-0.031579
-0.031436
-0.031310
-0.031178
-0.031057
-0.030963
-0.030869
-0.030778
-0.030687
-0.030562
-0.030454
-0.030390
-0.030290
-0.030170
-0.030039
-0.029612
-0.028822
0.024015
0.025215
0.025892
0.026377
0.026678
0.026914
0.027145
0.027396
0.027611
0.027835
0.028077
0.028282
0.028496
0.028736
0.028985
0.029240
0.029508
0.029792
0.030077
0.030368
0.030661
0.030961
0.031259
0.031565
0.031876
0.032187
0.032498
0.032811
0.033128
0.033447
0.033767
0.034084
0.034403
0.034723
0.035044
0.035365
0.035685
0.036006
0.036328
0.036648
0.036968
0.037291
0.037612
0.037932
0.038254
0.038574
0.038894
0.039214
0.039535
0.039856
0.040178
0.040499
0.040821
0.041145
0.041469
0.041794
0.042120
0.042448
0.042780
0.043111
0.043446
0.043784
0.044125
0.044471
0.030496
0.030105
0.031067
0.029626
0.001580
0.000904
0.002037
0.000671
-0.027870
-0.027999
-0.026214
-0.027096
-0.025022
-0.027614
-0.050400
-0.049227
-0.049540
-0.048596
-0.027550
-0.009192
-0.008001
-0.007939
-0.006666
0.013056
0.012915
0.014915
0.010666
-0.011882
-0.012568
-0.011316
0.002669
0.004148
0.002394
0.004378
0.042707
0.041341
0.043611
0.041272
-0.005514
-0.007976
-0.005163
-0.008532
-0.046341
-0.046187
-0.047489
-0.037958
-0.037982
-0.037103
-0.039818
-0.039746
-0.040584
0.033631
0.036635
0.034746
0.036040
0.008275
0.008179
0.009481
-0.004857
-0.006830
0.000390
0.044279
0.045516
0.045593
-0.008776
-0.010767
-0.010766
-0.035482
-0.032275
-0.030062
0.035865
0.036224
0.035485
-0.009220
-0.039162
-0.039192
-0.038051
-0.005332
-0.005615
-0.006626
-0.004309
0.028120
0.027703
0.027606
0.003658
0.002400
-0.000888
0.027984
0.034477
0.034966
0.034243
0.016850
0.015248
0.017362
0.034796
0.035018
0.033991
0.025282
0.024830
0.025583
0.012743
0.011056
0.012496
0.024616
-0.000638
0.000727
0.001298
0.015744
-0.038421
-0.038838
-0.038885
-0.000209
0.032143
0.031464
0.032079
-0.016657
-0.017154
-0.015159
0.039033
0.038404
0.038503
0.037864
0.038381
0.037779
-0.021991
-0.025232
-0.021656
-0.024421
-0.009089
-0.007961
-0.007840
0.031704
0.035238
-0.006496
-0.055766
-0.054248
-0.054487
-0.040937
-0.041688
-0.040654
0.015171
0.018799
0.019673
-0.053115
0.035854
0.035451
0.035721
0.035302
0.007510
0.008704
0.009680
0.021551
-0.030090
-0.030675
-0.030191
0.010210
0.009651
0.010045
0.009276
0.039853
0.039359
0.039000
0.011675
0.032688
0.031250
0.032072
-0.053310
-0.052465
-0.051569
0.038745
0.038998
0.038509
0.038348
-0.040571
-0.039926
-0.041001
-0.040350
-0.003133
-0.002232
-0.002091
0.038522
-0.033153
-0.034988
-0.029553
-0.003093
-0.029667
-0.029390
-0.031738
-0.025780
0.042434
0.044306
-0.032463
0.042046
-0.039338
-0.039401
-0.039137
-0.039560
-0.013981
-0.014153
-0.015603
0.013393
-0.030761
-0.024930
-0.034601
-0.034275
-0.034686
-0.034228
0.029973
0.029939
0.029564
0.029606
-0.039242
-0.038701
-0.012409
-0.036918
-0.036551
-0.036884
-0.036421
0.005487
0.005273
0.006128
0.040400
0.040603
0.039653
0.004710
0.041323
-0.023665
-0.021770
-0.020151
0.038471
0.038228
0.037485
-0.019477
-0.016198
-0.016339
-0.017312
0.039158
-0.017195
-0.036414
-0.036903
-0.035921
-0.016113
-0.015218
-0.015288
-0.036193
0.031322
0.031324
0.030396
0.024673
0.024311
0.024851
-0.015566
-0.016381
-0.014176
-0.020730
-0.019379
-0.019799
0.032450
0.032817
0.032662
0.032759
0.011207
0.009964
0.010361
0.024319
0.030651
0.021787
0.021872
0.021166
0.031544
0.032758
0.031924
0.033230
0.038351
0.038513
0.038095
0.038250
0.051497
0.050542
0.049984
-0.027391
-0.026813
-0.025806
-0.028870
0.048821
0.020006
0.021044
0.020131
-0.023106
-0.022343
-0.022695
0.033150
0.032625
0.033154
0.050501
0.052494
0.032650
-0.059017
-0.060830
-0.059159
0.044553
0.043827
0.043839
0.043098
-0.012210
-0.009653
0.033664
0.033890
0.033582
-0.018215
-0.017620
-0.019231
-0.018049
0.037142
-0.022484
0.035935
0.036466
-0.023689
-0.024578
-0.024316
-0.037471
-0.036611
-0.037790
-0.036424
-0.040950
-0.042046
-0.041843
-0.042943
-0.039882
-0.039883
-0.038891
-0.040005
-0.039350
-0.039628
-0.044155
-0.043223
-0.044466
-0.039090
0.008080
0.007332
0.007264
0.022611
0.022389
-0.045011
-0.044754
-0.044389
-0.045544
-0.040315
-0.040610
-0.040493
-0.040913
-0.033336
-0.033918
-0.033844
-0.034365
-0.049916
-0.049963
-0.050999
-0.038861
-0.049210
0.024575
0.023786
0.026866
-0.014523
-0.015893
-0.011994
-0.017292
0.041102
0.041589
0.040937
0.041952
-0.042201
-0.043497
0.031074
0.031400
0.029763
-0.033890
-0.033953
0.030284
0.039500
0.040298
0.040352
0.041160
0.038691
0.038630
0.037836
-0.034212
0.013324
0.011976
0.012776
0.010872
0.037404
0.036392
0.037623
-0.038786
-0.037370
-0.038101
-0.036380
0.043568
0.043866
0.044480
0.042897
-0.060475
-0.059577
-0.058354
-0.057109
-0.037761
-0.038840
0.024379
0.025236
0.023315
0.023352
-0.032432
-0.030310
-0.029127
-0.027702
0.037020
0.038032
0.038615
0.039303
0.037901
0.015764
0.017365
0.014422
0.042345
0.042821
0.043567
-0.002883
-0.004265
0.001141
0.035180
0.033989
0.035318
0.033834
0.041797
0.040959
0.040611
-0.003121
-0.002143
-0.039189
-0.039313
-0.038648
0.005119
0.005011
0.006597
0.032047
0.032010
-0.039864
-0.039245
-0.038613
-0.038214
-0.037232
-0.037535
-0.036924
0.043141
0.012611
0.010550
0.012532
0.045071
-0.031314
-0.031972
-0.031713
0.018793
0.018438
0.016297
-0.037583
0.004243
0.001660
0.016518
-0.032471
-0.037934
-0.038489
-0.038576
-0.003546
-0.004100
-0.006292
0.034619
0.034974
0.034075
-0.020935
-0.019684
-0.035476
-0.034913
0.008449
0.009718
0.006965
-0.035580
0.006170
0.007793
0.008046
0.009651
-0.040994
-0.040656
-0.040362
-0.041282
-0.033147
-0.034283
-0.034215
-0.035618
-0.028148
-0.028821
-0.029774
0.033404
0.034323
0.034399
-0.001396
-0.002702
-0.001264
-0.044476
-0.045316
-0.026352
0.034036
-0.034580
-0.034451
-0.035620
-0.033329
-0.062602
-0.061431
-0.060487
-0.060082
0.003486
0.004926
0.003242
-0.027328
-0.025731
-0.027283
-0.025501
-0.045647
-0.043224
-0.043053
0.030352
0.031328
0.031007
-0.028808
-0.027583
-0.039396
-0.039316
-0.039898
0.023271
0.025093
0.025227
-0.039626
-0.028719
-0.030525
-0.030273
0.036669
0.037461
0.037471
0.016502
0.014330
0.022765
-0.029232
-0.029747
-0.029249
-0.036533
-0.037768
-0.037226
-0.036528
-0.037265
-0.036306
-0.037362
-0.037680
-0.036461
0.002937
0.004616
0.003819
0.002887
0.004240
0.004298
-0.031174
-0.036873
-0.041941
-0.041546
-0.041744
-0.001211
-0.001308
-0.002645
0.000214
-0.002003
-0.000452
-0.001523
0.000486
-0.041318
-0.041096
-0.040623
-0.040572
0.010227
0.013131
0.007979
0.037355
0.036860
0.038116
0.036470
-0.038889
-0.039233
-0.038916
-0.032541
-0.030847
-0.032361
-0.039175
-0.034007
-0.035165
-0.034970
0.041344
0.038676
0.040813
0.038384
-0.040124
-0.040085
-0.040589
0.038676
0.038965
0.039529
0.032718
0.033094
0.032882
0.032913
-0.050724
-0.049757
-0.048918
-0.037143
-0.037248
-0.038039
-0.038050
0.037815
0.037690
0.038337
-0.011064
-0.010984
-0.011950
0.028144
0.028001
0.029004
0.028854
0.028818
0.027952
0.028263
-0.004233
-0.002888
-0.002953
0.003292
0.004712
0.004283
-0.004290
-0.041479
-0.042141
-0.041189
0.005466
0.004245
0.005422
-0.010943
-0.010259
-0.042921
-0.042835
-0.042342
0.042782
0.043429
0.042739
-0.042120
-0.010154
0.030710
0.028850
0.029695
-0.035415
-0.035978
-0.036680
-0.028529
-0.029250
-0.034934
-0.034944
-0.035779
0.035365
0.036281
0.036230
-0.039399
-0.039155
-0.040437
-0.040317
-0.039583
-0.039512
-0.039167
-0.039692
-0.010052
-0.011258
-0.011364
-0.010278
0.033588
0.033625
0.034557
0.032726
0.034507
0.035484
0.039215
0.040000
0.040158
0.050062
0.051247
0.050777
0.041147
0.034347
0.034338
0.035073
0.035231
0.034931
-0.030495
-0.030331
0.029853
-0.005725
-0.005381
-0.006497
-0.006996
-0.033758
-0.035258
-0.035018
-0.028545
0.036028
0.036148
0.035516
0.035570
-0.041523
-0.041572
-0.040124
0.000329
0.001317
0.001482
0.020597
0.021224
0.022586
0.017238
-0.033246
-0.030285
-0.032589
0.040920
0.039910
0.040073
0.027032
0.027182
0.025385
-0.026804
-0.037596
-0.035575
-0.036301
0.038446
0.039647
0.039409
-0.036903
-0.006449
-0.036795
-0.037684
-0.036318
-0.037995
0.002092
0.000257
0.038673
0.039773
-0.052727
-0.051920
-0.000761
0.000498
0.000379
0.001916
-0.008295
-0.009578
-0.009702
0.001378
0.002842
0.003042
0.029872
0.031530
0.030877
0.001250
-0.028025
-0.029230
-0.027599
0.042769
0.043398
0.043814
0.009519
0.010879
0.011024
-0.027590
-0.024914
-0.024947
-0.039784
-0.039525
-0.039131
0.030170
0.029974
0.031204
0.038950
0.039752
0.039873
0.040826
0.028920
-0.039992
-0.040361
-0.040634
-0.015862
-0.017126
-0.016250
0.035396
0.036062
0.035514
0.036498
0.034681
0.034810
0.033745
-0.031880
-0.033428
-0.033109
0.022991
-0.051789
-0.050206
-0.051483
-0.040246
-0.029976
-0.029882
-0.028694
-0.037144
-0.036243
-0.037683
-0.028521
0.036031
0.037371
-0.016415
-0.019503
-0.018824
-0.020975
-0.022238
-0.023315
-0.032239
-0.033388
-0.033506
-0.034288
-0.024429
0.023799
0.024308
0.024690
-0.046651
-0.047533
-0.047133
-0.035476
-0.035567
-0.034400
-0.039163
-0.039462
-0.039475
-0.039792
0.036738
0.044491
0.042953
0.044553
0.043520
-0.034857
-0.035135
-0.035760
0.044131
-0.036750
-0.036227
-0.005187
-0.003993
0.031620
0.031830
0.031372
0.033707
0.033777
0.034460
0.031525
0.035259
0.035101
-0.041226
-0.042309
-0.042139
-0.043159
-0.027447
-0.027060
-0.027690
0.013237
0.012021
0.010862
0.024701
0.024069
0.026284
-0.013779
-0.012164
-0.012568
-0.013476
0.024695
0.037439
0.037478
0.037040
0.007624
0.007062
0.008338
-0.013822
-0.013429
-0.016527
-0.041293
-0.042044
-0.040995
-0.028333
-0.041756
0.037121
-0.008894
-0.008776
-0.007501
0.007861
0.009085
0.008924
-0.023294
-0.022199
-0.020701
-0.019745
-0.040692
-0.041444
0.031543
0.032844
0.032420
0.028317
0.028105
0.031510
0.030833
-0.041410
-0.042514
-0.042397
-0.043748
0.032888
0.033268
0.033384
0.032879
-0.038408
-0.034877
-0.036470
0.032858
0.033063
0.033666
-0.038108
0.034782
0.034178
0.034310
0.035626
-0.034128
-0.034432
-0.034002
-0.033907
-0.034099
-0.035003
-0.036142
-0.035652
-0.037497
-0.037939
-0.038721
-0.036946
0.022545
0.023056
0.022492
0.037087
0.037191
0.037932
-0.031257
-0.031544
-0.030728
0.036571
-0.030212
-0.029888
-0.030699
-0.037398
-0.038346
-0.037629
0.042411
0.042070
-0.039715
-0.040374
-0.038705
-0.039492
0.008374
0.007450
0.006971
-0.038761
0.022112
0.022609
0.023001
0.014625
0.012252
0.012859
0.007450
0.007386
0.008507
-0.045107
-0.044116
-0.043894
0.010036
0.041583
0.042388
0.041449
0.006722
0.006266
0.004631
-0.008144
-0.009191
-0.009543
-0.008056
0.002924
0.001640
-0.030499
-0.030372
-0.029787
-0.003581
-0.002971
-0.002269
0.030157
0.030944
-0.012111
-0.013203
-0.014397
-0.001828
-0.029553
0.000727
0.001656
-0.034428
-0.035489
-0.034981
-0.035832
-0.043456
-0.045876
-0.046242
-0.043006
-0.030054
-0.031197
-0.030116
0.011564
0.011045
0.012706
-0.030973
-0.029982
-0.038168
-0.038780
-0.028550
0.029071
0.028832
0.028528
0.029429
0.019675
0.018244
0.018219
0.019553
0.016755
0.018584
0.016911
-0.041561
-0.042811
-0.042458
0.043349
0.043144
0.030289
0.030814
0.031437
0.031983
-0.041549
-0.040634
-0.039831
-0.039979
-0.039878
-0.039038
-0.039031
-0.035600
-0.035056
-0.035520
-0.034919
-0.031073
-0.029138
-0.032379
-0.032411
-0.033939
0.026266
0.025680
0.026853
0.026326
-0.047588
-0.045329
-0.046797
0.026272
0.025375
0.042566
0.025510
-0.048653
-0.049817
-0.049316
0.042777
0.029414
0.025183
0.026440
-0.050581
0.026176
-0.043760
-0.037895
-0.008414
-0.007614
-0.006912
-0.038223
-0.034562
-0.034980
-0.035071
-0.035457
-0.030922
-0.030526
-0.032025
-0.030776
0.040478
0.040260
0.040956
0.040384
-0.033644
-0.034289
-0.033765
-0.034458
0.031426
0.031669
0.032807
0.032593
-0.032953
-0.033198
-0.039669
-0.039328
0.029783
0.029117
0.029814
0.029286
0.029624
0.028681
-0.036160
-0.036269
-0.017089
-0.016359
-0.017737
-0.016295
0.029541
-0.029956
-0.030870
-0.031741
-0.027783
-0.002406
-0.001502
-0.001505
0.027254
0.025705
-0.000705
-0.027304
-0.027424
-0.026325
-0.026711
-0.009730
-0.010781
-0.002414
-0.003773
0.024242
0.023495
-0.004142
-0.036259
-0.034511
-0.035203
-0.032191
0.032630
0.033745
0.033520
0.034628
0.018332
0.020132
0.029529
0.029501
0.030763
-0.035678
-0.034588
-0.034620
0.039050
0.038932
0.039780
0.021885
0.022062
0.039818
0.030946
0.030247
0.032561
0.001483
0.001638
0.002755
0.023725
-0.031548
-0.032173
0.024167
0.025363
0.025997
0.033611
0.033082
0.033890
-0.048018
-0.048485
0.032968
-0.042622
-0.043307
-0.042472
0.036848
0.035744
0.019553
0.017840
0.020945
-0.038267
-0.038118
-0.038478
-0.038288
-0.040998
-0.040669
-0.020676
-0.020461
-0.023340
-0.034752
-0.035110
-0.035863
-0.036157
-0.029026
-0.028994
0.010046
0.011383
0.009608
0.031989
0.032311
0.026298
0.027193
0.025889
0.031994
0.032288
0.031794
0.032039
-0.010577
-0.008806
-0.008160
-0.032079
-0.033698
-0.033069
-0.035264
-0.030518
-0.031245
-0.029242
0.028851
0.029727
0.030012
0.029038
0.050494
0.049252
0.049879
-0.035131
-0.035521
-0.035428
-0.018210
-0.020114
-0.018777
-0.035361
-0.030174
-0.028761
-0.029625
-0.029528
-0.008793
-0.007626
-0.007486
-0.031971
-0.033697
-0.047829
-0.046852
-0.047422
0.036690
0.036344
0.037402
-0.033474
0.038635
-0.034436
-0.034285
0.026981
0.028121
0.027458
0.027826
0.028217
0.025953
0.027470
0.048135
0.047005
0.047276
0.046261
0.043369
0.043982
0.043992
-0.040862
-0.040956
-0.041303
0.044628
-0.041312
-0.040318
-0.040105
-0.030605
-0.028904
-0.031814
-0.024082
-0.021343
-0.022347
0.041955
0.041929
0.041349
0.040947
-0.023760
0.027202
0.026682
0.030234
0.025390
0.024896
0.025430
0.024815
-0.024312
-0.024792
-0.023791
-0.025251
-0.029612
-0.028873
-0.028507
0.019186
0.018776
0.017908
0.017642
-0.036039
-0.036461
-0.036330
0.046453
-0.036816
0.045432
-0.035670
-0.034945
-0.024950
-0.023649
0.001651
-0.000024
-0.020697
-0.020124
-0.018731
0.009697
0.008991
-0.041475
-0.042376
-0.042191
-0.043291
0.008352
0.009653
0.008874
0.012137
0.012139
0.012959
0.028045
0.028502
0.027075
0.029727
-0.019949
-0.025412
-0.009453
-0.011195
-0.009977
-0.011404
0.005538
0.006400
0.008247
0.007793
0.007421
0.007008
0.021343
0.022099
0.022493
0.007783
0.004634
0.004562
0.021121
-0.006665
-0.007872
-0.006389
-0.007566
0.023397
0.022922
0.019622
0.024230
-0.036716
-0.035281
-0.035784
-0.034043
-0.049773
-0.050098
-0.051489
-0.048806
0.007243
0.033014
0.032667
0.032714
0.032351
-0.048862
-0.048161
0.032297
-0.046633
-0.032839
-0.032731
-0.033340
-0.033106
-0.029056
-0.028147
-0.029761
0.027055
-0.005793
-0.005866
-0.007359
-0.027224
-0.026525
0.028652
0.028255
0.028414
-0.030889
-0.031406
0.038201
0.037064
0.037534
0.048382
0.047379
-0.031976
-0.030210
-0.049023
-0.048447
-0.025284
-0.024924
-0.025642
-0.024440
-0.000371
-0.001498
-0.000115
-0.001578
-0.029833
-0.025800
-0.026251
0.006693
-0.026457
-0.033142
-0.032466
-0.032479
-0.000143
-0.001452
-0.013984
-0.012506
-0.013477
-0.011853
0.028552
0.029053
0.028357
0.029208
0.033452
0.033811
0.034040
0.033315
-0.012415
-0.013248
-0.013881
0.017589
0.017052
0.018125
-0.007035
-0.008776
0.016668
-0.026786
-0.026590
-0.048518
-0.045762
-0.025969
-0.027277
-0.047433
-0.027148
0.053075
0.054546
0.053805
0.046965
0.029876
0.030831
0.031544
-0.037016
-0.035474
-0.036563
-0.017698
-0.017798
-0.018468
-0.018375
0.043677
0.033028
0.033469
0.033629
-0.039288
-0.046776
-0.046430
-0.045997
-0.047271
0.036396
0.036796
-0.047624
-0.048226
-0.047547
-0.015511
0.035818
0.035960
0.036536
0.040939
0.039946
0.040563
0.035923
-0.023966
-0.024746
-0.024393
-0.024470
-0.017336
-0.016667
-0.017126
-0.043066
-0.044108
0.048065
0.047183
0.045971
-0.027205
-0.026243
-0.024989
0.049020
0.049775
0.048931
0.001762
0.000454
-0.023800
-0.016316
-0.018566
-0.017518
-0.015614
0.030145
0.028113
0.030874
-0.005214
-0.007521
-0.010772
0.009253
0.010148
0.009626
-0.019256
-0.018209
-0.018002
0.011332
0.010465
0.011736
0.010805
0.007466
0.008749
-0.017377
-0.017445
-0.015635
-0.015752
-0.052198
-0.053820
-0.051236
-0.055322
-0.034611
-0.035687
-0.034965
-0.051159
-0.032994
0.022104
0.021659
0.022447
0.021568
0.032531
0.050020
0.048752
0.032193
0.042649
0.043200
0.009872
0.011027
0.032450
-0.015071
0.031896
0.027252
0.026946
0.027443
0.042066
0.042099
0.037154
0.036036
0.040754
0.039909
0.044241
0.045199
0.027263
0.040935
0.027811
0.027422
0.016361
0.015945
0.016758
-0.055102
-0.055025
-0.056048
-0.054013
0.015505
0.032727
0.032386
0.031370
0.031910
0.033202
-0.031340
-0.031929
-0.048023
-0.046776
-0.030741
-0.041815
-0.036682
0.031140
0.031240
0.031462
0.030875
0.031739
0.046123
0.047049
0.008914
0.009070
0.031595
0.030774
0.031477
0.030616
0.031190
-0.036179
-0.034186
-0.016317
-0.016418
-0.035601
-0.035348
-0.038787
-0.042719
-0.018857
-0.017473
-0.042357
-0.042001
-0.042955
-0.041734
0.004269
0.004876
-0.035169
-0.034171
-0.034298
-0.036743
-0.036438
-0.008957
-0.016799
-0.036119
-0.035900
-0.036916
-0.037156
0.032873
0.033690
-0.037209
0.030832
0.030867
0.031190
0.030135
-0.026767
0.043374
-0.040402
-0.041078
-0.027128
-0.026627
-0.025383
0.007508
0.009000
0.009042
-0.039526
-0.039692
-0.000222
0.000362
0.001070
0.037760
0.037828
0.037258
0.037474
0.032921
0.033236
0.032830
0.033341
0.032446
0.031316
0.030870
-0.036641
-0.036471
0.026186
0.026229
0.026689
-0.001924
0.000053
-0.001503
-0.000710
0.025779
-0.047489
-0.048897
0.049276
0.049999
-0.037902
-0.036915
-0.053496
-0.052303
-0.051938
0.034951