# vtk DataFile Version 2.0
Test
ASCII
DATASET POLYDATA
POINTS 6352 float
0.000000 0.000000 0.000000
1.000000 0.000000 0.000000
1.000000 0.800000 0.000000
1.000000 1.000000 0.000000
0.000000 1.000000 0.000000
0.000000 0.200000 0.000000
0.300000 0.330000 0.000000
0.700000 0.680000 0.000000
0.050000 0.000000 0.000000
0.100000 0.000000 0.000000
0.150000 0.000000 0.000000
0.200000 0.000000 0.000000
0.250000 0.000000 0.000000
0.300000 0.000000 0.000000
0.350000 0.000000 0.000000
0.400000 0.000000 0.000000
0.450000 0.000000 0.000000
0.500000 0.000000 0.000000
0.550000 0.000000 0.000000
0.600000 0.000000 0.000000
0.650000 0.000000 0.000000
0.700000 0.000000 0.000000
0.750000 0.000000 0.000000
0.800000 0.000000 0.000000
0.850000 0.000000 0.000000
0.900000 0.000000 0.000000
0.950000 0.000000 0.000000
1.000000 0.048545 0.000000
1.000000 0.094438 0.000000
1.000000 0.137825 0.000000
1.000000 0.178843 0.000000
1.000000 0.217620 0.000000
1.000000 0.254280 0.000000
1.000000 0.288938 0.000000
1.000000 0.321703 0.000000
1.000000 0.352678 0.000000
1.000000 0.381962 0.000000
1.000000 0.409647 0.000000
1.000000 0.435820 0.000000
1.000000 0.460563 0.000000
1.000000 0.483955 0.000000
1.000000 0.506070 0.000000
1.000000 0.526976 0.000000
1.000000 0.546741 0.000000
1.000000 0.565427 0.000000
1.000000 0.583092 0.000000
1.000000 0.599793 0.000000
1.000000 0.615581 0.000000
1.000000 0.630507 0.000000
1.000000 0.644618 0.000000
1.000000 0.657958 0.000000
1.000000 0.670570 0.000000
1.000000 0.682493 0.000000
1.000000 0.693765 0.000000
1.000000 0.704421 0.000000
1.000000 0.714495 0.000000
1.000000 0.724019 0.000000
1.000000 0.733023 0.000000
1.000000 0.741536 0.000000
1.000000 0.749583 0.000000
1.000000 0.757191 0.000000
1.000000 0.764383 0.000000
1.000000 0.771183 0.000000
1.000000 0.777611 0.000000
1.000000 0.783688 0.000000
1.000000 0.789434 0.000000
1.000000 0.794865 0.000000
1.000000 0.805174 0.000000
1.000000 0.811554 0.000000
1.000000 0.819418 0.000000
1.000000 0.829114 0.000000
1.000000 0.841067 0.000000
1.000000 0.855804 0.000000
1.000000 0.873972 0.000000
1.000000 0.896371 0.000000
1.000000 0.923985 0.000000
1.000000 0.958029 0.000000
0.950000 1.000000 0.000000
0.900000 1.000000 0.000000
0.850000 1.000000 0.000000
0.800000 1.000000 0.000000
0.750000 1.000000 0.000000
0.700000 1.000000 0.000000
0.650000 1.000000 0.000000
0.600000 1.000000 0.000000
0.550000 1.000000 0.000000
0.500000 1.000000 0.000000
0.450000 1.000000 0.000000
0.400000 1.000000 0.000000
0.350000 1.000000 0.000000
0.300000 1.000000 0.000000
0.250000 1.000000 0.000000
0.200000 1.000000 0.000000
0.150000 1.000000 0.000000
0.100000 1.000000 0.000000
0.050000 1.000000 0.000000
0.000000 0.951455 0.000000
0.000000 0.905562 0.000000
0.000000 0.862175 0.000000
0.000000 0.821157 0.000000
0.000000 0.782380 0.000000
0.000000 0.745720 0.000000
0.000000 0.711062 0.000000
0.000000 0.678297 0.000000
0.000000 0.647322 0.000000
0.000000 0.618038 0.000000
0.000000 0.590353 0.000000
0.000000 0.564180 0.000000
0.000000 0.539437 0.000000
0.000000 0.516045 0.000000
0.000000 0.493930 0.000000
0.000000 0.473024 0.000000
0.000000 0.453259 0.000000
0.000000 0.434573 0.000000
0.000000 0.416908 0.000000
0.000000 0.400207 0.000000
0.000000 0.384419 0.000000
0.000000 0.369493 0.000000
0.000000 0.355382 0.000000
0.000000 0.342042 0.000000
0.000000 0.329430 0.000000
0.000000 0.317507 0.000000
0.000000 0.306235 0.000000
0.000000 0.295579 0.000000
0.000000 0.285505 0.000000
0.000000 0.275981 0.000000
0.000000 0.266977 0.000000
0.000000 0.258464 0.000000
0.000000 0.250417 0.000000
0.000000 0.242809 0.000000
0.000000 0.235617 0.000000
0.000000 0.228817 0.000000
0.000000 0.222389 0.000000
0.000000 0.216312 0.000000
0.000000 0.210566 0.000000
0.000000 0.205135 0.000000
0.000000 0.194826 0.000000
0.000000 0.188446 0.000000
0.000000 0.180582 0.000000
0.000000 0.170886 0.000000
0.000000 0.158933 0.000000
0.000000 0.144196 0.000000
0.000000 0.126028 0.000000
0.000000 0.103629 0.000000
0.000000 0.076015 0.000000
0.000000 0.041971 0.000000
0.303738 0.333271 0.000000
0.307477 0.336542 0.000000
0.311215 0.339813 0.000000
0.314953 0.343084 0.000000
0.318692 0.346355 0.000000
0.322430 0.349626 0.000000
0.326168 0.352897 0.000000
0.329907 0.356168 0.000000
0.333645 0.359439 0.000000
0.337383 0.362710 0.000000
0.341121 0.365981 0.000000
0.344860 0.369252 0.000000
0.348598 0.372523 0.000000
0.352336 0.375794 0.000000
0.356075 0.379065 0.000000
0.359813 0.382336 0.000000
0.363551 0.385607 0.000000
0.367290 0.388879 0.000000
0.371028 0.392150 0.000000
0.374766 0.395421 0.000000
0.378505 0.398692 0.000000
0.382243 0.401963 0.000000
0.385981 0.405234 0.000000
0.389720 0.408505 0.000000
0.393458 0.411776 0.000000
0.397196 0.415047 0.000000
0.400935 0.418318 0.000000
0.404673 0.421589 0.000000
0.408411 0.424860 0.000000
0.412150 0.428131 0.000000
0.415888 0.431402 0.000000
0.419626 0.434673 0.000000
0.423364 0.437944 0.000000
0.427103 0.441215 0.000000
0.430841 0.444486 0.000000
0.434579 0.447757 0.000000
0.438318 0.451028 0.000000
0.442056 0.454299 0.000000
0.445794 0.457570 0.000000
0.449533 0.460841 0.000000
0.453271 0.464112 0.000000
0.457009 0.467383 0.000000
0.460748 0.470654 0.000000
0.464486 0.473925 0.000000
0.468224 0.477196 0.000000
0.471963 0.480467 0.000000
0.475701 0.483738 0.000000
0.479439 0.487009 0.000000
0.483178 0.490280 0.000000
0.486916 0.493551 0.000000
0.490654 0.496822 0.000000
0.494393 0.500093 0.000000
0.498131 0.503364 0.000000
0.501869 0.506636 0.000000
0.505607 0.509907 0.000000
0.509346 0.513178 0.000000
0.513084 0.516449 0.000000
0.516822 0.519720 0.000000
0.520561 0.522991 0.000000
0.524299 0.526262 0.000000
0.528037 0.529533 0.000000
0.531776 0.532804 0.000000
0.535514 0.536075 0.000000
0.539252 0.539346 0.000000
0.542991 0.542617 0.000000
0.546729 0.545888 0.000000
0.550467 0.549159 0.000000
0.554206 0.552430 0.000000
0.557944 0.555701 0.000000
0.561682 0.558972 0.000000
0.565421 0.562243 0.000000
0.569159 0.565514 0.000000
0.572897 0.568785 0.000000
0.576636 0.572056 0.000000
0.580374 0.575327 0.000000
0.584112 0.578598 0.000000
0.587850 0.581869 0.000000
0.591589 0.585140 0.000000
0.595327 0.588411 0.000000
0.599065 0.591682 0.000000
0.602804 0.594953 0.000000
0.606542 0.598224 0.000000
0.610280 0.601495 0.000000
0.614019 0.604766 0.000000
0.617757 0.608037 0.000000
0.621495 0.611308 0.000000
0.625234 0.614579 0.000000
0.628972 0.617850 0.000000
0.632710 0.621121 0.000000
0.636449 0.624393 0.000000
0.640187 0.627664 0.000000
0.643925 0.630935 0.000000
0.647664 0.634206 0.000000
0.651402 0.637477 0.000000
0.655140 0.640748 0.000000
0.658879 0.644019 0.000000
0.662617 0.647290 0.000000
0.666355 0.650561 0.000000
0.670093 0.653832 0.000000
0.673832 0.657103 0.000000
0.677570 0.660374 0.000000
0.681308 0.663645 0.000000
0.685047 0.666916 0.000000
0.688785 0.670187 0.000000
0.692523 0.673458 0.000000
0.696262 0.676729 0.000000
0.004545 0.201970 0.000000
0.009091 0.203939 0.000000
0.013636 0.205909 0.000000
0.018182 0.207879 0.000000
0.022727 0.209848 0.000000
0.027273 0.211818 0.000000
0.031818 0.213788 0.000000
0.036364 0.215758 0.000000
0.040909 0.217727 0.000000
0.045455 0.219697 0.000000
0.050000 0.221667 0.000000
0.054545 0.223636 0.000000
0.059091 0.225606 0.000000
0.063636 0.227576 0.000000
0.068182 0.229545 0.000000
0.072727 0.231515 0.000000
0.077273 0.233485 0.000000
0.081818 0.235455 0.000000
0.086364 0.237424 0.000000
0.090909 0.239394 0.000000
0.095455 0.241364 0.000000
0.100000 0.243333 0.000000
0.104545 0.245303 0.000000
0.109091 0.247273 0.000000
0.113636 0.249242 0.000000
0.118182 0.251212 0.000000
0.122727 0.253182 0.000000
0.127273 0.255152 0.000000
0.131818 0.257121 0.000000
0.136364 0.259091 0.000000
0.140909 0.261061 0.000000
0.145455 0.263030 0.000000
0.150000 0.265000 0.000000
0.154545 0.266970 0.000000
0.159091 0.268939 0.000000
0.163636 0.270909 0.000000
0.168182 0.272879 0.000000
0.172727 0.274848 0.000000
0.177273 0.276818 0.000000
0.181818 0.278788 0.000000
0.186364 0.280758 0.000000
0.190909 0.282727 0.000000
0.195455 0.284697 0.000000
0.200000 0.286667 0.000000
0.204545 0.288636 0.000000
0.209091 0.290606 0.000000
0.213636 0.292576 0.000000
0.218182 0.294545 0.000000
0.222727 0.296515 0.000000
0.227273 0.298485 0.000000
0.231818 0.300455 0.000000
0.236364 0.302424 0.000000
0.240909 0.304394 0.000000
0.245455 0.306364 0.000000
0.250000 0.308333 0.000000
0.254545 0.310303 0.000000
0.259091 0.312273 0.000000
0.263636 0.314242 0.000000
0.268182 0.316212 0.000000
0.272727 0.318182 0.000000
0.277273 0.320152 0.000000
0.281818 0.322121 0.000000
0.286364 0.324091 0.000000
0.290909 0.326061 0.000000
0.295455 0.328030 0.000000
0.704615 0.681846 0.000000
0.709231 0.683692 0.000000
0.713846 0.685538 0.000000
0.718462 0.687385 0.000000
0.723077 0.689231 0.000000
0.727692 0.691077 0.000000
0.732308 0.692923 0.000000
0.736923 0.694769 0.000000
0.741538 0.696615 0.000000
0.746154 0.698462 0.000000
0.750769 0.700308 0.000000
0.755385 0.702154 0.000000
0.760000 0.704000 0.000000
0.764615 0.705846 0.000000
0.769231 0.707692 0.000000
0.773846 0.709538 0.000000
0.778462 0.711385 0.000000
0.783077 0.713231 0.000000
0.787692 0.715077 0.000000
0.792308 0.716923 0.000000
0.796923 0.718769 0.000000
0.801538 0.720615 0.000000
0.806154 0.722462 0.000000
0.810769 0.724308 0.000000
0.815385 0.726154 0.000000
0.820000 0.728000 0.000000
0.824615 0.729846 0.000000
0.829231 0.731692 0.000000
0.833846 0.733538 0.000000
0.838462 0.735385 0.000000
0.843077 0.737231 0.000000
0.847692 0.739077 0.000000
0.852308 0.740923 0.000000
0.856923 0.742769 0.000000
0.861538 0.744615 0.000000
0.866154 0.746462 0.000000
0.870769 0.748308 0.000000
0.875385 0.750154 0.000000
0.880000 0.752000 0.000000
0.884615 0.753846 0.000000
0.889231 0.755692 0.000000
0.893846 0.757538 0.000000
0.898462 0.759385 0.000000
0.903077 0.761231 0.000000
0.907692 0.763077 0.000000
0.912308 0.764923 0.000000
0.916923 0.766769 0.000000
0.921538 0.768615 0.000000
0.926154 0.770462 0.000000
0.930769 0.772308 0.000000
[...]
POINT_DATA 6352
SCALARS UX float 1
LOOKUP_TABLE default
-0.000016
0.000020
31.929259
16.938487
-2.678711
-21.724772
-1.587857
9.675828
0.000002
-0.000002
-0.000001
-0.000001
-0.000001
-0.000001
-0.000001
-0.000001
-0.000001
-0.000000
-0.000000
0.000000
0.000000
0.000000
0.000001
0.000001
0.000001
0.000004
-0.000003
3.346858
5.384673
6.761901
8.090950
9.226570
10.368395
11.534340
12.707575
13.861222
14.994786
16.103970
17.169196
18.179725
19.129398
20.011189
20.827501
21.583573
22.287367
22.948253
23.572050
24.166725
24.737187
25.292963
25.831851
26.366682
26.893387
27.408841
27.907075
28.383514
28.825419
29.238817
29.624239
29.984482
30.322469
30.639837
30.947200
31.309871
31.489293
31.633192
31.743029
31.961546
32.022289
32.076654
31.817287
30.930131
30.610168
29.433894
26.562996
22.475705
18.311706
14.641175
13.296857
12.081885
11.264834
10.940479
10.753808
10.605477
10.450474
10.269488
10.014547
9.666662
9.180168
8.360676
7.311457
6.002807
4.400128
2.730445
0.978636
-0.827487
-2.637277
-2.559599
-2.603890
-2.823597
-3.261523
-3.775897
-4.344933
-4.993713
-5.698575
-6.436173
-7.192146
-7.959335
-8.717859
-9.469228
-10.217356
-10.944650
-11.681809
-12.410188
-13.132433
-13.848121
-14.541447
-15.208287
-15.846102
-16.448312
-17.013667
-17.540900
-18.029721
-18.480257
-18.893190
-19.267625
-19.607610
-19.912907
-20.187371
-20.436267
-20.686187
-20.897160
-21.089129
-21.260355
-21.420742
-21.570964
-21.864121
-22.006380
-22.143589
-22.186058
-22.010396
-20.508025
-19.585658
-13.914771
-9.126375
-3.144153
-1.475465
2.019532
-1.986308
-4.386614
-3.304678
-3.309283
-8.187969
-13.106899
-5.710130
-3.112200
-2.592001
-1.425962
-0.985606
-0.580204
0.206884
-0.039880
-0.581264
-0.240054
-0.438215
-0.402513
-0.382552
-0.388983
0.019813
0.688710
0.712203
1.532793
1.376550
1.171430
1.479528
1.027349
0.052157
-0.055321
-0.586127
-0.884175
-1.253397
0.471058
-0.194942
-1.138392
0.083333
-0.085618
-0.037213
0.585794
0.818582
2.080157
3.477435
3.800133
3.727830
3.387288
3.674444
4.051082
2.260965
1.857004
2.518099
2.309875
2.825910
1.836915
1.576780
3.708884
3.842904
2.903673
4.203892
4.591850
4.255140
3.409887
3.994618
3.752229
4.349976
4.930891
6.410958
4.962885
5.121337
5.311007
4.861286
4.469032
5.742790
4.914551
5.783263
7.399262
8.241983
8.158364
9.082085
7.931774
8.575650
8.585315
7.937436
8.800116
8.462246
7.100251
6.750499
5.716429
5.322077
5.269338
5.555759
6.097261
6.406639
5.751487
5.802531
5.927640
6.316006
7.536246
8.267936
10.416244
8.764204
10.799683
9.204740
7.942422
-21.521980
-21.335639
-21.150628
-20.968889
-20.813311
-20.707091
-20.590467
-20.477437
-20.365465
-20.254831
-20.140840
-20.025963
-19.911155
-19.793804
-19.663537
-19.532957
-19.407013
-19.283904
-19.161177
-19.035917
-18.915369
-18.799189
-18.681432
-18.572366
-18.465692
-18.363092
-18.258069
-18.152893
-18.051650
-17.950850
-17.856739
-17.771080
-17.684251
-17.617154
-17.568227
-17.410725
-17.273495
-17.217096
-16.961620
-16.784848
-16.455993
-16.141504
-15.816085
-15.433719
-15.091352
-14.828579
-14.552923
-14.299714
-14.270152
-14.330420
-13.981486
-13.762908
-13.134295
-13.294708
-13.181001
-14.250673
-14.518658
-12.558363
-12.453121
-11.588261
-11.610532
-10.312840
-9.105741
-7.018917
-3.973345
11.205571
12.413257
13.594568
14.638942
16.130830
17.563286
19.225128
20.876554
21.978047
22.781967
23.189281
23.243278
23.579906
24.165650
24.778517
25.029645
25.153876
25.279985
25.452884
25.696547
25.881728
26.011897
26.144059
26.295968
26.464347
26.639803
26.718424
26.885031
26.939461
27.048341
27.178291
27.275039
27.370504
27.438766
27.492470
27.601481
27.642485
27.683148
27.761239
27.901610
28.000192
28.072547
28.196349
28.298733
28.406445
28.521102
28.639979
28.771270
28.898082
29.028248
29.201425
29.405725
29.600841
29.800221
30.023932
30.234670
30.425517
30.627938
30.839167
31.017754
31.184460
31.354693
31.560711
31.751859
11.727952
11.098694
11.627648
11.124036
0.117605
0.071441
0.034872
0.046419
-10.936333
-11.241403
-8.904712
-9.138743
-5.641804
-9.756118
-9.171910
-9.236931
-8.729873
-8.792550
-9.436147
0.424465
0.380262
0.463026
0.365958
10.327225
10.014408
10.351929
10.145756
0.661221
0.521380
0.617264
9.042041
9.294007
9.516329
9.664561
15.634702
14.721864
15.535416
15.220949
0.175948
0.194452
0.205038
0.196256
-14.997435
-14.712512
-14.653341
-20.203724
-20.304593
-20.179932
-15.972483
-15.703225
-15.599533
9.827942
11.222560
10.743277
10.473181
3.070690
2.931085
3.308952
2.785587
2.722501
3.115665
18.042802
18.037252
18.691702
3.746774
3.336257
3.066650
-7.245321
-3.580509
-4.473896
27.340572
27.374611
27.423516
4.054929
-15.077639
-15.258932
-15.360913
1.091109
1.230896
1.118975
1.258972
13.162732
13.122359
12.813309
3.865268
3.653647
3.373326
13.467839
20.725808
20.740082
21.073880
7.901326
7.320996
7.827968
21.144021
21.366353
21.460294
10.103292
9.655452
10.145517
6.582173
6.365894
6.308969
9.684464
0.815526
0.819298
1.046474
7.181286
-7.709006
-7.724810
-7.969872
0.674683
14.741155
14.069257
14.390342
-0.348315
-0.314970
-0.085701
22.195487
22.564752
22.287426
22.678437
22.112086
22.495449
7.103939
5.940707
6.528882
5.461128
0.530447
0.485437
0.621286
13.897128
27.385988
0.588174
-8.790311
-8.791166
-8.055984
-13.501139
-13.392843
-13.656198
9.766046
10.663045
10.920979
-8.353119
19.629466
19.309688
19.179635
19.647340
5.143542
5.253449
5.262210
11.151978
-4.614839
-4.966977
-4.889870
4.629345
4.527234
4.431130
4.255847
17.471395
17.606189
17.050791
5.547143
23.223165
22.803199
23.063246
-15.191846
-15.792751
-15.694578
21.071947
21.321448
21.415059
21.813222
-14.252849
-14.312618
-14.056374
-14.098277
0.907151
1.145924
1.103139
17.107945
-8.061161
-7.758213
-6.533673
1.059562
-7.605262
-7.645362
-8.204825
-6.117547
14.759153
15.131577
-8.273528
14.095835
-9.514266
-9.696764
-9.532932
-9.627823
0.187405
0.208718
0.012006
9.535189
-4.846720
-6.559341
-6.989359
-6.755971
-6.808353
-6.933161
14.261864
14.502377
14.081673
14.460894
-14.426387
-14.571738
0.328817
-7.784939
-7.566630
-7.525148
-7.346972
3.071275
2.923920
3.163768
17.132762
17.606975
16.938906
2.862478
17.675318
-1.705482
-2.114304
-1.336166
24.271523
24.607312
24.543342
-1.848894
0.288390
0.427948
-0.071915
24.326597
0.211189
-5.828972
-6.290553
-5.818674
0.122044
0.583036
0.346871
-6.224659
12.549793
13.000811
12.197728
12.044631
11.759290
11.751834
-0.020444
-0.225401
0.121431
-0.852711
-0.370390
-0.264815
16.327642
16.707095
16.820919
16.313557
4.061588
3.717438
3.690798
11.406560
12.823212
8.333395
8.553128
8.077579
24.122578
23.908238
24.183406
23.950116
20.753981
20.936195
21.106506
21.311109
18.624297
19.026969
18.122173
-8.537024
-7.236382
-6.124560
-11.019053
18.134293
9.961831
10.054043
10.127881
-2.659819
-2.479766
-2.288230
15.495656
14.890942
15.012556
17.731953
18.303365
15.290775
-8.270506
-8.783533
-9.109680
27.571471
27.825718
27.513669
27.691675
-1.654956
-1.226742
18.138377
18.538671
18.405159
1.116637
1.589157
1.052352
1.726818
24.883444
-2.800526
25.125519
24.782015
-1.756912
-1.993773
-2.033760
-14.769985
-14.850923
-14.852651
-14.655550
-16.952175
-16.686482
-16.895635
-16.649855
-17.226868
-17.047717
-17.289185
-9.520566
-8.511219
-9.030403
-15.641870
-15.618389
-15.322359
-8.652172
3.909944
3.888998
3.642056
8.882584
8.941264
-11.749709
-12.207412
-12.053584
-11.914263
-9.715449
-9.751884
-9.887860
-9.964997
-7.440404
-7.343767
-7.547380
-7.402926
-10.405048
-9.784075
-10.183781
-15.933092
-10.145370
12.875128
12.953708
14.439470
-1.049374
-1.261429
-0.580518
-1.344049
19.537826
20.108545
19.912064
19.837713
-15.589446
-15.289709
9.631079
10.133288
9.189251
-6.532663
-6.717194
9.590277
26.274391
25.966925
26.235413
25.972001
26.591000
26.395076
26.636968
-6.560504
3.445448
3.066419
3.068496
2.671090
14.252434
13.469411
14.087103
-10.417320
-13.993836
-8.952509
-10.915512
25.940987
25.569634
25.702906
25.836051
-5.774304
-6.022382
-5.262503
-5.286235
-17.297365
-17.125321
13.806023
14.991218
12.250697
12.306893
1.055552
1.071265
2.017467
1.753275
26.644671
26.327335
23.953687
23.984156
24.168919
11.126984
11.351078
11.035321
17.479560
17.392219
18.138351
2.844889
2.657528
2.897348
12.575489
11.734757
12.422314
11.838274
17.523441
16.700305
16.914605
0.094484
0.094395
-8.255749
-8.094914
-7.999550
7.393946
6.810909
7.249146
13.223353
12.715188
-13.968801
-14.239939
-14.301185
-14.735406
-8.423697
-8.629498
-8.574487
14.130302
10.856925
10.669602
10.686141
14.713758
-4.039603
-4.284478
-4.360604
8.846481
9.104153
8.577274
-8.409335
5.339190
4.938887
9.030438
-4.676705
-7.354116
-8.471278
-8.334637
0.199180
0.230042
0.274261
27.558834
27.618288
27.475965
-0.539351
0.051540
-5.816080
-5.353162
10.575257
10.735363
10.631645
-5.360089
10.457448
10.367822
10.110539
10.316098
-12.964689
-12.928361
-13.113155
-13.203123
-15.017200
-15.052792
-15.179697
-14.907587
-6.103436
-6.060094
-6.159145
23.552587
23.143000
23.246692
0.102086
0.196844
0.099657
-12.621174
-12.313635
-5.750314
23.614015
-19.020936
-18.799186
-19.197483
-18.223684
-8.176147
-8.336063
-7.626404
-8.093529
5.074802
5.467637
5.305748
-0.407892
0.226953
-0.035607
0.630991
-3.447822
-3.161530
-2.314846
26.172816
26.570998
26.491501
-0.998011
-0.798391
-8.749796
-8.494515
-8.833847
12.380050
14.147944
14.132304
-8.453284
-1.346903
-6.142002
-6.297011
28.352690
28.397826
28.507722
11.534074
10.382605
13.175317
-4.007931
-4.313566
-4.203778
-12.293425
-13.438115
-12.671087
-17.514450
-17.560988
-17.686134
-13.905911
-14.762823
-13.413614
1.715841
2.021537
1.993803
6.439834
6.251921
1.820304
-6.233800
-15.172001
-9.634226
-9.561838
-9.374640
4.170207
4.409862
3.935526
4.639432
3.428407
3.649999
3.595887
3.637034
-8.340141
-8.558671
-8.222508
-8.543720
5.719611
6.592564
5.288705
23.884443
23.749866
23.466341
24.143900
-9.782956
-9.934950
-9.918521
-17.257353
-15.360436
-17.105565
-9.733526
-15.618988
-14.960445
-15.137504
11.874444
10.657837
11.201516
10.936201
-8.169144
-7.918640
-7.847337
29.126481
29.065049
29.248693
18.133855
18.160015
18.395679
17.877995
-10.759811
-10.926334
-10.648994
-6.024276
-5.736157
-6.250281
-5.858734
28.757016
28.630166
28.759332
1.411934
1.663400
1.287818
10.216169
9.875728
10.508487
10.014048
10.804112
10.352081
10.865873
1.337705
1.413605
1.356246
2.125796
2.381290
2.386747
1.356929
-19.657353
-19.681677
-19.808208
2.707158
2.463908
2.790227
1.206993
1.514278
-10.321924
-10.639324
-10.296194
29.087189
29.171445
29.324997
-10.519572
1.327955
24.325056
20.685079
23.051229
-19.410016
-19.414745
-19.686024
-3.595496
-3.829040
-17.606459
-17.417160
-17.538161
27.963409
28.038866
28.143170
-5.332215
-4.707081
-5.344452
-4.973356
-9.923324
-9.900135
-9.594910
-9.803738
2.529645
2.205806
1.938929
2.705272
27.326333
27.341354
27.652572
26.820652
27.539943
27.766624
25.764278
25.451827
25.708113
25.694823
25.538698
25.877556
25.348040
27.129671
26.998165
27.010820
22.945174
23.213880
-14.316166
-14.160007
25.831725
0.361733
0.407687
0.156420
0.126026
-18.213002
-18.639564
-18.716431
-3.409495
16.918466
17.537493
17.048278
17.674346
-4.546382
-5.028048
-4.505550
2.222531
2.135855
2.405577
10.899429
10.705699
10.997391
10.284575
-8.168533
-7.711113
-8.092363
24.078679
24.376148
24.044405
22.802560
22.755867
17.629276
-6.966617
-9.827055
-12.249600
-9.743620
15.406058
16.078623
16.309858
-13.351594
0.448409
-11.453416
-12.847844
-10.411671
-13.375371
2.310430
1.906906
15.200769
15.783482
-7.702951
-8.088585
3.820974
3.975807
4.104457
4.285421
1.016729
1.009584
0.888712
1.897224
2.128485
2.242350
22.404597
24.653725
23.640473
1.842570
-9.084806
-11.210585
-8.547520
26.957012
26.633019
26.837140
5.272027
5.153174
5.482561
-5.639244
-5.184328
-5.139753
-10.715133
-10.086258
-9.000310
25.913567
25.861718
26.689110
25.252786
24.948192
25.203656
24.861888
23.961884
-10.861351
-11.657704
-11.613548
0.804404
0.442698
0.946516
22.617269
22.368159
22.690436
22.336927
22.858698
22.710565
23.029165
-16.407459
-17.442633
-17.332459
9.324641
-14.634674
-14.756461
-14.289783
-15.039723
-11.758123
-12.027961
-9.845319
-15.331576
-15.307968
-15.072627
-9.761007
13.559007
14.540907
0.926159
2.469051
1.323307
-2.122941
-3.104958
-3.781517
-7.657578
-7.693752
-7.865308
-7.685577
-5.049038
8.588699
8.667975
9.162920
-8.690709
-8.761886
-9.060875
-14.749250
-14.854519
-14.890751
-8.660530
-9.556758
-9.401408
-9.851050
28.435756
26.518566
16.276697
17.147828
16.907758
-17.157288
-16.976555
-17.061240
26.368637
-16.915753
-17.128430
0.050547
0.088606
16.626766
17.018361
16.891856
26.685126
26.452853
26.518338
17.243359
26.359415
26.585429
-16.516765
-16.195999
-16.467959
-16.114970
-4.738504
-4.490622
-4.579758
6.600651
6.700364
6.353558
7.251791
6.718971
7.657975
2.218143
2.711217
2.874686
2.016186
6.736774
21.023842
21.345297
21.424748
3.160190
2.920450
3.218467
0.999319
0.720469
0.724857
-13.711677
-13.596255
-13.867263
-9.180650
-13.807301
21.738226
3.097607
2.856055
3.484479
7.207131
7.043963
7.498980
-3.759407
-2.549849
-1.452777
-0.978604
-13.757648
-13.572977
10.343006
10.990755
10.935998
18.543744
18.182584
19.680201
19.370349
-15.335464
-15.016931
-15.303066
-14.973716
19.746884
19.623797
19.728032
19.536515
2.252450
3.088329
3.055817
26.262441
26.022990
26.052336
1.950224
25.875781
26.170652
23.575927
23.216352
-6.200435
-6.503682
-6.317202
-15.917064
-15.731349
-15.892960
-15.798612
-16.058016
-17.842297
-17.623695
-17.634277
-17.748658
9.455758
9.867578
9.680859
27.233319
27.063499
27.039790
-3.612126
-3.953463
-3.601656
27.197567
-3.204989
-2.872653
-3.206254
-9.279323
-9.476362
-9.293040
30.275445
30.106930
-9.575828
-11.177481
-8.972213
-8.714956
8.370796
8.779604
8.220392
-9.322580
9.066069
9.253949
9.645243
2.072283
1.646399
1.416638
2.672765
2.515708
2.910298
-15.684148
-16.074912
-15.890400
1.032214
27.603850
27.548172
27.766809
5.428104
5.106149
4.954182
1.478108
1.493847
1.218480
1.646119
1.568901
1.427489
-3.712246
-3.865315
-3.449753
1.158100
1.293206
1.245717
12.780877
13.463052
3.569904
3.543566
2.750678
1.396138
-3.569035
4.325553
4.414934
-8.357284
-8.329285
-8.448745
-8.484233
-0.872856
-1.122908
-1.757519
-0.100999
-1.505223
-2.048648
-1.811254
4.020988
3.672631
4.279149
-2.291956
-1.093195
-7.354370
-7.365667
-0.601365
13.051064
13.149252
12.681496
13.624988
4.599582
4.225002
3.984692
4.824410
3.440609
3.869148
3.281132
-5.411741
-5.540837
-5.924961
31.449401
31.245674
24.990727
24.584804
24.834770
24.528856
-5.868169
-5.776395
-9.687589
-9.845976
-9.919638
-21.238226
-21.055896
-6.308719
-5.927421
-6.041053
-6.017810
-1.113852
-0.390135
-1.208691
-1.694416
-1.793928
8.921303
8.482224
9.008917
8.528618
-3.247145
-2.597876
-2.477764
9.182797
8.574697
31.200467
8.924977
-15.763699
-15.422208
-15.858149
31.451797
19.466968
8.841461
15.786236
-15.573587
9.664814
-1.630432
-21.015712
0.869197
1.092220
0.671225
-21.360368
-6.249876
-6.352578
-6.573926
-6.602978
-3.094910
-2.698742
-3.221199
-2.526589
20.801724
20.278992
20.330307
19.870558
-5.312315
-5.721580
-5.573910
-5.648649
23.665199
23.484316
23.459910
23.275308
-15.206299
-15.460268
-20.407515
-20.306609
12.838271
12.073393
12.189883
12.940570
13.453911
12.478713
-7.361851
-7.572995
2.317446
2.817363
2.515896
3.204944
10.557128
-7.080302
-7.050130
-7.167924
-6.551978
1.123619
1.256657
1.386270
17.330157
14.776723
1.420542
-2.323492
-2.611831
-2.005625
-2.433063
2.124952
1.927823
0.182632
0.241455
9.114698
8.623968
0.270716
-8.887300
-8.789338
-8.773499
-8.156260
22.977234
23.092812
22.987903
22.800782
3.514709
4.204677
9.593312
9.372646
10.006402
-16.352598
-16.485732
-16.251088
29.409262
29.307207
29.768096
4.671784
4.858143
29.639540
21.731608
18.111754
19.386607
5.795625
5.468993
5.938826
5.519489
-4.481539
-4.719325
6.049120
6.401464
6.869678
24.974686
24.966422
24.741299
-10.624131
-10.253513
24.791993
-17.704947
-17.709943
-17.903993
24.485278
24.764657
9.760789
9.604444
9.837296
-9.417432
-9.339248
-9.390678
-9.300382
-11.581499
-10.954378
-3.916655
-2.724191
-5.701555
-19.591766
-19.654991
-20.001264
-19.941502
-3.207380
-2.995864
2.160718
2.541567
2.267880
17.336329
17.207815
8.043926
8.637238
8.131955
16.747594
17.598855
17.554560
17.822081
0.818996
1.110122
1.096742
-0.356174
-0.701218
-1.022026
-1.503390
0.041790
0.303140
0.759927
16.242740
16.118229
16.422515
16.011442
23.258326
23.403858
22.957364
-6.965503
-7.136282
-7.253883
-0.799161
-1.681663
-0.985843
-6.897353
-12.833598
-11.165016
-12.634170
-11.641725
1.778505
1.835823
2.111054
-8.246328
-8.272563
-18.696743
-18.913674
-18.556604
15.125177
14.640389
15.275569
-8.376790
11.606444
-8.197114
-8.095263
14.929430
15.036901
15.120138
14.852231
15.360756
14.877940
15.392265
28.031309
28.393316
27.934681
28.254869
29.745876
29.567465
29.878086
-10.919648
-10.620948
-11.054496
29.639225
-10.828174
-10.230508
-10.506384
-7.366017
-7.106244
-7.449858
-5.867498
-2.367190
-3.242451
18.268454
18.603042
18.100048
18.258718
-5.724615
17.239171
17.412205
18.442837
11.239154
10.731447
10.991907
10.415919
-1.567209
-1.918404
-1.496998
-1.956250
-2.532120
-2.456999
-2.094255
5.355295
5.384165
4.883524
5.035376
-8.220737
-8.162468
-8.339309
27.827092
-8.306385
28.123303
-8.139366
-8.253912
-5.974559
-5.662637
5.122501
4.919498
1.297631
1.036291
1.880676
3.214402
2.898820
-20.044451
-19.935343
-20.088860
-19.923858
2.616117
2.933884
2.562378
4.495694
4.344689
4.693448
22.993105
23.411569
19.464289
25.759309
-4.687953
-6.676859
0.573354
0.845610
1.041113
1.033473
2.911850
3.124499
3.683358
3.646716
3.409285
3.399781
7.109129
7.320315
7.668341
4.463296
4.373650
4.237051
6.770781
1.233691
1.359125
1.355456
1.377006
8.149337
8.113231
13.660244
14.692096
-13.738482
-9.753835
-8.695287
-9.579038
-17.945840
-17.550930
-17.468252
-17.883374
4.695780
17.625109
17.578129
17.208570
16.811599
-18.372469
-18.232332
16.470976
-18.456811
-7.103627
-6.899063
-6.961227
-6.740010
-2.758603
-2.545306
-3.215107
9.357812
3.586957
3.883413
3.221842
-2.071816
-1.870379
14.006049
13.817069
13.593936
-4.244079
-4.604478
16.406938
15.779734
15.737680
27.558479
27.626494
-4.801915
-3.999277
-2.655783
-2.013963
-3.642179
-3.322750
-3.525982
-3.502841
1.593482
1.494275
1.673071
1.515624
-13.713649
-3.370461
-3.723991
3.096553
-3.558283
-15.153870
-14.811463
-14.764638
1.636867
1.685333
1.130757
1.725099
1.553717
2.223085
13.205900
13.602644
12.801185
13.980690
20.272188
19.943945
20.054070
20.031640
0.738736
0.524154
0.485522
5.801900
5.426633
5.903271
1.244962
1.185149
5.389884
-3.922134
-4.049029
-1.557462
-0.597135
-3.929842
-4.003512
-18.137042
-3.699832
20.280154
20.499528
20.877995
27.441168
18.167036
18.242041
18.549553
-20.389573
-20.047850
-20.206485
-0.587791
-0.447756
-0.815211
-0.542861
31.686368
27.214898
27.228519
27.292719
-21.471738
-10.455821
-10.878051
-10.587314
-10.724617
22.101849
22.047805
-10.978156
-11.033231
-11.374150
-4.476202
18.232405
22.144809
21.829168
30.344569
29.972629
30.107053
22.024346
-2.537386
-2.841455
-2.915640
-2.553408
-0.905815
-0.665712
-0.547097
-19.731603
-19.749413
28.466798
28.752058
28.665260
-7.809157
-6.857678
-5.201393
23.969837
24.194224
24.415567
4.833135
4.440689
-4.274608
-0.801130
6.777217
6.229224
7.039402
14.408951
14.189494
15.879501
0.015100
0.067227
-0.010640
4.943927
4.980769
5.082867
-0.559507
-0.034317
0.354603
4.664780
4.242291
4.643064
4.212062
4.831231
4.782542
-0.868418
-0.795924
0.029325
0.032763
-1.966467
-2.658924
-2.117370
-2.799930
-8.597750
-8.648659
-8.688632
-2.535604
-8.320595
8.379445
8.000162
8.393083
7.779433
17.862759
24.592736
24.887481
18.119589
29.873200
29.978878
3.834048
4.155381
18.324546
0.883681
18.365212
13.629621
13.348610
13.337339
29.952329
29.780253
24.166890
24.489505
30.503992
30.141278
29.275975
29.357562
12.823826
30.622374
13.768990
14.068121
7.175605
6.860011
7.040678
-11.144368
-10.617567
-10.643536
-10.987178
7.052106
20.120665
19.937406
19.658877
19.664671
19.869323
-4.769231
-4.984153
-17.821386
-18.030192
-4.397517
-19.873694
-21.889422
16.002842
15.732417
16.204175
15.596306
16.386466
27.471054
27.120039
4.374330
4.613683
17.942155
17.739094
17.724082
17.921155
17.516696
-20.399285