# vtk DataFile Version 2.0
Test
ASCII
DATASET POLYDATA
POINTS 6352 float
0.000000 0.000000 0.000000
1.000000 0.000000 0.000000
1.000000 0.800000 0.000000
1.000000 1.000000 0.000000
0.000000 1.000000 0.000000
0.000000 0.200000 0.000000
0.300000 0.330000 0.000000
0.700000 0.680000 0.000000
0.050000 0.000000 0.000000
0.100000 0.000000 0.000000
0.150000 0.000000 0.000000
0.200000 0.000000 0.000000
0.250000 0.000000 0.000000
0.300000 0.000000 0.000000
0.350000 0.000000 0.000000
0.400000 0.000000 0.000000
0.450000 0.000000 0.000000
0.500000 0.000000 0.000000
0.550000 0.000000 0.000000
0.600000 0.000000 0.000000
0.650000 0.000000 0.000000
0.700000 0.000000 0.000000
0.750000 0.000000 0.000000
0.800000 0.000000 0.000000
0.850000 0.000000 0.000000
0.900000 0.000000 0.000000
0.950000 0.000000 0.000000
1.000000 0.048545 0.000000
1.000000 0.094438 0.000000
1.000000 0.137825 0.000000
1.000000 0.178843 0.000000
1.000000 0.217620 0.000000
1.000000 0.254280 0.000000
1.000000 0.288938 0.000000
1.000000 0.321703 0.000000
1.000000 0.352678 0.000000
1.000000 0.381962 0.000000
1.000000 0.409647 0.000000
1.000000 0.435820 0.000000
1.000000 0.460563 0.000000
1.000000 0.483955 0.000000
1.000000 0.506070 0.000000
1.000000 0.526976 0.000000
1.000000 0.546741 0.000000
1.000000 0.565427 0.000000
1.000000 0.583092 0.000000
1.000000 0.599793 0.000000
1.000000 0.615581 0.000000
1.000000 0.630507 0.000000
1.000000 0.644618 0.000000
1.000000 0.657958 0.000000
1.000000 0.670570 0.000000
1.000000 0.682493 0.000000
1.000000 0.693765 0.000000
1.000000 0.704421 0.000000
1.000000 0.714495 0.000000
1.000000 0.724019 0.000000
1.000000 0.733023 0.000000
1.000000 0.741536 0.000000
1.000000 0.749583 0.000000
1.000000 0.757191 0.000000
1.000000 0.764383 0.000000
1.000000 0.771183 0.000000
1.000000 0.777611 0.000000
1.000000 0.783688 0.000000
1.000000 0.789434 0.000000
1.000000 0.794865 0.000000
1.000000 0.805174 0.000000
1.000000 0.811554 0.000000
1.000000 0.819418 0.000000
1.000000 0.829114 0.000000
1.000000 0.841067 0.000000
1.000000 0.855804 0.000000
1.000000 0.873972 0.000000
1.000000 0.896371 0.000000
1.000000 0.923985 0.000000
1.000000 0.958029 0.000000
0.950000 1.000000 0.000000
0.900000 1.000000 0.000000
0.850000 1.000000 0.000000
0.800000 1.000000 0.000000
0.750000 1.000000 0.000000
0.700000 1.000000 0.000000
0.650000 1.000000 0.000000
0.600000 1.000000 0.000000
0.550000 1.000000 0.000000
0.500000 1.000000 0.000000
0.450000 1.000000 0.000000
0.400000 1.000000 0.000000
0.350000 1.000000 0.000000
0.300000 1.000000 0.000000
0.250000 1.000000 0.000000
0.200000 1.000000 0.000000
0.150000 1.000000 0.000000
0.100000 1.000000 0.000000
0.050000 1.000000 0.000000
0.000000 0.951455 0.000000
0.000000 0.905562 0.000000
0.000000 0.862175 0.000000
0.000000 0.821157 0.000000
0.000000 0.782380 0.000000
0.000000 0.745720 0.000000
0.000000 0.711062 0.000000
0.000000 0.678297 0.000000
0.000000 0.647322 0.000000
0.000000 0.618038 0.000000
0.000000 0.590353 0.000000
0.000000 0.564180 0.000000
0.000000 0.539437 0.000000
0.000000 0.516045 0.000000
0.000000 0.493930 0.000000
0.000000 0.473024 0.000000
0.000000 0.453259 0.000000
0.000000 0.434573 0.000000
0.000000 0.416908 0.000000
0.000000 0.400207 0.000000
0.000000 0.384419 0.000000
0.000000 0.369493 0.000000
0.000000 0.355382 0.000000
0.000000 0.342042 0.000000
0.000000 0.329430 0.000000
0.000000 0.317507 0.000000
0.000000 0.306235 0.000000
0.000000 0.295579 0.000000
0.000000 0.285505 0.000000
0.000000 0.275981 0.000000
0.000000 0.266977 0.000000
0.000000 0.258464 0.000000
0.000000 0.250417 0.000000
0.000000 0.242809 0.000000
0.000000 0.235617 0.000000
0.000000 0.228817 0.000000
0.000000 0.222389 0.000000
0.000000 0.216312 0.000000
0.000000 0.210566 0.000000
0.000000 0.205135 0.000000
0.000000 0.194826 0.000000
0.000000 0.188446 0.000000
0.000000 0.180582 0.000000
0.000000 0.170886 0.000000
0.000000 0.158933 0.000000
0.000000 0.144196 0.000000
0.000000 0.126028 0.000000
0.000000 0.103629 0.000000
0.000000 0.076015 0.000000
0.000000 0.041971 0.000000
0.303738 0.333271 0.000000
0.307477 0.336542 0.000000
0.311215 0.339813 0.000000
0.314953 0.343084 0.000000
0.318692 0.346355 0.000000
0.322430 0.349626 0.000000
0.326168 0.352897 0.000000
0.329907 0.356168 0.000000
0.333645 0.359439 0.000000
0.337383 0.362710 0.000000
0.341121 0.365981 0.000000
0.344860 0.369252 0.000000
0.348598 0.372523 0.000000
0.352336 0.375794 0.000000
0.356075 0.379065 0.000000
0.359813 0.382336 0.000000
0.363551 0.385607 0.000000
0.367290 0.388879 0.000000
0.371028 0.392150 0.000000
0.374766 0.395421 0.000000
0.378505 0.398692 0.000000
0.382243 0.401963 0.000000
0.385981 0.405234 0.000000
0.389720 0.408505 0.000000
0.393458 0.411776 0.000000
0.397196 0.415047 0.000000
0.400935 0.418318 0.000000
0.404673 0.421589 0.000000
0.408411 0.424860 0.000000
0.412150 0.428131 0.000000
0.415888 0.431402 0.000000
0.419626 0.434673 0.000000
0.423364 0.437944 0.000000
0.427103 0.441215 0.000000
0.430841 0.444486 0.000000
0.434579 0.447757 0.000000
0.438318 0.451028 0.000000
0.442056 0.454299 0.000000
0.445794 0.457570 0.000000
0.449533 0.460841 0.000000
0.453271 0.464112 0.000000
0.457009 0.467383 0.000000
0.460748 0.470654 0.000000
0.464486 0.473925 0.000000
0.468224 0.477196 0.000000
0.471963 0.480467 0.000000
0.475701 0.483738 0.000000
0.479439 0.487009 0.000000
0.483178 0.490280 0.000000
0.486916 0.493551 0.000000
0.490654 0.496822 0.000000
0.494393 0.500093 0.000000
0.498131 0.503364 0.000000
0.501869 0.506636 0.000000
0.505607 0.509907 0.000000
0.509346 0.513178 0.000000
0.513084 0.516449 0.000000
0.516822 0.519720 0.000000
0.520561 0.522991 0.000000
0.524299 0.526262 0.000000
0.528037 0.529533 0.000000
0.531776 0.532804 0.000000
0.535514 0.536075 0.000000
0.539252 0.539346 0.000000
0.542991 0.542617 0.000000
0.546729 0.545888 0.000000
0.550467 0.549159 0.000000
0.554206 0.552430 0.000000
0.557944 0.555701 0.000000
0.561682 0.558972 0.000000
0.565421 0.562243 0.000000
0.569159 0.565514 0.000000
0.572897 0.568785 0.000000
0.576636 0.572056 0.000000
0.580374 0.575327 0.000000
0.584112 0.578598 0.000000
0.587850 0.581869 0.000000
0.591589 0.585140 0.000000
0.595327 0.588411 0.000000
0.599065 0.591682 0.000000
0.602804 0.594953 0.000000
0.606542 0.598224 0.000000
0.610280 0.601495 0.000000
0.614019 0.604766 0.000000
0.617757 0.608037 0.000000
0.621495 0.611308 0.000000
0.625234 0.614579 0.000000
0.628972 0.617850 0.000000
0.632710 0.621121 0.000000
0.636449 0.624393 0.000000
0.640187 0.627664 0.000000
0.643925 0.630935 0.000000
0.647664 0.634206 0.000000
0.651402 0.637477 0.000000
0.655140 0.640748 0.000000
0.658879 0.644019 0.000000
0.662617 0.647290 0.000000
0.666355 0.650561 0.000000
0.670093 0.653832 0.000000
0.673832 0.657103 0.000000
0.677570 0.660374 0.000000
0.681308 0.663645 0.000000
0.685047 0.666916 0.000000
0.688785 0.670187 0.000000
0.692523 0.673458 0.000000
0.696262 0.676729 0.000000
0.004545 0.201970 0.000000
0.009091 0.203939 0.000000
0.013636 0.205909 0.000000
0.018182 0.207879 0.000000
0.022727 0.209848 0.000000
0.027273 0.211818 0.000000
0.031818 0.213788 0.000000
0.036364 0.215758 0.000000
0.040909 0.217727 0.000000
0.045455 0.219697 0.000000
0.050000 0.221667 0.000000
0.054545 0.223636 0.000000
0.059091 0.225606 0.000000
0.063636 0.227576 0.000000
0.068182 0.229545 0.000000
0.072727 0.231515 0.000000
0.077273 0.233485 0.000000
0.081818 0.235455 0.000000
0.086364 0.237424 0.000000
0.090909 0.239394 0.000000
0.095455 0.241364 0.000000
0.100000 0.243333 0.000000
0.104545 0.245303 0.000000
0.109091 0.247273 0.000000
0.113636 0.249242 0.000000
0.118182 0.251212 0.000000
0.122727 0.253182 0.000000
0.127273 0.255152 0.000000
0.131818 0.257121 0.000000
0.136364 0.259091 0.000000
0.140909 0.261061 0.000000
0.145455 0.263030 0.000000
0.150000 0.265000 0.000000
0.154545 0.266970 0.000000
0.159091 0.268939 0.000000
0.163636 0.270909 0.000000
0.168182 0.272879 0.000000
0.172727 0.274848 0.000000
0.177273 0.276818 0.000000
0.181818 0.278788 0.000000
0.186364 0.280758 0.000000
0.190909 0.282727 0.000000
0.195455 0.284697 0.000000
0.200000 0.286667 0.000000
0.204545 0.288636 0.000000
0.209091 0.290606 0.000000
0.213636 0.292576 0.000000
0.218182 0.294545 0.000000
0.222727 0.296515 0.000000
0.227273 0.298485 0.000000
0.231818 0.300455 0.000000
0.236364 0.302424 0.000000
0.240909 0.304394 0.000000
0.245455 0.306364 0.000000
0.250000 0.308333 0.000000
0.254545 0.310303 0.000000
0.259091 0.312273 0.000000
0.263636 0.314242 0.000000
0.268182 0.316212 0.000000
0.272727 0.318182 0.000000
0.277273 0.320152 0.000000
0.281818 0.322121 0.000000
0.286364 0.324091 0.000000
0.290909 0.326061 0.000000
0.295455 0.328030 0.000000
0.704615 0.681846 0.000000
0.709231 0.683692 0.000000
0.713846 0.685538 0.000000
0.718462 0.687385 0.000000
0.723077 0.689231 0.000000
0.727692 0.691077 0.000000
0.732308 0.692923 0.000000
0.736923 0.694769 0.000000
0.741538 0.696615 0.000000
0.746154 0.698462 0.000000
0.750769 0.700308 0.000000
0.755385 0.702154 0.000000
0.760000 0.704000 0.000000
0.764615 0.705846 0.000000
0.769231 0.707692 0.000000
0.773846 0.709538 0.000000
0.778462 0.711385 0.000000
0.783077 0.713231 0.000000
0.787692 0.715077 0.000000
0.792308 0.716923 0.000000
0.796923 0.718769 0.000000
0.801538 0.720615 0.000000
0.806154 0.722462 0.000000
0.810769 0.724308 0.000000
0.815385 0.726154 0.000000
0.820000 0.728000 0.000000
0.824615 0.729846 0.000000
0.829231 0.731692 0.000000
0.833846 0.733538 0.000000
0.838462 0.735385 0.000000
0.843077 0.737231 0.000000
0.847692 0.739077 0.000000
0.852308 0.740923 0.000000
0.856923 0.742769 0.000000
0.861538 0.744615 0.000000
0.866154 0.746462 0.000000
0.870769 0.748308 0.000000
0.875385 0.750154 0.000000
0.880000 0.752000 0.000000
0.884615 0.753846 0.000000
0.889231 0.755692 0.000000
0.893846 0.757538 0.000000
0.898462 0.759385 0.000000
0.903077 0.761231 0.000000
0.907692 0.763077 0.000000
0.912308 0.764923 0.000000
0.916923 0.766769 0.000000
0.921538 0.768615 0.000000
0.926154 0.770462 0.000000
0.930769 0.772308 0.000000
[...]
POINT_DATA 6352
SCALARS UX float 1
LOOKUP_TABLE default
-0.000000
0.000000
0.289678
0.244110
-0.351677
-0.260548
-0.173030
0.140342
-0.000000
-0.000000
-0.000000
-0.000000
-0.000000
-0.000000
-0.000000
-0.000000
-0.000000
-0.000000
-0.000000
0.000000
0.000000
0.000000
0.000000
0.000000
0.000000
0.000000
-0.000000
0.096204
0.151012
0.191563
0.222818
0.247956
0.269634
0.288225
0.304335
0.318520
0.330751
0.341210
0.349973
0.357208
0.362868
0.367047
0.369723
0.371035
0.371114
0.370068
0.368082
0.365254
0.361799
0.357774
0.353509
0.348850
0.344134
0.339383
0.334655
0.329976
0.325516
0.321232
0.317132
0.313241
0.309570
0.306138
0.302902
0.299865
0.297029
0.294404
0.291953
0.287437
0.284713
0.281502
0.277603
0.273038
0.268033
0.262327
0.256350
0.250685
0.246159
0.208713
0.174821
0.142514
0.111259
0.082778
0.056092
0.031272
0.007139
-0.017627
-0.043807
-0.071464
-0.100420
-0.130841
-0.161820
-0.193173
-0.224912
-0.256516
-0.288037
-0.319683
-0.353071
-0.355850
-0.360425
-0.366087
-0.372706
-0.379613
-0.386624
-0.393421
-0.399722
-0.405407
-0.410155
-0.413710
-0.416226
-0.417364
-0.417145
-0.416063
-0.413321
-0.409566
-0.404886
-0.399105
-0.392721
-0.385840
-0.378371
-0.370708
-0.362896
-0.355009
-0.347165
-0.339408
-0.331818
-0.324406
-0.317297
-0.310407
-0.303796
-0.297453
-0.291396
-0.285616
-0.280091
-0.274833
-0.269823
-0.265066
-0.255953
-0.250272
-0.243162
-0.234279
-0.223184
-0.209130
-0.191394
-0.168794
-0.136844
-0.091042
-0.167218
-0.165040
-0.162756
-0.162300
-0.158847
-0.157693
-0.156785
-0.152030
-0.149458
-0.151457
-0.148865
-0.148594
-0.147581
-0.143625
-0.141353
-0.139321
-0.135196
-0.134897
-0.132064
-0.125786
-0.128683
-0.124461
-0.118510
-0.116017
-0.112950
-0.109152
-0.101940
-0.098545
-0.091633
-0.095028
-0.089536
-0.088250
-0.083347
-0.079507
-0.079287
-0.074090
-0.072098
-0.073797
-0.069858
-0.066998
-0.060652
-0.058900
-0.055808
-0.051961
-0.043009
-0.039608
-0.041829
-0.039263
-0.036010
-0.034741
-0.032248
-0.030900
-0.029191
-0.025752
-0.021324
-0.020758
-0.018226
-0.014941
-0.007857
-0.009144
-0.006930
-0.001942
0.002893
0.004203
0.009360
0.016024
0.018791
0.023981
0.029908
0.023942
0.029786
0.033163
0.033240
0.032777
0.035283
0.037826
0.040358
0.044416
0.046847
0.049140
0.048662
0.049300
0.051624
0.052977
0.050856
0.052092
0.056599
0.059711
0.063551
0.065321
0.067219
0.069146
0.073167
0.075386
0.078454
0.079978
0.085712
0.085833
0.090954
0.097751
0.105522
0.108792
0.119086
0.123556
0.127278
0.133164
-0.259445
-0.258345
-0.257253
-0.256156
-0.255060
-0.253961
-0.252852
-0.251743
-0.250629
-0.249514
-0.248386
-0.247253
-0.246123
-0.244987
-0.243837
-0.242686
-0.241536
-0.240384
-0.239227
-0.238060
-0.236893
-0.235722
-0.234541
-0.233359
-0.232173
-0.230982
-0.229789
-0.228595
-0.227407
-0.226210
-0.225016
-0.223828
-0.222626
-0.221438
-0.220246
-0.219058
-0.217870
-0.216685
-0.215512
-0.214346
-0.213194
-0.212063
-0.210935
-0.209807
-0.208716
-0.207671
-0.206653
-0.205656
-0.204683
-0.203808
-0.203041
-0.202251
-0.201534
-0.200809
-0.200043
-0.199442
-0.198852
-0.198037
-0.197342
-0.196940
-0.196299
-0.195511
-0.194601
-0.191640
-0.186061
0.155516
0.163532
0.167936
0.171051
0.172939
0.174433
0.175916
0.177544
0.178951
0.180415
0.182005
0.183519
0.185008
0.186525
0.188081
0.189677
0.191363
0.193156
0.194962
0.196811
0.198681
0.200593
0.202491
0.204448
0.206438
0.208427
0.210418
0.212426
0.214460
0.216503
0.218556
0.220591
0.222644
0.224701
0.226758
0.228821
0.230879
0.232947
0.235018
0.237075
0.239133
0.241204
0.243269
0.245331
0.247402
0.249461
0.251522
0.253581
0.255642
0.257710
0.259780
0.261847
0.263919
0.266004
0.268086
0.270180
0.272278
0.274389
0.276524
0.278654
0.280813
0.282987
0.285184
0.287410
0.197290
0.194737
0.200957
0.191655
0.010231
0.005853
0.013177
0.004345
-0.180165
-0.180987
-0.169440
-0.175181
-0.161763
-0.178549
-0.325577
-0.318001
-0.320004
-0.313911
-0.178148
-0.059412
-0.051706
-0.051308
-0.043078
0.084375
0.083493
0.096386
0.068955
-0.076541
-0.081016
-0.072923
0.017214
0.026805
0.015471
0.028313
0.276068
0.267212
0.281886
0.266800
-0.035600
-0.051502
-0.033331
-0.055098
-0.299756
-0.298768
-0.307150
-0.245355
-0.245501
-0.239820
-0.257712
-0.257271
-0.262674
0.217292
0.236707
0.224520
0.232840
0.053743
0.053120
0.061536
-0.035138
-0.043374
0.001002
0.286353
0.294327
0.294865
-0.057044
-0.069855
-0.069848
-0.221055
-0.203153
-0.194939
0.232105
0.234418
0.229632
-0.059889
-0.253589
-0.253760
-0.246412
-0.034186
-0.035952
-0.042520
-0.027534
0.181632
0.178914
0.178312
0.023634
0.015671
-0.005636
0.180722
0.222549
0.226355
0.222143
0.108875
0.098468
0.112174
0.225516
0.226829
0.219815
0.163439
0.160633
0.165470
0.082195
0.071213
0.080561
0.159130
-0.003947
0.004864
0.008594
0.101656
-0.248212
-0.250930
-0.251225
-0.001205
0.207865
0.203505
0.207566
-0.107655
-0.110862
-0.097965
0.252920
0.248875
0.249502
0.245399
0.248712
0.244841
-0.142055
-0.162990
-0.139913
-0.157768
-0.058699
-0.051427
-0.050602
0.205205
0.228047
-0.041934
-0.360214
-0.350416
-0.351924
-0.264839
-0.269713
-0.263119
0.097168
0.120534
0.126703
-0.343076
0.232125
0.229464
0.231209
0.228561
0.048045
0.055415
0.062844
0.138685
-0.194153
-0.197885
-0.194736
0.065850
0.062216
0.064803
0.059790
0.257877
0.254729
0.252367
0.074948
0.211648
0.202402
0.207646
-0.344653
-0.339205
-0.333427
0.251052
0.252674
0.249519
0.248487
-0.262716
-0.258580
-0.265468
-0.261298
-0.020183
-0.014356
-0.013470
0.249308
-0.214138
-0.225737
-0.191329
-0.019899
-0.192041
-0.183148
-0.205136
-0.165597
0.274257
0.286347
-0.207450
0.271723
-0.253746
-0.254117
-0.252359
-0.255216
-0.090391
-0.091504
-0.100893
0.086028
-0.198483
-0.160991
-0.223146
-0.221043
-0.223726
-0.220718
0.193656
0.193407
0.190995
0.191224
-0.254196
-0.250719
-0.080215
-0.238091
-0.235750
-0.237949
-0.234955
0.035546
0.034165
0.039561
0.261356
0.262701
0.256541
0.030543
0.267331
-0.152684
-0.140489
-0.129929
0.249245
0.247652
0.242875
-0.125673
-0.104548
-0.105501
-0.111737
0.253659
-0.111048
-0.235245
-0.238409
-0.232063
-0.103949
-0.098220
-0.098620
-0.233817
0.202653
0.202693
0.196673
0.159015
0.156734
0.160277
-0.100639
-0.105888
-0.091636
-0.133849
-0.125153
-0.127935
0.209744
0.212135
0.211109
0.211773
0.072548
0.064498
0.067212
0.156895
0.198353
0.140787
0.141295
0.136767
0.204439
0.212324
0.207057
0.215534
0.248507
0.249567
0.246791
0.247856
0.332906
0.326781
0.323122
-0.177193
-0.173414
-0.166905
-0.186760
0.315628
0.128801
0.135598
0.129602
-0.148906
-0.143995
-0.146313
0.214435
0.211090
0.214618
0.326427
0.339303
0.211157
-0.381166
-0.392882
-0.382121
0.288212
0.283504
0.283601
0.278798
-0.078444
-0.061760
0.217631
0.219110
0.217105
-0.117876
-0.114035
-0.124432
-0.116804
0.240633
-0.144840
0.232833
0.236290
-0.152965
-0.158725
-0.156995
-0.242696
-0.237127
-0.244696
-0.236018
-0.264918
-0.272005
-0.270681
-0.277785
-0.258005
-0.258028
-0.251608
-0.257946
-0.253275
-0.255248
-0.285655
-0.279656
-0.287672
-0.251605
0.051898
0.046821
0.046445
0.146083
0.144616
-0.290939
-0.289338
-0.286947
-0.294406
-0.260259
-0.262213
-0.261409
-0.264175
-0.215012
-0.218710
-0.218265
-0.221606
-0.322527
-0.322787
-0.329508
-0.251550
-0.317946
0.158620
0.153549
0.173442
-0.093362
-0.102968
-0.074922
-0.111761
0.266092
0.269257
0.265064
0.271568
-0.273082
-0.281441
0.200872
0.203000
0.192415
-0.218553
-0.218946
0.195801
0.255694
0.260867
0.261197
0.266429
0.250448
0.250073
0.244929
-0.220666
0.086306
0.077598
0.082746
0.070461
0.241875
0.235311
0.243263
-0.250708
-0.241289
-0.246330
-0.234586
0.281969
0.283912
0.287866
0.277646
-0.390476
-0.384693
-0.376780
-0.368754
-0.244315
-0.251298
0.157724
0.163240
0.150786
0.151002
-0.209509
-0.195830
-0.188186
-0.179013
0.239661
0.246220
0.250188
0.254611
0.245582
0.101782
0.112100
0.093114
0.273876
0.276928
0.281786
-0.015290
-0.025055
0.006605
0.227460
0.219747
0.228334
0.218762
0.270362
0.264901
0.262688
-0.020143
-0.013829
-0.253101
-0.254030
-0.249524
0.032798
0.031922
0.042316
0.207367
0.207092
-0.258145
-0.254195
-0.250066
-0.247598
-0.240017
-0.241979
-0.237977
0.278780
0.081442
0.068154
0.080958
0.291251
-0.202334
-0.206575
-0.204897
0.121715
0.119312
0.105496
-0.242329
0.026685
0.009471
0.106863
-0.209784
-0.242401
-0.248288
-0.248737
-0.022892
-0.026480
-0.040639
0.223991
0.226270
0.220449
-0.135332
-0.127327
-0.229186
-0.225550
0.054604
0.062778
0.045019
-0.229859
0.039898
0.050382
0.052035
0.062390
-0.265010
-0.262904
-0.260998
-0.266911
-0.214981
-0.222329
-0.221853
-0.230909
-0.179829
-0.184404
-0.191086
0.216439
0.222337
0.222872
-0.009026
-0.017467
-0.008174
-0.287611
-0.292990
-0.167748
0.220629
-0.223544
-0.222720
-0.230279
-0.215459
-0.404279
-0.396736
-0.390620
-0.388026
0.021839
0.031284
0.020329
-0.176646
-0.166347
-0.176351
-0.164852
-0.294776
-0.279146
-0.278035
0.196516
0.202857
0.200746
-0.186194
-0.178296
-0.254325
-0.253852
-0.257669
0.150393
0.162206
0.163045
-0.256022
-0.185624
-0.196356
-0.194688
0.237123
0.242262
0.242306
0.106173
0.091974
0.147193
-0.188701
-0.191992
-0.188761
-0.236607
-0.244516
-0.241056
-0.236329
-0.241087
-0.234877
-0.241919
-0.243969
-0.236148
0.019256
0.030104
0.024964
0.018147
0.026906
0.028035
-0.200871
-0.238802
-0.271056
-0.268520
-0.269771
-0.008372
-0.008957
-0.017443
0.000763
-0.012889
-0.002980
-0.010143
0.003295
-0.266952
-0.265541
-0.262475
-0.262173
0.065579
0.084099
0.051427
0.242096
0.238929
0.247009
0.236390
-0.250584
-0.252902
-0.250717
-0.210426
-0.199465
-0.209275
-0.252566
-0.220463
-0.227955
-0.226659
0.267078
0.249824
0.263617
0.247955
-0.259262
-0.258991
-0.262236
0.250033
0.251919
0.255555
0.211437
0.213913
0.212479
0.212734
-0.327771
-0.321536
-0.316094
-0.239953
-0.240628
-0.245740
-0.245806
0.244498
0.243706
0.247888
-0.071359
-0.070898
-0.077104
0.182058
0.181127
0.187614
0.186623
0.186433
0.180831
0.182854
-0.027150
-0.018450
-0.018905
0.021576
0.030737
0.027880
-0.027499
-0.268155
-0.272435
-0.266278
0.035456
0.027600
0.035130
-0.070516
-0.066132
-0.277381
-0.276863
-0.273677
0.276662
0.280837
0.276367
-0.272020
-0.065398
0.198567
0.186512
0.192020
-0.228937
-0.232583
-0.237117
-0.184213
-0.188862
-0.226021
-0.226107
-0.231493
0.228720
0.234668
0.234315
-0.254501
-0.252918
-0.261192
-0.260412
-0.255277
-0.254824
-0.252405
-0.256065
-0.065068
-0.072831
-0.073449
-0.066606
0.217224
0.217494
0.223521
0.211655
0.223227
0.229541
0.253901
0.258991
0.259989
0.323874
0.331519
0.328481
0.266391
0.222329
0.222290
0.227046
0.228231
0.226436
-0.197281
-0.196241
0.193403
-0.036893
-0.034689
-0.041886
-0.045114
-0.218273
-0.227979
-0.226415
-0.184417
0.233280
0.234148
0.230021
0.230185
-0.268190
-0.268510
-0.259168
0.002063
0.008389
0.009392
0.132452
0.136621
0.145584
0.110763
-0.214226
-0.194508
-0.209489
0.265012
0.258493
0.259562
0.175344
0.176231
0.164565
-0.171943
-0.241209
-0.228375
-0.233245
0.248656
0.256426
0.254918
-0.235561
-0.041667
-0.238629
-0.243955
-0.235502
-0.245621
0.013381
0.001588
0.250100
0.257205
-0.340545
-0.335353
-0.005650
0.002615
0.001787
0.011609
-0.053297
-0.061617
-0.062420
0.009103
0.018576
0.019815
0.193059
0.203785
0.199525
0.008346
-0.181636
-0.189414
-0.178784
0.276732
0.280818
0.283488
0.061482
0.070298
0.071265
-0.176829
-0.158572
-0.158951
-0.256983
-0.255407
-0.252856
0.195217
0.193986
0.201962
0.252237
0.257436
0.258190
0.264361
0.187125
-0.258018
-0.260593
-0.262194
-0.102476
-0.110654
-0.105038
0.229211
0.233532
0.230018
0.236391
0.224603
0.225392
0.218531
-0.206212
-0.216242
-0.214164
0.148492
-0.334850
-0.324647
-0.332873
-0.260555
-0.194117
-0.193467
-0.185771
-0.240581
-0.234794
-0.244099
-0.184605
0.233000
0.241681
-0.105388
-0.125258
-0.122160
-0.135608
-0.143804
-0.150770
-0.207731
-0.215271
-0.216000
-0.221119
-0.158005
0.153979
0.157271
0.159739
-0.301341
-0.307039
-0.304465
-0.230016
-0.230609
-0.223118
-0.252351
-0.254421
-0.254501
-0.256678
0.237549
0.287884
0.277690
0.288058
0.281385
-0.225579
-0.227393
-0.231421
0.285571
-0.237831
-0.234429
-0.033478
-0.025777
0.204232
0.205580
0.202549
0.218250
0.218731
0.223136
0.203506
0.228316
0.227269
-0.266737
-0.273736
-0.272619
-0.279211
-0.176618
-0.174178
-0.178325
0.085502
0.077839
0.069808
0.159743
0.155647
0.169956
-0.089259
-0.078849
-0.081459
-0.087288
0.159676
0.242469
0.242728
0.239869
0.049372
0.045807
0.054074
-0.088801
-0.086462
-0.106474
-0.267299
-0.272113
-0.265412
-0.183456
-0.270295
0.240401
-0.057677
-0.056838
-0.048703
0.050533
0.058529
0.057477
-0.150634
-0.143841
-0.133811
-0.127862
-0.263438
-0.268240
0.203939
0.212338
0.209616
0.184782
0.180342
0.197467
0.198959
-0.268013
-0.275131
-0.274359
-0.283070
0.210686
0.215493
0.216869
0.212304
-0.248014
-0.225231
-0.235504
0.212821
0.214180
0.218070
-0.246086
0.225297
0.221361
0.222496
0.230982
-0.220188
-0.222116
-0.219334
-0.219578
-0.220852
-0.226677
-0.234050
-0.230848
-0.242557
-0.245430
-0.250481
-0.239004
0.145544
0.148824
0.145160
0.240013
0.240716
0.245501
-0.201978
-0.203823
-0.198562
0.236690
-0.195243
-0.193161
-0.198385
-0.240780
-0.246992
-0.242159
0.274175
0.271974
-0.256222
-0.260436
-0.250624
-0.254442
0.054099
0.048149
0.044971
-0.249845
0.142770
0.145998
0.148504
0.094547
0.079235
0.083127
0.048410
0.047994
0.055237
-0.291782
-0.285378
-0.283960
0.064904
0.269013
0.274222
0.268132
0.042505
0.039523
0.029012
-0.052329
-0.059160
-0.061391
-0.051814
0.019150
0.010856
-0.197080
-0.196246
-0.192489
-0.023017
-0.019053
-0.014559
0.195166
0.200246
-0.078506
-0.085539
-0.093245
-0.011680
-0.190967
0.003965
0.009856
-0.221569
-0.228523
-0.225491
-0.231090
-0.280613
-0.296226
-0.298593
-0.277701
-0.194227
-0.201597
-0.194628
0.074996
0.071642
0.082405
-0.200159
-0.193760
-0.246582
-0.250545
-0.184522
0.187888
0.186305
0.184367
0.190160
0.127255
0.118024
0.117845
0.126487
0.108380
0.120187
0.109374
-0.268443
-0.276506
-0.274234
0.280161
0.278845
0.196510
0.199941
0.203939
0.207493
-0.268369
-0.262471
-0.257029
-0.257984
-0.257292
-0.252283
-0.252243
-0.229969
-0.226459
-0.229457
-0.225559
-0.200792
-0.188309
-0.209209
-0.209422
-0.219266
0.169903
0.166110
0.173687
0.170276
-0.307291
-0.292718
-0.302183
0.169955
0.164148
0.275097
0.165030
-0.314632
-0.322137
-0.318902
0.276445
0.191960
0.162921
0.170101
-0.327062
0.170938
-0.282584
-0.244899
-0.054327
-0.049096
-0.044577
-0.247008
-0.223029
-0.225750
-0.226295
-0.228820
-0.199823
-0.197275
-0.206939
-0.198891
0.262175
0.260747
0.265216
0.261515
-0.217339
-0.221491
-0.218019
-0.222596
0.203637
0.205172
0.212543
0.211115
-0.213500
-0.215041
-0.256406
-0.254209
0.192615
0.188422
0.192921
0.189318
0.191464
0.185406
-0.233245
-0.233908
-0.110607
-0.105890
-0.114782
-0.105467
0.191079
-0.193383
-0.199910
-0.204984
-0.179738
-0.015513
-0.009694
-0.009702
0.176156
0.166101
-0.004565
-0.176491
-0.177254
-0.170174
-0.172651
-0.062849
-0.069645
-0.015601
-0.024385
0.156838
0.152008
-0.026767
-0.233695
-0.222381
-0.226790
-0.207527
0.211313
0.218480
0.216966
0.224159
0.118539
0.130167
0.190949
0.190753
0.198908
-0.230980
-0.223916
-0.224148
0.252391
0.251654
0.257130
0.141482
0.142642
0.257398
0.202017
0.184679
0.205125
0.009039
0.010017
0.017269
0.153365
-0.203831
-0.207849
0.156235
0.163947
0.168058
0.217891
0.214491
0.219726
-0.310269
-0.313267
0.213787
-0.275652
-0.280074
-0.274670
0.238780
0.231650
0.125915
0.114762
0.134989
-0.246553
-0.245632
-0.248002
-0.246794
-0.264521
-0.262278
-0.133576
-0.132199
-0.150817
-0.224602
-0.226932
-0.231796
-0.233705
-0.187580
-0.187387
0.065092
0.073732
0.062279
0.206587
0.208757
0.170069
0.175865
0.167441
0.206699
0.208558
0.205227
0.206821
-0.068055
-0.056582
-0.052377
-0.207263
-0.217697
-0.213653
-0.227804
-0.197191
-0.201873
-0.188957
0.186094
0.191837
0.193628
0.187393
0.326685
0.318686
0.322714
-0.226608
-0.229128
-0.228500
-0.117714
-0.130043
-0.121374
-0.228121
-0.195686
-0.186515
-0.192199
-0.191430
-0.056646
-0.049084
-0.048212
-0.204055
-0.217515
-0.309215
-0.302903
-0.306596
0.237371
0.235109
0.241944
-0.215721
0.249612
-0.222208
-0.221016
0.174181
0.181518
0.177209
0.179642
0.182109
0.167511
0.177335
0.311328
0.304009
0.305780
0.299206
0.280417
0.284391
0.284438
-0.263587
-0.264265
-0.266521
0.288569
-0.266633
-0.259970
-0.258493
-0.197248
-0.186402
-0.205144
-0.155727
-0.137897
-0.144392
0.271443
0.271307
0.267535
0.264973
-0.153664
0.169928
0.167266
0.193329
0.163951
0.160757
0.164252
0.160289
-0.157172
-0.160220
-0.153789
-0.163234
-0.191384
-0.186617
-0.184260
0.124148
0.121512
0.115899
0.114196
-0.232172
-0.234987
-0.234207
0.300472
-0.237317
0.293853
-0.229911
-0.225407
-0.161030
-0.152842
0.010048
-0.000716
-0.133886
-0.130189
-0.121197
0.062931
0.058362
-0.268110
-0.273938
-0.272736
-0.279851
0.054225
0.062632
0.057586
0.078545
0.078578
0.083871
0.181513
0.184442
0.175185
0.192426
-0.129307
-0.163695
-0.061110
-0.072163
-0.064343
-0.073411
0.035848
0.041329
0.053129
0.050081
0.047826
0.045068
0.138104
0.142985
0.145532
0.050127
0.029335
0.029056
0.136667
-0.042917
-0.050668
-0.041081
-0.048649
0.151376
0.148306
0.126270
0.156535
-0.237820
-0.228670
-0.231977
-0.220799
-0.321794
-0.323905
-0.332881
-0.315556
0.046465
0.213395
0.211116
0.211437
0.209058
-0.315898
-0.311378
0.208724
-0.301510
-0.211704
-0.210973
-0.214925
-0.213388
-0.187791
-0.181930
-0.192329
0.175007
-0.037627
-0.038158
-0.047706
-0.175979
-0.171470
0.185032
0.182458
0.183518
-0.199574
-0.202798
0.247181
0.239829
0.242835
0.312947
0.306461
-0.206505
-0.195189
-0.316542
-0.312817
-0.162844
-0.160597
-0.165236
-0.157359
-0.002266
-0.009500
-0.000542
-0.009976
-0.192864
-0.166326
-0.169170
0.043264
-0.170587
-0.214765
-0.210372
-0.210494
-0.000973
-0.009335
-0.090308
-0.080826
-0.087107
-0.076719
0.184455
0.187698
0.183226
0.188670
0.220751
0.219759
0.221041
0.217683
-0.079980
-0.085399
-0.089467
0.113868
0.110402
0.117331
-0.045184
-0.056438
0.107926
-0.172626
-0.171280
-0.313272
-0.295479
-0.167237
-0.175836
-0.306687
-0.175095
0.343181
0.352670
0.347921
0.303796
0.191195
0.198506
0.202969
-0.239241
-0.229267
-0.236319
-0.114137
-0.114825
-0.119128
-0.118570
0.282272
0.213741
0.216613
0.217633
-0.253890
-0.302226
-0.300025
-0.297203
-0.305444
0.235679
0.238302
-0.307750
-0.311651
-0.307297
-0.100163
0.231237
0.232817
0.236577
0.264616
0.258179
0.262195
0.232550
-0.154550
-0.159571
-0.157233
-0.157848
-0.111662
-0.107362
-0.110393
-0.278405
-0.285140
0.310849
0.305134
0.297310
-0.176092
-0.169802
-0.161698
0.317188
0.322058
0.316611
0.010694
0.002263
-0.153952
-0.105030
-0.119979
-0.113241
-0.100928
0.194580
0.181466
0.199304
-0.033659
-0.048559
-0.069557
0.059566
0.065439
0.062004
-0.124304
-0.117604
-0.116365
0.073239
0.067622
0.075898
0.069875
0.047847
0.056305
-0.112014
-0.112510
-0.100773
-0.101561
-0.337010
-0.347482
-0.330806
-0.357174
-0.223833
-0.230092
-0.224808
-0.330320
-0.211854
0.142862
0.140100
0.145194
0.139545
0.210209
0.323630
0.315447
0.207928
0.275745
0.279302
0.063856
0.071347
0.209596
-0.097335
0.205787
0.175957
0.173990
0.177208
0.271959
0.272189
0.240783
0.233562
0.263397
0.257909
0.286087
0.292277
0.176077
0.264549
0.179578
0.177039
0.105499
0.102864
0.108125
-0.356070
-0.355535
-0.362138
-0.349029
0.099918
0.212117
0.207836
0.199157
0.206115
0.213031
-0.202304
-0.206109
-0.310506
-0.302450
-0.198480
-0.270315
-0.237026
0.201134
0.201828
0.203232
0.199435
0.205052
0.298360
0.304362
0.057413
0.058455
0.203725
0.198216
0.203017
0.196880
0.201188
-0.233814
-0.220921
-0.105632
-0.106282
-0.230621
-0.229006
-0.250439
-0.275816
-0.122017
-0.113085
-0.273663
-0.271354
-0.277505
-0.269654
0.027555
0.031471
-0.227913
-0.221421
-0.222372
-0.236865
-0.234913
-0.057832
-0.108489
-0.232809
-0.232004
-0.238025
-0.239553
0.212203
0.217514
-0.239946
0.198922
0.199125
0.201385
0.194129
-0.172138
0.280466
-0.261165
-0.265530
-0.174191
-0.170666
-0.162416
0.048065
0.057611
0.057986
-0.255498
-0.256575
-0.001403
0.002359
0.006947
0.244568
0.245075
0.241311
0.242799
0.212720
0.214932
0.212007
0.215754
0.209407
0.202361
0.199452
-0.236882
-0.235792
0.169120
0.169411
0.172379
-0.012740
0.000063
-0.009959
-0.004972
0.166480
-0.307065
-0.316151
0.318651
0.323347
-0.245244
-0.238850
-0.345821
-0.338111
-0.335761
0.226002