# vtk DataFile Version 2.0
Test
ASCII
DATASET POLYDATA
POINTS 6352 float
0.000000 0.000000 0.000000
1.000000 0.000000 0.000000
1.000000 0.800000 0.000000
1.000000 1.000000 0.000000
0.000000 1.000000 0.000000
0.000000 0.200000 0.000000
0.300000 0.330000 0.000000
0.700000 0.680000 0.000000
0.050000 0.000000 0.000000
0.100000 0.000000 0.000000
0.150000 0.000000 0.000000
0.200000 0.000000 0.000000
0.250000 0.000000 0.000000
0.300000 0.000000 0.000000
0.350000 0.000000 0.000000
0.400000 0.000000 0.000000
0.450000 0.000000 0.000000
0.500000 0.000000 0.000000
0.550000 0.000000 0.000000
0.600000 0.000000 0.000000
0.650000 0.000000 0.000000
0.700000 0.000000 0.000000
0.750000 0.000000 0.000000
0.800000 0.000000 0.000000
0.850000 0.000000 0.000000
0.900000 0.000000 0.000000
0.950000 0.000000 0.000000
1.000000 0.048545 0.000000
1.000000 0.094438 0.000000
1.000000 0.137825 0.000000
1.000000 0.178843 0.000000
1.000000 0.217620 0.000000
1.000000 0.254280 0.000000
1.000000 0.288938 0.000000
1.000000 0.321703 0.000000
1.000000 0.352678 0.000000
1.000000 0.381962 0.000000
1.000000 0.409647 0.000000
1.000000 0.435820 0.000000
1.000000 0.460563 0.000000
1.000000 0.483955 0.000000
1.000000 0.506070 0.000000
1.000000 0.526976 0.000000
1.000000 0.546741 0.000000
1.000000 0.565427 0.000000
1.000000 0.583092 0.000000
1.000000 0.599793 0.000000
1.000000 0.615581 0.000000
1.000000 0.630507 0.000000
1.000000 0.644618 0.000000
1.000000 0.657958 0.000000
1.000000 0.670570 0.000000
1.000000 0.682493 0.000000
1.000000 0.693765 0.000000
1.000000 0.704421 0.000000
1.000000 0.714495 0.000000
1.000000 0.724019 0.000000
1.000000 0.733023 0.000000
1.000000 0.741536 0.000000
1.000000 0.749583 0.000000
1.000000 0.757191 0.000000
1.000000 0.764383 0.000000
1.000000 0.771183 0.000000
1.000000 0.777611 0.000000
1.000000 0.783688 0.000000
1.000000 0.789434 0.000000
1.000000 0.794865 0.000000
1.000000 0.805174 0.000000
1.000000 0.811554 0.000000
1.000000 0.819418 0.000000
1.000000 0.829114 0.000000
1.000000 0.841067 0.000000
1.000000 0.855804 0.000000
1.000000 0.873972 0.000000
1.000000 0.896371 0.000000
1.000000 0.923985 0.000000
1.000000 0.958029 0.000000
0.950000 1.000000 0.000000
0.900000 1.000000 0.000000
0.850000 1.000000 0.000000
0.800000 1.000000 0.000000
0.750000 1.000000 0.000000
0.700000 1.000000 0.000000
0.650000 1.000000 0.000000
0.600000 1.000000 0.000000
0.550000 1.000000 0.000000
0.500000 1.000000 0.000000
0.450000 1.000000 0.000000
0.400000 1.000000 0.000000
0.350000 1.000000 0.000000
0.300000 1.000000 0.000000
0.250000 1.000000 0.000000
0.200000 1.000000 0.000000
0.150000 1.000000 0.000000
0.100000 1.000000 0.000000
0.050000 1.000000 0.000000
0.000000 0.951455 0.000000
0.000000 0.905562 0.000000
0.000000 0.862175 0.000000
0.000000 0.821157 0.000000
0.000000 0.782380 0.000000
0.000000 0.745720 0.000000
0.000000 0.711062 0.000000
0.000000 0.678297 0.000000
0.000000 0.647322 0.000000
0.000000 0.618038 0.000000
0.000000 0.590353 0.000000
0.000000 0.564180 0.000000
0.000000 0.539437 0.000000
0.000000 0.516045 0.000000
0.000000 0.493930 0.000000
0.000000 0.473024 0.000000
0.000000 0.453259 0.000000
0.000000 0.434573 0.000000
0.000000 0.416908 0.000000
0.000000 0.400207 0.000000
0.000000 0.384419 0.000000
0.000000 0.369493 0.000000
0.000000 0.355382 0.000000
0.000000 0.342042 0.000000
0.000000 0.329430 0.000000
0.000000 0.317507 0.000000
0.000000 0.306235 0.000000
0.000000 0.295579 0.000000
0.000000 0.285505 0.000000
0.000000 0.275981 0.000000
0.000000 0.266977 0.000000
0.000000 0.258464 0.000000
0.000000 0.250417 0.000000
0.000000 0.242809 0.000000
0.000000 0.235617 0.000000
0.000000 0.228817 0.000000
0.000000 0.222389 0.000000
0.000000 0.216312 0.000000
0.000000 0.210566 0.000000
0.000000 0.205135 0.000000
0.000000 0.194826 0.000000
0.000000 0.188446 0.000000
0.000000 0.180582 0.000000
0.000000 0.170886 0.000000
0.000000 0.158933 0.000000
0.000000 0.144196 0.000000
0.000000 0.126028 0.000000
0.000000 0.103629 0.000000
0.000000 0.076015 0.000000
0.000000 0.041971 0.000000
0.303738 0.333271 0.000000
0.307477 0.336542 0.000000
0.311215 0.339813 0.000000
0.314953 0.343084 0.000000
0.318692 0.346355 0.000000
0.322430 0.349626 0.000000
0.326168 0.352897 0.000000
0.329907 0.356168 0.000000
0.333645 0.359439 0.000000
0.337383 0.362710 0.000000
0.341121 0.365981 0.000000
0.344860 0.369252 0.000000
0.348598 0.372523 0.000000
0.352336 0.375794 0.000000
0.356075 0.379065 0.000000
0.359813 0.382336 0.000000
0.363551 0.385607 0.000000
0.367290 0.388879 0.000000
0.371028 0.392150 0.000000
0.374766 0.395421 0.000000
0.378505 0.398692 0.000000
0.382243 0.401963 0.000000
0.385981 0.405234 0.000000
0.389720 0.408505 0.000000
0.393458 0.411776 0.000000
0.397196 0.415047 0.000000
0.400935 0.418318 0.000000
0.404673 0.421589 0.000000
0.408411 0.424860 0.000000
0.412150 0.428131 0.000000
0.415888 0.431402 0.000000
0.419626 0.434673 0.000000
0.423364 0.437944 0.000000
0.427103 0.441215 0.000000
0.430841 0.444486 0.000000
0.434579 0.447757 0.000000
0.438318 0.451028 0.000000
0.442056 0.454299 0.000000
0.445794 0.457570 0.000000
0.449533 0.460841 0.000000
0.453271 0.464112 0.000000
0.457009 0.467383 0.000000
0.460748 0.470654 0.000000
0.464486 0.473925 0.000000
0.468224 0.477196 0.000000
0.471963 0.480467 0.000000
0.475701 0.483738 0.000000
0.479439 0.487009 0.000000
0.483178 0.490280 0.000000
0.486916 0.493551 0.000000
0.490654 0.496822 0.000000
0.494393 0.500093 0.000000
0.498131 0.503364 0.000000
0.501869 0.506636 0.000000
0.505607 0.509907 0.000000
0.509346 0.513178 0.000000
0.513084 0.516449 0.000000
0.516822 0.519720 0.000000
0.520561 0.522991 0.000000
0.524299 0.526262 0.000000
0.528037 0.529533 0.000000
0.531776 0.532804 0.000000
0.535514 0.536075 0.000000
0.539252 0.539346 0.000000
0.542991 0.542617 0.000000
0.546729 0.545888 0.000000
0.550467 0.549159 0.000000
0.554206 0.552430 0.000000
0.557944 0.555701 0.000000
0.561682 0.558972 0.000000
0.565421 0.562243 0.000000
0.569159 0.565514 0.000000
0.572897 0.568785 0.000000
0.576636 0.572056 0.000000
0.580374 0.575327 0.000000
0.584112 0.578598 0.000000
0.587850 0.581869 0.000000
0.591589 0.585140 0.000000
0.595327 0.588411 0.000000
0.599065 0.591682 0.000000
0.602804 0.594953 0.000000
0.606542 0.598224 0.000000
0.610280 0.601495 0.000000
0.614019 0.604766 0.000000
0.617757 0.608037 0.000000
0.621495 0.611308 0.000000
0.625234 0.614579 0.000000
0.628972 0.617850 0.000000
0.632710 0.621121 0.000000
0.636449 0.624393 0.000000
0.640187 0.627664 0.000000
0.643925 0.630935 0.000000
0.647664 0.634206 0.000000
0.651402 0.637477 0.000000
0.655140 0.640748 0.000000
0.658879 0.644019 0.000000
0.662617 0.647290 0.000000
0.666355 0.650561 0.000000
0.670093 0.653832 0.000000
0.673832 0.657103 0.000000
0.677570 0.660374 0.000000
0.681308 0.663645 0.000000
0.685047 0.666916 0.000000
0.688785 0.670187 0.000000
0.692523 0.673458 0.000000
0.696262 0.676729 0.000000
0.004545 0.201970 0.000000
0.009091 0.203939 0.000000
0.013636 0.205909 0.000000
0.018182 0.207879 0.000000
0.022727 0.209848 0.000000
0.027273 0.211818 0.000000
0.031818 0.213788 0.000000
0.036364 0.215758 0.000000
0.040909 0.217727 0.000000
0.045455 0.219697 0.000000
0.050000 0.221667 0.000000
0.054545 0.223636 0.000000
0.059091 0.225606 0.000000
0.063636 0.227576 0.000000
0.068182 0.229545 0.000000
0.072727 0.231515 0.000000
0.077273 0.233485 0.000000
0.081818 0.235455 0.000000
0.086364 0.237424 0.000000
0.090909 0.239394 0.000000
0.095455 0.241364 0.000000
0.100000 0.243333 0.000000
0.104545 0.245303 0.000000
0.109091 0.247273 0.000000
0.113636 0.249242 0.000000
0.118182 0.251212 0.000000
0.122727 0.253182 0.000000
0.127273 0.255152 0.000000
0.131818 0.257121 0.000000
0.136364 0.259091 0.000000
0.140909 0.261061 0.000000
0.145455 0.263030 0.000000
0.150000 0.265000 0.000000
0.154545 0.266970 0.000000
0.159091 0.268939 0.000000
0.163636 0.270909 0.000000
0.168182 0.272879 0.000000
0.172727 0.274848 0.000000
0.177273 0.276818 0.000000
0.181818 0.278788 0.000000
0.186364 0.280758 0.000000
0.190909 0.282727 0.000000
0.195455 0.284697 0.000000
0.200000 0.286667 0.000000
0.204545 0.288636 0.000000
0.209091 0.290606 0.000000
0.213636 0.292576 0.000000
0.218182 0.294545 0.000000
0.222727 0.296515 0.000000
0.227273 0.298485 0.000000
0.231818 0.300455 0.000000
0.236364 0.302424 0.000000
0.240909 0.304394 0.000000
0.245455 0.306364 0.000000
0.250000 0.308333 0.000000
0.254545 0.310303 0.000000
0.259091 0.312273 0.000000
0.263636 0.314242 0.000000
0.268182 0.316212 0.000000
0.272727 0.318182 0.000000
0.277273 0.320152 0.000000
0.281818 0.322121 0.000000
0.286364 0.324091 0.000000
0.290909 0.326061 0.000000
0.295455 0.328030 0.000000
0.704615 0.681846 0.000000
0.709231 0.683692 0.000000
0.713846 0.685538 0.000000
0.718462 0.687385 0.000000
0.723077 0.689231 0.000000
0.727692 0.691077 0.000000
0.732308 0.692923 0.000000
0.736923 0.694769 0.000000
0.741538 0.696615 0.000000
0.746154 0.698462 0.000000
0.750769 0.700308 0.000000
0.755385 0.702154 0.000000
0.760000 0.704000 0.000000
0.764615 0.705846 0.000000
0.769231 0.707692 0.000000
0.773846 0.709538 0.000000
0.778462 0.711385 0.000000
0.783077 0.713231 0.000000
0.787692 0.715077 0.000000
0.792308 0.716923 0.000000
0.796923 0.718769 0.000000
0.801538 0.720615 0.000000
0.806154 0.722462 0.000000
0.810769 0.724308 0.000000
0.815385 0.726154 0.000000
0.820000 0.728000 0.000000
0.824615 0.729846 0.000000
0.829231 0.731692 0.000000
0.833846 0.733538 0.000000
0.838462 0.735385 0.000000
0.843077 0.737231 0.000000
0.847692 0.739077 0.000000
0.852308 0.740923 0.000000
0.856923 0.742769 0.000000
0.861538 0.744615 0.000000
0.866154 0.746462 0.000000
0.870769 0.748308 0.000000
0.875385 0.750154 0.000000
0.880000 0.752000 0.000000
0.884615 0.753846 0.000000
0.889231 0.755692 0.000000
0.893846 0.757538 0.000000
0.898462 0.759385 0.000000
0.903077 0.761231 0.000000
0.907692 0.763077 0.000000
0.912308 0.764923 0.000000
0.916923 0.766769 0.000000
0.921538 0.768615 0.000000
0.926154 0.770462 0.000000
0.930769 0.772308 0.000000
[...]
POINT_DATA 6352
SCALARS UX float 1
LOOKUP_TABLE default
-0.000003
0.000004
3.615808
1.989976
-7.299224
-4.587558
-2.559051
0.400340
0.000000
-0.000001
-0.000000
-0.000000
-0.000000
-0.000000
-0.000000
-0.000000
-0.000000
-0.000000
-0.000000
0.000000
0.000000
0.000000
0.000000
0.000000
0.000000
0.000001
-0.000000
1.230016
1.900915
2.347120
2.708979
2.983459
3.226377
3.435693
3.613566
3.767687
3.897309
4.005779
4.094376
4.166295
4.222738
4.264989
4.294326
4.312360
4.321321
4.322329
4.316532
4.304452
4.287830
4.266519
4.242609
4.213997
4.183755
4.151052
4.116243
4.079503
4.042350
4.004221
3.965314
3.925836
3.885871
3.846612
3.807056
3.767464
3.728349
3.689941
3.652216
3.577506
3.528689
3.465164
3.381228
3.271098
3.127915
2.944109
2.709953
2.447520
2.181260
1.218875
0.618686
0.151753
-0.252339
-0.604857
-0.952585
-1.301538
-1.659879
-2.037870
-2.443046
-2.875856
-3.332449
-3.816019
-4.307194
-4.802326
-5.302066
-5.800682
-6.299018
-6.798811
-7.231094
-7.170249
-7.119288
-7.078661
-7.046207
-7.016751
-6.989265
-6.962279
-6.934141
-6.902801
-6.866745
-6.824870
-6.777720
-6.723699
-6.662915
-6.600899
-6.529792
-6.455746
-6.378969
-6.297299
-6.214354
-6.130488
-6.043646
-5.957043
-5.869722
-5.782035
-5.694535
-5.606961
-5.519953
-5.433336
-5.348562
-5.264540
-5.181953
-5.100878
-5.021824
-4.944516
-4.868821
-4.795143
-4.723602
-4.654409
-4.518274
-4.430908
-4.318887
-4.175597
-3.992774
-3.756272
-3.457530
-3.067332
-2.553732
-1.873299
-2.558769
-2.523080
-2.486143
-2.441426
-2.422571
-2.438689
-2.433378
-2.402797
-2.427234
-2.445035
-2.423214
-2.430450
-2.429114
-2.394382
-2.378017
-2.363951
-2.325406
-2.330317
-2.309806
-2.254253
-2.280767
-2.242435
-2.184186
-2.167155
-2.147418
-2.103976
-2.006142
-2.020879
-1.957763
-1.990449
-1.943284
-1.935327
-1.886308
-1.858977
-1.864156
-1.818654
-1.771191
-1.809324
-1.767497
-1.736449
-1.667182
-1.650662
-1.618199
-1.582958
-1.492455
-1.450034
-1.480369
-1.460038
-1.428373
-1.421376
-1.395022
-1.385717
-1.303248
-1.327824
-1.274740
-1.265927
-1.242699
-1.183449
-1.140648
-1.103175
-1.088573
-1.027704
-0.978414
-0.962327
-0.902612
-0.846214
-0.811885
-0.729320
-0.698301
-0.665385
-0.617946
-0.598244
-0.579794
-0.657830
-0.615648
-0.592368
-0.579534
-0.544265
-0.553285
-0.476421
-0.561780
-0.558307
-0.529751
-0.511294
-0.532021
-0.520903
-0.464413
-0.419505
-0.395849
-0.378207
-0.365858
-0.351414
-0.309453
-0.288424
-0.261161
-0.249689
-0.187361
-0.190355
-0.095357
-0.028595
0.047460
0.098145
0.191200
0.238183
0.284536
0.347724
-4.572757
-4.557933
-4.543179
-4.528169
-4.512949
-4.497439
-4.481407
-4.465088
-4.448461
-4.431589
-4.414093
-4.396228
-4.378340
-4.360253
-4.341233
-4.322010
-4.302775
-4.283381
-4.263727
-4.243513
-4.223293
-4.202912
-4.181669
-4.160392
-4.138598
-4.116730
-4.094462
-4.072083
-4.049648
-4.026879
-4.003948
-3.980762
-3.956881
-3.933046
-3.908849
-3.884350
-3.859288
-3.833819
-3.808140
-3.781765
-3.755226
-3.728277
-3.700188
-3.671201
-3.642175
-3.612828
-3.583042
-3.551905
-3.519865
-3.487991
-3.455835
-3.419220
-3.381075
-3.342837
-3.304027
-3.266561
-3.224371
-3.180161
-3.129448
-3.106198
-3.062321
-2.985305
-2.935012
-2.862095
-2.733187
0.612402
0.788312
0.923109
1.032717
1.104083
1.165011
1.265190
1.337983
1.394036
1.434304
1.502392
1.557178
1.612044
1.666928
1.719594
1.769735
1.818606
1.867735
1.915068
1.961383
2.006080
2.050176
2.092204
2.134511
2.177363
2.217805
2.258026
2.297723
2.337049
2.376572
2.415272
2.453008
2.491264
2.529132
2.566428
2.603442
2.640180
2.676743
2.713389
2.749333
2.785326
2.821502
2.857369
2.892758
2.928466
2.963659
2.998564
3.033344
3.068005
3.102624
3.137097
3.171391
3.205453
3.239608
3.273901
3.307975
3.341911
3.375818
3.409888
3.443706
3.477585
3.511640
3.545931
3.580604
1.775656
1.772302
1.858815
1.706323
0.054345
0.027930
0.094675
0.024526
-3.077692
-3.110262
-2.839452
-2.940330
-2.604346
-3.010058
-5.443762
-5.321592
-5.382900
-5.282975
-2.991746
-0.822495
-0.705636
-0.717429
-0.589554
-0.436497
-0.436694
-0.262942
-0.646163
-1.157644
-1.194765
-1.090261
-1.369206
-1.233512
-1.413781
-1.225629
3.098752
2.995845
3.193143
2.965842
-0.408951
-0.597236
-0.368390
-0.661558
-5.064706
-5.041069
-5.155677
-4.365952
-4.368022
-4.276385
-4.492601
-4.474877
-4.552923
2.420701
2.667909
2.488822
2.646227
0.012306
0.035389
0.097589
-1.322166
-1.268063
-0.854076
3.188423
3.311142
3.307393
-2.141254
-2.304556
-2.265399
-3.342514
-3.189850
-3.026987
2.663590
2.704429
2.620151
-2.229266
-4.381115
-4.396616
-4.284526
-0.691763
-0.755101
-0.798109
-0.667280
1.330653
1.282620
1.286924
-0.888039
-0.984720
-1.247996
1.299148
1.859206
1.939270
1.850354
-0.101895
-0.262359
-0.056625
1.921725
1.934082
1.812179
1.180949
1.163971
1.220142
-0.486719
-0.622985
-0.502560
1.129078
-0.276553
-0.172645
-0.176214
-0.217153
-4.198843
-4.264044
-4.233624
-0.214892
1.786609
1.733426
1.801354
-1.477117
-1.522546
-1.327143
2.673935
2.629071
2.612338
2.571986
2.577057
2.537905
-3.864278
-4.147280
-3.789668
-4.023586
-0.853405
-0.739693
-0.755208
1.783543
2.591493
-0.626260
-5.976356
-5.835791
-5.907800
-4.319700
-4.405770
-4.319648
0.118446
0.441621
0.510620
-5.757348
2.072380
2.045996
2.080183
2.017338
-0.727360
-0.590570
-0.525241
0.709358
-3.529466
-3.558888
-3.512868
-0.036897
-0.083074
-0.033356
-0.091621
2.684487
2.616832
2.587499
-0.322824
1.862531
1.734388
1.754951
-5.648554
-5.587997
-5.516729
2.541519
2.594451
2.528639
2.540686
-4.435079
-4.363881
-4.453815
-4.377508
-0.839571
-0.759578
-0.777940
2.524452
-3.327827
-3.489518
-3.006071
-0.797681
-3.017933
-3.015780
-3.323464
-2.773584
3.103768
3.273530
-3.342352
3.090601
-4.076731
-4.063712
-4.030690
-4.102267
-1.253632
-1.280480
-1.403448
-0.026863
-3.581474
-2.754430
-3.781563
-3.768696
-3.810964
-3.744935
1.506346
1.487208
1.462563
1.446412
-4.287268
-4.259771
-1.120337
-3.958677
-3.942829
-3.992782
-3.956721
-0.321437
-0.312795
-0.265730
2.765404
2.775747
2.678503
-0.367732
2.861359
-2.228662
-2.033131
-1.920041
2.795003
2.795040
2.714223
-1.818763
-2.498662
-2.529764
-2.579725
2.868752
-2.599109
-4.187671
-4.189913
-4.123451
-2.472204
-2.426409
-2.409866
-4.100441
1.826713
1.795140
1.726497
1.006033
0.975691
1.029966
-1.391479
-1.458300
-1.257720
-2.869363
-2.774517
-2.836570
1.739286
1.773862
1.744819
1.785647
0.145335
0.065013
0.117607
0.984129
1.713478
0.883644
0.872730
0.829290
1.902989
2.047324
1.982114
2.127534
2.463942
2.498033
2.439098
2.478298
3.844639
3.758260
3.721050
-2.943233
-2.856981
-2.691198
-3.183416
3.618054
0.586853
0.699560
0.596421
-2.953608
-2.892287
-2.938591
1.886080
1.847067
1.917163
3.772705
3.933274
1.826445
-6.310998
-6.434655
-6.259977
3.532886
3.478268
3.469062
3.409408
-1.958104
-1.748802
1.834576
1.851123
1.810323
-2.861728
-2.862574
-2.981896
-2.938619
2.703170
-2.885595
2.593942
2.625628
-3.101400
-3.177682
-3.141234
-4.038056
-3.933926
-4.037845
-3.951670
-4.633185
-4.728559
-4.715019
-4.810142
-4.536311
-4.532366
-4.439270
-4.074987
-3.974872
-4.014990
-4.890081
-4.804367
-4.907061
-3.921209
-0.171857
-0.245359
-0.224181
0.936572
0.903290
-4.766756
-4.739948
-4.686374
-4.835914
-4.226248
-4.272810
-4.230814
-4.287779
-3.604968
-3.674977
-3.654081
-3.718767
-5.341635
-5.369698
-5.457301
-4.396096
-5.278496
0.443085
0.435581
0.780157
-2.243454
-2.356995
-2.047441
-2.484938
2.813834
2.877417
2.797810
2.915152
-4.709030
-4.817538
2.066057
2.062475
1.929496
-3.749433
-3.736536
1.945453
3.013244
3.076401
3.093487
3.156647
2.944335
2.931493
2.859093
-3.783603
0.525580
0.439948
0.530629
0.392502
2.530504
2.450596
2.574879
-3.874402
-3.681786
-3.778947
-3.569949
3.370572
3.376478
3.436351
3.306083
-6.745162
-6.607550
-6.583486
-6.441433
-4.324872
-4.430757
0.935761
1.055887
0.742206
0.726110
-4.534810
-4.306680
-4.267406
-4.088018
2.774979
2.869080
2.785040
2.857933
2.728157
-0.286211
-0.184484
-0.437713
2.989372
3.047186
3.107945
-0.997099
-1.105922
-0.729160
2.355700
2.264357
2.395572
2.225999
2.922967
2.853313
2.800454
-0.202452
-0.146980
-4.239625
-4.285167
-4.189405
-1.112692
-1.109144
-0.985334
1.879090
1.907017
-4.273013
-4.239442
-4.150175
-4.149075
-3.914794
-3.926087
-3.858824
3.196296
-0.553586
-0.715388
-0.521335
3.359180
-3.765478
-3.816739
-3.769513
0.143276
0.104066
-0.131971
-3.963837
-0.657307
-0.865924
-0.103915
-3.823704
-3.742274
-3.841620
-3.846940
-0.268453
-0.326503
-0.496738
2.509080
2.550476
2.432881
-2.936586
-2.873878
-4.062378
-4.054571
-0.903121
-0.817851
-1.067580
-4.142358
-1.109283
-0.937085
-0.890614
-0.753084
-4.239248
-4.216640
-4.163434
-4.297380
-3.667541
-3.788095
-3.803012
-3.946504
-3.138368
-3.245140
-3.342185
2.083337
2.139406
2.184698
-0.121037
-0.235017
-0.107193
-4.722201
-4.816599
-3.027914
2.172243
-3.994295
-3.976715
-4.112145
-3.841837
-6.655699
-6.529294
-6.509322
-6.425557
-1.125809
-1.045403
-1.173629
-3.794119
-3.685378
-3.839475
-3.711903
-5.455404
-5.236411
-5.308474
1.960663
2.102768
2.054057
-3.894497
-3.769707
-4.202220
-4.225877
-4.275809
0.643470
0.936059
0.919248
-4.283888
-3.832949
-3.430988
-3.382849
2.726786
2.832538
2.827135
0.266310
0.077300
0.799847
-3.496150
-3.522476
-3.475742
-3.823906
-3.946417
-3.927847
-4.196340
-4.276406
-4.174340
-3.872702
-3.987063
-3.866639
-0.197643
-0.117213
-0.189677
-1.276210
-1.152198
-0.095217
-3.494016
-3.931891
-4.493719
-4.449105
-4.493602
-1.449852
-1.487078
-1.552919
-1.374592
-1.390306
-1.265896
-1.383272
-1.155730
-4.533852
-4.486574
-4.457714
-4.418955
-0.543740
-0.243222
-0.727957
2.641811
2.571645
2.689694
2.568948
-3.967001
-4.012426
-3.960675
-3.728666
-3.496327
-3.702194
-4.019514
-3.799925
-3.919452
-3.916724
3.112689
2.909262
3.092775
2.864619
-4.396756
-4.418031
-4.490150
2.946682
2.991897
3.055061
1.694352
1.748317
1.707873
1.734065
-5.412078
-5.311284
-5.231671
-4.257334
-4.306646
-4.343504
-4.390934
2.855951
2.848310
2.926647
-2.090199
-2.108031
-2.163176
1.583019
1.595161
1.673519
1.696810
1.623327
1.544472
1.540557
-0.757112
-0.672595
-0.709875
-0.291906
-0.212881
-0.268486
-0.731365
-4.710339
-4.771245
-4.683611
-0.225536
-0.302170
-0.256167
-2.059014
-2.022387
-4.560307
-4.518809
-4.480743
3.408908
3.471724
3.407276
-4.422621
-1.994030
1.852339
1.520986
1.710087
-4.090870
-4.153366
-4.231340
-3.459919
-3.520131
-4.016167
-4.015536
-4.112146
2.573139
2.698434
2.683585
-4.605893
-4.645878
-4.719403
-4.744169
-4.058779
-4.064505
-3.988510
-4.104457
-2.113570
-2.198533
-2.176641
-2.158886
2.328221
2.351431
2.478524
2.207616
2.482909
2.607570
2.962806
3.022303
3.050819
3.895749
3.978234
3.959062
3.123161
2.486195
2.484555
2.569821
2.243389
2.255262
-3.431090
-3.404666
1.896073
-1.028059
-1.030241
-1.110827
-1.181330
-3.889126
-4.067710
-4.040787
-3.487249
2.211767
2.201202
2.139295
2.117874
-4.917307
-4.873174
-4.773092
-0.723196
-0.615315
-0.631815
0.616858
0.689711
0.827893
0.302946
-3.519952
-3.222020
-3.454989
3.020445
2.945653
2.937726
1.442378
1.475630
1.175394
-2.898428
-3.743586
-3.518661
-3.600312
2.594414
2.717116
2.673441
-3.626059
-0.591872
-3.655462
-3.791576
-3.634984
-3.801827
-0.556987
-0.699834
2.638420
2.750140
-5.765901
-5.660257
-1.355305
-1.235513
-1.280759
-1.126266
-0.904933
-1.014469
-0.999412
-0.452385
-0.353588
-0.383565
1.606584
1.874056
1.715118
-0.424940
-2.991669
-3.188770
-2.936739
3.352118
3.392103
3.439116
-0.162303
-0.015546
-0.025694
-3.154935
-2.896442
-2.908448
-3.973593
-3.953029
-3.909635
1.893346
1.881537
2.067714
2.909433
2.968902
2.996172
3.064414
1.693546
-4.007599
-4.074750
-4.108717
-2.522314
-2.620003
-2.585406
2.177515
2.239437
2.229542
2.307455
2.131603
2.096946
2.020715
-3.631473
-3.836275
-3.795681
0.946352
-5.521076
-5.391933
-5.491027
-4.490122
-3.325434
-3.319354
-3.133234
-4.185173
-4.083166
-4.221468
-3.112054
2.390194
2.504351
-1.763838
-2.036020
-1.973550
-1.974947
-2.140521
-2.300724
-3.463734
-3.591221
-3.588743
-3.688460
-2.463318
1.144229
1.208516
1.204255
-5.088560
-5.175169
-5.113567
-3.878152
-3.913706
-3.777498
-3.977897
-4.028199
-4.021910
-4.078321
2.725451
3.482345
3.101146
3.236530
3.138604
-4.000229
-4.029118
-4.101839
3.442637
-4.208171
-4.155780
-0.341249
-0.255387
1.608450
1.620356
1.564822
2.407587
2.411810
2.492716
1.572020
2.578514
2.566307
-4.646318
-4.739111
-4.730844
-4.815817
-3.223474
-3.203423
-3.263262
0.116119
-0.006022
-0.100482
1.442541
1.421057
1.609493
-2.486958
-2.372387
-2.443976
-2.418410
1.503457
2.325533
2.347579
2.278036
-0.086542
-0.093985
-0.018152
-1.515439
-1.552175
-1.799810
-4.422614
-4.505329
-4.417052
-3.069546
-4.506191
2.317892
-2.063742
-2.022103
-1.968494
-0.880510
-0.782093
-0.794203
-2.213007
-2.089556
-1.906665
-1.809438
-4.353098
-4.411349
2.047293
2.175394
2.110036
1.116447
1.060613
1.369435
1.370575
-4.621850
-4.712822
-4.715351
-4.827480
1.642576
1.728213
1.747094
1.669402
-5.367657
-5.022695
-5.236979
2.298139
2.315798
2.388140
-5.276904
2.509104
2.451049
2.235462
2.348315
-3.817898
-3.816833
-3.787640
-3.859254
-3.873794
-3.983134
-4.104837
-4.062112
-4.305491
-4.348293
-4.428851
-4.245073
0.883794
0.917588
0.865159
2.798715
2.804874
2.882346
-3.823269
-3.809875
-3.753892
2.741242
-3.745599
-3.753471
-3.810439
-3.773692
-3.901097
-3.791801
3.375059
3.339115
-3.983473
-4.089879
-3.889722
-3.987582
-0.836732
-0.918200
-0.958614
-3.863943
0.859680
0.905025
0.924594
0.854285
0.677009
0.742798
0.015934
0.046185
0.077115
-4.976817
-4.900540
-4.875020
0.542187
3.266576
3.340910
3.259230
-0.729204
-0.809717
-0.932985
-1.797814
-1.911438
-1.921737
-1.808858
-0.159605
-0.237177
-3.705967
-3.664840
-3.650533
-0.791995
-0.734648
-0.729691
1.644004
1.704031
-2.489345
-2.613254
-2.642469
-0.674791
-3.600088
-1.281941
-1.195220
-3.623076
-3.736368
-3.668647
-3.756935
-5.519010
-5.762182
-5.714846
-5.574489
-3.977539
-4.044104
-3.942408
0.195675
0.204139
0.286153
-3.981954
-4.024780
-4.215888
-4.304587
-3.917390
1.464271
1.424664
1.416134
1.473298
1.105347
0.984779
1.012583
1.064810
0.919492
1.069994
0.956236
-4.833598
-4.953153
-4.879523
3.461784
3.442582
1.894883
1.933921
2.027447
2.073218
-4.787818
-4.697184
-4.143438
-4.146974
-4.116720
-4.466950
-4.467765
-3.999760
-3.985178
-4.033400
-3.949548
-4.151579
-4.014965
-4.290380
-4.234947
-4.398141
1.454855
1.422858
1.525045
1.505389
-5.679157
-5.515267
-5.684439
1.427925
1.370357
3.375178
1.349752
-5.281951
-5.371647
-5.338056
3.392896
1.269593
0.849519
1.032229
-5.436136
0.898440
-5.459225
-4.353190
-1.126592
-1.041503
-1.036826
-4.384092
-3.866539
-3.907070
-3.888229
-3.934928
-3.856761
-3.864540
-3.982517
-3.922585
2.764791
2.722364
2.809225
2.730290
-3.884727
-3.908285
-3.857915
-3.945191
1.862720
1.848865
1.991663
1.914989
-3.718618
-3.759389
-4.536785
-4.503789
1.581554
1.552732
1.644903
1.502700
1.512432
1.452744
-3.921440
-3.906613
-2.908645
-2.890891
-3.017607
-2.935319
1.741670
-3.279283
-3.390540
-3.463014
-3.090293
-0.863990
-0.779845
-0.810485
1.227909
0.948731
-0.716250
-3.492384
-3.462237
-3.411142
-3.393843
-2.033291
-2.116480
-0.204214
-0.321735
1.143326
1.094641
-0.363656
-3.761322
-3.564035
-3.647038
-3.335803
1.885241
1.974406
1.930292
2.043978
1.079594
1.207308
1.824856
1.856615
1.961764
-4.074718
-3.954803
-3.952205
2.960677
2.959852
3.064019
1.359017
1.341533
3.078260
1.475711
1.180687
1.549700
-1.360301
-1.325459
-1.259626
1.503535
-3.727666
-3.775440
1.511673
1.635454
1.663493
2.319705
2.256295
2.332009
-5.136610
-5.198681
2.227374
-4.800376
-4.861382
-4.789349
2.642974
2.545162
0.563001
0.366813
0.700381
-3.907657
-3.902045
-3.951334
-3.942478
-4.167888
-4.132772
-2.123721
-2.040359
-2.461769
-4.016716
-4.057568
-4.141870
-4.174273
-3.585366
-3.614317
0.401199
0.471897
0.336475
1.627272
1.675446
1.563957
1.607713
1.493739
1.654477
1.650303
1.592174
1.598929
-1.982407
-1.828800
-1.779080
-4.352969
-4.493088
-4.388606
-4.576513
-4.222696
-4.331132
-4.157835
1.298191
1.393523
1.418064
1.311711
3.812348
3.716808
3.750345
-3.845522
-3.871773
-3.847053
-1.644933
-1.863269
-1.704833
-3.881915
-3.297190
-3.090125
-3.201444
-3.218247
-1.902525
-1.782785
-1.801225
-3.358134
-3.566327
-5.249967
-5.172573
-5.216806
2.368807
2.351025
2.460305
-3.531012
2.856711
-3.650733
-3.644421
1.159914
1.262360
1.201242
1.240195
1.260605
1.068343
1.130790
3.845979
3.765856
3.774058
3.700963
3.472030
3.528908
3.533307
-4.168608
-4.204580
-4.239335
3.589623
-4.261602
-4.105963
-4.042368
-3.307948
-3.158016
-3.435505
-2.286267
-1.971409
-2.083497
2.922967
2.914905
2.854968
2.802784
-2.257607
0.941024
0.910505
1.315844
1.108334
1.079081
1.128127
1.091068
-3.211177
-3.217065
-3.152326
-3.273272
-3.769415
-3.682497
-3.690700
0.946348
0.887612
0.850825
0.791628
-3.802249
-3.857618
-3.819881
3.702787
-3.876898
3.626951
-3.777726
-3.695884
-2.827739
-2.715532
-1.295582
-1.424480
-3.209484
-3.094390
-3.048866
0.144277
0.133854
-4.709834
-4.792203
-4.775315
-4.873799
0.127827
0.200573
0.196625
0.182251
0.205368
0.246674
1.580727
1.639401
1.390815
1.858433
-2.460108
-2.873505
-1.231052
-1.358156
-1.232443
-1.320918
-0.276540
-0.223891
-0.121469
-0.166264
-0.165064
-0.211728
0.986984
1.065789
1.074682
-0.262880
-0.540150
-0.532903
1.004213
-0.948459
-0.988991
-0.890866
-0.934086
1.141669
1.077425
0.587697
0.861296
-3.761006
-3.606986
-3.618759
-3.457544
-5.398851
-5.421083
-5.527403
-5.322442
-0.337117
1.760181
1.708937
1.732780
1.699818
-5.330189
-5.273876
1.709604
-5.152311
-3.582917
-3.593750
-3.648471
-3.645573
-3.659686
-3.571009
-3.683426
1.517122
-1.810127
-1.852196
-1.922188
-3.522103
-3.460566
1.354977
1.316688
1.345213
-3.675494
-3.688759
2.507368
2.384434
2.451116
3.848224
3.770327
-3.734527
-3.621633
-5.906056
-5.931862
-3.100304
-3.086941
-3.143653
-3.027291
-0.593902
-0.625249
-0.537759
-0.590955
-3.366532
-3.171105
-3.189485
-0.181240
-3.223039
-3.730159
-3.648976
-3.641576
-0.702611
-0.843952
-2.355560
-2.269810
-2.352737
-2.263526
1.383701
1.424992
1.384253
1.423181
1.804238
1.821267
1.834392
1.748448
-1.225644
-1.266266
-1.338208
0.658485
0.647347
0.715848
-0.863141
-0.985000
0.601921
-3.226365
-3.196900
-6.015694
-5.838488
-3.147009
-3.268901
-5.214687
-3.283193
3.965067
4.084107
4.026181
3.731091
1.287799
1.425337
1.503087
-4.266121
-4.098710
-4.217673
-2.569149
-2.593633
-2.631194
-2.646268
3.494779
2.314369
2.374693
2.392952
-4.489817
-5.006184
-4.952330
-4.912212
-5.051897
2.241664
2.308683
-5.084675
-5.149217
-5.070266
-1.846020
1.910986
2.172146
2.226710
3.199816
3.072715
3.160067
2.139974
-3.048784
-3.104783
-3.062879
-3.101166
-2.503804
-2.451394
-2.510820
-4.854300
-4.945106
3.854428
3.791911
3.688107
-2.893957
-2.745386
-2.536269
3.724784
3.797281
3.740157
-1.254501
-1.326774
-2.361583
-2.395769
-3.470253
-3.327843
-3.170396
1.024459
0.840411
1.216506
-0.380563
-0.541800
-1.015114
-0.161011
-0.075930
-0.142076
-2.739119
-2.683422
-2.709320
0.072772
0.034275
0.118339
0.076400
-0.329473
-0.193285
-1.684796
-1.637165
-1.522588
-1.488215
-6.452125
-6.516352
-6.266592
-6.727754
-3.605256
-3.718997
-3.621086
-6.176634
-3.402812
0.920684
0.905174
0.967627
0.923681
1.675364
3.836498
3.750801
1.613730
3.401025
3.456687
0.034335
0.109927
1.649866
-2.444252
1.570447
1.214531
1.192410
1.244295
3.339776
3.343834
2.648274
2.553275
3.168125
3.045051
3.549282
3.636507
1.246264
3.180028
1.268084
1.216990
0.381523
0.360273
0.427757
-5.808113
-5.817753
-5.907043
-5.715410
0.306984
1.662888
1.580254
1.398996
1.505431
1.693649
-3.659113
-3.703905
-5.259369
-5.160331
-3.632348
-4.741523
-4.221486
1.572658
1.599511
1.606430
1.555833
1.635973
3.662725
3.724168
-0.140701
-0.150235
1.520506
1.469451
1.541412
1.389760
1.519026
-4.175442
-3.953097
-2.736515
-2.804778
-3.804095
-3.815965
-5.647797
-6.049146
-2.856283
-2.775070
-4.614308
-4.605601
-4.697559
-4.549091
0.241480
0.282131
-3.822515
-3.697944
-3.741147
-3.901392
-3.885146
-0.901947
-1.860241
-3.837502
-4.143661
-3.934733
-3.934340
1.419910
1.682301
-3.966292
1.496771
1.491980
1.557514
1.405380
-3.155078
3.470073
-4.608817
-4.672454
-3.163563
-3.095668
-2.973372
-0.835596
-0.705533
-0.746354
-4.523843
-4.540321
-0.076372
-0.014816
0.004845
2.402446
2.435409
2.369652
2.421913
1.702249
1.744838
1.675342
1.753307
1.637004
1.626234
1.577140
-4.225733
-4.206675