# vtk DataFile Version 2.0
Test
ASCII
DATASET POLYDATA
POINTS 6352 float
0.000000 0.000000 0.000000
1.000000 0.000000 0.000000
1.000000 0.800000 0.000000
1.000000 1.000000 0.000000
0.000000 1.000000 0.000000
0.000000 0.200000 0.000000
0.300000 0.330000 0.000000
0.700000 0.680000 0.000000
0.050000 0.000000 0.000000
0.100000 0.000000 0.000000
0.150000 0.000000 0.000000
0.200000 0.000000 0.000000
0.250000 0.000000 0.000000
0.300000 0.000000 0.000000
0.350000 0.000000 0.000000
0.400000 0.000000 0.000000
0.450000 0.000000 0.000000
0.500000 0.000000 0.000000
0.550000 0.000000 0.000000
0.600000 0.000000 0.000000
0.650000 0.000000 0.000000
0.700000 0.000000 0.000000
0.750000 0.000000 0.000000
0.800000 0.000000 0.000000
0.850000 0.000000 0.000000
0.900000 0.000000 0.000000
0.950000 0.000000 0.000000
1.000000 0.048545 0.000000
1.000000 0.094438 0.000000
1.000000 0.137825 0.000000
1.000000 0.178843 0.000000
1.000000 0.217620 0.000000
1.000000 0.254280 0.000000
1.000000 0.288938 0.000000
1.000000 0.321703 0.000000
1.000000 0.352678 0.000000
1.000000 0.381962 0.000000
1.000000 0.409647 0.000000
1.000000 0.435820 0.000000
1.000000 0.460563 0.000000
1.000000 0.483955 0.000000
1.000000 0.506070 0.000000
1.000000 0.526976 0.000000
1.000000 0.546741 0.000000
1.000000 0.565427 0.000000
1.000000 0.583092 0.000000
1.000000 0.599793 0.000000
1.000000 0.615581 0.000000
1.000000 0.630507 0.000000
1.000000 0.644618 0.000000
1.000000 0.657958 0.000000
1.000000 0.670570 0.000000
1.000000 0.682493 0.000000
1.000000 0.693765 0.000000
1.000000 0.704421 0.000000
1.000000 0.714495 0.000000
1.000000 0.724019 0.000000
1.000000 0.733023 0.000000
1.000000 0.741536 0.000000
1.000000 0.749583 0.000000
1.000000 0.757191 0.000000
1.000000 0.764383 0.000000
1.000000 0.771183 0.000000
1.000000 0.777611 0.000000
1.000000 0.783688 0.000000
1.000000 0.789434 0.000000
1.000000 0.794865 0.000000
1.000000 0.805174 0.000000
1.000000 0.811554 0.000000
1.000000 0.819418 0.000000
1.000000 0.829114 0.000000
1.000000 0.841067 0.000000
1.000000 0.855804 0.000000
1.000000 0.873972 0.000000
1.000000 0.896371 0.000000
1.000000 0.923985 0.000000
1.000000 0.958029 0.000000
0.950000 1.000000 0.000000
0.900000 1.000000 0.000000
0.850000 1.000000 0.000000
0.800000 1.000000 0.000000
0.750000 1.000000 0.000000
0.700000 1.000000 0.000000
0.650000 1.000000 0.000000
0.600000 1.000000 0.000000
0.550000 1.000000 0.000000
0.500000 1.000000 0.000000
0.450000 1.000000 0.000000
0.400000 1.000000 0.000000
0.350000 1.000000 0.000000
0.300000 1.000000 0.000000
0.250000 1.000000 0.000000
0.200000 1.000000 0.000000
0.150000 1.000000 0.000000
0.100000 1.000000 0.000000
0.050000 1.000000 0.000000
0.000000 0.951455 0.000000
0.000000 0.905562 0.000000
0.000000 0.862175 0.000000
0.000000 0.821157 0.000000
0.000000 0.782380 0.000000
0.000000 0.745720 0.000000
0.000000 0.711062 0.000000
0.000000 0.678297 0.000000
0.000000 0.647322 0.000000
0.000000 0.618038 0.000000
0.000000 0.590353 0.000000
0.000000 0.564180 0.000000
0.000000 0.539437 0.000000
0.000000 0.516045 0.000000
0.000000 0.493930 0.000000
0.000000 0.473024 0.000000
0.000000 0.453259 0.000000
0.000000 0.434573 0.000000
0.000000 0.416908 0.000000
0.000000 0.400207 0.000000
0.000000 0.384419 0.000000
0.000000 0.369493 0.000000
0.000000 0.355382 0.000000
0.000000 0.342042 0.000000
0.000000 0.329430 0.000000
0.000000 0.317507 0.000000
0.000000 0.306235 0.000000
0.000000 0.295579 0.000000
0.000000 0.285505 0.000000
0.000000 0.275981 0.000000
0.000000 0.266977 0.000000
0.000000 0.258464 0.000000
0.000000 0.250417 0.000000
0.000000 0.242809 0.000000
0.000000 0.235617 0.000000
0.000000 0.228817 0.000000
0.000000 0.222389 0.000000
0.000000 0.216312 0.000000
0.000000 0.210566 0.000000
0.000000 0.205135 0.000000
0.000000 0.194826 0.000000
0.000000 0.188446 0.000000
0.000000 0.180582 0.000000
0.000000 0.170886 0.000000
0.000000 0.158933 0.000000
0.000000 0.144196 0.000000
0.000000 0.126028 0.000000
0.000000 0.103629 0.000000
0.000000 0.076015 0.000000
0.000000 0.041971 0.000000
0.303738 0.333271 0.000000
0.307477 0.336542 0.000000
0.311215 0.339813 0.000000
0.314953 0.343084 0.000000
0.318692 0.346355 0.000000
0.322430 0.349626 0.000000
0.326168 0.352897 0.000000
0.329907 0.356168 0.000000
0.333645 0.359439 0.000000
0.337383 0.362710 0.000000
0.341121 0.365981 0.000000
0.344860 0.369252 0.000000
0.348598 0.372523 0.000000
0.352336 0.375794 0.000000
0.356075 0.379065 0.000000
0.359813 0.382336 0.000000
0.363551 0.385607 0.000000
0.367290 0.388879 0.000000
0.371028 0.392150 0.000000
0.374766 0.395421 0.000000
0.378505 0.398692 0.000000
0.382243 0.401963 0.000000
0.385981 0.405234 0.000000
0.389720 0.408505 0.000000
0.393458 0.411776 0.000000
0.397196 0.415047 0.000000
0.400935 0.418318 0.000000
0.404673 0.421589 0.000000
0.408411 0.424860 0.000000
0.412150 0.428131 0.000000
0.415888 0.431402 0.000000
0.419626 0.434673 0.000000
0.423364 0.437944 0.000000
0.427103 0.441215 0.000000
0.430841 0.444486 0.000000
0.434579 0.447757 0.000000
0.438318 0.451028 0.000000
0.442056 0.454299 0.000000
0.445794 0.457570 0.000000
0.449533 0.460841 0.000000
0.453271 0.464112 0.000000
0.457009 0.467383 0.000000
0.460748 0.470654 0.000000
0.464486 0.473925 0.000000
0.468224 0.477196 0.000000
0.471963 0.480467 0.000000
0.475701 0.483738 0.000000
0.479439 0.487009 0.000000
0.483178 0.490280 0.000000
0.486916 0.493551 0.000000
0.490654 0.496822 0.000000
0.494393 0.500093 0.000000
0.498131 0.503364 0.000000
0.501869 0.506636 0.000000
0.505607 0.509907 0.000000
0.509346 0.513178 0.000000
0.513084 0.516449 0.000000
0.516822 0.519720 0.000000
0.520561 0.522991 0.000000
0.524299 0.526262 0.000000
0.528037 0.529533 0.000000
0.531776 0.532804 0.000000
0.535514 0.536075 0.000000
0.539252 0.539346 0.000000
0.542991 0.542617 0.000000
0.546729 0.545888 0.000000
0.550467 0.549159 0.000000
0.554206 0.552430 0.000000
0.557944 0.555701 0.000000
0.561682 0.558972 0.000000
0.565421 0.562243 0.000000
0.569159 0.565514 0.000000
0.572897 0.568785 0.000000
0.576636 0.572056 0.000000
0.580374 0.575327 0.000000
0.584112 0.578598 0.000000
0.587850 0.581869 0.000000
0.591589 0.585140 0.000000
0.595327 0.588411 0.000000
0.599065 0.591682 0.000000
0.602804 0.594953 0.000000
0.606542 0.598224 0.000000
0.610280 0.601495 0.000000
0.614019 0.604766 0.000000
0.617757 0.608037 0.000000
0.621495 0.611308 0.000000
0.625234 0.614579 0.000000
0.628972 0.617850 0.000000
0.632710 0.621121 0.000000
0.636449 0.624393 0.000000
0.640187 0.627664 0.000000
0.643925 0.630935 0.000000
0.647664 0.634206 0.000000
0.651402 0.637477 0.000000
0.655140 0.640748 0.000000
0.658879 0.644019 0.000000
0.662617 0.647290 0.000000
0.666355 0.650561 0.000000
0.670093 0.653832 0.000000
0.673832 0.657103 0.000000
0.677570 0.660374 0.000000
0.681308 0.663645 0.000000
0.685047 0.666916 0.000000
0.688785 0.670187 0.000000
0.692523 0.673458 0.000000
0.696262 0.676729 0.000000
0.004545 0.201970 0.000000
0.009091 0.203939 0.000000
0.013636 0.205909 0.000000
0.018182 0.207879 0.000000
0.022727 0.209848 0.000000
0.027273 0.211818 0.000000
0.031818 0.213788 0.000000
0.036364 0.215758 0.000000
0.040909 0.217727 0.000000
0.045455 0.219697 0.000000
0.050000 0.221667 0.000000
0.054545 0.223636 0.000000
0.059091 0.225606 0.000000
0.063636 0.227576 0.000000
0.068182 0.229545 0.000000
0.072727 0.231515 0.000000
0.077273 0.233485 0.000000
0.081818 0.235455 0.000000
0.086364 0.237424 0.000000
0.090909 0.239394 0.000000
0.095455 0.241364 0.000000
0.100000 0.243333 0.000000
0.104545 0.245303 0.000000
0.109091 0.247273 0.000000
0.113636 0.249242 0.000000
0.118182 0.251212 0.000000
0.122727 0.253182 0.000000
0.127273 0.255152 0.000000
0.131818 0.257121 0.000000
0.136364 0.259091 0.000000
0.140909 0.261061 0.000000
0.145455 0.263030 0.000000
0.150000 0.265000 0.000000
0.154545 0.266970 0.000000
0.159091 0.268939 0.000000
0.163636 0.270909 0.000000
0.168182 0.272879 0.000000
0.172727 0.274848 0.000000
0.177273 0.276818 0.000000
0.181818 0.278788 0.000000
0.186364 0.280758 0.000000
0.190909 0.282727 0.000000
0.195455 0.284697 0.000000
0.200000 0.286667 0.000000
0.204545 0.288636 0.000000
0.209091 0.290606 0.000000
0.213636 0.292576 0.000000
0.218182 0.294545 0.000000
0.222727 0.296515 0.000000
0.227273 0.298485 0.000000
0.231818 0.300455 0.000000
0.236364 0.302424 0.000000
0.240909 0.304394 0.000000
0.245455 0.306364 0.000000
0.250000 0.308333 0.000000
0.254545 0.310303 0.000000
0.259091 0.312273 0.000000
0.263636 0.314242 0.000000
0.268182 0.316212 0.000000
0.272727 0.318182 0.000000
0.277273 0.320152 0.000000
0.281818 0.322121 0.000000
0.286364 0.324091 0.000000
0.290909 0.326061 0.000000
0.295455 0.328030 0.000000
0.704615 0.681846 0.000000
0.709231 0.683692 0.000000
0.713846 0.685538 0.000000
0.718462 0.687385 0.000000
0.723077 0.689231 0.000000
0.727692 0.691077 0.000000
0.732308 0.692923 0.000000
0.736923 0.694769 0.000000
0.741538 0.696615 0.000000
0.746154 0.698462 0.000000
0.750769 0.700308 0.000000
0.755385 0.702154 0.000000
0.760000 0.704000 0.000000
0.764615 0.705846 0.000000
0.769231 0.707692 0.000000
0.773846 0.709538 0.000000
0.778462 0.711385 0.000000
0.783077 0.713231 0.000000
0.787692 0.715077 0.000000
0.792308 0.716923 0.000000
0.796923 0.718769 0.000000
0.801538 0.720615 0.000000
0.806154 0.722462 0.000000
0.810769 0.724308 0.000000
0.815385 0.726154 0.000000
0.820000 0.728000 0.000000
0.824615 0.729846 0.000000
0.829231 0.731692 0.000000
0.833846 0.733538 0.000000
0.838462 0.735385 0.000000
0.843077 0.737231 0.000000
0.847692 0.739077 0.000000
0.852308 0.740923 0.000000
0.856923 0.742769 0.000000
0.861538 0.744615 0.000000
0.866154 0.746462 0.000000
0.870769 0.748308 0.000000
0.875385 0.750154 0.000000
0.880000 0.752000 0.000000
0.884615 0.753846 0.000000
0.889231 0.755692 0.000000
0.893846 0.757538 0.000000
0.898462 0.759385 0.000000
0.903077 0.761231 0.000000
0.907692 0.763077 0.000000
0.912308 0.764923 0.000000
0.916923 0.766769 0.000000
0.921538 0.768615 0.000000
0.926154 0.770462 0.000000
0.930769 0.772308 0.000000
[...]
POINT_DATA 6352
SCALARS UX float 1
LOOKUP_TABLE default
-0.000000
0.000000
0.004087
0.003452
-0.004946
-0.003666
-0.002443
0.001989
-0.000000
-0.000000
-0.000000
-0.000000
-0.000000
-0.000000
-0.000000
-0.000000
-0.000000
-0.000000
-0.000000
0.000000
0.000000
0.000000
0.000000
0.000000
0.000000
0.000000
-0.000000
0.001356
0.002128
0.002699
0.003139
0.003493
0.003798
0.004059
0.004285
0.004485
0.004656
0.004803
0.004925
0.005027
0.005106
0.005164
0.005202
0.005220
0.005221
0.005206
0.005179
0.005139
0.005091
0.005035
0.004975
0.004910
0.004845
0.004778
0.004713
0.004647
0.004585
0.004526
0.004469
0.004414
0.004363
0.004316
0.004271
0.004228
0.004189
0.004152
0.004118
0.004055
0.004017
0.003973
0.003918
0.003855
0.003785
0.003706
0.003623
0.003544
0.003481
0.002954
0.002477
0.002022
0.001582
0.001179
0.000802
0.000452
0.000111
-0.000239
-0.000608
-0.000998
-0.001406
-0.001835
-0.002271
-0.002713
-0.003160
-0.003605
-0.004049
-0.004495
-0.004965
-0.005004
-0.005068
-0.005148
-0.005241
-0.005338
-0.005436
-0.005531
-0.005620
-0.005699
-0.005766
-0.005816
-0.005851
-0.005866
-0.005863
-0.005848
-0.005809
-0.005756
-0.005690
-0.005609
-0.005519
-0.005423
-0.005318
-0.005210
-0.005101
-0.004990
-0.004880
-0.004772
-0.004665
-0.004561
-0.004462
-0.004365
-0.004273
-0.004184
-0.004099
-0.004018
-0.003940
-0.003867
-0.003796
-0.003730
-0.003602
-0.003522
-0.003422
-0.003297
-0.003142
-0.002944
-0.002695
-0.002377
-0.001927
-0.001282
-0.002360
-0.002292
-0.002301
-0.002237
-0.002236
-0.002211
-0.002199
-0.002132
-0.002097
-0.002126
-0.002089
-0.002086
-0.002072
-0.002016
-0.001985
-0.001956
-0.001899
-0.001895
-0.001855
-0.001767
-0.001808
-0.001748
-0.001665
-0.001630
-0.001587
-0.001534
-0.001432
-0.001385
-0.001288
-0.001336
-0.001259
-0.001241
-0.001172
-0.001118
-0.001115
-0.001042
-0.001014
-0.001038
-0.000983
-0.000943
-0.000854
-0.000829
-0.000786
-0.000732
-0.000606
-0.000559
-0.000591
-0.000555
-0.000510
-0.000492
-0.000457
-0.000439
-0.000416
-0.000368
-0.000307
-0.000300
-0.000265
-0.000220
-0.000122
-0.000142
-0.000112
-0.000045
0.000020
0.000037
0.000106
0.000195
0.000226
0.000325
0.000379
0.000343
0.000420
0.000470
0.000474
0.000471
0.000507
0.000542
0.000579
0.000636
0.000670
0.000704
0.000700
0.000710
0.000743
0.000764
0.000736
0.000758
0.000824
0.000870
0.000933
0.000943
0.000986
0.001008
0.001062
0.001091
0.001134
0.001154
0.001232
0.001226
0.001352
0.001406
0.001517
0.001565
0.001673
0.001751
0.001816
0.001909
-0.003651
-0.003635
-0.003620
-0.003604
-0.003589
-0.003573
-0.003557
-0.003542
-0.003526
-0.003510
-0.003494
-0.003478
-0.003462
-0.003446
-0.003430
-0.003413
-0.003397
-0.003381
-0.003364
-0.003348
-0.003331
-0.003315
-0.003298
-0.003281
-0.003264
-0.003248
-0.003231
-0.003214
-0.003197
-0.003180
-0.003163
-0.003146
-0.003129
-0.003112
-0.003095
-0.003078
-0.003062
-0.003045
-0.003028
-0.003011
-0.002995
-0.002979
-0.002963
-0.002947
-0.002931
-0.002916
-0.002901
-0.002887
-0.002873
-0.002860
-0.002849
-0.002837
-0.002826
-0.002818
-0.002810
-0.002803
-0.002795
-0.002785
-0.002776
-0.002772
-0.002764
-0.002755
-0.002744
-0.002705
-0.002627
0.002199
0.002311
0.002372
0.002415
0.002442
0.002462
0.002482
0.002504
0.002523
0.002543
0.002565
0.002583
0.002602
0.002624
0.002646
0.002669
0.002694
0.002719
0.002745
0.002772
0.002798
0.002825
0.002852
0.002880
0.002909
0.002937
0.002965
0.002993
0.003022
0.003051
0.003080
0.003109
0.003138
0.003167
0.003197
0.003226
0.003255
0.003284
0.003313
0.003343
0.003372
0.003401
0.003430
0.003459
0.003489
0.003518
0.003547
0.003576
0.003605
0.003634
0.003664
0.003693
0.003722
0.003752
0.003781
0.003811
0.003841
0.003870
0.003901
0.003931
0.003961
0.003992
0.004023
0.004054
0.002773
0.002737
0.002825
0.002693
0.000145
0.000083
0.000186
0.000062
-0.002535
-0.002547
-0.002385
-0.002465
-0.002277
-0.002512
-0.004573
-0.004467
-0.004495
-0.004409
-0.002506
-0.000837
-0.000728
-0.000723
-0.000607
0.001200
0.001187
0.001369
0.000983
-0.001080
-0.001143
-0.001029
0.000253
0.000388
0.000228
0.000409
0.003884
0.003760
0.003966
0.003753
-0.000503
-0.000727
-0.000471
-0.000777
-0.004210
-0.004196
-0.004314
-0.003452
-0.003454
-0.003374
-0.003619
-0.003612
-0.003688
0.003059
0.003332
0.003160
0.003278
0.000751
0.000743
0.000861
-0.000494
-0.000610
0.000013
0.004027
0.004140
0.004147
-0.000787
-0.000968
-0.000968
-0.003093
-0.002858
-0.002717
0.003271
0.003303
0.003236
-0.000828
-0.003559
-0.003562
-0.003459
-0.000484
-0.000510
-0.000602
-0.000391
0.002552
0.002514
0.002506
0.000359
0.000243
-0.000058
0.002539
0.003133
0.003187
0.003133
0.001545
0.001399
0.001592
0.003178
0.003196
0.003104
0.002297
0.002256
0.002324
0.001172
0.001018
0.001150
0.002236
-0.000057
0.000067
0.000119
0.001445
-0.003482
-0.003520
-0.003524
-0.000018
0.002921
0.002860
0.002916
-0.001516
-0.001562
-0.001380
0.003555
0.003498
0.003507
0.003450
0.003496
0.003442
-0.001992
-0.002287
-0.001962
-0.002213
-0.000827
-0.000724
-0.000713
0.002882
0.003214
-0.000591
-0.005061
-0.004923
-0.004945
-0.003719
-0.003787
-0.003694
0.001360
0.001691
0.001778
-0.004820
0.003263
0.003226
0.003250
0.003213
0.000680
0.000784
0.000881
0.001948
-0.002722
-0.002774
-0.002730
0.000924
0.000873
0.000909
0.000839
0.003625
0.003580
0.003547
0.001053
0.002983
0.002854
0.002928
-0.004843
-0.004766
-0.004685
0.003528
0.003551
0.003507
0.003493
-0.003687
-0.003628
-0.003725
-0.003667
-0.000287
-0.000205
-0.000193
0.003504
-0.003006
-0.003168
-0.002686
-0.000283
-0.002696
-0.002574
-0.002882
-0.002327
0.003859
0.004029
-0.002915
0.003824
-0.003565
-0.003571
-0.003546
-0.003586
-0.001273
-0.001288
-0.001420
0.001199
-0.002783
-0.002263
-0.003132
-0.003102
-0.003140
-0.003098
0.002721
0.002718
0.002684
0.002687
-0.003567
-0.003518
-0.001130
-0.003343
-0.003310
-0.003340
-0.003298
0.000497
0.000477
0.000554
0.003674
0.003693
0.003606
0.000427
0.003758
-0.002152
-0.001981
-0.001833
0.003505
0.003484
0.003416
-0.001773
-0.001457
-0.001470
-0.001558
0.003568
-0.001548
-0.003299
-0.003343
-0.003254
-0.001448
-0.001368
-0.001373
-0.003278
0.002847
0.002847
0.002763
0.002239
0.002204
0.002255
-0.001417
-0.001491
-0.001291
-0.001870
-0.001747
-0.001786
0.002948
0.002982
0.002967
0.002977
0.001017
0.000904
0.000940
0.002205
0.002786
0.001978
0.001985
0.001921
0.002879
0.002988
0.002913
0.003031
0.003492
0.003507
0.003469
0.003483
0.004683
0.004597
0.004546
-0.002492
-0.002439
-0.002348
-0.002626
0.004440
0.001809
0.001905
0.001820
-0.002084
-0.002014
-0.002046
0.003013
0.002966
0.003014
0.004593
0.004774
0.002967
-0.005357
-0.005521
-0.005370
0.004059
0.003994
0.003995
0.003928
-0.001106
-0.000876
0.003059
0.003080
0.003051
-0.001644
-0.001591
-0.001737
-0.001630
0.003385
-0.002027
0.003276
0.003324
-0.002139
-0.002220
-0.002196
-0.003408
-0.003330
-0.003437
-0.003313
-0.003722
-0.003821
-0.003803
-0.003903
-0.003625
-0.003625
-0.003535
-0.003628
-0.003567
-0.003592
-0.004012
-0.003927
-0.004040
-0.003542
0.000727
0.000656
0.000651
0.002053
0.002032
-0.004085
-0.004062
-0.004029
-0.004134
-0.003656
-0.003683
-0.003672
-0.003711
-0.003019
-0.003071
-0.003065
-0.003111
-0.004530
-0.004534
-0.004628
-0.003532
-0.004466
0.002249
0.002177
0.002457
-0.001291
-0.001436
-0.000978
-0.001561
0.003740
0.003784
0.003725
0.003817
-0.003835
-0.003952
0.002826
0.002856
0.002707
-0.003067
-0.003073
0.002754
0.003600
0.003672
0.003677
0.003750
0.003527
0.003521
0.003449
-0.003097
0.001212
0.001089
0.001162
0.000989
0.003401
0.003309
0.003421
-0.003525
-0.003395
-0.003465
-0.003304
0.003969
0.003995
0.004051
0.003908
-0.005489
-0.005407
-0.005296
-0.005183
-0.003433
-0.003531
0.002229
0.002307
0.002132
0.002136
-0.002940
-0.002747
-0.002640
-0.002510
0.003375
0.003467
0.003518
0.003581
0.003454
0.001447
0.001593
0.001325
0.003851
0.003894
0.003962
-0.000215
-0.000352
0.000092
0.003199
0.003091
0.003212
0.003077
0.003801
0.003725
0.003693
-0.000285
-0.000196
-0.003552
-0.003563
-0.003502
0.000475
0.000465
0.000610
0.002913
0.002910
-0.003623
-0.003567
-0.003510
-0.003474
-0.003371
-0.003399
-0.003343
0.003923
0.001160
0.000972
0.001153
0.004099
-0.002834
-0.002894
-0.002870
0.001721
0.001689
0.001494
-0.003403
0.000375
0.000132
0.001515
-0.002939
-0.003390
-0.003489
-0.003505
-0.000323
-0.000374
-0.000573
0.003158
0.003190
0.003109
-0.001889
-0.001776
-0.003213
-0.003162
0.000781
0.000897
0.000646
-0.003223
0.000573
0.000721
0.000744
0.000890
-0.003724
-0.003694
-0.003667
-0.003750
-0.003016
-0.003119
-0.003112
-0.003239
-0.002526
-0.002589
-0.002682
0.003047
0.003130
0.003137
-0.000127
-0.000246
-0.000115
-0.004038
-0.004114
-0.002356
0.003104
-0.003145
-0.003133
-0.003239
-0.003031
-0.005682
-0.005576
-0.005490
-0.005453
0.000322
0.000453
0.000301
-0.002474
-0.002329
-0.002471
-0.002309
-0.004141
-0.003920
-0.003905
0.002770
0.002859
0.002830
-0.002609
-0.002497
-0.003571
-0.003564
-0.003617
0.002129
0.002294
0.002306
-0.003592
-0.002600
-0.002756
-0.002733
0.003345
0.003417
0.003418
0.001489
0.001290
0.002063
-0.002644
-0.002691
-0.002645
-0.003325
-0.003436
-0.003387
-0.003321
-0.003388
-0.003301
-0.003400
-0.003427
-0.003318
0.000267
0.000419
0.000347
0.000271
0.000393
0.000391
-0.002819
-0.003354
-0.003804
-0.003768
-0.003786
-0.000102
-0.000111
-0.000230
0.000026
-0.000164
-0.000024
-0.000126
0.000065
-0.003747
-0.003726
-0.003683
-0.003679
0.000935
0.001195
0.000727
0.003404
0.003359
0.003473
0.003324
-0.003521
-0.003554
-0.003523
-0.002959
-0.002806
-0.002943
-0.003549
-0.003093
-0.003198
-0.003180
0.003760
0.003518
0.003712
0.003491
-0.003638
-0.003634
-0.003680
0.003528
0.003554
0.003605
0.002969
0.003005
0.002984
0.002988
-0.004604
-0.004516
-0.004439
-0.003365
-0.003375
-0.003447
-0.003448
0.003449
0.003438
0.003497
-0.000989
-0.000983
-0.001070
0.002559
0.002546
0.002637
0.002623
0.002620
0.002541
0.002569
-0.000385
-0.000263
-0.000270
0.000298
0.000427
0.000388
-0.000390
-0.003771
-0.003831
-0.003745
0.000495
0.000384
0.000491
-0.000976
-0.000915
-0.003894
-0.003886
-0.003841
0.003900
0.003958
0.003896
-0.003821
-0.000904
0.002804
0.002635
0.002712
-0.003221
-0.003272
-0.003335
-0.002580
-0.002646
-0.003176
-0.003177
-0.003253
0.003226
0.003309
0.003305
-0.003572
-0.003550
-0.003666
-0.003655
-0.003587
-0.003581
-0.003547
-0.003598
-0.000901
-0.001010
-0.001019
-0.000922
0.003065
0.003068
0.003153
0.002987
0.003148
0.003237
0.003574
0.003645
0.003659
0.004558
0.004665
0.004623
0.003749
0.003133
0.003132
0.003199
0.003212
0.003185
-0.002774
-0.002759
0.002725
-0.000522
-0.000491
-0.000591
-0.000636
-0.003070
-0.003206
-0.003184
-0.002582
0.003276
0.003287
0.003229
0.003235
-0.003765
-0.003770
-0.003638
0.000027
0.000115
0.000130
0.001860
0.001919
0.002045
0.001553
-0.003009
-0.002733
-0.002943
0.003727
0.003636
0.003650
0.002469
0.002483
0.002320
-0.002417
-0.003386
-0.003203
-0.003273
0.003496
0.003606
0.003584
-0.003303
-0.000587
-0.003358
-0.003431
-0.003315
-0.003455
0.000185
0.000020
0.003517
0.003617
-0.004784
-0.004711
-0.000064
0.000054
0.000041
0.000180
-0.000753
-0.000869
-0.000881
0.000124
0.000257
0.000275
0.002729
0.002879
0.002820
0.000113
-0.002550
-0.002660
-0.002512
0.003897
0.003954
0.003992
0.000863
0.000987
0.001000
-0.002483
-0.002228
-0.002233
-0.003613
-0.003591
-0.003555
0.002754
0.002736
0.002848
0.003549
0.003622
0.003633
0.003719
0.002641
-0.003629
-0.003664
-0.003688
-0.001428
-0.001543
-0.001464
0.003227
0.003287
0.003238
0.003326
0.003162
0.003174
0.003078
-0.002899
-0.003040
-0.003011
0.002087
-0.004704
-0.004560
-0.004676
-0.003658
-0.002727
-0.002718
-0.002611
-0.003377
-0.003295
-0.003426
-0.002595
0.003276
0.003398
-0.001476
-0.001748
-0.001703
-0.001909
-0.002024
-0.002122
-0.002918
-0.003023
-0.003034
-0.003105
-0.002223
0.002163
0.002209
0.002244
-0.004232
-0.004312
-0.004276
-0.003227
-0.003235
-0.003129
-0.003547
-0.003576
-0.003577
-0.003607
0.003351
0.004053
0.003906
0.004052
0.003958
-0.003169
-0.003195
-0.003251
0.004020
-0.003341
-0.003294
-0.000473
-0.000364
0.002869
0.002888
0.002845
0.003075
0.003081
0.003143
0.002858
0.003215
0.003201
-0.003747
-0.003845
-0.003830
-0.003922
-0.002477
-0.002442
-0.002500
0.001201
0.001093
0.000980
0.002246
0.002189
0.002390
-0.001241
-0.001094
-0.001132
-0.001213
0.002246
0.003410
0.003414
0.003375
0.000691
0.000640
0.000756
-0.001242
-0.001203
-0.001481
-0.003752
-0.003819
-0.003725
-0.002578
-0.003793
0.003382
-0.000797
-0.000785
-0.000671
0.000726
0.000838
0.000823
-0.002121
-0.002021
-0.001885
-0.001798
-0.003698
-0.003765
0.002868
0.002987
0.002948
0.002604
0.002543
0.002773
0.002796
-0.003763
-0.003863
-0.003852
-0.003975
0.002952
0.003017
0.003033
0.002975
-0.003485
-0.003164
-0.003309
0.002998
0.003016
0.003071
-0.003457
0.003172
0.003117
0.003128
0.003247
-0.003089
-0.003117
-0.003077
-0.003083
-0.003101
-0.003183
-0.003286
-0.003242
-0.003409
-0.003449
-0.003520
-0.003359
0.002045
0.002091
0.002040
0.003382
0.003391
0.003458
-0.002830
-0.002856
-0.002781
0.003335
-0.002735
-0.002706
-0.002779
-0.003382
-0.003470
-0.003401
0.003867
0.003836
-0.003607
-0.003665
-0.003523
-0.003584
0.000773
0.000689
0.000645
-0.003533
0.002006
0.002051
0.002087
0.001331
0.001115
0.001171
0.000677
0.000671
0.000773
-0.004098
-0.004009
-0.003988
0.000914
0.003790
0.003863
0.003778
0.000614
0.000569
0.000426
-0.000718
-0.000815
-0.000846
-0.000711
0.000266
0.000149
-0.002760
-0.002748
-0.002696
-0.000327
-0.000272
-0.000208
0.002741
0.002812
-0.001091
-0.001191
-0.001298
-0.000168
-0.002674
0.000073
0.000158
-0.003112
-0.003210
-0.003167
-0.003246
-0.003942
-0.004162
-0.004195
-0.003902
-0.002722
-0.002826
-0.002727
0.001050
0.001003
0.001154
-0.002805
-0.002716
-0.003459
-0.003515
-0.002586
0.002641
0.002618
0.002591
0.002672
0.001790
0.001660
0.001657
0.001779
0.001524
0.001691
0.001539
-0.003769
-0.003882
-0.003850
0.003953
0.003934
0.002764
0.002812
0.002868
0.002918
-0.003767
-0.003684
-0.003611
-0.003625
-0.003615
-0.003550
-0.003549
-0.003224
-0.003175
-0.003217
-0.003162
-0.002815
-0.002639
-0.002934
-0.002937
-0.003076
0.002388
0.002335
0.002442
0.002394
-0.004317
-0.004112
-0.004246
0.002388
0.002307
0.003882
0.002319
-0.004420
-0.004526
-0.004480
0.003901
0.002689
0.002356
0.002479
-0.004595
0.002407
-0.003970
-0.003446
-0.000766
-0.000692
-0.000629
-0.003476
-0.003129
-0.003167
-0.003175
-0.003210
-0.002800
-0.002764
-0.002900
-0.002787
0.003684
0.003664
0.003727
0.003675
-0.003046
-0.003104
-0.003057
-0.003120
0.002868
0.002891
0.002993
0.002974
-0.002997
-0.003019
-0.003607
-0.003576
0.002706
0.002646
0.002710
0.002661
0.002691
0.002606
-0.003274
-0.003284
-0.001543
-0.001477
-0.001603
-0.001472
0.002686
-0.002716
-0.002808
-0.002879
-0.002525
-0.000221
-0.000139
-0.000139
0.002491
0.002350
-0.000067
-0.002470
-0.002481
-0.002381
-0.002415
-0.000870
-0.000965
-0.000220
-0.000344
0.002203
0.002135
-0.000377
-0.003283
-0.003124
-0.003186
-0.002916
0.002978
0.003078
0.003058
0.003158
0.001668
0.001832
0.002685
0.002683
0.002798
-0.003244
-0.003145
-0.003148
0.003562
0.003551
0.003628
0.001991
0.002007
0.003632
0.002844
0.002613
0.002871
0.000142
0.000156
0.000258
0.002158
-0.002855
-0.002912
0.002198
0.002307
0.002365
0.003065
0.003017
0.003090
-0.004357
-0.004400
0.003007
-0.003874
-0.003936
-0.003860
0.003358
0.003258
0.001768
0.001611
0.001896
-0.003464
-0.003451
-0.003484
-0.003467
-0.003721
-0.003690
-0.001881
-0.001862
-0.002124
-0.003160
-0.003193
-0.003261
-0.003288
-0.002626
-0.002624
0.000914
0.001036
0.000874
0.002902
0.002933
0.002392
0.002473
0.002354
0.002904
0.002929
0.002882
0.002904
-0.000939
-0.000775
-0.000717
-0.002907
-0.003054
-0.002997
-0.003197
-0.002765
-0.002832
-0.002650
0.002611
0.002694
0.002719
0.002630
0.004595
0.004482
0.004539
-0.003181
-0.003216
-0.003208
-0.001658
-0.001831
-0.001709
-0.003201
-0.002746
-0.002618
-0.002696
-0.002687
-0.000781
-0.000673
-0.000662
-0.002867
-0.003055
-0.004347
-0.004259
-0.004310
0.003336
0.003305
0.003401
-0.003030
0.003514
-0.003121
-0.003104
0.002443
0.002548
0.002486
0.002521
0.002555
0.002347
0.002487
0.004385
0.004282
0.004307
0.004215
0.003953
0.004009
0.004010
-0.003708
-0.003716
-0.003748
0.004068
-0.003748
-0.003658
-0.003639
-0.002771
-0.002619
-0.002881
-0.002194
-0.001943
-0.002035
0.003816
0.003814
0.003761
0.003725
-0.002164
0.002400
0.002365
0.002718
0.002305
0.002260
0.002309
0.002253
-0.002197
-0.002240
-0.002149
-0.002282
-0.002681
-0.002613
-0.002580
0.001745
0.001707
0.001628
0.001604
-0.003261
-0.003300
-0.003289
0.004232
-0.003333
0.004140
-0.003229
-0.003166
-0.002263
-0.002148
0.000157
0.000005
-0.001871
-0.001819
-0.001693
0.000881
0.000817
-0.003771
-0.003853
-0.003836
-0.003936
0.000759
0.000877
0.000807
0.001102
0.001102
0.001176
0.002561
0.002603
0.002473
0.002714
-0.001818
-0.002300
-0.000861
-0.001013
-0.000905
-0.001028
0.000501
0.000578
0.000744
0.000702
0.000670
0.000631
0.001940
0.002009
0.002044
0.000703
0.000412
0.000408
0.001920
-0.000606
-0.000714
-0.000581
-0.000687
0.002126
0.002083
0.001771
0.002190
-0.003344
-0.003217
-0.003264
-0.003108
-0.004523
-0.004553
-0.004679
-0.004435
0.000652
0.002999
0.002966
0.002971
0.002938
-0.004441
-0.004377
0.002933
-0.004238
-0.002972
-0.002962
-0.003017
-0.002995
-0.002630
-0.002547
-0.002693
0.002460
-0.000515
-0.000523
-0.000657
-0.002463
-0.002399
0.002600
0.002563
0.002579
-0.002795
-0.002842
0.003474
0.003371
0.003413
0.004407
0.004316
-0.002894
-0.002733
-0.004448
-0.004396
-0.002281
-0.002249
-0.002314
-0.002204
-0.000036
-0.000138
-0.000012
-0.000144
-0.002714
-0.002329
-0.002370
0.000605
-0.002389
-0.003014
-0.002953
-0.002954
-0.000016
-0.000133
-0.001257
-0.001123
-0.001211
-0.001065
0.002592
0.002638
0.002575
0.002651
0.003059
0.003079
0.003104
0.003033
-0.001128
-0.001205
-0.001262
0.001598
0.001549
0.001647
-0.000639
-0.000796
0.001514
-0.002419
-0.002400
-0.004403
-0.004152
-0.002344
-0.002464
-0.004311
-0.002453
0.004827
0.004961
0.004894
0.004278
0.002688
0.002784
0.002850
-0.003366
-0.003226
-0.003325
-0.001592
-0.001602
-0.001662
-0.001654
0.003982
0.003014
0.003053
0.003068
-0.003573
-0.004244
-0.004213
-0.004174
-0.004290
0.003317
0.003353
-0.004322
-0.004377
-0.004315
-0.001411
0.003271
0.003278
0.003330
0.003734
0.003643
0.003699
0.003275
-0.002163
-0.002234
-0.002201
-0.002209
-0.001556
-0.001495
-0.001539
-0.003915
-0.004010
0.004379
0.004299
0.004189
-0.002475
-0.002388
-0.002274
0.004462
0.004531
0.004454
0.000167
0.000048
-0.002166
-0.001462
-0.001681
-0.001585
-0.001412
0.002755
0.002570
0.002821
-0.000475
-0.000685
-0.000980
0.000836
0.000918
0.000870
-0.001735
-0.001641
-0.001623
0.001027
0.000948
0.001065
0.000980
0.000672
0.000790
-0.001580
-0.001588
-0.001421
-0.001433
-0.004738
-0.004885
-0.004650
-0.005022
-0.003144
-0.003232
-0.003158
-0.004643
-0.002976
0.002007
0.001967
0.002039
0.001959
0.002952
0.004553
0.004438
0.002918
0.003888
0.003938
0.000895
0.001000
0.002942
-0.001355
0.002887
0.002472
0.002444
0.002490
0.003835
0.003838
0.003386
0.003285
0.003717
0.003640
0.004032
0.004119
0.002474
0.003733
0.002523
0.002486
0.001482
0.001444
0.001518
-0.005002
-0.004995
-0.005088
-0.004903
0.001403
0.002967
0.002914
0.002788
0.002893
0.002980
-0.002836
-0.002889
-0.004364
-0.004251
-0.002781
-0.003802
-0.003336
0.002826
0.002836
0.002856
0.002802
0.002881
0.004202
0.004286
0.000805
0.000820
0.002861
0.002784
0.002851
0.002766
0.002825
-0.003290
-0.003109
-0.001472
-0.001482
-0.003240
-0.003216
-0.003520
-0.003877
-0.001702
-0.001576
-0.003841
-0.003809
-0.003896
-0.003785
0.000389
0.000444
-0.003200
-0.003110
-0.003121
-0.003326
-0.003299
-0.000815
-0.001528
-0.003269
-0.003265
-0.003342
-0.003364
0.003003
0.003077
-0.003369
0.002794
0.002796
0.002829
0.002726
-0.002414
0.003954
-0.003673
-0.003735
-0.002444
-0.002396
-0.002280
0.000688
0.000824
0.000831
-0.003594
-0.003609
-0.000019
0.000034
0.000098
0.003439
0.003446
0.003394
0.003414
0.002986
0.003017
0.002974
0.003028
0.002940
0.002844
0.002803
-0.003332
-0.003316
0.002378
0.002382
0.002423
-0.000167
0.000013
-0.000128
-0.000056
0.002341
-0.004316
-0.004443
0.004489
0.004554
-0.003446
-0.003356
-0.004861
-0.004753
-0.004720
0.003178
0.003138