# vtk DataFile Version 2.0
Test
ASCII
DATASET POLYDATA
POINTS 6352 float
0.000000 0.000000 0.000000
1.000000 0.000000 0.000000
1.000000 0.800000 0.000000
1.000000 1.000000 0.000000
0.000000 1.000000 0.000000
0.000000 0.200000 0.000000
0.300000 0.330000 0.000000
0.700000 0.680000 0.000000
0.050000 0.000000 0.000000
0.100000 0.000000 0.000000
0.150000 0.000000 0.000000
0.200000 0.000000 0.000000
0.250000 0.000000 0.000000
0.300000 0.000000 0.000000
0.350000 0.000000 0.000000
0.400000 0.000000 0.000000
0.450000 0.000000 0.000000
0.500000 0.000000 0.000000
0.550000 0.000000 0.000000
0.600000 0.000000 0.000000
0.650000 0.000000 0.000000
0.700000 0.000000 0.000000
0.750000 0.000000 0.000000
0.800000 0.000000 0.000000
0.850000 0.000000 0.000000
0.900000 0.000000 0.000000
0.950000 0.000000 0.000000
1.000000 0.048545 0.000000
1.000000 0.094438 0.000000
1.000000 0.137825 0.000000
1.000000 0.178843 0.000000
1.000000 0.217620 0.000000
1.000000 0.254280 0.000000
1.000000 0.288938 0.000000
1.000000 0.321703 0.000000
1.000000 0.352678 0.000000
1.000000 0.381962 0.000000
1.000000 0.409647 0.000000
1.000000 0.435820 0.000000
1.000000 0.460563 0.000000
1.000000 0.483955 0.000000
1.000000 0.506070 0.000000
1.000000 0.526976 0.000000
1.000000 0.546741 0.000000
1.000000 0.565427 0.000000
1.000000 0.583092 0.000000
1.000000 0.599793 0.000000
1.000000 0.615581 0.000000
1.000000 0.630507 0.000000
1.000000 0.644618 0.000000
1.000000 0.657958 0.000000
1.000000 0.670570 0.000000
1.000000 0.682493 0.000000
1.000000 0.693765 0.000000
1.000000 0.704421 0.000000
1.000000 0.714495 0.000000
1.000000 0.724019 0.000000
1.000000 0.733023 0.000000
1.000000 0.741536 0.000000
1.000000 0.749583 0.000000
1.000000 0.757191 0.000000
1.000000 0.764383 0.000000
1.000000 0.771183 0.000000
1.000000 0.777611 0.000000
1.000000 0.783688 0.000000
1.000000 0.789434 0.000000
1.000000 0.794865 0.000000
1.000000 0.805174 0.000000
1.000000 0.811554 0.000000
1.000000 0.819418 0.000000
1.000000 0.829114 0.000000
1.000000 0.841067 0.000000
1.000000 0.855804 0.000000
1.000000 0.873972 0.000000
1.000000 0.896371 0.000000
1.000000 0.923985 0.000000
1.000000 0.958029 0.000000
0.950000 1.000000 0.000000
0.900000 1.000000 0.000000
0.850000 1.000000 0.000000
0.800000 1.000000 0.000000
0.750000 1.000000 0.000000
0.700000 1.000000 0.000000
0.650000 1.000000 0.000000
0.600000 1.000000 0.000000
0.550000 1.000000 0.000000
0.500000 1.000000 0.000000
0.450000 1.000000 0.000000
0.400000 1.000000 0.000000
0.350000 1.000000 0.000000
0.300000 1.000000 0.000000
0.250000 1.000000 0.000000
0.200000 1.000000 0.000000
0.150000 1.000000 0.000000
0.100000 1.000000 0.000000
0.050000 1.000000 0.000000
0.000000 0.951455 0.000000
0.000000 0.905562 0.000000
0.000000 0.862175 0.000000
0.000000 0.821157 0.000000
0.000000 0.782380 0.000000
0.000000 0.745720 0.000000
0.000000 0.711062 0.000000
0.000000 0.678297 0.000000
0.000000 0.647322 0.000000
0.000000 0.618038 0.000000
0.000000 0.590353 0.000000
0.000000 0.564180 0.000000
0.000000 0.539437 0.000000
0.000000 0.516045 0.000000
0.000000 0.493930 0.000000
0.000000 0.473024 0.000000
0.000000 0.453259 0.000000
0.000000 0.434573 0.000000
0.000000 0.416908 0.000000
0.000000 0.400207 0.000000
0.000000 0.384419 0.000000
0.000000 0.369493 0.000000
0.000000 0.355382 0.000000
0.000000 0.342042 0.000000
0.000000 0.329430 0.000000
0.000000 0.317507 0.000000
0.000000 0.306235 0.000000
0.000000 0.295579 0.000000
0.000000 0.285505 0.000000
0.000000 0.275981 0.000000
0.000000 0.266977 0.000000
0.000000 0.258464 0.000000
0.000000 0.250417 0.000000
0.000000 0.242809 0.000000
0.000000 0.235617 0.000000
0.000000 0.228817 0.000000
0.000000 0.222389 0.000000
0.000000 0.216312 0.000000
0.000000 0.210566 0.000000
0.000000 0.205135 0.000000
0.000000 0.194826 0.000000
0.000000 0.188446 0.000000
0.000000 0.180582 0.000000
0.000000 0.170886 0.000000
0.000000 0.158933 0.000000
0.000000 0.144196 0.000000
0.000000 0.126028 0.000000
0.000000 0.103629 0.000000
0.000000 0.076015 0.000000
0.000000 0.041971 0.000000
0.303738 0.333271 0.000000
0.307477 0.336542 0.000000
0.311215 0.339813 0.000000
0.314953 0.343084 0.000000
0.318692 0.346355 0.000000
0.322430 0.349626 0.000000
0.326168 0.352897 0.000000
0.329907 0.356168 0.000000
0.333645 0.359439 0.000000
0.337383 0.362710 0.000000
0.341121 0.365981 0.000000
0.344860 0.369252 0.000000
0.348598 0.372523 0.000000
0.352336 0.375794 0.000000
0.356075 0.379065 0.000000
0.359813 0.382336 0.000000
0.363551 0.385607 0.000000
0.367290 0.388879 0.000000
0.371028 0.392150 0.000000
0.374766 0.395421 0.000000
0.378505 0.398692 0.000000
0.382243 0.401963 0.000000
0.385981 0.405234 0.000000
0.389720 0.408505 0.000000
0.393458 0.411776 0.000000
0.397196 0.415047 0.000000
0.400935 0.418318 0.000000
0.404673 0.421589 0.000000
0.408411 0.424860 0.000000
0.412150 0.428131 0.000000
0.415888 0.431402 0.000000
0.419626 0.434673 0.000000
0.423364 0.437944 0.000000
0.427103 0.441215 0.000000
0.430841 0.444486 0.000000
0.434579 0.447757 0.000000
0.438318 0.451028 0.000000
0.442056 0.454299 0.000000
0.445794 0.457570 0.000000
0.449533 0.460841 0.000000
0.453271 0.464112 0.000000
0.457009 0.467383 0.000000
0.460748 0.470654 0.000000
0.464486 0.473925 0.000000
0.468224 0.477196 0.000000
0.471963 0.480467 0.000000
0.475701 0.483738 0.000000
0.479439 0.487009 0.000000
0.483178 0.490280 0.000000
0.486916 0.493551 0.000000
0.490654 0.496822 0.000000
0.494393 0.500093 0.000000
0.498131 0.503364 0.000000
0.501869 0.506636 0.000000
0.505607 0.509907 0.000000
0.509346 0.513178 0.000000
0.513084 0.516449 0.000000
0.516822 0.519720 0.000000
0.520561 0.522991 0.000000
0.524299 0.526262 0.000000
0.528037 0.529533 0.000000
0.531776 0.532804 0.000000
0.535514 0.536075 0.000000
0.539252 0.539346 0.000000
0.542991 0.542617 0.000000
0.546729 0.545888 0.000000
0.550467 0.549159 0.000000
0.554206 0.552430 0.000000
0.557944 0.555701 0.000000
0.561682 0.558972 0.000000
0.565421 0.562243 0.000000
0.569159 0.565514 0.000000
0.572897 0.568785 0.000000
0.576636 0.572056 0.000000
0.580374 0.575327 0.000000
0.584112 0.578598 0.000000
0.587850 0.581869 0.000000
0.591589 0.585140 0.000000
0.595327 0.588411 0.000000
0.599065 0.591682 0.000000
0.602804 0.594953 0.000000
0.606542 0.598224 0.000000
0.610280 0.601495 0.000000
0.614019 0.604766 0.000000
0.617757 0.608037 0.000000
0.621495 0.611308 0.000000
0.625234 0.614579 0.000000
0.628972 0.617850 0.000000
0.632710 0.621121 0.000000
0.636449 0.624393 0.000000
0.640187 0.627664 0.000000
0.643925 0.630935 0.000000
0.647664 0.634206 0.000000
0.651402 0.637477 0.000000
0.655140 0.640748 0.000000
0.658879 0.644019 0.000000
0.662617 0.647290 0.000000
0.666355 0.650561 0.000000
0.670093 0.653832 0.000000
0.673832 0.657103 0.000000
0.677570 0.660374 0.000000
0.681308 0.663645 0.000000
0.685047 0.666916 0.000000
0.688785 0.670187 0.000000
0.692523 0.673458 0.000000
0.696262 0.676729 0.000000
0.004545 0.201970 0.000000
0.009091 0.203939 0.000000
0.013636 0.205909 0.000000
0.018182 0.207879 0.000000
0.022727 0.209848 0.000000
0.027273 0.211818 0.000000
0.031818 0.213788 0.000000
0.036364 0.215758 0.000000
0.040909 0.217727 0.000000
0.045455 0.219697 0.000000
0.050000 0.221667 0.000000
0.054545 0.223636 0.000000
0.059091 0.225606 0.000000
0.063636 0.227576 0.000000
0.068182 0.229545 0.000000
0.072727 0.231515 0.000000
0.077273 0.233485 0.000000
0.081818 0.235455 0.000000
0.086364 0.237424 0.000000
0.090909 0.239394 0.000000
0.095455 0.241364 0.000000
0.100000 0.243333 0.000000
0.104545 0.245303 0.000000
0.109091 0.247273 0.000000
0.113636 0.249242 0.000000
0.118182 0.251212 0.000000
0.122727 0.253182 0.000000
0.127273 0.255152 0.000000
0.131818 0.257121 0.000000
0.136364 0.259091 0.000000
0.140909 0.261061 0.000000
0.145455 0.263030 0.000000
0.150000 0.265000 0.000000
0.154545 0.266970 0.000000
0.159091 0.268939 0.000000
0.163636 0.270909 0.000000
0.168182 0.272879 0.000000
0.172727 0.274848 0.000000
0.177273 0.276818 0.000000
0.181818 0.278788 0.000000
0.186364 0.280758 0.000000
0.190909 0.282727 0.000000
0.195455 0.284697 0.000000
0.200000 0.286667 0.000000
0.204545 0.288636 0.000000
0.209091 0.290606 0.000000
0.213636 0.292576 0.000000
0.218182 0.294545 0.000000
0.222727 0.296515 0.000000
0.227273 0.298485 0.000000
0.231818 0.300455 0.000000
0.236364 0.302424 0.000000
0.240909 0.304394 0.000000
0.245455 0.306364 0.000000
0.250000 0.308333 0.000000
0.254545 0.310303 0.000000
0.259091 0.312273 0.000000
0.263636 0.314242 0.000000
0.268182 0.316212 0.000000
0.272727 0.318182 0.000000
0.277273 0.320152 0.000000
0.281818 0.322121 0.000000
0.286364 0.324091 0.000000
0.290909 0.326061 0.000000
0.295455 0.328030 0.000000
0.704615 0.681846 0.000000
0.709231 0.683692 0.000000
0.713846 0.685538 0.000000
0.718462 0.687385 0.000000
0.723077 0.689231 0.000000
0.727692 0.691077 0.000000
0.732308 0.692923 0.000000
0.736923 0.694769 0.000000
0.741538 0.696615 0.000000
0.746154 0.698462 0.000000
0.750769 0.700308 0.000000
0.755385 0.702154 0.000000
0.760000 0.704000 0.000000
0.764615 0.705846 0.000000
0.769231 0.707692 0.000000
0.773846 0.709538 0.000000
0.778462 0.711385 0.000000
0.783077 0.713231 0.000000
0.787692 0.715077 0.000000
0.792308 0.716923 0.000000
0.796923 0.718769 0.000000
0.801538 0.720615 0.000000
0.806154 0.722462 0.000000
0.810769 0.724308 0.000000
0.815385 0.726154 0.000000
0.820000 0.728000 0.000000
0.824615 0.729846 0.000000
0.829231 0.731692 0.000000
0.833846 0.733538 0.000000
0.838462 0.735385 0.000000
0.843077 0.737231 0.000000
0.847692 0.739077 0.000000
0.852308 0.740923 0.000000
0.856923 0.742769 0.000000
0.861538 0.744615 0.000000
0.866154 0.746462 0.000000
0.870769 0.748308 0.000000
0.875385 0.750154 0.000000
0.880000 0.752000 0.000000
0.884615 0.753846 0.000000
0.889231 0.755692 0.000000
0.893846 0.757538 0.000000
0.898462 0.759385 0.000000
0.903077 0.761231 0.000000
0.907692 0.763077 0.000000
0.912308 0.764923 0.000000
0.916923 0.766769 0.000000
0.921538 0.768615 0.000000
0.926154 0.770462 0.000000
0.930769 0.772308 0.000000
[...]
POINT_DATA 6352
SCALARS UX float 1
LOOKUP_TABLE default
-0.000013
0.000015
10.199137
0.798165
-12.060136
-17.113072
-6.313163
0.923478
0.000001
-0.000002
-0.000001
-0.000001
-0.000001
-0.000001
-0.000001
-0.000000
-0.000000
-0.000000
-0.000000
0.000000
0.000000
0.000000
0.000001
0.000001
0.000001
0.000003
-0.000002
2.446674
3.827945
4.860363
5.684199
6.370711
6.996114
7.569479
8.101036
8.598293
9.056686
9.471649
9.839393
10.162100
10.436649
10.666097
10.851075
10.997630
11.109035
11.187276
11.236442
11.255868
11.251498
11.225548
11.189892
11.138222
11.080835
11.018211
10.951865
10.882129
10.815114
10.750162
10.687588
10.627843
10.570955
10.517726
10.465137
10.412781
10.360770
10.308496
10.254145
10.135790
10.049658
9.911867
9.694041
9.344690
8.650261
7.503009
5.546652
3.291251
1.443282
-0.381388
-0.990958
-1.666712
-2.479547
-3.315228
-4.091993
-4.753499
-5.281098
-5.696827
-6.052525
-6.405119
-6.778132
-7.203430
-7.680105
-8.217337
-8.850347
-9.543259
-10.310964
-11.156944
-12.088805
-12.142940
-12.252225
-12.402343
-12.602710
-12.822737
-13.062923
-13.322105
-13.592244
-13.868228
-14.147042
-14.424144
-14.696056
-14.959283
-15.211302
-15.447712
-15.668416
-15.866596
-16.044934
-16.195080
-16.319840
-16.423110
-16.508012
-16.581718
-16.651918
-16.719704
-16.789000
-16.860353
-16.933170
-17.006805
-17.079346
-17.146045
-17.204950
-17.253125
-17.289437
-17.309869
-17.312026
-17.294408
-17.257613
-17.196363
-16.995179
-16.800306
-16.454657
-15.855247
-14.860681
-13.082768
-10.528861
-7.225628
-5.056279
-2.735835
-5.017977
-6.391736
-0.595731
-3.910367
-4.687499
-5.877821
-5.677241
-4.984578
-3.955807
-3.090398
-1.988449
-0.830574
0.381820
-2.666233
-5.604830
-1.748554
-0.893767
-0.508115
-0.313482
-0.844690
-0.701882
-1.322940
1.383671
-2.429442
-0.892888
-0.984344
-2.176010
-2.794609
-3.510697
-5.318681
-3.138761
-4.689061
-4.828118
-4.006719
-2.153579
-1.249268
-1.406259
-1.165709
-0.739468
-1.272326
1.981835
-6.865985
-2.737450
-2.240902
-1.287123
-0.378467
-1.297971
-0.819888
-0.036181
0.102516
-1.824918
-1.173922
-1.515395
-1.938120
-2.003094
-3.249547
-1.654231
-0.674244
-1.528382
0.995954
-2.547638
-1.432056
-0.545868
-0.896528
-0.839895
-0.942279
-0.697568
0.077516
0.594309
-1.863167
0.399743
0.077413
-0.294552
-0.663202
-0.483994
-0.897687
-1.120899
-0.618391
0.101514
0.912790
-0.256101
0.530944
0.417247
-0.186071
0.275964
-0.634357
-0.085735
-0.398308
-0.227966
-0.196184
0.397613
0.556191
0.820177
0.868081
0.802313
0.156969
0.644598
0.240230
0.788600
1.580475
1.540042
2.954805
2.053341
2.306398
2.158608
1.533445
-17.076962
-17.028678
-16.972937
-16.909008
-16.839371
-16.764711
-16.685965
-16.606999
-16.526172
-16.446586
-16.365623
-16.287452
-16.213017
-16.138708
-16.065422
-15.993567
-15.925311
-15.858566
-15.791900
-15.723538
-15.654454
-15.584101
-15.508073
-15.428979
-15.344017
-15.255031
-15.160534
-15.062533
-14.960148
-14.852812
-14.738500
-14.611213
-14.465833
-14.308328
-14.127359
-13.931171
-13.715345
-13.490744
-13.268484
-13.056229
-12.869847
-12.705552
-12.562314
-12.438535
-12.344484
-12.272918
-12.211977
-12.153959
-12.103059
-12.059036
-12.010524
-11.928244
-11.814831
-11.665069
-11.426560
-11.228914
-10.890904
-10.414064
-9.807996
-8.937912
-8.344796
-8.586657
-8.550424
-6.324159
-6.274761
2.110770
2.912502
3.243629
3.343218
3.483200
3.599178
3.807771
3.920181
4.019032
4.188739
4.279531
4.376138
4.487090
4.605894
4.725846
4.830098
4.940529
5.066087
5.194955
5.328943
5.468672
5.612615
5.751468
5.895575
6.045084
6.182932
6.319292
6.454829
6.589119
6.725855
6.858669
6.983936
7.115863
7.245956
7.372322
7.498966
7.624505
7.750308
7.877185
7.996430
8.117335
8.241220
8.358852
8.470737
8.581771
8.683340
8.778461
8.867612
8.951316
9.034350
9.120813
9.219869
9.309559
9.387560
9.465599
9.545088
9.618281
9.691021
9.764267
9.835834
9.907728
9.979989
10.052629
10.125663
5.765507
5.644272
5.877161
5.546897
0.041881
-0.011192
0.138074
-0.003753
-10.137415
-10.526629
-7.641678
-8.352674
-5.233837
-8.834207
-13.136758
-12.991526
-12.850762
-12.733478
-8.465046
-0.802578
-0.675333
-0.718794
-0.584957
-3.494598
-3.529223
-3.135715
-3.945865
-1.927960
-1.973125
-1.705944
-4.903902
-4.800872
-5.049185
-4.840961
8.052221
7.686031
8.146416
7.788164
-0.857392
-1.259395
-0.881464
-1.189078
-14.968040
-14.916948
-14.985084
-16.356035
-16.410049
-16.257583
-14.490131
-14.454600
-14.551622
5.832751
6.452372
6.124776
6.249170
1.230230
1.175715
1.441850
0.203642
-0.268909
1.142205
8.761298
8.908452
9.060337
-5.007504
-5.318890
-5.248651
-8.974755
-3.336407
-4.656778
7.708580
7.836756
7.563192
-5.192856
-14.349389
-14.371615
-14.200179
-1.057341
-1.143194
-1.242504
-0.966985
5.334612
5.268831
5.234767
-2.534975
-2.866185
-3.293965
5.334285
7.089294
7.330091
7.101837
-0.965699
-1.384783
-0.527252
7.322881
7.454702
7.062583
4.659083
4.547935
4.709072
-1.800241
-2.093154
-1.524984
4.517814
-0.381554
-0.195541
-0.125937
-0.984929
-10.936897
-10.964785
-11.072162
-0.306526
6.223951
6.042773
6.204445
-1.988177
-2.140167
-1.725489
8.829711
8.684832
8.725408
8.569469
8.716219
8.567935
-7.335740
-7.668564
-7.270445
-7.556680
-1.045997
-0.832858
-0.968139
6.105637
7.470165
-0.776516
-13.637630
-13.463748
-13.246112
-13.647822
-13.740332
-13.759390
3.695135
4.142497
4.248090
-13.180861
7.551489
7.364630
7.448595
7.340146
-1.806216
-1.588238
-1.384597
4.393113
-8.873523
-9.052449
-8.938198
1.938887
1.860667
1.883163
1.793214
8.293130
8.263752
8.092395
-1.086540
6.743029
6.081599
6.413932
-15.662958
-15.775270
-15.645395
8.737999
8.818498
8.722205
8.716434
-14.290736
-14.169396
-14.236149
-14.097033
-0.607220
-0.536338
-0.442501
8.020764
-9.926269
-11.578620
-7.142731
-0.703519
-7.199511
-10.007968
-10.369747
-9.293750
7.841546
8.159713
-10.412382
7.667214
-11.880504
-11.965158
-11.875766
-11.956725
-1.523140
-1.723499
-1.951062
3.404830
-9.045693
-6.523365
-10.269883
-10.146275
-10.233147
-10.185387
5.715750
5.718052
5.627997
5.651912
-14.022175
-14.058212
-1.293305
-10.891349
-10.783123
-10.776756
-10.669827
1.147064
0.992678
1.234051
8.258700
8.396402
8.132202
0.919983
8.477454
-5.803843
-5.120881
-4.817554
8.454943
8.365408
8.193868
-4.125389
-5.945006
-5.988933
-6.159936
8.599220
-6.155076
-10.060580
-10.264742
-10.007450
-5.915122
-5.758645
-5.755915
-10.183950
5.985381
5.997643
5.759328
4.773027
4.734729
4.775985
-1.812851
-1.914882
-1.464065
-6.836685
-6.576064
-6.664232
6.333184
6.432115
6.393462
6.410866
1.860657
1.629909
1.655968
4.666818
5.833507
3.953373
3.998366
3.830973
6.245022
6.830440
6.431880
7.022506
8.585211
8.659658
8.572768
8.646417
9.743611
9.694222
9.462818
-7.689286
-6.981971
-5.845549
-10.305895
9.319966
4.234092
4.286340
4.542474
-7.425688
-7.232215
-7.284047
6.502903
6.353576
6.502930
9.456558
9.816449
6.365697
-13.857491
-14.240261
-14.136501
9.818348
9.710354
9.669394
9.543642
-5.948687
-5.382207
6.678933
6.748788
6.649075
-6.449287
-6.376985
-6.626542
-6.463414
8.071009
-7.338651
7.735467
7.893523
-7.425486
-7.596513
-7.557967
-13.487844
-13.272331
-13.433220
-13.357547
-14.962877
-14.982611
-15.046362
-15.079678
-14.952614
-14.859083
-14.840572
-12.449356
-12.339609
-12.341371
-14.910378
-14.822780
-14.882600
-12.303030
1.694285
1.700967
1.610747
4.142345
4.124030
-13.483327
-13.680885
-13.491127
-13.690799
-12.043291
-12.060067
-12.170494
-12.230534
-10.155231
-10.228477
-10.257021
-10.327071
-13.575911
-13.301920
-13.610792
-14.346081
-13.376529
-1.295750
-1.426378
-0.903497
-6.016684
-6.278159
-5.756274
-6.310065
8.900564
9.065061
8.954694
9.048049
-14.724294
-14.806962
5.589952
5.716609
5.341014
-10.022460
-10.082895
5.500001
8.683805
8.834952
8.864110
9.002392
8.511861
8.484559
8.293892
-10.080629
2.000387
1.736379
1.864885
1.509673
7.262006
6.981070
7.232747
-12.243783
-11.344812
-11.996467
-10.444335
9.400827
9.426419
9.555854
9.292233
-13.419828
-13.355013
-13.038174
-12.875747
-14.700640
-14.742395
0.317900
0.586376
-0.415818
-0.597213
-8.573809
-8.270017
-8.095973
-7.895154
8.067089
8.331375
8.540226
8.670336
8.339058
-2.830951
-2.500468
-3.030255
8.484005
8.484692
8.748071
0.258039
0.399242
0.719964
6.657361
6.348098
6.620380
6.364160
8.464864
8.174185
8.212665
-0.586970
-0.419968
-11.214428
-11.148508
-11.076803
-3.992969
-3.681748
-3.698156
6.180298
6.147431
-13.808658
-13.830120
-13.646884
-13.709724
-11.106279
-11.247918
-11.136730
7.818217
-3.422008
-3.841893
-3.511498
8.183523
-8.959670
-9.103620
-9.088959
-1.228060
-1.656098
-2.181120
-11.173499
2.885442
0.529623
-2.352756
-9.267552
-11.159310
-11.895331
-11.914475
-0.522067
-0.471006
-0.752847
7.146445
7.298663
6.829680
-6.881009
-6.660629
-9.966575
-9.749543
-4.217902
-3.937629
-4.427850
-9.822618
-4.601060
-4.379053
-4.378870
-4.097419
-13.161233
-13.226980
-13.087256
-13.336338
-12.762641
-13.082609
-13.141452
-13.471170
-9.107488
-9.159490
-9.315282
7.108076
7.490951
7.510327
-0.159658
-0.263024
-0.122843
-13.886686
-13.881931
-8.829671
7.374462
-15.606993
-15.513381
-15.737088
-15.239958
-14.289183
-14.181988
-13.861008
-13.938957
-2.759529
-2.728727
-2.997225
-7.889433
-7.632405
-7.864217
-7.590272
-10.932810
-10.522929
-10.388579
4.982537
5.672746
5.401455
-8.139505
-7.952771
-11.472382
-11.335898
-11.514777
-1.177002
-0.286331
-0.502447
-11.322465
-8.158644
-9.401687
-9.481617
8.018706
8.328335
8.334742
3.993358
3.104402
4.735250
-8.619964
-8.760878
-8.649786
-12.842109
-13.042780
-13.104714
-14.637849
-14.789002
-14.733261
-12.774891
-13.297500
-13.066559
0.151471
0.456999
0.332220
-3.815207
-3.457669
0.375366
-9.569946
-13.227341
-12.027274
-11.945786
-11.885718
-3.358226
-3.511023
-3.594379
-3.271815
-3.311863
-3.066449
-3.228947
-2.997347
-11.438528
-11.487813
-11.313722
-11.425331
-1.221998
-0.649151
-1.723550
8.267527
8.176663
8.509324
7.985265
-11.828975
-11.994651
-11.865748
-14.667462
-13.655171
-14.469162
-11.923200
-13.142038
-13.419293
-13.428839
7.181203
6.622602
6.996075
6.631375
-11.241864
-11.148234
-11.181010
8.725302
8.814128
8.980809
6.404045
6.505758
6.437333
6.461809
-13.831544
-13.802575
-13.546734
-10.199506
-10.125791
-10.371596
-10.261073
8.452480
8.411897
8.624685
-4.945106
-4.949483
-5.116407
5.198199
5.147008
5.384522
5.320133
5.364968
5.167018
5.252791
-0.990226
-0.790209
-0.785527
0.286614
0.564100
0.516819
-0.997447
-16.361605
-16.437369
-16.422267
0.804500
0.560482
0.866236
-4.926016
-4.792619
-12.443197
-12.586354
-12.382442
9.668254
9.794742
9.679446
-12.483340
-4.787296
3.584149
1.811257
2.945564
-15.802227
-15.844948
-16.001610
-8.438466
-8.596921
-14.358492
-14.214428
-14.457199
7.398607
7.855206
7.825394
-10.320917
-10.150007
-10.480918
-10.384021
-12.177241
-12.063415
-11.982912
-12.065443
-4.921515
-5.124597
-5.085166
-5.026965
6.283233
6.426245
6.997687
5.676672
7.024439
7.512946
8.592296
8.751558
8.793180
10.506431
10.662496
10.631996
8.971732
7.129015
7.140275
7.428236
7.826229
7.705059
-12.460867
-12.006770
4.903246
-0.932700
-0.828008
-0.907388
-1.039400
-15.232230
-15.456670
-15.499162
-8.416950
7.399110
7.479470
7.255693
7.292453
-10.486198
-10.589561
-10.260500
0.393160
0.327178
0.540010
4.276017
4.385232
4.477052
3.887083
-10.601351
-9.817527
-10.368991
8.976593
8.753150
8.830995
3.333033
3.289173
2.059712
-9.347751
-11.479567
-10.225918
-9.641979
7.642091
7.910306
7.957020
-11.464086
-0.642918
-11.759716
-12.176733
-12.030540
-11.881807
0.445517
0.181862
7.606765
7.836974
-12.919579
-12.944044
-3.112362
-2.893069
-2.944114
-2.658622
-1.436545
-1.654161
-1.599733
-0.044517
0.228137
0.322330
1.929931
3.436732
2.303183
-0.091925
-9.263134
-10.329712
-8.586349
9.381078
9.455505
9.576453
2.122890
2.152995
2.407008
-8.864707
-8.573615
-8.515630
-12.566387
-12.506464
-12.386883
4.402106
4.438006
5.360517
8.519741
8.696375
8.721180
8.911298
3.409262
-12.593617
-12.693937
-12.716360
-5.924487
-6.159728
-6.026858
7.871232
8.103239
7.920260
8.237978
7.615932
7.646598
7.236547
-13.815645
-14.349550
-14.379463
4.255697
-15.325781
-15.217196
-15.193352
-14.500858
-10.739348
-10.656704
-9.337511
-14.037661
-13.836450
-14.100827
-9.109478
6.970083
7.329948
-5.293843
-5.467609
-8.165383
-3.188660
-3.691973
-4.133358
-10.103398
-10.237698
-10.326848
-10.387464
-4.814153
4.289269
4.382071
4.486378
-12.396379
-12.563075
-12.620003
-13.237615
-13.360327
-13.024143
-11.973936
-12.195342
-12.210696
-12.319145
8.035135
9.643906
8.217087
8.601056
8.423887
-13.919116
-13.851737
-14.077946
9.569468
-14.232001
-14.257017
-0.829991
-0.534710
6.149652
6.202762
6.104798
6.898873
6.943317
7.211206
6.143717
7.504970
7.446490
-14.803747
-14.849448
-14.907773
-14.929868
-8.415717
-8.346264
-8.433043
2.766473
2.685119
2.529292
4.305857
4.141380
4.613069
-5.708920
-5.465808
-5.586252
-5.598046
4.243235
8.356202
8.424150
8.305903
1.206897
1.043925
1.289817
-3.452138
-3.426288
-4.617222
-13.962096
-14.070725
-14.054599
-8.991050
-14.211392
8.384141
-4.815440
-4.707137
-4.611050
-3.476401
-3.152615
-3.475825
-6.003519
-5.086461
-4.487157
-3.801409
-13.887220
-13.864148
5.794383
6.063107
6.018819
5.071457
4.932550
5.591226
5.581664
-14.628583
-14.707401
-14.714239
-14.799737
6.235027
6.481707
6.519166
6.339935
-9.383333
-8.876874
-9.094444
6.558878
6.669489
6.916369
-9.355472
7.344039
7.112721
7.467978
7.941595
-9.953595
-10.097454
-9.974189
-13.109542
-13.183842
-13.486996
-13.800517
-13.678123
-15.019925
-14.925974
-15.032073
-14.880104
4.227378
4.345984
4.265017
8.120798
8.138264
8.350230
-8.855553
-8.969422
-8.785460
7.951493
-8.636713
-8.531819
-8.700293
-11.532489
-11.753822
-11.408987
9.665124
9.589062
-12.519233
-12.638123
-12.325984
-12.405937
-3.975065
-4.246991
-4.114487
-12.162120
4.114184
4.200683
4.305058
2.117667
1.681339
1.797427
1.010416
0.962439
1.210756
-15.006827
-15.016409
-14.943160
1.292431
9.244040
9.410618
9.251802
-1.946199
-2.026219
-2.266158
-4.564635
-4.627482
-4.733128
-4.440398
0.134710
-0.075316
-8.777669
-8.789796
-8.625338
-0.839350
-0.768941
-0.608983
5.714554
5.909662
-5.638640
-5.832369
-5.920508
-0.578395
-8.610441
-2.955645
-2.752902
-11.183051
-11.027011
-10.985651
-10.945530
-10.305620
-10.684242
-10.803555
-10.175252
-8.359583
-8.577833
-8.401518
1.878774
1.724712
2.069063
-8.579606
-8.311603
-10.770079
-10.820792
-8.074315
5.490536
5.451072
5.372663
5.583218
3.189890
2.906753
2.879434
3.190659
2.575403
2.930071
2.589731
-10.669981
-10.893286
-10.926479
9.894823
9.849133
5.486879
5.760636
6.075555
6.380278
-10.772049
-10.610788
-12.013987
-12.132841
-12.203156
-16.870784
-16.842772
-10.165396
-9.961440
-10.049036
-9.979910
-8.468068
-8.144493
-8.664607
-8.711672
-8.942040
4.751524
4.609407
4.865806
4.728004
-11.191204
-10.766942
-10.970321
4.773528
4.563382
9.720141
4.613662
-15.368689
-15.377626
-15.465838
9.761408
4.945907
3.286361
3.804223
-15.502688
3.662422
-10.421265
-16.636192
-1.603225
-1.497227
-1.324811
-16.729569
-10.027564
-10.116844
-10.205752
-10.265632
-8.707106
-8.583948
-8.870511
-8.588516
9.024428
8.926470
9.032964
8.881645
-9.595236
-9.803262
-9.692092
-9.798816
6.214497
6.334548
6.868111
6.750669
-12.751935
-12.835265
-16.641096
-16.547192
5.627559
5.467873
5.626884
5.527474
5.615055
5.390136
-10.657724
-10.784949
-6.348798
-6.275470
-6.472475
-6.306576
5.493249
-9.746705
-9.852367
-9.948349
-9.566602
-0.262124
-0.233194
-0.118812
0.464236
-0.539334
-0.156743
-8.082570
-8.135776
-7.894151
-7.999699
-4.741199
-4.946775
-0.224185
-0.342576
4.407635
4.242513
-0.387350
-11.111540
-10.982721
-10.683244
-9.971877
6.753638
7.213999
7.080542
7.545650
2.858176
3.226765
5.402909
5.353812
5.644685
-13.722954
-13.438660
-13.390434
8.751276
8.768025
9.030058
3.571561
3.638567
9.062924
5.469540
4.632549
5.845136
-3.697743
-3.469474
-3.536222
3.953423
-9.094849
-9.240689
4.076208
4.295950
4.459863
6.982429
6.772119
7.119661
-13.417835
-13.317030
6.766535
-15.482983
-15.550398
-15.560062
8.022992
7.698802
3.962546
3.892070
4.171479
-11.727680
-11.575899
-11.763638
-11.610395
-12.742224
-12.647808
-4.206247
-3.825324
-5.390876
-15.745899
-15.838150
-16.039586
-16.057145
-8.469943
-8.430874
1.321682
1.578419
1.260419
6.238080
6.311045
4.664817
4.893919
4.609075
6.233366
6.303257
6.191839
6.235198
-4.951919
-4.797394
-4.605820
-8.569188
-8.826480
-8.753026
-9.115965
-8.325220
-8.421771
-8.121753
5.704253
5.758072
5.807678
5.660360
10.308643
10.169712
10.211212
-10.357389
-10.472984
-10.509134
-2.371255
-2.917061
-2.520216
-10.360822
-11.313484
-10.148070
-10.951644
-10.733864
-4.503282
-4.315737
-4.267968
-11.828231
-11.178990
-16.460782
-16.470505
-16.347514
7.377510
7.238265
7.500072
-10.955938
6.779324
-11.152640
-10.755671
5.302874
5.429309
5.337571
5.383671
5.491220
5.191165
5.383351
10.441257
10.297152
10.313878
10.186967
9.811624
9.912063
9.922420
-12.638797
-12.603513
-12.687686
10.019995
-12.623424
-12.548329
-12.546201
-9.827049
-9.398615
-9.948527
-7.312910
-5.324761
-6.241537
8.683314
8.767399
8.589993
8.599019
-6.877340
5.216550
5.224779
5.755298
4.805275
4.682189
4.781875
4.633038
-7.525313
-7.629107
-7.428152
-7.712036
-8.436798
-8.326144
-8.222365
3.185752
3.122681
2.920953
2.896456
-11.021919
-10.985617
-10.987529
10.171016
-11.037613
10.030603
-11.118417
-11.221374
-9.193087
-8.328778
-3.238855
-3.500136
-6.876701
-6.775988
-6.587387
1.441441
1.271384
-16.592235
-16.612068
-16.690012
-16.694481
1.120163
1.369057
1.185231
2.093220
2.035466
2.217561
3.023900
3.209213
2.003211
4.413665
-6.526622
-8.979563
-1.786848
-2.288954
-1.955817
-2.410905
0.979585
1.169357
1.551885
1.556853
1.382007
1.413802
3.745302
3.889920
3.989569
1.600408
1.458875
1.161637
3.667402
-1.352178
-1.542994
-1.309736
-1.461525
4.182893
4.101729
4.557842
5.093558
-12.356389
-11.919223
-11.931997
-11.178040
-16.309850
-16.175006
-16.293156
-16.178945
1.745182
6.490500
6.398298
6.410047
6.316406
-16.409327
-16.269145
6.298056
-16.216945
-10.033602
-9.987345
-10.062465
-9.989683
-8.399991
-8.238301
-8.577700
4.930356
-4.227146
-4.368017
-4.478716
-8.038758
-7.911125
5.463756
5.393282
5.406489
-8.943959
-9.099953
7.846796
7.549345
7.614371
10.440187
10.298614
-9.232771
-8.788549
-11.317551
-11.153557
-8.025390
-7.905014
-8.021913
-7.957024
-0.327142
-0.550903
-0.319410
-0.584880
-12.896015
-7.998092
-8.130344
1.134588
-8.113277
-12.846895
-12.528041
-12.555674
0.006438
0.048829
-5.546731
-5.309406
-5.501059
-5.268082
5.406014
5.512762
5.349743
5.557443
6.596160
6.728369
6.834929
6.527608
-2.158134
-2.233143
-2.494083
2.993098
2.856623
3.090504
-1.348686
-1.599133
2.792300
-8.225198
-8.232208
-11.111346
-10.617444
-8.152713
-8.293743
-16.148860
-8.224285
10.217957
10.444606
10.405133
10.214888
5.724707
5.951340
6.063303
-16.334996
-15.979338
-16.204331
-6.227496
-6.247806
-6.387143
-6.365250
9.966082
6.414879
6.677251
6.735062
-16.938799
-13.143932
-13.302961
-13.082374
-13.353814
8.178182
8.322719
-13.531510
-13.660234
-13.741316
-2.540761
1.316508
8.016260
8.204062
9.342094
9.046884
9.252259
7.982021
-7.563190
-7.748317
-7.719850
-7.649614
-6.180803
-6.031731
-6.111504
-16.554881
-16.667266
10.458344
10.348474
10.164184
-7.506956
-6.347336
-5.440647
10.177154
10.301547
10.189055
-3.013926
-3.091784
-4.515003
-5.989637
-6.928056
-6.762047
-6.612754
-0.563929
-0.795443
-0.191640
-0.446875
-0.792548
-1.246794
1.958390
2.030635
2.052559
-6.545290
-6.353364
-6.334802
2.084009
1.870511
2.121494
1.887198
1.831681
1.869667
-3.727385
-3.508438
-3.130453
-3.007858
-11.676225
-11.990692
-11.561569
-12.213784
-10.770646
-10.883869
-10.746430
-11.605012
-10.421557
4.002497
3.889469
4.053778
3.851658
6.360145
10.393536
10.209694
6.269654
9.687277
9.791461
1.670276
1.882948
6.327434
-5.758540
6.186470
5.229075
5.172242
5.242120
9.592105
9.580469
8.147742
7.818797
9.271505
8.945164
9.933849
10.087582
5.187088
9.288233
5.325749
5.285393
3.080717
2.991631
3.089110
-14.410359
-14.213264
-14.324834
-14.252660
2.988606
6.214005
6.124537
5.546077
5.926877
6.301489
-9.129039
-9.274003
-16.069225
-16.031894
-8.949556
-16.520233
-16.222789
6.022874
6.035902
6.099221
5.951441
6.167892
10.084367
10.208706
1.774488
1.806274
6.129429
5.978432
6.113752
5.921325
6.077772
-16.194732
-15.542944
-6.159460
-6.218966