# vtk DataFile Version 2.0
Test
ASCII
DATASET POLYDATA
POINTS 6352 float
0.000000 0.000000 0.000000
1.000000 0.000000 0.000000
1.000000 0.800000 0.000000
1.000000 1.000000 0.000000
0.000000 1.000000 0.000000
0.000000 0.200000 0.000000
0.300000 0.330000 0.000000
0.700000 0.680000 0.000000
0.050000 0.000000 0.000000
0.100000 0.000000 0.000000
0.150000 0.000000 0.000000
0.200000 0.000000 0.000000
0.250000 0.000000 0.000000
0.300000 0.000000 0.000000
0.350000 0.000000 0.000000
0.400000 0.000000 0.000000
0.450000 0.000000 0.000000
0.500000 0.000000 0.000000
0.550000 0.000000 0.000000
0.600000 0.000000 0.000000
0.650000 0.000000 0.000000
0.700000 0.000000 0.000000
0.750000 0.000000 0.000000
0.800000 0.000000 0.000000
0.850000 0.000000 0.000000
0.900000 0.000000 0.000000
0.950000 0.000000 0.000000
1.000000 0.048545 0.000000
1.000000 0.094438 0.000000
1.000000 0.137825 0.000000
1.000000 0.178843 0.000000
1.000000 0.217620 0.000000
1.000000 0.254280 0.000000
1.000000 0.288938 0.000000
1.000000 0.321703 0.000000
1.000000 0.352678 0.000000
1.000000 0.381962 0.000000
1.000000 0.409647 0.000000
1.000000 0.435820 0.000000
1.000000 0.460563 0.000000
1.000000 0.483955 0.000000
1.000000 0.506070 0.000000
1.000000 0.526976 0.000000
1.000000 0.546741 0.000000
1.000000 0.565427 0.000000
1.000000 0.583092 0.000000
1.000000 0.599793 0.000000
1.000000 0.615581 0.000000
1.000000 0.630507 0.000000
1.000000 0.644618 0.000000
1.000000 0.657958 0.000000
1.000000 0.670570 0.000000
1.000000 0.682493 0.000000
1.000000 0.693765 0.000000
1.000000 0.704421 0.000000
1.000000 0.714495 0.000000
1.000000 0.724019 0.000000
1.000000 0.733023 0.000000
1.000000 0.741536 0.000000
1.000000 0.749583 0.000000
1.000000 0.757191 0.000000
1.000000 0.764383 0.000000
1.000000 0.771183 0.000000
1.000000 0.777611 0.000000
1.000000 0.783688 0.000000
1.000000 0.789434 0.000000
1.000000 0.794865 0.000000
1.000000 0.805174 0.000000
1.000000 0.811554 0.000000
1.000000 0.819418 0.000000
1.000000 0.829114 0.000000
1.000000 0.841067 0.000000
1.000000 0.855804 0.000000
1.000000 0.873972 0.000000
1.000000 0.896371 0.000000
1.000000 0.923985 0.000000
1.000000 0.958029 0.000000
0.950000 1.000000 0.000000
0.900000 1.000000 0.000000
0.850000 1.000000 0.000000
0.800000 1.000000 0.000000
0.750000 1.000000 0.000000
0.700000 1.000000 0.000000
0.650000 1.000000 0.000000
0.600000 1.000000 0.000000
0.550000 1.000000 0.000000
0.500000 1.000000 0.000000
0.450000 1.000000 0.000000
0.400000 1.000000 0.000000
0.350000 1.000000 0.000000
0.300000 1.000000 0.000000
0.250000 1.000000 0.000000
0.200000 1.000000 0.000000
0.150000 1.000000 0.000000
0.100000 1.000000 0.000000
0.050000 1.000000 0.000000
0.000000 0.951455 0.000000
0.000000 0.905562 0.000000
0.000000 0.862175 0.000000
0.000000 0.821157 0.000000
0.000000 0.782380 0.000000
0.000000 0.745720 0.000000
0.000000 0.711062 0.000000
0.000000 0.678297 0.000000
0.000000 0.647322 0.000000
0.000000 0.618038 0.000000
0.000000 0.590353 0.000000
0.000000 0.564180 0.000000
0.000000 0.539437 0.000000
0.000000 0.516045 0.000000
0.000000 0.493930 0.000000
0.000000 0.473024 0.000000
0.000000 0.453259 0.000000
0.000000 0.434573 0.000000
0.000000 0.416908 0.000000
0.000000 0.400207 0.000000
0.000000 0.384419 0.000000
0.000000 0.369493 0.000000
0.000000 0.355382 0.000000
0.000000 0.342042 0.000000
0.000000 0.329430 0.000000
0.000000 0.317507 0.000000
0.000000 0.306235 0.000000
0.000000 0.295579 0.000000
0.000000 0.285505 0.000000
0.000000 0.275981 0.000000
0.000000 0.266977 0.000000
0.000000 0.258464 0.000000
0.000000 0.250417 0.000000
0.000000 0.242809 0.000000
0.000000 0.235617 0.000000
0.000000 0.228817 0.000000
0.000000 0.222389 0.000000
0.000000 0.216312 0.000000
0.000000 0.210566 0.000000
0.000000 0.205135 0.000000
0.000000 0.194826 0.000000
0.000000 0.188446 0.000000
0.000000 0.180582 0.000000
0.000000 0.170886 0.000000
0.000000 0.158933 0.000000
0.000000 0.144196 0.000000
0.000000 0.126028 0.000000
0.000000 0.103629 0.000000
0.000000 0.076015 0.000000
0.000000 0.041971 0.000000
0.303738 0.333271 0.000000
0.307477 0.336542 0.000000
0.311215 0.339813 0.000000
0.314953 0.343084 0.000000
0.318692 0.346355 0.000000
0.322430 0.349626 0.000000
0.326168 0.352897 0.000000
0.329907 0.356168 0.000000
0.333645 0.359439 0.000000
0.337383 0.362710 0.000000
0.341121 0.365981 0.000000
0.344860 0.369252 0.000000
0.348598 0.372523 0.000000
0.352336 0.375794 0.000000
0.356075 0.379065 0.000000
0.359813 0.382336 0.000000
0.363551 0.385607 0.000000
0.367290 0.388879 0.000000
0.371028 0.392150 0.000000
0.374766 0.395421 0.000000
0.378505 0.398692 0.000000
0.382243 0.401963 0.000000
0.385981 0.405234 0.000000
0.389720 0.408505 0.000000
0.393458 0.411776 0.000000
0.397196 0.415047 0.000000
0.400935 0.418318 0.000000
0.404673 0.421589 0.000000
0.408411 0.424860 0.000000
0.412150 0.428131 0.000000
0.415888 0.431402 0.000000
0.419626 0.434673 0.000000
0.423364 0.437944 0.000000
0.427103 0.441215 0.000000
0.430841 0.444486 0.000000
0.434579 0.447757 0.000000
0.438318 0.451028 0.000000
0.442056 0.454299 0.000000
0.445794 0.457570 0.000000
0.449533 0.460841 0.000000
0.453271 0.464112 0.000000
0.457009 0.467383 0.000000
0.460748 0.470654 0.000000
0.464486 0.473925 0.000000
0.468224 0.477196 0.000000
0.471963 0.480467 0.000000
0.475701 0.483738 0.000000
0.479439 0.487009 0.000000
0.483178 0.490280 0.000000
0.486916 0.493551 0.000000
0.490654 0.496822 0.000000
0.494393 0.500093 0.000000
0.498131 0.503364 0.000000
0.501869 0.506636 0.000000
0.505607 0.509907 0.000000
0.509346 0.513178 0.000000
0.513084 0.516449 0.000000
0.516822 0.519720 0.000000
0.520561 0.522991 0.000000
0.524299 0.526262 0.000000
0.528037 0.529533 0.000000
0.531776 0.532804 0.000000
0.535514 0.536075 0.000000
0.539252 0.539346 0.000000
0.542991 0.542617 0.000000
0.546729 0.545888 0.000000
0.550467 0.549159 0.000000
0.554206 0.552430 0.000000
0.557944 0.555701 0.000000
0.561682 0.558972 0.000000
0.565421 0.562243 0.000000
0.569159 0.565514 0.000000
0.572897 0.568785 0.000000
0.576636 0.572056 0.000000
0.580374 0.575327 0.000000
0.584112 0.578598 0.000000
0.587850 0.581869 0.000000
0.591589 0.585140 0.000000
0.595327 0.588411 0.000000
0.599065 0.591682 0.000000
0.602804 0.594953 0.000000
0.606542 0.598224 0.000000
0.610280 0.601495 0.000000
0.614019 0.604766 0.000000
0.617757 0.608037 0.000000
0.621495 0.611308 0.000000
0.625234 0.614579 0.000000
0.628972 0.617850 0.000000
0.632710 0.621121 0.000000
0.636449 0.624393 0.000000
0.640187 0.627664 0.000000
0.643925 0.630935 0.000000
0.647664 0.634206 0.000000
0.651402 0.637477 0.000000
0.655140 0.640748 0.000000
0.658879 0.644019 0.000000
0.662617 0.647290 0.000000
0.666355 0.650561 0.000000
0.670093 0.653832 0.000000
0.673832 0.657103 0.000000
0.677570 0.660374 0.000000
0.681308 0.663645 0.000000
0.685047 0.666916 0.000000
0.688785 0.670187 0.000000
0.692523 0.673458 0.000000
0.696262 0.676729 0.000000
0.004545 0.201970 0.000000
0.009091 0.203939 0.000000
0.013636 0.205909 0.000000
0.018182 0.207879 0.000000
0.022727 0.209848 0.000000
0.027273 0.211818 0.000000
0.031818 0.213788 0.000000
0.036364 0.215758 0.000000
0.040909 0.217727 0.000000
0.045455 0.219697 0.000000
0.050000 0.221667 0.000000
0.054545 0.223636 0.000000
0.059091 0.225606 0.000000
0.063636 0.227576 0.000000
0.068182 0.229545 0.000000
0.072727 0.231515 0.000000
0.077273 0.233485 0.000000
0.081818 0.235455 0.000000
0.086364 0.237424 0.000000
0.090909 0.239394 0.000000
0.095455 0.241364 0.000000
0.100000 0.243333 0.000000
0.104545 0.245303 0.000000
0.109091 0.247273 0.000000
0.113636 0.249242 0.000000
0.118182 0.251212 0.000000
0.122727 0.253182 0.000000
0.127273 0.255152 0.000000
0.131818 0.257121 0.000000
0.136364 0.259091 0.000000
0.140909 0.261061 0.000000
0.145455 0.263030 0.000000
0.150000 0.265000 0.000000
0.154545 0.266970 0.000000
0.159091 0.268939 0.000000
0.163636 0.270909 0.000000
0.168182 0.272879 0.000000
0.172727 0.274848 0.000000
0.177273 0.276818 0.000000
0.181818 0.278788 0.000000
0.186364 0.280758 0.000000
0.190909 0.282727 0.000000
0.195455 0.284697 0.000000
0.200000 0.286667 0.000000
0.204545 0.288636 0.000000
0.209091 0.290606 0.000000
0.213636 0.292576 0.000000
0.218182 0.294545 0.000000
0.222727 0.296515 0.000000
0.227273 0.298485 0.000000
0.231818 0.300455 0.000000
0.236364 0.302424 0.000000
0.240909 0.304394 0.000000
0.245455 0.306364 0.000000
0.250000 0.308333 0.000000
0.254545 0.310303 0.000000
0.259091 0.312273 0.000000
0.263636 0.314242 0.000000
0.268182 0.316212 0.000000
0.272727 0.318182 0.000000
0.277273 0.320152 0.000000
0.281818 0.322121 0.000000
0.286364 0.324091 0.000000
0.290909 0.326061 0.000000
0.295455 0.328030 0.000000
0.704615 0.681846 0.000000
0.709231 0.683692 0.000000
0.713846 0.685538 0.000000
0.718462 0.687385 0.000000
0.723077 0.689231 0.000000
0.727692 0.691077 0.000000
0.732308 0.692923 0.000000
0.736923 0.694769 0.000000
0.741538 0.696615 0.000000
0.746154 0.698462 0.000000
0.750769 0.700308 0.000000
0.755385 0.702154 0.000000
0.760000 0.704000 0.000000
0.764615 0.705846 0.000000
0.769231 0.707692 0.000000
0.773846 0.709538 0.000000
0.778462 0.711385 0.000000
0.783077 0.713231 0.000000
0.787692 0.715077 0.000000
0.792308 0.716923 0.000000
0.796923 0.718769 0.000000
0.801538 0.720615 0.000000
0.806154 0.722462 0.000000
0.810769 0.724308 0.000000
0.815385 0.726154 0.000000
0.820000 0.728000 0.000000
0.824615 0.729846 0.000000
0.829231 0.731692 0.000000
0.833846 0.733538 0.000000
0.838462 0.735385 0.000000
0.843077 0.737231 0.000000
0.847692 0.739077 0.000000
0.852308 0.740923 0.000000
0.856923 0.742769 0.000000
0.861538 0.744615 0.000000
0.866154 0.746462 0.000000
0.870769 0.748308 0.000000
0.875385 0.750154 0.000000
0.880000 0.752000 0.000000
0.884615 0.753846 0.000000
0.889231 0.755692 0.000000
0.893846 0.757538 0.000000
0.898462 0.759385 0.000000
0.903077 0.761231 0.000000
0.907692 0.763077 0.000000
0.912308 0.764923 0.000000
0.916923 0.766769 0.000000
0.921538 0.768615 0.000000
0.926154 0.770462 0.000000
0.930769 0.772308 0.000000
[...]
POINT_DATA 6352
SCALARS UX float 1
LOOKUP_TABLE default
-0.000000
0.000000
0.187412
0.158000
-0.227877
-0.168675
-0.112733
0.090771
-0.000000
-0.000000
-0.000000
-0.000000
-0.000000
-0.000000
-0.000000
-0.000000
-0.000000
-0.000000
-0.000000
0.000000
0.000000
0.000000
0.000000
0.000000
0.000000
0.000000
-0.000000
0.062317
0.097817
0.124079
0.144318
0.160591
0.174622
0.186651
0.197071
0.206242
0.214145
0.220899
0.226553
0.231216
0.234859
0.237542
0.239253
0.240082
0.240115
0.239422
0.238122
0.236281
0.234035
0.231424
0.228660
0.225643
0.222591
0.219518
0.216461
0.213436
0.210554
0.207786
0.205138
0.202624
0.200254
0.198037
0.195949
0.193988
0.192157
0.190462
0.188880
0.185965
0.184207
0.182134
0.179618
0.176672
0.173442
0.169759
0.165901
0.162244
0.159323
0.135074
0.113118
0.092186
0.071934
0.053477
0.036186
0.020112
0.004494
-0.011526
-0.028462
-0.046358
-0.065100
-0.084798
-0.104864
-0.125174
-0.145738
-0.166217
-0.186641
-0.207146
-0.228781
-0.230583
-0.233551
-0.237222
-0.241515
-0.245994
-0.250539
-0.254945
-0.259027
-0.262708
-0.265778
-0.268072
-0.269690
-0.270413
-0.270253
-0.269533
-0.267736
-0.265283
-0.262231
-0.258467
-0.254314
-0.249841
-0.244990
-0.240016
-0.234948
-0.229834
-0.224749
-0.219723
-0.214806
-0.210005
-0.205402
-0.200941
-0.196661
-0.192556
-0.188636
-0.184895
-0.181321
-0.177918
-0.174676
-0.171599
-0.165702
-0.162027
-0.157426
-0.151679
-0.144500
-0.135406
-0.123928
-0.109301
-0.088619
-0.058961
-0.109532
-0.107178
-0.107000
-0.104625
-0.102953
-0.101708
-0.101297
-0.098813
-0.096746
-0.097819
-0.096105
-0.095818
-0.095100
-0.092525
-0.091011
-0.089641
-0.086943
-0.086693
-0.084788
-0.080707
-0.082329
-0.079440
-0.075415
-0.073468
-0.071109
-0.068046
-0.065418
-0.061690
-0.058496
-0.056727
-0.056861
-0.055924
-0.052615
-0.050108
-0.049962
-0.046527
-0.045125
-0.046036
-0.043642
-0.041391
-0.037786
-0.036679
-0.034602
-0.032305
-0.027745
-0.024371
-0.026567
-0.025077
-0.023113
-0.022421
-0.020857
-0.020134
-0.019079
-0.016887
-0.014051
-0.013725
-0.012102
-0.010001
-0.005416
-0.006324
-0.004931
-0.001766
0.001289
0.002137
0.005407
0.009522
0.011011
0.015853
0.016899
0.019645
0.021144
0.023060
0.022963
0.022375
0.023857
0.025577
0.027126
0.029803
0.031435
0.033139
0.030925
0.031350
0.032985
0.033967
0.032730
0.033690
0.036776
0.038921
0.041798
0.042032
0.043825
0.044706
0.047040
0.048086
0.049395
0.052459
0.054024
0.056135
0.059880
0.064129
0.068682
0.073171
0.077874
0.080574
0.084548
0.086858
-0.167958
-0.167244
-0.166535
-0.165822
-0.165111
-0.164397
-0.163676
-0.162956
-0.162232
-0.161508
-0.160775
-0.160040
-0.159306
-0.158568
-0.157821
-0.157073
-0.156326
-0.155578
-0.154826
-0.154068
-0.153309
-0.152549
-0.151781
-0.151013
-0.150242
-0.149468
-0.148692
-0.147915
-0.147143
-0.146363
-0.145586
-0.144812
-0.144030
-0.143255
-0.142478
-0.141703
-0.140927
-0.140154
-0.139387
-0.138624
-0.137869
-0.137127
-0.136387
-0.135645
-0.134926
-0.134235
-0.133560
-0.132896
-0.132246
-0.131657
-0.131136
-0.130596
-0.130102
-0.129715
-0.129244
-0.128854
-0.128465
-0.127930
-0.127470
-0.127190
-0.126760
-0.126243
-0.125679
-0.123871
-0.120548
0.100338
0.105380
0.108234
0.110285
0.111560
0.112564
0.113544
0.114606
0.115517
0.116461
0.117480
0.118422
0.119315
0.120305
0.121337
0.122391
0.123502
0.124680
0.125864
0.127075
0.128297
0.129546
0.130784
0.132060
0.133357
0.134653
0.135949
0.137255
0.138579
0.139907
0.141242
0.142565
0.143899
0.145235
0.146571
0.147911
0.149248
0.150591
0.151935
0.153271
0.154607
0.155952
0.157293
0.158631
0.159975
0.161312
0.162650
0.163986
0.165324
0.166666
0.168010
0.169351
0.170696
0.172049
0.173401
0.174759
0.176121
0.177491
0.178876
0.180259
0.181660
0.183070
0.184496
0.185941
0.127623
0.125982
0.130003
0.123984
0.006605
0.003776
0.008517
0.002805
-0.116600
-0.117137
-0.109664
-0.113367
-0.104682
-0.115539
-0.210956
-0.206051
-0.207356
-0.203411
-0.115274
-0.038451
-0.033465
-0.033210
-0.027883
0.054485
0.053905
0.062262
0.044495
-0.049639
-0.052526
-0.047282
0.011054
0.017243
0.009907
0.018206
0.178659
0.172941
0.182436
0.172660
-0.023049
-0.033344
-0.021581
-0.035670
-0.193999
-0.193358
-0.198802
-0.158816
-0.158912
-0.155234
-0.166705
-0.166410
-0.169917
0.140671
0.153236
0.145340
0.150745
0.034687
0.034282
0.039729
-0.020327
-0.028575
0.001632
0.185256
0.190428
0.190754
-0.036897
-0.045216
-0.045218
-0.148435
-0.134998
-0.125732
0.150020
0.151519
0.148425
-0.038746
-0.163989
-0.164109
-0.159335
-0.022235
-0.023388
-0.027639
-0.017937
0.117620
0.115872
0.115473
0.015197
0.009932
-0.003826
0.117046
0.144182
0.146238
0.143200
0.070360
0.063647
0.072500
0.145525
0.146459
0.142145
0.105798
0.103933
0.107077
0.053149
0.046087
0.052111
0.103019
-0.002633
0.003073
0.005474
0.065716
-0.160886
-0.162622
-0.162821
-0.000848
0.134472
0.131647
0.134261
-0.069671
-0.071750
-0.063404
0.163379
0.160751
0.161162
0.158495
0.160652
0.158138
-0.092054
-0.105614
-0.090661
-0.102226
-0.038013
-0.033297
-0.032781
0.132703
0.147394
-0.027164
-0.233392
-0.227046
-0.228036
-0.171408
-0.174564
-0.170240
0.063404
0.078595
0.082251
-0.222301
0.149982
0.148295
0.149432
0.147662
0.031275
0.036281
0.040360
0.090122
-0.125985
-0.128428
-0.126400
0.042721
0.040385
0.042038
0.038821
0.166757
0.164698
0.163191
0.048717
0.136759
0.130742
0.134171
-0.223131
-0.219592
-0.215845
0.162162
0.163223
0.161176
0.160507
-0.169904
-0.167208
-0.171703
-0.168985
-0.013057
-0.009284
-0.008700
0.161198
-0.138684
-0.146365
-0.123611
-0.012885
-0.124088
-0.122956
-0.132789
-0.107850
0.177509
0.185340
-0.135823
0.175882
-0.164623
-0.164881
-0.163772
-0.165554
-0.058488
-0.059210
-0.065276
0.055965
-0.128792
-0.104300
-0.144830
-0.143469
-0.145193
-0.143268
0.125371
0.125224
0.123662
0.123828
-0.164349
-0.162085
-0.051909
-0.154523
-0.152995
-0.154395
-0.152456
0.022983
0.022095
0.025665
0.169040
0.169892
0.165917
0.019735
0.172902
-0.098955
-0.091019
-0.084242
0.161012
0.159988
0.156884
-0.081418
-0.067887
-0.068479
-0.072547
0.163880
-0.072066
-0.152475
-0.154527
-0.150418
-0.067525
-0.063785
-0.064072
-0.151561
0.131081
0.131097
0.127214
0.103195
0.101679
0.103944
-0.065117
-0.068521
-0.059298
-0.086853
-0.081200
-0.082962
0.135729
0.137264
0.136610
0.137026
0.046920
0.041722
0.043413
0.101717
0.128288
0.091167
0.091513
0.088570
0.132015
0.137124
0.133660
0.139110
0.160517
0.161189
0.159431
0.160093
0.215434
0.211448
0.209103
-0.114626
-0.112196
-0.107983
-0.120818
0.204242
0.083667
0.088019
0.084191
-0.096760
-0.093567
-0.095043
0.138703
0.136533
0.138770
0.211260
0.219595
0.136596
-0.246978
-0.254559
-0.247578
0.186367
0.183324
0.183380
0.180274
-0.051136
-0.040434
0.140796
0.141738
0.140445
-0.076366
-0.073868
-0.080610
-0.075658
0.155441
-0.094153
0.150389
0.152618
-0.099228
-0.102941
-0.101844
-0.156923
-0.153294
-0.158222
-0.152560
-0.171413
-0.176004
-0.175150
-0.179754
-0.166936
-0.166946
-0.162789
-0.167410
-0.164660
-0.165828
-0.184846
-0.180950
-0.186153
-0.163567
0.033819
0.030684
0.030407
0.094604
0.093675
-0.188456
-0.187383
-0.185855
-0.190683
-0.168733
-0.169976
-0.169476
-0.171246
-0.139520
-0.141960
-0.141646
-0.143832
-0.208948
-0.209135
-0.213473
-0.162702
-0.205992
0.102619
0.099326
0.112212
-0.060835
-0.066567
-0.050240
-0.072433
0.172002
0.174040
0.171315
0.175556
-0.176680
-0.182105
0.130000
0.131370
0.124521
-0.141861
-0.142124
0.126706
0.165260
0.168604
0.168826
0.172211
0.161870
0.161620
0.158294
-0.143214
0.055784
0.050143
0.053483
0.045524
0.156494
0.152256
0.157404
-0.162313
-0.156369
-0.159430
-0.152213
0.182284
0.183535
0.186102
0.179479
-0.253038
-0.249290
-0.244166
-0.238965
-0.158062
-0.162583
0.101915
0.105493
0.097444
0.097594
-0.135752
-0.126883
-0.121929
-0.115981
0.154880
0.159120
0.161616
0.164490
0.158629
0.065786
0.072476
0.060173
0.177169
0.179158
0.182283
-0.012064
-0.017844
0.004780
0.147184
0.142200
0.147759
0.141555
0.174882
0.171368
0.169918
-0.013044
-0.008955
-0.164078
-0.164610
-0.161799
0.021251
0.020775
0.027427
0.134121
0.133955
-0.166949
-0.164360
-0.161711
-0.160047
-0.155816
-0.157077
-0.154519
0.180458
0.052605
0.043993
0.052285
0.188531
-0.131151
-0.133901
-0.132820
0.078563
0.077051
0.068101
-0.157288
0.017719
0.006911
0.069006
-0.135991
-0.158712
-0.161040
-0.161409
-0.014820
-0.017141
-0.026308
0.144789
0.146269
0.142504
-0.087740
-0.082523
-0.148560
-0.146199
0.035216
0.040515
0.029012
-0.148984
0.025694
0.032478
0.033544
0.040249
-0.171600
-0.170189
-0.168952
-0.172813
-0.138847
-0.143607
-0.143314
-0.149190
-0.117807
-0.120629
-0.124621
0.139797
0.143633
0.143961
-0.005843
-0.011306
-0.005290
-0.186223
-0.189732
-0.110289
0.142475
-0.144685
-0.144147
-0.149041
-0.139449
-0.261958
-0.257066
-0.253115
-0.251426
0.014425
0.020441
0.013395
-0.114446
-0.107768
-0.114254
-0.106798
-0.191032
-0.180902
-0.180179
0.126959
0.131054
0.129701
-0.120638
-0.115518
-0.164904
-0.164577
-0.167028
0.097229
0.104862
0.105416
-0.165923
-0.120272
-0.127769
-0.126707
0.153333
0.156652
0.156688
0.068960
0.059873
0.095177
-0.122408
-0.124558
-0.122474
-0.152933
-0.158103
-0.155846
-0.152894
-0.155979
-0.151960
-0.156394
-0.157751
-0.152651
0.012353
0.019377
0.016046
0.011893
0.017554
0.018040
-0.130488
-0.154382
-0.175612
-0.173963
-0.174783
-0.005217
-0.005631
-0.011216
0.000734
-0.008505
-0.002014
-0.006502
0.001918
-0.172982
-0.172060
-0.170081
-0.169873
0.042639
0.054805
0.033231
0.156355
0.154294
0.159540
0.152654
-0.162726
-0.164170
-0.162836
-0.136167
-0.129074
-0.135417
-0.163930
-0.142434
-0.147287
-0.146463
0.172923
0.161760
0.170695
0.160541
-0.167997
-0.167830
-0.169935
0.161713
0.162926
0.165284
0.136822
0.138402
0.137508
0.137646
-0.212328
-0.208286
-0.204777
-0.155521
-0.155955
-0.159267
-0.159307
0.158119
0.157599
0.160307
-0.046409
-0.046078
-0.050115
0.117781
0.117183
0.121376
0.120743
0.120606
0.116985
0.118287
-0.017637
-0.012003
-0.012281
0.013849
0.019786
0.017987
-0.017889
-0.173565
-0.176337
-0.172352
0.022926
0.017819
0.022729
-0.045897
-0.043040
-0.179712
-0.179374
-0.177296
0.178924
0.181628
0.178739
-0.176306
-0.042595
0.128385
0.120592
0.124141
-0.148179
-0.150535
-0.153474
-0.119476
-0.122491
-0.146218
-0.146267
-0.149759
0.147882
0.151724
0.151505
-0.164937
-0.163909
-0.169272
-0.168766
-0.165642
-0.165343
-0.163889
-0.166104
-0.042208
-0.047245
-0.047681
-0.043167
0.140444
0.140608
0.144509
0.136837
0.144309
0.148396
0.164082
0.167374
0.168028
0.209446
0.214401
0.212434
0.172170
0.143677
0.143643
0.146722
0.147439
0.146224
-0.127624
-0.126941
0.124899
-0.023907
-0.022471
-0.027142
-0.029232
-0.141257
-0.147537
-0.146529
-0.119563
0.150786
0.151321
0.148660
0.148813
-0.173805
-0.174014
-0.167958
0.001398
0.005542
0.006225
0.086131
0.088762
0.094463
0.072066
-0.139120
-0.126718
-0.136369
0.171246
0.167020
0.167706
0.113133
0.113742
0.106206
-0.112143
-0.157297
-0.148824
-0.151867
0.160856
0.165883
0.164890
-0.154391
-0.026977
-0.153970
-0.157706
-0.151983
-0.159000
0.008781
0.001104
0.161805
0.166403
-0.220671
-0.217303
-0.003320
0.001950
0.001445
0.007884
-0.034624
-0.039994
-0.040514
0.005834
0.011961
0.012782
0.124849
0.131791
0.129045
0.005311
-0.117344
-0.122391
-0.115544
0.178917
0.181554
0.183290
0.039813
0.045513
0.046117
-0.115479
-0.104271
-0.104413
-0.166498
-0.165414
-0.163755
0.126164
0.125353
0.130510
0.162986
0.166349
0.166847
0.170840
0.120930
-0.167365
-0.168919
-0.170063
-0.066485
-0.071782
-0.068107
0.148106
0.150895
0.148612
0.152731
0.145119
0.145651
0.141200
-0.133416
-0.139903
-0.138564
0.096190
-0.216778
-0.210157
-0.215501
-0.168521
-0.125490
-0.125090
-0.120113
-0.155541
-0.151775
-0.157809
-0.119377
0.150750
0.156357
-0.068625
-0.081553
-0.078706
-0.087749
-0.093041
-0.097550
-0.134915
-0.139730
-0.140221
-0.143500
-0.102217
0.099625
0.101751
0.103351
-0.195274
-0.198963
-0.197292
-0.148596
-0.148980
-0.144101
-0.163873
-0.165131
-0.165185
-0.166519
0.153616
0.186131
0.179694
0.186391
0.182070
-0.145912
-0.147078
-0.149692
0.184628
-0.153842
-0.151646
-0.021679
-0.016693
0.132238
0.133115
0.131197
0.141015
0.141314
0.144170
0.131830
0.147518
0.146850
-0.172580
-0.177117
-0.176398
-0.180670
-0.114902
-0.113287
-0.115925
0.055367
0.050271
0.045423
0.103360
0.100712
0.109977
-0.057822
-0.051063
-0.052749
-0.056560
0.103325
0.156649
0.156821
0.154974
0.031950
0.029610
0.034946
-0.057770
-0.056134
-0.069104
-0.172921
-0.176063
-0.171679
-0.118602
-0.174860
0.155321
-0.037380
-0.036874
-0.031561
0.032708
0.037854
0.037148
-0.097460
-0.092945
-0.086594
-0.082654
-0.170407
-0.173546
0.131971
0.137409
0.135641
0.118360
0.117472
0.131736
0.128900
-0.173379
-0.178000
-0.177504
-0.183160
0.137517
0.139112
0.139598
0.137481
-0.160710
-0.145945
-0.152602
0.137477
0.138342
0.140865
-0.159461
0.145539
0.143003
0.143630
0.149136
-0.142872
-0.144137
-0.142339
-0.141966
-0.142776
-0.146558
-0.151332
-0.149271
-0.156942
-0.158796
-0.162071
-0.154636
0.094316
0.096449
0.094089
0.155136
0.155582
0.158681
-0.130905
-0.132110
-0.128696
0.152982
-0.126536
-0.125179
-0.128569
-0.156472
-0.160449
-0.157438
0.177343
0.175917
-0.166196
-0.168967
-0.161956
-0.165259
0.034912
0.031052
0.029032
-0.162189
0.092508
0.094589
0.096227
0.061178
0.051256
0.053789
0.031231
0.030961
0.035650
-0.188825
-0.184672
-0.183749
0.041983
0.173936
0.177308
0.173371
0.027994
0.026076
0.019236
-0.034175
-0.038565
-0.040031
-0.033812
0.012290
0.006921
-0.127741
-0.127210
-0.124762
-0.014920
-0.012363
-0.009432
0.126227
0.129512
-0.050826
-0.055385
-0.060387
-0.007585
-0.123783
0.002896
0.006783
-0.144066
-0.148514
-0.146380
-0.149946
-0.181846
-0.191964
-0.193500
-0.179955
-0.125849
-0.130630
-0.126111
0.048447
0.046271
0.053230
-0.129701
-0.125543
-0.159816
-0.162373
-0.119553
0.121617
0.120611
0.119344
0.123103
0.082328
0.076347
0.076236
0.081826
0.070108
0.077759
0.070757
-0.173972
-0.179197
-0.177724
0.181246
0.180390
0.126798
0.129007
0.131607
0.133900
-0.173924
-0.170102
-0.166695
-0.167310
-0.166884
-0.163319
-0.163291
-0.149082
-0.146807
-0.148743
-0.146232
-0.130102
-0.122007
-0.135560
-0.135700
-0.142082
0.109924
0.107472
0.112375
0.110170
-0.199141
-0.189696
-0.195830
0.109956
0.106200
0.177968
0.106769
-0.203653
-0.208523
-0.206423
0.178845
0.122958
0.105233
0.110497
-0.211718
0.109388
-0.183126
-0.158537
-0.035142
-0.031790
-0.028862
-0.159907
-0.144692
-0.146443
-0.146817
-0.148437
-0.129497
-0.127839
-0.134107
-0.128883
0.169407
0.168489
0.171399
0.169002
-0.140903
-0.143600
-0.141392
-0.144306
0.131511
0.132517
0.137290
0.136382
-0.137988
-0.139004
-0.165972
-0.164548
0.124621
0.121879
0.124785
0.122524
0.123927
0.119994
-0.151359
-0.151809
-0.071637
-0.068578
-0.074341
-0.068304
0.123621
-0.125360
-0.129194
-0.132842
-0.116265
-0.010032
-0.006245
-0.006263
0.113901
0.107404
-0.002910
-0.114378
-0.114883
-0.110282
-0.111901
-0.040843
-0.045237
-0.010097
-0.015782
0.101482
0.098355
-0.017326
-0.151722
-0.144396
-0.147298
-0.134681
0.136525
0.141189
0.140237
0.144878
0.076699
0.084227
0.123555
0.123435
0.128712
-0.149372
-0.144804
-0.144942
0.163259
0.162774
0.166321
0.091558
0.092303
0.166487
0.129365
0.126445
0.136138
0.006016
0.006673
0.011342
0.099254
-0.132133
-0.134747
0.101107
0.106106
0.108762
0.140679
0.138472
0.141855
-0.201011
-0.202962
0.138003
-0.178390
-0.181256
-0.177756
0.154222
0.149602
0.081776
0.074598
0.087605
-0.160120
-0.159500
-0.161009
-0.160217
-0.171589
-0.170203
-0.086474
-0.085576
-0.097625
-0.145387
-0.146891
-0.150042
-0.151274
-0.121580
-0.121447
0.042058
0.047650
0.040229
0.133776
0.135131
0.110044
0.113791
0.108339
0.133807
0.135025
0.132954
0.133978
-0.044352
-0.036932
-0.034235
-0.134296
-0.141061
-0.138440
-0.147616
-0.127765
-0.130801
-0.122427
0.120638
0.124310
0.125501
0.121424
0.211271
0.206080
0.208700
-0.147054
-0.148688
-0.148290
-0.076173
-0.084145
-0.078545
-0.148021
-0.126374
-0.120450
-0.124085
-0.123655
-0.036907
-0.032018
-0.031442
-0.133773
-0.141008
-0.200154
-0.196066
-0.198455
0.153524
0.152075
0.156496
-0.140064
0.161599
-0.144107
-0.143479
0.112819
0.117596
0.114812
0.116363
0.117991
0.108507
0.114858
0.201349
0.196614
0.197754
0.193502
0.181369
0.183936
0.183974
-0.171014
-0.171411
-0.172871
0.186642
-0.172909
-0.168729
-0.167833
-0.128073
-0.120952
-0.133139
-0.100739
-0.089259
-0.093458
0.175548
0.175444
0.173014
0.171337
-0.099401
0.113699
0.111527
0.126400
0.106212
0.104151
0.106388
0.103823
-0.101868
-0.103862
-0.099688
-0.105800
-0.124021
-0.120933
-0.119399
0.080303
0.078594
0.074958
0.073853
-0.150823
-0.152592
-0.152037
0.194313
-0.154077
0.190032
-0.149278
-0.146236
-0.104396
-0.098953
0.006737
-0.000269
-0.086726
-0.084336
-0.078502
0.040630
0.037673
-0.173543
-0.177315
-0.176540
-0.181145
0.034996
0.040439
0.037176
0.050806
0.050818
0.054241
0.117280
0.119186
0.113205
0.124331
-0.083476
-0.106337
-0.039495
-0.046783
-0.041679
-0.047650
0.023206
0.026812
0.034527
0.032623
0.031078
0.029345
0.089343
0.092503
0.094153
0.032559
0.019370
0.019075
0.088411
-0.027817
-0.032863
-0.026656
-0.031579
0.097936
0.095952
0.082005
0.101286
-0.153677
-0.147663
-0.149759
-0.142472
-0.208302
-0.209668
-0.215487
-0.204258
0.030292
0.138074
0.136619
0.136823
0.135306
-0.204483
-0.201552
0.135083
-0.195158
-0.137443
-0.136994
-0.139546
-0.138570
-0.121700
-0.117902
-0.124651
0.113225
-0.024393
-0.024702
-0.030948
-0.114039
-0.111116
0.119836
0.118174
0.118847
-0.129383
-0.131526
0.159847
0.155093
0.157053
0.202390
0.198189
-0.133906
-0.126535
-0.205135
-0.202718
-0.105862
-0.104363
-0.107364
-0.102328
-0.001490
-0.006195
-0.000409
-0.006519
-0.124817
-0.108030
-0.109913
0.028044
-0.110781
-0.138789
-0.135951
-0.136013
-0.000561
-0.006048
-0.058630
-0.052456
-0.056519
-0.049741
0.119431
0.121528
0.118622
0.122170
0.139881
0.141389
0.142351
0.139307
-0.051869
-0.055364
-0.058005
0.073647
0.071397
0.075889
-0.029361
-0.036641
0.069794
-0.112152
-0.111326
-0.203010
-0.191477
-0.108727
-0.114208
-0.198511
-0.113676
0.222047
0.228198
0.225104
0.196460
0.124901
0.128908
0.131892
-0.154865
-0.148409
-0.152971
-0.074149
-0.074573
-0.077371
-0.076989
0.182616
0.138139
0.139992
0.140657
-0.164362
-0.195816
-0.194377
-0.192563
-0.197887
0.152284
0.153967
-0.199367
-0.201887
-0.199052
-0.064865
0.149653
0.150452
0.152863
0.171170
0.167007
0.169599
0.150287
-0.100364
-0.103625
-0.102143
-0.102475
-0.072623
-0.069826
-0.071755
-0.180205
-0.184568
0.201046
0.197350
0.192282
-0.113867
-0.109825
-0.104576
0.205105
0.208263
0.204731
0.007210
0.001748
-0.099588
-0.068355
-0.077745
-0.073371
-0.065402
0.125916
0.117418
0.128970
-0.021798
-0.031445
-0.045042
0.038708
0.042456
0.040268
-0.080683
-0.076310
-0.075464
0.047424
0.043804
0.049119
0.045230
0.031224
0.036601
-0.072628
-0.072915
-0.065338
-0.065831
-0.218389
-0.225178
-0.214373
-0.231455
-0.144828
-0.149335
-0.146304
-0.214060
-0.138046
0.092499
0.090667
0.093955
0.090291
0.136043
0.209282
0.203977
0.134622
0.178349
0.180653
0.041332
0.046160
0.135696
-0.063177
0.133370
0.113977
0.112700
0.114779
0.175903
0.176047
0.155511
0.150831
0.170388
0.166844
0.185028
0.189037
0.114037
0.171140
0.116317
0.114682
0.068447
0.066708
0.070112
-0.230638
-0.230310
-0.234586
-0.226082
0.064863
0.136840
0.135407
0.131151
0.133412
0.138833
-0.131231
-0.133692
-0.200984
-0.195764
-0.128723
-0.174968
-0.153452
0.130237
0.130662
0.131583
0.129129
0.132744
0.192938
0.196820
0.037301
0.037947
0.132114
0.128677
0.131624
0.128011
0.130425
-0.151356
-0.143013
-0.068424
-0.068838
-0.149056
-0.148009
-0.162279
-0.178722
-0.079062
-0.073265
-0.177327
-0.175837
-0.179825
-0.174726
0.017848
0.020386
-0.147304
-0.143097
-0.143676
-0.153779
-0.152504
-0.037452
-0.070252
-0.151162
-0.150188
-0.154506
-0.155504
0.137330
0.140758
-0.155734
0.128930
0.129074
0.130436
0.126004
-0.112056
0.181394
-0.169048
-0.171876
-0.113558
-0.111454
-0.106245
0.031246
0.037493
0.037658
-0.165380
-0.166075
-0.000929
0.001512
0.004473
0.158011
0.158328
0.155901
0.156850
0.137666
0.138985
0.137280
0.139426
0.135674
0.130987
0.129119
-0.153315
-0.152607
0.109533
0.109717
0.111635
-0.008205
0.000072
-0.006430
-0.003139
0.107836
-0.198752
-0.204642
0.206107
0.209141
-0.158657
-0.154519
-0.223877
-0.218880
-0.217355
0.146232