# vtk DataFile Version 2.0
Test
ASCII
DATASET POLYDATA
POINTS 6352 float
0.000000 0.000000 0.000000
1.000000 0.000000 0.000000
1.000000 0.800000 0.000000
1.000000 1.000000 0.000000
0.000000 1.000000 0.000000
0.000000 0.200000 0.000000
0.300000 0.330000 0.000000
0.700000 0.680000 0.000000
0.050000 0.000000 0.000000
0.100000 0.000000 0.000000
0.150000 0.000000 0.000000
0.200000 0.000000 0.000000
0.250000 0.000000 0.000000
0.300000 0.000000 0.000000
0.350000 0.000000 0.000000
0.400000 0.000000 0.000000
0.450000 0.000000 0.000000
0.500000 0.000000 0.000000
0.550000 0.000000 0.000000
0.600000 0.000000 0.000000
0.650000 0.000000 0.000000
0.700000 0.000000 0.000000
0.750000 0.000000 0.000000
0.800000 0.000000 0.000000
0.850000 0.000000 0.000000
0.900000 0.000000 0.000000
0.950000 0.000000 0.000000
1.000000 0.048545 0.000000
1.000000 0.094438 0.000000
1.000000 0.137825 0.000000
1.000000 0.178843 0.000000
1.000000 0.217620 0.000000
1.000000 0.254280 0.000000
1.000000 0.288938 0.000000
1.000000 0.321703 0.000000
1.000000 0.352678 0.000000
1.000000 0.381962 0.000000
1.000000 0.409647 0.000000
1.000000 0.435820 0.000000
1.000000 0.460563 0.000000
1.000000 0.483955 0.000000
1.000000 0.506070 0.000000
1.000000 0.526976 0.000000
1.000000 0.546741 0.000000
1.000000 0.565427 0.000000
1.000000 0.583092 0.000000
1.000000 0.599793 0.000000
1.000000 0.615581 0.000000
1.000000 0.630507 0.000000
1.000000 0.644618 0.000000
1.000000 0.657958 0.000000
1.000000 0.670570 0.000000
1.000000 0.682493 0.000000
1.000000 0.693765 0.000000
1.000000 0.704421 0.000000
1.000000 0.714495 0.000000
1.000000 0.724019 0.000000
1.000000 0.733023 0.000000
1.000000 0.741536 0.000000
1.000000 0.749583 0.000000
1.000000 0.757191 0.000000
1.000000 0.764383 0.000000
1.000000 0.771183 0.000000
1.000000 0.777611 0.000000
1.000000 0.783688 0.000000
1.000000 0.789434 0.000000
1.000000 0.794865 0.000000
1.000000 0.805174 0.000000
1.000000 0.811554 0.000000
1.000000 0.819418 0.000000
1.000000 0.829114 0.000000
1.000000 0.841067 0.000000
1.000000 0.855804 0.000000
1.000000 0.873972 0.000000
1.000000 0.896371 0.000000
1.000000 0.923985 0.000000
1.000000 0.958029 0.000000
0.950000 1.000000 0.000000
0.900000 1.000000 0.000000
0.850000 1.000000 0.000000
0.800000 1.000000 0.000000
0.750000 1.000000 0.000000
0.700000 1.000000 0.000000
0.650000 1.000000 0.000000
0.600000 1.000000 0.000000
0.550000 1.000000 0.000000
0.500000 1.000000 0.000000
0.450000 1.000000 0.000000
0.400000 1.000000 0.000000
0.350000 1.000000 0.000000
0.300000 1.000000 0.000000
0.250000 1.000000 0.000000
0.200000 1.000000 0.000000
0.150000 1.000000 0.000000
0.100000 1.000000 0.000000
0.050000 1.000000 0.000000
0.000000 0.951455 0.000000
0.000000 0.905562 0.000000
0.000000 0.862175 0.000000
0.000000 0.821157 0.000000
0.000000 0.782380 0.000000
0.000000 0.745720 0.000000
0.000000 0.711062 0.000000
0.000000 0.678297 0.000000
0.000000 0.647322 0.000000
0.000000 0.618038 0.000000
0.000000 0.590353 0.000000
0.000000 0.564180 0.000000
0.000000 0.539437 0.000000
0.000000 0.516045 0.000000
0.000000 0.493930 0.000000
0.000000 0.473024 0.000000
0.000000 0.453259 0.000000
0.000000 0.434573 0.000000
0.000000 0.416908 0.000000
0.000000 0.400207 0.000000
0.000000 0.384419 0.000000
0.000000 0.369493 0.000000
0.000000 0.355382 0.000000
0.000000 0.342042 0.000000
0.000000 0.329430 0.000000
0.000000 0.317507 0.000000
0.000000 0.306235 0.000000
0.000000 0.295579 0.000000
0.000000 0.285505 0.000000
0.000000 0.275981 0.000000
0.000000 0.266977 0.000000
0.000000 0.258464 0.000000
0.000000 0.250417 0.000000
0.000000 0.242809 0.000000
0.000000 0.235617 0.000000
0.000000 0.228817 0.000000
0.000000 0.222389 0.000000
0.000000 0.216312 0.000000
0.000000 0.210566 0.000000
0.000000 0.205135 0.000000
0.000000 0.194826 0.000000
0.000000 0.188446 0.000000
0.000000 0.180582 0.000000
0.000000 0.170886 0.000000
0.000000 0.158933 0.000000
0.000000 0.144196 0.000000
0.000000 0.126028 0.000000
0.000000 0.103629 0.000000
0.000000 0.076015 0.000000
0.000000 0.041971 0.000000
0.303738 0.333271 0.000000
0.307477 0.336542 0.000000
0.311215 0.339813 0.000000
0.314953 0.343084 0.000000
0.318692 0.346355 0.000000
0.322430 0.349626 0.000000
0.326168 0.352897 0.000000
0.329907 0.356168 0.000000
0.333645 0.359439 0.000000
0.337383 0.362710 0.000000
0.341121 0.365981 0.000000
0.344860 0.369252 0.000000
0.348598 0.372523 0.000000
0.352336 0.375794 0.000000
0.356075 0.379065 0.000000
0.359813 0.382336 0.000000
0.363551 0.385607 0.000000
0.367290 0.388879 0.000000
0.371028 0.392150 0.000000
0.374766 0.395421 0.000000
0.378505 0.398692 0.000000
0.382243 0.401963 0.000000
0.385981 0.405234 0.000000
0.389720 0.408505 0.000000
0.393458 0.411776 0.000000
0.397196 0.415047 0.000000
0.400935 0.418318 0.000000
0.404673 0.421589 0.000000
0.408411 0.424860 0.000000
0.412150 0.428131 0.000000
0.415888 0.431402 0.000000
0.419626 0.434673 0.000000
0.423364 0.437944 0.000000
0.427103 0.441215 0.000000
0.430841 0.444486 0.000000
0.434579 0.447757 0.000000
0.438318 0.451028 0.000000
0.442056 0.454299 0.000000
0.445794 0.457570 0.000000
0.449533 0.460841 0.000000
0.453271 0.464112 0.000000
0.457009 0.467383 0.000000
0.460748 0.470654 0.000000
0.464486 0.473925 0.000000
0.468224 0.477196 0.000000
0.471963 0.480467 0.000000
0.475701 0.483738 0.000000
0.479439 0.487009 0.000000
0.483178 0.490280 0.000000
0.486916 0.493551 0.000000
0.490654 0.496822 0.000000
0.494393 0.500093 0.000000
0.498131 0.503364 0.000000
0.501869 0.506636 0.000000
0.505607 0.509907 0.000000
0.509346 0.513178 0.000000
0.513084 0.516449 0.000000
0.516822 0.519720 0.000000
0.520561 0.522991 0.000000
0.524299 0.526262 0.000000
0.528037 0.529533 0.000000
0.531776 0.532804 0.000000
0.535514 0.536075 0.000000
0.539252 0.539346 0.000000
0.542991 0.542617 0.000000
0.546729 0.545888 0.000000
0.550467 0.549159 0.000000
0.554206 0.552430 0.000000
0.557944 0.555701 0.000000
0.561682 0.558972 0.000000
0.565421 0.562243 0.000000
0.569159 0.565514 0.000000
0.572897 0.568785 0.000000
0.576636 0.572056 0.000000
0.580374 0.575327 0.000000
0.584112 0.578598 0.000000
0.587850 0.581869 0.000000
0.591589 0.585140 0.000000
0.595327 0.588411 0.000000
0.599065 0.591682 0.000000
0.602804 0.594953 0.000000
0.606542 0.598224 0.000000
0.610280 0.601495 0.000000
0.614019 0.604766 0.000000
0.617757 0.608037 0.000000
0.621495 0.611308 0.000000
0.625234 0.614579 0.000000
0.628972 0.617850 0.000000
0.632710 0.621121 0.000000
0.636449 0.624393 0.000000
0.640187 0.627664 0.000000
0.643925 0.630935 0.000000
0.647664 0.634206 0.000000
0.651402 0.637477 0.000000
0.655140 0.640748 0.000000
0.658879 0.644019 0.000000
0.662617 0.647290 0.000000
0.666355 0.650561 0.000000
0.670093 0.653832 0.000000
0.673832 0.657103 0.000000
0.677570 0.660374 0.000000
0.681308 0.663645 0.000000
0.685047 0.666916 0.000000
0.688785 0.670187 0.000000
0.692523 0.673458 0.000000
0.696262 0.676729 0.000000
0.004545 0.201970 0.000000
0.009091 0.203939 0.000000
0.013636 0.205909 0.000000
0.018182 0.207879 0.000000
0.022727 0.209848 0.000000
0.027273 0.211818 0.000000
0.031818 0.213788 0.000000
0.036364 0.215758 0.000000
0.040909 0.217727 0.000000
0.045455 0.219697 0.000000
0.050000 0.221667 0.000000
0.054545 0.223636 0.000000
0.059091 0.225606 0.000000
0.063636 0.227576 0.000000
0.068182 0.229545 0.000000
0.072727 0.231515 0.000000
0.077273 0.233485 0.000000
0.081818 0.235455 0.000000
0.086364 0.237424 0.000000
0.090909 0.239394 0.000000
0.095455 0.241364 0.000000
0.100000 0.243333 0.000000
0.104545 0.245303 0.000000
0.109091 0.247273 0.000000
0.113636 0.249242 0.000000
0.118182 0.251212 0.000000
0.122727 0.253182 0.000000
0.127273 0.255152 0.000000
0.131818 0.257121 0.000000
0.136364 0.259091 0.000000
0.140909 0.261061 0.000000
0.145455 0.263030 0.000000
0.150000 0.265000 0.000000
0.154545 0.266970 0.000000
0.159091 0.268939 0.000000
0.163636 0.270909 0.000000
0.168182 0.272879 0.000000
0.172727 0.274848 0.000000
0.177273 0.276818 0.000000
0.181818 0.278788 0.000000
0.186364 0.280758 0.000000
0.190909 0.282727 0.000000
0.195455 0.284697 0.000000
0.200000 0.286667 0.000000
0.204545 0.288636 0.000000
0.209091 0.290606 0.000000
0.213636 0.292576 0.000000
0.218182 0.294545 0.000000
0.222727 0.296515 0.000000
0.227273 0.298485 0.000000
0.231818 0.300455 0.000000
0.236364 0.302424 0.000000
0.240909 0.304394 0.000000
0.245455 0.306364 0.000000
0.250000 0.308333 0.000000
0.254545 0.310303 0.000000
0.259091 0.312273 0.000000
0.263636 0.314242 0.000000
0.268182 0.316212 0.000000
0.272727 0.318182 0.000000
0.277273 0.320152 0.000000
0.281818 0.322121 0.000000
0.286364 0.324091 0.000000
0.290909 0.326061 0.000000
0.295455 0.328030 0.000000
0.704615 0.681846 0.000000
0.709231 0.683692 0.000000
0.713846 0.685538 0.000000
0.718462 0.687385 0.000000
0.723077 0.689231 0.000000
0.727692 0.691077 0.000000
0.732308 0.692923 0.000000
0.736923 0.694769 0.000000
0.741538 0.696615 0.000000
0.746154 0.698462 0.000000
0.750769 0.700308 0.000000
0.755385 0.702154 0.000000
0.760000 0.704000 0.000000
0.764615 0.705846 0.000000
0.769231 0.707692 0.000000
0.773846 0.709538 0.000000
0.778462 0.711385 0.000000
0.783077 0.713231 0.000000
0.787692 0.715077 0.000000
0.792308 0.716923 0.000000
0.796923 0.718769 0.000000
0.801538 0.720615 0.000000
0.806154 0.722462 0.000000
0.810769 0.724308 0.000000
0.815385 0.726154 0.000000
0.820000 0.728000 0.000000
0.824615 0.729846 0.000000
0.829231 0.731692 0.000000
0.833846 0.733538 0.000000
0.838462 0.735385 0.000000
0.843077 0.737231 0.000000
0.847692 0.739077 0.000000
0.852308 0.740923 0.000000
0.856923 0.742769 0.000000
0.861538 0.744615 0.000000
0.866154 0.746462 0.000000
0.870769 0.748308 0.000000
0.875385 0.750154 0.000000
0.880000 0.752000 0.000000
0.884615 0.753846 0.000000
0.889231 0.755692 0.000000
0.893846 0.757538 0.000000
0.898462 0.759385 0.000000
0.903077 0.761231 0.000000
0.907692 0.763077 0.000000
0.912308 0.764923 0.000000
0.916923 0.766769 0.000000
0.921538 0.768615 0.000000
0.926154 0.770462 0.000000
0.930769 0.772308 0.000000
[...]
POINT_DATA 6352
SCALARS UX float 1
LOOKUP_TABLE default
-0.000018
0.000022
16.933983
-7.088313
-73.003031
-42.857814
-19.765443
-13.221722
0.000001
-0.000003
-0.000001
-0.000001
-0.000001
-0.000001
-0.000001
-0.000001
-0.000001
-0.000000
-0.000000
0.000000
0.000001
0.000000
0.000001
0.000002
0.000002
0.000004
-0.000004
3.605909
6.826509
8.967049
10.933683
12.126048
13.221797
14.229873
15.158986
16.009275
16.728793
17.254537
17.634372
17.853848
17.934447
17.911897
17.870187
17.859249
17.879628
17.930620
17.973591
18.068000
18.174657
18.301564
18.436688
18.517567
18.529536
18.466882
18.348424
18.199639
18.045164
17.882793
17.728300
17.586653
17.465234
17.361106
17.272639
17.193231
17.118884
17.050518
16.988037
16.854678
16.741752
16.492973
16.016128
15.124520
13.398029
10.709679
5.982610
0.847545
-4.449497
-11.970535
-14.971200
-18.202930
-21.486661
-25.057859
-28.395173
-31.365775
-33.792534
-36.048392
-38.178266
-40.235508
-42.494415
-45.743703
-49.679926
-53.997059
-58.949679
-62.945589
-66.442023
-70.072138
-71.595676
-70.015396
-68.278973
-66.216280
-64.363644
-62.767038
-61.367964
-60.163464
-59.116314
-58.117215
-57.202436
-56.372727
-55.582066
-54.838325
-54.114318
-53.392583
-52.639277
-51.901182
-51.177758
-50.447881
-49.756688
-49.101719
-48.486995
-47.909280
-47.371659
-46.877406
-46.423763
-46.007795
-45.628956
-45.276543
-44.964561
-44.679922
-44.420392
-44.180426
-43.961019
-43.766190
-43.612326
-43.450957
-43.285855
-43.090312
-42.595317
-42.224606
-41.606555
-41.001236
-40.177493
-38.248185
-35.576437
-30.720062
-22.748641
-12.253134
-19.636578
-19.486343
-19.408951
-19.318872
-19.313068
-19.321663
-19.275876
-19.264858
-19.237821
-19.346895
-19.392138
-19.448352
-19.439822
-19.363064
-19.407050
-19.388416
-19.309699
-19.400535
-19.377238
-19.275693
-19.557280
-19.430504
-19.279250
-19.151443
-19.181113
-19.305785
-19.013719
-18.909854
-18.640273
-18.586490
-18.567078
-18.472729
-18.291393
-18.231055
-18.184329
-17.964282
-17.597133
-18.160083
-18.136649
-18.063707
-17.846331
-17.973475
-17.919549
-18.224397
-18.091719
-18.036798
-17.900398
-17.752674
-17.672376
-17.566310
-17.381113
-17.255664
-16.890674
-16.759478
-16.616803
-16.473107
-16.499836
-16.476842
-16.244909
-15.939901
-16.129508
-16.029085
-15.915250
-15.546209
-14.932099
-14.746302
-15.180380
-14.583334
-14.306122
-14.397129
-14.389896
-14.324356
-14.506491
-14.073393
-14.482910
-14.602130
-14.330207
-13.997452
-14.725596
-14.468352
-14.483430
-14.487826
-14.269897
-14.352488
-14.274011
-14.283162
-14.293074
-14.353000
-14.351823
-14.833211
-14.655615
-14.539236
-14.415514
-14.605920
-15.022610
-15.158975
-14.705531
-14.384260
-14.283030
-14.157684
-13.929152
-13.624720
-13.468916
-13.581225
-13.501247
-13.350527
-42.649640
-42.388911
-42.064281
-41.766813
-41.477934
-41.222103
-40.976044
-40.733026
-40.495339
-40.258284
-40.119315
-39.970376
-39.807800
-39.696313
-39.586689
-39.484234
-39.370422
-39.251067
-39.132230
-38.993426
-38.844787
-38.662650
-38.508715
-38.330145
-38.189278
-38.152498
-37.935000
-37.746388
-37.593716
-37.483117
-37.339727
-37.199916
-36.949381
-36.688972
-36.405452
-36.139226
-35.843581
-35.530326
-35.213728
-34.868390
-34.497869
-34.107292
-33.671267
-33.205870
-32.727423
-32.260683
-31.850948
-31.426421
-30.995333
-30.565409
-30.124368
-29.694457
-29.208874
-28.679129
-28.087306
-27.558340
-27.022083
-26.336581
-25.648933
-24.983888
-24.266930
-23.545880
-22.672697
-21.753968
-20.784665
-11.674608
-10.170662
-8.744722
-7.576874
-6.372583
-6.052411
-4.448503
-3.103212
-2.024964
-0.790860
0.611637
0.807616
0.845684
0.752934
1.911027
2.890087
3.716719
4.381907
4.928562
5.331279
5.656137
5.978652
6.260914
6.554721
6.886628
7.268071
7.652787
8.045356
8.416714
8.881506
9.290047
9.741765
10.220358
10.549090
10.845003
11.144570
11.413083
11.701745
11.956373
12.144964
12.138067
12.169190
12.172203
12.156581
12.135251
12.115375
12.102963
12.506698
12.883277
13.094472
13.335739
13.558977
13.787766
14.039085
14.285257
14.536207
14.798747
15.059822
15.313742
15.576060
15.837558
16.099281
16.368593
16.646776
3.761677
3.975575
4.631034
3.274473
0.100916
0.083522
0.242219
0.095118
-27.470952
-28.115994
-24.014144
-25.202031
-19.862388
-26.073829
-46.548769
-45.582712
-46.424387
-45.590566
-25.757411
-3.421198
-2.819564
-2.914337
-2.446107
-23.283741
-23.192221
-22.163096
-24.776623
-6.264766
-6.309043
-5.621430
-29.375968
-28.482338
-30.140631
-28.767557
11.845939
11.750302
12.212781
11.288824
-2.163508
-2.630343
-1.963373
-2.902063
-41.989456
-41.855811
-42.516298
-39.967890
-40.033730
-39.567746
-39.372602
-39.252532
-39.578602
8.938077
10.301452
9.395353
10.242940
-4.426750
-4.021358
-4.179491
-14.628591
-15.032164
-11.579112
10.956048
12.028376
11.665611
-31.114770
-32.322878
-31.651191
-25.071946
-23.067386
-22.178136
10.973759
11.185399
10.949007
-32.294065
-38.673708
-38.765834
-38.153696
-4.296225
-5.004521
-4.833970
-4.742071
-1.229821
-1.656658
-1.538007
-20.659028
-22.659679
-23.327661
-1.605203
1.706504
2.709788
1.947824
-19.648368
-20.805333
-19.023580
2.749837
3.081277
1.824040
-1.527398
-1.461128
-1.178376
-22.239788
-23.056888
-22.123686
-1.802613
-2.108357
-1.684620
-2.058073
-20.296701
-38.954293
-39.360543
-38.998873
-1.644921
3.105767
2.771481
3.283293
-6.761574
-6.940525
-5.952798
8.755115
8.675645
8.494063
8.455060
8.236617
8.204699
-45.898153
-47.913069
-45.428169
-47.056528
-3.794997
-3.130082
-3.393994
3.246773
10.703770
-2.832465
-50.487007
-49.506151
-50.603731
-37.580848
-38.045584
-37.605553
-9.806458
-8.221223
-7.709401
-49.304656
3.906295
3.609866
3.933399
3.263567
-21.739209
-20.342070
-20.269101
-6.362307
-36.782632
-36.729345
-36.459561
-7.266993
-7.576267
-6.969563
-7.262610
7.724116
7.435816
7.337953
-18.086980
3.290037
2.943575
2.172282
-45.615202
-45.238438
-44.766815
7.504773
8.042579
7.586736
7.888241
-38.751278
-38.446045
-38.749053
-38.377707
-9.297415
-8.447187
-9.081359
7.038208
-25.948159
-27.136803
-23.102299
-8.309345
-23.296240
-25.091296
-27.969332
-23.520619
12.241333
12.859744
-28.286248
12.466829
-36.782022
-36.492800
-36.292677
-36.916697
-5.840496
-6.156359
-6.807069
-10.447301
-36.985345
-23.262053
-36.777551
-36.870774
-37.072195
-36.527362
0.195469
-0.094366
-0.193154
-0.420807
-37.865425
-37.816461
-5.152206
-37.238861
-37.332674
-37.876062
-37.708418
-7.620380
-7.189793
-7.210168
8.190674
8.128892
7.818004
-7.709816
8.445966
-17.443168
-15.538741
-14.717793
9.777638
9.813320
9.690165
-13.241965
-31.586101
-31.939255
-32.056042
9.953063
-32.395826
-40.760435
-40.116794
-40.320124
-31.271638
-31.165948
-30.899993
-39.716851
3.966645
3.545076
3.103647
-3.950661
-4.096717
-3.570679
-6.528346
-6.729260
-5.716552
-33.869631
-33.449626
-34.079208
2.314991
2.469365
2.169571
2.737382
-4.937733
-5.065410
-4.617897
-3.815728
2.815123
-3.158025
-3.389000
-3.413626
5.423066
6.053924
5.902653
6.633388
6.818656
7.118583
6.741673
7.124232
15.872225
15.114461
15.156914
-24.776044
-23.650663
-21.137893
-28.264384
14.392127
-6.601332
-5.600451
-6.623316
-33.289561
-32.878390
-33.370198
3.648608
3.515526
3.977569
15.659572
16.543273
3.283456
-53.147638
-53.547928
-52.177279
14.015168
14.021076
13.742951
13.537818
-24.447730
-22.090288
2.295938
2.041130
1.753810
-35.648290
-36.076945
-36.681751
-36.866250
9.599126
-32.458557
9.135539
9.440055
-35.239790
-35.764210
-35.400403
-35.768219
-35.267737
-35.769539
-35.326045
-40.047684
-40.467193
-40.315185
-40.766886
-39.670382
-39.673347
-39.329950
-35.967547
-35.866411
-35.911937
-41.059990
-40.710143
-41.135397
-35.046373
-7.511591
-8.181619
-7.623740
-3.089883
-3.394443
-40.299239
-40.094414
-39.644041
-40.711325
-37.993084
-38.272809
-37.896368
-38.211793
-34.075155
-35.255905
-34.378673
-35.708666
-44.948732
-45.559088
-45.914882
-38.926350
-44.665091
-16.052464
-16.465408
-14.509112
-28.637749
-29.195759
-24.340669
-30.341622
8.497658
8.933979
8.591636
8.979455
-40.260846
-40.661439
6.835738
6.818454
5.839390
-36.862223
-36.605373
5.969293
10.818082
10.753865
10.965147
10.896626
10.909457
10.707423
10.772214
-37.105405
-1.325468
-1.460254
-0.926624
-1.302955
8.583067
8.597246
9.110382
-31.551810
-29.145949
-30.173990
-27.805745
11.565087
11.483150
11.790788
11.150119
-57.637839
-56.539149
-56.950080
-56.016969
-38.918501
-39.293098
-11.195808
-9.912844
-14.283816
-14.927645
-49.559112
-47.847905
-48.061450
-46.506765
10.368756
10.473141
9.715110
9.904871
9.641949
-21.816968
-20.818857
-23.183361
9.480123
10.009067
10.177904
-13.028820
-14.400711
-10.924621
8.476013
8.050807
8.792365
7.764424
9.171220
9.116018
8.627042
-1.324257
-0.958424
-38.860813
-39.252297
-38.699275
-26.374586
-26.016572
-25.507209
4.211381
4.637342
-37.417049
-37.298525
-36.543834
-36.704251
-36.848520
-36.580861
-35.631415
12.995447
-24.263369
-25.701825
-23.936803
13.718855
-39.141035
-39.344952
-38.862710
-18.739906
-19.467326
-20.928147
-37.105322
-12.698124
-14.038745
-20.997814
-39.021953
-31.058780
-33.375239
-33.533588
-1.421262
-1.561463
-2.123079
10.684527
11.077064
10.396931
-34.748088
-34.723841
-39.794479
-40.239287
-27.403120
-26.804188
-29.124618
-40.810406
-29.101723
-27.409559
-26.668381
-25.778847
-37.043686
-36.829095
-36.457020
-37.397925
-31.838862
-32.979583
-33.347214
-35.146678
-29.923847
-31.627015
-32.616911
5.926076
6.155136
6.549302
-0.584599
-1.137643
-0.582311
-39.980741
-40.483563
-29.048913
6.701407
-38.024203
-37.724674
-38.673322
-36.912906
-55.243425
-54.414634
-54.796086
-53.979082
-24.863731
-24.811149
-25.371978
-42.652369
-42.173371
-43.303629
-42.672431
-51.597866
-50.566309
-51.809998
5.405170
6.597190
6.271461
-43.036890
-42.139411
-38.327159
-38.626643
-38.785859
-16.214734
-12.743684
-13.329793
-39.024239
-42.225400
-33.942888
-32.774442
11.495062
11.879231
11.689038
-9.183325
-10.231244
-6.591878
-36.977166
-36.950351
-36.681580
-32.838072
-34.414360
-34.564603
-38.377806
-38.692648
-38.213796
-32.913649
-35.322423
-34.166262
-3.370801
-3.456141
-3.873531
-26.774428
-25.928497
-2.945562
-34.604120
-35.076186
-39.812433
-39.561842
-39.942983
-25.841666
-26.359392
-26.340296
-25.895074
-24.134658
-23.413169
-24.293059
-22.926697
-40.893333
-40.313822
-40.345550
-39.865362
-20.971460
-18.090993
-22.270916
9.218099
8.884435
9.266837
9.042143
-35.295714
-35.916673
-35.191425
-35.550664
-32.655662
-35.028041
-36.053726
-33.556234
-35.015090
-35.143841
12.504873
11.526670
12.542680
11.610168
-39.854542
-40.257717
-40.961046
11.927177
12.344953
12.909818
1.025337
1.400857
0.941343
1.598901
-45.227469
-44.441560
-44.055450
-40.909771
-41.604542
-41.340344
-42.172869
11.560765
11.590174
11.620547
-28.638307
-28.990975
-29.194110
2.327459
2.610371
3.173970
3.656032
2.520089
1.863813
1.612822
-6.241501
-5.949617
-6.576001
-4.931992
-4.865511
-5.367208
-5.736382
-41.209653
-41.554660
-41.164659
-5.718841
-5.915278
-6.228696
-28.170558
-28.214899
-39.863997
-39.433459
-39.355312
14.531632
14.933045
14.664453
-38.876534
-27.778808
2.325585
-3.768594
-0.271130
-38.396037
-38.763399
-39.113757
-36.997183
-37.297507
-37.239792
-37.179918
-37.910056
11.179412
12.234656
11.700297
-44.263025
-45.126665
-44.998889
-45.508645
-36.188672
-36.345039
-35.577168
-36.792028
-29.711861
-30.203633
-29.782995
-30.256961
9.434704
10.164508
11.071241
8.335534
10.917726
11.639937
10.358168
10.401908
10.551142
15.340583
15.947786
16.024345
10.587061
9.525309
9.266021
9.806376
6.762498
7.027658
-31.422778
-30.972727
4.789671
-10.846289
-11.370468
-11.972203
-13.047407
-36.893957
-38.054047
-37.928329
-37.364294
5.431335
5.123771
4.922308
4.572629
-47.072987
-46.290413
-46.164316
-10.780307
-9.326014
-10.041349
-7.255641
-6.585887
-5.310550
-9.153416
-30.773111
-27.632563
-30.312577
10.331220
10.139632
10.118117
-1.397171
-0.987202
-5.143943
-24.467281
-31.037368
-27.572133
-28.569708
8.150224
8.571135
8.100560
-28.997547
-2.536965
-28.848457
-30.388741
-28.818065
-30.312391
-8.986828
-9.957271
8.645274
9.054752
-49.877930
-48.821079
-24.423046
-23.523980
-24.357777
-23.074082
-5.082395
-5.789688
-5.435904
-5.926212
-5.523770
-6.245612
-3.187453
1.484575
-1.799354
-5.353507
-25.136652
-27.591366
-24.506055
12.487524
12.233361
12.816005
-8.933281
-7.692201
-8.027570
-31.043504
-28.349555
-28.712056
-35.151777
-34.525340
-33.599163
4.624550
4.869253
6.635627
10.074673
10.206238
10.290713
10.429309
1.567544
-35.531363
-35.995276
-36.435746
-32.146282
-32.753587
-32.844478
5.697900
6.026029
6.354344
6.559798
5.603120
5.044786
4.702181
-33.987062
-36.033987
-35.678504
-3.272669
-44.785538
-43.959286
-44.607467
-39.184029
-29.322138
-29.446948
-27.176859
-37.637098
-36.881017
-37.786199
-27.035524
8.045041
8.153075
-14.464551
-16.650550
-15.841746
-11.390491
-13.532326
-15.473569
-31.173888
-33.080684
-32.816692
-34.696982
-17.898621
-1.039353
-0.509960
-0.828272
-44.590038
-45.008192
-44.187888
-34.421275
-34.658335
-33.103129
-35.388885
-36.024435
-35.930357
-36.256349
11.272308
12.719444
11.462263
11.809661
11.118464
-36.958605
-37.124783
-37.669844
12.254010
-38.387860
-38.097005
-2.000910
-1.712223
0.877323
0.867139
0.299301
8.488167
8.293625
8.835338
0.248252
9.170859
9.320858
-40.110397
-40.444217
-40.462437
-40.734426
-34.086376
-34.243820
-34.743052
-8.016098
-9.118213
-9.445795
2.381792
2.356352
3.471894
-33.063113
-32.385848
-33.267738
-32.177032
2.899159
5.915144
6.135666
5.648654
-5.367966
-4.983537
-4.916313
-12.186722
-13.454530
-15.471626
-38.426859
-38.830048
-38.416864
-26.249522
-38.893435
6.089607
-29.758740
-29.224420
-29.282320
-24.875957
-24.268229
-24.445156
-15.808394
-14.262273
-12.360778
-10.973560
-37.936920
-38.227318
6.692468
7.563006
7.111203
-8.659138
-8.836046
-4.218943
-4.934012
-39.847792
-40.229348
-40.252890
-40.758058
-2.050567
-0.852911
-1.025035
-1.266209
-56.339701
-53.848573
-55.914015
7.539708
7.499181
8.053799
-55.159569
8.595146
8.377710
7.090558
7.517965
-37.759472
-37.509940
-37.381839
-35.233017
-35.230981
-36.314084
-37.209278
-37.030359
-38.848248
-38.991308
-39.328459
-38.559919
-3.827949
-3.811122
-4.073823
11.360493
11.078745
11.275215
-40.057122
-39.611711
-39.469962
11.092176
-39.780540
-40.148978
-40.323598
-31.864426
-34.580337
-32.102520
14.883021
14.654556
-35.514218
-36.169348
-35.477731
-35.369701
-24.976037
-25.740483
-25.754928
-34.862916
-3.782240
-3.564597
-3.632408
1.131128
0.735284
1.036266
-3.724068
-3.255980
-3.689295
-41.549153
-41.140745
-41.021076
0.648614
12.826141
12.999034
12.958363
-20.858159
-21.968673
-22.542433
-26.100193
-27.274577
-26.843835
-26.452425
-2.871504
-3.037755
-38.945543
-38.444299
-38.718698
-7.602027
-7.037778
-7.701429
2.111501
2.606708
-34.331329
-35.432768
-35.061944
-6.999163
-38.171033
-24.834641
-24.238410
-32.076481
-34.145498
-32.676901
-34.321348
-54.309319
-55.521019
-54.601631
-55.443270
-43.295612
-43.372865
-42.743650
-4.496379
-3.937884
-4.145944
-42.642754
-44.028208
-39.326621
-39.852559
-43.539816
0.139293
-0.292281
-0.228889
0.042975
1.105539
0.670626
0.914095
0.813121
0.754408
1.234439
0.993489
-45.664516
-46.306426
-45.483600
15.954439
15.737201
4.405014
4.797799
5.892294
6.412230
-44.958072
-44.453102
-37.245426
-37.125979
-36.761291
-41.850997
-41.595556
-38.871469
-39.155195
-39.404452
-38.814779
-45.034797
-44.505213
-46.038869
-45.180431
-46.340602
1.653937
1.615348
2.320273
2.392300
-53.074772
-52.723931
-53.784778
1.230753
1.036929
15.438935
0.632251
-43.325143
-43.847358
-43.666175
15.686882
-4.468263
-9.922985
-8.741671
-44.253824
-9.093435
-53.291837
-41.045303
-9.579048
-8.520043
-9.375248
-41.632520
-37.997782
-38.186619
-37.858103
-38.150416
-40.810286
-41.259855
-41.752889
-41.918496
8.692501
8.385358
8.713085
8.197071
-38.952230
-38.765084
-38.534144
-39.103329
4.284639
4.055877
5.246540
4.443969
-33.272116
-33.866116
-40.996090
-40.694632
1.438177
1.350646
2.266338
0.573424
0.515213
0.208547
-37.392251
-37.180913
-37.074926
-37.278466
-38.122732
-37.894316
3.888982
-29.702834
-31.153910
-32.091886
-28.056152
-10.954434
-9.949225
-10.751427
-9.501288
-13.254414
-9.324337
-38.373490
-37.838840
-37.926821
-37.383422
-28.785099
-29.259114
-1.045510
-1.504044
-1.357693
-1.506842
-1.652447
-33.074538
-29.923677
-31.442976
-27.613785
4.045259
4.208060
3.301627
4.446390
1.413971
1.746856
5.036952
5.294465
6.077510
-37.247462
-36.374230
-36.246969
11.975974
12.045299
13.057943
2.403892
2.222381
13.181797
-4.038751
-7.761276
-2.231293
-26.781654
-26.332571
-26.305721
3.066649
-38.405600
-38.586647
3.045565
3.790688
3.932915
7.964220
7.537241
8.218175
-43.421074
-44.053251
7.448696
-40.948609
-41.273814
-40.956618
9.427776
9.187495
-6.647205
-8.163380
-5.429226
-34.834569
-34.914440
-35.396540
-35.755810
-36.888079
-36.568912
-14.509447
-12.785661
-18.886593
-38.467295
-38.427980
-39.157629
-38.960646
-38.380961
-38.834982
-0.726743
-0.743082
-1.157462
0.778593
1.362567
3.084859
3.292749
2.476586
1.328207
0.939223
0.271944
0.293117
-27.335264
-25.728665
-25.387956
-47.222232
-48.000257
-46.945049
-47.913393
-46.492775
-47.540148
-46.463115
-2.967292
-1.924003
-1.803339
-2.596026
13.975791
13.390389
13.747508
-37.254823
-37.260968
-37.033888
-8.144835
-10.269717
-8.487014
-37.491453
-28.536104
-26.224592
-27.449425
-27.801115
-27.501577
-26.473560
-26.992311
-28.444345
-31.295743
-43.737842
-43.374538
-43.477952
6.711208
6.878054
7.291624
-30.113167
11.418276
-32.905968
-33.108456
-3.355720
-2.323094
-3.024458
-2.532396
-2.701675
-5.389925
-4.278518
16.524078
16.153939
15.985782
15.686057
15.159369
15.382678
15.513051
-36.939431
-37.210253
-37.555962
15.695848
-37.785263
-36.298395
-36.003490
-29.676466
-28.161966
-31.474653
-17.170744
-13.758703
-15.225054
8.806643
8.775490
8.395693
8.152898
-16.701972
-8.388391
-8.468999
-4.356395
-2.686035
-2.760521
-2.415503
-2.519478
-36.438737
-36.192880
-35.936196
-36.688400
-40.602076
-39.925265
-40.325867
-0.204094
-0.663348
-0.496547
-1.064679
-35.411936
-36.458188
-35.564768
15.424453
-36.526541
15.130906
-35.172504
-33.612525
-24.793583
-24.200837
-25.895285
-26.440933
-38.853461
-37.659654
-37.929054
-3.690907
-3.276655
-41.512148
-41.867363
-41.908164
-42.309350
-2.874213
-2.870313
-2.343154
-5.228034
-4.853848
-4.972909
0.146083
0.777942
-3.433424
4.389614
-22.953338
-25.807425
-10.836530
-11.557841
-10.031892
-10.401397
-6.746873
-6.637722
-6.626079
-7.012677
-6.573655
-7.062211
-1.365567
-0.852182
-1.038513
-8.924408
-10.433932
-10.115594
-0.937406
-7.531894
-7.042026
-6.654166
-6.277568
-0.782746
-1.327253
-9.647010
-7.283181
-30.788044
-29.174337
-28.954188
-27.422570
-44.374736
-44.417374
-45.069635
-43.897797
-9.525179
1.869232
1.531138
1.882495
1.750946
-44.090572
-43.705448
1.981184
-43.072166
-34.153986
-34.769412
-35.346454
-35.664957
-39.456249
-38.874449
-39.230334
2.033646
-28.066288
-28.629193
-28.707208
-38.869349
-38.503110
-1.182212
-1.518068
-1.190622
-38.191203
-37.987251
7.068127
6.619072
6.955866
16.292858
15.757869
-38.185745
-37.968321
-54.876224
-55.654228
-33.993125
-34.100004
-34.515395
-33.292987
-6.859248
-6.376722
-6.070824
-5.693846
-31.457188
-34.852057
-34.799956
-6.118154
-35.180630
-33.249178
-32.422319
-32.208750
-9.650950
-11.496637
-30.900091
-30.521412
-31.170794
-30.841226
-0.720489
-0.417661
-0.596854
-0.515746
-1.489807
-0.340766
0.181071
-1.856356
-7.049043
-7.044010
-7.952289
-2.868072
-2.577931
-2.507866
-5.514566
-6.014780
-2.901010
-34.982428
-34.623764
-56.767786
-56.765228
-34.245785
-35.285120
-43.335705
-35.574419
16.012249
16.690508
16.176516
15.353447
-4.564218
-2.473780
-1.823455
-39.977550
-39.204039
-39.585961
-31.692486
-31.963834
-32.059739
-32.325673
16.243212
8.975942
9.220663
9.583372
-42.221730
-42.568185
-41.972553
-41.843799
-42.762299
5.758666
6.297726
-42.857780
-43.281659
-42.558099
-12.999083
-5.561593
5.118810
5.359931
14.057770
13.097547
13.663148
4.655445
-34.252536
-34.570739
-34.185162
-34.702128
-30.984715
-30.652038
-31.236812
-42.045438
-42.574316
16.751102
16.471384
15.825621
-23.976534
-21.972631
-19.019067
13.392743
13.935272
13.536809
-25.388027
-25.352643
-16.591188
-30.093118
-43.223621
-42.114649
-41.244510