# vtk DataFile Version 2.0
Test
ASCII
DATASET POLYDATA
POINTS 6352 float
0.000000 0.000000 0.000000
1.000000 0.000000 0.000000
1.000000 0.800000 0.000000
1.000000 1.000000 0.000000
0.000000 1.000000 0.000000
0.000000 0.200000 0.000000
0.300000 0.330000 0.000000
0.700000 0.680000 0.000000
0.050000 0.000000 0.000000
0.100000 0.000000 0.000000
0.150000 0.000000 0.000000
0.200000 0.000000 0.000000
0.250000 0.000000 0.000000
0.300000 0.000000 0.000000
0.350000 0.000000 0.000000
0.400000 0.000000 0.000000
0.450000 0.000000 0.000000
0.500000 0.000000 0.000000
0.550000 0.000000 0.000000
0.600000 0.000000 0.000000
0.650000 0.000000 0.000000
0.700000 0.000000 0.000000
0.750000 0.000000 0.000000
0.800000 0.000000 0.000000
0.850000 0.000000 0.000000
0.900000 0.000000 0.000000
0.950000 0.000000 0.000000
1.000000 0.048545 0.000000
1.000000 0.094438 0.000000
1.000000 0.137825 0.000000
1.000000 0.178843 0.000000
1.000000 0.217620 0.000000
1.000000 0.254280 0.000000
1.000000 0.288938 0.000000
1.000000 0.321703 0.000000
1.000000 0.352678 0.000000
1.000000 0.381962 0.000000
1.000000 0.409647 0.000000
1.000000 0.435820 0.000000
1.000000 0.460563 0.000000
1.000000 0.483955 0.000000
1.000000 0.506070 0.000000
1.000000 0.526976 0.000000
1.000000 0.546741 0.000000
1.000000 0.565427 0.000000
1.000000 0.583092 0.000000
1.000000 0.599793 0.000000
1.000000 0.615581 0.000000
1.000000 0.630507 0.000000
1.000000 0.644618 0.000000
1.000000 0.657958 0.000000
1.000000 0.670570 0.000000
1.000000 0.682493 0.000000
1.000000 0.693765 0.000000
1.000000 0.704421 0.000000
1.000000 0.714495 0.000000
1.000000 0.724019 0.000000
1.000000 0.733023 0.000000
1.000000 0.741536 0.000000
1.000000 0.749583 0.000000
1.000000 0.757191 0.000000
1.000000 0.764383 0.000000
1.000000 0.771183 0.000000
1.000000 0.777611 0.000000
1.000000 0.783688 0.000000
1.000000 0.789434 0.000000
1.000000 0.794865 0.000000
1.000000 0.805174 0.000000
1.000000 0.811554 0.000000
1.000000 0.819418 0.000000
1.000000 0.829114 0.000000
1.000000 0.841067 0.000000
1.000000 0.855804 0.000000
1.000000 0.873972 0.000000
1.000000 0.896371 0.000000
1.000000 0.923985 0.000000
1.000000 0.958029 0.000000
0.950000 1.000000 0.000000
0.900000 1.000000 0.000000
0.850000 1.000000 0.000000
0.800000 1.000000 0.000000
0.750000 1.000000 0.000000
0.700000 1.000000 0.000000
0.650000 1.000000 0.000000
0.600000 1.000000 0.000000
0.550000 1.000000 0.000000
0.500000 1.000000 0.000000
0.450000 1.000000 0.000000
0.400000 1.000000 0.000000
0.350000 1.000000 0.000000
0.300000 1.000000 0.000000
0.250000 1.000000 0.000000
0.200000 1.000000 0.000000
0.150000 1.000000 0.000000
0.100000 1.000000 0.000000
0.050000 1.000000 0.000000
0.000000 0.951455 0.000000
0.000000 0.905562 0.000000
0.000000 0.862175 0.000000
0.000000 0.821157 0.000000
0.000000 0.782380 0.000000
0.000000 0.745720 0.000000
0.000000 0.711062 0.000000
0.000000 0.678297 0.000000
0.000000 0.647322 0.000000
0.000000 0.618038 0.000000
0.000000 0.590353 0.000000
0.000000 0.564180 0.000000
0.000000 0.539437 0.000000
0.000000 0.516045 0.000000
0.000000 0.493930 0.000000
0.000000 0.473024 0.000000
0.000000 0.453259 0.000000
0.000000 0.434573 0.000000
0.000000 0.416908 0.000000
0.000000 0.400207 0.000000
0.000000 0.384419 0.000000
0.000000 0.369493 0.000000
0.000000 0.355382 0.000000
0.000000 0.342042 0.000000
0.000000 0.329430 0.000000
0.000000 0.317507 0.000000
0.000000 0.306235 0.000000
0.000000 0.295579 0.000000
0.000000 0.285505 0.000000
0.000000 0.275981 0.000000
0.000000 0.266977 0.000000
0.000000 0.258464 0.000000
0.000000 0.250417 0.000000
0.000000 0.242809 0.000000
0.000000 0.235617 0.000000
0.000000 0.228817 0.000000
0.000000 0.222389 0.000000
0.000000 0.216312 0.000000
0.000000 0.210566 0.000000
0.000000 0.205135 0.000000
0.000000 0.194826 0.000000
0.000000 0.188446 0.000000
0.000000 0.180582 0.000000
0.000000 0.170886 0.000000
0.000000 0.158933 0.000000
0.000000 0.144196 0.000000
0.000000 0.126028 0.000000
0.000000 0.103629 0.000000
0.000000 0.076015 0.000000
0.000000 0.041971 0.000000
0.303738 0.333271 0.000000
0.307477 0.336542 0.000000
0.311215 0.339813 0.000000
0.314953 0.343084 0.000000
0.318692 0.346355 0.000000
0.322430 0.349626 0.000000
0.326168 0.352897 0.000000
0.329907 0.356168 0.000000
0.333645 0.359439 0.000000
0.337383 0.362710 0.000000
0.341121 0.365981 0.000000
0.344860 0.369252 0.000000
0.348598 0.372523 0.000000
0.352336 0.375794 0.000000
0.356075 0.379065 0.000000
0.359813 0.382336 0.000000
0.363551 0.385607 0.000000
0.367290 0.388879 0.000000
0.371028 0.392150 0.000000
0.374766 0.395421 0.000000
0.378505 0.398692 0.000000
0.382243 0.401963 0.000000
0.385981 0.405234 0.000000
0.389720 0.408505 0.000000
0.393458 0.411776 0.000000
0.397196 0.415047 0.000000
0.400935 0.418318 0.000000
0.404673 0.421589 0.000000
0.408411 0.424860 0.000000
0.412150 0.428131 0.000000
0.415888 0.431402 0.000000
0.419626 0.434673 0.000000
0.423364 0.437944 0.000000
0.427103 0.441215 0.000000
0.430841 0.444486 0.000000
0.434579 0.447757 0.000000
0.438318 0.451028 0.000000
0.442056 0.454299 0.000000
0.445794 0.457570 0.000000
0.449533 0.460841 0.000000
0.453271 0.464112 0.000000
0.457009 0.467383 0.000000
0.460748 0.470654 0.000000
0.464486 0.473925 0.000000
0.468224 0.477196 0.000000
0.471963 0.480467 0.000000
0.475701 0.483738 0.000000
0.479439 0.487009 0.000000
0.483178 0.490280 0.000000
0.486916 0.493551 0.000000
0.490654 0.496822 0.000000
0.494393 0.500093 0.000000
0.498131 0.503364 0.000000
0.501869 0.506636 0.000000
0.505607 0.509907 0.000000
0.509346 0.513178 0.000000
0.513084 0.516449 0.000000
0.516822 0.519720 0.000000
0.520561 0.522991 0.000000
0.524299 0.526262 0.000000
0.528037 0.529533 0.000000
0.531776 0.532804 0.000000
0.535514 0.536075 0.000000
0.539252 0.539346 0.000000
0.542991 0.542617 0.000000
0.546729 0.545888 0.000000
0.550467 0.549159 0.000000
0.554206 0.552430 0.000000
0.557944 0.555701 0.000000
0.561682 0.558972 0.000000
0.565421 0.562243 0.000000
0.569159 0.565514 0.000000
0.572897 0.568785 0.000000
0.576636 0.572056 0.000000
0.580374 0.575327 0.000000
0.584112 0.578598 0.000000
0.587850 0.581869 0.000000
0.591589 0.585140 0.000000
0.595327 0.588411 0.000000
0.599065 0.591682 0.000000
0.602804 0.594953 0.000000
0.606542 0.598224 0.000000
0.610280 0.601495 0.000000
0.614019 0.604766 0.000000
0.617757 0.608037 0.000000
0.621495 0.611308 0.000000
0.625234 0.614579 0.000000
0.628972 0.617850 0.000000
0.632710 0.621121 0.000000
0.636449 0.624393 0.000000
0.640187 0.627664 0.000000
0.643925 0.630935 0.000000
0.647664 0.634206 0.000000
0.651402 0.637477 0.000000
0.655140 0.640748 0.000000
0.658879 0.644019 0.000000
0.662617 0.647290 0.000000
0.666355 0.650561 0.000000
0.670093 0.653832 0.000000
0.673832 0.657103 0.000000
0.677570 0.660374 0.000000
0.681308 0.663645 0.000000
0.685047 0.666916 0.000000
0.688785 0.670187 0.000000
0.692523 0.673458 0.000000
0.696262 0.676729 0.000000
0.004545 0.201970 0.000000
0.009091 0.203939 0.000000
0.013636 0.205909 0.000000
0.018182 0.207879 0.000000
0.022727 0.209848 0.000000
0.027273 0.211818 0.000000
0.031818 0.213788 0.000000
0.036364 0.215758 0.000000
0.040909 0.217727 0.000000
0.045455 0.219697 0.000000
0.050000 0.221667 0.000000
0.054545 0.223636 0.000000
0.059091 0.225606 0.000000
0.063636 0.227576 0.000000
0.068182 0.229545 0.000000
0.072727 0.231515 0.000000
0.077273 0.233485 0.000000
0.081818 0.235455 0.000000
0.086364 0.237424 0.000000
0.090909 0.239394 0.000000
0.095455 0.241364 0.000000
0.100000 0.243333 0.000000
0.104545 0.245303 0.000000
0.109091 0.247273 0.000000
0.113636 0.249242 0.000000
0.118182 0.251212 0.000000
0.122727 0.253182 0.000000
0.127273 0.255152 0.000000
0.131818 0.257121 0.000000
0.136364 0.259091 0.000000
0.140909 0.261061 0.000000
0.145455 0.263030 0.000000
0.150000 0.265000 0.000000
0.154545 0.266970 0.000000
0.159091 0.268939 0.000000
0.163636 0.270909 0.000000
0.168182 0.272879 0.000000
0.172727 0.274848 0.000000
0.177273 0.276818 0.000000
0.181818 0.278788 0.000000
0.186364 0.280758 0.000000
0.190909 0.282727 0.000000
0.195455 0.284697 0.000000
0.200000 0.286667 0.000000
0.204545 0.288636 0.000000
0.209091 0.290606 0.000000
0.213636 0.292576 0.000000
0.218182 0.294545 0.000000
0.222727 0.296515 0.000000
0.227273 0.298485 0.000000
0.231818 0.300455 0.000000
0.236364 0.302424 0.000000
0.240909 0.304394 0.000000
0.245455 0.306364 0.000000
0.250000 0.308333 0.000000
0.254545 0.310303 0.000000
0.259091 0.312273 0.000000
0.263636 0.314242 0.000000
0.268182 0.316212 0.000000
0.272727 0.318182 0.000000
0.277273 0.320152 0.000000
0.281818 0.322121 0.000000
0.286364 0.324091 0.000000
0.290909 0.326061 0.000000
0.295455 0.328030 0.000000
0.704615 0.681846 0.000000
0.709231 0.683692 0.000000
0.713846 0.685538 0.000000
0.718462 0.687385 0.000000
0.723077 0.689231 0.000000
0.727692 0.691077 0.000000
0.732308 0.692923 0.000000
0.736923 0.694769 0.000000
0.741538 0.696615 0.000000
0.746154 0.698462 0.000000
0.750769 0.700308 0.000000
0.755385 0.702154 0.000000
0.760000 0.704000 0.000000
0.764615 0.705846 0.000000
0.769231 0.707692 0.000000
0.773846 0.709538 0.000000
0.778462 0.711385 0.000000
0.783077 0.713231 0.000000
0.787692 0.715077 0.000000
0.792308 0.716923 0.000000
0.796923 0.718769 0.000000
0.801538 0.720615 0.000000
0.806154 0.722462 0.000000
0.810769 0.724308 0.000000
0.815385 0.726154 0.000000
0.820000 0.728000 0.000000
0.824615 0.729846 0.000000
0.829231 0.731692 0.000000
0.833846 0.733538 0.000000
0.838462 0.735385 0.000000
0.843077 0.737231 0.000000
0.847692 0.739077 0.000000
0.852308 0.740923 0.000000
0.856923 0.742769 0.000000
0.861538 0.744615 0.000000
0.866154 0.746462 0.000000
0.870769 0.748308 0.000000
0.875385 0.750154 0.000000
0.880000 0.752000 0.000000
0.884615 0.753846 0.000000
0.889231 0.755692 0.000000
0.893846 0.757538 0.000000
0.898462 0.759385 0.000000
0.903077 0.761231 0.000000
0.907692 0.763077 0.000000
0.912308 0.764923 0.000000
0.916923 0.766769 0.000000
0.921538 0.768615 0.000000
0.926154 0.770462 0.000000
0.930769 0.772308 0.000000
[...]
POINT_DATA 6352
SCALARS UX float 1
LOOKUP_TABLE default
-0.000001
0.000001
1.144318
0.921214
-1.556285
-1.097556
-0.703080
0.485241
0.000000
-0.000000
-0.000000
-0.000000
-0.000000
-0.000000
-0.000000
-0.000000
-0.000000
-0.000000
-0.000000
0.000000
0.000000
0.000000
0.000000
0.000000
0.000000
0.000000
-0.000000
0.391232
0.608639
0.767412
0.890800
0.988801
1.073274
1.145372
1.207291
1.261391
1.307586
1.346765
1.379287
1.405918
1.426611
1.441762
1.451397
1.456067
1.456347
1.452654
1.445634
1.435612
1.423371
1.409055
1.393812
1.376973
1.359818
1.342332
1.324726
1.307087
1.290070
1.273521
1.257483
1.242066
1.227333
1.213421
1.200151
1.187555
1.175670
1.164563
1.154103
1.134591
1.122668
1.108429
1.090927
1.070088
1.046739
1.019612
0.990348
0.961532
0.936508
0.765385
0.620063
0.485707
0.358586
0.244772
0.138026
0.037762
-0.060595
-0.162265
-0.270288
-0.384878
-0.505185
-0.631806
-0.760817
-0.891401
-1.023766
-1.155873
-1.288068
-1.421292
-1.556349
-1.561712
-1.574115
-1.590724
-1.610979
-1.632166
-1.653652
-1.674331
-1.693216
-1.709824
-1.723040
-1.731985
-1.737226
-1.737570
-1.733107
-1.725840
-1.712651
-1.696082
-1.676420
-1.652927
-1.627450
-1.600333
-1.571088
-1.541208
-1.510724
-1.479893
-1.449124
-1.418541
-1.388460
-1.358899
-1.330399
-1.302621
-1.275825
-1.249992
-1.225217
-1.201473
-1.178691
-1.156935
-1.136152
-1.116376
-1.078382
-1.054634
-1.024869
-0.987648
-0.941154
-0.882473
-0.808759
-0.715285
-0.584371
-0.398884
-0.687384
-0.675226
-0.671928
-0.665025
-0.656824
-0.658021
-0.650965
-0.635396
-0.623842
-0.625349
-0.618607
-0.616127
-0.611324
-0.596046
-0.587160
-0.578964
-0.563102
-0.561483
-0.550315
-0.526431
-0.535834
-0.518957
-0.495441
-0.484163
-0.470654
-0.452940
-0.437553
-0.415814
-0.397421
-0.386927
-0.387696
-0.382199
-0.362830
-0.348210
-0.347452
-0.327418
-0.319046
-0.324059
-0.310055
-0.296651
-0.275503
-0.269127
-0.256925
-0.243596
-0.216783
-0.197507
-0.209941
-0.201054
-0.189359
-0.185078
-0.175871
-0.171313
-0.165062
-0.152047
-0.135296
-0.133129
-0.124538
-0.110656
-0.083925
-0.088264
-0.080812
-0.061982
-0.044260
-0.039531
-0.020392
0.003932
0.012713
0.040954
0.047046
0.063362
0.072331
0.083654
0.083251
0.079872
0.088621
0.099048
0.108295
0.123920
0.133374
0.143265
0.130168
0.132797
0.142626
0.148574
0.141491
0.146998
0.165232
0.178007
0.194899
0.196164
0.206620
0.211774
0.225368
0.231568
0.239174
0.256965
0.266095
0.277841
0.300085
0.325979
0.355464
0.379136
0.406969
0.424429
0.448404
0.462167
-1.092956
-1.088379
-1.083839
-1.079279
-1.074722
-1.070148
-1.065522
-1.060884
-1.056225
-1.051550
-1.046810
-1.042038
-1.037272
-1.032476
-1.027599
-1.022708
-1.017821
-1.012914
-1.007982
-1.002994
-0.998002
-0.992994
-0.987918
-0.982838
-0.977725
-0.972597
-0.967446
-0.962288
-0.957149
-0.951964
-0.946788
-0.941625
-0.936398
-0.931217
-0.926010
-0.920807
-0.915587
-0.910363
-0.905173
-0.899985
-0.894831
-0.889733
-0.884605
-0.879437
-0.874380
-0.869441
-0.864537
-0.859629
-0.854709
-0.850055
-0.845669
-0.840919
-0.836192
-0.831839
-0.827604
-0.823893
-0.819978
-0.814926
-0.810144
-0.806336
-0.801321
-0.795543
-0.788936
-0.774582
-0.751369
0.544938
0.579421
0.600940
0.617232
0.628364
0.637453
0.646067
0.654961
0.662591
0.670196
0.678140
0.685568
0.693178
0.701186
0.709166
0.717058
0.725121
0.733489
0.741778
0.750138
0.758497
0.766962
0.775294
0.783823
0.792479
0.801050
0.809620
0.818229
0.826913
0.835632
0.844357
0.852991
0.861706
0.870416
0.879114
0.887828
0.896517
0.905234
0.913962
0.922630
0.931299
0.940025
0.948721
0.957396
0.966112
0.974776
0.983446
0.992110
1.000782
1.009483
1.018198
1.026906
1.035627
1.044410
1.053190
1.062015
1.070864
1.079766
1.088769
1.097764
1.106874
1.116050
1.125333
1.134737
0.735915
0.728041
0.753234
0.713828
0.035267
0.019877
0.047612
0.015097
-0.751982
-0.755929
-0.705055
-0.729591
-0.670136
-0.744226
-1.359791
-1.327332
-1.337667
-1.311430
-0.742295
-0.242341
-0.210454
-0.210129
-0.175805
0.262489
0.259899
0.312024
0.200097
-0.317654
-0.334090
-0.301687
-0.008516
0.030143
-0.017035
0.035216
1.076700
1.042284
1.101990
1.038243
-0.138933
-0.201561
-0.128950
-0.217328
-1.253691
-1.248766
-1.283321
-1.034029
-1.034637
-1.010640
-1.081675
-1.079046
-1.101326
0.848374
0.926033
0.874956
0.913289
0.169518
0.169360
0.199806
-0.171936
-0.220468
-0.040839
1.113288
1.147166
1.147967
-0.291248
-0.342117
-0.339378
-0.906956
-0.836240
-0.799527
0.901944
0.911734
0.891437
-0.305963
-1.060922
-1.062595
-1.032110
-0.153543
-0.163692
-0.186979
-0.131191
0.656804
0.645458
0.643706
0.038093
0.006701
-0.075979
0.652211
0.818150
0.833338
0.814001
0.360923
0.318071
0.373672
0.830606
0.838409
0.809182
0.589662
0.579730
0.598411
0.252461
0.209366
0.245931
0.572879
-0.032020
0.002580
0.014400
0.330508
-1.025598
-1.039106
-1.037452
-0.019526
0.766955
0.749915
0.767059
-0.436540
-0.449443
-0.396254
0.969083
0.953337
0.954220
0.938633
0.949396
0.934653
-0.669737
-0.753951
-0.657919
-0.729319
-0.242051
-0.212005
-0.210330
0.758913
0.884733
-0.174917
-1.506146
-1.465437
-1.474761
-1.090668
-1.111517
-1.085144
0.322216
0.414884
0.436867
-1.436528
0.862239
0.850708
0.859112
0.845647
0.127860
0.159806
0.183641
0.486051
-0.811785
-0.825693
-0.813019
0.206534
0.192408
0.203186
0.183922
0.987591
0.972750
0.963564
0.235558
0.791507
0.755052
0.773891
-1.436991
-1.415750
-1.392414
0.954107
0.962975
0.948532
0.946220
-1.092363
-1.074494
-1.102073
-1.083682
-0.117409
-0.094228
-0.092243
0.949410
-0.869523
-0.915606
-0.778821
-0.114353
-0.781632
-0.778129
-0.838930
-0.688123
1.072285
1.122302
-0.857175
1.064058
-1.037870
-1.038712
-1.031331
-1.043988
-0.367544
-0.372568
-0.410211
0.278152
-0.828735
-0.667459
-0.920866
-0.913285
-0.924198
-0.911105
0.705143
0.703279
0.694156
0.694014
-1.055576
-1.043129
-0.326868
-0.979720
-0.971002
-0.980801
-0.968951
0.091743
0.087606
0.108112
1.004581
1.009228
0.983327
0.072858
1.029894
-0.618964
-0.569816
-0.529241
0.965450
0.960388
0.940136
-0.510773
-0.464250
-0.468822
-0.491966
0.984174
-0.490496
-0.984911
-0.995021
-0.970473
-0.461117
-0.439716
-0.440324
-0.974255
0.755710
0.753148
0.730177
0.566734
0.557603
0.571819
-0.408823
-0.429802
-0.371838
-0.579102
-0.545626
-0.557800
0.769775
0.779416
0.774363
0.779072
0.237134
0.206605
0.218382
0.558291
0.733793
0.499905
0.501011
0.483898
0.771007
0.803126
0.782838
0.817478
0.940298
0.946193
0.933556
0.939689
1.306173
1.280350
1.267091
-0.737651
-0.721068
-0.692206
-0.779996
1.236131
0.447460
0.474615
0.450392
-0.633953
-0.614694
-0.624329
0.793886
0.780951
0.796950
1.281581
1.332921
0.779776
-1.594968
-1.640659
-1.595034
1.136170
1.117226
1.117158
1.097658
-0.355975
-0.292064
0.800057
0.805523
0.796634
-0.528550
-0.516437
-0.556714
-0.529841
0.932313
-0.617626
0.900762
0.913722
-0.653843
-0.676684
-0.669193
-1.003371
-0.979732
-1.009873
-0.977096
-1.114095
-1.143038
-1.137943
-1.166964
-1.085655
-1.085460
-1.058905
-1.052318
-1.036263
-1.043811
-1.197136
-1.172202
-1.204574
-1.032775
0.154407
0.134975
0.134496
0.520010
0.513493
-1.203689
-1.196719
-1.185299
-1.219549
-1.066877
-1.075887
-1.071023
-1.083394
-0.885515
-0.901158
-0.898458
-0.912707
-1.343551
-1.346092
-1.373627
-1.055791
-1.324566
0.556783
0.539421
0.624404
-0.415152
-0.450103
-0.350054
-0.486771
1.021233
1.035321
1.016620
1.045447
-1.144841
-1.178637
0.769390
0.775287
0.733267
-0.904069
-0.904807
0.744532
0.999266
1.019954
1.021968
1.042886
0.978041
0.976136
0.955100
-0.912713
0.306287
0.273194
0.295450
0.247555
0.928230
0.902311
0.936028
-1.015441
-0.979354
-0.994322
-0.955526
1.106543
1.113322
1.129874
1.088534
-1.651594
-1.624392
-1.597079
-1.562257
-1.028280
-1.057361
0.577067
0.600884
0.545594
0.545748
-0.926142
-0.867631
-0.840964
-0.800009
0.933104
0.959975
0.967795
0.986514
0.949577
0.326783
0.366291
0.288951
1.059972
1.073913
1.092895
-0.123013
-0.156982
-0.020655
0.871368
0.841144
0.877286
0.835079
1.044030
1.022473
1.011480
-0.076363
-0.052947
-1.043820
-1.050084
-1.029307
0.056821
0.055228
0.095460
0.773651
0.775178
-1.066420
-1.052007
-1.033255
-1.025535
-0.984289
-0.991277
-0.974950
1.093966
0.244652
0.192299
0.245604
1.144430
-0.852679
-0.869445
-0.860862
0.418553
0.409175
0.350198
-0.994213
0.051272
-0.012860
0.356550
-0.879865
-0.991589
-1.010911
-1.016959
-0.089770
-0.105219
-0.161003
0.867058
0.876682
0.851560
-0.587413
-0.558602
-0.957141
-0.945253
0.137417
0.168312
0.096239
-0.964816
0.077990
0.122371
0.130924
0.172242
-1.086023
-1.077986
-1.068564
-1.095750
-0.894805
-0.924730
-0.924362
-0.961267
-0.753598
-0.771929
-0.796550
0.818070
0.839925
0.843818
-0.037138
-0.071509
-0.033307
-1.190021
-1.213703
-0.708063
0.836411
-0.941173
-0.937537
-0.969930
-0.906327
-1.691090
-1.658923
-1.637798
-1.624282
0.022672
0.057071
0.014934
-0.773001
-0.733414
-0.775011
-0.730405
-1.259622
-1.194875
-1.195994
0.749543
0.777103
0.767885
-0.809735
-0.776673
-1.045798
-1.045512
-1.060854
0.539928
0.592855
0.595116
-1.056013
-0.803986
-0.816437
-0.809064
0.921533
0.943996
0.943842
0.355861
0.301830
0.514818
-0.791980
-0.804222
-0.791230
-0.971537
-1.003647
-0.991411
-0.994706
-1.014912
-0.988689
-0.990495
-1.005015
-0.972962
0.047352
0.086889
0.065912
0.001261
0.037234
0.081701
-0.833189
-0.985066
-1.119297
-1.107722
-1.115205
-0.092776
-0.096959
-0.128466
-0.059064
-0.106616
-0.067428
-0.095829
-0.042276
-1.109268
-1.101376
-1.089613
-1.085719
0.194878
0.271568
0.137714
0.932988
0.918444
0.951507
0.910390
-1.023236
-1.032935
-1.023729
-0.884050
-0.836245
-0.878968
-1.031791
-0.920037
-0.950585
-0.946541
1.053801
0.986123
1.042427
0.976490
-1.075002
-1.075758
-1.091185
0.975684
0.984293
0.999698
0.771728
0.782810
0.775684
0.778414
-1.365173
-1.338455
-1.315609
-1.004541
-1.009979
-1.028725
-1.032087
0.952594
0.949572
0.967517
-0.334337
-0.333560
-0.356966
0.675810
0.673874
0.699244
0.697968
0.691949
0.669266
0.674995
-0.135966
-0.103235
-0.106631
0.047757
0.081883
0.069152
-0.135750
-1.129543
-1.147312
-1.121741
0.096299
0.066482
0.093697
-0.330208
-0.313735
-1.144837
-1.140091
-1.126662
1.089817
1.107324
1.088626
-1.117704
-0.310114
0.753275
0.699334
0.725194
-0.964291
-0.979809
-0.999142
-0.775257
-0.793669
-0.950798
-0.951046
-0.974086
0.885989
0.911968
0.910041
-1.074078
-1.071605
-1.103055
-1.102174
-1.042788
-1.041288
-1.030771
-1.047020
-0.314404
-0.344315
-0.345327
-0.321713
0.836105
0.837961
0.864053
0.812051
0.863249
0.890378
0.990584
1.010724
1.015631
1.275892
1.305953
1.294845
1.040867
0.860461
0.860272
0.880411
0.864319
0.859125
-0.826279
-0.821640
0.735989
-0.181884
-0.174948
-0.202777
-0.217232
-0.918207
-0.959915
-0.953263
-0.777319
0.876102
0.877194
0.859915
0.858496
-1.138591
-1.136737
-1.100051
-0.038274
-0.011731
-0.009115
0.461430
0.478090
0.513558
0.375192
-0.879612
-0.803056
-0.862813
1.030115
1.004480
1.007400
0.655033
0.659878
0.608140
-0.714298
-0.985030
-0.930254
-0.949516
0.953416
0.986352
0.978258
-0.963271
-0.171767
-0.966172
-0.990936
-0.955181
-0.996948
0.007614
-0.038445
0.961327
0.991453
-1.428717
-1.405189
-0.078009
-0.045519
-0.050390
-0.010294
-0.227999
-0.261405
-0.262872
-0.001881
0.034188
0.036744
0.725387
0.772541
0.752007
-0.002868
-0.754220
-0.789009
-0.742710
1.087864
1.103834
1.115332
0.186129
0.221935
0.224645
-0.740905
-0.671442
-0.672826
-1.044188
-1.036598
-1.022543
0.742632
0.737823
0.772720
0.982081
1.002506
1.006582
1.030748
0.707089
-1.050333
-1.062213
-1.070219
-0.458361
-0.490144
-0.469956
0.864020
0.881032
0.869290
0.893845
0.846746
0.847696
0.821455
-0.865440
-0.908959
-0.900008
0.528444
-1.396758
-1.355416
-1.388220
-1.090153
-0.811107
-0.808669
-0.774768
-1.007306
-0.982602
-1.020515
-0.769936
0.890522
0.925489
-0.442670
-0.521123
-0.503415
-0.554992
-0.590488
-0.621023
-0.855421
-0.885784
-0.888328
-0.909590
-0.652722
0.558856
0.573532
0.580593
-1.257908
-1.282100
-1.269829
-0.953761
-0.958030
-0.926280
-1.030488
-1.038941
-1.039149
-1.048244
0.922907
1.132500
1.081358
1.122920
1.095082
-0.948486
-0.956017
-0.973262
1.122571
-1.000266
-0.986159
-0.127642
-0.097882
0.744426
0.749415
0.736718
0.842999
0.844831
0.863541
0.740237
0.885151
0.881029
-1.120694
-1.149150
-1.145099
-1.171750
-0.740866
-0.731562
-0.747778
0.279078
0.247104
0.218220
0.597716
0.583733
0.641136
-0.414701
-0.374654
-0.387544
-0.403616
0.602203
0.912526
0.915201
0.901951
0.149247
0.137139
0.168104
-0.376052
-0.370755
-0.445308
-1.105262
-1.126130
-1.099112
-0.764272
-1.120642
0.906603
-0.287463
-0.282652
-0.253093
0.128421
0.159859
0.155569
-0.614382
-0.586127
-0.543744
-0.519420
-1.088395
-1.107303
0.776807
0.812024
0.798643
0.649507
0.644256
0.730038
0.712932
-1.122760
-1.151337
-1.149201
-1.184333
0.765895
0.784137
0.788145
0.770719
-1.102183
-1.007600
-1.053681
0.819547
0.824920
0.841458
-1.090583
0.871557
0.855557
0.845662
0.879001
-0.912747
-0.919124
-0.908446
-0.921165
-0.926055
-0.951024
-0.981801
-0.969047
-1.021416
-1.033333
-1.054635
-1.006273
0.515594
0.528112
0.513443
0.935306
0.938070
0.958109
-0.855450
-0.860378
-0.840100
0.921273
-0.829092
-0.822995
-0.843227
-0.981705
-1.008190
-0.987633
1.079116
1.069788
-1.041663
-1.062102
-1.009035
-1.031332
0.141395
0.117389
0.104815
-1.014311
0.505234
0.518140
0.527393
0.356379
0.295709
0.313019
0.153350
0.154056
0.178887
-1.222594
-1.197139
-1.190814
0.241366
1.057018
1.078584
1.053559
0.111584
0.097931
0.056918
-0.257680
-0.285520
-0.293573
-0.256297
0.049358
0.018092
-0.832200
-0.826660
-0.814082
-0.124275
-0.108380
-0.093401
0.718654
0.738055
-0.380950
-0.410746
-0.437082
-0.081188
-0.805740
-0.043265
-0.019328
-0.910009
-0.938164
-0.924152
-0.946654
-1.217728
-1.283521
-1.288384
-1.211596
-0.840600
-0.868327
-0.839616
0.248016
0.238732
0.277538
-0.859758
-0.842185
-1.022105
-1.041088
-0.805923
0.684301
0.676981
0.670287
0.692086
0.474086
0.436953
0.438547
0.468683
0.402740
0.450142
0.408669
-1.133940
-1.167831
-1.155674
1.103759
1.098300
0.745191
0.757960
0.775880
0.789529
-1.130705
-1.105731
-1.051964
-1.055381
-1.051721
-1.063021
-1.062874
-0.954567
-0.942926
-0.955810
-0.937305
-0.872793
-0.824296
-0.908663
-0.905661
-0.947723
0.629605
0.615728
0.646173
0.634349
-1.314512
-1.256787
-1.298215
0.627854
0.606014
1.082016
0.607260
-1.316395
-1.346339
-1.333908
1.087501
0.689590
0.577207
0.610785
-1.366541
0.602207
-1.220375
-1.032025
-0.243659
-0.222179
-0.207149
-1.040883
-0.924600
-0.935697
-0.936540
-0.947310
-0.850749
-0.843119
-0.881434
-0.851943
1.004774
0.997515
1.017654
1.000685
-0.907474
-0.921772
-0.907553
-0.928091
0.765317
0.770027
0.800693
0.792804
-0.893775
-0.901007
-1.080460
-1.071266
0.706263
0.691866
0.712571
0.691079
0.698486
0.675692
-0.961457
-0.963023
-0.508306
-0.492221
-0.528185
-0.493568
0.714750
-0.797862
-0.822098
-0.844503
-0.742251
-0.103495
-0.079964
-0.081654
0.652504
0.606770
-0.059787
-0.753492
-0.753794
-0.728320
-0.734749
-0.303161
-0.329770
-0.063271
-0.098934
0.567217
0.549153
-0.109500
-0.955771
-0.909306
-0.928174
-0.849518
0.791863
0.819430
0.811558
0.840894
0.446083
0.490994
0.720603
0.722490
0.755045
-0.970235
-0.940548
-0.941156
0.984446
0.981836
1.005429
0.536917
0.538786
1.007028
0.744152
0.706448
0.748001
-0.031954
-0.026803
0.000252
0.583784
-0.854380
-0.870270
0.592765
0.625724
0.639980
0.836921
0.822470
0.843380
-1.290552
-1.304238
0.818495
-1.159638
-1.177886
-1.155765
0.922676
0.894036
0.436159
0.391367
0.472401
-1.006649
-1.003112
-1.013154
-1.008503
-1.080930
-1.070432
-0.550138
-0.542687
-0.624454
-0.945975
-0.955862
-0.976599
-0.984693
-0.794313
-0.795719
0.231273
0.263203
0.218035
0.753089
0.762770
0.638007
0.658804
0.624862
0.754907
0.760878
0.746950
0.752980
-0.318906
-0.273014
-0.256938
-0.906736
-0.949152
-0.929318
-0.986775
-0.866207
-0.888286
-0.835937
0.669881
0.693385
0.700420
0.675111
1.280230
1.248152
1.263536
-0.935467
-0.945176
-0.941870
-0.478870
-0.531087
-0.494056
-0.942307
-0.813947
-0.774238
-0.797571
-0.796650
-0.276532
-0.245918
-0.243823
-0.845525
-0.891212
-1.297614
-1.272127
-1.286946
0.901694
0.893582
0.922651
-0.884287
0.980190
-0.911063
-0.907652
0.622616
0.652590
0.634712
0.645190
0.654347
0.594915
0.634342
1.231308
1.202134
1.208622
1.182341
1.105696
1.122326
1.122615
-1.076954
-1.080393
-1.090455
1.139801
-1.091386
-1.060682
-1.052767
-0.813486
-0.770329
-0.845387
-0.633503
-0.559773
-0.586069
1.046796
1.045523
1.029752
1.017824
-0.625835
0.622797
0.609865
0.701188
0.587470
0.575573
0.589476
0.574628
-0.674091
-0.683772
-0.659349
-0.697120
-0.818342
-0.797696
-0.790703
0.453056
0.440863
0.420853
0.411560
-0.953136
-0.964885
-0.960370
1.186792
-0.973610
1.160209
-0.943824
-0.924228
-0.669088
-0.637044
-0.024897
-0.066845
-0.600615
-0.581847
-0.550480
0.207495
0.192497
-1.129351
-1.153529
-1.148547
-1.177967
0.179031
0.210331
0.194085
0.258693
0.259996
0.279535
0.683237
0.695692
0.654495
0.731441
-0.545752
-0.681741
-0.271244
-0.314329
-0.282031
-0.316296
0.095065
0.116053
0.160471
0.148561
0.140720
0.129579
0.499222
0.519714
0.528175
0.144130
0.063088
0.061817
0.495948
-0.197226
-0.224548
-0.188270
-0.215158
0.550795
0.536821
0.434216
0.550117
-0.970457
-0.932889
-0.943600
-0.898802
-1.347929
-1.356105
-1.392019
-1.322747
0.129255
0.782250
0.772100
0.774593
0.765159
-1.324449
-1.306116
0.764704
-1.266252
-0.873654
-0.871603
-0.887397
-0.882085
-0.799969
-0.775736
-0.815828
0.649631
-0.208585
-0.212427
-0.247510
-0.753792
-0.735605
0.669025
0.658706
0.663656
-0.837493
-0.848416
0.941866
0.910204
0.924515
1.236894
1.210733
-0.863034
-0.820077
-1.358759
-1.348108
-0.687863
-0.679412
-0.697570
-0.666264
-0.046235
-0.071538
-0.037782
-0.071334
-0.807757
-0.702278
-0.712900
0.124493
-0.718972
-0.898381
-0.879932
-0.879813
-0.047088
-0.082111
-0.409986
-0.374336
-0.399169
-0.360362
0.668760
0.681460
0.664843
0.684473
0.792685
0.802141
0.809040
0.788102
-0.332171
-0.352078
-0.368826
0.401552
0.390083
0.416298
-0.200115
-0.243240
0.379236
-0.726291
-0.720699
-1.354581
-1.285586
-0.704866
-0.738963
-1.287055
-0.736838
1.345410
1.383425
1.364082
1.199599
0.692473
0.718161
0.736449
-1.008191
-0.965892
-0.995801
-0.499669
-0.502951
-0.518973
-0.517766
1.112655
0.823456
0.835925
0.840205
-1.069741
-1.255961
-1.245375
-1.233548
-1.269418
0.887720
0.899833
-1.279051
-1.295900
-1.276679
-0.423998
0.873244
0.874817
0.889279
1.037525
1.009422
1.027344
0.871894
-0.656910
-0.676381
-0.666753
-0.670310
-0.488998
-0.472354
-0.484816
-1.172015
-1.199738
1.230139
1.207322
1.175127
-0.732136
-0.704649
-0.668560
1.243640
1.263998
1.242648
-0.020300
-0.051386
-0.634746
-0.462729
-0.574237
-0.543470
-0.494703
0.708328
0.654766
0.733257
-0.130842
-0.187992
-0.278951
0.180487
0.203593
0.189602
-0.541164
-0.516229
-0.513344
0.235863
0.215519
0.246780
0.224924
0.134480
0.167981
-0.459016
-0.458966
-0.414528
-0.415885
-1.458333
-1.496727
-1.427097
-1.541055
-0.913886
-0.942143
-0.922584
-1.420215
-0.870546
0.508638
0.498843
0.518818
0.498808
0.767128
1.271507
1.239460
0.756460
1.085960
1.100985
0.203003
0.231398
0.763256
-0.437574
0.747275
0.632270
0.624691
0.637900
1.069824
1.070881
0.929306
0.900548
1.031803
1.007279
1.129292
1.155046
0.634286
1.036337
0.646879
0.635987
0.358751
0.348749
0.369462
-1.482508
-1.481267
-1.508364
-1.453703
0.336844
0.766548
0.755749
0.725718
0.744696
0.771846
-0.845256
-0.860140
-1.302277
-1.269774
-0.831160
-1.138525
-0.998989
0.732535
0.736291
0.741111
0.726221
0.748606
1.177517
1.201148
0.173904
0.176904
0.740090
0.718367
0.737636
0.713357
0.730383
-0.985225
-0.930482
-0.482098
-0.488306
-0.951736
-0.947134
-1.126605
-1.232880
-0.541148
-0.507969
-1.136446
-1.128389
-1.154536
-1.118980
0.103560
0.118702
-0.943982
-0.916666
-0.921847
-0.973100
-0.965619
-0.232642
-0.451345
-0.956376
-0.977573
-0.978470
-0.983652
0.786940
0.815710
-0.986372
0.721663
0.722188
0.732519
0.701986
-0.723383
1.105864
-1.100407
-1.118602
-0.731077
-0.717249
-0.685072
0.122419
0.160708
0.159577
-1.076688
-1.081215
-0.010685
0.005724
0.021239
0.924599
0.928401
0.912790
0.920605
0.775897
0.785085
0.771743
0.787770
0.762159
0.739582
0.727530
-0.998078
-0.993415
0.606784
0.608533
0.619809
-0.125372
-0.074669
-0.115382
-0.093030
0.596862
-1.288214
-1.324890
1.262446
1.280494
-1.031924
-1.005160
-1.443696
-1.413314