# vtk DataFile Version 2.0
Test
ASCII
DATASET POLYDATA
POINTS 6352 float
0.000000 0.000000 0.000000
1.000000 0.000000 0.000000
1.000000 0.800000 0.000000
1.000000 1.000000 0.000000
0.000000 1.000000 0.000000
0.000000 0.200000 0.000000
0.300000 0.330000 0.000000
0.700000 0.680000 0.000000
0.050000 0.000000 0.000000
0.100000 0.000000 0.000000
0.150000 0.000000 0.000000
0.200000 0.000000 0.000000
0.250000 0.000000 0.000000
0.300000 0.000000 0.000000
0.350000 0.000000 0.000000
0.400000 0.000000 0.000000
0.450000 0.000000 0.000000
0.500000 0.000000 0.000000
0.550000 0.000000 0.000000
0.600000 0.000000 0.000000
0.650000 0.000000 0.000000
0.700000 0.000000 0.000000
0.750000 0.000000 0.000000
0.800000 0.000000 0.000000
0.850000 0.000000 0.000000
0.900000 0.000000 0.000000
0.950000 0.000000 0.000000
1.000000 0.048545 0.000000
1.000000 0.094438 0.000000
1.000000 0.137825 0.000000
1.000000 0.178843 0.000000
1.000000 0.217620 0.000000
1.000000 0.254280 0.000000
1.000000 0.288938 0.000000
1.000000 0.321703 0.000000
1.000000 0.352678 0.000000
1.000000 0.381962 0.000000
1.000000 0.409647 0.000000
1.000000 0.435820 0.000000
1.000000 0.460563 0.000000
1.000000 0.483955 0.000000
1.000000 0.506070 0.000000
1.000000 0.526976 0.000000
1.000000 0.546741 0.000000
1.000000 0.565427 0.000000
1.000000 0.583092 0.000000
1.000000 0.599793 0.000000
1.000000 0.615581 0.000000
1.000000 0.630507 0.000000
1.000000 0.644618 0.000000
1.000000 0.657958 0.000000
1.000000 0.670570 0.000000
1.000000 0.682493 0.000000
1.000000 0.693765 0.000000
1.000000 0.704421 0.000000
1.000000 0.714495 0.000000
1.000000 0.724019 0.000000
1.000000 0.733023 0.000000
1.000000 0.741536 0.000000
1.000000 0.749583 0.000000
1.000000 0.757191 0.000000
1.000000 0.764383 0.000000
1.000000 0.771183 0.000000
1.000000 0.777611 0.000000
1.000000 0.783688 0.000000
1.000000 0.789434 0.000000
1.000000 0.794865 0.000000
1.000000 0.805174 0.000000
1.000000 0.811554 0.000000
1.000000 0.819418 0.000000
1.000000 0.829114 0.000000
1.000000 0.841067 0.000000
1.000000 0.855804 0.000000
1.000000 0.873972 0.000000
1.000000 0.896371 0.000000
1.000000 0.923985 0.000000
1.000000 0.958029 0.000000
0.950000 1.000000 0.000000
0.900000 1.000000 0.000000
0.850000 1.000000 0.000000
0.800000 1.000000 0.000000
0.750000 1.000000 0.000000
0.700000 1.000000 0.000000
0.650000 1.000000 0.000000
0.600000 1.000000 0.000000
0.550000 1.000000 0.000000
0.500000 1.000000 0.000000
0.450000 1.000000 0.000000
0.400000 1.000000 0.000000
0.350000 1.000000 0.000000
0.300000 1.000000 0.000000
0.250000 1.000000 0.000000
0.200000 1.000000 0.000000
0.150000 1.000000 0.000000
0.100000 1.000000 0.000000
0.050000 1.000000 0.000000
0.000000 0.951455 0.000000
0.000000 0.905562 0.000000
0.000000 0.862175 0.000000
0.000000 0.821157 0.000000
0.000000 0.782380 0.000000
0.000000 0.745720 0.000000
0.000000 0.711062 0.000000
0.000000 0.678297 0.000000
0.000000 0.647322 0.000000
0.000000 0.618038 0.000000
0.000000 0.590353 0.000000
0.000000 0.564180 0.000000
0.000000 0.539437 0.000000
0.000000 0.516045 0.000000
0.000000 0.493930 0.000000
0.000000 0.473024 0.000000
0.000000 0.453259 0.000000
0.000000 0.434573 0.000000
0.000000 0.416908 0.000000
0.000000 0.400207 0.000000
0.000000 0.384419 0.000000
0.000000 0.369493 0.000000
0.000000 0.355382 0.000000
0.000000 0.342042 0.000000
0.000000 0.329430 0.000000
0.000000 0.317507 0.000000
0.000000 0.306235 0.000000
0.000000 0.295579 0.000000
0.000000 0.285505 0.000000
0.000000 0.275981 0.000000
0.000000 0.266977 0.000000
0.000000 0.258464 0.000000
0.000000 0.250417 0.000000
0.000000 0.242809 0.000000
0.000000 0.235617 0.000000
0.000000 0.228817 0.000000
0.000000 0.222389 0.000000
0.000000 0.216312 0.000000
0.000000 0.210566 0.000000
0.000000 0.205135 0.000000
0.000000 0.194826 0.000000
0.000000 0.188446 0.000000
0.000000 0.180582 0.000000
0.000000 0.170886 0.000000
0.000000 0.158933 0.000000
0.000000 0.144196 0.000000
0.000000 0.126028 0.000000
0.000000 0.103629 0.000000
0.000000 0.076015 0.000000
0.000000 0.041971 0.000000
0.303738 0.333271 0.000000
0.307477 0.336542 0.000000
0.311215 0.339813 0.000000
0.314953 0.343084 0.000000
0.318692 0.346355 0.000000
0.322430 0.349626 0.000000
0.326168 0.352897 0.000000
0.329907 0.356168 0.000000
0.333645 0.359439 0.000000
0.337383 0.362710 0.000000
0.341121 0.365981 0.000000
0.344860 0.369252 0.000000
0.348598 0.372523 0.000000
0.352336 0.375794 0.000000
0.356075 0.379065 0.000000
0.359813 0.382336 0.000000
0.363551 0.385607 0.000000
0.367290 0.388879 0.000000
0.371028 0.392150 0.000000
0.374766 0.395421 0.000000
0.378505 0.398692 0.000000
0.382243 0.401963 0.000000
0.385981 0.405234 0.000000
0.389720 0.408505 0.000000
0.393458 0.411776 0.000000
0.397196 0.415047 0.000000
0.400935 0.418318 0.000000
0.404673 0.421589 0.000000
0.408411 0.424860 0.000000
0.412150 0.428131 0.000000
0.415888 0.431402 0.000000
0.419626 0.434673 0.000000
0.423364 0.437944 0.000000
0.427103 0.441215 0.000000
0.430841 0.444486 0.000000
0.434579 0.447757 0.000000
0.438318 0.451028 0.000000
0.442056 0.454299 0.000000
0.445794 0.457570 0.000000
0.449533 0.460841 0.000000
0.453271 0.464112 0.000000
0.457009 0.467383 0.000000
0.460748 0.470654 0.000000
0.464486 0.473925 0.000000
0.468224 0.477196 0.000000
0.471963 0.480467 0.000000
0.475701 0.483738 0.000000
0.479439 0.487009 0.000000
0.483178 0.490280 0.000000
0.486916 0.493551 0.000000
0.490654 0.496822 0.000000
0.494393 0.500093 0.000000
0.498131 0.503364 0.000000
0.501869 0.506636 0.000000
0.505607 0.509907 0.000000
0.509346 0.513178 0.000000
0.513084 0.516449 0.000000
0.516822 0.519720 0.000000
0.520561 0.522991 0.000000
0.524299 0.526262 0.000000
0.528037 0.529533 0.000000
0.531776 0.532804 0.000000
0.535514 0.536075 0.000000
0.539252 0.539346 0.000000
0.542991 0.542617 0.000000
0.546729 0.545888 0.000000
0.550467 0.549159 0.000000
0.554206 0.552430 0.000000
0.557944 0.555701 0.000000
0.561682 0.558972 0.000000
0.565421 0.562243 0.000000
0.569159 0.565514 0.000000
0.572897 0.568785 0.000000
0.576636 0.572056 0.000000
0.580374 0.575327 0.000000
0.584112 0.578598 0.000000
0.587850 0.581869 0.000000
0.591589 0.585140 0.000000
0.595327 0.588411 0.000000
0.599065 0.591682 0.000000
0.602804 0.594953 0.000000
0.606542 0.598224 0.000000
0.610280 0.601495 0.000000
0.614019 0.604766 0.000000
0.617757 0.608037 0.000000
0.621495 0.611308 0.000000
0.625234 0.614579 0.000000
0.628972 0.617850 0.000000
0.632710 0.621121 0.000000
0.636449 0.624393 0.000000
0.640187 0.627664 0.000000
0.643925 0.630935 0.000000
0.647664 0.634206 0.000000
0.651402 0.637477 0.000000
0.655140 0.640748 0.000000
0.658879 0.644019 0.000000
0.662617 0.647290 0.000000
0.666355 0.650561 0.000000
0.670093 0.653832 0.000000
0.673832 0.657103 0.000000
0.677570 0.660374 0.000000
0.681308 0.663645 0.000000
0.685047 0.666916 0.000000
0.688785 0.670187 0.000000
0.692523 0.673458 0.000000
0.696262 0.676729 0.000000
0.004545 0.201970 0.000000
0.009091 0.203939 0.000000
0.013636 0.205909 0.000000
0.018182 0.207879 0.000000
0.022727 0.209848 0.000000
0.027273 0.211818 0.000000
0.031818 0.213788 0.000000
0.036364 0.215758 0.000000
0.040909 0.217727 0.000000
0.045455 0.219697 0.000000
0.050000 0.221667 0.000000
0.054545 0.223636 0.000000
0.059091 0.225606 0.000000
0.063636 0.227576 0.000000
0.068182 0.229545 0.000000
0.072727 0.231515 0.000000
0.077273 0.233485 0.000000
0.081818 0.235455 0.000000
0.086364 0.237424 0.000000
0.090909 0.239394 0.000000
0.095455 0.241364 0.000000
0.100000 0.243333 0.000000
0.104545 0.245303 0.000000
0.109091 0.247273 0.000000
0.113636 0.249242 0.000000
0.118182 0.251212 0.000000
0.122727 0.253182 0.000000
0.127273 0.255152 0.000000
0.131818 0.257121 0.000000
0.136364 0.259091 0.000000
0.140909 0.261061 0.000000
0.145455 0.263030 0.000000
0.150000 0.265000 0.000000
0.154545 0.266970 0.000000
0.159091 0.268939 0.000000
0.163636 0.270909 0.000000
0.168182 0.272879 0.000000
0.172727 0.274848 0.000000
0.177273 0.276818 0.000000
0.181818 0.278788 0.000000
0.186364 0.280758 0.000000
0.190909 0.282727 0.000000
0.195455 0.284697 0.000000
0.200000 0.286667 0.000000
0.204545 0.288636 0.000000
0.209091 0.290606 0.000000
0.213636 0.292576 0.000000
0.218182 0.294545 0.000000
0.222727 0.296515 0.000000
0.227273 0.298485 0.000000
0.231818 0.300455 0.000000
0.236364 0.302424 0.000000
0.240909 0.304394 0.000000
0.245455 0.306364 0.000000
0.250000 0.308333 0.000000
0.254545 0.310303 0.000000
0.259091 0.312273 0.000000
0.263636 0.314242 0.000000
0.268182 0.316212 0.000000
0.272727 0.318182 0.000000
0.277273 0.320152 0.000000
0.281818 0.322121 0.000000
0.286364 0.324091 0.000000
0.290909 0.326061 0.000000
0.295455 0.328030 0.000000
0.704615 0.681846 0.000000
0.709231 0.683692 0.000000
0.713846 0.685538 0.000000
0.718462 0.687385 0.000000
0.723077 0.689231 0.000000
0.727692 0.691077 0.000000
0.732308 0.692923 0.000000
0.736923 0.694769 0.000000
0.741538 0.696615 0.000000
0.746154 0.698462 0.000000
0.750769 0.700308 0.000000
0.755385 0.702154 0.000000
0.760000 0.704000 0.000000
0.764615 0.705846 0.000000
0.769231 0.707692 0.000000
0.773846 0.709538 0.000000
0.778462 0.711385 0.000000
0.783077 0.713231 0.000000
0.787692 0.715077 0.000000
0.792308 0.716923 0.000000
0.796923 0.718769 0.000000
0.801538 0.720615 0.000000
0.806154 0.722462 0.000000
0.810769 0.724308 0.000000
0.815385 0.726154 0.000000
0.820000 0.728000 0.000000
0.824615 0.729846 0.000000
0.829231 0.731692 0.000000
0.833846 0.733538 0.000000
0.838462 0.735385 0.000000
0.843077 0.737231 0.000000
0.847692 0.739077 0.000000
0.852308 0.740923 0.000000
0.856923 0.742769 0.000000
0.861538 0.744615 0.000000
0.866154 0.746462 0.000000
0.870769 0.748308 0.000000
0.875385 0.750154 0.000000
0.880000 0.752000 0.000000
0.884615 0.753846 0.000000
0.889231 0.755692 0.000000
0.893846 0.757538 0.000000
0.898462 0.759385 0.000000
0.903077 0.761231 0.000000
0.907692 0.763077 0.000000
0.912308 0.764923 0.000000
0.916923 0.766769 0.000000
0.921538 0.768615 0.000000
0.926154 0.770462 0.000000
0.930769 0.772308 0.000000
[...]
POINT_DATA 6352
SCALARS UX float 1
LOOKUP_TABLE default
-0.000002
0.000002
2.373385
1.691226
-3.894064
-2.543515
-1.515901
0.706755
0.000000
-0.000000
-0.000000
-0.000000
-0.000000
-0.000000
-0.000000
-0.000000
-0.000000
-0.000000
-0.000000
0.000000
0.000000
0.000000
0.000000
0.000000
0.000000
0.000000
-0.000000
0.825729
1.272713
1.586654
1.836148
2.029791
2.198138
2.341773
2.463798
2.569421
2.658403
2.732993
2.794067
2.843574
2.881933
2.910026
2.928360
2.938064
2.940503
2.936480
2.926999
2.912529
2.894416
2.872697
2.849160
2.822346
2.794593
2.765538
2.735514
2.704654
2.674155
2.643704
2.613413
2.583501
2.554097
2.525770
2.498028
2.471024
2.444964
2.420054
2.396122
2.350232
2.321346
2.285645
2.240458
2.184476
2.118219
2.038108
1.946104
1.850034
1.758375
1.294109
0.948525
0.652149
0.384237
0.149966
-0.073515
-0.289817
-0.506840
-0.733966
-0.976784
-1.235513
-1.507845
-1.795093
-2.087411
-2.382868
-2.682347
-2.981892
-3.282608
-3.586449
-3.871782
-3.858280
-3.857042
-3.863911
-3.877461
-3.892526
-3.908139
-3.922681
-3.934605
-3.942785
-3.945602
-3.941842
-3.932353
-3.915406
-3.891166
-3.863695
-3.827034
-3.786000
-3.740940
-3.690299
-3.637215
-3.582121
-3.523705
-3.464623
-3.404493
-3.343690
-3.282813
-3.221889
-3.161494
-3.101575
-3.043279
-2.985885
-2.929947
-2.875492
-2.822818
-2.771846
-2.722481
-2.674946
-2.629217
-2.585425
-2.500553
-2.447035
-2.379507
-2.294555
-2.187907
-2.053739
-1.886016
-1.674463
-1.383932
-0.981117
-1.497382
-1.483166
-1.464187
-1.442924
-1.460108
-1.440369
-1.429889
-1.402293
-1.381573
-1.388389
-1.376400
-1.373851
-1.366666
-1.339266
-1.323967
-1.309977
-1.280972
-1.279563
-1.259355
-1.214724
-1.233936
-1.202789
-1.158558
-1.138402
-1.115222
-1.083250
-1.084650
-1.022330
-0.976736
-0.961141
-0.965781
-0.956698
-0.920464
-0.894212
-0.895290
-0.858124
-0.842678
-0.853442
-0.827511
-0.802570
-0.762547
-0.752139
-0.734585
-0.691083
-0.659134
-0.618194
-0.640201
-0.622293
-0.598888
-0.589472
-0.571163
-0.559216
-0.554998
-0.530621
-0.498097
-0.492650
-0.475469
-0.448080
-0.396216
-0.402286
-0.388648
-0.351546
-0.317395
-0.308432
-0.271573
-0.224062
-0.206432
-0.152983
-0.141066
-0.108831
-0.090692
-0.068490
-0.068483
-0.074582
-0.057503
-0.036022
-0.017478
0.012076
0.029588
0.048136
0.022407
0.028006
0.047968
0.060128
0.047009
0.056793
0.092413
0.117658
0.149843
0.151328
0.171096
0.180715
0.206243
0.217793
0.231341
0.263822
0.282134
0.305171
0.347050
0.396625
0.461188
0.526784
0.563218
0.596378
0.644411
0.665717
-2.533477
-2.523514
-2.513648
-2.503718
-2.493773
-2.483755
-2.473557
-2.463290
-2.452932
-2.442505
-2.431847
-2.421059
-2.410271
-2.399396
-2.388190
-2.376921
-2.365644
-2.354295
-2.342849
-2.331194
-2.319524
-2.307793
-2.295771
-2.283728
-2.271525
-2.259293
-2.246932
-2.234539
-2.222149
-2.209620
-2.197066
-2.184483
-2.171673
-2.158932
-2.146075
-2.133150
-2.120084
-2.106923
-2.093762
-2.080459
-2.067154
-2.053841
-2.040243
-2.026397
-2.012679
-1.999010
-1.985251
-1.971177
-1.956849
-1.942856
-1.929081
-1.913830
-1.898214
-1.882964
-1.867584
-1.852864
-1.836716
-1.816929
-1.797057
-1.778831
-1.757223
-1.733261
-1.705937
-1.663604
-1.607448
0.833898
0.919996
0.983766
1.037501
1.064076
1.102208
1.133494
1.164629
1.191363
1.217075
1.242894
1.266396
1.289652
1.313271
1.336262
1.358542
1.380682
1.403271
1.425358
1.447291
1.468899
1.490498
1.511489
1.532775
1.554354
1.575309
1.596231
1.617094
1.637958
1.658917
1.679698
1.700164
1.720862
1.741462
1.761923
1.782367
1.802726
1.823081
1.843465
1.863640
1.883832
1.904140
1.924354
1.944454
1.964675
1.984731
2.004756
2.024766
2.044781
2.064846
2.084922
2.104983
2.125031
2.145197
2.165411
2.185663
2.205949
2.226326
2.246898
2.267443
2.288188
2.309088
2.330210
2.351606
1.351162
1.342333
1.396630
1.305876
0.056681
0.031452
0.082685
0.024924
-1.711635
-1.723959
-1.592342
-1.650532
-1.493627
-1.687001
-3.097514
-3.022675
-3.053252
-2.992280
-1.680689
-0.511457
-0.441603
-0.445427
-0.369434
0.227423
0.224802
0.335666
0.094509
-0.691035
-0.720181
-0.654608
-0.354354
-0.270738
-0.377918
-0.263219
2.148860
2.079754
2.207294
2.064434
-0.270042
-0.393183
-0.246194
-0.430859
-2.866249
-2.852925
-2.927285
-2.402543
-2.403798
-2.348685
-2.497305
-2.488763
-2.537599
1.691130
1.853482
1.740140
1.834350
0.191010
0.197773
0.250127
-0.554952
-0.645980
-0.293010
2.213489
2.289966
2.288532
-0.898112
-1.003150
-0.988232
-1.923772
-1.793671
-1.730460
1.816221
1.839156
1.791536
-0.941000
-2.439151
-2.446004
-2.377984
-0.374419
-0.403551
-0.442201
-0.342003
1.125220
1.098438
1.097810
-0.158430
-0.222345
-0.391454
1.110778
1.468456
1.496631
1.455720
0.430944
0.334676
0.457003
1.481113
1.501500
1.431880
1.006980
0.991144
1.028673
0.193239
0.105386
0.180688
0.972822
-0.118128
-0.048575
-0.036458
0.360115
-2.328234
-2.363455
-2.352192
-0.085927
1.384850
1.350225
1.390071
-0.917324
-0.944662
-0.828132
1.889874
1.859249
1.854776
1.825847
1.838501
1.810916
-1.849080
-2.028214
-1.812180
-1.962190
-0.520991
-0.454539
-0.457489
1.376102
1.775767
-0.380633
-3.427788
-3.338482
-3.371290
-2.449569
-2.498954
-2.443549
0.400424
0.596373
0.641336
-3.281536
1.580378
1.553175
1.576079
1.537624
-0.009226
0.068962
0.107020
0.751615
-1.886356
-1.910571
-1.883032
0.220216
0.191573
0.217064
0.178896
1.912809
1.874503
1.855450
0.228905
1.456850
1.381577
1.410987
-3.253063
-3.211227
-3.163006
1.830982
1.857652
1.821606
1.823496
-2.488510
-2.446764
-2.504505
-2.460502
-0.374598
-0.326162
-0.328903
1.819509
-1.905592
-2.003485
-1.712698
-0.359661
-1.718883
-1.754622
-1.864761
-1.603172
2.147467
2.256262
-1.916914
2.135604
-2.307330
-2.305230
-2.287364
-2.321723
-0.775490
-0.788739
-0.866410
0.313125
-1.920586
-1.529198
-2.086147
-2.073779
-2.098016
-2.065012
1.230868
1.222934
1.205541
1.200376
-2.402396
-2.380878
-0.691784
-2.204555
-2.189612
-2.215534
-2.191236
0.004287
0.002806
0.039469
1.958112
1.965980
1.906829
-0.029115
2.016310
-1.331179
-1.220177
-1.141980
1.925914
1.920727
1.873903
-1.092086
-1.195471
-1.209574
-1.249961
1.969087
-1.253834
-2.279806
-2.291547
-2.243725
-1.184425
-1.146578
-1.142283
-2.240660
1.387927
1.374564
1.328767
0.926944
0.908355
0.940207
-0.861540
-0.904531
-0.781324
-1.431076
-1.366053
-1.397974
1.371444
1.392558
1.377959
1.396200
0.305924
0.248080
0.276761
0.912157
1.327855
0.818227
0.816015
0.784236
1.456231
1.527497
1.488726
1.565753
1.790443
1.808256
1.776312
1.796022
2.632663
2.576468
2.551750
-1.664986
-1.622331
-1.545655
-1.776955
2.485184
0.675506
0.736253
0.680128
-1.518208
-1.478686
-1.502490
1.445075
1.419188
1.458851
2.584661
2.690387
1.410901
-3.630662
-3.719519
-3.614793
2.342474
2.303911
2.301312
2.260667
-0.928794
-0.800751
1.432172
1.442922
1.420686
-1.374264
-1.361688
-1.441553
-1.399656
1.862292
-1.480813
1.794982
1.818467
-1.583072
-1.631277
-1.612068
-2.269342
-2.212458
-2.276546
-2.215195
-2.577398
-2.639376
-2.629531
-2.691551
-2.515516
-2.514098
-2.455565
-2.330789
-2.286112
-2.307190
-2.749358
-2.694758
-2.762574
-2.277369
0.122098
0.080386
0.084535
0.856142
0.838814
-2.711602
-2.696059
-2.666160
-2.751380
-2.383838
-2.408138
-2.390183
-2.421622
-1.999806
-2.035631
-2.026448
-2.059979
-3.048004
-3.059248
-3.117866
-2.438753
-3.006684
0.823973
0.801626
1.001564
-1.057731
-1.131376
-0.917352
-1.214319
1.989767
2.025347
1.979505
2.048593
-2.634530
-2.705667
1.486200
1.490107
1.403018
-2.057403
-2.055097
1.419116
2.030506
2.072898
2.080281
2.123025
1.985813
1.979917
1.934508
-2.076987
0.498587
0.436022
0.488841
0.393579
1.802049
1.748857
1.825636
-2.203731
-2.110699
-2.144431
-2.076607
2.259915
2.269259
2.306275
2.219914
-3.829423
-3.756239
-3.718602
-3.635570
-2.386114
-2.451260
0.981714
1.041800
0.894398
0.890995
-2.333033
-2.196688
-2.156528
-2.054558
1.884766
1.943104
1.925038
1.967957
1.888004
0.341609
0.416016
0.251625
2.091281
2.125596
2.164766
-0.441758
-0.505110
-0.231521
1.685597
1.624374
1.705828
1.604675
2.052085
2.007102
1.977423
-0.139822
-0.099384
-2.361168
-2.382258
-2.329497
-0.205995
-0.207365
-0.125669
1.423322
1.434505
-2.408772
-2.383051
-2.335022
-2.326860
-2.198613
-2.209978
-2.172344
2.202436
0.168593
0.062140
0.181205
2.308884
-2.003086
-2.037325
-2.013272
0.575258
0.554534
0.416593
-2.223733
-0.112653
-0.238450
0.433228
-2.050904
-2.169643
-2.221752
-2.236962
-0.176194
-0.211301
-0.321941
1.731846
1.754480
1.692704
-1.460447
-1.410187
-2.209956
-2.194487
-0.055701
0.002906
-0.152786
-2.243557
-0.183773
-0.081174
-0.056447
0.030557
-2.418492
-2.402842
-2.375585
-2.447470
-2.043523
-2.111024
-2.115025
-2.197397
-1.718253
-1.767596
-1.819325
1.551806
1.590138
1.607272
-0.077415
-0.149315
-0.068857
-2.683587
-2.739276
-1.629661
1.599102
-2.185646
-2.176599
-2.253693
-2.101392
-3.844028
-3.769227
-3.739950
-3.698799
-0.246872
-0.185364
-0.270283
-1.928196
-1.851745
-1.945332
-1.857510
-2.988673
-2.847374
-2.872099
1.446469
1.516352
1.492629
-1.999124
-1.923931
-2.352054
-2.358876
-2.391506
0.862683
1.003426
1.002439
-2.388517
-1.972936
-1.864874
-1.844546
1.855230
1.911360
1.909457
0.470027
0.362457
0.801119
-1.854464
-1.875850
-1.847709
-2.166498
-2.238411
-2.219184
-2.309221
-2.356206
-2.295667
-2.197053
-2.257381
-2.184711
-0.006523
0.061040
0.016190
-0.316754
-0.240296
0.062076
-1.901423
-2.217664
-2.525731
-2.498529
-2.520858
-0.469800
-0.486260
-0.540485
-0.410987
-0.468248
-0.387754
-0.453179
-0.327775
-2.526571
-2.502814
-2.480509
-2.463937
0.113728
0.287307
-0.002365
1.843091
1.805580
1.877234
1.796793
-2.261728
-2.285623
-2.261229
-2.044712
-1.924622
-2.031697
-2.285443
-2.109395
-2.177901
-2.172777
2.136439
1.999256
2.119129
1.973540
-2.444979
-2.452545
-2.492510
1.980121
2.003179
2.039232
1.358651
1.386818
1.366614
1.378174
-3.094558
-3.033116
-2.982294
-2.323332
-2.345012
-2.377180
-2.396050
1.927570
1.922015
1.965205
-0.929194
-0.933690
-0.976712
1.226557
1.228709
1.280358
1.287056
1.256174
1.207111
1.211572
-0.372724
-0.312014
-0.326392
-0.034362
0.026650
-0.003985
-0.365196
-2.617527
-2.656545
-2.600279
0.038678
-0.016913
0.026603
-0.915363
-0.885777
-2.576738
-2.559047
-2.531006
2.249795
2.289054
2.247619
-2.503202
-0.873365
1.426660
1.279974
1.356879
-2.240573
-2.277088
-2.322363
-1.825161
-1.863405
-2.205722
-2.205943
-2.260701
1.771337
1.836528
1.829968
-2.511023
-2.521416
-2.579277
-2.586426
-2.310001
-2.309005
-2.277666
-2.326210
-0.914633
-0.973265
-0.967743
-0.936514
1.646607
1.654799
1.719747
1.586526
1.720047
1.786149
2.005614
2.046095
2.060295
2.611582
2.670374
2.652356
2.110463
1.718278
1.717697
1.765035
1.646929
1.645390
-1.897027
-1.884794
1.413502
-0.499518
-0.492315
-0.545897
-0.581466
-2.129383
-2.229664
-2.213898
-1.835524
1.638359
1.635815
1.597181
1.588386
-2.682264
-2.665849
-2.593581
-0.252073
-0.191479
-0.193373
0.698143
0.737114
0.815643
0.513391
-1.973238
-1.810500
-1.938427
2.066090
2.015076
2.015523
1.200804
1.215053
1.076283
-1.624218
-2.160613
-2.034348
-2.077923
1.848647
1.923952
1.900414
-2.107347
-0.366498
-2.098719
-2.159220
-2.080845
-2.161496
-0.153558
-0.244756
1.872129
1.940894
-3.275311
-3.215926
-0.423728
-0.353201
-0.371952
-0.282093
-0.518836
-0.587170
-0.584907
-0.135822
-0.067452
-0.073245
1.334004
1.457393
1.394124
-0.129079
-1.698787
-1.791395
-1.670878
2.232814
2.263323
2.290602
0.165256
0.244310
0.244857
-1.706608
-1.554701
-1.560444
-2.291342
-2.273294
-2.225938
1.421422
1.412339
1.502142
1.979870
2.020472
2.033444
2.080981
1.328433
-2.300226
-2.338621
-2.361459
-1.195674
-1.259514
-1.227098
1.625931
1.662202
1.647226
1.696534
1.593809
1.584882
1.533785
-1.997042
-2.105160
-2.083164
0.868144
-3.167996
-3.081767
-3.148680
-2.505105
-1.853017
-1.848167
-1.759385
-2.320292
-2.262215
-2.345561
-1.747850
1.715795
1.789888
-0.998961
-1.143284
-1.126632
-1.194051
-1.281174
-1.359667
-1.928113
-1.995611
-1.998810
-2.048479
-1.440460
0.962965
0.998976
1.004955
-2.870405
-2.925174
-2.892138
-2.168383
-2.183886
-2.109468
-2.275319
-2.298040
-2.297549
-2.322200
1.856389
2.323383
2.153480
2.241019
2.179390
-2.198779
-2.215960
-2.257005
2.300036
-2.319395
-2.287642
-0.234763
-0.177519
1.302791
1.312023
1.281475
1.676257
1.679657
1.723938
1.287811
1.773178
1.764920
-2.588715
-2.649212
-2.642276
-2.698326
-1.722906
-1.706238
-1.740727
0.345479
0.269173
0.219010
1.101564
1.080581
1.201855
-1.137313
-1.059093
-1.094854
-1.104515
1.127409
1.716822
1.728071
1.691985
0.139076
0.123317
0.180382
-0.857742
-0.860151
-0.994936
-2.497514
-2.546140
-2.489298
-1.730678
-2.540737
1.711250
-0.870178
-0.852100
-0.803735
-0.058210
0.005386
-0.001998
-1.325540
-1.260369
-1.159073
-1.104975
-2.457505
-2.496134
1.485901
1.565088
1.528813
1.058589
1.047808
1.239667
1.205488
-2.582546
-2.642232
-2.641028
-2.714688
1.343973
1.380541
1.388664
1.350527
-2.787881
-2.576937
-2.693825
1.618890
1.630025
1.669242
-2.747200
1.737833
1.703105
1.626500
1.694332
-2.086457
-2.093653
-2.072945
-2.127489
-2.137371
-2.197383
-2.267981
-2.240915
-2.372163
-2.398796
-2.447432
-2.336822
0.834967
0.858716
0.826918
1.893599
1.898834
1.944446
-2.024218
-2.025327
-1.985837
1.860936
-1.971376
-1.967349
-2.007049
-2.160876
-2.225951
-2.173365
2.225735
2.204205
-2.294700
-2.338184
-2.232046
-2.272573
-0.028810
-0.079309
-0.105946
-2.238600
0.816501
0.844286
0.860176
0.660897
0.538298
0.578379
0.174258
0.184247
0.220884
-2.804942
-2.753093
-2.737873
0.436299
2.170977
2.218196
2.164522
-0.030455
-0.064361
-0.152672
-0.756689
-0.821489
-0.833443
-0.758549
0.007142
-0.050548
-1.962314
-1.943544
-1.925461
-0.369356
-0.335347
-0.316999
1.289558
1.328753
-1.101763
-1.172037
-1.209080
-0.287821
-1.900835
-0.365315
-0.313670
-2.033878
-2.093603
-2.060456
-2.107458
-2.963359
-3.112528
-3.103122
-2.973909
-2.058419
-2.109113
-2.045832
0.332993
0.325257
0.392888
-2.079791
-2.075714
-2.329582
-2.378345
-2.002813
1.195975
1.175701
1.166126
1.206841
0.864050
0.785682
0.796952
0.844636
0.729287
0.828500
0.748022
-2.649934
-2.725678
-2.688531
2.279548
2.267518
1.423903
1.448623
1.494082
1.521533
-2.631531
-2.574960
-2.342599
-2.347848
-2.335444
-2.466642
-2.466582
-2.187733
-2.170339
-2.199465
-2.153197
-2.149425
-2.054162
-2.232719
-2.211092
-2.309022
1.137301
1.112640
1.177469
1.159067
-3.120627
-3.004899
-3.104372
1.126572
1.085327
2.228240
1.079799
-3.005117
-3.066140
-3.042277
2.239833
1.155990
0.904874
0.992772
-3.108943
0.967332
-2.947210
-2.396510
-0.597606
-0.549676
-0.530733
-2.416280
-2.114147
-2.138673
-2.134116
-2.160070
-2.029823
-2.024221
-2.102832
-2.052279
1.956276
1.934677
1.984284
1.940520
-2.100214
-2.123329
-2.092190
-2.141610
1.431094
1.433742
1.505352
1.477291
-2.056590
-2.076232
-2.507615
-2.487063
1.256475
1.232556
1.283876
1.215334
1.225998
1.183472
-2.172334
-2.169915
-1.367660
-1.345299
-1.423189
-1.360976
1.318863
-1.809833
-1.864996
-1.912768
-1.691787
-0.365340
-0.315287
-0.325738
1.150669
1.024380
-0.274622
-1.810999
-1.802115
-1.758706
-1.760512
-0.877544
-0.932202
-0.130601
-0.204818
0.971427
0.936922
-0.229470
-2.119632
-2.009654
-2.054444
-1.878545
1.466332
1.520022
1.493472
1.560517
0.828091
0.916652
1.353453
1.366573
1.434736
-2.245884
-2.176904
-2.177001
1.994505
1.991043
2.048221
1.014652
1.009894
2.054212
1.248443
1.182138
1.276409
-0.378356
-0.362017
-0.312892
1.110694
-1.993254
-2.025467
1.121752
1.197445
1.220569
1.644040
1.609986
1.654385
-2.924243
-2.958827
1.597167
-2.680508
-2.720008
-2.672687
1.833147
1.772732
0.654029
0.553002
0.733718
-2.225314
-2.219292
-2.244107
-2.235607
-2.390703
-2.365008
-1.211258
-1.183940
-1.393181
-2.197326
-2.220722
-2.269429
-2.288437
-1.883904
-1.894368
0.379222
0.435854
0.344247
1.318640
1.344123
1.182814
1.218156
1.145729
1.328284
1.335839
1.301814
1.314177
-0.880981
-0.779910
-0.748290
-2.251887
-2.342449
-2.286938
-2.409173
-2.166748
-2.225812
-2.114271
1.129436
1.184123
1.198181
1.142359
2.589290
2.524050
2.551523
-2.120737
-2.139399
-2.128673
-1.013865
-1.135612
-1.048149
-2.138918
-1.849584
-1.748179
-1.805062
-1.808277
-0.808798
-0.739888
-0.743297
-1.896992
-1.996510
-2.975671
-2.922873
-2.953345
1.718525
1.704471
1.771212
-1.976291
1.973428
-2.041003
-2.036305
1.030576
1.098105
1.056022
1.082978
1.098847
0.965205
1.052263
2.546853
2.488872
2.498918
2.446327
2.286617
2.323418
2.324775
-2.381844
-2.395209
-2.418692
2.362182
-2.425142
-2.338431
-2.313112
-1.839032
-1.749124
-1.910366
-1.362957
-1.192161
-1.251591
2.054029
2.049625
2.013553
1.983403
-1.348066
1.008807
0.982904
1.183734
0.981501
0.959775
0.989920
0.962575
-1.638490
-1.650961
-1.604462
-1.682646
-1.967458
-1.917868
-1.913041
0.788897
0.757031
0.724240
0.695289
-2.129211
-2.158551
-2.142625
2.452161
-2.175619
2.398357
-2.111898
-2.067129
-1.534717
-1.471813
-0.350548
-0.435038
-1.559778
-1.503419
-1.456257
0.272727
0.253102
-2.616872
-2.669942
-2.658959
-2.723034
0.236571
0.293076
0.274233
0.340957
0.349227
0.383318
1.270703
1.300843
1.189454
1.398503
-1.292585
-1.564420
-0.657991
-0.744947
-0.672246
-0.737497
0.021914
0.061137
0.142364
0.116248
0.106847
0.080751
0.850090
0.896861
0.908549
0.089049
-0.082944
-0.083006
0.852193
-0.495494
-0.538016
-0.469328
-0.512023
0.953729
0.918480
0.630030
0.867094
-2.136187
-2.052398
-2.065179
-1.969688
-3.078315
-3.094197
-3.167286
-3.026317
0.053035
1.390553
1.364712
1.374453
1.354000
-3.030745
-2.992626
1.356487
-2.909982
-1.978868
-1.977726
-2.011588
-2.003420
-1.913104
-1.859352
-1.937596
1.178256
-0.706884
-0.724031
-0.783399
-1.820535
-1.781823
1.145225
1.122763
1.136798
-1.958665
-1.974773
1.806284
1.732242
1.769683
2.553878
2.500209
-2.004946
-1.923089
-3.241364
-3.237530
-1.623232
-1.608805
-1.646153
-1.577536
-0.225544
-0.262975
-0.200245
-0.253006
-1.854650
-1.659056
-1.677008
0.083323
-1.693323
-2.065199
-2.021356
-2.019187
-0.255704
-0.334832
-1.092710
-1.027793
-1.079914
-1.010532
1.154167
1.180337
1.150335
1.182806
1.397905
1.428639
1.438866
1.386842
-0.725810
-0.759949
-0.798359
0.642592
0.626718
0.676320
-0.475142
-0.558176
0.600892
-1.703501
-1.689195
-3.270725
-3.138386
-1.656405
-1.730439
-2.952779
-1.731348
2.710766
2.789211
2.749535
2.475527
1.165988
1.227072
1.268514
-2.342709
-2.244299
-2.314059
-1.255781
-1.266183
-1.294437
-1.297563
2.299765
1.627568
1.658684
1.668630
-2.481501
-2.844059
-2.815684
-2.789313
-2.873912
1.668801
1.702544
-2.895314
-2.934574
-2.888501
-0.985931
1.608057
1.633324
1.664351
2.124868
2.055348
2.101512
1.618708
-1.571238
-1.609757
-1.586780
-1.601634
-1.225923
-1.193305
-1.223363
-2.710316
-2.769980
2.548090
2.502690
2.433883
-1.646970
-1.575672
-1.478940
2.521715
2.566940
2.525606
-0.332870
-0.387830
-1.392729
-1.169119
-1.621153
-1.542168
-1.440816
1.171663
1.055512
1.253499
-0.248705
-0.353866
-0.571914
0.158764
0.207834
0.175859
-1.350591
-1.306818
-1.311414
0.283886
0.249639
0.309069
0.272214
0.061799
0.134437
-0.994957
-0.982924
-0.900306
-0.892993
-3.521957
-3.585322
-3.429811
-3.700395
-2.032848
-2.097262
-2.043897
-3.394369
-1.924484
0.839090
0.823813
0.864642
0.829583
1.349278
2.587655
2.525646
1.320435
2.241965
2.276191
0.235141
0.289142
1.336049
-1.149563
1.296392
1.063429
1.048538
1.078640
2.204624
2.207274
1.841533
1.781896
2.108891
2.045201
2.337997
2.394429
1.075182
2.117679
1.095678
1.068512
0.512566
0.494905
0.537855
-3.349645
-3.351045
-3.409041
-3.288544
0.466356
1.328036
1.306431
1.228823
1.271567
1.365289
-1.962279
-1.992437
-2.983711
-2.916425
-1.938523
-2.637222
-2.320225
1.278981
1.291444
1.298459
1.267427
1.315729
2.429426
2.475214
0.154794
0.156476
1.281560
1.231897
1.277890
1.217950
1.262399
-2.289294
-2.160946
-1.286095
-1.313900
-2.143033
-2.141970
-2.901197
-3.142654
-1.386040
-1.325592
-2.582721
-2.570773
-2.629439
-2.542357
0.187807
0.216675
-2.141061
-2.076018
-2.093940
-2.180650
-2.166943
-0.478275
-1.014294
-2.142867
-2.271225
-2.196456
-2.203119
1.374989
1.475470
-2.214893
1.244885
1.244807
1.274261
1.196220
-1.685628
2.286533
-2.552654
-2.592980
-1.695219
-1.661595
-1.592188
-0.051765
0.028419
0.014153
-2.499450
-2.509761
-0.034430
0.002638
0.025879
1.756147
1.771260
1.734881
1.759627
1.365146
1.387525
1.353311
1.392737
1.331605
1.303562
1.275728
-2.319792
-2.308876
1.017515
1.024011
1.045682
-0.590999
-0.485401
-0.574622
-0.517448
0.998735
-2.954061
-3.029974