# vtk DataFile Version 2.0
Test
ASCII
DATASET POLYDATA
POINTS 6352 float
0.000000 0.000000 0.000000
1.000000 0.000000 0.000000
1.000000 0.800000 0.000000
1.000000 1.000000 0.000000
0.000000 1.000000 0.000000
0.000000 0.200000 0.000000
0.300000 0.330000 0.000000
0.700000 0.680000 0.000000
0.050000 0.000000 0.000000
0.100000 0.000000 0.000000
0.150000 0.000000 0.000000
0.200000 0.000000 0.000000
0.250000 0.000000 0.000000
0.300000 0.000000 0.000000
0.350000 0.000000 0.000000
0.400000 0.000000 0.000000
0.450000 0.000000 0.000000
0.500000 0.000000 0.000000
0.550000 0.000000 0.000000
0.600000 0.000000 0.000000
0.650000 0.000000 0.000000
0.700000 0.000000 0.000000
0.750000 0.000000 0.000000
0.800000 0.000000 0.000000
0.850000 0.000000 0.000000
0.900000 0.000000 0.000000
0.950000 0.000000 0.000000
1.000000 0.048545 0.000000
1.000000 0.094438 0.000000
1.000000 0.137825 0.000000
1.000000 0.178843 0.000000
1.000000 0.217620 0.000000
1.000000 0.254280 0.000000
1.000000 0.288938 0.000000
1.000000 0.321703 0.000000
1.000000 0.352678 0.000000
1.000000 0.381962 0.000000
1.000000 0.409647 0.000000
1.000000 0.435820 0.000000
1.000000 0.460563 0.000000
1.000000 0.483955 0.000000
1.000000 0.506070 0.000000
1.000000 0.526976 0.000000
1.000000 0.546741 0.000000
1.000000 0.565427 0.000000
1.000000 0.583092 0.000000
1.000000 0.599793 0.000000
1.000000 0.615581 0.000000
1.000000 0.630507 0.000000
1.000000 0.644618 0.000000
1.000000 0.657958 0.000000
1.000000 0.670570 0.000000
1.000000 0.682493 0.000000
1.000000 0.693765 0.000000
1.000000 0.704421 0.000000
1.000000 0.714495 0.000000
1.000000 0.724019 0.000000
1.000000 0.733023 0.000000
1.000000 0.741536 0.000000
1.000000 0.749583 0.000000
1.000000 0.757191 0.000000
1.000000 0.764383 0.000000
1.000000 0.771183 0.000000
1.000000 0.777611 0.000000
1.000000 0.783688 0.000000
1.000000 0.789434 0.000000
1.000000 0.794865 0.000000
1.000000 0.805174 0.000000
1.000000 0.811554 0.000000
1.000000 0.819418 0.000000
1.000000 0.829114 0.000000
1.000000 0.841067 0.000000
1.000000 0.855804 0.000000
1.000000 0.873972 0.000000
1.000000 0.896371 0.000000
1.000000 0.923985 0.000000
1.000000 0.958029 0.000000
0.950000 1.000000 0.000000
0.900000 1.000000 0.000000
0.850000 1.000000 0.000000
0.800000 1.000000 0.000000
0.750000 1.000000 0.000000
0.700000 1.000000 0.000000
0.650000 1.000000 0.000000
0.600000 1.000000 0.000000
0.550000 1.000000 0.000000
0.500000 1.000000 0.000000
0.450000 1.000000 0.000000
0.400000 1.000000 0.000000
0.350000 1.000000 0.000000
0.300000 1.000000 0.000000
0.250000 1.000000 0.000000
0.200000 1.000000 0.000000
0.150000 1.000000 0.000000
0.100000 1.000000 0.000000
0.050000 1.000000 0.000000
0.000000 0.951455 0.000000
0.000000 0.905562 0.000000
0.000000 0.862175 0.000000
0.000000 0.821157 0.000000
0.000000 0.782380 0.000000
0.000000 0.745720 0.000000
0.000000 0.711062 0.000000
0.000000 0.678297 0.000000
0.000000 0.647322 0.000000
0.000000 0.618038 0.000000
0.000000 0.590353 0.000000
0.000000 0.564180 0.000000
0.000000 0.539437 0.000000
0.000000 0.516045 0.000000
0.000000 0.493930 0.000000
0.000000 0.473024 0.000000
0.000000 0.453259 0.000000
0.000000 0.434573 0.000000
0.000000 0.416908 0.000000
0.000000 0.400207 0.000000
0.000000 0.384419 0.000000
0.000000 0.369493 0.000000
0.000000 0.355382 0.000000
0.000000 0.342042 0.000000
0.000000 0.329430 0.000000
0.000000 0.317507 0.000000
0.000000 0.306235 0.000000
0.000000 0.295579 0.000000
0.000000 0.285505 0.000000
0.000000 0.275981 0.000000
0.000000 0.266977 0.000000
0.000000 0.258464 0.000000
0.000000 0.250417 0.000000
0.000000 0.242809 0.000000
0.000000 0.235617 0.000000
0.000000 0.228817 0.000000
0.000000 0.222389 0.000000
0.000000 0.216312 0.000000
0.000000 0.210566 0.000000
0.000000 0.205135 0.000000
0.000000 0.194826 0.000000
0.000000 0.188446 0.000000
0.000000 0.180582 0.000000
0.000000 0.170886 0.000000
0.000000 0.158933 0.000000
0.000000 0.144196 0.000000
0.000000 0.126028 0.000000
0.000000 0.103629 0.000000
0.000000 0.076015 0.000000
0.000000 0.041971 0.000000
0.303738 0.333271 0.000000
0.307477 0.336542 0.000000
0.311215 0.339813 0.000000
0.314953 0.343084 0.000000
0.318692 0.346355 0.000000
0.322430 0.349626 0.000000
0.326168 0.352897 0.000000
0.329907 0.356168 0.000000
0.333645 0.359439 0.000000
0.337383 0.362710 0.000000
0.341121 0.365981 0.000000
0.344860 0.369252 0.000000
0.348598 0.372523 0.000000
0.352336 0.375794 0.000000
0.356075 0.379065 0.000000
0.359813 0.382336 0.000000
0.363551 0.385607 0.000000
0.367290 0.388879 0.000000
0.371028 0.392150 0.000000
0.374766 0.395421 0.000000
0.378505 0.398692 0.000000
0.382243 0.401963 0.000000
0.385981 0.405234 0.000000
0.389720 0.408505 0.000000
0.393458 0.411776 0.000000
0.397196 0.415047 0.000000
0.400935 0.418318 0.000000
0.404673 0.421589 0.000000
0.408411 0.424860 0.000000
0.412150 0.428131 0.000000
0.415888 0.431402 0.000000
0.419626 0.434673 0.000000
0.423364 0.437944 0.000000
0.427103 0.441215 0.000000
0.430841 0.444486 0.000000
0.434579 0.447757 0.000000
0.438318 0.451028 0.000000
0.442056 0.454299 0.000000
0.445794 0.457570 0.000000
0.449533 0.460841 0.000000
0.453271 0.464112 0.000000
0.457009 0.467383 0.000000
0.460748 0.470654 0.000000
0.464486 0.473925 0.000000
0.468224 0.477196 0.000000
0.471963 0.480467 0.000000
0.475701 0.483738 0.000000
0.479439 0.487009 0.000000
0.483178 0.490280 0.000000
0.486916 0.493551 0.000000
0.490654 0.496822 0.000000
0.494393 0.500093 0.000000
0.498131 0.503364 0.000000
0.501869 0.506636 0.000000
0.505607 0.509907 0.000000
0.509346 0.513178 0.000000
0.513084 0.516449 0.000000
0.516822 0.519720 0.000000
0.520561 0.522991 0.000000
0.524299 0.526262 0.000000
0.528037 0.529533 0.000000
0.531776 0.532804 0.000000
0.535514 0.536075 0.000000
0.539252 0.539346 0.000000
0.542991 0.542617 0.000000
0.546729 0.545888 0.000000
0.550467 0.549159 0.000000
0.554206 0.552430 0.000000
0.557944 0.555701 0.000000
0.561682 0.558972 0.000000
0.565421 0.562243 0.000000
0.569159 0.565514 0.000000
0.572897 0.568785 0.000000
0.576636 0.572056 0.000000
0.580374 0.575327 0.000000
0.584112 0.578598 0.000000
0.587850 0.581869 0.000000
0.591589 0.585140 0.000000
0.595327 0.588411 0.000000
0.599065 0.591682 0.000000
0.602804 0.594953 0.000000
0.606542 0.598224 0.000000
0.610280 0.601495 0.000000
0.614019 0.604766 0.000000
0.617757 0.608037 0.000000
0.621495 0.611308 0.000000
0.625234 0.614579 0.000000
0.628972 0.617850 0.000000
0.632710 0.621121 0.000000
0.636449 0.624393 0.000000
0.640187 0.627664 0.000000
0.643925 0.630935 0.000000
0.647664 0.634206 0.000000
0.651402 0.637477 0.000000
0.655140 0.640748 0.000000
0.658879 0.644019 0.000000
0.662617 0.647290 0.000000
0.666355 0.650561 0.000000
0.670093 0.653832 0.000000
0.673832 0.657103 0.000000
0.677570 0.660374 0.000000
0.681308 0.663645 0.000000
0.685047 0.666916 0.000000
0.688785 0.670187 0.000000
0.692523 0.673458 0.000000
0.696262 0.676729 0.000000
0.004545 0.201970 0.000000
0.009091 0.203939 0.000000
0.013636 0.205909 0.000000
0.018182 0.207879 0.000000
0.022727 0.209848 0.000000
0.027273 0.211818 0.000000
0.031818 0.213788 0.000000
0.036364 0.215758 0.000000
0.040909 0.217727 0.000000
0.045455 0.219697 0.000000
0.050000 0.221667 0.000000
0.054545 0.223636 0.000000
0.059091 0.225606 0.000000
0.063636 0.227576 0.000000
0.068182 0.229545 0.000000
0.072727 0.231515 0.000000
0.077273 0.233485 0.000000
0.081818 0.235455 0.000000
0.086364 0.237424 0.000000
0.090909 0.239394 0.000000
0.095455 0.241364 0.000000
0.100000 0.243333 0.000000
0.104545 0.245303 0.000000
0.109091 0.247273 0.000000
0.113636 0.249242 0.000000
0.118182 0.251212 0.000000
0.122727 0.253182 0.000000
0.127273 0.255152 0.000000
0.131818 0.257121 0.000000
0.136364 0.259091 0.000000
0.140909 0.261061 0.000000
0.145455 0.263030 0.000000
0.150000 0.265000 0.000000
0.154545 0.266970 0.000000
0.159091 0.268939 0.000000
0.163636 0.270909 0.000000
0.168182 0.272879 0.000000
0.172727 0.274848 0.000000
0.177273 0.276818 0.000000
0.181818 0.278788 0.000000
0.186364 0.280758 0.000000
0.190909 0.282727 0.000000
0.195455 0.284697 0.000000
0.200000 0.286667 0.000000
0.204545 0.288636 0.000000
0.209091 0.290606 0.000000
0.213636 0.292576 0.000000
0.218182 0.294545 0.000000
0.222727 0.296515 0.000000
0.227273 0.298485 0.000000
0.231818 0.300455 0.000000
0.236364 0.302424 0.000000
0.240909 0.304394 0.000000
0.245455 0.306364 0.000000
0.250000 0.308333 0.000000
0.254545 0.310303 0.000000
0.259091 0.312273 0.000000
0.263636 0.314242 0.000000
0.268182 0.316212 0.000000
0.272727 0.318182 0.000000
0.277273 0.320152 0.000000
0.281818 0.322121 0.000000
0.286364 0.324091 0.000000
0.290909 0.326061 0.000000
0.295455 0.328030 0.000000
0.704615 0.681846 0.000000
0.709231 0.683692 0.000000
0.713846 0.685538 0.000000
0.718462 0.687385 0.000000
0.723077 0.689231 0.000000
0.727692 0.691077 0.000000
0.732308 0.692923 0.000000
0.736923 0.694769 0.000000
0.741538 0.696615 0.000000
0.746154 0.698462 0.000000
0.750769 0.700308 0.000000
0.755385 0.702154 0.000000
0.760000 0.704000 0.000000
0.764615 0.705846 0.000000
0.769231 0.707692 0.000000
0.773846 0.709538 0.000000
0.778462 0.711385 0.000000
0.783077 0.713231 0.000000
0.787692 0.715077 0.000000
0.792308 0.716923 0.000000
0.796923 0.718769 0.000000
0.801538 0.720615 0.000000
0.806154 0.722462 0.000000
0.810769 0.724308 0.000000
0.815385 0.726154 0.000000
0.820000 0.728000 0.000000
0.824615 0.729846 0.000000
0.829231 0.731692 0.000000
0.833846 0.733538 0.000000
0.838462 0.735385 0.000000
0.843077 0.737231 0.000000
0.847692 0.739077 0.000000
0.852308 0.740923 0.000000
0.856923 0.742769 0.000000
0.861538 0.744615 0.000000
0.866154 0.746462 0.000000
0.870769 0.748308 0.000000
0.875385 0.750154 0.000000
0.880000 0.752000 0.000000
0.884615 0.753846 0.000000
0.889231 0.755692 0.000000
0.893846 0.757538 0.000000
0.898462 0.759385 0.000000
0.903077 0.761231 0.000000
0.907692 0.763077 0.000000
0.912308 0.764923 0.000000
0.916923 0.766769 0.000000
0.921538 0.768615 0.000000
0.926154 0.770462 0.000000
0.930769 0.772308 0.000000
[...]
POINT_DATA 6352
SCALARS UX float 1
LOOKUP_TABLE default
-0.000008
0.000009
6.973346
-4.619269
-22.116760
-15.647797
-7.139330
-5.669246
0.000000
-0.000001
-0.000001
-0.000001
-0.000000
-0.000000
-0.000000
-0.000000
-0.000000
-0.000000
-0.000000
0.000000
0.000000
0.000000
0.000001
0.000001
0.000001
0.000002
-0.000001
1.708199
2.693082
3.324218
3.853923
4.253105
4.618288
4.941888
5.224173
5.475233
5.695041
5.888316
6.058304
6.208405
6.340154
6.454190
6.552387
6.636435
6.710112
6.775416
6.834134
6.887472
6.936817
6.981991
7.023112
7.057817
7.087091
7.109284
7.124525
7.133167
7.136773
7.134569
7.128107
7.118323
7.105315
7.091284
7.075090
7.056961
7.037805
7.017157
6.995298
6.944907
6.905607
6.837002
6.727567
6.551031
6.075905
5.466859
3.649325
0.598145
-2.945642
-6.853620
-7.921499
-8.683761
-9.306206
-9.919191
-10.584517
-11.306094
-12.072417
-12.861819
-13.680212
-14.522124
-15.383547
-16.265343
-17.150325
-18.037280
-18.904923
-19.751877
-20.569519
-21.357176
-21.947604
-21.766663
-21.557613
-21.344492
-21.123026
-20.906529
-20.695467
-20.489520
-20.289909
-20.096124
-19.909065
-19.729603
-19.556529
-19.389360
-19.226664
-19.071997
-18.917937
-18.767707
-18.620710
-18.473845
-18.329542
-18.187843
-18.045455
-17.905753
-17.766494
-17.627948
-17.490320
-17.352823
-17.215901
-17.079198
-16.944355
-16.809515
-16.675397
-16.542174
-16.410795
-16.280235
-16.150062
-16.021218
-15.894385
-15.770044
-15.517380
-15.347142
-15.117130
-14.802303
-14.368710
-13.762529
-12.855828
-11.192537
-8.272234
-4.312522
-7.030544
-6.945256
-6.881999
-6.838075
-6.804754
-6.892635
-6.942076
-6.940023
-7.217062
-7.338400
-7.259747
-7.302307
-7.309473
-7.272714
-7.325682
-7.229376
-7.210966
-7.278623
-7.266302
-7.241699
-7.344073
-7.203629
-7.051308
-7.044542
-7.108853
-7.004898
-6.749376
-6.906406
-6.722469
-6.801263
-6.819634
-6.905954
-6.833864
-6.831030
-6.848519
-6.777924
-6.679532
-6.661453
-6.636694
-6.682480
-6.632861
-6.544502
-6.363767
-6.446322
-6.344732
-6.189681
-6.371132
-6.380379
-6.334532
-6.260778
-6.310212
-6.274985
-6.201752
-5.988077
-5.922398
-5.892642
-5.854261
-5.806790
-5.670419
-5.849607
-5.788561
-5.656383
-5.524450
-6.686147
-6.642575
-6.533236
-6.271998
-6.118414
-5.938856
-6.052418
-6.027381
-5.948314
-6.065778
-6.009358
-5.766248
-5.639468
-5.676161
-5.569814
-5.468190
-4.738204
-4.519406
-4.498997
-4.410342
-4.477068
-7.626997
-7.517639
-7.319416
-7.138436
-6.080215
-6.113383
-5.901588
-5.923420
-5.843569
-5.802348
-5.835311
-5.845306
-5.724126
-6.909728
-6.841734
-6.711993
-6.446181
-6.393716
-6.032715
-5.933530
-5.846172
-5.765507
-15.623345
-15.597846
-15.572214
-15.545267
-15.516965
-15.486880
-15.453997
-15.419850
-15.384031
-15.347595
-15.308795
-15.269447
-15.230458
-15.190651
-15.144731
-15.098247
-15.053324
-15.009251
-14.964768
-14.917295
-14.870803
-14.823998
-14.771226
-14.719364
-14.663770
-14.607004
-14.549286
-14.485836
-14.419501
-14.355167
-14.312536
-14.262087
-14.194459
-14.100058
-14.027275
-13.960870
-13.982071
-13.886437
-13.824422
-13.743767
-13.699805
-13.660087
-13.527693
-13.414620
-13.293446
-13.120287
-13.008698
-12.852801
-12.692750
-12.516441
-12.329396
-12.113505
-12.030623
-11.901005
-11.661977
-11.412712
-11.267369
-10.763111
-10.319817
-9.959396
-9.474381
-9.014698
-8.528202
-8.170681
-7.768335
-5.029206
-4.248218
-3.421635
-2.692698
-2.064819
-1.387963
-1.006100
-0.494813
0.091447
0.135211
0.582602
0.971826
1.337156
1.593345
1.723494
1.989209
2.219833
2.509177
2.663956
2.825485
2.994570
3.260123
3.430746
3.649678
3.784439
3.975693
4.089628
4.165448
4.259156
4.371650
4.424864
4.512208
4.603773
4.688006
4.784189
4.891558
4.998597
5.112065
5.206842
5.295392
5.383092
5.468790
5.555351
5.638568
5.724440
5.805032
5.884214
5.963913
6.038983
6.109151
6.171981
6.229458
6.285216
6.342229
6.404619
6.464650
6.522887
6.581150
6.641785
6.699837
6.756368
6.811991
6.866618
6.920400
2.424674
2.441467
2.583193
2.315988
0.132794
0.084819
0.168402
0.064764
-10.341574
-10.543993
-8.935754
-9.504856
-7.384544
-9.920820
-17.094561
-16.883209
-17.044093
-16.873325
-9.805294
-1.093292
-0.913302
-0.924923
-0.739371
-9.697472
-9.718746
-9.370679
-10.101413
-1.746964
-1.781591
-1.568850
-11.532556
-11.265260
-11.605469
-11.235426
4.524608
4.364588
4.663381
4.324466
-0.463678
-0.685253
-0.396779
-0.791956
-16.351504
-16.292743
-16.495591
-15.211802
-15.219620
-15.020061
-15.353326
-15.294280
-15.441091
3.478179
3.853816
3.589564
3.810756
-0.336984
-0.250124
-0.208531
-4.783662
-4.472130
-3.119833
4.693053
4.880942
4.894334
-12.470721
-12.750624
-12.609536
-10.222449
-9.127904
-8.583774
4.938205
5.024754
4.892185
-12.718768
-15.019827
-15.072448
-14.831908
-0.977082
-1.150249
-1.164388
-1.020830
1.279012
1.122953
1.189085
-8.396749
-8.671395
-9.453114
1.131142
2.036222
2.289821
1.971672
-8.438295
-8.923088
-8.214471
2.207744
2.314172
1.787683
1.251009
1.257021
1.340807
-9.475165
-9.789527
-9.412474
1.169955
-0.304479
-0.163547
-0.202398
-8.708388
-15.088284
-15.230161
-15.129239
-0.203651
2.313560
2.232794
2.364431
-2.276128
-2.382938
-1.959729
4.145754
4.113484
4.034981
4.015560
3.936775
3.917618
-16.196069
-16.639024
-15.989731
-16.343931
-1.120361
-0.947085
-0.961729
2.350615
4.815234
-0.767911
-18.046037
-17.801247
-18.002318
-14.715188
-14.897107
-14.743234
-2.482407
-1.528349
-1.423745
-17.712361
2.810730
2.705742
2.810181
2.615569
-9.174278
-8.594205
-8.547874
-0.534430
-14.067266
-14.062841
-13.972571
-1.000758
-1.118847
-0.916920
-1.038718
3.914144
3.805156
3.754239
-7.800249
2.087484
1.632299
1.638468
-17.362554
-17.273438
-17.151744
3.756015
3.876564
3.755939
3.822991
-15.036861
-14.880472
-15.066151
-14.908846
-2.109561
-1.843012
-2.008700
3.649614
-10.676064
-11.295300
-9.345883
-1.843874
-9.465813
-10.142591
-11.517660
-9.375765
4.523757
4.777357
-11.646510
4.497620
-14.431765
-14.347035
-14.243446
-14.496805
-1.872314
-1.934104
-2.210649
-3.404305
-14.141094
-9.213959
-14.220103
-14.237234
-14.333072
-14.135280
1.663770
1.578809
1.558108
1.455282
-14.727216
-14.686485
-1.610361
-14.471864
-14.478175
-14.618367
-14.562498
-1.328822
-1.211320
-1.179610
4.039607
4.060523
3.900652
-1.373512
4.195104
-5.913285
-4.989894
-4.662216
4.701521
4.757934
4.610749
-4.050846
-12.516020
-12.636506
-12.642737
4.831055
-12.764628
-15.334117
-15.272816
-15.204470
-12.393661
-12.401788
-12.287814
-15.094414
2.491374
2.412603
2.310262
0.433646
0.395180
0.591840
-2.151758
-2.252099
-1.853107
-13.187085
-13.065881
-13.243294
2.082577
2.148133
2.049857
2.214720
-0.289272
-0.394320
-0.260018
0.496372
2.255899
0.737335
0.678853
0.642274
2.574745
2.924557
2.835761
3.208894
3.605345
3.670569
3.568919
3.649398
5.723186
5.604364
5.513980
-9.620123
-9.015096
-7.944165
-10.924758
5.355203
-0.576568
-0.169512
-0.633863
-12.933090
-12.810716
-12.995784
2.502609
2.440872
2.586237
5.581952
5.849211
2.376328
-18.700155
-18.881220
-18.527095
6.335805
6.318858
6.247122
6.211628
-9.403057
-8.660429
2.197731
2.174551
2.065025
-13.588099
-13.674344
-13.845477
-13.863801
4.652734
-12.646952
4.508167
4.498156
-13.569749
-13.713170
-13.612126
-14.127661
-13.798839
-14.117377
-13.922930
-15.665378
-15.828717
-15.813130
-15.975306
-15.492836
-15.476472
-15.303498
-14.176198
-13.742782
-13.916150
-16.073765
-15.919191
-16.087286
-13.524418
-1.171403
-1.395959
-1.228264
0.789112
0.696117
-15.676097
-15.595344
-15.508200
-15.789039
-14.848749
-14.963017
-14.822795
-14.947844
-13.501269
-13.814281
-13.646160
-13.933091
-16.802678
-16.906401
-17.022561
-15.157024
-16.716194
-8.178493
-8.105771
-7.409165
-10.838550
-11.160426
-10.202771
-11.828780
4.165995
4.296912
4.156869
4.343296
-15.744366
-15.923787
2.966865
2.961366
2.756284
-14.232037
-14.158341
2.778456
5.329891
5.376690
5.441694
5.489702
5.270794
5.223019
5.143898
-14.316058
0.608523
0.500312
0.654655
0.464391
3.672536
3.552002
3.741064
-13.277414
-12.577067
-12.889786
-12.152722
5.778799
5.724173
5.826737
5.672676
-19.883556
-19.565322
-19.648682
-19.363167
-15.067584
-15.278134
-4.733437
-4.104031
-5.986697
-6.182168
-16.841830
-16.427751
-16.457932
-16.100852
5.010881
5.118229
4.636901
4.759321
4.576182
-9.345755
-9.177768
-9.601743
4.385545
4.469921
4.576837
-3.562495
-3.830545
-2.659952
3.408559
3.269890
3.470099
3.208885
4.286419
4.170461
4.091876
-0.185324
-0.147205
-15.102627
-15.226068
-15.024383
-10.988800
-10.918205
-10.731756
2.569050
2.638314
-14.681746
-14.641226
-14.373910
-14.431385
-14.193378
-14.175846
-13.933208
4.652307
-9.819401
-10.137565
-9.790706
4.898040
-14.712722
-14.786218
-14.668445
-8.060369
-8.286702
-8.943618
-14.359292
-3.331805
-4.009926
-8.930535
-14.738586
-12.582127
-13.092565
-13.001987
-0.306506
-0.388540
-0.598690
4.660352
4.785432
4.458148
-13.425361
-13.403225
-15.077058
-15.131940
-10.503800
-10.311470
-10.809874
-15.310411
-10.926192
-10.614545
-10.563330
-10.278273
-14.517159
-14.483357
-14.315211
-14.658880
-13.125086
-13.511318
-13.569692
-13.893110
-11.851468
-12.526761
-12.992803
2.983951
3.050353
3.249747
-0.129241
-0.269697
-0.121070
-15.543243
-15.730574
-11.326627
3.265625
-14.305558
-14.244452
-14.602702
-13.836483
-19.367340
-19.104474
-19.145637
-18.932538
-10.510244
-10.472373
-10.714405
-15.316271
-15.185065
-15.448863
-15.284669
-17.871017
-17.536340
-17.779041
2.749439
3.546825
3.275668
-15.433636
-15.217511
-14.939225
-15.036161
-15.107131
-6.931800
-5.361662
-5.727225
-15.175561
-15.267282
-13.334380
-13.089096
5.353774
5.567345
5.578802
-2.858063
-3.374802
-1.123637
-14.105886
-14.109010
-14.021423
-13.292484
-13.698266
-13.663228
-14.790585
-14.974045
-14.745854
-13.408824
-13.918585
-13.552834
-0.385281
-0.322287
-0.451806
-11.185490
-10.909267
-0.231130
-13.547674
-13.715947
-15.458966
-15.385767
-15.494637
-10.914807
-11.124664
-11.126838
-10.922826
-10.204780
-9.817003
-10.297241
-9.381656
-15.692959
-15.579620
-15.563181
-15.450954
-8.868798
-7.713168
-9.396018
4.380848
4.232566
4.403553
4.295653
-13.961935
-14.105098
-13.913623
-13.422705
-12.487781
-13.311656
-14.167982
-13.609976
-13.863556
-13.902637
4.499995
4.188515
4.459246
4.130252
-15.450041
-15.521533
-15.669128
5.880987
5.960864
6.067025
1.638072
1.884760
1.657791
1.870780
-16.902113
-16.711817
-16.590532
-15.446885
-15.582848
-15.585878
-15.728398
5.699065
5.647475
5.806896
-11.724308
-11.865541
-11.904295
2.116797
2.155740
2.278446
2.340011
2.169084
2.034276
1.999237
-1.373150
-1.239757
-1.396174
-0.717807
-0.634885
-0.777082
-1.254245
-15.866752
-15.977087
-15.820988
-0.807080
-0.913623
-0.941842
-11.541717
-11.524155
-15.491129
-15.366581
-15.338745
6.451392
6.528370
6.479686
-15.185242
-11.334452
1.053805
-1.613094
0.193658
-14.564431
-14.712461
-14.907043
-14.096635
-14.194516
-14.331871
-14.334275
-14.576579
4.915619
5.234307
5.205354
-16.188256
-16.336947
-16.384495
-16.472604
-14.265104
-14.318633
-13.975216
-14.471110
-12.131786
-12.258754
-12.135363
-12.285685
4.109402
4.193814
4.631415
3.606624
4.633008
4.985126
5.185267
5.229088
5.303760
6.490025
6.583742
6.611270
5.352332
4.546818
4.535906
4.701801
3.321306
3.423018
-12.447801
-12.293326
2.461227
-2.665830
-2.779082
-3.033932
-3.372161
-13.986592
-14.490776
-14.418264
-14.194899
3.108741
3.081406
2.973357
2.922053
-16.819792
-16.684853
-16.581551
-2.501903
-2.006726
-2.163920
-0.910495
-0.471617
-0.029977
-1.746290
-12.647510
-11.224168
-12.503547
5.018793
4.958032
4.891641
0.128105
0.256753
-1.867742
-9.965183
-12.877949
-11.315089
-11.830566
3.768110
3.958798
3.891405
-11.957013
-0.730543
-12.442171
-12.860535
-12.245483
-12.877805
-1.820774
-2.261431
3.836974
4.008467
-17.802874
-17.579289
-10.339548
-9.902442
-10.264139
-9.695597
-1.307122
-1.529322
-1.456292
-1.044429
-0.878318
-1.043662
-1.437742
0.555816
-0.933880
-0.911328
-10.002612
-11.184415
-9.603132
5.974158
5.950478
6.063241
-1.575374
-1.117762
-1.210948
-12.260067
-10.956720
-11.263653
-13.882303
-13.648097
-13.521743
2.270105
2.264662
3.346392
5.042420
5.084246
5.159270
5.203773
0.942476
-13.980293
-14.073154
-14.239907
-12.711089
-12.872960
-12.902827
3.086112
3.239632
3.233496
3.386842
2.988745
2.858304
2.630801
-13.153945
-13.876606
-13.707465
0.747439
-17.132940
-16.914140
-17.071624
-15.230198
-11.735047
-11.727027
-10.779712
-14.592083
-14.385393
-14.678869
-10.571024
3.456566
3.630403
-4.336877
-5.314510
-4.957264
-3.969428
-4.719072
-5.582032
-12.588143
-13.197404
-13.165500
-13.654745
-6.474294
1.316415
1.449329
1.396823
-16.573968
-16.702688
-16.563728
-13.726106
-13.886222
-13.423369
-13.857479
-14.098563
-14.045240
-14.279025
5.367223
6.053564
4.534588
4.749722
4.599171
-14.352217
-14.417348
-14.562644
5.963862
-14.801707
-14.691009
-0.307769
-0.214169
1.604266
1.592091
1.376488
4.371909
4.382418
4.526392
1.335121
4.659778
4.655507
-15.668684
-15.827454
-15.822950
-15.963989
-13.239148
-13.240481
-13.405691
-1.124989
-1.530438
-1.805101
1.983754
1.961791
2.256094
-12.940646
-12.778472
-12.972328
-12.737899
2.096205
3.357794
3.406240
3.273612
-0.603570
-0.540052
-0.451303
-3.426749
-3.793877
-4.669243
-14.960036
-15.128050
-14.965106
-10.547239
-15.157280
3.354722
-12.152761
-11.988843
-12.020486
-10.521533
-10.300420
-10.369660
-5.295090
-4.702995
-3.936465
-3.528173
-14.818404
-14.925841
2.935362
3.134408
3.031218
-3.792056
-1.976065
-0.729742
-0.929705
-15.553092
-15.701518
-15.734505
-15.917977
0.613687
1.289582
1.346423
0.913513
-18.675198
-18.077625
-18.539191
4.116340
4.110540
4.278366
-18.420702
4.494426
4.425823
3.457261
3.655390
-14.468291
-14.408606
-14.372267
-13.945617
-13.950567
-14.274136
-14.489652
-14.435492
-15.039265
-15.130780
-15.295128
-14.909496
0.562509
0.579512
0.471471
5.174437
5.133863
5.258644
-14.907854
-14.824515
-14.759396
5.057378
-14.806412
-14.876794
-14.944568
-13.171612
-13.757454
-13.230171
6.541662
6.487515
-13.949548
-14.200927
-13.442265
-13.862555
-10.488290
-10.656275
-10.731068
-13.452202
0.565213
0.651465
0.638101
1.164503
0.931750
1.011822
-0.226599
-0.130596
-0.157687
-16.229238
-16.112335
-16.059121
0.757581
6.012815
6.099944
6.045690
-8.875982
-9.285390
-9.563857
-10.567289
-11.051217
-11.022721
-10.743716
-0.281986
-0.374831
-14.635522
-14.517139
-14.557507
-1.684096
-1.513064
-1.650852
2.112795
2.203858
-13.192548
-13.450357
-13.388555
-1.454253
-14.423820
-10.473688
-10.237313
-13.003888
-13.558672
-13.181384
-13.572530
-18.391602
-18.820081
-18.609281
-18.643916
-15.526152
-15.582224
-15.417793
-0.158173
-0.059614
-0.006900
-15.428955
-15.668384
-15.177212
-15.363250
-15.527522
1.673031
1.558518
1.582035
1.640567
1.498399
1.320281
1.371495
1.426531
1.246406
1.461075
1.304035
-16.570225
-16.754269
-16.584244
6.774069
6.731394
2.531780
2.696909
3.080724
3.258766
-16.436898
-16.292493
-14.617698
-14.591706
-14.475386
-15.426173
-15.428799
-14.862786
-14.894486
-14.980221
-14.801553
-15.900935
-15.735508
-16.141770
-15.982002
-16.264898
1.932452
1.893956
2.061729
2.046065
-18.294202
-18.102934
-18.427536
1.865225
1.787232
6.662451
1.724003
-16.757953
-16.899830
-16.855527
6.707919
-1.579686
-3.932818
-3.263964
-17.013148
-3.600231
-18.152199
-15.199808
-2.458871
-2.137481
-2.346295
-15.262737
-14.573675
-14.647625
-14.563464
-14.664661
-15.059029
-15.135220
-15.297850
-15.277816
4.152893
4.046634
4.199370
4.043043
-14.773733
-14.759329
-14.670384
-14.852872
2.215035
2.149109
2.586248
2.400734
-13.479359
-13.609597
-15.557275
-15.491155
1.971564
1.956154
2.145251
1.779284
1.759803
1.694098
-14.470368
-14.378193
-13.890627
-13.922929
-14.142395
-14.062397
2.403139
-11.957235
-12.579105
-12.922691
-11.225263
-2.542435
-2.225113
-2.460821
-3.953072
-5.802018
-2.030269
-14.399547
-14.280213
-14.271172
-14.153759
-11.797103
-11.973721
-0.239284
-0.383017
1.263757
1.201727
-0.431226
-13.479558
-12.533498
-12.890331
-11.376823
2.262010
2.503487
2.276456
2.709516
1.478897
1.660904
2.577245
2.636017
2.799552
-14.509143
-14.216746
-14.182870
5.908890
5.909845
6.118848
1.884394
1.857584
6.128888
-0.357482
-2.690975
0.532084
-11.234768
-11.089197
-11.062028
2.100567
-14.552687
-14.622182
2.114108
2.301365
2.346351
3.982453
3.827239
3.952529
-16.427612
-16.569679
3.714165
-15.990296
-16.097358
-15.975665
4.480462
4.351692
-0.534382
-1.312347
-0.068193
-13.809024
-13.831087
-13.999826
-14.009907
-14.466330
-14.405371
-5.016473
-4.539893
-6.754837
-14.378019
-14.485108
-14.706812
-14.779466
-14.454230
-14.555085
0.528158
0.606298
0.417129
1.558487
1.776495
2.169738
2.225332
2.041921
1.766321
1.603842
1.355826
1.315081
-11.102261
-10.478704
-10.408850
-16.352938
-16.562607
-16.339030
-16.614302
-16.163164
-16.387710
-16.124359
0.307690
0.863130
0.838919
0.492154
6.016988
5.895101
5.891407
-14.379805
-14.406349
-14.320012
-2.752938
-3.504868
-2.913902
-14.482440
-11.667669
-10.569808
-11.080795
-11.217978
-11.228357
-10.800155
-11.026143
-11.770385
-12.916700
-16.773629
-16.649683
-16.716842
3.403290
3.379059
3.554018
-12.640222
4.129782
-13.225376
-13.248483
0.248395
0.618246
0.346396
0.608113
0.464318
-0.781783
-0.053656
6.799573
6.750146
6.698473
6.658329
6.591881
6.635238
6.672093
-14.533171
-14.615549
-14.701005
6.704546
-14.760234
-14.300630
-14.156917
-12.055476
-11.458222
-12.746189
-5.696342
-4.262033
-4.809419
4.301359
4.297051
4.192304
4.113644
-5.530449
-1.861205
-1.863985
-0.297452
0.915253
0.909524
1.007433
0.984620
-13.882079
-13.826523
-13.752763
-13.956161
-14.964183
-14.792655
-14.867831
1.194302
1.083403
1.057039
0.934119
-13.861761
-14.067017
-13.886873
6.593266
-14.097616
6.550471
-13.791551
-13.458574
-9.758667
-9.570693
-10.924478
-11.145308
-14.371669
-14.089421
-14.120648
-0.087469
-0.041536
-15.872458
-16.017979
-15.990367
-16.160655
0.003674
0.081609
0.140712
-0.310554
-0.212842
-0.195155
0.198800
0.557224
-1.462048
2.113944
-8.981656
-10.149588
-2.845052
-3.102315
-2.629984
-2.767477
-1.076581
-1.003665
-0.906331
-1.035207
-0.932513
-1.087800
1.121054
1.265398
1.252043
-1.632886
-2.430905
-2.387854
1.189501
-1.829098
-1.748586
-1.585549
-1.544136
1.350864
1.215086
-2.556775
-1.485218
-12.996651
-12.409211
-12.414945
-11.513867
-17.005216
-17.034288
-17.207286
-16.878446
-1.732852
2.006688
1.821721
1.963727
1.908415
-16.900155
-16.805129
1.979337
-16.608451
-13.556292
-13.687221
-13.829773
-13.889223
-14.694382
-14.536536
-14.669676
2.030508
-11.669553
-11.848906
-11.839371
-14.508627
-14.406698
1.244329
1.142878
1.267583
-14.474498
-14.440640
3.622617
3.421311
3.534285
6.732313
6.642882
-14.512829
-14.395458
-18.812300
-18.983646
-13.155220
-13.191653
-13.303462
-12.959197
-1.361225
-1.283985
-1.149508
-1.120772
-11.888370
-13.407747
-13.368764
-0.848046
-13.496922
-13.501191
-13.229784
-13.182777
-2.116698
-2.706542
-12.362561
-12.306704
-12.467647
-12.418425
1.436148
1.509069
1.483335
1.456477
1.574994
1.780607
2.015897
1.359873
-1.969782
-1.992872
-2.256017
0.571624
0.600043
0.683123
-1.338259
-1.536586
0.507266
-13.426701
-13.313030
-19.246058
-19.086753
-13.198714
-13.531911
-16.705568
-13.633084
5.991746
6.192907
6.125659
6.567923
-0.443871
0.179259
0.511598
-15.007958
-14.609689
-14.889056
-12.465463
-12.580628
-12.580955
-12.699522
6.829617
4.204044
4.361357
4.385750
-15.469020
-16.224064
-16.085254
-16.050263
-16.272710
3.197413
3.345924
-16.305786
-16.414770
-16.249151
-4.218388
-3.483819
3.000413
3.156705
6.354909
6.147408
6.279838
2.938214
-13.251127
-13.343460
-13.212657
-13.394805
-12.152085
-12.038612
-12.293168
-16.124453
-16.280909
6.867404
6.831940
6.701012
-9.237758
-8.238575
-6.965113
5.978981
6.114123
6.062466
-10.718766
-10.692974
-5.897071
-11.776072
-15.390925
-15.073949
-14.840802
-7.095405
-7.431003
-6.328041
-0.456394
-0.514091
-1.360359
-1.461813
-1.220687
-1.400330
-12.931170
-12.920639
-13.074214
-0.669587
-0.641129
-0.526836
-0.512497
-1.680069
-1.489653
-3.674222
-3.317617
-3.006244
-2.729207
-20.092375
-20.062847
-19.648779
-20.501604
-12.861565
-13.373702
-12.906192
-19.370703
-11.881750
0.820802
0.834988
0.931750
0.906406
1.618455
6.227761
6.148148
1.247410
6.530328
6.601858
-0.507930
-0.405100
1.380822
-12.529795
0.931583
0.781463
0.782632
0.953942
6.471783
6.459486
4.441465
4.325563
6.335388
6.123278
6.624648
6.724956