# vtk DataFile Version 2.0
Test
ASCII
DATASET POLYDATA
POINTS 6352 float
0.000000 0.000000 0.000000
1.000000 0.000000 0.000000
1.000000 0.800000 0.000000
1.000000 1.000000 0.000000
0.000000 1.000000 0.000000
0.000000 0.200000 0.000000
0.300000 0.330000 0.000000
0.700000 0.680000 0.000000
0.050000 0.000000 0.000000
0.100000 0.000000 0.000000
0.150000 0.000000 0.000000
0.200000 0.000000 0.000000
0.250000 0.000000 0.000000
0.300000 0.000000 0.000000
0.350000 0.000000 0.000000
0.400000 0.000000 0.000000
0.450000 0.000000 0.000000
0.500000 0.000000 0.000000
0.550000 0.000000 0.000000
0.600000 0.000000 0.000000
0.650000 0.000000 0.000000
0.700000 0.000000 0.000000
0.750000 0.000000 0.000000
0.800000 0.000000 0.000000
0.850000 0.000000 0.000000
0.900000 0.000000 0.000000
0.950000 0.000000 0.000000
1.000000 0.048545 0.000000
1.000000 0.094438 0.000000
1.000000 0.137825 0.000000
1.000000 0.178843 0.000000
1.000000 0.217620 0.000000
1.000000 0.254280 0.000000
1.000000 0.288938 0.000000
1.000000 0.321703 0.000000
1.000000 0.352678 0.000000
1.000000 0.381962 0.000000
1.000000 0.409647 0.000000
1.000000 0.435820 0.000000
1.000000 0.460563 0.000000
1.000000 0.483955 0.000000
1.000000 0.506070 0.000000
1.000000 0.526976 0.000000
1.000000 0.546741 0.000000
1.000000 0.565427 0.000000
1.000000 0.583092 0.000000
1.000000 0.599793 0.000000
1.000000 0.615581 0.000000
1.000000 0.630507 0.000000
1.000000 0.644618 0.000000
1.000000 0.657958 0.000000
1.000000 0.670570 0.000000
1.000000 0.682493 0.000000
1.000000 0.693765 0.000000
1.000000 0.704421 0.000000
1.000000 0.714495 0.000000
1.000000 0.724019 0.000000
1.000000 0.733023 0.000000
1.000000 0.741536 0.000000
1.000000 0.749583 0.000000
1.000000 0.757191 0.000000
1.000000 0.764383 0.000000
1.000000 0.771183 0.000000
1.000000 0.777611 0.000000
1.000000 0.783688 0.000000
1.000000 0.789434 0.000000
1.000000 0.794865 0.000000
1.000000 0.805174 0.000000
1.000000 0.811554 0.000000
1.000000 0.819418 0.000000
1.000000 0.829114 0.000000
1.000000 0.841067 0.000000
1.000000 0.855804 0.000000
1.000000 0.873972 0.000000
1.000000 0.896371 0.000000
1.000000 0.923985 0.000000
1.000000 0.958029 0.000000
0.950000 1.000000 0.000000
0.900000 1.000000 0.000000
0.850000 1.000000 0.000000
0.800000 1.000000 0.000000
0.750000 1.000000 0.000000
0.700000 1.000000 0.000000
0.650000 1.000000 0.000000
0.600000 1.000000 0.000000
0.550000 1.000000 0.000000
0.500000 1.000000 0.000000
0.450000 1.000000 0.000000
0.400000 1.000000 0.000000
0.350000 1.000000 0.000000
0.300000 1.000000 0.000000
0.250000 1.000000 0.000000
0.200000 1.000000 0.000000
0.150000 1.000000 0.000000
0.100000 1.000000 0.000000
0.050000 1.000000 0.000000
0.000000 0.951455 0.000000
0.000000 0.905562 0.000000
0.000000 0.862175 0.000000
0.000000 0.821157 0.000000
0.000000 0.782380 0.000000
0.000000 0.745720 0.000000
0.000000 0.711062 0.000000
0.000000 0.678297 0.000000
0.000000 0.647322 0.000000
0.000000 0.618038 0.000000
0.000000 0.590353 0.000000
0.000000 0.564180 0.000000
0.000000 0.539437 0.000000
0.000000 0.516045 0.000000
0.000000 0.493930 0.000000
0.000000 0.473024 0.000000
0.000000 0.453259 0.000000
0.000000 0.434573 0.000000
0.000000 0.416908 0.000000
0.000000 0.400207 0.000000
0.000000 0.384419 0.000000
0.000000 0.369493 0.000000
0.000000 0.355382 0.000000
0.000000 0.342042 0.000000
0.000000 0.329430 0.000000
0.000000 0.317507 0.000000
0.000000 0.306235 0.000000
0.000000 0.295579 0.000000
0.000000 0.285505 0.000000
0.000000 0.275981 0.000000
0.000000 0.266977 0.000000
0.000000 0.258464 0.000000
0.000000 0.250417 0.000000
0.000000 0.242809 0.000000
0.000000 0.235617 0.000000
0.000000 0.228817 0.000000
0.000000 0.222389 0.000000
0.000000 0.216312 0.000000
0.000000 0.210566 0.000000
0.000000 0.205135 0.000000
0.000000 0.194826 0.000000
0.000000 0.188446 0.000000
0.000000 0.180582 0.000000
0.000000 0.170886 0.000000
0.000000 0.158933 0.000000
0.000000 0.144196 0.000000
0.000000 0.126028 0.000000
0.000000 0.103629 0.000000
0.000000 0.076015 0.000000
0.000000 0.041971 0.000000
0.303738 0.333271 0.000000
0.307477 0.336542 0.000000
0.311215 0.339813 0.000000
0.314953 0.343084 0.000000
0.318692 0.346355 0.000000
0.322430 0.349626 0.000000
0.326168 0.352897 0.000000
0.329907 0.356168 0.000000
0.333645 0.359439 0.000000
0.337383 0.362710 0.000000
0.341121 0.365981 0.000000
0.344860 0.369252 0.000000
0.348598 0.372523 0.000000
0.352336 0.375794 0.000000
0.356075 0.379065 0.000000
0.359813 0.382336 0.000000
0.363551 0.385607 0.000000
0.367290 0.388879 0.000000
0.371028 0.392150 0.000000
0.374766 0.395421 0.000000
0.378505 0.398692 0.000000
0.382243 0.401963 0.000000
0.385981 0.405234 0.000000
0.389720 0.408505 0.000000
0.393458 0.411776 0.000000
0.397196 0.415047 0.000000
0.400935 0.418318 0.000000
0.404673 0.421589 0.000000
0.408411 0.424860 0.000000
0.412150 0.428131 0.000000
0.415888 0.431402 0.000000
0.419626 0.434673 0.000000
0.423364 0.437944 0.000000
0.427103 0.441215 0.000000
0.430841 0.444486 0.000000
0.434579 0.447757 0.000000
0.438318 0.451028 0.000000
0.442056 0.454299 0.000000
0.445794 0.457570 0.000000
0.449533 0.460841 0.000000
0.453271 0.464112 0.000000
0.457009 0.467383 0.000000
0.460748 0.470654 0.000000
0.464486 0.473925 0.000000
0.468224 0.477196 0.000000
0.471963 0.480467 0.000000
0.475701 0.483738 0.000000
0.479439 0.487009 0.000000
0.483178 0.490280 0.000000
0.486916 0.493551 0.000000
0.490654 0.496822 0.000000
0.494393 0.500093 0.000000
0.498131 0.503364 0.000000
0.501869 0.506636 0.000000
0.505607 0.509907 0.000000
0.509346 0.513178 0.000000
0.513084 0.516449 0.000000
0.516822 0.519720 0.000000
0.520561 0.522991 0.000000
0.524299 0.526262 0.000000
0.528037 0.529533 0.000000
0.531776 0.532804 0.000000
0.535514 0.536075 0.000000
0.539252 0.539346 0.000000
0.542991 0.542617 0.000000
0.546729 0.545888 0.000000
0.550467 0.549159 0.000000
0.554206 0.552430 0.000000
0.557944 0.555701 0.000000
0.561682 0.558972 0.000000
0.565421 0.562243 0.000000
0.569159 0.565514 0.000000
0.572897 0.568785 0.000000
0.576636 0.572056 0.000000
0.580374 0.575327 0.000000
0.584112 0.578598 0.000000
0.587850 0.581869 0.000000
0.591589 0.585140 0.000000
0.595327 0.588411 0.000000
0.599065 0.591682 0.000000
0.602804 0.594953 0.000000
0.606542 0.598224 0.000000
0.610280 0.601495 0.000000
0.614019 0.604766 0.000000
0.617757 0.608037 0.000000
0.621495 0.611308 0.000000
0.625234 0.614579 0.000000
0.628972 0.617850 0.000000
0.632710 0.621121 0.000000
0.636449 0.624393 0.000000
0.640187 0.627664 0.000000
0.643925 0.630935 0.000000
0.647664 0.634206 0.000000
0.651402 0.637477 0.000000
0.655140 0.640748 0.000000
0.658879 0.644019 0.000000
0.662617 0.647290 0.000000
0.666355 0.650561 0.000000
0.670093 0.653832 0.000000
0.673832 0.657103 0.000000
0.677570 0.660374 0.000000
0.681308 0.663645 0.000000
0.685047 0.666916 0.000000
0.688785 0.670187 0.000000
0.692523 0.673458 0.000000
0.696262 0.676729 0.000000
0.004545 0.201970 0.000000
0.009091 0.203939 0.000000
0.013636 0.205909 0.000000
0.018182 0.207879 0.000000
0.022727 0.209848 0.000000
0.027273 0.211818 0.000000
0.031818 0.213788 0.000000
0.036364 0.215758 0.000000
0.040909 0.217727 0.000000
0.045455 0.219697 0.000000
0.050000 0.221667 0.000000
0.054545 0.223636 0.000000
0.059091 0.225606 0.000000
0.063636 0.227576 0.000000
0.068182 0.229545 0.000000
0.072727 0.231515 0.000000
0.077273 0.233485 0.000000
0.081818 0.235455 0.000000
0.086364 0.237424 0.000000
0.090909 0.239394 0.000000
0.095455 0.241364 0.000000
0.100000 0.243333 0.000000
0.104545 0.245303 0.000000
0.109091 0.247273 0.000000
0.113636 0.249242 0.000000
0.118182 0.251212 0.000000
0.122727 0.253182 0.000000
0.127273 0.255152 0.000000
0.131818 0.257121 0.000000
0.136364 0.259091 0.000000
0.140909 0.261061 0.000000
0.145455 0.263030 0.000000
0.150000 0.265000 0.000000
0.154545 0.266970 0.000000
0.159091 0.268939 0.000000
0.163636 0.270909 0.000000
0.168182 0.272879 0.000000
0.172727 0.274848 0.000000
0.177273 0.276818 0.000000
0.181818 0.278788 0.000000
0.186364 0.280758 0.000000
0.190909 0.282727 0.000000
0.195455 0.284697 0.000000
0.200000 0.286667 0.000000
0.204545 0.288636 0.000000
0.209091 0.290606 0.000000
0.213636 0.292576 0.000000
0.218182 0.294545 0.000000
0.222727 0.296515 0.000000
0.227273 0.298485 0.000000
0.231818 0.300455 0.000000
0.236364 0.302424 0.000000
0.240909 0.304394 0.000000
0.245455 0.306364 0.000000
0.250000 0.308333 0.000000
0.254545 0.310303 0.000000
0.259091 0.312273 0.000000
0.263636 0.314242 0.000000
0.268182 0.316212 0.000000
0.272727 0.318182 0.000000
0.277273 0.320152 0.000000
0.281818 0.322121 0.000000
0.286364 0.324091 0.000000
0.290909 0.326061 0.000000
0.295455 0.328030 0.000000
0.704615 0.681846 0.000000
0.709231 0.683692 0.000000
0.713846 0.685538 0.000000
0.718462 0.687385 0.000000
0.723077 0.689231 0.000000
0.727692 0.691077 0.000000
0.732308 0.692923 0.000000
0.736923 0.694769 0.000000
0.741538 0.696615 0.000000
0.746154 0.698462 0.000000
0.750769 0.700308 0.000000
0.755385 0.702154 0.000000
0.760000 0.704000 0.000000
0.764615 0.705846 0.000000
0.769231 0.707692 0.000000
0.773846 0.709538 0.000000
0.778462 0.711385 0.000000
0.783077 0.713231 0.000000
0.787692 0.715077 0.000000
0.792308 0.716923 0.000000
0.796923 0.718769 0.000000
0.801538 0.720615 0.000000
0.806154 0.722462 0.000000
0.810769 0.724308 0.000000
0.815385 0.726154 0.000000
0.820000 0.728000 0.000000
0.824615 0.729846 0.000000
0.829231 0.731692 0.000000
0.833846 0.733538 0.000000
0.838462 0.735385 0.000000
0.843077 0.737231 0.000000
0.847692 0.739077 0.000000
0.852308 0.740923 0.000000
0.856923 0.742769 0.000000
0.861538 0.744615 0.000000
0.866154 0.746462 0.000000
0.870769 0.748308 0.000000
0.875385 0.750154 0.000000
0.880000 0.752000 0.000000
0.884615 0.753846 0.000000
0.889231 0.755692 0.000000
0.893846 0.757538 0.000000
0.898462 0.759385 0.000000
0.903077 0.761231 0.000000
0.907692 0.763077 0.000000
0.912308 0.764923 0.000000
0.916923 0.766769 0.000000
0.921538 0.768615 0.000000
0.926154 0.770462 0.000000
0.930769 0.772308 0.000000
[...]
POINT_DATA 6352
SCALARS UX float 1
LOOKUP_TABLE default
-0.000004
0.000005
4.212691
2.038668
-8.738183
-5.444404
-2.921484
0.296232
0.000000
-0.000001
-0.000000
-0.000000
-0.000000
-0.000000
-0.000000
-0.000000
-0.000000
-0.000000
-0.000000
0.000000
0.000000
0.000000
0.000000
0.000000
0.000000
0.000001
-0.000001
1.366624
2.120277
2.615597
3.020318
3.326296
3.599176
3.835722
4.037679
4.213501
4.362282
4.487685
4.591166
4.676270
4.744497
4.797210
4.835934
4.862370
4.879029
4.887119
4.887799
4.881635
4.870480
4.854139
4.834780
4.810176
4.783552
4.753942
4.721710
4.687060
4.651561
4.614558
4.576303
4.536988
4.496644
4.456678
4.415906
4.374610
4.333428
4.292533
4.252013
4.170700
4.116696
4.044615
3.947309
3.816080
3.636472
3.398155
3.075405
2.698965
2.308560
1.090564
0.390792
-0.135136
-0.585477
-0.981841
-1.378362
-1.780991
-2.196939
-2.635800
-3.106396
-3.609759
-4.141577
-4.706146
-5.279169
-5.856137
-6.437048
-7.015490
-7.591538
-8.166313
-8.649035
-8.565167
-8.487601
-8.420285
-8.361183
-8.306161
-8.254246
-8.204193
-8.154387
-8.102381
-8.046743
-7.986411
-7.921574
-7.850767
-7.773965
-7.696974
-7.611558
-7.524024
-7.434577
-7.340866
-7.246561
-7.151958
-7.054834
-6.958454
-6.861756
-6.765013
-6.668752
-6.572582
-6.477131
-6.382142
-6.289170
-6.196919
-6.106096
-6.016759
-5.929477
-5.843873
-5.759747
-5.677562
-5.597484
-5.519766
-5.365867
-5.266298
-5.137390
-4.970773
-4.755890
-4.471579
-4.108933
-3.628139
-2.952591
-1.867310
-2.903846
-2.879573
-2.858780
-2.826367
-2.850287
-2.818300
-2.806196
-2.771213
-2.742461
-2.747271
-2.732849
-2.739337
-2.721143
-2.691910
-2.669066
-2.654136
-2.617879
-2.598939
-2.588658
-2.548050
-2.548116
-2.521745
-2.466229
-2.432063
-2.428113
-2.392299
-2.398492
-2.312790
-2.243986
-2.220867
-2.233412
-2.221979
-2.164598
-2.125577
-2.133107
-2.071344
-2.071380
-2.070894
-2.031661
-1.990948
-1.925486
-1.912045
-1.881632
-1.817939
-1.757706
-1.697656
-1.728003
-1.695561
-1.653330
-1.633296
-1.602614
-1.584203
-1.602358
-1.497873
-1.443980
-1.432546
-1.400116
-1.348071
-1.256187
-1.294952
-1.252005
-1.201871
-1.222199
-1.189157
-1.126986
-1.065025
-1.039986
-0.946521
-0.934552
-0.934995
-0.881657
-0.843398
-0.857223
-0.876705
-0.892309
-0.857525
-0.823028
-0.817731
-0.765642
-0.893072
-0.840417
-0.836849
-0.804708
-0.787161
-0.817708
-0.784708
-0.740506
-0.702416
-0.618926
-0.638661
-0.604163
-0.620476
-0.574964
-0.551878
-0.528357
-0.467314
-0.484202
-0.452006
-0.379174
-0.291806
-0.171082
-0.057433
-0.013715
0.073363
0.142084
0.197939
-5.427018
-5.409549
-5.392148
-5.374388
-5.356331
-5.337870
-5.318712
-5.299225
-5.279333
-5.259165
-5.238198
-5.216822
-5.195505
-5.173961
-5.151205
-5.128240
-5.105355
-5.082333
-5.059011
-5.034974
-5.010991
-4.986825
-4.961506
-4.936182
-4.910155
-4.884037
-4.857399
-4.830630
-4.803785
-4.776542
-4.749058
-4.721154
-4.692252
-4.663343
-4.633929
-4.604076
-4.573360
-4.542024
-4.510307
-4.477466
-4.444330
-4.410430
-4.374763
-4.337679
-4.300367
-4.262459
-4.223844
-4.183105
-4.140965
-4.098769
-4.055898
-4.006511
-3.954794
-3.902850
-3.850629
-3.799717
-3.738431
-3.666591
-3.610756
-3.567520
-3.440214
-3.431961
-3.354505
-3.230749
-3.096518
0.518612
0.725362
0.894072
1.051157
1.151991
1.273934
1.384710
1.427932
1.514760
1.571825
1.634381
1.711079
1.783534
1.855350
1.922898
1.986868
2.049101
2.111684
2.172002
2.230871
2.287313
2.342877
2.395482
2.448397
2.502079
2.552139
2.601887
2.650821
2.699166
2.747803
2.795212
2.841204
2.887895
2.934037
2.979318
3.024085
3.068461
3.112548
3.156790
3.199952
3.243194
3.286663
3.329671
3.371936
3.414673
3.456653
3.498121
3.539361
3.580350
3.621180
3.661704
3.701878
3.741650
3.781468
3.821460
3.861016
3.900269
3.939375
3.978564
4.017294
4.055910
4.094657
4.133577
4.172869
1.979291
1.977748
2.076449
1.900674
0.071925
0.039983
0.111986
0.032927
-3.601147
-3.645232
-3.296165
-3.420426
-2.982423
-3.508566
-6.394722
-6.255232
-6.329456
-6.215273
-3.483325
-0.866052
-0.738451
-0.751788
-0.613116
-0.783756
-0.783722
-0.585588
-1.022912
-1.250035
-1.289832
-1.171912
-1.852700
-1.696511
-1.905561
-1.688595
3.477446
3.360603
3.582507
3.328170
-0.419369
-0.614567
-0.376343
-0.684026
-5.955609
-5.928117
-6.057084
-5.183344
-5.186516
-5.079866
-5.310249
-5.288628
-5.377655
2.709438
2.987990
2.788022
2.961286
-0.006704
0.023490
0.087331
-1.503471
-1.651887
-1.026524
3.584624
3.722753
3.721649
-2.709114
-2.895373
-2.844931
-3.890032
-3.540542
-3.412569
3.092495
3.140994
3.042349
-2.817142
-5.176694
-5.195900
-5.066248
-0.739228
-0.815029
-0.857510
-0.719863
1.439736
1.382536
1.390443
-1.201052
-1.316534
-1.630527
1.399374
2.060598
2.111781
2.033381
-0.383520
-0.573150
-0.330281
2.078416
2.110862
2.017675
1.283957
1.267359
1.330930
-0.827260
-0.979505
-0.836436
1.224896
-0.277988
-0.164878
-0.172317
-0.519764
-4.983835
-5.059833
-5.021464
-0.209237
1.979932
1.919233
1.999065
-1.592665
-1.643517
-1.422017
3.035363
2.989121
2.963578
2.923655
2.917978
2.878652
-4.747826
-5.070923
-4.656753
-4.922579
-0.902924
-0.777000
-0.795481
1.980001
3.007533
-0.653831
-7.003320
-6.843556
-6.932966
-5.079993
-5.183113
-5.083334
0.021830
0.386262
0.469310
-6.758755
2.303709
2.258349
2.305893
2.218750
-1.062640
-0.891091
-0.835988
0.701344
-4.232716
-4.262113
-4.209165
-0.101403
-0.150800
-0.091412
-0.154803
3.011802
2.933802
2.900502
-0.580911
2.075750
1.938099
2.003354
-6.610747
-6.543834
-6.463946
2.858237
2.925476
2.847581
2.868822
-5.231376
-5.148120
-5.250971
-5.161378
-0.961903
-0.868547
-0.896638
2.827854
-3.891366
-4.094602
-3.482863
-0.905448
-3.502014
-3.683046
-3.917695
-3.394276
3.480938
3.670873
-4.016391
3.464650
-4.819254
-4.803098
-4.763723
-4.849135
-1.344534
-1.377171
-1.514529
-0.146117
-4.290619
-3.256353
-4.499019
-4.488027
-4.536468
-4.457600
1.638027
1.611087
1.585080
1.559130
-5.057804
-5.028193
-1.196387
-4.699211
-4.681861
-4.742869
-4.701348
-0.408115
-0.391468
-0.342300
3.104467
3.116609
3.005131
-0.455703
3.214443
-2.522883
-2.277722
-2.147525
3.209423
3.214110
3.120328
-2.019055
-3.079216
-3.117822
-3.169787
3.294563
-3.196364
-4.992638
-4.989705
-4.917728
-3.045943
-2.996593
-2.973484
-4.885726
2.035947
1.997221
1.919704
1.057749
1.022458
1.087779
-1.498780
-1.572469
-1.346870
-3.498438
-3.393836
-3.469201
1.914096
1.954725
1.917860
1.971442
0.127202
0.039996
0.102421
1.034872
1.901447
0.941604
0.925646
0.879432
2.159226
2.301332
2.231716
2.414950
2.760688
2.804016
2.734325
2.784723
4.321723
4.228070
4.181402
-3.415334
-3.304740
-3.088655
-3.728338
4.066702
0.566860
0.696854
0.566310
-3.567969
-3.499303
-3.557154
2.095635
2.051463
2.133962
4.236890
4.418371
2.025322
-7.390390
-7.525975
-7.322836
4.084183
4.027628
4.013437
3.950211
-2.459104
-2.244158
2.020034
2.034076
1.985901
-3.521946
-3.530364
-3.663962
-3.622726
3.112085
-3.484111
2.988702
3.021040
-3.761079
-3.849593
-3.804840
-4.756646
-4.628508
-4.753729
-4.654817
-5.474841
-5.581974
-5.567400
-5.674149
-5.365433
-5.360251
-5.254518
-4.820156
-4.696831
-4.757149
-5.760861
-5.663928
-5.778896
-4.672898
-0.243460
-0.329049
-0.299381
0.999000
0.957788
-5.607693
-5.575352
-5.514362
-5.686470
-4.994409
-5.048598
-4.997951
-5.063193
-4.283939
-4.368887
-4.335536
-4.417051
-6.269915
-6.305753
-6.402703
-5.199090
-6.199631
0.200527
0.203087
0.606181
-2.727475
-2.871813
-2.464002
-3.033831
3.166656
3.244401
3.150755
3.285471
-5.555815
-5.677608
2.316787
2.313031
2.162761
-4.468288
-4.450842
2.180691
3.484653
3.552346
3.575022
3.642524
3.409502
3.392684
3.312154
-4.508195
0.581430
0.488012
0.591276
0.438916
2.839499
2.749893
2.889721
-4.481868
-4.315146
-4.438171
-4.190836
3.880304
3.881329
3.949418
3.807218
-7.930024
-7.764748
-7.750558
-7.584442
-5.122884
-5.244140
0.878641
1.030618
0.623696
0.598487
-5.477850
-5.214364
-5.178080
-4.968058
3.215176
3.320472
3.193536
3.277358
3.131254
-0.615603
-0.504021
-0.789562
3.359073
3.423868
3.494809
-1.297837
-1.392922
-0.887558
2.643362
2.540643
2.688320
2.497186
3.284069
3.204012
3.144234
-0.204409
-0.149475
-5.025135
-5.080322
-4.969331
-1.549223
-1.541702
-1.402144
2.094975
2.129090
-5.032869
-4.996844
-4.888328
-4.891736
-4.640495
-4.649033
-4.569389
3.582174
-0.918665
-1.102833
-0.880781
3.764830
-4.520035
-4.577260
-4.520412
-0.105260
-0.155782
-0.432635
-4.698820
-0.813890
-1.039338
-0.401775
-4.580210
-4.400952
-4.529564
-4.572622
-0.274982
-0.335531
-0.512469
2.910574
2.960997
2.817873
-3.583767
-3.518944
-4.846177
-4.842987
-1.317952
-1.220848
-1.507938
-4.945592
-1.555337
-1.356879
-1.303217
-1.145500
-4.980051
-4.950185
-4.884575
-5.049729
-4.316465
-4.463203
-4.484614
-4.657053
-3.742798
-3.868960
-3.980392
2.345160
2.408635
2.460186
-0.121410
-0.239132
-0.108515
-5.554383
-5.663551
-3.568079
2.472354
-4.743702
-4.721578
-4.882455
-4.559711
-7.787525
-7.639880
-7.626215
-7.523782
-1.543010
-1.454319
-1.602178
-4.603424
-4.483926
-4.660947
-4.519771
-6.478307
-6.231928
-6.326125
2.230433
2.409844
2.348532
-4.713349
-4.569812
-4.975095
-5.006159
-5.061301
0.483399
0.857338
0.829118
-5.074868
-4.636730
-4.087225
-4.025471
3.176225
3.302241
3.296584
0.142171
-0.032296
0.754625
-4.202109
-4.228804
-4.175404
-4.484611
-4.618790
-4.583134
-4.974107
-5.067469
-4.948965
-4.528089
-4.691196
-4.535731
-0.212459
-0.129616
-0.211689
-1.732011
-1.587209
-0.099167
-4.161168
-4.622564
-5.307762
-5.257079
-5.310242
-1.899561
-1.950307
-2.020348
-1.823451
-1.812740
-1.665221
-1.804369
-1.529790
-5.366481
-5.309869
-5.279745
-5.231729
-0.859251
-0.496533
-1.078354
3.026984
2.943307
3.076667
2.946101
-4.686455
-4.740494
-4.677470
-4.418526
-4.130245
-4.385303
-4.749988
-4.483836
-4.627283
-4.626415
3.482365
3.252760
3.457678
3.204585
-5.209629
-5.236863
-5.321013
3.439883
3.493168
3.567633
1.840942
1.910422
1.853285
1.895915
-6.348139
-6.232792
-6.143492
-5.071496
-5.132279
-5.168923
-5.228521
3.331726
3.322222
3.415208
-2.613672
-2.638129
-2.696484
1.760541
1.776372
1.864985
1.894031
1.804919
1.714649
1.707170
-0.834700
-0.743487
-0.791023
-0.334556
-0.250935
-0.316811
-0.800763
-5.573122
-5.642244
-5.543695
-0.276999
-0.360320
-0.316990
-2.574311
-2.535167
-5.378093
-5.327053
-5.286139
3.965101
4.035189
3.965471
-5.216182
-2.498945
2.064140
1.620185
1.880318
-4.858982
-4.931834
-5.024220
-4.164999
-4.232829
-4.762077
-4.760874
-4.875198
2.989130
3.140817
3.123499
-5.482826
-5.536547
-5.612931
-5.645840
-4.796276
-4.803245
-4.711463
-4.850768
-2.657864
-2.752317
-2.722332
-2.713762
2.685113
2.715871
2.873551
2.532090
2.879109
3.030750
3.421118
3.484519
3.520141
4.455016
4.542800
4.526559
3.596453
2.879680
2.876696
2.978105
2.533158
2.554171
-4.045096
-4.011002
2.149661
-1.177068
-1.187707
-1.279225
-1.369716
-4.615088
-4.827934
-4.796552
-4.199799
2.469414
2.455214
2.385869
2.359065
-5.849330
-5.792741
-5.684968
-0.872074
-0.734268
-0.765569
0.586987
0.682892
0.840586
0.236584
-4.160382
-3.816406
-4.091972
3.462337
3.382551
3.368697
1.567635
1.609699
1.216022
-3.438203
-4.415943
-4.131301
-4.210386
2.910671
3.049501
2.999711
-4.293532
-0.615730
-4.251781
-4.383097
-4.221256
-4.375746
-0.668931
-0.836245
2.960800
3.086974
-6.775480
-6.651127
-1.766119
-1.625319
-1.692413
-1.507731
-0.972374
-1.095356
-1.075086
-0.516054
-0.407707
-0.449542
1.720789
2.074903
1.855562
-0.479010
-3.467039
-3.722402
-3.398339
3.876084
3.915080
3.970501
-0.259092
-0.087307
-0.103707
-3.756554
-3.418796
-3.445384
-4.707795
-4.651215
-4.561777
2.139119
2.126553
2.364167
3.353742
3.417129
3.451597
3.523494
1.877953
-4.741576
-4.769588
-4.834498
-3.114215
-3.224293
-3.191029
2.440979
2.510313
2.510942
2.594374
2.397798
2.346591
2.270178
-4.296737
-4.547625
-4.498311
1.005594
-6.467349
-6.322700
-6.433284
-5.302616
-3.902448
-3.896921
-3.657228
-4.949526
-4.828516
-4.989961
-3.631554
2.681388
2.809533
-1.979311
-2.307715
-2.202743
-2.182425
-2.385754
-2.587072
-4.098936
-4.254214
-4.251342
-4.374295
-2.793050
1.253043
1.329001
1.319931
-5.995346
-6.093007
-6.020042
-4.567907
-4.614114
-4.447073
-4.697868
-4.759310
-4.752545
-4.819036
3.174636
4.013300
3.481534
3.635718
3.525192
-4.741550
-4.775167
-4.861408
3.966822
-4.985612
-4.925152
-0.342803
-0.253695
1.748582
1.759716
1.691341
2.783004
2.786393
2.883490
1.697509
2.983641
2.971001
-5.487946
-5.592155
-5.583724
-5.678783
-3.874678
-3.854937
-3.923638
0.047055
-0.116493
-0.201705
1.610654
1.587414
1.800655
-3.093943
-2.965811
-3.053194
-3.009352
1.681024
2.594243
2.623867
2.537484
-0.124650
-0.127158
-0.045900
-1.697193
-1.761031
-2.036228
-5.208980
-5.305853
-5.204984
-3.573153
-5.309669
2.592942
-2.608171
-2.555616
-2.502305
-1.282389
-1.169613
-1.185889
-2.476555
-2.323714
-2.106298
-1.988408
-5.126586
-5.192802
2.295714
2.440441
2.366494
1.065499
1.034201
1.503510
1.412463
-5.455317
-5.557584
-5.561766
-5.687610
1.688706
1.831403
1.856183
1.757635
-6.471191
-6.073063
-6.329803
2.648324
2.667781
2.754940
-6.356579
2.897428
2.831017
2.538103
2.667461
-4.553373
-4.547948
-4.516178
-4.566953
-4.582941
-4.714797
-4.858373
-4.809619
-5.102241
-5.150965
-5.243828
-5.031713
0.927897
0.964194
0.902783
3.250160
3.254601
3.343985
-4.594149
-4.573666
-4.512410
3.182350
-4.508160
-4.522105
-4.584634
-4.447313
-4.606473
-4.469625
3.936438
3.895326
-4.722675
-4.804217
-4.583625
-4.671903
-1.237258
-1.331826
-1.376101
-4.594520
0.903456
0.956028
0.975275
0.950359
0.756304
0.825446
0.007027
0.045551
0.072422
-5.858777
-5.774189
-5.744780
0.607405
3.790390
3.872690
3.784758
-1.054779
-1.146917
-1.304128
-2.268595
-2.402031
-2.412161
-2.279187
-0.165454
-0.248631
-4.454218
-4.403402
-4.392352
-0.890078
-0.823254
-0.827447
1.818785
1.887095
-3.117039
-3.263045
-3.286548
-0.761243
-4.330978
-1.706376
-1.608101
-4.284146
-4.419567
-4.336965
-4.440453
-6.591123
-6.870494
-6.803525
-6.670023
-4.803800
-4.874492
-4.758773
0.187461
0.204339
0.289247
-4.798664
-4.864102
-5.007832
-5.111105
-4.745037
1.599492
1.550864
1.545421
1.604094
1.233011
1.097974
1.129813
1.186603
1.026564
1.193984
1.067350
-5.742716
-5.877601
-5.788916
4.039389
4.017141
2.142108
2.187384
2.303936
2.357616
-5.684852
-5.582180
-4.897374
-4.900194
-4.864234
-5.305370
-5.305692
-4.766227
-4.754050
-4.809285
-4.710923
-5.011215
-4.861157
-5.170810
-5.100725
-5.288278
1.617383
1.582369
1.698738
1.678092
-6.737913
-6.559435
-6.756084
1.584420
1.520502
3.941155
1.494131
-6.201409
-6.301122
-6.264402
3.961700
1.598292
0.730894
1.001429
-6.373579
0.950197
-6.509560
-5.173841
-1.260671
-1.159214
-1.165359
-5.210700
-4.609985
-4.656309
-4.630981
-4.685706
-4.640752
-4.655387
-4.786750
-4.725913
3.120910
3.066013
3.168035
3.072059
-4.643887
-4.666246
-4.608844
-4.710662
2.074672
2.062761
2.236787
2.161256
-4.391312
-4.443124
-5.380641
-5.342205
1.743327
1.714057
1.823165
1.647049
1.654009
1.591049
-4.658569
-4.637405
-3.595651
-3.581274
-3.726955
-3.638361
1.944069
-3.876809
-4.008637
-4.106123
-3.639133
-1.014952
-0.912029
-0.954448
1.228049
0.860954
-0.836107
-4.220995
-4.181184
-4.129019
-4.102447
-2.557373
-2.652054
-0.208470
-0.329942
1.247327
1.193309
-0.373219
-4.430731
-4.186636
-4.294715
-3.939203
2.127940
2.235272
2.139807
2.294363
1.204118
1.347125
2.042933
2.079812
2.198753
-4.826160
-4.684564
-4.680180
3.454886
3.455029
3.578930
1.516963
1.498265
3.595758
1.551895
1.349959
1.604112
-1.823747
-1.779966
-1.708570
1.679795
-4.469223
-4.522584
1.689956
1.828807
1.861388
2.662184
2.585632
2.674256
-6.035340
-6.108133
2.548810
-5.666538
-5.735290
-5.654783
3.037247
2.926807
0.547250
0.324155
0.704742
-4.614221
-4.606524
-4.666824
-4.653771
-4.928164
-4.867542
-2.393035
-2.282138
-2.817810
-4.774655
-4.822209
-4.922734
-4.959772
-4.318681
-4.355918
0.453975
0.529904
0.380481
1.763642
1.826675
1.747680
1.795866
1.666378
1.804971
1.791276
1.716736
1.725280
-2.478393
-2.297600
-2.241384
-5.252846
-5.410542
-5.286357
-5.497182
-5.106636
-5.234727
-5.039154
1.358238
1.479362
1.506774
1.379807
4.329159
4.225694
4.256762
-4.574652
-4.603030
-4.571902
-1.788172
-2.046993
-1.857426
-4.618713
-3.855351
-3.591249
-3.730826
-3.757328
-2.394141
-2.254349
-2.283370
-3.984809
-4.198808
-6.174836
-6.089282
-6.137157
2.653707
2.634486
2.758071
-4.148955
3.198252
-4.311959
-4.314075
1.189731
1.319253
1.238783
1.299416
1.315822
1.017012
1.166835
4.431106
4.348054
4.352094
4.276353
4.040402
4.101661
4.109061
-4.927130
-4.966619
-4.995624
4.168619
-5.025480
-4.848246
-4.793777
-3.913799
-3.735853
-4.078732
-2.575486
-2.192686
-2.332434
3.286167
3.278203
3.208116
3.148691
-2.537498
0.989329
0.932167
1.400097
1.185524
1.154332
1.211765
1.171771
-3.896374
-3.898197
-3.826695
-3.965193
-4.545727
-4.444180
-4.459045
1.047914
0.979518
0.941315
0.871243
-4.502233
-4.572502
-4.523562
4.273240
-4.598129
4.194199
-4.469853
-4.363329
-3.292040
-3.183584
-1.741172
-1.886632
-3.937580
-3.797465
-3.755558
0.143848
0.138372
-5.574890
-5.667398
-5.649291
-5.759389
0.137339
0.214835
0.217394
0.162143
0.192607
0.235183
1.735572
1.809367
1.479170
2.099211
-2.875570
-3.377303
-1.384533
-1.526331
-1.376325
-1.475086
-0.346462
-0.288763
-0.178437
-0.230867
-0.224469
-0.280922
1.079642
1.171055
1.178413
-0.358360
-0.701685
-0.690709
1.103359
-1.050154
-1.085460
-0.978592
-1.018369
1.253783
1.177534
0.357064
0.747681
-4.367819
-4.170094
-4.205239
-4.003262
-6.338136
-6.361612
-6.480073
-6.252575
-0.449057
1.931308
1.867176
1.899845
1.861170
-6.263088
-6.199619
1.876201
-6.064612
-4.261492
-4.276067
-4.342918
-4.341319
-4.412950
-4.311042
-4.434552
1.687825
-2.318366
-2.371984
-2.444008
-4.259848
-4.189745
1.458069
1.415879
1.452136
-4.410698
-4.421400
2.809420
2.669862
2.746477
4.427923
4.344066
-4.472985
-4.350381
-7.009813
-7.051988
-3.735674
-3.721632
-3.789046
-3.647493
-0.676191
-0.701113
-0.606489
-0.655619
-3.969481
-3.823795
-3.841910
-0.235768
-3.884435
-4.403436
-4.304032
-4.293384
-0.829962
-1.009628
-2.919861
-2.827995
-2.923656
-2.829064
1.501635
1.546080
1.506332
1.538673
1.889428
1.971551
2.029183
1.864214
-1.330067
-1.372824
-1.457303
0.705688
0.697554
0.772184
-0.934289
-1.067715
0.644487
-3.885063
-3.848434
-7.160163
-6.971957
-3.788517
-3.935934
-6.133090
-3.955604
4.466723
4.600380
4.539410
4.299475
1.375676
1.520306
1.605866
-5.069762
-4.873194
-5.012165
-3.150393
-3.180517
-3.217904
-3.240079
4.077076
2.672430
2.746056
2.768675
-5.332318
-5.887587
-5.823748
-5.779420
-5.938235
2.505967
2.588466
-5.974397
-6.047755
-5.956360
-2.050349
1.986823
2.422756
2.481628
3.738325
3.589080
3.691709
2.381429
-3.684138
-3.748157
-3.694736
-3.748080
-3.070576
-3.016096
-3.084952
-5.736310
-5.838595
4.445014
4.380536
4.266856
-3.346893
-3.155718
-2.884152
4.242511
4.325542
4.265881
-1.689749
-1.762801
-2.662653
-2.955292
-4.286131
-4.118158
-3.939075
0.871170
0.662653
1.121319
-0.385867
-0.537078
-1.030368
-0.255463
-0.155373
-0.233109
-3.348898
-3.291621
-3.328435
0.028030
-0.007958
0.082846
0.042475
-0.446396
-0.289481
-1.865486
-1.804252
-1.674309
-1.629944
-7.672750
-7.730918
-7.445221
-7.983431
-4.266815
-4.406253
-4.283015
-7.329012
-4.034790
0.985820
0.971748
1.042505
0.996666
1.821051
4.374313
4.284549
1.742679
3.962893
4.025414
0.001337
0.083336
1.780977
-3.022454
1.683252
1.294134
1.272055
1.334397
3.895104
3.898518
3.038933
2.932612
3.701600
3.554602
4.121501
4.217342
1.341562
3.715150
1.359163
1.289965
0.361514
0.339886
0.417616
-6.795175
-6.808893
-6.909831
-6.691003
0.274335
1.735302
1.665460
1.505003
1.576820
1.753714
-4.383901
-4.434131
-6.181880
-6.071900
-4.357407
-5.609741
-5.023809
1.707155
1.743418
1.748363
1.689318
1.784920
4.225149
4.287392
-0.213884
-0.230345
1.633521
1.545423
1.652129
1.468568
1.630400
-4.964927
-4.701987
-3.384292
-3.470696
-4.460430
-4.482522
-6.832157
-7.297208
-3.506814
-3.419600
-5.454013
-5.447861
-5.551093
-5.380130
0.260339
0.303978
-4.496438
-4.343744
-4.399336
-4.627421
-4.607221
-0.873309
-2.070743
-4.546704
-4.928407
-4.669087
-4.667795
1.356673
1.718170
-4.706975
1.601559
1.598334
1.683336
1.480735
-3.797250
4.035916
-5.460932
-5.533573
-3.786185
-3.693582
-3.545867
-1.211766
-1.058676
-1.111856
-5.364491
-5.382462
-0.065819
-0.003817
0.021729
2.693202
2.737170
2.661226
2.728037
1.839962
1.894149
1.795763
1.900421
1.760213
1.779489
1.719739
-5.015993