# vtk DataFile Version 2.0
Test
ASCII
DATASET POLYDATA
POINTS 6352 float
0.000000 0.000000 0.000000
1.000000 0.000000 0.000000
1.000000 0.800000 0.000000
1.000000 1.000000 0.000000
0.000000 1.000000 0.000000
0.000000 0.200000 0.000000
0.300000 0.330000 0.000000
0.700000 0.680000 0.000000
0.050000 0.000000 0.000000
0.100000 0.000000 0.000000
0.150000 0.000000 0.000000
0.200000 0.000000 0.000000
0.250000 0.000000 0.000000
0.300000 0.000000 0.000000
0.350000 0.000000 0.000000
0.400000 0.000000 0.000000
0.450000 0.000000 0.000000
0.500000 0.000000 0.000000
0.550000 0.000000 0.000000
0.600000 0.000000 0.000000
0.650000 0.000000 0.000000
0.700000 0.000000 0.000000
0.750000 0.000000 0.000000
0.800000 0.000000 0.000000
0.850000 0.000000 0.000000
0.900000 0.000000 0.000000
0.950000 0.000000 0.000000
1.000000 0.048545 0.000000
1.000000 0.094438 0.000000
1.000000 0.137825 0.000000
1.000000 0.178843 0.000000
1.000000 0.217620 0.000000
1.000000 0.254280 0.000000
1.000000 0.288938 0.000000
1.000000 0.321703 0.000000
1.000000 0.352678 0.000000
1.000000 0.381962 0.000000
1.000000 0.409647 0.000000
1.000000 0.435820 0.000000
1.000000 0.460563 0.000000
1.000000 0.483955 0.000000
1.000000 0.506070 0.000000
1.000000 0.526976 0.000000
1.000000 0.546741 0.000000
1.000000 0.565427 0.000000
1.000000 0.583092 0.000000
1.000000 0.599793 0.000000
1.000000 0.615581 0.000000
1.000000 0.630507 0.000000
1.000000 0.644618 0.000000
1.000000 0.657958 0.000000
1.000000 0.670570 0.000000
1.000000 0.682493 0.000000
1.000000 0.693765 0.000000
1.000000 0.704421 0.000000
1.000000 0.714495 0.000000
1.000000 0.724019 0.000000
1.000000 0.733023 0.000000
1.000000 0.741536 0.000000
1.000000 0.749583 0.000000
1.000000 0.757191 0.000000
1.000000 0.764383 0.000000
1.000000 0.771183 0.000000
1.000000 0.777611 0.000000
1.000000 0.783688 0.000000
1.000000 0.789434 0.000000
1.000000 0.794865 0.000000
1.000000 0.805174 0.000000
1.000000 0.811554 0.000000
1.000000 0.819418 0.000000
1.000000 0.829114 0.000000
1.000000 0.841067 0.000000
1.000000 0.855804 0.000000
1.000000 0.873972 0.000000
1.000000 0.896371 0.000000
1.000000 0.923985 0.000000
1.000000 0.958029 0.000000
0.950000 1.000000 0.000000
0.900000 1.000000 0.000000
0.850000 1.000000 0.000000
0.800000 1.000000 0.000000
0.750000 1.000000 0.000000
0.700000 1.000000 0.000000
0.650000 1.000000 0.000000
0.600000 1.000000 0.000000
0.550000 1.000000 0.000000
0.500000 1.000000 0.000000
0.450000 1.000000 0.000000
0.400000 1.000000 0.000000
0.350000 1.000000 0.000000
0.300000 1.000000 0.000000
0.250000 1.000000 0.000000
0.200000 1.000000 0.000000
0.150000 1.000000 0.000000
0.100000 1.000000 0.000000
0.050000 1.000000 0.000000
0.000000 0.951455 0.000000
0.000000 0.905562 0.000000
0.000000 0.862175 0.000000
0.000000 0.821157 0.000000
0.000000 0.782380 0.000000
0.000000 0.745720 0.000000
0.000000 0.711062 0.000000
0.000000 0.678297 0.000000
0.000000 0.647322 0.000000
0.000000 0.618038 0.000000
0.000000 0.590353 0.000000
0.000000 0.564180 0.000000
0.000000 0.539437 0.000000
0.000000 0.516045 0.000000
0.000000 0.493930 0.000000
0.000000 0.473024 0.000000
0.000000 0.453259 0.000000
0.000000 0.434573 0.000000
0.000000 0.416908 0.000000
0.000000 0.400207 0.000000
0.000000 0.384419 0.000000
0.000000 0.369493 0.000000
0.000000 0.355382 0.000000
0.000000 0.342042 0.000000
0.000000 0.329430 0.000000
0.000000 0.317507 0.000000
0.000000 0.306235 0.000000
0.000000 0.295579 0.000000
0.000000 0.285505 0.000000
0.000000 0.275981 0.000000
0.000000 0.266977 0.000000
0.000000 0.258464 0.000000
0.000000 0.250417 0.000000
0.000000 0.242809 0.000000
0.000000 0.235617 0.000000
0.000000 0.228817 0.000000
0.000000 0.222389 0.000000
0.000000 0.216312 0.000000
0.000000 0.210566 0.000000
0.000000 0.205135 0.000000
0.000000 0.194826 0.000000
0.000000 0.188446 0.000000
0.000000 0.180582 0.000000
0.000000 0.170886 0.000000
0.000000 0.158933 0.000000
0.000000 0.144196 0.000000
0.000000 0.126028 0.000000
0.000000 0.103629 0.000000
0.000000 0.076015 0.000000
0.000000 0.041971 0.000000
0.303738 0.333271 0.000000
0.307477 0.336542 0.000000
0.311215 0.339813 0.000000
0.314953 0.343084 0.000000
0.318692 0.346355 0.000000
0.322430 0.349626 0.000000
0.326168 0.352897 0.000000
0.329907 0.356168 0.000000
0.333645 0.359439 0.000000
0.337383 0.362710 0.000000
0.341121 0.365981 0.000000
0.344860 0.369252 0.000000
0.348598 0.372523 0.000000
0.352336 0.375794 0.000000
0.356075 0.379065 0.000000
0.359813 0.382336 0.000000
0.363551 0.385607 0.000000
0.367290 0.388879 0.000000
0.371028 0.392150 0.000000
0.374766 0.395421 0.000000
0.378505 0.398692 0.000000
0.382243 0.401963 0.000000
0.385981 0.405234 0.000000
0.389720 0.408505 0.000000
0.393458 0.411776 0.000000
0.397196 0.415047 0.000000
0.400935 0.418318 0.000000
0.404673 0.421589 0.000000
0.408411 0.424860 0.000000
0.412150 0.428131 0.000000
0.415888 0.431402 0.000000
0.419626 0.434673 0.000000
0.423364 0.437944 0.000000
0.427103 0.441215 0.000000
0.430841 0.444486 0.000000
0.434579 0.447757 0.000000
0.438318 0.451028 0.000000
0.442056 0.454299 0.000000
0.445794 0.457570 0.000000
0.449533 0.460841 0.000000
0.453271 0.464112 0.000000
0.457009 0.467383 0.000000
0.460748 0.470654 0.000000
0.464486 0.473925 0.000000
0.468224 0.477196 0.000000
0.471963 0.480467 0.000000
0.475701 0.483738 0.000000
0.479439 0.487009 0.000000
0.483178 0.490280 0.000000
0.486916 0.493551 0.000000
0.490654 0.496822 0.000000
0.494393 0.500093 0.000000
0.498131 0.503364 0.000000
0.501869 0.506636 0.000000
0.505607 0.509907 0.000000
0.509346 0.513178 0.000000
0.513084 0.516449 0.000000
0.516822 0.519720 0.000000
0.520561 0.522991 0.000000
0.524299 0.526262 0.000000
0.528037 0.529533 0.000000
0.531776 0.532804 0.000000
0.535514 0.536075 0.000000
0.539252 0.539346 0.000000
0.542991 0.542617 0.000000
0.546729 0.545888 0.000000
0.550467 0.549159 0.000000
0.554206 0.552430 0.000000
0.557944 0.555701 0.000000
0.561682 0.558972 0.000000
0.565421 0.562243 0.000000
0.569159 0.565514 0.000000
0.572897 0.568785 0.000000
0.576636 0.572056 0.000000
0.580374 0.575327 0.000000
0.584112 0.578598 0.000000
0.587850 0.581869 0.000000
0.591589 0.585140 0.000000
0.595327 0.588411 0.000000
0.599065 0.591682 0.000000
0.602804 0.594953 0.000000
0.606542 0.598224 0.000000
0.610280 0.601495 0.000000
0.614019 0.604766 0.000000
0.617757 0.608037 0.000000
0.621495 0.611308 0.000000
0.625234 0.614579 0.000000
0.628972 0.617850 0.000000
0.632710 0.621121 0.000000
0.636449 0.624393 0.000000
0.640187 0.627664 0.000000
0.643925 0.630935 0.000000
0.647664 0.634206 0.000000
0.651402 0.637477 0.000000
0.655140 0.640748 0.000000
0.658879 0.644019 0.000000
0.662617 0.647290 0.000000
0.666355 0.650561 0.000000
0.670093 0.653832 0.000000
0.673832 0.657103 0.000000
0.677570 0.660374 0.000000
0.681308 0.663645 0.000000
0.685047 0.666916 0.000000
0.688785 0.670187 0.000000
0.692523 0.673458 0.000000
0.696262 0.676729 0.000000
0.004545 0.201970 0.000000
0.009091 0.203939 0.000000
0.013636 0.205909 0.000000
0.018182 0.207879 0.000000
0.022727 0.209848 0.000000
0.027273 0.211818 0.000000
0.031818 0.213788 0.000000
0.036364 0.215758 0.000000
0.040909 0.217727 0.000000
0.045455 0.219697 0.000000
0.050000 0.221667 0.000000
0.054545 0.223636 0.000000
0.059091 0.225606 0.000000
0.063636 0.227576 0.000000
0.068182 0.229545 0.000000
0.072727 0.231515 0.000000
0.077273 0.233485 0.000000
0.081818 0.235455 0.000000
0.086364 0.237424 0.000000
0.090909 0.239394 0.000000
0.095455 0.241364 0.000000
0.100000 0.243333 0.000000
0.104545 0.245303 0.000000
0.109091 0.247273 0.000000
0.113636 0.249242 0.000000
0.118182 0.251212 0.000000
0.122727 0.253182 0.000000
0.127273 0.255152 0.000000
0.131818 0.257121 0.000000
0.136364 0.259091 0.000000
0.140909 0.261061 0.000000
0.145455 0.263030 0.000000
0.150000 0.265000 0.000000
0.154545 0.266970 0.000000
0.159091 0.268939 0.000000
0.163636 0.270909 0.000000
0.168182 0.272879 0.000000
0.172727 0.274848 0.000000
0.177273 0.276818 0.000000
0.181818 0.278788 0.000000
0.186364 0.280758 0.000000
0.190909 0.282727 0.000000
0.195455 0.284697 0.000000
0.200000 0.286667 0.000000
0.204545 0.288636 0.000000
0.209091 0.290606 0.000000
0.213636 0.292576 0.000000
0.218182 0.294545 0.000000
0.222727 0.296515 0.000000
0.227273 0.298485 0.000000
0.231818 0.300455 0.000000
0.236364 0.302424 0.000000
0.240909 0.304394 0.000000
0.245455 0.306364 0.000000
0.250000 0.308333 0.000000
0.254545 0.310303 0.000000
0.259091 0.312273 0.000000
0.263636 0.314242 0.000000
0.268182 0.316212 0.000000
0.272727 0.318182 0.000000
0.277273 0.320152 0.000000
0.281818 0.322121 0.000000
0.286364 0.324091 0.000000
0.290909 0.326061 0.000000
0.295455 0.328030 0.000000
0.704615 0.681846 0.000000
0.709231 0.683692 0.000000
0.713846 0.685538 0.000000
0.718462 0.687385 0.000000
0.723077 0.689231 0.000000
0.727692 0.691077 0.000000
0.732308 0.692923 0.000000
0.736923 0.694769 0.000000
0.741538 0.696615 0.000000
0.746154 0.698462 0.000000
0.750769 0.700308 0.000000
0.755385 0.702154 0.000000
0.760000 0.704000 0.000000
0.764615 0.705846 0.000000
0.769231 0.707692 0.000000
0.773846 0.709538 0.000000
0.778462 0.711385 0.000000
0.783077 0.713231 0.000000
0.787692 0.715077 0.000000
0.792308 0.716923 0.000000
0.796923 0.718769 0.000000
0.801538 0.720615 0.000000
0.806154 0.722462 0.000000
0.810769 0.724308 0.000000
0.815385 0.726154 0.000000
0.820000 0.728000 0.000000
0.824615 0.729846 0.000000
0.829231 0.731692 0.000000
0.833846 0.733538 0.000000
0.838462 0.735385 0.000000
0.843077 0.737231 0.000000
0.847692 0.739077 0.000000
0.852308 0.740923 0.000000
0.856923 0.742769 0.000000
0.861538 0.744615 0.000000
0.866154 0.746462 0.000000
0.870769 0.748308 0.000000
0.875385 0.750154 0.000000
0.880000 0.752000 0.000000
0.884615 0.753846 0.000000
0.889231 0.755692 0.000000
0.893846 0.757538 0.000000
0.898462 0.759385 0.000000
0.903077 0.761231 0.000000
0.907692 0.763077 0.000000
0.912308 0.764923 0.000000
0.916923 0.766769 0.000000
0.921538 0.768615 0.000000
0.926154 0.770462 0.000000
0.930769 0.772308 0.000000
[...]
POINT_DATA 6352
SCALARS UX float 1
LOOKUP_TABLE default
-0.000000
0.000001
0.924339
0.755714
-1.212421
-0.866424
-0.559642
0.408335
-0.000000
-0.000000
-0.000000
-0.000000
-0.000000
-0.000000
-0.000000
-0.000000
-0.000000
-0.000000
-0.000000
0.000000
0.000000
0.000000
0.000000
0.000000
0.000000
0.000000
-0.000000
0.312935
0.488101
0.616652
0.716321
0.795861
0.864449
0.923097
0.973628
1.017901
1.055834
1.088100
1.114973
1.137041
1.154233
1.166860
1.174914
1.178842
1.179093
1.176008
1.170133
1.161745
1.151496
1.139522
1.126791
1.112777
1.098529
1.084058
1.069544
1.055058
1.041137
1.027652
1.014636
1.002174
0.990316
0.979153
0.968547
0.958515
0.949081
0.940293
0.932040
0.916707
0.907375
0.896281
0.882698
0.866613
0.848717
0.828049
0.805954
0.784435
0.766161
0.634207
0.519901
0.413150
0.311425
0.219859
0.134035
0.053676
-0.024945
-0.106053
-0.192106
-0.283276
-0.378906
-0.479485
-0.581939
-0.685630
-0.790687
-0.895464
-1.000204
-1.105644
-1.213861
-1.219635
-1.231126
-1.246032
-1.263917
-1.282602
-1.301554
-1.319841
-1.336635
-1.351551
-1.363647
-1.372180
-1.377619
-1.378958
-1.376270
-1.371161
-1.361097
-1.348142
-1.332541
-1.313706
-1.293164
-1.271211
-1.247484
-1.223207
-1.198442
-1.173407
-1.148446
-1.123676
-1.099351
-1.075494
-1.052532
-1.030192
-1.008681
-0.987977
-0.968150
-0.949178
-0.930999
-0.913660
-0.897114
-0.881383
-0.851196
-0.832350
-0.808747
-0.779250
-0.742419
-0.695912
-0.637433
-0.563214
-0.459030
-0.310914
-0.541823
-0.536766
-0.537193
-0.519745
-0.519609
-0.507110
-0.504769
-0.492140
-0.485138
-0.493059
-0.485723
-0.485782
-0.483486
-0.471713
-0.465048
-0.459260
-0.446757
-0.446362
-0.437797
-0.418468
-0.427769
-0.414826
-0.396401
-0.388845
-0.379601
-0.367979
-0.345646
-0.335128
-0.313771
-0.324048
-0.307290
-0.303305
-0.288086
-0.276210
-0.275618
-0.259535
-0.253285
-0.258425
-0.246247
-0.237299
-0.217560
-0.212153
-0.202519
-0.190591
-0.162847
-0.152350
-0.159063
-0.151002
-0.140791
-0.136727
-0.128954
-0.124598
-0.119216
-0.108410
-0.094564
-0.092634
-0.084715
-0.074468
-0.052379
-0.056128
-0.049318
-0.033703
-0.018665
-0.014544
0.001503
0.022270
0.030940
0.047120
0.065446
0.047118
0.065313
0.075915
0.076281
0.074931
0.082792
0.090883
0.098885
0.111493
0.119013
0.126129
0.124645
0.126687
0.134067
0.138386
0.131858
0.135625
0.149742
0.159534
0.171473
0.176683
0.182603
0.188544
0.200995
0.207859
0.217176
0.221740
0.239516
0.239927
0.256227
0.276408
0.300904
0.314794
0.342833
0.355489
0.365011
0.386810
-0.862766
-0.859126
-0.855515
-0.851889
-0.848268
-0.844635
-0.840964
-0.837287
-0.833596
-0.829895
-0.826147
-0.822376
-0.818614
-0.814828
-0.810986
-0.807136
-0.803290
-0.799431
-0.795556
-0.791640
-0.787723
-0.783795
-0.779820
-0.775843
-0.771846
-0.767836
-0.763813
-0.759786
-0.755778
-0.751736
-0.747704
-0.743686
-0.739621
-0.735597
-0.731556
-0.727523
-0.723482
-0.719444
-0.715438
-0.711441
-0.707478
-0.703566
-0.699643
-0.695696
-0.691846
-0.688102
-0.684399
-0.680708
-0.677022
-0.673564
-0.670343
-0.666862
-0.663424
-0.660313
-0.657324
-0.654786
-0.652147
-0.648655
-0.645435
-0.643056
-0.639761
-0.635877
-0.631328
-0.620225
-0.601010
0.458010
0.485897
0.502286
0.514287
0.522068
0.528376
0.534479
0.540919
0.546472
0.552082
0.558010
0.563588
0.569346
0.575450
0.581561
0.587626
0.593853
0.600335
0.606770
0.613276
0.619795
0.626408
0.632930
0.639616
0.646403
0.653139
0.659877
0.666651
0.673493
0.680361
0.687243
0.694056
0.700932
0.707807
0.714677
0.721562
0.728428
0.735318
0.742218
0.749071
0.755924
0.762823
0.769698
0.776559
0.783452
0.790304
0.797161
0.804013
0.810871
0.817752
0.824644
0.831528
0.838425
0.845370
0.852310
0.859286
0.866281
0.873317
0.880435
0.887544
0.894745
0.901998
0.909335
0.916767
0.606101
0.599195
0.619381
0.588229
0.028198
0.014870
0.038136
0.011142
-0.594697
-0.597665
-0.557971
-0.577396
-0.531116
-0.588923
-1.077812
-1.052242
-1.059961
-1.039323
-0.587511
-0.190808
-0.165061
-0.164925
-0.137824
0.231364
0.229078
0.270841
0.181364
-0.252725
-0.266043
-0.239849
0.013948
0.044981
0.007510
0.049317
0.873567
0.845575
0.893356
0.842997
-0.110509
-0.161151
-0.103119
-0.173120
-0.992982
-0.989299
-1.016830
-0.816019
-0.816494
-0.797507
-0.855553
-0.853699
-0.871449
0.687840
0.750356
0.709903
0.739312
0.148817
0.148254
0.173500
-0.136999
-0.162796
-0.023310
0.904314
0.931024
0.932053
-0.216805
-0.257876
-0.256160
-0.716545
-0.686334
-0.654116
0.732667
0.740399
0.724374
-0.228002
-0.840075
-0.841148
-0.816915
-0.118752
-0.126526
-0.145977
-0.099800
0.546544
0.537584
0.535953
0.046496
0.021386
-0.045888
0.543184
0.678382
0.691599
0.676531
0.310344
0.276343
0.320666
0.688710
0.693709
0.669175
0.490799
0.482472
0.497641
0.223978
0.189173
0.218762
0.477195
-0.021187
0.006743
0.017358
0.286391
-0.814383
-0.824824
-0.824019
-0.011847
0.633496
0.619637
0.633192
-0.347763
-0.357991
-0.315492
0.790789
0.777937
0.779076
0.766250
0.775609
0.763474
-0.511713
-0.579306
-0.503021
-0.560437
-0.191137
-0.166884
-0.166011
0.626375
0.719080
-0.138023
-1.193581
-1.161215
-1.167877
-0.867998
-0.884314
-0.863140
0.275784
0.350126
0.369595
-1.137839
0.711523
0.702419
0.708695
0.698962
0.121214
0.145960
0.167790
0.408354
-0.641624
-0.653055
-0.642868
0.181278
0.169786
0.178359
0.162610
0.806416
0.795084
0.787604
0.207641
0.650426
0.620971
0.636582
-1.139462
-1.122182
-1.103471
0.780725
0.787258
0.776022
0.773641
-0.866683
-0.852639
-0.874823
-0.860453
-0.084254
-0.065705
-0.063560
0.776721
-0.699418
-0.737221
-0.625626
-0.082512
-0.627886
-0.600268
-0.670468
-0.545001
0.869211
0.909001
-0.677945
0.862046
-0.827646
-0.828582
-0.822770
-0.832502
-0.292546
-0.296747
-0.326986
0.240864
-0.655347
-0.530522
-0.731415
-0.725022
-0.733763
-0.723559
0.585364
0.584170
0.576634
0.576895
-0.837762
-0.827386
-0.259720
-0.779019
-0.771804
-0.779369
-0.769806
0.087748
0.083965
0.100510
0.819234
0.823188
0.802670
0.072298
0.839229
-0.494688
-0.455706
-0.422746
0.785046
0.780644
0.764620
-0.408506
-0.359493
-0.363000
-0.382022
0.799857
-0.380546
-0.779297
-0.788006
-0.768041
-0.357118
-0.339593
-0.340289
-0.771749
0.622406
0.620933
0.602231
0.473591
0.466354
0.477814
-0.325760
-0.342482
-0.295905
-0.452385
-0.425161
-0.434689
0.637390
0.645162
0.641437
0.644472
0.204968
0.179950
0.189224
0.467053
0.605767
0.418505
0.419655
0.405642
0.631835
0.657554
0.640982
0.668710
0.770515
0.774824
0.765024
0.769417
1.057615
1.037232
1.026168
-0.584301
-0.571223
-0.548801
-0.617228
1.001548
0.377226
0.399178
0.379646
-0.497520
-0.481940
-0.489689
0.654983
0.644423
0.656879
1.037454
1.078782
0.643933
-1.263749
-1.300793
-1.264759
0.918542
0.903314
0.903392
0.887767
-0.272766
-0.220377
0.662397
0.667038
0.660214
-0.409183
-0.398719
-0.431419
-0.408963
0.758043
-0.484271
0.732737
0.743374
-0.512903
-0.531320
-0.525424
-0.797399
-0.778810
-0.803118
-0.776094
-0.880516
-0.903686
-0.899499
-0.922723
-0.857797
-0.857752
-0.836577
-0.840358
-0.825793
-0.831423
-0.947470
-0.927667
-0.953653
-0.819611
0.138047
0.121775
0.121174
0.434937
0.429895
-0.956591
-0.951141
-0.942339
-0.968904
-0.850010
-0.856851
-0.853525
-0.863022
-0.704171
-0.716295
-0.714556
-0.725600
-1.065784
-1.067441
-1.089433
-0.835069
-1.050675
0.468645
0.453936
0.520873
-0.320561
-0.351102
-0.261537
-0.379671
0.833266
0.844192
0.829661
0.852121
-0.905944
-0.933061
0.628005
0.633461
0.599573
-0.717348
-0.718209
0.609250
0.810210
0.826864
0.828299
0.845141
0.793190
0.791765
0.774956
-0.724268
0.257287
0.230238
0.247621
0.208828
0.757273
0.736305
0.762933
-0.814333
-0.780359
-0.797777
-0.753027
0.895977
0.901699
0.914824
0.881674
-1.304342
-1.283503
-1.260430
-1.233116
-0.812313
-0.835448
0.478856
0.497514
0.454559
0.454857
-0.721232
-0.675128
-0.652714
-0.620849
0.757499
0.778958
0.787290
0.802113
0.772563
0.284336
0.316549
0.254693
0.862347
0.873083
0.888497
-0.074712
-0.105045
-0.004882
0.711263
0.686762
0.715367
0.682456
0.850043
0.832595
0.824345
-0.061465
-0.042054
-0.829468
-0.833967
-0.817822
0.065790
0.064370
0.096974
0.637043
0.637674
-0.847733
-0.835783
-0.821316
-0.814490
-0.783844
-0.789858
-0.776822
0.885641
0.218480
0.176192
0.218542
0.926089
-0.672936
-0.686473
-0.679907
0.355224
0.347752
0.301229
-0.791588
0.054887
0.000922
0.306156
-0.695321
-0.793239
-0.809922
-0.810890
-0.070633
-0.082250
-0.127148
0.705240
0.712842
0.693127
-0.458550
-0.434825
-0.757670
-0.747545
0.132235
0.157513
0.099825
-0.762788
0.084606
0.119689
0.126095
0.159341
-0.865846
-0.859341
-0.852357
-0.873017
-0.709425
-0.733330
-0.732690
-0.762187
-0.592187
-0.607320
-0.628724
0.670006
0.688105
0.690766
-0.029093
-0.055930
-0.025975
-0.945729
-0.964256
-0.553912
0.684361
-0.742771
-0.739958
-0.765467
-0.715389
-1.340109
-1.314753
-1.296915
-1.286847
0.035898
0.064797
0.030260
-0.603495
-0.571279
-0.604321
-0.568124
-0.991353
-0.939817
-0.939327
0.612767
0.634331
0.627135
-0.633381
-0.607169
-0.832017
-0.831250
-0.843612
0.451016
0.492063
0.494158
-0.839184
-0.629614
-0.645818
-0.640095
0.748503
0.766070
0.766027
0.304558
0.259980
0.434666
-0.625206
-0.635278
-0.624842
-0.774147
-0.799864
-0.789507
-0.785688
-0.801625
-0.780860
-0.790137
-0.799838
-0.774274
0.046731
0.079557
0.062746
0.020589
0.049543
0.074573
-0.660278
-0.783546
-0.889695
-0.880643
-0.886170
-0.058494
-0.061164
-0.086994
-0.030577
-0.070049
-0.038726
-0.061975
-0.018167
-0.880155
-0.874319
-0.864710
-0.862171
0.174490
0.233764
0.130340
0.759835
0.748555
0.775045
0.741569
-0.816731
-0.824293
-0.817133
-0.698177
-0.660750
-0.694253
-0.823302
-0.728935
-0.753336
-0.749813
0.851397
0.796529
0.841528
0.789400
-0.853307
-0.853503
-0.865379
0.791364
0.798015
0.810173
0.641101
0.649483
0.644379
0.645775
-1.083015
-1.061974
-1.043867
-0.794932
-0.798666
-0.814172
-0.816133
0.773058
0.770595
0.784706
-0.254377
-0.253524
-0.272677
0.557576
0.555576
0.576117
0.574410
0.570878
0.552710
0.557856
-0.102329
-0.075336
-0.077578
0.048955
0.077067
0.067080
-0.102628
-0.891880
-0.906019
-0.885655
0.089752
0.065422
0.088063
-0.251192
-0.237720
-0.910208
-0.906861
-0.896208
0.881213
0.895089
0.880248
-0.889600
-0.234928
0.616974
0.575153
0.594915
-0.760965
-0.773229
-0.788468
-0.611444
-0.626302
-0.751055
-0.751318
-0.769446
0.720441
0.740759
0.739339
-0.848155
-0.845204
-0.870925
-0.869657
-0.832082
-0.830760
-0.822573
-0.835102
-0.237113
-0.261435
-0.262617
-0.242683
0.681368
0.682658
0.703111
0.662506
0.702370
0.723689
0.803623
0.819891
0.823601
1.031792
1.056113
1.046899
0.844011
0.699928
0.699785
0.715690
0.707581
0.702822
-0.653343
-0.649814
0.602102
-0.136454
-0.130076
-0.152497
-0.163095
-0.724867
-0.757709
-0.752424
-0.612805
0.719827
0.721160
0.707346
0.706724
-0.897639
-0.896930
-0.867236
-0.017710
0.002937
0.005391
0.388337
0.401919
0.430797
0.318998
-0.700333
-0.637004
-0.685172
0.836719
0.815963
0.818661
0.539080
0.542773
0.502583
-0.565042
-0.787057
-0.746215
-0.761572
0.778102
0.804121
0.798181
-0.769368
-0.134984
-0.773160
-0.792270
-0.764251
-0.796615
0.018581
-0.018444
0.783880
0.807673
-1.130962
-1.112733
-0.048388
-0.021905
-0.025242
0.006571
-0.179714
-0.206867
-0.208219
0.008842
0.038355
0.041155
0.596114
0.632875
0.617300
0.007468
-0.598457
-0.625446
-0.589242
0.880317
0.893279
0.902310
0.165964
0.194586
0.197125
-0.583345
-0.524740
-0.526199
-0.835264
-0.830350
-0.820893
0.607688
0.603788
0.631040
0.797259
0.813795
0.816802
0.836389
0.579976
-0.838328
-0.847972
-0.853420
-0.354204
-0.379972
-0.363217
0.708524
0.722386
0.712212
0.732342
0.694228
0.695576
0.674030
-0.683848
-0.718004
-0.710920
0.442048
-1.107398
-1.074268
-1.100717
-0.863226
-0.642256
-0.640188
-0.613776
-0.797361
-0.777906
-0.808220
-0.609860
0.727506
0.755608
-0.353117
-0.415979
-0.401441
-0.441540
-0.469554
-0.493315
-0.680114
-0.704595
-0.706755
-0.723605
-0.518232
0.464657
0.476127
0.482393
-0.997072
-1.016188
-1.006820
-0.757073
-0.760056
-0.734925
-0.822408
-0.829155
-0.829376
-0.836617
0.749688
0.916245
0.877835
0.911269
0.889182
-0.749446
-0.755474
-0.769031
0.908438
-0.790419
-0.779157
-0.103144
-0.079393
0.618186
0.622394
0.612371
0.686180
0.687671
0.702439
0.615371
0.719589
0.716258
-0.886083
-0.908890
-0.905484
-0.926888
-0.584181
-0.576639
-0.589912
0.241370
0.216454
0.191289
0.491918
0.480031
0.526118
-0.317338
-0.284755
-0.294675
-0.308902
0.494229
0.749285
0.750899
0.740791
0.132955
0.122685
0.148112
-0.298656
-0.293328
-0.353886
-0.878422
-0.894814
-0.873127
-0.605726
-0.889952
0.743706
-0.214799
-0.211311
-0.186822
0.123621
0.149066
0.145526
-0.490193
-0.467566
-0.434273
-0.414715
-0.865215
-0.880484
0.635288
0.663186
0.653092
0.557305
0.542085
0.600199
0.603289
-0.888691
-0.911672
-0.909677
-0.937886
0.638439
0.652866
0.656777
0.643110
-0.857269
-0.782084
-0.817876
0.667755
0.672077
0.685132
-0.848925
0.709030
0.696236
0.691392
0.718474
-0.723720
-0.729251
-0.720510
-0.728567
-0.732587
-0.752213
-0.776641
-0.766333
-0.806624
-0.816154
-0.833002
-0.794708
0.432024
0.442234
0.430453
0.759051
0.761293
0.777180
-0.674295
-0.678784
-0.662306
0.747958
-0.652965
-0.647561
-0.663983
-0.785092
-0.805081
-0.789576
0.872754
0.865389
-0.831498
-0.846958
-0.813690
-0.823648
0.133980
0.114691
0.104540
-0.809553
0.423508
0.433871
0.441508
0.292251
0.243312
0.256583
0.134727
0.134739
0.155726
-0.967692
-0.947127
-0.942234
0.198595
0.855459
0.872624
0.852649
0.104695
0.095003
0.061056
-0.192758
-0.215067
-0.221701
-0.191574
0.047680
0.022001
-0.656343
-0.652280
-0.641706
-0.091342
-0.078609
-0.065602
0.594030
0.609801
-0.288215
-0.311776
-0.334021
-0.056036
-0.635384
-0.019035
-0.000064
-0.723997
-0.746555
-0.736491
-0.754674
-0.953946
-1.006023
-1.011098
-0.947623
-0.658503
-0.681222
-0.658347
0.213470
0.205245
0.237336
-0.675024
-0.658925
-0.810997
-0.825706
-0.629607
0.567842
0.562278
0.556551
0.574536
0.390854
0.361091
0.361708
0.387173
0.332347
0.370370
0.336521
-0.895314
-0.922181
-0.913169
0.892362
0.888026
0.609938
0.620316
0.634340
0.645393
-0.893449
-0.873691
-0.838684
-0.841612
-0.839003
-0.838997
-0.838876
-0.756609
-0.746819
-0.757061
-0.742613
-0.682917
-0.643577
-0.711212
-0.709750
-0.742907
0.519840
0.508360
0.532789
0.522814
-1.034301
-0.987718
-1.020149
0.518924
0.501030
0.875260
0.502595
-1.042516
-1.066659
-1.056486
0.879642
0.575904
0.487232
0.528042
-1.082770
0.510155
-0.957391
-0.814424
-0.189582
-0.172418
-0.159031
-0.821447
-0.733123
-0.741992
-0.743063
-0.751526
-0.669622
-0.662882
-0.693768
-0.669408
0.820096
0.814711
0.830342
0.817288
-0.718035
-0.729946
-0.718567
-0.734739
0.627913
0.632065
0.656464
0.650658
-0.707423
-0.712934
-0.852818
-0.845527
0.584542
0.572474
0.588611
0.572951
0.579292
0.560493
-0.763995
-0.765601
-0.390868
-0.377255
-0.406067
-0.377584
0.588168
-0.634534
-0.655732
-0.671998
-0.590936
-0.071270
-0.052714
-0.053415
0.538958
0.503659
-0.036560
-0.592259
-0.593019
-0.571969
-0.577770
-0.228658
-0.250193
-0.049338
-0.077256
0.471973
0.457211
-0.085777
-0.762506
-0.725680
-0.740174
-0.677875
0.650322
0.672828
0.666843
0.690536
0.366351
0.402920
0.591215
0.592019
0.618222
-0.767069
-0.743536
-0.744150
0.798572
0.796388
0.814915
0.439637
0.441940
0.816068
0.615994
0.555628
0.628525
-0.006774
-0.003070
0.019346
0.477508
-0.675042
-0.687894
0.485438
0.511340
0.523418
0.682322
0.670890
0.687698
-1.024152
-1.034729
0.667930
-0.916353
-0.930893
-0.913190
0.750822
0.727794
0.368220
0.332123
0.397411
-0.803707
-0.800775
-0.808516
-0.804675
-0.861787
-0.853803
-0.436435
-0.430893
-0.494723
-0.746435
-0.754251
-0.770604
-0.777009
-0.625806
-0.626522
0.194205
0.220624
0.184195
0.625530
0.632935
0.524568
0.541918
0.514704
0.626407
0.631906
0.620887
0.625972
-0.242360
-0.205436
-0.192275
-0.708213
-0.742150
-0.727108
-0.773099
-0.675688
-0.692608
-0.650691
0.559030
0.577667
0.583358
0.563249
1.037119
1.011337
1.023908
-0.742923
-0.750857
-0.748462
-0.381515
-0.422861
-0.393464
-0.748175
-0.645443
-0.614334
-0.632829
-0.631671
-0.207650
-0.183182
-0.181131
-0.667472
-0.710909
-1.026337
-1.005853
-1.017812
0.738229
0.731435
0.754398
-0.704716
0.793224
-0.726250
-0.722585
0.520977
0.544673
0.530646
0.538707
0.546379
0.499278
0.530861
0.994392
0.970874
0.976267
0.955099
0.893743
0.906941
0.907136
-0.858583
-0.861360
-0.869048
0.920804
-0.869788
-0.845848
-0.839448
-0.646553
-0.612084
-0.672154
-0.506117
-0.447520
-0.468605
0.852714
0.851895
0.839387
0.830254
-0.499747
0.507977
0.499314
0.582697
0.490309
0.480437
0.491684
0.479426
-0.528620
-0.536810
-0.516890
-0.547392
-0.643251
-0.627017
-0.620828
0.376355
0.367010
0.350289
0.343499
-0.758517
-0.767871
-0.764964
0.958858
-0.775187
0.937480
-0.751328
-0.736564
-0.531113
-0.505554
-0.002173
-0.036139
-0.465271
-0.451146
-0.424818
0.179272
0.166430
-0.891687
-0.910945
-0.906963
-0.930424
0.154812
0.180586
0.166478
0.222979
0.223677
0.239827
0.561180
0.570994
0.539015
0.598691
-0.432068
-0.539934
-0.211825
-0.247870
-0.221698
-0.250064
0.089629
0.106561
0.142787
0.132970
0.126554
0.117534
0.415890
0.432117
0.439322
0.131048
0.064475
0.063887
0.412666
-0.152325
-0.175582
-0.145594
-0.168315
0.457668
0.446811
0.368384
0.464041
-0.774973
-0.745013
-0.754301
-0.718455
-1.066924
-1.073615
-1.102528
-1.046718
0.118816
0.648348
0.640581
0.642069
0.634377
-1.047950
-1.033270
0.633664
-1.001252
-0.693932
-0.691918
-0.704623
-0.700008
-0.629389
-0.610063
-0.642637
0.536032
-0.151154
-0.153804
-0.182741
-0.592004
-0.577403
0.556865
0.548576
0.552297
-0.661407
-0.670559
0.770372
0.745451
0.756371
0.999136
0.978137
-0.682356
-0.647340
-1.068067
-1.058423
-0.541209
-0.534354
-0.549086
-0.523684
-0.027133
-0.048574
-0.020814
-0.049048
-0.638263
-0.552875
-0.561528
0.113133
-0.566422
-0.711256
-0.696651
-0.696716
-0.025891
-0.053057
-0.315256
-0.286053
-0.306074
-0.274197
0.555937
0.566246
0.552460
0.568972
0.664030
0.667812
0.673404
0.657899
-0.264399
-0.280569
-0.294069
0.337565
0.327833
0.349235
-0.156369
-0.191775
0.319319
-0.572427
-0.567878
-1.062449
-1.006403
-0.554991
-0.582729
-1.018013
-0.580904
1.089706
1.120243
1.104804
0.969306
0.575623
0.598876
0.613308
-0.795557
-0.762133
-0.785771
-0.388612
-0.391162
-0.404330
-0.403131
0.899396
0.670870
0.680637
0.684026
-0.844334
-0.996924
-0.988854
-0.979465
-1.007610
0.728394
0.737696
-1.015261
-1.028505
-1.013498
-0.333822
0.716259
0.718359
0.730324
0.840158
0.818173
0.832105
0.716564
-0.516019
-0.531815
-0.524067
-0.526793
-0.379999
-0.366527
-0.376559
-0.925694
-0.947816
0.993242
0.974855
0.949180
-0.580518
-0.558900
-0.530968
1.007313
1.023457
1.006164
0.000794
-0.025031
-0.504361
-0.358736
-0.436723
-0.412944
-0.373607
0.588499
0.545730
0.606965
-0.105742
-0.151940
-0.223241
0.160469
0.179284
0.168015
-0.421821
-0.401352
-0.398529
0.205075
0.188070
0.213800
0.195561
0.122956
0.150271
-0.366255
-0.366800
-0.330694
-0.332066
-1.143654
-1.175426
-1.120168
-1.209661
-0.730895
-0.751210
-0.734000
-1.115890
-0.691905
0.425386
0.417188
0.433328
0.416805
0.637207
1.029173
1.003208
0.629421
0.878127
0.890007
0.177326
0.200620
0.634839
-0.337551
0.622352
0.527495
0.521304
0.531776
0.865398
0.866219
0.756492
0.733300
0.835772
0.816722
0.912512
0.932978
0.528545
0.839434
0.539181
0.530736
0.305020
0.296931
0.313656
-1.176341
-1.175125
-1.196746
-1.153337
0.287228
0.645335
0.631744
0.609544
0.625547
0.645556
-0.668317
-0.680363
-1.030317
-1.004200
-0.656670
-0.899001
-0.788260
0.608375
0.611028
0.615224
0.603094
0.621197
0.951622
0.970751
0.154674
0.157499
0.615761
0.597937
0.613560
0.593592
0.607675
-0.777394
-0.734166
-0.371251
-0.375433
-0.756897
-0.752586
-0.873176
-0.957414
-0.420117
-0.392895
-0.901991
-0.895203
-0.915889
-0.888256
0.084749
0.097115
-0.749640
-0.728061
-0.731773
-0.774250
-0.768130
-0.186148
-0.357124
-0.760987
-0.771344
-0.778334
-0.782848
0.649570
0.670709
-0.784638
0.600425
0.601024
0.608769
0.584771
-0.569853
0.893896
-0.868667
-0.883126
-0.575787
-0.564135
-0.537704
0.117801
0.148058
0.148161
-0.849832
-0.853432
-0.009595
0.003363
0.017075
0.757822
0.760327
0.747888
0.753621
0.644944
0.652255
0.642391
0.654807
0.634095
0.613256
0.603690
-0.787674
-0.784015
0.506365
0.507561
0.516830
-0.080918
-0.039999
-0.072578
-0.055215
0.498141
-1.019091
-1.048538
1.018945
1.033678
-0.815305
-0.794049
-1.144113
-1.119499