# vtk DataFile Version 2.0
Test
ASCII
DATASET POLYDATA
POINTS 858 float
0.000000 0.000000 0.000000
1.000000 0.000000 0.000000
1.000000 1.000000 0.000000
0.000000 1.000000 0.000000
0.300000 0.330000 0.000000
0.700000 0.680000 0.000000
0.100000 0.000000 0.000000
0.200000 0.000000 0.000000
0.300000 0.000000 0.000000
0.400000 0.000000 0.000000
0.500000 0.000000 0.000000
0.600000 0.000000 0.000000
0.700000 0.000000 0.000000
0.800000 0.000000 0.000000
0.900000 0.000000 0.000000
1.000000 0.100000 0.000000
1.000000 0.200000 0.000000
1.000000 0.300000 0.000000
1.000000 0.400000 0.000000
1.000000 0.500000 0.000000
1.000000 0.600000 0.000000
1.000000 0.700000 0.000000
1.000000 0.800000 0.000000
1.000000 0.900000 0.000000
0.900000 1.000000 0.000000
0.800000 1.000000 0.000000
0.700000 1.000000 0.000000
0.600000 1.000000 0.000000
0.500000 1.000000 0.000000
0.400000 1.000000 0.000000
0.300000 1.000000 0.000000
0.200000 1.000000 0.000000
0.100000 1.000000 0.000000
0.000000 0.900000 0.000000
0.000000 0.800000 0.000000
0.000000 0.700000 0.000000
0.000000 0.600000 0.000000
0.000000 0.500000 0.000000
0.000000 0.400000 0.000000
0.000000 0.300000 0.000000
0.000000 0.200000 0.000000
0.000000 0.100000 0.000000
0.307407 0.336481 0.000000
0.314815 0.342963 0.000000
0.322222 0.349444 0.000000
0.329630 0.355926 0.000000
0.337037 0.362407 0.000000
0.344444 0.368889 0.000000
0.351852 0.375370 0.000000
0.359259 0.381852 0.000000
0.366667 0.388333 0.000000
0.374074 0.394815 0.000000
0.381481 0.401296 0.000000
0.388889 0.407778 0.000000
0.396296 0.414259 0.000000
0.403704 0.420741 0.000000
0.411111 0.427222 0.000000
0.418519 0.433704 0.000000
0.425926 0.440185 0.000000
0.433333 0.446667 0.000000
0.440741 0.453148 0.000000
0.448148 0.459630 0.000000
0.455556 0.466111 0.000000
0.462963 0.472593 0.000000
0.470370 0.479074 0.000000
0.477778 0.485556 0.000000
0.485185 0.492037 0.000000
0.492593 0.498519 0.000000
0.500000 0.505000 0.000000
0.507407 0.511481 0.000000
0.514815 0.517963 0.000000
0.522222 0.524444 0.000000
0.529630 0.530926 0.000000
0.537037 0.537407 0.000000
0.544444 0.543889 0.000000
0.551852 0.550370 0.000000
0.559259 0.556852 0.000000
0.566667 0.563333 0.000000
0.574074 0.569815 0.000000
0.581481 0.576296 0.000000
0.588889 0.582778 0.000000
0.596296 0.589259 0.000000
0.603704 0.595741 0.000000
0.611111 0.602222 0.000000
0.618519 0.608704 0.000000
0.625926 0.615185 0.000000
0.633333 0.621667 0.000000
0.640741 0.628148 0.000000
0.648148 0.634630 0.000000
0.655556 0.641111 0.000000
0.662963 0.647593 0.000000
0.670370 0.654074 0.000000
0.677778 0.660556 0.000000
0.685185 0.667037 0.000000
0.692593 0.673519 0.000000
0.548037 0.570873 0.000000
0.554453 0.579695 0.000000
0.540788 0.582045 0.000000
0.550492 0.594703 0.000000
0.338797 0.350505 0.000000
0.329823 0.347064 0.000000
0.335712 0.339262 0.000000
0.451687 0.438509 0.000000
0.442642 0.430741 0.000000
0.457884 0.427703 0.000000
0.387297 0.847474 0.000000
0.374793 0.914734 0.000000
0.332869 0.847471 0.000000
0.447069 0.415163 0.000000
0.567391 0.482596 0.000000
0.554659 0.473874 0.000000
0.567453 0.464800 0.000000
0.301190 0.902112 0.000000
0.551747 0.457138 0.000000
0.356532 0.391813 0.000000
0.347986 0.386048 0.000000
0.176207 0.429241 0.000000
0.128375 0.468105 0.000000
0.136378 0.404291 0.000000
0.185621 0.475277 0.000000
0.497512 0.261165 0.000000
0.499167 0.296032 0.000000
0.469918 0.291504 0.000000
0.642232 0.687989 0.000000
0.624295 0.701188 0.000000
0.630549 0.678643 0.000000
0.647682 0.074905 0.000000
0.700945 0.096046 0.000000
0.657288 0.160421 0.000000
0.611443 0.684403 0.000000
0.559779 0.406431 0.000000
0.582162 0.394521 0.000000
0.580552 0.422827 0.000000
0.560788 0.374759 0.000000
0.541503 0.468043 0.000000
0.545465 0.480978 0.000000
0.428301 0.394826 0.000000
0.414860 0.384611 0.000000
0.432086 0.374027 0.000000
0.533961 0.477886 0.000000
0.527361 0.464336 0.000000
0.415481 0.368142 0.000000
0.484401 0.527206 0.000000
0.472984 0.524144 0.000000
0.481205 0.518972 0.000000
0.394266 0.424909 0.000000
0.401826 0.431399 0.000000
0.392742 0.434502 0.000000
0.642418 0.617836 0.000000
0.635302 0.612878 0.000000
0.644322 0.605726 0.000000
0.263646 0.464175 0.000000
0.250486 0.498376 0.000000
0.230296 0.467342 0.000000
0.491693 0.468898 0.000000
0.498004 0.479972 0.000000
0.487381 0.480785 0.000000
0.718619 0.489140 0.000000
0.756680 0.466072 0.000000
0.751564 0.516847 0.000000
0.497232 0.719177 0.000000
0.477497 0.748035 0.000000
0.465924 0.716726 0.000000
0.501292 0.467390 0.000000
0.529064 0.285755 0.000000
0.547173 0.240449 0.000000
0.474742 0.511943 0.000000
0.403118 0.392815 0.000000
0.412434 0.399392 0.000000
0.653057 0.614785 0.000000
0.659187 0.602396 0.000000
0.400247 0.379451 0.000000
0.459133 0.636583 0.000000
0.434636 0.647284 0.000000
0.440667 0.616932 0.000000
0.453650 0.664799 0.000000
0.666296 0.616100 0.000000
0.657731 0.628197 0.000000
0.420489 0.468863 0.000000
0.414183 0.459489 0.000000
0.424065 0.460120 0.000000
0.629321 0.574616 0.000000
0.630370 0.589442 0.000000
0.617226 0.584388 0.000000
0.422026 0.450877 0.000000
0.590180 0.614274 0.000000
0.596278 0.627413 0.000000
0.585881 0.628067 0.000000
0.630677 0.603443 0.000000
0.529117 0.486095 0.000000
0.517046 0.488781 0.000000
0.522040 0.477224 0.000000
0.308641 0.392803 0.000000
0.323746 0.398675 0.000000
0.304273 0.411173 0.000000
0.146020 0.514086 0.000000
0.087335 0.505198 0.000000
0.624982 0.561914 0.000000
0.643811 0.559907 0.000000
0.831909 0.406061 0.000000
0.881376 0.423788 0.000000
0.839177 0.457573 0.000000
0.509066 0.478681 0.000000
0.614792 0.620247 0.000000
0.608406 0.635616 0.000000
0.603251 0.619643 0.000000
0.640290 0.595050 0.000000
0.524731 0.497540 0.000000
0.338689 0.392113 0.000000
0.347423 0.395876 0.000000
0.340116 0.407012 0.000000
0.686563 0.659098 0.000000
0.682555 0.651347 0.000000
0.934704 0.856355 0.000000
0.940546 0.930926 0.000000
0.863552 0.916423 0.000000
0.172107 0.566287 0.000000
0.188105 0.516551 0.000000
0.221330 0.532895 0.000000
0.683914 0.680068 0.000000
0.692945 0.685712 0.000000
0.683376 0.697853 0.000000
0.672414 0.683990 0.000000
0.557147 0.529227 0.000000
0.554161 0.540325 0.000000
0.546244 0.533101 0.000000
0.391911 0.394487 0.000000
0.387591 0.383772 0.000000
0.385780 0.368800 0.000000
0.671617 0.628861 0.000000
0.664093 0.637808 0.000000
0.408700 0.450928 0.000000
0.406517 0.467364 0.000000
0.394366 0.455525 0.000000
0.388841 0.472148 0.000000
0.792728 0.486062 0.000000
0.461047 0.516036 0.000000
0.460182 0.532753 0.000000
0.450617 0.523703 0.000000
0.364207 0.398120 0.000000
0.371344 0.402923 0.000000
0.362621 0.408449 0.000000
0.235276 0.413110 0.000000
0.235915 0.390376 0.000000
0.260894 0.399649 0.000000
0.564107 0.604249 0.000000
0.558497 0.625526 0.000000
0.545610 0.611482 0.000000
0.542035 0.628852 0.000000
0.441269 0.401429 0.000000
0.443649 0.385779 0.000000
0.454140 0.398188 0.000000
0.456246 0.380948 0.000000
0.531090 0.597071 0.000000
0.528592 0.618783 0.000000
0.693800 0.600685 0.000000
0.675646 0.601117 0.000000
0.688895 0.583493 0.000000
0.466943 0.412411 0.000000
0.469666 0.393398 0.000000
0.215629 0.311290 0.000000
0.236374 0.342186 0.000000
0.194357 0.347185 0.000000
0.372859 0.289727 0.000000
0.362694 0.307734 0.000000
0.346245 0.295576 0.000000
0.824768 0.656091 0.000000
0.787989 0.680173 0.000000
0.787481 0.637866 0.000000
0.763354 0.658567 0.000000
0.564845 0.587843 0.000000
0.565674 0.575091 0.000000
0.575285 0.580662 0.000000
0.591463 0.532694 0.000000
0.606735 0.524365 0.000000
0.606700 0.541268 0.000000
0.696107 0.663701 0.000000
0.695223 0.651919 0.000000
0.114270 0.553146 0.000000
0.897846 0.490106 0.000000
0.941355 0.438159 0.000000
0.491870 0.442127 0.000000
0.508682 0.433741 0.000000
0.504276 0.453072 0.000000
0.616608 0.507977 0.000000
0.629719 0.487283 0.000000
0.643435 0.510566 0.000000
0.660659 0.486926 0.000000
0.584650 0.557787 0.000000
0.582076 0.545531 0.000000
0.595086 0.552412 0.000000
0.215445 0.494211 0.000000
0.502563 0.534321 0.000000
0.493623 0.527201 0.000000
0.502900 0.523550 0.000000
0.490744 0.536689 0.000000
0.303740 0.348241 0.000000
0.312638 0.354325 0.000000
0.302746 0.359450 0.000000
0.683727 0.548378 0.000000
0.666144 0.562133 0.000000
0.663581 0.542222 0.000000
0.366098 0.324774 0.000000
0.379406 0.309842 0.000000
0.251675 0.434611 0.000000
0.214900 0.437402 0.000000
0.581091 0.493223 0.000000
0.603283 0.484739 0.000000
0.593195 0.510449 0.000000
0.429738 0.356510 0.000000
0.412970 0.350726 0.000000
0.358920 0.356811 0.000000
0.352460 0.366146 0.000000
0.347463 0.357590 0.000000
0.353794 0.402394 0.000000
0.527483 0.436280 0.000000
0.546965 0.439869 0.000000
0.535210 0.453469 0.000000
0.624606 0.790385 0.000000
0.614250 0.755688 0.000000
0.654837 0.763041 0.000000
0.384960 0.332814 0.000000
0.619946 0.597007 0.000000
0.358705 0.265521 0.000000
0.397502 0.266486 0.000000
0.377869 0.228897 0.000000
0.471169 0.372235 0.000000
0.492664 0.362648 0.000000
0.488718 0.386734 0.000000
0.431288 0.062893 0.000000
0.512348 0.074893 0.000000
0.450325 0.128772 0.000000
0.515327 0.223180 0.000000
0.538419 0.183215 0.000000
0.367912 0.509419 0.000000
0.343175 0.515399 0.000000
0.351317 0.488263 0.000000
0.593186 0.193353 0.000000
0.476496 0.230456 0.000000
0.594140 0.256114 0.000000
0.629340 0.367381 0.000000
0.659922 0.374166 0.000000
0.641019 0.397588 0.000000
0.669525 0.412603 0.000000
0.510665 0.591750 0.000000
0.493263 0.584115 0.000000
0.507476 0.576852 0.000000
0.492575 0.790205 0.000000
0.516533 0.753914 0.000000
0.493265 0.606545 0.000000
0.794852 0.435952 0.000000
0.797754 0.379724 0.000000
0.755728 0.420083 0.000000
0.528549 0.642034 0.000000
0.507334 0.653897 0.000000
0.509532 0.626562 0.000000
0.580705 0.748031 0.000000
0.605192 0.727758 0.000000
0.748472 0.635779 0.000000
0.742539 0.660255 0.000000
0.323194 0.421808 0.000000
0.325468 0.445306 0.000000
0.301700 0.435431 0.000000
0.295276 0.460827 0.000000
0.622421 0.457821 0.000000
0.642814 0.468538 0.000000
0.320303 0.468200 0.000000
[...]
POINT_DATA 858
SCALARS UX float 1
LOOKUP_TABLE default
0.000000
-0.000000
-0.704470
-0.402128
0.181918
-0.705217
-0.000000
0.000000
-0.000000
-0.000000
-0.000000
0.000000
0.000000
0.000000
0.000000
-0.105633
-0.193925
-0.327081
-0.515290
-0.738554
-0.916146
-0.952228
-0.849140
-0.742832
-0.624328
-0.551470
-0.507401
-0.512727
-0.529598
-0.539930
-0.538818
-0.510417
-0.463822
-0.373590
-0.308820
-0.178847
0.010977
0.232713
0.395377
0.408025
0.281395
0.147654
0.146521
0.179217
0.157546
0.117595
0.112147
0.084695
0.055105
0.071990
0.070643
0.042816
0.032456
0.044711
-0.007924
-0.001260
-0.102259
-0.028801
-0.094785
-0.115979
-0.079075
-0.108732
-0.179512
-0.217251
-0.193139
-0.179012
-0.209485
-0.284142
-0.204322
-0.283187
-0.320406
-0.289581
-0.304812
-0.357998
-0.375051
-0.418003
-0.429767
-0.427274
-0.450183
-0.448243
-0.456608
-0.453029
-0.537506
-0.564905
-0.536524
-0.585223
-0.547176
-0.590328
-0.640243
-0.644410
-0.643762
-0.635849
-0.673064
-0.699511
-0.692308
-0.329750
-0.351977
-0.341329
-0.371223
0.070616
0.104669
0.092799
-0.195423
-0.173090
-0.184394
-0.515833
-0.534974
-0.507968
-0.155341
-0.352520
-0.329593
-0.315836
-0.520041
-0.294443
0.128573
0.145118
0.207786
0.182937
0.281571
0.108222
-0.028661
-0.048537
-0.032807
-0.592777
-0.569432
-0.569678
0.007377
0.002306
-0.009919
-0.545836
-0.205982
-0.196900
-0.242282
-0.158388
-0.312375
-0.340884
-0.107948
-0.081725
-0.082810
-0.329436
-0.298492
-0.060144
-0.195410
-0.183402
-0.179020
0.057836
0.033675
0.043817
-0.645829
-0.637454
-0.644915
0.043489
-0.012182
0.073106
-0.284882
-0.307413
-0.284675
-0.442015
-0.430743
-0.530446
-0.482244
-0.491850
-0.467096
-0.290226
-0.052255
-0.030289
-0.162539
-0.078107
-0.097169
-0.660147
-0.638140
-0.060019
-0.378649
-0.381704
-0.341433
-0.412091
-0.664842
-0.688004
-0.040783
-0.015417
-0.025732
-0.578282
-0.612595
-0.595878
-0.008112
-0.441372
-0.464307
-0.453549
-0.643682
-0.343685
-0.340821
-0.321829
0.130476
0.118776
0.102394
0.066328
0.143352
-0.548004
-0.545918
-0.382851
-0.463746
-0.496022
-0.316295
-0.481109
-0.490930
-0.465050
-0.626624
-0.364711
0.133296
0.128080
0.104688
-0.696480
-0.705718
-0.727057
-0.672773
-0.614072
-0.072230
0.017177
-0.053631
-0.680510
-0.694978
-0.665521
-0.652781
-0.448248
-0.459838
-0.435853
-0.066382
-0.043976
-0.029060
-0.687322
-0.691020
0.003755
-0.031569
-0.001702
-0.038882
-0.507753
-0.161147
-0.195269
-0.172287
0.099572
0.062934
0.101579
0.173785
0.211896
0.167319
-0.398041
-0.425311
-0.393666
-0.416979
-0.129120
-0.108301
-0.134522
-0.110895
-0.359686
-0.392767
-0.638130
-0.634502
-0.608175
-0.165976
-0.137878
0.243890
0.252439
0.279978
0.035064
0.050585
0.066302
-0.825698
-0.800234
-0.791581
-0.786327
-0.377099
-0.374042
-0.420691
-0.472353
-0.456892
-0.496424
-0.702344
-0.703874
0.012746
-0.625614
-0.550310
-0.235043
-0.229088
-0.263698
-0.423373
-0.384617
-0.438188
-0.397464
-0.520803
-0.500610
-0.519529
0.035146
-0.222882
-0.203405
-0.204080
-0.219198
0.171692
0.171162
0.170687
-0.534735
-0.556491
-0.513460
0.043028
0.029681
0.115707
0.152196
-0.380037
-0.369216
-0.421462
-0.058595
-0.036824
0.026424
0.036523
0.044669
0.114194
-0.243410
-0.259047
-0.280167
-0.542323
-0.550516
-0.567524
0.011844
-0.619900
0.034653
0.011766
0.008381
-0.108716
-0.109470
-0.139947
-0.007964
0.001452
-0.006901
-0.018139
-0.008520
-0.112796
-0.114265
-0.063074
-0.015890
-0.013970
-0.049686
-0.178080
-0.203524
-0.228997
-0.268018
-0.336731
-0.313287
-0.308284
-0.512211
-0.507527
-0.351568
-0.407747
-0.303657
-0.342222
-0.425724
-0.427156
-0.391889
-0.533550
-0.549924
-0.751100
-0.768124
0.077624
0.032713
0.065316
0.021201
-0.323030
-0.352761
-0.008838
0.005027
-0.015170
-0.006772
-0.009349
0.306279
0.340420
0.305372
0.266468
-0.166632
-0.104456
-0.533872
-0.527011
-0.574282
-0.573612
-0.006919
-0.063367
-0.120510
-0.203396
-0.232974
-0.103881
0.063649
-0.321907
-0.364101
-0.382394
-0.326635
-0.458243
-0.465549
-0.260074
-0.293142
-0.409060
-0.665739
-0.308968
-0.254716
-0.343028
0.031051
0.035882
0.007240
-0.299576
-0.335135
-0.286135
0.067566
-0.343037
-0.133779
-0.119538
0.068836
0.054447
0.023856
-0.081948
-0.076386
-0.106460
-0.542845
-0.527988
-0.727170
-0.506859
-0.469048
-0.496417
-0.315322
-0.284425
-0.468085
-0.754085
-0.232131
-0.273363
-0.265134
-0.293240
-0.210935
-0.489991
-0.003279
0.006224
-0.009944
-0.074589
-0.045143
-0.508246
-0.483532
-0.136892
-0.001858
-0.024313
0.340559
0.310646
0.093491
-0.615938
-0.652849
-0.573256
0.075791
0.036555
-0.383870
-0.420176
-0.461878
-0.442238
-0.373273
-0.395673
-0.324560
-0.592362
-0.012568
-0.635623
-0.615638
-0.651327
-0.336098
-0.382403
-0.018792
0.223454
0.222015
-0.013769
0.048690
0.011631
-0.008528
0.250104
-0.163390
0.215215
-0.153202
-0.257026
-0.186713
-0.260519
-0.708355
-0.692058
-0.736498
-0.538459
-0.552752
-0.166460
-0.196530
-0.478142
-0.510978
-0.741029
-0.805220
-0.145602
-0.512714
-0.586632
-0.178361
-0.006680
-0.003527
-0.467094
-0.442038
0.009772
-0.005553
-0.029892
0.026610
-0.417156
-0.595582
-0.622010
-0.599732
0.029267
-0.499843
-0.534799
-0.555913
-0.582014
-0.041524
-0.017356
-0.855476
-0.814594
-0.895104
-0.801515
-0.002098
0.087508
0.071540
-0.576769
-0.514617
-0.469769
-0.751296
-0.769718
-0.365808
-0.322429
-0.184209
-0.161659
-0.205171
-0.180976
-0.513199
-0.522841
-0.525191
-0.144587
-0.524066
-0.697044
-0.703057
0.150527
0.103435
0.128841
-0.222065
-0.209455
0.098322
-0.179738
0.161414
0.160890
0.186402
-0.539616
-0.542645
0.111016
0.076235
0.184646
-0.296564
-0.310203
-0.631999
-0.657898
-0.352007
-0.262479
-0.308668
-0.392633
-0.246540
-0.190571
-0.521713
-0.541353
-0.038958
-0.014704
-0.026993
-0.630253
-0.620672
-0.310721
-0.320532
-0.302177
-0.327484
-0.527860
-0.533681
-0.719020
0.001556
-0.458233
-0.491874
-0.478300
-0.204995
-0.206989
-0.237805
-0.058058
0.024543
-0.595296
-0.603028
-0.523343
-0.522578
0.115669
-0.204389
-0.220980
-0.213412
-0.565664
-0.541613
-0.102318
-0.129527
-0.144785
-0.086456
-0.092173
-0.308184
-0.514983
-0.213657
0.057482
-0.049733
-0.256231
-0.197983
-0.114140
-0.247650
-0.239210
-0.682601
-0.687985
-0.059011
-0.708569
0.143263
-0.243680
-0.448204
0.145406
0.116636
0.016461
0.264205
0.169708
0.094122
-0.695106
-0.616103
-0.648239
-0.568636
-0.826565
-0.319807
-0.154273
-0.306279
-0.331457
-0.243517
-0.245988
-0.347365
0.117956
0.129211
-0.238125
-0.264106
-0.260621
-0.212527
-0.193763
-0.273888
-0.293410
-0.219196
-0.431694
-0.268666
-0.174960
-0.119827
-0.163904
-0.124729
-0.288396
-0.576983
-0.565052
-0.237109
-0.441938
-0.411899
-0.564610
-0.223531
-0.218320
0.173346
-0.250274
-0.108478
-0.067314
-0.131505
-0.437607
-0.274049
0.174324
-0.290478
-0.280577
-0.247632
-0.521818
-0.715258
-0.124268
-0.091800
-0.112374
-0.415194
-0.106646
-0.274408
-0.431423
-0.033966
0.046440
0.076666
-0.265369
-0.056775
-0.281160
-0.266668
-0.001180
-0.691878
-0.630283
0.193628
0.099322
0.234535
-0.011536
-0.494317
-0.683398
-0.782334
-0.754007
-0.520793
-0.618143
-0.071355
-0.074747
-0.291910
0.019868
-0.498809
-0.467006
-0.487228
-0.189191
-0.155255
-0.505778
-0.515849
0.070944
0.101151
-0.078618
-0.535214
-0.063487
-0.450479
-0.058364
-0.101346
-0.118771
-0.112445
-0.514477
-0.085216
-0.084845
-0.085799
-0.462849
-0.138542
-0.092459
-0.010985
-0.662407
-0.018657
-0.405501
-0.397447
-0.389585
-0.419685
-0.372955
-0.697127
-0.069551
-0.089645
0.141425
-0.339428
-0.230656
-0.522274
-0.007022
-0.547210
0.145918
-0.549782
-0.000771
-0.001623
-0.022547
-0.057307
-0.471987
-0.419659
0.017802
-0.673731
0.063736
-0.092560
-0.057087
0.379732
-0.392685
-0.442837
-0.873866
-0.826841
-0.067232
-0.085975
-0.067677
-0.525811
0.055399
-0.493446
-0.039910
-0.497753
-0.370119
-0.594887
0.274609
-0.310280
-0.604253
0.006497
-0.015237
-0.442773
-0.676185
-0.192057
-0.143339
-0.437419
-0.400807
-0.731137
-0.255679
0.164208
0.150313
0.142568
-0.662290
-0.147844
0.167794
-0.519507
-0.724852
-0.222984
-0.706902
-0.268487
0.219723
0.223192
-0.320434
0.185817
0.207902
0.002121
-0.102636
-0.011417
0.011706
-0.183871
-0.339380
-0.576234
-0.062032
-0.047164
-0.378919
-0.294946
0.181275
-0.228650
-0.253232
-0.386774
-0.362939
-0.136785
-0.114632
0.118393
-0.206767
0.065020
-0.735804
-0.283854
-0.580244
-0.475884
-0.449138
-0.469271
-0.480453
-0.413360
-0.358087
-0.147549
-0.233511
-0.426115
-0.272516
0.154158
-0.236177
-0.113342
-0.158690
0.164513
-0.037221
-0.058649
-0.595595
-0.422447
-0.149790
-0.393578
-0.346286
-0.169569
-0.168932
-0.600704
-0.501055
-0.141632
-0.139497
-0.118596
-0.376181
-0.372509
SCALARS UY float 1
LOOKUP_TABLE default
0.000000
0.000000
2.600000
2.600000
0.613640
1.987475
0.000000
0.000000
0.000000
0.000000
0.000000
0.000000
0.000000
0.000000
0.000000
0.248530
0.485136
0.737401
1.017318
1.289558
1.535111
1.758989
2.012647
2.300753
2.600000
2.600000
2.600000
2.600000
2.600000
2.600000
2.600000
2.600000
2.600000
2.359071
2.113325
1.843201
1.561436
1.291952
1.048863
0.836725
0.586048
0.305065
0.831909
0.816856
0.900952
0.853123
0.912585
1.013325
0.990174
0.933635
0.935681
1.032446
1.145509
0.958380
1.063818
1.123347
1.353775
1.039517
1.225996
1.264832
1.141353
1.088133
1.290850
1.312098
1.216152
1.221625
1.266719
1.349766
1.021255
1.249770
1.412404
1.348577
1.345964
1.224464
1.286064
1.426438
1.375691
1.437937
1.525684
1.090537
1.720762
1.579406
1.698435
1.551774
1.473022
1.663273
1.647578
1.646522
1.708900
1.763999
1.718544
1.790038
1.904066
1.829668
1.853831
2.388386
2.407271
2.443557
2.455626
0.320999
0.396336
0.277825
0.202785
0.195929
0.152980
2.516000
2.550164
2.482000
0.142652
0.252068
0.225996
0.236322
2.512198
0.207939
1.708513
1.695420
1.318369
1.392257
1.171658
1.517033
0.069495
0.082652
0.073323
2.417167
2.465214
2.435745
0.047871
0.081607
0.109870
2.472683
0.183770
0.206795
0.224974
0.165758
0.206033
0.223683
0.135123
0.140628
0.112056
0.212118
0.191517
0.121814
2.368700
2.370651
2.342094
1.943070
1.985072
2.062552
0.857140
0.847585
0.726565
1.690980
1.770690
1.596326
0.223225
0.264426
0.362645
0.666664
0.714940
0.852869
2.517489
2.519530
2.498645
0.200254
0.094114
0.085971
2.331304
0.191915
0.178937
0.808189
0.763624
0.160295
2.453899
2.433425
2.422376
2.463371
0.863873
0.943330
2.225276
2.187707
2.172143
0.553637
0.614648
0.577494
2.093464
2.419987
2.434561
2.456984
0.726093
0.227215
0.246162
0.209618
1.576962
1.703942
1.645762
1.576398
1.448822
0.506531
0.566564
0.725223
0.864943
0.879693
0.222924
2.300865
2.424622
2.384169
0.664248
0.266794
1.747399
1.793005
1.827796
1.387705
1.241675
2.220747
2.417046
2.415364
1.783856
1.667129
1.797270
2.215049
2.160692
2.277350
2.304987
0.340910
0.467920
0.436486
0.262084
0.223302
0.172312
0.971695
1.105732
2.153839
2.208221
2.156137
2.178811
0.864621
2.356326
2.382348
2.362381
1.764341
1.769308
1.899118
1.363239
1.235055
1.367164
2.455340
2.482216
2.477897
2.489943
0.130731
0.114152
0.119059
0.107484
2.470086
2.485066
0.951309
0.846639
0.848536
0.126535
0.113311
0.768596
0.925354
0.958653
0.123261
0.151786
0.178118
1.608004
1.727872
1.503967
1.610865
2.408818
2.281315
2.246681
0.362035
0.383258
0.411324
1.493603
1.319871
1.637192
1.085879
1.012347
0.156200
0.151559
0.170824
0.385743
0.393915
0.469798
0.483265
0.452443
0.386771
0.416190
1.657532
2.357152
2.347742
2.266588
2.389353
1.150679
1.285281
1.280562
0.705872
0.666325
0.605305
0.157616
0.124628
1.522389
1.427922
0.286354
0.324185
0.331107
0.103353
0.112007
0.232846
0.376404
0.310416
1.849469
0.166952
0.189373
0.186962
2.505319
2.504070
2.446375
0.131520
0.713732
0.134524
0.084944
0.091289
0.103154
0.105241
0.113988
0.020421
0.023544
0.034112
0.064842
0.060041
2.176067
2.111170
2.089364
0.092130
0.057047
0.128230
0.257528
0.318321
0.310148
0.388343
2.464649
2.452133
2.451019
2.541133
2.535496
2.466111
0.725731
0.596760
0.599177
2.496318
2.495206
2.484178
2.526350
2.502285
1.435724
1.615252
1.795998
1.886060
1.739772
1.802980
0.339446
0.404140
1.929552
0.049049
0.047163
0.045657
0.055163
0.987091
0.997346
1.196159
1.134250
1.970137
1.924035
2.578875
2.554488
0.761457
0.826187
1.807087
1.899124
1.815914
1.972579
1.955041
1.755230
0.216771
2.253863
2.328189
2.311224
2.307353
2.312500
2.273592
2.023988
0.651257
0.827786
0.979359
2.132518
2.087538
2.142259
0.172659
0.235903
0.133007
2.345599
2.355739
2.293476
0.295924
0.698681
0.156638
0.184293
1.902087
0.207899
0.172368
0.096218
0.100710
0.111708
2.475066
2.528486
1.292004
2.512130
2.458993
2.514111
2.442709
2.433223
2.486149
1.346964
0.531062
2.434070
0.492072
0.485759
0.382039
2.465586
0.083600
0.167505
0.094451
0.091695
0.154573
2.493163
2.421674
0.202688
0.093889
0.159199
0.808024
0.839563
0.322477
2.301339
2.162233
2.379227
1.967858
1.987520
2.472584
2.483974
0.550342
0.595760
2.211515
2.284442
2.204273
1.016926
2.016832
2.355551
2.373278
2.251530
0.443730
0.541569
0.082522
1.125260
0.996988
0.026951
0.239419
0.101940
0.093848
1.105890
2.200556
1.263527
2.255472
2.138027
2.068569
2.209753
1.286938
1.206234
1.478758
0.502153
0.480951
2.342727
2.365165
2.460966
2.453790
1.283033
1.457516
2.341399
0.741882
0.918631
2.140213
0.053075
0.061631
2.401253
2.390329
2.069393
2.125817
2.110757
2.100584
2.386750
0.626071
0.693096
0.723774
1.589779
0.614007
0.456911
2.306459
2.298464
0.133525
0.130710
1.603846
1.417477
1.577841
1.348997
0.040363
0.231028
0.187607
2.462042
0.477435
0.437244
1.727319
1.757136
2.475950
2.451470
0.130207
0.121168
0.145598
0.131216
2.565727
2.557833
2.520579
0.124419
2.581281
1.175893
1.281337
0.396953
0.276253
0.300196
0.169601
0.151431
0.234387
0.149065
1.330237
1.428317
1.232317
2.324636
2.395474
1.562878
1.650542
1.110324
2.393431
2.382095
0.992108
1.101240
2.395079
2.386681
2.421066
2.381408
2.102283
2.299452
2.413783
2.448138
1.915797
0.414927
0.292535
2.288188
2.369426
2.376139
2.425359
2.419494
0.323481
2.543490
2.533496
1.503249
0.203932
2.482546
2.482511
2.494942
2.275501
2.230240
2.234437
0.084940
2.110800
2.371773
2.251001
2.549635
2.559697
0.283641
0.168883
0.175240
0.212227
0.633577
0.631561
2.025342
2.016494
0.266645
0.187663
0.232415
0.379342
2.321840
2.396126
2.041824
0.195261
2.345932
2.315777
0.131413
2.287928
2.411871
1.114124
1.053844
0.115562
1.205812
1.478646
0.199755
2.493936
0.403939
0.414023
0.200749
0.593038
0.395790
1.899176
2.192167
2.336316
2.221636
2.393840
1.978368
0.477190
0.190133
2.233102
2.258034
2.404090
2.368108
2.449863
0.436703
0.421810
0.173642
0.184247
0.216760
0.334499
0.319663
0.276010
0.250665
0.255256
2.438730
0.173239
0.463756
0.161457
0.205047
0.200590
2.366142
0.547070
0.508015
0.228661
0.319352
0.295246
2.394850
2.400009
2.387864
0.594672
2.406790
0.292887
0.247560
0.365135
2.332763
0.216503
0.593788
2.231591
2.167352
2.417008
2.535275
1.719986
2.267020
2.247642
2.292759
2.415082
2.214088
0.340197
2.461602
0.093691
2.038378
1.990139
2.412476
0.092033
2.403205
2.353333
0.157319
1.188610
1.065444
0.600804
0.410614
0.615092
0.106771
0.520144
2.114597
1.966445
1.936410
2.478599
1.024859
2.165839
2.207126
2.434684
2.041027
2.516708
2.510292
2.507152
2.337299
2.308377
2.497235
2.509619
1.816442
1.918316
0.298640
2.497044
2.227185
2.499389
2.017573
2.165693
2.176343
2.289943
2.538781
0.100537
0.123802
0.151527
2.509001
2.299582
2.272072
0.062592
0.956804
0.074843
0.396891
0.408655
0.275548
0.309689
0.415206
2.112383
2.257393
2.289871
1.456876
0.270146
2.382189
2.521038
0.046224
2.440370
1.584212
2.487166
0.065625
0.081958
0.132982
0.181227
2.451559
2.401269
0.101484
1.115045
0.199015
0.294397
0.240124
0.974902
2.255051
2.332264
1.779633
1.767754
2.108371
2.151449
2.241229
2.517893
0.290063
0.638663
0.081671
2.525092
0.591425
2.308592
0.792430
2.085490
2.414365
0.103004
0.086450
2.309791
2.122572
0.422936
0.139018
2.469038
2.432575
1.928098
0.352413
1.579153
1.640365
1.671173
2.212990
0.316073
1.492663
0.522944
1.941301
2.357364
1.103795
0.323074
0.738356
0.794400
0.290311
0.965271
0.859432
1.988140
0.296659
0.278385
0.314967
0.302137
2.280114
0.639926
2.253094
2.199914
2.380755
0.190627
0.605715
2.230231
2.232993
0.266500
0.242395
2.330627
2.312992
0.368588
0.140013
1.905553
1.934694
2.419554
0.678168
0.376874
0.324636
0.346961
0.548121
0.460554
0.232485
2.114211
0.420531
2.259138
0.513943
0.378913
2.066934
0.311650
0.381007
1.372102
2.045920
2.021154
0.763109
0.291771
0.299691
0.262765
0.363051
2.205928
2.248782
2.147828
0.486921
0.309860
2.322653
2.314503
0.248201
0.317872
SCALARS DAMAGE float 1
LOOKUP_TABLE default
0.607717
0.688155
0.598895
0.682961
0.000000
0.000000
0.625781
0.658548
0.697751
0.728851
0.756207
0.772153
0.764300
0.739805
0.707972
0.683042
0.663343
0.632321
0.597373
0.568707
0.551004
0.553965
0.570958
0.591144
0.613113
0.644148
0.684456
0.719235
0.746575
0.760366
0.756299
0.730934
0.700147
0.676846
0.656360
0.626202
0.593111
0.565796
0.551298
0.557411
0.577834
0.597640
-0.000000
0.000000
0.000000
0.000000
0.000000
0.000000
0.000000
0.000000
0.000000
0.000000
0.000000
0.000000
0.000000
0.000000
0.000000
0.000000
0.000000
0.000000
0.000000
0.000000
0.000000
0.000000
0.000000
0.000000
0.000000
0.000000
0.000000
0.000000
0.000000
0.000000
0.000000
0.000000
0.000000
0.000000
0.000000
0.000000
0.000000
0.000000
0.000000
0.000000
0.000000
0.000000
0.000000
0.000000
0.000000
0.000000
0.000000
0.000000
0.000000
0.000000
0.000000
0.000000
-0.000000
0.082918
0.094073
0.139276
0.153416
0.060550
0.043193
0.102723
0.084438
0.084653
0.136978
0.720689
0.750020
0.725589
0.147977
0.242655
0.237712
0.286718
0.742049
0.274008
0.042959
0.049545
0.471032
0.522660
0.497600
0.490409
0.581058
0.526430
0.502352
0.237725
0.320529
0.228365
0.760209
0.751045
0.731993
0.289323
0.401151
0.454568
0.400374
0.463025
0.224132
0.198003
0.163093
0.160587
0.237037
0.179431
0.201928
0.215429
0.118201
0.138642
0.101021
0.041935
0.041488
0.076979
0.041071
0.036299
0.085860
0.401828
0.458303
0.444342
0.097504
0.079191
0.045825
0.457720
0.513636
0.455223
0.536638
0.596499
0.562663
0.128236
0.572016
0.642983
0.096527
0.099622
0.104006
0.082621
0.137238
0.138213
0.436664
0.487098
0.425725
0.494446
0.117448
0.053125
0.108328
0.096312
0.071422
0.138336
0.097283
0.076830
0.047489
0.108735
0.136337
0.166747
0.054005
0.143476
0.103607
0.152009
0.186670
0.159240
0.239933
0.536627
0.553121
0.162958
0.212656
0.587362
0.583521
0.555739
0.113817
0.055972
0.131130
0.089058
0.107176
0.096880
0.097224
0.083213
0.137306
0.041755
0.055726
0.583879
0.599680
0.611377
0.561264
0.518396
0.515123
0.085693
0.095749
0.205712
0.145110
0.085324
0.041031
0.042130
0.059832
0.085611
0.135173
0.094567
0.040013
0.084848
0.139728
0.136016
0.195349
0.515530
0.145012
0.194977
0.192134
0.041111
0.035908
0.079133
0.385855
0.366897
0.322856
0.147823
0.227194
0.216317
0.273350
0.175622
0.229078
0.217377
0.271122
0.209163
0.275168
0.231871
0.184519
0.257397
0.206587
0.266343
0.420955
0.357718
0.433423
0.379324
0.302698
0.323840
0.456191
0.412319
0.402745
0.352904
0.091671
0.045260
0.035512
0.163471
0.220518
0.176028
0.067947
0.105364
0.566592
0.555511
0.582800
0.180286
0.243205
0.178818
0.280574
0.348206
0.323737
0.395181
0.070509
0.101988
0.115369
0.482631
0.091392
0.093189
0.055126
0.130623
0.075229
0.058578
0.117590
0.317804
0.254986
0.293551
0.246394
0.324847
0.382365
0.434704
0.244791
0.308855
0.227246
0.283049
0.263741
0.100324
0.040525
0.059474
0.085278
0.276509
0.306316
0.248741
0.548875
0.485339
0.473125
0.259482
0.043933
0.436116
0.471463
0.536914
0.324769
0.386274
0.322495
0.728605
0.746784
0.700639
0.642262
0.692406
0.324391
0.375460
0.309109
0.703216
0.607954
0.650275
0.544753
0.557692
0.513029
0.517880
0.241369
0.258954
0.207028
0.637876
0.573524
0.315649
0.557712
0.601630
0.558037
0.335063
0.399539
0.332975
0.501379
0.426699
0.322402
0.295089
0.218649
0.266975
0.294132
0.351322
0.394690
0.402899
0.322476
0.744207
0.686569
0.656704
0.651474
0.478826
0.517497
0.539369
0.449847
0.553286
0.494649
0.746377
0.720833
0.277672
0.324301
0.407526
0.444792
0.596893
0.597670
0.630116
0.605405
0.391246
0.575722
0.581218
0.622072
0.539647
0.050602
0.048755
0.629282
0.631025
0.607123
0.166240
0.631372
0.592876
0.659289
0.486455
0.528058
0.568948
0.458999
0.506960
0.489778
0.441479
0.610150
0.127100
0.095873
0.181335
0.149612
0.177310