# vtk DataFile Version 2.0
Test
ASCII
DATASET POLYDATA
POINTS 858 float
0.000000 0.000000 0.000000
1.000000 0.000000 0.000000
1.000000 1.000000 0.000000
0.000000 1.000000 0.000000
0.300000 0.330000 0.000000
0.700000 0.680000 0.000000
0.100000 0.000000 0.000000
0.200000 0.000000 0.000000
0.300000 0.000000 0.000000
0.400000 0.000000 0.000000
0.500000 0.000000 0.000000
0.600000 0.000000 0.000000
0.700000 0.000000 0.000000
0.800000 0.000000 0.000000
0.900000 0.000000 0.000000
1.000000 0.100000 0.000000
1.000000 0.200000 0.000000
1.000000 0.300000 0.000000
1.000000 0.400000 0.000000
1.000000 0.500000 0.000000
1.000000 0.600000 0.000000
1.000000 0.700000 0.000000
1.000000 0.800000 0.000000
1.000000 0.900000 0.000000
0.900000 1.000000 0.000000
0.800000 1.000000 0.000000
0.700000 1.000000 0.000000
0.600000 1.000000 0.000000
0.500000 1.000000 0.000000
0.400000 1.000000 0.000000
0.300000 1.000000 0.000000
0.200000 1.000000 0.000000
0.100000 1.000000 0.000000
0.000000 0.900000 0.000000
0.000000 0.800000 0.000000
0.000000 0.700000 0.000000
0.000000 0.600000 0.000000
0.000000 0.500000 0.000000
0.000000 0.400000 0.000000
0.000000 0.300000 0.000000
0.000000 0.200000 0.000000
0.000000 0.100000 0.000000
0.307407 0.336481 0.000000
0.314815 0.342963 0.000000
0.322222 0.349444 0.000000
0.329630 0.355926 0.000000
0.337037 0.362407 0.000000
0.344444 0.368889 0.000000
0.351852 0.375370 0.000000
0.359259 0.381852 0.000000
0.366667 0.388333 0.000000
0.374074 0.394815 0.000000
0.381481 0.401296 0.000000
0.388889 0.407778 0.000000
0.396296 0.414259 0.000000
0.403704 0.420741 0.000000
0.411111 0.427222 0.000000
0.418519 0.433704 0.000000
0.425926 0.440185 0.000000
0.433333 0.446667 0.000000
0.440741 0.453148 0.000000
0.448148 0.459630 0.000000
0.455556 0.466111 0.000000
0.462963 0.472593 0.000000
0.470370 0.479074 0.000000
0.477778 0.485556 0.000000
0.485185 0.492037 0.000000
0.492593 0.498519 0.000000
0.500000 0.505000 0.000000
0.507407 0.511481 0.000000
0.514815 0.517963 0.000000
0.522222 0.524444 0.000000
0.529630 0.530926 0.000000
0.537037 0.537407 0.000000
0.544444 0.543889 0.000000
0.551852 0.550370 0.000000
0.559259 0.556852 0.000000
0.566667 0.563333 0.000000
0.574074 0.569815 0.000000
0.581481 0.576296 0.000000
0.588889 0.582778 0.000000
0.596296 0.589259 0.000000
0.603704 0.595741 0.000000
0.611111 0.602222 0.000000
0.618519 0.608704 0.000000
0.625926 0.615185 0.000000
0.633333 0.621667 0.000000
0.640741 0.628148 0.000000
0.648148 0.634630 0.000000
0.655556 0.641111 0.000000
0.662963 0.647593 0.000000
0.670370 0.654074 0.000000
0.677778 0.660556 0.000000
0.685185 0.667037 0.000000
0.692593 0.673519 0.000000
0.548037 0.570873 0.000000
0.554453 0.579695 0.000000
0.540788 0.582045 0.000000
0.550492 0.594703 0.000000
0.338797 0.350505 0.000000
0.329823 0.347064 0.000000
0.335712 0.339262 0.000000
0.451687 0.438509 0.000000
0.442642 0.430741 0.000000
0.457884 0.427703 0.000000
0.387297 0.847474 0.000000
0.374793 0.914734 0.000000
0.332869 0.847471 0.000000
0.447069 0.415163 0.000000
0.567391 0.482596 0.000000
0.554659 0.473874 0.000000
0.567453 0.464800 0.000000
0.301190 0.902112 0.000000
0.551747 0.457138 0.000000
0.356532 0.391813 0.000000
0.347986 0.386048 0.000000
0.176207 0.429241 0.000000
0.128375 0.468105 0.000000
0.136378 0.404291 0.000000
0.185621 0.475277 0.000000
0.497512 0.261165 0.000000
0.499167 0.296032 0.000000
0.469918 0.291504 0.000000
0.642232 0.687989 0.000000
0.624295 0.701188 0.000000
0.630549 0.678643 0.000000
0.647682 0.074905 0.000000
0.700945 0.096046 0.000000
0.657288 0.160421 0.000000
0.611443 0.684403 0.000000
0.559779 0.406431 0.000000
0.582162 0.394521 0.000000
0.580552 0.422827 0.000000
0.560788 0.374759 0.000000
0.541503 0.468043 0.000000
0.545465 0.480978 0.000000
0.428301 0.394826 0.000000
0.414860 0.384611 0.000000
0.432086 0.374027 0.000000
0.533961 0.477886 0.000000
0.527361 0.464336 0.000000
0.415481 0.368142 0.000000
0.484401 0.527206 0.000000
0.472984 0.524144 0.000000
0.481205 0.518972 0.000000
0.394266 0.424909 0.000000
0.401826 0.431399 0.000000
0.392742 0.434502 0.000000
0.642418 0.617836 0.000000
0.635302 0.612878 0.000000
0.644322 0.605726 0.000000
0.263646 0.464175 0.000000
0.250486 0.498376 0.000000
0.230296 0.467342 0.000000
0.491693 0.468898 0.000000
0.498004 0.479972 0.000000
0.487381 0.480785 0.000000
0.718619 0.489140 0.000000
0.756680 0.466072 0.000000
0.751564 0.516847 0.000000
0.497232 0.719177 0.000000
0.477497 0.748035 0.000000
0.465924 0.716726 0.000000
0.501292 0.467390 0.000000
0.529064 0.285755 0.000000
0.547173 0.240449 0.000000
0.474742 0.511943 0.000000
0.403118 0.392815 0.000000
0.412434 0.399392 0.000000
0.653057 0.614785 0.000000
0.659187 0.602396 0.000000
0.400247 0.379451 0.000000
0.459133 0.636583 0.000000
0.434636 0.647284 0.000000
0.440667 0.616932 0.000000
0.453650 0.664799 0.000000
0.666296 0.616100 0.000000
0.657731 0.628197 0.000000
0.420489 0.468863 0.000000
0.414183 0.459489 0.000000
0.424065 0.460120 0.000000
0.629321 0.574616 0.000000
0.630370 0.589442 0.000000
0.617226 0.584388 0.000000
0.422026 0.450877 0.000000
0.590180 0.614274 0.000000
0.596278 0.627413 0.000000
0.585881 0.628067 0.000000
0.630677 0.603443 0.000000
0.529117 0.486095 0.000000
0.517046 0.488781 0.000000
0.522040 0.477224 0.000000
0.308641 0.392803 0.000000
0.323746 0.398675 0.000000
0.304273 0.411173 0.000000
0.146020 0.514086 0.000000
0.087335 0.505198 0.000000
0.624982 0.561914 0.000000
0.643811 0.559907 0.000000
0.831909 0.406061 0.000000
0.881376 0.423788 0.000000
0.839177 0.457573 0.000000
0.509066 0.478681 0.000000
0.614792 0.620247 0.000000
0.608406 0.635616 0.000000
0.603251 0.619643 0.000000
0.640290 0.595050 0.000000
0.524731 0.497540 0.000000
0.338689 0.392113 0.000000
0.347423 0.395876 0.000000
0.340116 0.407012 0.000000
0.686563 0.659098 0.000000
0.682555 0.651347 0.000000
0.934704 0.856355 0.000000
0.940546 0.930926 0.000000
0.863552 0.916423 0.000000
0.172107 0.566287 0.000000
0.188105 0.516551 0.000000
0.221330 0.532895 0.000000
0.683914 0.680068 0.000000
0.692945 0.685712 0.000000
0.683376 0.697853 0.000000
0.672414 0.683990 0.000000
0.557147 0.529227 0.000000
0.554161 0.540325 0.000000
0.546244 0.533101 0.000000
0.391911 0.394487 0.000000
0.387591 0.383772 0.000000
0.385780 0.368800 0.000000
0.671617 0.628861 0.000000
0.664093 0.637808 0.000000
0.408700 0.450928 0.000000
0.406517 0.467364 0.000000
0.394366 0.455525 0.000000
0.388841 0.472148 0.000000
0.792728 0.486062 0.000000
0.461047 0.516036 0.000000
0.460182 0.532753 0.000000
0.450617 0.523703 0.000000
0.364207 0.398120 0.000000
0.371344 0.402923 0.000000
0.362621 0.408449 0.000000
0.235276 0.413110 0.000000
0.235915 0.390376 0.000000
0.260894 0.399649 0.000000
0.564107 0.604249 0.000000
0.558497 0.625526 0.000000
0.545610 0.611482 0.000000
0.542035 0.628852 0.000000
0.441269 0.401429 0.000000
0.443649 0.385779 0.000000
0.454140 0.398188 0.000000
0.456246 0.380948 0.000000
0.531090 0.597071 0.000000
0.528592 0.618783 0.000000
0.693800 0.600685 0.000000
0.675646 0.601117 0.000000
0.688895 0.583493 0.000000
0.466943 0.412411 0.000000
0.469666 0.393398 0.000000
0.215629 0.311290 0.000000
0.236374 0.342186 0.000000
0.194357 0.347185 0.000000
0.372859 0.289727 0.000000
0.362694 0.307734 0.000000
0.346245 0.295576 0.000000
0.824768 0.656091 0.000000
0.787989 0.680173 0.000000
0.787481 0.637866 0.000000
0.763354 0.658567 0.000000
0.564845 0.587843 0.000000
0.565674 0.575091 0.000000
0.575285 0.580662 0.000000
0.591463 0.532694 0.000000
0.606735 0.524365 0.000000
0.606700 0.541268 0.000000
0.696107 0.663701 0.000000
0.695223 0.651919 0.000000
0.114270 0.553146 0.000000
0.897846 0.490106 0.000000
0.941355 0.438159 0.000000
0.491870 0.442127 0.000000
0.508682 0.433741 0.000000
0.504276 0.453072 0.000000
0.616608 0.507977 0.000000
0.629719 0.487283 0.000000
0.643435 0.510566 0.000000
0.660659 0.486926 0.000000
0.584650 0.557787 0.000000
0.582076 0.545531 0.000000
0.595086 0.552412 0.000000
0.215445 0.494211 0.000000
0.502563 0.534321 0.000000
0.493623 0.527201 0.000000
0.502900 0.523550 0.000000
0.490744 0.536689 0.000000
0.303740 0.348241 0.000000
0.312638 0.354325 0.000000
0.302746 0.359450 0.000000
0.683727 0.548378 0.000000
0.666144 0.562133 0.000000
0.663581 0.542222 0.000000
0.366098 0.324774 0.000000
0.379406 0.309842 0.000000
0.251675 0.434611 0.000000
0.214900 0.437402 0.000000
0.581091 0.493223 0.000000
0.603283 0.484739 0.000000
0.593195 0.510449 0.000000
0.429738 0.356510 0.000000
0.412970 0.350726 0.000000
0.358920 0.356811 0.000000
0.352460 0.366146 0.000000
0.347463 0.357590 0.000000
0.353794 0.402394 0.000000
0.527483 0.436280 0.000000
0.546965 0.439869 0.000000
0.535210 0.453469 0.000000
0.624606 0.790385 0.000000
0.614250 0.755688 0.000000
0.654837 0.763041 0.000000
0.384960 0.332814 0.000000
0.619946 0.597007 0.000000
0.358705 0.265521 0.000000
0.397502 0.266486 0.000000
0.377869 0.228897 0.000000
0.471169 0.372235 0.000000
0.492664 0.362648 0.000000
0.488718 0.386734 0.000000
0.431288 0.062893 0.000000
0.512348 0.074893 0.000000
0.450325 0.128772 0.000000
0.515327 0.223180 0.000000
0.538419 0.183215 0.000000
0.367912 0.509419 0.000000
0.343175 0.515399 0.000000
0.351317 0.488263 0.000000
0.593186 0.193353 0.000000
0.476496 0.230456 0.000000
0.594140 0.256114 0.000000
0.629340 0.367381 0.000000
0.659922 0.374166 0.000000
0.641019 0.397588 0.000000
0.669525 0.412603 0.000000
0.510665 0.591750 0.000000
0.493263 0.584115 0.000000
0.507476 0.576852 0.000000
0.492575 0.790205 0.000000
0.516533 0.753914 0.000000
0.493265 0.606545 0.000000
0.794852 0.435952 0.000000
0.797754 0.379724 0.000000
0.755728 0.420083 0.000000
0.528549 0.642034 0.000000
0.507334 0.653897 0.000000
0.509532 0.626562 0.000000
0.580705 0.748031 0.000000
0.605192 0.727758 0.000000
0.748472 0.635779 0.000000
0.742539 0.660255 0.000000
0.323194 0.421808 0.000000
0.325468 0.445306 0.000000
0.301700 0.435431 0.000000
0.295276 0.460827 0.000000
0.622421 0.457821 0.000000
0.642814 0.468538 0.000000
0.320303 0.468200 0.000000
[...]
POINT_DATA 858
SCALARS UX float 1
LOOKUP_TABLE default
0.000000
-0.000000
-0.538938
0.710721
1.486963
-1.155428
-0.000000
0.000000
-0.000000
-0.000000
-0.000000
0.000000
0.000000
0.000000
0.000000
-0.412351
-0.758422
-1.367261
-2.492423
-4.355830
-6.021747
-5.088183
-2.432949
-0.927601
-0.040319
0.240221
0.338571
0.287554
0.230304
0.204098
0.214647
0.312788
0.478038
0.833493
1.101811
1.733966
2.928604
4.886757
6.354197
5.053732
2.390228
0.920691
1.142716
1.248440
1.081712
0.875193
0.866610
0.719663
0.613425
0.776044
0.807020
0.696631
0.880175
0.974736
0.682938
0.835067
0.182680
0.789663
0.438930
0.382594
0.726487
0.609226
0.181142
0.013838
0.285135
0.468420
0.355950
-0.096563
0.540922
0.077403
-0.113262
0.224078
0.163336
-0.136290
-0.169989
-0.378302
-0.335315
-0.238044
-0.370297
-0.406429
-0.018283
0.044145
-0.491484
-0.621853
-0.324365
-0.576864
-0.236761
-0.393363
-0.650645
-0.639587
-0.594845
-0.477493
-0.700481
-0.900743
-0.969868
0.905890
0.830392
0.906694
0.796390
0.422882
0.617377
0.510683
-0.628565
-0.543376
-0.629030
0.284635
0.221793
0.316337
-0.524061
-1.341021
-1.243883
-1.196061
0.277109
-1.106257
2.586270
2.768972
4.225892
4.194263
4.930813
3.409956
-0.072570
-0.148104
-0.084380
-0.082078
0.030250
0.026406
0.020720
-0.002460
-0.038412
0.134259
-0.759461
-0.725438
-0.905137
-0.573201
-1.170737
-1.279310
-0.349917
-0.251883
-0.270605
-1.226028
-1.108420
-0.181535
1.481306
1.540448
1.518394
2.343932
2.227356
2.465594
-2.184801
-2.067259
-2.542286
2.790088
2.497502
3.040383
-0.989783
-1.041010
-0.818187
-1.808142
-1.779086
-2.302063
0.396268
0.360927
0.455076
-1.044127
-0.165920
-0.088140
1.573311
-0.201425
-0.275050
-2.579254
-2.609519
-0.165571
0.798315
0.786549
0.945180
0.667560
-2.694677
-2.599813
2.129760
2.240957
2.123317
-2.329549
-2.441913
-2.288303
2.131926
0.501161
0.436989
0.488192
-2.482925
-1.264127
-1.214239
-1.182252
2.969514
2.919065
2.918397
3.176909
3.925012
-2.195987
-2.227695
-1.588714
-2.067778
-2.221942
-1.130805
0.311296
0.334323
0.399252
-2.535699
-1.307806
2.896604
2.845521
2.850957
-1.860869
-2.296083
-0.926850
-0.363713
-0.035318
2.234184
2.778625
2.301729
-0.631869
-0.801800
-0.539564
-0.419159
-1.643042
-1.528593
-1.421612
-0.124923
-0.057829
-0.046403
-2.708714
-2.302754
2.305887
2.213946
2.356236
2.219200
-2.228189
1.634469
1.517805
1.612353
2.305569
1.858718
2.712870
3.687994
3.928236
3.476434
0.691751
0.607224
0.725867
0.642753
-0.433224
-0.366184
-0.464103
-0.380037
0.856723
0.736151
-2.676916
-2.628187
-2.576548
-0.581419
-0.482810
2.605806
3.415214
3.990105
0.217261
0.284615
0.378042
-4.051492
-3.030794
-3.990309
-3.406544
0.730582
0.617215
0.357436
-1.843532
-1.800500
-1.965329
-1.962175
-2.353310
2.843916
-3.210925
-2.707604
-0.844833
-0.836802
-0.960942
-1.664416
-1.503601
-1.745990
-1.572190
-1.902838
-1.924202
-2.018872
2.841609
1.339287
1.414365
1.347601
1.389029
2.363064
2.485510
2.697958
-2.224498
-2.304328
-2.104449
0.243835
0.184078
3.253120
3.647606
-1.459053
-1.428291
-1.638897
-0.181631
-0.095438
0.196188
0.306540
0.299928
2.776280
-0.899364
-0.965730
-1.044091
0.141641
0.108953
0.016754
0.103613
-2.263579
0.231117
0.111893
0.109991
-0.375496
-0.381144
-0.495468
-0.006524
0.017326
0.010235
-0.038427
-0.010979
1.915772
1.922202
2.150816
-0.047101
-0.012981
-0.165529
-0.652916
-0.754774
-0.856394
-1.017681
0.952335
1.047111
1.056601
0.283321
0.298284
0.901210
-1.691830
-1.192591
-1.356899
0.612920
0.608935
0.743709
0.187190
0.115306
-3.498910
-3.100125
2.796229
2.615010
2.808137
2.609208
-1.240828
-1.372020
2.430384
0.022258
-0.011418
0.020308
0.020988
4.540675
5.106044
5.426618
4.551807
1.709973
2.005793
0.217798
0.239311
-2.412246
-2.444034
2.487881
2.200867
2.007069
1.552266
1.439048
2.150407
0.401274
1.024609
0.855017
0.782501
1.005150
0.342169
0.340096
1.295229
-1.181037
-1.790276
-2.734102
1.080005
1.312712
0.940295
0.237712
0.276184
0.119195
1.115146
0.970901
1.171149
0.457934
-1.403115
-0.429918
-0.357692
2.733819
0.303072
0.162811
-0.275839
-0.255795
-0.370564
0.136744
0.207463
-3.588369
0.312361
0.451443
0.346855
1.045699
1.165892
0.452397
-3.943875
-0.888307
1.196298
-1.016538
-1.130065
-0.786785
0.377386
0.059873
0.111115
0.030181
-0.246832
-0.156591
0.319034
0.405106
-0.409654
-0.019907
-0.095475
4.147734
3.857869
0.610505
-0.274938
-0.543569
-0.018371
2.727304
2.597843
0.776993
0.636189
-1.865563
-1.787904
0.817067
0.729652
1.014924
-2.853082
2.387922
-0.326375
-0.231978
-0.503696
-1.305800
-1.517056
-0.027081
3.731194
3.193325
-0.026831
0.279045
0.049079
-0.014540
4.166483
1.694366
4.120736
1.728279
1.296983
1.606490
1.278870
-3.062640
-3.138545
-2.966976
-1.959438
-2.111751
1.648639
1.526292
0.398720
0.269550
-3.987752
-4.397965
1.716223
-2.149267
-2.577678
1.636104
0.023299
0.047470
0.462559
0.554011
2.460574
2.372206
2.285404
2.489036
0.648050
-2.438247
-2.550539
-2.494668
3.026850
-1.395533
-2.115333
0.032470
-0.077837
-0.106604
-0.015661
-4.564809
-4.719609
-5.328902
-4.836879
0.013828
0.469703
0.385831
-0.015034
-2.067097
-1.872906
-2.413725
-2.536347
0.841414
0.990435
-0.657666
-0.574734
-0.722593
-0.653580
0.282454
0.234293
0.225775
-0.516890
0.242052
-2.612714
-2.750037
0.984345
0.619637
0.748897
-0.819893
-0.767807
0.539916
-0.654505
2.923929
2.799258
3.284968
0.081678
0.122401
3.068051
2.944519
2.722887
1.125736
1.071124
-2.761003
-3.054398
0.903409
1.262824
1.075512
0.660082
0.743744
1.403043
0.210526
0.148047
2.299752
0.202347
0.048167
-0.300348
-0.228102
0.958999
0.968239
1.038123
-1.050853
0.211073
0.186191
-2.427955
0.085203
0.481785
0.353344
0.408583
1.509708
1.505540
1.374554
-0.183640
2.398837
-0.103640
-0.184381
0.233562
0.244334
0.635902
-0.690188
-0.757377
-0.680634
-1.912806
-1.724316
1.989826
1.871243
-0.524951
-0.303835
-0.329164
-1.183485
0.177293
1.433450
2.560612
-0.179570
1.291972
1.533017
-0.401516
1.330759
1.327359
-2.705071
-2.698214
-0.195290
-3.848940
2.892272
-0.907642
0.527547
0.970151
0.778972
0.137591
2.344116
1.141291
2.793102
-0.761729
-0.141771
-0.422694
0.068709
-2.394247
-1.240810
-0.486039
0.855100
0.759525
1.294850
1.243434
0.920425
0.828214
0.885877
-0.832942
-0.940811
-0.891401
-0.549925
-0.485099
-1.034920
-1.110123
-0.815097
0.591649
-0.992117
-0.662185
-0.425079
-0.596127
-0.445935
1.047636
-2.161543
-2.215207
-0.770542
-1.700921
-1.579041
0.035448
1.406675
1.434389
1.413719
1.306433
-0.393277
-0.246127
-0.485059
0.571619
-1.029383
1.423222
0.902216
0.880293
1.306385
0.238363
-1.843847
1.843138
1.979354
1.875293
0.595123
1.932020
-0.829968
0.569847
-0.086389
2.602486
2.654807
1.198146
-0.176483
1.115245
1.123241
0.057225
-3.454822
-3.047648
1.623247
0.681279
2.072634
0.004754
-1.998671
-0.812454
-1.923489
-1.706194
0.238379
-2.855846
2.094778
2.064079
1.103493
2.182959
0.330228
0.454737
0.375063
1.563030
1.705965
0.300976
0.261260
2.209656
2.724900
-0.103537
0.181063
2.094894
0.517397
2.187888
1.681775
1.612347
1.785458
0.280071
-0.285015
-0.290587
-0.297249
0.471138
1.649161
1.857897
0.006248
-2.251646
-0.025180
-1.329914
-1.336804
-1.415118
-1.510670
-1.199344
-0.915388
2.045566
1.936962
3.079762
-1.296642
1.389545
0.235620
0.008656
0.132275
2.913392
0.205157
0.055287
0.047682
-0.093313
-0.219743
0.447240
0.644746
0.133990
-2.867230
0.319427
-0.354312
-0.214483
5.569611
0.749747
0.552582
-3.922709
-3.256804
1.758324
1.718823
1.955011
0.254592
0.385806
-2.029487
-0.111302
0.335088
-1.473654
-0.122918
3.122009
1.086672
-0.144147
0.080938
-0.011187
0.389507
-0.755882
-0.714571
-0.513567
0.569116
0.711218
-1.508018
-0.751062
2.859895
2.759287
2.910050
-0.506677
-0.539587
2.747521
-1.806457
-1.468502
1.425916
-2.621844
-1.016189
2.228043
2.451527
-1.223808
2.250384
2.436369
2.020028
-0.215946
0.089020
0.178678
-0.497007
0.788504
-2.375045
2.026850
2.008636
0.796691
-1.080576
1.507396
1.211486
1.078938
-1.469736
-1.370006
1.711821
1.818415
0.686817
-0.744991
2.314958
-1.517622
1.172746
-1.925880
-1.754020
-1.686684
-1.794451
-1.568689
-1.263220
-1.330292
1.380577
-0.604140
0.435911
-0.547903
0.912337
0.773513
-0.216289
-0.334907
2.419651
1.872544
1.682773
-1.956769
-1.594836
-0.404443
-1.473049
-1.087997
1.325744
1.466009
-0.351005
-1.744408
-0.295871
1.757284
1.827173
-1.405876
-1.255664
SCALARS UY float 1
LOOKUP_TABLE default
0.000001
0.000001
22.100000
22.100000
3.001671
19.037375
0.000000
0.000000
0.000000
0.000000
0.000000
0.000000
0.000000
0.000000
0.000000
0.960082
1.929405
3.141527
5.014013
7.542590
10.417773
13.444164
16.861243
19.752958
22.100000
22.100000
22.100000
22.100000
22.100000
22.100000
22.100000
22.100000
22.100000
21.147647
20.112778
18.718577
16.757611
14.177625
11.183607
8.239841
4.952799
2.136422
4.235794
3.935968
4.454535
4.156082
4.642442
5.478544
5.421846
5.142968
5.318139
6.171884
7.319150
6.047264
6.971131
7.641044
9.790807
7.243301
8.939155
9.416192
8.521414
8.235335
10.105717
10.438770
9.744113
9.924244
10.466535
11.319213
8.625584
10.740878
12.258464
11.844798
11.947415
11.043152
11.732805
13.088985
12.823852
13.480603
14.308786
10.538316
16.174955
15.298814
16.330986
15.404449
14.918571
16.526365
16.593608
16.771323
17.328326
17.792735
17.663328
18.186629
18.889583
18.419974
18.400262
20.654254
20.814538
21.096562
21.199637
1.510855
1.854017
1.245857
1.384201
1.319114
0.988205
21.763891
21.904969
21.647881
0.898565
1.282042
1.182438
1.162687
21.770549
1.062719
15.695669
15.856031
14.036023
14.997391
11.967633
16.336029
0.331615
0.401475
0.363710
21.312841
21.518922
21.362499
0.178027
0.298633
0.416372
21.515712
0.860479
0.917279
1.020807
0.755122
1.120724
1.239316
0.804715
0.806370
0.627239
1.230851
1.096775
0.663690
20.587670
20.674067
20.364836
17.339299
17.618197
18.727096
6.014881
6.150030
4.303444
17.648929
18.276272
16.995501
1.542798
1.885933
2.742967
2.879368
3.072918
3.938445
21.705014
21.729549
21.636283
1.312773
0.433104
0.376789
20.300589
1.131630
1.086106
4.897225
4.166927
0.892423
21.406784
21.351089
21.275896
21.471113
4.983176
6.345958
19.867663
19.597438
19.266149
2.945834
3.548548
3.537953
18.471068
21.038138
21.174819
21.299460
4.815634
1.400785
1.648220
1.290195
16.103549
17.073141
16.905259
16.874927
15.608198
2.608707
2.758634
3.088717
3.960251
4.041216
1.479813
20.363876
21.158566
20.851642
3.761764
1.791544
17.000281
17.162488
17.850188
11.150041
9.095219
19.461422
20.857077
21.161353
18.433201
17.609609
18.491500
20.395195
20.130674
20.759617
20.837351
2.219798
3.513998
3.276570
1.549390
1.267767
0.907405
6.029189
8.251998
19.344423
19.939915
19.668177
19.975402
3.962906
20.633445
20.874448
20.783228
16.083424
15.809638
17.810254
14.449378
12.528138
14.342305
21.217621
21.431832
21.384300
21.485218
0.792046
0.658240
0.704359
0.607756
21.323781
21.454020
5.187680
4.536006
4.325997
0.763618
0.648196
4.917161
7.013956
7.875351
0.514885
0.643062
0.713828
13.314881
15.708157
11.788839
13.919995
20.846314
19.875701
19.630845
1.922453
1.879339
2.108864
12.534692
9.790170
17.339837
5.700788
5.032172
0.964231
0.858959
1.043512
1.790328
1.745974
2.105067
2.084380
2.959595
2.321661
2.372448
17.519383
20.411514
20.356975
19.616867
20.739315
10.302771
12.008077
12.356185
3.300836
3.200895
2.800233
0.700121
0.551073
16.227099
15.345402
1.420246
1.495390
1.637400
0.554461
0.581292
1.137624
1.943956
1.521425
17.575084
0.891777
0.954466
1.006885
21.742908
21.714451
21.529327
0.619690
5.063581
0.525157
0.366830
0.355170
0.564328
0.548094
0.620328
0.078198
0.095669
0.142043
0.294535
0.260228
20.182332
19.951109
19.768529
0.373033
0.267641
0.528649
1.057919
1.280608
1.277731
1.581010
21.319865
21.274695
21.212594
21.828654
21.793512
21.386422
3.093564
2.411819
2.453708
21.543596
21.563122
21.480746
21.773261
21.680031
10.830440
14.117427
17.950307
18.640188
17.771343
18.307436
1.477029
1.737305
18.985997
0.197105
0.171002
0.193778
0.212207
8.762148
9.461804
12.636028
11.116056
19.471523
19.185872
22.009853
21.904581
3.711582
4.016404
18.419349
18.997438
18.605024
19.497178
19.358825
18.162442
0.828362
20.710417
21.000183
20.960850
20.896009
20.351518
20.136343
19.745878
2.715711
3.718864
5.657316
20.252300
20.035375
20.285515
0.639243
0.888676
0.481095
20.995681
21.062738
20.810391
1.151600
2.948707
0.984688
1.161845
18.496804
0.945436
0.814683
0.485699
0.484201
0.551643
21.651351
21.836284
8.370035
21.734514
21.521980
21.724125
21.284522
21.198101
21.602312
9.046074
2.100582
21.110550
1.953008
1.956595
1.502816
21.569005
0.312046
0.612093
0.336105
0.481376
0.602426
21.705494
21.431350
1.316047
0.337930
0.584109
6.897785
6.749301
1.283592
20.928046
20.186031
21.279445
18.636605
19.037961
21.457527
21.535722
2.454509
2.595618
20.596041
20.883112
20.538342
5.111392
19.355749
21.092429
21.210484
20.669974
1.854593
2.280912
0.291127
10.514343
8.090161
0.095491
1.102642
0.476981
0.363859
10.359689
20.349741
13.135391
20.519475
20.234322
19.892066
20.496953
8.730398
7.453060
11.874012
3.392995
2.902423
20.770079
20.892854
21.355187
21.361544
7.977390
10.624286
20.654126
3.378241
4.521398
20.152690
0.239852
0.252224
21.340255
21.278048
19.451070
19.673240
19.747484
19.365078
21.240775
3.257082
3.723470
3.657996
16.974970
4.839434
2.442023
20.641871
20.656756
0.706909
0.656722
12.760298
9.727431
11.692876
8.516462
0.174221
0.997137
0.797571
21.550357
2.344452
2.066721
16.011342
16.312829
21.403956
21.174835
0.763021
0.691120
0.913745
0.715133
21.979639
21.932735
21.820556
0.634303
22.018731
7.867225
8.916519
1.682116
1.096664
1.257447
0.847849
0.796717
0.968023
0.736503
13.283600
14.180336
12.146909
20.665824
21.099346
16.408268
17.251116
9.933393
21.139211
21.121208
5.280169
6.115338
21.204641
21.074564
21.229537
20.682560
18.148341
19.931042
21.153706
21.379762
19.005852
2.513638
1.653165
20.701687
21.114479
20.539535
20.944615
20.896433
2.393028
21.869162
21.817907
12.487264
1.029558
21.459789
21.495096
21.550745
20.660668
20.509444
20.558164
0.428322
19.108761
21.074719
20.460020
21.873322
21.917590
1.225184
1.118799
1.168785
1.472187
4.600742
4.685185
19.599011
19.607950
1.055941
0.749967
0.895210
1.595343
20.572863
20.879758
18.742962
0.732838
20.949565
20.777063
0.610022
20.752175
20.954434
6.978440
6.602166
0.501701
6.971001
15.029666
0.952977
21.598074
2.334813
1.966841
0.782818
4.425420
2.746393
18.203423
19.704724
20.855081
20.295977
21.286350
17.224616
1.956148
1.249363
19.380636
19.623140
20.831987
20.485674
21.354941
1.889096
1.792174
1.143797
1.207352
1.505708
2.454191
2.298029
1.213307
1.161336
1.089412
21.418365
0.989728
1.804810
0.703091
0.878787
0.827996
20.448582
3.441855
2.848648
1.614035
1.735109
1.557414
21.138231
20.983551
20.975874
2.987573
21.089554
1.106968
0.919410
1.381221
21.085303
1.041039
3.046001
19.333041
18.791061
21.059859
21.799335
15.914350
20.491302
20.347332
20.508540
20.956863
20.295908
2.544256
21.297188
0.480232
19.103084
18.398622
20.868589
0.485713
20.767047
20.342727
0.777157
6.915382
5.534213
3.269645
1.764979
3.891963
0.524945
2.416037
19.693375
17.942747
18.216944
21.508989
5.302401
20.055669
20.185243
21.049642
18.088651
21.685953
21.638935
21.625513
20.819593
20.674977
21.588339
21.661960
16.100919
17.679011
1.854525
21.621467
20.180529
21.560866
19.480798
18.819465
18.894800
20.052031
21.830014
0.551949
0.555621
0.638774
21.650774
20.057507
19.955284
0.300189
7.048802
0.368641
2.969057
3.098560
1.794343
2.035441
3.163891
19.908619
20.239657
20.309056
15.112796
1.290795
21.002422
21.726418
0.208603
21.520893
15.863908
21.654882
0.287297
0.383356
0.485643
0.683198
21.544108
21.334174
0.450404
6.688298
1.174549
1.112433
0.881680
9.622737
20.752500
21.090036
14.941777
15.712440
18.387386
18.732563
19.763218
21.808331
1.175923
2.884861
0.417854
21.731393
2.456530
20.928911
5.573896
19.991690
21.336616
0.480760
0.425259
20.272386
19.964324
1.632333
0.665343
21.515997
21.368007
18.411979
2.634788
15.075220
15.410114
16.401249
20.363649
1.220294
14.346054
3.836045
18.534621
20.934180
7.580397
1.360282
4.448077
5.010416
1.317295
7.669789
5.836577
17.445824
1.909123
1.495868
1.640990
2.141095
19.827392
3.187909
20.016421
19.431054
21.184577
1.173497
3.025638
19.304033
19.329502
1.427029
1.323149
20.436909
20.378360
1.673314
0.821631
17.086272
18.403304
21.183037
4.928950
2.457771
1.943835
1.986933
4.267424
3.557536
1.379996
18.284405
3.170613
19.882373
4.061132
1.681089
17.810439
2.094983
2.715274
12.788210
17.839978
17.548402
5.820325
1.681771
2.019996
1.535214
2.721717
19.114528
19.498272
19.580807
3.559427
2.153991
20.647805
20.516885
1.463028
2.255646
SCALARS DAMAGE float 1
LOOKUP_TABLE default
0.108107
0.220926
0.096094
0.214097
0.000000
0.000000
0.156519
0.258967
0.388655
0.489689
0.532999
0.514128
0.440216
0.347816
0.264769
0.214539
0.185738
0.141567
0.099908
0.071849
0.060929
0.057234
0.068609
0.088028
0.136891
0.234063
0.369009
0.476109
0.519940
0.497366
0.424616
0.329404
0.250736
0.205348
0.175175
0.133049
0.095579
0.068723
0.060402
0.059542
0.073141
0.092954
-0.000000
0.000000
0.000000
0.000000
0.000000
0.000000
0.000000
0.000000
0.000000
0.000000
0.000000
0.000000
0.000000
0.000000
0.000000
0.000000
0.000000
0.000000
0.000000
0.000000
0.000000
0.000000
0.000000
0.000000
0.000000
0.000000
0.000000
0.000000
0.000000
0.000000
0.000000
0.000000
0.000000
0.000000
0.000000
0.000000
0.000000
0.000000
0.000000
0.000000
0.000000
0.000000
0.000000
0.000000
0.000000
0.000000
0.000000
0.000000
0.000000
0.000000
0.000000
0.000000
-0.000000
0.059531
0.067845
0.100269
0.110944
0.038520
0.026411
0.062695
0.061107
0.061560
0.099420
0.456268
0.472621
0.420331
0.107963
0.152456
0.153646
0.181770
0.411163
0.179341
0.015954
0.016976
0.043859
0.056687
0.039692
0.067198
0.409260
0.370356
0.355655
0.148647
0.207136
0.149478
0.472740
0.425545
0.439618
0.194812
0.263153
0.287383
0.251639
0.305498
0.148378
0.129405
0.119069
0.116665
0.171830
0.119385
0.136481
0.155287
0.079470
0.092072
0.067166
0.020579
0.021212
0.038789
0.015501
0.014525
0.033587
0.089979
0.112585
0.076804
0.067731
0.054097
0.031163
0.152125
0.147823
0.107035
0.372975
0.410012
0.382732
0.088749
0.395049
0.439409
0.063432
0.072225
0.075793
0.029289
0.048406
0.099651
0.293810
0.317050
0.278410
0.331166
0.036873
0.017031
0.062815
0.054188
0.041078
0.064009
0.043137
0.036722
0.026554
0.078496
0.097681
0.119878
0.022748
0.095460
0.069467
0.102589
0.043166
0.045884
0.058660
0.080532
0.068780
0.078771
0.093717
0.147717
0.113647
0.109110
0.077544
0.039578
0.092837
0.063775
0.044216
0.063997
0.031728
0.029649
0.048107
0.008112
0.011976
0.089700
0.107173
0.152529
0.122259
0.095525
0.124723
0.043508
0.041519
0.097834
0.079803
0.052507
0.024737
0.025956
0.042913
0.061281
0.095899
0.026366
0.011480
0.046429
0.077919
0.071738
0.103451
0.109922
0.094456
0.128230
0.123857
0.016410
0.015131
0.032474
0.043061
0.032890
0.040164
0.107175
0.163784
0.155962
0.196079
0.128150
0.166547
0.157992
0.196241
0.150059
0.196705
0.057358
0.055953
0.073962
0.149482
0.192165
0.048953
0.032426
0.032743
0.243220
0.191627
0.190189
0.033302
0.037075
0.029176
0.029789
0.066305
0.032355
0.025426
0.092994
0.120651
0.094571
0.011405
0.018656
0.093496
0.076193
0.092149
0.127539
0.169760
0.124550
0.151106
0.182678
0.155727
0.182110
0.039344
0.058576
0.063324
0.091091
0.062442
0.062925
0.036742
0.088974
0.012685
0.011443
0.020229
0.110133
0.096472
0.119193
0.160927
0.215000
0.060982
0.052216
0.148280
0.177442
0.131601
0.203559
0.187931
0.067923
0.027445
0.039356
0.032615
0.188765
0.203225
0.167160
0.342801
0.311463
0.267372
0.177443
0.019810
0.264891
0.315643
0.343331
0.233406
0.274126
0.229894
0.502271
0.524993
0.489572
0.448461
0.478388
0.165423
0.173372
0.142029
0.460329
0.428176
0.418996
0.313956
0.294038
0.280789
0.254802
0.170792
0.180203
0.145788
0.442061
0.399851
0.220147
0.147658
0.188591
0.187706
0.238490
0.280889
0.235124
0.339855
0.281482
0.029279
0.029049
0.069160
0.094198
0.080057
0.102340
0.218218
0.205184
0.117453
0.499981
0.444782
0.455086
0.432631
0.035370
0.042735
0.053083
0.032460
0.176383
0.156475
0.509454
0.490091
0.090336
0.091495
0.113691
0.141620
0.128368
0.175826
0.154948
0.115740
0.204375
0.286124
0.319124
0.321110
0.296366
0.036277
0.034703
0.184470
0.159085
0.120973
0.042276
0.233850