# vtk DataFile Version 2.0
Test
ASCII
DATASET POLYDATA
POINTS 858 float
0.000000 0.000000 0.000000
1.000000 0.000000 0.000000
1.000000 1.000000 0.000000
0.000000 1.000000 0.000000
0.300000 0.330000 0.000000
0.700000 0.680000 0.000000
0.100000 0.000000 0.000000
0.200000 0.000000 0.000000
0.300000 0.000000 0.000000
0.400000 0.000000 0.000000
0.500000 0.000000 0.000000
0.600000 0.000000 0.000000
0.700000 0.000000 0.000000
0.800000 0.000000 0.000000
0.900000 0.000000 0.000000
1.000000 0.100000 0.000000
1.000000 0.200000 0.000000
1.000000 0.300000 0.000000
1.000000 0.400000 0.000000
1.000000 0.500000 0.000000
1.000000 0.600000 0.000000
1.000000 0.700000 0.000000
1.000000 0.800000 0.000000
1.000000 0.900000 0.000000
0.900000 1.000000 0.000000
0.800000 1.000000 0.000000
0.700000 1.000000 0.000000
0.600000 1.000000 0.000000
0.500000 1.000000 0.000000
0.400000 1.000000 0.000000
0.300000 1.000000 0.000000
0.200000 1.000000 0.000000
0.100000 1.000000 0.000000
0.000000 0.900000 0.000000
0.000000 0.800000 0.000000
0.000000 0.700000 0.000000
0.000000 0.600000 0.000000
0.000000 0.500000 0.000000
0.000000 0.400000 0.000000
0.000000 0.300000 0.000000
0.000000 0.200000 0.000000
0.000000 0.100000 0.000000
0.307407 0.336481 0.000000
0.314815 0.342963 0.000000
0.322222 0.349444 0.000000
0.329630 0.355926 0.000000
0.337037 0.362407 0.000000
0.344444 0.368889 0.000000
0.351852 0.375370 0.000000
0.359259 0.381852 0.000000
0.366667 0.388333 0.000000
0.374074 0.394815 0.000000
0.381481 0.401296 0.000000
0.388889 0.407778 0.000000
0.396296 0.414259 0.000000
0.403704 0.420741 0.000000
0.411111 0.427222 0.000000
0.418519 0.433704 0.000000
0.425926 0.440185 0.000000
0.433333 0.446667 0.000000
0.440741 0.453148 0.000000
0.448148 0.459630 0.000000
0.455556 0.466111 0.000000
0.462963 0.472593 0.000000
0.470370 0.479074 0.000000
0.477778 0.485556 0.000000
0.485185 0.492037 0.000000
0.492593 0.498519 0.000000
0.500000 0.505000 0.000000
0.507407 0.511481 0.000000
0.514815 0.517963 0.000000
0.522222 0.524444 0.000000
0.529630 0.530926 0.000000
0.537037 0.537407 0.000000
0.544444 0.543889 0.000000
0.551852 0.550370 0.000000
0.559259 0.556852 0.000000
0.566667 0.563333 0.000000
0.574074 0.569815 0.000000
0.581481 0.576296 0.000000
0.588889 0.582778 0.000000
0.596296 0.589259 0.000000
0.603704 0.595741 0.000000
0.611111 0.602222 0.000000
0.618519 0.608704 0.000000
0.625926 0.615185 0.000000
0.633333 0.621667 0.000000
0.640741 0.628148 0.000000
0.648148 0.634630 0.000000
0.655556 0.641111 0.000000
0.662963 0.647593 0.000000
0.670370 0.654074 0.000000
0.677778 0.660556 0.000000
0.685185 0.667037 0.000000
0.692593 0.673519 0.000000
0.548037 0.570873 0.000000
0.554453 0.579695 0.000000
0.540788 0.582045 0.000000
0.550492 0.594703 0.000000
0.338797 0.350505 0.000000
0.329823 0.347064 0.000000
0.335712 0.339262 0.000000
0.451687 0.438509 0.000000
0.442642 0.430741 0.000000
0.457884 0.427703 0.000000
0.387297 0.847474 0.000000
0.374793 0.914734 0.000000
0.332869 0.847471 0.000000
0.447069 0.415163 0.000000
0.567391 0.482596 0.000000
0.554659 0.473874 0.000000
0.567453 0.464800 0.000000
0.301190 0.902112 0.000000
0.551747 0.457138 0.000000
0.356532 0.391813 0.000000
0.347986 0.386048 0.000000
0.176207 0.429241 0.000000
0.128375 0.468105 0.000000
0.136378 0.404291 0.000000
0.185621 0.475277 0.000000
0.497512 0.261165 0.000000
0.499167 0.296032 0.000000
0.469918 0.291504 0.000000
0.642232 0.687989 0.000000
0.624295 0.701188 0.000000
0.630549 0.678643 0.000000
0.647682 0.074905 0.000000
0.700945 0.096046 0.000000
0.657288 0.160421 0.000000
0.611443 0.684403 0.000000
0.559779 0.406431 0.000000
0.582162 0.394521 0.000000
0.580552 0.422827 0.000000
0.560788 0.374759 0.000000
0.541503 0.468043 0.000000
0.545465 0.480978 0.000000
0.428301 0.394826 0.000000
0.414860 0.384611 0.000000
0.432086 0.374027 0.000000
0.533961 0.477886 0.000000
0.527361 0.464336 0.000000
0.415481 0.368142 0.000000
0.484401 0.527206 0.000000
0.472984 0.524144 0.000000
0.481205 0.518972 0.000000
0.394266 0.424909 0.000000
0.401826 0.431399 0.000000
0.392742 0.434502 0.000000
0.642418 0.617836 0.000000
0.635302 0.612878 0.000000
0.644322 0.605726 0.000000
0.263646 0.464175 0.000000
0.250486 0.498376 0.000000
0.230296 0.467342 0.000000
0.491693 0.468898 0.000000
0.498004 0.479972 0.000000
0.487381 0.480785 0.000000
0.718619 0.489140 0.000000
0.756680 0.466072 0.000000
0.751564 0.516847 0.000000
0.497232 0.719177 0.000000
0.477497 0.748035 0.000000
0.465924 0.716726 0.000000
0.501292 0.467390 0.000000
0.529064 0.285755 0.000000
0.547173 0.240449 0.000000
0.474742 0.511943 0.000000
0.403118 0.392815 0.000000
0.412434 0.399392 0.000000
0.653057 0.614785 0.000000
0.659187 0.602396 0.000000
0.400247 0.379451 0.000000
0.459133 0.636583 0.000000
0.434636 0.647284 0.000000
0.440667 0.616932 0.000000
0.453650 0.664799 0.000000
0.666296 0.616100 0.000000
0.657731 0.628197 0.000000
0.420489 0.468863 0.000000
0.414183 0.459489 0.000000
0.424065 0.460120 0.000000
0.629321 0.574616 0.000000
0.630370 0.589442 0.000000
0.617226 0.584388 0.000000
0.422026 0.450877 0.000000
0.590180 0.614274 0.000000
0.596278 0.627413 0.000000
0.585881 0.628067 0.000000
0.630677 0.603443 0.000000
0.529117 0.486095 0.000000
0.517046 0.488781 0.000000
0.522040 0.477224 0.000000
0.308641 0.392803 0.000000
0.323746 0.398675 0.000000
0.304273 0.411173 0.000000
0.146020 0.514086 0.000000
0.087335 0.505198 0.000000
0.624982 0.561914 0.000000
0.643811 0.559907 0.000000
0.831909 0.406061 0.000000
0.881376 0.423788 0.000000
0.839177 0.457573 0.000000
0.509066 0.478681 0.000000
0.614792 0.620247 0.000000
0.608406 0.635616 0.000000
0.603251 0.619643 0.000000
0.640290 0.595050 0.000000
0.524731 0.497540 0.000000
0.338689 0.392113 0.000000
0.347423 0.395876 0.000000
0.340116 0.407012 0.000000
0.686563 0.659098 0.000000
0.682555 0.651347 0.000000
0.934704 0.856355 0.000000
0.940546 0.930926 0.000000
0.863552 0.916423 0.000000
0.172107 0.566287 0.000000
0.188105 0.516551 0.000000
0.221330 0.532895 0.000000
0.683914 0.680068 0.000000
0.692945 0.685712 0.000000
0.683376 0.697853 0.000000
0.672414 0.683990 0.000000
0.557147 0.529227 0.000000
0.554161 0.540325 0.000000
0.546244 0.533101 0.000000
0.391911 0.394487 0.000000
0.387591 0.383772 0.000000
0.385780 0.368800 0.000000
0.671617 0.628861 0.000000
0.664093 0.637808 0.000000
0.408700 0.450928 0.000000
0.406517 0.467364 0.000000
0.394366 0.455525 0.000000
0.388841 0.472148 0.000000
0.792728 0.486062 0.000000
0.461047 0.516036 0.000000
0.460182 0.532753 0.000000
0.450617 0.523703 0.000000
0.364207 0.398120 0.000000
0.371344 0.402923 0.000000
0.362621 0.408449 0.000000
0.235276 0.413110 0.000000
0.235915 0.390376 0.000000
0.260894 0.399649 0.000000
0.564107 0.604249 0.000000
0.558497 0.625526 0.000000
0.545610 0.611482 0.000000
0.542035 0.628852 0.000000
0.441269 0.401429 0.000000
0.443649 0.385779 0.000000
0.454140 0.398188 0.000000
0.456246 0.380948 0.000000
0.531090 0.597071 0.000000
0.528592 0.618783 0.000000
0.693800 0.600685 0.000000
0.675646 0.601117 0.000000
0.688895 0.583493 0.000000
0.466943 0.412411 0.000000
0.469666 0.393398 0.000000
0.215629 0.311290 0.000000
0.236374 0.342186 0.000000
0.194357 0.347185 0.000000
0.372859 0.289727 0.000000
0.362694 0.307734 0.000000
0.346245 0.295576 0.000000
0.824768 0.656091 0.000000
0.787989 0.680173 0.000000
0.787481 0.637866 0.000000
0.763354 0.658567 0.000000
0.564845 0.587843 0.000000
0.565674 0.575091 0.000000
0.575285 0.580662 0.000000
0.591463 0.532694 0.000000
0.606735 0.524365 0.000000
0.606700 0.541268 0.000000
0.696107 0.663701 0.000000
0.695223 0.651919 0.000000
0.114270 0.553146 0.000000
0.897846 0.490106 0.000000
0.941355 0.438159 0.000000
0.491870 0.442127 0.000000
0.508682 0.433741 0.000000
0.504276 0.453072 0.000000
0.616608 0.507977 0.000000
0.629719 0.487283 0.000000
0.643435 0.510566 0.000000
0.660659 0.486926 0.000000
0.584650 0.557787 0.000000
0.582076 0.545531 0.000000
0.595086 0.552412 0.000000
0.215445 0.494211 0.000000
0.502563 0.534321 0.000000
0.493623 0.527201 0.000000
0.502900 0.523550 0.000000
0.490744 0.536689 0.000000
0.303740 0.348241 0.000000
0.312638 0.354325 0.000000
0.302746 0.359450 0.000000
0.683727 0.548378 0.000000
0.666144 0.562133 0.000000
0.663581 0.542222 0.000000
0.366098 0.324774 0.000000
0.379406 0.309842 0.000000
0.251675 0.434611 0.000000
0.214900 0.437402 0.000000
0.581091 0.493223 0.000000
0.603283 0.484739 0.000000
0.593195 0.510449 0.000000
0.429738 0.356510 0.000000
0.412970 0.350726 0.000000
0.358920 0.356811 0.000000
0.352460 0.366146 0.000000
0.347463 0.357590 0.000000
0.353794 0.402394 0.000000
0.527483 0.436280 0.000000
0.546965 0.439869 0.000000
0.535210 0.453469 0.000000
0.624606 0.790385 0.000000
0.614250 0.755688 0.000000
0.654837 0.763041 0.000000
0.384960 0.332814 0.000000
0.619946 0.597007 0.000000
0.358705 0.265521 0.000000
0.397502 0.266486 0.000000
0.377869 0.228897 0.000000
0.471169 0.372235 0.000000
0.492664 0.362648 0.000000
0.488718 0.386734 0.000000
0.431288 0.062893 0.000000
0.512348 0.074893 0.000000
0.450325 0.128772 0.000000
0.515327 0.223180 0.000000
0.538419 0.183215 0.000000
0.367912 0.509419 0.000000
0.343175 0.515399 0.000000
0.351317 0.488263 0.000000
0.593186 0.193353 0.000000
0.476496 0.230456 0.000000
0.594140 0.256114 0.000000
0.629340 0.367381 0.000000
0.659922 0.374166 0.000000
0.641019 0.397588 0.000000
0.669525 0.412603 0.000000
0.510665 0.591750 0.000000
0.493263 0.584115 0.000000
0.507476 0.576852 0.000000
0.492575 0.790205 0.000000
0.516533 0.753914 0.000000
0.493265 0.606545 0.000000
0.794852 0.435952 0.000000
0.797754 0.379724 0.000000
0.755728 0.420083 0.000000
0.528549 0.642034 0.000000
0.507334 0.653897 0.000000
0.509532 0.626562 0.000000
0.580705 0.748031 0.000000
0.605192 0.727758 0.000000
0.748472 0.635779 0.000000
0.742539 0.660255 0.000000
0.323194 0.421808 0.000000
0.325468 0.445306 0.000000
0.301700 0.435431 0.000000
0.295276 0.460827 0.000000
0.622421 0.457821 0.000000
0.642814 0.468538 0.000000
0.320303 0.468200 0.000000
[...]
POINT_DATA 858
SCALARS UX float 1
LOOKUP_TABLE default
-0.000000
0.000000
0.036977
-0.049906
-0.024647
0.022239
0.000000
-0.000000
-0.000000
-0.000000
-0.000000
0.000000
0.000000
0.000000
-0.000000
0.020927
0.033309
0.041640
0.047987
0.052027
0.052317
0.048506
0.042645
0.038362
0.027702
0.018590
0.010132
0.002541
-0.005431
-0.013966
-0.022849
-0.031979
-0.040986
-0.050564
-0.052176
-0.054689
-0.057148
-0.058134
-0.055287
-0.047592
-0.035805
-0.022125
-0.023602
-0.022261
-0.020990
-0.021200
-0.019821
-0.018359
-0.018656
-0.017737
-0.016729
-0.015755
-0.016380
-0.015170
-0.014341
-0.013133
-0.012904
-0.011855
-0.011526
-0.010674
-0.009338
-0.009147
-0.007834
-0.007531
-0.006697
-0.005223
-0.004507
-0.004762
-0.003099
-0.002579
-0.001394
-0.000540
0.001015
0.000811
0.002311
0.003403
0.003497
0.004972
0.006332
0.006777
0.006616
0.007284
0.008821
0.009439
0.010161
0.011720
0.012529
0.013186
0.013587
0.015422
0.015909
0.016675
0.018753
0.018631
0.020747
-0.014799
-0.013963
-0.015344
-0.013634
-0.009577
-0.012941
-0.009842
0.008958
0.007620
0.009244
-0.016104
-0.016440
-0.021110
0.007581
0.019533
0.018271
0.018270
-0.023315
0.016908
-0.030107
-0.031548
-0.043393
-0.047643
-0.045175
-0.043384
0.001284
0.002728
0.000441
0.004325
0.003168
0.001772
0.002448
0.004922
0.006504
0.000107
0.013627
0.014213
0.016012
0.011518
0.017190
0.018279
0.004690
0.002871
0.003277
0.017455
0.016213
0.001639
-0.022855
-0.023845
-0.023300
-0.028082
-0.027833
-0.030663
0.026064
0.024316
0.028888
-0.037777
-0.038270
-0.040093
0.014015
0.014589
0.011137
0.029030
0.030956
0.032706
-0.009055
-0.009812
-0.012095
0.014882
0.004311
0.003735
-0.023847
0.001993
0.003260
0.029259
0.030031
0.001324
-0.016983
-0.018288
-0.019610
-0.015740
0.030495
0.028319
-0.029158
-0.029634
-0.028333
0.027688
0.027812
0.026437
-0.027628
-0.008336
-0.006902
-0.007916
0.026821
0.017590
0.016585
0.016715
-0.035364
-0.034802
-0.035650
-0.046358
-0.051099
0.027051
0.027827
0.034221
0.039437
0.037418
0.015869
-0.003515
-0.004991
-0.006101
0.028646
0.017417
-0.033762
-0.033111
-0.034134
0.026963
0.028785
0.033770
0.032045
0.025038
-0.043384
-0.042912
-0.039922
0.012493
0.016162
0.012755
0.009034
0.020930
0.018294
0.017562
0.000090
-0.000270
-0.000642
0.030568
0.026415
-0.030137
-0.030185
-0.031210
-0.030918
0.034767
-0.024950
-0.024117
-0.025137
-0.028945
-0.027051
-0.032429
-0.039353
-0.038625
-0.037783
-0.011702
-0.010406
-0.012579
-0.011334
0.006120
0.005025
0.006733
0.005420
-0.014910
-0.013183
0.031519
0.030727
0.030865
0.008747
0.007295
-0.031062
-0.034569
-0.037327
-0.007750
-0.008163
-0.010621
0.037062
0.032667
0.036126
0.033551
-0.012449
-0.010556
-0.007357
0.023973
0.024244
0.025275
0.028899
0.030825
-0.048514
0.043536
0.045149
0.012550
0.012867
0.014151
0.023696
0.023111
0.025224
0.024906
0.023429
0.023899
0.025144
-0.041012
-0.020783
-0.021830
-0.019957
-0.021916
-0.032077
-0.031459
-0.034111
0.029244
0.028950
0.027914
-0.006599
-0.006239
-0.038656
-0.041020
0.020956
0.021500
0.022689
0.001610
-0.000077
-0.004928
-0.008689
-0.007426
-0.032917
0.014071
0.015371
0.015806
0.005187
0.004044
0.008236
-0.003985
0.024685
-0.009105
-0.005859
-0.006897
0.005640
0.006284
0.007897
-0.001169
-0.000148
-0.001925
0.001415
0.001742
-0.030208
-0.031385
-0.031964
0.004678
-0.000726
0.007254
0.015727
0.018382
0.018394
0.021339
-0.016706
-0.018441
-0.018127
-0.007274
-0.005867
-0.016638
0.032661
0.029792
0.028543
-0.011207
-0.011971
-0.013902
0.000354
0.002380
0.034433
0.032690
-0.034835
-0.034436
-0.035731
-0.035781
0.020829
0.022732
-0.034230
0.001971
-0.003248
-0.002740
-0.004151
-0.040569
-0.044599
-0.051004
-0.041224
-0.037202
-0.036407
-0.009360
-0.010238
0.030001
0.030810
-0.036524
-0.035797
-0.046720
-0.040012
-0.047280
-0.051817
-0.012277
-0.027971
-0.024674
-0.026350
-0.025306
-0.004853
-0.003690
-0.041811
0.035246
0.041083
0.031433
-0.035803
-0.035078
-0.041614
-0.010317
-0.011779
-0.008266
-0.023679
-0.022964
-0.025816
-0.013945
0.034919
0.005997
0.004665
-0.034082
-0.006678
-0.004429
0.004696
0.005217
0.006865
0.007936
0.004446
0.035567
-0.013977
-0.017633
-0.011974
-0.019104
-0.020288
-0.014030
0.037274
0.029020
-0.020011
0.025301
0.024683
0.020926
-0.019193
-0.006044
-0.008801
-0.006016
0.003437
0.009187
-0.029440
-0.027573
0.005232
0.006232
0.010042
-0.040788
-0.038286
-0.015150
0.013024
0.018376
0.011691
-0.033368
-0.033510
-0.015405
-0.013695
0.026699
0.027338
-0.035621
-0.029593
-0.031065
0.038914
-0.033097
0.009247
0.010239
0.013997
0.023457
0.026076
-0.004426
-0.037046
-0.034962
-0.001519
-0.012415
-0.005545
-0.004678
-0.038508
-0.029264
-0.040517
-0.028229
-0.032196
-0.033190
-0.028997
0.033340
0.033864
0.032908
0.023773
0.025401
-0.025986
-0.024841
-0.006203
-0.003571
0.039295
0.039091
-0.026081
0.029961
0.032474
-0.030720
-0.002722
-0.004609
-0.024956
-0.023203
-0.032566
-0.031813
-0.031905
-0.031939
-0.022032
0.028707
0.029354
0.029756
-0.052646
0.017830
0.026158
0.001280
0.003054
0.000341
-0.001520
0.040331
0.042618
0.045782
0.047028
0.000053
-0.009707
-0.009057
0.006104
0.026433
0.025274
0.030703
0.030035
-0.015119
-0.016880
0.010082
0.008897
0.010795
0.010451
0.004708
0.001248
0.006676
0.008909
-0.002780
0.031675
0.032575
-0.017805
-0.014355
-0.014347
0.013576
0.012383
-0.011720
0.011399
-0.035306
-0.034031
-0.036351
-0.000133
-0.000832
-0.036881
-0.037148
-0.034830
-0.021826
-0.022048
0.032349
0.034235
-0.020860
-0.022812
-0.020366
-0.010283
-0.014027
-0.021855
-0.002681
-0.000954
-0.034737
-0.004824
-0.002766
0.006616
0.006416
-0.015626
-0.016172
-0.017314
0.014265
0.001400
0.001254
0.031290
-0.002975
-0.007866
-0.005134
-0.006377
-0.027081
-0.028255
-0.027983
0.002762
-0.030776
0.003450
0.006067
-0.002074
-0.004965
-0.011924
0.010106
0.011009
0.009601
0.022007
0.020740
-0.033171
-0.033821
0.015767
0.011292
0.013872
0.021506
-0.002200
-0.022884
-0.031639
0.011840
-0.024303
-0.026158
0.008492
-0.026254
-0.021530
0.031935
0.031265
0.006309
0.041725
-0.035158
0.015276
-0.012380
-0.022126
-0.019669
-0.009912
-0.033205
-0.024459
-0.033543
0.028656
0.022693
0.022872
0.016387
0.037980
0.024301
0.006474
-0.012789
-0.012038
-0.020798
-0.019728
-0.017930
-0.018180
-0.017870
0.012091
0.013566
0.012584
0.006968
0.006329
0.018244
0.018072
0.016410
-0.018035
0.014839
0.028440
0.010329
0.013361
0.012406
-0.016837
0.025152
0.026602
0.010805
0.022518
0.021678
0.000751
-0.022958
-0.023639
-0.023345
-0.022296
0.017207
0.015098
0.021622
-0.030201
0.016628
-0.023933
-0.014080
-0.013016
-0.021707
-0.002112
0.029177
-0.028404
-0.029197
-0.028015
-0.010031
-0.029614
0.010784
-0.009618
-0.000316
-0.032843
-0.032255
-0.019460
0.001685
-0.018253
-0.018026
-0.002590
0.036490
0.037172
-0.026003
-0.017663
-0.029948
-0.002239
0.026704
0.023256
0.032376
0.027979
-0.002532
0.034652
-0.030793
-0.030122
-0.018493
-0.027896
-0.004792
-0.008184
-0.005776
-0.025763
-0.027068
-0.003835
-0.002737
-0.027594
-0.031785
-0.000339
-0.000574
-0.029855
-0.008894
-0.033069
-0.023495
-0.022681
-0.025698
-0.009721
0.003691
0.007304
0.009119
-0.009833
-0.024178
-0.026379
-0.002288
0.025437
-0.001555
0.016997
0.015673
0.018808
0.019894
0.014658
0.017227
-0.029070
-0.027815
-0.036174
0.019687
-0.023626
-0.001754
-0.000898
0.011374
-0.034402
0.016828
-0.004352
-0.003718
0.009708
0.014535
-0.037549
-0.045393
-0.005737
0.032506
-0.012248
0.020224
0.015653
-0.048473
-0.043303
-0.035054
0.040563
0.035371
-0.023915
-0.023869
-0.027168
0.010716
-0.013795
0.028229
0.000483
-0.005743
0.027661
0.016204
-0.034099
-0.048302
0.006768
-0.004178
-0.002074
-0.006066
0.017910
0.023172
0.009760
-0.015219
-0.018247
0.023983
0.008891
-0.031882
-0.031449
-0.033775
0.010606
0.018145
-0.032184
0.020455
0.024009
-0.024550
0.029692
0.019405
-0.029086
-0.030697
0.019690
-0.032538
-0.032778
-0.025562
0.001209
-0.003494
-0.005724
0.006385
-0.012247
0.028768
-0.028318
-0.027519
-0.021638
0.015578
-0.023755
-0.018091
-0.016203
0.020533
0.019346
-0.025444
-0.026659
-0.013182
0.011383
-0.028580
0.025053
-0.021007
0.021996
0.021810
0.021925
0.023101
0.017143
0.015337
0.018453
-0.019336
0.005859
-0.005950
0.008503
-0.015930
-0.015182
0.001617
0.003110
-0.030137
-0.024952
-0.022249
0.021592
0.021340
0.004229
0.020082
0.014482
-0.020361
-0.021798
0.004905
0.019787
0.003812
-0.026891
-0.027190
0.019204
0.016882
SCALARS UY float 1
LOOKUP_TABLE default
-0.000000
-0.000000
-0.290000
-0.290000
-0.083379
-0.204225
-0.000000
-0.000000
-0.000000
-0.000000
-0.000000
-0.000000
-0.000000
-0.000000
-0.000000
-0.036375
-0.065822
-0.093694
-0.120340
-0.145855
-0.171063
-0.197354
-0.226457
-0.257833
-0.290000
-0.290000
-0.290000
-0.290000
-0.290000
-0.290000
-0.290000
-0.290000
-0.290000
-0.259918
-0.230244
-0.201312
-0.173647
-0.147710
-0.122758
-0.097480
-0.069418
-0.037937
-0.086680
-0.089809
-0.092815
-0.093769
-0.096583
-0.099465
-0.100423
-0.102840
-0.105360
-0.108044
-0.109494
-0.111461
-0.113394
-0.115844
-0.117521
-0.119609
-0.121420
-0.123613
-0.126363
-0.127532
-0.130092
-0.131488
-0.133652
-0.136684
-0.138704
-0.139658
-0.142290
-0.143997
-0.146560
-0.148532
-0.151240
-0.151690
-0.154480
-0.156830
-0.157905
-0.160809
-0.163622
-0.164764
-0.168071
-0.169780
-0.172313
-0.173535
-0.175377
-0.178475
-0.180644
-0.182936
-0.184330
-0.187626
-0.189254
-0.191694
-0.195309
-0.196448
-0.200546
-0.178291
-0.181211
-0.181646
-0.185432
-0.083601
-0.085099
-0.080049
-0.106303
-0.103687
-0.102977
-0.247933
-0.266435
-0.247183
-0.099262
-0.122668
-0.119541
-0.118114
-0.262350
-0.115105
-0.116216
-0.114800
-0.124190
-0.136455
-0.118146
-0.137436
-0.062141
-0.071214
-0.069126
-0.211618
-0.214677
-0.209012
-0.017904
-0.023938
-0.039859
-0.210041
-0.102578
-0.100636
-0.108069
-0.094330
-0.117191
-0.120728
-0.093576
-0.090676
-0.088521
-0.119225
-0.115390
-0.086640
-0.164598
-0.163392
-0.162037
-0.128773
-0.131082
-0.133450
-0.168798
-0.167239
-0.162696
-0.134444
-0.144444
-0.134887
-0.115327
-0.118923
-0.121307
-0.135134
-0.130170
-0.145127
-0.215356
-0.222535
-0.213645
-0.115048
-0.069522
-0.058217
-0.160019
-0.093095
-0.094653
-0.166328
-0.162801
-0.089302
-0.191764
-0.193597
-0.185694
-0.199095
-0.167611
-0.171822
-0.145390
-0.142339
-0.142386
-0.151971
-0.156435
-0.154585
-0.138657
-0.191211
-0.194863
-0.194966
-0.161719
-0.121160
-0.121371
-0.118393
-0.115222
-0.118489
-0.120460
-0.149240
-0.147689
-0.148135
-0.149325
-0.115205
-0.121992
-0.130486
-0.118336
-0.191522
-0.197355
-0.192119
-0.158886
-0.124336
-0.117583
-0.119166
-0.122417
-0.187674
-0.182971
-0.245982
-0.268686
-0.265431
-0.164136
-0.149561
-0.154393
-0.207621
-0.209579
-0.214203
-0.210264
-0.134962
-0.140464
-0.137660
-0.094295
-0.091111
-0.086500
-0.172324
-0.177754
-0.139400
-0.144265
-0.140143
-0.144338
-0.137460
-0.160734
-0.165026
-0.162134
-0.118667
-0.119504
-0.124283
-0.118552
-0.111629
-0.114523
-0.188506
-0.193521
-0.189495
-0.193624
-0.095603
-0.091799
-0.095261
-0.091124
-0.185140
-0.190472
-0.166293
-0.164290
-0.160669
-0.099336
-0.094755
-0.088176
-0.096997
-0.099861
-0.066535
-0.071003
-0.067943
-0.187712
-0.194998
-0.182491
-0.188729
-0.183791
-0.178053
-0.177896
-0.137633
-0.136629
-0.141152
-0.189874
-0.183739
-0.160749
-0.141227
-0.127993
-0.107903
-0.106675
-0.111346
-0.133098
-0.128581
-0.135980
-0.130780
-0.145431
-0.140709
-0.143506
-0.142903
-0.167024
-0.164713
-0.162899
-0.167535
-0.097927
-0.100974
-0.103086
-0.150008
-0.152179
-0.146414
-0.075332
-0.071652
-0.125187
-0.125954
-0.126415
-0.125898
-0.131831
-0.084215
-0.082389
-0.084071
-0.089898
-0.085842
-0.121819
-0.108378
-0.110436
-0.113139
-0.237143
-0.228387
-0.230469
-0.077479
-0.160292
-0.060630
-0.061065
-0.051809
-0.089591
-0.088096
-0.093967
-0.013706
-0.016787
-0.028721
-0.052891
-0.043348
-0.152848
-0.152996
-0.145967
-0.047188
-0.053791
-0.063815
-0.095591
-0.098913
-0.104564
-0.110295
-0.182777
-0.179934
-0.178853
-0.234377
-0.225300
-0.185598
-0.122703
-0.106239
-0.116504
-0.196310
-0.198408
-0.191495
-0.225618
-0.221019
-0.181625
-0.189634
-0.125224
-0.132096
-0.127563
-0.134673
-0.120091
-0.124406
-0.138321
-0.027775
-0.024094
-0.038745
-0.035424
-0.103318
-0.107011
-0.127043
-0.111403
-0.169276
-0.156768
-0.273135
-0.254805
-0.155435
-0.155412
-0.140266
-0.148791
-0.178122
-0.181285
-0.200138
-0.183679
-0.063091
-0.188547
-0.195085
-0.201866
-0.186632
-0.187285
-0.188250
-0.196114
-0.093923
-0.110415
-0.170261
-0.197099
-0.183659
-0.216527
-0.055266
-0.052066
-0.045646
-0.179902
-0.186633
-0.178661
-0.061681
-0.106158
-0.097631
-0.097504
-0.127828
-0.079514
-0.080412
-0.081728
-0.078418
-0.086003
-0.242514
-0.248411
-0.173170
-0.237834
-0.221165
-0.228880
-0.180674
-0.176310
-0.216666
-0.173083
-0.089546
-0.174560
-0.104338
-0.111778
-0.097985
-0.233363
-0.042462
-0.039830
-0.034297
-0.082609
-0.058741
-0.264731
-0.243346
-0.099903
-0.021824
-0.040860
-0.091530
-0.092880
-0.067275
-0.223658
-0.221336
-0.234844
-0.128555
-0.133002
-0.191434
-0.199029
-0.139568
-0.136828
-0.214020
-0.210249
-0.193409
-0.143748
-0.138982
-0.214467
-0.220375
-0.217278
-0.121472
-0.127723
-0.022842
-0.105052
-0.098873
-0.010954
-0.034687
-0.015126
-0.017622
-0.106873
-0.159663
-0.116354
-0.158449
-0.179560
-0.166822
-0.176177
-0.177867
-0.172575
-0.185375
-0.148462
-0.148082
-0.161124
-0.164930
-0.198158
-0.201810
-0.166223
-0.177633
-0.158784
-0.146150
-0.155490
-0.162659
-0.049364
-0.045761
-0.229587
-0.217173
-0.137323
-0.139938
-0.142214
-0.136328
-0.207105
-0.155285
-0.159379
-0.157958
-0.165173
-0.152795
-0.145733
-0.199653
-0.201665
-0.085329
-0.081862
-0.186349
-0.171712
-0.181561
-0.161361
-0.032171
-0.076594
-0.073796
-0.222120
-0.144335
-0.139035
-0.194465
-0.195501
-0.186944
-0.180075
-0.101104
-0.097808
-0.104561
-0.099962
-0.271109
-0.253462
-0.255668
-0.093605
-0.268758
-0.178589
-0.179968
-0.074795
-0.069592
-0.074581
-0.105274
-0.103701
-0.073063
-0.098853
-0.106881
-0.107014
-0.106300
-0.197389
-0.201933
-0.121239
-0.128150
-0.100236
-0.178618
-0.181101
-0.164106
-0.164665
-0.188643
-0.173533
-0.180097
-0.184851
-0.154995
-0.161604
-0.200276
-0.205658
-0.143121
-0.097934
-0.092752
-0.206132
-0.211067
-0.175629
-0.178630
-0.176329
-0.122898
-0.242266
-0.232930
-0.187914
-0.084974
-0.197554
-0.202123
-0.202035
-0.165443
-0.166122
-0.171061
-0.076424
-0.136292
-0.207038
-0.201944
-0.237630
-0.248364
-0.077411
-0.105743
-0.107585
-0.108457
-0.154517
-0.153064
-0.152098
-0.157521
-0.086937
-0.073641
-0.071860
-0.117632
-0.194697
-0.167211
-0.131965
-0.056208
-0.172705
-0.164595
-0.085950
-0.171911
-0.170307
-0.175097
-0.174455
-0.069236
-0.156344
-0.111085
-0.108269
-0.206450
-0.051237
-0.056844
-0.036259
-0.070482
-0.048744
-0.125164
-0.239541
-0.252564
-0.237157
-0.252512
-0.220038
-0.117698
-0.101061
-0.170346
-0.173069
-0.170397
-0.169393
-0.185805
-0.070655
-0.073190
-0.109073
-0.111976
-0.112807
-0.113351
-0.111286
-0.112757
-0.115413
-0.103962
-0.207521
-0.111698
-0.071610
-0.085555
-0.094151
-0.084832
-0.172883
-0.152296
-0.149885
-0.111322
-0.133511
-0.130000
-0.204544
-0.168510
-0.167782
-0.080776
-0.171885
-0.072072
-0.057219
-0.070881
-0.226377
-0.112576
-0.078061
-0.167617
-0.164469
-0.171490
-0.225776
-0.194897
-0.155150
-0.151277
-0.154256
-0.188137
-0.152471
-0.118581
-0.192484
-0.078635
-0.133079
-0.128917
-0.172765
-0.081399
-0.173692
-0.170394
-0.082269
-0.164646
-0.153137
-0.075096
-0.063517
-0.073384
-0.077448
-0.143066
-0.224151
-0.216286
-0.209578
-0.206030
-0.156749
-0.147742
-0.148732
-0.176172
-0.133703
-0.211109
-0.204795
-0.205945
-0.163723
-0.159294
-0.206730
-0.211908
-0.122255
-0.125090
-0.097832
-0.212570
-0.147862
-0.199152
-0.145172
-0.148624
-0.151038
-0.153892
-0.240649
-0.087043
-0.078086
-0.076101
-0.207606
-0.156732
-0.151319
-0.060642
-0.171856
-0.068974
-0.133359
-0.131034
-0.127239
-0.131577
-0.129183
-0.210291
-0.149108
-0.151792
-0.113520
-0.121495
-0.169247
-0.217632
-0.042493
-0.248973
-0.112498
-0.269951
-0.054323
-0.067271
-0.023703
-0.027760
-0.264256
-0.262194
-0.067705
-0.172463
-0.025735
-0.046473
-0.046765
-0.109106
-0.238631
-0.238120
-0.200599
-0.199031
-0.143098
-0.146468
-0.148058
-0.267619
-0.049565
-0.143904
-0.075555
-0.215356
-0.123535
-0.237836
-0.088973
-0.221193
-0.215871
-0.072472
-0.073036
-0.185023
-0.213773
-0.089275
-0.092302
-0.206418
-0.198457
-0.202689
-0.117101
-0.110620
-0.112634
-0.114811
-0.204419
-0.084021
-0.106893
-0.147578
-0.202595
-0.168088
-0.177435
-0.111612
-0.087573
-0.091226
-0.119322
-0.093771
-0.094208
-0.133929
-0.099981
-0.089797
-0.089080
-0.108878
-0.175853
-0.153820
-0.148051
-0.144754
-0.195648
-0.115136
-0.082737
-0.163647
-0.165383
-0.126717
-0.123572
-0.157452
-0.154764
-0.082217
-0.104006
-0.126108
-0.205546
-0.176399
-0.157670
-0.138436
-0.134516
-0.136878
-0.144343
-0.137138
-0.122775
-0.151002
-0.117693
-0.181103
-0.127321
-0.079021
-0.152194
-0.103461
-0.109406
-0.102634
-0.138532
-0.139221
-0.161425
-0.131043
-0.103886
-0.127356
-0.125802
-0.154831
-0.158220
-0.189655
-0.144023
-0.105984
-0.157770
-0.155308
-0.124986
-0.127468
SCALARS DAMAGE float 1
LOOKUP_TABLE default
0.999846
0.999853
0.999889
0.999902
0.000000
0.000000
0.999904
0.999925
0.999938
0.999944
0.999942
0.999936
0.999928
0.999918
0.999899
0.999877
0.999907
0.999918
0.999925
0.999927
0.999928
0.999915
0.999899
0.999890
0.999901
0.999912
0.999925
0.999929
0.999925
0.999918
0.999913
0.999909
0.999906
0.999902
0.999906
0.999912
0.999921
0.999927
0.999931
0.999919
0.999905
0.999857
-0.000000
0.000000
0.000000
0.000000
0.000000
0.000000
0.000000
0.000000
0.000000
0.000000
0.000000
0.000000
0.000000
0.000000
0.000000
0.000000
0.000000
0.000000
0.000000
0.000000
0.000000
0.000000
0.000000
0.000000
0.000000
0.000000
0.000000
0.000000
0.000000
0.000000
0.000000
0.000000
0.000000
0.000000
0.000000
0.000000
0.000000
0.000000
0.000000
0.000000
0.000000
0.000000
0.000000
0.000000
0.000000
0.000000
0.000000
0.000000
0.000000
0.000000
0.000000
0.000000
-0.000000
0.678548
0.728267
0.862941
0.890147
0.481482
0.344875
0.649575
0.685405
0.689920
0.857596
0.999915
0.999916
0.999913
0.879897
0.980401
0.977528
0.991683
0.999912
0.988688
0.443536
0.491295
0.999906
0.999912
0.999911
0.999907
0.999926
0.999902
0.999867
0.943696
0.987869
0.947226
0.999930
0.999926
0.999923
0.981948
0.999332
0.999802
0.999424
0.999862
0.970217
0.952838
0.900978
0.890055
0.970613
0.933785
0.954948
0.953393
0.820264
0.870441
0.763485
0.448025
0.444750
0.670051
0.433178
0.389586
0.708107
0.999715
0.999892
0.999885
0.748502
0.668576
0.466534
0.999891
0.999903
0.999903
0.999909
0.999918
0.999914
0.844315
0.999922
0.999925
0.751240
0.726509
0.752560
0.683829
0.868593
0.844842
0.999680
0.999875
0.999647
0.999879
0.811588
0.516036
0.798267
0.754479
0.638192
0.879347
0.761405
0.673266
0.496175
0.768664
0.834892
0.898357
0.539686
0.879016
0.775373
0.895548
0.930915
0.904070
0.978091
0.999909
0.999916
0.917941
0.970520
0.999906
0.999911
0.999907
0.807212
0.510050
0.827942
0.681229
0.790135
0.751995
0.744892
0.687450
0.869922
0.350980
0.474909
0.999897
0.999895
0.999904
0.999907
0.999905
0.999904
0.513375
0.484290
0.845140
0.747206
0.706910
0.439366
0.448499
0.544011
0.656939
0.834285
0.718129
0.392428
0.715318
0.881205
0.873450
0.957026
0.999904
0.887820
0.952055
0.948543
0.433406
0.382458
0.675703
0.999346
0.998283
0.996190
0.881042
0.967027
0.960608
0.985248
0.916115
0.966052
0.959877
0.983809
0.957797
0.987215
0.972625
0.939272
0.986236
0.955167
0.984050
0.999017
0.996232
0.999871
0.994746
0.977139
0.981018
0.999891
0.999443
0.999479
0.994317
0.717032
0.454007
0.373273
0.922723
0.971560
0.936900
0.475868
0.689582
0.999912
0.999914
0.999920
0.931564
0.978871
0.931561
0.991975
0.998409
0.997479
0.999639
0.630868
0.782341
0.823497
0.999901
0.726860
0.732551
0.540979
0.850498
0.525927
0.473249
0.729949
0.996999
0.985802
0.994860
0.955729
0.987961
0.999625
0.999860
0.981804
0.996155
0.976704
0.985889
0.977772
0.692223
0.366623
0.493432
0.703192
0.988789
0.994057
0.980899
0.999919
0.999661
0.999966
0.970968
0.462722
0.998456
0.999567
0.999919
0.994625
0.998651
0.994801
0.999942
0.999938
0.999939
0.999929
0.999930
0.997115
0.999332
0.996295
0.999925
0.999930
0.999921
0.999914
0.999912
0.999908
0.999910