# vtk DataFile Version 2.0
Test
ASCII
DATASET POLYDATA
POINTS 858 float
0.000000 0.000000 0.000000
1.000000 0.000000 0.000000
1.000000 1.000000 0.000000
0.000000 1.000000 0.000000
0.300000 0.330000 0.000000
0.700000 0.680000 0.000000
0.100000 0.000000 0.000000
0.200000 0.000000 0.000000
0.300000 0.000000 0.000000
0.400000 0.000000 0.000000
0.500000 0.000000 0.000000
0.600000 0.000000 0.000000
0.700000 0.000000 0.000000
0.800000 0.000000 0.000000
0.900000 0.000000 0.000000
1.000000 0.100000 0.000000
1.000000 0.200000 0.000000
1.000000 0.300000 0.000000
1.000000 0.400000 0.000000
1.000000 0.500000 0.000000
1.000000 0.600000 0.000000
1.000000 0.700000 0.000000
1.000000 0.800000 0.000000
1.000000 0.900000 0.000000
0.900000 1.000000 0.000000
0.800000 1.000000 0.000000
0.700000 1.000000 0.000000
0.600000 1.000000 0.000000
0.500000 1.000000 0.000000
0.400000 1.000000 0.000000
0.300000 1.000000 0.000000
0.200000 1.000000 0.000000
0.100000 1.000000 0.000000
0.000000 0.900000 0.000000
0.000000 0.800000 0.000000
0.000000 0.700000 0.000000
0.000000 0.600000 0.000000
0.000000 0.500000 0.000000
0.000000 0.400000 0.000000
0.000000 0.300000 0.000000
0.000000 0.200000 0.000000
0.000000 0.100000 0.000000
0.307407 0.336481 0.000000
0.314815 0.342963 0.000000
0.322222 0.349444 0.000000
0.329630 0.355926 0.000000
0.337037 0.362407 0.000000
0.344444 0.368889 0.000000
0.351852 0.375370 0.000000
0.359259 0.381852 0.000000
0.366667 0.388333 0.000000
0.374074 0.394815 0.000000
0.381481 0.401296 0.000000
0.388889 0.407778 0.000000
0.396296 0.414259 0.000000
0.403704 0.420741 0.000000
0.411111 0.427222 0.000000
0.418519 0.433704 0.000000
0.425926 0.440185 0.000000
0.433333 0.446667 0.000000
0.440741 0.453148 0.000000
0.448148 0.459630 0.000000
0.455556 0.466111 0.000000
0.462963 0.472593 0.000000
0.470370 0.479074 0.000000
0.477778 0.485556 0.000000
0.485185 0.492037 0.000000
0.492593 0.498519 0.000000
0.500000 0.505000 0.000000
0.507407 0.511481 0.000000
0.514815 0.517963 0.000000
0.522222 0.524444 0.000000
0.529630 0.530926 0.000000
0.537037 0.537407 0.000000
0.544444 0.543889 0.000000
0.551852 0.550370 0.000000
0.559259 0.556852 0.000000
0.566667 0.563333 0.000000
0.574074 0.569815 0.000000
0.581481 0.576296 0.000000
0.588889 0.582778 0.000000
0.596296 0.589259 0.000000
0.603704 0.595741 0.000000
0.611111 0.602222 0.000000
0.618519 0.608704 0.000000
0.625926 0.615185 0.000000
0.633333 0.621667 0.000000
0.640741 0.628148 0.000000
0.648148 0.634630 0.000000
0.655556 0.641111 0.000000
0.662963 0.647593 0.000000
0.670370 0.654074 0.000000
0.677778 0.660556 0.000000
0.685185 0.667037 0.000000
0.692593 0.673519 0.000000
0.548037 0.570873 0.000000
0.554453 0.579695 0.000000
0.540788 0.582045 0.000000
0.550492 0.594703 0.000000
0.338797 0.350505 0.000000
0.329823 0.347064 0.000000
0.335712 0.339262 0.000000
0.451687 0.438509 0.000000
0.442642 0.430741 0.000000
0.457884 0.427703 0.000000
0.387297 0.847474 0.000000
0.374793 0.914734 0.000000
0.332869 0.847471 0.000000
0.447069 0.415163 0.000000
0.567391 0.482596 0.000000
0.554659 0.473874 0.000000
0.567453 0.464800 0.000000
0.301190 0.902112 0.000000
0.551747 0.457138 0.000000
0.356532 0.391813 0.000000
0.347986 0.386048 0.000000
0.176207 0.429241 0.000000
0.128375 0.468105 0.000000
0.136378 0.404291 0.000000
0.185621 0.475277 0.000000
0.497512 0.261165 0.000000
0.499167 0.296032 0.000000
0.469918 0.291504 0.000000
0.642232 0.687989 0.000000
0.624295 0.701188 0.000000
0.630549 0.678643 0.000000
0.647682 0.074905 0.000000
0.700945 0.096046 0.000000
0.657288 0.160421 0.000000
0.611443 0.684403 0.000000
0.559779 0.406431 0.000000
0.582162 0.394521 0.000000
0.580552 0.422827 0.000000
0.560788 0.374759 0.000000
0.541503 0.468043 0.000000
0.545465 0.480978 0.000000
0.428301 0.394826 0.000000
0.414860 0.384611 0.000000
0.432086 0.374027 0.000000
0.533961 0.477886 0.000000
0.527361 0.464336 0.000000
0.415481 0.368142 0.000000
0.484401 0.527206 0.000000
0.472984 0.524144 0.000000
0.481205 0.518972 0.000000
0.394266 0.424909 0.000000
0.401826 0.431399 0.000000
0.392742 0.434502 0.000000
0.642418 0.617836 0.000000
0.635302 0.612878 0.000000
0.644322 0.605726 0.000000
0.263646 0.464175 0.000000
0.250486 0.498376 0.000000
0.230296 0.467342 0.000000
0.491693 0.468898 0.000000
0.498004 0.479972 0.000000
0.487381 0.480785 0.000000
0.718619 0.489140 0.000000
0.756680 0.466072 0.000000
0.751564 0.516847 0.000000
0.497232 0.719177 0.000000
0.477497 0.748035 0.000000
0.465924 0.716726 0.000000
0.501292 0.467390 0.000000
0.529064 0.285755 0.000000
0.547173 0.240449 0.000000
0.474742 0.511943 0.000000
0.403118 0.392815 0.000000
0.412434 0.399392 0.000000
0.653057 0.614785 0.000000
0.659187 0.602396 0.000000
0.400247 0.379451 0.000000
0.459133 0.636583 0.000000
0.434636 0.647284 0.000000
0.440667 0.616932 0.000000
0.453650 0.664799 0.000000
0.666296 0.616100 0.000000
0.657731 0.628197 0.000000
0.420489 0.468863 0.000000
0.414183 0.459489 0.000000
0.424065 0.460120 0.000000
0.629321 0.574616 0.000000
0.630370 0.589442 0.000000
0.617226 0.584388 0.000000
0.422026 0.450877 0.000000
0.590180 0.614274 0.000000
0.596278 0.627413 0.000000
0.585881 0.628067 0.000000
0.630677 0.603443 0.000000
0.529117 0.486095 0.000000
0.517046 0.488781 0.000000
0.522040 0.477224 0.000000
0.308641 0.392803 0.000000
0.323746 0.398675 0.000000
0.304273 0.411173 0.000000
0.146020 0.514086 0.000000
0.087335 0.505198 0.000000
0.624982 0.561914 0.000000
0.643811 0.559907 0.000000
0.831909 0.406061 0.000000
0.881376 0.423788 0.000000
0.839177 0.457573 0.000000
0.509066 0.478681 0.000000
0.614792 0.620247 0.000000
0.608406 0.635616 0.000000
0.603251 0.619643 0.000000
0.640290 0.595050 0.000000
0.524731 0.497540 0.000000
0.338689 0.392113 0.000000
0.347423 0.395876 0.000000
0.340116 0.407012 0.000000
0.686563 0.659098 0.000000
0.682555 0.651347 0.000000
0.934704 0.856355 0.000000
0.940546 0.930926 0.000000
0.863552 0.916423 0.000000
0.172107 0.566287 0.000000
0.188105 0.516551 0.000000
0.221330 0.532895 0.000000
0.683914 0.680068 0.000000
0.692945 0.685712 0.000000
0.683376 0.697853 0.000000
0.672414 0.683990 0.000000
0.557147 0.529227 0.000000
0.554161 0.540325 0.000000
0.546244 0.533101 0.000000
0.391911 0.394487 0.000000
0.387591 0.383772 0.000000
0.385780 0.368800 0.000000
0.671617 0.628861 0.000000
0.664093 0.637808 0.000000
0.408700 0.450928 0.000000
0.406517 0.467364 0.000000
0.394366 0.455525 0.000000
0.388841 0.472148 0.000000
0.792728 0.486062 0.000000
0.461047 0.516036 0.000000
0.460182 0.532753 0.000000
0.450617 0.523703 0.000000
0.364207 0.398120 0.000000
0.371344 0.402923 0.000000
0.362621 0.408449 0.000000
0.235276 0.413110 0.000000
0.235915 0.390376 0.000000
0.260894 0.399649 0.000000
0.564107 0.604249 0.000000
0.558497 0.625526 0.000000
0.545610 0.611482 0.000000
0.542035 0.628852 0.000000
0.441269 0.401429 0.000000
0.443649 0.385779 0.000000
0.454140 0.398188 0.000000
0.456246 0.380948 0.000000
0.531090 0.597071 0.000000
0.528592 0.618783 0.000000
0.693800 0.600685 0.000000
0.675646 0.601117 0.000000
0.688895 0.583493 0.000000
0.466943 0.412411 0.000000
0.469666 0.393398 0.000000
0.215629 0.311290 0.000000
0.236374 0.342186 0.000000
0.194357 0.347185 0.000000
0.372859 0.289727 0.000000
0.362694 0.307734 0.000000
0.346245 0.295576 0.000000
0.824768 0.656091 0.000000
0.787989 0.680173 0.000000
0.787481 0.637866 0.000000
0.763354 0.658567 0.000000
0.564845 0.587843 0.000000
0.565674 0.575091 0.000000
0.575285 0.580662 0.000000
0.591463 0.532694 0.000000
0.606735 0.524365 0.000000
0.606700 0.541268 0.000000
0.696107 0.663701 0.000000
0.695223 0.651919 0.000000
0.114270 0.553146 0.000000
0.897846 0.490106 0.000000
0.941355 0.438159 0.000000
0.491870 0.442127 0.000000
0.508682 0.433741 0.000000
0.504276 0.453072 0.000000
0.616608 0.507977 0.000000
0.629719 0.487283 0.000000
0.643435 0.510566 0.000000
0.660659 0.486926 0.000000
0.584650 0.557787 0.000000
0.582076 0.545531 0.000000
0.595086 0.552412 0.000000
0.215445 0.494211 0.000000
0.502563 0.534321 0.000000
0.493623 0.527201 0.000000
0.502900 0.523550 0.000000
0.490744 0.536689 0.000000
0.303740 0.348241 0.000000
0.312638 0.354325 0.000000
0.302746 0.359450 0.000000
0.683727 0.548378 0.000000
0.666144 0.562133 0.000000
0.663581 0.542222 0.000000
0.366098 0.324774 0.000000
0.379406 0.309842 0.000000
0.251675 0.434611 0.000000
0.214900 0.437402 0.000000
0.581091 0.493223 0.000000
0.603283 0.484739 0.000000
0.593195 0.510449 0.000000
0.429738 0.356510 0.000000
0.412970 0.350726 0.000000
0.358920 0.356811 0.000000
0.352460 0.366146 0.000000
0.347463 0.357590 0.000000
0.353794 0.402394 0.000000
0.527483 0.436280 0.000000
0.546965 0.439869 0.000000
0.535210 0.453469 0.000000
0.624606 0.790385 0.000000
0.614250 0.755688 0.000000
0.654837 0.763041 0.000000
0.384960 0.332814 0.000000
0.619946 0.597007 0.000000
0.358705 0.265521 0.000000
0.397502 0.266486 0.000000
0.377869 0.228897 0.000000
0.471169 0.372235 0.000000
0.492664 0.362648 0.000000
0.488718 0.386734 0.000000
0.431288 0.062893 0.000000
0.512348 0.074893 0.000000
0.450325 0.128772 0.000000
0.515327 0.223180 0.000000
0.538419 0.183215 0.000000
0.367912 0.509419 0.000000
0.343175 0.515399 0.000000
0.351317 0.488263 0.000000
0.593186 0.193353 0.000000
0.476496 0.230456 0.000000
0.594140 0.256114 0.000000
0.629340 0.367381 0.000000
0.659922 0.374166 0.000000
0.641019 0.397588 0.000000
0.669525 0.412603 0.000000
0.510665 0.591750 0.000000
0.493263 0.584115 0.000000
0.507476 0.576852 0.000000
0.492575 0.790205 0.000000
0.516533 0.753914 0.000000
0.493265 0.606545 0.000000
0.794852 0.435952 0.000000
0.797754 0.379724 0.000000
0.755728 0.420083 0.000000
0.528549 0.642034 0.000000
0.507334 0.653897 0.000000
0.509532 0.626562 0.000000
0.580705 0.748031 0.000000
0.605192 0.727758 0.000000
0.748472 0.635779 0.000000
0.742539 0.660255 0.000000
0.323194 0.421808 0.000000
0.325468 0.445306 0.000000
0.301700 0.435431 0.000000
0.295276 0.460827 0.000000
0.622421 0.457821 0.000000
0.642814 0.468538 0.000000
0.320303 0.468200 0.000000
[...]
POINT_DATA 858
SCALARS UX float 1
LOOKUP_TABLE default
0.000000
-0.000000
-0.310541
-0.176398
0.073663
-0.305762
-0.000000
0.000000
-0.000000
-0.000000
-0.000000
0.000000
0.000000
0.000000
0.000000
-0.046587
-0.085441
-0.142930
-0.222648
-0.315654
-0.389539
-0.406833
-0.367791
-0.325928
-0.276555
-0.244829
-0.224683
-0.226344
-0.233615
-0.238077
-0.237355
-0.224442
-0.203626
-0.164044
-0.135923
-0.080331
-0.000493
0.091339
0.158812
0.166261
0.116868
0.062450
0.059160
0.073471
0.064762
0.048195
0.046078
0.034636
0.022130
0.029265
0.028753
0.016881
0.011892
0.017006
-0.005345
-0.002723
-0.045218
-0.014641
-0.042653
-0.051841
-0.036645
-0.049411
-0.079393
-0.095498
-0.085724
-0.080062
-0.093155
-0.124738
-0.091694
-0.124983
-0.140844
-0.128200
-0.134928
-0.157608
-0.165059
-0.183331
-0.188572
-0.187744
-0.197532
-0.197190
-0.200804
-0.199490
-0.235428
-0.247236
-0.235533
-0.256280
-0.240287
-0.258785
-0.279982
-0.281614
-0.281296
-0.278029
-0.293514
-0.304192
-0.300542
-0.145810
-0.155533
-0.150916
-0.164011
0.029861
0.044151
0.039471
-0.086141
-0.076364
-0.081251
-0.227277
-0.235805
-0.223676
-0.068510
-0.154195
-0.144325
-0.138346
-0.228983
-0.129107
0.049954
0.056545
0.080979
0.070625
0.111541
0.039838
-0.012966
-0.021687
-0.014786
-0.261039
-0.250963
-0.251103
0.003359
0.001136
-0.004388
-0.240744
-0.090661
-0.086715
-0.106459
-0.069896
-0.136898
-0.149237
-0.047686
-0.036153
-0.036609
-0.144316
-0.130909
-0.026642
-0.087521
-0.082353
-0.080413
0.020441
0.010289
0.014225
-0.279330
-0.276020
-0.278276
0.013137
-0.010136
0.025397
-0.125105
-0.134927
-0.125223
-0.192174
-0.187327
-0.229439
-0.212618
-0.216797
-0.205881
-0.127382
-0.023319
-0.013616
-0.073296
-0.034675
-0.043041
-0.284646
-0.275135
-0.026624
-0.167129
-0.168407
-0.150861
-0.181731
-0.286328
-0.296467
-0.021437
-0.010720
-0.014934
-0.250187
-0.264718
-0.257930
-0.007419
-0.194757
-0.204921
-0.200210
-0.277940
-0.150513
-0.149339
-0.141058
0.049686
0.044855
0.037891
0.022423
0.054293
-0.237428
-0.236353
-0.166809
-0.201009
-0.214674
-0.138711
-0.212101
-0.216623
-0.205147
-0.270479
-0.159643
0.051167
0.049139
0.039092
-0.300884
-0.304200
-0.318475
-0.296847
-0.271782
-0.035401
0.002004
-0.027560
-0.297572
-0.302937
-0.291176
-0.286345
-0.195505
-0.200639
-0.190418
-0.029637
-0.019745
-0.013044
-0.295821
-0.298219
-0.002596
-0.017680
-0.005135
-0.020959
-0.219769
-0.072785
-0.087521
-0.077638
0.038172
0.023380
0.038238
0.067142
0.082952
0.064636
-0.175773
-0.187784
-0.173864
-0.184095
-0.056985
-0.047821
-0.059346
-0.048972
-0.158959
-0.173448
-0.274887
-0.273459
-0.262295
-0.073155
-0.060828
0.098267
0.100602
0.111746
0.014585
0.021384
0.027804
-0.352949
-0.343290
-0.338355
-0.336788
-0.166534
-0.164998
-0.185361
-0.205512
-0.198797
-0.215649
-0.303047
-0.303167
0.000103
-0.268754
-0.237276
-0.103359
-0.100739
-0.115826
-0.184439
-0.167822
-0.190660
-0.173263
-0.226411
-0.217662
-0.225632
0.009549
-0.099356
-0.090933
-0.091220
-0.097789
0.067780
0.067535
0.066931
-0.231435
-0.240674
-0.222526
0.018292
0.012456
0.043139
0.058103
-0.166005
-0.161274
-0.183731
-0.025972
-0.016408
0.011069
0.015092
0.018756
0.043421
-0.106964
-0.113753
-0.122938
-0.239029
-0.242618
-0.249830
0.004843
-0.268230
0.014110
0.004483
0.002762
-0.048034
-0.048395
-0.061753
-0.003829
0.000506
-0.003495
-0.008299
-0.003975
-0.052456
-0.053131
-0.031418
-0.007145
-0.006566
-0.022152
-0.078552
-0.089666
-0.100721
-0.117656
-0.148910
-0.138668
-0.136484
-0.225792
-0.223770
-0.155369
-0.177475
-0.133018
-0.149581
-0.187906
-0.188478
-0.173029
-0.235252
-0.242422
-0.321743
-0.329426
0.027609
0.008797
0.022362
0.003897
-0.141376
-0.154135
-0.008647
0.002208
-0.007289
-0.003536
-0.004826
0.122448
0.136527
0.121284
0.105434
-0.075313
-0.048968
-0.235434
-0.232342
-0.248077
-0.247728
-0.007906
-0.031631
-0.055783
-0.090966
-0.103520
-0.048763
0.026137
-0.142131
-0.160526
-0.168415
-0.144264
-0.201922
-0.205238
-0.115162
-0.128369
-0.177828
-0.286549
-0.136325
-0.113012
-0.150898
0.012217
0.014154
0.002059
-0.132619
-0.148023
-0.126760
0.027417
-0.149803
-0.059069
-0.052853
0.024057
0.023255
0.010070
-0.036333
-0.033919
-0.047109
-0.239299
-0.232841
-0.311459
-0.223331
-0.206574
-0.218756
-0.139547
-0.126115
-0.206250
-0.322475
-0.102121
-0.121290
-0.116415
-0.128554
-0.092929
-0.215766
-0.002337
0.001684
-0.005229
-0.033061
-0.020105
-0.223546
-0.212686
-0.060486
-0.000724
-0.010772
0.138218
0.125452
0.038316
-0.270067
-0.285434
-0.252308
0.027177
0.010567
-0.169467
-0.185345
-0.200679
-0.192305
-0.164165
-0.174080
-0.143192
-0.255031
-0.010135
-0.279000
-0.270310
-0.284793
-0.146983
-0.166806
-0.008842
0.088015
0.087955
-0.006408
0.020361
0.004927
-0.004007
0.098843
-0.074038
0.084171
-0.069635
-0.114046
-0.083942
-0.115630
-0.304159
-0.297142
-0.316180
-0.233903
-0.239798
-0.075186
-0.088116
-0.211049
-0.225477
-0.316866
-0.343736
-0.066168
-0.222090
-0.253082
-0.080419
-0.003482
-0.002277
-0.205512
-0.194559
-0.000587
-0.006925
-0.017314
0.006726
-0.183712
-0.257315
-0.268393
-0.258878
0.006995
-0.218203
-0.231971
-0.244766
-0.256115
-0.018471
-0.007872
-0.365171
-0.347402
-0.381307
-0.341755
-0.001165
0.037253
0.030413
-0.253953
-0.223235
-0.204179
-0.323133
-0.330868
-0.161624
-0.142650
-0.081137
-0.071259
-0.090329
-0.079725
-0.226583
-0.230568
-0.231778
-0.063808
-0.231136
-0.299974
-0.302302
0.062143
0.042990
0.054030
-0.097664
-0.092161
0.041545
-0.079197
0.062747
0.062729
0.072870
-0.237667
-0.239232
0.041365
0.026815
0.072720
-0.131362
-0.137256
-0.272156
-0.282742
-0.155408
-0.116598
-0.136635
-0.173320
-0.108940
-0.085316
-0.230110
-0.238783
-0.021336
-0.007376
-0.012495
-0.276836
-0.272909
-0.137457
-0.141793
-0.133777
-0.143689
-0.232744
-0.235294
-0.309447
0.000297
-0.202285
-0.217098
-0.211107
-0.091836
-0.092693
-0.105918
-0.025845
0.006112
-0.262094
-0.265065
-0.230739
-0.230399
0.049016
-0.090032
-0.097271
-0.094044
-0.245650
-0.235697
-0.048078
-0.059616
-0.064032
-0.038384
-0.040912
-0.134967
-0.226933
-0.095428
0.019858
-0.022119
-0.113892
-0.088801
-0.050508
-0.110177
-0.106472
-0.293712
-0.296048
-0.026283
-0.303255
0.055147
-0.107070
-0.197618
0.060666
0.048229
0.006350
0.108982
0.071187
0.034798
-0.304505
-0.271869
-0.284604
-0.251224
-0.357430
-0.139985
-0.068092
-0.135424
-0.146381
-0.108318
-0.109343
-0.153495
0.048122
0.052871
-0.104739
-0.116038
-0.114566
-0.093831
-0.085645
-0.120166
-0.128628
-0.096442
-0.190193
-0.117962
-0.077235
-0.053029
-0.072334
-0.055205
-0.127741
-0.250093
-0.244819
-0.104373
-0.192597
-0.179730
-0.248831
-0.099727
-0.097498
0.070277
-0.111310
-0.048104
-0.029908
-0.058222
-0.192408
-0.120249
0.070827
-0.128528
-0.124161
-0.110140
-0.230100
-0.308658
-0.057222
-0.043361
-0.052043
-0.183240
-0.049781
-0.120661
-0.190458
-0.015197
0.014919
0.027825
-0.117781
-0.025212
-0.124623
-0.118265
-0.000822
-0.296638
-0.270957
0.078966
0.040613
0.096087
-0.005366
-0.214510
-0.298311
-0.338635
-0.326188
-0.229799
-0.266084
-0.034825
-0.036174
-0.129332
0.004501
-0.220054
-0.206042
-0.214996
-0.084991
-0.070437
-0.223188
-0.227570
0.026240
0.038110
-0.035219
-0.236081
-0.031297
-0.198833
-0.029483
-0.046968
-0.054409
-0.051838
-0.226769
-0.037684
-0.037656
-0.038088
-0.204128
-0.062962
-0.043287
-0.005303
-0.286254
-0.008593
-0.177338
-0.173743
-0.170345
-0.183318
-0.163277
-0.303217
-0.033758
-0.042222
0.054158
-0.148505
-0.102843
-0.230353
-0.003487
-0.241488
0.056303
-0.243663
-0.000975
-0.001187
-0.009962
-0.025371
-0.207290
-0.184178
0.007224
-0.289737
0.027151
-0.040941
-0.025356
0.152968
-0.172476
-0.194549
-0.374474
-0.354783
-0.032289
-0.040350
-0.032714
-0.232566
0.022503
-0.214002
-0.017854
-0.219525
-0.161544
-0.261787
0.110850
-0.136624
-0.265832
0.002427
-0.007047
-0.195109
-0.294663
-0.084741
-0.063289
-0.192793
-0.176715
-0.316176
-0.112492
0.064296
0.058667
0.054996
-0.290104
-0.065389
0.065916
-0.225987
-0.313521
-0.099552
-0.304262
-0.117831
0.088454
0.089436
-0.140285
0.073865
0.082923
-0.002862
-0.045629
-0.005641
0.004458
-0.081186
-0.149958
-0.249063
-0.030410
-0.023945
-0.167067
-0.129403
0.073398
-0.101802
-0.112386
-0.168980
-0.158741
-0.062292
-0.052846
0.049893
-0.090999
0.023548
-0.318354
-0.125867
-0.251857
-0.207293
-0.195805
-0.204324
-0.209448
-0.180830
-0.156711
-0.066637
-0.102875
-0.187837
-0.120304
0.064726
-0.104392
-0.050345
-0.070259
0.064971
-0.019520
-0.028490
-0.258380
-0.184350
-0.066265
-0.171983
-0.151866
-0.076058
-0.075997
-0.263931
-0.218138
-0.062836
-0.063618
-0.054614
-0.164492
-0.163118
SCALARS UY float 1
LOOKUP_TABLE default
0.000000
0.000000
1.100000
1.100000
0.266188
0.834430
0.000000
0.000000
0.000000
0.000000
0.000000
0.000000
0.000000
0.000000
0.000000
0.109486
0.213049
0.321970
0.440329
0.554012
0.656274
0.749633
0.854869
0.974746
1.100000
1.100000
1.100000
1.100000
1.100000
1.100000
1.100000
1.100000
1.100000
0.994282
0.887087
0.771141
0.652199
0.539739
0.438553
0.349972
0.245825
0.128744
0.359014
0.354668
0.391134
0.372477
0.397877
0.440237
0.431023
0.407366
0.407928
0.448483
0.495204
0.415764
0.460011
0.484397
0.580046
0.448056
0.525832
0.541547
0.489018
0.465804
0.550375
0.558565
0.517568
0.519238
0.537408
0.571510
0.432717
0.528028
0.595824
0.568260
0.566532
0.514647
0.539866
0.598178
0.576054
0.601673
0.638118
0.455985
0.719553
0.658738
0.708620
0.645865
0.612564
0.692215
0.685137
0.684528
0.710821
0.734379
0.715220
0.746048
0.795040
0.764981
0.776910
1.007849
1.015857
1.031282
1.036424
0.141058
0.173705
0.122485
0.088049
0.085147
0.066871
1.062281
1.077607
1.047151
0.062472
0.111634
0.100030
0.104860
1.060710
0.092191
0.718100
0.711688
0.551080
0.581343
0.490680
0.632849
0.031062
0.036881
0.032731
1.018555
1.039620
1.026820
0.021497
0.036545
0.049215
1.043068
0.081815
0.092145
0.100140
0.073893
0.091061
0.098706
0.059366
0.061867
0.049515
0.093369
0.084426
0.053826
0.998814
0.999266
0.987546
0.817672
0.835594
0.866335
0.367824
0.363021
0.315217
0.705170
0.738499
0.665689
0.096888
0.114353
0.155700
0.292751
0.313361
0.371694
1.062905
1.063809
1.054497
0.087377
0.042032
0.038459
0.982823
0.084025
0.078272
0.349635
0.332118
0.070511
1.034641
1.025477
1.020622
1.038806
0.374031
0.405115
0.935800
0.919764
0.914083
0.242410
0.267685
0.250962
0.881531
1.020827
1.026981
1.036722
0.313193
0.099547
0.107096
0.091895
0.658817
0.711882
0.686972
0.657604
0.604847
0.222404
0.248847
0.317446
0.376456
0.382881
0.097110
0.969155
1.022528
1.005227
0.289181
0.115989
0.731197
0.750931
0.764242
0.588682
0.529425
0.939828
1.022700
1.020556
0.744427
0.695294
0.749803
0.930969
0.907672
0.957458
0.969645
0.148374
0.200906
0.187510
0.114446
0.097804
0.075939
0.418619
0.471338
0.905340
0.927692
0.905075
0.914199
0.376634
0.992790
1.003727
0.994898
0.741700
0.744863
0.796085
0.569849
0.517674
0.571717
1.036253
1.047703
1.045875
1.051003
0.057427
0.050369
0.052459
0.047531
1.042488
1.048851
0.411778
0.367658
0.369006
0.055688
0.050080
0.327588
0.392074
0.404690
0.055207
0.067698
0.079518
0.682789
0.730579
0.639545
0.682358
1.016459
0.962002
0.947156
0.159449
0.169278
0.181172
0.632662
0.562394
0.683256
0.469067
0.438297
0.068579
0.066947
0.075022
0.170718
0.174528
0.207541
0.213600
0.196414
0.169072
0.182337
0.691173
0.994376
0.990240
0.956256
1.007679
0.485260
0.540799
0.537735
0.309009
0.291859
0.265945
0.070084
0.055626
0.635210
0.596182
0.126823
0.143793
0.146447
0.045807
0.049662
0.102580
0.164715
0.136263
0.774718
0.073953
0.084061
0.082728
1.057112
1.056626
1.030895
0.058461
0.306685
0.060395
0.038183
0.041214
0.045731
0.046776
0.050536
0.009279
0.010626
0.015447
0.029029
0.026910
0.912323
0.883991
0.874730
0.041267
0.025577
0.057349
0.114768
0.141630
0.137990
0.172378
1.039939
1.034311
1.034092
1.073447
1.070902
1.040318
0.317880
0.262630
0.263833
1.053693
1.053099
1.048311
1.066692
1.055960
0.611074
0.683626
0.749996
0.787765
0.725930
0.752285
0.150732
0.179115
0.806060
0.022024
0.021401
0.020638
0.025011
0.415442
0.418669
0.500168
0.475950
0.823217
0.803431
1.090465
1.079482
0.332388
0.359958
0.753915
0.792834
0.758520
0.824659
0.818278
0.733485
0.096717
0.946102
0.978794
0.971349
0.969596
0.974349
0.957512
0.847159
0.285218
0.360481
0.422943
0.893557
0.873855
0.898622
0.077382
0.104837
0.059811
0.986531
0.990985
0.963505
0.131056
0.305884
0.068497
0.080420
0.795215
0.091986
0.076331
0.042841
0.044907
0.049746
1.043678
1.067515
0.553000
1.060519
1.036799
1.061393
1.029904
1.025871
1.048911
0.575843
0.233949
1.026672
0.217551
0.214875
0.169645
1.039770
0.037789
0.074736
0.042594
0.040761
0.069132
1.052374
1.020470
0.088231
0.041948
0.071110
0.340136
0.354381
0.142591
0.967675
0.908914
1.001588
0.824008
0.831494
1.043042
1.048028
0.242483
0.262226
0.928184
0.959694
0.924501
0.440317
0.843606
0.991453
0.998946
0.946251
0.196508
0.238973
0.037073
0.473365
0.421745
0.012205
0.103931
0.044222
0.041496
0.464986
0.922867
0.528948
0.947058
0.895558
0.865433
0.926752
0.550137
0.517525
0.627941
0.217303
0.209671
0.985895
0.995718
1.038339
1.035049
0.550133
0.621550
0.985775
0.324609
0.399008
0.896478
0.023896
0.027871
1.011259
1.006317
0.866741
0.891350
0.884329
0.881074
1.004696
0.273817
0.302172
0.315980
0.663690
0.262318
0.200586
0.970757
0.967156
0.059010
0.057925
0.682171
0.605891
0.672854
0.578353
0.018147
0.102296
0.083397
1.037986
0.210223
0.193046
0.728659
0.741463
1.044822
1.034521
0.057431
0.053553
0.063856
0.058136
1.084374
1.080738
1.064027
0.055313
1.091446
0.503640
0.547385
0.174511
0.122580
0.132584
0.075357
0.067161
0.104000
0.066307
0.557488
0.598331
0.517172
0.978892
1.009508
0.652219
0.688437
0.468083
1.007819
1.002729
0.429257
0.474719
1.008425
1.004926
1.020155
1.004581
0.887098
0.969910
1.017621
1.032402
0.800034
0.180390
0.127896
0.962532
0.997684
1.002687
1.023547
1.021025
0.139270
1.074282
1.069820
0.637379
0.089877
1.047775
1.047641
1.053106
0.955716
0.935794
0.937592
0.037846
0.886704
0.998882
0.946510
1.077131
1.081736
0.125172
0.073642
0.076371
0.092030
0.272157
0.270918
0.846854
0.843016
0.118857
0.083830
0.103704
0.168337
0.977919
1.010113
0.856875
0.087203
0.986766
0.973582
0.058605
0.961107
1.017089
0.478657
0.453209
0.051649
0.518660
0.618405
0.088834
1.052423
0.172644
0.179212
0.088622
0.250513
0.167446
0.794825
0.925966
0.985812
0.936268
1.009140
0.838460
0.211121
0.082761
0.941982
0.952377
1.014099
0.999121
1.032945
0.191058
0.185099
0.075781
0.080430
0.094031
0.143979
0.137860
0.122777
0.111421
0.113690
1.027782
0.076425
0.204315
0.072064
0.091447
0.089530
0.998455
0.237543
0.222177
0.098988
0.140670
0.130348
1.009088
1.011424
1.005838
0.257222
1.014101
0.130371
0.110239
0.161838
0.981168
0.096207
0.256190
0.941471
0.914278
1.018966
1.070738
0.725192
0.952374
0.944075
0.964026
1.018889
0.929070
0.146225
1.038823
0.041663
0.854005
0.834848
1.017843
0.040882
1.014068
0.992993
0.069610
0.510985
0.460435
0.257936
0.179429
0.261854
0.047492
0.229153
0.890436
0.831093
0.816358
1.045803
0.443345
0.908093
0.926284
1.027294
0.859116
1.062588
1.059792
1.058420
0.983230
0.970540
1.054025
1.059430
0.765080
0.805165
0.129985
1.053806
0.935392
1.055074
0.843650
0.913242
0.917836
0.964812
1.072422
0.044543
0.055273
0.067696
1.059160
0.969282
0.956975
0.028051
0.408851
0.033428
0.170613
0.175348
0.120091
0.134798
0.178023
0.887001
0.948930
0.963540
0.608898
0.119881
1.003124
1.064435
0.020785
1.028679
0.662502
1.050293
0.029559
0.036680
0.059047
0.080044
1.034279
1.012511
0.045418
0.479617
0.084849
0.130062
0.106729
0.408512
0.948214
0.981326
0.755559
0.748548
0.888775
0.907039
0.943621
1.063206
0.127522
0.280454
0.036375
1.066292
0.260528
0.971774
0.336177
0.874767
1.017158
0.045958
0.038557
0.973397
0.891642
0.187397
0.061922
1.041298
1.025068
0.810876
0.151425
0.662433
0.688566
0.699290
0.929962
0.140641
0.626260
0.224825
0.816024
0.992001
0.472588
0.143637
0.315945
0.339387
0.128968
0.409418
0.366312
0.837775
0.128835
0.122060
0.138088
0.130446
0.961672
0.280181
0.947922
0.926104
1.002037
0.083617
0.262298
0.940939
0.942115
0.117676
0.106997
0.981808
0.973906
0.161719
0.061730
0.801623
0.814313
1.019624
0.291104
0.163878
0.142167
0.152260
0.234380
0.197261
0.102125
0.892031
0.180394
0.951699
0.219510
0.166212
0.872252
0.134935
0.164175
0.577187
0.862515
0.852471
0.326099
0.128202
0.129814
0.115455
0.156023
0.930489
0.948529
0.902325
0.209484
0.133886
0.977171
0.973974
0.109024
0.137423
SCALARS DAMAGE float 1
LOOKUP_TABLE default
0.803318
0.869481
0.795742
0.865972
0.000000
0.000000
0.800354
0.794348
0.793514
0.797631
0.817047
0.842447
0.858842
0.868369
0.870681
0.863581
0.848524
0.822278
0.788812
0.760538
0.739248
0.743913
0.763529
0.786055
0.792396
0.785065
0.782675
0.789213
0.808186
0.831954
0.853069
0.863206
0.866364
0.859688
0.843844
0.817761
0.785287
0.757523
0.738848
0.746051
0.768711
0.791953
-0.000000
0.000000
0.000000
0.000000
0.000000
0.000000
0.000000
0.000000
0.000000
0.000000
0.000000
0.000000
0.000000
0.000000
0.000000
0.000000
0.000000
0.000000
0.000000
0.000000
0.000000
0.000000
0.000000
0.000000
0.000000
0.000000
0.000000
0.000000
0.000000
0.000000
0.000000
0.000000
0.000000
0.000000
0.000000
0.000000
0.000000
0.000000
0.000000
0.000000
0.000000
0.000000
0.000000
0.000000
0.000000
0.000000
0.000000
0.000000
0.000000
0.000000
0.000000
0.000000
-0.000000
0.088364
0.100222
0.148650
0.163689
0.066638
0.047934
0.114085
0.089894
0.090054
0.146018
0.792990
0.826321
0.812353
0.157665
0.266864
0.259917
0.314879
0.839032
0.298955
0.050950
0.059318
0.627978
0.698111
0.670496
0.642859
0.626557
0.567338
0.540985
0.262559
0.351776
0.249837
0.840741
0.846643
0.814247
0.314685
0.437781
0.499707
0.440614
0.504809
0.243803
0.215859
0.173917
0.171502
0.253458
0.194784
0.218597
0.230688
0.127681
0.150314
0.109273
0.047820
0.047019
0.087702
0.048634
0.042653
0.101425
0.504103
0.572708
0.570294
0.104542
0.085066
0.049103
0.554179
0.634106
0.570634
0.579496
0.645727
0.609981
0.137813
0.618659
0.697164
0.104656
0.106300
0.110828
0.098707
0.164195
0.147857
0.474005
0.532270
0.464723
0.537335
0.142131
0.064042
0.120658
0.107802
0.079513
0.160020
0.113076
0.088286
0.052981
0.116089
0.145953
0.178422
0.063023
0.155567
0.111917
0.164372
0.231797
0.194338
0.296967
0.705050
0.737721
0.187377
0.247879
0.743156
0.757789
0.717017
0.122611
0.059927
0.140785
0.095235
0.125821
0.104942
0.117208
0.099360
0.164411
0.052375
0.069443
0.772391
0.788810
0.778922
0.717671
0.668593
0.647935
0.098198
0.112272
0.238151
0.164126
0.093843
0.045119
0.046141
0.063858
0.091629
0.145214
0.115625
0.048742
0.095383
0.156883
0.154164
0.221489
0.655978
0.157927
0.212192
0.209976
0.048326
0.041907
0.092871
0.504107
0.482382
0.416999
0.157676
0.242989
0.231231
0.292728
0.187275
0.244685
0.232094
0.289944
0.223720
0.294817
0.286622
0.224162
0.314476
0.220672
0.284925
0.551085
0.469730
0.578544
0.417643
0.333968
0.362610
0.611945
0.545134
0.535859
0.464365
0.097626
0.048154
0.037771
0.182989
0.248737
0.199069
0.085934
0.132856
0.743690
0.737018
0.770332
0.193269
0.261739
0.192270
0.317440
0.395724
0.372910
0.458183
0.078931
0.113744
0.129808
0.618332
0.098214
0.100405
0.059260
0.140798
0.095146
0.073475
0.148564
0.381624
0.303025
0.346005
0.270004
0.355102
0.490212
0.569443
0.271145
0.345589
0.253789
0.303381
0.283340
0.108966
0.043955
0.064877
0.101001
0.299079
0.333370
0.269826
0.608408
0.534419
0.533675
0.281495
0.050767
0.485720
0.514815
0.592658
0.347937
0.415012
0.345979
0.792457
0.806889
0.759378
0.694019
0.749795
0.370311
0.435196
0.358455
0.768963
0.656365
0.712765
0.609221
0.633594
0.578997
0.594935
0.258972
0.278830
0.222209
0.690127
0.619648
0.339935
0.698156
0.741739
0.678446
0.359546
0.429937
0.357789
0.545539
0.466699
0.421464
0.384146
0.264716
0.319807
0.361439
0.429798
0.444650
0.460115
0.385280
0.810259
0.757357
0.712987
0.714494
0.644435
0.697817
0.725496
0.603278
0.676836
0.603551
0.810275
0.782747
0.335462
0.397491
0.501749
0.541056
0.770354
0.742674
0.808850
0.793171
0.447338
0.660507
0.655475
0.709554
0.608434
0.053985
0.052093
0.787151
0.807116
0.791884
0.204888
0.761886
0.712785
0.821204
0.552978
0.618290
0.643057
0.509930
0.563841
0.551304
0.520015
0.776393
0.135347
0.102042
0.215522
0.164054