# vtk DataFile Version 2.0
Test
ASCII
DATASET POLYDATA
POINTS 858 float
0.000000 0.000000 0.000000
1.000000 0.000000 0.000000
1.000000 1.000000 0.000000
0.000000 1.000000 0.000000
0.300000 0.330000 0.000000
0.700000 0.680000 0.000000
0.100000 0.000000 0.000000
0.200000 0.000000 0.000000
0.300000 0.000000 0.000000
0.400000 0.000000 0.000000
0.500000 0.000000 0.000000
0.600000 0.000000 0.000000
0.700000 0.000000 0.000000
0.800000 0.000000 0.000000
0.900000 0.000000 0.000000
1.000000 0.100000 0.000000
1.000000 0.200000 0.000000
1.000000 0.300000 0.000000
1.000000 0.400000 0.000000
1.000000 0.500000 0.000000
1.000000 0.600000 0.000000
1.000000 0.700000 0.000000
1.000000 0.800000 0.000000
1.000000 0.900000 0.000000
0.900000 1.000000 0.000000
0.800000 1.000000 0.000000
0.700000 1.000000 0.000000
0.600000 1.000000 0.000000
0.500000 1.000000 0.000000
0.400000 1.000000 0.000000
0.300000 1.000000 0.000000
0.200000 1.000000 0.000000
0.100000 1.000000 0.000000
0.000000 0.900000 0.000000
0.000000 0.800000 0.000000
0.000000 0.700000 0.000000
0.000000 0.600000 0.000000
0.000000 0.500000 0.000000
0.000000 0.400000 0.000000
0.000000 0.300000 0.000000
0.000000 0.200000 0.000000
0.000000 0.100000 0.000000
0.307407 0.336481 0.000000
0.314815 0.342963 0.000000
0.322222 0.349444 0.000000
0.329630 0.355926 0.000000
0.337037 0.362407 0.000000
0.344444 0.368889 0.000000
0.351852 0.375370 0.000000
0.359259 0.381852 0.000000
0.366667 0.388333 0.000000
0.374074 0.394815 0.000000
0.381481 0.401296 0.000000
0.388889 0.407778 0.000000
0.396296 0.414259 0.000000
0.403704 0.420741 0.000000
0.411111 0.427222 0.000000
0.418519 0.433704 0.000000
0.425926 0.440185 0.000000
0.433333 0.446667 0.000000
0.440741 0.453148 0.000000
0.448148 0.459630 0.000000
0.455556 0.466111 0.000000
0.462963 0.472593 0.000000
0.470370 0.479074 0.000000
0.477778 0.485556 0.000000
0.485185 0.492037 0.000000
0.492593 0.498519 0.000000
0.500000 0.505000 0.000000
0.507407 0.511481 0.000000
0.514815 0.517963 0.000000
0.522222 0.524444 0.000000
0.529630 0.530926 0.000000
0.537037 0.537407 0.000000
0.544444 0.543889 0.000000
0.551852 0.550370 0.000000
0.559259 0.556852 0.000000
0.566667 0.563333 0.000000
0.574074 0.569815 0.000000
0.581481 0.576296 0.000000
0.588889 0.582778 0.000000
0.596296 0.589259 0.000000
0.603704 0.595741 0.000000
0.611111 0.602222 0.000000
0.618519 0.608704 0.000000
0.625926 0.615185 0.000000
0.633333 0.621667 0.000000
0.640741 0.628148 0.000000
0.648148 0.634630 0.000000
0.655556 0.641111 0.000000
0.662963 0.647593 0.000000
0.670370 0.654074 0.000000
0.677778 0.660556 0.000000
0.685185 0.667037 0.000000
0.692593 0.673519 0.000000
0.548037 0.570873 0.000000
0.554453 0.579695 0.000000
0.540788 0.582045 0.000000
0.550492 0.594703 0.000000
0.338797 0.350505 0.000000
0.329823 0.347064 0.000000
0.335712 0.339262 0.000000
0.451687 0.438509 0.000000
0.442642 0.430741 0.000000
0.457884 0.427703 0.000000
0.387297 0.847474 0.000000
0.374793 0.914734 0.000000
0.332869 0.847471 0.000000
0.447069 0.415163 0.000000
0.567391 0.482596 0.000000
0.554659 0.473874 0.000000
0.567453 0.464800 0.000000
0.301190 0.902112 0.000000
0.551747 0.457138 0.000000
0.356532 0.391813 0.000000
0.347986 0.386048 0.000000
0.176207 0.429241 0.000000
0.128375 0.468105 0.000000
0.136378 0.404291 0.000000
0.185621 0.475277 0.000000
0.497512 0.261165 0.000000
0.499167 0.296032 0.000000
0.469918 0.291504 0.000000
0.642232 0.687989 0.000000
0.624295 0.701188 0.000000
0.630549 0.678643 0.000000
0.647682 0.074905 0.000000
0.700945 0.096046 0.000000
0.657288 0.160421 0.000000
0.611443 0.684403 0.000000
0.559779 0.406431 0.000000
0.582162 0.394521 0.000000
0.580552 0.422827 0.000000
0.560788 0.374759 0.000000
0.541503 0.468043 0.000000
0.545465 0.480978 0.000000
0.428301 0.394826 0.000000
0.414860 0.384611 0.000000
0.432086 0.374027 0.000000
0.533961 0.477886 0.000000
0.527361 0.464336 0.000000
0.415481 0.368142 0.000000
0.484401 0.527206 0.000000
0.472984 0.524144 0.000000
0.481205 0.518972 0.000000
0.394266 0.424909 0.000000
0.401826 0.431399 0.000000
0.392742 0.434502 0.000000
0.642418 0.617836 0.000000
0.635302 0.612878 0.000000
0.644322 0.605726 0.000000
0.263646 0.464175 0.000000
0.250486 0.498376 0.000000
0.230296 0.467342 0.000000
0.491693 0.468898 0.000000
0.498004 0.479972 0.000000
0.487381 0.480785 0.000000
0.718619 0.489140 0.000000
0.756680 0.466072 0.000000
0.751564 0.516847 0.000000
0.497232 0.719177 0.000000
0.477497 0.748035 0.000000
0.465924 0.716726 0.000000
0.501292 0.467390 0.000000
0.529064 0.285755 0.000000
0.547173 0.240449 0.000000
0.474742 0.511943 0.000000
0.403118 0.392815 0.000000
0.412434 0.399392 0.000000
0.653057 0.614785 0.000000
0.659187 0.602396 0.000000
0.400247 0.379451 0.000000
0.459133 0.636583 0.000000
0.434636 0.647284 0.000000
0.440667 0.616932 0.000000
0.453650 0.664799 0.000000
0.666296 0.616100 0.000000
0.657731 0.628197 0.000000
0.420489 0.468863 0.000000
0.414183 0.459489 0.000000
0.424065 0.460120 0.000000
0.629321 0.574616 0.000000
0.630370 0.589442 0.000000
0.617226 0.584388 0.000000
0.422026 0.450877 0.000000
0.590180 0.614274 0.000000
0.596278 0.627413 0.000000
0.585881 0.628067 0.000000
0.630677 0.603443 0.000000
0.529117 0.486095 0.000000
0.517046 0.488781 0.000000
0.522040 0.477224 0.000000
0.308641 0.392803 0.000000
0.323746 0.398675 0.000000
0.304273 0.411173 0.000000
0.146020 0.514086 0.000000
0.087335 0.505198 0.000000
0.624982 0.561914 0.000000
0.643811 0.559907 0.000000
0.831909 0.406061 0.000000
0.881376 0.423788 0.000000
0.839177 0.457573 0.000000
0.509066 0.478681 0.000000
0.614792 0.620247 0.000000
0.608406 0.635616 0.000000
0.603251 0.619643 0.000000
0.640290 0.595050 0.000000
0.524731 0.497540 0.000000
0.338689 0.392113 0.000000
0.347423 0.395876 0.000000
0.340116 0.407012 0.000000
0.686563 0.659098 0.000000
0.682555 0.651347 0.000000
0.934704 0.856355 0.000000
0.940546 0.930926 0.000000
0.863552 0.916423 0.000000
0.172107 0.566287 0.000000
0.188105 0.516551 0.000000
0.221330 0.532895 0.000000
0.683914 0.680068 0.000000
0.692945 0.685712 0.000000
0.683376 0.697853 0.000000
0.672414 0.683990 0.000000
0.557147 0.529227 0.000000
0.554161 0.540325 0.000000
0.546244 0.533101 0.000000
0.391911 0.394487 0.000000
0.387591 0.383772 0.000000
0.385780 0.368800 0.000000
0.671617 0.628861 0.000000
0.664093 0.637808 0.000000
0.408700 0.450928 0.000000
0.406517 0.467364 0.000000
0.394366 0.455525 0.000000
0.388841 0.472148 0.000000
0.792728 0.486062 0.000000
0.461047 0.516036 0.000000
0.460182 0.532753 0.000000
0.450617 0.523703 0.000000
0.364207 0.398120 0.000000
0.371344 0.402923 0.000000
0.362621 0.408449 0.000000
0.235276 0.413110 0.000000
0.235915 0.390376 0.000000
0.260894 0.399649 0.000000
0.564107 0.604249 0.000000
0.558497 0.625526 0.000000
0.545610 0.611482 0.000000
0.542035 0.628852 0.000000
0.441269 0.401429 0.000000
0.443649 0.385779 0.000000
0.454140 0.398188 0.000000
0.456246 0.380948 0.000000
0.531090 0.597071 0.000000
0.528592 0.618783 0.000000
0.693800 0.600685 0.000000
0.675646 0.601117 0.000000
0.688895 0.583493 0.000000
0.466943 0.412411 0.000000
0.469666 0.393398 0.000000
0.215629 0.311290 0.000000
0.236374 0.342186 0.000000
0.194357 0.347185 0.000000
0.372859 0.289727 0.000000
0.362694 0.307734 0.000000
0.346245 0.295576 0.000000
0.824768 0.656091 0.000000
0.787989 0.680173 0.000000
0.787481 0.637866 0.000000
0.763354 0.658567 0.000000
0.564845 0.587843 0.000000
0.565674 0.575091 0.000000
0.575285 0.580662 0.000000
0.591463 0.532694 0.000000
0.606735 0.524365 0.000000
0.606700 0.541268 0.000000
0.696107 0.663701 0.000000
0.695223 0.651919 0.000000
0.114270 0.553146 0.000000
0.897846 0.490106 0.000000
0.941355 0.438159 0.000000
0.491870 0.442127 0.000000
0.508682 0.433741 0.000000
0.504276 0.453072 0.000000
0.616608 0.507977 0.000000
0.629719 0.487283 0.000000
0.643435 0.510566 0.000000
0.660659 0.486926 0.000000
0.584650 0.557787 0.000000
0.582076 0.545531 0.000000
0.595086 0.552412 0.000000
0.215445 0.494211 0.000000
0.502563 0.534321 0.000000
0.493623 0.527201 0.000000
0.502900 0.523550 0.000000
0.490744 0.536689 0.000000
0.303740 0.348241 0.000000
0.312638 0.354325 0.000000
0.302746 0.359450 0.000000
0.683727 0.548378 0.000000
0.666144 0.562133 0.000000
0.663581 0.542222 0.000000
0.366098 0.324774 0.000000
0.379406 0.309842 0.000000
0.251675 0.434611 0.000000
0.214900 0.437402 0.000000
0.581091 0.493223 0.000000
0.603283 0.484739 0.000000
0.593195 0.510449 0.000000
0.429738 0.356510 0.000000
0.412970 0.350726 0.000000
0.358920 0.356811 0.000000
0.352460 0.366146 0.000000
0.347463 0.357590 0.000000
0.353794 0.402394 0.000000
0.527483 0.436280 0.000000
0.546965 0.439869 0.000000
0.535210 0.453469 0.000000
0.624606 0.790385 0.000000
0.614250 0.755688 0.000000
0.654837 0.763041 0.000000
0.384960 0.332814 0.000000
0.619946 0.597007 0.000000
0.358705 0.265521 0.000000
0.397502 0.266486 0.000000
0.377869 0.228897 0.000000
0.471169 0.372235 0.000000
0.492664 0.362648 0.000000
0.488718 0.386734 0.000000
0.431288 0.062893 0.000000
0.512348 0.074893 0.000000
0.450325 0.128772 0.000000
0.515327 0.223180 0.000000
0.538419 0.183215 0.000000
0.367912 0.509419 0.000000
0.343175 0.515399 0.000000
0.351317 0.488263 0.000000
0.593186 0.193353 0.000000
0.476496 0.230456 0.000000
0.594140 0.256114 0.000000
0.629340 0.367381 0.000000
0.659922 0.374166 0.000000
0.641019 0.397588 0.000000
0.669525 0.412603 0.000000
0.510665 0.591750 0.000000
0.493263 0.584115 0.000000
0.507476 0.576852 0.000000
0.492575 0.790205 0.000000
0.516533 0.753914 0.000000
0.493265 0.606545 0.000000
0.794852 0.435952 0.000000
0.797754 0.379724 0.000000
0.755728 0.420083 0.000000
0.528549 0.642034 0.000000
0.507334 0.653897 0.000000
0.509532 0.626562 0.000000
0.580705 0.748031 0.000000
0.605192 0.727758 0.000000
0.748472 0.635779 0.000000
0.742539 0.660255 0.000000
0.323194 0.421808 0.000000
0.325468 0.445306 0.000000
0.301700 0.435431 0.000000
0.295276 0.460827 0.000000
0.622421 0.457821 0.000000
0.642814 0.468538 0.000000
0.320303 0.468200 0.000000
[...]
POINT_DATA 858
SCALARS UX float 1
LOOKUP_TABLE default
-0.000000
0.000000
0.024229
-0.032695
-0.016155
0.014581
0.000000
-0.000000
-0.000000
-0.000000
-0.000000
0.000000
0.000000
0.000000
-0.000000
0.013712
0.021825
0.027285
0.031444
0.034091
0.034280
0.031784
0.027944
0.025137
0.018152
0.012182
0.006639
0.001666
-0.003557
-0.009149
-0.014968
-0.020949
-0.026850
-0.033127
-0.034185
-0.035833
-0.037448
-0.038096
-0.036232
-0.031188
-0.023461
-0.014496
-0.015471
-0.014592
-0.013759
-0.013897
-0.012994
-0.012035
-0.012230
-0.011626
-0.010960
-0.010319
-0.010724
-0.009936
-0.009399
-0.008606
-0.008467
-0.007792
-0.007584
-0.007007
-0.006121
-0.005997
-0.005134
-0.004932
-0.004385
-0.003417
-0.002943
-0.003113
-0.002020
-0.001662
-0.000906
-0.000337
0.000677
0.000541
0.001522
0.002237
0.002298
0.003265
0.004155
0.004448
0.004356
0.004792
0.005802
0.006219
0.006681
0.007674
0.008222
0.008653
0.008912
0.010117
0.010417
0.010966
0.012281
0.012213
0.013604
-0.009702
-0.009154
-0.010058
-0.008936
-0.006276
-0.008482
-0.006449
0.005897
0.005015
0.006074
-0.010549
-0.010769
-0.013829
0.004982
0.012808
0.011982
0.011980
-0.015274
0.011089
-0.019759
-0.020698
-0.028441
-0.031225
-0.029608
-0.028435
0.000842
0.001789
0.000290
0.002838
0.002079
0.001166
0.001604
0.003225
0.004262
0.000073
0.008937
0.009319
0.010499
0.007553
0.011274
0.011988
0.003082
0.001887
0.002153
0.011449
0.010635
0.001079
-0.014986
-0.015635
-0.015279
-0.018433
-0.018269
-0.020117
0.017106
0.015984
0.018916
-0.024764
-0.025085
-0.026280
0.009199
0.009576
0.007315
0.019026
0.020288
0.021434
-0.005933
-0.006428
-0.007925
0.009766
0.002827
0.002448
-0.015639
0.001313
0.002143
0.019170
0.019673
0.000874
-0.011129
-0.011984
-0.012852
-0.010314
0.019979
0.018561
-0.019121
-0.019440
-0.018584
0.018143
0.018219
0.017319
-0.018134
-0.005463
-0.004525
-0.005189
0.017560
0.011538
0.010880
0.010965
-0.023187
-0.022820
-0.023374
-0.030382
-0.033488
0.017727
0.018237
0.022425
0.025843
0.024520
0.010411
-0.002319
-0.003274
-0.004003
0.018768
0.011426
-0.022141
-0.021716
-0.022384
0.017669
0.018859
0.022128
0.020998
0.016407
-0.028431
-0.028124
-0.026165
0.008189
0.010594
0.008362
0.005922
0.013721
0.011994
0.011515
0.000069
-0.000169
-0.000416
0.020025
0.017303
-0.019774
-0.019796
-0.020472
-0.020275
0.022783
-0.016360
-0.015811
-0.016480
-0.019002
-0.017731
-0.021278
-0.025796
-0.025319
-0.024769
-0.007670
-0.006820
-0.008245
-0.007428
0.004023
0.003301
0.004423
0.003559
-0.009772
-0.008640
0.020650
0.020131
0.020224
0.005744
0.004789
-0.020358
-0.022658
-0.024465
-0.005078
-0.005349
-0.006960
0.024287
0.021410
0.023672
0.021988
-0.008161
-0.006927
-0.004831
0.015713
0.015891
0.016565
0.018949
0.020208
-0.031793
0.028527
0.029584
0.008238
0.008443
0.009286
0.015533
0.015150
0.016534
0.016326
0.015354
0.015663
0.016479
-0.026881
-0.013628
-0.014315
-0.013090
-0.014369
-0.021028
-0.020625
-0.022363
0.019166
0.018972
0.018295
-0.004323
-0.004088
-0.025340
-0.026888
0.013739
0.014095
0.014873
0.001059
-0.000047
-0.003228
-0.005694
-0.004866
-0.021587
0.009230
0.010081
0.010367
0.003400
0.002651
0.005398
-0.002610
0.016157
-0.005967
-0.003839
-0.004520
0.003702
0.004123
0.005182
-0.000766
-0.000097
-0.001262
0.000927
0.001141
-0.019803
-0.020574
-0.020956
0.003066
-0.000476
0.004755
0.010310
0.012050
0.012058
0.013988
-0.010950
-0.012087
-0.011882
-0.004765
-0.003843
-0.010904
0.021404
0.019524
0.018707
-0.007345
-0.007844
-0.009111
0.000233
0.001561
0.022561
0.021425
-0.022842
-0.022580
-0.023427
-0.023458
0.013656
0.014902
-0.022442
0.001291
-0.002129
-0.001796
-0.002720
-0.026589
-0.029229
-0.033427
-0.027021
-0.024381
-0.023862
-0.006131
-0.006706
0.019660
0.020190
-0.023943
-0.023464
-0.030615
-0.026220
-0.030980
-0.033954
-0.008045
-0.018329
-0.016168
-0.017265
-0.016583
-0.003178
-0.002422
-0.027396
0.023096
0.026921
0.020591
-0.023460
-0.022987
-0.027265
-0.006761
-0.007719
-0.005416
-0.015518
-0.015049
-0.016918
-0.009139
0.022883
0.003946
0.003067
-0.022350
-0.004375
-0.002901
0.003081
0.003422
0.004503
0.005201
0.002914
0.023304
-0.009157
-0.011553
-0.007844
-0.012521
-0.013298
-0.009192
0.024423
0.019017
-0.013117
0.016582
0.016179
0.013716
-0.012574
-0.003961
-0.005767
-0.003942
0.002256
0.006021
-0.019286
-0.018064
0.003448
0.004083
0.006581
-0.026730
-0.025092
-0.009929
0.008537
0.012045
0.007662
-0.021885
-0.021976
-0.010095
-0.008974
0.017500
0.017918
-0.023339
-0.019390
-0.020356
0.025500
-0.021702
0.006062
0.006712
0.009176
0.015376
0.017092
-0.002900
-0.024285
-0.022918
-0.000995
-0.008135
-0.003633
-0.003065
-0.025242
-0.019182
-0.026558
-0.018505
-0.021099
-0.021752
-0.019004
0.021841
0.022186
0.021564
0.015581
0.016646
-0.017036
-0.016285
-0.004067
-0.002340
0.025748
0.025615
-0.017100
0.019636
0.021280
-0.020135
-0.001784
-0.003020
-0.016350
-0.015202
-0.021357
-0.020864
-0.020921
-0.020949
-0.014436
0.018811
0.019231
0.019498
-0.034499
0.011684
0.017142
0.000852
0.002016
0.000228
-0.000993
0.026428
0.027926
0.029999
0.030815
0.000034
-0.006361
-0.005935
0.004002
0.017324
0.016566
0.020132
0.019689
-0.009909
-0.011065
0.006618
0.005840
0.007089
0.006858
0.003085
0.000818
0.004375
0.005845
-0.001820
0.020738
0.021335
-0.011669
-0.009407
-0.009403
0.008905
0.008123
-0.007680
0.007477
-0.023147
-0.022313
-0.023831
-0.000081
-0.000540
-0.024180
-0.024353
-0.022834
-0.014305
-0.014449
0.021196
0.022432
-0.013670
-0.014952
-0.013348
-0.006741
-0.009211
-0.014333
-0.001755
-0.000621
-0.022772
-0.003153
-0.001806
0.004343
0.004208
-0.010243
-0.010601
-0.011350
0.009360
0.000918
0.000822
0.020522
-0.001947
-0.005156
-0.003364
-0.004179
-0.017750
-0.018519
-0.018340
0.001812
-0.020191
0.002270
0.003999
-0.001358
-0.003252
-0.007814
0.006643
0.007233
0.006316
0.014424
0.013599
-0.021744
-0.022168
0.010335
0.007401
0.009092
0.014098
-0.001448
-0.015003
-0.020755
0.007759
-0.015929
-0.017147
0.005569
-0.017207
-0.014115
0.020915
0.020472
0.004136
0.027341
-0.023051
0.010018
-0.008112
-0.014498
-0.012889
-0.006495
-0.021759
-0.016027
-0.022001
0.018778
0.014871
0.014989
0.010739
0.024888
0.015928
0.004264
-0.008384
-0.007892
-0.013634
-0.012933
-0.011750
-0.011915
-0.011711
0.007940
0.008904
0.008263
0.004597
0.004189
0.011962
0.011850
0.010759
-0.011817
0.009735
0.018636
0.006772
0.008760
0.008133
-0.011037
0.016480
0.017431
0.007102
0.014761
0.014212
0.000499
-0.015051
-0.015496
-0.015301
-0.014615
0.011277
0.009894
0.014169
-0.019787
0.010904
-0.015685
-0.009229
-0.008531
-0.014229
-0.001383
0.019137
-0.018621
-0.019143
-0.018367
-0.006574
-0.019415
0.007084
-0.006303
-0.000205
-0.021541
-0.021159
-0.012756
0.001107
-0.011965
-0.011817
-0.001695
0.023910
0.024358
-0.017041
-0.011575
-0.019626
-0.001465
0.017503
0.015242
0.021217
0.018338
-0.001658
0.022706
-0.020189
-0.019750
-0.012122
-0.018314
-0.003139
-0.005363
-0.003784
-0.016888
-0.017745
-0.002512
-0.001793
-0.018095
-0.020853
-0.000214
-0.000374
-0.019576
-0.005828
-0.021680
-0.015411
-0.014879
-0.016851
-0.006368
0.002424
0.004789
0.005978
-0.006443
-0.015855
-0.017298
-0.001499
0.016686
-0.001018
0.011150
0.010284
0.012335
0.013045
0.009621
0.011294
-0.019060
-0.018237
-0.023716
0.012908
-0.015487
-0.001148
-0.000589
0.007454
-0.022557
0.011027
-0.002852
-0.002436
0.006361
0.009524
-0.024599
-0.029738
-0.003759
0.021295
-0.008025
0.013252
0.010257
-0.031767
-0.028370
-0.022965
0.026581
0.023180
-0.015685
-0.015655
-0.017815
0.007022
-0.009040
0.018502
0.000318
-0.003762
0.018129
0.010620
-0.022348
-0.031647
0.004437
-0.002737
-0.001358
-0.003974
0.011741
0.015187
0.006401
-0.009972
-0.011957
0.015726
0.005847
-0.020909
-0.020629
-0.022149
0.006951
0.011892
-0.021104
0.013407
0.015745
-0.016092
0.019423
0.012722
-0.019064
-0.020120
0.012909
-0.021329
-0.021484
-0.016792
0.000804
-0.002285
-0.003749
0.004237
-0.008031
0.018852
-0.018568
-0.018046
-0.014178
0.010220
-0.015570
-0.011863
-0.010621
0.013463
0.012686
-0.016683
-0.017480
-0.008639
0.007471
-0.018754
0.016423
-0.013769
0.014410
0.014296
0.014372
0.015142
0.011239
0.010060
0.012103
-0.012687
0.003862
-0.003895
0.005584
-0.010440
-0.009963
0.001078
0.002096
-0.019760
-0.016367
-0.014591
0.014143
0.013991
0.002801
0.013168
0.009504
-0.013355
-0.014300
0.003210
0.012970
0.002543
-0.017630
-0.017827
0.012594
0.011076
SCALARS UY float 1
LOOKUP_TABLE default
-0.000000
-0.000000
-0.190000
-0.190000
-0.054626
-0.133792
-0.000000
-0.000000
-0.000000
-0.000000
-0.000000
-0.000000
-0.000000
-0.000000
-0.000000
-0.023833
-0.043126
-0.061387
-0.078844
-0.095560
-0.112075
-0.129300
-0.148367
-0.168925
-0.190000
-0.190000
-0.190000
-0.190000
-0.190000
-0.190000
-0.190000
-0.190000
-0.190000
-0.170290
-0.150847
-0.131891
-0.113765
-0.096774
-0.080429
-0.063869
-0.045484
-0.024856
-0.056789
-0.058840
-0.060810
-0.061434
-0.063278
-0.065166
-0.065792
-0.067377
-0.069031
-0.070785
-0.071736
-0.073018
-0.074281
-0.075895
-0.077001
-0.078356
-0.079542
-0.080998
-0.082807
-0.083564
-0.085240
-0.086150
-0.087567
-0.089553
-0.090877
-0.091497
-0.093214
-0.094345
-0.096007
-0.097316
-0.099088
-0.099383
-0.101212
-0.102752
-0.103457
-0.105359
-0.107201
-0.107946
-0.110115
-0.111227
-0.112883
-0.113686
-0.114885
-0.116898
-0.118343
-0.119849
-0.120764
-0.122938
-0.123984
-0.125629
-0.127938
-0.128693
-0.131382
-0.116823
-0.118735
-0.119020
-0.121499
-0.054767
-0.055750
-0.052440
-0.069636
-0.067918
-0.067461
-0.162442
-0.174562
-0.161950
-0.065028
-0.080373
-0.078323
-0.077389
-0.171886
-0.075416
-0.076164
-0.075229
-0.081367
-0.089402
-0.077407
-0.090045
-0.040712
-0.046656
-0.045287
-0.138648
-0.140653
-0.136942
-0.011730
-0.015684
-0.026115
-0.137616
-0.067209
-0.065937
-0.070807
-0.061805
-0.076782
-0.079100
-0.061301
-0.059399
-0.057991
-0.078115
-0.075601
-0.056757
-0.107853
-0.107063
-0.106176
-0.084384
-0.085901
-0.087444
-0.110572
-0.109544
-0.106608
-0.088087
-0.094637
-0.088376
-0.075553
-0.077910
-0.079470
-0.088538
-0.085285
-0.095083
-0.141101
-0.145804
-0.139980
-0.075373
-0.045549
-0.038142
-0.104854
-0.060982
-0.062003
-0.108986
-0.106673
-0.058500
-0.125647
-0.126846
-0.121670
-0.130449
-0.109825
-0.112582
-0.095270
-0.093266
-0.093304
-0.099582
-0.102513
-0.101298
-0.090855
-0.125285
-0.127672
-0.127742
-0.105996
-0.079382
-0.079518
-0.077568
-0.075495
-0.077636
-0.078926
-0.097778
-0.096761
-0.097066
-0.097844
-0.075480
-0.079926
-0.085491
-0.077526
-0.125475
-0.129299
-0.125876
-0.104116
-0.081463
-0.077045
-0.078084
-0.080211
-0.122938
-0.119847
-0.161160
-0.176035
-0.173902
-0.107537
-0.097989
-0.101155
-0.136022
-0.137305
-0.140336
-0.137753
-0.088426
-0.092030
-0.090192
-0.061770
-0.059686
-0.056665
-0.112910
-0.116467
-0.091338
-0.094526
-0.091825
-0.094572
-0.090060
-0.105323
-0.108133
-0.106239
-0.077785
-0.078310
-0.081427
-0.077675
-0.073140
-0.075037
-0.123512
-0.126797
-0.124160
-0.126865
-0.062633
-0.060140
-0.062408
-0.059698
-0.121308
-0.124801
-0.108952
-0.107644
-0.105269
-0.065079
-0.062078
-0.057770
-0.063548
-0.065427
-0.043586
-0.046513
-0.044509
-0.122982
-0.127755
-0.119561
-0.123647
-0.120424
-0.116668
-0.116570
-0.090181
-0.089523
-0.092488
-0.124382
-0.120363
-0.105318
-0.092527
-0.083858
-0.070691
-0.069890
-0.072948
-0.087209
-0.084248
-0.089097
-0.085688
-0.095292
-0.092196
-0.094031
-0.093627
-0.109443
-0.107929
-0.106740
-0.109777
-0.064162
-0.066160
-0.067544
-0.098285
-0.099710
-0.095933
-0.049349
-0.046938
-0.082022
-0.082523
-0.082829
-0.082491
-0.086378
-0.055169
-0.053973
-0.055073
-0.058893
-0.056235
-0.079823
-0.071007
-0.072357
-0.074127
-0.155371
-0.149635
-0.150997
-0.050755
-0.105044
-0.039718
-0.040003
-0.033940
-0.058695
-0.057717
-0.061563
-0.008979
-0.010998
-0.018816
-0.034652
-0.028400
-0.100147
-0.100242
-0.095637
-0.030917
-0.035240
-0.041811
-0.062632
-0.064808
-0.068511
-0.072266
-0.119761
-0.117899
-0.117191
-0.153562
-0.147615
-0.121608
-0.080393
-0.069606
-0.076332
-0.128625
-0.129999
-0.125471
-0.147823
-0.144809
-0.118992
-0.124237
-0.082048
-0.086549
-0.083579
-0.088237
-0.078685
-0.081512
-0.090627
-0.018197
-0.015784
-0.025382
-0.023206
-0.067692
-0.070112
-0.083235
-0.072989
-0.110906
-0.102711
-0.178952
-0.166944
-0.101841
-0.101824
-0.091901
-0.097486
-0.116700
-0.118773
-0.131124
-0.120339
-0.041330
-0.123534
-0.127819
-0.132260
-0.122281
-0.122714
-0.123343
-0.128488
-0.061536
-0.072341
-0.111552
-0.129135
-0.120330
-0.141862
-0.036205
-0.034109
-0.029902
-0.117874
-0.122283
-0.117059
-0.040408
-0.069553
-0.063964
-0.063874
-0.083754
-0.052088
-0.052677
-0.053545
-0.051377
-0.056347
-0.158889
-0.162754
-0.113454
-0.155826
-0.144906
-0.149961
-0.118382
-0.115525
-0.141959
-0.113397
-0.058670
-0.114379
-0.068361
-0.073236
-0.064200
-0.152896
-0.027816
-0.026093
-0.022468
-0.054120
-0.038487
-0.173445
-0.159435
-0.065458
-0.014299
-0.026771
-0.059969
-0.060853
-0.044073
-0.146532
-0.145009
-0.153862
-0.084230
-0.087143
-0.125431
-0.130406
-0.091446
-0.089650
-0.140221
-0.137751
-0.126718
-0.094179
-0.091061
-0.140510
-0.144383
-0.142351
-0.079589
-0.083684
-0.014964
-0.068834
-0.064780
-0.007176
-0.022725
-0.009910
-0.011545
-0.070021
-0.104612
-0.076233
-0.103819
-0.117645
-0.109299
-0.115430
-0.116530
-0.113063
-0.121445
-0.097279
-0.097032
-0.105576
-0.108069
-0.129830
-0.132221
-0.108903
-0.116379
-0.104045
-0.095756
-0.101872
-0.106573
-0.032339
-0.029978
-0.150421
-0.142289
-0.089975
-0.091689
-0.093179
-0.089325
-0.135694
-0.101751
-0.104432
-0.103497
-0.108215
-0.100108
-0.095492
-0.130805
-0.132119
-0.055898
-0.053627
-0.122090
-0.112500
-0.118953
-0.105719
-0.021077
-0.050176
-0.048343
-0.145528
-0.094575
-0.091100
-0.127394
-0.128082
-0.122490
-0.117992
-0.066238
-0.064079
-0.068501
-0.065492
-0.177624
-0.166063
-0.167508
-0.061328
-0.176084
-0.117005
-0.117911
-0.049000
-0.045590
-0.048859
-0.068974
-0.067943
-0.047863
-0.064767
-0.070031
-0.070118
-0.069651
-0.129320
-0.132302
-0.079436
-0.083964
-0.065677
-0.117034
-0.118660
-0.107517
-0.107882
-0.123601
-0.113704
-0.118004
-0.121115
-0.101572
-0.105894
-0.131215
-0.134744
-0.093771
-0.064158
-0.060761
-0.135050
-0.138284
-0.115079
-0.117045
-0.115538
-0.080511
-0.158729
-0.152613
-0.123092
-0.055665
-0.129438
-0.132429
-0.132373
-0.108401
-0.108844
-0.112079
-0.050069
-0.089306
-0.135649
-0.132311
-0.155692
-0.162724
-0.050712
-0.069273
-0.070479
-0.071046
-0.101243
-0.100289
-0.099653
-0.103206
-0.056961
-0.048250
-0.047083
-0.077074
-0.127557
-0.109564
-0.086468
-0.036827
-0.113159
-0.107847
-0.056313
-0.112638
-0.111592
-0.114717
-0.114295
-0.045363
-0.102431
-0.072785
-0.070938
-0.135267
-0.033569
-0.037242
-0.023754
-0.046179
-0.031937
-0.082009
-0.156939
-0.165472
-0.155377
-0.165438
-0.144162
-0.077115
-0.066208
-0.111618
-0.113402
-0.111652
-0.110995
-0.121743
-0.046288
-0.047948
-0.071455
-0.073358
-0.073900
-0.074244
-0.072885
-0.073880
-0.075619
-0.068117
-0.135968
-0.073181
-0.046918
-0.056055
-0.061688
-0.055582
-0.113281
-0.099794
-0.098215
-0.072924
-0.087478
-0.085177
-0.134014
-0.110415
-0.109937
-0.052919
-0.112625
-0.047221
-0.037489
-0.046441
-0.148317
-0.073760
-0.051141
-0.109830
-0.107767
-0.112367
-0.147926
-0.127664
-0.101659
-0.099122
-0.101077
-0.123271
-0.099902
-0.077681
-0.126118
-0.051514
-0.087194
-0.084468
-0.113204
-0.053326
-0.113812
-0.111651
-0.053893
-0.107870
-0.100330
-0.049200
-0.041613
-0.048079
-0.050736
-0.093741
-0.146855
-0.141703
-0.137307
-0.134988
-0.102696
-0.096802
-0.097452
-0.115436
-0.087615
-0.138318
-0.134183
-0.134935
-0.107277
-0.104376
-0.135448
-0.138840
-0.080113
-0.081966
-0.064081
-0.139274
-0.096883
-0.130486
-0.095116
-0.097394
-0.098976
-0.100842
-0.157670
-0.057024
-0.051161
-0.049861
-0.136025
-0.102703
-0.099158
-0.039727
-0.112585
-0.045186
-0.087374
-0.085850
-0.083365
-0.086208
-0.084638
-0.137773
-0.097704
-0.099466
-0.074380
-0.079605
-0.110897
-0.142591
-0.027839
-0.163119
-0.073712
-0.176864
-0.035587
-0.044069
-0.015530
-0.018188
-0.173133
-0.171782
-0.044353
-0.112991
-0.016861
-0.030449
-0.030640
-0.071485
-0.156344
-0.156010
-0.131426
-0.130398
-0.093775
-0.095982
-0.097022
-0.175336
-0.032472
-0.094286
-0.049498
-0.141101
-0.080939
-0.155822
-0.058293
-0.144918
-0.141433
-0.047475
-0.047846
-0.121230
-0.140052
-0.058493
-0.060475
-0.135246
-0.130030
-0.132790
-0.076709
-0.072485
-0.073808
-0.075229
-0.133919
-0.055051
-0.070041
-0.096693
-0.132728
-0.110136
-0.116247
-0.073129
-0.057373
-0.059766
-0.078181
-0.061437
-0.061721
-0.087755
-0.065488
-0.058826
-0.058356
-0.071298
-0.115227
-0.100789
-0.097016
-0.094860
-0.128189
-0.075432
-0.054205
-0.107229
-0.108369
-0.083026
-0.080964
-0.103174
-0.101413
-0.053862
-0.068140
-0.082635
-0.134663
-0.115582
-0.103313
-0.090703
-0.088135
-0.089685
-0.094572
-0.089850
-0.080441
-0.098952
-0.077095
-0.118661
-0.083410
-0.051768
-0.099728
-0.067767
-0.071632
-0.067248
-0.090783
-0.091237
-0.105777
-0.085860
-0.068084
-0.083443
-0.082422
-0.101454
-0.103677
-0.124259
-0.094363
-0.069412
-0.103380
-0.101768
-0.081890
-0.083515
SCALARS DAMAGE float 1
LOOKUP_TABLE default
0.999940
0.999942
0.999957
0.999962
0.000000
0.000000
0.999963
0.999971
0.999976
0.999978
0.999977
0.999975
0.999972
0.999968
0.999960
0.999952
0.999964
0.999968
0.999971
0.999972
0.999972
0.999967
0.999961
0.999957
0.999961
0.999966
0.999971
0.999972
0.999971
0.999968
0.999966
0.999964
0.999963
0.999962
0.999963
0.999965
0.999969
0.999971
0.999973
0.999968
0.999963
0.999944
-0.000000
0.000000
0.000000
0.000000
0.000000
0.000000
0.000000
0.000000
0.000000
0.000000
0.000000
0.000000
0.000000
0.000000
0.000000
0.000000
0.000000
0.000000
0.000000
0.000000
0.000000
0.000000
0.000000
0.000000
0.000000
0.000000
0.000000
0.000000
0.000000
0.000000
0.000000
0.000000
0.000000
0.000000
0.000000
0.000000
0.000000
0.000000
0.000000
0.000000
0.000000
0.000000
0.000000
0.000000
0.000000
0.000000
0.000000
0.000000
0.000000
0.000000
0.000000
0.000000
-0.000000
0.678577
0.728298
0.862975
0.890183
0.481501
0.344887
0.649600
0.685434
0.689948
0.857629
0.999967
0.999967
0.999966
0.879931
0.980443
0.977569
0.991726
0.999966
0.988730
0.443558
0.491321
0.999962
0.999966
0.999965
0.999964
0.999970
0.999947
0.999911
0.943736
0.987913
0.947266
0.999973
0.999971
0.999970
0.981990
0.999377
0.999850
0.999471
0.999909
0.970258
0.952877
0.901012
0.890089
0.970650
0.933824
0.954987
0.953429
0.820300
0.870478
0.763520
0.448048
0.444772
0.670082
0.433200
0.389606
0.708143
0.999776
0.999951
0.999946
0.748536
0.668609
0.466559
0.999949
0.999962
0.999963
0.999957
0.999968
0.999964
0.844350
0.999968
0.999971
0.751274
0.726538
0.752589
0.683864
0.868637
0.844875
0.999727
0.999924
0.999694
0.999928
0.811631
0.516064
0.798302
0.754513
0.638222
0.879388
0.761441
0.673298
0.496200
0.768697
0.834927
0.898393
0.539714
0.879053
0.775406
0.895584
0.930972
0.904121
0.978151
0.999965
0.999967
0.917983
0.970566
0.999963
0.999965
0.999964
0.807246
0.510073
0.827976
0.681258
0.790173
0.752028
0.744931
0.687485
0.869967
0.351002
0.474937
0.999960
0.999959
0.999963
0.999964
0.999963
0.999963
0.513399
0.484314
0.845180
0.747240
0.706941
0.439387
0.448520
0.544035
0.656966
0.834318
0.718169
0.392450
0.715352
0.881244
0.873489
0.957069
0.999962
0.887857
0.952095
0.948583
0.433428
0.382477
0.675738
0.999408
0.998347
0.996256
0.881077
0.967066
0.960647
0.985288
0.916150
0.966089
0.959914
0.983848
0.957835
0.987256
0.972684
0.939324
0.986293
0.955204
0.984090
0.999088
0.996302
0.999933
0.994786
0.977179
0.981057
0.999949
0.999511
0.999540
0.994387
0.717063
0.454029
0.373291
0.922764
0.971605
0.936942
0.475900
0.689629
0.999966
0.999966
0.999969
0.931601
0.978911
0.931599
0.992022
0.998458
0.997529
0.999692
0.630902
0.782378
0.823535
0.999960
0.726892
0.732585
0.541008
0.850534
0.525964
0.473279
0.729999
0.997055
0.985854
0.994912
0.955767
0.988002
0.999688
0.999920
0.981847
0.996201
0.976747
0.985928
0.977810
0.692251
0.366637
0.493451
0.703228
0.988830
0.994100
0.980939
0.999960
0.999704
1.000007
0.971007
0.462745
0.998494
0.999608
0.999957
0.994665
0.998693
0.994843
0.999977
0.999976
0.999976
0.999972
0.999972
0.997165
0.999385
0.996346
0.999971
0.999973
0.999969
0.999966
0.999965
0.999960
0.999964