# vtk DataFile Version 2.0
Test
ASCII
DATASET POLYDATA
POINTS 858 float
0.000000 0.000000 0.000000
1.000000 0.000000 0.000000
1.000000 1.000000 0.000000
0.000000 1.000000 0.000000
0.300000 0.330000 0.000000
0.700000 0.680000 0.000000
0.100000 0.000000 0.000000
0.200000 0.000000 0.000000
0.300000 0.000000 0.000000
0.400000 0.000000 0.000000
0.500000 0.000000 0.000000
0.600000 0.000000 0.000000
0.700000 0.000000 0.000000
0.800000 0.000000 0.000000
0.900000 0.000000 0.000000
1.000000 0.100000 0.000000
1.000000 0.200000 0.000000
1.000000 0.300000 0.000000
1.000000 0.400000 0.000000
1.000000 0.500000 0.000000
1.000000 0.600000 0.000000
1.000000 0.700000 0.000000
1.000000 0.800000 0.000000
1.000000 0.900000 0.000000
0.900000 1.000000 0.000000
0.800000 1.000000 0.000000
0.700000 1.000000 0.000000
0.600000 1.000000 0.000000
0.500000 1.000000 0.000000
0.400000 1.000000 0.000000
0.300000 1.000000 0.000000
0.200000 1.000000 0.000000
0.100000 1.000000 0.000000
0.000000 0.900000 0.000000
0.000000 0.800000 0.000000
0.000000 0.700000 0.000000
0.000000 0.600000 0.000000
0.000000 0.500000 0.000000
0.000000 0.400000 0.000000
0.000000 0.300000 0.000000
0.000000 0.200000 0.000000
0.000000 0.100000 0.000000
0.307407 0.336481 0.000000
0.314815 0.342963 0.000000
0.322222 0.349444 0.000000
0.329630 0.355926 0.000000
0.337037 0.362407 0.000000
0.344444 0.368889 0.000000
0.351852 0.375370 0.000000
0.359259 0.381852 0.000000
0.366667 0.388333 0.000000
0.374074 0.394815 0.000000
0.381481 0.401296 0.000000
0.388889 0.407778 0.000000
0.396296 0.414259 0.000000
0.403704 0.420741 0.000000
0.411111 0.427222 0.000000
0.418519 0.433704 0.000000
0.425926 0.440185 0.000000
0.433333 0.446667 0.000000
0.440741 0.453148 0.000000
0.448148 0.459630 0.000000
0.455556 0.466111 0.000000
0.462963 0.472593 0.000000
0.470370 0.479074 0.000000
0.477778 0.485556 0.000000
0.485185 0.492037 0.000000
0.492593 0.498519 0.000000
0.500000 0.505000 0.000000
0.507407 0.511481 0.000000
0.514815 0.517963 0.000000
0.522222 0.524444 0.000000
0.529630 0.530926 0.000000
0.537037 0.537407 0.000000
0.544444 0.543889 0.000000
0.551852 0.550370 0.000000
0.559259 0.556852 0.000000
0.566667 0.563333 0.000000
0.574074 0.569815 0.000000
0.581481 0.576296 0.000000
0.588889 0.582778 0.000000
0.596296 0.589259 0.000000
0.603704 0.595741 0.000000
0.611111 0.602222 0.000000
0.618519 0.608704 0.000000
0.625926 0.615185 0.000000
0.633333 0.621667 0.000000
0.640741 0.628148 0.000000
0.648148 0.634630 0.000000
0.655556 0.641111 0.000000
0.662963 0.647593 0.000000
0.670370 0.654074 0.000000
0.677778 0.660556 0.000000
0.685185 0.667037 0.000000
0.692593 0.673519 0.000000
0.548037 0.570873 0.000000
0.554453 0.579695 0.000000
0.540788 0.582045 0.000000
0.550492 0.594703 0.000000
0.338797 0.350505 0.000000
0.329823 0.347064 0.000000
0.335712 0.339262 0.000000
0.451687 0.438509 0.000000
0.442642 0.430741 0.000000
0.457884 0.427703 0.000000
0.387297 0.847474 0.000000
0.374793 0.914734 0.000000
0.332869 0.847471 0.000000
0.447069 0.415163 0.000000
0.567391 0.482596 0.000000
0.554659 0.473874 0.000000
0.567453 0.464800 0.000000
0.301190 0.902112 0.000000
0.551747 0.457138 0.000000
0.356532 0.391813 0.000000
0.347986 0.386048 0.000000
0.176207 0.429241 0.000000
0.128375 0.468105 0.000000
0.136378 0.404291 0.000000
0.185621 0.475277 0.000000
0.497512 0.261165 0.000000
0.499167 0.296032 0.000000
0.469918 0.291504 0.000000
0.642232 0.687989 0.000000
0.624295 0.701188 0.000000
0.630549 0.678643 0.000000
0.647682 0.074905 0.000000
0.700945 0.096046 0.000000
0.657288 0.160421 0.000000
0.611443 0.684403 0.000000
0.559779 0.406431 0.000000
0.582162 0.394521 0.000000
0.580552 0.422827 0.000000
0.560788 0.374759 0.000000
0.541503 0.468043 0.000000
0.545465 0.480978 0.000000
0.428301 0.394826 0.000000
0.414860 0.384611 0.000000
0.432086 0.374027 0.000000
0.533961 0.477886 0.000000
0.527361 0.464336 0.000000
0.415481 0.368142 0.000000
0.484401 0.527206 0.000000
0.472984 0.524144 0.000000
0.481205 0.518972 0.000000
0.394266 0.424909 0.000000
0.401826 0.431399 0.000000
0.392742 0.434502 0.000000
0.642418 0.617836 0.000000
0.635302 0.612878 0.000000
0.644322 0.605726 0.000000
0.263646 0.464175 0.000000
0.250486 0.498376 0.000000
0.230296 0.467342 0.000000
0.491693 0.468898 0.000000
0.498004 0.479972 0.000000
0.487381 0.480785 0.000000
0.718619 0.489140 0.000000
0.756680 0.466072 0.000000
0.751564 0.516847 0.000000
0.497232 0.719177 0.000000
0.477497 0.748035 0.000000
0.465924 0.716726 0.000000
0.501292 0.467390 0.000000
0.529064 0.285755 0.000000
0.547173 0.240449 0.000000
0.474742 0.511943 0.000000
0.403118 0.392815 0.000000
0.412434 0.399392 0.000000
0.653057 0.614785 0.000000
0.659187 0.602396 0.000000
0.400247 0.379451 0.000000
0.459133 0.636583 0.000000
0.434636 0.647284 0.000000
0.440667 0.616932 0.000000
0.453650 0.664799 0.000000
0.666296 0.616100 0.000000
0.657731 0.628197 0.000000
0.420489 0.468863 0.000000
0.414183 0.459489 0.000000
0.424065 0.460120 0.000000
0.629321 0.574616 0.000000
0.630370 0.589442 0.000000
0.617226 0.584388 0.000000
0.422026 0.450877 0.000000
0.590180 0.614274 0.000000
0.596278 0.627413 0.000000
0.585881 0.628067 0.000000
0.630677 0.603443 0.000000
0.529117 0.486095 0.000000
0.517046 0.488781 0.000000
0.522040 0.477224 0.000000
0.308641 0.392803 0.000000
0.323746 0.398675 0.000000
0.304273 0.411173 0.000000
0.146020 0.514086 0.000000
0.087335 0.505198 0.000000
0.624982 0.561914 0.000000
0.643811 0.559907 0.000000
0.831909 0.406061 0.000000
0.881376 0.423788 0.000000
0.839177 0.457573 0.000000
0.509066 0.478681 0.000000
0.614792 0.620247 0.000000
0.608406 0.635616 0.000000
0.603251 0.619643 0.000000
0.640290 0.595050 0.000000
0.524731 0.497540 0.000000
0.338689 0.392113 0.000000
0.347423 0.395876 0.000000
0.340116 0.407012 0.000000
0.686563 0.659098 0.000000
0.682555 0.651347 0.000000
0.934704 0.856355 0.000000
0.940546 0.930926 0.000000
0.863552 0.916423 0.000000
0.172107 0.566287 0.000000
0.188105 0.516551 0.000000
0.221330 0.532895 0.000000
0.683914 0.680068 0.000000
0.692945 0.685712 0.000000
0.683376 0.697853 0.000000
0.672414 0.683990 0.000000
0.557147 0.529227 0.000000
0.554161 0.540325 0.000000
0.546244 0.533101 0.000000
0.391911 0.394487 0.000000
0.387591 0.383772 0.000000
0.385780 0.368800 0.000000
0.671617 0.628861 0.000000
0.664093 0.637808 0.000000
0.408700 0.450928 0.000000
0.406517 0.467364 0.000000
0.394366 0.455525 0.000000
0.388841 0.472148 0.000000
0.792728 0.486062 0.000000
0.461047 0.516036 0.000000
0.460182 0.532753 0.000000
0.450617 0.523703 0.000000
0.364207 0.398120 0.000000
0.371344 0.402923 0.000000
0.362621 0.408449 0.000000
0.235276 0.413110 0.000000
0.235915 0.390376 0.000000
0.260894 0.399649 0.000000
0.564107 0.604249 0.000000
0.558497 0.625526 0.000000
0.545610 0.611482 0.000000
0.542035 0.628852 0.000000
0.441269 0.401429 0.000000
0.443649 0.385779 0.000000
0.454140 0.398188 0.000000
0.456246 0.380948 0.000000
0.531090 0.597071 0.000000
0.528592 0.618783 0.000000
0.693800 0.600685 0.000000
0.675646 0.601117 0.000000
0.688895 0.583493 0.000000
0.466943 0.412411 0.000000
0.469666 0.393398 0.000000
0.215629 0.311290 0.000000
0.236374 0.342186 0.000000
0.194357 0.347185 0.000000
0.372859 0.289727 0.000000
0.362694 0.307734 0.000000
0.346245 0.295576 0.000000
0.824768 0.656091 0.000000
0.787989 0.680173 0.000000
0.787481 0.637866 0.000000
0.763354 0.658567 0.000000
0.564845 0.587843 0.000000
0.565674 0.575091 0.000000
0.575285 0.580662 0.000000
0.591463 0.532694 0.000000
0.606735 0.524365 0.000000
0.606700 0.541268 0.000000
0.696107 0.663701 0.000000
0.695223 0.651919 0.000000
0.114270 0.553146 0.000000
0.897846 0.490106 0.000000
0.941355 0.438159 0.000000
0.491870 0.442127 0.000000
0.508682 0.433741 0.000000
0.504276 0.453072 0.000000
0.616608 0.507977 0.000000
0.629719 0.487283 0.000000
0.643435 0.510566 0.000000
0.660659 0.486926 0.000000
0.584650 0.557787 0.000000
0.582076 0.545531 0.000000
0.595086 0.552412 0.000000
0.215445 0.494211 0.000000
0.502563 0.534321 0.000000
0.493623 0.527201 0.000000
0.502900 0.523550 0.000000
0.490744 0.536689 0.000000
0.303740 0.348241 0.000000
0.312638 0.354325 0.000000
0.302746 0.359450 0.000000
0.683727 0.548378 0.000000
0.666144 0.562133 0.000000
0.663581 0.542222 0.000000
0.366098 0.324774 0.000000
0.379406 0.309842 0.000000
0.251675 0.434611 0.000000
0.214900 0.437402 0.000000
0.581091 0.493223 0.000000
0.603283 0.484739 0.000000
0.593195 0.510449 0.000000
0.429738 0.356510 0.000000
0.412970 0.350726 0.000000
0.358920 0.356811 0.000000
0.352460 0.366146 0.000000
0.347463 0.357590 0.000000
0.353794 0.402394 0.000000
0.527483 0.436280 0.000000
0.546965 0.439869 0.000000
0.535210 0.453469 0.000000
0.624606 0.790385 0.000000
0.614250 0.755688 0.000000
0.654837 0.763041 0.000000
0.384960 0.332814 0.000000
0.619946 0.597007 0.000000
0.358705 0.265521 0.000000
0.397502 0.266486 0.000000
0.377869 0.228897 0.000000
0.471169 0.372235 0.000000
0.492664 0.362648 0.000000
0.488718 0.386734 0.000000
0.431288 0.062893 0.000000
0.512348 0.074893 0.000000
0.450325 0.128772 0.000000
0.515327 0.223180 0.000000
0.538419 0.183215 0.000000
0.367912 0.509419 0.000000
0.343175 0.515399 0.000000
0.351317 0.488263 0.000000
0.593186 0.193353 0.000000
0.476496 0.230456 0.000000
0.594140 0.256114 0.000000
0.629340 0.367381 0.000000
0.659922 0.374166 0.000000
0.641019 0.397588 0.000000
0.669525 0.412603 0.000000
0.510665 0.591750 0.000000
0.493263 0.584115 0.000000
0.507476 0.576852 0.000000
0.492575 0.790205 0.000000
0.516533 0.753914 0.000000
0.493265 0.606545 0.000000
0.794852 0.435952 0.000000
0.797754 0.379724 0.000000
0.755728 0.420083 0.000000
0.528549 0.642034 0.000000
0.507334 0.653897 0.000000
0.509532 0.626562 0.000000
0.580705 0.748031 0.000000
0.605192 0.727758 0.000000
0.748472 0.635779 0.000000
0.742539 0.660255 0.000000
0.323194 0.421808 0.000000
0.325468 0.445306 0.000000
0.301700 0.435431 0.000000
0.295276 0.460827 0.000000
0.622421 0.457821 0.000000
0.642814 0.468538 0.000000
0.320303 0.468200 0.000000
[...]
POINT_DATA 858
SCALARS UX float 1
LOOKUP_TABLE default
-0.000000
0.000000
0.070143
-0.094651
-0.046732
0.042186
0.000000
-0.000000
-0.000000
-0.000000
-0.000000
0.000000
0.000000
0.000000
-0.000000
0.039693
0.063171
0.078971
0.091001
0.098663
0.099217
0.091996
0.080885
0.072771
0.052552
0.035269
0.019227
0.004828
-0.010294
-0.026484
-0.043333
-0.060649
-0.077732
-0.095899
-0.098954
-0.103715
-0.108374
-0.110234
-0.104837
-0.090254
-0.067906
-0.041965
-0.044750
-0.042206
-0.039797
-0.040193
-0.037579
-0.034807
-0.035368
-0.033626
-0.031714
-0.029876
-0.031068
-0.028768
-0.027181
-0.024896
-0.024438
-0.022414
-0.021775
-0.020205
-0.017701
-0.017337
-0.014857
-0.014287
-0.012712
-0.009921
-0.008574
-0.009050
-0.005908
-0.004966
-0.002664
-0.001072
0.001890
0.001511
0.004358
0.006431
0.006611
0.009410
0.011991
0.012831
0.012497
0.013772
0.016680
0.017836
0.019212
0.022156
0.023741
0.024982
0.025758
0.029256
0.030155
0.031702
0.035557
0.035338
0.039352
-0.028052
-0.026467
-0.029086
-0.025845
-0.018164
-0.024541
-0.018667
0.016914
0.014391
0.017482
-0.030537
-0.031175
-0.040033
0.014334
0.037012
0.034616
0.034617
-0.044216
0.032033
-0.057059
-0.059794
-0.082272
-0.090335
-0.085655
-0.082256
0.002432
0.005167
0.000831
0.008225
0.006026
0.003386
0.004644
0.009337
0.012335
0.000224
0.025821
0.026935
0.030342
0.021826
0.032564
0.034629
0.008871
0.005427
0.006198
0.033066
0.030711
0.003093
-0.043315
-0.045190
-0.044153
-0.053164
-0.052697
-0.058083
0.049516
0.046263
0.054770
-0.071615
-0.072554
-0.076013
0.026530
0.027619
0.021070
0.055039
0.058694
0.062014
-0.017164
-0.018599
-0.022930
0.028178
0.008170
0.007080
-0.045186
0.003761
0.006161
0.055496
0.056947
0.002493
-0.032198
-0.034674
-0.037180
-0.029841
0.057838
0.053732
-0.055253
-0.056138
-0.053679
0.052486
0.052719
0.050107
-0.052312
-0.015815
-0.013091
-0.015011
0.050850
0.033319
0.031412
0.031660
-0.067032
-0.065962
-0.067573
-0.087900
-0.096892
0.051277
0.052754
0.064889
0.074783
0.070953
0.030053
-0.006698
-0.009459
-0.011585
0.054318
0.032986
-0.063988
-0.062748
-0.064687
0.051180
0.054640
0.064057
0.060788
0.047499
-0.082262
-0.081362
-0.075691
0.023722
0.030679
0.024198
0.017152
0.039661
0.034664
0.033273
0.000147
-0.000530
-0.001230
0.057978
0.050087
-0.057078
-0.057195
-0.059132
-0.058592
0.065923
-0.047286
-0.045710
-0.047644
-0.054854
-0.051224
-0.061427
-0.074608
-0.073229
-0.071629
-0.022185
-0.019727
-0.023846
-0.021486
0.011570
0.009506
0.012737
0.010255
-0.028264
-0.024990
0.059767
0.058270
0.058525
0.016551
0.013806
-0.058900
-0.065544
-0.070775
-0.014701
-0.015484
-0.020144
0.070285
0.061949
0.068509
0.063625
-0.023599
-0.019992
-0.013923
0.045438
0.045953
0.047906
0.054825
0.058461
-0.091991
0.082556
0.085616
0.023758
0.024366
0.026796
0.044915
0.043807
0.047814
0.047214
0.044405
0.045298
0.047658
-0.077756
-0.039388
-0.041369
-0.037812
-0.041538
-0.060815
-0.059640
-0.064666
0.055446
0.054888
0.052920
-0.012519
-0.011837
-0.073284
-0.077771
0.039713
0.040748
0.043001
0.003041
-0.000156
-0.009352
-0.016480
-0.014086
-0.062374
0.026653
0.029120
0.029941
0.009846
0.007681
0.015629
-0.007565
0.046779
-0.017270
-0.011115
-0.013083
0.010676
0.011899
0.014951
-0.002218
-0.000280
-0.003652
0.002681
0.003303
-0.057261
-0.059495
-0.060584
0.008872
-0.001380
0.013753
0.029811
0.034847
0.034868
0.040452
-0.031670
-0.034959
-0.034363
-0.013786
-0.011116
-0.031541
0.061929
0.056491
0.054120
-0.021244
-0.022692
-0.026355
0.000684
0.004527
0.065299
0.061989
-0.066022
-0.065266
-0.067727
-0.067824
0.039480
0.043089
-0.064880
0.003738
-0.006162
-0.005198
-0.007875
-0.076923
-0.084567
-0.096712
-0.078162
-0.070539
-0.069025
-0.017747
-0.019410
0.056885
0.058418
-0.069239
-0.067863
-0.088594
-0.075872
-0.089663
-0.098263
-0.023284
-0.053037
-0.046785
-0.049965
-0.047982
-0.009220
-0.007014
-0.079288
0.066840
0.077906
0.059611
-0.067894
-0.066515
-0.078920
-0.019568
-0.022341
-0.015678
-0.044895
-0.043542
-0.048947
-0.026448
0.066216
0.011328
0.008819
-0.064586
-0.012668
-0.008406
0.008895
0.009885
0.013004
0.015061
0.008443
0.067446
-0.026502
-0.033435
-0.022701
-0.036217
-0.038460
-0.026600
0.070683
0.055030
-0.037934
0.047972
0.046799
0.039674
-0.036394
-0.011465
-0.016694
-0.011413
0.006505
0.017420
-0.055832
-0.052291
0.009867
0.011820
0.019045
-0.077346
-0.072599
-0.028732
0.024708
0.034858
0.022182
-0.063226
-0.063502
-0.029204
-0.025963
0.050615
0.051828
-0.067552
-0.056118
-0.058906
0.073790
-0.062727
0.017548
0.019425
0.026550
0.044467
0.049436
-0.008397
-0.070235
-0.066286
-0.002883
-0.023549
-0.010518
-0.008875
-0.073010
-0.055477
-0.076818
-0.053512
-0.061047
-0.062926
-0.054979
0.063220
0.064211
0.062401
0.045050
0.048141
-0.049257
-0.047087
-0.011758
-0.006758
0.074515
0.074132
-0.049433
0.056806
0.061573
-0.058242
-0.005165
-0.008744
-0.047325
-0.043999
-0.061713
-0.060282
-0.060466
-0.060515
-0.041777
0.054428
0.055659
0.056422
-0.099829
0.033793
0.049581
0.002460
0.005836
0.000634
-0.002892
0.076485
0.080820
0.086824
0.089183
0.000101
-0.018412
-0.017180
0.011587
0.050106
0.047908
0.058213
0.056950
-0.028662
-0.031999
0.019085
0.016842
0.020427
0.019790
0.008938
0.002375
0.012671
0.016875
-0.005265
0.060054
0.061772
-0.033763
-0.027225
-0.027209
0.025719
0.023454
-0.022228
0.021594
-0.066929
-0.064512
-0.068914
-0.000240
-0.001554
-0.069913
-0.070420
-0.066032
-0.041379
-0.041801
0.061338
0.064915
-0.039552
-0.043246
-0.038610
-0.019496
-0.026549
-0.041413
-0.005069
-0.001786
-0.065848
-0.009165
-0.005261
0.012594
0.012190
-0.029619
-0.030654
-0.032821
0.027013
0.002665
0.002387
0.059311
-0.005650
-0.014911
-0.009724
-0.012082
-0.051340
-0.053567
-0.053055
0.005230
-0.058299
0.006582
0.011570
-0.003923
-0.009409
-0.022614
0.019108
0.020823
0.018137
0.041687
0.039276
-0.062884
-0.064120
0.029892
0.021408
0.026303
0.040767
-0.004175
-0.043374
-0.059935
0.022453
-0.046075
-0.049589
0.016091
-0.049776
-0.040810
0.060552
0.059282
0.011958
0.079124
-0.066644
0.028944
-0.023470
-0.041964
-0.037302
-0.018801
-0.062973
-0.046391
-0.063557
0.054356
0.043050
0.043388
0.031090
0.072037
0.046070
0.012220
-0.024244
-0.022816
-0.039422
-0.037395
-0.033992
-0.034476
-0.033888
0.022879
0.025680
0.023811
0.013131
0.011890
0.034576
0.034246
0.031102
-0.034195
0.028104
0.053935
0.019576
0.025324
0.023516
-0.031916
0.047667
0.050422
0.020428
0.042676
0.041081
0.001454
-0.043517
-0.044808
-0.044266
-0.042264
0.032628
0.028632
0.041004
-0.057273
0.031505
-0.045384
-0.026691
-0.024677
-0.041146
-0.003994
0.055320
-0.053839
-0.055341
-0.053100
-0.019026
-0.056133
0.020397
-0.018237
-0.000608
-0.062230
-0.061103
-0.036888
0.003185
-0.034601
-0.034170
-0.004921
0.069193
0.070486
-0.049310
-0.033497
-0.056793
-0.004254
0.050623
0.044112
0.061406
0.053063
-0.004784
0.065705
-0.058363
-0.057089
-0.035057
-0.052805
-0.009074
-0.015510
-0.010941
-0.048837
-0.051310
-0.007257
-0.005176
-0.052283
-0.060200
-0.000663
-0.001072
-0.056580
-0.016857
-0.062682
-0.044515
-0.042967
-0.048699
-0.018428
0.006983
0.013842
0.017287
-0.018639
-0.045818
-0.049990
-0.004343
0.048292
-0.002954
0.032193
0.029679
0.035628
0.037692
0.027745
0.032675
-0.055096
-0.052716
-0.068571
0.037307
-0.044786
-0.003313
-0.001705
0.021582
-0.065210
0.031927
-0.008257
-0.007056
0.018414
0.027567
-0.071214
-0.086091
-0.010884
0.061636
-0.023231
0.038356
0.029685
-0.091916
-0.082124
-0.066479
0.076930
0.067082
-0.045313
-0.045225
-0.051484
0.020335
-0.026164
0.053520
0.000908
-0.010880
0.052443
0.030741
-0.064660
-0.091604
0.012849
-0.007930
-0.003939
-0.011514
0.033970
0.043938
0.018491
-0.028855
-0.034597
0.045473
0.016802
-0.060433
-0.059610
-0.064018
0.020145
0.034403
-0.061010
0.038764
0.045524
-0.046539
0.056240
0.036782
-0.055153
-0.058205
0.037316
-0.061691
-0.062151
-0.048363
0.002262
-0.006635
-0.010861
0.011969
-0.023207
0.054544
-0.053667
-0.052148
-0.041027
0.029503
-0.045042
-0.034284
-0.030717
0.038908
0.036654
-0.048221
-0.050525
-0.024997
0.021549
-0.054120
0.047511
-0.039823
0.041675
0.041334
0.041551
0.043783
0.032483
0.029050
0.034957
-0.036623
0.011049
-0.011295
0.016087
-0.030208
-0.028752
0.003018
0.005744
-0.057133
-0.047270
-0.042157
0.040910
0.040439
0.007938
0.038049
0.027418
-0.038579
-0.041292
0.009311
0.037497
0.007109
-0.050971
-0.051534
0.036382
0.031971
SCALARS UY float 1
LOOKUP_TABLE default
-0.000000
-0.000000
-0.550000
-0.550000
-0.158135
-0.387318
-0.000000
-0.000000
-0.000000
-0.000000
-0.000000
-0.000000
-0.000000
-0.000000
-0.000000
-0.068985
-0.124827
-0.177686
-0.228224
-0.276621
-0.324436
-0.374299
-0.429488
-0.488990
-0.550000
-0.550000
-0.550000
-0.550000
-0.550000
-0.550000
-0.550000
-0.550000
-0.550000
-0.492945
-0.436668
-0.381803
-0.329335
-0.280140
-0.232809
-0.184868
-0.131652
-0.071954
-0.164394
-0.170329
-0.176029
-0.177841
-0.183178
-0.188643
-0.190462
-0.195047
-0.199827
-0.204906
-0.207660
-0.211400
-0.215080
-0.219703
-0.222868
-0.226861
-0.230299
-0.234410
-0.239605
-0.241846
-0.246708
-0.249366
-0.253474
-0.259228
-0.263055
-0.264879
-0.269890
-0.273095
-0.278004
-0.281699
-0.286840
-0.287694
-0.292983
-0.297439
-0.299479
-0.304985
-0.310323
-0.312495
-0.318762
-0.322017
-0.326821
-0.329133
-0.332610
-0.338472
-0.342624
-0.346962
-0.349604
-0.355881
-0.358925
-0.363641
-0.370386
-0.372552
-0.380330
-0.338110
-0.343653
-0.344473
-0.351656
-0.158567
-0.161405
-0.151832
-0.201642
-0.196686
-0.195321
-0.470209
-0.505303
-0.468787
-0.188275
-0.232649
-0.226719
-0.224012
-0.497555
-0.218306
-0.220394
-0.217708
-0.235528
-0.258791
-0.224066
-0.260651
-0.117860
-0.135067
-0.131110
-0.401340
-0.407139
-0.396398
-0.033956
-0.045399
-0.075592
-0.398345
-0.194547
-0.190861
-0.204958
-0.178904
-0.222264
-0.228971
-0.177492
-0.171997
-0.167904
-0.226123
-0.218851
-0.164340
-0.312133
-0.309846
-0.307275
-0.244176
-0.248544
-0.253061
-0.320062
-0.317088
-0.308575
-0.254975
-0.273941
-0.255816
-0.218746
-0.225563
-0.230089
-0.256286
-0.246870
-0.275237
-0.408412
-0.422030
-0.405166
-0.218211
-0.131857
-0.110413
-0.303448
-0.176591
-0.179545
-0.315458
-0.308768
-0.169391
-0.363664
-0.367142
-0.352153
-0.377570
-0.317892
-0.325875
-0.275700
-0.269925
-0.269997
-0.288226
-0.296701
-0.293179
-0.262938
-0.362622
-0.369545
-0.369739
-0.306767
-0.229793
-0.230196
-0.224549
-0.218512
-0.224706
-0.228447
-0.283039
-0.280098
-0.280947
-0.283205
-0.218487
-0.231358
-0.247468
-0.224447
-0.363226
-0.374274
-0.364347
-0.301357
-0.235815
-0.222986
-0.225985
-0.232155
-0.355875
-0.346919
-0.466513
-0.509574
-0.503400
-0.311289
-0.283647
-0.292810
-0.393726
-0.397454
-0.406222
-0.398751
-0.255972
-0.266406
-0.261090
-0.178862
-0.172821
-0.164075
-0.326827
-0.337136
-0.264358
-0.273582
-0.265767
-0.273725
-0.260695
-0.304803
-0.312946
-0.307459
-0.225039
-0.226580
-0.235691
-0.224836
-0.211706
-0.217189
-0.357490
-0.366999
-0.359361
-0.367194
-0.181328
-0.174116
-0.180681
-0.172835
-0.351099
-0.361214
-0.315372
-0.311583
-0.304711
-0.188411
-0.179718
-0.167229
-0.183959
-0.189387
-0.126203
-0.134677
-0.128873
-0.356003
-0.369823
-0.346100
-0.357932
-0.348548
-0.337658
-0.337349
-0.261032
-0.259125
-0.267703
-0.360090
-0.348457
-0.304869
-0.267841
-0.242741
-0.204657
-0.202324
-0.211186
-0.252428
-0.243860
-0.257893
-0.248029
-0.275818
-0.266867
-0.272168
-0.271018
-0.316737
-0.312352
-0.308914
-0.317706
-0.185718
-0.191495
-0.195498
-0.284496
-0.288616
-0.277682
-0.142890
-0.135909
-0.237416
-0.238874
-0.239756
-0.238774
-0.250027
-0.159736
-0.156276
-0.159465
-0.170511
-0.162820
-0.231013
-0.205551
-0.209452
-0.214581
-0.449740
-0.433135
-0.437081
-0.146963
-0.303994
-0.115001
-0.115826
-0.098270
-0.169924
-0.167086
-0.178221
-0.025996
-0.031838
-0.054476
-0.100314
-0.082214
-0.289867
-0.290152
-0.276822
-0.089495
-0.102025
-0.121027
-0.181292
-0.187592
-0.198311
-0.209180
-0.346616
-0.341224
-0.339172
-0.444492
-0.427274
-0.351967
-0.232707
-0.201482
-0.220952
-0.372286
-0.376266
-0.363154
-0.427883
-0.419163
-0.344457
-0.359652
-0.237483
-0.250517
-0.241921
-0.255407
-0.227759
-0.235941
-0.262325
-0.052677
-0.045699
-0.073489
-0.067190
-0.195943
-0.202948
-0.240940
-0.211278
-0.321033
-0.297310
-0.518011
-0.483243
-0.294788
-0.294743
-0.266017
-0.282183
-0.337817
-0.343812
-0.379573
-0.348360
-0.119666
-0.357575
-0.369972
-0.382836
-0.353937
-0.355180
-0.357013
-0.371937
-0.178123
-0.209400
-0.322891
-0.373801
-0.348312
-0.410652
-0.104826
-0.098753
-0.086579
-0.341171
-0.353938
-0.338822
-0.116989
-0.201328
-0.185169
-0.184945
-0.242421
-0.150820
-0.152527
-0.155008
-0.148728
-0.163114
-0.459928
-0.471113
-0.328423
-0.451051
-0.419436
-0.434067
-0.342627
-0.334351
-0.410899
-0.328257
-0.169821
-0.331029
-0.197879
-0.211991
-0.185830
-0.442576
-0.080541
-0.075546
-0.065054
-0.156682
-0.111404
-0.502072
-0.461510
-0.189462
-0.041391
-0.077491
-0.173588
-0.176147
-0.127599
-0.424165
-0.419770
-0.445381
-0.243797
-0.252233
-0.363037
-0.377444
-0.264696
-0.259499
-0.405895
-0.398739
-0.366800
-0.272622
-0.263576
-0.406729
-0.417935
-0.412061
-0.230375
-0.242232
-0.043326
-0.199233
-0.187514
-0.020777
-0.065788
-0.028689
-0.033423
-0.202688
-0.302792
-0.220667
-0.300484
-0.340533
-0.316374
-0.334113
-0.337320
-0.327287
-0.351580
-0.281568
-0.280847
-0.305546
-0.312766
-0.375794
-0.382727
-0.315249
-0.336889
-0.301103
-0.277178
-0.294889
-0.308478
-0.093630
-0.086797
-0.435415
-0.411868
-0.260427
-0.265381
-0.269702
-0.258531
-0.392769
-0.294515
-0.302279
-0.299577
-0.313262
-0.289800
-0.276390
-0.378645
-0.382453
-0.161854
-0.155277
-0.353422
-0.325662
-0.344343
-0.306030
-0.061017
-0.145280
-0.139973
-0.421250
-0.273740
-0.263687
-0.368829
-0.370777
-0.354521
-0.341492
-0.191761
-0.185509
-0.198321
-0.189592
-0.514166
-0.480693
-0.484878
-0.177533
-0.509707
-0.338651
-0.341288
-0.141861
-0.131996
-0.141458
-0.199661
-0.196680
-0.138581
-0.187484
-0.202694
-0.202948
-0.201591
-0.374358
-0.382971
-0.229926
-0.243036
-0.190090
-0.338731
-0.343443
-0.311225
-0.312289
-0.357748
-0.329086
-0.341534
-0.350570
-0.293896
-0.306450
-0.379823
-0.390033
-0.271429
-0.185752
-0.175928
-0.390930
-0.400292
-0.333060
-0.338752
-0.334386
-0.233108
-0.459456
-0.441751
-0.356418
-0.161180
-0.374648
-0.383316
-0.383148
-0.313750
-0.315042
-0.324409
-0.144951
-0.258453
-0.392658
-0.382998
-0.450663
-0.471024
-0.146826
-0.200570
-0.204063
-0.205728
-0.293068
-0.290315
-0.288452
-0.298738
-0.164877
-0.139660
-0.136282
-0.223094
-0.369246
-0.317091
-0.250254
-0.106597
-0.327518
-0.312136
-0.163010
-0.326019
-0.322962
-0.332044
-0.330829
-0.131311
-0.296513
-0.210667
-0.205339
-0.391519
-0.097173
-0.107808
-0.068769
-0.133671
-0.092445
-0.237365
-0.454301
-0.478996
-0.449776
-0.478895
-0.417315
-0.223219
-0.191681
-0.323043
-0.328206
-0.323133
-0.321226
-0.352361
-0.134004
-0.138816
-0.206883
-0.212387
-0.213971
-0.215031
-0.211128
-0.213849
-0.218887
-0.197168
-0.393554
-0.211850
-0.135806
-0.162260
-0.178561
-0.160888
-0.327849
-0.288844
-0.284266
-0.211160
-0.253215
-0.246556
-0.387924
-0.319556
-0.318175
-0.153201
-0.325958
-0.136682
-0.108513
-0.134423
-0.429328
-0.213509
-0.148047
-0.317867
-0.311899
-0.325207
-0.428180
-0.369662
-0.294222
-0.286877
-0.292520
-0.356794
-0.289149
-0.224927
-0.365032
-0.149153
-0.252376
-0.244478
-0.327624
-0.154392
-0.329383
-0.323125
-0.156049
-0.312258
-0.290428
-0.142420
-0.120467
-0.139175
-0.146904
-0.271333
-0.425110
-0.410196
-0.397475
-0.390732
-0.297277
-0.280183
-0.282057
-0.334087
-0.253526
-0.400361
-0.388382
-0.390564
-0.310479
-0.302079
-0.392057
-0.401877
-0.231816
-0.237201
-0.185585
-0.403138
-0.280403
-0.377678
-0.275316
-0.281821
-0.286398
-0.291819
-0.456390
-0.165096
-0.148097
-0.144328
-0.393713
-0.297205
-0.286936
-0.115021
-0.325889
-0.130826
-0.252929
-0.248521
-0.241320
-0.249550
-0.245008
-0.398810
-0.282755
-0.287836
-0.215285
-0.230423
-0.320955
-0.412735
-0.080596
-0.472179
-0.213345
-0.511973
-0.103037
-0.127597
-0.044951
-0.052646
-0.501173
-0.497261
-0.128422
-0.327063
-0.048811
-0.088136
-0.088689
-0.206920
-0.452572
-0.451600
-0.380448
-0.377473
-0.271336
-0.277728
-0.280747
-0.507547
-0.094007
-0.272920
-0.143307
-0.408414
-0.234289
-0.451060
-0.168738
-0.419504
-0.409401
-0.137464
-0.138533
-0.350892
-0.405423
-0.169312
-0.175058
-0.391459
-0.376360
-0.384402
-0.222122
-0.209784
-0.213603
-0.217729
-0.387651
-0.159345
-0.202718
-0.279898
-0.384219
-0.318759
-0.336506
-0.211676
-0.166089
-0.173023
-0.226300
-0.177839
-0.178674
-0.253978
-0.189661
-0.170327
-0.168965
-0.206588
-0.333483
-0.291732
-0.280737
-0.274475
-0.371035
-0.218375
-0.156918
-0.310337
-0.313620
-0.240331
-0.234364
-0.298575
-0.293474
-0.155938
-0.197264
-0.239130
-0.389828
-0.334520
-0.299042
-0.262560
-0.255123
-0.259602
-0.273762
-0.260099
-0.232855
-0.286330
-0.223250
-0.343459
-0.241495
-0.149876
-0.288607
-0.196262
-0.207619
-0.194642
-0.262675
-0.263977
-0.306158
-0.248537
-0.196971
-0.241544
-0.238600
-0.293611
-0.300031
-0.359684
-0.273156
-0.201073
-0.299184
-0.294510
-0.237047
-0.241756
SCALARS DAMAGE float 1
LOOKUP_TABLE default
0.999385
0.999410
0.999555
0.999608
0.000000
0.000000
0.999618
0.999698
0.999751
0.999775
0.999767
0.999745
0.999710
0.999674
0.999595
0.999507
0.999628
0.999673
0.999699
0.999710
0.999710
0.999658
0.999596
0.999559
0.999605
0.999648
0.999699
0.999717
0.999700
0.999673
0.999652
0.999635
0.999623
0.999607
0.999624
0.999646
0.999682
0.999708
0.999724
0.999677
0.999620
0.999427
-0.000000
0.000000
0.000000
0.000000
0.000000
0.000000
0.000000
0.000000
0.000000
0.000000
0.000000
0.000000
0.000000
0.000000
0.000000
0.000000
0.000000
0.000000
0.000000
0.000000
0.000000
0.000000
0.000000
0.000000
0.000000
0.000000
0.000000
0.000000
0.000000
0.000000
0.000000
0.000000
0.000000
0.000000
0.000000
0.000000
0.000000
0.000000
0.000000
0.000000
0.000000
0.000000
0.000000
0.000000
0.000000
0.000000
0.000000
0.000000
0.000000
0.000000
0.000000
0.000000
-0.000000
0.678410
0.728118
0.862773
0.889973
0.481393
0.344814
0.649452
0.685266
0.689780
0.857431
0.999660
0.999663
0.999650
0.879731
0.980192
0.977324
0.991469
0.999647
0.988480
0.443426
0.491170
0.999627
0.999649
0.999644
0.999624
0.999708
0.999682
0.999652
0.943494
0.987654
0.947029
0.999720
0.999703
0.999691
0.981739
0.999107
0.999568
0.999194
0.999632
0.970019
0.952643
0.900811
0.889891
0.970429
0.933597
0.954756
0.953215
0.820087
0.870259
0.763313
0.447913
0.444642
0.669894
0.433071
0.389488
0.707934
0.999416
0.999599
0.999589
0.748338
0.668417
0.466411
0.999606
0.999614
0.999608
0.999670
0.999675
0.999670
0.844141
0.999695
0.999701
0.751073
0.726369
0.752416
0.683659
0.868378
0.844683
0.999448
0.999633
0.999414
0.999640
0.811379
0.515899
0.798094
0.754310
0.638045
0.879148
0.761229
0.673108
0.496049
0.768504
0.834725
0.898180
0.539548
0.878837
0.775209
0.895367
0.930633
0.903821
0.977796
0.999637
0.999664
0.917734
0.970289
0.999626
0.999643
0.999629
0.807042
0.509937
0.827776
0.681086
0.789948
0.751833
0.744702
0.687278
0.869700
0.350877
0.474769
0.999589
0.999581
0.999618
0.999627
0.999622
0.999616
0.513260
0.484172
0.844944
0.747038
0.706755
0.439260
0.448393
0.543892
0.656801
0.834125
0.717933
0.392320
0.715153
0.881012
0.873255
0.956809
0.999616
0.887636
0.951860
0.948347
0.433300
0.382362
0.675533
0.999039
0.997970
0.995864
0.880870
0.966839
0.960421
0.985050
0.915943
0.965868
0.959694
0.983617
0.957608
0.987014
0.972336
0.939020
0.985955
0.954983
0.983857
0.998665
0.995887
0.999569
0.994547
0.976942
0.980825
0.999605
0.999111
0.999178
0.993975
0.716877
0.453904
0.373184
0.922519
0.971341
0.936691
0.475706
0.689351
0.999648
0.999655
0.999678
0.931381
0.978674
0.931376
0.991745
0.998167
0.997233
0.999379
0.630705
0.782157
0.823308
0.999611
0.726699
0.732385
0.540835
0.850320
0.525745
0.473106
0.729703
0.996725
0.985547
0.994605
0.955539
0.987761
0.999317
0.999566
0.981591
0.995926
0.976488
0.985698
0.977583
0.692090
0.366551
0.493336
0.703017
0.988585
0.993847
0.980698
0.999715
0.999450
0.999767
0.970776
0.462606
0.998269
0.999368
0.999734
0.994424
0.998440
0.994598
0.999769
0.999754
0.999754
0.999715
0.999718
0.996872
0.999074
0.996045
0.999700
0.999722
0.999684
0.999661
0.999649
0.999652
0.999644