# vtk DataFile Version 2.0
Test
ASCII
DATASET POLYDATA
POINTS 858 float
0.000000 0.000000 0.000000
1.000000 0.000000 0.000000
1.000000 1.000000 0.000000
0.000000 1.000000 0.000000
0.300000 0.330000 0.000000
0.700000 0.680000 0.000000
0.100000 0.000000 0.000000
0.200000 0.000000 0.000000
0.300000 0.000000 0.000000
0.400000 0.000000 0.000000
0.500000 0.000000 0.000000
0.600000 0.000000 0.000000
0.700000 0.000000 0.000000
0.800000 0.000000 0.000000
0.900000 0.000000 0.000000
1.000000 0.100000 0.000000
1.000000 0.200000 0.000000
1.000000 0.300000 0.000000
1.000000 0.400000 0.000000
1.000000 0.500000 0.000000
1.000000 0.600000 0.000000
1.000000 0.700000 0.000000
1.000000 0.800000 0.000000
1.000000 0.900000 0.000000
0.900000 1.000000 0.000000
0.800000 1.000000 0.000000
0.700000 1.000000 0.000000
0.600000 1.000000 0.000000
0.500000 1.000000 0.000000
0.400000 1.000000 0.000000
0.300000 1.000000 0.000000
0.200000 1.000000 0.000000
0.100000 1.000000 0.000000
0.000000 0.900000 0.000000
0.000000 0.800000 0.000000
0.000000 0.700000 0.000000
0.000000 0.600000 0.000000
0.000000 0.500000 0.000000
0.000000 0.400000 0.000000
0.000000 0.300000 0.000000
0.000000 0.200000 0.000000
0.000000 0.100000 0.000000
0.307407 0.336481 0.000000
0.314815 0.342963 0.000000
0.322222 0.349444 0.000000
0.329630 0.355926 0.000000
0.337037 0.362407 0.000000
0.344444 0.368889 0.000000
0.351852 0.375370 0.000000
0.359259 0.381852 0.000000
0.366667 0.388333 0.000000
0.374074 0.394815 0.000000
0.381481 0.401296 0.000000
0.388889 0.407778 0.000000
0.396296 0.414259 0.000000
0.403704 0.420741 0.000000
0.411111 0.427222 0.000000
0.418519 0.433704 0.000000
0.425926 0.440185 0.000000
0.433333 0.446667 0.000000
0.440741 0.453148 0.000000
0.448148 0.459630 0.000000
0.455556 0.466111 0.000000
0.462963 0.472593 0.000000
0.470370 0.479074 0.000000
0.477778 0.485556 0.000000
0.485185 0.492037 0.000000
0.492593 0.498519 0.000000
0.500000 0.505000 0.000000
0.507407 0.511481 0.000000
0.514815 0.517963 0.000000
0.522222 0.524444 0.000000
0.529630 0.530926 0.000000
0.537037 0.537407 0.000000
0.544444 0.543889 0.000000
0.551852 0.550370 0.000000
0.559259 0.556852 0.000000
0.566667 0.563333 0.000000
0.574074 0.569815 0.000000
0.581481 0.576296 0.000000
0.588889 0.582778 0.000000
0.596296 0.589259 0.000000
0.603704 0.595741 0.000000
0.611111 0.602222 0.000000
0.618519 0.608704 0.000000
0.625926 0.615185 0.000000
0.633333 0.621667 0.000000
0.640741 0.628148 0.000000
0.648148 0.634630 0.000000
0.655556 0.641111 0.000000
0.662963 0.647593 0.000000
0.670370 0.654074 0.000000
0.677778 0.660556 0.000000
0.685185 0.667037 0.000000
0.692593 0.673519 0.000000
0.548037 0.570873 0.000000
0.554453 0.579695 0.000000
0.540788 0.582045 0.000000
0.550492 0.594703 0.000000
0.338797 0.350505 0.000000
0.329823 0.347064 0.000000
0.335712 0.339262 0.000000
0.451687 0.438509 0.000000
0.442642 0.430741 0.000000
0.457884 0.427703 0.000000
0.387297 0.847474 0.000000
0.374793 0.914734 0.000000
0.332869 0.847471 0.000000
0.447069 0.415163 0.000000
0.567391 0.482596 0.000000
0.554659 0.473874 0.000000
0.567453 0.464800 0.000000
0.301190 0.902112 0.000000
0.551747 0.457138 0.000000
0.356532 0.391813 0.000000
0.347986 0.386048 0.000000
0.176207 0.429241 0.000000
0.128375 0.468105 0.000000
0.136378 0.404291 0.000000
0.185621 0.475277 0.000000
0.497512 0.261165 0.000000
0.499167 0.296032 0.000000
0.469918 0.291504 0.000000
0.642232 0.687989 0.000000
0.624295 0.701188 0.000000
0.630549 0.678643 0.000000
0.647682 0.074905 0.000000
0.700945 0.096046 0.000000
0.657288 0.160421 0.000000
0.611443 0.684403 0.000000
0.559779 0.406431 0.000000
0.582162 0.394521 0.000000
0.580552 0.422827 0.000000
0.560788 0.374759 0.000000
0.541503 0.468043 0.000000
0.545465 0.480978 0.000000
0.428301 0.394826 0.000000
0.414860 0.384611 0.000000
0.432086 0.374027 0.000000
0.533961 0.477886 0.000000
0.527361 0.464336 0.000000
0.415481 0.368142 0.000000
0.484401 0.527206 0.000000
0.472984 0.524144 0.000000
0.481205 0.518972 0.000000
0.394266 0.424909 0.000000
0.401826 0.431399 0.000000
0.392742 0.434502 0.000000
0.642418 0.617836 0.000000
0.635302 0.612878 0.000000
0.644322 0.605726 0.000000
0.263646 0.464175 0.000000
0.250486 0.498376 0.000000
0.230296 0.467342 0.000000
0.491693 0.468898 0.000000
0.498004 0.479972 0.000000
0.487381 0.480785 0.000000
0.718619 0.489140 0.000000
0.756680 0.466072 0.000000
0.751564 0.516847 0.000000
0.497232 0.719177 0.000000
0.477497 0.748035 0.000000
0.465924 0.716726 0.000000
0.501292 0.467390 0.000000
0.529064 0.285755 0.000000
0.547173 0.240449 0.000000
0.474742 0.511943 0.000000
0.403118 0.392815 0.000000
0.412434 0.399392 0.000000
0.653057 0.614785 0.000000
0.659187 0.602396 0.000000
0.400247 0.379451 0.000000
0.459133 0.636583 0.000000
0.434636 0.647284 0.000000
0.440667 0.616932 0.000000
0.453650 0.664799 0.000000
0.666296 0.616100 0.000000
0.657731 0.628197 0.000000
0.420489 0.468863 0.000000
0.414183 0.459489 0.000000
0.424065 0.460120 0.000000
0.629321 0.574616 0.000000
0.630370 0.589442 0.000000
0.617226 0.584388 0.000000
0.422026 0.450877 0.000000
0.590180 0.614274 0.000000
0.596278 0.627413 0.000000
0.585881 0.628067 0.000000
0.630677 0.603443 0.000000
0.529117 0.486095 0.000000
0.517046 0.488781 0.000000
0.522040 0.477224 0.000000
0.308641 0.392803 0.000000
0.323746 0.398675 0.000000
0.304273 0.411173 0.000000
0.146020 0.514086 0.000000
0.087335 0.505198 0.000000
0.624982 0.561914 0.000000
0.643811 0.559907 0.000000
0.831909 0.406061 0.000000
0.881376 0.423788 0.000000
0.839177 0.457573 0.000000
0.509066 0.478681 0.000000
0.614792 0.620247 0.000000
0.608406 0.635616 0.000000
0.603251 0.619643 0.000000
0.640290 0.595050 0.000000
0.524731 0.497540 0.000000
0.338689 0.392113 0.000000
0.347423 0.395876 0.000000
0.340116 0.407012 0.000000
0.686563 0.659098 0.000000
0.682555 0.651347 0.000000
0.934704 0.856355 0.000000
0.940546 0.930926 0.000000
0.863552 0.916423 0.000000
0.172107 0.566287 0.000000
0.188105 0.516551 0.000000
0.221330 0.532895 0.000000
0.683914 0.680068 0.000000
0.692945 0.685712 0.000000
0.683376 0.697853 0.000000
0.672414 0.683990 0.000000
0.557147 0.529227 0.000000
0.554161 0.540325 0.000000
0.546244 0.533101 0.000000
0.391911 0.394487 0.000000
0.387591 0.383772 0.000000
0.385780 0.368800 0.000000
0.671617 0.628861 0.000000
0.664093 0.637808 0.000000
0.408700 0.450928 0.000000
0.406517 0.467364 0.000000
0.394366 0.455525 0.000000
0.388841 0.472148 0.000000
0.792728 0.486062 0.000000
0.461047 0.516036 0.000000
0.460182 0.532753 0.000000
0.450617 0.523703 0.000000
0.364207 0.398120 0.000000
0.371344 0.402923 0.000000
0.362621 0.408449 0.000000
0.235276 0.413110 0.000000
0.235915 0.390376 0.000000
0.260894 0.399649 0.000000
0.564107 0.604249 0.000000
0.558497 0.625526 0.000000
0.545610 0.611482 0.000000
0.542035 0.628852 0.000000
0.441269 0.401429 0.000000
0.443649 0.385779 0.000000
0.454140 0.398188 0.000000
0.456246 0.380948 0.000000
0.531090 0.597071 0.000000
0.528592 0.618783 0.000000
0.693800 0.600685 0.000000
0.675646 0.601117 0.000000
0.688895 0.583493 0.000000
0.466943 0.412411 0.000000
0.469666 0.393398 0.000000
0.215629 0.311290 0.000000
0.236374 0.342186 0.000000
0.194357 0.347185 0.000000
0.372859 0.289727 0.000000
0.362694 0.307734 0.000000
0.346245 0.295576 0.000000
0.824768 0.656091 0.000000
0.787989 0.680173 0.000000
0.787481 0.637866 0.000000
0.763354 0.658567 0.000000
0.564845 0.587843 0.000000
0.565674 0.575091 0.000000
0.575285 0.580662 0.000000
0.591463 0.532694 0.000000
0.606735 0.524365 0.000000
0.606700 0.541268 0.000000
0.696107 0.663701 0.000000
0.695223 0.651919 0.000000
0.114270 0.553146 0.000000
0.897846 0.490106 0.000000
0.941355 0.438159 0.000000
0.491870 0.442127 0.000000
0.508682 0.433741 0.000000
0.504276 0.453072 0.000000
0.616608 0.507977 0.000000
0.629719 0.487283 0.000000
0.643435 0.510566 0.000000
0.660659 0.486926 0.000000
0.584650 0.557787 0.000000
0.582076 0.545531 0.000000
0.595086 0.552412 0.000000
0.215445 0.494211 0.000000
0.502563 0.534321 0.000000
0.493623 0.527201 0.000000
0.502900 0.523550 0.000000
0.490744 0.536689 0.000000
0.303740 0.348241 0.000000
0.312638 0.354325 0.000000
0.302746 0.359450 0.000000
0.683727 0.548378 0.000000
0.666144 0.562133 0.000000
0.663581 0.542222 0.000000
0.366098 0.324774 0.000000
0.379406 0.309842 0.000000
0.251675 0.434611 0.000000
0.214900 0.437402 0.000000
0.581091 0.493223 0.000000
0.603283 0.484739 0.000000
0.593195 0.510449 0.000000
0.429738 0.356510 0.000000
0.412970 0.350726 0.000000
0.358920 0.356811 0.000000
0.352460 0.366146 0.000000
0.347463 0.357590 0.000000
0.353794 0.402394 0.000000
0.527483 0.436280 0.000000
0.546965 0.439869 0.000000
0.535210 0.453469 0.000000
0.624606 0.790385 0.000000
0.614250 0.755688 0.000000
0.654837 0.763041 0.000000
0.384960 0.332814 0.000000
0.619946 0.597007 0.000000
0.358705 0.265521 0.000000
0.397502 0.266486 0.000000
0.377869 0.228897 0.000000
0.471169 0.372235 0.000000
0.492664 0.362648 0.000000
0.488718 0.386734 0.000000
0.431288 0.062893 0.000000
0.512348 0.074893 0.000000
0.450325 0.128772 0.000000
0.515327 0.223180 0.000000
0.538419 0.183215 0.000000
0.367912 0.509419 0.000000
0.343175 0.515399 0.000000
0.351317 0.488263 0.000000
0.593186 0.193353 0.000000
0.476496 0.230456 0.000000
0.594140 0.256114 0.000000
0.629340 0.367381 0.000000
0.659922 0.374166 0.000000
0.641019 0.397588 0.000000
0.669525 0.412603 0.000000
0.510665 0.591750 0.000000
0.493263 0.584115 0.000000
0.507476 0.576852 0.000000
0.492575 0.790205 0.000000
0.516533 0.753914 0.000000
0.493265 0.606545 0.000000
0.794852 0.435952 0.000000
0.797754 0.379724 0.000000
0.755728 0.420083 0.000000
0.528549 0.642034 0.000000
0.507334 0.653897 0.000000
0.509532 0.626562 0.000000
0.580705 0.748031 0.000000
0.605192 0.727758 0.000000
0.748472 0.635779 0.000000
0.742539 0.660255 0.000000
0.323194 0.421808 0.000000
0.325468 0.445306 0.000000
0.301700 0.435431 0.000000
0.295276 0.460827 0.000000
0.622421 0.457821 0.000000
0.642814 0.468538 0.000000
0.320303 0.468200 0.000000
[...]
POINT_DATA 858
SCALARS UX float 1
LOOKUP_TABLE default
0.000000
-0.000000
-1.140512
-0.649763
0.340467
-1.175872
-0.000000
0.000000
-0.000000
-0.000000
-0.000000
0.000000
0.000000
0.000000
0.000000
-0.172256
-0.316644
-0.541507
-0.870879
-1.274888
-1.597870
-1.644047
-1.424838
-1.213923
-1.000265
-0.879397
-0.812385
-0.824847
-0.852983
-0.869976
-0.869043
-0.824695
-0.750220
-0.601914
-0.493931
-0.271381
0.064281
0.469032
0.765419
0.768614
0.510697
0.258875
0.274366
0.327596
0.286369
0.214616
0.204063
0.155197
0.103875
0.133926
0.131592
0.083922
0.070565
0.092952
0.001516
0.015053
-0.163918
-0.030666
-0.145816
-0.181196
-0.112941
-0.163322
-0.287486
-0.352683
-0.306844
-0.279380
-0.331371
-0.462700
-0.316637
-0.455859
-0.520355
-0.462837
-0.487470
-0.579735
-0.607822
-0.682450
-0.700957
-0.694645
-0.734042
-0.727237
-0.740426
-0.732447
-0.879376
-0.925735
-0.873447
-0.957576
-0.889763
-0.963118
-1.049578
-1.057413
-1.056327
-1.041778
-1.108422
-1.158398
-1.150728
-0.525850
-0.562518
-0.544545
-0.593758
0.123204
0.183174
0.160293
-0.317760
-0.280940
-0.300118
-0.831777
-0.862335
-0.819532
-0.252414
-0.581061
-0.542294
-0.519329
-0.839083
-0.483364
0.259529
0.291662
0.420811
0.376858
0.556248
0.238200
-0.044384
-0.076961
-0.051174
-0.958975
-0.919565
-0.919810
0.011553
0.003206
-0.015819
-0.879997
-0.335915
-0.320736
-0.396225
-0.257102
-0.513296
-0.561105
-0.174798
-0.131920
-0.133863
-0.541714
-0.489913
-0.096783
-0.301238
-0.280939
-0.273967
0.133456
0.090782
0.111311
-1.084823
-1.068304
-1.088689
0.118315
0.019162
0.172664
-0.466422
-0.503626
-0.464024
-0.736220
-0.717305
-0.892117
-0.776623
-0.792547
-0.752220
-0.475712
-0.083044
-0.047416
-0.246313
-0.125192
-0.156468
-1.115885
-1.078964
-0.096320
-0.606709
-0.612085
-0.545274
-0.662014
-1.126522
-1.164309
-0.036823
0.007475
-0.011654
-0.971485
-1.031354
-0.999978
0.018491
-0.709330
-0.746317
-0.728541
-1.085177
-0.565403
-0.560096
-0.528739
0.271416
0.249996
0.221788
0.163048
0.304746
-0.918213
-0.915927
-0.635946
-0.778090
-0.834194
-0.519090
-0.775264
-0.789957
-0.748276
-1.057206
-0.600408
0.274007
0.263525
0.223868
-1.171406
-1.192923
-1.191548
-1.086615
-0.985209
-0.085771
0.073519
-0.053647
-1.115799
-1.146265
-1.089839
-1.064005
-0.742339
-0.760552
-0.719192
-0.105234
-0.068821
-0.045478
-1.165978
-1.165445
0.040709
-0.019799
0.032817
-0.031332
-0.853293
-0.243265
-0.300628
-0.261728
0.204960
0.135208
0.214944
0.355576
0.424913
0.341831
-0.637846
-0.682314
-0.630534
-0.668804
-0.209512
-0.175546
-0.218465
-0.179733
-0.574692
-0.629171
-1.080947
-1.073670
-1.027902
-0.270039
-0.223926
0.464391
0.490834
0.544296
0.062427
0.088039
0.116563
-1.422401
-1.367247
-1.363498
-1.348125
-0.603946
-0.600739
-0.678648
-0.785682
-0.759849
-0.827941
-1.184390
-1.191822
0.067027
-1.068034
-0.933277
-0.384020
-0.374291
-0.431703
-0.702557
-0.636447
-0.728650
-0.658767
-0.867182
-0.833664
-0.866831
0.104933
-0.347722
-0.315051
-0.316370
-0.341292
0.337043
0.336533
0.339246
-0.897797
-0.935536
-0.859907
0.074425
0.052335
0.249041
0.317415
-0.627826
-0.609905
-0.698634
-0.094203
-0.058537
0.047021
0.066244
0.078907
0.238070
-0.398134
-0.424195
-0.459392
-0.875249
-0.888716
-0.918221
0.021909
-1.040815
0.063365
0.023467
0.019153
-0.176051
-0.177107
-0.227222
-0.011122
0.003258
-0.008525
-0.027446
-0.012308
-0.158552
-0.160747
-0.072000
-0.024738
-0.020089
-0.079075
-0.289245
-0.331281
-0.373801
-0.438935
-0.536849
-0.498103
-0.489831
-0.825640
-0.817837
-0.561514
-0.678271
-0.499458
-0.564859
-0.683314
-0.685983
-0.627915
-0.860336
-0.887370
-1.287531
-1.312978
0.176942
0.097208
0.155989
0.077581
-0.531785
-0.582337
0.023821
0.008469
-0.021244
-0.007712
-0.011100
0.594871
0.658743
0.601890
0.526532
-0.251226
-0.143369
-0.860181
-0.849418
-0.967633
-0.967061
0.027994
-0.071559
-0.169782
-0.314200
-0.364605
-0.139824
0.115179
-0.514153
-0.584063
-0.614775
-0.521622
-0.738921
-0.750063
-0.411140
-0.483038
-0.683073
-1.129407
-0.493386
-0.401574
-0.551031
0.059258
0.068393
0.018411
-0.475907
-0.535403
-0.453645
0.124465
-0.567701
-0.216842
-0.193203
0.160341
0.093574
0.041956
-0.131851
-0.122556
-0.171946
-0.875958
-0.851118
-1.247045
-0.817250
-0.756167
-0.800203
-0.501536
-0.450072
-0.754148
-1.297861
-0.379174
-0.431734
-0.434201
-0.481416
-0.343399
-0.790353
-0.000123
0.016331
-0.011300
-0.120034
-0.071987
-0.820965
-0.780770
-0.221526
-0.003529
-0.039131
0.644670
0.592371
0.170173
-1.004273
-1.071001
-0.928029
0.171217
0.102830
-0.615000
-0.674914
-0.770000
-0.736221
-0.600897
-0.637323
-0.518991
-1.006226
0.016593
-1.034586
-1.001183
-1.067737
-0.553998
-0.633147
-0.027444
0.443248
0.435345
-0.020498
0.085946
0.019867
-0.012631
0.494332
-0.245418
0.432770
-0.228267
-0.405417
-0.285568
-0.410959
-1.207918
-1.180483
-1.256230
-0.897791
-0.923933
-0.251568
-0.302489
-0.768676
-0.822542
-1.275934
-1.391319
-0.216526
-0.859637
-0.991285
-0.271117
-0.007554
-0.001440
-0.753819
-0.712676
0.054873
0.027183
-0.014636
0.082941
-0.671576
-1.003122
-1.050126
-1.011829
0.097453
-0.824916
-0.894281
-0.899045
-0.942604
-0.066212
-0.026541
-1.478573
-1.410834
-1.554365
-1.389341
-0.001823
0.150818
0.123495
-0.932979
-0.860403
-0.782697
-1.275790
-1.308855
-0.584862
-0.513321
-0.300088
-0.262980
-0.334498
-0.294740
-0.825514
-0.842654
-0.845635
-0.234702
-0.844326
-1.182621
-1.195100
0.272050
0.184422
0.227110
-0.362676
-0.341832
0.171172
-0.292580
0.325538
0.322765
0.373404
-0.872082
-0.875474
0.238568
0.176709
0.364614
-0.470543
-0.493471
-1.071526
-1.120311
-0.563185
-0.413453
-0.490596
-0.629623
-0.393921
-0.294195
-0.840695
-0.872603
-0.028991
-0.017174
-0.039613
-1.024638
-1.007101
-0.494749
-0.510462
-0.480117
-0.536552
-0.851062
-0.860650
-1.219530
0.005358
-0.736092
-0.791089
-0.768973
-0.316458
-0.319849
-0.372195
-0.092693
0.077472
-0.963467
-0.978806
-0.843693
-0.842344
0.200763
-0.332825
-0.360327
-0.347139
-0.943212
-0.899466
-0.139867
-0.186953
-0.234133
-0.138804
-0.148115
-0.506757
-0.831205
-0.331748
0.136210
-0.079596
-0.403046
-0.304668
-0.184355
-0.388708
-0.374689
-1.158649
-1.167570
-0.094120
-1.218296
0.293153
-0.398576
-0.721077
0.260016
0.210716
0.032059
0.484664
0.301569
0.204133
-1.138298
-0.993989
-1.055924
-0.914767
-1.390806
-0.526372
-0.250248
-0.488482
-0.530400
-0.382039
-0.386597
-0.554805
0.216940
0.236551
-0.388840
-0.432128
-0.425942
-0.344033
-0.312981
-0.449021
-0.481736
-0.357613
-0.694917
-0.440123
-0.284363
-0.193505
-0.266004
-0.201387
-0.457601
-0.965801
-0.946701
-0.386451
-0.733013
-0.681722
-0.911801
-0.348158
-0.339288
0.323961
-0.392966
-0.174694
-0.108064
-0.212504
-0.706304
-0.449295
0.324993
-0.462425
-0.446589
-0.388672
-0.841048
-1.205623
-0.179021
-0.123349
-0.159245
-0.666515
-0.148313
-0.447830
-0.692452
-0.053611
0.118886
0.170734
-0.418695
-0.090999
-0.445230
-0.421649
0.000325
-1.184358
-1.073285
0.359789
0.181889
0.434190
-0.016751
-0.825886
-1.125815
-1.312517
-1.265281
-0.838568
-1.049452
-0.087057
-0.093510
-0.462812
0.066428
-0.802965
-0.751013
-0.783800
-0.289915
-0.232205
-0.814004
-0.830765
0.153941
0.213973
-0.123715
-0.862529
-0.074637
-0.723617
-0.063367
-0.143195
-0.173027
-0.160909
-0.829347
-0.137713
-0.136272
-0.137754
-0.744674
-0.205851
-0.126854
-0.014918
-1.114512
-0.027887
-0.668066
-0.655558
-0.642531
-0.693232
-0.613391
-1.154824
-0.085857
-0.121030
0.292007
-0.559195
-0.359968
-0.841523
-0.008939
-0.881603
0.297549
-0.879379
0.002627
0.000412
-0.036637
-0.092839
-0.763278
-0.678162
0.032904
-1.145178
0.109686
-0.150078
-0.091810
0.730107
-0.633358
-0.715485
-1.498378
-1.412854
-0.085759
-0.117379
-0.084375
-0.843664
0.102076
-0.825403
-0.063096
-0.801576
-0.612290
-0.963940
0.522674
-0.496314
-0.979267
0.013473
-0.022525
-0.713766
-1.116166
-0.311967
-0.232456
-0.703863
-0.643853
-1.226462
-0.416784
0.327479
0.301251
0.290890
-1.082379
-0.239113
0.332692
-0.863959
-1.215225
-0.346959
-1.198915
-0.439900
0.417957
0.428130
-0.527272
0.360583
0.401715
0.034338
-0.164018
-0.014285
0.023923
-0.297727
-0.542469
-0.969776
-0.073919
-0.049409
-0.608179
-0.483792
0.339541
-0.358093
-0.399885
-0.638787
-0.598345
-0.202189
-0.164135
0.207402
-0.337330
0.145272
-1.233464
-0.449150
-0.968275
-0.789823
-0.744444
-0.779530
-0.795825
-0.680270
-0.589779
-0.223198
-0.379460
-0.686254
-0.440333
0.271676
-0.377047
-0.181157
-0.255308
0.322902
-0.034068
-0.072286
-0.994832
-0.699070
-0.241862
-0.649843
-0.567676
-0.260827
-0.257679
-0.976886
-0.832139
-0.226964
-0.205737
-0.170442
-0.620462
-0.612504
SCALARS UY float 1
LOOKUP_TABLE default
0.000000
0.000000
4.600000
4.600000
1.031793
3.568710
0.000000
0.000000
0.000000
0.000000
0.000000
0.000000
0.000000
0.000000
0.000000
0.406048
0.797028
1.224486
1.718540
2.212327
2.661432
3.070621
3.537849
4.062815
4.600000
4.600000
4.600000
4.600000
4.600000
4.600000
4.600000
4.600000
4.600000
4.203925
3.795574
3.333026
2.834049
2.344463
1.899010
1.511559
1.050654
0.539486
1.410341
1.369627
1.511494
1.418877
1.522691
1.702366
1.659813
1.560668
1.567730
1.741331
1.948993
1.622855
1.811692
1.922747
2.341913
1.782076
2.118886
2.192701
1.977067
1.888039
2.254243
2.297359
2.130695
2.144804
2.230666
2.384420
1.802597
2.215714
2.509996
2.401033
2.400701
2.189404
2.304125
2.559531
2.474641
2.589635
2.749327
1.968830
3.101682
2.860072
3.073491
2.821069
2.683661
3.024604
3.001317
3.002273
3.113686
3.209972
3.132042
3.254577
3.449759
3.311508
3.342043
4.241838
4.275204
4.338753
4.359986
0.528854
0.655242
0.455086
0.344329
0.332100
0.256991
4.465871
4.520553
4.411276
0.238807
0.412640
0.370629
0.385504
4.459544
0.340025
3.057023
3.040510
2.386712
2.526175
2.113165
2.756541
0.112229
0.133834
0.118712
4.305027
4.384163
4.334679
0.076188
0.130248
0.175551
4.395175
0.298051
0.334435
0.364570
0.268159
0.339022
0.369038
0.224703
0.233070
0.184525
0.351719
0.316815
0.200342
4.211394
4.217426
4.164410
3.467559
3.540415
3.692126
1.478448
1.467357
1.228208
3.071592
3.215232
2.901272
0.379476
0.452139
0.627166
1.099064
1.181718
1.424457
4.467675
4.471157
4.437380
0.337446
0.151974
0.138315
4.146394
0.320361
0.299424
1.372653
1.283720
0.265361
4.364259
4.331725
4.313248
4.380085
1.463910
1.623734
3.974477
3.909222
3.875182
0.921177
1.032700
0.974903
3.731041
4.301153
4.327192
4.364870
1.241404
0.379911
0.416661
0.350203
2.854451
3.082819
2.983414
2.864771
2.630298
0.838804
0.936399
1.200525
1.446741
1.471724
0.376606
4.100360
4.311622
4.241301
1.116025
0.452019
3.151548
3.228287
3.300631
2.443723
2.165146
3.930044
4.277221
4.285426
3.237468
3.029597
3.262233
3.965867
3.872894
4.074030
4.118811
0.575848
0.808681
0.753856
0.438985
0.371949
0.283924
1.661813
1.929416
3.850160
3.950954
3.863431
3.907002
1.444785
4.194988
4.241591
4.208965
3.155418
3.155981
3.412862
2.467217
2.223331
2.472097
4.359999
4.407031
4.399215
4.420366
0.217634
0.188577
0.197272
0.176951
4.385799
4.412229
1.611252
1.426156
1.424897
0.210164
0.186794
1.336564
1.629232
1.700407
0.197213
0.244327
0.285844
2.827914
3.064614
2.636833
2.846286
4.278457
4.056517
3.996820
0.597676
0.628748
0.678180
2.638396
2.304577
2.973098
1.843361
1.710196
0.260512
0.249985
0.284678
0.630127
0.641705
0.768605
0.789296
0.766666
0.647538
0.693454
3.012629
4.187948
4.172329
4.026476
4.247079
2.046353
2.295936
2.296347
1.171304
1.105378
0.998803
0.255143
0.200706
2.764065
2.590335
0.468315
0.527949
0.542365
0.169247
0.183051
0.382778
0.625411
0.512792
3.328373
0.273778
0.309055
0.307089
4.451307
4.448641
4.356603
0.213430
1.229323
0.214075
0.135446
0.144199
0.169091
0.171669
0.186835
0.032020
0.037347
0.053883
0.104338
0.096330
3.907967
3.800646
3.762237
0.147576
0.091685
0.205930
0.415392
0.514201
0.501394
0.629529
4.377790
4.357879
4.354137
4.506105
4.497066
4.382098
1.200342
0.978630
0.982363
4.431697
4.430587
4.411779
4.483363
4.444783
2.512312
2.858661
3.251396
3.412335
3.155388
3.269763
0.551046
0.657535
3.489809
0.078304
0.073872
0.072301
0.086659
1.761763
1.789772
2.164674
2.037301
3.563613
3.484032
4.566411
4.527508
1.270138
1.382097
3.278312
3.440193
3.290883
3.566010
3.529605
3.180254
0.347639
4.040183
4.161954
4.134468
4.127675
4.118331
4.052603
3.651686
1.076294
1.382521
1.666460
3.837545
3.762718
3.849685
0.274940
0.380258
0.210705
4.189203
4.206160
4.104494
0.479774
1.155833
0.262641
0.309838
3.434865
0.339023
0.281117
0.156432
0.163173
0.181455
4.402843
4.488180
2.235150
4.459600
4.374120
4.462595
4.344186
4.327436
4.417487
2.335832
0.868926
4.325778
0.801369
0.790911
0.618291
4.384899
0.131680
0.268305
0.149005
0.149553
0.247732
4.428387
4.313518
0.342273
0.150178
0.254953
1.441097
1.489070
0.524326
4.115974
3.872848
4.245823
3.542735
3.583927
4.393785
4.412939
0.903623
0.979065
3.968221
4.090443
3.958228
1.718664
3.637939
4.204443
4.235587
4.031115
0.722152
0.886022
0.130833
2.010874
1.761633
0.042307
0.401580
0.171228
0.152524
1.978157
3.949983
2.280412
4.039378
3.848020
3.731040
3.967104
2.232390
2.077022
2.599658
0.855407
0.808122
4.179192
4.216546
4.372532
4.361888
2.211478
2.540659
4.173581
1.231261
1.544543
3.850668
0.084674
0.097348
4.280919
4.263342
3.723180
3.816851
3.795408
3.769301
4.257354
1.042740
1.160599
1.207890
2.886535
1.069625
0.757630
4.116753
4.104613
0.219290
0.213467
2.810925
2.458949
2.750485
2.325442
0.064480
0.375778
0.303376
4.380705
0.786523
0.716929
3.076325
3.128001
4.397189
4.353368
0.215434
0.199740
0.243303
0.215277
4.546758
4.534369
4.475532
0.202753
4.570743
2.032643
2.225769
0.651954
0.446924
0.489650
0.276378
0.247804
0.379670
0.242481
2.394637
2.572793
2.212694
4.145264
4.265601
2.835683
2.997137
1.975841
4.265906
4.248112
1.680839
1.878389
4.269824
4.254070
4.310131
4.232109
3.733534
4.086237
4.295040
4.353927
3.467727
0.699408
0.488277
4.089189
4.226133
4.219933
4.306728
4.296543
0.557037
4.511518
4.495342
2.650525
0.335468
4.408290
4.409263
4.429645
4.073595
3.999745
4.007220
0.137956
3.777447
4.228610
4.025645
4.520540
4.536163
0.463546
0.284898
0.295932
0.361206
1.092572
1.091893
3.656468
3.642131
0.429453
0.301502
0.373453
0.615760
4.138459
4.262049
3.660798
0.313074
4.188806
4.138438
0.212637
4.094782
4.287758
1.914297
1.807714
0.186070
2.064946
2.671657
0.324615
4.429457
0.697816
0.698082
0.327012
1.049188
0.697375
3.423026
3.893653
4.155899
3.961835
4.263314
3.492446
0.777209
0.321274
3.968336
4.013574
4.271919
4.206622
4.356881
0.722794
0.694670
0.292573
0.310285
0.368810
0.575898
0.548525
0.447196
0.407173
0.412521
4.341100
0.286292
0.758118
0.260421
0.330879
0.322969
4.202166
0.925390
0.847913
0.390313
0.527563
0.485831
4.265781
4.271299
4.253009
1.005143
4.284749
0.471771
0.398252
0.591476
4.168804
0.352261
1.008141
3.964684
3.851150
4.298949
4.497212
3.065736
4.056401
4.022847
4.096108
4.291318
3.969856
0.587276
4.371822
0.152498
3.665548
3.571029
4.285450
0.150216
4.268110
4.179720
0.257257
2.038008
1.807666
1.029392
0.680699
1.071474
0.173411
0.855010
3.777501
3.490524
3.453445
4.403819
1.735986
3.889002
3.956246
4.324423
3.640145
4.466250
4.455295
4.450188
4.172390
4.124520
4.434209
4.454954
3.236997
3.439239
0.503311
4.434998
3.986885
4.436711
3.641734
3.850317
3.868531
4.076849
4.502312
0.164909
0.199819
0.243857
4.453596
4.091147
4.047206
0.100662
1.662703
0.120989
0.684905
0.707330
0.464757
0.523288
0.719549
3.790278
4.034558
4.085569
2.636179
0.440172
4.245291
4.473948
0.073926
4.344898
2.861915
4.415630
0.104453
0.131834
0.214531
0.294793
4.359328
4.275021
0.162895
1.910992
0.345213
0.478837
0.387008
1.756076
4.035145
4.166369
3.130714
3.126411
3.750624
3.826390
3.994898
4.469400
0.475846
1.054092
0.132715
4.479976
0.969536
4.122730
1.390877
3.750005
4.301680
0.166295
0.139955
4.111922
3.806204
0.685990
0.225509
4.389631
4.330733
3.452831
0.608595
2.836194
2.942071
3.014823
3.962925
0.509783
2.680457
0.901306
3.479016
4.205907
1.909830
0.523130
1.274285
1.375632
0.471610
1.697337
1.495711
3.539437
0.502144
0.462053
0.522211
0.517412
4.053050
1.063086
4.021036
3.922236
4.247201
0.318260
1.021798
3.961810
3.966692
0.438701
0.399495
4.150295
4.122242
0.608089
0.231806
3.402739
3.460035
4.306576
1.170561
0.637315
0.542258
0.577011
0.953534
0.799390
0.386811
3.755403
0.727918
4.023980
0.896037
0.625092
3.670254
0.530504
0.654181
2.452016
3.639258
3.592444
1.327271
0.484617
0.510034
0.436713
0.626921
3.919871
3.996261
3.845676
0.838412
0.529643
4.145337
4.129052
0.412842
0.543543
SCALARS DAMAGE float 1
LOOKUP_TABLE default
0.411392
0.504134
0.401331
0.497568
0.000000
0.000000
0.447394
0.515134
0.593389
0.652282
0.687444
0.692414
0.658784
0.601404
0.539474
0.499346
0.475393
0.439717
0.403482
0.375411
0.361672
0.363052
0.377201
0.395137
0.430620
0.495862
0.577656
0.641463
0.676971
0.679273
0.648465
0.588851
0.528482
0.491237
0.466522
0.432433
0.398909
0.372711
0.362447
0.367265
0.385060
0.401907
-0.000000
0.000000
0.000000
0.000000
0.000000
0.000000
0.000000
0.000000
0.000000
0.000000
0.000000
0.000000
0.000000
0.000000
0.000000
0.000000
0.000000
0.000000
0.000000
0.000000
0.000000
0.000000
0.000000
0.000000
0.000000
0.000000
0.000000
0.000000
0.000000
0.000000
0.000000
0.000000
0.000000
0.000000
0.000000
0.000000
0.000000
0.000000
0.000000
0.000000
0.000000
0.000000
0.000000
0.000000
0.000000
0.000000
0.000000
0.000000
0.000000
0.000000
0.000000
0.000000
-0.000000
0.076649
0.086996
0.128523
0.141630
0.053727
0.037906
0.090062
0.078160
0.078434
0.126608
0.638940
0.663780
0.628343
0.136859
0.215503
0.212727
0.255087
0.634196
0.245886
0.034220
0.038881
0.308533
0.343240
0.320882
0.331514
0.529425
0.479913
0.458481
0.209933
0.285451
0.204205
0.669444
0.644645
0.639441
0.260683
0.359754
0.403673
0.355099
0.415713
0.201927
0.177880
0.150685
0.148092
0.218265
0.162078
0.183049
0.198009
0.107431
0.125430
0.091651
0.035425
0.035359
0.065134
0.032795
0.029331
0.068830
0.291990
0.335725
0.310782
0.089452
0.072471
0.042053
0.352948
0.384311
0.331595
0.487917
0.540598
0.508896
0.117316
0.519007
0.581466
0.087312
0.091959
0.096170
0.065065
0.107826
0.127186
0.394286
0.435962
0.381618
0.445759
0.090575
0.041224
0.094599
0.083542
0.062404
0.114492
0.079936
0.064206
0.041362
0.100295
0.125335
0.153387
0.044096
0.129791
0.094161
0.137991
0.137786
0.121106
0.178132
0.362977
0.365691
0.136059
0.173981
0.424194
0.404226
0.387998
0.103802
0.051429
0.120109
0.081972
0.086749
0.087734
0.075464
0.065596
0.107753
0.030264
0.040865
0.393327
0.408677
0.438967
0.397790
0.361169
0.374033
0.071909
0.077660
0.170075
0.124055
0.075766
0.036432
0.037607
0.055197
0.078722
0.123737
0.071684
0.030516
0.073157
0.120693
0.115949
0.166439
0.367183
0.130445
0.175551
0.172058
0.033204
0.029323
0.064083
0.260645
0.244657
0.222183
0.136514
0.209117
0.199240
0.251190
0.162264
0.211218
0.200529
0.249601
0.192506
0.252709
0.172499
0.141385
0.195362
0.190468
0.245101
0.283934
0.238983
0.282271
0.336490
0.267754
0.280817
0.295170
0.272935
0.263203
0.234863
0.084813
0.041910
0.032896
0.141776
0.189225
0.150514
0.048508
0.075639
0.385165
0.370500
0.392427
0.165469
0.222119
0.163501
0.239694
0.295515
0.269477
0.325705
0.061139
0.088896
0.099352
0.339317
0.083593
0.084961
0.050379
0.119046
0.053707
0.042463
0.084122
0.248172
0.202459
0.236062
0.219902
0.290860
0.267275
0.293031
0.215339
0.267933
0.197699
0.259855
0.241432
0.090565
0.036640
0.053384
0.068093
0.250919
0.275754
0.224890
0.482762
0.430533
0.406174
0.234618
0.036404
0.381032
0.422861
0.474911
0.298307
0.353503
0.295697
0.657163
0.678749
0.634716
0.583586
0.627318
0.273605
0.309650
0.254816
0.628682
0.553232
0.579479
0.472428
0.473103
0.439370
0.432452
0.221279
0.236334
0.189709
0.578685
0.521257
0.287995
0.408834
0.452591
0.428227
0.307102
0.364878
0.304664
0.451696
0.381778
0.216841
0.199959
0.168513
0.209336
0.221144
0.266209
0.339053
0.339477
0.253923
0.669251
0.608146
0.593621
0.581375
0.308684
0.334374
0.351262
0.290900
0.420466
0.377021
0.673958
0.650619
0.214717
0.244882
0.305718
0.340460
0.418265
0.444201
0.447037
0.414780
0.329497
0.481640
0.498151
0.524724
0.462745
0.046704
0.044911
0.464066
0.450002
0.418776
0.124299
0.491112
0.463210
0.490581
0.413197
0.429746
0.487381
0.401839
0.443055
0.421045
0.355799
0.437577
0.117627
0.088776
0.143994
0.133410
0.159929
0.405340