# vtk DataFile Version 2.0
Test
ASCII
DATASET POLYDATA
POINTS 348 float
0.000000 0.000000 0.000000
1.000000 0.000000 0.000000
1.000000 1.000000 0.000000
0.000000 1.000000 0.000000
0.300000 0.330000 0.000000
0.700000 0.680000 0.000000
0.313793 0.342069 0.000000
0.327586 0.354138 0.000000
0.341379 0.366207 0.000000
0.355172 0.378276 0.000000
0.368966 0.390345 0.000000
0.382759 0.402414 0.000000
0.396552 0.414483 0.000000
0.410345 0.426552 0.000000
0.424138 0.438621 0.000000
0.437931 0.450690 0.000000
0.451724 0.462759 0.000000
0.465517 0.474828 0.000000
0.479310 0.486897 0.000000
0.493103 0.498966 0.000000
0.506897 0.511034 0.000000
0.520690 0.523103 0.000000
0.534483 0.535172 0.000000
0.548276 0.547241 0.000000
0.562069 0.559310 0.000000
0.575862 0.571379 0.000000
0.589655 0.583448 0.000000
0.603448 0.595517 0.000000
0.617241 0.607586 0.000000
0.631034 0.619655 0.000000
0.644828 0.631724 0.000000
0.658621 0.643793 0.000000
0.672414 0.655862 0.000000
0.686207 0.667931 0.000000
0.111111 0.000000 0.000000
0.222222 0.000000 0.000000
0.333333 0.000000 0.000000
0.444444 0.000000 0.000000
0.555556 0.000000 0.000000
0.666667 0.000000 0.000000
0.777778 0.000000 0.000000
0.888889 0.000000 0.000000
1.000000 0.111111 0.000000
1.000000 0.222222 0.000000
1.000000 0.333333 0.000000
1.000000 0.444444 0.000000
1.000000 0.555556 0.000000
1.000000 0.666667 0.000000
1.000000 0.777778 0.000000
1.000000 0.888889 0.000000
0.888889 1.000000 0.000000
0.777778 1.000000 0.000000
0.666667 1.000000 0.000000
0.555556 1.000000 0.000000
0.444444 1.000000 0.000000
0.333333 1.000000 0.000000
0.222222 1.000000 0.000000
0.111111 1.000000 0.000000
0.000000 0.888889 0.000000
0.000000 0.777778 0.000000
0.000000 0.666667 0.000000
0.000000 0.555556 0.000000
0.000000 0.444444 0.000000
0.000000 0.333333 0.000000
0.000000 0.222222 0.000000
0.000000 0.111111 0.000000
0.033333 0.036667 0.000000
0.066667 0.073333 0.000000
0.100000 0.110000 0.000000
0.133333 0.146667 0.000000
0.166667 0.183333 0.000000
0.200000 0.220000 0.000000
0.233333 0.256667 0.000000
0.266667 0.293333 0.000000
0.733333 0.715556 0.000000
0.766667 0.751111 0.000000
0.800000 0.786667 0.000000
0.833333 0.822222 0.000000
0.866667 0.857778 0.000000
0.900000 0.893333 0.000000
0.933333 0.928889 0.000000
0.966667 0.964444 0.000000
0.520587 0.545492 0.000000
0.415289 0.451355 0.000000
0.608082 0.622878 0.000000
0.329310 0.380000 0.000000
0.689298 0.696009 0.000000
0.329032 0.887726 0.000000
0.113157 0.652804 0.000000
0.244883 0.329633 0.000000
0.479482 0.510718 0.000000
0.555556 0.888889 0.000000
0.768749 0.816415 0.000000
0.108290 0.868367 0.000000
0.547197 0.568869 0.000000
0.384133 0.428369 0.000000
0.632744 0.642153 0.000000
0.104401 0.429223 0.000000
0.864328 0.928455 0.000000
0.100893 0.352753 0.000000
0.166037 0.253357 0.000000
0.096667 0.180000 0.000000
0.301502 0.359590 0.000000
0.662928 0.877937 0.000000
0.453448 0.488621 0.000000
0.729671 0.785691 0.000000
0.356897 0.404138 0.000000
0.657532 0.671072 0.000000
0.045104 0.172880 0.000000
0.797778 0.855556 0.000000
0.681285 0.714777 0.000000
0.643186 0.801258 0.000000
0.198742 0.420964 0.000000
0.435927 0.897407 0.000000
0.097814 0.522757 0.000000
0.097733 0.763101 0.000000
0.202442 0.887095 0.000000
0.208229 0.300316 0.000000
0.687298 0.763055 0.000000
0.732907 0.844867 0.000000
0.274614 0.345060 0.000000
0.086469 0.258016 0.000000
0.128960 0.218677 0.000000
0.819301 0.890730 0.000000
0.637616 0.659644 0.000000
0.671344 0.688823 0.000000
0.754297 0.912369 0.000000
0.420519 0.807300 0.000000
0.183605 0.573391 0.000000
0.282078 0.387511 0.000000
0.650782 0.703950 0.000000
0.270127 0.811087 0.000000
0.204596 0.361710 0.000000
0.644539 0.745067 0.000000
0.613395 0.654884 0.000000
0.691198 0.814562 0.000000
0.191354 0.766184 0.000000
0.149990 0.321422 0.000000
0.285823 0.725407 0.000000
0.309309 0.399199 0.000000
0.612418 0.714893 0.000000
0.346932 0.779053 0.000000
0.626938 0.680652 0.000000
0.223075 0.657517 0.000000
0.244050 0.377434 0.000000
0.151724 0.377214 0.000000
0.290413 0.428947 0.000000
0.176216 0.487072 0.000000
0.290713 0.655700 0.000000
0.413970 0.728461 0.000000
0.253315 0.412705 0.000000
0.357401 0.715262 0.000000
0.239023 0.457326 0.000000
0.331256 0.418609 0.000000
0.273223 0.589611 0.000000
0.589885 0.679468 0.000000
0.392874 0.661968 0.000000
0.323654 0.456509 0.000000
0.573998 0.718925 0.000000
0.479048 0.738498 0.000000
0.243375 0.518922 0.000000
0.588935 0.638069 0.000000
0.334432 0.671552 0.000000
0.566320 0.658021 0.000000
0.306185 0.529761 0.000000
0.589798 0.761754 0.000000
0.495119 0.813595 0.000000
0.353150 0.440855 0.000000
0.287972 0.480274 0.000000
0.442206 0.683257 0.000000
0.589485 0.609645 0.000000
0.358099 0.640012 0.000000
0.377212 0.598830 0.000000
0.567476 0.621334 0.000000
0.352767 0.471120 0.000000
0.549421 0.691362 0.000000
0.425042 0.620319 0.000000
0.597665 0.830161 0.000000
0.574764 0.597430 0.000000
0.534908 0.746736 0.000000
0.329525 0.575100 0.000000
0.506588 0.687785 0.000000
0.371355 0.531018 0.000000
0.415266 0.559242 0.000000
0.547654 0.633249 0.000000
0.472209 0.632481 0.000000
0.376409 0.459738 0.000000
0.548452 0.607288 0.000000
0.554609 0.808227 0.000000
0.559052 0.584071 0.000000
0.327201 0.621801 0.000000
0.453295 0.586678 0.000000
0.402340 0.512995 0.000000
0.529444 0.587669 0.000000
0.374005 0.491528 0.000000
0.335990 0.493368 0.000000
0.397564 0.448152 0.000000
0.518088 0.625340 0.000000
0.430654 0.527631 0.000000
0.491869 0.596486 0.000000
0.402870 0.474137 0.000000
0.531081 0.558791 0.000000
0.541653 0.659311 0.000000
0.466837 0.547184 0.000000
0.438869 0.472955 0.000000
0.505618 0.565101 0.000000
0.424683 0.467477 0.000000
0.453958 0.510541 0.000000
0.428740 0.489609 0.000000
0.478476 0.572015 0.000000
0.490413 0.549236 0.000000
0.466550 0.499194 0.000000
0.494969 0.527324 0.000000
0.506347 0.538352 0.000000
0.513363 0.487164 0.000000
0.600815 0.570552 0.000000
0.424505 0.414046 0.000000
0.683253 0.643266 0.000000
0.339439 0.342435 0.000000
0.666667 0.111111 0.000000
0.886638 0.346747 0.000000
0.266813 0.227227 0.000000
0.776009 0.672382 0.000000
0.531559 0.509860 0.000000
0.479515 0.465912 0.000000
0.393620 0.387118 0.000000
0.898934 0.565298 0.000000
0.339730 0.109941 0.000000
0.203988 0.153798 0.000000
0.906042 0.650301 0.000000
0.794664 0.722701 0.000000
0.902222 0.824444 0.000000
0.555556 0.111111 0.000000
0.320899 0.295374 0.000000
0.896378 0.117878 0.000000
0.450000 0.436897 0.000000
0.196088 0.098061 0.000000
0.140018 0.065624 0.000000
0.843748 0.746205 0.000000
0.365351 0.363305 0.000000
0.953960 0.826842 0.000000
0.626191 0.194699 0.000000
0.733546 0.659776 0.000000
0.803431 0.575393 0.000000
0.454833 0.100722 0.000000
0.891134 0.483116 0.000000
0.902397 0.236063 0.000000
0.797569 0.110394 0.000000
0.926271 0.754488 0.000000
0.313006 0.249964 0.000000
0.245369 0.187081 0.000000
0.326121 0.326003 0.000000
0.876394 0.786840 0.000000
0.807048 0.626864 0.000000
0.830998 0.670874 0.000000
0.548482 0.199809 0.000000
0.356095 0.273323 0.000000
0.809337 0.422530 0.000000
0.823860 0.232234 0.000000
0.425571 0.204310 0.000000
0.358730 0.324488 0.000000
0.314237 0.183426 0.000000
0.754676 0.607894 0.000000
0.702055 0.652315 0.000000
0.728134 0.201015 0.000000
0.567636 0.273174 0.000000
0.386617 0.297786 0.000000
0.762815 0.539091 0.000000
0.781950 0.344257 0.000000
0.695373 0.623274 0.000000
0.730735 0.288788 0.000000
0.368291 0.219271 0.000000
0.851223 0.605133 0.000000
0.720695 0.625284 0.000000
0.476746 0.173321 0.000000
0.264995 0.104615 0.000000
0.642371 0.606851 0.000000
0.706529 0.594053 0.000000
0.480310 0.252388 0.000000
0.654218 0.276994 0.000000
0.387726 0.345658 0.000000
0.670690 0.630000 0.000000
0.721407 0.414156 0.000000
0.393607 0.152562 0.000000
0.702466 0.354704 0.000000
0.726437 0.566166 0.000000
0.846722 0.541910 0.000000
0.407017 0.254185 0.000000
0.512665 0.308032 0.000000
0.413299 0.323792 0.000000
0.634192 0.591179 0.000000
0.603095 0.331028 0.000000
0.716034 0.515839 0.000000
0.672335 0.576408 0.000000
0.439138 0.291270 0.000000
0.659641 0.614051 0.000000
0.649787 0.335029 0.000000
0.393189 0.072645 0.000000
0.641681 0.391463 0.000000
0.413986 0.367941 0.000000
0.693653 0.549525 0.000000
0.754192 0.469730 0.000000
0.619035 0.581076 0.000000
0.677388 0.604685 0.000000
0.472717 0.317427 0.000000
0.654953 0.593875 0.000000
0.495162 0.354533 0.000000
0.668124 0.514324 0.000000
0.617002 0.555711 0.000000
0.575238 0.377105 0.000000
0.694094 0.473889 0.000000
0.640759 0.575176 0.000000
0.445610 0.347937 0.000000
0.804478 0.498926 0.000000
0.664817 0.442806 0.000000
0.650758 0.550645 0.000000
0.592233 0.422406 0.000000
0.464322 0.381814 0.000000
0.639029 0.480476 0.000000
0.574138 0.545517 0.000000
0.547432 0.338492 0.000000
0.629028 0.521607 0.000000
0.591760 0.555178 0.000000
0.599106 0.499443 0.000000
0.489590 0.403898 0.000000
0.565064 0.529474 0.000000
0.555227 0.412788 0.000000
0.435908 0.385097 0.000000
0.581338 0.522882 0.000000
0.598180 0.463718 0.000000
0.530592 0.386650 0.000000
0.598965 0.532765 0.000000
0.627188 0.440174 0.000000
0.567422 0.480373 0.000000
0.524971 0.432538 0.000000
0.567735 0.507373 0.000000
0.548744 0.520597 0.000000
0.561809 0.446871 0.000000
0.411443 0.412250 0.000000
0.537159 0.466059 0.000000
0.544534 0.491986 0.000000
0.471348 0.428369 0.000000
0.412669 0.396823 0.000000
0.512563 0.460762 0.000000
0.491316 0.446319 0.000000
0.455007 0.407374 0.000000
0.468237 0.452514 0.000000
0.495500 0.477599 0.000000
POLYGONS 658 2632
3 182 192 183
3 157 195 168
3 118 135 111
3 198 207 203
3 65 0 66
3 160 164 154
3 99 145 97
3 149 159 127
3 132 144 112
3 203 212 210
3 68 108 65
3 112 152 147
3 81 50 80
3 185 197 181
3 51 123 98
3 4 120 73
3 185 199 197
3 152 160 147
3 116 136 131
3 140 155 142
3 103 177 111
3 2 50 81
3 176 191 185
3 198 203 183
3 111 165 133
3 61 114 88
3 114 147 128
3 179 181 175
3 67 65 66
3 68 65 67
3 51 98 50
3 168 195 164
3 93 136 116
3 100 137 121
3 191 209 199
3 112 145 132
3 54 113 91
3 174 195 157
3 128 143 88
3 184 202 197
3 186 200 194
3 115 136 93
3 172 190 180
3 169 181 159
3 101 108 68
3 133 165 140
3 63 121 99
3 65 108 64
3 159 166 127
3 106 167 153
3 134 161 84
3 183 203 191
3 91 188 177
3 74 110 86
3 95 186 167
3 182 183 172
3 132 145 137
3 128 160 154
3 91 103 52
3 103 126 52
3 207 211 90
3 108 121 64
3 194 200 192
3 111 135 103
3 152 168 160
3 85 139 102
3 159 179 166
3 193 205 201
3 192 198 183
3 74 118 110
3 63 99 97
3 166 188 91
3 160 168 164
3 141 149 127
3 94 201 23
3 125 130 107
3 140 158 155
3 164 182 180
3 116 131 87
3 95 196 186
3 171 190 172
3 97 145 112
3 203 209 191
3 87 127 113
3 105 135 118
3 127 166 113
3 159 181 179
3 206 208 200
3 198 208 207
3 50 98 80
3 97 114 62
3 179 188 166
3 183 191 176
3 169 185 181
3 207 208 104
3 182 195 194
3 107 142 124
3 121 137 99
3 164 180 154
3 164 195 182
3 97 147 114
3 72 117 100
3 13 196 95
3 182 194 192
3 59 115 93
3 172 183 176
3 119 126 103
3 141 151 149
3 148 190 162
3 130 142 107
3 149 169 159
3 87 113 55
3 64 121 63
3 176 185 169
3 187 197 193
3 87 141 127
3 56 116 87
3 138 141 131
3 111 177 165
3 112 147 97
3 83 196 13
3 136 143 138
3 150 152 112
3 54 91 53
3 53 91 52
3 52 126 51
3 63 97 62
3 88 115 60
3 192 208 198
3 88 143 136
3 172 176 156
3 153 167 157
3 140 142 130
3 55 113 54
3 88 136 115
3 62 114 61
3 167 186 174
3 209 210 205
3 163 173 161
3 201 205 82
3 143 148 138
3 105 118 74
3 205 213 82
3 180 182 172
3 155 175 163
3 61 88 60
3 155 161 134
3 56 87 55
3 197 199 193
3 93 116 57
3 138 151 141
3 199 205 193
3 193 201 94
3 25 189 24
3 181 202 175
3 131 141 87
3 203 210 209
3 189 193 94
3 175 202 163
3 60 115 59
3 212 213 210
3 57 116 56
3 51 126 123
3 200 208 192
3 156 176 169
3 89 144 132
3 187 189 178
3 184 187 173
3 148 162 138
3 26 178 25
3 73 120 89
3 138 162 151
3 102 139 129
3 117 137 100
3 158 179 175
3 165 188 179
3 58 93 57
3 59 93 58
3 16 204 15
3 156 169 149
3 157 168 146
3 173 178 170
3 110 133 130
3 139 153 146
3 3 58 57
3 146 150 129
3 123 126 109
3 155 163 161
3 124 142 134
3 85 153 139
3 75 105 74
3 83 206 200
3 119 135 105
3 109 126 119
3 101 122 121
3 167 174 157
3 171 172 156
3 24 189 94
3 83 200 196
3 186 194 174
3 153 157 146
3 180 190 154
3 199 209 205
3 110 125 86
3 33 125 107
3 73 117 72
3 178 189 25
3 147 160 128
3 89 132 117
3 78 123 109
3 210 213 205
3 163 184 173
3 184 197 187
3 82 213 21
3 158 175 155
3 177 188 165
3 90 211 18
3 173 187 178
3 132 137 117
3 15 206 83
3 18 211 104
3 7 102 6
3 104 204 16
3 187 193 189
3 21 213 212
3 89 117 73
3 170 178 26
3 118 133 110
3 137 145 99
3 31 124 96
3 204 206 15
3 102 129 120
3 165 179 158
3 161 173 170
3 129 150 144
3 110 130 125
3 142 155 134
3 23 201 22
3 22 82 21
3 151 156 149
3 20 90 19
3 19 90 18
3 17 104 16
3 18 104 17
3 21 212 20
3 24 94 23
3 15 83 14
3 14 83 13
3 77 92 76
3 76 92 75
3 139 146 129
3 86 125 33
3 98 123 78
3 151 162 156
3 13 95 12
3 12 95 11
3 107 124 31
3 29 84 28
3 28 84 27
3 72 100 71
3 71 100 70
3 100 122 70
3 10 106 9
3 11 106 10
3 27 170 26
3 92 105 75
3 140 165 158
3 8 85 7
3 9 85 8
3 129 144 120
3 78 109 77
3 133 140 130
3 162 190 171
3 146 168 152
3 196 200 186
3 146 152 150
3 103 135 119
3 136 138 131
3 92 119 105
3 30 96 29
3 31 96 30
3 22 201 82
3 5 86 33
3 70 122 101
3 80 98 79
3 79 98 78
3 154 190 148
3 70 101 69
3 69 101 68
3 20 212 90
3 32 107 31
3 33 107 32
3 161 170 84
3 163 202 184
3 124 134 96
3 6 102 4
3 194 195 174
3 84 170 27
3 102 120 4
3 77 109 92
3 104 208 204
3 109 119 92
3 120 144 89
3 121 122 100
3 162 171 156
3 104 211 207
3 204 208 206
3 74 86 5
3 85 102 7
3 9 106 85
3 95 106 11
3 29 96 84
3 96 134 84
3 106 153 85
3 114 128 88
3 203 207 90
3 90 212 203
3 91 177 103
3 113 166 91
3 95 167 106
3 101 121 108
3 111 133 118
3 144 150 112
3 128 154 143
3 143 154 148
3 197 202 181
3 191 199 185
3 264 279 241
3 265 278 255
3 326 337 334
3 69 236 228
3 339 343 334
3 307 318 310
3 317 327 312
3 282 298 284
3 81 49 2
3 79 240 49
3 314 332 298
3 238 254 229
3 327 342 299
3 229 272 226
3 233 251 4
3 258 264 247
3 66 34 67
3 73 233 4
3 0 34 66
3 321 323 318
3 339 340 214
3 69 237 236
3 308 311 302
3 80 49 81
3 79 49 80
3 36 275 35
3 12 342 338
3 307 310 292
3 231 248 240
3 284 296 270
3 288 304 278
3 229 248 238
3 261 283 271
3 5 242 74
3 219 264 241
3 234 258 247
3 245 313 257
3 231 240 79
3 260 280 239
3 270 279 264
3 45 245 220
3 284 298 296
3 270 296 279
3 286 313 245
3 257 268 220
3 225 342 12
3 256 260 233
3 246 258 234
3 307 321 318
3 280 299 225
3 219 241 232
3 5 263 242
3 242 273 262
3 35 237 34
3 49 240 48
3 317 345 327
3 73 249 233
3 273 277 262
3 300 315 307
3 265 320 288
3 227 283 261
3 306 317 312
3 241 279 265
3 277 285 262
3 287 294 266
3 310 314 282
3 289 312 299
3 241 265 255
3 47 248 229
3 321 331 323
3 306 330 324
3 242 262 222
3 308 321 315
3 247 264 219
3 324 345 317
3 323 329 318
3 46 229 226
3 278 287 259
3 311 315 293
3 224 347 18
3 214 343 339
3 298 316 309
3 323 335 333
3 232 274 244
3 291 320 265
3 308 315 311
3 224 346 344
3 257 301 282
3 344 346 341
3 316 337 326
3 336 340 335
3 235 345 341
3 259 287 271
3 262 285 267
3 255 278 274
3 235 346 16
3 271 283 259
3 226 245 46
3 324 344 341
3 36 297 227
3 249 271 256
3 316 326 309
3 328 335 323
3 341 345 324
3 323 331 328
3 316 332 329
3 43 246 234
3 226 286 245
3 232 244 38
3 266 280 260
3 278 304 294
3 67 237 68
3 68 237 69
3 219 232 38
3 40 247 219
3 268 270 258
3 259 283 274
3 269 273 263
3 299 342 225
3 315 321 307
3 306 312 304
3 277 303 293
3 220 268 258
3 48 248 47
3 285 300 292
3 333 340 339
3 240 248 48
3 47 229 46
3 329 332 318
3 289 299 280
3 220 246 44
3 278 294 287
3 255 274 232
3 236 237 35
3 319 331 322
3 298 332 316
3 300 307 292
3 34 237 67
3 334 344 324
3 293 315 300
3 330 334 324
3 309 320 291
3 220 258 246
3 293 300 277
3 241 255 232
3 38 244 37
3 274 278 259
3 301 310 282
3 46 245 45
3 37 297 36
3 326 330 309
3 292 310 301
3 45 220 44
3 39 219 38
3 40 219 39
3 310 318 314
3 234 247 41
3 298 309 291
3 279 291 265
3 344 347 224
3 214 347 343
3 221 249 73
3 285 292 267
3 306 324 317
3 320 330 306
3 256 287 266
3 329 337 316
3 222 262 253
3 323 333 329
3 302 311 290
3 295 303 281
3 44 246 43
3 41 247 40
3 294 312 289
3 279 296 291
3 335 340 333
3 341 346 235
3 333 337 329
3 268 284 270
3 258 270 264
3 328 331 319
3 42 234 1
3 43 234 42
3 1 234 41
3 244 297 37
3 22 336 23
3 228 275 250
3 236 275 228
3 27 302 28
3 327 345 216
3 343 344 334
3 326 334 330
3 325 336 335
3 74 242 222
3 267 313 243
3 262 267 243
3 333 339 337
3 261 271 249
3 274 283 244
3 217 281 269
3 304 312 294
3 266 289 280
3 223 340 336
3 256 266 260
3 277 300 285
3 309 330 320
3 343 347 344
3 288 306 304
3 288 320 306
3 263 273 242
3 12 338 13
3 269 303 277
3 222 254 230
3 223 336 22
3 23 325 319
3 281 303 269
3 25 322 215
3 296 298 291
3 23 336 325
3 266 294 289
3 271 287 256
3 71 250 221
3 319 322 25
3 28 302 290
3 215 302 27
3 28 290 276
3 290 311 305
3 276 295 30
3 292 301 267
3 228 250 71
3 16 346 17
3 30 295 281
3 249 256 233
3 322 331 308
3 18 347 19
3 248 252 238
3 19 214 20
3 253 254 222
3 20 223 21
3 21 223 22
3 325 335 328
3 17 224 18
3 25 215 26
3 26 215 27
3 23 319 24
3 24 319 25
3 15 235 16
3 14 235 15
3 301 313 267
3 221 261 249
3 215 322 308
3 305 311 293
3 13 216 14
3 217 269 263
3 74 230 75
3 75 230 76
3 215 308 302
3 11 225 12
3 10 225 11
3 29 276 30
3 28 276 29
3 32 217 33
3 31 217 32
3 71 221 72
3 72 221 73
3 30 281 31
3 230 254 238
3 9 239 10
3 8 239 9
3 238 252 77
3 318 332 314
3 290 305 276
3 227 297 283
3 257 313 301
3 6 218 7
3 7 218 8
3 70 228 71
3 69 228 70
3 231 252 248
3 276 305 295
3 76 238 77
3 295 305 303
3 6 251 218
3 250 275 261
3 4 251 6
3 325 328 319
3 13 338 216
3 283 297 244
3 251 260 218
3 77 252 231
3 222 230 74
3 269 277 273
3 253 262 243
3 17 346 224
3 19 347 214
3 217 263 33
3 243 313 286
3 243 272 253
3 78 231 79
3 77 231 78
3 243 286 272
3 33 263 5
3 261 275 227
3 254 272 229
3 31 281 217
3 272 286 226
3 230 238 76
3 250 261 221
3 253 272 254
3 308 331 321
3 338 342 216
3 303 305 293
3 216 342 327
3 218 239 8
3 10 239 225
3 216 235 14
3 214 223 20
3 35 275 236
3 227 275 36
3 214 340 223
3 216 345 235
3 218 260 239
3 245 257 220
3 239 280 225
3 233 260 251
3 257 282 268
3 265 288 278
3 282 284 268
3 282 314 298
3 312 327 299
3 337 339 334
POINT_DATA 348
SCALARS UX float 1
LOOKUP_TABLE default
0.000039
-0.000021
-69430714.253985
-59623689.844081
-29034025.890625
-34975079.206676
-30893683.048767
-32743824.880568
-33877814.747177
-34855513.526743
-35759366.729769
-36902039.209364
-37379601.623802
-38388479.246949
-38048990.278505
-39434645.531933
-39544031.467571
-40860063.866958
-42453731.288588
-43955652.704681
-45816242.328530
-48952140.849588
-50714169.612919
-52659430.053823
-55611014.762262
-51725940.614760
-50211904.249977
-45146708.168067
-37550993.085954
-43358121.482874
-32452338.713205
-41931581.984817
-39996651.641157
-39306601.867169
-0.000038
0.000049
-0.000030
0.000005
-0.000006
0.000003
-0.000012
0.000019
-4548817.451418
-6041560.434896
-8591396.369650
-9897927.637899
-15005182.014120
-19152855.336513
-33255298.056842
-51211141.331541
-78762120.078468
-74814700.436853
-65300036.376414
-62344603.910660
-63124374.835739
-61738355.685492
-60786359.771817
-61885067.000102
-58417411.035197
-53055696.801342
-43755565.308255
-45727581.442872
-43046070.896318
-39511055.064426
-23086689.166410
-13620265.133639
-2222098.211827
-4079669.589148
-8208220.341885
-13691556.298759
-18639929.128182
-20286916.389929
-22905660.203082
-25820040.642785
-37867623.313761
-40811940.347534
-44767149.334130
-49564113.231666
-55722630.322446
-61778749.344309
-67139468.160282
-68363725.762923
-43130072.036872
-40238321.938361
-47946242.284780
-34909234.567901
-41287406.984677
-58827438.110161
-45261332.124561
-30547917.412830
-40596435.439871
-60337641.949042
-52319243.331055
-58803783.905308
-48128329.136659
-38629115.837677
-46881882.474649
-41401816.454622
-71247709.762791
-36131198.765760
-24285971.961774
-20255963.308037
-33037374.342748
-59693659.863908
-41389356.798523
-49531377.789678
-36902863.250128
-45692116.730532
-19687273.484204
-58361124.604788
-44231518.123746
-54358546.453138
-38758095.682209
-61949269.030802
-45379974.554109
-54267515.434757
-59141681.967463
-28152114.992635
-49203577.644515
-57730165.189194
-31729708.718683
-26275480.185407
-22626328.781066
-64841066.806202
-46828525.207527
-44211676.984327
-65213612.095325
-57322927.336143
-45131202.734265
-35569097.059186
-46893609.461556
-55936045.692265
-34031659.847038
-50135503.018455
-48337112.620814
-54375159.871214
-53900852.678540
-30994735.038488
-52236372.217446
-36310197.335288
-49980281.200144
-54793035.501403
-47941359.832654
-47990843.493843
-35039082.921610
-35723758.190621
-38431442.065647
-42889802.317511
-48589937.502398
-52685858.007519
-37629481.412442
-51871837.703712
-40583333.989677
-37664720.623479
-46243320.205213
-49715711.597439
-49512277.212518
-39941529.801346
-51456298.334949
-54445374.734464
-43374535.715638
-48937164.982792
-49617455.108144
-49832920.911903
-43689979.817632
-53233352.055376
-57917971.876653
-39104814.449207
-41345568.595527
-51323388.181707
-48334147.866507
-48398556.486502
-46566307.307466
-48949444.181638
-40735489.492389
-50969852.680550
-47359260.140922
-57315638.237731
-49119051.485295
-54036462.177342
-45564180.129492
-51669336.920428
-43407226.727843
-43977429.199310
-49033329.737026
-48350099.730575
-40305580.553737
-47987859.055628
-56753197.174442
-47967617.632369
-47557511.219872
-45582349.511407
-42560275.330706
-45359365.681954
-41777851.959450
-41858643.512062
-39886655.589550
-48143486.756386
-41432244.741230
-46198354.467064
-41297651.211484
-44142887.332599
-50126399.912751
-43390749.971021
-41256185.736302
-44315148.476748
-41257708.082619
-39479485.786125
-42142322.052185
-44947374.879877
-43445474.194183
-40303620.988412
-42291473.063816
-42780448.592007
-31409521.486437
-14558096.489941
-33064618.114067
-22167527.387352
-28381044.917018
-1609865.251500
-6624608.854002
-18478003.293513
-25407438.891043
-28865994.391683
-33664189.565897
-34221305.175310
-12498711.927775
-6784256.302499
-12738756.859225
-17841955.717401
-32740840.727168
-45125379.035477
-1904479.987204
-23959967.951547
-3620638.869228
-33411755.279256
-5785203.379322
-2670624.899912
-32736230.052062
-31414920.606833
-42902760.797339
-3525311.194314
-25063222.320153
-11876545.795550
-4921404.841347
-8975579.211243
-5108111.772703
-2573926.075872
-29909988.603783
-19334757.926910
-14562279.918055
-26900839.812146
-39083923.538980
-17409775.790775
-22028381.979254
-4765341.402013
-20163203.140392
-5329583.517606
-4652007.930231
-11231654.574926
-25455609.012975
-12901825.787946
-15781523.942459
-23851743.697868
-3892104.838716
-4512901.490036
-21353252.905980
-8869819.378781
-3214567.582192
-18948482.463137
-3036159.368557
-14593200.307319
-14384401.101858
-18333529.200558
-6131767.753079
-5791814.565222
-17265647.037058
-14834981.844136
-8351413.435625
-3186761.299448
-28149775.424776
-20062399.651563
-3091638.936541
-9490325.760921
-2542488.849407
-11634319.235192
-9992420.811725
-15926619.976967
-7219786.797036
-23655606.151192
-15200448.434175
-3472626.107787
-7041378.454643
-13456323.645223
-16230436.888467
-17363511.082616
-3100861.453999
-4659063.741309
-1186553.757321
-31402396.928018
-10117825.197601
-4384369.892551
-14219897.025889
-16146241.652893
-11576093.515567
-14508606.492766
-14241479.708999
-7383851.445436
-11433327.372117
-7270057.677235
-3478437.174451
-12942093.194177
-22167984.275581
-6875926.930267
-1992633.861584
-10706364.084426
-11644687.958378
-27150268.421197
-5313665.184433
-17200267.530179
-6922556.018034
-8919022.158017
-15661683.345555
-12627549.721029
-29598566.514275
-20844459.427790
-17440922.901751
-30337835.962085
-16985840.146428
-20820922.231227
-16168659.871802
-12784849.957293
-6495578.424055
-26305173.567099
-30006254.744575
-22278755.557271
-25240416.819992
-28185966.953544
-33574731.872709
-30080977.901914
-27703524.512311
-32046421.959241
-31157036.128792
-31162883.025940
-31902250.193930
-31439122.672074
-33846654.470566
-32735037.912466
SCALARS UY float 1
LOOKUP_TABLE default
0.000306
-0.000044
0.439188
0.440973
-3095212.825782
1478064.866859
-3630804.622069
-4205123.886071
-4223822.287612
-5031507.843289
-5642955.672404
-5445176.881677
-5760097.968987
-5471637.047757
-4169157.447750
-4257650.014242
-3273869.562254
-3699382.136653
-3969776.601796
-4864953.860982
-5354222.967896
-4688304.189710
-4880473.162462
-3823677.681596
-1867171.287801
-2750005.520311
-1346193.373578
-1161525.781710
-4243024.474246
1216746.463547
-5092880.724241
1148668.221276
904354.381245
1617266.628089
-0.000159
-0.000039
0.000065
-0.000011
0.000007
0.000009
-0.000013
0.000041
3425819.159597
9492671.418077
16522461.043303
28590953.422850
41214483.956392
45024122.786596
52498738.397753
34925608.938949
0.442094
0.440964
0.440939
0.440953
0.440992
0.440997
0.440950
0.440999
-6130598.135426
-13520082.503421
-8725907.040643
-13247933.480835
-18936226.025062
-21573495.722203
-29967292.520565
-32862804.130844
-10252952.095422
-16949609.658452
-18015071.662472
-14460840.492072
-11630426.703622
-8969602.145841
-6883783.278334
-4726076.731657
1926232.758146
4060267.119937
6425313.905283
8851500.990727
12428352.177920
15723221.510935
15476461.284271
8168747.224241
-2594494.526579
-5464368.037086
1702579.683204
-4849207.379483
1062109.612789
-3720442.770971
-12514475.333013
-7406238.950098
-2849809.995401
-792982.775140
846080.869990
-2845489.745838
-896565.454133
-5331489.093238
2016234.877610
-16516270.641747
4794560.167953
-18120175.666131
-13756664.297798
-20074348.046108
-4819664.963221
-1442722.655683
-2697992.756281
-290916.777205
-5097558.878225
2157694.803612
-27578460.940265
1699630.599641
546100.571861
-502562.577961
-11300833.910769
-3059095.460372
-14845141.878734
-6458460.944888
-2192056.291228
-10108155.716632
-818726.650276
-479116.919612
-5591387.036892
-21815873.933648
-16843488.109987
2748729.951406
2143244.453348
1467711.813377
-1323741.339679
-3854528.739306
-11717604.694857
-6350969.290806
1382278.112241
-4494080.740146
-10736937.568256
230830.932032
1865195.055809
-1567841.298901
-5572117.810166
-15486084.253713
-5602390.558840
-5706503.280063
1186542.281857
-4658995.867386
1902814.573131
-8052944.376062
-8226801.311759
-14428528.301047
-6820322.608345
-12454250.183249
-6778701.569335
-4637646.441105
-8198455.908111
-5324915.552808
-9375899.492623
-5533854.448156
-7957144.284978
1443851.794269
-6313503.453835
-6279980.212049
1155885.892938
-3089056.396179
-9545554.790188
1417577.213459
-6109815.844564
372800.083635
-7201212.263310
731613.043546
-1887082.755522
-5572857.838010
-7584013.021486
-5448407.279977
964554.695380
-6325229.583670
-6134252.675958
796470.959111
-5843502.299133
-259599.716600
-5564056.717676
-286479.303316
806639.790780
-919549.554147
-6725351.600422
-2461894.113840
-5881850.659188
-5286271.373466
-412364.636881
-3961615.160321
-5580076.976259
-468491.923807
-673259.388446
-318770.299487
-6665941.237370
-4298456.012890
-5413707.955359
-2665528.642686
-5671439.373430
-6309009.409838
-5498983.221589
-2072286.628613
-4086380.807952
-3142227.023991
-5592715.955149
-3031825.271732
-791587.074246
-3513521.888891
-4672570.560480
-2748956.979416
-5494597.901007
-2792352.304391
-5692439.806335
-3373304.113962
-2972732.731070
-2644528.261904
-2609781.691351
-2430985.158784
1395121.262553
-8249179.796236
-1382565.892404
-4745069.843578
-304069.687866
1294827.282875
9627958.386230
-3188614.047703
8887966.819654
543376.175350
-526908.913269
-698686.724013
26484638.129239
1925482.467114
-5885816.616575
30451213.705238
9557651.863065
24454717.869070
333957.413638
-677437.514292
1464558.475166
-1036837.918306
-4417615.074721
-7847555.531251
16630493.577321
1813686.824474
40128231.251645
1355493.273633
2869463.620190
12949862.378639
3172544.097111
20770434.299501
6919150.413562
1446150.217336
34603766.813860
-425218.412252
-4017822.963394
-842528.723066
21313683.213238
13880735.942821
17387032.240191
17145.216808
1458246.525554
10214809.421474
4569252.431014
3165842.763115
1017540.238699
733750.959286
6000619.118084
-2053521.434489
2872612.444865
-869500.117330
2064854.587812
7589394.613010
6790815.222580
-2942200.394368
3638006.334039
2471523.757178
20371153.615914
333911.387033
982177.440353
-574265.183172
-8149259.270277
-906550.918540
357200.427085
1127681.029895
2974803.557730
-5587570.807026
4573562.478822
4006577.357309
3069862.574283
2548265.087605
18302015.616039
2726761.330571
-924007.902895
2230772.661655
-7863897.925015
-1275074.845801
1942609.895444
-4540997.676919
1323288.876722
-6652649.192699
829300.263366
3512393.312813
218928.496057
-325412.205787
-1447054.695050
6903361.047061
-8566744.753652
-4691556.693118
-328075.736550
-6921296.114661
12774.069183
-3501842.979253
-9471528.210089
-567273.968911
-42452.564277
-7663914.399419
-39440.745236
12288910.892981
-999609.282308
-6330203.181004
186921.493257
148126.525365
-5696681.926644
-5401809.066309
-906718.288717
-7825523.787187
-6306605.771239
-5872650.903736
1149545.833010
-1370586.567882
450044.490584
-47275.184193
-4831084.042052
-3132126.599505
861479.162282
-7426479.865189
-1308976.462939
94785.996260
2072467.335578
-1179184.655700
170699.246262
882856.277502
-3287174.773142
1828908.057160
1221098.284873
230109.027007
-963098.154776
1605280.953639
862222.092345
-75268.901401
-362120.991477
236687.017095
SCALARS DAMAGE float 1
LOOKUP_TABLE default
-0.000001
-0.000001
-0.000001
-0.000001
0.000000
0.000000
-0.000000
0.000000
0.000000
0.000000
0.000000
0.000000
0.000000
0.000000
0.000000
0.000000
0.000000
0.000000
0.000000
0.000000
0.000000
0.000000
0.000000
0.000000
0.000000
0.000000
0.000000
0.000000
0.000000
0.000000
0.000000
0.000000
0.000000
-0.000000
-0.000001
-0.000001
0.000001
-0.000003
-0.000000
-0.000001
-0.000001
-0.000000
-0.000001
-0.000001
-0.000001
0.085889
-0.000001
-0.000001
-0.000001
-0.000001
-0.000001
-0.000001
-0.000001
-0.000001
0.000005
-0.000002
-0.000001
0.000001
0.000000
-0.000001
0.000018
0.000003
-0.000004
0.000004