# vtk DataFile Version 2.0
Test
ASCII
DATASET POLYDATA
POINTS 348 float
0.000000 0.000000 0.000000
1.000000 0.000000 0.000000
1.000000 1.000000 0.000000
0.000000 1.000000 0.000000
0.300000 0.330000 0.000000
0.700000 0.680000 0.000000
0.313793 0.342069 0.000000
0.327586 0.354138 0.000000
0.341379 0.366207 0.000000
0.355172 0.378276 0.000000
0.368966 0.390345 0.000000
0.382759 0.402414 0.000000
0.396552 0.414483 0.000000
0.410345 0.426552 0.000000
0.424138 0.438621 0.000000
0.437931 0.450690 0.000000
0.451724 0.462759 0.000000
0.465517 0.474828 0.000000
0.479310 0.486897 0.000000
0.493103 0.498966 0.000000
0.506897 0.511034 0.000000
0.520690 0.523103 0.000000
0.534483 0.535172 0.000000
0.548276 0.547241 0.000000
0.562069 0.559310 0.000000
0.575862 0.571379 0.000000
0.589655 0.583448 0.000000
0.603448 0.595517 0.000000
0.617241 0.607586 0.000000
0.631034 0.619655 0.000000
0.644828 0.631724 0.000000
0.658621 0.643793 0.000000
0.672414 0.655862 0.000000
0.686207 0.667931 0.000000
0.111111 0.000000 0.000000
0.222222 0.000000 0.000000
0.333333 0.000000 0.000000
0.444444 0.000000 0.000000
0.555556 0.000000 0.000000
0.666667 0.000000 0.000000
0.777778 0.000000 0.000000
0.888889 0.000000 0.000000
1.000000 0.111111 0.000000
1.000000 0.222222 0.000000
1.000000 0.333333 0.000000
1.000000 0.444444 0.000000
1.000000 0.555556 0.000000
1.000000 0.666667 0.000000
1.000000 0.777778 0.000000
1.000000 0.888889 0.000000
0.888889 1.000000 0.000000
0.777778 1.000000 0.000000
0.666667 1.000000 0.000000
0.555556 1.000000 0.000000
0.444444 1.000000 0.000000
0.333333 1.000000 0.000000
0.222222 1.000000 0.000000
0.111111 1.000000 0.000000
0.000000 0.888889 0.000000
0.000000 0.777778 0.000000
0.000000 0.666667 0.000000
0.000000 0.555556 0.000000
0.000000 0.444444 0.000000
0.000000 0.333333 0.000000
0.000000 0.222222 0.000000
0.000000 0.111111 0.000000
0.033333 0.036667 0.000000
0.066667 0.073333 0.000000
0.100000 0.110000 0.000000
0.133333 0.146667 0.000000
0.166667 0.183333 0.000000
0.200000 0.220000 0.000000
0.233333 0.256667 0.000000
0.266667 0.293333 0.000000
0.733333 0.715556 0.000000
0.766667 0.751111 0.000000
0.800000 0.786667 0.000000
0.833333 0.822222 0.000000
0.866667 0.857778 0.000000
0.900000 0.893333 0.000000
0.933333 0.928889 0.000000
0.966667 0.964444 0.000000
0.520587 0.545492 0.000000
0.415289 0.451355 0.000000
0.608082 0.622878 0.000000
0.329310 0.380000 0.000000
0.689298 0.696009 0.000000
0.329032 0.887726 0.000000
0.113157 0.652804 0.000000
0.244883 0.329633 0.000000
0.479482 0.510718 0.000000
0.555556 0.888889 0.000000
0.768749 0.816415 0.000000
0.108290 0.868367 0.000000
0.547197 0.568869 0.000000
0.384133 0.428369 0.000000
0.632744 0.642153 0.000000
0.104401 0.429223 0.000000
0.864328 0.928455 0.000000
0.100893 0.352753 0.000000
0.166037 0.253357 0.000000
0.096667 0.180000 0.000000
0.301502 0.359590 0.000000
0.662928 0.877937 0.000000
0.453448 0.488621 0.000000
0.729671 0.785691 0.000000
0.356897 0.404138 0.000000
0.657532 0.671072 0.000000
0.045104 0.172880 0.000000
0.797778 0.855556 0.000000
0.681285 0.714777 0.000000
0.643186 0.801258 0.000000
0.198742 0.420964 0.000000
0.435927 0.897407 0.000000
0.097814 0.522757 0.000000
0.097733 0.763101 0.000000
0.202442 0.887095 0.000000
0.208229 0.300316 0.000000
0.687298 0.763055 0.000000
0.732907 0.844867 0.000000
0.274614 0.345060 0.000000
0.086469 0.258016 0.000000
0.128960 0.218677 0.000000
0.819301 0.890730 0.000000
0.637616 0.659644 0.000000
0.671344 0.688823 0.000000
0.754297 0.912369 0.000000
0.420519 0.807300 0.000000
0.183605 0.573391 0.000000
0.282078 0.387511 0.000000
0.650782 0.703950 0.000000
0.270127 0.811087 0.000000
0.204596 0.361710 0.000000
0.644539 0.745067 0.000000
0.613395 0.654884 0.000000
0.691198 0.814562 0.000000
0.191354 0.766184 0.000000
0.149990 0.321422 0.000000
0.285823 0.725407 0.000000
0.309309 0.399199 0.000000
0.612418 0.714893 0.000000
0.346932 0.779053 0.000000
0.626938 0.680652 0.000000
0.223075 0.657517 0.000000
0.244050 0.377434 0.000000
0.151724 0.377214 0.000000
0.290413 0.428947 0.000000
0.176216 0.487072 0.000000
0.290713 0.655700 0.000000
0.413970 0.728461 0.000000
0.253315 0.412705 0.000000
0.357401 0.715262 0.000000
0.239023 0.457326 0.000000
0.331256 0.418609 0.000000
0.273223 0.589611 0.000000
0.589885 0.679468 0.000000
0.392874 0.661968 0.000000
0.323654 0.456509 0.000000
0.573998 0.718925 0.000000
0.479048 0.738498 0.000000
0.243375 0.518922 0.000000
0.588935 0.638069 0.000000
0.334432 0.671552 0.000000
0.566320 0.658021 0.000000
0.306185 0.529761 0.000000
0.589798 0.761754 0.000000
0.495119 0.813595 0.000000
0.353150 0.440855 0.000000
0.287972 0.480274 0.000000
0.442206 0.683257 0.000000
0.589485 0.609645 0.000000
0.358099 0.640012 0.000000
0.377212 0.598830 0.000000
0.567476 0.621334 0.000000
0.352767 0.471120 0.000000
0.549421 0.691362 0.000000
0.425042 0.620319 0.000000
0.597665 0.830161 0.000000
0.574764 0.597430 0.000000
0.534908 0.746736 0.000000
0.329525 0.575100 0.000000
0.506588 0.687785 0.000000
0.371355 0.531018 0.000000
0.415266 0.559242 0.000000
0.547654 0.633249 0.000000
0.472209 0.632481 0.000000
0.376409 0.459738 0.000000
0.548452 0.607288 0.000000
0.554609 0.808227 0.000000
0.559052 0.584071 0.000000
0.327201 0.621801 0.000000
0.453295 0.586678 0.000000
0.402340 0.512995 0.000000
0.529444 0.587669 0.000000
0.374005 0.491528 0.000000
0.335990 0.493368 0.000000
0.397564 0.448152 0.000000
0.518088 0.625340 0.000000
0.430654 0.527631 0.000000
0.491869 0.596486 0.000000
0.402870 0.474137 0.000000
0.531081 0.558791 0.000000
0.541653 0.659311 0.000000
0.466837 0.547184 0.000000
0.438869 0.472955 0.000000
0.505618 0.565101 0.000000
0.424683 0.467477 0.000000
0.453958 0.510541 0.000000
0.428740 0.489609 0.000000
0.478476 0.572015 0.000000
0.490413 0.549236 0.000000
0.466550 0.499194 0.000000
0.494969 0.527324 0.000000
0.506347 0.538352 0.000000
0.513363 0.487164 0.000000
0.600815 0.570552 0.000000
0.424505 0.414046 0.000000
0.683253 0.643266 0.000000
0.339439 0.342435 0.000000
0.666667 0.111111 0.000000
0.886638 0.346747 0.000000
0.266813 0.227227 0.000000
0.776009 0.672382 0.000000
0.531559 0.509860 0.000000
0.479515 0.465912 0.000000
0.393620 0.387118 0.000000
0.898934 0.565298 0.000000
0.339730 0.109941 0.000000
0.203988 0.153798 0.000000
0.906042 0.650301 0.000000
0.794664 0.722701 0.000000
0.902222 0.824444 0.000000
0.555556 0.111111 0.000000
0.320899 0.295374 0.000000
0.896378 0.117878 0.000000
0.450000 0.436897 0.000000
0.196088 0.098061 0.000000
0.140018 0.065624 0.000000
0.843748 0.746205 0.000000
0.365351 0.363305 0.000000
0.953960 0.826842 0.000000
0.626191 0.194699 0.000000
0.733546 0.659776 0.000000
0.803431 0.575393 0.000000
0.454833 0.100722 0.000000
0.891134 0.483116 0.000000
0.902397 0.236063 0.000000
0.797569 0.110394 0.000000
0.926271 0.754488 0.000000
0.313006 0.249964 0.000000
0.245369 0.187081 0.000000
0.326121 0.326003 0.000000
0.876394 0.786840 0.000000
0.807048 0.626864 0.000000
0.830998 0.670874 0.000000
0.548482 0.199809 0.000000
0.356095 0.273323 0.000000
0.809337 0.422530 0.000000
0.823860 0.232234 0.000000
0.425571 0.204310 0.000000
0.358730 0.324488 0.000000
0.314237 0.183426 0.000000
0.754676 0.607894 0.000000
0.702055 0.652315 0.000000
0.728134 0.201015 0.000000
0.567636 0.273174 0.000000
0.386617 0.297786 0.000000
0.762815 0.539091 0.000000
0.781950 0.344257 0.000000
0.695373 0.623274 0.000000
0.730735 0.288788 0.000000
0.368291 0.219271 0.000000
0.851223 0.605133 0.000000
0.720695 0.625284 0.000000
0.476746 0.173321 0.000000
0.264995 0.104615 0.000000
0.642371 0.606851 0.000000
0.706529 0.594053 0.000000
0.480310 0.252388 0.000000
0.654218 0.276994 0.000000
0.387726 0.345658 0.000000
0.670690 0.630000 0.000000
0.721407 0.414156 0.000000
0.393607 0.152562 0.000000
0.702466 0.354704 0.000000
0.726437 0.566166 0.000000
0.846722 0.541910 0.000000
0.407017 0.254185 0.000000
0.512665 0.308032 0.000000
0.413299 0.323792 0.000000
0.634192 0.591179 0.000000
0.603095 0.331028 0.000000
0.716034 0.515839 0.000000
0.672335 0.576408 0.000000
0.439138 0.291270 0.000000
0.659641 0.614051 0.000000
0.649787 0.335029 0.000000
0.393189 0.072645 0.000000
0.641681 0.391463 0.000000
0.413986 0.367941 0.000000
0.693653 0.549525 0.000000
0.754192 0.469730 0.000000
0.619035 0.581076 0.000000
0.677388 0.604685 0.000000
0.472717 0.317427 0.000000
0.654953 0.593875 0.000000
0.495162 0.354533 0.000000
0.668124 0.514324 0.000000
0.617002 0.555711 0.000000
0.575238 0.377105 0.000000
0.694094 0.473889 0.000000
0.640759 0.575176 0.000000
0.445610 0.347937 0.000000
0.804478 0.498926 0.000000
0.664817 0.442806 0.000000
0.650758 0.550645 0.000000
0.592233 0.422406 0.000000
0.464322 0.381814 0.000000
0.639029 0.480476 0.000000
0.574138 0.545517 0.000000
0.547432 0.338492 0.000000
0.629028 0.521607 0.000000
0.591760 0.555178 0.000000
0.599106 0.499443 0.000000
0.489590 0.403898 0.000000
0.565064 0.529474 0.000000
0.555227 0.412788 0.000000
0.435908 0.385097 0.000000
0.581338 0.522882 0.000000
0.598180 0.463718 0.000000
0.530592 0.386650 0.000000
0.598965 0.532765 0.000000
0.627188 0.440174 0.000000
0.567422 0.480373 0.000000
0.524971 0.432538 0.000000
0.567735 0.507373 0.000000
0.548744 0.520597 0.000000
0.561809 0.446871 0.000000
0.411443 0.412250 0.000000
0.537159 0.466059 0.000000
0.544534 0.491986 0.000000
0.471348 0.428369 0.000000
0.412669 0.396823 0.000000
0.512563 0.460762 0.000000
0.491316 0.446319 0.000000
0.455007 0.407374 0.000000
0.468237 0.452514 0.000000
0.495500 0.477599 0.000000
POLYGONS 658 2632
3 182 192 183
3 157 195 168
3 118 135 111
3 198 207 203
3 65 0 66
3 160 164 154
3 99 145 97
3 149 159 127
3 132 144 112
3 203 212 210
3 68 108 65
3 112 152 147
3 81 50 80
3 185 197 181
3 51 123 98
3 4 120 73
3 185 199 197
3 152 160 147
3 116 136 131
3 140 155 142
3 103 177 111
3 2 50 81
3 176 191 185
3 198 203 183
3 111 165 133
3 61 114 88
3 114 147 128
3 179 181 175
3 67 65 66
3 68 65 67
3 51 98 50
3 168 195 164
3 93 136 116
3 100 137 121
3 191 209 199
3 112 145 132
3 54 113 91
3 174 195 157
3 128 143 88
3 184 202 197
3 186 200 194
3 115 136 93
3 172 190 180
3 169 181 159
3 101 108 68
3 133 165 140
3 63 121 99
3 65 108 64
3 159 166 127
3 106 167 153
3 134 161 84
3 183 203 191
3 91 188 177
3 74 110 86
3 95 186 167
3 182 183 172
3 132 145 137
3 128 160 154
3 91 103 52
3 103 126 52
3 207 211 90
3 108 121 64
3 194 200 192
3 111 135 103
3 152 168 160
3 85 139 102
3 159 179 166
3 193 205 201
3 192 198 183
3 74 118 110
3 63 99 97
3 166 188 91
3 160 168 164
3 141 149 127
3 94 201 23
3 125 130 107
3 140 158 155
3 164 182 180
3 116 131 87
3 95 196 186
3 171 190 172
3 97 145 112
3 203 209 191
3 87 127 113
3 105 135 118
3 127 166 113
3 159 181 179
3 206 208 200
3 198 208 207
3 50 98 80
3 97 114 62
3 179 188 166
3 183 191 176
3 169 185 181
3 207 208 104
3 182 195 194
3 107 142 124
3 121 137 99
3 164 180 154
3 164 195 182
3 97 147 114
3 72 117 100
3 13 196 95
3 182 194 192
3 59 115 93
3 172 183 176
3 119 126 103
3 141 151 149
3 148 190 162
3 130 142 107
3 149 169 159
3 87 113 55
3 64 121 63
3 176 185 169
3 187 197 193
3 87 141 127
3 56 116 87
3 138 141 131
3 111 177 165
3 112 147 97
3 83 196 13
3 136 143 138
3 150 152 112
3 54 91 53
3 53 91 52
3 52 126 51
3 63 97 62
3 88 115 60
3 192 208 198
3 88 143 136
3 172 176 156
3 153 167 157
3 140 142 130
3 55 113 54
3 88 136 115
3 62 114 61
3 167 186 174
3 209 210 205
3 163 173 161
3 201 205 82
3 143 148 138
3 105 118 74
3 205 213 82
3 180 182 172
3 155 175 163
3 61 88 60
3 155 161 134
3 56 87 55
3 197 199 193
3 93 116 57
3 138 151 141
3 199 205 193
3 193 201 94
3 25 189 24
3 181 202 175
3 131 141 87
3 203 210 209
3 189 193 94
3 175 202 163
3 60 115 59
3 212 213 210
3 57 116 56
3 51 126 123
3 200 208 192
3 156 176 169
3 89 144 132
3 187 189 178
3 184 187 173
3 148 162 138
3 26 178 25
3 73 120 89
3 138 162 151
3 102 139 129
3 117 137 100
3 158 179 175
3 165 188 179
3 58 93 57
3 59 93 58
3 16 204 15
3 156 169 149
3 157 168 146
3 173 178 170
3 110 133 130
3 139 153 146
3 3 58 57
3 146 150 129
3 123 126 109
3 155 163 161
3 124 142 134
3 85 153 139
3 75 105 74
3 83 206 200
3 119 135 105
3 109 126 119
3 101 122 121
3 167 174 157
3 171 172 156
3 24 189 94
3 83 200 196
3 186 194 174
3 153 157 146
3 180 190 154
3 199 209 205
3 110 125 86
3 33 125 107
3 73 117 72
3 178 189 25
3 147 160 128
3 89 132 117
3 78 123 109
3 210 213 205
3 163 184 173
3 184 197 187
3 82 213 21
3 158 175 155
3 177 188 165
3 90 211 18
3 173 187 178
3 132 137 117
3 15 206 83
3 18 211 104
3 7 102 6
3 104 204 16
3 187 193 189
3 21 213 212
3 89 117 73
3 170 178 26
3 118 133 110
3 137 145 99
3 31 124 96
3 204 206 15
3 102 129 120
3 165 179 158
3 161 173 170
3 129 150 144
3 110 130 125
3 142 155 134
3 23 201 22
3 22 82 21
3 151 156 149
3 20 90 19
3 19 90 18
3 17 104 16
3 18 104 17
3 21 212 20
3 24 94 23
3 15 83 14
3 14 83 13
3 77 92 76
3 76 92 75
3 139 146 129
3 86 125 33
3 98 123 78
3 151 162 156
3 13 95 12
3 12 95 11
3 107 124 31
3 29 84 28
3 28 84 27
3 72 100 71
3 71 100 70
3 100 122 70
3 10 106 9
3 11 106 10
3 27 170 26
3 92 105 75
3 140 165 158
3 8 85 7
3 9 85 8
3 129 144 120
3 78 109 77
3 133 140 130
3 162 190 171
3 146 168 152
3 196 200 186
3 146 152 150
3 103 135 119
3 136 138 131
3 92 119 105
3 30 96 29
3 31 96 30
3 22 201 82
3 5 86 33
3 70 122 101
3 80 98 79
3 79 98 78
3 154 190 148
3 70 101 69
3 69 101 68
3 20 212 90
3 32 107 31
3 33 107 32
3 161 170 84
3 163 202 184
3 124 134 96
3 6 102 4
3 194 195 174
3 84 170 27
3 102 120 4
3 77 109 92
3 104 208 204
3 109 119 92
3 120 144 89
3 121 122 100
3 162 171 156
3 104 211 207
3 204 208 206
3 74 86 5
3 85 102 7
3 9 106 85
3 95 106 11
3 29 96 84
3 96 134 84
3 106 153 85
3 114 128 88
3 203 207 90
3 90 212 203
3 91 177 103
3 113 166 91
3 95 167 106
3 101 121 108
3 111 133 118
3 144 150 112
3 128 154 143
3 143 154 148
3 197 202 181
3 191 199 185
3 264 279 241
3 265 278 255
3 326 337 334
3 69 236 228
3 339 343 334
3 307 318 310
3 317 327 312
3 282 298 284
3 81 49 2
3 79 240 49
3 314 332 298
3 238 254 229
3 327 342 299
3 229 272 226
3 233 251 4
3 258 264 247
3 66 34 67
3 73 233 4
3 0 34 66
3 321 323 318
3 339 340 214
3 69 237 236
3 308 311 302
3 80 49 81
3 79 49 80
3 36 275 35
3 12 342 338
3 307 310 292
3 231 248 240
3 284 296 270
3 288 304 278
3 229 248 238
3 261 283 271
3 5 242 74
3 219 264 241
3 234 258 247
3 245 313 257
3 231 240 79
3 260 280 239
3 270 279 264
3 45 245 220
3 284 298 296
3 270 296 279
3 286 313 245
3 257 268 220
3 225 342 12
3 256 260 233
3 246 258 234
3 307 321 318
3 280 299 225
3 219 241 232
3 5 263 242
3 242 273 262
3 35 237 34
3 49 240 48
3 317 345 327
3 73 249 233
3 273 277 262
3 300 315 307
3 265 320 288
3 227 283 261
3 306 317 312
3 241 279 265
3 277 285 262
3 287 294 266
3 310 314 282
3 289 312 299
3 241 265 255
3 47 248 229
3 321 331 323
3 306 330 324
3 242 262 222
3 308 321 315
3 247 264 219
3 324 345 317
3 323 329 318
3 46 229 226
3 278 287 259
3 311 315 293
3 224 347 18
3 214 343 339
3 298 316 309
3 323 335 333
3 232 274 244
3 291 320 265
3 308 315 311
3 224 346 344
3 257 301 282
3 344 346 341
3 316 337 326
3 336 340 335
3 235 345 341
3 259 287 271
3 262 285 267
3 255 278 274
3 235 346 16
3 271 283 259
3 226 245 46
3 324 344 341
3 36 297 227
3 249 271 256
3 316 326 309
3 328 335 323
3 341 345 324
3 323 331 328
3 316 332 329
3 43 246 234
3 226 286 245
3 232 244 38
3 266 280 260
3 278 304 294
3 67 237 68
3 68 237 69
3 219 232 38
3 40 247 219
3 268 270 258
3 259 283 274
3 269 273 263
3 299 342 225
3 315 321 307
3 306 312 304
3 277 303 293
3 220 268 258
3 48 248 47
3 285 300 292
3 333 340 339
3 240 248 48
3 47 229 46
3 329 332 318
3 289 299 280
3 220 246 44
3 278 294 287
3 255 274 232
3 236 237 35
3 319 331 322
3 298 332 316
3 300 307 292
3 34 237 67
3 334 344 324
3 293 315 300
3 330 334 324
3 309 320 291
3 220 258 246
3 293 300 277
3 241 255 232
3 38 244 37
3 274 278 259
3 301 310 282
3 46 245 45
3 37 297 36
3 326 330 309
3 292 310 301
3 45 220 44
3 39 219 38
3 40 219 39
3 310 318 314
3 234 247 41
3 298 309 291
3 279 291 265
3 344 347 224
3 214 347 343
3 221 249 73
3 285 292 267
3 306 324 317
3 320 330 306
3 256 287 266
3 329 337 316
3 222 262 253
3 323 333 329
3 302 311 290
3 295 303 281
3 44 246 43
3 41 247 40
3 294 312 289
3 279 296 291
3 335 340 333
3 341 346 235
3 333 337 329
3 268 284 270
3 258 270 264
3 328 331 319
3 42 234 1
3 43 234 42
3 1 234 41
3 244 297 37
3 22 336 23
3 228 275 250
3 236 275 228
3 27 302 28
3 327 345 216
3 343 344 334
3 326 334 330
3 325 336 335
3 74 242 222
3 267 313 243
3 262 267 243
3 333 339 337
3 261 271 249
3 274 283 244
3 217 281 269
3 304 312 294
3 266 289 280
3 223 340 336
3 256 266 260
3 277 300 285
3 309 330 320
3 343 347 344
3 288 306 304
3 288 320 306
3 263 273 242
3 12 338 13
3 269 303 277
3 222 254 230
3 223 336 22
3 23 325 319
3 281 303 269
3 25 322 215
3 296 298 291
3 23 336 325
3 266 294 289
3 271 287 256
3 71 250 221
3 319 322 25
3 28 302 290
3 215 302 27
3 28 290 276
3 290 311 305
3 276 295 30
3 292 301 267
3 228 250 71
3 16 346 17
3 30 295 281
3 249 256 233
3 322 331 308
3 18 347 19
3 248 252 238
3 19 214 20
3 253 254 222
3 20 223 21
3 21 223 22
3 325 335 328
3 17 224 18
3 25 215 26
3 26 215 27
3 23 319 24
3 24 319 25
3 15 235 16
3 14 235 15
3 301 313 267
3 221 261 249
3 215 322 308
3 305 311 293
3 13 216 14
3 217 269 263
3 74 230 75
3 75 230 76
3 215 308 302
3 11 225 12
3 10 225 11
3 29 276 30
3 28 276 29
3 32 217 33
3 31 217 32
3 71 221 72
3 72 221 73
3 30 281 31
3 230 254 238
3 9 239 10
3 8 239 9
3 238 252 77
3 318 332 314
3 290 305 276
3 227 297 283
3 257 313 301
3 6 218 7
3 7 218 8
3 70 228 71
3 69 228 70
3 231 252 248
3 276 305 295
3 76 238 77
3 295 305 303
3 6 251 218
3 250 275 261
3 4 251 6
3 325 328 319
3 13 338 216
3 283 297 244
3 251 260 218
3 77 252 231
3 222 230 74
3 269 277 273
3 253 262 243
3 17 346 224
3 19 347 214
3 217 263 33
3 243 313 286
3 243 272 253
3 78 231 79
3 77 231 78
3 243 286 272
3 33 263 5
3 261 275 227
3 254 272 229
3 31 281 217
3 272 286 226
3 230 238 76
3 250 261 221
3 253 272 254
3 308 331 321
3 338 342 216
3 303 305 293
3 216 342 327
3 218 239 8
3 10 239 225
3 216 235 14
3 214 223 20
3 35 275 236
3 227 275 36
3 214 340 223
3 216 345 235
3 218 260 239
3 245 257 220
3 239 280 225
3 233 260 251
3 257 282 268
3 265 288 278
3 282 284 268
3 282 314 298
3 312 327 299
3 337 339 334
POINT_DATA 348
SCALARS UX float 1
LOOKUP_TABLE default
0.000039
-0.000021
-69361397.767843
-59559400.316249
-29027765.378544
-34995306.355361
-30886540.807310
-32735676.484742
-33868259.317422
-34845463.831429
-35751323.696445
-36893598.642854
-37372361.906287
-38380588.426139
-38043741.960787
-39425024.333571
-39522731.665469
-40826088.688577
-42394682.222050
-43852897.009224
-45651893.242822
-48824375.059289
-50507991.041385
-52410312.700563
-55301781.014258
-51459065.430992
-49987029.851162
-44980080.174508
-37440150.621369
-43277837.443482
-32380774.789386
-41870629.960891
-39939501.753458
-39273435.316230
-0.000038
0.000049
-0.000030
0.000005
-0.000006
0.000003
-0.000012
0.000019
-4551323.086943
-6052562.084757
-8615116.062531
-9925386.991341
-15034817.484799
-19170061.087749
-33226844.453649
-51151440.569796
-78690768.217478
-74739991.418950
-65222115.434547
-62266378.152626
-63052204.977885
-61670630.688911
-60719079.291222
-61817798.579456
-58354939.974970
-53002977.389432
-43720298.443797
-45708920.381089
-43037082.572746
-39498398.950518
-23077763.087729
-13621575.517882
-2223899.910704
-4082965.965847
-8212821.340278
-13695396.358524
-18632167.048959
-20281105.980053
-22895732.348493
-25817402.176898
-37849762.445210
-40788516.597610
-44729117.969353
-49514881.807390
-55666088.642453
-61716534.255403
-67072680.674345
-68295452.258177
-43047781.007581
-40227344.303645
-47851714.151190
-34899152.028700
-41244628.952445
-58758121.523475
-45229055.476650
-30543079.013361
-40559845.652156
-60250345.736244
-52265188.847708
-58740647.459134
-47942481.825559
-38620236.811835
-46796122.153055
-41394590.293601
-71179283.013439
-36118730.351771
-24277266.432569
-20248636.058329
-33030803.638068
-59614365.042556
-41353421.982273
-49481379.539866
-36894991.658274
-45614554.204043
-19681309.710180
-58300007.982303
-44181186.494502
-54280846.593596
-38751829.574352
-61875115.080578
-45368059.787666
-54215370.501784
-59075551.530775
-28150655.919495
-49142119.705750
-57664253.387701
-31722526.577267
-26268882.111189
-22618569.117134
-64775021.950517
-46746407.060547
-44143837.377808
-65141748.424618
-57244137.089697
-45120118.215791
-35563029.703313
-46820657.451688
-55872409.562553
-34025855.560132
-50064548.820061
-48241140.336624
-54304522.197371
-53845292.399747
-30990153.846365
-52183268.393665
-36305516.976949
-49896429.732309
-54725588.893602
-47858525.680660
-47955842.843484
-35030340.742198
-35710559.599515
-38428209.240762
-42882269.369724
-48556440.091179
-52614918.428851
-37623759.506149
-51814355.803105
-40576130.403005
-37658672.153381
-46229741.949609
-49616483.147658
-49471643.881906
-39934242.960534
-51373003.572806
-54355905.146014
-43365518.842735
-48843352.108152
-49576989.236851
-49734208.916216
-43675569.805414
-53157706.990930
-57822954.955057
-39100015.248972
-41341256.558233
-51259732.656318
-48221732.724691
-48370542.290249
-46562785.511944
-48860994.359450
-40730202.308964
-50869239.110659
-47356538.142489
-57224775.428592
-48972857.232308
-53953430.655154
-45543556.730707
-51562661.249419
-43392244.997893
-43985836.725424
-48945304.969223
-48337166.368785
-40299765.571291
-47912474.910718
-56667200.783177
-47830877.706344
-47538856.760506
-45541526.177853
-42531444.537457
-45315208.400038
-41772293.593575
-41850744.999601
-39876620.744912
-48065442.021161
-41473572.388964
-46154034.547801
-41290381.826511
-44067970.594992
-50028100.514411
-43291179.122403
-41224583.077132
-44254440.168373
-41241272.382002
-39519316.252974
-42091563.932502
-44870542.348725
-43364434.910599
-40286657.253392
-42218180.158066
-42692374.817467
-31472526.688502
-14462077.945692
-33061232.298671
-22139041.508944
-28372585.308869
-1608168.781435
-6649979.950361
-18471895.395197
-25436841.321108
-28920914.175250
-33701619.202949
-34214752.722064
-12537803.249610
-6783353.666698
-12736740.545846
-17872683.487357
-32725227.808400
-45080194.448757
-1903743.302402
-23953912.087278
-3619693.484319
-33431142.534153
-5788043.343508
-2672789.552683
-32718053.115504
-31406653.963763
-42858130.609512
-3519305.996468
-25123707.872150
-11930813.648386
-4926731.652631
-9003846.092435
-5118350.937579
-2565905.548937
-29891335.723925
-19328391.102156
-14561039.167421
-26892339.293345
-39051307.906656
-17479251.751239
-22061599.774517
-4762232.229908
-20157833.650476
-5352618.612854
-4658928.854027
-11222572.971363
-25446372.954438
-12900763.922144
-15868780.206851
-23845244.519239
-3873825.376648
-4518059.065532
-21349731.307218
-8899839.663688
-3231062.451198
-18951396.387774
-3045183.250549
-14589360.552444
-14433971.880949
-18371409.161558
-6128831.856013
-5795879.854123
-17216428.480226
-14903768.345483
-8352737.422659
-3193673.541294
-28140462.319932
-20032707.103076
-3116225.940243
-9482063.085782
-2563525.759134
-11679526.802601
-10033854.765651
-15926854.341685
-7230171.107220
-23647515.502440
-15172366.405868
-3488285.708095
-7065909.372924
-13504651.750514
-16233711.860264
-17336176.772647
-3120467.039863
-4662247.346478
-1210594.086477
-31394033.946236
-10160209.856504
-4408681.453182
-14170236.855980
-16158778.246326
-11588463.504414
-14509184.171931
-14260605.421870
-7411987.383388
-11463164.486380
-7283163.272846
-3505075.137270
-12997937.685831
-22163591.626517
-6905580.564051
-2024424.361421
-10743833.310713
-11678794.148654
-27155549.840398
-5355003.600680
-17241574.155958
-6938630.450306
-8947381.878658
-15657037.494434
-12724848.104652
-29618987.624001
-20927185.453313
-17469272.404255
-30337182.332846
-17091138.558552
-20892374.495124
-16177075.207776
-12860036.128711
-6517241.814516
-26386400.579659
-30049875.936841
-22375870.834093
-25312452.018373
-28242979.967659
-33572109.640334
-30148029.680798
-27786207.425845
-32073873.202401
-31155244.300687
-31222419.232820
-31948838.242972
-31448277.058142
-33876673.994058
-32787486.530817
SCALARS UY float 1
LOOKUP_TABLE default
0.000306
-0.000044
0.539188
0.540973
-3106422.891519
1490065.940427
-3631735.903384
-4200978.725009
-4213859.530852
-5019844.009905
-5624774.619344
-5426002.468568
-5741038.955341
-5452061.199328
-4146418.491480
-4232155.966248
-3245454.573130
-3657045.712318
-3907797.488084
-4772612.331318
-5254050.703836
-4568760.347958
-4763210.579201
-3711769.351730
-1780611.106513
-2644810.700645
-1252618.505132
-1072590.576362
-4193823.888254
1226205.284890
-5084282.930469
1157129.987299
897766.741054
1611881.442781
-0.000159
-0.000039
0.000065
-0.000011
0.000007
0.000009
-0.000013
0.000041
3436305.244106
9513083.242473
16547960.796596
28614765.572138
41238260.536368
45015196.878206
52476863.064196
34911270.140969
0.542094
0.540964
0.540939
0.540953
0.540992
0.540997
0.540950
0.540999
-6122789.938254
-13505217.381496
-8707861.846244
-13233125.446479
-18928805.081004
-21570261.459188
-29965776.402219
-32861480.096408
-10254488.501488
-16954390.723590
-18024738.503185
-14468765.948475
-11632887.232853
-8968091.662679
-6886056.090200
-4738558.416206
1940845.366597
4076022.088601
6435476.247782
8856344.989093
12429690.838701
15722205.517848
15473281.284362
8166149.440333
-2526600.872020
-5445609.543928
1746480.687608
-4843390.038703
1061400.085432
-3720455.024306
-12507230.518332
-7418103.518402
-2807997.532795
-779477.209883
856924.421862
-2841688.175837
-846936.930380
-5315334.144885
2015388.428871
-16513229.970032
4795870.134055
-18114543.665947
-13748421.534349
-20080823.326204
-4822886.827229
-1433409.244344
-2684189.576968
-280979.706783
-5086048.931529
2143941.749646
-27580737.409982
1707153.305478
543999.594475
-503076.031846
-11299854.666036
-3051021.077154
-14841389.682319
-6451184.269969
-2191891.756783
-10119542.652804
-815932.822766
-470080.640759
-5603323.061889
-21810258.980839
-16843203.218764
2753425.595997
2137303.480913
1457476.123493
-1317588.767083
-3843926.256767
-11718443.686529
-6352210.238441
1371648.238115
-4494622.115155
-10747251.995603
229310.020520
1875294.273446
-1562815.206528
-5570760.116975
-15474616.405132
-5603374.840014
-5704075.932694
1185992.612444
-4656466.755342
1900339.345116
-8054466.408173
-8234404.360030
-14419768.699484
-6818759.559729
-12453568.946437
-6783661.803709
-4626146.962226
-8200531.983451
-5321820.284830
-9376502.803683
-5529454.883632
-7970797.253943
1458260.817083
-6308498.766207
-6276794.575714
1164255.612770
-3053865.879602
-9548065.342215
1436836.037154
-6111902.556516
399050.932364
-7204206.877704
732951.812358
-1853752.227644
-5563189.909049
-7580960.703179
-5427984.545931
1003078.889886
-6328960.251229
-6147039.368975
821203.907830
-5834150.059253
-231878.735857
-5568415.461854
-278370.593703
843948.173534
-895573.245895
-6737716.831117
-2421067.431938
-5899451.582282
-5285750.936401
-376499.997806
-3930963.114948
-5569132.807974
-430653.763719
-652023.241467
-263460.712204
-6674532.188653
-4281738.882393
-5422517.047294
-2601624.702608
-5661916.351356
-6313707.120280
-5483486.305817
-2011473.373706
-4106398.069947
-3092933.142444
-5579123.885898
-2939995.184398
-757948.283316
-3461847.038019
-4655840.481694
-2700131.549334
-5472962.056355
-2790886.643021
-5685507.102198
-3329696.561282
-2931476.996032
-2615502.359162
-2577491.040054
-2380623.779658
1435221.562137
-8248980.038529
-1365520.980892
-4743603.792930
-297019.112839
1295236.179616
9649440.431404
-3194947.911509
8913677.262546
606106.707502
-498479.637341
-683635.565647
26503439.550732
1925302.628287
-5894919.005889
30455583.702531
9579294.159725
24451759.722301
314899.261976
-681633.569410
1471551.249202
-1022454.720757
-4423273.592275
-7851779.206600
16632724.896333
1821896.683439
40117855.545917
1369409.475955
2922815.353625
12996209.547431
3158980.288611
20792024.408984
6935285.928201
1442130.410394
34598672.847532
-431157.781326
-4021789.010767
-840354.397276
21313003.336826
13917854.338399
17386615.130697
26638.089941
1461602.192636
10252764.128353
4583269.380415
3171354.372664
1026345.464280
723660.063319
6068010.493151
-2042776.765806
2853367.385630
-853542.566889
2079451.408705
7638421.594370
6824593.944287
-2929257.182265
3660805.322600
2470021.732664
20391750.844737
364975.832218
978266.541456
-583982.415881
-8135533.694521
-876368.736912
357180.625768
1157033.270831
2986983.835755
-5578300.152261
4611387.427873
4008970.568080
3105726.262177
2588980.424194
18332735.114435
2730227.159930
-917579.429248
2241016.051845
-7836772.720611
-1252113.719212
1982052.617077
-4506976.142331
1321773.739876
-6640371.960635
862786.528305
3510354.124685
254372.730007
-311723.157826
-1406922.734976
6940109.731384
-8540758.154972
-4669982.989256
-335959.941805
-6909039.232771
11102.249871
-3468560.603676
-9478902.407457
-545616.177419
2570.909095
-7643632.526879
-27812.133287
12326605.565228
-958436.994553
-6305715.851220
242532.368962
159551.538883
-5637446.451905
-5332029.249642
-893571.835813
-7813774.292099
-6295881.204772
-5786494.058826
1167105.586252
-1300648.127033
493232.444066
-35801.394702
-4759565.848448
-3042543.823461
879847.886469
-7407691.596576
-1272037.060570
169138.789468
2113818.869517
-1104833.562705
239332.120003
951793.366798
-3269602.197818
1881225.638904
1281085.452726
242912.614957
-947778.297755
1640084.754686
883540.693438
-65872.771123
-345335.120281
270025.891517
SCALARS DAMAGE float 1
LOOKUP_TABLE default
-0.000001
-0.000001
-0.000001
-0.000001
0.000000
0.000000
-0.000000
-0.000000
0.000000
0.000000
0.000000
0.000000
0.000000
0.000000
0.000000
0.000000
0.000000
0.000000
0.000000
0.000000
0.000000
0.000000
0.000000
0.000000
0.000000
0.000000
0.000000
0.000000
0.000000
0.000000
0.000000
0.000000
0.000000
-0.000000
-0.000001
-0.000001
0.000001
0.000001
0.000000
-0.000001
-0.000000
-0.000000
-0.000001
-0.000001
-0.000001
0.085888
-0.000001
-0.000001
-0.000001
-0.000001
-0.000001
-0.000001
-0.000001
-0.000001
0.000004
-0.000002
-0.000001
0.000001
-0.000000
-0.000001
0.000016
0.000010
-0.000004
0.000004