# vtk DataFile Version 2.0
Test
ASCII
DATASET POLYDATA
POINTS 858 float
0.000000 0.000000 0.000000
1.000000 0.000000 0.000000
1.000000 1.000000 0.000000
0.000000 1.000000 0.000000
0.300000 0.330000 0.000000
0.700000 0.680000 0.000000
0.100000 0.000000 0.000000
0.200000 0.000000 0.000000
0.300000 0.000000 0.000000
0.400000 0.000000 0.000000
0.500000 0.000000 0.000000
0.600000 0.000000 0.000000
0.700000 0.000000 0.000000
0.800000 0.000000 0.000000
0.900000 0.000000 0.000000
1.000000 0.100000 0.000000
1.000000 0.200000 0.000000
1.000000 0.300000 0.000000
1.000000 0.400000 0.000000
1.000000 0.500000 0.000000
1.000000 0.600000 0.000000
1.000000 0.700000 0.000000
1.000000 0.800000 0.000000
1.000000 0.900000 0.000000
0.900000 1.000000 0.000000
0.800000 1.000000 0.000000
0.700000 1.000000 0.000000
0.600000 1.000000 0.000000
0.500000 1.000000 0.000000
0.400000 1.000000 0.000000
0.300000 1.000000 0.000000
0.200000 1.000000 0.000000
0.100000 1.000000 0.000000
0.000000 0.900000 0.000000
0.000000 0.800000 0.000000
0.000000 0.700000 0.000000
0.000000 0.600000 0.000000
0.000000 0.500000 0.000000
0.000000 0.400000 0.000000
0.000000 0.300000 0.000000
0.000000 0.200000 0.000000
0.000000 0.100000 0.000000
0.307407 0.336481 0.000000
0.314815 0.342963 0.000000
0.322222 0.349444 0.000000
0.329630 0.355926 0.000000
0.337037 0.362407 0.000000
0.344444 0.368889 0.000000
0.351852 0.375370 0.000000
0.359259 0.381852 0.000000
0.366667 0.388333 0.000000
0.374074 0.394815 0.000000
0.381481 0.401296 0.000000
0.388889 0.407778 0.000000
0.396296 0.414259 0.000000
0.403704 0.420741 0.000000
0.411111 0.427222 0.000000
0.418519 0.433704 0.000000
0.425926 0.440185 0.000000
0.433333 0.446667 0.000000
0.440741 0.453148 0.000000
0.448148 0.459630 0.000000
0.455556 0.466111 0.000000
0.462963 0.472593 0.000000
0.470370 0.479074 0.000000
0.477778 0.485556 0.000000
0.485185 0.492037 0.000000
0.492593 0.498519 0.000000
0.500000 0.505000 0.000000
0.507407 0.511481 0.000000
0.514815 0.517963 0.000000
0.522222 0.524444 0.000000
0.529630 0.530926 0.000000
0.537037 0.537407 0.000000
0.544444 0.543889 0.000000
0.551852 0.550370 0.000000
0.559259 0.556852 0.000000
0.566667 0.563333 0.000000
0.574074 0.569815 0.000000
0.581481 0.576296 0.000000
0.588889 0.582778 0.000000
0.596296 0.589259 0.000000
0.603704 0.595741 0.000000
0.611111 0.602222 0.000000
0.618519 0.608704 0.000000
0.625926 0.615185 0.000000
0.633333 0.621667 0.000000
0.640741 0.628148 0.000000
0.648148 0.634630 0.000000
0.655556 0.641111 0.000000
0.662963 0.647593 0.000000
0.670370 0.654074 0.000000
0.677778 0.660556 0.000000
0.685185 0.667037 0.000000
0.692593 0.673519 0.000000
0.548037 0.570873 0.000000
0.554453 0.579695 0.000000
0.540788 0.582045 0.000000
0.550492 0.594703 0.000000
0.338797 0.350505 0.000000
0.329823 0.347064 0.000000
0.335712 0.339262 0.000000
0.451687 0.438509 0.000000
0.442642 0.430741 0.000000
0.457884 0.427703 0.000000
0.387297 0.847474 0.000000
0.374793 0.914734 0.000000
0.332869 0.847471 0.000000
0.447069 0.415163 0.000000
0.567391 0.482596 0.000000
0.554659 0.473874 0.000000
0.567453 0.464800 0.000000
0.301190 0.902112 0.000000
0.551747 0.457138 0.000000
0.356532 0.391813 0.000000
0.347986 0.386048 0.000000
0.176207 0.429241 0.000000
0.128375 0.468105 0.000000
0.136378 0.404291 0.000000
0.185621 0.475277 0.000000
0.497512 0.261165 0.000000
0.499167 0.296032 0.000000
0.469918 0.291504 0.000000
0.642232 0.687989 0.000000
0.624295 0.701188 0.000000
0.630549 0.678643 0.000000
0.647682 0.074905 0.000000
0.700945 0.096046 0.000000
0.657288 0.160421 0.000000
0.611443 0.684403 0.000000
0.559779 0.406431 0.000000
0.582162 0.394521 0.000000
0.580552 0.422827 0.000000
0.560788 0.374759 0.000000
0.541503 0.468043 0.000000
0.545465 0.480978 0.000000
0.428301 0.394826 0.000000
0.414860 0.384611 0.000000
0.432086 0.374027 0.000000
0.533961 0.477886 0.000000
0.527361 0.464336 0.000000
0.415481 0.368142 0.000000
0.484401 0.527206 0.000000
0.472984 0.524144 0.000000
0.481205 0.518972 0.000000
0.394266 0.424909 0.000000
0.401826 0.431399 0.000000
0.392742 0.434502 0.000000
0.642418 0.617836 0.000000
0.635302 0.612878 0.000000
0.644322 0.605726 0.000000
0.263646 0.464175 0.000000
0.250486 0.498376 0.000000
0.230296 0.467342 0.000000
0.491693 0.468898 0.000000
0.498004 0.479972 0.000000
0.487381 0.480785 0.000000
0.718619 0.489140 0.000000
0.756680 0.466072 0.000000
0.751564 0.516847 0.000000
0.497232 0.719177 0.000000
0.477497 0.748035 0.000000
0.465924 0.716726 0.000000
0.501292 0.467390 0.000000
0.529064 0.285755 0.000000
0.547173 0.240449 0.000000
0.474742 0.511943 0.000000
0.403118 0.392815 0.000000
0.412434 0.399392 0.000000
0.653057 0.614785 0.000000
0.659187 0.602396 0.000000
0.400247 0.379451 0.000000
0.459133 0.636583 0.000000
0.434636 0.647284 0.000000
0.440667 0.616932 0.000000
0.453650 0.664799 0.000000
0.666296 0.616100 0.000000
0.657731 0.628197 0.000000
0.420489 0.468863 0.000000
0.414183 0.459489 0.000000
0.424065 0.460120 0.000000
0.629321 0.574616 0.000000
0.630370 0.589442 0.000000
0.617226 0.584388 0.000000
0.422026 0.450877 0.000000
0.590180 0.614274 0.000000
0.596278 0.627413 0.000000
0.585881 0.628067 0.000000
0.630677 0.603443 0.000000
0.529117 0.486095 0.000000
0.517046 0.488781 0.000000
0.522040 0.477224 0.000000
0.308641 0.392803 0.000000
0.323746 0.398675 0.000000
0.304273 0.411173 0.000000
0.146020 0.514086 0.000000
0.087335 0.505198 0.000000
0.624982 0.561914 0.000000
0.643811 0.559907 0.000000
0.831909 0.406061 0.000000
0.881376 0.423788 0.000000
0.839177 0.457573 0.000000
0.509066 0.478681 0.000000
0.614792 0.620247 0.000000
0.608406 0.635616 0.000000
0.603251 0.619643 0.000000
0.640290 0.595050 0.000000
0.524731 0.497540 0.000000
0.338689 0.392113 0.000000
0.347423 0.395876 0.000000
0.340116 0.407012 0.000000
0.686563 0.659098 0.000000
0.682555 0.651347 0.000000
0.934704 0.856355 0.000000
0.940546 0.930926 0.000000
0.863552 0.916423 0.000000
0.172107 0.566287 0.000000
0.188105 0.516551 0.000000
0.221330 0.532895 0.000000
0.683914 0.680068 0.000000
0.692945 0.685712 0.000000
0.683376 0.697853 0.000000
0.672414 0.683990 0.000000
0.557147 0.529227 0.000000
0.554161 0.540325 0.000000
0.546244 0.533101 0.000000
0.391911 0.394487 0.000000
0.387591 0.383772 0.000000
0.385780 0.368800 0.000000
0.671617 0.628861 0.000000
0.664093 0.637808 0.000000
0.408700 0.450928 0.000000
0.406517 0.467364 0.000000
0.394366 0.455525 0.000000
0.388841 0.472148 0.000000
0.792728 0.486062 0.000000
0.461047 0.516036 0.000000
0.460182 0.532753 0.000000
0.450617 0.523703 0.000000
0.364207 0.398120 0.000000
0.371344 0.402923 0.000000
0.362621 0.408449 0.000000
0.235276 0.413110 0.000000
0.235915 0.390376 0.000000
0.260894 0.399649 0.000000
0.564107 0.604249 0.000000
0.558497 0.625526 0.000000
0.545610 0.611482 0.000000
0.542035 0.628852 0.000000
0.441269 0.401429 0.000000
0.443649 0.385779 0.000000
0.454140 0.398188 0.000000
0.456246 0.380948 0.000000
0.531090 0.597071 0.000000
0.528592 0.618783 0.000000
0.693800 0.600685 0.000000
0.675646 0.601117 0.000000
0.688895 0.583493 0.000000
0.466943 0.412411 0.000000
0.469666 0.393398 0.000000
0.215629 0.311290 0.000000
0.236374 0.342186 0.000000
0.194357 0.347185 0.000000
0.372859 0.289727 0.000000
0.362694 0.307734 0.000000
0.346245 0.295576 0.000000
0.824768 0.656091 0.000000
0.787989 0.680173 0.000000
0.787481 0.637866 0.000000
0.763354 0.658567 0.000000
0.564845 0.587843 0.000000
0.565674 0.575091 0.000000
0.575285 0.580662 0.000000
0.591463 0.532694 0.000000
0.606735 0.524365 0.000000
0.606700 0.541268 0.000000
0.696107 0.663701 0.000000
0.695223 0.651919 0.000000
0.114270 0.553146 0.000000
0.897846 0.490106 0.000000
0.941355 0.438159 0.000000
0.491870 0.442127 0.000000
0.508682 0.433741 0.000000
0.504276 0.453072 0.000000
0.616608 0.507977 0.000000
0.629719 0.487283 0.000000
0.643435 0.510566 0.000000
0.660659 0.486926 0.000000
0.584650 0.557787 0.000000
0.582076 0.545531 0.000000
0.595086 0.552412 0.000000
0.215445 0.494211 0.000000
0.502563 0.534321 0.000000
0.493623 0.527201 0.000000
0.502900 0.523550 0.000000
0.490744 0.536689 0.000000
0.303740 0.348241 0.000000
0.312638 0.354325 0.000000
0.302746 0.359450 0.000000
0.683727 0.548378 0.000000
0.666144 0.562133 0.000000
0.663581 0.542222 0.000000
0.366098 0.324774 0.000000
0.379406 0.309842 0.000000
0.251675 0.434611 0.000000
0.214900 0.437402 0.000000
0.581091 0.493223 0.000000
0.603283 0.484739 0.000000
0.593195 0.510449 0.000000
0.429738 0.356510 0.000000
0.412970 0.350726 0.000000
0.358920 0.356811 0.000000
0.352460 0.366146 0.000000
0.347463 0.357590 0.000000
0.353794 0.402394 0.000000
0.527483 0.436280 0.000000
0.546965 0.439869 0.000000
0.535210 0.453469 0.000000
0.624606 0.790385 0.000000
0.614250 0.755688 0.000000
0.654837 0.763041 0.000000
0.384960 0.332814 0.000000
0.619946 0.597007 0.000000
0.358705 0.265521 0.000000
0.397502 0.266486 0.000000
0.377869 0.228897 0.000000
0.471169 0.372235 0.000000
0.492664 0.362648 0.000000
0.488718 0.386734 0.000000
0.431288 0.062893 0.000000
0.512348 0.074893 0.000000
0.450325 0.128772 0.000000
0.515327 0.223180 0.000000
0.538419 0.183215 0.000000
0.367912 0.509419 0.000000
0.343175 0.515399 0.000000
0.351317 0.488263 0.000000
0.593186 0.193353 0.000000
0.476496 0.230456 0.000000
0.594140 0.256114 0.000000
0.629340 0.367381 0.000000
0.659922 0.374166 0.000000
0.641019 0.397588 0.000000
0.669525 0.412603 0.000000
0.510665 0.591750 0.000000
0.493263 0.584115 0.000000
0.507476 0.576852 0.000000
0.492575 0.790205 0.000000
0.516533 0.753914 0.000000
0.493265 0.606545 0.000000
0.794852 0.435952 0.000000
0.797754 0.379724 0.000000
0.755728 0.420083 0.000000
0.528549 0.642034 0.000000
0.507334 0.653897 0.000000
0.509532 0.626562 0.000000
0.580705 0.748031 0.000000
0.605192 0.727758 0.000000
0.748472 0.635779 0.000000
0.742539 0.660255 0.000000
0.323194 0.421808 0.000000
0.325468 0.445306 0.000000
0.301700 0.435431 0.000000
0.295276 0.460827 0.000000
0.622421 0.457821 0.000000
0.642814 0.468538 0.000000
0.320303 0.468200 0.000000
[...]
POINT_DATA 858
SCALARS UX float 1
LOOKUP_TABLE default
-0.000000
0.000000
0.001279
-0.001720
-0.000854
0.000763
0.000000
-0.000000
-0.000000
-0.000000
-0.000000
0.000000
0.000000
0.000000
-0.000000
0.000722
0.001150
0.001438
0.001658
0.001799
0.001810
0.001680
0.001477
0.001327
0.000959
0.000644
0.000352
0.000090
-0.000186
-0.000480
-0.000787
-0.001102
-0.001412
-0.001743
-0.001800
-0.001888
-0.001974
-0.002010
-0.001912
-0.001645
-0.001236
-0.000763
-0.000817
-0.000771
-0.000727
-0.000734
-0.000687
-0.000636
-0.000646
-0.000612
-0.000576
-0.000540
-0.000550
-0.000516
-0.000491
-0.000453
-0.000448
-0.000417
-0.000397
-0.000370
-0.000325
-0.000318
-0.000273
-0.000263
-0.000234
-0.000183
-0.000147
-0.000170
-0.000108
-0.000076
-0.000045
-0.000019
0.000034
0.000025
0.000076
0.000113
0.000115
0.000165
0.000208
0.000224
0.000247
0.000258
0.000309
0.000329
0.000349
0.000393
0.000429
0.000463
0.000469
0.000532
0.000543
0.000573
0.000631
0.000629
0.000707
-0.000524
-0.000497
-0.000540
-0.000480
-0.000331
-0.000447
-0.000340
0.000311
0.000267
0.000321
-0.000555
-0.000566
-0.000727
0.000263
0.000678
0.000634
0.000634
-0.000803
0.000587
-0.001061
-0.001106
-0.001503
-0.001649
-0.001564
-0.001502
0.000045
0.000095
0.000016
0.000150
0.000110
0.000062
0.000085
0.000170
0.000225
0.000004
0.000473
0.000493
0.000555
0.000399
0.000597
0.000635
0.000164
0.000102
0.000115
0.000606
0.000563
0.000059
-0.000797
-0.000832
-0.000813
-0.000971
-0.000964
-0.001063
0.000915
0.000861
0.001003
-0.001309
-0.001325
-0.001388
0.000487
0.000509
0.000389
0.001006
0.001072
0.001134
-0.000313
-0.000338
-0.000418
0.000517
0.000150
0.000130
-0.000835
0.000072
0.000115
0.001018
0.001043
0.000049
-0.000590
-0.000634
-0.000681
-0.000546
0.001058
0.000983
-0.001014
-0.001030
-0.000985
0.000964
0.000968
0.000923
-0.000959
-0.000292
-0.000242
-0.000277
0.000934
0.000611
0.000577
0.000581
-0.001229
-0.001210
-0.001238
-0.001604
-0.001767
0.000941
0.000967
0.001184
0.001364
0.001295
0.000551
-0.000130
-0.000176
-0.000216
0.000997
0.000606
-0.001176
-0.001154
-0.001186
0.000920
0.000994
0.001169
0.001109
0.000867
-0.001500
-0.001485
-0.001382
0.000429
0.000555
0.000444
0.000311
0.000725
0.000633
0.000608
0.000008
-0.000006
-0.000021
0.001058
0.000911
-0.001047
-0.001049
-0.001085
-0.001075
0.001204
-0.000870
-0.000841
-0.000876
-0.001029
-0.000969
-0.001125
-0.001364
-0.001339
-0.001310
-0.000413
-0.000364
-0.000441
-0.000396
0.000214
0.000175
0.000234
0.000189
-0.000523
-0.000461
0.001094
0.001067
0.001072
0.000304
0.000254
-0.001075
-0.001199
-0.001293
-0.000268
-0.000282
-0.000367
0.001286
0.001137
0.001253
0.001166
-0.000443
-0.000398
-0.000294
0.000831
0.000841
0.000878
0.001004
0.001075
-0.001677
0.001506
0.001561
0.000435
0.000446
0.000491
0.000822
0.000802
0.000875
0.000864
0.000813
0.000828
0.000874
-0.001420
-0.000725
-0.000762
-0.000694
-0.000765
-0.001111
-0.001092
-0.001185
0.001016
0.001006
0.000970
-0.000228
-0.000215
-0.001340
-0.001421
0.000727
0.000746
0.000787
0.000057
-0.000001
-0.000170
-0.000300
-0.000256
-0.001146
0.000488
0.000533
0.000549
0.000181
0.000142
0.000287
-0.000137
0.000861
-0.000315
-0.000202
-0.000238
0.000196
0.000219
0.000274
-0.000040
-0.000005
-0.000067
0.000049
0.000060
-0.001049
-0.001089
-0.001110
0.000162
-0.000025
0.000251
0.000545
0.000637
0.000637
0.000739
-0.000584
-0.000644
-0.000634
-0.000250
-0.000202
-0.000580
0.001130
0.001031
0.000988
-0.000390
-0.000416
-0.000485
0.000014
0.000084
0.001193
0.001136
-0.001210
-0.001195
-0.001240
-0.001241
0.000722
0.000788
-0.001188
0.000068
-0.000112
-0.000095
-0.000144
-0.001405
-0.001543
-0.001765
-0.001428
-0.001287
-0.001261
-0.000321
-0.000352
0.001042
0.001070
-0.001266
-0.001240
-0.001615
-0.001383
-0.001632
-0.001790
-0.000425
-0.000968
-0.000854
-0.000911
-0.000877
-0.000172
-0.000132
-0.001444
0.001218
0.001420
0.001090
-0.001237
-0.001213
-0.001436
-0.000357
-0.000407
-0.000286
-0.000822
-0.000796
-0.000895
-0.000482
0.001207
0.000210
0.000162
-0.001183
-0.000230
-0.000152
0.000164
0.000181
0.000238
0.000276
0.000156
0.001232
-0.000482
-0.000609
-0.000413
-0.000666
-0.000707
-0.000485
0.001292
0.001003
-0.000699
0.000876
0.000855
0.000724
-0.000662
-0.000209
-0.000304
-0.000208
0.000120
0.000318
-0.001014
-0.000951
0.000183
0.000215
0.000347
-0.001411
-0.001325
-0.000524
0.000454
0.000640
0.000407
-0.001159
-0.001163
-0.000536
-0.000475
0.000927
0.000949
-0.001230
-0.001022
-0.001074
0.001347
-0.001149
0.000321
0.000358
0.000490
0.000813
0.000904
-0.000153
-0.001285
-0.001213
-0.000053
-0.000429
-0.000191
-0.000161
-0.001336
-0.001016
-0.001404
-0.000981
-0.001114
-0.001149
-0.001005
0.001155
0.001174
0.001141
0.000834
0.000888
-0.000905
-0.000865
-0.000217
-0.000125
0.001361
0.001355
-0.000908
0.001040
0.001126
-0.001065
-0.000094
-0.000159
-0.000861
-0.000801
-0.001131
-0.001105
-0.001108
-0.001109
-0.000762
0.000998
0.001020
0.001034
-0.001820
0.000610
0.000911
0.000047
0.000109
0.000013
-0.000051
0.001398
0.001476
0.001585
0.001627
0.000002
-0.000335
-0.000312
0.000213
0.000919
0.000878
0.001074
0.001050
-0.000528
-0.000592
0.000350
0.000309
0.000374
0.000363
0.000164
0.000045
0.000233
0.000309
-0.000094
0.001091
0.001127
-0.000615
-0.000496
-0.000496
0.000471
0.000430
-0.000405
0.000395
-0.001227
-0.001183
-0.001263
-0.000002
-0.000029
-0.001280
-0.001288
-0.001210
-0.000759
-0.000766
0.001123
0.001187
-0.000724
-0.000793
-0.000709
-0.000367
-0.000516
-0.000762
-0.000093
-0.000033
-0.001204
-0.000162
-0.000093
0.000228
0.000222
-0.000551
-0.000569
-0.000607
0.000496
0.000050
0.000045
0.001095
-0.000102
-0.000275
-0.000179
-0.000222
-0.000941
-0.000980
-0.000970
0.000096
-0.001069
0.000120
0.000212
-0.000070
-0.000170
-0.000412
0.000350
0.000381
0.000332
0.000788
0.000753
-0.001150
-0.001172
0.000546
0.000391
0.000480
0.000746
-0.000084
-0.000798
-0.001097
0.000409
-0.000844
-0.000909
0.000295
-0.000911
-0.000751
0.001105
0.001080
0.000219
0.001444
-0.001223
0.000530
-0.000429
-0.000764
-0.000679
-0.000342
-0.001147
-0.000844
-0.001165
0.000993
0.000787
0.000794
0.000568
0.001316
0.000842
0.000225
-0.000454
-0.000432
-0.000726
-0.000689
-0.000624
-0.000629
-0.000617
0.000419
0.000470
0.000436
0.000240
0.000217
0.000633
0.000627
0.000569
-0.000624
0.000515
0.000982
0.000358
0.000463
0.000430
-0.000591
0.000883
0.000928
0.000374
0.000780
0.000751
0.000027
-0.000800
-0.000823
-0.000809
-0.000776
0.000595
0.000522
0.000747
-0.001042
0.000577
-0.000827
-0.000496
-0.000456
-0.000757
-0.000072
0.001033
-0.000988
-0.001015
-0.000975
-0.000351
-0.001029
0.000373
-0.000337
-0.000010
-0.001140
-0.001118
-0.000680
0.000060
-0.000639
-0.000631
-0.000089
0.001264
0.001287
-0.000899
-0.000611
-0.001035
-0.000076
0.000928
0.000808
0.001123
0.000973
-0.000088
0.001201
-0.001070
-0.001047
-0.000647
-0.000969
-0.000166
-0.000284
-0.000200
-0.000896
-0.000942
-0.000133
-0.000095
-0.000951
-0.001103
-0.000009
-0.000019
-0.001038
-0.000310
-0.001147
-0.000827
-0.000803
-0.000898
-0.000334
0.000129
0.000253
0.000316
-0.000341
-0.000844
-0.000921
-0.000079
0.000890
-0.000053
0.000590
0.000545
0.000653
0.000689
0.000514
0.000602
-0.001011
-0.000969
-0.001257
0.000683
-0.000822
-0.000060
-0.000031
0.000395
-0.001197
0.000583
-0.000150
-0.000128
0.000335
0.000502
-0.001294
-0.001565
-0.000198
0.001127
-0.000423
0.000698
0.000541
-0.001677
-0.001493
-0.001209
0.001406
0.001228
-0.000835
-0.000836
-0.000947
0.000372
-0.000477
0.000980
0.000018
-0.000198
0.000958
0.000563
-0.001180
-0.001667
0.000235
-0.000144
-0.000071
-0.000214
0.000625
0.000802
0.000339
-0.000527
-0.000632
0.000845
0.000307
-0.001112
-0.001099
-0.001176
0.000362
0.000628
-0.001120
0.000709
0.000845
-0.000854
0.001018
0.000673
-0.001006
-0.001061
0.000683
-0.001128
-0.001131
-0.000887
0.000043
-0.000119
-0.000197
0.000218
-0.000444
0.001000
-0.000986
-0.000958
-0.000749
0.000541
-0.000822
-0.000628
-0.000565
0.000712
0.000671
-0.000887
-0.000929
-0.000455
0.000395
-0.000988
0.000874
-0.000731
0.000776
0.000755
0.000759
0.000800
0.000593
0.000531
0.000641
-0.000693
0.000202
-0.000208
0.000299
-0.000551
-0.000544
0.000056
0.000103
-0.001047
-0.000868
-0.000776
0.000757
0.000739
0.000151
0.000696
0.000507
-0.000716
-0.000768
0.000146
0.000685
0.000144
-0.000936
-0.000947
0.000667
0.000588
SCALARS UY float 1
LOOKUP_TABLE default
-0.000000
-0.000000
-0.010000
-0.010000
-0.002874
-0.007040
-0.000000
-0.000000
-0.000000
-0.000000
-0.000000
-0.000000
-0.000000
-0.000000
-0.000000
-0.001255
-0.002271
-0.003232
-0.004151
-0.005030
-0.005899
-0.006805
-0.007807
-0.008890
-0.010000
-0.010000
-0.010000
-0.010000
-0.010000
-0.010000
-0.010000
-0.010000
-0.010000
-0.008962
-0.007938
-0.006940
-0.005986
-0.005093
-0.004234
-0.003363
-0.002395
-0.001309
-0.002989
-0.003098
-0.003202
-0.003234
-0.003331
-0.003431
-0.003463
-0.003547
-0.003632
-0.003724
-0.003777
-0.003840
-0.003908
-0.003994
-0.004052
-0.004120
-0.004190
-0.004262
-0.004358
-0.004399
-0.004487
-0.004536
-0.004610
-0.004715
-0.004795
-0.004819
-0.004907
-0.004974
-0.005056
-0.005122
-0.005217
-0.005232
-0.005330
-0.005411
-0.005449
-0.005550
-0.005645
-0.005680
-0.005803
-0.005853
-0.005942
-0.005986
-0.006050
-0.006153
-0.006238
-0.006315
-0.006360
-0.006477
-0.006531
-0.006624
-0.006736
-0.006778
-0.006920
-0.006156
-0.006254
-0.006268
-0.006397
-0.002881
-0.002934
-0.002759
-0.003663
-0.003574
-0.003549
-0.008550
-0.009188
-0.008524
-0.003422
-0.004230
-0.004122
-0.004073
-0.009047
-0.003969
-0.004026
-0.003971
-0.004283
-0.004706
-0.004074
-0.004740
-0.002142
-0.002455
-0.002383
-0.007298
-0.007405
-0.007210
-0.000617
-0.000825
-0.001374
-0.007245
-0.003537
-0.003470
-0.003727
-0.003252
-0.004041
-0.004163
-0.003226
-0.003127
-0.003052
-0.004112
-0.003979
-0.002988
-0.005680
-0.005638
-0.005592
-0.004442
-0.004521
-0.004605
-0.005815
-0.005758
-0.005613
-0.004639
-0.004983
-0.004653
-0.003977
-0.004102
-0.004186
-0.004660
-0.004488
-0.005003
-0.007428
-0.007675
-0.007369
-0.003968
-0.002397
-0.002007
-0.005521
-0.003211
-0.003264
-0.005740
-0.005617
-0.003080
-0.006615
-0.006678
-0.006405
-0.006867
-0.005783
-0.005928
-0.005018
-0.004912
-0.004914
-0.005243
-0.005397
-0.005330
-0.004786
-0.006599
-0.006724
-0.006727
-0.005582
-0.004179
-0.004186
-0.004083
-0.003979
-0.004091
-0.004159
-0.005147
-0.005093
-0.005111
-0.005152
-0.003973
-0.004207
-0.004499
-0.004080
-0.006609
-0.006808
-0.006630
-0.005482
-0.004289
-0.004061
-0.004116
-0.004227
-0.006466
-0.006302
-0.008481
-0.009264
-0.009152
-0.005660
-0.005158
-0.005325
-0.007158
-0.007226
-0.007386
-0.007248
-0.004652
-0.004842
-0.004745
-0.003254
-0.003143
-0.002982
-0.005947
-0.006135
-0.004809
-0.004978
-0.004836
-0.004981
-0.004739
-0.005547
-0.005694
-0.005595
-0.004117
-0.004153
-0.004292
-0.004091
-0.003852
-0.003955
-0.006503
-0.006676
-0.006537
-0.006679
-0.003296
-0.003165
-0.003284
-0.003141
-0.006387
-0.006570
-0.005734
-0.005667
-0.005541
-0.003424
-0.003266
-0.003039
-0.003343
-0.003444
-0.002293
-0.002447
-0.002341
-0.006471
-0.006721
-0.006291
-0.006505
-0.006342
-0.006156
-0.006165
-0.004747
-0.004713
-0.004870
-0.006530
-0.006328
-0.005543
-0.004870
-0.004414
-0.003720
-0.003678
-0.003839
-0.004591
-0.004435
-0.004690
-0.004510
-0.005021
-0.004854
-0.004952
-0.004929
-0.005763
-0.005684
-0.005615
-0.005781
-0.003380
-0.003486
-0.003561
-0.005174
-0.005249
-0.005050
-0.002596
-0.002469
-0.004320
-0.004345
-0.004359
-0.004342
-0.004546
-0.002904
-0.002841
-0.002897
-0.003099
-0.002959
-0.004207
-0.003737
-0.003808
-0.003901
-0.008179
-0.007877
-0.007949
-0.002671
-0.005526
-0.002089
-0.002105
-0.001785
-0.003089
-0.003037
-0.003239
-0.000472
-0.000579
-0.000990
-0.001823
-0.001494
-0.005274
-0.005279
-0.005037
-0.001627
-0.001854
-0.002200
-0.003296
-0.003411
-0.003606
-0.003803
-0.006306
-0.006208
-0.006171
-0.008083
-0.007771
-0.006402
-0.004231
-0.003663
-0.004017
-0.006772
-0.006844
-0.006606
-0.007782
-0.007624
-0.006258
-0.006533
-0.004323
-0.004560
-0.004404
-0.004648
-0.004141
-0.004290
-0.004774
-0.000958
-0.000830
-0.001335
-0.001221
-0.003563
-0.003691
-0.004381
-0.003842
-0.005838
-0.005408
-0.009419
-0.008787
-0.005361
-0.005359
-0.004840
-0.005134
-0.006142
-0.006252
-0.006901
-0.006333
-0.002173
-0.006503
-0.006728
-0.006962
-0.006437
-0.006465
-0.006498
-0.006763
-0.003239
-0.003808
-0.005872
-0.006797
-0.006334
-0.007466
-0.001904
-0.001794
-0.001572
-0.006206
-0.006437
-0.006163
-0.002125
-0.003661
-0.003367
-0.003362
-0.004413
-0.002740
-0.002771
-0.002818
-0.002704
-0.002965
-0.008364
-0.008567
-0.005968
-0.008202
-0.007627
-0.007894
-0.006233
-0.006083
-0.007473
-0.005966
-0.003088
-0.006023
-0.003598
-0.003854
-0.003379
-0.008048
-0.001463
-0.001372
-0.001181
-0.002848
-0.002025
-0.009129
-0.008392
-0.003448
-0.000753
-0.001409
-0.003157
-0.003203
-0.002317
-0.007713
-0.007630
-0.008099
-0.004438
-0.004591
-0.006603
-0.006865
-0.004814
-0.004719
-0.007380
-0.007251
-0.006670
-0.004956
-0.004797
-0.007395
-0.007601
-0.007493
-0.004189
-0.004405
-0.000787
-0.003625
-0.003411
-0.000377
-0.001196
-0.000521
-0.000607
-0.003686
-0.005509
-0.004013
-0.005467
-0.006193
-0.005754
-0.006077
-0.006128
-0.005947
-0.006384
-0.005124
-0.005109
-0.005560
-0.005691
-0.006837
-0.006962
-0.005731
-0.006124
-0.005480
-0.005040
-0.005360
-0.005611
-0.001701
-0.001577
-0.007917
-0.007490
-0.004740
-0.004829
-0.004908
-0.004705
-0.007143
-0.005357
-0.005499
-0.005449
-0.005695
-0.005260
-0.005029
-0.006885
-0.006954
-0.002943
-0.002822
-0.006425
-0.005920
-0.006260
-0.005564
-0.001109
-0.002640
-0.002543
-0.007661
-0.004980
-0.004796
-0.006690
-0.006738
-0.006449
-0.006214
-0.003485
-0.003372
-0.003604
-0.003446
-0.009349
-0.008741
-0.008817
-0.003227
-0.009268
-0.006160
-0.006204
-0.002577
-0.002398
-0.002570
-0.003630
-0.003575
-0.002518
-0.003408
-0.003693
-0.003696
-0.003676
-0.006805
-0.006965
-0.004186
-0.004423
-0.003466
-0.006162
-0.006247
-0.005657
-0.005676
-0.006507
-0.005987
-0.006213
-0.006370
-0.005369
-0.005578
-0.006910
-0.007095
-0.004939
-0.003378
-0.003197
-0.007106
-0.007278
-0.006063
-0.006165
-0.006086
-0.004235
-0.008356
-0.008034
-0.006462
-0.002929
-0.006816
-0.006973
-0.006970
-0.005708
-0.005731
-0.005901
-0.002635
-0.004702
-0.007141
-0.006965
-0.008196
-0.008566
-0.002668
-0.003644
-0.003708
-0.003738
-0.005315
-0.005262
-0.005248
-0.005434
-0.002998
-0.002539
-0.002478
-0.004057
-0.006719
-0.005770
-0.004554
-0.001938
-0.005958
-0.005679
-0.002963
-0.005930
-0.005877
-0.006037
-0.006018
-0.002387
-0.005391
-0.003837
-0.003733
-0.007121
-0.001767
-0.001959
-0.001249
-0.002431
-0.001682
-0.004322
-0.008259
-0.008708
-0.008176
-0.008707
-0.007586
-0.004059
-0.003482
-0.005884
-0.005981
-0.005880
-0.005846
-0.006409
-0.002434
-0.002520
-0.003759
-0.003860
-0.003888
-0.003908
-0.003837
-0.003888
-0.003980
-0.003585
-0.007157
-0.003851
-0.002470
-0.002950
-0.003246
-0.002925
-0.005968
-0.005250
-0.005170
-0.003837
-0.004604
-0.004482
-0.007055
-0.005814
-0.005789
-0.002779
-0.005930
-0.002485
-0.001973
-0.002444
-0.007807
-0.003882
-0.002689
-0.005787
-0.005677
-0.005917
-0.007787
-0.006677
-0.005353
-0.005220
-0.005323
-0.006492
-0.005261
-0.004087
-0.006642
-0.002711
-0.004594
-0.004449
-0.005962
-0.002806
-0.005995
-0.005881
-0.002836
-0.005675
-0.005279
-0.002588
-0.002188
-0.002531
-0.002670
-0.004935
-0.007727
-0.007456
-0.007224
-0.007107
-0.005403
-0.005098
-0.005132
-0.006079
-0.004610
-0.007282
-0.007064
-0.007104
-0.005649
-0.005496
-0.007132
-0.007310
-0.004219
-0.004314
-0.003374
-0.007333
-0.005102
-0.006870
-0.005010
-0.005137
-0.005223
-0.005313
-0.008299
-0.003001
-0.002692
-0.002624
-0.007161
-0.005411
-0.005224
-0.002090
-0.005926
-0.002378
-0.004597
-0.004517
-0.004387
-0.004536
-0.004456
-0.007255
-0.005146
-0.005239
-0.003922
-0.004189
-0.005839
-0.007507
-0.001465
-0.008586
-0.003885
-0.009308
-0.001872
-0.002319
-0.000817
-0.000958
-0.009112
-0.009041
-0.002333
-0.005945
-0.000888
-0.001603
-0.001613
-0.003763
-0.008228
-0.008211
-0.006916
-0.006861
-0.004942
-0.005060
-0.005111
-0.009228
-0.001708
-0.004963
-0.002605
-0.007428
-0.004260
-0.008200
-0.003068
-0.007627
-0.007445
-0.002498
-0.002518
-0.006387
-0.007369
-0.003078
-0.003182
-0.007119
-0.006845
-0.006992
-0.004037
-0.003823
-0.003894
-0.003966
-0.007046
-0.002897
-0.003693
-0.005088
-0.006990
-0.005799
-0.006124
-0.003849
-0.003015
-0.003136
-0.004115
-0.003234
-0.003242
-0.004619
-0.003447
-0.003095
-0.003070
-0.003755
-0.006080
-0.005307
-0.005110
-0.004996
-0.006748
-0.003970
-0.002849
-0.005647
-0.005707
-0.004369
-0.004261
-0.005435
-0.005341
-0.002834
-0.003585
-0.004351
-0.007084
-0.006086
-0.005429
-0.004772
-0.004637
-0.004720
-0.004976
-0.004728
-0.004234
-0.005226
-0.004058
-0.006253
-0.004394
-0.002724
-0.005265
-0.003566
-0.003773
-0.003544
-0.004781
-0.004806
-0.005562
-0.004518
-0.003592
-0.004391
-0.004340
-0.005340
-0.005462
-0.006565
-0.004965
-0.003639
-0.005444
-0.005360
-0.004309
-0.004396
SCALARS DAMAGE float 1
LOOKUP_TABLE default
1.000000
1.000000
1.000000
1.000000
0.000000
0.000000
1.000000
1.000000
1.000000
1.000000
1.000000
1.000000
1.000000
1.000000
1.000000
1.000000
1.000000
1.000000
1.000000
1.000000
1.000000
1.000000
1.000000
1.000000
1.000000
1.000000
1.000000
1.000000
1.000000
1.000000
1.000000
1.000000
1.000000
1.000000
1.000000
1.000000
1.000000
1.000000
1.000000
1.000000
1.000000
1.000000
-0.000000
0.000000
0.000000
0.000000
0.000000
0.000000
0.000000
0.000000
0.000000
0.000000
0.000000
0.000000
0.000000
0.000000
0.000000
0.000000
0.000000
0.000000
0.000000
0.000000
0.000000
0.000000
0.000000
0.000000
0.000000
0.000000
0.000000
0.000000
0.000000
0.000000
0.000000
0.000000
0.000000
0.000000
0.000000
0.000000
0.000000
0.000000
0.000000
0.000000
0.000000
0.000000
0.000000
0.000000
0.000000
0.000000
0.000000
0.000000
0.000000
0.000000
0.000000
0.000000
-0.000000
0.678595
0.728317
0.862997
0.890205
0.481512
0.344895
0.649616
0.685452
0.689967
0.857651
1.000000
1.000000
1.000000
0.879952
0.980470
0.977596
0.991754
1.000000
0.988757
0.443573
0.491337
0.999998
1.000000
1.000000
1.000001
0.999998
0.999976
0.999939
0.943763
0.987941
0.947292
1.000000
1.000000
1.000000
0.982017
0.999407
0.999880
0.999501
0.999939
0.970283
0.952903
0.901034
0.890110
0.970674
0.933848
0.955012
0.953453
0.820323
0.870501
0.763542
0.448062
0.444786
0.670103
0.433214
0.389619
0.708165
0.999815
0.999989
0.999984
0.748557
0.668629
0.466575
0.999987
1.000000
1.000002
0.999988
0.999999
0.999996
0.844373
0.999998
1.000000
0.751296
0.726556
0.752608
0.683886
0.868665
0.844895
0.999757
0.999956
0.999724
0.999959
0.811658
0.516082
0.798325
0.754535
0.638241
0.879414
0.761464
0.673318
0.496217
0.768718
0.834948
0.898416
0.539732
0.879076
0.775428
0.895608
0.931009
0.904153
0.978190
1.000000
1.000000
0.918010
0.970596
1.000000
1.000000
1.000000
0.807268
0.510088
0.827998
0.681276
0.790197
0.752049
0.744956
0.687508
0.869996
0.351015
0.474956
1.000000
1.000000
1.000000
1.000000
1.000000
1.000000
0.513414
0.484329
0.845205
0.747262
0.706961
0.439401
0.448534
0.544051
0.656984
0.834339
0.718195
0.392464
0.715373
0.881269
0.873515
0.957098
1.000000
0.887881
0.952121
0.948609
0.433442
0.382490
0.675760
0.999448
0.998388
0.996299
0.881100
0.967090
0.960671
0.985314
0.916173
0.966113
0.959938
0.983873
0.957860
0.987282
0.972721
0.939357
0.986329
0.955228
0.984115
0.999134
0.996347
0.999972
0.994812
0.977205
0.981082
0.999986
0.999554
0.999579
0.994432
0.717083
0.454042
0.373302
0.922790
0.971633
0.936969
0.475921
0.689659
1.000000
1.000000
1.000000
0.931625
0.978936
0.931623
0.992052
0.998490
0.997561
0.999726
0.630923
0.782402
0.823560
0.999998
0.726913
0.732607
0.541027
0.850557
0.525987
0.473297
0.730031
0.997091
0.985887
0.994946
0.955792
0.988028
0.999728
0.999958
0.981875
0.996231
0.976775
0.985953
0.977835
0.692268
0.366646
0.493464
0.703251
0.988857
0.994128
0.980965
0.999987
0.999732
1.000033
0.971031
0.462760
0.998519
0.999634
0.999981
0.994692
0.998721
0.994869
1.000000
1.000000
1.000000
1.000000
1.000000
0.997197
0.999419
0.996379
1.000000
1.000000
1.000000
0.999999
0.999999
0.999993
0.999999