# vtk DataFile Version 2.0
Test
ASCII
DATASET POLYDATA
POINTS 858 float
0.000000 0.000000 0.000000
1.000000 0.000000 0.000000
1.000000 1.000000 0.000000
0.000000 1.000000 0.000000
0.300000 0.330000 0.000000
0.700000 0.680000 0.000000
0.100000 0.000000 0.000000
0.200000 0.000000 0.000000
0.300000 0.000000 0.000000
0.400000 0.000000 0.000000
0.500000 0.000000 0.000000
0.600000 0.000000 0.000000
0.700000 0.000000 0.000000
0.800000 0.000000 0.000000
0.900000 0.000000 0.000000
1.000000 0.100000 0.000000
1.000000 0.200000 0.000000
1.000000 0.300000 0.000000
1.000000 0.400000 0.000000
1.000000 0.500000 0.000000
1.000000 0.600000 0.000000
1.000000 0.700000 0.000000
1.000000 0.800000 0.000000
1.000000 0.900000 0.000000
0.900000 1.000000 0.000000
0.800000 1.000000 0.000000
0.700000 1.000000 0.000000
0.600000 1.000000 0.000000
0.500000 1.000000 0.000000
0.400000 1.000000 0.000000
0.300000 1.000000 0.000000
0.200000 1.000000 0.000000
0.100000 1.000000 0.000000
0.000000 0.900000 0.000000
0.000000 0.800000 0.000000
0.000000 0.700000 0.000000
0.000000 0.600000 0.000000
0.000000 0.500000 0.000000
0.000000 0.400000 0.000000
0.000000 0.300000 0.000000
0.000000 0.200000 0.000000
0.000000 0.100000 0.000000
0.307407 0.336481 0.000000
0.314815 0.342963 0.000000
0.322222 0.349444 0.000000
0.329630 0.355926 0.000000
0.337037 0.362407 0.000000
0.344444 0.368889 0.000000
0.351852 0.375370 0.000000
0.359259 0.381852 0.000000
0.366667 0.388333 0.000000
0.374074 0.394815 0.000000
0.381481 0.401296 0.000000
0.388889 0.407778 0.000000
0.396296 0.414259 0.000000
0.403704 0.420741 0.000000
0.411111 0.427222 0.000000
0.418519 0.433704 0.000000
0.425926 0.440185 0.000000
0.433333 0.446667 0.000000
0.440741 0.453148 0.000000
0.448148 0.459630 0.000000
0.455556 0.466111 0.000000
0.462963 0.472593 0.000000
0.470370 0.479074 0.000000
0.477778 0.485556 0.000000
0.485185 0.492037 0.000000
0.492593 0.498519 0.000000
0.500000 0.505000 0.000000
0.507407 0.511481 0.000000
0.514815 0.517963 0.000000
0.522222 0.524444 0.000000
0.529630 0.530926 0.000000
0.537037 0.537407 0.000000
0.544444 0.543889 0.000000
0.551852 0.550370 0.000000
0.559259 0.556852 0.000000
0.566667 0.563333 0.000000
0.574074 0.569815 0.000000
0.581481 0.576296 0.000000
0.588889 0.582778 0.000000
0.596296 0.589259 0.000000
0.603704 0.595741 0.000000
0.611111 0.602222 0.000000
0.618519 0.608704 0.000000
0.625926 0.615185 0.000000
0.633333 0.621667 0.000000
0.640741 0.628148 0.000000
0.648148 0.634630 0.000000
0.655556 0.641111 0.000000
0.662963 0.647593 0.000000
0.670370 0.654074 0.000000
0.677778 0.660556 0.000000
0.685185 0.667037 0.000000
0.692593 0.673519 0.000000
0.548037 0.570873 0.000000
0.554453 0.579695 0.000000
0.540788 0.582045 0.000000
0.550492 0.594703 0.000000
0.338797 0.350505 0.000000
0.329823 0.347064 0.000000
0.335712 0.339262 0.000000
0.451687 0.438509 0.000000
0.442642 0.430741 0.000000
0.457884 0.427703 0.000000
0.387297 0.847474 0.000000
0.374793 0.914734 0.000000
0.332869 0.847471 0.000000
0.447069 0.415163 0.000000
0.567391 0.482596 0.000000
0.554659 0.473874 0.000000
0.567453 0.464800 0.000000
0.301190 0.902112 0.000000
0.551747 0.457138 0.000000
0.356532 0.391813 0.000000
0.347986 0.386048 0.000000
0.176207 0.429241 0.000000
0.128375 0.468105 0.000000
0.136378 0.404291 0.000000
0.185621 0.475277 0.000000
0.497512 0.261165 0.000000
0.499167 0.296032 0.000000
0.469918 0.291504 0.000000
0.642232 0.687989 0.000000
0.624295 0.701188 0.000000
0.630549 0.678643 0.000000
0.647682 0.074905 0.000000
0.700945 0.096046 0.000000
0.657288 0.160421 0.000000
0.611443 0.684403 0.000000
0.559779 0.406431 0.000000
0.582162 0.394521 0.000000
0.580552 0.422827 0.000000
0.560788 0.374759 0.000000
0.541503 0.468043 0.000000
0.545465 0.480978 0.000000
0.428301 0.394826 0.000000
0.414860 0.384611 0.000000
0.432086 0.374027 0.000000
0.533961 0.477886 0.000000
0.527361 0.464336 0.000000
0.415481 0.368142 0.000000
0.484401 0.527206 0.000000
0.472984 0.524144 0.000000
0.481205 0.518972 0.000000
0.394266 0.424909 0.000000
0.401826 0.431399 0.000000
0.392742 0.434502 0.000000
0.642418 0.617836 0.000000
0.635302 0.612878 0.000000
0.644322 0.605726 0.000000
0.263646 0.464175 0.000000
0.250486 0.498376 0.000000
0.230296 0.467342 0.000000
0.491693 0.468898 0.000000
0.498004 0.479972 0.000000
0.487381 0.480785 0.000000
0.718619 0.489140 0.000000
0.756680 0.466072 0.000000
0.751564 0.516847 0.000000
0.497232 0.719177 0.000000
0.477497 0.748035 0.000000
0.465924 0.716726 0.000000
0.501292 0.467390 0.000000
0.529064 0.285755 0.000000
0.547173 0.240449 0.000000
0.474742 0.511943 0.000000
0.403118 0.392815 0.000000
0.412434 0.399392 0.000000
0.653057 0.614785 0.000000
0.659187 0.602396 0.000000
0.400247 0.379451 0.000000
0.459133 0.636583 0.000000
0.434636 0.647284 0.000000
0.440667 0.616932 0.000000
0.453650 0.664799 0.000000
0.666296 0.616100 0.000000
0.657731 0.628197 0.000000
0.420489 0.468863 0.000000
0.414183 0.459489 0.000000
0.424065 0.460120 0.000000
0.629321 0.574616 0.000000
0.630370 0.589442 0.000000
0.617226 0.584388 0.000000
0.422026 0.450877 0.000000
0.590180 0.614274 0.000000
0.596278 0.627413 0.000000
0.585881 0.628067 0.000000
0.630677 0.603443 0.000000
0.529117 0.486095 0.000000
0.517046 0.488781 0.000000
0.522040 0.477224 0.000000
0.308641 0.392803 0.000000
0.323746 0.398675 0.000000
0.304273 0.411173 0.000000
0.146020 0.514086 0.000000
0.087335 0.505198 0.000000
0.624982 0.561914 0.000000
0.643811 0.559907 0.000000
0.831909 0.406061 0.000000
0.881376 0.423788 0.000000
0.839177 0.457573 0.000000
0.509066 0.478681 0.000000
0.614792 0.620247 0.000000
0.608406 0.635616 0.000000
0.603251 0.619643 0.000000
0.640290 0.595050 0.000000
0.524731 0.497540 0.000000
0.338689 0.392113 0.000000
0.347423 0.395876 0.000000
0.340116 0.407012 0.000000
0.686563 0.659098 0.000000
0.682555 0.651347 0.000000
0.934704 0.856355 0.000000
0.940546 0.930926 0.000000
0.863552 0.916423 0.000000
0.172107 0.566287 0.000000
0.188105 0.516551 0.000000
0.221330 0.532895 0.000000
0.683914 0.680068 0.000000
0.692945 0.685712 0.000000
0.683376 0.697853 0.000000
0.672414 0.683990 0.000000
0.557147 0.529227 0.000000
0.554161 0.540325 0.000000
0.546244 0.533101 0.000000
0.391911 0.394487 0.000000
0.387591 0.383772 0.000000
0.385780 0.368800 0.000000
0.671617 0.628861 0.000000
0.664093 0.637808 0.000000
0.408700 0.450928 0.000000
0.406517 0.467364 0.000000
0.394366 0.455525 0.000000
0.388841 0.472148 0.000000
0.792728 0.486062 0.000000
0.461047 0.516036 0.000000
0.460182 0.532753 0.000000
0.450617 0.523703 0.000000
0.364207 0.398120 0.000000
0.371344 0.402923 0.000000
0.362621 0.408449 0.000000
0.235276 0.413110 0.000000
0.235915 0.390376 0.000000
0.260894 0.399649 0.000000
0.564107 0.604249 0.000000
0.558497 0.625526 0.000000
0.545610 0.611482 0.000000
0.542035 0.628852 0.000000
0.441269 0.401429 0.000000
0.443649 0.385779 0.000000
0.454140 0.398188 0.000000
0.456246 0.380948 0.000000
0.531090 0.597071 0.000000
0.528592 0.618783 0.000000
0.693800 0.600685 0.000000
0.675646 0.601117 0.000000
0.688895 0.583493 0.000000
0.466943 0.412411 0.000000
0.469666 0.393398 0.000000
0.215629 0.311290 0.000000
0.236374 0.342186 0.000000
0.194357 0.347185 0.000000
0.372859 0.289727 0.000000
0.362694 0.307734 0.000000
0.346245 0.295576 0.000000
0.824768 0.656091 0.000000
0.787989 0.680173 0.000000
0.787481 0.637866 0.000000
0.763354 0.658567 0.000000
0.564845 0.587843 0.000000
0.565674 0.575091 0.000000
0.575285 0.580662 0.000000
0.591463 0.532694 0.000000
0.606735 0.524365 0.000000
0.606700 0.541268 0.000000
0.696107 0.663701 0.000000
0.695223 0.651919 0.000000
0.114270 0.553146 0.000000
0.897846 0.490106 0.000000
0.941355 0.438159 0.000000
0.491870 0.442127 0.000000
0.508682 0.433741 0.000000
0.504276 0.453072 0.000000
0.616608 0.507977 0.000000
0.629719 0.487283 0.000000
0.643435 0.510566 0.000000
0.660659 0.486926 0.000000
0.584650 0.557787 0.000000
0.582076 0.545531 0.000000
0.595086 0.552412 0.000000
0.215445 0.494211 0.000000
0.502563 0.534321 0.000000
0.493623 0.527201 0.000000
0.502900 0.523550 0.000000
0.490744 0.536689 0.000000
0.303740 0.348241 0.000000
0.312638 0.354325 0.000000
0.302746 0.359450 0.000000
0.683727 0.548378 0.000000
0.666144 0.562133 0.000000
0.663581 0.542222 0.000000
0.366098 0.324774 0.000000
0.379406 0.309842 0.000000
0.251675 0.434611 0.000000
0.214900 0.437402 0.000000
0.581091 0.493223 0.000000
0.603283 0.484739 0.000000
0.593195 0.510449 0.000000
0.429738 0.356510 0.000000
0.412970 0.350726 0.000000
0.358920 0.356811 0.000000
0.352460 0.366146 0.000000
0.347463 0.357590 0.000000
0.353794 0.402394 0.000000
0.527483 0.436280 0.000000
0.546965 0.439869 0.000000
0.535210 0.453469 0.000000
0.624606 0.790385 0.000000
0.614250 0.755688 0.000000
0.654837 0.763041 0.000000
0.384960 0.332814 0.000000
0.619946 0.597007 0.000000
0.358705 0.265521 0.000000
0.397502 0.266486 0.000000
0.377869 0.228897 0.000000
0.471169 0.372235 0.000000
0.492664 0.362648 0.000000
0.488718 0.386734 0.000000
0.431288 0.062893 0.000000
0.512348 0.074893 0.000000
0.450325 0.128772 0.000000
0.515327 0.223180 0.000000
0.538419 0.183215 0.000000
0.367912 0.509419 0.000000
0.343175 0.515399 0.000000
0.351317 0.488263 0.000000
0.593186 0.193353 0.000000
0.476496 0.230456 0.000000
0.594140 0.256114 0.000000
0.629340 0.367381 0.000000
0.659922 0.374166 0.000000
0.641019 0.397588 0.000000
0.669525 0.412603 0.000000
0.510665 0.591750 0.000000
0.493263 0.584115 0.000000
0.507476 0.576852 0.000000
0.492575 0.790205 0.000000
0.516533 0.753914 0.000000
0.493265 0.606545 0.000000
0.794852 0.435952 0.000000
0.797754 0.379724 0.000000
0.755728 0.420083 0.000000
0.528549 0.642034 0.000000
0.507334 0.653897 0.000000
0.509532 0.626562 0.000000
0.580705 0.748031 0.000000
0.605192 0.727758 0.000000
0.748472 0.635779 0.000000
0.742539 0.660255 0.000000
0.323194 0.421808 0.000000
0.325468 0.445306 0.000000
0.301700 0.435431 0.000000
0.295276 0.460827 0.000000
0.622421 0.457821 0.000000
0.642814 0.468538 0.000000
0.320303 0.468200 0.000000
[...]
POINT_DATA 858
SCALARS UX float 1
LOOKUP_TABLE default
0.000000
-0.000000
-0.028478
-0.016148
0.006619
-0.027931
-0.000000
0.000000
-0.000000
-0.000000
-0.000000
0.000000
0.000000
0.000000
0.000000
-0.004274
-0.007837
-0.013084
-0.020330
-0.028752
-0.035442
-0.037054
-0.033598
-0.029858
-0.025388
-0.022487
-0.020624
-0.020760
-0.021423
-0.021829
-0.021757
-0.020563
-0.018647
-0.015020
-0.012451
-0.007388
-0.000145
0.008158
0.014262
0.014979
0.010574
0.005673
0.005311
0.006620
0.005838
0.004341
0.004153
0.003118
0.001983
0.002631
0.002586
0.001506
0.001041
0.001504
-0.000528
-0.000293
-0.004149
-0.001380
-0.003928
-0.004767
-0.003395
-0.004559
-0.007285
-0.008751
-0.007871
-0.007363
-0.008557
-0.011427
-0.008439
-0.011463
-0.012906
-0.011765
-0.012382
-0.014447
-0.015129
-0.016792
-0.017273
-0.017203
-0.018094
-0.018073
-0.018402
-0.018287
-0.021556
-0.022633
-0.021576
-0.023464
-0.022013
-0.023698
-0.025624
-0.025769
-0.025739
-0.025444
-0.026845
-0.027805
-0.027461
-0.013375
-0.014265
-0.013843
-0.015043
0.002711
0.004006
0.003589
-0.007900
-0.007005
-0.007451
-0.020835
-0.021619
-0.020501
-0.006284
-0.014116
-0.013216
-0.012670
-0.020987
-0.011826
0.004446
0.005036
0.007217
0.006281
0.009982
0.003499
-0.001196
-0.001995
-0.001363
-0.023929
-0.023010
-0.023023
0.000311
0.000107
-0.000402
-0.022076
-0.008312
-0.007951
-0.009756
-0.006412
-0.012539
-0.013666
-0.004376
-0.003318
-0.003360
-0.013217
-0.011992
-0.002446
-0.008049
-0.007578
-0.007400
0.001774
0.000853
0.001203
-0.025506
-0.025210
-0.025397
0.001085
-0.001023
0.002194
-0.011464
-0.012363
-0.011479
-0.017569
-0.017127
-0.020951
-0.019494
-0.019876
-0.018875
-0.011671
-0.002144
-0.001254
-0.006750
-0.003185
-0.003952
-0.025974
-0.025106
-0.002445
-0.015325
-0.015441
-0.013836
-0.016662
-0.026121
-0.027049
-0.002033
-0.001060
-0.001439
-0.022847
-0.024167
-0.023556
-0.000756
-0.017859
-0.018793
-0.018361
-0.025370
-0.013784
-0.013678
-0.012920
0.004400
0.003963
0.003330
0.001923
0.004806
-0.021688
-0.021587
-0.015258
-0.018365
-0.019607
-0.012707
-0.019447
-0.019866
-0.018811
-0.024687
-0.014618
0.004540
0.004359
0.003444
-0.027466
-0.027756
-0.029164
-0.027227
-0.024944
-0.003314
0.000075
-0.002603
-0.027234
-0.027705
-0.026652
-0.026226
-0.017886
-0.018358
-0.017427
-0.002726
-0.001818
-0.001201
-0.026983
-0.027217
-0.000322
-0.001695
-0.000557
-0.001997
-0.020072
-0.006706
-0.008050
-0.007149
0.003385
0.002056
0.003375
0.005970
0.007400
0.005746
-0.016120
-0.017222
-0.015946
-0.016883
-0.005228
-0.004388
-0.005444
-0.004493
-0.014580
-0.015907
-0.025078
-0.024951
-0.023936
-0.006709
-0.005580
0.008825
0.009012
0.010016
0.001318
0.001941
0.002518
-0.032148
-0.031291
-0.030818
-0.030688
-0.015273
-0.015129
-0.016993
-0.018791
-0.018177
-0.019711
-0.027656
-0.027657
-0.000097
-0.024506
-0.021654
-0.009475
-0.009234
-0.010614
-0.016869
-0.015355
-0.017433
-0.015849
-0.020698
-0.019899
-0.020622
0.000759
-0.009128
-0.008359
-0.008386
-0.008986
0.006056
0.006033
0.005971
-0.021136
-0.021976
-0.020328
0.001663
0.001129
0.003800
0.005151
-0.015193
-0.014759
-0.016807
-0.002385
-0.001508
0.001003
0.001363
0.001700
0.003843
-0.009803
-0.010424
-0.011264
-0.021916
-0.022244
-0.022899
0.000436
-0.024495
0.001268
0.000395
0.000232
-0.004408
-0.004441
-0.005665
-0.000358
0.000044
-0.000331
-0.000767
-0.000369
-0.004863
-0.004925
-0.002952
-0.000658
-0.000611
-0.002037
-0.007205
-0.008222
-0.009232
-0.010780
-0.013660
-0.012722
-0.012523
-0.020702
-0.020517
-0.014251
-0.016229
-0.012182
-0.013692
-0.017232
-0.017283
-0.015868
-0.021571
-0.022228
-0.029318
-0.030026
0.002400
0.000695
0.001922
0.000249
-0.012944
-0.014107
-0.000887
0.000203
-0.000682
-0.000337
-0.000459
0.010981
0.012254
0.010862
0.009432
-0.006940
-0.004546
-0.021588
-0.021303
-0.022646
-0.022613
-0.000821
-0.002973
-0.005163
-0.008363
-0.009502
-0.004525
0.002354
-0.013033
-0.014715
-0.015435
-0.013230
-0.018511
-0.018817
-0.010564
-0.011756
-0.016259
-0.026138
-0.012497
-0.010373
-0.013823
0.001087
0.001261
0.000163
-0.012168
-0.013575
-0.011632
0.002462
-0.013710
-0.005420
-0.004851
0.002080
0.002117
0.000914
-0.003337
-0.003116
-0.004324
-0.021941
-0.021351
-0.028381
-0.020473
-0.018934
-0.020055
-0.012803
-0.011575
-0.018907
-0.029375
-0.009362
-0.011133
-0.010667
-0.011775
-0.008522
-0.019776
-0.000235
0.000130
-0.000499
-0.003036
-0.001848
-0.020482
-0.019488
-0.005551
-0.000064
-0.000989
0.012440
0.011276
0.003451
-0.024732
-0.026123
-0.023126
0.002368
0.000858
-0.015541
-0.016994
-0.018343
-0.017581
-0.015039
-0.015950
-0.013127
-0.023266
-0.001020
-0.025557
-0.024762
-0.026064
-0.013455
-0.015261
-0.000824
0.007863
0.007868
-0.000596
0.001843
0.000447
-0.000374
0.008839
-0.006827
0.007508
-0.006425
-0.010468
-0.007727
-0.010615
-0.027730
-0.027090
-0.028825
-0.021379
-0.021911
-0.006927
-0.008106
-0.019356
-0.020678
-0.028864
-0.031300
-0.006104
-0.020287
-0.023097
-0.007407
-0.000331
-0.000225
-0.018832
-0.017829
-0.000151
-0.000724
-0.001669
0.000517
-0.016838
-0.023490
-0.024495
-0.023628
0.000529
-0.019966
-0.021195
-0.022436
-0.023474
-0.001697
-0.000726
-0.033252
-0.031628
-0.034707
-0.031113
-0.000112
0.003388
0.002765
-0.023279
-0.020397
-0.018665
-0.029469
-0.030171
-0.014824
-0.013087
-0.007440
-0.006536
-0.008282
-0.007311
-0.020783
-0.021142
-0.021257
-0.005854
-0.021195
-0.027361
-0.027568
0.005609
0.003885
0.004895
-0.008953
-0.008449
0.003771
-0.007263
0.005586
0.005588
0.006497
-0.021787
-0.021935
0.003642
0.002324
0.006494
-0.012054
-0.012592
-0.024827
-0.025782
-0.014251
-0.010706
-0.012536
-0.015894
-0.009992
-0.007846
-0.021101
-0.021897
-0.002038
-0.000695
-0.001159
-0.025363
-0.025009
-0.012610
-0.013008
-0.012274
-0.013164
-0.021341
-0.021575
-0.028225
0.000019
-0.018552
-0.019910
-0.019361
-0.008447
-0.008525
-0.009731
-0.002376
0.000467
-0.024025
-0.024288
-0.021157
-0.021125
0.004452
-0.008256
-0.008919
-0.008625
-0.022451
-0.021551
-0.004466
-0.005514
-0.005877
-0.003526
-0.003758
-0.012359
-0.020805
-0.008771
0.001712
-0.002032
-0.010458
-0.008170
-0.004636
-0.010119
-0.009779
-0.026789
-0.027002
-0.002416
-0.027629
0.004897
-0.009813
-0.018118
0.005492
0.004355
0.000562
0.009844
0.006454
0.003057
-0.027884
-0.024936
-0.026073
-0.023048
-0.032639
-0.012817
-0.006247
-0.012422
-0.013424
-0.009948
-0.010040
-0.014078
0.004330
0.004761
-0.009602
-0.010635
-0.010501
-0.008608
-0.007859
-0.011009
-0.011782
-0.008841
-0.017434
-0.010809
-0.007087
-0.004868
-0.006636
-0.005068
-0.011721
-0.022848
-0.022364
-0.009570
-0.017617
-0.016445
-0.022814
-0.009164
-0.008962
0.006317
-0.010222
-0.004418
-0.002748
-0.005345
-0.017627
-0.011017
0.006370
-0.011791
-0.011391
-0.010115
-0.021099
-0.028169
-0.005293
-0.004032
-0.004820
-0.016803
-0.004618
-0.011060
-0.017467
-0.001398
0.001257
0.002432
-0.010812
-0.002316
-0.011437
-0.010854
-0.000082
-0.027036
-0.024710
0.007110
0.003656
0.008663
-0.000498
-0.019602
-0.027294
-0.030928
-0.029786
-0.021075
-0.024272
-0.003259
-0.003380
-0.011868
0.000329
-0.020179
-0.018894
-0.019716
-0.007822
-0.006496
-0.020468
-0.020869
0.002305
0.003365
-0.003242
-0.021649
-0.002934
-0.018235
-0.002777
-0.004350
-0.005027
-0.004796
-0.020791
-0.003459
-0.003459
-0.003499
-0.018717
-0.005808
-0.004017
-0.000496
-0.026133
-0.000796
-0.016234
-0.015904
-0.015594
-0.016777
-0.014951
-0.027718
-0.003155
-0.003923
0.004803
-0.013596
-0.009450
-0.021123
-0.000328
-0.022148
0.005002
-0.022371
-0.000104
-0.000119
-0.000914
-0.002330
-0.018985
-0.016863
0.000649
-0.026424
0.002470
-0.003759
-0.002330
0.013745
-0.015795
-0.017819
-0.034128
-0.032341
-0.003012
-0.003747
-0.003055
-0.021341
0.002022
-0.019553
-0.001643
-0.020129
-0.014782
-0.023995
0.009961
-0.012517
-0.024363
0.000213
-0.000653
-0.017886
-0.026948
-0.007774
-0.005807
-0.017674
-0.016201
-0.028868
-0.010313
0.005734
0.005227
0.004886
-0.026561
-0.006002
0.005883
-0.020662
-0.028626
-0.009150
-0.027753
-0.010795
0.007941
0.008020
-0.012845
0.006610
0.007428
-0.000337
-0.004193
-0.000530
0.000394
-0.007449
-0.013754
-0.022739
-0.002848
-0.002257
-0.015316
-0.011855
0.006596
-0.009351
-0.010317
-0.015466
-0.014533
-0.005749
-0.004889
0.004526
-0.008343
0.002057
-0.029070
-0.011552
-0.023016
-0.018959
-0.017912
-0.018686
-0.019160
-0.016555
-0.014349
-0.006139
-0.009434
-0.017221
-0.011036
0.005866
-0.009576
-0.004625
-0.006450
0.005805
-0.001851
-0.002663
-0.023609
-0.016868
-0.006083
-0.015741
-0.013911
-0.006997
-0.006996
-0.024183
-0.019948
-0.005771
-0.005873
-0.005052
-0.015058
-0.014937
SCALARS UY float 1
LOOKUP_TABLE default
0.000000
0.000000
0.100000
0.100000
0.024329
0.075729
0.000000
0.000000
0.000000
0.000000
0.000000
0.000000
0.000000
0.000000
0.000000
0.010043
0.019529
0.029474
0.040231
0.050536
0.059801
0.068263
0.077789
0.088645
0.100000
0.100000
0.100000
0.100000
0.100000
0.100000
0.100000
0.100000
0.100000
0.090312
0.080502
0.069930
0.059124
0.048931
0.039764
0.031732
0.022301
0.011694
0.032773
0.032421
0.035753
0.034095
0.036410
0.040255
0.039433
0.037293
0.037339
0.041017
0.045240
0.038018
0.042032
0.044232
0.052886
0.040912
0.047957
0.049370
0.044590
0.042465
0.050126
0.050854
0.047118
0.047256
0.048888
0.051965
0.039352
0.047986
0.054127
0.051609
0.051438
0.046711
0.048985
0.054262
0.052237
0.054551
0.057849
0.041339
0.065227
0.059679
0.064203
0.058487
0.055463
0.062683
0.062033
0.061977
0.064365
0.066513
0.064778
0.067593
0.072061
0.069363
0.070483
0.091562
0.092291
0.093694
0.094163
0.012933
0.015916
0.011239
0.008056
0.007792
0.006128
0.096522
0.097935
0.095131
0.005727
0.010260
0.009193
0.009642
0.096381
0.008476
0.065179
0.064578
0.049961
0.052693
0.044504
0.057348
0.002862
0.003396
0.003014
0.092507
0.094437
0.093267
0.001982
0.003366
0.004534
0.094756
0.007529
0.008480
0.009214
0.006802
0.008366
0.009065
0.005446
0.005677
0.004549
0.008570
0.007752
0.004944
0.090724
0.090757
0.089700
0.074236
0.075868
0.078619
0.033550
0.033097
0.028823
0.063894
0.066915
0.060318
0.008864
0.010452
0.014206
0.026839
0.028715
0.034016
0.096577
0.096661
0.095803
0.008004
0.003871
0.003543
0.089267
0.007701
0.007172
0.031948
0.030384
0.006469
0.093977
0.093134
0.092688
0.094360
0.034183
0.036956
0.084946
0.083485
0.082988
0.022214
0.024500
0.022959
0.080045
0.092735
0.093294
0.094185
0.028601
0.009127
0.009803
0.008427
0.059718
0.064527
0.062258
0.059592
0.054822
0.020394
0.022819
0.029079
0.034439
0.035028
0.008892
0.088012
0.092885
0.091308
0.026464
0.010615
0.066300
0.068103
0.069284
0.053552
0.048216
0.085449
0.092977
0.092753
0.067464
0.063003
0.067945
0.084506
0.082383
0.086915
0.088033
0.013582
0.018331
0.017111
0.010482
0.008963
0.006970
0.038214
0.042924
0.082172
0.084190
0.082122
0.082941
0.034463
0.090159
0.091152
0.090341
0.067324
0.067633
0.072212
0.051662
0.046960
0.051836
0.094147
0.095189
0.095023
0.095490
0.005268
0.004626
0.004816
0.004368
0.094713
0.095292
0.037628
0.033622
0.033755
0.005112
0.004601
0.029824
0.035650
0.036767
0.005086
0.006230
0.007319
0.062127
0.066413
0.058210
0.062054
0.092345
0.087383
0.086030
0.014634
0.015545
0.016627
0.057534
0.051211
0.061923
0.042840
0.040049
0.006291
0.006150
0.006883
0.015684
0.016038
0.019057
0.019615
0.017967
0.015491
0.016714
0.062626
0.090331
0.089951
0.086870
0.091533
0.044079
0.049099
0.048799
0.028311
0.026744
0.024387
0.006445
0.005120
0.057564
0.054036
0.011655
0.013218
0.013454
0.004211
0.004565
0.009412
0.015088
0.012491
0.070263
0.006798
0.007730
0.007603
0.096038
0.095995
0.093628
0.005376
0.027983
0.005566
0.003521
0.003804
0.004205
0.004303
0.004647
0.000858
0.000981
0.001427
0.002675
0.002480
0.082756
0.080164
0.079321
0.003803
0.002358
0.005282
0.010561
0.013027
0.012692
0.015846
0.094475
0.093956
0.093942
0.097548
0.097313
0.094504
0.029124
0.024088
0.024202
0.095734
0.095677
0.095239
0.096923
0.095936
0.055630
0.062158
0.067974
0.071399
0.065782
0.068169
0.013859
0.016460
0.073059
0.002031
0.001978
0.001906
0.002311
0.037720
0.037992
0.045350
0.043186
0.074621
0.072817
0.099119
0.098106
0.030432
0.032941
0.068316
0.071852
0.068757
0.074763
0.074208
0.066496
0.008899
0.085847
0.088845
0.088163
0.088000
0.088489
0.086951
0.076825
0.026129
0.032981
0.038629
0.081049
0.079244
0.081532
0.007128
0.009637
0.005514
0.089555
0.089963
0.087441
0.012036
0.028021
0.006277
0.007365
0.072089
0.008449
0.007013
0.003943
0.004134
0.004578
0.094804
0.096997
0.050405
0.096359
0.094175
0.096439
0.093546
0.093179
0.095289
0.052473
0.021462
0.093262
0.019976
0.019734
0.015595
0.094450
0.003489
0.006876
0.003930
0.003750
0.006367
0.095618
0.092681
0.008076
0.003861
0.006546
0.030883
0.032196
0.013091
0.087846
0.082511
0.090947
0.074725
0.075389
0.094752
0.095209
0.022250
0.024055
0.084223
0.087098
0.083872
0.040236
0.076484
0.090023
0.090704
0.085891
0.018053
0.021935
0.003417
0.042975
0.038335
0.001127
0.009500
0.004042
0.003810
0.042209
0.083719
0.047970
0.085937
0.081222
0.078468
0.084073
0.050130
0.047196
0.057136
0.019862
0.019197
0.089508
0.090408
0.094331
0.094027
0.050163
0.056607
0.089507
0.029735
0.036488
0.081303
0.002205
0.002574
0.091831
0.091374
0.078604
0.080856
0.080204
0.079930
0.091223
0.025084
0.027661
0.028932
0.060156
0.023905
0.018394
0.088143
0.087811
0.005420
0.005324
0.062093
0.055209
0.061280
0.052734
0.001674
0.009396
0.007668
0.094282
0.019290
0.017725
0.066203
0.067372
0.094921
0.093986
0.005274
0.004921
0.005857
0.005345
0.098554
0.098217
0.096678
0.005089
0.099208
0.045914
0.049872
0.016000
0.011264
0.012170
0.006932
0.006175
0.009557
0.006101
0.050570
0.054269
0.046927
0.088891
0.091687
0.059106
0.062380
0.042515
0.091512
0.091043
0.039221
0.043338
0.091566
0.091248
0.092647
0.091259
0.080591
0.088105
0.092432
0.093781
0.072508
0.016502
0.011716
0.087386
0.090597
0.091093
0.092990
0.092760
0.012716
0.097621
0.097210
0.057976
0.008248
0.095195
0.095180
0.095681
0.086729
0.084902
0.085066
0.003484
0.080469
0.090710
0.085924
0.097885
0.098312
0.011488
0.006745
0.006994
0.008417
0.024832
0.024711
0.076772
0.076423
0.010937
0.007719
0.009545
0.015474
0.088806
0.091745
0.077745
0.008027
0.089578
0.088370
0.005395
0.087222
0.092386
0.043666
0.041354
0.004757
0.047325
0.056069
0.008172
0.095613
0.015727
0.016371
0.008133
0.022762
0.015219
0.072071
0.084153
0.089568
0.085044
0.091665
0.076259
0.019390
0.007576
0.085571
0.086512
0.092121
0.090765
0.093823
0.017497
0.016963
0.006942
0.007368
0.008601
0.013145
0.012592
0.011294
0.010248
0.010461
0.093345
0.007019
0.018743
0.006635
0.008417
0.008242
0.090708
0.021728
0.020356
0.009050
0.012912
0.011971
0.091646
0.091857
0.091339
0.023495
0.092096
0.011991
0.010140
0.014868
0.089073
0.008849
0.023387
0.085527
0.083054
0.092550
0.097297
0.065880
0.086429
0.085673
0.087505
0.092561
0.084292
0.013345
0.094379
0.003833
0.077455
0.075740
0.092466
0.003760
0.092126
0.090211
0.006395
0.046620
0.042056
0.023520
0.016427
0.023833
0.004369
0.021028
0.080868
0.075542
0.074162
0.095010
0.040505
0.082374
0.084042
0.093326
0.078003
0.096549
0.096293
0.096167
0.089258
0.088095
0.095764
0.096259
0.069477
0.073057
0.011896
0.095741
0.084883
0.095862
0.076483
0.082952
0.083372
0.087618
0.097454
0.004095
0.005090
0.006234
0.096233
0.088033
0.086900
0.002586
0.037255
0.003079
0.015572
0.015997
0.010997
0.012339
0.016238
0.080501
0.086129
0.087476
0.055199
0.011022
0.091086
0.096718
0.001918
0.093436
0.060065
0.095441
0.002728
0.003379
0.005427
0.007347
0.093964
0.091976
0.004184
0.043764
0.007725
0.011939
0.009812
0.037056
0.086080
0.089097
0.068746
0.068069
0.080724
0.082385
0.085680
0.096611
0.011691
0.025713
0.003348
0.096889
0.023902
0.088242
0.030575
0.079370
0.092376
0.004231
0.003550
0.088406
0.080930
0.017216
0.005699
0.094589
0.093096
0.073622
0.013819
0.060100
0.062480
0.063408
0.084411
0.012935
0.056821
0.020519
0.074080
0.090062
0.043080
0.013210
0.028789
0.030915
0.011860
0.037237
0.033351
0.076085
0.011785
0.011188
0.012656
0.011917
0.087357
0.025672
0.086055
0.084087
0.090978
0.007669
0.023965
0.085479
0.085586
0.010808
0.009827
0.089159
0.088431
0.014821
0.005669
0.072774
0.073948
0.092601
0.026556
0.014997
0.013032
0.013963
0.021363
0.017988
0.009369
0.081037
0.016455
0.086427
0.020003
0.015232
0.079244
0.012335
0.014991
0.052400
0.078340
0.077437
0.029716
0.011761
0.011868
0.010592
0.014239
0.084525
0.086163
0.081894
0.019122
0.012233
0.088710
0.088425
0.010002
0.012560
SCALARS DAMAGE float 1
LOOKUP_TABLE default
0.862960
0.924169
0.855777
0.921245
0.000000
0.000000
0.853174
0.834843
0.821672
0.817661
0.834634
0.862707
0.886244
0.906185
0.919332
0.917992
0.904449
0.879763
0.846884
0.818954
0.796678
0.801903
0.822264
0.845472
0.846734
0.827152
0.811589
0.809618
0.826011
0.852613
0.881155
0.902175
0.916152
0.914882
0.900559
0.875830
0.843672
0.815949
0.796057
0.803581
0.826843
0.851142
-0.000000
0.000000
0.000000
0.000000
0.000000
0.000000
0.000000
0.000000
0.000000
0.000000
0.000000
0.000000
0.000000
0.000000
0.000000
0.000000
0.000000
0.000000
0.000000
0.000000
0.000000
0.000000
0.000000
0.000000
0.000000
0.000000
0.000000
0.000000
0.000000
0.000000
0.000000
0.000000
0.000000
0.000000
0.000000
0.000000
0.000000
0.000000
0.000000
0.000000
0.000000
0.000000
0.000000
0.000000
0.000000
0.000000
0.000000
0.000000
0.000000
0.000000
0.000000
0.000000
-0.000000
0.089932
0.101992
0.151351
0.166648
0.068410
0.049316
0.117400
0.091464
0.091607
0.148622
0.813876
0.848357
0.837496
0.160455
0.273902
0.266362
0.323059
0.867213
0.306190
0.053301
0.062197
0.675216
0.751204
0.722847
0.688595
0.639700
0.579148
0.552148
0.269791
0.360860
0.256075
0.864003
0.874392
0.838032
0.322040
0.448386
0.512785
0.452287
0.516892
0.249506
0.221040
0.177036
0.174649
0.258194
0.199234
0.223424
0.235092
0.130424
0.153696
0.111662
0.049543
0.048637
0.090843
0.050859
0.044521
0.106003
0.534398
0.606617
0.607802
0.106572
0.086761
0.050048
0.582589
0.669754
0.604838
0.591873
0.659944
0.623644
0.140579
0.632122
0.712801
0.107012
0.108224
0.112793
0.103443
0.172132
0.150640
0.484799
0.545338
0.476014
0.549728
0.149406
0.067258
0.124256
0.111158
0.081873
0.166381
0.117712
0.091645
0.054583
0.118207
0.148727
0.181789
0.065671
0.159071
0.114322
0.167951
0.245126
0.204692
0.313808
0.755807
0.793752
0.194535
0.258216
0.789714
0.810295
0.765396
0.125154
0.061066
0.143573
0.097016
0.131300
0.107277
0.123099
0.104115
0.172394
0.055514
0.073495
0.829741
0.846345
0.829469
0.764494
0.713551
0.687430
0.101863
0.117129
0.247672
0.169690
0.096322
0.046307
0.047306
0.065017
0.093366
0.148116
0.121836
0.051316
0.098462
0.161896
0.159476
0.229138
0.697839
0.161675
0.217187
0.215159
0.050447
0.043669
0.096910
0.539358
0.516817
0.444951
0.160515
0.247542
0.235530
0.298317
0.190633
0.249183
0.236335
0.295370
0.227917
0.300484
0.302782
0.235847
0.331305
0.224732
0.290283
0.589973
0.503108
0.622119
0.428801
0.343076
0.373936
0.658869
0.584884
0.575713
0.497596
0.099340
0.048986
0.038420
0.188686
0.256981
0.205806
0.091252
0.140984
0.797192
0.791984
0.827191
0.197016
0.267094
0.196157
0.328209
0.409599
0.387302
0.476621
0.081390
0.117174
0.134028
0.658803
0.100184
0.102491
0.060452
0.143740
0.101035
0.077878
0.157722
0.400401
0.317149
0.361407
0.276869
0.363895
0.522252
0.609723
0.278818
0.356295
0.261530
0.309250
0.289002
0.111473
0.044950
0.066445
0.105628
0.305609
0.341208
0.275933
0.625784
0.548714
0.551387
0.287878
0.052772
0.500202
0.527417
0.608915
0.354618
0.423302
0.352753
0.811009
0.824252
0.776423
0.708969
0.766361
0.383741
0.452693
0.372922
0.787934
0.670374
0.730809
0.627927
0.655677
0.598182
0.617413
0.264053
0.284574
0.226593
0.705233
0.632986
0.346950
0.739922
0.783310
0.713988
0.366609
0.438709
0.364950
0.558358
0.478323
0.450921
0.410601
0.278293
0.335358
0.381302
0.452950
0.459209
0.476821
0.403757
0.829304
0.778022
0.729333
0.732861
0.694470
0.752595
0.782154
0.649454
0.713366
0.635703
0.828726
0.800622
0.352480
0.419078
0.529583
0.569447
0.822592
0.785814
0.862739
0.850062
0.463778
0.685226
0.677049
0.735016
0.628433
0.054959
0.053054
0.834315
0.860102
0.847740
0.216293
0.800433
0.748128
0.869621
0.572466
0.644844
0.664765
0.524721
0.580347
0.569204
0.543120
0.826241
0.137721
0.103818
0.225582
0.168255