# vtk DataFile Version 2.0
Test
ASCII
DATASET POLYDATA
POINTS 858 float
0.000000 0.000000 0.000000
1.000000 0.000000 0.000000
1.000000 1.000000 0.000000
0.000000 1.000000 0.000000
0.300000 0.330000 0.000000
0.700000 0.680000 0.000000
0.100000 0.000000 0.000000
0.200000 0.000000 0.000000
0.300000 0.000000 0.000000
0.400000 0.000000 0.000000
0.500000 0.000000 0.000000
0.600000 0.000000 0.000000
0.700000 0.000000 0.000000
0.800000 0.000000 0.000000
0.900000 0.000000 0.000000
1.000000 0.100000 0.000000
1.000000 0.200000 0.000000
1.000000 0.300000 0.000000
1.000000 0.400000 0.000000
1.000000 0.500000 0.000000
1.000000 0.600000 0.000000
1.000000 0.700000 0.000000
1.000000 0.800000 0.000000
1.000000 0.900000 0.000000
0.900000 1.000000 0.000000
0.800000 1.000000 0.000000
0.700000 1.000000 0.000000
0.600000 1.000000 0.000000
0.500000 1.000000 0.000000
0.400000 1.000000 0.000000
0.300000 1.000000 0.000000
0.200000 1.000000 0.000000
0.100000 1.000000 0.000000
0.000000 0.900000 0.000000
0.000000 0.800000 0.000000
0.000000 0.700000 0.000000
0.000000 0.600000 0.000000
0.000000 0.500000 0.000000
0.000000 0.400000 0.000000
0.000000 0.300000 0.000000
0.000000 0.200000 0.000000
0.000000 0.100000 0.000000
0.307407 0.336481 0.000000
0.314815 0.342963 0.000000
0.322222 0.349444 0.000000
0.329630 0.355926 0.000000
0.337037 0.362407 0.000000
0.344444 0.368889 0.000000
0.351852 0.375370 0.000000
0.359259 0.381852 0.000000
0.366667 0.388333 0.000000
0.374074 0.394815 0.000000
0.381481 0.401296 0.000000
0.388889 0.407778 0.000000
0.396296 0.414259 0.000000
0.403704 0.420741 0.000000
0.411111 0.427222 0.000000
0.418519 0.433704 0.000000
0.425926 0.440185 0.000000
0.433333 0.446667 0.000000
0.440741 0.453148 0.000000
0.448148 0.459630 0.000000
0.455556 0.466111 0.000000
0.462963 0.472593 0.000000
0.470370 0.479074 0.000000
0.477778 0.485556 0.000000
0.485185 0.492037 0.000000
0.492593 0.498519 0.000000
0.500000 0.505000 0.000000
0.507407 0.511481 0.000000
0.514815 0.517963 0.000000
0.522222 0.524444 0.000000
0.529630 0.530926 0.000000
0.537037 0.537407 0.000000
0.544444 0.543889 0.000000
0.551852 0.550370 0.000000
0.559259 0.556852 0.000000
0.566667 0.563333 0.000000
0.574074 0.569815 0.000000
0.581481 0.576296 0.000000
0.588889 0.582778 0.000000
0.596296 0.589259 0.000000
0.603704 0.595741 0.000000
0.611111 0.602222 0.000000
0.618519 0.608704 0.000000
0.625926 0.615185 0.000000
0.633333 0.621667 0.000000
0.640741 0.628148 0.000000
0.648148 0.634630 0.000000
0.655556 0.641111 0.000000
0.662963 0.647593 0.000000
0.670370 0.654074 0.000000
0.677778 0.660556 0.000000
0.685185 0.667037 0.000000
0.692593 0.673519 0.000000
0.548037 0.570873 0.000000
0.554453 0.579695 0.000000
0.540788 0.582045 0.000000
0.550492 0.594703 0.000000
0.338797 0.350505 0.000000
0.329823 0.347064 0.000000
0.335712 0.339262 0.000000
0.451687 0.438509 0.000000
0.442642 0.430741 0.000000
0.457884 0.427703 0.000000
0.387297 0.847474 0.000000
0.374793 0.914734 0.000000
0.332869 0.847471 0.000000
0.447069 0.415163 0.000000
0.567391 0.482596 0.000000
0.554659 0.473874 0.000000
0.567453 0.464800 0.000000
0.301190 0.902112 0.000000
0.551747 0.457138 0.000000
0.356532 0.391813 0.000000
0.347986 0.386048 0.000000
0.176207 0.429241 0.000000
0.128375 0.468105 0.000000
0.136378 0.404291 0.000000
0.185621 0.475277 0.000000
0.497512 0.261165 0.000000
0.499167 0.296032 0.000000
0.469918 0.291504 0.000000
0.642232 0.687989 0.000000
0.624295 0.701188 0.000000
0.630549 0.678643 0.000000
0.647682 0.074905 0.000000
0.700945 0.096046 0.000000
0.657288 0.160421 0.000000
0.611443 0.684403 0.000000
0.559779 0.406431 0.000000
0.582162 0.394521 0.000000
0.580552 0.422827 0.000000
0.560788 0.374759 0.000000
0.541503 0.468043 0.000000
0.545465 0.480978 0.000000
0.428301 0.394826 0.000000
0.414860 0.384611 0.000000
0.432086 0.374027 0.000000
0.533961 0.477886 0.000000
0.527361 0.464336 0.000000
0.415481 0.368142 0.000000
0.484401 0.527206 0.000000
0.472984 0.524144 0.000000
0.481205 0.518972 0.000000
0.394266 0.424909 0.000000
0.401826 0.431399 0.000000
0.392742 0.434502 0.000000
0.642418 0.617836 0.000000
0.635302 0.612878 0.000000
0.644322 0.605726 0.000000
0.263646 0.464175 0.000000
0.250486 0.498376 0.000000
0.230296 0.467342 0.000000
0.491693 0.468898 0.000000
0.498004 0.479972 0.000000
0.487381 0.480785 0.000000
0.718619 0.489140 0.000000
0.756680 0.466072 0.000000
0.751564 0.516847 0.000000
0.497232 0.719177 0.000000
0.477497 0.748035 0.000000
0.465924 0.716726 0.000000
0.501292 0.467390 0.000000
0.529064 0.285755 0.000000
0.547173 0.240449 0.000000
0.474742 0.511943 0.000000
0.403118 0.392815 0.000000
0.412434 0.399392 0.000000
0.653057 0.614785 0.000000
0.659187 0.602396 0.000000
0.400247 0.379451 0.000000
0.459133 0.636583 0.000000
0.434636 0.647284 0.000000
0.440667 0.616932 0.000000
0.453650 0.664799 0.000000
0.666296 0.616100 0.000000
0.657731 0.628197 0.000000
0.420489 0.468863 0.000000
0.414183 0.459489 0.000000
0.424065 0.460120 0.000000
0.629321 0.574616 0.000000
0.630370 0.589442 0.000000
0.617226 0.584388 0.000000
0.422026 0.450877 0.000000
0.590180 0.614274 0.000000
0.596278 0.627413 0.000000
0.585881 0.628067 0.000000
0.630677 0.603443 0.000000
0.529117 0.486095 0.000000
0.517046 0.488781 0.000000
0.522040 0.477224 0.000000
0.308641 0.392803 0.000000
0.323746 0.398675 0.000000
0.304273 0.411173 0.000000
0.146020 0.514086 0.000000
0.087335 0.505198 0.000000
0.624982 0.561914 0.000000
0.643811 0.559907 0.000000
0.831909 0.406061 0.000000
0.881376 0.423788 0.000000
0.839177 0.457573 0.000000
0.509066 0.478681 0.000000
0.614792 0.620247 0.000000
0.608406 0.635616 0.000000
0.603251 0.619643 0.000000
0.640290 0.595050 0.000000
0.524731 0.497540 0.000000
0.338689 0.392113 0.000000
0.347423 0.395876 0.000000
0.340116 0.407012 0.000000
0.686563 0.659098 0.000000
0.682555 0.651347 0.000000
0.934704 0.856355 0.000000
0.940546 0.930926 0.000000
0.863552 0.916423 0.000000
0.172107 0.566287 0.000000
0.188105 0.516551 0.000000
0.221330 0.532895 0.000000
0.683914 0.680068 0.000000
0.692945 0.685712 0.000000
0.683376 0.697853 0.000000
0.672414 0.683990 0.000000
0.557147 0.529227 0.000000
0.554161 0.540325 0.000000
0.546244 0.533101 0.000000
0.391911 0.394487 0.000000
0.387591 0.383772 0.000000
0.385780 0.368800 0.000000
0.671617 0.628861 0.000000
0.664093 0.637808 0.000000
0.408700 0.450928 0.000000
0.406517 0.467364 0.000000
0.394366 0.455525 0.000000
0.388841 0.472148 0.000000
0.792728 0.486062 0.000000
0.461047 0.516036 0.000000
0.460182 0.532753 0.000000
0.450617 0.523703 0.000000
0.364207 0.398120 0.000000
0.371344 0.402923 0.000000
0.362621 0.408449 0.000000
0.235276 0.413110 0.000000
0.235915 0.390376 0.000000
0.260894 0.399649 0.000000
0.564107 0.604249 0.000000
0.558497 0.625526 0.000000
0.545610 0.611482 0.000000
0.542035 0.628852 0.000000
0.441269 0.401429 0.000000
0.443649 0.385779 0.000000
0.454140 0.398188 0.000000
0.456246 0.380948 0.000000
0.531090 0.597071 0.000000
0.528592 0.618783 0.000000
0.693800 0.600685 0.000000
0.675646 0.601117 0.000000
0.688895 0.583493 0.000000
0.466943 0.412411 0.000000
0.469666 0.393398 0.000000
0.215629 0.311290 0.000000
0.236374 0.342186 0.000000
0.194357 0.347185 0.000000
0.372859 0.289727 0.000000
0.362694 0.307734 0.000000
0.346245 0.295576 0.000000
0.824768 0.656091 0.000000
0.787989 0.680173 0.000000
0.787481 0.637866 0.000000
0.763354 0.658567 0.000000
0.564845 0.587843 0.000000
0.565674 0.575091 0.000000
0.575285 0.580662 0.000000
0.591463 0.532694 0.000000
0.606735 0.524365 0.000000
0.606700 0.541268 0.000000
0.696107 0.663701 0.000000
0.695223 0.651919 0.000000
0.114270 0.553146 0.000000
0.897846 0.490106 0.000000
0.941355 0.438159 0.000000
0.491870 0.442127 0.000000
0.508682 0.433741 0.000000
0.504276 0.453072 0.000000
0.616608 0.507977 0.000000
0.629719 0.487283 0.000000
0.643435 0.510566 0.000000
0.660659 0.486926 0.000000
0.584650 0.557787 0.000000
0.582076 0.545531 0.000000
0.595086 0.552412 0.000000
0.215445 0.494211 0.000000
0.502563 0.534321 0.000000
0.493623 0.527201 0.000000
0.502900 0.523550 0.000000
0.490744 0.536689 0.000000
0.303740 0.348241 0.000000
0.312638 0.354325 0.000000
0.302746 0.359450 0.000000
0.683727 0.548378 0.000000
0.666144 0.562133 0.000000
0.663581 0.542222 0.000000
0.366098 0.324774 0.000000
0.379406 0.309842 0.000000
0.251675 0.434611 0.000000
0.214900 0.437402 0.000000
0.581091 0.493223 0.000000
0.603283 0.484739 0.000000
0.593195 0.510449 0.000000
0.429738 0.356510 0.000000
0.412970 0.350726 0.000000
0.358920 0.356811 0.000000
0.352460 0.366146 0.000000
0.347463 0.357590 0.000000
0.353794 0.402394 0.000000
0.527483 0.436280 0.000000
0.546965 0.439869 0.000000
0.535210 0.453469 0.000000
0.624606 0.790385 0.000000
0.614250 0.755688 0.000000
0.654837 0.763041 0.000000
0.384960 0.332814 0.000000
0.619946 0.597007 0.000000
0.358705 0.265521 0.000000
0.397502 0.266486 0.000000
0.377869 0.228897 0.000000
0.471169 0.372235 0.000000
0.492664 0.362648 0.000000
0.488718 0.386734 0.000000
0.431288 0.062893 0.000000
0.512348 0.074893 0.000000
0.450325 0.128772 0.000000
0.515327 0.223180 0.000000
0.538419 0.183215 0.000000
0.367912 0.509419 0.000000
0.343175 0.515399 0.000000
0.351317 0.488263 0.000000
0.593186 0.193353 0.000000
0.476496 0.230456 0.000000
0.594140 0.256114 0.000000
0.629340 0.367381 0.000000
0.659922 0.374166 0.000000
0.641019 0.397588 0.000000
0.669525 0.412603 0.000000
0.510665 0.591750 0.000000
0.493263 0.584115 0.000000
0.507476 0.576852 0.000000
0.492575 0.790205 0.000000
0.516533 0.753914 0.000000
0.493265 0.606545 0.000000
0.794852 0.435952 0.000000
0.797754 0.379724 0.000000
0.755728 0.420083 0.000000
0.528549 0.642034 0.000000
0.507334 0.653897 0.000000
0.509532 0.626562 0.000000
0.580705 0.748031 0.000000
0.605192 0.727758 0.000000
0.748472 0.635779 0.000000
0.742539 0.660255 0.000000
0.323194 0.421808 0.000000
0.325468 0.445306 0.000000
0.301700 0.435431 0.000000
0.295276 0.460827 0.000000
0.622421 0.457821 0.000000
0.642814 0.468538 0.000000
0.320303 0.468200 0.000000
[...]
POINT_DATA 858
SCALARS UX float 1
LOOKUP_TABLE default
-0.000000
0.000000
0.113518
-0.153193
-0.075627
0.068250
0.000000
-0.000000
-0.000000
-0.000000
-0.000000
0.000000
0.000000
0.000000
-0.000000
0.064250
0.102235
0.127802
0.147244
0.159633
0.160538
0.148866
0.130887
0.117778
0.085048
0.057079
0.031115
0.007807
-0.016670
-0.042871
-0.070140
-0.098164
-0.125810
-0.155218
-0.160155
-0.167859
-0.175396
-0.178389
-0.169659
-0.146077
-0.109914
-0.067930
-0.072418
-0.068301
-0.064401
-0.065042
-0.060811
-0.056326
-0.057232
-0.054410
-0.051310
-0.048345
-0.050272
-0.046551
-0.043973
-0.040281
-0.039524
-0.036227
-0.035181
-0.032675
-0.028642
-0.028051
-0.024045
-0.023125
-0.020579
-0.016066
-0.013895
-0.014658
-0.009578
-0.008085
-0.004320
-0.001761
0.003044
0.002439
0.007051
0.010410
0.010709
0.015243
0.019428
0.020797
0.020251
0.022332
0.027054
0.028979
0.031150
0.036090
0.038435
0.040439
0.041675
0.047300
0.048782
0.051323
0.057535
0.057164
0.063649
-0.045349
-0.042779
-0.047024
-0.041774
-0.029407
-0.039722
-0.030220
0.027305
0.023233
0.028241
-0.049427
-0.050463
-0.064797
0.023152
0.059854
0.055976
0.055981
-0.071569
0.051797
-0.092341
-0.096759
-0.133137
-0.146184
-0.138612
-0.133111
0.003921
0.008346
0.001330
0.013316
0.009754
0.005488
0.007517
0.015114
0.019965
0.000369
0.041753
0.043561
0.049070
0.035296
0.052655
0.055995
0.014324
0.008757
0.010005
0.053465
0.049655
0.004982
-0.070060
-0.073095
-0.071416
-0.085966
-0.085215
-0.093943
0.079737
0.074341
0.088517
-0.115880
-0.117402
-0.123001
0.042883
0.044646
0.034049
0.089037
0.094952
0.100318
-0.027770
-0.030096
-0.037101
0.045552
0.013204
0.011449
-0.073086
0.006061
0.009944
0.089629
0.092047
0.004010
-0.052086
-0.056099
-0.060148
-0.048279
0.093456
0.086716
-0.089380
-0.090801
-0.086826
0.084879
0.085241
0.081030
-0.084593
-0.025509
-0.021108
-0.024227
0.082168
0.053874
0.050788
0.051190
-0.108460
-0.106723
-0.109332
-0.142244
-0.156796
0.082928
0.085319
0.104988
0.120995
0.114793
0.048588
-0.010665
-0.015246
-0.018634
0.087792
0.053334
-0.103529
-0.101519
-0.104652
0.082793
0.088362
0.103668
0.098380
0.076872
-0.133124
-0.131663
-0.122481
0.038382
0.049641
0.039148
0.027753
0.064142
0.056063
0.053809
0.000211
-0.000882
-0.002011
0.093653
0.080879
-0.092312
-0.092520
-0.095649
-0.094785
0.106652
-0.076489
-0.073941
-0.077071
-0.088777
-0.082806
-0.099355
-0.120731
-0.118501
-0.115907
-0.035844
-0.031875
-0.038543
-0.034729
0.018683
0.015353
0.020575
0.016566
-0.045696
-0.040402
0.096634
0.094200
0.094638
0.026742
0.022307
-0.095326
-0.106076
-0.114538
-0.023804
-0.025073
-0.032613
0.113707
0.100220
0.110825
0.102924
-0.038131
-0.032292
-0.022463
0.073486
0.074322
0.077479
0.088695
0.094648
-0.148868
0.133567
0.138524
0.038400
0.039389
0.043317
0.072645
0.070857
0.077338
0.076373
0.071817
0.073260
0.077076
-0.125828
-0.063704
-0.066909
-0.061148
-0.067184
-0.098414
-0.096511
-0.104642
0.089676
0.088767
0.085593
-0.020275
-0.019170
-0.118583
-0.125850
0.064225
0.065904
0.069546
0.004899
-0.000273
-0.015149
-0.026680
-0.022808
-0.100901
0.043092
0.047086
0.048411
0.015929
0.012427
0.025288
-0.012258
0.075639
-0.027963
-0.018002
-0.021186
0.017248
0.019230
0.024163
-0.003595
-0.000458
-0.005917
0.004329
0.005341
-0.092644
-0.096264
-0.098020
0.014356
-0.002246
0.022249
0.048222
0.056373
0.056402
0.065440
-0.051214
-0.056541
-0.055573
-0.022312
-0.017986
-0.051011
0.100193
0.091403
0.087561
-0.034347
-0.036699
-0.042618
0.001105
0.007325
0.105618
0.100273
-0.106815
-0.105592
-0.109580
-0.109740
0.063859
0.069699
-0.104973
0.006047
-0.009979
-0.008422
-0.012755
-0.124487
-0.136858
-0.156507
-0.126487
-0.114148
-0.111694
-0.028732
-0.031421
0.091996
0.094481
-0.112035
-0.109810
-0.143377
-0.122791
-0.145116
-0.159031
-0.037693
-0.085824
-0.075706
-0.080858
-0.077640
-0.014808
-0.011226
-0.128323
0.108161
0.126055
0.096353
-0.109882
-0.107642
-0.127735
-0.031681
-0.036167
-0.025385
-0.072639
-0.070451
-0.079197
-0.042813
0.107140
0.018286
0.014238
-0.104486
-0.020516
-0.013619
0.014373
0.015979
0.021021
0.024371
0.013660
0.109091
-0.042895
-0.054108
-0.036738
-0.058581
-0.062210
-0.043043
0.114338
0.089043
-0.061354
0.077614
0.075713
0.064188
-0.058900
-0.018566
-0.027026
-0.018482
0.010505
0.028189
-0.090369
-0.084636
0.015916
0.019133
0.030826
-0.125179
-0.117493
-0.046507
0.039978
0.056401
0.035895
-0.102279
-0.102732
-0.047235
-0.041999
0.081869
0.083837
-0.109332
-0.090818
-0.095325
0.119380
-0.101483
0.028392
0.031429
0.042953
0.071934
0.079974
-0.013598
-0.113657
-0.107270
-0.004672
-0.038123
-0.017029
-0.014370
-0.118146
-0.089761
-0.124310
-0.086576
-0.098788
-0.101823
-0.088963
0.102223
0.103839
0.100925
0.072851
0.077850
-0.079685
-0.076173
-0.018974
-0.010910
0.120545
0.119927
-0.079967
0.091885
0.099591
-0.094241
-0.008372
-0.014163
-0.076590
-0.071205
-0.099834
-0.097517
-0.097821
-0.097889
-0.067605
0.088004
0.089973
0.091230
-0.161553
0.054670
0.080184
0.003991
0.009444
0.001004
-0.004699
0.123748
0.130756
0.140482
0.144291
0.000158
-0.029809
-0.027816
0.018748
0.081038
0.077485
0.094176
0.092125
-0.046346
-0.051743
0.030844
0.027218
0.033008
0.031988
0.014460
0.003838
0.020501
0.027279
-0.008529
0.097049
0.099862
-0.054646
-0.044070
-0.044042
0.041585
0.037918
-0.035984
0.034913
-0.108301
-0.104389
-0.111515
-0.000364
-0.002501
-0.113123
-0.113945
-0.106855
-0.066943
-0.067629
0.099194
0.104991
-0.063993
-0.069962
-0.062458
-0.031481
-0.042916
-0.066979
-0.008179
-0.002881
-0.106544
-0.014850
-0.008532
0.020392
0.019733
-0.047891
-0.049565
-0.053074
0.043673
0.004308
0.003860
0.095957
-0.009160
-0.024083
-0.015706
-0.019523
-0.083065
-0.086674
-0.085846
0.008446
-0.094294
0.010665
0.018741
-0.006353
-0.015234
-0.036607
0.030866
0.033644
0.029287
0.067402
0.063497
-0.101751
-0.103755
0.048358
0.034630
0.042556
0.065947
-0.006682
-0.070159
-0.096943
0.036337
-0.074544
-0.080227
0.026019
-0.080537
-0.066009
0.097880
0.095786
0.019337
0.128008
-0.107836
0.046805
-0.037972
-0.067929
-0.060378
-0.030434
-0.101928
-0.075091
-0.102816
0.087965
0.069670
0.070214
0.050313
0.116571
0.074529
0.019720
-0.039198
-0.036881
-0.063762
-0.060482
-0.054983
-0.055800
-0.054849
0.036973
0.041509
0.038481
0.021179
0.019151
0.055922
0.055384
0.050305
-0.055333
0.045437
0.087285
0.031659
0.040956
0.038038
-0.051612
0.077080
0.081542
0.032999
0.069019
0.066438
0.002362
-0.070392
-0.072484
-0.071636
-0.068367
0.052797
0.046341
0.066359
-0.092694
0.050948
-0.073449
-0.043162
-0.039909
-0.066555
-0.006464
0.089491
-0.087104
-0.089531
-0.085905
-0.030722
-0.090816
0.032957
-0.029451
-0.001002
-0.100666
-0.098831
-0.059661
0.005133
-0.055957
-0.055261
-0.007981
0.111926
0.114027
-0.079809
-0.054220
-0.091920
-0.006901
0.081877
0.071378
0.099360
0.085850
-0.007727
0.106281
-0.094422
-0.092360
-0.056695
-0.085382
-0.014673
-0.025081
-0.017686
-0.079008
-0.083010
-0.011727
-0.008368
-0.084568
-0.097358
-0.001098
-0.001729
-0.091533
-0.027246
-0.101418
-0.072002
-0.069494
-0.078775
-0.029828
0.011276
0.022382
0.027959
-0.030152
-0.074114
-0.080866
-0.007042
0.077859
-0.004797
0.052054
0.047985
0.057610
0.060954
0.044851
0.052858
-0.089132
-0.085281
-0.110953
0.060335
-0.072451
-0.005358
-0.002769
0.034924
-0.105513
0.051669
-0.013375
-0.011433
0.029809
0.044619
-0.115264
-0.139340
-0.017629
0.099655
-0.037603
0.062079
0.048042
-0.148753
-0.132916
-0.107597
0.124479
0.108533
-0.073295
-0.073154
-0.083283
0.032908
-0.042351
0.086568
0.001451
-0.017600
0.084842
0.049745
-0.104649
-0.148259
0.020792
-0.012848
-0.006391
-0.018551
0.054956
0.071093
0.029899
-0.046686
-0.055977
0.073554
0.027137
-0.097790
-0.096459
-0.103582
0.032602
0.055661
-0.098724
0.062697
0.073639
-0.075289
0.090826
0.059498
-0.089259
-0.094198
0.060352
-0.099834
-0.100584
-0.078182
0.003627
-0.010752
-0.017590
0.019258
-0.037507
0.088200
-0.086817
-0.084357
-0.066385
0.047699
-0.072892
-0.055445
-0.049679
0.062921
0.059272
-0.078003
-0.081734
-0.040462
0.034829
-0.087522
0.076861
-0.064419
0.067392
0.066850
0.067198
0.070809
0.052538
0.046976
0.056525
-0.059226
0.017825
-0.018212
0.025996
-0.048893
-0.046492
0.004839
0.009177
-0.092453
-0.076457
-0.068193
0.066171
0.065398
0.012776
0.061530
0.044325
-0.062398
-0.066778
0.015133
0.060647
0.011408
-0.082458
-0.083368
0.058831
0.051692
SCALARS UY float 1
LOOKUP_TABLE default
-0.000000
-0.000000
-0.890000
-0.890000
-0.255877
-0.626722
-0.000000
-0.000000
-0.000000
-0.000000
-0.000000
-0.000000
-0.000000
-0.000000
-0.000000
-0.111626
-0.201972
-0.287496
-0.369273
-0.447607
-0.525004
-0.605691
-0.694976
-0.791250
-0.890000
-0.890000
-0.890000
-0.890000
-0.890000
-0.890000
-0.890000
-0.890000
-0.890000
-0.797656
-0.706592
-0.617832
-0.532932
-0.453320
-0.376717
-0.299147
-0.213046
-0.116468
-0.266005
-0.275609
-0.284834
-0.287767
-0.296403
-0.305246
-0.308189
-0.315611
-0.323350
-0.331548
-0.336009
-0.342067
-0.348031
-0.355496
-0.360606
-0.367093
-0.372658
-0.379278
-0.387671
-0.391315
-0.399185
-0.403494
-0.410145
-0.419460
-0.425649
-0.428613
-0.436735
-0.441898
-0.449874
-0.455823
-0.464145
-0.465525
-0.474081
-0.481288
-0.484588
-0.493493
-0.502130
-0.505646
-0.515771
-0.521039
-0.528807
-0.532579
-0.538145
-0.547770
-0.554263
-0.561375
-0.565687
-0.575810
-0.580777
-0.588445
-0.599323
-0.602824
-0.615397
-0.547075
-0.556046
-0.557375
-0.569001
-0.256589
-0.261176
-0.245689
-0.326304
-0.318290
-0.316069
-0.760866
-0.817662
-0.758563
-0.304667
-0.376481
-0.366882
-0.362502
-0.805122
-0.353266
-0.356638
-0.352280
-0.381115
-0.418763
-0.362569
-0.421768
-0.190721
-0.218564
-0.212162
-0.649391
-0.658776
-0.641387
-0.054943
-0.073465
-0.122315
-0.644544
-0.314818
-0.308855
-0.331669
-0.289502
-0.359670
-0.370525
-0.287218
-0.278331
-0.271704
-0.365915
-0.354147
-0.265938
-0.505039
-0.501339
-0.497177
-0.395064
-0.402124
-0.409451
-0.518164
-0.513412
-0.499363
-0.412577
-0.443265
-0.413938
-0.353979
-0.365009
-0.372333
-0.414715
-0.399471
-0.445369
-0.660846
-0.682885
-0.655592
-0.353112
-0.213369
-0.178665
-0.490985
-0.285767
-0.290545
-0.510519
-0.499663
-0.274113
-0.588435
-0.594062
-0.569805
-0.610939
-0.514437
-0.527430
-0.446081
-0.436746
-0.436848
-0.466436
-0.480144
-0.474473
-0.425434
-0.586748
-0.597964
-0.598274
-0.496372
-0.371852
-0.372504
-0.363367
-0.353570
-0.363592
-0.369646
-0.457999
-0.453247
-0.454655
-0.458299
-0.353530
-0.374357
-0.400428
-0.363204
-0.587722
-0.605614
-0.589538
-0.487661
-0.381595
-0.360807
-0.365658
-0.375644
-0.575850
-0.561363
-0.754879
-0.824572
-0.814580
-0.503710
-0.458978
-0.473802
-0.637065
-0.643108
-0.657295
-0.645206
-0.414220
-0.431101
-0.422497
-0.289439
-0.279661
-0.265511
-0.528911
-0.545615
-0.427741
-0.442664
-0.430021
-0.442898
-0.421832
-0.493175
-0.506354
-0.497475
-0.364173
-0.366566
-0.381351
-0.363808
-0.342558
-0.351428
-0.578443
-0.593835
-0.581473
-0.594150
-0.293420
-0.281753
-0.292376
-0.279679
-0.568099
-0.584470
-0.510320
-0.504202
-0.493072
-0.304885
-0.290818
-0.270605
-0.297683
-0.306453
-0.204222
-0.217935
-0.208540
-0.576067
-0.598432
-0.560036
-0.579187
-0.563967
-0.546339
-0.545834
-0.422419
-0.419334
-0.433219
-0.582631
-0.563743
-0.493328
-0.433396
-0.392775
-0.331178
-0.327401
-0.341743
-0.408494
-0.394625
-0.417334
-0.401366
-0.446340
-0.431858
-0.440441
-0.438541
-0.512490
-0.505394
-0.499832
-0.514058
-0.300511
-0.309859
-0.316334
-0.460366
-0.467040
-0.449349
-0.231226
-0.219930
-0.384162
-0.386527
-0.387984
-0.386396
-0.404608
-0.258487
-0.252889
-0.258046
-0.275916
-0.263472
-0.373791
-0.332624
-0.338938
-0.347237
-0.727721
-0.700848
-0.707232
-0.237819
-0.491981
-0.186094
-0.187430
-0.159023
-0.274970
-0.270376
-0.288395
-0.042065
-0.051516
-0.088149
-0.162325
-0.133032
-0.469020
-0.469483
-0.447914
-0.144813
-0.165096
-0.195837
-0.293370
-0.303563
-0.320915
-0.338502
-0.560843
-0.552117
-0.548796
-0.719238
-0.691369
-0.569504
-0.376543
-0.326014
-0.357531
-0.602391
-0.608829
-0.587609
-0.692351
-0.678237
-0.557378
-0.581973
-0.384268
-0.405356
-0.391449
-0.413273
-0.368569
-0.381808
-0.424464
-0.085236
-0.073947
-0.118919
-0.108725
-0.317059
-0.328396
-0.389879
-0.341874
-0.519465
-0.481074
-0.838228
-0.781958
-0.477018
-0.476939
-0.430443
-0.456598
-0.546644
-0.556339
-0.614220
-0.563713
-0.193641
-0.578590
-0.598648
-0.619473
-0.572696
-0.574695
-0.577651
-0.601853
-0.288216
-0.338817
-0.522501
-0.604859
-0.563610
-0.664505
-0.169630
-0.159802
-0.140105
-0.552035
-0.572692
-0.548230
-0.189307
-0.325761
-0.299631
-0.299278
-0.392255
-0.244057
-0.246821
-0.250832
-0.240669
-0.263949
-0.744212
-0.762316
-0.531429
-0.729861
-0.678698
-0.702370
-0.554388
-0.540994
-0.664875
-0.531163
-0.274773
-0.535617
-0.320199
-0.343040
-0.300703
-0.716152
-0.130334
-0.122251
-0.105273
-0.253542
-0.180263
-0.812433
-0.746786
-0.306564
-0.066982
-0.125386
-0.280895
-0.285034
-0.206475
-0.686338
-0.679243
-0.720671
-0.394477
-0.408131
-0.587420
-0.610735
-0.428335
-0.419921
-0.656798
-0.645213
-0.593527
-0.441133
-0.426485
-0.658114
-0.676248
-0.666750
-0.372799
-0.391981
-0.070110
-0.322369
-0.303424
-0.033619
-0.106461
-0.046431
-0.054089
-0.327975
-0.489935
-0.357067
-0.486196
-0.551016
-0.511914
-0.540617
-0.545818
-0.529586
-0.568918
-0.455649
-0.454492
-0.494379
-0.506063
-0.608074
-0.619278
-0.510115
-0.545137
-0.487187
-0.448518
-0.477168
-0.499135
-0.151513
-0.140455
-0.704565
-0.666457
-0.421386
-0.429399
-0.436394
-0.418311
-0.635542
-0.476598
-0.489162
-0.484779
-0.506920
-0.468959
-0.447281
-0.612642
-0.618813
-0.261915
-0.251273
-0.571895
-0.526971
-0.557209
-0.495202
-0.098733
-0.235090
-0.226504
-0.681613
-0.442987
-0.426716
-0.596822
-0.599973
-0.573637
-0.552551
-0.310306
-0.300189
-0.320922
-0.306796
-0.831999
-0.777819
-0.784591
-0.287283
-0.824784
-0.548040
-0.552235
-0.229548
-0.213590
-0.228901
-0.323093
-0.318269
-0.224248
-0.303387
-0.327976
-0.328388
-0.326189
-0.605684
-0.619641
-0.372040
-0.393256
-0.307582
-0.548084
-0.555709
-0.503600
-0.505319
-0.578857
-0.532476
-0.552620
-0.567242
-0.475514
-0.495840
-0.614555
-0.631085
-0.439197
-0.300575
-0.284687
-0.632568
-0.647700
-0.538903
-0.548116
-0.541049
-0.377223
-0.743445
-0.714791
-0.576730
-0.260824
-0.606217
-0.620241
-0.619970
-0.507663
-0.509756
-0.524912
-0.234559
-0.418178
-0.635342
-0.619729
-0.729217
-0.762176
-0.237588
-0.324564
-0.330218
-0.332917
-0.474275
-0.469817
-0.466737
-0.483379
-0.266797
-0.225986
-0.220515
-0.361018
-0.597420
-0.513062
-0.404916
-0.172481
-0.529941
-0.505047
-0.263781
-0.527516
-0.522564
-0.537312
-0.535371
-0.212482
-0.479796
-0.340877
-0.332284
-0.633511
-0.157249
-0.174451
-0.111276
-0.216309
-0.149607
-0.384073
-0.735133
-0.775083
-0.727802
-0.774920
-0.675286
-0.361218
-0.310172
-0.522695
-0.531048
-0.522840
-0.519753
-0.570141
-0.216834
-0.224622
-0.334780
-0.343687
-0.346253
-0.347986
-0.341679
-0.346058
-0.354210
-0.319064
-0.636808
-0.342817
-0.219739
-0.262573
-0.288953
-0.260346
-0.530471
-0.467442
-0.460033
-0.341707
-0.409766
-0.398989
-0.627663
-0.517051
-0.514817
-0.247898
-0.527413
-0.221161
-0.175580
-0.217501
-0.694712
-0.345505
-0.239559
-0.514322
-0.504667
-0.526197
-0.692835
-0.598171
-0.476061
-0.464176
-0.473300
-0.577309
-0.467855
-0.363984
-0.590651
-0.241361
-0.408358
-0.395572
-0.530106
-0.249838
-0.532952
-0.522824
-0.252522
-0.505275
-0.469947
-0.230453
-0.194933
-0.225214
-0.237723
-0.439084
-0.687891
-0.663764
-0.643178
-0.632232
-0.481029
-0.453350
-0.456380
-0.540565
-0.410194
-0.647821
-0.628438
-0.631969
-0.502365
-0.488773
-0.634381
-0.650270
-0.375065
-0.383784
-0.300325
-0.652307
-0.453701
-0.611118
-0.445482
-0.455978
-0.463385
-0.472161
-0.738497
-0.267159
-0.239652
-0.233548
-0.637063
-0.480878
-0.464257
-0.186128
-0.527533
-0.211705
-0.409288
-0.402155
-0.390505
-0.403826
-0.396467
-0.645310
-0.457499
-0.465715
-0.348349
-0.372881
-0.519316
-0.667841
-0.130417
-0.764041
-0.345211
-0.828455
-0.166734
-0.206478
-0.072734
-0.085183
-0.810979
-0.804642
-0.207816
-0.529227
-0.079002
-0.142612
-0.143507
-0.334827
-0.732328
-0.730752
-0.615628
-0.610810
-0.439008
-0.449353
-0.454240
-0.821287
-0.152122
-0.441638
-0.231900
-0.660854
-0.379124
-0.729871
-0.273046
-0.678827
-0.662438
-0.222447
-0.224175
-0.567748
-0.656022
-0.273970
-0.283278
-0.633411
-0.608976
-0.622008
-0.359447
-0.339453
-0.345635
-0.352303
-0.627244
-0.257838
-0.328019
-0.452936
-0.621705
-0.515764
-0.544584
-0.342542
-0.268757
-0.279981
-0.366209
-0.287763
-0.289126
-0.410941
-0.306921
-0.275628
-0.273418
-0.334350
-0.539583
-0.472090
-0.454227
-0.444087
-0.600363
-0.353377
-0.253910
-0.502138
-0.507444
-0.388912
-0.379254
-0.483096
-0.474840
-0.252331
-0.319212
-0.386904
-0.630800
-0.541267
-0.483945
-0.424883
-0.412850
-0.420101
-0.443001
-0.420890
-0.376808
-0.463275
-0.361274
-0.555722
-0.390788
-0.242520
-0.466970
-0.317604
-0.336037
-0.314952
-0.424993
-0.427096
-0.495471
-0.402192
-0.318683
-0.390872
-0.386100
-0.475068
-0.485453
-0.581892
-0.442026
-0.325406
-0.484083
-0.476517
-0.383594
-0.391208
SCALARS DAMAGE float 1
LOOKUP_TABLE default
0.998293
0.998364
0.998766
0.998913
0.000000
0.000000
0.998940
0.999163
0.999308
0.999374
0.999353
0.999291
0.999195
0.999095
0.998877
0.998633
0.998968
0.999091
0.999165
0.999193
0.999196
0.999051
0.998879
0.998776
0.998903
0.999023
0.999164
0.999215
0.999167
0.999091
0.999033
0.998988
0.998954
0.998910
0.998956
0.999019
0.999118
0.999189
0.999234
0.999103
0.998947
0.998409
-0.000000
0.000000
0.000000
0.000000
0.000000
0.000000
0.000000
0.000000
0.000000
0.000000
0.000000
0.000000
0.000000
0.000000
0.000000
0.000000
0.000000
0.000000
0.000000
0.000000
0.000000
0.000000
0.000000
0.000000
0.000000
0.000000
0.000000
0.000000
0.000000
0.000000
0.000000
0.000000
0.000000
0.000000
0.000000
0.000000
0.000000
0.000000
0.000000
0.000000
0.000000
0.000000
0.000000
0.000000
0.000000
0.000000
0.000000
0.000000
0.000000
0.000000
0.000000
0.000000
-0.000000
0.678082
0.727766
0.862373
0.889560
0.481182
0.344669
0.649161
0.684937
0.689447
0.857042
0.999055
0.999065
0.999029
0.879337
0.979699
0.976841
0.990962
0.999021
0.987988
0.443165
0.490874
0.998967
0.999025
0.999013
0.998955
0.999193
0.999160
0.999144
0.943018
0.987143
0.946562
0.999223
0.999176
0.999143
0.981244
0.998576
0.999012
0.998651
0.999087
0.969550
0.952181
0.900414
0.889501
0.969994
0.933150
0.954303
0.952793
0.819669
0.869830
0.762906
0.447647
0.444387
0.669524
0.432815
0.389255
0.707520
0.998706
0.998905
0.998886
0.747948
0.668039
0.466122
0.998930
0.998929
0.998909
0.999105
0.999098
0.999092
0.843727
0.999159
0.999171
0.750677
0.726036
0.752074
0.683254
0.867866
0.844307
0.998899
0.999061
0.998862
0.999072
0.810882
0.515575
0.797685
0.753911
0.637698
0.878676
0.760811
0.672735
0.495750
0.768123
0.834328
0.897760
0.539220
0.878411
0.774821
0.894941
0.929966
0.903231
0.977097
0.998994
0.999068
0.917245
0.969743
0.998961
0.999009
0.998971
0.806641
0.509668
0.827382
0.680749
0.789504
0.751450
0.744251
0.686869
0.869174
0.350632
0.474437
0.998858
0.998837
0.998939
0.998966
0.998951
0.998935
0.512986
0.483894
0.844481
0.746640
0.706388
0.439009
0.448142
0.543610
0.656476
0.833746
0.717468
0.392066
0.714762
0.880557
0.872793
0.956297
0.998934
0.887202
0.951397
0.947881
0.433049
0.382133
0.675129
0.998312
0.997228
0.995093
0.880461
0.966392
0.959976
0.984580
0.915536
0.965434
0.959261
0.983163
0.957160
0.986539
0.971651
0.938420
0.985290
0.954549
0.983399
0.997832
0.995072
0.998854
0.994077
0.976476
0.980370
0.998929
0.998324
0.998467
0.993166
0.716510
0.453658
0.372975
0.922038
0.970822
0.936196
0.475325
0.688806
0.999023
0.999043
0.999106
0.930947
0.978208
0.930936
0.991198
0.997593
0.996650
0.998764
0.630319
0.781723
0.822861
0.998924
0.726318
0.731990
0.540495
0.849899
0.525315
0.472766
0.729121
0.996076
0.984943
0.993999
0.955089
0.987286
0.998589
0.998870
0.981087
0.995385
0.975978
0.985245
0.977136
0.691772
0.366382
0.493111
0.702600
0.988103
0.993348
0.980223
0.999231
0.998949
0.999294
0.970323
0.462332
0.997826
0.998895
0.999295
0.993948
0.997941
0.994117
0.999358
0.999316
0.999317
0.999208
0.999218
0.996295
0.998462
0.995451
0.999167
0.999229
0.999124
0.999061
0.999027
0.999045
0.999014