# vtk DataFile Version 2.0
Test
ASCII
DATASET POLYDATA
POINTS 858 float
0.000000 0.000000 0.000000
1.000000 0.000000 0.000000
1.000000 1.000000 0.000000
0.000000 1.000000 0.000000
0.300000 0.330000 0.000000
0.700000 0.680000 0.000000
0.100000 0.000000 0.000000
0.200000 0.000000 0.000000
0.300000 0.000000 0.000000
0.400000 0.000000 0.000000
0.500000 0.000000 0.000000
0.600000 0.000000 0.000000
0.700000 0.000000 0.000000
0.800000 0.000000 0.000000
0.900000 0.000000 0.000000
1.000000 0.100000 0.000000
1.000000 0.200000 0.000000
1.000000 0.300000 0.000000
1.000000 0.400000 0.000000
1.000000 0.500000 0.000000
1.000000 0.600000 0.000000
1.000000 0.700000 0.000000
1.000000 0.800000 0.000000
1.000000 0.900000 0.000000
0.900000 1.000000 0.000000
0.800000 1.000000 0.000000
0.700000 1.000000 0.000000
0.600000 1.000000 0.000000
0.500000 1.000000 0.000000
0.400000 1.000000 0.000000
0.300000 1.000000 0.000000
0.200000 1.000000 0.000000
0.100000 1.000000 0.000000
0.000000 0.900000 0.000000
0.000000 0.800000 0.000000
0.000000 0.700000 0.000000
0.000000 0.600000 0.000000
0.000000 0.500000 0.000000
0.000000 0.400000 0.000000
0.000000 0.300000 0.000000
0.000000 0.200000 0.000000
0.000000 0.100000 0.000000
0.307407 0.336481 0.000000
0.314815 0.342963 0.000000
0.322222 0.349444 0.000000
0.329630 0.355926 0.000000
0.337037 0.362407 0.000000
0.344444 0.368889 0.000000
0.351852 0.375370 0.000000
0.359259 0.381852 0.000000
0.366667 0.388333 0.000000
0.374074 0.394815 0.000000
0.381481 0.401296 0.000000
0.388889 0.407778 0.000000
0.396296 0.414259 0.000000
0.403704 0.420741 0.000000
0.411111 0.427222 0.000000
0.418519 0.433704 0.000000
0.425926 0.440185 0.000000
0.433333 0.446667 0.000000
0.440741 0.453148 0.000000
0.448148 0.459630 0.000000
0.455556 0.466111 0.000000
0.462963 0.472593 0.000000
0.470370 0.479074 0.000000
0.477778 0.485556 0.000000
0.485185 0.492037 0.000000
0.492593 0.498519 0.000000
0.500000 0.505000 0.000000
0.507407 0.511481 0.000000
0.514815 0.517963 0.000000
0.522222 0.524444 0.000000
0.529630 0.530926 0.000000
0.537037 0.537407 0.000000
0.544444 0.543889 0.000000
0.551852 0.550370 0.000000
0.559259 0.556852 0.000000
0.566667 0.563333 0.000000
0.574074 0.569815 0.000000
0.581481 0.576296 0.000000
0.588889 0.582778 0.000000
0.596296 0.589259 0.000000
0.603704 0.595741 0.000000
0.611111 0.602222 0.000000
0.618519 0.608704 0.000000
0.625926 0.615185 0.000000
0.633333 0.621667 0.000000
0.640741 0.628148 0.000000
0.648148 0.634630 0.000000
0.655556 0.641111 0.000000
0.662963 0.647593 0.000000
0.670370 0.654074 0.000000
0.677778 0.660556 0.000000
0.685185 0.667037 0.000000
0.692593 0.673519 0.000000
0.548037 0.570873 0.000000
0.554453 0.579695 0.000000
0.540788 0.582045 0.000000
0.550492 0.594703 0.000000
0.338797 0.350505 0.000000
0.329823 0.347064 0.000000
0.335712 0.339262 0.000000
0.451687 0.438509 0.000000
0.442642 0.430741 0.000000
0.457884 0.427703 0.000000
0.387297 0.847474 0.000000
0.374793 0.914734 0.000000
0.332869 0.847471 0.000000
0.447069 0.415163 0.000000
0.567391 0.482596 0.000000
0.554659 0.473874 0.000000
0.567453 0.464800 0.000000
0.301190 0.902112 0.000000
0.551747 0.457138 0.000000
0.356532 0.391813 0.000000
0.347986 0.386048 0.000000
0.176207 0.429241 0.000000
0.128375 0.468105 0.000000
0.136378 0.404291 0.000000
0.185621 0.475277 0.000000
0.497512 0.261165 0.000000
0.499167 0.296032 0.000000
0.469918 0.291504 0.000000
0.642232 0.687989 0.000000
0.624295 0.701188 0.000000
0.630549 0.678643 0.000000
0.647682 0.074905 0.000000
0.700945 0.096046 0.000000
0.657288 0.160421 0.000000
0.611443 0.684403 0.000000
0.559779 0.406431 0.000000
0.582162 0.394521 0.000000
0.580552 0.422827 0.000000
0.560788 0.374759 0.000000
0.541503 0.468043 0.000000
0.545465 0.480978 0.000000
0.428301 0.394826 0.000000
0.414860 0.384611 0.000000
0.432086 0.374027 0.000000
0.533961 0.477886 0.000000
0.527361 0.464336 0.000000
0.415481 0.368142 0.000000
0.484401 0.527206 0.000000
0.472984 0.524144 0.000000
0.481205 0.518972 0.000000
0.394266 0.424909 0.000000
0.401826 0.431399 0.000000
0.392742 0.434502 0.000000
0.642418 0.617836 0.000000
0.635302 0.612878 0.000000
0.644322 0.605726 0.000000
0.263646 0.464175 0.000000
0.250486 0.498376 0.000000
0.230296 0.467342 0.000000
0.491693 0.468898 0.000000
0.498004 0.479972 0.000000
0.487381 0.480785 0.000000
0.718619 0.489140 0.000000
0.756680 0.466072 0.000000
0.751564 0.516847 0.000000
0.497232 0.719177 0.000000
0.477497 0.748035 0.000000
0.465924 0.716726 0.000000
0.501292 0.467390 0.000000
0.529064 0.285755 0.000000
0.547173 0.240449 0.000000
0.474742 0.511943 0.000000
0.403118 0.392815 0.000000
0.412434 0.399392 0.000000
0.653057 0.614785 0.000000
0.659187 0.602396 0.000000
0.400247 0.379451 0.000000
0.459133 0.636583 0.000000
0.434636 0.647284 0.000000
0.440667 0.616932 0.000000
0.453650 0.664799 0.000000
0.666296 0.616100 0.000000
0.657731 0.628197 0.000000
0.420489 0.468863 0.000000
0.414183 0.459489 0.000000
0.424065 0.460120 0.000000
0.629321 0.574616 0.000000
0.630370 0.589442 0.000000
0.617226 0.584388 0.000000
0.422026 0.450877 0.000000
0.590180 0.614274 0.000000
0.596278 0.627413 0.000000
0.585881 0.628067 0.000000
0.630677 0.603443 0.000000
0.529117 0.486095 0.000000
0.517046 0.488781 0.000000
0.522040 0.477224 0.000000
0.308641 0.392803 0.000000
0.323746 0.398675 0.000000
0.304273 0.411173 0.000000
0.146020 0.514086 0.000000
0.087335 0.505198 0.000000
0.624982 0.561914 0.000000
0.643811 0.559907 0.000000
0.831909 0.406061 0.000000
0.881376 0.423788 0.000000
0.839177 0.457573 0.000000
0.509066 0.478681 0.000000
0.614792 0.620247 0.000000
0.608406 0.635616 0.000000
0.603251 0.619643 0.000000
0.640290 0.595050 0.000000
0.524731 0.497540 0.000000
0.338689 0.392113 0.000000
0.347423 0.395876 0.000000
0.340116 0.407012 0.000000
0.686563 0.659098 0.000000
0.682555 0.651347 0.000000
0.934704 0.856355 0.000000
0.940546 0.930926 0.000000
0.863552 0.916423 0.000000
0.172107 0.566287 0.000000
0.188105 0.516551 0.000000
0.221330 0.532895 0.000000
0.683914 0.680068 0.000000
0.692945 0.685712 0.000000
0.683376 0.697853 0.000000
0.672414 0.683990 0.000000
0.557147 0.529227 0.000000
0.554161 0.540325 0.000000
0.546244 0.533101 0.000000
0.391911 0.394487 0.000000
0.387591 0.383772 0.000000
0.385780 0.368800 0.000000
0.671617 0.628861 0.000000
0.664093 0.637808 0.000000
0.408700 0.450928 0.000000
0.406517 0.467364 0.000000
0.394366 0.455525 0.000000
0.388841 0.472148 0.000000
0.792728 0.486062 0.000000
0.461047 0.516036 0.000000
0.460182 0.532753 0.000000
0.450617 0.523703 0.000000
0.364207 0.398120 0.000000
0.371344 0.402923 0.000000
0.362621 0.408449 0.000000
0.235276 0.413110 0.000000
0.235915 0.390376 0.000000
0.260894 0.399649 0.000000
0.564107 0.604249 0.000000
0.558497 0.625526 0.000000
0.545610 0.611482 0.000000
0.542035 0.628852 0.000000
0.441269 0.401429 0.000000
0.443649 0.385779 0.000000
0.454140 0.398188 0.000000
0.456246 0.380948 0.000000
0.531090 0.597071 0.000000
0.528592 0.618783 0.000000
0.693800 0.600685 0.000000
0.675646 0.601117 0.000000
0.688895 0.583493 0.000000
0.466943 0.412411 0.000000
0.469666 0.393398 0.000000
0.215629 0.311290 0.000000
0.236374 0.342186 0.000000
0.194357 0.347185 0.000000
0.372859 0.289727 0.000000
0.362694 0.307734 0.000000
0.346245 0.295576 0.000000
0.824768 0.656091 0.000000
0.787989 0.680173 0.000000
0.787481 0.637866 0.000000
0.763354 0.658567 0.000000
0.564845 0.587843 0.000000
0.565674 0.575091 0.000000
0.575285 0.580662 0.000000
0.591463 0.532694 0.000000
0.606735 0.524365 0.000000
0.606700 0.541268 0.000000
0.696107 0.663701 0.000000
0.695223 0.651919 0.000000
0.114270 0.553146 0.000000
0.897846 0.490106 0.000000
0.941355 0.438159 0.000000
0.491870 0.442127 0.000000
0.508682 0.433741 0.000000
0.504276 0.453072 0.000000
0.616608 0.507977 0.000000
0.629719 0.487283 0.000000
0.643435 0.510566 0.000000
0.660659 0.486926 0.000000
0.584650 0.557787 0.000000
0.582076 0.545531 0.000000
0.595086 0.552412 0.000000
0.215445 0.494211 0.000000
0.502563 0.534321 0.000000
0.493623 0.527201 0.000000
0.502900 0.523550 0.000000
0.490744 0.536689 0.000000
0.303740 0.348241 0.000000
0.312638 0.354325 0.000000
0.302746 0.359450 0.000000
0.683727 0.548378 0.000000
0.666144 0.562133 0.000000
0.663581 0.542222 0.000000
0.366098 0.324774 0.000000
0.379406 0.309842 0.000000
0.251675 0.434611 0.000000
0.214900 0.437402 0.000000
0.581091 0.493223 0.000000
0.603283 0.484739 0.000000
0.593195 0.510449 0.000000
0.429738 0.356510 0.000000
0.412970 0.350726 0.000000
0.358920 0.356811 0.000000
0.352460 0.366146 0.000000
0.347463 0.357590 0.000000
0.353794 0.402394 0.000000
0.527483 0.436280 0.000000
0.546965 0.439869 0.000000
0.535210 0.453469 0.000000
0.624606 0.790385 0.000000
0.614250 0.755688 0.000000
0.654837 0.763041 0.000000
0.384960 0.332814 0.000000
0.619946 0.597007 0.000000
0.358705 0.265521 0.000000
0.397502 0.266486 0.000000
0.377869 0.228897 0.000000
0.471169 0.372235 0.000000
0.492664 0.362648 0.000000
0.488718 0.386734 0.000000
0.431288 0.062893 0.000000
0.512348 0.074893 0.000000
0.450325 0.128772 0.000000
0.515327 0.223180 0.000000
0.538419 0.183215 0.000000
0.367912 0.509419 0.000000
0.343175 0.515399 0.000000
0.351317 0.488263 0.000000
0.593186 0.193353 0.000000
0.476496 0.230456 0.000000
0.594140 0.256114 0.000000
0.629340 0.367381 0.000000
0.659922 0.374166 0.000000
0.641019 0.397588 0.000000
0.669525 0.412603 0.000000
0.510665 0.591750 0.000000
0.493263 0.584115 0.000000
0.507476 0.576852 0.000000
0.492575 0.790205 0.000000
0.516533 0.753914 0.000000
0.493265 0.606545 0.000000
0.794852 0.435952 0.000000
0.797754 0.379724 0.000000
0.755728 0.420083 0.000000
0.528549 0.642034 0.000000
0.507334 0.653897 0.000000
0.509532 0.626562 0.000000
0.580705 0.748031 0.000000
0.605192 0.727758 0.000000
0.748472 0.635779 0.000000
0.742539 0.660255 0.000000
0.323194 0.421808 0.000000
0.325468 0.445306 0.000000
0.301700 0.435431 0.000000
0.295276 0.460827 0.000000
0.622421 0.457821 0.000000
0.642814 0.468538 0.000000
0.320303 0.468200 0.000000
[...]
POINT_DATA 858
SCALARS UX float 1
LOOKUP_TABLE default
0.000000
-0.000000
-1.722180
-0.717273
1.026345
-2.065335
-0.000000
0.000000
-0.000000
-0.000000
-0.000000
0.000000
0.000000
0.000000
0.000000
-0.343287
-0.632391
-1.126554
-1.965007
-3.183155
-4.205670
-4.006995
-2.820258
-1.971069
-1.358814
-1.116261
-1.017815
-1.058444
-1.111890
-1.140331
-1.136595
-1.054801
-0.914310
-0.615734
-0.391496
0.115277
0.993802
2.249126
3.171281
2.799396
1.545438
0.668594
0.805530
0.899465
0.774640
0.598329
0.575940
0.455707
0.346375
0.441801
0.447696
0.344586
0.383146
0.452946
0.228209
0.297232
-0.183545
0.220160
-0.066171
-0.133388
0.087392
-0.022379
-0.345150
-0.496766
-0.333278
-0.227092
-0.340050
-0.683568
-0.241063
-0.604242
-0.760173
-0.561140
-0.608012
-0.838871
-0.888076
-1.067378
-1.081038
-1.036744
-1.132057
-1.106132
-1.042969
-1.003957
-1.384133
-1.487787
-1.313266
-1.514377
-1.309259
-1.462637
-1.667753
-1.678369
-1.664647
-1.608373
-1.779831
-1.929145
-1.959046
-0.483741
-0.555499
-0.509204
-0.606980
0.306608
0.454505
0.383258
-0.593778
-0.519725
-0.570458
-1.070729
-1.126221
-1.046409
-0.476848
-1.159978
-1.077542
-1.031380
-1.081893
-0.955818
1.181526
1.295623
1.969763
1.886701
2.413921
1.409958
-0.070465
-0.134889
-0.082759
-1.350013
-1.262255
-1.263089
0.020009
0.002148
-0.029950
-1.177344
-0.653612
-0.622603
-0.776947
-0.493889
-1.016288
-1.114338
-0.324298
-0.239875
-0.247800
-1.072027
-0.966118
-0.173596
-0.008925
0.035875
0.040008
0.895617
0.792517
0.893017
-2.183816
-2.120262
-2.293499
1.012757
0.767390
1.181489
-0.900524
-0.966555
-0.846571
-1.523088
-1.489255
-1.911811
-0.967623
-0.999079
-0.919552
-0.928731
-0.147912
-0.079964
0.094423
-0.214844
-0.277354
-2.353846
-2.299860
-0.168171
-0.627660
-0.639348
-0.503400
-0.739563
-2.410040
-2.447983
0.562036
0.663215
0.599341
-2.034699
-2.165198
-2.066345
0.650872
-0.846181
-0.912131
-0.873723
-2.270112
-1.116328
-1.094824
-1.041488
1.326220
1.270601
1.221486
1.219468
1.686023
-1.910256
-1.918410
-1.320304
-1.682678
-1.811417
-1.013532
-0.989174
-0.999604
-0.927094
-2.237945
-1.179227
1.303650
1.266944
1.201347
-2.270388
-2.429915
-1.954343
-1.591850
-1.343644
0.533958
0.948394
0.598894
-1.758170
-1.871597
-1.692247
-1.606805
-1.479820
-1.476569
-1.383063
-0.165348
-0.097784
-0.066440
-2.488428
-2.367235
0.733224
0.613369
0.736871
0.598868
-1.835139
0.115901
0.000980
0.083205
1.002287
0.752021
1.140044
1.690620
1.887367
1.601656
-0.695761
-0.778910
-0.676468
-0.751498
-0.394025
-0.330008
-0.414662
-0.339082
-0.564547
-0.672437
-2.327805
-2.299090
-2.207185
-0.516528
-0.426767
1.605254
1.891341
2.145527
0.159421
0.213147
0.285282
-3.362209
-2.988731
-3.232508
-3.051254
-0.639985
-0.671027
-0.853740
-1.602875
-1.552890
-1.702945
-2.334790
-2.453332
0.966642
-2.493433
-2.126726
-0.745318
-0.729407
-0.843810
-1.428920
-1.286048
-1.491813
-1.338436
-1.743460
-1.698797
-1.776581
1.013717
-0.114243
-0.047168
-0.064731
-0.092146
1.296448
1.320446
1.389441
-1.891853
-1.974215
-1.796272
0.180210
0.133257
1.371302
1.613107
-1.260533
-1.226136
-1.415106
-0.169837
-0.098177
0.129829
0.193875
0.207240
1.199802
-0.779477
-0.833717
-0.905113
-1.172445
-1.199497
-1.270059
0.066861
-2.129423
0.168887
0.075692
0.072571
-0.332333
-0.334568
-0.434140
-0.010977
0.012110
-0.000011
-0.039414
-0.013617
0.320856
0.319783
0.519295
-0.041286
-0.021054
-0.143394
-0.558064
-0.643327
-0.730644
-0.865768
-0.486730
-0.407645
-0.393171
-1.064242
-1.049636
-0.535573
-1.409625
-1.003168
-1.142619
-0.780015
-0.785795
-0.669426
-1.137696
-1.194690
-2.948313
-2.899228
1.106909
0.921504
1.076394
0.889757
-1.060807
-1.170395
0.750437
0.018871
-0.020948
0.005834
0.003678
2.382637
2.646222
2.633027
2.254801
0.125502
0.371402
-1.124869
-1.105984
-2.059183
-2.068550
0.776140
0.536953
0.343435
-0.009618
-0.110996
0.437800
0.298868
-0.442709
-0.585231
-0.648049
-0.457404
-0.935449
-0.947530
-0.222561
-0.983750
-1.459495
-2.430768
-0.399675
-0.204363
-0.519045
0.170524
0.197875
0.077339
-0.361600
-0.484799
-0.315867
0.337086
-1.167600
-0.402409
-0.350054
1.058492
0.223929
0.111306
-0.244187
-0.225563
-0.323862
-1.174849
-1.119973
-2.896376
-1.044825
-0.927060
-1.013248
-0.413394
-0.308144
-0.923483
-3.093264
-0.748805
-0.273636
-0.859656
-0.957357
-0.668336
-0.992165
0.032222
0.071151
0.008130
-0.221164
-0.132828
-1.048252
-0.972671
-0.402567
-0.011807
-0.076606
2.341090
2.181271
0.452003
-1.489684
-1.679771
-1.295263
1.071612
0.923272
-0.643727
-0.764515
-1.588927
-1.515926
-0.621507
-0.694297
-0.452781
-2.276442
0.725297
-1.537083
-1.463665
-1.658023
-1.110417
-1.285499
-0.034546
1.871617
1.720092
-0.028846
0.211559
0.040998
-0.017823
2.089469
0.129743
1.958204
0.164394
-0.214809
0.045192
-0.227055
-2.673257
-2.642490
-2.747672
-1.807966
-1.891822
0.107909
0.000393
-0.952319
-1.061068
-3.070021
-3.395563
0.177559
-1.811142
-2.150165
0.074959
0.007238
0.024572
-0.921756
-0.842112
0.805122
0.734449
0.645453
0.855385
-0.760841
-2.120149
-2.232400
-2.154063
1.075269
-1.529344
-1.847854
-1.237999
-1.330149
-0.111642
-0.032942
-3.600483
-3.520649
-3.940109
-3.516332
0.006845
0.356210
0.292380
-1.297220
-1.783489
-1.608948
-2.643575
-2.740104
-0.583298
-0.443644
-0.578292
-0.504862
-0.643206
-0.569386
-1.060871
-1.100565
-1.105249
-0.449438
-1.098815
-2.500747
-2.564466
0.723499
0.465996
0.563930
-0.707928
-0.665334
0.410718
-0.565826
1.421154
1.379581
1.612266
-1.187379
-1.176170
1.295032
1.154099
1.452505
-0.349643
-0.397474
-2.336865
-2.512097
-0.540941
-0.231129
-0.390757
-0.694054
-0.357636
-0.021503
-1.103421
-1.163248
0.630105
0.055212
-0.025223
-1.512529
-1.463003
-0.427373
-0.445898
-0.384968
-1.015586
-1.118859
-1.138753
-2.532688
0.040354
-0.885659
-0.995130
-0.950472
-0.025248
-0.031762
-0.143947
-0.166188
0.818648
-1.363102
-1.414106
-1.102391
-1.096722
0.481770
-0.631440
-0.688063
-0.647493
-1.866950
-1.740334
0.370666
0.266582
-0.447532
-0.259931
-0.279477
-1.008787
-1.104159
-0.066631
0.961400
-0.150038
-0.209245
-0.001360
-0.348361
-0.179025
-0.156934
-2.479337
-2.492160
-0.170887
-2.932631
1.347629
-0.781440
-0.857265
0.699729
0.568149
0.096042
1.507532
0.812422
1.148012
-1.831560
-1.405653
-1.601112
-1.235763
-2.776455
-1.052476
-0.463175
-0.447508
-0.533347
-0.176021
-0.196714
-0.522134
0.601659
0.647137
-0.748525
-0.838883
-0.816423
-0.604270
-0.543237
-0.886275
-0.953792
-0.697452
-0.806641
-0.864042
-0.556980
-0.366478
-0.511455
-0.382275
-0.350807
-1.973580
-1.959047
-0.727080
-1.483075
-1.372699
-1.250461
-0.097595
-0.077533
0.977065
-0.189268
-0.332586
-0.205787
-0.409167
-0.829916
-0.886156
0.980832
-0.398887
-0.383405
-0.182891
-1.097192
-2.346464
0.269116
0.390269
0.306653
-0.762467
0.340333
-0.830095
-0.802989
-0.088225
0.947995
1.047066
-0.254655
-0.163300
-0.314979
-0.280402
0.024348
-2.747525
-2.439468
1.099840
0.497615
1.358326
-0.013323
-1.711832
-1.852057
-2.518643
-2.389707
-1.091377
-2.335194
0.479275
0.459789
-0.342704
0.739773
-1.019305
-0.915246
-0.980453
0.028480
0.152127
-1.041104
-1.075553
0.888461
1.142139
-0.179692
-1.140716
0.496223
-0.859923
0.543845
0.278549
0.214661
0.279127
-1.069551
-0.256454
-0.253045
-0.256630
-0.903520
0.174079
0.349293
-0.007915
-2.256951
-0.034978
-1.283687
-1.272816
-1.269653
-1.369155
-1.170918
-1.936694
0.464122
0.380287
1.396016
-1.116137
-0.119720
-1.097871
-0.001121
-1.179689
1.358713
-1.135693
0.031168
0.024102
-0.074396
-0.182432
-0.939777
-0.772815
0.093342
-2.498808
0.252414
-0.294926
-0.177376
2.894596
-0.682900
-0.847961
-3.440256
-3.119579
0.383283
0.325363
0.439790
-1.085963
0.280693
-1.722145
-0.107012
-1.017031
-1.243488
-1.375723
1.855298
-0.400370
-1.399182
0.050155
-0.024621
-0.889365
-1.825059
-0.605365
-0.444639
-0.823847
-0.704086
-2.270637
-0.765827
1.394761
1.314331
1.341486
-1.665370
-0.458360
1.375863
-1.713862
-2.238146
-0.091361
-2.528293
-0.867552
1.408837
1.499468
-1.049913
1.313362
1.446827
0.643971
-0.268404
0.019526
0.096605
-0.528976
-0.538984
-2.049223
0.475853
0.507280
-0.633244
-0.949963
1.033383
-0.162810
-0.260826
-1.279063
-1.192862
0.196912
0.282872
0.512349
-0.653367
0.904717
-2.282832
-0.305533
-1.911493
-1.582717
-1.495068
-1.578701
-1.544041
-1.281836
-1.169527
0.075586
-0.673355
-0.837861
-0.729646
0.681154
-0.328016
-0.289979
-0.424179
1.268050
0.493853
0.382261
-1.964209
-1.402061
-0.427989
-1.295889
-1.069473
0.000926
0.050019
-1.465042
-1.647093
-0.371761
0.205040
0.276104
-1.235168
-1.180460
SCALARS UY float 1
LOOKUP_TABLE default
0.000000
0.000000
13.600000
13.600000
2.326080
11.251215
0.000000
0.000000
0.000000
0.000000
0.000000
0.000000
0.000000
0.000000
0.000000
0.807176
1.612409
2.577820
3.916285
5.493194
7.071778
8.576898
10.310615
12.030656
13.600000
13.600000
13.600000
13.600000
13.600000
13.600000
13.600000
13.600000
13.600000
12.801094
11.946419
10.859087
9.480507
7.894909
6.295011
4.852746
3.157912
1.483801
3.250479
3.047764
3.398720
3.147955
3.450133
3.980947
3.898447
3.669981
3.745338
4.272824
4.952846
4.091509
4.663409
5.047777
6.361391
4.734084
5.772986
6.040859
5.450257
5.241637
6.377804
6.556630
6.101752
6.186717
6.494050
7.001757
5.304341
6.589212
7.507982
7.227356
7.267563
6.684811
7.078195
7.889912
7.693027
8.076522
8.580676
6.238299
9.689171
9.081481
9.724711
9.083425
8.735313
9.748593
9.747174
9.811139
10.153468
10.437961
10.292876
10.626264
11.115692
10.747339
10.747113
12.659212
12.758252
12.937619
13.000972
1.149065
1.423656
0.964601
0.904439
0.865805
0.654727
13.332433
13.443262
13.230586
0.600047
0.927358
0.844819
0.852127
13.327725
0.765851
9.423704
9.460454
7.893789
8.430293
6.846426
9.217751
0.243666
0.293309
0.262491
12.992071
13.157056
13.042425
0.146529
0.249057
0.341390
13.166195
0.642712
0.702908
0.774754
0.570511
0.788326
0.866367
0.547656
0.556750
0.434694
0.846038
0.756771
0.465353
12.603518
12.645561
12.465533
10.529367
10.720207
11.319624
3.948151
3.986594
3.007006
10.132854
10.558567
9.657987
1.003456
1.216090
1.741775
2.319145
2.494025
3.131478
13.312911
13.325570
13.254279
0.866929
0.324566
0.288409
12.421876
0.777785
0.738090
3.406815
3.027720
0.624446
13.089192
13.033259
12.984918
13.130535
3.558282
4.256632
12.074124
11.897470
11.729583
2.130127
2.489352
2.418918
11.260035
12.875736
12.957569
13.046575
3.216123
0.944005
1.082820
0.869462
9.287724
9.949922
9.747954
9.567055
8.793839
1.906577
2.077242
2.524809
3.168511
3.230508
0.974201
12.395744
12.935153
12.738811
2.668927
1.176506
10.018378
10.176788
10.519663
7.046365
5.957697
11.762731
12.724867
12.870017
10.644505
10.061197
10.699913
12.255110
12.042617
12.523528
12.602599
1.472397
2.233887
2.081705
1.068638
0.885500
0.649073
4.197064
5.344737
11.734777
12.077957
11.876332
12.043703
3.166632
12.607137
12.751902
12.682225
9.690973
9.590638
10.646812
8.138444
7.155188
8.110835
13.008268
13.142981
13.115833
13.178097
0.535314
0.451464
0.478920
0.419189
13.077843
13.157291
3.839343
3.350379
3.275106
0.515795
0.445391
3.489301
4.595914
4.987021
0.398767
0.499083
0.568730
8.217102
9.318769
7.494265
8.455082
12.774583
12.155385
11.996456
1.374400
1.391057
1.534221
7.760886
6.386849
9.884088
4.338721
3.914437
0.647601
0.593683
0.703793
1.358123
1.354138
1.634682
1.650466
1.964627
1.586001
1.654147
10.004669
12.507128
12.469829
12.020479
12.701097
6.191339
7.101976
7.223331
2.569223
2.448593
2.168506
0.534145
0.418026
9.186093
8.625573
1.039813
1.132836
1.203452
0.389653
0.414182
0.844190
1.423199
1.136086
10.455071
0.630531
0.691138
0.710327
13.316218
13.301839
13.135824
0.459628
3.296686
0.418651
0.277629
0.280312
0.393717
0.389850
0.434069
0.061753
0.074608
0.108423
0.221095
0.199515
12.123493
11.912233
11.798681
0.296155
0.196907
0.417300
0.842876
1.034920
1.020223
1.276994
13.068439
13.030326
13.001222
13.400308
13.378128
13.099699
2.524623
1.995315
2.015294
13.212973
13.219354
13.167514
13.358660
13.283346
7.034674
8.547659
10.489477
10.950418
10.293866
10.641867
1.151078
1.368764
11.175582
0.156270
0.138638
0.146832
0.167257
5.353965
5.611109
7.141800
6.460051
11.449648
11.243814
13.531145
13.450819
2.847351
3.106556
10.693830
11.117774
10.772487
11.458871
11.349596
10.457255
0.677455
12.472513
12.716728
12.671828
12.639619
12.411406
12.255548
11.652209
2.237204
2.997288
4.077307
12.067242
11.899344
12.085863
0.525775
0.739694
0.397523
12.744605
12.788459
12.581532
0.950608
2.418654
0.659432
0.779512
10.927049
0.720582
0.607909
0.349600
0.356073
0.401313
13.230474
13.389267
5.846008
13.314789
13.143506
13.314119
13.020497
12.968883
13.220093
6.203679
1.750527
12.931474
1.612642
1.602106
1.233747
13.172820
0.250944
0.512723
0.278438
0.340718
0.488901
13.269099
13.043436
0.875240
0.285255
0.489142
4.319681
4.334647
1.051354
12.637936
12.053872
12.917854
11.112907
11.312371
13.139799
13.190158
1.924457
2.067268
12.344868
12.593635
12.315222
3.958763
11.496029
12.798127
12.880487
12.440264
1.485979
1.837152
0.244529
6.218349
5.108195
0.078783
0.881137
0.378657
0.302569
6.135175
12.234512
7.435408
12.399248
12.074702
11.808857
12.309797
5.950244
5.304414
7.480161
2.230765
1.986676
12.646712
12.734009
13.077094
13.069144
5.665486
6.983917
12.594423
2.673271
3.510626
12.046468
0.177770
0.193825
12.974635
12.932375
11.633605
11.826062
11.829755
11.653881
12.911679
2.391373
2.709673
2.745636
9.630930
3.028231
1.751147
12.524983
12.517524
0.501932
0.475306
8.013715
6.570715
7.591435
5.978332
0.132950
0.779549
0.622590
13.167737
1.745970
1.561144
9.477354
9.637205
13.121925
12.984723
0.520574
0.475693
0.610108
0.500733
13.502223
13.472361
13.369881
0.455721
13.540280
5.355736
5.992742
1.354087
0.891293
1.005772
0.615425
0.566219
0.770676
0.536687
7.667820
8.231007
7.021753
12.564653
12.864102
9.357216
9.885515
5.983349
12.882050
12.856078
3.973470
4.555241
12.911256
12.844581
12.963682
12.660969
11.133037
12.209793
12.916387
13.068779
11.154946
1.725636
1.160947
12.516759
12.829084
12.590683
12.843533
12.813926
1.528644
13.424974
13.388729
7.746210
0.751260
13.155725
13.171232
13.214138
12.490723
12.350959
12.377786
0.307968
11.563211
12.815634
12.353533
13.434356
13.465952
0.965772
0.735964
0.767346
0.957139
2.963448
2.994958
11.609192
11.595365
0.856560
0.602751
0.734425
1.267808
12.520248
12.774035
11.291074
0.607515
12.726711
12.606150
0.456330
12.548776
12.829903
4.888410
4.601975
0.386483
5.101623
8.657040
0.706515
13.231442
1.735140
1.560415
0.651256
2.964425
1.905556
10.804493
11.828452
12.611669
12.171474
12.924773
10.385326
1.587008
0.826668
11.864757
12.009401
12.763516
12.556067
13.061377
1.525539
1.448078
0.753504
0.796911
0.978072
1.573451
1.481905
0.937085
0.874277
0.852149
13.068869
0.682947
1.513891
0.542155
0.684138
0.655946
12.536035
2.326479
2.009316
1.044252
1.226581
1.112459
12.880122
12.825770
12.804362
2.306011
12.882188
0.921220
0.770564
1.159281
12.755112
0.769801
2.344677
11.842653
11.508386
12.884315
13.381923
9.449365
12.407075
12.314879
12.456544
12.832754
12.236577
1.621523
13.052724
0.342567
11.434508
11.056107
12.791780
0.342876
12.732685
12.470536
0.568570
5.064220
4.242133
2.477343
1.434785
2.791093
0.381241
1.852445
11.718963
10.651639
10.732394
13.171740
4.060819
12.053961
12.179077
12.904807
11.014191
13.305333
13.275004
13.264939
12.659044
12.551839
13.234231
13.284781
9.794266
10.627987
1.257730
13.249035
12.210943
13.225139
11.546977
11.521891
11.569997
12.251721
13.396321
0.384482
0.421826
0.499755
13.277391
12.267492
12.183346
0.218154
4.560439
0.266066
1.888780
1.966894
1.189075
1.344671
2.007174
11.858545
12.285354
12.366008
8.624239
0.959545
12.807039
13.329828
0.155592
13.115105
9.220244
13.230202
0.215468
0.281914
0.412126
0.577672
13.130556
12.954390
0.339298
4.792152
0.868519
0.939642
0.745340
5.616935
12.469288
12.751428
9.139897
9.390449
11.246765
11.463453
12.052715
13.354789
0.969321
2.267921
0.297995
13.336735
2.001635
12.633062
3.807377
11.849736
12.999019
0.355687
0.307501
12.373082
11.893903
1.358803
0.491285
13.157724
13.038634
10.842230
1.680288
8.911449
9.171719
9.621164
12.243174
1.006189
8.442382
2.457544
10.930321
12.739099
5.079770
1.075694
3.218667
3.549705
1.003389
4.846161
3.989995
10.649788
1.278854
1.070043
1.191580
1.387289
12.131600
2.391464
12.182087
11.844691
12.879255
0.790197
2.332911
11.827827
11.842882
1.011931
0.930610
12.482443
12.430913
1.303313
0.560680
10.360332
10.833981
12.941672
3.177372
1.630881
1.325783
1.378580
2.686170
2.242847
0.941652
11.207554
2.018765
12.126312
2.546170
1.328089
10.936008
1.382648
1.760074
7.585652
10.913126
10.746654
3.697836
1.161260
1.331829
1.053919
1.732873
11.710951
11.942539
11.819788
2.282130
1.405790
12.563092
12.494016
1.001321
1.457185
SCALARS DAMAGE float 1
LOOKUP_TABLE default
0.157529
0.266344
0.145844
0.259021
0.000000
0.000000
0.206477
0.306565
0.430188
0.525650
0.569105
0.555185
0.486633
0.395767
0.311307
0.260393
0.231848
0.189198
0.149334
0.122098
0.112178
0.110330
0.121545
0.139217
0.186692
0.282174
0.411254
0.512792
0.556814
0.539495
0.472365
0.378285
0.297285
0.250924
0.221352
0.180918
0.144959
0.119267
0.112277
0.113397
0.127619
0.144909
-0.000000
0.000000
0.000000
0.000000
0.000000
0.000000
0.000000
0.000000
0.000000
0.000000
0.000000
0.000000
0.000000
0.000000
0.000000
0.000000
0.000000
0.000000
0.000000
0.000000
0.000000
0.000000
0.000000
0.000000
0.000000
0.000000
0.000000
0.000000
0.000000
0.000000
0.000000
0.000000
0.000000
0.000000
0.000000
0.000000
0.000000
0.000000
0.000000
0.000000
0.000000
0.000000
0.000000
0.000000
0.000000
0.000000
0.000000
0.000000
0.000000
0.000000
0.000000
0.000000
-0.000000
0.064580
0.073426
0.108256
0.119501
0.042053
0.029005
0.068825
0.066115
0.066496
0.107095
0.498436
0.516283
0.466089
0.116014
0.168289
0.168776
0.200044
0.458600
0.196308
0.020075
0.021794
0.086625
0.103166
0.084786
0.111051
0.438549
0.397398
0.380895
0.162661
0.225283
0.162376
0.516531
0.471859
0.483906
0.210594
0.287061
0.315377
0.276699
0.332553
0.162387
0.142124
0.127643
0.125050
0.183967
0.130851
0.148968
0.166337
0.087446
0.101318
0.074221
0.024346
0.024853
0.045231
0.019396
0.017941
0.041386
0.127386
0.153410
0.117658
0.074144
0.059619
0.034604
0.191217
0.191397
0.148002
0.401396
0.441933
0.413724
0.096922
0.425377
0.473609
0.070271
0.077637
0.081446
0.037030
0.061060
0.106936
0.318962
0.346117
0.303955
0.359507
0.048144
0.022259
0.070923
0.061632
0.046684
0.075488
0.051563
0.043249
0.030567
0.084486
0.105040
0.128773
0.027769
0.104912
0.076582
0.112377
0.062088
0.061362
0.082451
0.127012
0.117440
0.091866
0.111363
0.195208
0.161825
0.156029
0.085106
0.042865
0.099964
0.068739
0.053695
0.070804
0.041010
0.037456
0.060810
0.012520
0.017802
0.141107
0.157508
0.202492
0.169139
0.140541
0.168943
0.049528
0.048910
0.112849
0.089396
0.058788
0.028070
0.029316
0.046387
0.065972
0.103051
0.035761
0.015507
0.053180
0.088418
0.082338
0.118246
0.154701
0.104221
0.140789
0.136474
0.020288
0.018477
0.039636
0.080491
0.069086
0.073122
0.115300
0.175825
0.167634
0.210585
0.137441
0.178396
0.169429
0.210252
0.161628
0.211532
0.080378
0.073589
0.098503
0.160635
0.206189
0.089074
0.067912
0.073291
0.264252
0.208794
0.209847
0.075560
0.076533
0.067640
0.064977
0.071671
0.035288
0.027718
0.104934
0.136811
0.107829
0.018669
0.029900
0.141503
0.124350
0.141261
0.138045
0.183759
0.135307
0.171564
0.208171
0.180807
0.212977
0.044967
0.066323
0.072200
0.134053
0.068731
0.069414
0.041039
0.097526
0.020707
0.017608
0.032763
0.138412
0.118816
0.144005
0.174563
0.232584
0.097934
0.092725
0.164761
0.198793
0.147558
0.217927
0.201396
0.073430
0.029735
0.042742
0.040452
0.204994
0.221687
0.182256
0.373550
0.338342
0.296995
0.191155
0.023836
0.290145
0.340240
0.372262
0.250229
0.294413
0.247037
0.537304
0.561140
0.522973
0.480980
0.513867
0.189784
0.202825
0.166669
0.499660
0.458104
0.456711
0.350002
0.333114
0.316227
0.292859
0.184382
0.195150
0.157785
0.475067
0.429404
0.237879
0.193850
0.235922
0.232749
0.256257
0.302333
0.253222
0.366144
0.304775
0.062346
0.059673
0.089666
0.118144
0.108068
0.134591
0.245856
0.234928
0.145593
0.539471
0.480136
0.486898
0.465491
0.079236
0.090669
0.102606
0.073840
0.221629
0.198277
0.548221
0.528233
0.115778
0.121844
0.150409
0.180092
0.176432
0.223323