# vtk DataFile Version 2.0
Test
ASCII
DATASET POLYDATA
POINTS 858 float
0.000000 0.000000 0.000000
1.000000 0.000000 0.000000
1.000000 1.000000 0.000000
0.000000 1.000000 0.000000
0.300000 0.330000 0.000000
0.700000 0.680000 0.000000
0.100000 0.000000 0.000000
0.200000 0.000000 0.000000
0.300000 0.000000 0.000000
0.400000 0.000000 0.000000
0.500000 0.000000 0.000000
0.600000 0.000000 0.000000
0.700000 0.000000 0.000000
0.800000 0.000000 0.000000
0.900000 0.000000 0.000000
1.000000 0.100000 0.000000
1.000000 0.200000 0.000000
1.000000 0.300000 0.000000
1.000000 0.400000 0.000000
1.000000 0.500000 0.000000
1.000000 0.600000 0.000000
1.000000 0.700000 0.000000
1.000000 0.800000 0.000000
1.000000 0.900000 0.000000
0.900000 1.000000 0.000000
0.800000 1.000000 0.000000
0.700000 1.000000 0.000000
0.600000 1.000000 0.000000
0.500000 1.000000 0.000000
0.400000 1.000000 0.000000
0.300000 1.000000 0.000000
0.200000 1.000000 0.000000
0.100000 1.000000 0.000000
0.000000 0.900000 0.000000
0.000000 0.800000 0.000000
0.000000 0.700000 0.000000
0.000000 0.600000 0.000000
0.000000 0.500000 0.000000
0.000000 0.400000 0.000000
0.000000 0.300000 0.000000
0.000000 0.200000 0.000000
0.000000 0.100000 0.000000
0.307407 0.336481 0.000000
0.314815 0.342963 0.000000
0.322222 0.349444 0.000000
0.329630 0.355926 0.000000
0.337037 0.362407 0.000000
0.344444 0.368889 0.000000
0.351852 0.375370 0.000000
0.359259 0.381852 0.000000
0.366667 0.388333 0.000000
0.374074 0.394815 0.000000
0.381481 0.401296 0.000000
0.388889 0.407778 0.000000
0.396296 0.414259 0.000000
0.403704 0.420741 0.000000
0.411111 0.427222 0.000000
0.418519 0.433704 0.000000
0.425926 0.440185 0.000000
0.433333 0.446667 0.000000
0.440741 0.453148 0.000000
0.448148 0.459630 0.000000
0.455556 0.466111 0.000000
0.462963 0.472593 0.000000
0.470370 0.479074 0.000000
0.477778 0.485556 0.000000
0.485185 0.492037 0.000000
0.492593 0.498519 0.000000
0.500000 0.505000 0.000000
0.507407 0.511481 0.000000
0.514815 0.517963 0.000000
0.522222 0.524444 0.000000
0.529630 0.530926 0.000000
0.537037 0.537407 0.000000
0.544444 0.543889 0.000000
0.551852 0.550370 0.000000
0.559259 0.556852 0.000000
0.566667 0.563333 0.000000
0.574074 0.569815 0.000000
0.581481 0.576296 0.000000
0.588889 0.582778 0.000000
0.596296 0.589259 0.000000
0.603704 0.595741 0.000000
0.611111 0.602222 0.000000
0.618519 0.608704 0.000000
0.625926 0.615185 0.000000
0.633333 0.621667 0.000000
0.640741 0.628148 0.000000
0.648148 0.634630 0.000000
0.655556 0.641111 0.000000
0.662963 0.647593 0.000000
0.670370 0.654074 0.000000
0.677778 0.660556 0.000000
0.685185 0.667037 0.000000
0.692593 0.673519 0.000000
0.548037 0.570873 0.000000
0.554453 0.579695 0.000000
0.540788 0.582045 0.000000
0.550492 0.594703 0.000000
0.338797 0.350505 0.000000
0.329823 0.347064 0.000000
0.335712 0.339262 0.000000
0.451687 0.438509 0.000000
0.442642 0.430741 0.000000
0.457884 0.427703 0.000000
0.387297 0.847474 0.000000
0.374793 0.914734 0.000000
0.332869 0.847471 0.000000
0.447069 0.415163 0.000000
0.567391 0.482596 0.000000
0.554659 0.473874 0.000000
0.567453 0.464800 0.000000
0.301190 0.902112 0.000000
0.551747 0.457138 0.000000
0.356532 0.391813 0.000000
0.347986 0.386048 0.000000
0.176207 0.429241 0.000000
0.128375 0.468105 0.000000
0.136378 0.404291 0.000000
0.185621 0.475277 0.000000
0.497512 0.261165 0.000000
0.499167 0.296032 0.000000
0.469918 0.291504 0.000000
0.642232 0.687989 0.000000
0.624295 0.701188 0.000000
0.630549 0.678643 0.000000
0.647682 0.074905 0.000000
0.700945 0.096046 0.000000
0.657288 0.160421 0.000000
0.611443 0.684403 0.000000
0.559779 0.406431 0.000000
0.582162 0.394521 0.000000
0.580552 0.422827 0.000000
0.560788 0.374759 0.000000
0.541503 0.468043 0.000000
0.545465 0.480978 0.000000
0.428301 0.394826 0.000000
0.414860 0.384611 0.000000
0.432086 0.374027 0.000000
0.533961 0.477886 0.000000
0.527361 0.464336 0.000000
0.415481 0.368142 0.000000
0.484401 0.527206 0.000000
0.472984 0.524144 0.000000
0.481205 0.518972 0.000000
0.394266 0.424909 0.000000
0.401826 0.431399 0.000000
0.392742 0.434502 0.000000
0.642418 0.617836 0.000000
0.635302 0.612878 0.000000
0.644322 0.605726 0.000000
0.263646 0.464175 0.000000
0.250486 0.498376 0.000000
0.230296 0.467342 0.000000
0.491693 0.468898 0.000000
0.498004 0.479972 0.000000
0.487381 0.480785 0.000000
0.718619 0.489140 0.000000
0.756680 0.466072 0.000000
0.751564 0.516847 0.000000
0.497232 0.719177 0.000000
0.477497 0.748035 0.000000
0.465924 0.716726 0.000000
0.501292 0.467390 0.000000
0.529064 0.285755 0.000000
0.547173 0.240449 0.000000
0.474742 0.511943 0.000000
0.403118 0.392815 0.000000
0.412434 0.399392 0.000000
0.653057 0.614785 0.000000
0.659187 0.602396 0.000000
0.400247 0.379451 0.000000
0.459133 0.636583 0.000000
0.434636 0.647284 0.000000
0.440667 0.616932 0.000000
0.453650 0.664799 0.000000
0.666296 0.616100 0.000000
0.657731 0.628197 0.000000
0.420489 0.468863 0.000000
0.414183 0.459489 0.000000
0.424065 0.460120 0.000000
0.629321 0.574616 0.000000
0.630370 0.589442 0.000000
0.617226 0.584388 0.000000
0.422026 0.450877 0.000000
0.590180 0.614274 0.000000
0.596278 0.627413 0.000000
0.585881 0.628067 0.000000
0.630677 0.603443 0.000000
0.529117 0.486095 0.000000
0.517046 0.488781 0.000000
0.522040 0.477224 0.000000
0.308641 0.392803 0.000000
0.323746 0.398675 0.000000
0.304273 0.411173 0.000000
0.146020 0.514086 0.000000
0.087335 0.505198 0.000000
0.624982 0.561914 0.000000
0.643811 0.559907 0.000000
0.831909 0.406061 0.000000
0.881376 0.423788 0.000000
0.839177 0.457573 0.000000
0.509066 0.478681 0.000000
0.614792 0.620247 0.000000
0.608406 0.635616 0.000000
0.603251 0.619643 0.000000
0.640290 0.595050 0.000000
0.524731 0.497540 0.000000
0.338689 0.392113 0.000000
0.347423 0.395876 0.000000
0.340116 0.407012 0.000000
0.686563 0.659098 0.000000
0.682555 0.651347 0.000000
0.934704 0.856355 0.000000
0.940546 0.930926 0.000000
0.863552 0.916423 0.000000
0.172107 0.566287 0.000000
0.188105 0.516551 0.000000
0.221330 0.532895 0.000000
0.683914 0.680068 0.000000
0.692945 0.685712 0.000000
0.683376 0.697853 0.000000
0.672414 0.683990 0.000000
0.557147 0.529227 0.000000
0.554161 0.540325 0.000000
0.546244 0.533101 0.000000
0.391911 0.394487 0.000000
0.387591 0.383772 0.000000
0.385780 0.368800 0.000000
0.671617 0.628861 0.000000
0.664093 0.637808 0.000000
0.408700 0.450928 0.000000
0.406517 0.467364 0.000000
0.394366 0.455525 0.000000
0.388841 0.472148 0.000000
0.792728 0.486062 0.000000
0.461047 0.516036 0.000000
0.460182 0.532753 0.000000
0.450617 0.523703 0.000000
0.364207 0.398120 0.000000
0.371344 0.402923 0.000000
0.362621 0.408449 0.000000
0.235276 0.413110 0.000000
0.235915 0.390376 0.000000
0.260894 0.399649 0.000000
0.564107 0.604249 0.000000
0.558497 0.625526 0.000000
0.545610 0.611482 0.000000
0.542035 0.628852 0.000000
0.441269 0.401429 0.000000
0.443649 0.385779 0.000000
0.454140 0.398188 0.000000
0.456246 0.380948 0.000000
0.531090 0.597071 0.000000
0.528592 0.618783 0.000000
0.693800 0.600685 0.000000
0.675646 0.601117 0.000000
0.688895 0.583493 0.000000
0.466943 0.412411 0.000000
0.469666 0.393398 0.000000
0.215629 0.311290 0.000000
0.236374 0.342186 0.000000
0.194357 0.347185 0.000000
0.372859 0.289727 0.000000
0.362694 0.307734 0.000000
0.346245 0.295576 0.000000
0.824768 0.656091 0.000000
0.787989 0.680173 0.000000
0.787481 0.637866 0.000000
0.763354 0.658567 0.000000
0.564845 0.587843 0.000000
0.565674 0.575091 0.000000
0.575285 0.580662 0.000000
0.591463 0.532694 0.000000
0.606735 0.524365 0.000000
0.606700 0.541268 0.000000
0.696107 0.663701 0.000000
0.695223 0.651919 0.000000
0.114270 0.553146 0.000000
0.897846 0.490106 0.000000
0.941355 0.438159 0.000000
0.491870 0.442127 0.000000
0.508682 0.433741 0.000000
0.504276 0.453072 0.000000
0.616608 0.507977 0.000000
0.629719 0.487283 0.000000
0.643435 0.510566 0.000000
0.660659 0.486926 0.000000
0.584650 0.557787 0.000000
0.582076 0.545531 0.000000
0.595086 0.552412 0.000000
0.215445 0.494211 0.000000
0.502563 0.534321 0.000000
0.493623 0.527201 0.000000
0.502900 0.523550 0.000000
0.490744 0.536689 0.000000
0.303740 0.348241 0.000000
0.312638 0.354325 0.000000
0.302746 0.359450 0.000000
0.683727 0.548378 0.000000
0.666144 0.562133 0.000000
0.663581 0.542222 0.000000
0.366098 0.324774 0.000000
0.379406 0.309842 0.000000
0.251675 0.434611 0.000000
0.214900 0.437402 0.000000
0.581091 0.493223 0.000000
0.603283 0.484739 0.000000
0.593195 0.510449 0.000000
0.429738 0.356510 0.000000
0.412970 0.350726 0.000000
0.358920 0.356811 0.000000
0.352460 0.366146 0.000000
0.347463 0.357590 0.000000
0.353794 0.402394 0.000000
0.527483 0.436280 0.000000
0.546965 0.439869 0.000000
0.535210 0.453469 0.000000
0.624606 0.790385 0.000000
0.614250 0.755688 0.000000
0.654837 0.763041 0.000000
0.384960 0.332814 0.000000
0.619946 0.597007 0.000000
0.358705 0.265521 0.000000
0.397502 0.266486 0.000000
0.377869 0.228897 0.000000
0.471169 0.372235 0.000000
0.492664 0.362648 0.000000
0.488718 0.386734 0.000000
0.431288 0.062893 0.000000
0.512348 0.074893 0.000000
0.450325 0.128772 0.000000
0.515327 0.223180 0.000000
0.538419 0.183215 0.000000
0.367912 0.509419 0.000000
0.343175 0.515399 0.000000
0.351317 0.488263 0.000000
0.593186 0.193353 0.000000
0.476496 0.230456 0.000000
0.594140 0.256114 0.000000
0.629340 0.367381 0.000000
0.659922 0.374166 0.000000
0.641019 0.397588 0.000000
0.669525 0.412603 0.000000
0.510665 0.591750 0.000000
0.493263 0.584115 0.000000
0.507476 0.576852 0.000000
0.492575 0.790205 0.000000
0.516533 0.753914 0.000000
0.493265 0.606545 0.000000
0.794852 0.435952 0.000000
0.797754 0.379724 0.000000
0.755728 0.420083 0.000000
0.528549 0.642034 0.000000
0.507334 0.653897 0.000000
0.509532 0.626562 0.000000
0.580705 0.748031 0.000000
0.605192 0.727758 0.000000
0.748472 0.635779 0.000000
0.742539 0.660255 0.000000
0.323194 0.421808 0.000000
0.325468 0.445306 0.000000
0.301700 0.435431 0.000000
0.295276 0.460827 0.000000
0.622421 0.457821 0.000000
0.642814 0.468538 0.000000
0.320303 0.468200 0.000000
[...]
POINT_DATA 858
SCALARS UX float 1
LOOKUP_TABLE default
-0.000000
0.000000
0.052284
-0.070555
-0.034840
0.031453
0.000000
-0.000000
-0.000000
-0.000000
-0.000000
0.000000
0.000000
0.000000
-0.000000
0.029587
0.047090
0.058868
0.067839
0.073551
0.073962
0.068577
0.060294
0.054242
0.039171
0.026288
0.014330
0.003598
-0.007674
-0.019742
-0.032302
-0.045209
-0.057943
-0.071486
-0.073764
-0.077315
-0.080789
-0.082179
-0.078155
-0.067280
-0.050619
-0.031280
-0.033362
-0.031466
-0.029669
-0.029965
-0.028017
-0.025950
-0.026369
-0.025070
-0.023645
-0.022272
-0.023158
-0.021446
-0.020266
-0.018561
-0.018227
-0.016728
-0.016256
-0.015072
-0.013197
-0.012926
-0.011075
-0.010648
-0.009472
-0.007391
-0.006383
-0.006740
-0.004394
-0.003680
-0.001979
-0.000784
0.001421
0.001137
0.003259
0.004804
0.004940
0.007027
0.008953
0.009583
0.009346
0.010299
0.012475
0.013362
0.014355
0.016505
0.017735
0.018660
0.019238
0.021853
0.022504
0.023740
0.026556
0.026371
0.029347
-0.020917
-0.019736
-0.021688
-0.019272
-0.013540
-0.018294
-0.013914
0.012631
0.010746
0.013047
-0.022764
-0.023239
-0.029842
0.010699
0.027600
0.025815
0.025815
-0.032960
0.023889
-0.042546
-0.044584
-0.061336
-0.067346
-0.063857
-0.061324
0.001814
0.003854
0.000622
0.006135
0.004493
0.002526
0.003461
0.006959
0.009195
0.000166
0.019255
0.020085
0.022626
0.016276
0.024286
0.025825
0.006620
0.004052
0.004626
0.024660
0.022905
0.002310
-0.032298
-0.033696
-0.032925
-0.039658
-0.039308
-0.043318
0.037015
0.034634
0.040831
-0.053394
-0.054093
-0.056670
0.019791
0.020603
0.015722
0.041034
0.043758
0.046233
-0.012797
-0.013867
-0.017096
0.021019
0.006093
0.005279
-0.033696
0.002810
0.004599
0.041402
0.042461
0.001864
-0.024006
-0.025851
-0.027720
-0.022249
0.043137
0.040123
-0.041201
-0.041866
-0.040031
0.039135
0.039304
0.037355
-0.039020
-0.011796
-0.009772
-0.011200
0.037897
0.024850
0.023429
0.023613
-0.049980
-0.049183
-0.050383
-0.065530
-0.072233
0.038233
0.039335
0.048375
0.055750
0.052896
0.022416
-0.005034
-0.007070
-0.008656
0.040503
0.024603
-0.047712
-0.046789
-0.048235
0.038100
0.040632
0.047748
0.045311
0.035405
-0.061327
-0.060657
-0.056430
0.017684
0.022867
0.018038
0.012786
0.029575
0.025850
0.024814
0.000117
-0.000389
-0.000913
0.043258
0.037406
-0.042571
-0.042651
-0.044097
-0.043690
0.049146
-0.035259
-0.034083
-0.035525
-0.040903
-0.038207
-0.045812
-0.055624
-0.054595
-0.053404
-0.016545
-0.014713
-0.017783
-0.016023
0.008636
0.007094
0.009505
0.007652
-0.021075
-0.018635
0.044559
0.043444
0.043633
0.012349
0.010300
-0.043908
-0.048863
-0.052763
-0.010957
-0.011541
-0.015015
0.052395
0.046181
0.051072
0.047430
-0.017598
-0.014911
-0.010386
0.033880
0.034264
0.035720
0.040833
0.043549
-0.068579
0.061545
0.063826
0.017723
0.018175
0.019987
0.033490
0.032664
0.035651
0.035202
0.033109
0.033774
0.035534
-0.057970
-0.029370
-0.030848
-0.028198
-0.030973
-0.045340
-0.044465
-0.048212
0.041338
0.040923
0.039457
-0.009331
-0.008822
-0.054637
-0.057981
0.029613
0.030384
0.032064
0.002271
-0.000113
-0.006969
-0.012284
-0.010499
-0.046512
0.019878
0.021717
0.022330
0.007338
0.005725
0.011649
-0.005637
0.034852
-0.012873
-0.008284
-0.009751
0.007965
0.008876
0.011153
-0.001653
-0.000209
-0.002722
0.002000
0.002463
-0.042693
-0.044359
-0.045173
0.006614
-0.001028
0.010254
0.022228
0.025982
0.025998
0.030161
-0.023614
-0.026066
-0.025622
-0.010278
-0.008289
-0.023518
0.046169
0.042114
0.040348
-0.015843
-0.016921
-0.019652
0.000509
0.003374
0.048680
0.046211
-0.049229
-0.048665
-0.050498
-0.050570
0.029438
0.032128
-0.048376
0.002786
-0.004593
-0.003874
-0.005869
-0.057346
-0.063044
-0.072099
-0.058272
-0.052588
-0.051461
-0.013230
-0.014470
0.042411
0.043553
-0.051623
-0.050596
-0.066045
-0.056561
-0.066840
-0.073251
-0.017356
-0.039540
-0.034879
-0.037249
-0.035772
-0.006873
-0.005241
-0.059106
0.049827
0.058078
0.044446
-0.050613
-0.049587
-0.058830
-0.014586
-0.016653
-0.011686
-0.033471
-0.032462
-0.036491
-0.019715
0.049363
0.008458
0.006583
-0.048160
-0.009442
-0.006263
0.006635
0.007372
0.009699
0.011225
0.006292
0.050282
-0.019757
-0.024926
-0.016924
-0.027003
-0.028676
-0.019831
0.052694
0.041024
-0.028284
0.035764
0.034891
0.029579
-0.027131
-0.008545
-0.012443
-0.008507
0.004854
0.012987
-0.041619
-0.038980
0.007372
0.008810
0.014197
-0.057659
-0.054121
-0.021418
0.018418
0.025983
0.016533
-0.047148
-0.047352
-0.021775
-0.019359
0.037738
0.038641
-0.050356
-0.041835
-0.043914
0.055011
-0.046772
0.013082
0.014481
0.019792
0.033154
0.036858
-0.006258
-0.052364
-0.049418
-0.002148
-0.017552
-0.007840
-0.006615
-0.054432
-0.041362
-0.057271
-0.039898
-0.045512
-0.046914
-0.040989
0.047135
0.047873
0.046520
0.033590
0.035893
-0.036727
-0.035109
-0.008778
-0.005047
0.055550
0.055264
-0.036859
0.042351
0.045904
-0.043422
-0.003849
-0.006517
-0.035279
-0.032800
-0.046018
-0.044952
-0.045087
-0.045128
-0.031145
0.040583
0.041501
0.042066
-0.074421
0.025199
0.036968
0.001834
0.004353
0.000477
-0.002152
0.057017
0.060249
0.064724
0.066484
0.000075
-0.013724
-0.012805
0.008638
0.037360
0.035721
0.043392
0.042454
-0.021372
-0.023860
0.014238
0.012565
0.015241
0.014762
0.006661
0.001769
0.009443
0.012586
-0.003925
0.044789
0.046056
-0.025169
-0.020294
-0.020283
0.019181
0.017493
-0.016569
0.016105
-0.049900
-0.048098
-0.051380
-0.000183
-0.001163
-0.052127
-0.052504
-0.049230
-0.030851
-0.031165
0.045730
0.048396
-0.029487
-0.032244
-0.028787
-0.014539
-0.019806
-0.030882
-0.003788
-0.001335
-0.049096
-0.006827
-0.003917
0.009397
0.009092
-0.022085
-0.022857
-0.024472
0.020149
0.001985
0.001779
0.044208
-0.004209
-0.011125
-0.007258
-0.009014
-0.038277
-0.039937
-0.039555
0.003901
-0.043479
0.004913
0.008655
-0.002926
-0.007015
-0.016857
0.014261
0.015540
0.013541
0.031082
0.029290
-0.046884
-0.047805
0.022287
0.015961
0.019609
0.030396
-0.003132
-0.032341
-0.044698
0.016737
-0.034352
-0.036972
0.012000
-0.037110
-0.030429
0.045150
0.044206
0.008916
0.058986
-0.049689
0.021585
-0.017499
-0.031281
-0.027806
-0.014014
-0.046942
-0.034580
-0.047395
0.040517
0.032088
0.032341
0.023173
0.053699
0.034348
0.009127
-0.018076
-0.017012
-0.029394
-0.027883
-0.025344
-0.025701
-0.025262
0.017070
0.019158
0.017766
0.009814
0.008896
0.025782
0.025537
0.023191
-0.025493
0.020962
0.040206
0.014597
0.018883
0.017534
-0.023797
0.035537
0.037594
0.015247
0.031822
0.030633
0.001081
-0.032447
-0.033409
-0.033000
-0.031512
0.024324
0.021344
0.030567
-0.042695
0.023495
-0.033832
-0.019900
-0.018397
-0.030679
-0.002979
0.041227
-0.040143
-0.041263
-0.039593
-0.014189
-0.041853
0.015221
-0.013602
-0.000450
-0.046406
-0.045569
-0.027504
0.002378
-0.025799
-0.025477
-0.003665
0.051584
0.052548
-0.036759
-0.024970
-0.042336
-0.003168
0.037745
0.032882
0.045774
0.039556
-0.003572
0.048984
-0.043517
-0.042568
-0.026139
-0.039392
-0.006768
-0.011567
-0.008162
-0.036413
-0.038257
-0.005415
-0.003862
-0.038988
-0.044899
-0.000488
-0.000801
-0.042189
-0.012573
-0.046736
-0.033197
-0.032044
-0.036314
-0.013738
0.005211
0.010322
0.012889
-0.013898
-0.034166
-0.037276
-0.003236
0.036084
-0.002200
0.024011
0.022138
0.026571
0.028109
0.020699
0.024358
-0.041082
-0.039308
-0.051126
0.027820
-0.033392
-0.002472
-0.001270
0.016086
-0.048620
0.023797
-0.006154
-0.005258
0.013725
0.020549
-0.053085
-0.064175
-0.008112
0.045956
-0.017317
0.028591
0.022129
-0.068522
-0.061218
-0.049556
0.057347
0.050006
-0.033791
-0.033725
-0.038390
0.015156
-0.019503
0.039903
0.000680
-0.008114
0.039099
0.022914
-0.048202
-0.068286
0.009581
-0.005909
-0.002934
-0.008585
0.025323
0.032756
0.013790
-0.021513
-0.025794
0.033900
0.012543
-0.045058
-0.044446
-0.047733
0.015026
0.025648
-0.045488
0.028905
0.033937
-0.034699
0.041988
0.027426
-0.041116
-0.043392
0.027825
-0.045992
-0.046334
-0.036085
0.001696
-0.004943
-0.008094
0.008963
-0.017305
0.040668
-0.040017
-0.038886
-0.030587
0.022005
-0.033579
-0.025564
-0.022902
0.029014
0.027334
-0.035956
-0.037674
-0.018634
0.016075
-0.040367
0.035418
-0.029692
0.031068
0.030821
0.030983
0.032646
0.024224
0.021667
0.026071
-0.027314
0.008255
-0.008417
0.012004
-0.022519
-0.021445
0.002264
0.004326
-0.042597
-0.035252
-0.031437
0.030497
0.030155
0.005941
0.028375
0.020453
-0.028769
-0.030795
0.006941
0.027961
0.005334
-0.038005
-0.038426
0.027133
0.023847
SCALARS UY float 1
LOOKUP_TABLE default
-0.000000
-0.000000
-0.410000
-0.410000
-0.117883
-0.288724
-0.000000
-0.000000
-0.000000
-0.000000
-0.000000
-0.000000
-0.000000
-0.000000
-0.000000
-0.051425
-0.093056
-0.132460
-0.170134
-0.206209
-0.241850
-0.279020
-0.320165
-0.364523
-0.410000
-0.410000
-0.410000
-0.410000
-0.410000
-0.410000
-0.410000
-0.410000
-0.410000
-0.367470
-0.325517
-0.284615
-0.245502
-0.208831
-0.173551
-0.137813
-0.098141
-0.053635
-0.122549
-0.126973
-0.131223
-0.132573
-0.136551
-0.140625
-0.141980
-0.145398
-0.148961
-0.152751
-0.154802
-0.157588
-0.160327
-0.163780
-0.166144
-0.169111
-0.171673
-0.174751
-0.178629
-0.180293
-0.183915
-0.185894
-0.188955
-0.193244
-0.196097
-0.197453
-0.201182
-0.203580
-0.207226
-0.209993
-0.213823
-0.214459
-0.218402
-0.221723
-0.223243
-0.227346
-0.231323
-0.232938
-0.237608
-0.240024
-0.243599
-0.245327
-0.247887
-0.252231
-0.255377
-0.258607
-0.260575
-0.265268
-0.267519
-0.271114
-0.276093
-0.277721
-0.283513
-0.252055
-0.256186
-0.256799
-0.262152
-0.118201
-0.120318
-0.113180
-0.150306
-0.146610
-0.145598
-0.350522
-0.376682
-0.349463
-0.140346
-0.173429
-0.169008
-0.166990
-0.370907
-0.162736
-0.164299
-0.162297
-0.175578
-0.192919
-0.167033
-0.194306
-0.087858
-0.100685
-0.097734
-0.299195
-0.303513
-0.295506
-0.025313
-0.033843
-0.056351
-0.296954
-0.145025
-0.142278
-0.152787
-0.133364
-0.165686
-0.170687
-0.132307
-0.128209
-0.125160
-0.168563
-0.163142
-0.122502
-0.232692
-0.230987
-0.229071
-0.182037
-0.185296
-0.188656
-0.238500
-0.236272
-0.230016
-0.190076
-0.204213
-0.190702
-0.163060
-0.168142
-0.171515
-0.191049
-0.184031
-0.205177
-0.304460
-0.314611
-0.302040
-0.162662
-0.098292
-0.082308
-0.226218
-0.131633
-0.133834
-0.235134
-0.230157
-0.126267
-0.271104
-0.273696
-0.262523
-0.281470
-0.236951
-0.242870
-0.205535
-0.201226
-0.201284
-0.214863
-0.221185
-0.218563
-0.196019
-0.270327
-0.275480
-0.275629
-0.228723
-0.171299
-0.171598
-0.167389
-0.162895
-0.167513
-0.170301
-0.210994
-0.208801
-0.209436
-0.211115
-0.162874
-0.172469
-0.184478
-0.167311
-0.270752
-0.278996
-0.271607
-0.224649
-0.175788
-0.166232
-0.168468
-0.173067
-0.265359
-0.258722
-0.347767
-0.379865
-0.375263
-0.232053
-0.211448
-0.218279
-0.293515
-0.296288
-0.302829
-0.297268
-0.190813
-0.198591
-0.194628
-0.133327
-0.128824
-0.122305
-0.243593
-0.251258
-0.197074
-0.203951
-0.198125
-0.204056
-0.194337
-0.227229
-0.233298
-0.229209
-0.167763
-0.168925
-0.175703
-0.167608
-0.157821
-0.161910
-0.266500
-0.273588
-0.267896
-0.273734
-0.135169
-0.129792
-0.134686
-0.128837
-0.261738
-0.269277
-0.235093
-0.232262
-0.227144
-0.140448
-0.133969
-0.124661
-0.137130
-0.141181
-0.094075
-0.100392
-0.096065
-0.265385
-0.275687
-0.258003
-0.266823
-0.259835
-0.251717
-0.251490
-0.194588
-0.193167
-0.199562
-0.268461
-0.259776
-0.227266
-0.199664
-0.180954
-0.152559
-0.150821
-0.157426
-0.188174
-0.181786
-0.192247
-0.184894
-0.205612
-0.198937
-0.202891
-0.202034
-0.236123
-0.232856
-0.230291
-0.236846
-0.138447
-0.142754
-0.145739
-0.212076
-0.215146
-0.206997
-0.106513
-0.101310
-0.176987
-0.178072
-0.178726
-0.177995
-0.186384
-0.119071
-0.116491
-0.118869
-0.127105
-0.121371
-0.172217
-0.153228
-0.156136
-0.159959
-0.335268
-0.322890
-0.325833
-0.109550
-0.226632
-0.085724
-0.086340
-0.073253
-0.126668
-0.124553
-0.132854
-0.019378
-0.023734
-0.040608
-0.074779
-0.061286
-0.216089
-0.216300
-0.206363
-0.066715
-0.076053
-0.090221
-0.135144
-0.139842
-0.147831
-0.155933
-0.258396
-0.254377
-0.252848
-0.331354
-0.318520
-0.262385
-0.173474
-0.150198
-0.164710
-0.277530
-0.280497
-0.270723
-0.318974
-0.312475
-0.256777
-0.268102
-0.177038
-0.186753
-0.180345
-0.190398
-0.169784
-0.175883
-0.195555
-0.039269
-0.034065
-0.054781
-0.050086
-0.146068
-0.151290
-0.179611
-0.157499
-0.239319
-0.221635
-0.386155
-0.360239
-0.219747
-0.219716
-0.198306
-0.210358
-0.251828
-0.256298
-0.282954
-0.259685
-0.089203
-0.266561
-0.275803
-0.285392
-0.263852
-0.264782
-0.266141
-0.277264
-0.132785
-0.156101
-0.240692
-0.278654
-0.259654
-0.306124
-0.078140
-0.073614
-0.064538
-0.254336
-0.263853
-0.252583
-0.087208
-0.150084
-0.138034
-0.137862
-0.180718
-0.112425
-0.113697
-0.115550
-0.110869
-0.121593
-0.342861
-0.351199
-0.244825
-0.336243
-0.312676
-0.323583
-0.255423
-0.249254
-0.306313
-0.244701
-0.126597
-0.246778
-0.147510
-0.158029
-0.138528
-0.329923
-0.060037
-0.056314
-0.048493
-0.116797
-0.083047
-0.374273
-0.344038
-0.141239
-0.030854
-0.057767
-0.129402
-0.131311
-0.095117
-0.316202
-0.312922
-0.332016
-0.181745
-0.188033
-0.270636
-0.281375
-0.197317
-0.193444
-0.302578
-0.297245
-0.273437
-0.203228
-0.196489
-0.303212
-0.311562
-0.307179
-0.171734
-0.180572
-0.032296
-0.148527
-0.139784
-0.015488
-0.049041
-0.021386
-0.024915
-0.151095
-0.225724
-0.164499
-0.224005
-0.253857
-0.235848
-0.249073
-0.251461
-0.243981
-0.262082
-0.209899
-0.209363
-0.227782
-0.233163
-0.280137
-0.285304
-0.235004
-0.251136
-0.224471
-0.206623
-0.219826
-0.229962
-0.069795
-0.064701
-0.324585
-0.307033
-0.194142
-0.197836
-0.201057
-0.192730
-0.292797
-0.219544
-0.225325
-0.223313
-0.233522
-0.216027
-0.206040
-0.282264
-0.285103
-0.120649
-0.115746
-0.263460
-0.242766
-0.256690
-0.228131
-0.045485
-0.108296
-0.104340
-0.314033
-0.204061
-0.196567
-0.274943
-0.276399
-0.264289
-0.254577
-0.142946
-0.138286
-0.147835
-0.141330
-0.383290
-0.358340
-0.361459
-0.132341
-0.379966
-0.252461
-0.254421
-0.105749
-0.098395
-0.105448
-0.148837
-0.146615
-0.103303
-0.139760
-0.151104
-0.151292
-0.150282
-0.279066
-0.285491
-0.171404
-0.181177
-0.141708
-0.252518
-0.256030
-0.232005
-0.232799
-0.266693
-0.245329
-0.254608
-0.261339
-0.219104
-0.228457
-0.283140
-0.290756
-0.202342
-0.138466
-0.131142
-0.291456
-0.298419
-0.248291
-0.252534
-0.249280
-0.173764
-0.342510
-0.329312
-0.265691
-0.120146
-0.279288
-0.285746
-0.285624
-0.233894
-0.234856
-0.241839
-0.108053
-0.192676
-0.292728
-0.285531
-0.335955
-0.351131
-0.109449
-0.149510
-0.152114
-0.153352
-0.218470
-0.216416
-0.215032
-0.222700
-0.122909
-0.104111
-0.101594
-0.166306
-0.275249
-0.236388
-0.186561
-0.079465
-0.244159
-0.232692
-0.121516
-0.243039
-0.240765
-0.247528
-0.246591
-0.097887
-0.221037
-0.157047
-0.153071
-0.291867
-0.072437
-0.080365
-0.051263
-0.099646
-0.068913
-0.176950
-0.338661
-0.357072
-0.335290
-0.356997
-0.311089
-0.166399
-0.142886
-0.240822
-0.244671
-0.240892
-0.239471
-0.262678
-0.099893
-0.103479
-0.154216
-0.158320
-0.159499
-0.160281
-0.157367
-0.159415
-0.163170
-0.146980
-0.293384
-0.157922
-0.101239
-0.120957
-0.133109
-0.119934
-0.244407
-0.215325
-0.211912
-0.157402
-0.188760
-0.183796
-0.289187
-0.238225
-0.237196
-0.114203
-0.242997
-0.101892
-0.080893
-0.100209
-0.320047
-0.159161
-0.110362
-0.236964
-0.232514
-0.242438
-0.319195
-0.275572
-0.219339
-0.213863
-0.218071
-0.265981
-0.215555
-0.167664
-0.272122
-0.111182
-0.188140
-0.182254
-0.244240
-0.115089
-0.245550
-0.240886
-0.116322
-0.232774
-0.216502
-0.106168
-0.089801
-0.103749
-0.109505
-0.202265
-0.316902
-0.305784
-0.296301
-0.291275
-0.221608
-0.208870
-0.210268
-0.249057
-0.189007
-0.298456
-0.289527
-0.291153
-0.231458
-0.225197
-0.292264
-0.299586
-0.172823
-0.176835
-0.138334
-0.300526
-0.209036
-0.281548
-0.205240
-0.210101
-0.213513
-0.217552
-0.340223
-0.123068
-0.110399
-0.107591
-0.293502
-0.221567
-0.213913
-0.085740
-0.242859
-0.097522
-0.188545
-0.185259
-0.179892
-0.186026
-0.182641
-0.297298
-0.210793
-0.214583
-0.160490
-0.171770
-0.239268
-0.307681
-0.060080
-0.351993
-0.159044
-0.381654
-0.076807
-0.095114
-0.033510
-0.039246
-0.373603
-0.370687
-0.095729
-0.243814
-0.036385
-0.065702
-0.066114
-0.154251
-0.337374
-0.336650
-0.283606
-0.281389
-0.202286
-0.207051
-0.209300
-0.378356
-0.070076
-0.203448
-0.106825
-0.304460
-0.174651
-0.336249
-0.125787
-0.312722
-0.305204
-0.102469
-0.103266
-0.261579
-0.302227
-0.126215
-0.130497
-0.291823
-0.280567
-0.286559
-0.165573
-0.156389
-0.159236
-0.162313
-0.288989
-0.118786
-0.151121
-0.208649
-0.286424
-0.237630
-0.250752
-0.157795
-0.123810
-0.128978
-0.168696
-0.132572
-0.133192
-0.189338
-0.141372
-0.126966
-0.125951
-0.153976
-0.248606
-0.217469
-0.209292
-0.204626
-0.276597
-0.162785
-0.116975
-0.231351
-0.233801
-0.179155
-0.174707
-0.222587
-0.218785
-0.116243
-0.147049
-0.178273
-0.290600
-0.249379
-0.222927
-0.195725
-0.190181
-0.193521
-0.204074
-0.193889
-0.173582
-0.213462
-0.166412
-0.256036
-0.180017
-0.111724
-0.215154
-0.146293
-0.154736
-0.145100
-0.195830
-0.196802
-0.228238
-0.185272
-0.146849
-0.180059
-0.177863
-0.218884
-0.223672
-0.268119
-0.203623
-0.149872
-0.223039
-0.219556
-0.176707
-0.180217
SCALARS DAMAGE float 1
LOOKUP_TABLE default
0.999673
0.999686
0.999764
0.999792
0.000000
0.000000
0.999797
0.999840
0.999868
0.999880
0.999876
0.999864
0.999846
0.999827
0.999785
0.999738
0.999802
0.999826
0.999840
0.999846
0.999846
0.999818
0.999785
0.999765
0.999790
0.999813
0.999840
0.999850
0.999840
0.999826
0.999815
0.999806
0.999800
0.999791
0.999800
0.999812
0.999831
0.999845
0.999853
0.999828
0.999798
0.999695
-0.000000
0.000000
0.000000
0.000000
0.000000
0.000000
0.000000
0.000000
0.000000
0.000000
0.000000
0.000000
0.000000
0.000000
0.000000
0.000000
0.000000
0.000000
0.000000
0.000000
0.000000
0.000000
0.000000
0.000000
0.000000
0.000000
0.000000
0.000000
0.000000
0.000000
0.000000
0.000000
0.000000
0.000000
0.000000
0.000000
0.000000
0.000000
0.000000
0.000000
0.000000
0.000000
0.000000
0.000000
0.000000
0.000000
0.000000
0.000000
0.000000
0.000000
0.000000
0.000000
-0.000000
0.678496
0.728211
0.862878
0.890082
0.481449
0.344852
0.649529
0.685353
0.689867
0.857534
0.999819
0.999821
0.999814
0.879835
0.980323
0.977451
0.991602
0.999812
0.988609
0.443494
0.491248
0.999801
0.999813
0.999811
0.999800
0.999844
0.999820
0.999787
0.943620
0.987788
0.947152
0.999851
0.999842
0.999836
0.981869
0.999247
0.999714
0.999338
0.999775
0.970143
0.952765
0.900915
0.889993
0.970544
0.933714
0.954876
0.953326
0.820198
0.870373
0.763420
0.447983
0.444709
0.669992
0.433138
0.389550
0.708043
0.999603
0.999782
0.999774
0.748440
0.668516
0.466488
0.999784
0.999795
0.999793
0.999819
0.999827
0.999823
0.844249
0.999837
0.999841
0.751177
0.726456
0.752506
0.683766
0.868512
0.844783
0.999593
0.999784
0.999559
0.999789
0.811510
0.515985
0.798202
0.754415
0.638137
0.879272
0.761339
0.673207
0.496127
0.768604
0.834830
0.898290
0.539635
0.878949
0.775311
0.895480
0.930809
0.903976
0.977980
0.999807
0.999821
0.917863
0.970433
0.999801
0.999810
0.999803
0.807148
0.510007
0.827880
0.681175
0.790065
0.751934
0.744821
0.687385
0.869838
0.350941
0.474856
0.999781
0.999777
0.999797
0.999802
0.999799
0.999796
0.513332
0.484246
0.845067
0.747143
0.706851
0.439326
0.448459
0.543966
0.656887
0.834225
0.718056
0.392388
0.715256
0.881133
0.873376
0.956944
0.999796
0.887751
0.951982
0.948469
0.433366
0.382422
0.675639
0.999230
0.998165
0.996068
0.880977
0.966957
0.960538
0.985174
0.916051
0.965983
0.959808
0.983737
0.957726
0.987140
0.972516
0.939178
0.986130
0.955098
0.983978
0.998884
0.996103
0.999758
0.994671
0.977065
0.980946
0.999784
0.999318
0.999366
0.994189
0.716973
0.453968
0.373240
0.922646
0.971478
0.936821
0.475807
0.689495
0.999813
0.999817
0.999829
0.931495
0.978797
0.931492
0.991889
0.998318
0.997387
0.999542
0.630807
0.782272
0.823426
0.999792
0.726799
0.732489
0.540925
0.850431
0.525858
0.473195
0.729857
0.996896
0.985706
0.994764
0.955657
0.987886
0.999509
0.999749
0.981724
0.996069
0.976623
0.985817
0.977701
0.692173
0.366596
0.493396
0.703126
0.988712
0.993978
0.980823
0.999842
0.999582
0.999891
0.970896
0.462678
0.998386
0.999492
0.999850
0.994549
0.998571
0.994725
0.999877
0.999869
0.999869
0.999848
0.999850
0.997024
0.999235
0.996201
0.999840
0.999852
0.999832
0.999819
0.999813
0.999812
0.999810