# vtk DataFile Version 2.0
Test
ASCII
DATASET POLYDATA
POINTS 858 float
0.000000 0.000000 0.000000
1.000000 0.000000 0.000000
1.000000 1.000000 0.000000
0.000000 1.000000 0.000000
0.300000 0.330000 0.000000
0.700000 0.680000 0.000000
0.100000 0.000000 0.000000
0.200000 0.000000 0.000000
0.300000 0.000000 0.000000
0.400000 0.000000 0.000000
0.500000 0.000000 0.000000
0.600000 0.000000 0.000000
0.700000 0.000000 0.000000
0.800000 0.000000 0.000000
0.900000 0.000000 0.000000
1.000000 0.100000 0.000000
1.000000 0.200000 0.000000
1.000000 0.300000 0.000000
1.000000 0.400000 0.000000
1.000000 0.500000 0.000000
1.000000 0.600000 0.000000
1.000000 0.700000 0.000000
1.000000 0.800000 0.000000
1.000000 0.900000 0.000000
0.900000 1.000000 0.000000
0.800000 1.000000 0.000000
0.700000 1.000000 0.000000
0.600000 1.000000 0.000000
0.500000 1.000000 0.000000
0.400000 1.000000 0.000000
0.300000 1.000000 0.000000
0.200000 1.000000 0.000000
0.100000 1.000000 0.000000
0.000000 0.900000 0.000000
0.000000 0.800000 0.000000
0.000000 0.700000 0.000000
0.000000 0.600000 0.000000
0.000000 0.500000 0.000000
0.000000 0.400000 0.000000
0.000000 0.300000 0.000000
0.000000 0.200000 0.000000
0.000000 0.100000 0.000000
0.307407 0.336481 0.000000
0.314815 0.342963 0.000000
0.322222 0.349444 0.000000
0.329630 0.355926 0.000000
0.337037 0.362407 0.000000
0.344444 0.368889 0.000000
0.351852 0.375370 0.000000
0.359259 0.381852 0.000000
0.366667 0.388333 0.000000
0.374074 0.394815 0.000000
0.381481 0.401296 0.000000
0.388889 0.407778 0.000000
0.396296 0.414259 0.000000
0.403704 0.420741 0.000000
0.411111 0.427222 0.000000
0.418519 0.433704 0.000000
0.425926 0.440185 0.000000
0.433333 0.446667 0.000000
0.440741 0.453148 0.000000
0.448148 0.459630 0.000000
0.455556 0.466111 0.000000
0.462963 0.472593 0.000000
0.470370 0.479074 0.000000
0.477778 0.485556 0.000000
0.485185 0.492037 0.000000
0.492593 0.498519 0.000000
0.500000 0.505000 0.000000
0.507407 0.511481 0.000000
0.514815 0.517963 0.000000
0.522222 0.524444 0.000000
0.529630 0.530926 0.000000
0.537037 0.537407 0.000000
0.544444 0.543889 0.000000
0.551852 0.550370 0.000000
0.559259 0.556852 0.000000
0.566667 0.563333 0.000000
0.574074 0.569815 0.000000
0.581481 0.576296 0.000000
0.588889 0.582778 0.000000
0.596296 0.589259 0.000000
0.603704 0.595741 0.000000
0.611111 0.602222 0.000000
0.618519 0.608704 0.000000
0.625926 0.615185 0.000000
0.633333 0.621667 0.000000
0.640741 0.628148 0.000000
0.648148 0.634630 0.000000
0.655556 0.641111 0.000000
0.662963 0.647593 0.000000
0.670370 0.654074 0.000000
0.677778 0.660556 0.000000
0.685185 0.667037 0.000000
0.692593 0.673519 0.000000
0.548037 0.570873 0.000000
0.554453 0.579695 0.000000
0.540788 0.582045 0.000000
0.550492 0.594703 0.000000
0.338797 0.350505 0.000000
0.329823 0.347064 0.000000
0.335712 0.339262 0.000000
0.451687 0.438509 0.000000
0.442642 0.430741 0.000000
0.457884 0.427703 0.000000
0.387297 0.847474 0.000000
0.374793 0.914734 0.000000
0.332869 0.847471 0.000000
0.447069 0.415163 0.000000
0.567391 0.482596 0.000000
0.554659 0.473874 0.000000
0.567453 0.464800 0.000000
0.301190 0.902112 0.000000
0.551747 0.457138 0.000000
0.356532 0.391813 0.000000
0.347986 0.386048 0.000000
0.176207 0.429241 0.000000
0.128375 0.468105 0.000000
0.136378 0.404291 0.000000
0.185621 0.475277 0.000000
0.497512 0.261165 0.000000
0.499167 0.296032 0.000000
0.469918 0.291504 0.000000
0.642232 0.687989 0.000000
0.624295 0.701188 0.000000
0.630549 0.678643 0.000000
0.647682 0.074905 0.000000
0.700945 0.096046 0.000000
0.657288 0.160421 0.000000
0.611443 0.684403 0.000000
0.559779 0.406431 0.000000
0.582162 0.394521 0.000000
0.580552 0.422827 0.000000
0.560788 0.374759 0.000000
0.541503 0.468043 0.000000
0.545465 0.480978 0.000000
0.428301 0.394826 0.000000
0.414860 0.384611 0.000000
0.432086 0.374027 0.000000
0.533961 0.477886 0.000000
0.527361 0.464336 0.000000
0.415481 0.368142 0.000000
0.484401 0.527206 0.000000
0.472984 0.524144 0.000000
0.481205 0.518972 0.000000
0.394266 0.424909 0.000000
0.401826 0.431399 0.000000
0.392742 0.434502 0.000000
0.642418 0.617836 0.000000
0.635302 0.612878 0.000000
0.644322 0.605726 0.000000
0.263646 0.464175 0.000000
0.250486 0.498376 0.000000
0.230296 0.467342 0.000000
0.491693 0.468898 0.000000
0.498004 0.479972 0.000000
0.487381 0.480785 0.000000
0.718619 0.489140 0.000000
0.756680 0.466072 0.000000
0.751564 0.516847 0.000000
0.497232 0.719177 0.000000
0.477497 0.748035 0.000000
0.465924 0.716726 0.000000
0.501292 0.467390 0.000000
0.529064 0.285755 0.000000
0.547173 0.240449 0.000000
0.474742 0.511943 0.000000
0.403118 0.392815 0.000000
0.412434 0.399392 0.000000
0.653057 0.614785 0.000000
0.659187 0.602396 0.000000
0.400247 0.379451 0.000000
0.459133 0.636583 0.000000
0.434636 0.647284 0.000000
0.440667 0.616932 0.000000
0.453650 0.664799 0.000000
0.666296 0.616100 0.000000
0.657731 0.628197 0.000000
0.420489 0.468863 0.000000
0.414183 0.459489 0.000000
0.424065 0.460120 0.000000
0.629321 0.574616 0.000000
0.630370 0.589442 0.000000
0.617226 0.584388 0.000000
0.422026 0.450877 0.000000
0.590180 0.614274 0.000000
0.596278 0.627413 0.000000
0.585881 0.628067 0.000000
0.630677 0.603443 0.000000
0.529117 0.486095 0.000000
0.517046 0.488781 0.000000
0.522040 0.477224 0.000000
0.308641 0.392803 0.000000
0.323746 0.398675 0.000000
0.304273 0.411173 0.000000
0.146020 0.514086 0.000000
0.087335 0.505198 0.000000
0.624982 0.561914 0.000000
0.643811 0.559907 0.000000
0.831909 0.406061 0.000000
0.881376 0.423788 0.000000
0.839177 0.457573 0.000000
0.509066 0.478681 0.000000
0.614792 0.620247 0.000000
0.608406 0.635616 0.000000
0.603251 0.619643 0.000000
0.640290 0.595050 0.000000
0.524731 0.497540 0.000000
0.338689 0.392113 0.000000
0.347423 0.395876 0.000000
0.340116 0.407012 0.000000
0.686563 0.659098 0.000000
0.682555 0.651347 0.000000
0.934704 0.856355 0.000000
0.940546 0.930926 0.000000
0.863552 0.916423 0.000000
0.172107 0.566287 0.000000
0.188105 0.516551 0.000000
0.221330 0.532895 0.000000
0.683914 0.680068 0.000000
0.692945 0.685712 0.000000
0.683376 0.697853 0.000000
0.672414 0.683990 0.000000
0.557147 0.529227 0.000000
0.554161 0.540325 0.000000
0.546244 0.533101 0.000000
0.391911 0.394487 0.000000
0.387591 0.383772 0.000000
0.385780 0.368800 0.000000
0.671617 0.628861 0.000000
0.664093 0.637808 0.000000
0.408700 0.450928 0.000000
0.406517 0.467364 0.000000
0.394366 0.455525 0.000000
0.388841 0.472148 0.000000
0.792728 0.486062 0.000000
0.461047 0.516036 0.000000
0.460182 0.532753 0.000000
0.450617 0.523703 0.000000
0.364207 0.398120 0.000000
0.371344 0.402923 0.000000
0.362621 0.408449 0.000000
0.235276 0.413110 0.000000
0.235915 0.390376 0.000000
0.260894 0.399649 0.000000
0.564107 0.604249 0.000000
0.558497 0.625526 0.000000
0.545610 0.611482 0.000000
0.542035 0.628852 0.000000
0.441269 0.401429 0.000000
0.443649 0.385779 0.000000
0.454140 0.398188 0.000000
0.456246 0.380948 0.000000
0.531090 0.597071 0.000000
0.528592 0.618783 0.000000
0.693800 0.600685 0.000000
0.675646 0.601117 0.000000
0.688895 0.583493 0.000000
0.466943 0.412411 0.000000
0.469666 0.393398 0.000000
0.215629 0.311290 0.000000
0.236374 0.342186 0.000000
0.194357 0.347185 0.000000
0.372859 0.289727 0.000000
0.362694 0.307734 0.000000
0.346245 0.295576 0.000000
0.824768 0.656091 0.000000
0.787989 0.680173 0.000000
0.787481 0.637866 0.000000
0.763354 0.658567 0.000000
0.564845 0.587843 0.000000
0.565674 0.575091 0.000000
0.575285 0.580662 0.000000
0.591463 0.532694 0.000000
0.606735 0.524365 0.000000
0.606700 0.541268 0.000000
0.696107 0.663701 0.000000
0.695223 0.651919 0.000000
0.114270 0.553146 0.000000
0.897846 0.490106 0.000000
0.941355 0.438159 0.000000
0.491870 0.442127 0.000000
0.508682 0.433741 0.000000
0.504276 0.453072 0.000000
0.616608 0.507977 0.000000
0.629719 0.487283 0.000000
0.643435 0.510566 0.000000
0.660659 0.486926 0.000000
0.584650 0.557787 0.000000
0.582076 0.545531 0.000000
0.595086 0.552412 0.000000
0.215445 0.494211 0.000000
0.502563 0.534321 0.000000
0.493623 0.527201 0.000000
0.502900 0.523550 0.000000
0.490744 0.536689 0.000000
0.303740 0.348241 0.000000
0.312638 0.354325 0.000000
0.302746 0.359450 0.000000
0.683727 0.548378 0.000000
0.666144 0.562133 0.000000
0.663581 0.542222 0.000000
0.366098 0.324774 0.000000
0.379406 0.309842 0.000000
0.251675 0.434611 0.000000
0.214900 0.437402 0.000000
0.581091 0.493223 0.000000
0.603283 0.484739 0.000000
0.593195 0.510449 0.000000
0.429738 0.356510 0.000000
0.412970 0.350726 0.000000
0.358920 0.356811 0.000000
0.352460 0.366146 0.000000
0.347463 0.357590 0.000000
0.353794 0.402394 0.000000
0.527483 0.436280 0.000000
0.546965 0.439869 0.000000
0.535210 0.453469 0.000000
0.624606 0.790385 0.000000
0.614250 0.755688 0.000000
0.654837 0.763041 0.000000
0.384960 0.332814 0.000000
0.619946 0.597007 0.000000
0.358705 0.265521 0.000000
0.397502 0.266486 0.000000
0.377869 0.228897 0.000000
0.471169 0.372235 0.000000
0.492664 0.362648 0.000000
0.488718 0.386734 0.000000
0.431288 0.062893 0.000000
0.512348 0.074893 0.000000
0.450325 0.128772 0.000000
0.515327 0.223180 0.000000
0.538419 0.183215 0.000000
0.367912 0.509419 0.000000
0.343175 0.515399 0.000000
0.351317 0.488263 0.000000
0.593186 0.193353 0.000000
0.476496 0.230456 0.000000
0.594140 0.256114 0.000000
0.629340 0.367381 0.000000
0.659922 0.374166 0.000000
0.641019 0.397588 0.000000
0.669525 0.412603 0.000000
0.510665 0.591750 0.000000
0.493263 0.584115 0.000000
0.507476 0.576852 0.000000
0.492575 0.790205 0.000000
0.516533 0.753914 0.000000
0.493265 0.606545 0.000000
0.794852 0.435952 0.000000
0.797754 0.379724 0.000000
0.755728 0.420083 0.000000
0.528549 0.642034 0.000000
0.507334 0.653897 0.000000
0.509532 0.626562 0.000000
0.580705 0.748031 0.000000
0.605192 0.727758 0.000000
0.748472 0.635779 0.000000
0.742539 0.660255 0.000000
0.323194 0.421808 0.000000
0.325468 0.445306 0.000000
0.301700 0.435431 0.000000
0.295276 0.460827 0.000000
0.622421 0.457821 0.000000
0.642814 0.468538 0.000000
0.320303 0.468200 0.000000
[...]
POINT_DATA 858
SCALARS UX float 1
LOOKUP_TABLE default
0.000000
-0.000000
-1.339422
-0.202065
1.265525
-1.820086
-0.000000
0.000000
-0.000000
-0.000000
-0.000000
0.000000
0.000000
0.000000
0.000000
-0.381945
-0.703283
-1.262345
-2.255339
-3.796582
-5.126794
-4.643332
-2.821286
-1.658861
-0.904474
-0.638988
-0.539746
-0.586745
-0.643263
-0.671376
-0.664609
-0.573943
-0.419473
-0.088364
0.161303
0.738828
1.786657
3.390501
4.576510
3.837267
1.963447
0.800886
0.982053
1.082049
0.933088
0.735924
0.717499
0.580681
0.467072
0.593889
0.610014
0.499014
0.595300
0.680050
0.417707
0.522804
-0.052608
0.454702
0.126575
0.060348
0.342874
0.224333
-0.157736
-0.324380
-0.108455
0.034784
-0.084475
-0.490312
0.056532
-0.367530
-0.545533
-0.280820
-0.333980
-0.604283
-0.649781
-0.850900
-0.843628
-0.775603
-0.889312
-0.880296
-0.696731
-0.645094
-1.105101
-1.223664
-0.991500
-1.222819
-0.954677
-1.116669
-1.352129
-1.354903
-1.328516
-1.245726
-1.446011
-1.624323
-1.674487
0.025762
-0.050261
0.009428
-0.096823
0.365797
0.538784
0.449810
-0.627241
-0.546097
-0.612315
-0.595520
-0.655428
-0.567431
-0.510949
-1.271507
-1.180152
-1.131422
-0.605330
-1.047492
1.776635
1.924598
2.944337
2.876358
3.519714
2.248375
-0.072563
-0.143521
-0.085052
-0.920049
-0.819162
-0.821118
0.020805
0.000170
-0.034157
-0.723438
-0.716492
-0.683083
-0.852970
-0.540659
-1.111974
-1.217975
-0.344628
-0.251992
-0.264400
-1.169821
-1.055226
-0.181838
0.557915
0.609868
0.604228
1.489619
1.375457
1.532968
-2.279068
-2.191563
-2.487777
1.738274
1.461835
1.949313
-0.966835
-1.029703
-0.865081
-1.690234
-1.657278
-2.139218
-0.486011
-0.520067
-0.432133
-1.006180
-0.158886
-0.084944
0.660931
-0.215923
-0.284968
-2.543632
-2.517313
-0.172094
-0.109933
-0.122185
0.027552
-0.233217
-2.625906
-2.618006
1.183009
1.293187
1.205717
-2.230684
-2.361904
-2.236525
1.244058
-0.366560
-0.433934
-0.389150
-2.450185
-1.213556
-1.180340
-1.133026
2.019911
1.962083
1.927574
2.031157
2.637258
-2.096019
-2.113635
-1.473746
-1.900054
-2.044408
-1.094983
-0.533008
-0.530488
-0.458536
-2.447126
-1.271847
1.976962
1.932164
1.888509
-2.226632
-2.497719
-1.650063
-1.185277
-0.893838
1.206843
1.693782
1.275041
-1.403924
-1.547131
-1.324542
-1.220095
-1.598378
-1.553116
-1.449813
-0.154043
-0.084163
-0.059932
-2.686976
-2.452760
1.364646
1.249353
1.386152
1.241678
-2.060954
0.698430
0.578110
0.668389
1.547160
1.207397
1.794471
2.544862
2.773245
2.402177
-0.194973
-0.281609
-0.169246
-0.250149
-0.422091
-0.354668
-0.447437
-0.365863
-0.045941
-0.162734
-2.561903
-2.523785
-2.441491
-0.558883
-0.462468
2.098409
2.600377
2.991163
0.189499
0.250514
0.334391
-3.812382
-3.178130
-3.693099
-3.355045
-0.143876
-0.208463
-0.428696
-1.756475
-1.706825
-1.869575
-2.312198
-2.536942
1.733547
-2.886552
-2.446230
-0.809483
-0.795953
-0.918540
-1.572581
-1.416582
-1.645388
-1.477371
-1.873012
-1.851386
-1.939155
1.760747
0.434364
0.507156
0.470643
0.467758
1.784342
1.843489
1.970305
-2.094726
-2.180399
-1.984912
0.212990
0.159302
2.158743
2.476810
-1.382864
-1.348337
-1.553726
-0.179401
-0.099579
0.161904
0.247240
0.252997
1.859411
-0.852669
-0.913557
-0.990483
-0.717916
-0.748060
-0.830261
0.084727
-2.271098
0.201490
0.094136
0.091736
-0.359666
-0.363219
-0.472080
-0.008923
0.014927
0.005047
-0.039393
-0.012337
0.941118
0.942863
1.162625
-0.044428
-0.017430
-0.156009
-0.612972
-0.707686
-0.803776
-0.954021
0.041569
0.129591
0.142756
-0.592297
-0.577101
-0.010081
-1.571832
-1.111749
-1.266287
-0.280274
-0.285677
-0.157943
-0.677382
-0.742305
-3.306870
-3.133598
1.802982
1.608683
1.786974
1.585480
-1.167653
-1.289966
1.423625
0.020997
-0.016635
0.012999
0.012146
3.358994
3.750926
3.857606
3.267119
0.733482
1.009492
-0.656380
-0.635980
-2.278838
-2.297406
1.463298
1.193981
0.993916
0.584323
0.474959
1.113435
0.353292
0.097317
-0.060817
-0.129664
0.080308
-0.486881
-0.494874
0.345615
-1.095750
-1.645568
-2.655245
0.146742
0.364078
0.015142
0.205766
0.239069
0.098806
0.185349
0.049357
0.236668
0.401414
-1.301809
-0.426160
-0.364171
1.746430
0.264518
0.136632
-0.263823
-0.243943
-0.352092
-0.721491
-0.658196
-3.301889
-0.568239
-0.438355
-0.534611
0.125209
0.240290
-0.435723
-3.574102
-0.828277
0.274648
-0.949780
-1.057238
-0.736293
-0.508961
0.046100
0.091569
0.018897
-0.237762
-0.145948
-0.567377
-0.485457
-0.418361
-0.015682
-0.086512
3.183796
2.967106
0.536556
-1.088799
-1.320408
-0.860671
1.752958
1.603353
-0.128495
-0.261440
-1.755540
-1.677432
-0.099112
-0.180115
0.087019
-2.599936
1.390481
-1.138315
-1.053795
-1.289382
-1.225081
-1.421400
-0.031596
2.691775
2.393219
-0.028310
0.247631
0.045418
-0.016798
3.008051
0.730093
2.895554
0.766001
0.351035
0.640636
0.336057
-2.948933
-2.954559
-2.971900
-1.937877
-2.051685
0.698446
0.580844
-0.474764
-0.595410
-3.575456
-3.958447
0.770279
-2.012317
-2.404152
0.671568
0.015137
0.036031
-0.430480
-0.343701
1.471669
1.390626
1.298036
1.516260
-0.254733
-2.329803
-2.448869
-2.374236
1.878539
-1.536392
-2.023473
-0.803055
-0.905966
-0.112632
-0.026370
-4.168351
-4.165700
-4.686521
-4.206552
0.010482
0.415953
0.341553
-0.859943
-1.962095
-1.771698
-2.702938
-2.817833
-0.064137
0.084371
-0.628462
-0.548690
-0.695761
-0.621027
-0.590387
-0.635049
-0.641362
-0.490205
-0.630545
-2.662354
-2.758018
0.862009
0.548032
0.662427
-0.775292
-0.727538
0.479391
-0.618952
2.072544
1.997604
2.341184
-0.751186
-0.727465
2.034842
1.892417
2.027727
0.197434
0.145077
-2.600096
-2.832899
-0.013153
0.327732
0.151354
-0.206161
0.043951
0.519509
-0.645958
-0.708905
1.293449
0.117689
0.004502
-1.111796
-1.050904
0.082791
0.074345
0.140972
-1.065629
-0.655969
-0.678511
-2.623456
0.060553
-0.399378
-0.520124
-0.469808
0.557338
0.551377
0.427394
-0.177585
1.457307
-0.937033
-1.002428
-0.636450
-0.628401
0.563386
-0.675518
-0.738379
-0.682161
-1.960226
-1.803004
1.002472
0.888301
-0.491790
-0.284865
-0.307401
-1.111460
-0.659974
0.501440
1.615101
-0.166146
0.353108
0.582084
-0.379881
0.387665
0.401490
-2.679515
-2.686198
-0.185182
-3.429199
2.007278
-0.856959
-0.363686
0.842331
0.680219
0.117490
1.923241
0.983882
1.830064
-1.505254
-0.978611
-1.219357
-0.786262
-2.780639
-1.162115
-0.487379
0.029762
-0.063415
0.376568
0.343281
0.005949
0.722114
0.774188
-0.806984
-0.907613
-0.873918
-0.603209
-0.538328
-0.974253
-1.047453
-0.766301
-0.306194
-0.943711
-0.616399
-0.400683
-0.560832
-0.418961
0.167042
-2.125820
-2.136086
-0.768830
-1.622526
-1.502829
-0.809502
0.470766
0.494485
1.204759
0.372072
-0.366629
-0.227966
-0.451830
-0.328936
-0.972246
1.211328
0.079555
0.081234
0.376320
-0.631200
-2.280098
0.879165
1.011438
0.916291
-0.275857
0.960245
-0.859381
-0.311720
-0.089527
1.621814
1.709022
0.287841
-0.173076
0.216434
0.242057
0.039138
-3.148758
-2.783448
1.370119
0.595416
1.719786
-0.005651
-1.888152
-1.541459
-2.426218
-2.256337
-0.627161
-2.637278
1.114614
1.089920
0.193776
1.322930
-0.544960
-0.429266
-0.502324
0.613293
0.749444
-0.570313
-0.608149
1.433585
1.801029
-0.154342
-0.681526
1.125883
-0.369001
1.193140
0.824722
0.755853
0.864135
-0.596839
-0.275529
-0.275190
-0.280107
-0.415429
0.742426
0.938103
-0.001321
-2.355397
-0.031124
-1.349294
-1.345911
-1.372411
-1.474377
-1.225594
-1.637192
1.085700
0.988689
2.109670
-1.225586
0.449507
-0.632642
0.003715
-0.726004
2.022685
-0.666571
0.043227
0.035505
-0.084430
-0.203055
-0.447856
-0.263476
0.114019
-2.752306
0.289319
-0.327930
-0.197597
4.095452
-0.164597
-0.347905
-3.819363
-3.351551
0.922969
0.869464
1.035115
-0.616740
0.336396
-1.906976
-0.111269
-0.541681
-1.377261
-0.954043
2.466750
0.149349
-0.976565
0.065206
-0.019060
-0.438846
-1.500772
-0.667538
-0.485708
-0.326016
-0.193408
-2.098341
-0.787164
2.029268
1.934802
2.008971
-1.293316
-0.504521
1.975451
-1.817466
-2.060471
0.481992
-2.685057
-0.954699
1.817803
1.966187
-1.154066
1.757687
1.922694
1.197220
-0.255940
0.049191
0.133976
-0.534189
-0.055410
-2.257910
1.086355
1.100336
-0.114474
-1.034018
1.279087
0.353829
0.238210
-1.399214
-1.304319
0.781395
0.878948
0.603983
-0.711027
1.484266
-2.110450
0.244532
-1.995357
-1.709138
-1.625000
-1.721675
-1.614065
-1.322423
-1.273848
0.575200
-0.670244
-0.387176
-0.683099
0.803659
0.074295
-0.269713
-0.403068
1.780228
1.040091
0.893642
-2.043037
-1.528302
-0.432915
-1.411652
-1.115147
0.503884
0.591045
-1.101864
-1.749190
-0.353239
0.804064
0.877731
-1.346068
-1.252376
SCALARS UY float 1
LOOKUP_TABLE default
0.000000
0.000000
17.600000
17.600000
2.687951
14.872135
0.000000
0.000000
0.000000
0.000000
0.000000
0.000000
0.000000
0.000000
0.000000
0.894102
1.792477
2.895321
4.515625
6.560569
8.731154
10.889802
13.359924
15.636938
17.600000
17.600000
17.600000
17.600000
17.600000
17.600000
17.600000
17.600000
17.600000
16.713527
15.756737
14.500269
12.817350
10.746439
8.518777
6.435022
4.036748
1.819688
3.775490
3.518486
3.950580
3.668006
4.057911
4.736158
4.660597
4.402451
4.522571
5.205285
6.104571
5.041656
5.781120
6.297985
8.008233
5.937676
7.287622
7.651870
6.912974
6.664743
8.146667
8.395950
7.825066
7.952151
8.367887
9.037860
6.864928
8.541019
9.741427
9.395477
9.462952
8.726304
9.255987
10.322676
10.090223
10.600872
11.258702
8.238345
12.719639
11.978847
12.807823
12.025257
11.606781
12.905172
12.932516
13.045704
13.490467
13.860018
13.716494
14.140297
14.735752
14.309014
14.296292
16.417405
16.545478
16.773821
16.856012
1.335040
1.647237
1.110628
1.134676
1.083641
0.815322
17.296359
17.422970
17.185937
0.744114
1.103840
1.011842
1.007694
17.296496
0.913298
12.353591
12.441683
10.683250
11.421775
9.185582
12.472951
0.287630
0.347265
0.312589
16.900297
17.087353
16.951573
0.163547
0.276309
0.381914
17.091211
0.752896
0.813181
0.900560
0.664538
0.951695
1.049202
0.672395
0.678466
0.528573
1.033541
0.922675
0.562459
16.355671
16.418027
16.177582
13.722962
13.957413
14.789895
4.941861
5.021853
3.647457
13.597486
14.127612
13.025550
1.261920
1.536206
2.218045
2.627002
2.815804
3.576172
17.259404
17.277452
17.194860
1.081519
0.379495
0.333689
16.124041
0.950345
0.907118
4.143436
3.605145
0.755817
16.997771
16.940469
16.879316
17.050074
4.275895
5.274116
15.730879
15.509229
15.267100
2.538569
3.012033
2.964031
14.645502
16.711991
16.819664
16.926380
3.989800
1.165145
1.354506
1.073178
12.425346
13.246153
13.046511
12.919552
11.906046
2.259766
2.427818
2.840825
3.607188
3.679894
1.217341
16.135208
16.799384
16.550052
3.212338
1.471973
13.261756
13.429046
13.927056
9.006368
7.479811
15.349366
16.533873
16.756117
14.248082
13.537270
14.306579
16.063600
15.821505
16.382103
16.462778
1.831901
2.841792
2.648958
1.303763
1.073073
0.776795
5.109640
6.742946
15.303504
15.763897
15.526406
15.758073
3.607743
16.377762
16.567733
16.486995
12.681741
12.506753
13.991655
11.005261
9.599824
10.944713
16.868162
17.040737
17.004029
17.084610
0.659620
0.551983
0.588246
0.511020
16.955286
17.058740
4.542117
3.962101
3.828764
0.635758
0.544073
4.227398
5.783185
6.379894
0.457951
0.572916
0.644565
10.606598
12.263951
9.547586
11.002108
16.568970
15.782165
15.582412
1.645846
1.637633
1.821726
10.016678
8.037664
13.313584
5.069598
4.523066
0.800716
0.723172
0.868311
1.579909
1.558650
1.881368
1.882087
2.442961
1.943445
2.006105
13.463549
16.222311
16.176730
15.590499
16.479090
8.100941
9.369403
9.585498
2.959871
2.842922
2.501761
0.618559
0.485204
12.406075
11.684576
1.230341
1.318369
1.421415
0.470342
0.496401
0.992177
1.685283
1.331893
13.774167
0.759188
0.822210
0.856250
17.278725
17.257805
17.079824
0.539723
4.142608
0.473928
0.322357
0.318639
0.477158
0.467880
0.525326
0.070176
0.085422
0.125350
0.258217
0.230588
15.894077
15.667565
15.520978
0.336549
0.232171
0.475659
0.956996
1.167324
1.157447
1.441361
16.947986
16.905841
16.861739
17.364616
17.336385
16.995281
2.842807
2.229327
2.259720
17.130496
17.142645
17.076306
17.316536
17.231811
8.878829
11.143187
13.948170
14.523560
13.749986
14.191832
1.321495
1.563775
14.808111
0.177632
0.155489
0.170373
0.190195
6.964376
7.402999
9.643862
8.597427
15.183194
14.935463
17.520313
17.427274
3.304849
3.594406
14.271335
14.777767
14.399535
15.199782
15.073176
14.016616
0.758351
16.330374
16.600878
16.557307
16.509947
16.139571
15.953731
15.423183
2.506765
3.399118
4.884484
15.890891
15.696640
15.915865
0.586509
0.821745
0.442245
16.615423
16.670460
16.438340
1.060933
2.716388
0.816592
0.964462
14.449799
0.835461
0.712046
0.417043
0.420265
0.476237
17.188514
17.362151
7.133367
17.273181
17.079783
17.268280
16.904236
16.836277
17.159881
7.633024
1.948185
16.776237
1.802038
1.797521
1.381485
17.117556
0.282637
0.567484
0.309268
0.409857
0.549825
17.233642
16.981461
1.087988
0.314681
0.541798
5.559957
5.510753
1.178097
16.523551
15.851076
16.842257
14.624331
14.914959
17.049773
17.113419
2.206109
2.352983
16.205085
16.477378
16.162451
4.585395
15.161350
16.689787
16.790161
16.293635
1.684416
2.078785
0.270013
8.201167
6.534440
0.087662
1.003365
0.432614
0.336682
8.090254
16.032515
10.023063
16.204340
15.887381
15.580221
16.141049
7.340264
6.411188
9.572951
2.787877
2.432326
16.460185
16.565019
16.968647
16.966788
6.854844
8.758750
16.379164
3.056556
4.058864
15.834917
0.208659
0.223239
16.901253
16.849200
15.286262
15.497763
15.531202
15.262772
16.820707
2.830214
3.222298
3.218266
13.001948
3.882337
2.094507
16.332325
16.334274
0.602790
0.565190
10.257579
8.134086
9.566606
7.266263
0.153934
0.892771
0.713064
17.107566
2.050299
1.820342
12.497102
12.718297
17.016078
16.835627
0.638341
0.580625
0.756640
0.605856
17.490583
17.452701
17.343919
0.544225
17.529706
6.601147
7.438155
1.531804
1.001714
1.140074
0.731233
0.679965
0.874693
0.636419
10.241287
10.969168
9.364817
16.366321
16.731706
12.591006
13.275461
7.822121
16.759190
16.735940
4.666921
5.383708
16.804744
16.709065
16.846724
16.430761
14.431854
15.838617
16.786225
16.974568
14.803809
2.110548
1.403324
16.352975
16.717581
16.327224
16.652320
16.613953
1.940661
17.397268
17.353691
9.984938
0.890231
17.060469
17.085028
17.134458
16.319674
16.170940
16.207967
0.367535
15.099528
16.692335
16.151428
17.404363
17.441990
1.102430
0.919976
0.960211
1.203951
3.743722
3.798310
15.333613
15.329205
0.964090
0.681217
0.821929
1.442214
16.299711
16.583107
14.779081
0.676315
16.584933
16.438811
0.534103
16.393705
16.648502
5.943279
5.603593
0.445824
6.080143
11.584026
0.830710
17.164830
2.054608
1.784441
0.724655
3.698003
2.337166
14.252142
15.496885
16.470403
15.964907
16.847577
13.555987
1.788541
1.030301
15.395990
15.586553
16.556147
16.283413
16.958900
1.725203
1.635923
0.941203
0.994422
1.230879
1.993713
1.871919
1.080202
1.020346
0.976191
16.990682
0.832641
1.679064
0.625207
0.785382
0.746626
16.255547
2.867007
2.423474
1.316953
1.477018
1.332574
16.758096
16.658666
16.642649
2.672805
16.737932
1.024179
0.853590
1.284244
16.660746
0.906313
2.723378
15.362586
14.930493
16.726367
17.341382
12.445222
16.197094
16.080193
16.234299
16.651332
16.010902
2.061143
16.929017
0.410270
15.017992
14.490291
16.588738
0.412928
16.509829
16.170957
0.672559
6.038405
4.942198
2.903420
1.617789
3.365966
0.452402
2.145751
15.431905
14.022960
14.193671
17.091456
4.731909
15.798165
15.929136
16.734086
14.335152
17.246943
17.208517
17.196881
16.488765
16.362606
17.162722
17.224512
12.753757
13.925472
1.547886
17.185980
15.946494
17.145255
15.245323
14.951365
15.012181
15.915918
17.362782
0.466277
0.490119
0.572209
17.214931
15.927516
15.833742
0.258715
5.752274
0.316704
2.402214
2.505084
1.480416
1.676523
2.557494
15.614858
16.016620
16.094694
11.592650
1.126854
16.655666
17.279079
0.182164
17.063414
12.287255
17.188108
0.251313
0.332267
0.453815
0.637772
17.081530
16.885771
0.395066
5.766923
1.031253
1.037972
0.822283
7.470195
16.346017
16.660503
11.842636
12.309942
14.602005
14.879434
15.673347
17.329297
1.084266
2.598629
0.356986
17.285079
2.253060
16.519562
4.701344
15.646744
16.914868
0.418036
0.365652
16.082694
15.659555
1.511664
0.578743
17.085585
16.950961
14.350397
2.135187
11.773115
12.076170
12.763988
16.043381
1.123842
11.176150
3.113344
14.458103
16.585772
6.303231
1.226180
3.858636
4.299093
1.164488
6.188030
4.914427
13.841540
1.583980
1.281272
1.416326
1.748148
15.747067
2.801855
15.859285
15.406708
16.777081
0.975748
2.704139
15.341162
15.361037
1.216565
1.123478
16.218947
16.163152
1.497757
0.687480
13.513562
14.339207
16.813600
4.012552
2.028615
1.625801
1.675863
3.434883
2.865858
1.154661
14.533952
2.567325
15.767834
3.263262
1.516386
14.170342
1.725696
2.217606
9.996560
14.168430
13.943813
4.705373
1.415077
1.663326
1.288146
2.203700
15.190611
15.493176
15.455124
2.890118
1.764905
16.357759
16.260337
1.225899
1.838657
SCALARS DAMAGE float 1
LOOKUP_TABLE default
0.127632
0.238794
0.115744
0.231686
0.000000
0.000000
0.176485
0.278332
0.405988
0.505139
0.548763
0.531910
0.459810
0.367436
0.283308
0.232569
0.203780
0.160201
0.119361
0.091758
0.081468
0.078622
0.089860
0.108396
0.156735
0.253577
0.386633
0.491880
0.536057
0.515650
0.444801
0.349376
0.269206
0.223205
0.193220
0.151792
0.115024
0.088774
0.081226
0.081248
0.095105
0.113671
-0.000000
0.000000
0.000000
0.000000
0.000000
0.000000
0.000000
0.000000
0.000000
0.000000
0.000000
0.000000
0.000000
0.000000
0.000000
0.000000
0.000000
0.000000
0.000000
0.000000
0.000000
0.000000
0.000000
0.000000
0.000000
0.000000
0.000000
0.000000
0.000000
0.000000
0.000000
0.000000
0.000000
0.000000
0.000000
0.000000
0.000000
0.000000
0.000000
0.000000
0.000000
0.000000
0.000000
0.000000
0.000000
0.000000
0.000000
0.000000
0.000000
0.000000
0.000000
0.000000
-0.000000
0.061924
0.070479
0.104002
0.114922
0.040057
0.027528
0.065328
0.063479
0.063894
0.103007
0.474541
0.491474
0.439845
0.111707
0.159593
0.160509
0.189974
0.431198
0.187017
0.017752
0.019056
0.060407
0.074823
0.057174
0.084314
0.422228
0.382378
0.366857
0.154702
0.215015
0.155111
0.491493
0.445068
0.458544
0.201745
0.273821
0.299741
0.262743
0.317518
0.154778
0.135227
0.123014
0.120500
0.177339
0.124674
0.142233
0.160283
0.083224
0.096384
0.070499
0.022295
0.022880
0.041683
0.017198
0.016028
0.036959
0.105031
0.128954
0.092943
0.070780
0.056739
0.032833
0.168120
0.165345
0.123442
0.385614
0.424148
0.396478
0.092596
0.408486
0.454467
0.066659
0.074724
0.078414
0.032606
0.053788
0.102972
0.305059
0.329934
0.289798
0.343775
0.041641
0.019271
0.066507
0.057572
0.043660
0.069019
0.046828
0.039622
0.028423
0.081262
0.101040
0.123935
0.024973
0.099859
0.072828
0.107148
0.051015
0.052379
0.068504
0.098719
0.087920
0.084494
0.101306
0.166513
0.132599
0.127570
0.081113
0.041099
0.096069
0.066060
0.048324
0.067210
0.035676
0.033001
0.053513
0.009939
0.014404
0.110206
0.127173
0.172553
0.140742
0.113217
0.142308
0.046043
0.044595
0.104114
0.083873
0.055422
0.026313
0.027549
0.044533
0.063431
0.099125
0.030323
0.013191
0.049496
0.082632
0.076458
0.109979
0.127641
0.098981
0.133999
0.129629
0.018117
0.016616
0.035602
0.057755
0.047057
0.053327
0.110941
0.169280
0.161322
0.202679
0.132433
0.171956
0.163241
0.202614
0.155396
0.203469
0.066895
0.063357
0.084167
0.154627
0.198568
0.064715
0.046347
0.048396
0.252276
0.199016
0.198537
0.049617
0.052448
0.044039
0.043581
0.068833
0.033762
0.026525
0.098344
0.127783
0.100442
0.014396
0.023300
0.112350
0.095102
0.111476
0.132424
0.176189
0.129551
0.160054
0.193717
0.166495
0.195212
0.041918
0.062106
0.067317
0.108043
0.065439
0.066010
0.038826
0.092992
0.015988
0.013997
0.025395
0.121940
0.105916
0.129701
0.166848
0.222642
0.075686
0.068033
0.155655
0.186845
0.138703
0.210023
0.193957
0.070359
0.028466
0.040849
0.036003
0.196159
0.211563
0.174048
0.355955
0.323054
0.279892
0.183474
0.021615
0.275636
0.326310
0.355708
0.241022
0.283264
0.237675
0.517429
0.540797
0.504106
0.462792
0.493957
0.175967
0.185910
0.152579
0.477445
0.441355
0.435445
0.329520
0.310662
0.296006
0.270896
0.177038
0.187051
0.151334
0.456628
0.412930
0.228208
0.166042
0.207527
0.205924
0.246526
0.290539
0.243330
0.351352
0.291614
0.042348
0.041233
0.077766
0.104267
0.091623
0.115603
0.230223
0.217950
0.129235
0.517161
0.459861
0.468920
0.446740
0.052319
0.061536
0.072667
0.048379
0.194620
0.173433
0.526396
0.506804
0.100961
0.104002
0.128630
0.157334
0.147268
0.194760
0.173758
0.134765