# vtk DataFile Version 2.0
Test
ASCII
DATASET POLYDATA
POINTS 858 float
0.000000 0.000000 0.000000
1.000000 0.000000 0.000000
1.000000 1.000000 0.000000
0.000000 1.000000 0.000000
0.300000 0.330000 0.000000
0.700000 0.680000 0.000000
0.100000 0.000000 0.000000
0.200000 0.000000 0.000000
0.300000 0.000000 0.000000
0.400000 0.000000 0.000000
0.500000 0.000000 0.000000
0.600000 0.000000 0.000000
0.700000 0.000000 0.000000
0.800000 0.000000 0.000000
0.900000 0.000000 0.000000
1.000000 0.100000 0.000000
1.000000 0.200000 0.000000
1.000000 0.300000 0.000000
1.000000 0.400000 0.000000
1.000000 0.500000 0.000000
1.000000 0.600000 0.000000
1.000000 0.700000 0.000000
1.000000 0.800000 0.000000
1.000000 0.900000 0.000000
0.900000 1.000000 0.000000
0.800000 1.000000 0.000000
0.700000 1.000000 0.000000
0.600000 1.000000 0.000000
0.500000 1.000000 0.000000
0.400000 1.000000 0.000000
0.300000 1.000000 0.000000
0.200000 1.000000 0.000000
0.100000 1.000000 0.000000
0.000000 0.900000 0.000000
0.000000 0.800000 0.000000
0.000000 0.700000 0.000000
0.000000 0.600000 0.000000
0.000000 0.500000 0.000000
0.000000 0.400000 0.000000
0.000000 0.300000 0.000000
0.000000 0.200000 0.000000
0.000000 0.100000 0.000000
0.307407 0.336481 0.000000
0.314815 0.342963 0.000000
0.322222 0.349444 0.000000
0.329630 0.355926 0.000000
0.337037 0.362407 0.000000
0.344444 0.368889 0.000000
0.351852 0.375370 0.000000
0.359259 0.381852 0.000000
0.366667 0.388333 0.000000
0.374074 0.394815 0.000000
0.381481 0.401296 0.000000
0.388889 0.407778 0.000000
0.396296 0.414259 0.000000
0.403704 0.420741 0.000000
0.411111 0.427222 0.000000
0.418519 0.433704 0.000000
0.425926 0.440185 0.000000
0.433333 0.446667 0.000000
0.440741 0.453148 0.000000
0.448148 0.459630 0.000000
0.455556 0.466111 0.000000
0.462963 0.472593 0.000000
0.470370 0.479074 0.000000
0.477778 0.485556 0.000000
0.485185 0.492037 0.000000
0.492593 0.498519 0.000000
0.500000 0.505000 0.000000
0.507407 0.511481 0.000000
0.514815 0.517963 0.000000
0.522222 0.524444 0.000000
0.529630 0.530926 0.000000
0.537037 0.537407 0.000000
0.544444 0.543889 0.000000
0.551852 0.550370 0.000000
0.559259 0.556852 0.000000
0.566667 0.563333 0.000000
0.574074 0.569815 0.000000
0.581481 0.576296 0.000000
0.588889 0.582778 0.000000
0.596296 0.589259 0.000000
0.603704 0.595741 0.000000
0.611111 0.602222 0.000000
0.618519 0.608704 0.000000
0.625926 0.615185 0.000000
0.633333 0.621667 0.000000
0.640741 0.628148 0.000000
0.648148 0.634630 0.000000
0.655556 0.641111 0.000000
0.662963 0.647593 0.000000
0.670370 0.654074 0.000000
0.677778 0.660556 0.000000
0.685185 0.667037 0.000000
0.692593 0.673519 0.000000
0.548037 0.570873 0.000000
0.554453 0.579695 0.000000
0.540788 0.582045 0.000000
0.550492 0.594703 0.000000
0.338797 0.350505 0.000000
0.329823 0.347064 0.000000
0.335712 0.339262 0.000000
0.451687 0.438509 0.000000
0.442642 0.430741 0.000000
0.457884 0.427703 0.000000
0.387297 0.847474 0.000000
0.374793 0.914734 0.000000
0.332869 0.847471 0.000000
0.447069 0.415163 0.000000
0.567391 0.482596 0.000000
0.554659 0.473874 0.000000
0.567453 0.464800 0.000000
0.301190 0.902112 0.000000
0.551747 0.457138 0.000000
0.356532 0.391813 0.000000
0.347986 0.386048 0.000000
0.176207 0.429241 0.000000
0.128375 0.468105 0.000000
0.136378 0.404291 0.000000
0.185621 0.475277 0.000000
0.497512 0.261165 0.000000
0.499167 0.296032 0.000000
0.469918 0.291504 0.000000
0.642232 0.687989 0.000000
0.624295 0.701188 0.000000
0.630549 0.678643 0.000000
0.647682 0.074905 0.000000
0.700945 0.096046 0.000000
0.657288 0.160421 0.000000
0.611443 0.684403 0.000000
0.559779 0.406431 0.000000
0.582162 0.394521 0.000000
0.580552 0.422827 0.000000
0.560788 0.374759 0.000000
0.541503 0.468043 0.000000
0.545465 0.480978 0.000000
0.428301 0.394826 0.000000
0.414860 0.384611 0.000000
0.432086 0.374027 0.000000
0.533961 0.477886 0.000000
0.527361 0.464336 0.000000
0.415481 0.368142 0.000000
0.484401 0.527206 0.000000
0.472984 0.524144 0.000000
0.481205 0.518972 0.000000
0.394266 0.424909 0.000000
0.401826 0.431399 0.000000
0.392742 0.434502 0.000000
0.642418 0.617836 0.000000
0.635302 0.612878 0.000000
0.644322 0.605726 0.000000
0.263646 0.464175 0.000000
0.250486 0.498376 0.000000
0.230296 0.467342 0.000000
0.491693 0.468898 0.000000
0.498004 0.479972 0.000000
0.487381 0.480785 0.000000
0.718619 0.489140 0.000000
0.756680 0.466072 0.000000
0.751564 0.516847 0.000000
0.497232 0.719177 0.000000
0.477497 0.748035 0.000000
0.465924 0.716726 0.000000
0.501292 0.467390 0.000000
0.529064 0.285755 0.000000
0.547173 0.240449 0.000000
0.474742 0.511943 0.000000
0.403118 0.392815 0.000000
0.412434 0.399392 0.000000
0.653057 0.614785 0.000000
0.659187 0.602396 0.000000
0.400247 0.379451 0.000000
0.459133 0.636583 0.000000
0.434636 0.647284 0.000000
0.440667 0.616932 0.000000
0.453650 0.664799 0.000000
0.666296 0.616100 0.000000
0.657731 0.628197 0.000000
0.420489 0.468863 0.000000
0.414183 0.459489 0.000000
0.424065 0.460120 0.000000
0.629321 0.574616 0.000000
0.630370 0.589442 0.000000
0.617226 0.584388 0.000000
0.422026 0.450877 0.000000
0.590180 0.614274 0.000000
0.596278 0.627413 0.000000
0.585881 0.628067 0.000000
0.630677 0.603443 0.000000
0.529117 0.486095 0.000000
0.517046 0.488781 0.000000
0.522040 0.477224 0.000000
0.308641 0.392803 0.000000
0.323746 0.398675 0.000000
0.304273 0.411173 0.000000
0.146020 0.514086 0.000000
0.087335 0.505198 0.000000
0.624982 0.561914 0.000000
0.643811 0.559907 0.000000
0.831909 0.406061 0.000000
0.881376 0.423788 0.000000
0.839177 0.457573 0.000000
0.509066 0.478681 0.000000
0.614792 0.620247 0.000000
0.608406 0.635616 0.000000
0.603251 0.619643 0.000000
0.640290 0.595050 0.000000
0.524731 0.497540 0.000000
0.338689 0.392113 0.000000
0.347423 0.395876 0.000000
0.340116 0.407012 0.000000
0.686563 0.659098 0.000000
0.682555 0.651347 0.000000
0.934704 0.856355 0.000000
0.940546 0.930926 0.000000
0.863552 0.916423 0.000000
0.172107 0.566287 0.000000
0.188105 0.516551 0.000000
0.221330 0.532895 0.000000
0.683914 0.680068 0.000000
0.692945 0.685712 0.000000
0.683376 0.697853 0.000000
0.672414 0.683990 0.000000
0.557147 0.529227 0.000000
0.554161 0.540325 0.000000
0.546244 0.533101 0.000000
0.391911 0.394487 0.000000
0.387591 0.383772 0.000000
0.385780 0.368800 0.000000
0.671617 0.628861 0.000000
0.664093 0.637808 0.000000
0.408700 0.450928 0.000000
0.406517 0.467364 0.000000
0.394366 0.455525 0.000000
0.388841 0.472148 0.000000
0.792728 0.486062 0.000000
0.461047 0.516036 0.000000
0.460182 0.532753 0.000000
0.450617 0.523703 0.000000
0.364207 0.398120 0.000000
0.371344 0.402923 0.000000
0.362621 0.408449 0.000000
0.235276 0.413110 0.000000
0.235915 0.390376 0.000000
0.260894 0.399649 0.000000
0.564107 0.604249 0.000000
0.558497 0.625526 0.000000
0.545610 0.611482 0.000000
0.542035 0.628852 0.000000
0.441269 0.401429 0.000000
0.443649 0.385779 0.000000
0.454140 0.398188 0.000000
0.456246 0.380948 0.000000
0.531090 0.597071 0.000000
0.528592 0.618783 0.000000
0.693800 0.600685 0.000000
0.675646 0.601117 0.000000
0.688895 0.583493 0.000000
0.466943 0.412411 0.000000
0.469666 0.393398 0.000000
0.215629 0.311290 0.000000
0.236374 0.342186 0.000000
0.194357 0.347185 0.000000
0.372859 0.289727 0.000000
0.362694 0.307734 0.000000
0.346245 0.295576 0.000000
0.824768 0.656091 0.000000
0.787989 0.680173 0.000000
0.787481 0.637866 0.000000
0.763354 0.658567 0.000000
0.564845 0.587843 0.000000
0.565674 0.575091 0.000000
0.575285 0.580662 0.000000
0.591463 0.532694 0.000000
0.606735 0.524365 0.000000
0.606700 0.541268 0.000000
0.696107 0.663701 0.000000
0.695223 0.651919 0.000000
0.114270 0.553146 0.000000
0.897846 0.490106 0.000000
0.941355 0.438159 0.000000
0.491870 0.442127 0.000000
0.508682 0.433741 0.000000
0.504276 0.453072 0.000000
0.616608 0.507977 0.000000
0.629719 0.487283 0.000000
0.643435 0.510566 0.000000
0.660659 0.486926 0.000000
0.584650 0.557787 0.000000
0.582076 0.545531 0.000000
0.595086 0.552412 0.000000
0.215445 0.494211 0.000000
0.502563 0.534321 0.000000
0.493623 0.527201 0.000000
0.502900 0.523550 0.000000
0.490744 0.536689 0.000000
0.303740 0.348241 0.000000
0.312638 0.354325 0.000000
0.302746 0.359450 0.000000
0.683727 0.548378 0.000000
0.666144 0.562133 0.000000
0.663581 0.542222 0.000000
0.366098 0.324774 0.000000
0.379406 0.309842 0.000000
0.251675 0.434611 0.000000
0.214900 0.437402 0.000000
0.581091 0.493223 0.000000
0.603283 0.484739 0.000000
0.593195 0.510449 0.000000
0.429738 0.356510 0.000000
0.412970 0.350726 0.000000
0.358920 0.356811 0.000000
0.352460 0.366146 0.000000
0.347463 0.357590 0.000000
0.353794 0.402394 0.000000
0.527483 0.436280 0.000000
0.546965 0.439869 0.000000
0.535210 0.453469 0.000000
0.624606 0.790385 0.000000
0.614250 0.755688 0.000000
0.654837 0.763041 0.000000
0.384960 0.332814 0.000000
0.619946 0.597007 0.000000
0.358705 0.265521 0.000000
0.397502 0.266486 0.000000
0.377869 0.228897 0.000000
0.471169 0.372235 0.000000
0.492664 0.362648 0.000000
0.488718 0.386734 0.000000
0.431288 0.062893 0.000000
0.512348 0.074893 0.000000
0.450325 0.128772 0.000000
0.515327 0.223180 0.000000
0.538419 0.183215 0.000000
0.367912 0.509419 0.000000
0.343175 0.515399 0.000000
0.351317 0.488263 0.000000
0.593186 0.193353 0.000000
0.476496 0.230456 0.000000
0.594140 0.256114 0.000000
0.629340 0.367381 0.000000
0.659922 0.374166 0.000000
0.641019 0.397588 0.000000
0.669525 0.412603 0.000000
0.510665 0.591750 0.000000
0.493263 0.584115 0.000000
0.507476 0.576852 0.000000
0.492575 0.790205 0.000000
0.516533 0.753914 0.000000
0.493265 0.606545 0.000000
0.794852 0.435952 0.000000
0.797754 0.379724 0.000000
0.755728 0.420083 0.000000
0.528549 0.642034 0.000000
0.507334 0.653897 0.000000
0.509532 0.626562 0.000000
0.580705 0.748031 0.000000
0.605192 0.727758 0.000000
0.748472 0.635779 0.000000
0.742539 0.660255 0.000000
0.323194 0.421808 0.000000
0.325468 0.445306 0.000000
0.301700 0.435431 0.000000
0.295276 0.460827 0.000000
0.622421 0.457821 0.000000
0.642814 0.468538 0.000000
0.320303 0.468200 0.000000
[...]
POINT_DATA 858
SCALARS UX float 1
LOOKUP_TABLE default
-0.000000
0.000000
0.070067
-0.094707
-0.046813
0.042152
0.000000
-0.000000
-0.000000
-0.000000
-0.000000
0.000000
0.000000
0.000000
-0.000000
0.039702
0.063195
0.079016
0.091065
0.098731
0.099263
0.092000
0.080846
0.072703
0.052471
0.035187
0.019147
0.004758
-0.010354
-0.026537
-0.043383
-0.060701
-0.077786
-0.095963
-0.099034
-0.103823
-0.108510
-0.110384
-0.104969
-0.090342
-0.067947
-0.041976
-0.044834
-0.042291
-0.039881
-0.040283
-0.037667
-0.034892
-0.035461
-0.033714
-0.031784
-0.029949
-0.031165
-0.028858
-0.027253
-0.024931
-0.024464
-0.022408
-0.021906
-0.020135
-0.017636
-0.017252
-0.014777
-0.014197
-0.012613
-0.009795
-0.008224
-0.008518
-0.005723
-0.004595
-0.002529
-0.000974
0.002048
0.001600
0.004448
0.006505
0.006673
0.009470
0.012048
0.012882
0.012543
0.013810
0.016720
0.017882
0.019229
0.022206
0.023707
0.024966
0.025769
0.029279
0.030085
0.031793
0.035591
0.035326
0.039321
-0.028148
-0.026556
-0.029186
-0.025935
-0.018190
-0.024583
-0.018691
0.017089
0.014523
0.017616
-0.030595
-0.031229
-0.040092
0.014458
0.037221
0.034833
0.034806
-0.044271
0.032222
-0.057291
-0.060006
-0.082432
-0.090493
-0.085799
-0.082426
0.002434
0.005178
0.000837
0.008177
0.005971
0.003330
0.004641
0.009336
0.012337
0.000162
0.025924
0.027026
0.030466
0.021895
0.032788
0.034873
0.008939
0.005478
0.006244
0.033329
0.030938
0.003128
-0.043558
-0.045501
-0.044518
-0.053416
-0.052996
-0.058371
0.049587
0.046290
0.054860
-0.071809
-0.072740
-0.076194
0.026761
0.027997
0.021358
0.055143
0.058786
0.062107
-0.017233
-0.018665
-0.023001
0.028418
0.008182
0.007084
-0.045586
0.003823
0.006238
0.055597
0.057039
0.002533
-0.032291
-0.034768
-0.037288
-0.029925
0.057940
0.053875
-0.055597
-0.056514
-0.054057
0.052612
0.052832
0.050226
-0.052785
-0.015875
-0.013155
-0.015081
0.050934
0.033618
0.031776
0.031948
-0.067216
-0.066158
-0.067769
-0.088061
-0.097047
0.051414
0.052880
0.064962
0.074856
0.071032
0.030381
-0.006723
-0.009528
-0.011632
0.054415
0.033326
-0.064185
-0.062953
-0.064900
0.051092
0.054526
0.063997
0.060714
0.047423
-0.082416
-0.081530
-0.075861
0.023679
0.030631
0.024160
0.017112
0.039900
0.034892
0.033540
0.000216
-0.000484
-0.001201
0.058085
0.050211
-0.057475
-0.057530
-0.059460
-0.058889
0.066010
-0.047610
-0.045971
-0.047926
-0.055096
-0.051330
-0.061689
-0.074777
-0.073387
-0.071800
-0.022266
-0.019809
-0.023935
-0.021571
0.011656
0.009569
0.012822
0.010316
-0.028361
-0.025080
0.059846
0.058355
0.058614
0.016660
0.013884
-0.058990
-0.065665
-0.070895
-0.014709
-0.015494
-0.020161
0.070312
0.061958
0.068551
0.063651
-0.023679
-0.020065
-0.013978
0.045621
0.046124
0.048071
0.054804
0.058416
-0.092144
0.082631
0.085687
0.023906
0.024500
0.026974
0.045079
0.043958
0.047957
0.047343
0.044567
0.045480
0.047823
-0.077933
-0.039584
-0.041595
-0.038021
-0.041735
-0.060945
-0.059777
-0.064813
0.055552
0.054997
0.053041
-0.012525
-0.011841
-0.073468
-0.077943
0.039912
0.040920
0.043190
0.003070
-0.000134
-0.009352
-0.016503
-0.014102
-0.062577
0.026800
0.029276
0.030130
0.009783
0.007621
0.015570
-0.007560
0.046875
-0.017280
-0.011120
-0.013089
0.010729
0.011946
0.015022
-0.002220
-0.000285
-0.003656
0.002679
0.003300
-0.057494
-0.059710
-0.060826
0.008873
-0.001383
0.013767
0.029882
0.034923
0.034959
0.040549
-0.031775
-0.035075
-0.034479
-0.013848
-0.011181
-0.031642
0.062011
0.056560
0.054204
-0.021328
-0.022775
-0.026445
0.000621
0.004467
0.065349
0.062013
-0.066237
-0.065495
-0.067935
-0.068034
0.039621
0.043223
-0.065106
0.003733
-0.006162
-0.005202
-0.007877
-0.077045
-0.084688
-0.096858
-0.078304
-0.070691
-0.069200
-0.017804
-0.019468
0.056983
0.058513
-0.069438
-0.068055
-0.088731
-0.076006
-0.089774
-0.098392
-0.023303
-0.053153
-0.046887
-0.050061
-0.048099
-0.009253
-0.007045
-0.079403
0.066893
0.077969
0.059687
-0.068005
-0.066645
-0.079013
-0.019579
-0.022353
-0.015683
-0.045026
-0.043656
-0.049083
-0.026470
0.066281
0.011421
0.008910
-0.064822
-0.012677
-0.008402
0.008924
0.009909
0.013046
0.014995
0.008376
0.067513
-0.026563
-0.033504
-0.022765
-0.036335
-0.038597
-0.026670
0.070744
0.055082
-0.038072
0.048045
0.046886
0.039743
-0.036458
-0.011468
-0.016697
-0.011414
0.006534
0.017434
-0.055888
-0.052355
0.009965
0.011821
0.019053
-0.077435
-0.072695
-0.028762
0.024658
0.034812
0.022121
-0.063476
-0.063752
-0.029295
-0.026046
0.050743
0.051944
-0.067643
-0.056208
-0.059018
0.073870
-0.062972
0.017507
0.019378
0.026507
0.044583
0.049547
-0.008394
-0.070381
-0.066417
-0.002881
-0.023555
-0.010517
-0.008872
-0.073151
-0.055680
-0.076977
-0.053738
-0.061183
-0.063088
-0.055122
0.063293
0.064288
0.062441
0.045199
0.048284
-0.049519
-0.047321
-0.011830
-0.006829
0.074581
0.074180
-0.049745
0.056909
0.061664
-0.058422
-0.005170
-0.008748
-0.047395
-0.044076
-0.061980
-0.060574
-0.060734
-0.060801
-0.041861
0.054536
0.055754
0.056517
-0.099975
0.033915
0.049730
0.002418
0.005764
0.000662
-0.002875
0.076514
0.080873
0.086858
0.089245
0.000095
-0.018431
-0.017194
0.011534
0.050252
0.048063
0.058208
0.056952
-0.028759
-0.032107
0.019195
0.016934
0.020564
0.019885
0.008866
0.002309
0.012601
0.016941
-0.005328
0.060156
0.061846
-0.033811
-0.027255
-0.027244
0.025841
0.023568
-0.022252
0.021681
-0.067088
-0.064670
-0.069070
-0.000298
-0.001612
-0.070102
-0.070616
-0.066172
-0.041513
-0.041927
0.061422
0.064996
-0.039657
-0.043405
-0.038735
-0.019562
-0.026906
-0.041652
-0.005137
-0.001851
-0.066058
-0.009148
-0.005230
0.012562
0.012154
-0.029721
-0.030760
-0.032935
0.027536
0.002600
0.002325
0.059295
-0.005638
-0.014988
-0.009798
-0.012158
-0.051528
-0.053746
-0.053215
0.005247
-0.058621
0.006531
0.011516
-0.003986
-0.009471
-0.022643
0.019267
0.020988
0.018323
0.041797
0.039392
-0.063085
-0.064302
0.029944
0.021437
0.026333
0.040887
-0.004245
-0.043590
-0.060203
0.022469
-0.046235
-0.049794
0.016135
-0.049935
-0.040984
0.060631
0.059359
0.011974
0.079195
-0.066816
0.029078
-0.023546
-0.041989
-0.037330
-0.018805
-0.063023
-0.046412
-0.063798
0.054300
0.042980
0.043331
0.031019
0.072007
0.046170
0.012368
-0.024324
-0.022893
-0.039587
-0.037556
-0.034096
-0.034516
-0.033931
0.023047
0.025863
0.024008
0.013358
0.012133
0.034707
0.034404
0.031200
-0.034274
0.028287
0.053969
0.019622
0.025393
0.023563
-0.032031
0.047790
0.050556
0.020624
0.042882
0.041293
0.001393
-0.043722
-0.045020
-0.044332
-0.042435
0.032662
0.028652
0.041037
-0.057350
0.031663
-0.045444
-0.026790
-0.024764
-0.041315
-0.004058
0.055302
-0.054096
-0.055618
-0.053389
-0.019093
-0.056384
0.020622
-0.018311
-0.000592
-0.062490
-0.061357
-0.037026
0.003209
-0.034724
-0.034300
-0.004908
0.069268
0.070568
-0.049369
-0.033528
-0.056851
-0.004244
0.050759
0.044069
0.061379
0.053042
-0.004854
0.065790
-0.058625
-0.057366
-0.035178
-0.053165
-0.009145
-0.015586
-0.011016
-0.049063
-0.051558
-0.007329
-0.005245
-0.052498
-0.060437
-0.000584
-0.001136
-0.056881
-0.016937
-0.062907
-0.045077
-0.043664
-0.049144
-0.018489
0.007025
0.013870
0.017315
-0.018713
-0.046302
-0.050404
-0.004345
0.048400
-0.002951
0.032531
0.030016
0.035915
0.037970
0.028194
0.032643
-0.055406
-0.053053
-0.068747
0.037491
-0.044979
-0.003380
-0.001711
0.021513
-0.065386
0.031848
-0.008261
-0.007056
0.018418
0.027573
-0.071272
-0.086151
-0.010888
0.061714
-0.023235
0.038371
0.029700
-0.092033
-0.082197
-0.066549
0.076932
0.067086
-0.045720
-0.045698
-0.051866
0.020260
-0.026179
0.053635
0.000921
-0.010949
0.052539
0.030679
-0.064750
-0.091693
0.012804
-0.007928
-0.003933
-0.011554
0.033934
0.043992
0.018553
-0.028932
-0.034685
0.045453
0.017019
-0.060608
-0.059801
-0.064204
0.020115
0.034451
-0.061171
0.038920
0.045501
-0.046733
0.056394
0.036895
-0.055241
-0.058308
0.037475
-0.061813
-0.062269
-0.048809
0.002377
-0.006615
-0.010864
0.012258
-0.023288
0.054653
-0.054012
-0.052530
-0.041123
0.029745
-0.045115
-0.034471
-0.030871
0.039134
0.036890
-0.048608
-0.050893
-0.025038
0.021672
-0.054358
0.047491
-0.039964
0.041772
0.041543
0.041771
0.043980
0.032667
0.029348
0.035234
-0.037436
0.011252
-0.011332
0.016574
-0.030256
-0.029044
0.003101
0.006103
-0.057273
-0.047656
-0.042526
0.041000
0.040672
0.008044
0.038301
0.027865
-0.039421
-0.041828
0.009252
0.037673
0.007220
-0.051255
-0.051855
0.036642
0.032327
SCALARS UY float 1
LOOKUP_TABLE default
-0.000000
-0.000000
-0.550000
-0.550000
-0.158100
-0.387365
-0.000000
-0.000000
-0.000000
-0.000000
-0.000000
-0.000000
-0.000000
-0.000000
-0.000000
-0.068995
-0.124844
-0.177701
-0.228227
-0.276601
-0.324394
-0.374247
-0.429446
-0.488968
-0.550000
-0.550000
-0.550000
-0.550000
-0.550000
-0.550000
-0.550000
-0.550000
-0.550000
-0.492932
-0.436646
-0.381778
-0.329320
-0.280150
-0.232847
-0.184920
-0.131696
-0.071975
-0.164360
-0.170297
-0.176000
-0.177804
-0.183143
-0.188610
-0.190420
-0.195010
-0.199804
-0.204862
-0.207607
-0.211350
-0.215037
-0.219644
-0.222733
-0.226698
-0.230042
-0.234351
-0.239476
-0.241721
-0.246567
-0.249205
-0.253275
-0.258996
-0.262963
-0.265110
-0.269748
-0.273223
-0.277970
-0.281648
-0.286872
-0.287695
-0.293006
-0.297454
-0.299484
-0.304996
-0.310337
-0.312502
-0.318778
-0.322028
-0.326834
-0.329153
-0.332619
-0.338520
-0.342594
-0.346985
-0.349653
-0.355937
-0.358861
-0.363742
-0.370491
-0.372636
-0.380386
-0.338262
-0.343794
-0.344629
-0.351797
-0.158478
-0.161335
-0.151744
-0.201450
-0.196509
-0.195146
-0.470238
-0.505318
-0.468807
-0.188120
-0.232602
-0.226671
-0.223973
-0.497566
-0.218263
-0.220474
-0.217763
-0.235538
-0.258800
-0.224081
-0.260655
-0.117790
-0.134988
-0.131019
-0.401422
-0.407220
-0.396478
-0.033947
-0.045393
-0.075578
-0.398427
-0.194503
-0.190829
-0.204929
-0.178857
-0.222214
-0.228914
-0.177329
-0.171834
-0.167756
-0.226065
-0.218794
-0.164189
-0.312279
-0.309940
-0.307326
-0.244283
-0.248673
-0.253166
-0.319981
-0.317027
-0.308479
-0.254981
-0.273942
-0.255820
-0.218541
-0.225452
-0.229862
-0.256272
-0.246864
-0.275227
-0.408497
-0.422101
-0.405243
-0.218095
-0.131794
-0.110366
-0.303568
-0.176409
-0.179367
-0.315372
-0.308692
-0.169227
-0.363763
-0.367221
-0.352241
-0.377657
-0.317817
-0.325792
-0.275852
-0.270030
-0.270191
-0.288162
-0.296630
-0.293127
-0.263097
-0.362721
-0.369642
-0.369844
-0.306677
-0.229722
-0.230118
-0.224489
-0.218532
-0.224734
-0.228466
-0.283041
-0.280104
-0.280888
-0.283147
-0.218486
-0.231355
-0.247464
-0.224376
-0.363298
-0.374358
-0.364431
-0.301270
-0.235714
-0.223021
-0.226026
-0.232194
-0.356029
-0.347129
-0.466496
-0.509565
-0.503398
-0.311286
-0.283647
-0.292809
-0.393808
-0.397515
-0.406296
-0.398847
-0.255878
-0.266304
-0.260965
-0.178671
-0.172655
-0.163929
-0.326719
-0.337017
-0.264439
-0.273662
-0.265841
-0.273784
-0.260689
-0.304930
-0.313051
-0.307570
-0.225177
-0.226593
-0.235689
-0.224843
-0.211712
-0.217196
-0.357615
-0.367121
-0.359497
-0.367321
-0.181171
-0.173968
-0.180536
-0.172698
-0.351250
-0.361350
-0.315341
-0.311531
-0.304675
-0.188257
-0.179583
-0.167239
-0.183972
-0.189401
-0.126104
-0.134576
-0.128784
-0.355990
-0.369818
-0.346090
-0.357927
-0.348674
-0.337778
-0.337449
-0.260971
-0.259074
-0.267646
-0.360135
-0.348549
-0.304868
-0.267831
-0.242735
-0.204498
-0.202216
-0.211067
-0.252386
-0.243829
-0.257856
-0.248005
-0.275753
-0.266795
-0.272105
-0.271020
-0.316932
-0.312552
-0.309111
-0.317881
-0.185720
-0.191502
-0.195508
-0.284460
-0.288565
-0.277639
-0.142780
-0.135800
-0.237423
-0.238881
-0.239709
-0.238738
-0.249976
-0.159598
-0.156138
-0.159350
-0.170419
-0.162724
-0.231062
-0.205482
-0.209405
-0.214527
-0.449801
-0.433206
-0.437144
-0.146841
-0.303957
-0.114917
-0.115733
-0.098195
-0.169802
-0.166983
-0.178105
-0.025978
-0.031820
-0.054437
-0.100259
-0.082173
-0.289901
-0.290172
-0.276849
-0.089467
-0.101957
-0.120994
-0.181275
-0.187582
-0.198297
-0.209170
-0.346772
-0.341374
-0.339340
-0.444553
-0.427349
-0.352103
-0.232705
-0.201482
-0.220949
-0.372409
-0.376380
-0.363284
-0.427959
-0.419242
-0.344452
-0.359651
-0.237510
-0.250540
-0.241938
-0.255418
-0.227736
-0.235919
-0.262343
-0.052656
-0.045667
-0.073435
-0.067140
-0.195959
-0.202969
-0.240959
-0.211291
-0.321032
-0.297311
-0.518027
-0.483276
-0.294748
-0.294716
-0.266022
-0.282187
-0.337812
-0.343810
-0.379564
-0.348349
-0.119596
-0.357595
-0.370004
-0.382859
-0.353971
-0.355258
-0.357081
-0.371934
-0.178126
-0.209401
-0.322844
-0.373803
-0.348314
-0.410648
-0.104762
-0.098713
-0.086525
-0.341224
-0.353988
-0.338857
-0.116943
-0.201329
-0.185006
-0.184754
-0.242453
-0.150714
-0.152407
-0.154915
-0.148653
-0.163032
-0.459976
-0.471160
-0.328415
-0.451093
-0.419481
-0.434123
-0.342753
-0.334485
-0.410963
-0.328247
-0.169823
-0.331196
-0.197877
-0.211986
-0.185825
-0.442607
-0.080483
-0.075513
-0.065014
-0.156570
-0.111385
-0.502077
-0.461521
-0.189264
-0.041388
-0.077486
-0.173614
-0.176166
-0.127546
-0.424215
-0.419794
-0.445424
-0.243834
-0.252270
-0.363155
-0.377546
-0.264662
-0.259477
-0.405897
-0.398751
-0.366810
-0.272615
-0.263605
-0.406813
-0.418007
-0.412116
-0.230360
-0.242217
-0.043304
-0.199232
-0.187519
-0.020764
-0.065786
-0.028689
-0.033415
-0.202700
-0.302822
-0.220677
-0.300535
-0.340540
-0.316379
-0.334131
-0.337327
-0.327286
-0.351572
-0.281511
-0.280788
-0.305645
-0.312860
-0.375890
-0.382811
-0.315237
-0.336875
-0.301226
-0.277157
-0.294874
-0.308493
-0.093561
-0.086731
-0.435434
-0.411896
-0.260476
-0.265443
-0.269746
-0.258610
-0.392806
-0.294442
-0.302199
-0.299517
-0.313259
-0.289755
-0.276332
-0.378733
-0.382514
-0.161705
-0.155141
-0.353404
-0.325644
-0.344315
-0.306009
-0.060982
-0.145188
-0.139875
-0.421327
-0.273685
-0.263639
-0.368847
-0.370782
-0.354666
-0.341661
-0.191618
-0.185376
-0.198149
-0.189482
-0.514187
-0.480737
-0.484914
-0.177443
-0.509732
-0.338657
-0.341295
-0.141803
-0.131926
-0.141386
-0.199603
-0.196597
-0.138496
-0.187416
-0.202705
-0.202964
-0.201599
-0.374421
-0.383047
-0.229939
-0.243046
-0.190094
-0.338812
-0.343513
-0.311209
-0.312282
-0.357814
-0.329172
-0.341636
-0.350677
-0.294259
-0.306675
-0.379893
-0.390113
-0.271439
-0.185622
-0.175792
-0.391058
-0.400386
-0.333230
-0.338920
-0.334567
-0.232967
-0.459514
-0.441819
-0.356449
-0.161053
-0.374757
-0.383412
-0.383251
-0.313794
-0.315072
-0.324436
-0.144858
-0.258559
-0.392737
-0.383090
-0.450725
-0.471070
-0.146746
-0.200381
-0.203864
-0.205516
-0.293025
-0.290272
-0.288462
-0.298743
-0.164865
-0.139639
-0.136271
-0.223078
-0.369296
-0.317221
-0.250343
-0.106588
-0.327581
-0.312200
-0.162950
-0.326059
-0.323125
-0.332033
-0.330755
-0.131266
-0.296501
-0.210684
-0.205300
-0.391610
-0.097184
-0.107806
-0.068753
-0.133697
-0.092467
-0.237400
-0.454293
-0.478999
-0.449781
-0.478911
-0.417290
-0.223209
-0.191556
-0.323204
-0.328344
-0.323315
-0.321425
-0.352474
-0.133974
-0.138771
-0.206683
-0.212203
-0.213736
-0.214777
-0.210859
-0.213826
-0.218857
-0.197147
-0.393611
-0.211774
-0.135810
-0.162220
-0.178533
-0.160863
-0.328035
-0.288789
-0.284208
-0.210928
-0.253151
-0.246498
-0.388001
-0.319675
-0.318275
-0.153185
-0.326069
-0.136677
-0.108510
-0.134424
-0.429337
-0.213473
-0.148041
-0.318037
-0.312083
-0.325346
-0.428256
-0.369699
-0.294293
-0.286954
-0.292627
-0.356900
-0.289198
-0.224641
-0.365145
-0.149028
-0.252435
-0.244550
-0.327816
-0.154269
-0.329578
-0.323337
-0.155917
-0.312249
-0.290420
-0.142424
-0.120449
-0.139189
-0.146778
-0.271286
-0.425117
-0.410185
-0.397476
-0.390819
-0.297269
-0.280226
-0.282116
-0.334270
-0.253665
-0.400455
-0.388488
-0.390665
-0.310560
-0.302161
-0.392150
-0.401967
-0.231859
-0.237252
-0.185379
-0.403223
-0.280479
-0.377793
-0.275334
-0.282203
-0.286828
-0.292037
-0.456439
-0.164964
-0.148044
-0.144293
-0.393811
-0.297424
-0.287169
-0.114934
-0.325817
-0.130725
-0.252771
-0.248296
-0.241205
-0.249450
-0.244838
-0.398855
-0.282877
-0.288002
-0.215299
-0.230386
-0.321047
-0.412820
-0.080544
-0.472210
-0.213369
-0.511980
-0.102957
-0.127493
-0.044952
-0.052650
-0.501172
-0.497254
-0.128318
-0.327057
-0.048820
-0.088140
-0.088688
-0.206951
-0.452565
-0.451603
-0.380424
-0.377460
-0.271640
-0.278061
-0.280987
-0.507564
-0.093988
-0.272888
-0.143197
-0.408503
-0.234281
-0.451084
-0.168752
-0.419490
-0.409484
-0.137349
-0.138418
-0.350971
-0.405458
-0.169311
-0.174992
-0.391533
-0.376429
-0.384427
-0.221857
-0.209818
-0.213647
-0.217761
-0.387755
-0.159339
-0.202741
-0.279832
-0.384253
-0.318837
-0.336312
-0.211660
-0.166091
-0.173022
-0.226271
-0.177833
-0.178673
-0.254047
-0.189470
-0.170203
-0.168854
-0.206309
-0.333616
-0.291670
-0.280918
-0.274706
-0.371084
-0.218300
-0.156896
-0.310532
-0.313833
-0.240272
-0.234304
-0.298732
-0.293645
-0.155869
-0.197124
-0.239210
-0.389840
-0.334631
-0.299004
-0.262474
-0.255045
-0.259532
-0.273681
-0.259969
-0.232782
-0.286863
-0.223001
-0.343533
-0.241483
-0.149813
-0.288862
-0.196044
-0.207320
-0.194652
-0.262939
-0.264217
-0.306134
-0.248465
-0.196754
-0.241469
-0.238448
-0.293998
-0.299957
-0.359720
-0.273077
-0.201087
-0.299292
-0.294646
-0.236968
-0.241606
SCALARS DAMAGE float 1
LOOKUP_TABLE default
0.999459
0.999482
0.999609
0.999656
0.000000
0.000000
0.999664
0.999735
0.999781
0.999802
0.999795
0.999776
0.999745
0.999713
0.999644
0.999567
0.999673
0.999712
0.999736
0.999745
0.999746
0.999700
0.999645
0.999612
0.999653
0.999691
0.999736
0.999752
0.999737
0.999712
0.999694
0.999679
0.999669
0.999655
0.999669
0.999689
0.999721
0.999744
0.999758
0.999716
0.999666
0.999496
-0.000000
0.000000
0.000000
0.000000
0.000000
0.000000
0.000000
0.000000
0.000000
0.000000
0.000000
0.000000
0.000000
0.000000
0.000000
0.000000
0.000000
0.000000
0.000000
0.000000
0.000000
0.000000
0.000000
0.000000
0.000000
0.000000
0.000000
0.000000
0.000000
0.000000
0.000000
0.000000
0.000000
0.000000
0.000000
0.000000
0.000000
0.000000
0.000000
0.000000
0.000000
0.000000
0.000000
0.000000
0.000000
0.000000
0.000000
0.000000
0.000000
0.000000
0.000000
0.000000
-0.000000
0.678432
0.728143
0.862800
0.890002
0.481407
0.344823
0.649472
0.685290
0.689803
0.857459
0.999701
0.999704
0.999693
0.879758
0.980226
0.977357
0.991504
0.999690
0.988513
0.443443
0.491190
0.999672
0.999691
0.999688
0.999670
0.999744
0.999718
0.999687
0.943527
0.987688
0.947061
0.999754
0.999739
0.999729
0.981773
0.999144
0.999605
0.999232
0.999669
0.970051
0.952675
0.900838
0.889918
0.970459
0.933627
0.954787
0.953244
0.820116
0.870289
0.763340
0.447930
0.444659
0.669919
0.433088
0.389504
0.707962
0.999464
0.999646
0.999636
0.748364
0.668442
0.466431
0.999652
0.999661
0.999656
0.999709
0.999714
0.999710
0.844169
0.999732
0.999738
0.751100
0.726392
0.752439
0.683686
0.868412
0.844710
0.999486
0.999673
0.999451
0.999679
0.811413
0.515921
0.798122
0.754337
0.638069
0.879180
0.761257
0.673134
0.496067
0.768530
0.834752
0.898208
0.539570
0.878866
0.775236
0.895397
0.930678
0.903861
0.977843
0.999681
0.999705
0.917768
0.970327
0.999671
0.999686
0.999674
0.807070
0.509955
0.827803
0.681109
0.789978
0.751860
0.744732
0.687305
0.869735
0.350893
0.474790
0.999638
0.999631
0.999664
0.999673
0.999668
0.999663
0.513278
0.484191
0.844976
0.747065
0.706780
0.439277
0.448410
0.543911
0.656823
0.834151
0.717964
0.392337
0.715179
0.881043
0.873286
0.956844
0.999662
0.887667
0.951892
0.948379
0.433317
0.382377
0.675560
0.999088
0.998020
0.995917
0.880898
0.966870
0.960452
0.985082
0.915971
0.965898
0.959724
0.983649
0.957639
0.987048
0.972382
0.939060
0.986000
0.955014
0.983889
0.998721
0.995943
0.999618
0.994580
0.976975
0.980857
0.999651
0.999164
0.999227
0.994030
0.716902
0.453920
0.373198
0.922552
0.971377
0.936725
0.475732
0.689388
0.999691
0.999697
0.999717
0.931411
0.978706
0.931406
0.991782
0.998206
0.997273
0.999422
0.630731
0.782187
0.823338
0.999658
0.726725
0.732412
0.540858
0.850349
0.525774
0.473128
0.729742
0.996769
0.985588
0.994646
0.955570
0.987793
0.999367
0.999613
0.981626
0.995964
0.976523
0.985729
0.977614
0.692111
0.366563
0.493352
0.703045
0.988618
0.993881
0.980730
0.999748
0.999484
0.999799
0.970808
0.462624
0.998300
0.999400
0.999764
0.994457
0.998474
0.994631
0.999797
0.999784
0.999784
0.999750
0.999753
0.996911
0.999116
0.996085
0.999736
0.999756
0.999723
0.999702
0.999692
0.999693
0.999687