# vtk DataFile Version 2.0
Test
ASCII
DATASET POLYDATA
POINTS 858 float
0.000000 0.000000 0.000000
1.000000 0.000000 0.000000
1.000000 1.000000 0.000000
0.000000 1.000000 0.000000
0.300000 0.330000 0.000000
0.700000 0.680000 0.000000
0.100000 0.000000 0.000000
0.200000 0.000000 0.000000
0.300000 0.000000 0.000000
0.400000 0.000000 0.000000
0.500000 0.000000 0.000000
0.600000 0.000000 0.000000
0.700000 0.000000 0.000000
0.800000 0.000000 0.000000
0.900000 0.000000 0.000000
1.000000 0.100000 0.000000
1.000000 0.200000 0.000000
1.000000 0.300000 0.000000
1.000000 0.400000 0.000000
1.000000 0.500000 0.000000
1.000000 0.600000 0.000000
1.000000 0.700000 0.000000
1.000000 0.800000 0.000000
1.000000 0.900000 0.000000
0.900000 1.000000 0.000000
0.800000 1.000000 0.000000
0.700000 1.000000 0.000000
0.600000 1.000000 0.000000
0.500000 1.000000 0.000000
0.400000 1.000000 0.000000
0.300000 1.000000 0.000000
0.200000 1.000000 0.000000
0.100000 1.000000 0.000000
0.000000 0.900000 0.000000
0.000000 0.800000 0.000000
0.000000 0.700000 0.000000
0.000000 0.600000 0.000000
0.000000 0.500000 0.000000
0.000000 0.400000 0.000000
0.000000 0.300000 0.000000
0.000000 0.200000 0.000000
0.000000 0.100000 0.000000
0.307407 0.336481 0.000000
0.314815 0.342963 0.000000
0.322222 0.349444 0.000000
0.329630 0.355926 0.000000
0.337037 0.362407 0.000000
0.344444 0.368889 0.000000
0.351852 0.375370 0.000000
0.359259 0.381852 0.000000
0.366667 0.388333 0.000000
0.374074 0.394815 0.000000
0.381481 0.401296 0.000000
0.388889 0.407778 0.000000
0.396296 0.414259 0.000000
0.403704 0.420741 0.000000
0.411111 0.427222 0.000000
0.418519 0.433704 0.000000
0.425926 0.440185 0.000000
0.433333 0.446667 0.000000
0.440741 0.453148 0.000000
0.448148 0.459630 0.000000
0.455556 0.466111 0.000000
0.462963 0.472593 0.000000
0.470370 0.479074 0.000000
0.477778 0.485556 0.000000
0.485185 0.492037 0.000000
0.492593 0.498519 0.000000
0.500000 0.505000 0.000000
0.507407 0.511481 0.000000
0.514815 0.517963 0.000000
0.522222 0.524444 0.000000
0.529630 0.530926 0.000000
0.537037 0.537407 0.000000
0.544444 0.543889 0.000000
0.551852 0.550370 0.000000
0.559259 0.556852 0.000000
0.566667 0.563333 0.000000
0.574074 0.569815 0.000000
0.581481 0.576296 0.000000
0.588889 0.582778 0.000000
0.596296 0.589259 0.000000
0.603704 0.595741 0.000000
0.611111 0.602222 0.000000
0.618519 0.608704 0.000000
0.625926 0.615185 0.000000
0.633333 0.621667 0.000000
0.640741 0.628148 0.000000
0.648148 0.634630 0.000000
0.655556 0.641111 0.000000
0.662963 0.647593 0.000000
0.670370 0.654074 0.000000
0.677778 0.660556 0.000000
0.685185 0.667037 0.000000
0.692593 0.673519 0.000000
0.548037 0.570873 0.000000
0.554453 0.579695 0.000000
0.540788 0.582045 0.000000
0.550492 0.594703 0.000000
0.338797 0.350505 0.000000
0.329823 0.347064 0.000000
0.335712 0.339262 0.000000
0.451687 0.438509 0.000000
0.442642 0.430741 0.000000
0.457884 0.427703 0.000000
0.387297 0.847474 0.000000
0.374793 0.914734 0.000000
0.332869 0.847471 0.000000
0.447069 0.415163 0.000000
0.567391 0.482596 0.000000
0.554659 0.473874 0.000000
0.567453 0.464800 0.000000
0.301190 0.902112 0.000000
0.551747 0.457138 0.000000
0.356532 0.391813 0.000000
0.347986 0.386048 0.000000
0.176207 0.429241 0.000000
0.128375 0.468105 0.000000
0.136378 0.404291 0.000000
0.185621 0.475277 0.000000
0.497512 0.261165 0.000000
0.499167 0.296032 0.000000
0.469918 0.291504 0.000000
0.642232 0.687989 0.000000
0.624295 0.701188 0.000000
0.630549 0.678643 0.000000
0.647682 0.074905 0.000000
0.700945 0.096046 0.000000
0.657288 0.160421 0.000000
0.611443 0.684403 0.000000
0.559779 0.406431 0.000000
0.582162 0.394521 0.000000
0.580552 0.422827 0.000000
0.560788 0.374759 0.000000
0.541503 0.468043 0.000000
0.545465 0.480978 0.000000
0.428301 0.394826 0.000000
0.414860 0.384611 0.000000
0.432086 0.374027 0.000000
0.533961 0.477886 0.000000
0.527361 0.464336 0.000000
0.415481 0.368142 0.000000
0.484401 0.527206 0.000000
0.472984 0.524144 0.000000
0.481205 0.518972 0.000000
0.394266 0.424909 0.000000
0.401826 0.431399 0.000000
0.392742 0.434502 0.000000
0.642418 0.617836 0.000000
0.635302 0.612878 0.000000
0.644322 0.605726 0.000000
0.263646 0.464175 0.000000
0.250486 0.498376 0.000000
0.230296 0.467342 0.000000
0.491693 0.468898 0.000000
0.498004 0.479972 0.000000
0.487381 0.480785 0.000000
0.718619 0.489140 0.000000
0.756680 0.466072 0.000000
0.751564 0.516847 0.000000
0.497232 0.719177 0.000000
0.477497 0.748035 0.000000
0.465924 0.716726 0.000000
0.501292 0.467390 0.000000
0.529064 0.285755 0.000000
0.547173 0.240449 0.000000
0.474742 0.511943 0.000000
0.403118 0.392815 0.000000
0.412434 0.399392 0.000000
0.653057 0.614785 0.000000
0.659187 0.602396 0.000000
0.400247 0.379451 0.000000
0.459133 0.636583 0.000000
0.434636 0.647284 0.000000
0.440667 0.616932 0.000000
0.453650 0.664799 0.000000
0.666296 0.616100 0.000000
0.657731 0.628197 0.000000
0.420489 0.468863 0.000000
0.414183 0.459489 0.000000
0.424065 0.460120 0.000000
0.629321 0.574616 0.000000
0.630370 0.589442 0.000000
0.617226 0.584388 0.000000
0.422026 0.450877 0.000000
0.590180 0.614274 0.000000
0.596278 0.627413 0.000000
0.585881 0.628067 0.000000
0.630677 0.603443 0.000000
0.529117 0.486095 0.000000
0.517046 0.488781 0.000000
0.522040 0.477224 0.000000
0.308641 0.392803 0.000000
0.323746 0.398675 0.000000
0.304273 0.411173 0.000000
0.146020 0.514086 0.000000
0.087335 0.505198 0.000000
0.624982 0.561914 0.000000
0.643811 0.559907 0.000000
0.831909 0.406061 0.000000
0.881376 0.423788 0.000000
0.839177 0.457573 0.000000
0.509066 0.478681 0.000000
0.614792 0.620247 0.000000
0.608406 0.635616 0.000000
0.603251 0.619643 0.000000
0.640290 0.595050 0.000000
0.524731 0.497540 0.000000
0.338689 0.392113 0.000000
0.347423 0.395876 0.000000
0.340116 0.407012 0.000000
0.686563 0.659098 0.000000
0.682555 0.651347 0.000000
0.934704 0.856355 0.000000
0.940546 0.930926 0.000000
0.863552 0.916423 0.000000
0.172107 0.566287 0.000000
0.188105 0.516551 0.000000
0.221330 0.532895 0.000000
0.683914 0.680068 0.000000
0.692945 0.685712 0.000000
0.683376 0.697853 0.000000
0.672414 0.683990 0.000000
0.557147 0.529227 0.000000
0.554161 0.540325 0.000000
0.546244 0.533101 0.000000
0.391911 0.394487 0.000000
0.387591 0.383772 0.000000
0.385780 0.368800 0.000000
0.671617 0.628861 0.000000
0.664093 0.637808 0.000000
0.408700 0.450928 0.000000
0.406517 0.467364 0.000000
0.394366 0.455525 0.000000
0.388841 0.472148 0.000000
0.792728 0.486062 0.000000
0.461047 0.516036 0.000000
0.460182 0.532753 0.000000
0.450617 0.523703 0.000000
0.364207 0.398120 0.000000
0.371344 0.402923 0.000000
0.362621 0.408449 0.000000
0.235276 0.413110 0.000000
0.235915 0.390376 0.000000
0.260894 0.399649 0.000000
0.564107 0.604249 0.000000
0.558497 0.625526 0.000000
0.545610 0.611482 0.000000
0.542035 0.628852 0.000000
0.441269 0.401429 0.000000
0.443649 0.385779 0.000000
0.454140 0.398188 0.000000
0.456246 0.380948 0.000000
0.531090 0.597071 0.000000
0.528592 0.618783 0.000000
0.693800 0.600685 0.000000
0.675646 0.601117 0.000000
0.688895 0.583493 0.000000
0.466943 0.412411 0.000000
0.469666 0.393398 0.000000
0.215629 0.311290 0.000000
0.236374 0.342186 0.000000
0.194357 0.347185 0.000000
0.372859 0.289727 0.000000
0.362694 0.307734 0.000000
0.346245 0.295576 0.000000
0.824768 0.656091 0.000000
0.787989 0.680173 0.000000
0.787481 0.637866 0.000000
0.763354 0.658567 0.000000
0.564845 0.587843 0.000000
0.565674 0.575091 0.000000
0.575285 0.580662 0.000000
0.591463 0.532694 0.000000
0.606735 0.524365 0.000000
0.606700 0.541268 0.000000
0.696107 0.663701 0.000000
0.695223 0.651919 0.000000
0.114270 0.553146 0.000000
0.897846 0.490106 0.000000
0.941355 0.438159 0.000000
0.491870 0.442127 0.000000
0.508682 0.433741 0.000000
0.504276 0.453072 0.000000
0.616608 0.507977 0.000000
0.629719 0.487283 0.000000
0.643435 0.510566 0.000000
0.660659 0.486926 0.000000
0.584650 0.557787 0.000000
0.582076 0.545531 0.000000
0.595086 0.552412 0.000000
0.215445 0.494211 0.000000
0.502563 0.534321 0.000000
0.493623 0.527201 0.000000
0.502900 0.523550 0.000000
0.490744 0.536689 0.000000
0.303740 0.348241 0.000000
0.312638 0.354325 0.000000
0.302746 0.359450 0.000000
0.683727 0.548378 0.000000
0.666144 0.562133 0.000000
0.663581 0.542222 0.000000
0.366098 0.324774 0.000000
0.379406 0.309842 0.000000
0.251675 0.434611 0.000000
0.214900 0.437402 0.000000
0.581091 0.493223 0.000000
0.603283 0.484739 0.000000
0.593195 0.510449 0.000000
0.429738 0.356510 0.000000
0.412970 0.350726 0.000000
0.358920 0.356811 0.000000
0.352460 0.366146 0.000000
0.347463 0.357590 0.000000
0.353794 0.402394 0.000000
0.527483 0.436280 0.000000
0.546965 0.439869 0.000000
0.535210 0.453469 0.000000
0.624606 0.790385 0.000000
0.614250 0.755688 0.000000
0.654837 0.763041 0.000000
0.384960 0.332814 0.000000
0.619946 0.597007 0.000000
0.358705 0.265521 0.000000
0.397502 0.266486 0.000000
0.377869 0.228897 0.000000
0.471169 0.372235 0.000000
0.492664 0.362648 0.000000
0.488718 0.386734 0.000000
0.431288 0.062893 0.000000
0.512348 0.074893 0.000000
0.450325 0.128772 0.000000
0.515327 0.223180 0.000000
0.538419 0.183215 0.000000
0.367912 0.509419 0.000000
0.343175 0.515399 0.000000
0.351317 0.488263 0.000000
0.593186 0.193353 0.000000
0.476496 0.230456 0.000000
0.594140 0.256114 0.000000
0.629340 0.367381 0.000000
0.659922 0.374166 0.000000
0.641019 0.397588 0.000000
0.669525 0.412603 0.000000
0.510665 0.591750 0.000000
0.493263 0.584115 0.000000
0.507476 0.576852 0.000000
0.492575 0.790205 0.000000
0.516533 0.753914 0.000000
0.493265 0.606545 0.000000
0.794852 0.435952 0.000000
0.797754 0.379724 0.000000
0.755728 0.420083 0.000000
0.528549 0.642034 0.000000
0.507334 0.653897 0.000000
0.509532 0.626562 0.000000
0.580705 0.748031 0.000000
0.605192 0.727758 0.000000
0.748472 0.635779 0.000000
0.742539 0.660255 0.000000
0.323194 0.421808 0.000000
0.325468 0.445306 0.000000
0.301700 0.435431 0.000000
0.295276 0.460827 0.000000
0.622421 0.457821 0.000000
0.642814 0.468538 0.000000
0.320303 0.468200 0.000000
[...]
POINT_DATA 858
SCALARS UX float 1
LOOKUP_TABLE default
-0.000000
0.000000
0.090554
-0.122193
-0.060328
0.054446
0.000000
-0.000000
-0.000000
-0.000000
-0.000000
0.000000
0.000000
0.000000
-0.000000
0.051246
0.081552
0.101947
0.117467
0.127353
0.128070
0.118753
0.104413
0.093948
0.067844
0.045533
0.024823
0.006232
-0.013291
-0.034192
-0.055943
-0.078297
-0.100350
-0.123806
-0.127747
-0.133892
-0.139905
-0.142300
-0.135335
-0.116517
-0.087669
-0.054180
-0.057769
-0.054484
-0.051373
-0.051885
-0.048510
-0.044931
-0.045654
-0.043402
-0.040926
-0.038559
-0.040095
-0.037128
-0.035076
-0.032129
-0.031531
-0.028908
-0.028078
-0.026068
-0.022845
-0.022374
-0.019176
-0.018441
-0.016409
-0.012808
-0.011074
-0.011685
-0.007631
-0.006430
-0.003440
-0.001392
0.002437
0.001952
0.005629
0.008307
0.008543
0.012159
0.015494
0.016583
0.016148
0.017803
0.021564
0.023082
0.024831
0.028713
0.030655
0.032254
0.033245
0.037750
0.038904
0.040922
0.045891
0.045604
0.050782
-0.036186
-0.034138
-0.037522
-0.033336
-0.023452
-0.031682
-0.024101
0.021807
0.018556
0.022549
-0.039422
-0.040248
-0.051682
0.018488
0.047763
0.044671
0.044673
-0.057083
0.041336
-0.073673
-0.077196
-0.106203
-0.116610
-0.110570
-0.106182
0.003134
0.006665
0.001068
0.010623
0.007783
0.004379
0.005996
0.012055
0.015925
0.000296
0.033321
0.034760
0.039157
0.028167
0.042021
0.044686
0.011441
0.006998
0.007993
0.042668
0.039628
0.003985
-0.055896
-0.058317
-0.056978
-0.068593
-0.067993
-0.074952
0.063742
0.059479
0.070654
-0.092440
-0.093653
-0.098119
0.034229
0.035635
0.027182
0.071039
0.075756
0.080039
-0.022151
-0.024006
-0.029594
0.036357
0.010541
0.009137
-0.058310
0.004848
0.007945
0.071564
0.073469
0.003211
-0.041552
-0.044751
-0.047983
-0.038512
0.074605
0.069262
-0.071307
-0.072445
-0.069272
0.067733
0.068027
0.064662
-0.067497
-0.020371
-0.016857
-0.019342
0.065591
0.042995
0.040533
0.040854
-0.086524
-0.085140
-0.087220
-0.113467
-0.125075
0.066174
0.068081
0.083758
0.096528
0.091583
0.038779
-0.008558
-0.012176
-0.014896
0.070074
0.042564
-0.082594
-0.080992
-0.083490
0.066052
0.070512
0.082695
0.078478
0.061321
-0.106190
-0.105026
-0.097703
0.030623
0.039601
0.031235
0.022144
0.051184
0.044737
0.042940
0.000183
-0.000691
-0.001593
0.074774
0.064584
-0.073653
-0.073813
-0.076311
-0.075618
0.085089
-0.061023
-0.058990
-0.061486
-0.070831
-0.066062
-0.079272
-0.096307
-0.094529
-0.092461
-0.028607
-0.025438
-0.030757
-0.027713
0.014921
0.012261
0.016429
0.013228
-0.036462
-0.032237
0.077118
0.075181
0.075521
0.021350
0.017809
-0.076037
-0.084614
-0.091365
-0.018982
-0.019994
-0.026010
0.090716
0.079955
0.088419
0.082114
-0.030433
-0.025776
-0.017937
0.058639
0.059305
0.061825
0.070753
0.075454
-0.118750
0.106560
0.110513
0.030652
0.031439
0.034573
0.057966
0.056538
0.061709
0.060936
0.057308
0.058459
0.061505
-0.100371
-0.050826
-0.053383
-0.048789
-0.053602
-0.078507
-0.076990
-0.083476
0.071555
0.070833
0.068297
-0.016166
-0.015285
-0.094596
-0.100390
0.051250
0.052588
0.055495
0.003919
-0.000208
-0.012077
-0.021277
-0.018187
-0.080499
0.034391
0.037577
0.038635
0.012710
0.009916
0.020176
-0.009771
0.060364
-0.022300
-0.014353
-0.016894
0.013771
0.015351
0.019289
-0.002865
-0.000363
-0.004717
0.003458
0.004263
-0.073906
-0.076792
-0.078195
0.011453
-0.001786
0.017752
0.038476
0.044978
0.045002
0.052212
-0.040862
-0.045110
-0.044339
-0.017795
-0.014346
-0.040698
0.079935
0.072919
0.069856
-0.027405
-0.029279
-0.034003
0.000885
0.005846
0.084270
0.079999
-0.085214
-0.084238
-0.087417
-0.087543
0.050954
0.055613
-0.083742
0.004825
-0.007957
-0.006713
-0.010170
-0.099301
-0.109169
-0.124845
-0.100898
-0.091054
-0.089098
-0.022913
-0.025059
0.073409
0.075390
-0.089373
-0.087597
-0.114367
-0.097944
-0.115750
-0.126851
-0.030062
-0.068460
-0.060389
-0.064497
-0.061933
-0.011845
-0.008990
-0.102356
0.086283
0.100564
0.076905
-0.087646
-0.085862
-0.101884
-0.025266
-0.028845
-0.020244
-0.057945
-0.056200
-0.063177
-0.034147
0.085473
0.014606
0.011373
-0.083358
-0.016358
-0.010856
0.011475
0.012754
0.016779
0.019443
0.010899
0.087042
-0.034213
-0.043159
-0.029303
-0.046736
-0.049631
-0.034333
0.091225
0.071036
-0.048950
0.061921
0.060405
0.051210
-0.046981
-0.014805
-0.021554
-0.014738
0.008390
0.022488
-0.072080
-0.067506
0.012717
0.015261
0.024588
-0.099851
-0.093721
-0.037094
0.031895
0.044995
0.028636
-0.081600
-0.081958
-0.037684
-0.033504
0.065324
0.066892
-0.087206
-0.072442
-0.076038
0.095243
-0.080960
0.022653
0.025075
0.034270
0.057394
0.063808
-0.010843
-0.090664
-0.085568
-0.003724
-0.030405
-0.013581
-0.011460
-0.094246
-0.071605
-0.099162
-0.069066
-0.078801
-0.081225
-0.070966
0.081576
0.082860
0.080526
0.058135
0.062125
-0.063571
-0.060769
-0.015148
-0.008705
0.096175
0.095680
-0.063796
0.073314
0.079464
-0.075176
-0.006672
-0.011292
-0.061092
-0.056797
-0.079647
-0.077799
-0.078039
-0.078097
-0.053926
0.070231
0.071810
0.072804
-0.128868
0.043620
0.063985
0.003194
0.007546
0.000812
-0.003739
0.098723
0.104317
0.112071
0.115114
0.000128
-0.023772
-0.022182
0.014959
0.064664
0.061828
0.075126
0.073497
-0.036979
-0.041285
0.024622
0.021728
0.026351
0.025533
0.011539
0.003065
0.016357
0.021773
-0.006798
0.077470
0.079700
-0.043588
-0.035150
-0.035128
0.033188
0.030263
-0.028699
0.027864
-0.086395
-0.083276
-0.088958
-0.000290
-0.001991
-0.090243
-0.090897
-0.085239
-0.053403
-0.053950
0.079153
0.083774
-0.051048
-0.055813
-0.049827
-0.025130
-0.034246
-0.053439
-0.006525
-0.002295
-0.084993
-0.011834
-0.006794
0.016269
0.015742
-0.038213
-0.039548
-0.042347
0.034857
0.003440
0.003082
0.076536
-0.007298
-0.019221
-0.012534
-0.015578
-0.066263
-0.069141
-0.068481
0.006745
-0.075232
0.008507
0.014948
-0.005064
-0.012147
-0.029196
0.024644
0.026860
0.023387
0.053791
0.050677
-0.081168
-0.082766
0.038583
0.027631
0.033951
0.052617
-0.005347
-0.055973
-0.077345
0.028986
-0.059466
-0.064001
0.020765
-0.064246
-0.052663
0.078120
0.076467
0.015432
0.102127
-0.086026
0.037351
-0.030289
-0.054179
-0.048158
-0.024274
-0.081300
-0.059893
-0.082028
0.070170
0.055576
0.056010
0.040136
0.092991
0.059463
0.015753
-0.031276
-0.029430
-0.050871
-0.048254
-0.043865
-0.044508
-0.043749
0.029515
0.033132
0.030718
0.016923
0.015311
0.044623
0.044195
0.040140
-0.044137
0.036264
0.069627
0.025264
0.032682
0.030351
-0.041180
0.061511
0.065070
0.026347
0.055075
0.053017
0.001889
-0.056159
-0.057826
-0.057144
-0.054543
0.042119
0.036964
0.052934
-0.073936
0.040657
-0.058588
-0.034438
-0.031841
-0.053098
-0.005153
0.071388
-0.069488
-0.071425
-0.068533
-0.024524
-0.072449
0.026312
-0.023508
-0.000790
-0.080312
-0.078851
-0.047600
0.004104
-0.044646
-0.044090
-0.006357
0.089302
0.090975
-0.063659
-0.043246
-0.073319
-0.005497
0.065332
0.056942
0.079264
0.068490
-0.006164
0.084800
-0.075326
-0.073682
-0.045234
-0.068130
-0.011705
-0.020009
-0.014110
-0.063030
-0.066222
-0.009356
-0.006674
-0.067468
-0.077678
-0.000863
-0.001378
-0.073023
-0.021740
-0.080905
-0.057445
-0.055445
-0.062847
-0.023789
0.009006
0.017863
0.022310
-0.024052
-0.059129
-0.064515
-0.005610
0.062210
-0.003819
0.041542
0.038297
0.045975
0.048642
0.035798
0.042172
-0.071107
-0.068035
-0.088512
0.048146
-0.057799
-0.004272
-0.002204
0.027862
-0.084174
0.041218
-0.010664
-0.009113
0.023775
0.035590
-0.091937
-0.111142
-0.014055
0.079528
-0.029993
0.049518
0.038323
-0.118657
-0.106019
-0.085822
0.099301
0.086585
-0.058475
-0.058363
-0.066443
0.026253
-0.033779
0.069073
0.001166
-0.014039
0.067689
0.039684
-0.083473
-0.118257
0.016589
-0.010242
-0.005091
-0.014820
0.043845
0.056717
0.023861
-0.037241
-0.044653
0.058684
0.021669
-0.078015
-0.076955
-0.082635
0.026009
0.044407
-0.078759
0.050030
0.058749
-0.060063
0.072522
0.047474
-0.071200
-0.075140
0.048158
-0.079638
-0.080234
-0.062390
0.002908
-0.008567
-0.014024
0.015403
-0.029932
0.070385
-0.069262
-0.067299
-0.052955
0.038069
-0.058146
-0.044237
-0.039635
0.050211
0.047300
-0.062231
-0.065206
-0.032272
0.027802
-0.069832
0.061320
-0.051392
0.053780
0.053344
0.053623
0.056504
0.041924
0.037489
0.045109
-0.047255
0.014242
-0.014545
0.020754
-0.038998
-0.037096
0.003880
0.007364
-0.073754
-0.061000
-0.054404
0.052801
0.052187
0.010219
0.049102
0.035378
-0.049783
-0.053281
0.012055
0.048394
0.009136
-0.065783
-0.066510
0.046949
0.041255
SCALARS UY float 1
LOOKUP_TABLE default
-0.000000
-0.000000
-0.710000
-0.710000
-0.204135
-0.499983
-0.000000
-0.000000
-0.000000
-0.000000
-0.000000
-0.000000
-0.000000
-0.000000
-0.000000
-0.089051
-0.161133
-0.229365
-0.294604
-0.357087
-0.418821
-0.483190
-0.554428
-0.631236
-0.710000
-0.710000
-0.710000
-0.710000
-0.710000
-0.710000
-0.710000
-0.710000
-0.710000
-0.636341
-0.563694
-0.492875
-0.425144
-0.361635
-0.300531
-0.238645
-0.169952
-0.092896
-0.212215
-0.219876
-0.227235
-0.229574
-0.236464
-0.243519
-0.245866
-0.251787
-0.257962
-0.264502
-0.268060
-0.272890
-0.277645
-0.283606
-0.287687
-0.292854
-0.297293
-0.302585
-0.309285
-0.312187
-0.318464
-0.321899
-0.327204
-0.334634
-0.339572
-0.341933
-0.348408
-0.352534
-0.358886
-0.363642
-0.370280
-0.371381
-0.378208
-0.383958
-0.386591
-0.393697
-0.400588
-0.403392
-0.411475
-0.415677
-0.421877
-0.424876
-0.429337
-0.436970
-0.442224
-0.447871
-0.451301
-0.459399
-0.463329
-0.469433
-0.478129
-0.480923
-0.490959
-0.436448
-0.443604
-0.444664
-0.453938
-0.204698
-0.208359
-0.196002
-0.260310
-0.253915
-0.252147
-0.606991
-0.652297
-0.605155
-0.243051
-0.300337
-0.292681
-0.289186
-0.642294
-0.281819
-0.284527
-0.281047
-0.304041
-0.334073
-0.289244
-0.336472
-0.152150
-0.174362
-0.169255
-0.518068
-0.525557
-0.511687
-0.043833
-0.058607
-0.097582
-0.514204
-0.251147
-0.246390
-0.264589
-0.230953
-0.286928
-0.295587
-0.229131
-0.222040
-0.216754
-0.291910
-0.282523
-0.212154
-0.402914
-0.399963
-0.396643
-0.315184
-0.320818
-0.326658
-0.413289
-0.409478
-0.398360
-0.329142
-0.353625
-0.330229
-0.282388
-0.291188
-0.297031
-0.330842
-0.318686
-0.355301
-0.527209
-0.544788
-0.523018
-0.281697
-0.170218
-0.142534
-0.391703
-0.227972
-0.231784
-0.407253
-0.398603
-0.218676
-0.469442
-0.473931
-0.454581
-0.487395
-0.410385
-0.420729
-0.355882
-0.348431
-0.348517
-0.372092
-0.383030
-0.378496
-0.339409
-0.468094
-0.477037
-0.477287
-0.395995
-0.296647
-0.297168
-0.289878
-0.282071
-0.290067
-0.294896
-0.365374
-0.361580
-0.362694
-0.365604
-0.282040
-0.298655
-0.319453
-0.289748
-0.468871
-0.483141
-0.470320
-0.389031
-0.304420
-0.287847
-0.291718
-0.299683
-0.459398
-0.447838
-0.602219
-0.657811
-0.649840
-0.401841
-0.366157
-0.377984
-0.508241
-0.513058
-0.524374
-0.514728
-0.330444
-0.343912
-0.337049
-0.230902
-0.223102
-0.211813
-0.421924
-0.435246
-0.341246
-0.353152
-0.343066
-0.353338
-0.336528
-0.393451
-0.403964
-0.396881
-0.290543
-0.292450
-0.304234
-0.290236
-0.273285
-0.280362
-0.461469
-0.473747
-0.463887
-0.473999
-0.234080
-0.224772
-0.233246
-0.223118
-0.453219
-0.466278
-0.407114
-0.402228
-0.393353
-0.243225
-0.232004
-0.215877
-0.237477
-0.244478
-0.162920
-0.173860
-0.166365
-0.459564
-0.477406
-0.446778
-0.462055
-0.449923
-0.435863
-0.435461
-0.336981
-0.334520
-0.345595
-0.464834
-0.449807
-0.393556
-0.345752
-0.313348
-0.264199
-0.261187
-0.272628
-0.325873
-0.314810
-0.332926
-0.320189
-0.356066
-0.344512
-0.351357
-0.349853
-0.408858
-0.403198
-0.398760
-0.410109
-0.239742
-0.247200
-0.252365
-0.367260
-0.372582
-0.358469
-0.184462
-0.175451
-0.306475
-0.308359
-0.309513
-0.308245
-0.322773
-0.206210
-0.201744
-0.205859
-0.220116
-0.210188
-0.298207
-0.265353
-0.270389
-0.277010
-0.580557
-0.559119
-0.564212
-0.189722
-0.392461
-0.148459
-0.149525
-0.126861
-0.219361
-0.215696
-0.230071
-0.033559
-0.041099
-0.070323
-0.129498
-0.106131
-0.374178
-0.374547
-0.357339
-0.115530
-0.131708
-0.156235
-0.234037
-0.242169
-0.256008
-0.270039
-0.447431
-0.440471
-0.437821
-0.573787
-0.551557
-0.454340
-0.300398
-0.260089
-0.285227
-0.480574
-0.485710
-0.468783
-0.552341
-0.541082
-0.444659
-0.464277
-0.306561
-0.323385
-0.312289
-0.329699
-0.294024
-0.304586
-0.338629
-0.068001
-0.058994
-0.094869
-0.086738
-0.252940
-0.261983
-0.311029
-0.272736
-0.414416
-0.383791
-0.668702
-0.623816
-0.380545
-0.380484
-0.343396
-0.364264
-0.436089
-0.443827
-0.489995
-0.449702
-0.154480
-0.461586
-0.477587
-0.494197
-0.456886
-0.458482
-0.460843
-0.480134
-0.229934
-0.270306
-0.416824
-0.482537
-0.449632
-0.530113
-0.135323
-0.127483
-0.111768
-0.440406
-0.456887
-0.437373
-0.151023
-0.259889
-0.239036
-0.238752
-0.312934
-0.194699
-0.196904
-0.200105
-0.191997
-0.210569
-0.593710
-0.608151
-0.423958
-0.582258
-0.541444
-0.560330
-0.442283
-0.431597
-0.530421
-0.423744
-0.219215
-0.427308
-0.255444
-0.273663
-0.239890
-0.571319
-0.103974
-0.097526
-0.083981
-0.202266
-0.143811
-0.648126
-0.595760
-0.244572
-0.053433
-0.100032
-0.224085
-0.227388
-0.164719
-0.547542
-0.541877
-0.574931
-0.314707
-0.325600
-0.468632
-0.487231
-0.341704
-0.334994
-0.523969
-0.514729
-0.473498
-0.351924
-0.340242
-0.525026
-0.539494
-0.531916
-0.297399
-0.312703
-0.055931
-0.257180
-0.242061
-0.026821
-0.084928
-0.037038
-0.043148
-0.261648
-0.390863
-0.284857
-0.387881
-0.439588
-0.408398
-0.431296
-0.435443
-0.422491
-0.453858
-0.363491
-0.362565
-0.394411
-0.403732
-0.485103
-0.494047
-0.406953
-0.434889
-0.388675
-0.357811
-0.380670
-0.398203
-0.120871
-0.112050
-0.562075
-0.531677
-0.336175
-0.342568
-0.348148
-0.333724
-0.507018
-0.380203
-0.390226
-0.386733
-0.404394
-0.374113
-0.356812
-0.488760
-0.493676
-0.208945
-0.200455
-0.456235
-0.420397
-0.444516
-0.395054
-0.078767
-0.187546
-0.180696
-0.543774
-0.353388
-0.340409
-0.476126
-0.478638
-0.457637
-0.440816
-0.247550
-0.239479
-0.256019
-0.244749
-0.663735
-0.620519
-0.625921
-0.229182
-0.657979
-0.437174
-0.440563
-0.183129
-0.170396
-0.182610
-0.257749
-0.253901
-0.178898
-0.242029
-0.261652
-0.261982
-0.260227
-0.483215
-0.494345
-0.296805
-0.313730
-0.245383
-0.437254
-0.443337
-0.401758
-0.403130
-0.461805
-0.424802
-0.440872
-0.452534
-0.379365
-0.395577
-0.490285
-0.503470
-0.350382
-0.239789
-0.227113
-0.504635
-0.516716
-0.429929
-0.437278
-0.431641
-0.300930
-0.593100
-0.570243
-0.460108
-0.208075
-0.483624
-0.494812
-0.494596
-0.405007
-0.406677
-0.418769
-0.187122
-0.333620
-0.506858
-0.494392
-0.581750
-0.608038
-0.189540
-0.258923
-0.263434
-0.265585
-0.378344
-0.374789
-0.372354
-0.385632
-0.212842
-0.180288
-0.175925
-0.288000
-0.476621
-0.409315
-0.323037
-0.137604
-0.422780
-0.402921
-0.210435
-0.420845
-0.416895
-0.428637
-0.427079
-0.169513
-0.382766
-0.271945
-0.265081
-0.505402
-0.125443
-0.139170
-0.088774
-0.172558
-0.119343
-0.306407
-0.586459
-0.618334
-0.580614
-0.618203
-0.538716
-0.288161
-0.247445
-0.416999
-0.423663
-0.417115
-0.414653
-0.454849
-0.172985
-0.179198
-0.267073
-0.274178
-0.276224
-0.277601
-0.272566
-0.276067
-0.282571
-0.254532
-0.508030
-0.273484
-0.175306
-0.209468
-0.230512
-0.207694
-0.423202
-0.372892
-0.366982
-0.272597
-0.326889
-0.318292
-0.500743
-0.412497
-0.410715
-0.197767
-0.420763
-0.176440
-0.140077
-0.173522
-0.554217
-0.275627
-0.191113
-0.410318
-0.402615
-0.419794
-0.552726
-0.477206
-0.379796
-0.370315
-0.377596
-0.460567
-0.373249
-0.290369
-0.471207
-0.192548
-0.325782
-0.315582
-0.422911
-0.199311
-0.425182
-0.417103
-0.201451
-0.403091
-0.374910
-0.183849
-0.155511
-0.179664
-0.189646
-0.350276
-0.548774
-0.529525
-0.513103
-0.504381
-0.383752
-0.361676
-0.364094
-0.431255
-0.327254
-0.516815
-0.501353
-0.504169
-0.400782
-0.389938
-0.506094
-0.518770
-0.299228
-0.306181
-0.239583
-0.520396
-0.361958
-0.487535
-0.355397
-0.363780
-0.369688
-0.376688
-0.589149
-0.213129
-0.191183
-0.186317
-0.508234
-0.383642
-0.370383
-0.148486
-0.420784
-0.168890
-0.326513
-0.320822
-0.311528
-0.322153
-0.316286
-0.514812
-0.364990
-0.371546
-0.277906
-0.297464
-0.414304
-0.532788
-0.104044
-0.609528
-0.275403
-0.660907
-0.133015
-0.164720
-0.058027
-0.067958
-0.646965
-0.641913
-0.165786
-0.422202
-0.063016
-0.113773
-0.114487
-0.267112
-0.584224
-0.582969
-0.491123
-0.487281
-0.350243
-0.358495
-0.362393
-0.655190
-0.121356
-0.352319
-0.185000
-0.527212
-0.302448
-0.582268
-0.217824
-0.541540
-0.528476
-0.177459
-0.178838
-0.452943
-0.523355
-0.218565
-0.225988
-0.505323
-0.485830
-0.496222
-0.286749
-0.270811
-0.275745
-0.281062
-0.500401
-0.205698
-0.261689
-0.361330
-0.495982
-0.411470
-0.434422
-0.273261
-0.214405
-0.223358
-0.292142
-0.229572
-0.230653
-0.327845
-0.244845
-0.219886
-0.218123
-0.266714
-0.430473
-0.376608
-0.362382
-0.354295
-0.478958
-0.281908
-0.202565
-0.400598
-0.404833
-0.310254
-0.302551
-0.385411
-0.378825
-0.201302
-0.254654
-0.308671
-0.503230
-0.431816
-0.386058
-0.338950
-0.329350
-0.335134
-0.353407
-0.335768
-0.300600
-0.369601
-0.288206
-0.443349
-0.311753
-0.193476
-0.372545
-0.253367
-0.268054
-0.251264
-0.339062
-0.340741
-0.395249
-0.320848
-0.254250
-0.311819
-0.308015
-0.379005
-0.387291
-0.464254
-0.352627
-0.259586
-0.386198
-0.380163
-0.306013
-0.312089
SCALARS DAMAGE float 1
LOOKUP_TABLE default
0.998941
0.998985
0.999234
0.999326
0.000000
0.000000
0.999342
0.999481
0.999571
0.999612
0.999599
0.999560
0.999501
0.999438
0.999303
0.999152
0.999360
0.999436
0.999482
0.999500
0.999501
0.999411
0.999305
0.999241
0.999320
0.999394
0.999482
0.999513
0.999483
0.999436
0.999400
0.999372
0.999351
0.999324
0.999352
0.999391
0.999453
0.999497
0.999525
0.999443
0.999346
0.999013
-0.000000
0.000000
0.000000
0.000000
0.000000
0.000000
0.000000
0.000000
0.000000
0.000000
0.000000
0.000000
0.000000
0.000000
0.000000
0.000000
0.000000
0.000000
0.000000
0.000000
0.000000
0.000000
0.000000
0.000000
0.000000
0.000000
0.000000
0.000000
0.000000
0.000000
0.000000
0.000000
0.000000
0.000000
0.000000
0.000000
0.000000
0.000000
0.000000
0.000000
0.000000
0.000000
0.000000
0.000000
0.000000
0.000000
0.000000
0.000000
0.000000
0.000000
0.000000
0.000000
-0.000000
0.678276
0.727975
0.862610
0.889805
0.481307
0.344755
0.649334
0.685133
0.689644
0.857273
0.999414
0.999420
0.999398
0.879570
0.979992
0.977128
0.991263
0.999392
0.988280
0.443319
0.491050
0.999359
0.999395
0.999388
0.999352
0.999499
0.999470
0.999446
0.943301
0.987446
0.946839
0.999518
0.999489
0.999468
0.981538
0.998891
0.999342
0.998973
0.999410
0.969828
0.952455
0.900649
0.889732
0.970252
0.933415
0.954572
0.953043
0.819917
0.870085
0.763148
0.447805
0.444539
0.669744
0.432967
0.389393
0.707766
0.999127
0.999316
0.999303
0.748179
0.668263
0.466294
0.999331
0.999335
0.999324
0.999440
0.999440
0.999435
0.843973
0.999477
0.999486
0.750911
0.726234
0.752277
0.683494
0.868170
0.844530
0.999225
0.999401
0.999189
0.999409
0.811177
0.515767
0.797928
0.754148
0.637904
0.878956
0.761059
0.672957
0.495927
0.768349
0.834563
0.898009
0.539415
0.878664
0.775051
0.895194
0.930362
0.903581
0.977511
0.999376
0.999422
0.917535
0.970067
0.999355
0.999385
0.999361
0.806879
0.509828
0.827616
0.680949
0.789767
0.751677
0.744519
0.687112
0.869486
0.350777
0.474634
0.999292
0.999278
0.999342
0.999359
0.999349
0.999339
0.513149
0.484059
0.844756
0.746876
0.706605
0.439158
0.448291
0.543777
0.656669
0.833971
0.717744
0.392217
0.714994
0.880827
0.873067
0.956601
0.999338
0.887460
0.951671
0.948157
0.433198
0.382269
0.675369
0.998743
0.997668
0.995550
0.880704
0.966657
0.960240
0.984859
0.915778
0.965692
0.959518
0.983433
0.957426
0.986821
0.972057
0.938776
0.985684
0.954807
0.983671
0.998326
0.995555
0.999278
0.994356
0.976753
0.980640
0.999330
0.998790
0.998889
0.993646
0.716728
0.453804
0.373099
0.922323
0.971130
0.936489
0.475551
0.689129
0.999393
0.999406
0.999446
0.931204
0.978485
0.931197
0.991523
0.997934
0.996996
0.999129
0.630548
0.781981
0.823126
0.999331
0.726544
0.732224
0.540697
0.850149
0.525570
0.472967
0.729466
0.996461
0.985302
0.994359
0.955356
0.987567
0.999021
0.999283
0.981386
0.995706
0.976281
0.985513
0.977401
0.691961
0.366483
0.493245
0.702847
0.988389
0.993644
0.980505
0.999518
0.999246
0.999575
0.970592
0.462495
0.998089
0.999175
0.999556
0.994230
0.998237
0.994402
0.999602
0.999576
0.999576
0.999509
0.999515
0.996637
0.998825
0.995803
0.999483
0.999522
0.999456
0.999417
0.999396
0.999405
0.999388