# vtk DataFile Version 2.0
Test
ASCII
DATASET POLYDATA
POINTS 348 float
0.000000 0.000000 0.000000
1.000000 0.000000 0.000000
1.000000 1.000000 0.000000
0.000000 1.000000 0.000000
0.300000 0.330000 0.000000
0.700000 0.680000 0.000000
0.313793 0.342069 0.000000
0.327586 0.354138 0.000000
0.341379 0.366207 0.000000
0.355172 0.378276 0.000000
0.368966 0.390345 0.000000
0.382759 0.402414 0.000000
0.396552 0.414483 0.000000
0.410345 0.426552 0.000000
0.424138 0.438621 0.000000
0.437931 0.450690 0.000000
0.451724 0.462759 0.000000
0.465517 0.474828 0.000000
0.479310 0.486897 0.000000
0.493103 0.498966 0.000000
0.506897 0.511034 0.000000
0.520690 0.523103 0.000000
0.534483 0.535172 0.000000
0.548276 0.547241 0.000000
0.562069 0.559310 0.000000
0.575862 0.571379 0.000000
0.589655 0.583448 0.000000
0.603448 0.595517 0.000000
0.617241 0.607586 0.000000
0.631034 0.619655 0.000000
0.644828 0.631724 0.000000
0.658621 0.643793 0.000000
0.672414 0.655862 0.000000
0.686207 0.667931 0.000000
0.111111 0.000000 0.000000
0.222222 0.000000 0.000000
0.333333 0.000000 0.000000
0.444444 0.000000 0.000000
0.555556 0.000000 0.000000
0.666667 0.000000 0.000000
0.777778 0.000000 0.000000
0.888889 0.000000 0.000000
1.000000 0.111111 0.000000
1.000000 0.222222 0.000000
1.000000 0.333333 0.000000
1.000000 0.444444 0.000000
1.000000 0.555556 0.000000
1.000000 0.666667 0.000000
1.000000 0.777778 0.000000
1.000000 0.888889 0.000000
0.888889 1.000000 0.000000
0.777778 1.000000 0.000000
0.666667 1.000000 0.000000
0.555556 1.000000 0.000000
0.444444 1.000000 0.000000
0.333333 1.000000 0.000000
0.222222 1.000000 0.000000
0.111111 1.000000 0.000000
0.000000 0.888889 0.000000
0.000000 0.777778 0.000000
0.000000 0.666667 0.000000
0.000000 0.555556 0.000000
0.000000 0.444444 0.000000
0.000000 0.333333 0.000000
0.000000 0.222222 0.000000
0.000000 0.111111 0.000000
0.033333 0.036667 0.000000
0.066667 0.073333 0.000000
0.100000 0.110000 0.000000
0.133333 0.146667 0.000000
0.166667 0.183333 0.000000
0.200000 0.220000 0.000000
0.233333 0.256667 0.000000
0.266667 0.293333 0.000000
0.733333 0.715556 0.000000
0.766667 0.751111 0.000000
0.800000 0.786667 0.000000
0.833333 0.822222 0.000000
0.866667 0.857778 0.000000
0.900000 0.893333 0.000000
0.933333 0.928889 0.000000
0.966667 0.964444 0.000000
0.520587 0.545492 0.000000
0.415289 0.451355 0.000000
0.608082 0.622878 0.000000
0.329310 0.380000 0.000000
0.689298 0.696009 0.000000
0.329032 0.887726 0.000000
0.113157 0.652804 0.000000
0.244883 0.329633 0.000000
0.479482 0.510718 0.000000
0.555556 0.888889 0.000000
0.768749 0.816415 0.000000
0.108290 0.868367 0.000000
0.547197 0.568869 0.000000
0.384133 0.428369 0.000000
0.632744 0.642153 0.000000
0.104401 0.429223 0.000000
0.864328 0.928455 0.000000
0.100893 0.352753 0.000000
0.166037 0.253357 0.000000
0.096667 0.180000 0.000000
0.301502 0.359590 0.000000
0.662928 0.877937 0.000000
0.453448 0.488621 0.000000
0.729671 0.785691 0.000000
0.356897 0.404138 0.000000
0.657532 0.671072 0.000000
0.045104 0.172880 0.000000
0.797778 0.855556 0.000000
0.681285 0.714777 0.000000
0.643186 0.801258 0.000000
0.198742 0.420964 0.000000
0.435927 0.897407 0.000000
0.097814 0.522757 0.000000
0.097733 0.763101 0.000000
0.202442 0.887095 0.000000
0.208229 0.300316 0.000000
0.687298 0.763055 0.000000
0.732907 0.844867 0.000000
0.274614 0.345060 0.000000
0.086469 0.258016 0.000000
0.128960 0.218677 0.000000
0.819301 0.890730 0.000000
0.637616 0.659644 0.000000
0.671344 0.688823 0.000000
0.754297 0.912369 0.000000
0.420519 0.807300 0.000000
0.183605 0.573391 0.000000
0.282078 0.387511 0.000000
0.650782 0.703950 0.000000
0.270127 0.811087 0.000000
0.204596 0.361710 0.000000
0.644539 0.745067 0.000000
0.613395 0.654884 0.000000
0.691198 0.814562 0.000000
0.191354 0.766184 0.000000
0.149990 0.321422 0.000000
0.285823 0.725407 0.000000
0.309309 0.399199 0.000000
0.612418 0.714893 0.000000
0.346932 0.779053 0.000000
0.626938 0.680652 0.000000
0.223075 0.657517 0.000000
0.244050 0.377434 0.000000
0.151724 0.377214 0.000000
0.290413 0.428947 0.000000
0.176216 0.487072 0.000000
0.290713 0.655700 0.000000
0.413970 0.728461 0.000000
0.253315 0.412705 0.000000
0.357401 0.715262 0.000000
0.239023 0.457326 0.000000
0.331256 0.418609 0.000000
0.273223 0.589611 0.000000
0.589885 0.679468 0.000000
0.392874 0.661968 0.000000
0.323654 0.456509 0.000000
0.573998 0.718925 0.000000
0.479048 0.738498 0.000000
0.243375 0.518922 0.000000
0.588935 0.638069 0.000000
0.334432 0.671552 0.000000
0.566320 0.658021 0.000000
0.306185 0.529761 0.000000
0.589798 0.761754 0.000000
0.495119 0.813595 0.000000
0.353150 0.440855 0.000000
0.287972 0.480274 0.000000
0.442206 0.683257 0.000000
0.589485 0.609645 0.000000
0.358099 0.640012 0.000000
0.377212 0.598830 0.000000
0.567476 0.621334 0.000000
0.352767 0.471120 0.000000
0.549421 0.691362 0.000000
0.425042 0.620319 0.000000
0.597665 0.830161 0.000000
0.574764 0.597430 0.000000
0.534908 0.746736 0.000000
0.329525 0.575100 0.000000
0.506588 0.687785 0.000000
0.371355 0.531018 0.000000
0.415266 0.559242 0.000000
0.547654 0.633249 0.000000
0.472209 0.632481 0.000000
0.376409 0.459738 0.000000
0.548452 0.607288 0.000000
0.554609 0.808227 0.000000
0.559052 0.584071 0.000000
0.327201 0.621801 0.000000
0.453295 0.586678 0.000000
0.402340 0.512995 0.000000
0.529444 0.587669 0.000000
0.374005 0.491528 0.000000
0.335990 0.493368 0.000000
0.397564 0.448152 0.000000
0.518088 0.625340 0.000000
0.430654 0.527631 0.000000
0.491869 0.596486 0.000000
0.402870 0.474137 0.000000
0.531081 0.558791 0.000000
0.541653 0.659311 0.000000
0.466837 0.547184 0.000000
0.438869 0.472955 0.000000
0.505618 0.565101 0.000000
0.424683 0.467477 0.000000
0.453958 0.510541 0.000000
0.428740 0.489609 0.000000
0.478476 0.572015 0.000000
0.490413 0.549236 0.000000
0.466550 0.499194 0.000000
0.494969 0.527324 0.000000
0.506347 0.538352 0.000000
0.513363 0.487164 0.000000
0.600815 0.570552 0.000000
0.424505 0.414046 0.000000
0.683253 0.643266 0.000000
0.339439 0.342435 0.000000
0.666667 0.111111 0.000000
0.886638 0.346747 0.000000
0.266813 0.227227 0.000000
0.776009 0.672382 0.000000
0.531559 0.509860 0.000000
0.479515 0.465912 0.000000
0.393620 0.387118 0.000000
0.898934 0.565298 0.000000
0.339730 0.109941 0.000000
0.203988 0.153798 0.000000
0.906042 0.650301 0.000000
0.794664 0.722701 0.000000
0.902222 0.824444 0.000000
0.555556 0.111111 0.000000
0.320899 0.295374 0.000000
0.896378 0.117878 0.000000
0.450000 0.436897 0.000000
0.196088 0.098061 0.000000
0.140018 0.065624 0.000000
0.843748 0.746205 0.000000
0.365351 0.363305 0.000000
0.953960 0.826842 0.000000
0.626191 0.194699 0.000000
0.733546 0.659776 0.000000
0.803431 0.575393 0.000000
0.454833 0.100722 0.000000
0.891134 0.483116 0.000000
0.902397 0.236063 0.000000
0.797569 0.110394 0.000000
0.926271 0.754488 0.000000
0.313006 0.249964 0.000000
0.245369 0.187081 0.000000
0.326121 0.326003 0.000000
0.876394 0.786840 0.000000
0.807048 0.626864 0.000000
0.830998 0.670874 0.000000
0.548482 0.199809 0.000000
0.356095 0.273323 0.000000
0.809337 0.422530 0.000000
0.823860 0.232234 0.000000
0.425571 0.204310 0.000000
0.358730 0.324488 0.000000
0.314237 0.183426 0.000000
0.754676 0.607894 0.000000
0.702055 0.652315 0.000000
0.728134 0.201015 0.000000
0.567636 0.273174 0.000000
0.386617 0.297786 0.000000
0.762815 0.539091 0.000000
0.781950 0.344257 0.000000
0.695373 0.623274 0.000000
0.730735 0.288788 0.000000
0.368291 0.219271 0.000000
0.851223 0.605133 0.000000
0.720695 0.625284 0.000000
0.476746 0.173321 0.000000
0.264995 0.104615 0.000000
0.642371 0.606851 0.000000
0.706529 0.594053 0.000000
0.480310 0.252388 0.000000
0.654218 0.276994 0.000000
0.387726 0.345658 0.000000
0.670690 0.630000 0.000000
0.721407 0.414156 0.000000
0.393607 0.152562 0.000000
0.702466 0.354704 0.000000
0.726437 0.566166 0.000000
0.846722 0.541910 0.000000
0.407017 0.254185 0.000000
0.512665 0.308032 0.000000
0.413299 0.323792 0.000000
0.634192 0.591179 0.000000
0.603095 0.331028 0.000000
0.716034 0.515839 0.000000
0.672335 0.576408 0.000000
0.439138 0.291270 0.000000
0.659641 0.614051 0.000000
0.649787 0.335029 0.000000
0.393189 0.072645 0.000000
0.641681 0.391463 0.000000
0.413986 0.367941 0.000000
0.693653 0.549525 0.000000
0.754192 0.469730 0.000000
0.619035 0.581076 0.000000
0.677388 0.604685 0.000000
0.472717 0.317427 0.000000
0.654953 0.593875 0.000000
0.495162 0.354533 0.000000
0.668124 0.514324 0.000000
0.617002 0.555711 0.000000
0.575238 0.377105 0.000000
0.694094 0.473889 0.000000
0.640759 0.575176 0.000000
0.445610 0.347937 0.000000
0.804478 0.498926 0.000000
0.664817 0.442806 0.000000
0.650758 0.550645 0.000000
0.592233 0.422406 0.000000
0.464322 0.381814 0.000000
0.639029 0.480476 0.000000
0.574138 0.545517 0.000000
0.547432 0.338492 0.000000
0.629028 0.521607 0.000000
0.591760 0.555178 0.000000
0.599106 0.499443 0.000000
0.489590 0.403898 0.000000
0.565064 0.529474 0.000000
0.555227 0.412788 0.000000
0.435908 0.385097 0.000000
0.581338 0.522882 0.000000
0.598180 0.463718 0.000000
0.530592 0.386650 0.000000
0.598965 0.532765 0.000000
0.627188 0.440174 0.000000
0.567422 0.480373 0.000000
0.524971 0.432538 0.000000
0.567735 0.507373 0.000000
0.548744 0.520597 0.000000
0.561809 0.446871 0.000000
0.411443 0.412250 0.000000
0.537159 0.466059 0.000000
0.544534 0.491986 0.000000
0.471348 0.428369 0.000000
0.412669 0.396823 0.000000
0.512563 0.460762 0.000000
0.491316 0.446319 0.000000
0.455007 0.407374 0.000000
0.468237 0.452514 0.000000
0.495500 0.477599 0.000000
POLYGONS 658 2632
3 182 192 183
3 157 195 168
3 118 135 111
3 198 207 203
3 65 0 66
3 160 164 154
3 99 145 97
3 149 159 127
3 132 144 112
3 203 212 210
3 68 108 65
3 112 152 147
3 81 50 80
3 185 197 181
3 51 123 98
3 4 120 73
3 185 199 197
3 152 160 147
3 116 136 131
3 140 155 142
3 103 177 111
3 2 50 81
3 176 191 185
3 198 203 183
3 111 165 133
3 61 114 88
3 114 147 128
3 179 181 175
3 67 65 66
3 68 65 67
3 51 98 50
3 168 195 164
3 93 136 116
3 100 137 121
3 191 209 199
3 112 145 132
3 54 113 91
3 174 195 157
3 128 143 88
3 184 202 197
3 186 200 194
3 115 136 93
3 172 190 180
3 169 181 159
3 101 108 68
3 133 165 140
3 63 121 99
3 65 108 64
3 159 166 127
3 106 167 153
3 134 161 84
3 183 203 191
3 91 188 177
3 74 110 86
3 95 186 167
3 182 183 172
3 132 145 137
3 128 160 154
3 91 103 52
3 103 126 52
3 207 211 90
3 108 121 64
3 194 200 192
3 111 135 103
3 152 168 160
3 85 139 102
3 159 179 166
3 193 205 201
3 192 198 183
3 74 118 110
3 63 99 97
3 166 188 91
3 160 168 164
3 141 149 127
3 94 201 23
3 125 130 107
3 140 158 155
3 164 182 180
3 116 131 87
3 95 196 186
3 171 190 172
3 97 145 112
3 203 209 191
3 87 127 113
3 105 135 118
3 127 166 113
3 159 181 179
3 206 208 200
3 198 208 207
3 50 98 80
3 97 114 62
3 179 188 166
3 183 191 176
3 169 185 181
3 207 208 104
3 182 195 194
3 107 142 124
3 121 137 99
3 164 180 154
3 164 195 182
3 97 147 114
3 72 117 100
3 13 196 95
3 182 194 192
3 59 115 93
3 172 183 176
3 119 126 103
3 141 151 149
3 148 190 162
3 130 142 107
3 149 169 159
3 87 113 55
3 64 121 63
3 176 185 169
3 187 197 193
3 87 141 127
3 56 116 87
3 138 141 131
3 111 177 165
3 112 147 97
3 83 196 13
3 136 143 138
3 150 152 112
3 54 91 53
3 53 91 52
3 52 126 51
3 63 97 62
3 88 115 60
3 192 208 198
3 88 143 136
3 172 176 156
3 153 167 157
3 140 142 130
3 55 113 54
3 88 136 115
3 62 114 61
3 167 186 174
3 209 210 205
3 163 173 161
3 201 205 82
3 143 148 138
3 105 118 74
3 205 213 82
3 180 182 172
3 155 175 163
3 61 88 60
3 155 161 134
3 56 87 55
3 197 199 193
3 93 116 57
3 138 151 141
3 199 205 193
3 193 201 94
3 25 189 24
3 181 202 175
3 131 141 87
3 203 210 209
3 189 193 94
3 175 202 163
3 60 115 59
3 212 213 210
3 57 116 56
3 51 126 123
3 200 208 192
3 156 176 169
3 89 144 132
3 187 189 178
3 184 187 173
3 148 162 138
3 26 178 25
3 73 120 89
3 138 162 151
3 102 139 129
3 117 137 100
3 158 179 175
3 165 188 179
3 58 93 57
3 59 93 58
3 16 204 15
3 156 169 149
3 157 168 146
3 173 178 170
3 110 133 130
3 139 153 146
3 3 58 57
3 146 150 129
3 123 126 109
3 155 163 161
3 124 142 134
3 85 153 139
3 75 105 74
3 83 206 200
3 119 135 105
3 109 126 119
3 101 122 121
3 167 174 157
3 171 172 156
3 24 189 94
3 83 200 196
3 186 194 174
3 153 157 146
3 180 190 154
3 199 209 205
3 110 125 86
3 33 125 107
3 73 117 72
3 178 189 25
3 147 160 128
3 89 132 117
3 78 123 109
3 210 213 205
3 163 184 173
3 184 197 187
3 82 213 21
3 158 175 155
3 177 188 165
3 90 211 18
3 173 187 178
3 132 137 117
3 15 206 83
3 18 211 104
3 7 102 6
3 104 204 16
3 187 193 189
3 21 213 212
3 89 117 73
3 170 178 26
3 118 133 110
3 137 145 99
3 31 124 96
3 204 206 15
3 102 129 120
3 165 179 158
3 161 173 170
3 129 150 144
3 110 130 125
3 142 155 134
3 23 201 22
3 22 82 21
3 151 156 149
3 20 90 19
3 19 90 18
3 17 104 16
3 18 104 17
3 21 212 20
3 24 94 23
3 15 83 14
3 14 83 13
3 77 92 76
3 76 92 75
3 139 146 129
3 86 125 33
3 98 123 78
3 151 162 156
3 13 95 12
3 12 95 11
3 107 124 31
3 29 84 28
3 28 84 27
3 72 100 71
3 71 100 70
3 100 122 70
3 10 106 9
3 11 106 10
3 27 170 26
3 92 105 75
3 140 165 158
3 8 85 7
3 9 85 8
3 129 144 120
3 78 109 77
3 133 140 130
3 162 190 171
3 146 168 152
3 196 200 186
3 146 152 150
3 103 135 119
3 136 138 131
3 92 119 105
3 30 96 29
3 31 96 30
3 22 201 82
3 5 86 33
3 70 122 101
3 80 98 79
3 79 98 78
3 154 190 148
3 70 101 69
3 69 101 68
3 20 212 90
3 32 107 31
3 33 107 32
3 161 170 84
3 163 202 184
3 124 134 96
3 6 102 4
3 194 195 174
3 84 170 27
3 102 120 4
3 77 109 92
3 104 208 204
3 109 119 92
3 120 144 89
3 121 122 100
3 162 171 156
3 104 211 207
3 204 208 206
3 74 86 5
3 85 102 7
3 9 106 85
3 95 106 11
3 29 96 84
3 96 134 84
3 106 153 85
3 114 128 88
3 203 207 90
3 90 212 203
3 91 177 103
3 113 166 91
3 95 167 106
3 101 121 108
3 111 133 118
3 144 150 112
3 128 154 143
3 143 154 148
3 197 202 181
3 191 199 185
3 264 279 241
3 265 278 255
3 326 337 334
3 69 236 228
3 339 343 334
3 307 318 310
3 317 327 312
3 282 298 284
3 81 49 2
3 79 240 49
3 314 332 298
3 238 254 229
3 327 342 299
3 229 272 226
3 233 251 4
3 258 264 247
3 66 34 67
3 73 233 4
3 0 34 66
3 321 323 318
3 339 340 214
3 69 237 236
3 308 311 302
3 80 49 81
3 79 49 80
3 36 275 35
3 12 342 338
3 307 310 292
3 231 248 240
3 284 296 270
3 288 304 278
3 229 248 238
3 261 283 271
3 5 242 74
3 219 264 241
3 234 258 247
3 245 313 257
3 231 240 79
3 260 280 239
3 270 279 264
3 45 245 220
3 284 298 296
3 270 296 279
3 286 313 245
3 257 268 220
3 225 342 12
3 256 260 233
3 246 258 234
3 307 321 318
3 280 299 225
3 219 241 232
3 5 263 242
3 242 273 262
3 35 237 34
3 49 240 48
3 317 345 327
3 73 249 233
3 273 277 262
3 300 315 307
3 265 320 288
3 227 283 261
3 306 317 312
3 241 279 265
3 277 285 262
3 287 294 266
3 310 314 282
3 289 312 299
3 241 265 255
3 47 248 229
3 321 331 323
3 306 330 324
3 242 262 222
3 308 321 315
3 247 264 219
3 324 345 317
3 323 329 318
3 46 229 226
3 278 287 259
3 311 315 293
3 224 347 18
3 214 343 339
3 298 316 309
3 323 335 333
3 232 274 244
3 291 320 265
3 308 315 311
3 224 346 344
3 257 301 282
3 344 346 341
3 316 337 326
3 336 340 335
3 235 345 341
3 259 287 271
3 262 285 267
3 255 278 274
3 235 346 16
3 271 283 259
3 226 245 46
3 324 344 341
3 36 297 227
3 249 271 256
3 316 326 309
3 328 335 323
3 341 345 324
3 323 331 328
3 316 332 329
3 43 246 234
3 226 286 245
3 232 244 38
3 266 280 260
3 278 304 294
3 67 237 68
3 68 237 69
3 219 232 38
3 40 247 219
3 268 270 258
3 259 283 274
3 269 273 263
3 299 342 225
3 315 321 307
3 306 312 304
3 277 303 293
3 220 268 258
3 48 248 47
3 285 300 292
3 333 340 339
3 240 248 48
3 47 229 46
3 329 332 318
3 289 299 280
3 220 246 44
3 278 294 287
3 255 274 232
3 236 237 35
3 319 331 322
3 298 332 316
3 300 307 292
3 34 237 67
3 334 344 324
3 293 315 300
3 330 334 324
3 309 320 291
3 220 258 246
3 293 300 277
3 241 255 232
3 38 244 37
3 274 278 259
3 301 310 282
3 46 245 45
3 37 297 36
3 326 330 309
3 292 310 301
3 45 220 44
3 39 219 38
3 40 219 39
3 310 318 314
3 234 247 41
3 298 309 291
3 279 291 265
3 344 347 224
3 214 347 343
3 221 249 73
3 285 292 267
3 306 324 317
3 320 330 306
3 256 287 266
3 329 337 316
3 222 262 253
3 323 333 329
3 302 311 290
3 295 303 281
3 44 246 43
3 41 247 40
3 294 312 289
3 279 296 291
3 335 340 333
3 341 346 235
3 333 337 329
3 268 284 270
3 258 270 264
3 328 331 319
3 42 234 1
3 43 234 42
3 1 234 41
3 244 297 37
3 22 336 23
3 228 275 250
3 236 275 228
3 27 302 28
3 327 345 216
3 343 344 334
3 326 334 330
3 325 336 335
3 74 242 222
3 267 313 243
3 262 267 243
3 333 339 337
3 261 271 249
3 274 283 244
3 217 281 269
3 304 312 294
3 266 289 280
3 223 340 336
3 256 266 260
3 277 300 285
3 309 330 320
3 343 347 344
3 288 306 304
3 288 320 306
3 263 273 242
3 12 338 13
3 269 303 277
3 222 254 230
3 223 336 22
3 23 325 319
3 281 303 269
3 25 322 215
3 296 298 291
3 23 336 325
3 266 294 289
3 271 287 256
3 71 250 221
3 319 322 25
3 28 302 290
3 215 302 27
3 28 290 276
3 290 311 305
3 276 295 30
3 292 301 267
3 228 250 71
3 16 346 17
3 30 295 281
3 249 256 233
3 322 331 308
3 18 347 19
3 248 252 238
3 19 214 20
3 253 254 222
3 20 223 21
3 21 223 22
3 325 335 328
3 17 224 18
3 25 215 26
3 26 215 27
3 23 319 24
3 24 319 25
3 15 235 16
3 14 235 15
3 301 313 267
3 221 261 249
3 215 322 308
3 305 311 293
3 13 216 14
3 217 269 263
3 74 230 75
3 75 230 76
3 215 308 302
3 11 225 12
3 10 225 11
3 29 276 30
3 28 276 29
3 32 217 33
3 31 217 32
3 71 221 72
3 72 221 73
3 30 281 31
3 230 254 238
3 9 239 10
3 8 239 9
3 238 252 77
3 318 332 314
3 290 305 276
3 227 297 283
3 257 313 301
3 6 218 7
3 7 218 8
3 70 228 71
3 69 228 70
3 231 252 248
3 276 305 295
3 76 238 77
3 295 305 303
3 6 251 218
3 250 275 261
3 4 251 6
3 325 328 319
3 13 338 216
3 283 297 244
3 251 260 218
3 77 252 231
3 222 230 74
3 269 277 273
3 253 262 243
3 17 346 224
3 19 347 214
3 217 263 33
3 243 313 286
3 243 272 253
3 78 231 79
3 77 231 78
3 243 286 272
3 33 263 5
3 261 275 227
3 254 272 229
3 31 281 217
3 272 286 226
3 230 238 76
3 250 261 221
3 253 272 254
3 308 331 321
3 338 342 216
3 303 305 293
3 216 342 327
3 218 239 8
3 10 239 225
3 216 235 14
3 214 223 20
3 35 275 236
3 227 275 36
3 214 340 223
3 216 345 235
3 218 260 239
3 245 257 220
3 239 280 225
3 233 260 251
3 257 282 268
3 265 288 278
3 282 284 268
3 282 314 298
3 312 327 299
3 337 339 334
POINT_DATA 348
SCALARS UX float 1
LOOKUP_TABLE default
0.000000
-0.000000
41550.945351
38907.713161
5410.970050
38593.675944
6448.828545
6849.474633
8464.540246
8683.169520
10377.520066
10694.852483
12728.804333
13065.474950
15448.501089
15722.929481
17606.652298
19327.390379
20386.872882
22268.997949
23649.187990
24289.826527
26171.940284
27794.945138
28508.861970
30156.555450
30941.089254
32553.031199
34150.655854
34318.247680
36079.798336
36156.558449
37137.963633
37832.040262
-0.000000
0.000000
-0.000000
0.000000
-0.000000
0.000000
-0.000000
0.000000
7079.626634
10506.835530
15943.441345
22624.412072
28717.022789
33648.522939
37706.404823
40560.334186
41923.915356
42317.568485
42936.699171
43801.242209
45064.600363
46175.571694
46453.776262
44600.874121
37973.037954
34512.712013
28751.590584
21836.869102
15520.482513
9763.676525
5043.865771
1521.282712
223.336763
485.473709
899.535563
1366.707952
1912.090229
2473.870779
3185.426086
4144.715904
39719.019080
40390.567030
40828.566076
41093.560135
41281.594415
41426.087378
41519.288136
41543.611036
24859.261894
14103.935186
33179.202098
7963.803015
38918.923179
44843.243509
28117.769215
5673.210987
20488.201755
43232.938704
41431.027536
41059.276124
27520.103261
11690.498649
35054.802758
12515.955303
41799.311294
8719.655492
3588.579739
2372.150552
6734.839526
42376.373943
17966.354045
41109.751021
9694.613694
37226.168205
2715.570374
41676.980265
39368.081725
41244.499374
10832.838342
44386.452718
18461.211763
35490.479735
43921.204219
4787.094483
40645.850859
41827.859605
6102.866342
4750.615736
3051.766798
41815.793112
36206.240351
38365.909274
42141.197232
41207.620989
21838.004207
8280.716418
38554.368848
41090.109442
7529.366997
39858.029418
35328.998692
41504.328183
37373.035910
6363.041609
35131.090675
8996.860236
38383.530004
39473.188414
37066.250072
29223.488787
7968.108570
8984.037879
10864.324844
15204.789323
29657.147836
36673.442698
9955.129877
35107.123571
12822.512065
10379.046711
23772.831744
36284.134167
31575.729237
13030.779999
37985.458302
37913.414237
17467.115910
33707.350282
31453.633449
34493.355521
18944.079300
39903.248459
41511.632087
12154.937661
14613.131669
33949.743044
31819.108792
29218.851606
26052.434966
32022.125422
14563.219258
36180.179195
28789.645968
41819.677350
30504.220551
38845.257111
23202.254187
35302.812239
19982.733100
23319.508971
32382.199937
30698.798339
13959.100213
30486.902360
41269.749949
29097.440178
27237.195379
26552.425821
18942.774821
28454.155022
16609.980492
16213.805993
13434.758370
31131.468031
20829.935781
28259.785720
15610.789847
26236.168778
34066.188557
23401.270947
16487.266217
25975.408857
15609.517698
19836.690227
17462.941725
25881.145067
24210.865127
19330.975953
22486.296859
23814.209373
23442.585881
32023.271912
14598.110307
37141.074645
7324.857955
124.395992
16421.874542
2569.319253
37765.980764
25666.129663
20502.807174
11613.151344
31045.265318
1066.891559
1387.980685
35149.643456
39423.591714
40414.605486
811.735430
4748.132502
3413.466730
17208.551573
724.411776
401.424166
39564.463304
9222.004803
39819.673867
3488.197313
37655.809565
33009.583559
832.155032
26414.218255
9222.542641
1206.432582
38440.280069
3343.697149
1856.360338
6100.761122
39956.198543
35501.396151
37052.053171
3633.767645
4613.697157
22267.764673
7420.181958
3228.190012
6809.151424
2009.390806
35212.499533
37516.560966
4244.289454
7604.491203
6188.880835
30960.789823
15450.623925
36225.902563
10719.064000
3161.611969
33952.414364
36303.103181
2466.956239
888.674162
34993.759832
34576.953804
5495.073253
8882.667610
8742.952824
36434.744428
20908.377325
1792.205786
15571.169293
32825.330452
30557.388600
4720.634315
9092.164334
8134.648537
33945.892799
12249.565419
29214.475554
33320.704345
6859.450094
35548.508903
13307.054018
620.595604
17808.119767
10851.084765
31581.200954
25903.263059
33049.068073
35131.160351
8953.092021
34340.261446
11904.708708
28651.790141
31255.609611
15371.494021
25648.081609
32942.485089
10286.831126
28030.120423
22622.847799
31284.598308
19532.123736
13241.432569
25429.835909
29668.528294
11785.681629
28715.377811
30733.160717
26372.420737
15597.784109
28226.289660
17910.534670
12705.283793
28042.739141
23227.354615
15150.016784
29152.308987
21712.241675
24086.635963
18891.870521
26445.637313
27033.654170
20990.011058
13780.706877
22160.625793
24593.779524
17186.906827
12850.279593
21057.587342
19220.063394
14951.477498
18941.697153
21954.616694
SCALARS UY float 1
LOOKUP_TABLE default
0.000001
0.000001
0.002999
0.002999
2599.776188
-3916.094206
3068.793042
3994.274081
2780.081149
3438.420507
2598.870583
2841.739371
2307.842585
1886.283107
1738.394482
1025.669858
917.290756
619.420730
-15.107300
-1.840916
-626.664639
-1589.933670
-1519.806662
-1985.193635
-2547.728918
-2867.845704
-3209.451945
-3575.398854
-4200.915122
-3849.070871
-5050.171585
-4099.830095
-4336.513452
-4101.740006
0.000000
0.000000
0.000000
0.000000
-0.000000
-0.000000
-0.000000
0.000000
-18398.919796
-31376.245481
-36193.318635
-33936.025646
-26542.743113
-17212.880008
-8888.066275
-2887.994082
0.003000
0.003000
0.003000
0.003000
0.003000
0.003000
0.003000
0.003000
17886.751790
30160.958332
34485.763594
32041.097373
24716.083275
15922.526967
7851.688792
2297.843457
285.552666
463.264269
680.725372
1118.064587
1715.215620
2304.330573
2679.917687
2646.568493
-3868.405299
-3855.007259
-3481.982956
-2798.732161
-2109.347843
-1493.295699
-1009.965064
-553.867667
-2556.546197
1274.507935
-3338.238896
4860.285661
-3005.145803
3318.525034
25878.640557
4986.057516
-1531.682146
-790.412875
-2248.501257
16140.281189
-3012.355032
2745.371150
-3231.602990
17514.989143
-680.133965
12428.359163
4271.204489
2788.270008
4963.598155
-1036.491106
-495.707104
-2378.419768
4002.838258
-2865.973484
3581.366144
-1623.167535
-2567.848888
-1734.870174
11522.870458
368.597460
23386.264696
24528.629140
8980.438284
5087.408077
-2178.811081
-1516.184797
4769.627657
6749.101026
3664.672001
-1084.095326
-2975.223745
-2771.522802
-698.368789
994.242431
18076.348980
6512.663230
-2498.934676
8715.197511
8322.943366
-2155.320543
-2951.942636
-1698.098263
16747.564841
8390.378184
9091.414075
5941.754410
-2356.840074
4272.957134
-2681.602030
15104.684384
7419.931634
11711.474496
7357.492292
15966.505426
9193.237430
1358.907485
8551.366686
4242.513197
10779.890124
5339.532719
10538.348536
-2603.831724
2489.259673
6177.447922
-2203.104562
-720.166616
12115.375440
-2998.382218
5972.142713
-2599.947719
7809.537393
-1945.907811
-727.593901
4464.971990
8515.314911
290.541801
-3323.126433
4605.904839
3446.800105
-2952.592431
4659.060905
-2166.136069
956.875305
-1407.340548
-3246.158657
-1663.268402
6422.841615
-1559.811078
3725.605021
1371.953075
-2589.938402
-837.315626
3260.359734
-2827.891350
-1356.350699
-3158.077579
6596.576928
-280.183191
1969.380543
-2631.325373
3480.195529
5764.878554
2101.352698
-2117.740382
582.648911
-1575.729551
1849.800057
-2787.348154
-2303.654955
-971.391397
212.115162
-2147.766064
805.458063
-518.287020
607.700451
-1244.172043
-1745.099036
-969.594036
-1948.728461
-2209.584587
506.839600
-3547.253057
2293.917238
-6564.291856
2001.926255
-3714.119448
-27641.683930
1542.904956
-7667.742616
-291.730405
1423.085431
2300.707187
-19842.371734
393.423048
845.401708
-14326.119931
-5902.932087
-3849.054950
-886.623402
1577.687013
-15364.774827
2004.888926
216.812829
80.862316
-6158.030606
2127.258380
-4674.591585
-3529.345467
-6779.237989
-13883.546166
61.933147
-24233.669146
-25819.966937
-9180.095548
-7988.789183
1328.223190
1130.834442
1823.939908
-4955.510350
-11438.336115
-10013.539689
-990.974500
1366.840524
-19263.507277
-19279.659313
813.887185
1697.665619
877.560183
-10134.384131
-6719.562920
-9869.536000
-1600.245300
1498.451204
-12962.076587
-17135.520548
-7551.233457
-11966.407555
1052.556159
-14819.201645
-8194.705514
203.048261
272.622244
-5602.668527
-8691.675762
572.079251
-6037.481925
1849.518753
-6478.590353
-11707.039723
637.308297
-10155.490681
-10249.655659
-18117.631798
1190.757330
6.591287
1580.635264
-5295.729021
-3512.261384
-10613.752034
-7418.435944
1204.738834
-6347.726077
-6219.041355
168.209227
-5892.494344
1948.932220
-8856.666417
-13882.495406
-4495.053329
-7256.251083
891.051464
-6373.751213
621.304416
-7642.370782
-4465.612285
-2249.903612
-9495.576513
-5752.838090
1496.290857
-16821.846635
-7582.348257
-6431.606069
-3184.299382
1414.125036
-5906.428770
-2194.473720
-1037.100074
-5248.082162
-3067.591227
-3548.073548
983.949828
-1715.555883
-1387.342818
1876.441828
-2550.915023
-3512.598782
-411.238093
-3498.871406
-5175.969923
-1883.452142
-76.063058
-1852.967722
-1011.637400
-1667.222742
2158.238142
-498.643782
-790.814304
1576.142737
2212.049661
468.171894
1112.747546
1747.240938
1708.812971
1007.496964
SCALARS DAMAGE float 1
LOOKUP_TABLE default
0.854175
0.925623
0.848044
0.919651
0.000000
0.000000
-0.000000
0.000000
0.000000
0.000000
0.000000
0.000000
0.000000
0.000000
0.000000
0.000000
0.000000
0.000000
0.000000
0.000000
0.000000
0.000000
0.000000
0.000000
0.000000
0.000000
0.000000
0.000000
0.000000
0.000000
0.000000
0.000000
0.000000
-0.000000
0.844636
0.826342
0.814030
0.818788
0.848800
0.874472
0.902545
0.918883
0.915956
0.897551
0.867737
0.831935
0.800880
0.789576
0.808343
0.837081
0.837259
0.816291
0.805616
0.807668
0.839511
0.871555
0.898961
0.916726
0.914092
0.894209
0.863919
0.827883
0.797605
0.793740
0.813598
0.842918
0.850150
0.842836
0.829317
0.805596
0.767953
0.708330
0.610913
0.440454
0.435567
0.605296
0.702306
0.762537
0.800061
0.823449
0.836607
0.843953
0.083514
0.078043
0.093077
0.107963
0.182196
0.854769
0.840041
0.450164
0.088532
0.772463
0.711377
0.904450
0.084807
0.096112
0.088947
0.755293
0.823686
0.746879
0.715514
0.805475
0.150748
0.747447
0.090922
0.630280
0.098982
0.136627
0.822476
0.766524
0.321879
0.633899
0.622545
0.817516
0.790321
0.881410
0.890141
0.599859
0.533650
0.724928
0.266304
0.782783
0.770038
0.797716
0.147483
0.186707
0.787599
0.768370
0.756623
0.325524
0.310630
0.844993
0.578207
0.481821
0.200330
0.662348
0.858346
0.698624
0.788925
0.253303
0.418440
0.789368
0.265020
0.784441
0.462005
0.685763
0.394717
0.702078
0.726684
0.691242
0.474155
0.726056
0.572440
0.237863
0.678847
0.344772
0.625451
0.363890
0.486797
0.642698
0.637791
0.206708
0.701385
0.328191
0.548820
0.574542
0.728904
0.236556
0.500390
0.596190
0.102093
0.635692
0.546196
0.207981
0.322664
0.455077
0.507651
0.696938
0.103020
0.598398
0.581421
0.515121
0.424489
0.396116
0.295899
0.450975
0.225108
0.213467
0.684929
0.103196
0.650541
0.380257
0.309130
0.201897
0.322735
0.417868
0.122906
0.342868
0.277632
0.321564
0.193991
0.098955
0.383227
0.243718
0.080343
0.193855
0.105736
0.163041
0.168531
0.284060
0.184565
0.086767
0.098681
0.102016
0.108774
0.087138
0.095285
0.105867
0.105207
0.860017
0.844716
0.628941
0.521946
0.084581
0.079023
0.098454
0.757790
0.771522
0.769440
0.753942
0.622736
0.800564
0.819746
0.321858
0.911193
0.091648
0.807124
0.832353
0.717392
0.100832
0.816698
0.802242
0.329591
0.633241
0.793703
0.786260
0.885807
0.895373
0.788018
0.528717
0.711241
0.144798
0.768977
0.613409
0.662590
0.752873
0.456083
0.760432
0.869434
0.670438
0.246603
0.687071
0.482442
0.157945
0.846901
0.686500
0.408267
0.590666
0.794360
0.230504
0.797916
0.616652
0.696853
0.329393
0.739926
0.787974
0.092303
0.352095
0.634228
0.754296
0.238139
0.107880
0.679714
0.732257
0.720453
0.467640
0.717459
0.558402
0.570746
0.371602
0.122106
0.645681
0.531979
0.290941
0.506108
0.126956
0.690896
0.795933
0.607071
0.228781
0.417083
0.658360
0.108786
0.223421
0.494299
0.181944
0.446248
0.432632
0.189066
0.533146
0.559769
0.197908
0.366662
0.697018
0.560578
0.300703
0.473708
0.309503
0.442911
0.091749
0.563406
0.321636
0.112897
0.305908
0.306184
0.119285
0.423564
0.229226
0.189158
0.393593
0.436900
0.208671
0.500649