# vtk DataFile Version 2.0
Test
ASCII
DATASET POLYDATA
POINTS 348 float
0.000000 0.000000 0.000000
1.000000 0.000000 0.000000
1.000000 1.000000 0.000000
0.000000 1.000000 0.000000
0.300000 0.330000 0.000000
0.700000 0.680000 0.000000
0.313793 0.342069 0.000000
0.327586 0.354138 0.000000
0.341379 0.366207 0.000000
0.355172 0.378276 0.000000
0.368966 0.390345 0.000000
0.382759 0.402414 0.000000
0.396552 0.414483 0.000000
0.410345 0.426552 0.000000
0.424138 0.438621 0.000000
0.437931 0.450690 0.000000
0.451724 0.462759 0.000000
0.465517 0.474828 0.000000
0.479310 0.486897 0.000000
0.493103 0.498966 0.000000
0.506897 0.511034 0.000000
0.520690 0.523103 0.000000
0.534483 0.535172 0.000000
0.548276 0.547241 0.000000
0.562069 0.559310 0.000000
0.575862 0.571379 0.000000
0.589655 0.583448 0.000000
0.603448 0.595517 0.000000
0.617241 0.607586 0.000000
0.631034 0.619655 0.000000
0.644828 0.631724 0.000000
0.658621 0.643793 0.000000
0.672414 0.655862 0.000000
0.686207 0.667931 0.000000
0.111111 0.000000 0.000000
0.222222 0.000000 0.000000
0.333333 0.000000 0.000000
0.444444 0.000000 0.000000
0.555556 0.000000 0.000000
0.666667 0.000000 0.000000
0.777778 0.000000 0.000000
0.888889 0.000000 0.000000
1.000000 0.111111 0.000000
1.000000 0.222222 0.000000
1.000000 0.333333 0.000000
1.000000 0.444444 0.000000
1.000000 0.555556 0.000000
1.000000 0.666667 0.000000
1.000000 0.777778 0.000000
1.000000 0.888889 0.000000
0.888889 1.000000 0.000000
0.777778 1.000000 0.000000
0.666667 1.000000 0.000000
0.555556 1.000000 0.000000
0.444444 1.000000 0.000000
0.333333 1.000000 0.000000
0.222222 1.000000 0.000000
0.111111 1.000000 0.000000
0.000000 0.888889 0.000000
0.000000 0.777778 0.000000
0.000000 0.666667 0.000000
0.000000 0.555556 0.000000
0.000000 0.444444 0.000000
0.000000 0.333333 0.000000
0.000000 0.222222 0.000000
0.000000 0.111111 0.000000
0.033333 0.036667 0.000000
0.066667 0.073333 0.000000
0.100000 0.110000 0.000000
0.133333 0.146667 0.000000
0.166667 0.183333 0.000000
0.200000 0.220000 0.000000
0.233333 0.256667 0.000000
0.266667 0.293333 0.000000
0.733333 0.715556 0.000000
0.766667 0.751111 0.000000
0.800000 0.786667 0.000000
0.833333 0.822222 0.000000
0.866667 0.857778 0.000000
0.900000 0.893333 0.000000
0.933333 0.928889 0.000000
0.966667 0.964444 0.000000
0.520587 0.545492 0.000000
0.415289 0.451355 0.000000
0.608082 0.622878 0.000000
0.329310 0.380000 0.000000
0.689298 0.696009 0.000000
0.329032 0.887726 0.000000
0.113157 0.652804 0.000000
0.244883 0.329633 0.000000
0.479482 0.510718 0.000000
0.555556 0.888889 0.000000
0.768749 0.816415 0.000000
0.108290 0.868367 0.000000
0.547197 0.568869 0.000000
0.384133 0.428369 0.000000
0.632744 0.642153 0.000000
0.104401 0.429223 0.000000
0.864328 0.928455 0.000000
0.100893 0.352753 0.000000
0.166037 0.253357 0.000000
0.096667 0.180000 0.000000
0.301502 0.359590 0.000000
0.662928 0.877937 0.000000
0.453448 0.488621 0.000000
0.729671 0.785691 0.000000
0.356897 0.404138 0.000000
0.657532 0.671072 0.000000
0.045104 0.172880 0.000000
0.797778 0.855556 0.000000
0.681285 0.714777 0.000000
0.643186 0.801258 0.000000
0.198742 0.420964 0.000000
0.435927 0.897407 0.000000
0.097814 0.522757 0.000000
0.097733 0.763101 0.000000
0.202442 0.887095 0.000000
0.208229 0.300316 0.000000
0.687298 0.763055 0.000000
0.732907 0.844867 0.000000
0.274614 0.345060 0.000000
0.086469 0.258016 0.000000
0.128960 0.218677 0.000000
0.819301 0.890730 0.000000
0.637616 0.659644 0.000000
0.671344 0.688823 0.000000
0.754297 0.912369 0.000000
0.420519 0.807300 0.000000
0.183605 0.573391 0.000000
0.282078 0.387511 0.000000
0.650782 0.703950 0.000000
0.270127 0.811087 0.000000
0.204596 0.361710 0.000000
0.644539 0.745067 0.000000
0.613395 0.654884 0.000000
0.691198 0.814562 0.000000
0.191354 0.766184 0.000000
0.149990 0.321422 0.000000
0.285823 0.725407 0.000000
0.309309 0.399199 0.000000
0.612418 0.714893 0.000000
0.346932 0.779053 0.000000
0.626938 0.680652 0.000000
0.223075 0.657517 0.000000
0.244050 0.377434 0.000000
0.151724 0.377214 0.000000
0.290413 0.428947 0.000000
0.176216 0.487072 0.000000
0.290713 0.655700 0.000000
0.413970 0.728461 0.000000
0.253315 0.412705 0.000000
0.357401 0.715262 0.000000
0.239023 0.457326 0.000000
0.331256 0.418609 0.000000
0.273223 0.589611 0.000000
0.589885 0.679468 0.000000
0.392874 0.661968 0.000000
0.323654 0.456509 0.000000
0.573998 0.718925 0.000000
0.479048 0.738498 0.000000
0.243375 0.518922 0.000000
0.588935 0.638069 0.000000
0.334432 0.671552 0.000000
0.566320 0.658021 0.000000
0.306185 0.529761 0.000000
0.589798 0.761754 0.000000
0.495119 0.813595 0.000000
0.353150 0.440855 0.000000
0.287972 0.480274 0.000000
0.442206 0.683257 0.000000
0.589485 0.609645 0.000000
0.358099 0.640012 0.000000
0.377212 0.598830 0.000000
0.567476 0.621334 0.000000
0.352767 0.471120 0.000000
0.549421 0.691362 0.000000
0.425042 0.620319 0.000000
0.597665 0.830161 0.000000
0.574764 0.597430 0.000000
0.534908 0.746736 0.000000
0.329525 0.575100 0.000000
0.506588 0.687785 0.000000
0.371355 0.531018 0.000000
0.415266 0.559242 0.000000
0.547654 0.633249 0.000000
0.472209 0.632481 0.000000
0.376409 0.459738 0.000000
0.548452 0.607288 0.000000
0.554609 0.808227 0.000000
0.559052 0.584071 0.000000
0.327201 0.621801 0.000000
0.453295 0.586678 0.000000
0.402340 0.512995 0.000000
0.529444 0.587669 0.000000
0.374005 0.491528 0.000000
0.335990 0.493368 0.000000
0.397564 0.448152 0.000000
0.518088 0.625340 0.000000
0.430654 0.527631 0.000000
0.491869 0.596486 0.000000
0.402870 0.474137 0.000000
0.531081 0.558791 0.000000
0.541653 0.659311 0.000000
0.466837 0.547184 0.000000
0.438869 0.472955 0.000000
0.505618 0.565101 0.000000
0.424683 0.467477 0.000000
0.453958 0.510541 0.000000
0.428740 0.489609 0.000000
0.478476 0.572015 0.000000
0.490413 0.549236 0.000000
0.466550 0.499194 0.000000
0.494969 0.527324 0.000000
0.506347 0.538352 0.000000
0.513363 0.487164 0.000000
0.600815 0.570552 0.000000
0.424505 0.414046 0.000000
0.683253 0.643266 0.000000
0.339439 0.342435 0.000000
0.666667 0.111111 0.000000
0.886638 0.346747 0.000000
0.266813 0.227227 0.000000
0.776009 0.672382 0.000000
0.531559 0.509860 0.000000
0.479515 0.465912 0.000000
0.393620 0.387118 0.000000
0.898934 0.565298 0.000000
0.339730 0.109941 0.000000
0.203988 0.153798 0.000000
0.906042 0.650301 0.000000
0.794664 0.722701 0.000000
0.902222 0.824444 0.000000
0.555556 0.111111 0.000000
0.320899 0.295374 0.000000
0.896378 0.117878 0.000000
0.450000 0.436897 0.000000
0.196088 0.098061 0.000000
0.140018 0.065624 0.000000
0.843748 0.746205 0.000000
0.365351 0.363305 0.000000
0.953960 0.826842 0.000000
0.626191 0.194699 0.000000
0.733546 0.659776 0.000000
0.803431 0.575393 0.000000
0.454833 0.100722 0.000000
0.891134 0.483116 0.000000
0.902397 0.236063 0.000000
0.797569 0.110394 0.000000
0.926271 0.754488 0.000000
0.313006 0.249964 0.000000
0.245369 0.187081 0.000000
0.326121 0.326003 0.000000
0.876394 0.786840 0.000000
0.807048 0.626864 0.000000
0.830998 0.670874 0.000000
0.548482 0.199809 0.000000
0.356095 0.273323 0.000000
0.809337 0.422530 0.000000
0.823860 0.232234 0.000000
0.425571 0.204310 0.000000
0.358730 0.324488 0.000000
0.314237 0.183426 0.000000
0.754676 0.607894 0.000000
0.702055 0.652315 0.000000
0.728134 0.201015 0.000000
0.567636 0.273174 0.000000
0.386617 0.297786 0.000000
0.762815 0.539091 0.000000
0.781950 0.344257 0.000000
0.695373 0.623274 0.000000
0.730735 0.288788 0.000000
0.368291 0.219271 0.000000
0.851223 0.605133 0.000000
0.720695 0.625284 0.000000
0.476746 0.173321 0.000000
0.264995 0.104615 0.000000
0.642371 0.606851 0.000000
0.706529 0.594053 0.000000
0.480310 0.252388 0.000000
0.654218 0.276994 0.000000
0.387726 0.345658 0.000000
0.670690 0.630000 0.000000
0.721407 0.414156 0.000000
0.393607 0.152562 0.000000
0.702466 0.354704 0.000000
0.726437 0.566166 0.000000
0.846722 0.541910 0.000000
0.407017 0.254185 0.000000
0.512665 0.308032 0.000000
0.413299 0.323792 0.000000
0.634192 0.591179 0.000000
0.603095 0.331028 0.000000
0.716034 0.515839 0.000000
0.672335 0.576408 0.000000
0.439138 0.291270 0.000000
0.659641 0.614051 0.000000
0.649787 0.335029 0.000000
0.393189 0.072645 0.000000
0.641681 0.391463 0.000000
0.413986 0.367941 0.000000
0.693653 0.549525 0.000000
0.754192 0.469730 0.000000
0.619035 0.581076 0.000000
0.677388 0.604685 0.000000
0.472717 0.317427 0.000000
0.654953 0.593875 0.000000
0.495162 0.354533 0.000000
0.668124 0.514324 0.000000
0.617002 0.555711 0.000000
0.575238 0.377105 0.000000
0.694094 0.473889 0.000000
0.640759 0.575176 0.000000
0.445610 0.347937 0.000000
0.804478 0.498926 0.000000
0.664817 0.442806 0.000000
0.650758 0.550645 0.000000
0.592233 0.422406 0.000000
0.464322 0.381814 0.000000
0.639029 0.480476 0.000000
0.574138 0.545517 0.000000
0.547432 0.338492 0.000000
0.629028 0.521607 0.000000
0.591760 0.555178 0.000000
0.599106 0.499443 0.000000
0.489590 0.403898 0.000000
0.565064 0.529474 0.000000
0.555227 0.412788 0.000000
0.435908 0.385097 0.000000
0.581338 0.522882 0.000000
0.598180 0.463718 0.000000
0.530592 0.386650 0.000000
0.598965 0.532765 0.000000
0.627188 0.440174 0.000000
0.567422 0.480373 0.000000
0.524971 0.432538 0.000000
0.567735 0.507373 0.000000
0.548744 0.520597 0.000000
0.561809 0.446871 0.000000
0.411443 0.412250 0.000000
0.537159 0.466059 0.000000
0.544534 0.491986 0.000000
0.471348 0.428369 0.000000
0.412669 0.396823 0.000000
0.512563 0.460762 0.000000
0.491316 0.446319 0.000000
0.455007 0.407374 0.000000
0.468237 0.452514 0.000000
0.495500 0.477599 0.000000
POLYGONS 658 2632
3 182 192 183
3 157 195 168
3 118 135 111
3 198 207 203
3 65 0 66
3 160 164 154
3 99 145 97
3 149 159 127
3 132 144 112
3 203 212 210
3 68 108 65
3 112 152 147
3 81 50 80
3 185 197 181
3 51 123 98
3 4 120 73
3 185 199 197
3 152 160 147
3 116 136 131
3 140 155 142
3 103 177 111
3 2 50 81
3 176 191 185
3 198 203 183
3 111 165 133
3 61 114 88
3 114 147 128
3 179 181 175
3 67 65 66
3 68 65 67
3 51 98 50
3 168 195 164
3 93 136 116
3 100 137 121
3 191 209 199
3 112 145 132
3 54 113 91
3 174 195 157
3 128 143 88
3 184 202 197
3 186 200 194
3 115 136 93
3 172 190 180
3 169 181 159
3 101 108 68
3 133 165 140
3 63 121 99
3 65 108 64
3 159 166 127
3 106 167 153
3 134 161 84
3 183 203 191
3 91 188 177
3 74 110 86
3 95 186 167
3 182 183 172
3 132 145 137
3 128 160 154
3 91 103 52
3 103 126 52
3 207 211 90
3 108 121 64
3 194 200 192
3 111 135 103
3 152 168 160
3 85 139 102
3 159 179 166
3 193 205 201
3 192 198 183
3 74 118 110
3 63 99 97
3 166 188 91
3 160 168 164
3 141 149 127
3 94 201 23
3 125 130 107
3 140 158 155
3 164 182 180
3 116 131 87
3 95 196 186
3 171 190 172
3 97 145 112
3 203 209 191
3 87 127 113
3 105 135 118
3 127 166 113
3 159 181 179
3 206 208 200
3 198 208 207
3 50 98 80
3 97 114 62
3 179 188 166
3 183 191 176
3 169 185 181
3 207 208 104
3 182 195 194
3 107 142 124
3 121 137 99
3 164 180 154
3 164 195 182
3 97 147 114
3 72 117 100
3 13 196 95
3 182 194 192
3 59 115 93
3 172 183 176
3 119 126 103
3 141 151 149
3 148 190 162
3 130 142 107
3 149 169 159
3 87 113 55
3 64 121 63
3 176 185 169
3 187 197 193
3 87 141 127
3 56 116 87
3 138 141 131
3 111 177 165
3 112 147 97
3 83 196 13
3 136 143 138
3 150 152 112
3 54 91 53
3 53 91 52
3 52 126 51
3 63 97 62
3 88 115 60
3 192 208 198
3 88 143 136
3 172 176 156
3 153 167 157
3 140 142 130
3 55 113 54
3 88 136 115
3 62 114 61
3 167 186 174
3 209 210 205
3 163 173 161
3 201 205 82
3 143 148 138
3 105 118 74
3 205 213 82
3 180 182 172
3 155 175 163
3 61 88 60
3 155 161 134
3 56 87 55
3 197 199 193
3 93 116 57
3 138 151 141
3 199 205 193
3 193 201 94
3 25 189 24
3 181 202 175
3 131 141 87
3 203 210 209
3 189 193 94
3 175 202 163
3 60 115 59
3 212 213 210
3 57 116 56
3 51 126 123
3 200 208 192
3 156 176 169
3 89 144 132
3 187 189 178
3 184 187 173
3 148 162 138
3 26 178 25
3 73 120 89
3 138 162 151
3 102 139 129
3 117 137 100
3 158 179 175
3 165 188 179
3 58 93 57
3 59 93 58
3 16 204 15
3 156 169 149
3 157 168 146
3 173 178 170
3 110 133 130
3 139 153 146
3 3 58 57
3 146 150 129
3 123 126 109
3 155 163 161
3 124 142 134
3 85 153 139
3 75 105 74
3 83 206 200
3 119 135 105
3 109 126 119
3 101 122 121
3 167 174 157
3 171 172 156
3 24 189 94
3 83 200 196
3 186 194 174
3 153 157 146
3 180 190 154
3 199 209 205
3 110 125 86
3 33 125 107
3 73 117 72
3 178 189 25
3 147 160 128
3 89 132 117
3 78 123 109
3 210 213 205
3 163 184 173
3 184 197 187
3 82 213 21
3 158 175 155
3 177 188 165
3 90 211 18
3 173 187 178
3 132 137 117
3 15 206 83
3 18 211 104
3 7 102 6
3 104 204 16
3 187 193 189
3 21 213 212
3 89 117 73
3 170 178 26
3 118 133 110
3 137 145 99
3 31 124 96
3 204 206 15
3 102 129 120
3 165 179 158
3 161 173 170
3 129 150 144
3 110 130 125
3 142 155 134
3 23 201 22
3 22 82 21
3 151 156 149
3 20 90 19
3 19 90 18
3 17 104 16
3 18 104 17
3 21 212 20
3 24 94 23
3 15 83 14
3 14 83 13
3 77 92 76
3 76 92 75
3 139 146 129
3 86 125 33
3 98 123 78
3 151 162 156
3 13 95 12
3 12 95 11
3 107 124 31
3 29 84 28
3 28 84 27
3 72 100 71
3 71 100 70
3 100 122 70
3 10 106 9
3 11 106 10
3 27 170 26
3 92 105 75
3 140 165 158
3 8 85 7
3 9 85 8
3 129 144 120
3 78 109 77
3 133 140 130
3 162 190 171
3 146 168 152
3 196 200 186
3 146 152 150
3 103 135 119
3 136 138 131
3 92 119 105
3 30 96 29
3 31 96 30
3 22 201 82
3 5 86 33
3 70 122 101
3 80 98 79
3 79 98 78
3 154 190 148
3 70 101 69
3 69 101 68
3 20 212 90
3 32 107 31
3 33 107 32
3 161 170 84
3 163 202 184
3 124 134 96
3 6 102 4
3 194 195 174
3 84 170 27
3 102 120 4
3 77 109 92
3 104 208 204
3 109 119 92
3 120 144 89
3 121 122 100
3 162 171 156
3 104 211 207
3 204 208 206
3 74 86 5
3 85 102 7
3 9 106 85
3 95 106 11
3 29 96 84
3 96 134 84
3 106 153 85
3 114 128 88
3 203 207 90
3 90 212 203
3 91 177 103
3 113 166 91
3 95 167 106
3 101 121 108
3 111 133 118
3 144 150 112
3 128 154 143
3 143 154 148
3 197 202 181
3 191 199 185
3 264 279 241
3 265 278 255
3 326 337 334
3 69 236 228
3 339 343 334
3 307 318 310
3 317 327 312
3 282 298 284
3 81 49 2
3 79 240 49
3 314 332 298
3 238 254 229
3 327 342 299
3 229 272 226
3 233 251 4
3 258 264 247
3 66 34 67
3 73 233 4
3 0 34 66
3 321 323 318
3 339 340 214
3 69 237 236
3 308 311 302
3 80 49 81
3 79 49 80
3 36 275 35
3 12 342 338
3 307 310 292
3 231 248 240
3 284 296 270
3 288 304 278
3 229 248 238
3 261 283 271
3 5 242 74
3 219 264 241
3 234 258 247
3 245 313 257
3 231 240 79
3 260 280 239
3 270 279 264
3 45 245 220
3 284 298 296
3 270 296 279
3 286 313 245
3 257 268 220
3 225 342 12
3 256 260 233
3 246 258 234
3 307 321 318
3 280 299 225
3 219 241 232
3 5 263 242
3 242 273 262
3 35 237 34
3 49 240 48
3 317 345 327
3 73 249 233
3 273 277 262
3 300 315 307
3 265 320 288
3 227 283 261
3 306 317 312
3 241 279 265
3 277 285 262
3 287 294 266
3 310 314 282
3 289 312 299
3 241 265 255
3 47 248 229
3 321 331 323
3 306 330 324
3 242 262 222
3 308 321 315
3 247 264 219
3 324 345 317
3 323 329 318
3 46 229 226
3 278 287 259
3 311 315 293
3 224 347 18
3 214 343 339
3 298 316 309
3 323 335 333
3 232 274 244
3 291 320 265
3 308 315 311
3 224 346 344
3 257 301 282
3 344 346 341
3 316 337 326
3 336 340 335
3 235 345 341
3 259 287 271
3 262 285 267
3 255 278 274
3 235 346 16
3 271 283 259
3 226 245 46
3 324 344 341
3 36 297 227
3 249 271 256
3 316 326 309
3 328 335 323
3 341 345 324
3 323 331 328
3 316 332 329
3 43 246 234
3 226 286 245
3 232 244 38
3 266 280 260
3 278 304 294
3 67 237 68
3 68 237 69
3 219 232 38
3 40 247 219
3 268 270 258
3 259 283 274
3 269 273 263
3 299 342 225
3 315 321 307
3 306 312 304
3 277 303 293
3 220 268 258
3 48 248 47
3 285 300 292
3 333 340 339
3 240 248 48
3 47 229 46
3 329 332 318
3 289 299 280
3 220 246 44
3 278 294 287
3 255 274 232
3 236 237 35
3 319 331 322
3 298 332 316
3 300 307 292
3 34 237 67
3 334 344 324
3 293 315 300
3 330 334 324
3 309 320 291
3 220 258 246
3 293 300 277
3 241 255 232
3 38 244 37
3 274 278 259
3 301 310 282
3 46 245 45
3 37 297 36
3 326 330 309
3 292 310 301
3 45 220 44
3 39 219 38
3 40 219 39
3 310 318 314
3 234 247 41
3 298 309 291
3 279 291 265
3 344 347 224
3 214 347 343
3 221 249 73
3 285 292 267
3 306 324 317
3 320 330 306
3 256 287 266
3 329 337 316
3 222 262 253
3 323 333 329
3 302 311 290
3 295 303 281
3 44 246 43
3 41 247 40
3 294 312 289
3 279 296 291
3 335 340 333
3 341 346 235
3 333 337 329
3 268 284 270
3 258 270 264
3 328 331 319
3 42 234 1
3 43 234 42
3 1 234 41
3 244 297 37
3 22 336 23
3 228 275 250
3 236 275 228
3 27 302 28
3 327 345 216
3 343 344 334
3 326 334 330
3 325 336 335
3 74 242 222
3 267 313 243
3 262 267 243
3 333 339 337
3 261 271 249
3 274 283 244
3 217 281 269
3 304 312 294
3 266 289 280
3 223 340 336
3 256 266 260
3 277 300 285
3 309 330 320
3 343 347 344
3 288 306 304
3 288 320 306
3 263 273 242
3 12 338 13
3 269 303 277
3 222 254 230
3 223 336 22
3 23 325 319
3 281 303 269
3 25 322 215
3 296 298 291
3 23 336 325
3 266 294 289
3 271 287 256
3 71 250 221
3 319 322 25
3 28 302 290
3 215 302 27
3 28 290 276
3 290 311 305
3 276 295 30
3 292 301 267
3 228 250 71
3 16 346 17
3 30 295 281
3 249 256 233
3 322 331 308
3 18 347 19
3 248 252 238
3 19 214 20
3 253 254 222
3 20 223 21
3 21 223 22
3 325 335 328
3 17 224 18
3 25 215 26
3 26 215 27
3 23 319 24
3 24 319 25
3 15 235 16
3 14 235 15
3 301 313 267
3 221 261 249
3 215 322 308
3 305 311 293
3 13 216 14
3 217 269 263
3 74 230 75
3 75 230 76
3 215 308 302
3 11 225 12
3 10 225 11
3 29 276 30
3 28 276 29
3 32 217 33
3 31 217 32
3 71 221 72
3 72 221 73
3 30 281 31
3 230 254 238
3 9 239 10
3 8 239 9
3 238 252 77
3 318 332 314
3 290 305 276
3 227 297 283
3 257 313 301
3 6 218 7
3 7 218 8
3 70 228 71
3 69 228 70
3 231 252 248
3 276 305 295
3 76 238 77
3 295 305 303
3 6 251 218
3 250 275 261
3 4 251 6
3 325 328 319
3 13 338 216
3 283 297 244
3 251 260 218
3 77 252 231
3 222 230 74
3 269 277 273
3 253 262 243
3 17 346 224
3 19 347 214
3 217 263 33
3 243 313 286
3 243 272 253
3 78 231 79
3 77 231 78
3 243 286 272
3 33 263 5
3 261 275 227
3 254 272 229
3 31 281 217
3 272 286 226
3 230 238 76
3 250 261 221
3 253 272 254
3 308 331 321
3 338 342 216
3 303 305 293
3 216 342 327
3 218 239 8
3 10 239 225
3 216 235 14
3 214 223 20
3 35 275 236
3 227 275 36
3 214 340 223
3 216 345 235
3 218 260 239
3 245 257 220
3 239 280 225
3 233 260 251
3 257 282 268
3 265 288 278
3 282 284 268
3 282 314 298
3 312 327 299
3 337 339 334
POINT_DATA 348
SCALARS UX float 1
LOOKUP_TABLE default
-0.000000
0.000000
-0.035078
-0.043152
0.009983
-0.051781
0.012006
0.011240
0.011018
0.005799
0.006541
0.000213
0.000557
-0.003869
-0.004288
-0.011291
-0.011347
-0.013231
-0.017575
-0.018757
-0.020874
-0.025825
-0.026983
-0.029433
-0.032595
-0.033232
-0.036671
-0.038191
-0.039549
-0.045750
-0.046425
-0.047409
-0.048329
-0.052045
-0.000000
-0.000000
-0.000000
-0.000000
0.000000
-0.000000
0.000000
0.000000
-0.000173
-0.003208
-0.010809
-0.022823
-0.035645
-0.042562
-0.040774
-0.036696
-0.035089
-0.034467
-0.034722
-0.037220
-0.039613
-0.041648
-0.042921
-0.043510
-0.041924
-0.037230
-0.028761
-0.016308
-0.003120
0.004755
0.003809
0.000746
0.000094
0.000106
0.000438
0.000772
0.001358
0.002222
0.003800
0.006942
-0.044573
-0.041639
-0.039796
-0.038259
-0.037246
-0.036477
-0.035810
-0.035463
-0.020761
-0.001863
-0.034977
0.012599
-0.047834
-0.041014
-0.027722
0.010914
-0.013023
-0.037324
-0.037634
-0.041240
-0.024940
0.003610
-0.039941
-0.001157
-0.035498
0.004419
0.004652
0.002207
0.013530
-0.035801
-0.008703
-0.038231
0.008375
-0.044753
0.002340
-0.036560
-0.044582
-0.037124
0.000697
-0.039717
-0.012481
-0.036371
-0.041661
0.007722
-0.038467
-0.036300
0.012308
0.004724
0.003421
-0.035817
-0.041411
-0.046408
-0.034991
-0.038828
-0.019257
0.008654
-0.043275
-0.039246
0.007085
-0.039798
-0.038383
-0.036790
-0.037140
0.005978
-0.035111
0.008000
-0.040245
-0.038120
-0.041290
-0.029055
0.006535
0.004167
0.001231
-0.007969
-0.029612
-0.036284
0.002994
-0.034963
-0.003631
0.005085
-0.022398
-0.038450
-0.031562
-0.002921
-0.038595
-0.037261
-0.012661
-0.034970
-0.031569
-0.035439
-0.014727
-0.038482
-0.038466
0.001177
-0.007030
-0.033915
-0.032082
-0.028931
-0.024740
-0.031871
-0.004845
-0.036942
-0.027802
-0.037121
-0.029850
-0.038053
-0.021224
-0.035511
-0.015063
-0.019582
-0.032186
-0.029854
-0.002232
-0.029264
-0.037921
-0.027686
-0.026688
-0.023942
-0.011939
-0.026080
-0.008219
-0.008931
-0.000210
-0.030315
-0.014558
-0.026026
-0.004936
-0.022983
-0.034393
-0.018283
-0.006163
-0.022224
-0.004731
-0.012052
-0.007955
-0.022300
-0.019431
-0.010789
-0.016055
-0.018956
-0.025498
-0.040200
-0.009393
-0.051286
0.005494
0.000943
-0.011627
0.000808
-0.047069
-0.028519
-0.020169
-0.003907
-0.036759
-0.001393
-0.000142
-0.042846
-0.043473
-0.038741
0.000334
0.005731
0.000227
-0.014439
-0.000811
-0.000387
-0.042200
0.001384
-0.038869
-0.000422
-0.051124
-0.039140
-0.000364
-0.027205
-0.003695
0.000615
-0.041558
0.001432
0.000044
0.007625
-0.040269
-0.043962
-0.044532
-0.000510
0.002145
-0.019155
-0.002829
-0.000433
0.004012
-0.001083
-0.044757
-0.051078
-0.001028
-0.002581
0.001587
-0.034275
-0.010348
-0.048369
-0.005416
-0.000153
-0.041139
-0.046863
-0.000350
-0.001596
-0.046824
-0.042874
-0.000812
-0.003788
0.000243
-0.051061
-0.016755
-0.000972
-0.010243
-0.038596
-0.034529
0.000271
-0.003469
-0.000635
-0.044423
-0.006603
-0.030518
-0.040674
-0.000657
-0.048568
-0.007738
-0.000842
-0.013020
-0.003702
-0.035965
-0.024236
-0.042394
-0.046449
-0.002899
-0.044760
-0.006356
-0.030568
-0.038423
-0.010569
-0.024255
-0.041500
-0.003692
-0.028793
-0.019723
-0.036906
-0.016420
-0.008215
-0.025308
-0.035661
-0.006228
-0.032223
-0.038083
-0.028613
-0.011808
-0.033785
-0.014640
-0.007059
-0.032848
-0.022601
-0.010726
-0.034480
-0.019171
-0.025212
-0.016855
-0.029869
-0.031237
-0.019711
-0.004712
-0.022540
-0.026762
-0.014673
-0.006476
-0.020950
-0.017916
-0.010782
-0.017097
-0.022465
SCALARS UY float 1
LOOKUP_TABLE default
0.000000
0.000000
0.210000
0.210000
0.054502
0.153602
0.064543
0.090908
0.060194
0.093413
0.068256
0.107054
0.064926
0.111473
0.065707
0.115320
0.092709
0.088067
0.107016
0.083637
0.097956
0.134659
0.101258
0.109012
0.129446
0.115971
0.143965
0.124243
0.106168
0.141430
0.110788
0.149794
0.149181
0.151898
0.000000
0.000000
0.000000
0.000000
0.000000
0.000000
0.000000
0.000000
0.023446
0.048060
0.073514
0.098279
0.121075
0.141588
0.162447
0.185490
0.210000
0.210000
0.210000
0.210000
0.210000
0.210000
0.210000
0.210000
0.185783
0.160928
0.135567
0.110876
0.088019
0.067076
0.046441
0.023841
0.007639
0.015122
0.022384
0.029584
0.036628
0.043336
0.049347
0.054091
0.156484
0.161931
0.167855
0.174170
0.180978
0.188013
0.195068
0.202414
0.172041
0.151244
0.180005
0.117152
0.169008
0.196553
0.142002
0.071888
0.167947
0.201447
0.176743
0.184901
0.173364
0.144491
0.178772
0.092115
0.195713
0.075287
0.053495
0.037467
0.096492
0.196400
0.163220
0.174690
0.133392
0.179053
0.036181
0.182817
0.175788
0.190564
0.097718
0.201061
0.112600
0.163498
0.191791
0.064557
0.179276
0.185628
0.084310
0.054220
0.045598
0.189077
0.181947
0.176560
0.195652
0.192300
0.132082
0.101022
0.183411
0.183383
0.081424
0.186774
0.185776
0.185573
0.170509
0.069500
0.171828
0.115714
0.188941
0.184650
0.186083
0.153656
0.090333
0.083248
0.115769
0.111988
0.161503
0.184629
0.102719
0.177905
0.112733
0.130228
0.147697
0.188809
0.176080
0.134830
0.190916
0.189920
0.128520
0.186022
0.169728
0.188011
0.143276
0.192560
0.195868
0.142346
0.129103
0.183279
0.179748
0.169031
0.167380
0.185128
0.146851
0.189707
0.176544
0.195790
0.178625
0.192450
0.155372
0.188293
0.158865
0.170159
0.186499
0.182537
0.151402
0.184491
0.195941
0.177997
0.161819
0.177493
0.163583
0.182674
0.155138
0.145252
0.151809
0.185204
0.169651
0.181899
0.158968
0.175508
0.187895
0.176260
0.155702
0.179712
0.158173
0.169704
0.164610
0.179089
0.176732
0.162224
0.170710
0.172922
0.041036
0.067342
0.030642
0.107485
0.033861
0.013410
0.067576
0.037848
0.138508
0.048235
0.041453
0.029364
0.116210
0.012551
0.028732
0.134999
0.151896
0.173196
0.010029
0.034220
0.022314
0.034630
0.018084
0.012787
0.156332
0.029776
0.173197
0.021028
0.137622
0.111826
0.008050
0.097413
0.045922
0.017826
0.158087
0.031036
0.032167
0.035372
0.165322
0.125864
0.138066
0.017352
0.024733
0.076261
0.040217
0.015628
0.026340
0.023050
0.115650
0.118738
0.028617
0.024561
0.022159
0.096578
0.057421
0.102311
0.042390
0.019954
0.122545
0.113110
0.013221
0.015946
0.080330
0.099159
0.018204
0.032842
0.024021
0.097416
0.062301
0.012975
0.049489
0.095816
0.107023
0.018944
0.023472
0.021943
0.073069
0.033563
0.080885
0.080392
0.020007
0.086448
0.039755
0.006673
0.045538
0.023914
0.082045
0.078494
0.068581
0.089236
0.021837
0.078274
0.024873
0.067920
0.061128
0.034345
0.067718
0.069961
0.022494
0.092563
0.056670
0.068655
0.040869
0.024736
0.055851
0.057173
0.028197
0.058642
0.060683
0.049519
0.027161
0.052164
0.034601
0.024603
0.050375
0.045603
0.029754
0.053943
0.048657
0.041979
0.032153
0.045644
0.050110
0.038096
0.043499
0.036605
0.040936
0.029135
0.028449
0.034459
0.031315
0.026414
0.036245
0.040247
SCALARS DAMAGE float 1
LOOKUP_TABLE default
0.854171
0.925618
0.848040
0.919647
0.000000
0.000000
-0.000000
0.000000
0.000000
0.000000
0.000000
0.000000
0.000000
0.000000
0.000000
0.000000
0.000000
0.000000
0.000000
0.000000
0.000000
0.000000
0.000000
0.000000
0.000000
0.000000
0.000000
0.000000
0.000000
0.000000
0.000000
0.000000
0.000000
-0.000000
0.844633
0.826339
0.814028
0.818787
0.848798
0.874470
0.902541
0.918879
0.915951
0.897547
0.867733
0.831931
0.800876
0.789572
0.808339
0.837077
0.837255
0.816288
0.805613
0.807666
0.839509
0.871552
0.898958
0.916722
0.914087
0.894205
0.863914
0.827879
0.797601
0.793736
0.813594
0.842914
0.850146
0.842832
0.829313
0.805593
0.767949
0.708327
0.610910
0.440452
0.435565
0.605294
0.702303
0.762534
0.800058
0.823446
0.836603
0.843949
0.083514
0.078043
0.093077
0.107963
0.182196
0.854767
0.840037
0.450162
0.088532
0.772461
0.711374
0.904446
0.084807
0.096112
0.088947
0.755289
0.823682
0.746875
0.715511
0.805471
0.150747
0.747445
0.090922
0.630278
0.098982
0.136627
0.822472
0.766520
0.321878
0.633897
0.622542
0.817514
0.790317
0.881406
0.890138
0.599856
0.533649
0.724926
0.266303
0.782779
0.770034
0.797713
0.147483
0.186706
0.787596
0.768368
0.756619
0.325523
0.310629
0.844990
0.578204
0.481820
0.200329
0.662346
0.858342
0.698621
0.788922
0.253302
0.418439
0.789366
0.265020
0.784437
0.462002
0.685760
0.394715
0.702075
0.726681
0.691241
0.474153
0.726054
0.572438
0.237862
0.678844
0.344771
0.625449
0.363888
0.486796
0.642697
0.637788
0.206707
0.701383
0.328190
0.548818
0.574541
0.728903
0.236555
0.500388
0.596189
0.102093
0.635690
0.546195
0.207981
0.322663
0.455076
0.507650
0.696936
0.103020
0.598397
0.581419
0.515120
0.424488
0.396115
0.295898
0.450974
0.225107
0.213467
0.684928
0.103196
0.650539
0.380256
0.309129
0.201896
0.322734
0.417867
0.122906
0.342868
0.277632
0.321563
0.193990
0.098954
0.383226
0.243718
0.080343
0.193855
0.105735
0.163040
0.168531
0.284059
0.184564
0.086767
0.098680
0.102016
0.108774
0.087138
0.095285
0.105867
0.105207
0.860014
0.844712
0.628938
0.521943
0.084580
0.079022
0.098454
0.757786
0.771520
0.769437
0.753938
0.622733
0.800560
0.819744
0.321857
0.911189
0.091648
0.807121
0.832350
0.717388
0.100831
0.816694
0.802239
0.329589
0.633238
0.793701
0.786256
0.885803
0.895370
0.788014
0.528715
0.711238
0.144797
0.768973
0.613406
0.662586
0.752872
0.456082
0.760429
0.869430
0.670437
0.246602
0.687069
0.482440
0.157944
0.846898
0.686499
0.408266
0.590663
0.794357
0.230503
0.797914
0.616650
0.696849
0.329391
0.739925
0.787971
0.092302
0.352094
0.634227
0.754294
0.238138
0.107880
0.679712
0.732255
0.720451
0.467638
0.717455
0.558400
0.570744
0.371601
0.122105
0.645679
0.531977
0.290940
0.506107
0.126956
0.690894
0.795931
0.607069
0.228781
0.417081
0.658357
0.108786
0.223420
0.494298
0.181943
0.446247
0.432630
0.189066
0.533145
0.559767
0.197908
0.366661
0.697015
0.560577
0.300702
0.473707
0.309502
0.442909
0.091749
0.563404
0.321635
0.112897
0.305907
0.306183
0.119284
0.423564
0.229226
0.189157
0.393592
0.436899
0.208671
0.500648
0.279074
0.309033
0.199874
0.100228
0.355384
0.059237
0.243409
0.183398
0.183685
0.121657
0.193402
0.181844
0.207776
0.092190
0.087226
