# vtk DataFile Version 2.0
Test
ASCII
DATASET POLYDATA
POINTS 858 float
0.000000 0.000000 0.000000
1.000000 0.000000 0.000000
1.000000 1.000000 0.000000
0.000000 1.000000 0.000000
0.300000 0.330000 0.000000
0.700000 0.680000 0.000000
0.100000 0.000000 0.000000
0.200000 0.000000 0.000000
0.300000 0.000000 0.000000
0.400000 0.000000 0.000000
0.500000 0.000000 0.000000
0.600000 0.000000 0.000000
0.700000 0.000000 0.000000
0.800000 0.000000 0.000000
0.900000 0.000000 0.000000
1.000000 0.100000 0.000000
1.000000 0.200000 0.000000
1.000000 0.300000 0.000000
1.000000 0.400000 0.000000
1.000000 0.500000 0.000000
1.000000 0.600000 0.000000
1.000000 0.700000 0.000000
1.000000 0.800000 0.000000
1.000000 0.900000 0.000000
0.900000 1.000000 0.000000
0.800000 1.000000 0.000000
0.700000 1.000000 0.000000
0.600000 1.000000 0.000000
0.500000 1.000000 0.000000
0.400000 1.000000 0.000000
0.300000 1.000000 0.000000
0.200000 1.000000 0.000000
0.100000 1.000000 0.000000
0.000000 0.900000 0.000000
0.000000 0.800000 0.000000
0.000000 0.700000 0.000000
0.000000 0.600000 0.000000
0.000000 0.500000 0.000000
0.000000 0.400000 0.000000
0.000000 0.300000 0.000000
0.000000 0.200000 0.000000
0.000000 0.100000 0.000000
0.307407 0.336481 0.000000
0.314815 0.342963 0.000000
0.322222 0.349444 0.000000
0.329630 0.355926 0.000000
0.337037 0.362407 0.000000
0.344444 0.368889 0.000000
0.351852 0.375370 0.000000
0.359259 0.381852 0.000000
0.366667 0.388333 0.000000
0.374074 0.394815 0.000000
0.381481 0.401296 0.000000
0.388889 0.407778 0.000000
0.396296 0.414259 0.000000
0.403704 0.420741 0.000000
0.411111 0.427222 0.000000
0.418519 0.433704 0.000000
0.425926 0.440185 0.000000
0.433333 0.446667 0.000000
0.440741 0.453148 0.000000
0.448148 0.459630 0.000000
0.455556 0.466111 0.000000
0.462963 0.472593 0.000000
0.470370 0.479074 0.000000
0.477778 0.485556 0.000000
0.485185 0.492037 0.000000
0.492593 0.498519 0.000000
0.500000 0.505000 0.000000
0.507407 0.511481 0.000000
0.514815 0.517963 0.000000
0.522222 0.524444 0.000000
0.529630 0.530926 0.000000
0.537037 0.537407 0.000000
0.544444 0.543889 0.000000
0.551852 0.550370 0.000000
0.559259 0.556852 0.000000
0.566667 0.563333 0.000000
0.574074 0.569815 0.000000
0.581481 0.576296 0.000000
0.588889 0.582778 0.000000
0.596296 0.589259 0.000000
0.603704 0.595741 0.000000
0.611111 0.602222 0.000000
0.618519 0.608704 0.000000
0.625926 0.615185 0.000000
0.633333 0.621667 0.000000
0.640741 0.628148 0.000000
0.648148 0.634630 0.000000
0.655556 0.641111 0.000000
0.662963 0.647593 0.000000
0.670370 0.654074 0.000000
0.677778 0.660556 0.000000
0.685185 0.667037 0.000000
0.692593 0.673519 0.000000
0.548037 0.570873 0.000000
0.554453 0.579695 0.000000
0.540788 0.582045 0.000000
0.550492 0.594703 0.000000
0.338797 0.350505 0.000000
0.329823 0.347064 0.000000
0.335712 0.339262 0.000000
0.451687 0.438509 0.000000
0.442642 0.430741 0.000000
0.457884 0.427703 0.000000
0.387297 0.847474 0.000000
0.374793 0.914734 0.000000
0.332869 0.847471 0.000000
0.447069 0.415163 0.000000
0.567391 0.482596 0.000000
0.554659 0.473874 0.000000
0.567453 0.464800 0.000000
0.301190 0.902112 0.000000
0.551747 0.457138 0.000000
0.356532 0.391813 0.000000
0.347986 0.386048 0.000000
0.176207 0.429241 0.000000
0.128375 0.468105 0.000000
0.136378 0.404291 0.000000
0.185621 0.475277 0.000000
0.497512 0.261165 0.000000
0.499167 0.296032 0.000000
0.469918 0.291504 0.000000
0.642232 0.687989 0.000000
0.624295 0.701188 0.000000
0.630549 0.678643 0.000000
0.647682 0.074905 0.000000
0.700945 0.096046 0.000000
0.657288 0.160421 0.000000
0.611443 0.684403 0.000000
0.559779 0.406431 0.000000
0.582162 0.394521 0.000000
0.580552 0.422827 0.000000
0.560788 0.374759 0.000000
0.541503 0.468043 0.000000
0.545465 0.480978 0.000000
0.428301 0.394826 0.000000
0.414860 0.384611 0.000000
0.432086 0.374027 0.000000
0.533961 0.477886 0.000000
0.527361 0.464336 0.000000
0.415481 0.368142 0.000000
0.484401 0.527206 0.000000
0.472984 0.524144 0.000000
0.481205 0.518972 0.000000
0.394266 0.424909 0.000000
0.401826 0.431399 0.000000
0.392742 0.434502 0.000000
0.642418 0.617836 0.000000
0.635302 0.612878 0.000000
0.644322 0.605726 0.000000
0.263646 0.464175 0.000000
0.250486 0.498376 0.000000
0.230296 0.467342 0.000000
0.491693 0.468898 0.000000
0.498004 0.479972 0.000000
0.487381 0.480785 0.000000
0.718619 0.489140 0.000000
0.756680 0.466072 0.000000
0.751564 0.516847 0.000000
0.497232 0.719177 0.000000
0.477497 0.748035 0.000000
0.465924 0.716726 0.000000
0.501292 0.467390 0.000000
0.529064 0.285755 0.000000
0.547173 0.240449 0.000000
0.474742 0.511943 0.000000
0.403118 0.392815 0.000000
0.412434 0.399392 0.000000
0.653057 0.614785 0.000000
0.659187 0.602396 0.000000
0.400247 0.379451 0.000000
0.459133 0.636583 0.000000
0.434636 0.647284 0.000000
0.440667 0.616932 0.000000
0.453650 0.664799 0.000000
0.666296 0.616100 0.000000
0.657731 0.628197 0.000000
0.420489 0.468863 0.000000
0.414183 0.459489 0.000000
0.424065 0.460120 0.000000
0.629321 0.574616 0.000000
0.630370 0.589442 0.000000
0.617226 0.584388 0.000000
0.422026 0.450877 0.000000
0.590180 0.614274 0.000000
0.596278 0.627413 0.000000
0.585881 0.628067 0.000000
0.630677 0.603443 0.000000
0.529117 0.486095 0.000000
0.517046 0.488781 0.000000
0.522040 0.477224 0.000000
0.308641 0.392803 0.000000
0.323746 0.398675 0.000000
0.304273 0.411173 0.000000
0.146020 0.514086 0.000000
0.087335 0.505198 0.000000
0.624982 0.561914 0.000000
0.643811 0.559907 0.000000
0.831909 0.406061 0.000000
0.881376 0.423788 0.000000
0.839177 0.457573 0.000000
0.509066 0.478681 0.000000
0.614792 0.620247 0.000000
0.608406 0.635616 0.000000
0.603251 0.619643 0.000000
0.640290 0.595050 0.000000
0.524731 0.497540 0.000000
0.338689 0.392113 0.000000
0.347423 0.395876 0.000000
0.340116 0.407012 0.000000
0.686563 0.659098 0.000000
0.682555 0.651347 0.000000
0.934704 0.856355 0.000000
0.940546 0.930926 0.000000
0.863552 0.916423 0.000000
0.172107 0.566287 0.000000
0.188105 0.516551 0.000000
0.221330 0.532895 0.000000
0.683914 0.680068 0.000000
0.692945 0.685712 0.000000
0.683376 0.697853 0.000000
0.672414 0.683990 0.000000
0.557147 0.529227 0.000000
0.554161 0.540325 0.000000
0.546244 0.533101 0.000000
0.391911 0.394487 0.000000
0.387591 0.383772 0.000000
0.385780 0.368800 0.000000
0.671617 0.628861 0.000000
0.664093 0.637808 0.000000
0.408700 0.450928 0.000000
0.406517 0.467364 0.000000
0.394366 0.455525 0.000000
0.388841 0.472148 0.000000
0.792728 0.486062 0.000000
0.461047 0.516036 0.000000
0.460182 0.532753 0.000000
0.450617 0.523703 0.000000
0.364207 0.398120 0.000000
0.371344 0.402923 0.000000
0.362621 0.408449 0.000000
0.235276 0.413110 0.000000
0.235915 0.390376 0.000000
0.260894 0.399649 0.000000
0.564107 0.604249 0.000000
0.558497 0.625526 0.000000
0.545610 0.611482 0.000000
0.542035 0.628852 0.000000
0.441269 0.401429 0.000000
0.443649 0.385779 0.000000
0.454140 0.398188 0.000000
0.456246 0.380948 0.000000
0.531090 0.597071 0.000000
0.528592 0.618783 0.000000
0.693800 0.600685 0.000000
0.675646 0.601117 0.000000
0.688895 0.583493 0.000000
0.466943 0.412411 0.000000
0.469666 0.393398 0.000000
0.215629 0.311290 0.000000
0.236374 0.342186 0.000000
0.194357 0.347185 0.000000
0.372859 0.289727 0.000000
0.362694 0.307734 0.000000
0.346245 0.295576 0.000000
0.824768 0.656091 0.000000
0.787989 0.680173 0.000000
0.787481 0.637866 0.000000
0.763354 0.658567 0.000000
0.564845 0.587843 0.000000
0.565674 0.575091 0.000000
0.575285 0.580662 0.000000
0.591463 0.532694 0.000000
0.606735 0.524365 0.000000
0.606700 0.541268 0.000000
0.696107 0.663701 0.000000
0.695223 0.651919 0.000000
0.114270 0.553146 0.000000
0.897846 0.490106 0.000000
0.941355 0.438159 0.000000
0.491870 0.442127 0.000000
0.508682 0.433741 0.000000
0.504276 0.453072 0.000000
0.616608 0.507977 0.000000
0.629719 0.487283 0.000000
0.643435 0.510566 0.000000
0.660659 0.486926 0.000000
0.584650 0.557787 0.000000
0.582076 0.545531 0.000000
0.595086 0.552412 0.000000
0.215445 0.494211 0.000000
0.502563 0.534321 0.000000
0.493623 0.527201 0.000000
0.502900 0.523550 0.000000
0.490744 0.536689 0.000000
0.303740 0.348241 0.000000
0.312638 0.354325 0.000000
0.302746 0.359450 0.000000
0.683727 0.548378 0.000000
0.666144 0.562133 0.000000
0.663581 0.542222 0.000000
0.366098 0.324774 0.000000
0.379406 0.309842 0.000000
0.251675 0.434611 0.000000
0.214900 0.437402 0.000000
0.581091 0.493223 0.000000
0.603283 0.484739 0.000000
0.593195 0.510449 0.000000
0.429738 0.356510 0.000000
0.412970 0.350726 0.000000
0.358920 0.356811 0.000000
0.352460 0.366146 0.000000
0.347463 0.357590 0.000000
0.353794 0.402394 0.000000
0.527483 0.436280 0.000000
0.546965 0.439869 0.000000
0.535210 0.453469 0.000000
0.624606 0.790385 0.000000
0.614250 0.755688 0.000000
0.654837 0.763041 0.000000
0.384960 0.332814 0.000000
0.619946 0.597007 0.000000
0.358705 0.265521 0.000000
0.397502 0.266486 0.000000
0.377869 0.228897 0.000000
0.471169 0.372235 0.000000
0.492664 0.362648 0.000000
0.488718 0.386734 0.000000
0.431288 0.062893 0.000000
0.512348 0.074893 0.000000
0.450325 0.128772 0.000000
0.515327 0.223180 0.000000
0.538419 0.183215 0.000000
0.367912 0.509419 0.000000
0.343175 0.515399 0.000000
0.351317 0.488263 0.000000
0.593186 0.193353 0.000000
0.476496 0.230456 0.000000
0.594140 0.256114 0.000000
0.629340 0.367381 0.000000
0.659922 0.374166 0.000000
0.641019 0.397588 0.000000
0.669525 0.412603 0.000000
0.510665 0.591750 0.000000
0.493263 0.584115 0.000000
0.507476 0.576852 0.000000
0.492575 0.790205 0.000000
0.516533 0.753914 0.000000
0.493265 0.606545 0.000000
0.794852 0.435952 0.000000
0.797754 0.379724 0.000000
0.755728 0.420083 0.000000
0.528549 0.642034 0.000000
0.507334 0.653897 0.000000
0.509532 0.626562 0.000000
0.580705 0.748031 0.000000
0.605192 0.727758 0.000000
0.748472 0.635779 0.000000
0.742539 0.660255 0.000000
0.323194 0.421808 0.000000
0.325468 0.445306 0.000000
0.301700 0.435431 0.000000
0.295276 0.460827 0.000000
0.622421 0.457821 0.000000
0.642814 0.468538 0.000000
0.320303 0.468200 0.000000
[...]
POINT_DATA 858
SCALARS UX float 1
LOOKUP_TABLE default
0.000000
-0.000000
0.707126
2.051412
1.685085
-0.036254
-0.000000
0.000000
-0.000000
-0.000000
-0.000000
0.000000
0.000000
0.000000
0.000000
-0.436132
-0.800825
-1.446314
-2.679342
-4.849719
-6.877860
-5.299515
-1.606324
0.253888
1.259973
1.549831
1.646854
1.593928
1.537763
1.514603
1.529414
1.633889
1.807431
2.180672
2.462050
3.134396
4.450584
6.753314
8.520847
6.428897
2.809797
1.025562
1.285103
1.397884
1.220199
1.015558
1.022582
0.872111
0.785174
0.987458
1.037787
0.936928
1.239134
1.336721
1.024581
1.235028
0.527944
1.227063
0.876395
0.839769
1.242743
1.138382
0.680830
0.529915
0.858203
1.083601
0.993096
0.513410
1.222222
0.745495
0.553130
0.969196
0.898771
0.582444
0.569681
0.371657
0.466945
0.598716
0.447166
0.331170
1.020553
1.091084
0.485472
0.346599
0.716465
0.452640
0.873174
0.736554
0.466440
0.497206
0.565918
0.725537
0.485976
0.271343
0.186541
2.188140
2.117838
2.214249
2.103946
0.478162
0.690700
0.566461
-0.600586
-0.514160
-0.623484
1.598597
1.533957
1.633732
-0.518660
-1.374373
-1.274124
-1.230561
1.593993
-1.136941
3.640081
3.858555
5.839879
5.865077
6.662288
4.928236
-0.071066
-0.149524
-0.081430
1.192387
1.314702
1.308194
0.019955
-0.005547
-0.042710
1.424729
-0.785905
-0.752905
-0.937489
-0.594101
-1.197596
-1.303793
-0.341968
-0.240956
-0.267845
-1.245809
-1.130413
-0.173791
2.794818
2.861576
2.816108
3.490346
3.380677
3.726621
-1.902042
-1.746463
-2.463942
4.206805
3.912083
4.492098
-0.973309
-1.004448
-0.708541
-1.884780
-1.862248
-2.409348
1.708907
1.673401
1.771933
-1.046856
-0.169907
-0.090058
2.865422
-0.172743
-0.249261
-2.466685
-2.585662
-0.149699
2.128332
2.118033
2.281343
1.993473
-2.623860
-2.394356
3.438326
3.542478
3.387120
-2.340228
-2.413150
-2.228763
3.348032
1.787342
1.730642
1.788454
-2.372753
-1.273258
-1.201344
-1.194082
4.213656
4.180173
4.234678
4.690048
5.574785
-2.219108
-2.270164
-1.671579
-2.192172
-2.350995
-1.125575
1.573518
1.624503
1.676301
-2.511779
-1.292118
4.097855
4.041853
4.126881
-1.148077
-1.810484
0.247803
0.900200
1.259024
3.652118
4.238668
3.715682
0.586752
0.394140
0.691298
0.824258
-1.619973
-1.406579
-1.302310
-0.079175
-0.019813
-0.026538
-2.557187
-1.910797
3.592949
3.543797
3.684208
3.568557
-2.344917
2.958451
2.854134
2.949580
3.307262
2.733052
3.930823
5.154310
5.382382
4.861879
1.995335
1.918151
2.039883
1.957901
-0.429534
-0.366366
-0.466860
-0.383460
2.174946
2.055267
-2.684268
-2.622827
-2.623448
-0.586814
-0.490062
3.099880
4.309874
5.119239
0.242847
0.315788
0.416709
-4.038559
-2.481354
-4.106605
-3.164958
2.014504
1.836604
1.534939
-1.871730
-1.841735
-1.998429
-1.254879
-1.886801
4.331408
-3.467590
-2.913609
-0.855036
-0.855618
-0.975107
-1.711865
-1.553929
-1.801546
-1.630069
-1.839024
-1.924428
-2.023500
4.293004
2.633353
2.707582
2.598091
2.704979
3.033970
3.256751
3.587824
-2.291233
-2.356145
-2.164357
0.273001
0.207679
4.692443
5.158853
-1.495510
-1.472404
-1.677790
-0.177611
-0.086533
0.232630
0.371555
0.348107
3.986008
-0.923494
-0.994480
-1.070448
1.435395
1.400546
1.299920
0.123394
-2.110558
0.257875
0.128819
0.127106
-0.381654
-0.390174
-0.506610
-0.004004
0.019290
0.015292
-0.036888
-0.009713
3.281015
3.294057
3.521122
-0.049497
-0.008090
-0.172683
-0.680773
-0.787912
-0.892303
-1.061280
2.277430
2.377161
2.380625
1.591835
1.605879
2.229974
-1.776554
-1.250865
-1.420382
1.930135
1.928576
2.066594
1.485166
1.407112
-3.522830
-2.761711
4.126638
3.979874
4.179922
4.000003
-1.285944
-1.422793
3.809209
0.022770
-0.005760
0.027450
0.029786
5.914219
6.706713
7.355197
6.123559
3.090059
3.396568
1.526428
1.548749
-2.470017
-2.519077
3.888210
3.594765
3.417934
2.928488
2.814770
3.582678
0.443141
2.371267
2.193635
2.119423
2.349184
1.581907
1.587263
2.659499
-1.244389
-1.899169
-2.676250
2.432388
2.674872
2.288005
0.266317
0.309031
0.138166
2.460381
2.311777
2.520405
0.506733
-1.477198
-0.415844
-0.332556
4.059792
0.339934
0.189842
-0.281642
-0.262415
-0.381052
1.429135
1.506368
-3.759369
1.626065
1.771965
1.660490
2.380328
2.501368
1.770652
-4.200898
-0.932749
2.524082
-1.064359
-1.180839
-0.823223
1.696088
0.073137
0.129386
0.041460
-0.249686
-0.165324
1.639571
1.728106
-0.378542
-0.024319
-0.103639
5.205658
4.822358
0.673978
0.980768
0.680708
1.260723
4.032564
3.945447
2.103918
1.958984
-1.927487
-1.855469
2.158064
2.065666
2.362934
-3.041239
3.755901
0.927064
1.030267
0.728140
-1.358472
-1.579303
-0.021563
5.011122
4.111770
-0.024754
0.306101
0.052429
-0.011281
5.578890
3.057798
5.661369
3.086559
2.656348
2.977493
2.634675
-3.020398
-3.203455
-2.718394
-1.878458
-2.079323
2.993250
2.870981
1.697961
1.563227
-4.303758
-4.698909
3.050298
-2.231415
-2.680889
3.003518
0.031399
0.058550
1.786807
1.880971
3.809915
3.716767
3.645187
3.811082
1.977945
-2.454955
-2.546561
-2.525773
4.551580
-1.107293
-2.131864
1.297593
1.183008
-0.094408
-0.001321
-4.753218
-5.168111
-5.842027
-5.395273
0.016779
0.518110
0.425758
1.266229
-2.107334
-1.920839
-1.724269
-1.838078
2.164801
2.306551
-0.668875
-0.585625
-0.726938
-0.669989
1.587204
1.536782
1.525623
-0.531869
1.548118
-2.350182
-2.540984
1.090021
0.681359
0.823881
-0.845359
-0.789536
0.593013
-0.675426
4.005419
3.810765
4.473552
1.340530
1.402493
4.435272
4.349662
3.540643
2.467885
2.413062
-2.830867
-3.185435
2.240412
2.607332
2.414107
1.935454
1.770005
2.661922
1.495350
1.436646
3.686905
0.308090
0.104836
0.950147
1.033692
2.232984
2.267660
2.338642
-0.974831
1.511522
1.484519
-1.921302
0.113976
1.787930
1.654922
1.714536
2.866227
2.865090
2.731300
-0.185405
3.679456
1.165565
1.068662
1.536858
1.550603
0.700022
-0.678581
-0.748399
-0.645955
-1.727748
-1.506519
3.369242
3.251290
-0.549253
-0.318110
-0.346063
-1.230204
1.437235
2.763034
3.834242
-0.190869
2.640711
2.885857
-0.415135
2.683819
2.653884
-2.561901
-2.531792
-0.202154
-4.188939
4.037948
-0.937519
1.846605
1.080539
0.863181
0.156140
2.751273
1.280567
4.074860
0.431105
1.133263
0.818428
1.358132
-1.564963
-1.294108
-0.461451
2.059066
1.966073
2.611830
2.536373
2.253049
0.919042
0.981558
-0.829990
-0.942420
-0.872508
-0.446590
-0.385696
-1.072920
-1.146753
-0.847476
1.917181
-1.013510
-0.697097
-0.441588
-0.619996
-0.465149
2.322921
-2.087206
-2.204652
-0.735464
-1.725376
-1.608125
1.313186
2.743754
2.775986
1.597737
2.647107
-0.414057
-0.261080
-0.510792
1.901620
-1.062123
1.609589
2.099749
2.043830
2.640532
1.540745
-0.993436
3.196769
3.330250
3.219382
1.881145
3.291853
-0.744464
1.872186
-0.079551
3.927889
3.920673
2.508936
-0.174579
2.413818
2.395359
0.078294
-3.669722
-3.237926
1.848892
0.754599
2.399432
0.017459
-2.052316
0.368001
-0.962256
-0.694213
1.534525
-2.999387
3.456648
3.418912
2.418865
3.352686
1.635810
1.766738
1.681421
2.912179
3.056813
1.602237
1.562018
3.246523
3.948168
-0.028689
1.476164
3.439841
1.829486
3.565554
2.881963
2.816299
3.077564
1.590277
-0.286385
-0.300619
-0.309393
1.786177
2.928296
3.143415
0.014395
-1.944643
-0.017661
-1.229426
-1.248670
-1.403283
-1.483911
-1.095064
0.260018
3.379941
3.260737
4.345805
-1.335057
2.734076
1.536177
0.013454
1.424461
4.065131
1.508346
0.067056
0.060333
-0.101200
-0.233283
1.774601
1.981857
0.153197
-2.853858
0.343693
-0.375359
-0.228663
7.313818
2.090682
1.883181
-3.693797
-2.771811
2.921304
2.905888
3.234475
1.557472
0.428618
-2.098796
-0.107925
1.642812
-1.539191
1.146838
3.787739
2.443736
1.126479
0.097155
-0.001480
1.626147
0.440509
-0.749505
-0.530567
1.891828
2.040634
-0.458936
-0.659720
3.913455
3.816219
4.078868
0.723011
-0.565810
3.715242
-1.684599
-0.422388
2.774303
-2.333660
-1.056582
2.618912
2.931947
-1.264630
2.779023
2.968276
3.143349
-0.149974
0.138344
0.230337
-0.419534
2.023420
-2.410545
3.333061
3.267044
2.131406
-1.094157
1.711396
2.441523
2.292422
-1.496957
-1.395781
3.022823
3.136370
0.761347
-0.758567
3.428637
-0.463126
2.511883
-1.705361
-1.723608
-1.686867
-1.804240
-1.410046
-1.107007
-1.344393
2.522293
-0.476335
1.661796
-0.325190
1.007393
1.798318
-0.131420
-0.221226
3.200737
3.023115
2.779825
-1.706643
-1.608301
-0.344400
-1.486232
-0.991492
2.498388
2.707418
0.817144
-1.636707
-0.201671
3.099903
3.159800
-1.420382
-1.194816
SCALARS UY float 1
LOOKUP_TABLE default
0.000001
0.000001
27.099999
27.099999
3.270574
23.744949
0.000000
0.000000
0.000000
0.000000
0.000000
0.000000
0.000000
0.000000
0.000000
1.009490
2.031729
3.328063
5.416048
8.419176
12.103340
16.261205
20.855578
24.395301
27.100000
27.100000
27.100000
27.100000
27.100000
27.100000
27.100000
27.100000
27.100000
26.099047
25.005856
23.503317
21.299795
18.212672
14.314128
10.240323
5.870905
2.422549
4.635857
4.306183
4.915496
4.615899
5.205532
6.207266
6.180365
5.889205
6.128473
7.167154
8.589094
7.101908
8.225393
9.068572
11.698321
8.643636
10.719010
11.325941
10.269137
9.947934
12.249636
12.680633
11.855125
12.100152
12.788327
13.844382
10.586005
13.189154
15.060262
14.577252
14.723465
13.638503
14.513263
16.194355
15.900622
16.722690
17.736774
13.144868
20.061501
19.049106
20.300168
19.227965
18.678266
20.616736
20.734068
20.990726
21.667942
22.235571
22.131232
22.761665
23.572559
23.074659
23.054438
25.372816
25.568171
25.908155
26.033849
1.678138
2.046465
1.372284
1.650158
1.569529
1.171201
26.734412
26.888838
26.615145
1.061503
1.461269
1.355602
1.316705
26.748803
1.213311
19.452803
19.707384
17.987292
19.178487
15.227346
20.812175
0.375450
0.455674
0.415519
26.228546
26.451187
26.274585
0.190508
0.317100
0.445981
26.439557
0.965440
1.015823
1.135933
0.842454
1.294065
1.435196
0.943189
0.939287
0.729720
1.436080
1.277336
0.768249
25.302595
25.416326
25.030640
21.381224
21.704974
23.133594
7.165326
7.369154
4.973224
22.284343
22.997251
21.567503
1.842824
2.261610
3.312313
3.083259
3.274266
4.225426
26.650110
26.682026
26.578658
1.557894
0.485401
0.417943
24.954810
1.320082
1.273309
5.665481
4.711384
1.033275
26.316571
26.264941
26.174760
26.393757
5.675922
7.467455
24.486556
24.164326
23.729459
3.351524
4.097586
4.138904
22.739782
25.855775
26.024170
26.166957
5.691179
1.648509
1.960788
1.518143
20.334965
21.436328
21.331214
21.432428
19.912972
2.953402
3.070752
3.278903
4.236612
4.323376
1.758588
25.083557
26.013486
25.645082
4.315999
2.131977
21.238047
21.380298
22.291266
13.462566
10.788685
24.113514
25.700573
26.084791
23.189724
22.271853
23.245537
25.246347
24.965989
25.652415
25.723563
2.633390
4.247369
3.961403
1.803600
1.468356
1.040399
6.947900
9.865125
23.859795
24.607343
24.302786
24.695865
4.240562
25.376562
25.673853
25.572595
19.897842
19.499915
22.104618
18.505106
15.987436
18.339374
26.058441
26.317524
26.258164
26.381120
0.931038
0.769051
0.825869
0.708319
26.185069
26.344435
5.768664
5.068847
4.765360
0.897772
0.756543
5.536989
8.249609
9.435885
0.570321
0.710553
0.778254
16.362729
19.691638
14.199771
17.235897
25.609146
24.439691
24.145340
2.203387
2.116376
2.395356
15.307837
11.621689
21.958541
6.228078
5.444858
1.136086
0.999562
1.227287
1.990406
1.918044
2.308167
2.260935
3.512412
2.718713
2.751787
22.166960
25.078349
25.014095
24.103820
25.484674
12.814472
15.037279
15.561343
3.595163
3.524258
3.066581
0.779611
0.616114
20.659182
19.628086
1.609189
1.664633
1.851262
0.641301
0.668355
1.281005
2.199384
1.705561
21.860220
1.027175
1.087222
1.160995
26.708025
26.671298
26.482620
0.699696
6.057180
0.573568
0.411283
0.390573
0.654313
0.629799
0.718095
0.085946
0.105464
0.158588
0.330067
0.288614
24.986530
24.759708
24.539056
0.406275
0.303192
0.577110
1.147664
1.377907
1.383630
1.699811
26.185709
26.138409
26.055722
26.792600
26.749831
26.274272
3.286953
2.552005
2.605605
26.453269
26.481562
26.381901
26.728911
26.627787
12.847383
17.492572
22.497213
23.298743
22.358338
22.985325
1.619481
1.892075
23.705975
0.215032
0.185628
0.217128
0.233653
10.727954
11.787219
16.151057
14.046078
24.305921
23.987101
26.999725
26.882655
4.068791
4.374234
23.132430
23.770039
23.378436
24.341493
24.196268
22.885817
0.890239
25.608961
25.912214
25.879283
25.795444
25.049512
24.805704
24.610934
2.874360
3.966629
6.386212
25.144358
24.908272
25.186991
0.686174
0.944112
0.515772
25.884298
25.963961
25.695601
1.226978
3.126118
1.161798
1.369588
23.068401
1.051581
0.916243
0.555079
0.547643
0.627118
26.617459
26.811085
9.511999
26.698364
26.469195
26.681531
26.162393
26.055738
26.547162
10.397462
2.216449
25.936496
2.072447
2.085399
1.602440
26.525988
0.339941
0.649150
0.360145
0.554631
0.648244
26.683080
26.390662
1.556962
0.356405
0.618305
8.299488
8.016355
1.372328
25.847247
25.052844
26.226151
23.150735
23.680840
26.363823
26.457572
2.673016
2.800140
25.511606
25.806625
25.437735
5.538027
24.077253
26.003619
26.138833
25.564863
2.000514
2.448982
0.309077
13.184821
9.753610
0.102583
1.181724
0.512754
0.385591
12.958973
25.183992
16.818288
25.343811
25.109802
24.738294
25.373764
10.081857
8.398254
14.367879
4.043856
3.395180
25.577394
25.718503
26.237532
26.253788
8.997746
12.545683
25.421037
3.643593
4.900051
24.995862
0.271299
0.281013
26.289239
26.216773
24.127677
24.352687
24.477678
23.961870
26.170090
3.671935
4.212359
4.064900
21.547753
5.899224
2.793064
25.453232
25.483956
0.813694
0.749652
15.530235
11.314369
13.957720
9.698072
0.193907
1.094538
0.877565
26.495058
2.629022
2.301307
20.047874
20.450710
26.286941
26.004502
0.893101
0.805893
1.079397
0.827457
26.969073
26.912371
26.798873
0.725305
27.007415
9.133330
10.395542
1.809800
1.179621
1.361176
0.964666
0.915516
1.053058
0.836445
16.825369
17.884165
15.409518
25.463433
25.966851
20.819381
21.813991
12.330156
26.022151
26.011477
5.806590
6.736215
26.110288
25.941445
26.112656
25.418917
22.285855
24.490979
26.019104
26.284250
23.756148
2.932340
1.909153
25.560684
26.017933
25.230894
25.723067
25.664146
2.881599
26.840557
26.781346
15.250335
1.169208
26.354658
26.402043
26.463735
25.512434
25.364158
25.425654
0.489888
23.593021
25.961524
25.277603
26.841410
26.892882
1.336656
1.329955
1.390461
1.758787
5.532336
5.653412
24.400532
24.425607
1.134825
0.810657
0.956958
1.730149
25.340711
25.666264
23.184708
0.779579
25.820130
25.620629
0.684067
25.622544
25.750048
7.974074
7.584761
0.554524
7.753908
19.014038
1.073151
26.531495
2.571623
2.112047
0.829056
5.117878
3.118266
22.659850
24.457012
25.763066
25.160962
26.237717
21.427036
2.095073
1.481385
23.822951
24.123166
25.593873
25.166386
26.250194
2.022849
1.922176
1.358704
1.433033
1.799310
2.950931
2.756501
1.337537
1.297554
1.193230
26.351158
1.152557
1.899238
0.776399
0.965357
0.901468
25.118611
4.049067
3.283830
1.932125
1.999663
1.786034
26.019927
25.802137
25.805318
3.252020
25.938221
1.173642
0.971670
1.456041
26.024963
1.173769
3.313598
23.758262
23.094523
25.886600
26.756044
19.876690
25.289664
25.116560
25.280161
25.751342
25.090774
3.066586
26.158630
0.551990
23.690409
22.783094
25.634198
0.560602
25.507383
24.989558
0.882343
7.671875
6.015472
3.574149
1.882365
4.354016
0.598668
2.665223
24.500177
22.429962
22.810739
26.424589
5.769269
24.825476
24.947181
25.853924
22.276982
26.622878
26.566971
26.551470
25.651900
25.489248
26.511542
26.597487
19.836841
21.891121
2.175034
26.555598
24.913645
26.472893
24.249827
23.129697
23.221678
24.663124
26.797999
0.640627
0.618542
0.700274
26.585456
24.660890
24.550846
0.342366
8.447229
0.421580
3.585783
3.743217
2.127984
2.418647
3.821953
24.734914
24.955753
25.011024
19.208579
1.451390
25.848122
26.672141
0.234887
26.485098
19.961165
26.628672
0.323492
0.435104
0.509866
0.717180
26.515749
26.295965
0.505578
7.535196
1.296092
1.168241
0.927432
12.074498
25.682584
26.035693
18.473757
19.638056
22.605978
23.026035
24.325125
26.790638
1.248897
3.130598
0.480129
26.676156
2.619339
25.856426
6.393288
24.875610
26.262702
0.543904
0.486049
24.944782
24.802921
1.727077
0.750846
26.448827
26.289315
23.031248
3.174715
18.824721
19.178324
20.539289
25.200866
1.299535
17.962489
4.623023
23.163126
25.784609
8.900890
1.480268
4.972907
5.664522
1.462595
9.289402
6.732076
21.465312
2.251360
1.713165
1.865391
2.562509
24.376457
3.550303
24.655665
23.920537
26.100390
1.381149
3.299387
23.720935
23.752826
1.642173
1.528258
25.138897
25.078803
1.832905
0.961523
21.080780
23.031282
26.050893
5.924375
2.915706
2.277868
2.310191
5.180965
4.314619
1.615557
22.462764
3.824123
24.473080
4.935861
1.825849
21.858799
2.487190
3.248885
15.973660
21.930254
21.563035
7.040866
1.959584
2.398419
1.793213
3.282716
23.486634
23.961945
24.198034
4.287013
2.569440
25.434308
25.265252
1.710668
2.704635
SCALARS DAMAGE float 1
LOOKUP_TABLE default
0.094954
0.208930
0.082875
0.202405
0.000000
0.000000
0.142829
0.245266
0.375755
0.477523
0.520250
0.500012
0.425392
0.333759
0.252070
0.202464
0.173774
0.129228
0.086883
0.058363
0.046733
0.042420
0.053931
0.074149
0.123359
0.220342
0.355909
0.463681
0.506877
0.482792
0.409305
0.315137
0.238183
0.193473
0.163238
0.120612
0.082541
0.055114
0.045982
0.044509
0.057877
0.078791
-0.000000
0.000000
0.000000
0.000000
0.000000
0.000000
0.000000
0.000000
0.000000
0.000000
0.000000
0.000000
0.000000
0.000000
0.000000
0.000000
0.000000
0.000000
0.000000
0.000000
0.000000
0.000000
0.000000
0.000000
0.000000
0.000000
0.000000
0.000000
0.000000
0.000000
0.000000
0.000000
0.000000
0.000000
0.000000
0.000000
0.000000
0.000000
0.000000
0.000000
0.000000
0.000000
0.000000
0.000000
0.000000
0.000000
0.000000
0.000000
0.000000
0.000000
0.000000
0.000000
-0.000000
0.057274
0.065379
0.096833
0.107318
0.037286
0.025533
0.060634
0.058873
0.059368
0.096118
0.441755
0.457749
0.405297
0.104549
0.146294
0.147651
0.174747
0.395994
0.172676
0.014492
0.015318
0.033192
0.044766
0.028379
0.055992
0.398493
0.360296
0.346306
0.143856
0.200841
0.144927
0.458174
0.410814
0.424987
0.189143
0.254149
0.277178
0.242390
0.295453
0.142715
0.124232
0.115539
0.113274
0.167026
0.114621
0.131317
0.150963
0.075968
0.088111
0.064036
0.019061
0.019723
0.036296
0.014124
0.013283
0.030896
0.079621
0.101381
0.066050
0.064839
0.051565
0.029525
0.140757
0.135760
0.095839
0.362399
0.398285
0.371299
0.085160
0.383893
0.427065
0.060407
0.069978
0.073416
0.026690
0.044256
0.096732
0.284285
0.306337
0.268824
0.320607
0.033239
0.015276
0.059557
0.051207
0.038751
0.059935
0.040111
0.034276
0.024834
0.076006
0.094723
0.116309
0.020882
0.091433
0.066311
0.098412
0.037429
0.041019
0.051509
0.068535
0.055994
0.074105
0.087736
0.135091
0.101018
0.096832
0.074197
0.038207
0.090027
0.061731
0.040922
0.060985
0.028682
0.027010
0.043934
0.006778
0.010183
0.075699
0.093596
0.138756
0.109930
0.083803
0.112845
0.041602
0.039259
0.093177
0.076698
0.049846
0.023252
0.024446
0.041431
0.059372
0.093120
0.023377
0.010163
0.043732
0.073868
0.067742
0.098029
0.098059
0.090344
0.123074
0.118733
0.014996
0.013880
0.029924
0.033404
0.023645
0.031246
0.103761
0.158943
0.151185
0.190299
0.124304
0.161777
0.153317
0.190661
0.145262
0.190751
0.050414
0.050408
0.066476
0.144856
0.186516
0.038544
0.023294
0.022754
0.236086
0.185815
0.183796
0.022882
0.027095
0.019705
0.020766
0.063948
0.031002
0.024370
0.088414
0.114729
0.089660
0.009250
0.015288
0.080952
0.063612
0.079225
0.123080
0.164024
0.119986
0.143819
0.173878
0.147284
0.172084
0.037047
0.055455
0.059876
0.079803
0.059591
0.060000
0.034703
0.085239
0.010304
0.009576
0.016497
0.101400
0.089298
0.111182
0.156191
0.208873
0.051077
0.041890
0.141995
0.169683
0.125608
0.198017
0.182816
0.065904
0.026586
0.038126
0.029911
0.182264
0.196013
0.161082
0.332553
0.302302
0.257868
0.172493
0.018261
0.256619
0.307113
0.333679
0.226799
0.266276
0.223110
0.490182
0.512189
0.477861
0.436675
0.465702
0.157016
0.163715
0.133798
0.446629
0.417336
0.405772
0.301670
0.281289
0.268898
0.242598
0.165215
0.174120
0.140779
0.430044
0.388997
0.213097
0.135213
0.175639
0.175017
0.231536
0.272622
0.227984
0.330520
0.273347
0.020617
0.020852
0.062718
0.086632
0.071690
0.092823
0.208595
0.195196
0.108678
0.486226
0.433068
0.443948
0.421531
0.024508
0.030324
0.039900
0.022346
0.163763
0.144606
0.495754
0.476513
0.082471
0.082489
0.103186
0.130482
0.115781
0.162954
0.142420
0.103080
0.196315
0.272855
0.305903
0.307158
0.283853
0.035000
0.033476
0.171540
0.146514
0.108301
0.037143
0.220309
0.206818
0.196131
0.255189
0.227772