# vtk DataFile Version 2.0
Test
ASCII
DATASET POLYDATA
POINTS 858 float
0.000000 0.000000 0.000000
1.000000 0.000000 0.000000
1.000000 1.000000 0.000000
0.000000 1.000000 0.000000
0.300000 0.330000 0.000000
0.700000 0.680000 0.000000
0.100000 0.000000 0.000000
0.200000 0.000000 0.000000
0.300000 0.000000 0.000000
0.400000 0.000000 0.000000
0.500000 0.000000 0.000000
0.600000 0.000000 0.000000
0.700000 0.000000 0.000000
0.800000 0.000000 0.000000
0.900000 0.000000 0.000000
1.000000 0.100000 0.000000
1.000000 0.200000 0.000000
1.000000 0.300000 0.000000
1.000000 0.400000 0.000000
1.000000 0.500000 0.000000
1.000000 0.600000 0.000000
1.000000 0.700000 0.000000
1.000000 0.800000 0.000000
1.000000 0.900000 0.000000
0.900000 1.000000 0.000000
0.800000 1.000000 0.000000
0.700000 1.000000 0.000000
0.600000 1.000000 0.000000
0.500000 1.000000 0.000000
0.400000 1.000000 0.000000
0.300000 1.000000 0.000000
0.200000 1.000000 0.000000
0.100000 1.000000 0.000000
0.000000 0.900000 0.000000
0.000000 0.800000 0.000000
0.000000 0.700000 0.000000
0.000000 0.600000 0.000000
0.000000 0.500000 0.000000
0.000000 0.400000 0.000000
0.000000 0.300000 0.000000
0.000000 0.200000 0.000000
0.000000 0.100000 0.000000
0.307407 0.336481 0.000000
0.314815 0.342963 0.000000
0.322222 0.349444 0.000000
0.329630 0.355926 0.000000
0.337037 0.362407 0.000000
0.344444 0.368889 0.000000
0.351852 0.375370 0.000000
0.359259 0.381852 0.000000
0.366667 0.388333 0.000000
0.374074 0.394815 0.000000
0.381481 0.401296 0.000000
0.388889 0.407778 0.000000
0.396296 0.414259 0.000000
0.403704 0.420741 0.000000
0.411111 0.427222 0.000000
0.418519 0.433704 0.000000
0.425926 0.440185 0.000000
0.433333 0.446667 0.000000
0.440741 0.453148 0.000000
0.448148 0.459630 0.000000
0.455556 0.466111 0.000000
0.462963 0.472593 0.000000
0.470370 0.479074 0.000000
0.477778 0.485556 0.000000
0.485185 0.492037 0.000000
0.492593 0.498519 0.000000
0.500000 0.505000 0.000000
0.507407 0.511481 0.000000
0.514815 0.517963 0.000000
0.522222 0.524444 0.000000
0.529630 0.530926 0.000000
0.537037 0.537407 0.000000
0.544444 0.543889 0.000000
0.551852 0.550370 0.000000
0.559259 0.556852 0.000000
0.566667 0.563333 0.000000
0.574074 0.569815 0.000000
0.581481 0.576296 0.000000
0.588889 0.582778 0.000000
0.596296 0.589259 0.000000
0.603704 0.595741 0.000000
0.611111 0.602222 0.000000
0.618519 0.608704 0.000000
0.625926 0.615185 0.000000
0.633333 0.621667 0.000000
0.640741 0.628148 0.000000
0.648148 0.634630 0.000000
0.655556 0.641111 0.000000
0.662963 0.647593 0.000000
0.670370 0.654074 0.000000
0.677778 0.660556 0.000000
0.685185 0.667037 0.000000
0.692593 0.673519 0.000000
0.548037 0.570873 0.000000
0.554453 0.579695 0.000000
0.540788 0.582045 0.000000
0.550492 0.594703 0.000000
0.338797 0.350505 0.000000
0.329823 0.347064 0.000000
0.335712 0.339262 0.000000
0.451687 0.438509 0.000000
0.442642 0.430741 0.000000
0.457884 0.427703 0.000000
0.387297 0.847474 0.000000
0.374793 0.914734 0.000000
0.332869 0.847471 0.000000
0.447069 0.415163 0.000000
0.567391 0.482596 0.000000
0.554659 0.473874 0.000000
0.567453 0.464800 0.000000
0.301190 0.902112 0.000000
0.551747 0.457138 0.000000
0.356532 0.391813 0.000000
0.347986 0.386048 0.000000
0.176207 0.429241 0.000000
0.128375 0.468105 0.000000
0.136378 0.404291 0.000000
0.185621 0.475277 0.000000
0.497512 0.261165 0.000000
0.499167 0.296032 0.000000
0.469918 0.291504 0.000000
0.642232 0.687989 0.000000
0.624295 0.701188 0.000000
0.630549 0.678643 0.000000
0.647682 0.074905 0.000000
0.700945 0.096046 0.000000
0.657288 0.160421 0.000000
0.611443 0.684403 0.000000
0.559779 0.406431 0.000000
0.582162 0.394521 0.000000
0.580552 0.422827 0.000000
0.560788 0.374759 0.000000
0.541503 0.468043 0.000000
0.545465 0.480978 0.000000
0.428301 0.394826 0.000000
0.414860 0.384611 0.000000
0.432086 0.374027 0.000000
0.533961 0.477886 0.000000
0.527361 0.464336 0.000000
0.415481 0.368142 0.000000
0.484401 0.527206 0.000000
0.472984 0.524144 0.000000
0.481205 0.518972 0.000000
0.394266 0.424909 0.000000
0.401826 0.431399 0.000000
0.392742 0.434502 0.000000
0.642418 0.617836 0.000000
0.635302 0.612878 0.000000
0.644322 0.605726 0.000000
0.263646 0.464175 0.000000
0.250486 0.498376 0.000000
0.230296 0.467342 0.000000
0.491693 0.468898 0.000000
0.498004 0.479972 0.000000
0.487381 0.480785 0.000000
0.718619 0.489140 0.000000
0.756680 0.466072 0.000000
0.751564 0.516847 0.000000
0.497232 0.719177 0.000000
0.477497 0.748035 0.000000
0.465924 0.716726 0.000000
0.501292 0.467390 0.000000
0.529064 0.285755 0.000000
0.547173 0.240449 0.000000
0.474742 0.511943 0.000000
0.403118 0.392815 0.000000
0.412434 0.399392 0.000000
0.653057 0.614785 0.000000
0.659187 0.602396 0.000000
0.400247 0.379451 0.000000
0.459133 0.636583 0.000000
0.434636 0.647284 0.000000
0.440667 0.616932 0.000000
0.453650 0.664799 0.000000
0.666296 0.616100 0.000000
0.657731 0.628197 0.000000
0.420489 0.468863 0.000000
0.414183 0.459489 0.000000
0.424065 0.460120 0.000000
0.629321 0.574616 0.000000
0.630370 0.589442 0.000000
0.617226 0.584388 0.000000
0.422026 0.450877 0.000000
0.590180 0.614274 0.000000
0.596278 0.627413 0.000000
0.585881 0.628067 0.000000
0.630677 0.603443 0.000000
0.529117 0.486095 0.000000
0.517046 0.488781 0.000000
0.522040 0.477224 0.000000
0.308641 0.392803 0.000000
0.323746 0.398675 0.000000
0.304273 0.411173 0.000000
0.146020 0.514086 0.000000
0.087335 0.505198 0.000000
0.624982 0.561914 0.000000
0.643811 0.559907 0.000000
0.831909 0.406061 0.000000
0.881376 0.423788 0.000000
0.839177 0.457573 0.000000
0.509066 0.478681 0.000000
0.614792 0.620247 0.000000
0.608406 0.635616 0.000000
0.603251 0.619643 0.000000
0.640290 0.595050 0.000000
0.524731 0.497540 0.000000
0.338689 0.392113 0.000000
0.347423 0.395876 0.000000
0.340116 0.407012 0.000000
0.686563 0.659098 0.000000
0.682555 0.651347 0.000000
0.934704 0.856355 0.000000
0.940546 0.930926 0.000000
0.863552 0.916423 0.000000
0.172107 0.566287 0.000000
0.188105 0.516551 0.000000
0.221330 0.532895 0.000000
0.683914 0.680068 0.000000
0.692945 0.685712 0.000000
0.683376 0.697853 0.000000
0.672414 0.683990 0.000000
0.557147 0.529227 0.000000
0.554161 0.540325 0.000000
0.546244 0.533101 0.000000
0.391911 0.394487 0.000000
0.387591 0.383772 0.000000
0.385780 0.368800 0.000000
0.671617 0.628861 0.000000
0.664093 0.637808 0.000000
0.408700 0.450928 0.000000
0.406517 0.467364 0.000000
0.394366 0.455525 0.000000
0.388841 0.472148 0.000000
0.792728 0.486062 0.000000
0.461047 0.516036 0.000000
0.460182 0.532753 0.000000
0.450617 0.523703 0.000000
0.364207 0.398120 0.000000
0.371344 0.402923 0.000000
0.362621 0.408449 0.000000
0.235276 0.413110 0.000000
0.235915 0.390376 0.000000
0.260894 0.399649 0.000000
0.564107 0.604249 0.000000
0.558497 0.625526 0.000000
0.545610 0.611482 0.000000
0.542035 0.628852 0.000000
0.441269 0.401429 0.000000
0.443649 0.385779 0.000000
0.454140 0.398188 0.000000
0.456246 0.380948 0.000000
0.531090 0.597071 0.000000
0.528592 0.618783 0.000000
0.693800 0.600685 0.000000
0.675646 0.601117 0.000000
0.688895 0.583493 0.000000
0.466943 0.412411 0.000000
0.469666 0.393398 0.000000
0.215629 0.311290 0.000000
0.236374 0.342186 0.000000
0.194357 0.347185 0.000000
0.372859 0.289727 0.000000
0.362694 0.307734 0.000000
0.346245 0.295576 0.000000
0.824768 0.656091 0.000000
0.787989 0.680173 0.000000
0.787481 0.637866 0.000000
0.763354 0.658567 0.000000
0.564845 0.587843 0.000000
0.565674 0.575091 0.000000
0.575285 0.580662 0.000000
0.591463 0.532694 0.000000
0.606735 0.524365 0.000000
0.606700 0.541268 0.000000
0.696107 0.663701 0.000000
0.695223 0.651919 0.000000
0.114270 0.553146 0.000000
0.897846 0.490106 0.000000
0.941355 0.438159 0.000000
0.491870 0.442127 0.000000
0.508682 0.433741 0.000000
0.504276 0.453072 0.000000
0.616608 0.507977 0.000000
0.629719 0.487283 0.000000
0.643435 0.510566 0.000000
0.660659 0.486926 0.000000
0.584650 0.557787 0.000000
0.582076 0.545531 0.000000
0.595086 0.552412 0.000000
0.215445 0.494211 0.000000
0.502563 0.534321 0.000000
0.493623 0.527201 0.000000
0.502900 0.523550 0.000000
0.490744 0.536689 0.000000
0.303740 0.348241 0.000000
0.312638 0.354325 0.000000
0.302746 0.359450 0.000000
0.683727 0.548378 0.000000
0.666144 0.562133 0.000000
0.663581 0.542222 0.000000
0.366098 0.324774 0.000000
0.379406 0.309842 0.000000
0.251675 0.434611 0.000000
0.214900 0.437402 0.000000
0.581091 0.493223 0.000000
0.603283 0.484739 0.000000
0.593195 0.510449 0.000000
0.429738 0.356510 0.000000
0.412970 0.350726 0.000000
0.358920 0.356811 0.000000
0.352460 0.366146 0.000000
0.347463 0.357590 0.000000
0.353794 0.402394 0.000000
0.527483 0.436280 0.000000
0.546965 0.439869 0.000000
0.535210 0.453469 0.000000
0.624606 0.790385 0.000000
0.614250 0.755688 0.000000
0.654837 0.763041 0.000000
0.384960 0.332814 0.000000
0.619946 0.597007 0.000000
0.358705 0.265521 0.000000
0.397502 0.266486 0.000000
0.377869 0.228897 0.000000
0.471169 0.372235 0.000000
0.492664 0.362648 0.000000
0.488718 0.386734 0.000000
0.431288 0.062893 0.000000
0.512348 0.074893 0.000000
0.450325 0.128772 0.000000
0.515327 0.223180 0.000000
0.538419 0.183215 0.000000
0.367912 0.509419 0.000000
0.343175 0.515399 0.000000
0.351317 0.488263 0.000000
0.593186 0.193353 0.000000
0.476496 0.230456 0.000000
0.594140 0.256114 0.000000
0.629340 0.367381 0.000000
0.659922 0.374166 0.000000
0.641019 0.397588 0.000000
0.669525 0.412603 0.000000
0.510665 0.591750 0.000000
0.493263 0.584115 0.000000
0.507476 0.576852 0.000000
0.492575 0.790205 0.000000
0.516533 0.753914 0.000000
0.493265 0.606545 0.000000
0.794852 0.435952 0.000000
0.797754 0.379724 0.000000
0.755728 0.420083 0.000000
0.528549 0.642034 0.000000
0.507334 0.653897 0.000000
0.509532 0.626562 0.000000
0.580705 0.748031 0.000000
0.605192 0.727758 0.000000
0.748472 0.635779 0.000000
0.742539 0.660255 0.000000
0.323194 0.421808 0.000000
0.325468 0.445306 0.000000
0.301700 0.435431 0.000000
0.295276 0.460827 0.000000
0.622421 0.457821 0.000000
0.642814 0.468538 0.000000
0.320303 0.468200 0.000000
[...]
POINT_DATA 858
SCALARS UX float 1
LOOKUP_TABLE default
0.000000
-0.000000
-1.524225
-0.846367
0.545450
-1.632437
-0.000000
0.000000
-0.000000
-0.000000
-0.000000
0.000000
0.000000
0.000000
0.000000
-0.237336
-0.436775
-0.758679
-1.252558
-1.887916
-2.401259
-2.430355
-2.013350
-1.645898
-1.313308
-1.144694
-1.060632
-1.082721
-1.121659
-1.144499
-1.143611
-1.084807
-0.984335
-0.778611
-0.626823
-0.303780
0.204794
0.847257
1.317365
1.274856
0.804204
0.389122
0.437329
0.508945
0.441854
0.333008
0.316493
0.242906
0.168315
0.215465
0.213092
0.144276
0.134480
0.170477
0.034852
0.059818
-0.213222
-0.002840
-0.175062
-0.224531
-0.114261
-0.186856
-0.374224
-0.470233
-0.393725
-0.346577
-0.421836
-0.620666
-0.388457
-0.599817
-0.695361
-0.601034
-0.634391
-0.771810
-0.810363
-0.921141
-0.944262
-0.930443
-0.988211
-0.972747
-0.985425
-0.969880
-1.189631
-1.256174
-1.171796
-1.295685
-1.190318
-1.295246
-1.422482
-1.433966
-1.431531
-1.407707
-1.509153
-1.589958
-1.588238
-0.671527
-0.722442
-0.696251
-0.764534
0.183095
0.272637
0.235341
-0.433379
-0.382166
-0.410300
-1.093573
-1.134464
-1.077150
-0.344364
-0.806505
-0.751270
-0.718960
-1.103497
-0.668032
0.461903
0.516147
0.757537
0.693217
0.975689
0.466490
-0.056996
-0.101941
-0.066273
-1.273132
-1.216700
-1.216912
0.015291
0.003617
-0.021100
-1.160581
-0.460882
-0.439484
-0.545288
-0.350898
-0.710129
-0.777625
-0.237279
-0.178198
-0.181342
-0.749912
-0.676909
-0.130139
-0.354207
-0.325227
-0.316457
0.272380
0.208325
0.245265
-1.533033
-1.504612
-1.551459
0.271510
0.121449
0.358466
-0.641929
-0.693078
-0.632723
-1.034296
-1.008100
-1.268759
-1.018114
-1.040249
-0.984816
-0.656023
-0.110390
-0.061813
-0.277612
-0.167175
-0.210457
-1.592559
-1.541364
-0.128912
-0.782987
-0.790891
-0.697497
-0.860072
-1.613390
-1.663410
0.026618
0.092007
0.061236
-1.377155
-1.465432
-1.414650
0.103968
-0.925699
-0.975625
-0.950666
-1.543760
-0.782867
-0.774134
-0.731129
0.497470
0.463870
0.423488
0.351990
0.580735
-1.297671
-1.296690
-0.892283
-1.106271
-1.188651
-0.716581
-1.018561
-1.036053
-0.979954
-1.506272
-0.831475
0.496503
0.478402
0.422507
-1.653008
-1.698461
-1.621036
-1.445459
-1.295558
-0.032366
0.210099
0.013584
-1.511708
-1.565615
-1.473080
-1.429255
-1.034558
-1.056264
-0.995851
-0.138123
-0.088407
-0.058488
-1.671769
-1.654985
0.140353
0.053524
0.131869
0.038579
-1.213461
-0.271531
-0.352490
-0.297052
0.372732
0.256679
0.402492
0.644499
0.753531
0.617160
-0.825716
-0.886594
-0.815120
-0.868039
-0.285323
-0.238796
-0.298002
-0.244556
-0.737689
-0.813276
-1.548390
-1.535564
-1.468687
-0.369250
-0.305576
0.769287
0.837011
0.931534
0.094203
0.130034
0.173423
-2.091089
-1.980683
-2.004161
-1.964769
-0.780179
-0.780553
-0.892226
-1.101273
-1.064976
-1.164062
-1.678232
-1.701312
0.205088
-1.554486
-1.347318
-0.527793
-0.514576
-0.594742
-0.982263
-0.887055
-1.021121
-0.919848
-1.215177
-1.169779
-1.218925
0.255824
-0.420921
-0.374816
-0.377778
-0.411015
0.576627
0.577742
0.590174
-1.272493
-1.327770
-1.214987
0.109574
0.078563
0.474867
0.588055
-0.873491
-0.848486
-0.975618
-0.126625
-0.077306
0.071924
0.103248
0.119116
0.438533
-0.548072
-0.584675
-0.634115
-1.155433
-1.174086
-1.217530
0.034913
-1.472095
0.097650
0.039091
0.034710
-0.239374
-0.240630
-0.310064
-0.012536
0.005909
-0.007566
-0.034144
-0.014243
-0.146142
-0.148732
-0.018862
-0.031970
-0.023194
-0.105424
-0.395097
-0.453619
-0.513378
-0.605005
-0.684969
-0.630947
-0.619541
-1.085649
-1.074871
-0.719458
-0.952692
-0.692455
-0.785813
-0.888273
-0.892344
-0.811711
-1.133823
-1.171671
-1.877349
-1.903738
0.354149
0.234296
0.324969
0.206826
-0.737036
-0.809534
0.124659
0.012260
-0.024041
-0.005470
-0.009013
1.020097
1.127726
1.056151
0.921401
-0.279719
-0.121779
-1.131590
-1.117430
-1.377325
-1.377937
0.133069
-0.015822
-0.155415
-0.370167
-0.441357
-0.107685
0.175837
-0.655545
-0.753140
-0.796371
-0.665587
-0.971041
-0.984670
-0.509836
-0.672186
-0.966315
-1.620334
-0.626943
-0.496212
-0.708478
0.094551
0.109242
0.035275
-0.600631
-0.684459
-0.569554
0.193371
-0.793414
-0.294673
-0.261294
0.327328
0.136996
0.063369
-0.177908
-0.164856
-0.233203
-1.156405
-1.121086
-1.821014
-1.074040
-0.990856
-1.050841
-0.635760
-0.563510
-0.987757
-1.906655
-0.521915
-0.538017
-0.598813
-0.665491
-0.470402
-1.037586
0.007716
0.031811
-0.008168
-0.161892
-0.096315
-1.079672
-1.025013
-0.300042
-0.005705
-0.053110
1.072072
0.991746
0.261986
-1.347630
-1.451743
-1.232096
0.341203
0.240608
-0.794116
-0.877485
-1.082255
-1.033278
-0.778093
-0.828288
-0.662673
-1.452759
0.112548
-1.386282
-1.338821
-1.444747
-0.768938
-0.883248
-0.033022
0.775017
0.748495
-0.025317
0.128297
0.028163
-0.015687
0.863132
-0.271940
0.771277
-0.247628
-0.501939
-0.329838
-0.509573
-1.746579
-1.708847
-1.815695
-1.259798
-1.301256
-0.282107
-0.354714
-1.005916
-1.080607
-1.876953
-2.056772
-0.232655
-1.216895
-1.417491
-0.309029
-0.005088
0.004641
-0.988178
-0.931600
0.167800
0.125400
0.064818
0.206916
-0.874654
-1.426527
-1.497604
-1.442103
0.255168
-1.138482
-1.260840
-1.191245
-1.252778
-0.087750
-0.032886
-2.186675
-2.094826
-2.317848
-2.067528
0.000087
0.220670
0.180902
-1.237329
-1.213125
-1.099272
-1.828220
-1.880027
-0.751814
-0.652592
-0.411086
-0.359657
-0.458472
-0.403727
-1.083682
-1.109086
-1.112342
-0.320264
-1.110529
-1.694928
-1.718237
0.417683
0.278241
0.339588
-0.498430
-0.469396
0.252549
-0.400594
0.576628
0.567943
0.658277
-1.153965
-1.155629
0.452882
0.359861
0.629700
-0.592602
-0.625086
-1.537943
-1.619120
-0.723027
-0.512015
-0.620588
-0.816071
-0.504398
-0.347353
-1.106768
-1.150346
0.046497
-0.009126
-0.045498
-1.370939
-1.343575
-0.629070
-0.649466
-0.607209
-0.737448
-1.121024
-1.134393
-1.745370
0.012896
-0.960768
-1.036706
-1.006206
-0.374180
-0.379024
-0.453936
-0.123807
0.195216
-1.280061
-1.305636
-1.110674
-1.108386
0.295794
-0.455137
-0.493636
-0.473501
-1.321668
-1.253174
-0.117711
-0.186293
-0.318359
-0.187172
-0.200082
-0.701484
-1.096771
-0.396921
0.283971
-0.107134
-0.497449
-0.357459
-0.250117
-0.477287
-0.457758
-1.662677
-1.674832
-0.125754
-1.789999
0.527431
-0.548649
-0.941587
0.398059
0.324379
0.051910
0.771716
0.460137
0.391145
-1.544843
-1.317317
-1.418990
-1.205235
-1.971498
-0.729539
-0.340284
-0.623844
-0.682750
-0.468510
-0.476168
-0.710408
0.338807
0.367615
-0.533772
-0.594693
-0.584918
-0.464650
-0.421451
-0.619571
-0.665809
-0.490847
-0.906405
-0.606885
-0.389689
-0.262544
-0.362994
-0.273263
-0.576895
-1.361780
-1.337316
-0.528475
-1.024183
-0.950300
-1.206387
-0.419786
-0.407051
0.518697
-0.483015
-0.236705
-0.146077
-0.289200
-0.923507
-0.620042
0.519761
-0.587932
-0.567643
-0.477206
-1.106901
-1.706074
-0.176978
-0.096492
-0.149370
-0.866679
-0.131820
-0.612299
-0.901022
-0.070236
0.262224
0.336702
-0.520510
-0.121943
-0.558448
-0.526935
0.004907
-1.726129
-1.553478
0.575718
0.282634
0.696001
-0.019097
-1.163612
-1.538445
-1.848623
-1.779497
-1.102606
-1.511279
-0.042050
-0.052415
-0.582212
0.172269
-1.053707
-0.981979
-1.026958
-0.336595
-0.253923
-1.068571
-1.092102
0.296269
0.401185
-0.160237
-1.136218
-0.025855
-0.943703
-0.005353
-0.133257
-0.176247
-0.154829
-1.090518
-0.186622
-0.183644
-0.185643
-0.973756
-0.220507
-0.106174
-0.015542
-1.578422
-0.033918
-0.923828
-0.908566
-0.891649
-0.963126
-0.846609
-1.587296
-0.043452
-0.095506
0.531421
-0.775718
-0.436263
-1.107280
-0.008265
-1.162222
0.533625
-1.149219
0.009752
0.005747
-0.050429
-0.127038
-1.002095
-0.885269
0.051630
-1.648161
0.159835
-0.205455
-0.124571
1.242575
-0.822870
-0.936562
-2.188389
-2.049220
-0.052900
-0.097297
-0.044945
-1.105387
0.159076
-1.164852
-0.083065
-1.052158
-0.853646
-1.283161
0.869267
-0.630695
-1.303418
0.023566
-0.026776
-0.936828
-1.526308
-0.426526
-0.316886
-0.918311
-0.835367
-1.720525
-0.568850
0.573657
0.530939
0.522501
-1.459454
-0.325308
0.578285
-1.208070
-1.702895
-0.417694
-1.717289
-0.606575
0.689018
0.713536
-0.730455
0.608034
0.675006
0.122257
-0.217642
-0.011165
0.042035
-0.402679
-0.696995
-1.377997
-0.028133
0.004772
-0.786299
-0.667885
0.545133
-0.438182
-0.498773
-0.888412
-0.830601
-0.213537
-0.158291
0.308756
-0.462921
0.287734
-1.729555
-0.562247
-1.357466
-1.103339
-1.038892
-1.090740
-1.106738
-0.938058
-0.817722
-0.251787
-0.514859
-0.898763
-0.590436
0.406993
-0.481600
-0.239820
-0.341234
0.553452
0.021969
-0.036860
-1.396020
-0.974080
-0.326300
-0.903316
-0.780204
-0.305745
-0.295728
-1.309572
-1.161951
-0.301774
-0.216522
-0.166470
-0.861611
-0.845755
SCALARS UY float 1
LOOKUP_TABLE default
0.000000
0.000000
7.100000
7.100000
1.478940
5.618248
0.000000
0.000000
0.000000
0.000000
0.000000
0.000000
0.000000
0.000000
0.000000
0.560095
1.106587
1.723165
2.476647
3.262760
3.991056
4.657460
5.423508
6.263287
7.100000
7.100000
7.100000
7.100000
7.100000
7.100000
7.100000
7.100000
7.100000
6.550225
5.975969
5.299974
4.535128
3.753284
3.027777
2.395786
1.641525
0.824474
2.038968
1.954125
2.160227
2.011914
2.170609
2.449451
2.386668
2.240856
2.260212
2.531704
2.865109
2.376077
2.670989
2.852648
3.516743
2.651783
3.181738
3.304742
2.978593
2.850667
3.427464
3.503555
3.252365
3.281851
3.424547
3.672862
2.775843
3.427209
3.891728
3.730709
3.737657
3.418576
3.605504
4.011090
3.889289
4.075033
4.328530
3.111511
4.884464
4.528978
4.862178
4.488819
4.284087
4.814698
4.789238
4.799121
4.973522
5.121251
5.011648
5.194556
5.481759
5.265799
5.292562
6.571652
6.623197
6.719908
6.752687
0.743189
0.922870
0.634799
0.508746
0.489520
0.375383
6.917340
6.992111
6.843573
0.347263
0.581112
0.523752
0.540328
6.909460
0.478757
4.783319
4.771187
3.802492
4.037420
3.348292
4.411500
0.155953
0.186546
0.165668
6.694220
6.804666
6.733602
0.102887
0.176005
0.238070
6.817476
0.414706
0.462634
0.505801
0.371763
0.481651
0.525930
0.323736
0.333944
0.262789
0.504820
0.453582
0.284386
6.531530
6.545344
6.459168
5.403470
5.512416
5.773240
2.209851
2.204310
1.788201
4.904919
5.130119
4.640823
0.561740
0.673489
0.945480
1.540394
1.659249
2.026860
6.916846
6.922351
6.875579
0.494517
0.210609
0.190530
6.433203
0.462202
0.433766
2.008976
1.852249
0.378950
6.772604
6.729362
6.702314
6.795754
2.133171
2.417357
6.196605
6.098486
6.034046
1.316027
1.494012
1.420983
5.803278
6.670272
6.711201
6.765486
1.836423
0.550999
0.613357
0.507624
4.537155
4.893017
4.750140
4.585207
4.207520
1.191590
1.323866
1.686267
2.059044
2.095859
0.553359
6.379769
6.691215
6.584769
1.612685
0.665927
4.980232
5.089285
5.222191
3.747825
3.275932
6.077196
6.608484
6.642995
5.165932
4.845047
5.203314
6.211828
6.076739
6.372314
6.432789
0.844031
1.217177
1.134180
0.634880
0.534094
0.402335
2.450452
2.922917
6.009236
6.172939
6.047243
6.121052
2.055516
6.515849
6.588926
6.543420
4.932972
4.917389
5.364892
3.927980
3.513659
3.930134
6.753898
6.825663
6.813005
6.845507
0.314273
0.269833
0.283469
0.252250
6.792741
6.833628
2.341410
2.059919
2.047619
0.303005
0.266808
2.004065
2.490169
2.626795
0.269058
0.335136
0.389731
4.335656
4.756626
4.022721
4.392178
6.629351
6.293329
6.204303
0.848984
0.884293
0.960076
4.066177
3.493870
4.753779
2.678684
2.466621
0.377353
0.356963
0.411771
0.880357
0.892152
1.072794
1.097744
1.125991
0.937212
0.996391
4.817992
6.490208
6.467822
6.239031
6.585143
3.178548
3.588751
3.607880
1.658200
1.566574
1.406340
0.352563
0.276238
4.416323
4.137076
0.657817
0.735717
0.762454
0.239297
0.257714
0.538436
0.889943
0.724024
5.242566
0.387589
0.434148
0.435458
6.901318
6.896134
6.773020
0.296729
1.837016
0.289553
0.184833
0.193975
0.239753
0.241717
0.264821
0.042864
0.050655
0.072955
0.144112
0.132332
6.134753
5.985525
5.926347
0.201488
0.126799
0.282038
0.570533
0.705974
0.689913
0.867310
6.783058
6.756161
6.747174
6.970869
6.958122
6.792924
1.685181
1.359409
1.365805
6.863154
6.863056
6.834955
6.941227
6.888859
3.820456
4.420567
5.162520
5.411492
5.024797
5.205039
0.763268
0.911588
5.531364
0.106599
0.098341
0.098164
0.116084
2.746906
2.813473
3.447588
3.208588
5.653007
5.534126
7.054163
7.000906
1.810217
1.974782
5.221865
5.466679
5.243178
5.655458
5.594445
5.070053
0.472269
6.330558
6.499117
6.462479
6.450640
6.401595
6.306499
5.777911
1.507056
1.962414
2.438205
6.046960
5.940295
6.059999
0.370737
0.518189
0.282617
6.532930
6.557713
6.416947
0.658111
1.621385
0.382194
0.451692
5.433055
0.471746
0.392277
0.219255
0.227366
0.253767
6.836506
6.951282
3.341187
6.908143
6.791138
6.911356
6.740460
6.714418
6.849114
3.504506
1.202802
6.706089
1.105905
1.092482
0.848717
6.806911
0.176283
0.363158
0.199061
0.210649
0.337403
6.866859
6.710242
0.501697
0.202950
0.345413
2.242183
2.298346
0.721886
6.435911
6.075268
6.619619
5.580160
5.656453
6.811708
6.839857
1.264571
1.369324
6.230787
6.402612
6.217316
2.482388
5.743932
6.556194
6.603208
6.312655
0.999630
1.232148
0.175347
3.144032
2.708784
0.056339
0.572434
0.244588
0.209629
3.096614
6.197255
3.617283
6.319134
6.061104
5.892919
6.226936
3.351513
3.084315
3.980547
1.263947
1.172777
6.506729
6.560177
6.778640
6.766289
3.287516
3.842710
6.491894
1.740894
2.218670
6.060385
0.116111
0.131489
6.665381
6.640483
5.858238
5.989624
5.967266
5.910799
6.631106
1.488936
1.667606
1.725185
4.617633
1.623830
1.079929
6.418645
6.404414
0.310223
0.299576
4.287822
3.692050
4.161353
3.457744
0.088284
0.520110
0.417639
6.803243
1.109667
1.005552
4.798372
4.877297
6.812157
6.743328
0.309097
0.285252
0.353348
0.305369
7.029763
7.012498
6.934725
0.284840
7.060546
3.038484
3.349084
0.908478
0.612768
0.678020
0.387649
0.349929
0.522385
0.339425
3.782160
4.065207
3.483623
6.455194
6.631283
4.523999
4.784434
3.071142
6.636038
6.613050
2.440834
2.751143
6.644667
6.617609
6.695660
6.561896
5.783209
6.333868
6.670811
6.758027
5.503337
1.017411
0.701810
6.387314
6.583999
6.537254
6.670648
6.655118
0.836001
6.981273
6.958664
4.075432
0.473258
6.829114
6.832773
6.861149
6.369994
6.268824
6.280901
0.193203
5.904071
6.584361
6.293523
6.991884
7.012771
0.644028
0.418167
0.434917
0.535232
1.636873
1.641421
5.781082
5.762845
0.587683
0.412122
0.509136
0.851002
6.440678
6.613520
5.735502
0.425298
6.529843
6.457334
0.295247
6.401606
6.649473
2.837265
2.674564
0.256261
3.040102
4.238397
0.452856
6.863725
1.034315
1.001563
0.450362
1.610272
1.062226
5.400974
6.049992
6.463869
6.184113
6.635069
5.385344
1.075128
0.471618
6.151823
6.223683
6.621403
6.517855
6.760423
1.015019
0.970337
0.428924
0.454538
0.546509
0.863494
0.819254
0.618987
0.566621
0.568850
6.744668
0.409565
1.047144
0.359148
0.455930
0.443175
6.509541
1.353334
1.218299
0.580314
0.751063
0.688339
6.634186
6.632147
6.609748
1.449995
6.655738
0.643364
0.541814
0.809872
6.510955
0.492090
1.461926
6.144302
5.969309
6.670569
6.959200
4.785220
6.338468
6.287985
6.388332
6.652717
6.219063
0.883569
6.773754
0.213949
5.764239
5.601216
6.640086
0.211700
6.611800
6.475138
0.360851
3.006228
2.625481
1.509957
0.956778
1.608318
0.242057
1.200344
5.911905
5.423786
5.398884
6.827282
2.517290
6.103469
6.195334
6.699793
5.666879
6.914392
6.897937
6.890995
6.501702
6.433902
6.869311
6.899308
5.037066
5.390079
0.733845
6.872751
6.232928
6.870350
5.755649
5.971384
5.998377
6.332358
6.966040
0.233931
0.276310
0.335012
6.896470
6.349534
6.290159
0.139424
2.507708
0.168486
1.029827
1.067034
0.680825
0.767848
1.086875
5.957229
6.295268
6.361807
4.191972
0.615130
6.602239
6.926539
0.101612
6.755545
4.536325
6.845324
0.142565
0.182144
0.291938
0.404550
6.770596
6.651514
0.223762
2.820642
0.513954
0.657308
0.526636
2.775820
6.318729
6.506480
4.803303
4.834037
5.820945
5.936760
6.213671
6.924509
0.660701
1.482615
0.186047
6.933725
1.349221
6.438635
2.113271
5.912187
6.692088
0.230237
0.194993
6.388414
5.978802
0.941778
0.314344
6.810017
6.729084
5.422112
0.915821
4.461260
4.618203
4.767686
6.207704
0.697025
4.217078
1.351260
5.466459
6.549930
2.860026
0.721713
1.891371
2.052613
0.655364
2.594646
2.249646
5.499015
0.736414
0.658981
0.742457
0.770878
6.285490
1.511283
6.263357
6.102599
6.615463
0.461163
1.470828
6.138808
6.146407
0.622484
0.568216
6.448245
6.410638
0.853682
0.332769
5.306937
5.426053
6.688319
1.754887
0.934807
0.783591
0.828414
1.445473
1.209515
0.557405
5.818424
1.097616
6.255277
1.362237
0.876562
5.684161
0.783669
0.976638
3.834193
5.648028
5.570537
2.007624
0.695647
0.753690
0.627910
0.943531
6.075719
6.194581
6.017569
1.255954
0.786830
6.457469
6.428763
0.594422
0.809093
SCALARS DAMAGE float 1
LOOKUP_TABLE default
0.282543
0.383036
0.271666
0.375813
0.000000
0.000000
0.327309
0.414218
0.516799
0.594398
0.634375
0.630766
0.579375
0.502538
0.425450
0.377955
0.351435
0.312456
0.274977
0.247609
0.236391
0.236615
0.248959
0.265923
0.308489
0.392065
0.499472
0.582702
0.623188
0.616574
0.567328
0.487525
0.412656
0.368889
0.341583
0.304621
0.270431
0.244985
0.237149
0.240721
0.256652
0.272498
-0.000000
0.000000
0.000000
0.000000
0.000000
0.000000
0.000000
0.000000
0.000000
0.000000
0.000000
0.000000
0.000000
0.000000
0.000000
0.000000
0.000000
0.000000
0.000000
0.000000
0.000000
0.000000
0.000000
0.000000
0.000000
0.000000
0.000000
0.000000
0.000000
0.000000
0.000000
0.000000
0.000000
0.000000
0.000000
0.000000
0.000000
0.000000
0.000000
0.000000
0.000000
0.000000
0.000000
0.000000
0.000000
0.000000
0.000000
0.000000
0.000000
0.000000
0.000000
0.000000
-0.000000
0.071594
0.081294
0.119920
0.132206
0.048486
0.033876
0.080426
0.073105
0.073422
0.118317
0.575850
0.597351
0.554380
0.127976
0.194588
0.193379
0.230689
0.553203
0.224066
0.027726
0.030990
0.197619
0.222579
0.202083
0.222097
0.489188
0.443530
0.424215
0.188636
0.258454
0.185531
0.600011
0.564803
0.568746
0.238434
0.327607
0.364344
0.320181
0.378914
0.184638
0.162239
0.140798
0.138162
0.203397
0.148517
0.168262
0.184241
0.098913
0.115054
0.084239
0.030487
0.030695
0.056186
0.026643
0.024131
0.056188
0.213046
0.247974
0.216588
0.083013
0.067091
0.038994
0.276471
0.291594
0.243161
0.449796
0.496977
0.466887
0.108645
0.477621
0.533582
0.080045
0.085837
0.089897
0.052083
0.086108
0.118438
0.361161
0.396187
0.347311
0.407731
0.070797
0.032435
0.084100
0.073802
0.055483
0.096662
0.066974
0.054715
0.036645
0.093546
0.116589
0.142772
0.036677
0.119059
0.086686
0.126967
0.102112
0.093133
0.133025
0.245053
0.240683
0.115898
0.145165
0.311278
0.282965
0.272893
0.095860
0.047787
0.111383
0.076313
0.071554
0.080518
0.059434
0.052571
0.085944
0.021889
0.030012
0.266720
0.282139
0.321810
0.284843
0.252260
0.274310
0.061589
0.064260
0.143535
0.108182
0.068365
0.032842
0.034064
0.051470
0.073241
0.114724
0.054887
0.023527
0.064260
0.106235
0.100790
0.144623
0.263206
0.119075
0.160406
0.156476
0.027306
0.024395
0.052877
0.172522
0.158679
0.150258
0.127469
0.194756
0.185654
0.233624
0.151621
0.197044
0.187141
0.232557
0.179258
0.234911
0.129120
0.109688
0.149895
0.177657
0.228275
0.188196
0.155313
0.178279
0.303785
0.241069
0.248323
0.185400
0.176009
0.166387
0.151752
0.079286
0.039179
0.030761
0.125275
0.165544
0.131231
0.034376
0.054010
0.262975
0.246663
0.265746
0.153720
0.205512
0.151395
0.208797
0.255747
0.228814
0.273759
0.053978
0.078886
0.087191
0.238823
0.077355
0.078407
0.046538
0.109876
0.038068
0.030724
0.059797
0.196876
0.163601
0.193404
0.199535
0.264701
0.185327
0.194315
0.192783
0.236793
0.175203
0.241562
0.223894
0.082976
0.033604
0.048660
0.055350
0.230886
0.251982
0.206271
0.432822
0.388759
0.355907
0.215307
0.030736
0.339420
0.385612
0.428003
0.277403
0.327700
0.274548
0.602762
0.626123
0.584269
0.537987
0.576783
0.235375
0.260460
0.214270
0.570956
0.510844
0.524629
0.417107
0.409095
0.383395
0.368245
0.205374
0.218504
0.175991
0.532681
0.480568
0.266212
0.304041
0.347307
0.334686
0.285004
0.337576
0.282313
0.413395
0.347217
0.141843
0.132111
0.131657
0.166828
0.167839
0.204077
0.296822
0.291693
0.203367
0.611165
0.549253
0.545403
0.528396
0.193569
0.211953
0.226210
0.182343
0.325060
0.291854
0.617807
0.596094
0.168424
0.186865
0.231878
0.264484
0.297334
0.336426
0.324214
0.288130
0.283463
0.410869
0.434898
0.451282
0.404174
0.043561
0.041817
0.349923
0.328075
0.293069
0.093599
0.390580
0.369354
0.374909
0.358595
0.357623
0.426673
0.357944
0.393962
0.368683
0.292815
0.319669
0.110045
0.083078
0.116374
0.120951
0.146447
0.375257
0.421697
0.373034