# vtk DataFile Version 2.0
Test
ASCII
DATASET POLYDATA
POINTS 4588 float
0.000000 0.000000 0.000000
6.000000 0.000000 0.000000
6.000000 2.500000 0.000000
4.000000 2.500000 0.000000
3.500000 2.500000 0.000000
2.500000 2.500000 0.000000
2.000000 2.500000 0.000000
0.000000 2.500000 0.000000
5.900000 0.010000 0.000000
0.200000 0.000000 0.000000
0.400000 0.000000 0.000000
0.600000 0.000000 0.000000
0.800000 0.000000 0.000000
1.000000 0.000000 0.000000
1.200000 0.000000 0.000000
1.400000 0.000000 0.000000
1.600000 0.000000 0.000000
1.800000 0.000000 0.000000
2.000000 0.000000 0.000000
2.200000 0.000000 0.000000
2.400000 0.000000 0.000000
2.600000 0.000000 0.000000
2.800000 0.000000 0.000000
3.000000 0.000000 0.000000
3.200000 0.000000 0.000000
3.400000 0.000000 0.000000
3.600000 0.000000 0.000000
3.800000 0.000000 0.000000
4.000000 0.000000 0.000000
4.200000 0.000000 0.000000
4.400000 0.000000 0.000000
4.600000 0.000000 0.000000
4.800000 0.000000 0.000000
5.000000 0.000000 0.000000
5.200000 0.000000 0.000000
5.400000 0.000000 0.000000
5.600000 0.000000 0.000000
5.800000 0.000000 0.000000
6.000000 0.192308 0.000000
6.000000 0.384615 0.000000
6.000000 0.576923 0.000000
6.000000 0.769231 0.000000
6.000000 0.961538 0.000000
6.000000 1.153846 0.000000
6.000000 1.346154 0.000000
6.000000 1.538462 0.000000
6.000000 1.730769 0.000000
6.000000 1.923077 0.000000
6.000000 2.115385 0.000000
6.000000 2.307692 0.000000
5.811856 2.500000 0.000000
5.640527 2.500000 0.000000
5.484509 2.500000 0.000000
5.342434 2.500000 0.000000
5.213056 2.500000 0.000000
5.095240 2.500000 0.000000
4.987953 2.500000 0.000000
4.890254 2.500000 0.000000
4.801287 2.500000 0.000000
4.720270 2.500000 0.000000
4.646494 2.500000 0.000000
4.579310 2.500000 0.000000
4.518131 2.500000 0.000000
4.462420 2.500000 0.000000
4.411687 2.500000 0.000000
4.365488 2.500000 0.000000
4.323418 2.500000 0.000000
4.285107 2.500000 0.000000
4.250221 2.500000 0.000000
4.218452 2.500000 0.000000
4.189522 2.500000 0.000000
4.163177 2.500000 0.000000
4.139187 2.500000 0.000000
4.117341 2.500000 0.000000
4.097448 2.500000 0.000000
4.079332 2.500000 0.000000
4.062835 2.500000 0.000000
4.047812 2.500000 0.000000
4.034132 2.500000 0.000000
4.021675 2.500000 0.000000
4.010330 2.500000 0.000000
3.990000 2.500000 0.000000
3.980000 2.500000 0.000000
3.970000 2.500000 0.000000
3.960000 2.500000 0.000000
3.950000 2.500000 0.000000
3.940000 2.500000 0.000000
3.930000 2.500000 0.000000
3.920000 2.500000 0.000000
3.910000 2.500000 0.000000
3.900000 2.500000 0.000000
3.890000 2.500000 0.000000
3.880000 2.500000 0.000000
3.870000 2.500000 0.000000
3.860000 2.500000 0.000000
3.850000 2.500000 0.000000
3.840000 2.500000 0.000000
3.830000 2.500000 0.000000
3.820000 2.500000 0.000000
3.810000 2.500000 0.000000
3.800000 2.500000 0.000000
3.790000 2.500000 0.000000
3.780000 2.500000 0.000000
3.770000 2.500000 0.000000
3.760000 2.500000 0.000000
3.750000 2.500000 0.000000
3.740000 2.500000 0.000000
3.730000 2.500000 0.000000
3.720000 2.500000 0.000000
3.710000 2.500000 0.000000
3.700000 2.500000 0.000000
3.690000 2.500000 0.000000
3.680000 2.500000 0.000000
3.670000 2.500000 0.000000
3.660000 2.500000 0.000000
3.650000 2.500000 0.000000
3.640000 2.500000 0.000000
3.630000 2.500000 0.000000
3.620000 2.500000 0.000000
3.610000 2.500000 0.000000
3.600000 2.500000 0.000000
3.590000 2.500000 0.000000
3.580000 2.500000 0.000000
3.570000 2.500000 0.000000
3.560000 2.500000 0.000000
3.550000 2.500000 0.000000
3.540000 2.500000 0.000000
3.530000 2.500000 0.000000
3.520000 2.500000 0.000000
3.510000 2.500000 0.000000
3.490000 2.500000 0.000000
3.480000 2.500000 0.000000
3.470000 2.500000 0.000000
3.460000 2.500000 0.000000
3.450000 2.500000 0.000000
3.440000 2.500000 0.000000
3.430000 2.500000 0.000000
3.420000 2.500000 0.000000
3.410000 2.500000 0.000000
3.400000 2.500000 0.000000
3.390000 2.500000 0.000000
3.380000 2.500000 0.000000
3.370000 2.500000 0.000000
3.360000 2.500000 0.000000
3.350000 2.500000 0.000000
3.340000 2.500000 0.000000
3.330000 2.500000 0.000000
3.320000 2.500000 0.000000
3.310000 2.500000 0.000000
3.300000 2.500000 0.000000
3.290000 2.500000 0.000000
3.280000 2.500000 0.000000
3.270000 2.500000 0.000000
3.260000 2.500000 0.000000
3.250000 2.500000 0.000000
3.240000 2.500000 0.000000
3.230000 2.500000 0.000000
3.220000 2.500000 0.000000
3.210000 2.500000 0.000000
3.200000 2.500000 0.000000
3.190000 2.500000 0.000000
3.180000 2.500000 0.000000
3.170000 2.500000 0.000000
3.160000 2.500000 0.000000
3.150000 2.500000 0.000000
3.140000 2.500000 0.000000
3.130000 2.500000 0.000000
3.120000 2.500000 0.000000
3.110000 2.500000 0.000000
3.100000 2.500000 0.000000
3.090000 2.500000 0.000000
3.080000 2.500000 0.000000
3.070000 2.500000 0.000000
3.060000 2.500000 0.000000
3.050000 2.500000 0.000000
3.040000 2.500000 0.000000
3.030000 2.500000 0.000000
3.020000 2.500000 0.000000
3.010000 2.500000 0.000000
3.000000 2.500000 0.000000
2.990000 2.500000 0.000000
2.980000 2.500000 0.000000
2.970000 2.500000 0.000000
2.960000 2.500000 0.000000
2.950000 2.500000 0.000000
2.940000 2.500000 0.000000
2.930000 2.500000 0.000000
2.920000 2.500000 0.000000
2.910000 2.500000 0.000000
2.900000 2.500000 0.000000
2.890000 2.500000 0.000000
2.880000 2.500000 0.000000
2.870000 2.500000 0.000000
2.860000 2.500000 0.000000
2.850000 2.500000 0.000000
2.840000 2.500000 0.000000
2.830000 2.500000 0.000000
2.820000 2.500000 0.000000
2.810000 2.500000 0.000000
2.800000 2.500000 0.000000
2.790000 2.500000 0.000000
2.780000 2.500000 0.000000
2.770000 2.500000 0.000000
2.760000 2.500000 0.000000
2.750000 2.500000 0.000000
2.740000 2.500000 0.000000
2.730000 2.500000 0.000000
2.720000 2.500000 0.000000
2.710000 2.500000 0.000000
2.700000 2.500000 0.000000
2.690000 2.500000 0.000000
2.680000 2.500000 0.000000
2.670000 2.500000 0.000000
2.660000 2.500000 0.000000
2.650000 2.500000 0.000000
2.640000 2.500000 0.000000
2.630000 2.500000 0.000000
2.620000 2.500000 0.000000
2.610000 2.500000 0.000000
2.600000 2.500000 0.000000
2.590000 2.500000 0.000000
2.580000 2.500000 0.000000
2.570000 2.500000 0.000000
2.560000 2.500000 0.000000
2.550000 2.500000 0.000000
2.540000 2.500000 0.000000
2.530000 2.500000 0.000000
2.520000 2.500000 0.000000
2.510000 2.500000 0.000000
2.490000 2.500000 0.000000
2.480000 2.500000 0.000000
2.470000 2.500000 0.000000
2.460000 2.500000 0.000000
2.450000 2.500000 0.000000
2.440000 2.500000 0.000000
2.430000 2.500000 0.000000
2.420000 2.500000 0.000000
2.410000 2.500000 0.000000
2.400000 2.500000 0.000000
2.390000 2.500000 0.000000
2.380000 2.500000 0.000000
2.370000 2.500000 0.000000
2.360000 2.500000 0.000000
2.350000 2.500000 0.000000
2.340000 2.500000 0.000000
2.330000 2.500000 0.000000
2.320000 2.500000 0.000000
2.310000 2.500000 0.000000
2.300000 2.500000 0.000000
2.290000 2.500000 0.000000
2.280000 2.500000 0.000000
2.270000 2.500000 0.000000
2.260000 2.500000 0.000000
2.250000 2.500000 0.000000
2.240000 2.500000 0.000000
2.230000 2.500000 0.000000
2.220000 2.500000 0.000000
2.210000 2.500000 0.000000
2.200000 2.500000 0.000000
2.190000 2.500000 0.000000
2.180000 2.500000 0.000000
2.170000 2.500000 0.000000
2.160000 2.500000 0.000000
2.150000 2.500000 0.000000
2.140000 2.500000 0.000000
2.130000 2.500000 0.000000
2.120000 2.500000 0.000000
2.110000 2.500000 0.000000
2.100000 2.500000 0.000000
2.090000 2.500000 0.000000
2.080000 2.500000 0.000000
2.070000 2.500000 0.000000
2.060000 2.500000 0.000000
2.050000 2.500000 0.000000
2.040000 2.500000 0.000000
2.030000 2.500000 0.000000
2.020000 2.500000 0.000000
2.010000 2.500000 0.000000
1.989670 2.500000 0.000000
1.978325 2.500000 0.000000
1.965868 2.500000 0.000000
1.952188 2.500000 0.000000
1.937165 2.500000 0.000000
1.920668 2.500000 0.000000
1.902552 2.500000 0.000000
1.882659 2.500000 0.000000
1.860813 2.500000 0.000000
1.836823 2.500000 0.000000
1.810478 2.500000 0.000000
1.781548 2.500000 0.000000
1.749779 2.500000 0.000000
1.714893 2.500000 0.000000
1.676582 2.500000 0.000000
1.634512 2.500000 0.000000
1.588313 2.500000 0.000000
1.537580 2.500000 0.000000
1.481869 2.500000 0.000000
1.420690 2.500000 0.000000
1.353506 2.500000 0.000000
1.279730 2.500000 0.000000
1.198713 2.500000 0.000000
1.109746 2.500000 0.000000
1.012047 2.500000 0.000000
0.904760 2.500000 0.000000
0.786944 2.500000 0.000000
0.657566 2.500000 0.000000
0.515491 2.500000 0.000000
0.359473 2.500000 0.000000
0.188144 2.500000 0.000000
0.000000 2.307692 0.000000
0.000000 2.115385 0.000000
0.000000 1.923077 0.000000
0.000000 1.730769 0.000000
0.000000 1.538462 0.000000
0.000000 1.346154 0.000000
0.000000 1.153846 0.000000
0.000000 0.961538 0.000000
0.000000 0.769231 0.000000
0.000000 0.576923 0.000000
0.000000 0.384615 0.000000
0.000000 0.192308 0.000000
2.166060 1.612117 0.000000
2.216288 1.582260 0.000000
2.224482 1.642233 0.000000
1.606376 2.429879 0.000000
1.605233 2.464843 0.000000
1.558068 2.443987 0.000000
3.879213 2.221734 0.000000
3.894413 2.240135 0.000000
3.870787 2.243476 0.000000
3.886006 2.258435 0.000000
2.339802 2.266888 0.000000
2.365581 2.253498 0.000000
2.364362 2.273473 0.000000
2.341103 2.240156 0.000000
2.423678 1.645586 0.000000
2.384384 1.592910 0.000000
2.465868 1.603917 0.000000
2.088761 2.444299 0.000000
2.083345 2.451608 0.000000
2.072981 2.440348 0.000000
2.075032 2.456216 0.000000
4.476806 2.331734 0.000000
4.434266 2.353962 0.000000
4.414303 2.302573 0.000000
4.378117 2.343910 0.000000
2.446073 1.537545 0.000000
4.239409 2.336520 0.000000
4.213048 2.298142 0.000000
4.253747 2.306569 0.000000
2.389441 2.269279 0.000000
4.290118 2.293594 0.000000
4.317604 2.355401 0.000000
4.273059 2.333019 0.000000
2.391236 2.242853 0.000000
3.695178 2.157745 0.000000
3.731439 2.154949 0.000000
3.712254 2.183983 0.000000
2.623247 2.337360 0.000000
2.617269 2.318390 0.000000
2.637121 2.325349 0.000000
2.631601 2.307649 0.000000
3.741363 2.188931 0.000000
4.480476 2.389007 0.000000
4.420788 2.405007 0.000000
3.026631 2.286441 0.000000
3.029815 2.314517 0.000000
[...]
POINT_DATA 4588
SCALARS UX float 1
LOOKUP_TABLE default
0.000000
-0.000000
0.000000
0.000503
0.000291
-0.000288
-0.000494
-0.000000
-0.000001
-0.000000
0.000000
0.000000
-0.000000
0.000000
-0.000000
-0.000000
0.000000
-0.000000
-0.000000
0.000000
-0.000000
0.000000
-0.000000
-0.000000
0.000000
0.000000
0.000000
0.000000
0.000000
0.000000
0.000000
0.000000
0.000000
0.000000
0.000000
0.000000
-0.000000
0.000000
0.000000
0.000000
0.000000
0.000000
0.000000
0.000000
0.000000
0.000000
0.000000
0.000000
0.000000
0.000000
0.000209
0.000378
0.000494
0.000540
0.000580
0.000614
0.000603
0.000623
0.000656
0.000649
0.000647
0.000641
0.000639
0.000624
0.000616
0.000607
0.000602
0.000590
0.000587
0.000581
0.000572
0.000566
0.000557
0.000551
0.000545
0.000538
0.000531
0.000523
0.000516
0.000512
0.000507
0.000499
0.000495
0.000491
0.000486
0.000482
0.000478
0.000474
0.000469
0.000464
0.000459
0.000455
0.000450
0.000446
0.000441
0.000437
0.000433
0.000428
0.000425
0.000420
0.000414
0.000409
0.000401
0.000397
0.000393
0.000389
0.000385
0.000381
0.000375
0.000369
0.000365
0.000361
0.000359
0.000353
0.000347
0.000343
0.000339
0.000337
0.000331
0.000325
0.000319
0.000313
0.000312
0.000304
0.000303
0.000304
0.000301
0.000302
0.000299
0.000298
0.000284
0.000276
0.000271
0.000267
0.000255
0.000244
0.000234
0.000233
0.000231
0.000228
0.000225
0.000215
0.000206
0.000199
0.000194
0.000188
0.000182
0.000176
0.000169
0.000164
0.000161
0.000156
0.000151
0.000145
0.000139
0.000131
0.000124
0.000120
0.000115
0.000112
0.000108
0.000101
0.000093
0.000087
0.000081
0.000076
0.000070
0.000063
0.000057
0.000051
0.000047
0.000040
0.000036
0.000032
0.000025
0.000018
0.000012
0.000005
0.000000
-0.000005
-0.000010
-0.000016
-0.000021
-0.000027
-0.000034
-0.000038
-0.000044
-0.000052
-0.000057
-0.000064
-0.000068
-0.000073
-0.000078
-0.000084
-0.000091
-0.000097
-0.000102
-0.000107
-0.000112
-0.000120
-0.000124
-0.000128
-0.000131
-0.000138
-0.000144
-0.000152
-0.000159
-0.000161
-0.000165
-0.000170
-0.000173
-0.000177
-0.000179
-0.000189
-0.000194
-0.000198
-0.000205
-0.000211
-0.000219
-0.000222
-0.000228
-0.000232
-0.000234
-0.000241
-0.000250
-0.000252
-0.000261
-0.000275
-0.000282
-0.000293
-0.000299
-0.000305
-0.000307
-0.000306
-0.000305
-0.000309
-0.000309
-0.000315
-0.000315
-0.000322
-0.000322
-0.000328
-0.000333
-0.000337
-0.000341
-0.000344
-0.000349
-0.000357
-0.000361
-0.000366
-0.000371
-0.000376
-0.000382
-0.000387
-0.000390
-0.000393
-0.000396
-0.000401
-0.000405
-0.000411
-0.000415
-0.000420
-0.000424
-0.000429
-0.000432
-0.000437
-0.000441
-0.000447
-0.000451
-0.000456
-0.000460
-0.000464
-0.000467
-0.000473
-0.000478
-0.000482
-0.000486
-0.000490
-0.000497
-0.000501
-0.000505
-0.000511
-0.000518
-0.000524
-0.000531
-0.000540
-0.000549
-0.000558
-0.000567
-0.000571
-0.000576
-0.000583
-0.000590
-0.000596
-0.000607
-0.000605
-0.000603
-0.000616
-0.000630
-0.000628
-0.000640
-0.000624
-0.000602
-0.000605
-0.000582
-0.000541
-0.000458
-0.000348
-0.000195
-0.000000
-0.000000
-0.000000
-0.000000
-0.000000
-0.000000
-0.000000
-0.000000
-0.000000
-0.000000
-0.000000
-0.000000
-0.001845
-0.001805
-0.001843
-0.000714
-0.000650
-0.000682
0.001557
0.001488
0.001508
0.001445
-0.001685
-0.001746
-0.001698
-0.001759
-0.001664
-0.001677
-0.001547
-0.000705
-0.000673
-0.000721
-0.000654
0.000843
0.000826
0.000918
0.000862
-0.001541
0.000937
0.001033
0.000991
-0.001736
0.000994
0.000860
0.000928
-0.001787
0.001891
0.001871
0.001849
-0.001244
-0.001321
-0.001235
-0.001301
0.001813
0.000763
0.000752
0.000094
0.000102
0.000042
0.000165
-0.000970
-0.000884
-0.000974
-0.000860
-0.000801
-0.000866
-0.000819
-0.000819
0.000725
0.000669
0.000686
0.000615
-0.001709
-0.001656
-0.001675
-0.001684
0.001790
0.001811
-0.000207
-0.000176
-0.000201
-0.000280
-0.000236
-0.000283
-0.000161
0.001025
0.001090
0.001012
0.001305
0.001300
0.001371
0.001336
0.001075
-0.000513
-0.000508
-0.000839
-0.000734
-0.000800
-0.000679
-0.000510
-0.000442
-0.000463
0.001974
0.001995
0.001985
0.002004
-0.000729
-0.000790
-0.000893
-0.001004
0.001518
0.001428
0.001532
-0.001174
-0.001212
-0.001257
0.001463
-0.000449
0.001562
0.001619
0.001592
-0.001197
-0.001192
-0.001142
0.001653
-0.001175
-0.001237
0.000572
0.000410
0.000581
-0.001155
0.000662
0.000633
0.000699
0.000342
0.000264
0.000414
0.000274
0.000072
0.000097
0.000193
0.000171
0.001310
0.001398
0.001295
0.001402
0.001404
0.001303
0.001845
0.001911
0.001870
0.001245
-0.000846
-0.000788
-0.000789
-0.001505
-0.001508
-0.001622
0.000947
0.000822
0.001054
-0.001881
-0.001898
-0.001891
-0.001321
-0.001316
-0.001435
-0.001446
-0.000734
-0.000535
-0.000622
-0.000531
0.001969
0.001992
0.001968
0.001974
-0.001953
-0.001971
-0.001964
-0.001982
-0.001887
-0.001862
-0.001830
-0.001786
-0.001806
-0.001819
-0.001859
-0.001769
0.000796
0.000416
0.000298
0.000585
0.000233
0.000817
0.000772
0.000862
0.001322
0.001249
0.001186
-0.001621
-0.001684
-0.001684
-0.000668
0.000942
0.001008
0.000906
0.001323
0.001388
0.001320
-0.001032
-0.000953
-0.000953
-0.001519
-0.001539
-0.001458
-0.001602
-0.000866
-0.000328
-0.000281
-0.000340
0.001129
0.001064
0.001140
0.000874
0.000940
0.000917
0.000874
0.000276
0.000238
0.000278
0.000242
0.000691
0.000621
0.000728
0.001783
0.001862
0.001848
0.001794
0.001745
0.001714
0.001681
0.001896
0.001869
0.000612
-0.001574
-0.001469
-0.001578
-0.001759
-0.000076
-0.000094
-0.000095
0.001840
0.001873
0.001846
-0.001180
-0.001163
-0.001039
-0.001218
-0.001051
-0.001091
-0.001146
-0.001687
-0.001762
-0.001727
-0.001729
-0.001568
-0.001635
-0.001590
0.001673
0.001633
0.001699
-0.001660
0.001668
0.001814
0.001824
0.001868
0.001239
0.001160
0.001171
0.001939
0.001897
0.001889
0.001934
-0.001968
-0.001954
-0.001939
-0.001982
-0.001774
-0.001685
-0.001763
-0.001703
0.001085
0.000539
0.000475
0.000455
-0.001717
-0.001653
-0.001760
0.000497
0.000410
0.000391
-0.001820
-0.001826
-0.001868
-0.001785
-0.001827
-0.001857
-0.001774
-0.001890
0.000294
0.001313
0.001235
0.001231
0.001041
0.000903
0.001015
0.001146
0.001698
0.001623
0.001700
-0.001252
-0.001319
-0.001335
-0.000893
-0.001013
0.000407
0.001625
0.001712
0.001708
0.001637
0.001603
0.001543
0.001596
-0.001659
-0.001209
-0.001426
-0.001343
-0.000155
-0.000135
-0.000227
-0.001421
-0.001132
-0.001200
-0.001129
-0.001231
0.001541
0.001007
0.001008
0.001071
0.000945
-0.000970
-0.000901
-0.000936
-0.001572
-0.001563
-0.001489
-0.000905
-0.000500
-0.000575
0.001847
0.001809
0.001819
-0.000080
0.001782
-0.000112
-0.000305
-0.000180
0.001008
0.000998
0.000898
-0.001009
-0.001093
-0.001052
0.000812
0.000785
0.000583
-0.001062
0.000113
0.000117
0.000085
-0.001081
-0.001017
0.000918
-0.001032
0.000104
-0.000654
-0.000625
-0.000609
0.000497
0.000495
0.000431
-0.000583
0.001151
0.001099
0.001057
-0.001538
-0.001554
-0.001621
0.001026
-0.001483
-0.000525
-0.000433
-0.000429
0.000325
0.000248
0.000367
0.001268
0.001316
0.001122
0.000221
0.000735
0.000742
0.000541
-0.000512
-0.000459
-0.000462
0.001373
0.001381
0.001305
0.001315
0.000847
0.000779
0.000749
0.000383
0.000441
0.000712
0.000076
0.000031
-0.000123
0.000876
0.000940
0.000525
0.000449
0.000556
0.000559
0.000621
0.000507
-0.001023
-0.001223
-0.001182
-0.001325
-0.000508
-0.000335
-0.000641
-0.000258
0.001444
0.001490
0.001559
0.000013
0.000013
0.000006
0.001155
0.001200
0.001294
0.000606
0.000701
0.000795
0.001544
0.001623
0.001626
0.000918
0.001007
0.000972
0.000951
0.000901
0.000966
0.000926
0.001535
0.001446
0.001417
0.001376
0.000787
0.000719
0.000798
0.000758
-0.000059
0.000066
0.000167
-0.000377
-0.000257
-0.000293
0.000972
0.001050
0.001173
-0.000198
-0.000616
-0.000657
-0.000570
-0.000150
0.000040
0.000002
-0.000711
0.000783
0.000886
0.000991
0.001382
0.001454
0.000509
0.000662
0.000702
0.000187
0.000360
0.000360
0.001318
0.001280
0.001355
0.001342
0.001744
0.001804
0.001747
0.001804
-0.001684
-0.001651
-0.001569
0.000264
0.000215
0.000248
-0.001385
-0.001465
0.000211
0.000834
0.000755
0.000806
-0.001603
0.000739
-0.001655
-0.001675
-0.001611
-0.001661
-0.001649
-0.001157
-0.001225
-0.001187
-0.001577
-0.001465
-0.001412
-0.001499
0.001721
0.001668
0.001731
0.000953
0.000853
0.000809
0.000614
0.000465
-0.001542
0.000503
0.000222
0.000020
0.000156
0.001179
0.001144
-0.001222
0.001046
-0.000905
-0.000832
0.000289
0.000201
0.000961
0.001024
0.000997
0.001154
0.001079
0.000847
0.000839
0.000785
0.001782
0.001746
0.000549
0.000553
0.000590
0.000553
0.000438
0.000430
0.001178
-0.001698
-0.001776
-0.001783
-0.000276
-0.000216
0.001101
0.001255
0.000479
0.000622
0.001699
0.001564
0.001538
0.001685
-0.001572
-0.001625
-0.001608
-0.001426
0.000141
0.000121
0.000108
-0.001605
-0.001662
0.001064
0.000775
0.000356
0.000289
0.000269
0.000005
-0.000005
-0.000010
0.000004
-0.000019
-0.000014
-0.001164
-0.001084
-0.001068
-0.000994
-0.000953
-0.000888
-0.000887
0.000506
-0.001174
-0.001257
-0.001164
-0.001247
-0.001395
-0.001444
-0.001355
0.001240
0.001184
0.001095
0.001287
-0.001469
0.000701
0.000627
-0.000714
-0.000643
-0.000546
-0.000765
0.000383
0.000254
0.000479
-0.000739
-0.000693
-0.000765
0.000448
-0.000737
0.001243
0.001123
0.001322
0.000791
0.000722
0.000791
0.001289
0.000715
0.001840
0.001772
0.001868
0.001467
0.001409
0.001491
0.001868
0.001379
0.001123
0.001187
0.001238
-0.000063
-0.000057
-0.000378
-0.000412
-0.000414
-0.001324
-0.001452
-0.001371
-0.001082
-0.001198
-0.001106
0.000830
0.000643
0.000717
0.000751
0.001583
0.001432
0.001511
0.001516
-0.000483
-0.000596
-0.000503
0.001929
0.001873
0.001872
0.000904
0.000778
0.000953
0.000416
0.000432
0.000491
-0.001491
-0.001396
-0.001416
0.001493
0.001405
0.001477
0.001361
0.000627
0.000548
0.000667
0.000402
-0.000683
-0.000847
-0.000812
-0.000912
-0.000772
0.000628
0.000683
-0.001758
-0.001670
0.001196
0.001087
0.001186
0.001274
0.000597
0.000563
0.000697
0.000615
-0.000415
-0.000438
-0.000524
0.001091
0.001027
0.001159
-0.002012
-0.002000
-0.002001
0.001167
-0.001196
-0.001059
-0.001071
-0.001145
-0.000432
-0.000450
-0.000492
0.000688
0.000666
-0.001177
-0.001061
-0.000691
-0.000807
0.000174
0.000179
-0.000565
-0.000608
-0.000618
-0.000412
-0.000414
-0.000367
-0.001914
-0.001925
-0.000367
-0.000048
-0.000025
0.000121
-0.001137
-0.001055
-0.001107
0.000889
0.000998
-0.001082
0.001627
0.001693
-0.001666
-0.001526
-0.001616
-0.000890
-0.000863
-0.000742
0.001744
0.001830
0.001775
0.001840
0.001879
0.001919
0.001957
0.001961
-0.000533
-0.000486
-0.000493
0.001928
0.001916
0.000813
0.000877
0.000779
0.000822
0.000738
0.000840
-0.001124
0.001870
0.001800
0.001879
0.001921
0.000061
0.000098
-0.000072
0.000941
0.000988
0.000832
0.001659
0.001691
0.001589
-0.001147
0.000138
0.000251
0.000056
0.000154
0.000949
0.001053
0.000892
0.001002
0.001652
0.001616
0.001533
-0.000567
-0.000418
-0.000423
0.000499
0.000594
0.000651
0.001308
0.001358
0.001422
-0.000493
-0.000419
-0.000420
0.001829
0.001839
0.001877
0.001950
0.001969
0.001941
0.001971
0.001938
0.001884
0.001891
0.001947
-0.000167
-0.000160
-0.000110
-0.000578
-0.000508
-0.000383
-0.001103
-0.001010
-0.001136
-0.001021
-0.001186
-0.001044
-0.000217
0.000646
0.000686
0.000693
0.000742
-0.000901
-0.000881
-0.000972
-0.000915
0.000501
0.000424
0.000421
-0.001384
-0.001416
-0.001441
-0.001479
-0.001395
-0.001404
-0.001320
0.001951
0.001939
0.001778
0.001749
0.001728
0.001803
-0.000064
-0.000086
-0.000095
-0.000114
0.001233
0.001239
0.001287
0.001875
0.001935
0.001976
0.001987
0.001977
0.001984
0.001243
0.001171
0.001208
-0.000742
-0.000748
-0.001506
-0.001487
-0.001548
-0.001413
-0.001006
-0.001014
-0.001101
-0.001057
-0.000912
-0.000846
-0.000811
-0.000792
-0.000729
-0.000775
-0.000534
-0.000874
-0.000834
-0.002011
-0.002003
-0.001995
-0.000555
-0.000585
-0.000619
-0.000837
-0.000973
-0.001013
-0.001875
-0.001827
-0.001904
-0.000956
-0.000925
-0.001007
0.001997
0.001982
-0.000632
-0.001037
-0.000946
0.001000
0.000999
0.000096
0.000106
0.000088
0.000764
0.000788
0.001493
0.001532
0.000575
0.000542
0.000492
0.001901
0.001934
0.001294
0.000482
-0.001355
-0.001435
-0.001350
-0.001445
0.001487
0.001531
0.001437
0.001599
-0.001579
-0.001621
-0.001566
-0.000642
-0.000620
0.000884
0.000804
0.000800
0.000734
0.001509
0.001441
0.001451
0.001386
0.000204
0.000162
0.000134
0.000111
0.000966
0.000948
0.001047
0.001124
-0.000237
-0.000246
-0.000285
-0.000281
-0.000219
-0.000198
0.001987
0.001969
0.001986
0.001955
-0.001989
-0.001981
-0.002000
-0.001992
0.001152
0.001096
0.001040
-0.001598
-0.001647
-0.001703
-0.000026
-0.000188
0.000018
0.000828
0.000840
0.000746
-0.000052
-0.000100
-0.000087
0.000779
0.000761
0.000687
0.000102
-0.000127
-0.000152
-0.000167
-0.000113
-0.001967
-0.001982
-0.001932
-0.001939
-0.000025
0.000603
0.000774
0.000557
0.000659
0.000025
0.001006
-0.000192
-0.000296
-0.000103
-0.000072
0.000325
-0.000267
-0.000331
-0.000253
0.001410
0.001545
0.001384
0.001467
-0.000334
0.000101
0.000061
0.000034
0.001905
0.001959
0.001905
0.001926
0.000091
0.000140
0.000179
-0.000456
-0.000482
-0.000401
0.001274
0.001149
0.000681
0.000759
0.000769
-0.000185
-0.000102
-0.000176
-0.000936
-0.001021
-0.000802
-0.000808
-0.000885
0.000728
0.000675
0.000617
-0.001152
-0.001293
-0.000708
-0.001389
-0.001468
-0.001305
-0.001352
0.001433
0.001507
0.001507
-0.000662
-0.000647
-0.000710
0.001798
-0.000195
-0.000310
0.001457
0.001377
0.001345
-0.000273
-0.000422
-0.000582
0.001973
0.001999
0.001996
-0.000868
-0.000954
-0.000980
0.000232
0.000181
0.000209
-0.001999
-0.002006
-0.000048
-0.000067
0.000656
0.000650
0.000707
-0.000040
-0.000020
-0.000036
0.000547
0.000419
0.000504
-0.001739
-0.000092
-0.001708
-0.001892
-0.001835
0.000102
0.000186
0.000094
-0.001894
-0.001944
-0.001728
-0.001775
-0.001750
-0.001516
-0.001845
-0.001819
-0.001886
-0.001871
-0.001835
-0.001803
-0.000269
-0.000241
-0.000186
-0.000029
-0.001768
0.000052
0.000181
0.000020
0.000235
0.001110
0.001762
-0.000408
0.001806
-0.001956
-0.001914
0.000426
-0.001922
-0.001914
-0.000019
-0.000029
0.001964
0.000019
0.000583
-0.001148
-0.001055
-0.001106
-0.001015
-0.001806
0.000880
0.000815
0.000809
0.000248
-0.000173
0.000762
0.000828
0.000772
-0.000461
-0.000389
-0.000469
-0.000104
-0.000144
-0.000375
-0.000004
-0.000000
0.000152
0.000109
-0.000586
-0.000632
-0.000626
0.000289
0.000382
0.000521
0.000419
0.000472
-0.000404
-0.000285
0.001681
0.001594
0.001655
-0.000470
-0.000419
-0.000665
-0.001079
-0.001095
-0.000988
-0.000626
-0.000669
-0.000599
-0.000702
-0.001186
-0.001125
-0.001235
-0.001157
-0.001264
-0.001159
-0.001187
-0.001348
-0.000405
-0.000304
0.000809
0.000801
0.000838
0.000328
0.000424
-0.000174
-0.000065
-0.000239
0.000758
0.000758
0.000063
0.000182
0.000239
-0.001499
-0.001495
0.001295
0.001364
0.001311
0.001431
-0.000291
0.000485
0.000459
0.000295
-0.000597
-0.000505
-0.001000
0.000645
0.000679
0.000625
0.000698
-0.000194
-0.000211
-0.000230
-0.000221
-0.000336
-0.000171
-0.000270
0.000365
0.000257
-0.000611
-0.000671
-0.000608
-0.000712
-0.000557
-0.000528
-0.000336
-0.000390
0.000451
0.000616
0.000493
-0.000323
0.000518
0.000513
0.000473
0.000598
0.000357
-0.001620
-0.001555
0.000219
0.000295
0.000246
0.000449
-0.001503
-0.001412
-0.001462
-0.001301
-0.001307
-0.001363
0.000303
-0.001443
-0.001375
0.000663
0.000680
0.000706
-0.001300
-0.001239
0.000661
0.000590
0.000693
-0.001032
-0.001133
0.000537
0.000994
0.000946
0.001074
0.000849
0.000807
0.000860
0.000816
-0.000109
-0.000184
0.000739
0.000808
0.000672
0.000788
0.000862
0.000118
0.000774
-0.000861
0.000681
-0.000829
-0.000883
-0.000751
0.000201
0.000160
0.000174
0.000178
0.000244
0.000207
0.000197
0.000560
0.000477
0.000444
-0.001209
-0.001234
-0.001309
-0.001321
-0.001057
-0.000391
-0.001017
-0.001088
-0.000896
-0.000578
-0.000583
-0.000333
0.001263
0.001206
0.001217
-0.001116
-0.001069
-0.001160
-0.001020
-0.001359
-0.001320
-0.001409
-0.001264
-0.001140
-0.001056
-0.001095
-0.000987
0.001461
0.001556
0.001498
0.001600
-0.000710
-0.000743
-0.001097
-0.001086
-0.001019
-0.001039
0.000023
0.000014
-0.000810
-0.000732
-0.000903
-0.000736
-0.000518
-0.000510
0.000532
-0.000641
-0.000687
-0.000670
-0.000550
-0.000531
-0.000719
-0.000610
-0.000576
0.000283
0.000319
-0.000015
-0.000041
0.000012
0.000002
0.000035
-0.000008
0.000618
0.000595
0.000577
0.000832
0.000896
0.000847
-0.000283
0.000853
0.000776
0.000779
0.000337
-0.000615
0.000320
0.000357
0.000388
0.000290
0.001481
0.001574
0.001556
-0.000657
-0.000689
0.000884
0.000974
0.000988
0.000870
-0.001257
-0.001175
-0.001218
-0.001126
0.000692
0.000714
0.000593
0.001373
0.001462
0.001417
0.001401
-0.001841
-0.001802
0.000813
0.000888
-0.001897
-0.001852
0.001906
0.001859
-0.000602
-0.000681
-0.001767
-0.001713
-0.001723
0.001688
0.000365
0.000401
0.000321
-0.000740
-0.000613
-0.000702
-0.000800
0.000150
-0.000658
-0.000578
-0.000618
-0.000536
-0.000615
-0.000526
-0.001858
-0.001904
-0.001733
-0.001774
-0.001698
-0.001792
-0.001890
-0.001591
-0.001666
-0.001083
-0.001054
0.001934
-0.000963
-0.001030
-0.000077
-0.000043
0.000008
0.000505
0.000521
0.000012
-0.000038
-0.000059
-0.000769
-0.000639
-0.000686
-0.000556
-0.000722
-0.000567
0.000540
-0.000703
-0.000959
-0.000906
0.000874
-0.000928
0.001612
-0.000902
0.001932
0.001951
0.000620
0.000617
0.000659
0.000584
0.000499
0.000667
0.000678
0.000603
-0.000770
-0.000827
-0.000827
0.000596
0.001161
0.001056
0.001112
0.001082
-0.001392
-0.001404
0.001704
0.001662
0.001705
0.001644
0.000360
0.000327
0.000428
0.000403
0.000324
0.000350
-0.001114
-0.000158
-0.000157
-0.000180
-0.000136
-0.000585
-0.000656
-0.000294
-0.000272
-0.000315
-0.000551
-0.000339
-0.000275
-0.000300
-0.000492
-0.000391
-0.000423
0.001836
0.001792
0.000710
0.000747
0.000657
-0.001478
-0.001553
-0.001558
-0.001630
-0.001393
-0.001396
-0.001325
0.000998
0.001070
0.000955
0.001105
0.000938
0.000844
0.000822
0.001439
0.001537
0.001476
0.001583
0.001336
0.001393
0.001310
-0.001115
-0.000654
-0.000679
-0.000727
-0.000782
-0.000975
-0.001039
-0.001115
-0.000567
-0.000637
-0.000561
-0.000571
-0.000598
-0.000619
0.001729
0.000608
0.000694
0.000610
-0.000251
-0.000233
-0.000330
-0.000315
-0.000259
-0.000323
-0.001447
-0.001359
-0.001375
-0.001282
-0.000011
0.000019
0.000050
0.000031
-0.000734
-0.000742
0.000658
0.000853
0.000963
0.000881
0.000942
0.000917
0.000811
0.000822
0.000369
0.000432
0.000391
0.000409
0.000420
0.000362
0.000374
-0.000592
-0.000705
0.001285
0.001357
0.001306
0.001372
0.001199
0.001263
-0.000190
0.001151
0.000011
-0.000133
-0.001235
-0.001302
-0.001713
-0.001380
-0.001165
-0.001181
-0.000900
-0.000975
-0.000853
-0.001043
-0.001447
-0.001872
-0.001866
-0.001626
-0.001701
-0.001241
0.001182
0.001284
0.001221
-0.001397
-0.001487
0.001133
0.001092
0.001041
0.000969
-0.000916
-0.000871
-0.000965
0.001108
0.001152
0.001192
-0.000830
-0.000629
-0.000597
-0.000692
-0.000285
-0.000283
-0.000322
-0.000244
0.000539
0.000533
-0.000535
-0.000530
0.000824
0.000737
0.000698
0.000794
0.000708
0.000886
0.000126
-0.000789
-0.000754
-0.000797
0.000252
0.000295
0.000250
-0.001572
-0.001501
-0.001594
-0.001516
0.000348
0.001146
0.001031
0.001104
0.001111
0.001206
0.001167
-0.000278
-0.000538
-0.000591
-0.000606
-0.000534
-0.000684
0.001176
0.001294
0.001185
-0.000095
-0.000082
-0.000097
0.001275
0.001373
-0.000675
-0.000738
0.000956
0.001076
0.001039
-0.000115
0.001148
0.001187
0.000411
0.000480
0.000470
-0.000110
0.000535
0.000560
-0.000057
0.000005
-0.000003
0.000588
0.000577
0.000634
0.000530
0.000522
0.000492
0.000571
-0.000062
-0.000061
-0.000050
-0.000073
0.000801
0.000719
0.000662
0.000670
0.000729
0.000589
-0.000470
-0.000416
-0.000340
0.001270
0.001224
0.000800
0.000799
0.000871
-0.000749
-0.000777
0.000288
0.000240
-0.000317
0.001097
0.001091
0.001190
0.000556
0.000567
0.000654
-0.000813
-0.000808
-0.000914
0.000643
-0.000677
0.000140
0.000168
0.000204
-0.000698
-0.001002
-0.000996
0.000593
0.000552
0.000549
-0.001188
-0.001248
-0.001244
-0.001518
-0.001532
-0.001139
-0.000142
-0.000113
-0.000118
-0.000141
-0.000413
-0.000462
-0.000333
-0.000378
-0.000537
-0.000567
0.001221
-0.001522
-0.001062
-0.000104
-0.000649
-0.000649
-0.000710
-0.000512
-0.000582
0.000948
0.001029