# vtk DataFile Version 2.0
Test
ASCII
DATASET POLYDATA
POINTS 1818 float
0.000000 0.000000 0.000000
1.000000 0.000000 0.000000
1.000000 1.000000 0.000000
0.000000 1.000000 0.000000
0.300000 0.330000 0.000000
0.700000 0.680000 0.000000
0.058824 0.000000 0.000000
0.117647 0.000000 0.000000
0.176471 0.000000 0.000000
0.235294 0.000000 0.000000
0.294118 0.000000 0.000000
0.352941 0.000000 0.000000
0.411765 0.000000 0.000000
0.470588 0.000000 0.000000
0.529412 0.000000 0.000000
0.588235 0.000000 0.000000
0.647059 0.000000 0.000000
0.705882 0.000000 0.000000
0.764706 0.000000 0.000000
0.823529 0.000000 0.000000
0.882353 0.000000 0.000000
0.941176 0.000000 0.000000
1.000000 0.058824 0.000000
1.000000 0.117647 0.000000
1.000000 0.176471 0.000000
1.000000 0.235294 0.000000
1.000000 0.294118 0.000000
1.000000 0.352941 0.000000
1.000000 0.411765 0.000000
1.000000 0.470588 0.000000
1.000000 0.529412 0.000000
1.000000 0.588235 0.000000
1.000000 0.647059 0.000000
1.000000 0.705882 0.000000
1.000000 0.764706 0.000000
1.000000 0.823529 0.000000
1.000000 0.882353 0.000000
1.000000 0.941176 0.000000
0.941176 1.000000 0.000000
0.882353 1.000000 0.000000
0.823529 1.000000 0.000000
0.764706 1.000000 0.000000
0.705882 1.000000 0.000000
0.647059 1.000000 0.000000
0.588235 1.000000 0.000000
0.529412 1.000000 0.000000
0.470588 1.000000 0.000000
0.411765 1.000000 0.000000
0.352941 1.000000 0.000000
0.294118 1.000000 0.000000
0.235294 1.000000 0.000000
0.176471 1.000000 0.000000
0.117647 1.000000 0.000000
0.058824 1.000000 0.000000
0.000000 0.941176 0.000000
0.000000 0.882353 0.000000
0.000000 0.823529 0.000000
0.000000 0.764706 0.000000
0.000000 0.705882 0.000000
0.000000 0.647059 0.000000
0.000000 0.588235 0.000000
0.000000 0.529412 0.000000
0.000000 0.470588 0.000000
0.000000 0.411765 0.000000
0.000000 0.352941 0.000000
0.000000 0.294118 0.000000
0.000000 0.235294 0.000000
0.000000 0.176471 0.000000
0.000000 0.117647 0.000000
0.000000 0.058824 0.000000
0.305970 0.335224 0.000000
0.311940 0.340448 0.000000
0.317910 0.345672 0.000000
0.323881 0.350896 0.000000
0.329851 0.356119 0.000000
0.335821 0.361343 0.000000
0.341791 0.366567 0.000000
0.347761 0.371791 0.000000
0.353731 0.377015 0.000000
0.359701 0.382239 0.000000
0.365672 0.387463 0.000000
0.371642 0.392687 0.000000
0.377612 0.397910 0.000000
0.383582 0.403134 0.000000
0.389552 0.408358 0.000000
0.395522 0.413582 0.000000
0.401493 0.418806 0.000000
0.407463 0.424030 0.000000
0.413433 0.429254 0.000000
0.419403 0.434478 0.000000
0.425373 0.439701 0.000000
0.431343 0.444925 0.000000
0.437313 0.450149 0.000000
0.443284 0.455373 0.000000
0.449254 0.460597 0.000000
0.455224 0.465821 0.000000
0.461194 0.471045 0.000000
0.467164 0.476269 0.000000
0.473134 0.481493 0.000000
0.479104 0.486716 0.000000
0.485075 0.491940 0.000000
0.491045 0.497164 0.000000
0.497015 0.502388 0.000000
0.502985 0.507612 0.000000
0.508955 0.512836 0.000000
0.514925 0.518060 0.000000
0.520896 0.523284 0.000000
0.526866 0.528507 0.000000
0.532836 0.533731 0.000000
0.538806 0.538955 0.000000
0.544776 0.544179 0.000000
0.550746 0.549403 0.000000
0.556716 0.554627 0.000000
0.562687 0.559851 0.000000
0.568657 0.565075 0.000000
0.574627 0.570299 0.000000
0.580597 0.575522 0.000000
0.586567 0.580746 0.000000
0.592537 0.585970 0.000000
0.598507 0.591194 0.000000
0.604478 0.596418 0.000000
0.610448 0.601642 0.000000
0.616418 0.606866 0.000000
0.622388 0.612090 0.000000
0.628358 0.617313 0.000000
0.634328 0.622537 0.000000
0.640299 0.627761 0.000000
0.646269 0.632985 0.000000
0.652239 0.638209 0.000000
0.658209 0.643433 0.000000
0.664179 0.648657 0.000000
0.670149 0.653881 0.000000
0.676119 0.659104 0.000000
0.682090 0.664328 0.000000
0.688060 0.669552 0.000000
0.694030 0.674776 0.000000
0.516135 0.080917 0.000000
0.549338 0.042552 0.000000
0.567302 0.088709 0.000000
0.555658 0.563778 0.000000
0.559301 0.571359 0.000000
0.552318 0.570919 0.000000
0.603235 0.047100 0.000000
0.446553 0.448087 0.000000
0.438652 0.443189 0.000000
0.445116 0.440368 0.000000
0.437254 0.190586 0.000000
0.465954 0.201747 0.000000
0.439184 0.213838 0.000000
0.453137 0.228102 0.000000
0.522423 0.410182 0.000000
0.522098 0.390982 0.000000
0.537289 0.398500 0.000000
0.453388 0.527105 0.000000
0.462022 0.524948 0.000000
0.461218 0.533993 0.000000
0.324300 0.374550 0.000000
0.319287 0.386214 0.000000
0.314834 0.375138 0.000000
0.668809 0.628853 0.000000
0.677366 0.632907 0.000000
0.668274 0.639611 0.000000
0.469934 0.529282 0.000000
0.439703 0.436699 0.000000
0.446608 0.432083 0.000000
0.542854 0.633425 0.000000
0.535117 0.647070 0.000000
0.524302 0.633157 0.000000
0.519372 0.648877 0.000000
0.586338 0.611293 0.000000
0.591638 0.624149 0.000000
0.575478 0.621479 0.000000
0.437962 0.035513 0.000000
0.421505 0.085456 0.000000
0.394924 0.044162 0.000000
0.445207 0.955749 0.000000
0.429168 0.919510 0.000000
0.464409 0.914226 0.000000
0.317150 0.400904 0.000000
0.328626 0.395860 0.000000
0.439616 0.884412 0.000000
0.330406 0.381773 0.000000
0.676842 0.602700 0.000000
0.674982 0.614185 0.000000
0.665930 0.611798 0.000000
0.414707 0.535036 0.000000
0.420123 0.526072 0.000000
0.425338 0.533771 0.000000
0.398407 0.375558 0.000000
0.393804 0.363255 0.000000
0.407284 0.365452 0.000000
0.407758 0.523337 0.000000
0.899969 0.377867 0.000000
0.945915 0.378245 0.000000
0.914158 0.409130 0.000000
0.358219 0.436142 0.000000
0.361390 0.425428 0.000000
0.369309 0.432300 0.000000
0.465999 0.075074 0.000000
0.269944 0.367761 0.000000
0.266521 0.352125 0.000000
0.283474 0.357667 0.000000
0.385889 0.083020 0.000000
0.359482 0.060981 0.000000
0.279658 0.346766 0.000000
0.363604 0.104040 0.000000
0.511115 0.503731 0.000000
0.503243 0.499914 0.000000
0.509146 0.494910 0.000000
0.513188 0.475753 0.000000
0.504957 0.474656 0.000000
0.511959 0.464784 0.000000
0.311863 0.447505 0.000000
0.293019 0.442078 0.000000
0.305555 0.431691 0.000000
0.499204 0.464990 0.000000
0.293855 0.459576 0.000000
0.396676 0.236328 0.000000
0.371014 0.247362 0.000000
0.373003 0.229199 0.000000
0.384478 0.261522 0.000000
0.555704 0.523331 0.000000
0.551313 0.515879 0.000000
0.562752 0.515269 0.000000
0.554954 0.506854 0.000000
0.804236 0.611103 0.000000
0.819351 0.593503 0.000000
0.832061 0.615776 0.000000
0.509908 0.485173 0.000000
0.129738 0.481190 0.000000
0.110722 0.443736 0.000000
0.154857 0.452634 0.000000
0.089738 0.485299 0.000000
0.396427 0.153886 0.000000
0.393058 0.115469 0.000000
0.420333 0.126587 0.000000
0.442628 0.413512 0.000000
0.434815 0.404283 0.000000
0.446816 0.400259 0.000000
0.499770 0.482873 0.000000
0.353883 0.235057 0.000000
0.351360 0.254011 0.000000
0.332147 0.240870 0.000000
0.112307 0.405527 0.000000
0.140355 0.392788 0.000000
0.142004 0.423465 0.000000
0.334868 0.263052 0.000000
0.551239 0.594093 0.000000
0.560217 0.601969 0.000000
0.546711 0.604614 0.000000
0.398510 0.570197 0.000000
0.387124 0.557316 0.000000
0.399978 0.555748 0.000000
0.705281 0.743146 0.000000
0.722930 0.758853 0.000000
0.697202 0.758074 0.000000
0.380190 0.572638 0.000000
0.278345 0.431947 0.000000
0.292575 0.428097 0.000000
0.470820 0.540616 0.000000
0.478213 0.533042 0.000000
0.480161 0.543190 0.000000
0.415268 0.299334 0.000000
0.412465 0.313515 0.000000
0.400419 0.297680 0.000000
0.396495 0.317117 0.000000
0.718655 0.732879 0.000000
0.709319 0.677587 0.000000
0.715709 0.670111 0.000000
0.719283 0.682820 0.000000
0.212992 0.453899 0.000000
0.184619 0.470046 0.000000
0.186665 0.440862 0.000000
0.452307 0.386568 0.000000
0.460371 0.397715 0.000000
0.478664 0.456068 0.000000
0.476179 0.462123 0.000000
0.471250 0.456445 0.000000
0.464654 0.388544 0.000000
0.483415 0.461045 0.000000
0.357146 0.449596 0.000000
0.344653 0.443966 0.000000
0.554562 0.459423 0.000000
0.543333 0.457517 0.000000
0.553850 0.449505 0.000000
0.543131 0.445036 0.000000
0.347312 0.459318 0.000000
0.781088 0.538918 0.000000
0.810909 0.534152 0.000000
0.799399 0.553968 0.000000
0.402869 0.534333 0.000000
0.408011 0.546121 0.000000
0.703844 0.670118 0.000000
0.552234 0.794299 0.000000
0.528593 0.795589 0.000000
0.539188 0.770312 0.000000
0.596088 0.518714 0.000000
0.593029 0.508081 0.000000
0.604120 0.510731 0.000000
0.384880 0.468703 0.000000
0.382270 0.455963 0.000000
0.394062 0.458803 0.000000
0.374729 0.466839 0.000000
0.340939 0.294790 0.000000
0.324530 0.290188 0.000000
0.338473 0.279923 0.000000
0.465367 0.336545 0.000000
0.477337 0.352846 0.000000
0.459495 0.350024 0.000000
0.584947 0.516440 0.000000
0.326802 0.302636 0.000000
0.945343 0.420397 0.000000
0.779746 0.749037 0.000000
0.771533 0.774140 0.000000
0.758291 0.749848 0.000000
0.743435 0.765852 0.000000
0.751942 0.297541 0.000000
0.784264 0.292048 0.000000
0.772562 0.330207 0.000000
0.812744 0.305799 0.000000
0.655547 0.494535 0.000000
0.649767 0.472522 0.000000
0.671966 0.480244 0.000000
0.612062 0.502007 0.000000
0.616789 0.515227 0.000000
0.403059 0.898561 0.000000
0.391512 0.946883 0.000000
0.625780 0.504699 0.000000
0.635988 0.491275 0.000000
0.596252 0.650380 0.000000
0.583401 0.655132 0.000000
0.583737 0.644777 0.000000
0.713099 0.416502 0.000000
0.708474 0.388943 0.000000
0.733625 0.389568 0.000000
0.684835 0.406222 0.000000
0.656936 0.416423 0.000000
0.633624 0.425116 0.000000
0.634362 0.400237 0.000000
0.646884 0.740682 0.000000
0.654954 0.726002 0.000000
0.663305 0.741855 0.000000
0.732481 0.441235 0.000000
0.751303 0.460839 0.000000
0.721338 0.462235 0.000000
0.759622 0.437863 0.000000
0.462761 0.363156 0.000000
0.373644 0.622389 0.000000
0.346217 0.613642 0.000000
0.370315 0.594521 0.000000
0.351411 0.640635 0.000000
0.695337 0.690220 0.000000
0.705202 0.700133 0.000000
0.692303 0.700990 0.000000
0.521365 0.516400 0.000000
0.522992 0.510597 0.000000
0.527633 0.513574 0.000000
0.291567 0.329512 0.000000
0.294927 0.318154 0.000000
0.365771 0.366553 0.000000
0.366135 0.358691 0.000000
0.374180 0.368122 0.000000
0.408232 0.327056 0.000000
0.423479 0.328280 0.000000
0.411272 0.339740 0.000000
0.664110 0.670607 0.000000
0.667245 0.662649 0.000000
[...]
POINT_DATA 1818
SCALARS UX float 1
LOOKUP_TABLE default
-0.000000
0.000000
0.028164
-0.083985
-0.032088
0.011681
0.000000
-0.000000
-0.000000
-0.000000
-0.000000
-0.000000
-0.000000
-0.000000
-0.000000
-0.000000
0.000000
0.000000
0.000000
0.000000
0.000000
-0.000000
0.018413
0.028005
0.035095
0.041286
0.046375
0.050712
0.054356
0.057022
0.058661
0.058977
0.057413
0.054575
0.049834
0.043434
0.036374
0.031452
0.017669
0.009188
0.002487
-0.003169
-0.008073
-0.012638
-0.017357
-0.022457
-0.028151
-0.034405
-0.041023
-0.047902
-0.054934
-0.062051
-0.069176
-0.076578
-0.083242
-0.082852
-0.082944
-0.083239
-0.083727
-0.084192
-0.084448
-0.084141
-0.082753
-0.080017
-0.075706
-0.069303
-0.060685
-0.050246
-0.037516
-0.024439
-0.031727
-0.030735
-0.029515
-0.029369
-0.028652
-0.028011
-0.027242
-0.026929
-0.026502
-0.025962
-0.025981
-0.025320
-0.024919
-0.025224
-0.024381
-0.024119
-0.024305
-0.023906
-0.023738
-0.023061
-0.022701
-0.022299
-0.021442
-0.021159
-0.020516
-0.019619
-0.019052
-0.018054
-0.017427
-0.016597
-0.016320
-0.015699
-0.014690
-0.014023
-0.012446
-0.011565
-0.010671
-0.009344
-0.008624
-0.007125
-0.006373
-0.005401
-0.004818
-0.004249
-0.003731
-0.003212
-0.002826
-0.002090
-0.001666
-0.001169
-0.000330
-0.000036
0.000489
0.001252
0.001675
0.002370
0.002814
0.003134
0.003683
0.004220
0.005293
0.006474
0.007774
0.008381
0.009980
0.010688
-0.000837
-0.000223
0.000210
-0.023441
-0.024934
-0.028031
0.000411
-0.002160
-0.003742
0.000182
-0.004413
-0.003080
-0.004567
-0.003763
0.009233
0.007912
0.009456
-0.042842
-0.042051
-0.041935
-0.047404
-0.050165
-0.048432
0.024285
0.025569
0.020746
-0.041162
-0.000889
0.002614
-0.029076
-0.028816
-0.030853
-0.030190
-0.024320
-0.023770
-0.026254
-0.000911
-0.002356
-0.001365
-0.030466
-0.032115
-0.028332
-0.052072
-0.050361
-0.031129
-0.047381
0.028533
0.027592
0.026708
-0.045512
-0.045468
-0.044782
-0.003276
-0.004165
-0.002512
-0.046476
0.043099
0.047590
0.046513
-0.050506
-0.049592
-0.049275
-0.001541
-0.053674
-0.051744
-0.049742
-0.002683
-0.002110
-0.047496
-0.003782
0.003349
-0.000857
0.006908
0.011815
0.010685
0.011557
-0.054524
-0.056008
-0.054657
0.009995
-0.056214
-0.007423
-0.009441
-0.008781
-0.008555
0.016006
0.015776
0.017611
0.016639
0.041835
0.043484
0.044197
0.010753
-0.072481
-0.073180
-0.069596
-0.076099
-0.005036
-0.003747
-0.003530
0.002865
0.001716
0.002905
0.008139
-0.010237
-0.011182
-0.012027
-0.071024
-0.067781
-0.069604
-0.013010
-0.030312
-0.028921
-0.030551
-0.045216
-0.046697
-0.045738
-0.000784
0.001213
-0.002883
-0.046656
-0.057116
-0.055644
-0.040886
-0.040222
-0.039935
-0.005139
-0.004764
-0.006492
-0.006061
0.003087
0.019281
0.024953
0.020954
-0.064080
-0.067091
-0.066342
0.002651
0.003954
0.006882
0.005302
0.005044
0.003724
0.007489
-0.051037
-0.051873
0.014700
0.013795
0.014025
0.012990
-0.051900
0.038751
0.041814
0.041139
-0.046413
-0.045543
0.020449
-0.019756
-0.022357
-0.021735
0.020822
0.020140
0.021115
-0.049163
-0.049170
-0.048123
-0.049937
-0.013427
-0.015688
-0.013424
0.000564
0.002368
0.000929
0.019798
-0.015842
0.050070
0.016445
0.009563
0.010552
0.004576
0.021318
0.024092
0.025929
0.028226
0.024343
0.022666
0.025044
0.021288
0.022280
-0.035079
-0.036269
0.022462
0.022550
-0.021982
-0.023192
-0.023888
0.025498
0.023330
0.025964
0.022035
0.020008
0.018470
0.017003
-0.009396
-0.008429
-0.007133
0.028978
0.032081
0.028945
0.031730
0.001970
-0.045310
-0.048362
-0.046700
-0.046925
0.003960
0.005667
0.000732
0.000301
0.005944
0.007269
-0.036783
-0.028269
-0.009955
-0.008302
-0.007013
-0.004483
-0.003100
-0.003524
-0.006486
-0.002282
-0.001543
-0.049876
-0.050360
-0.051219
-0.051578
-0.010216
-0.012748
-0.015951
0.002929
0.003450
0.005291
0.005072
-0.016226
-0.017927
-0.014572
-0.004276
-0.008056
-0.009220
-0.036270
-0.036825
-0.037887
-0.009370
-0.015146
-0.014748
-0.003576
-0.000489
0.002586
-0.002075
0.000430
-0.010187
-0.006818
-0.037508
-0.034187
-0.033063
-0.037719
-0.058661
-0.056246
-0.057658
-0.049970
-0.051891
-0.050409
-0.009495
-0.009053
-0.028767
0.019284
0.019366
-0.053507
-0.052934
-0.051919
-0.025790
-0.063527
-0.059234
-0.058202
-0.055418
-0.047325
-0.036830
-0.037523
-0.037729
-0.036180
-0.036692
-0.035141
0.028470
0.027992
0.026203
0.030280
-0.054942
-0.053931
-0.053117
-0.029871
-0.035652
-0.027939
-0.022804
-0.019887
-0.015681
-0.009486
-0.026805
-0.032336
-0.037564
0.027678
0.022487
-0.038945
-0.040001
-0.039074
-0.015536
-0.020768
-0.020793
-0.039006
-0.039995
-0.038627
-0.023987
-0.021825
-0.022150
-0.037447
-0.040315
-0.007442
-0.008044
-0.012168
-0.012309
-0.010491
-0.014095
0.013976
0.013624
0.011953
-0.080962
-0.081483
-0.078019
-0.070699
-0.067091
-0.069658
-0.067661
-0.009910
-0.013383
-0.017813
-0.018678
-0.034133
-0.035738
-0.034338
-0.036353
-0.032202
-0.033475
-0.031802
-0.046595
-0.047663
-0.046269
-0.046467
-0.046260
-0.047166
-0.046651
-0.041526
-0.001890
-0.005354
-0.005756
0.008349
0.006162
0.007001
0.007323
0.035135
0.030982
0.032678
0.038091
0.039036
-0.038742
-0.041241
-0.043592
0.015998
0.016605
0.009267
-0.043267
-0.042296
-0.043682
-0.018036
-0.013607
-0.040731
-0.015332
-0.019079
-0.020463
0.004947
0.006198
0.005063
0.016684
0.017381
0.017664
-0.011559
-0.011858
-0.019542
0.018434
-0.059580
-0.055852
-0.063215
-0.059011
-0.062822
0.004189
0.005636
0.013457
0.014552
0.013550
0.014654
0.012716
-0.076497
-0.013787
-0.011372
-0.014074
-0.011384
-0.050189
-0.054005
-0.047261
0.018071
0.020116
0.022538
-0.010178
0.011105
0.006298
0.015321
0.015500
-0.008869
-0.006097
-0.006799
-0.052144
-0.050929
-0.050876
-0.021521
-0.023429
-0.076402
0.015849
0.017095
0.016427
0.001453
0.001159
-0.027255
-0.026024
-0.024243
0.001880
0.017866
-0.054849
-0.056044
-0.056282
-0.046190
-0.043429
-0.043701
0.005121
0.012311
0.007757
0.011168
0.000187
0.016337
0.016916
-0.037414
-0.030398
-0.032501
-0.005283
-0.004016
-0.056423
-0.055097
-0.054360
-0.004956
-0.000458
-0.001308
-0.001810
-0.056701
-0.058944
-0.058081
-0.025878
-0.031464
-0.022330
-0.014501
-0.015472
-0.017919
-0.057167
-0.049792
0.014842
-0.052892
-0.057062
0.013390
0.015726
0.017152
-0.053541
0.014928
0.012635
-0.035580
-0.034740
0.031154
0.033534
0.032857
-0.037026
0.012101
0.012686
0.023686
-0.043583
-0.043735
-0.042634
-0.031830
-0.030154
-0.015824
-0.044831
0.004142
0.005418
-0.044669
-0.025239
-0.027102
-0.024978
-0.027063
0.042631
0.038739
0.039376
0.017413
0.012384
0.009912
-0.031127
-0.029140
-0.027427
-0.009455
-0.007669
0.008464
-0.000409
0.002005
0.005186
-0.000354
-0.052287
-0.051626
-0.007478
-0.006966
-0.046841
0.026392
0.031594
0.025366
0.052913
0.032610
0.006566
0.007889
0.008715
-0.052151
0.005815
-0.002221
-0.001699
-0.000901
-0.027834
-0.035752
-0.026591
-0.024971
0.019313
-0.043237
-0.039193
-0.052538
-0.053617
-0.052861
-0.041542
-0.040349
-0.040695
-0.044540
0.031800
0.030030
0.032875
-0.039417
-0.003109
0.043420
0.023966
0.023605
0.007960
0.014230
0.007305
0.015320
0.012050
0.017136
-0.003869
-0.041235
-0.013923
-0.044788
-0.045713
-0.056145
-0.059470
-0.001037
0.000242
-0.020497
-0.025241
0.012714
-0.008275
-0.073780
-0.010624
-0.053198
-0.052684
-0.049587
-0.011494
0.032019
0.030653
0.029714
0.029135
-0.000553
-0.002255
-0.020526
-0.019872
-0.018205
0.028092
0.028333
0.027080
0.026858
0.031539
0.033232
-0.051597
-0.051723
0.040373
-0.076808
-0.068881
-0.073401
0.035029
0.033843
0.032217
-0.021762
-0.023661
-0.019763
0.036147
0.043303
0.026025
0.018622
0.022470
0.014412
-0.025772
0.009245
0.008466
0.007153
0.032543
0.036343
0.035501
-0.058954
-0.063463
-0.065284
0.039404
-0.036569
-0.033964
-0.040759
-0.042646
-0.043676
-0.053434
0.005431
0.003615
0.009698
0.049774
0.051090
0.054378
0.046127
0.041171
0.049466
0.047791
-0.016518
-0.016483
-0.068921
-0.062378
-0.063108
-0.018710
0.009065
-0.002740
-0.067715
-0.067873
-0.071723
-0.058000
-0.057755
-0.075830
0.007299
-0.001442
-0.043226
-0.003869
-0.041649
-0.037787
-0.037742
0.053714
0.056029
-0.007845
-0.008002
-0.003994
0.008895
0.004291
0.012021
0.001293
-0.004473
0.006782
-0.006358
-0.007659
-0.038307
-0.046221
-0.047835
-0.040501
-0.056323
-0.058053
-0.057690
-0.079835
-0.078545
-0.003613
-0.005557
-0.002881
-0.005492
-0.006052
-0.011917
-0.009624
-0.010860
-0.074569
-0.001623
-0.002429
-0.021323
-0.024618
-0.024496
0.054198
0.050387
-0.059992
0.038019
0.036317
0.036057
0.038378
-0.070608
-0.069563
-0.067339
0.040598
-0.001649
0.047207
-0.002443
-0.001094
-0.004302
-0.005501
-0.025938
0.001209
-0.002413
-0.014884
-0.012966
-0.012607
0.023760
0.017021
-0.011023
-0.033910
-0.034073
-0.009762
-0.026819
0.015081
0.018130
0.014586
0.019839
-0.053347
-0.053404
-0.038536
-0.024850
-0.002705
-0.005617
0.005541
0.004335
0.002897
-0.004176
-0.010558
-0.066971
-0.063344
-0.066098
-0.064122
-0.026437
-0.067793
-0.067093
-0.070956
-0.064919
-0.065192
-0.032348
-0.030544
-0.038120
-0.034849
-0.031861
-0.016601
-0.013693
-0.018422
-0.015311
-0.073909
-0.079584
-0.071035
0.008746
0.007621
0.008157
-0.035138
-0.036738
-0.001498
-0.002687
-0.062402
-0.064530
-0.061844
-0.050403
-0.049558
-0.048650
-0.026943
-0.030398
-0.061349
0.009555
0.005168
0.003096
-0.049301
-0.048512
-0.046445
-0.050136
-0.050816
-0.067381
0.021802
0.018079
-0.053958
-0.054650
-0.056700
-0.057361
0.003405
0.001622
-0.049370
0.036151
-0.007168
-0.003090
0.001999
0.002400
0.000106
-0.025428
0.000388
-0.045291
-0.036481
-0.035051
-0.037243
-0.037622
-0.053261
-0.054622
-0.055926
0.000626
-0.000160
-0.057825
0.012206
0.025671
0.025342
-0.078794
-0.074306
-0.075611
-0.022692
-0.024707
-0.024942
-0.054992
0.049125
0.051778
0.048060
0.045710
0.045091
-0.061114
-0.059590
-0.050476
-0.051645
-0.051888
-0.000830
0.021823
0.014309
0.031236
-0.059681
-0.061482
-0.047077
-0.048286
-0.044253
-0.054885
-0.062915
-0.046698
0.006505
0.006741
0.007071
-0.041029
-0.039392
-0.042587
0.031886
0.032550
0.033853
-0.039732
0.043753
0.042040
-0.066724
-0.023640
0.003016
-0.074016
-0.079490
-0.021662
-0.024507
0.023120
0.022412
0.021927
-0.009874
-0.008974
0.024273
-0.009043
0.025308
-0.058240
-0.061975
0.032450
0.034162
0.026525
0.007603
-0.007962
0.038676
0.032996
0.044726
0.030319
-0.013835
-0.015084
-0.012890
-0.014013
0.010142
-0.016478
-0.018914
0.010705
-0.054957
-0.047824
-0.051821
-0.034051
-0.033315
0.005952
0.008231
-0.031554
-0.032549
-0.033210
0.009906
0.008974
0.009963
-0.039653
-0.038702
-0.038006
-0.052313
0.035488
0.036951
0.037555
-0.056070
-0.058061
-0.059941
-0.005620
-0.006826
-0.007391
-0.060254
-0.029857
-0.008706
-0.027845
-0.016522
-0.064885
-0.064028
0.046792
0.008613
0.029939
0.026390
-0.037396
-0.038767
-0.006968
-0.008827
-0.005231
-0.069874
-0.007278
-0.048545
-0.062053
-0.059703
-0.047567
-0.047684
-0.048385
0.028120
0.027507
0.027973
0.029907
0.007479
0.009503
0.007139
0.010785
-0.054732
-0.033014
-0.034072
-0.056242
-0.032910
0.004417
0.003305
-0.001564
0.037547
0.029904
0.023677
0.002420
-0.001944
-0.014135
-0.055723
-0.054652
-0.053695
-0.062082
-0.020110
-0.007795
-0.017797
-0.012997
-0.018781
0.005663
0.004345
-0.002586
-0.006005
-0.004914
-0.004300
0.029532
0.007759
0.005538
0.004347
-0.003442
0.009987
-0.011135
-0.008785
0.042299
-0.042716
-0.045427
-0.043623
-0.044053
-0.049285
0.039174
0.031734
0.033539
0.029599
0.028402
0.027460
-0.059169
-0.000811
0.001425
0.003254
0.002700
0.003003
0.003623
0.004074
0.049489
0.052510
0.035631
-0.049380
-0.048823
-0.015758
-0.017417
0.023997
0.032442
0.028841
0.029206
-0.047827
-0.047052
-0.021021
-0.022447
-0.016110
-0.053603
-0.052441
-0.005605
-0.054490
0.015543
0.015781
0.015118
-0.005748
-0.004170
0.029785
0.026961
-0.040477
-0.041888
-0.038835
-0.040166
-0.039513
-0.040956
0.010889
0.009877
-0.064645
0.009996
0.014379
0.016479
0.043084
0.041683
0.011632
-0.004206
-0.004076
-0.006951
-0.013547
-0.025605
-0.016437
-0.019060
-0.020738
-0.047049
-0.047535
0.034371
0.014024
0.010912
0.011480
0.002556
-0.016094
-0.018990
-0.019945
0.024242
0.023141
0.015691
-0.048217
-0.048047
-0.044184
-0.011827
-0.012796
-0.010544
-0.009726
-0.004991
-0.014661
-0.013145
-0.010105
-0.021949
-0.003879
-0.007055
0.034066
0.036292
0.036376
0.028750
0.034302
0.038838
-0.049920
-0.018807
-0.028816
-0.031993
-0.030901
-0.028769
-0.031918
-0.031729
0.004576
0.026162
0.001001
-0.011171
-0.010465
0.029932
0.030099
0.019091
0.019636
0.018645
-0.040460
-0.044438
-0.004353
0.005087
-0.051700
0.031148
0.030956
0.027121
0.025949
-0.051122
-0.060412
-0.054127
0.027142
0.026604
0.014329
0.012014
0.012738
0.013571
0.026269
0.042118
-0.005714
0.022105
0.014626
0.016967
-0.006902
-0.028779
-0.023402
0.042027
0.003723
-0.027104
0.023775
0.026208
-0.017324
-0.020375
-0.026513
-0.028871
-0.026890
-0.036604
0.021607
0.020362
-0.013831
-0.019590
-0.018108
-0.037033
-0.032993
-0.072151
0.021134
0.020967
0.020218
0.020634
0.021383
-0.046704
0.019277
-0.045560
-0.011761
-0.038368
-0.050303
-0.027546
-0.022533
-0.022356
-0.039383
-0.000171
-0.047624
-0.064090
-0.004945
-0.006281
-0.009880
-0.046566
-0.044297
-0.036899
0.023646
0.001867
0.001380
-0.036839
-0.019929
0.019061
0.023619
-0.042116
-0.043693
-0.043806
0.011169
-0.038693
0.028849
0.027283
0.000003
-0.028831
-0.030530
-0.030986
-0.035817
-0.034858
-0.012635
-0.005487
0.043295
0.045957
0.011808
-0.014762
0.012443
-0.010028
-0.011033
0.017307
-0.008557
-0.018003
0.039862
-0.011263
-0.047683
-0.047699
0.025054
0.007526
0.008827
0.046455
0.009539
0.001683
-0.005575
-0.062116
-0.061417
-0.012819
-0.014961
-0.046661
-0.048294
-0.046973
0.048353
-0.048545
-0.027920
-0.035539
0.028559
-0.021986
-0.017183
-0.016715
-0.037705
-0.002643
-0.004646
0.011672
-0.028960
-0.032073
0.018830
0.020151
0.021564
0.021981
0.020501
0.007209
-0.069589
-0.030002
-0.035447
-0.033757
-0.014703
-0.014130
-0.014419
0.010648
0.011928
-0.018473
-0.018133
0.004233
0.010042
0.017049
-0.002066
-0.001170
-0.000740
0.000098
-0.032572
-0.042215
-0.038696
0.023918
0.023790
0.025173
-0.033641
-0.033693
-0.001973
-0.044620
-0.045076
0.001301
0.002393
0.026886
0.000352
-0.049016
-0.053423
-0.049332
-0.038684
0.000370
-0.037482
-0.005352
-0.006465
-0.059771
-0.061279
0.002749
-0.008288
0.002051
-0.034241
0.006004
-0.000669
0.005106
-0.048050
-0.047871
0.010051
-0.038526
-0.050257
-0.055515
-0.057999
-0.048965
-0.034799
-0.032613
-0.030608
0.017679
0.018868
0.018879
-0.041228
-0.039404
-0.005197
-0.005733
-0.043334
-0.042812
-0.044757
-0.016475
-0.015212
-0.036467
-0.041839
0.026227
0.025729
-0.003064
-0.045737
-0.045684
-0.049665
-0.047848
-0.047552
-0.002367
-0.001298
0.016967
0.009397
-0.033876
-0.032631
-0.035394
-0.003099
-0.000600
0.003680
0.004049
-0.044664
0.002221
0.002232
-0.021627
-0.030403
0.002195
0.000861
-0.035914
-0.032989
-0.007669
0.010993
0.010775
0.022092
-0.047255
0.022162
-0.004752
0.035115
0.035083
-0.048887
-0.048717
-0.011499
-0.010679
-0.017335
-0.018439
0.015775
0.025980
0.005206
-0.026130
0.023792
-0.051892
0.023982
0.018362
0.018846
-0.052120
0.027076
0.013369
0.003202
0.015869
0.014856
-0.000648
0.014272
-0.067758
-0.064263
-0.063101
-0.056991
0.036056
0.017141
0.018981
0.017156
0.000689
-0.062614
0.039274
-0.050760
-0.045572
-0.044062
-0.003135
0.001723
-0.001546
0.018667
0.008077
-0.029301
-0.027700
-0.070192
-0.005674
0.018378
0.024212
-0.077058
-0.076556
-0.027997
0.005694
0.015622
0.006719
0.014696
0.024359
0.012443
0.004555
-0.046257
0.011557
-0.049585
-0.016022
0.015534
0.021056
0.018436
0.014192
0.033560
0.021900
-0.045681
-0.041033
-0.040187
0.038627
0.037365
0.000984
0.026675
-0.033539
-0.035254
-0.035517
0.007110
0.008344
0.007443
0.007902
-0.029237
-0.005973
0.030261
0.015476
-0.042530
-0.030555
-0.064433
-0.021216
0.022946
0.032899
0.031488
-0.040863
-0.043412
-0.060349
0.030595
0.028977
-0.034733
-0.018210
-0.000482
-0.002170
-0.049966
-0.001474
-0.009307
-0.027773
0.031938
0.039019
0.011294
0.006545
0.003550
-0.053841
-0.015621
-0.002817
-0.001539
-0.047720
0.045029
-0.059934
0.006518
0.006478
-0.059482
0.025316
0.018205
0.013287
-0.023023
0.014393
0.009156
-0.032725
0.026297
-0.031108
-0.000081
-0.001709
0.002609
-0.036136
0.009278
-0.028834
-0.001491
-0.007877
-0.007463
-0.030986
0.041406
0.022899
-0.043463
-0.043801
-0.013929
0.014632
-0.074199
-0.078966
-0.078092
-0.034858
-0.046370
0.019235
-0.040486
0.012358
0.024167
0.023990
-0.008312
-0.038994
-0.042330
-0.042232
0.034552
0.032370
0.012284
0.011472
-0.022989
-0.029213
-0.050520
-0.051446
0.013968
-0.046970
-0.020993
-0.022203
-0.044159
-0.055019
0.016512
0.012183
0.019243
0.018824
-0.025908
0.030756
0.024452
-0.018461
-0.039375
-0.041239
0.019900
0.016090
-0.038769
0.017486
0.007306
-0.048465
0.028190
-0.025817
-0.053892
0.022675
0.022245
-0.020278
-0.019551
-0.040225
-0.047848
0.022677
0.023074
0.023805
-0.009026
0.011994
-0.004404
-0.041959
-0.055061
0.012309
0.011144
-0.042579
-0.044758
0.018434
0.024238
0.000382
0.004783
0.000540
0.029801
0.043100
-0.015654
-0.014719
-0.026420
-0.051530
0.020162
-0.039501
-0.010699
-0.010767
-0.003775
0.008430
-0.042527
0.020838
-0.042857
-0.023890
0.024571
-0.040099
-0.032579
-0.035897
-0.043252
-0.017012
-0.013036
-0.041858
0.022300
-0.042602
-0.008261
-0.006863
-0.015958
-0.004526
-0.018671
-0.017400
0.011911
-0.041430
-0.042569
-0.012709
-0.007313
-0.007231
-0.030749
-0.031125
-0.024084
-0.034220
-0.026294
-0.010585
-0.031329
-0.022550
-0.016712
-0.002780
-0.037554
0.026115
0.021396
-0.012833
-0.045242
-0.043862
-0.013351
0.004885
0.006959
-0.026069
-0.000489
-0.041345
-0.045344
-0.001629
0.013423
0.016496
0.019254
0.025855
-0.042950
0.010883
-0.039490
-0.032896
-0.040526
0.016627
-0.021369
0.013919
-0.044311
0.008667
0.006472
0.005392
-0.050732
-0.001103
-0.026654
-0.031418
-0.005891
-0.021018
-0.043864
0.001078
0.017641
-0.022664
-0.034507
-0.004816
SCALARS UY float 1
LOOKUP_TABLE default
-0.000000
-0.000000
-0.200000
-0.200000
-0.051303
-0.137494
-0.000000
-0.000000
-0.000000
-0.000000
-0.000000
-0.000000
-0.000000
-0.000000
-0.000000
-0.000000
-0.000000
-0.000000
-0.000000
-0.000000
-0.000000
-0.000000
-0.018964
-0.032398
-0.043499
-0.053987
-0.063851
-0.073451
-0.082648
-0.091196
-0.099489
-0.107323
-0.115580
-0.124428
-0.135022
-0.148569
-0.164519
-0.182156
-0.200000
-0.200000
-0.200000
-0.200000
-0.200000
-0.200000
-0.200000
-0.200000
-0.200000
-0.200000
-0.200000
-0.200000
-0.200000
-0.200000
-0.200000
-0.200000
-0.187196
-0.174555
-0.162297
-0.150381
-0.139050
-0.128511
-0.118774
-0.109931
-0.101764
-0.094190
-0.086557
-0.078182
-0.068402
-0.056146
-0.041058
-0.023368
-0.051847
-0.053797
-0.055660
-0.056385
-0.058056
-0.059459
-0.061033
-0.062146
-0.063099
-0.064260
-0.065043
-0.067031
-0.068793
-0.069400
-0.071269
-0.072498
-0.073488
-0.074956
-0.076117
-0.077592
-0.078743
-0.079823
-0.081249
-0.082082
-0.083466
-0.084313
-0.085106
-0.086490
-0.087107
-0.088467
-0.089700
-0.090889
-0.092426
-0.092521
-0.093829
-0.094385
-0.095028
-0.096418
-0.096702
-0.098185
-0.098909
-0.100208
-0.100999
-0.102741
-0.104183
-0.105533
-0.106799
-0.108470
-0.109801
-0.111208
-0.113114
-0.114229
-0.115213
-0.117101
-0.118576
-0.120261
-0.121854
-0.123445
-0.124925
-0.126478
-0.128103
-0.130014
-0.131591
-0.132681
-0.134507
-0.135966
-0.007973
-0.004163
-0.009248
-0.119309
-0.122976
-0.124502
-0.004840
-0.064630
-0.063944
-0.060880
-0.019488
-0.021471
-0.022501
-0.024736
-0.054367
-0.051405
-0.053327
-0.116399
-0.116328
-0.118005
-0.077086
-0.081537
-0.077920
-0.107642
-0.108857
-0.112755
-0.117408
-0.060147
-0.057010
-0.138620
-0.140545
-0.137718
-0.140101
-0.135012
-0.137997
-0.137593
-0.003184
-0.007852
-0.003947
-0.192340
-0.185800
-0.185437
-0.084962
-0.084182
-0.179725
-0.079887
-0.100599
-0.103248
-0.102080
-0.115696
-0.114494
-0.116091
-0.046186
-0.043943
-0.044201
-0.113324
-0.070736
-0.073779
-0.077157
-0.094657
-0.092529
-0.094216
-0.007055
-0.073700
-0.068669
-0.070690
-0.007600
-0.005559
-0.065823
-0.009684
-0.077831
-0.080052
-0.072718
-0.065124
-0.064889
-0.062817
-0.094264
-0.092256
-0.090819
-0.062644
-0.095751
-0.024543
-0.025643
-0.023365
-0.027763
-0.076437
-0.074400
-0.074291
-0.072214
-0.110910
-0.107715
-0.112084
-0.067607
-0.099407
-0.093616
-0.093586
-0.101263
-0.014777
-0.010761
-0.012039
-0.052557
-0.050837
-0.050124
-0.068354