# vtk DataFile Version 2.0
Test
ASCII
DATASET POLYDATA
POINTS 1792 float
0.000000 0.000000 0.000000
1.000000 0.000000 0.000000
1.000000 1.000000 0.000000
0.000000 1.000000 0.000000
0.000000 0.400000 0.000000
1.000000 0.700000 0.000000
0.076923 0.000000 0.000000
0.153846 0.000000 0.000000
0.230769 0.000000 0.000000
0.307692 0.000000 0.000000
0.384615 0.000000 0.000000
0.461538 0.000000 0.000000
0.538462 0.000000 0.000000
0.615385 0.000000 0.000000
0.692308 0.000000 0.000000
0.769231 0.000000 0.000000
0.846154 0.000000 0.000000
0.923077 0.000000 0.000000
1.000000 0.075421 0.000000
1.000000 0.143732 0.000000
1.000000 0.205602 0.000000
1.000000 0.261640 0.000000
1.000000 0.312395 0.000000
1.000000 0.358364 0.000000
1.000000 0.400000 0.000000
1.000000 0.437711 0.000000
1.000000 0.471866 0.000000
1.000000 0.502801 0.000000
1.000000 0.530820 0.000000
1.000000 0.556197 0.000000
1.000000 0.579182 0.000000
1.000000 0.600000 0.000000
1.000000 0.618855 0.000000
1.000000 0.635933 0.000000
1.000000 0.651401 0.000000
1.000000 0.665410 0.000000
1.000000 0.678099 0.000000
1.000000 0.689591 0.000000
1.000000 0.711139 0.000000
1.000000 0.725174 0.000000
1.000000 0.742857 0.000000
1.000000 0.765136 0.000000
1.000000 0.793206 0.000000
1.000000 0.828571 0.000000
1.000000 0.873129 0.000000
1.000000 0.929269 0.000000
0.923077 1.000000 0.000000
0.846154 1.000000 0.000000
0.769231 1.000000 0.000000
0.692308 1.000000 0.000000
0.615385 1.000000 0.000000
0.538462 1.000000 0.000000
0.461538 1.000000 0.000000
0.384615 1.000000 0.000000
0.307692 1.000000 0.000000
0.230769 1.000000 0.000000
0.153846 1.000000 0.000000
0.076923 1.000000 0.000000
0.000000 0.925188 0.000000
0.000000 0.858538 0.000000
0.000000 0.799159 0.000000
0.000000 0.746259 0.000000
0.000000 0.699130 0.000000
0.000000 0.657143 0.000000
0.000000 0.619737 0.000000
0.000000 0.586412 0.000000
0.000000 0.556722 0.000000
0.000000 0.530272 0.000000
0.000000 0.506708 0.000000
0.000000 0.485714 0.000000
0.000000 0.467011 0.000000
0.000000 0.450349 0.000000
0.000000 0.435504 0.000000
0.000000 0.422279 0.000000
0.000000 0.410497 0.000000
0.000000 0.389188 0.000000
0.000000 0.376331 0.000000
0.000000 0.361040 0.000000
0.000000 0.342857 0.000000
0.000000 0.321233 0.000000
0.000000 0.295518 0.000000
0.000000 0.264938 0.000000
0.000000 0.228571 0.000000
0.000000 0.185324 0.000000
0.000000 0.133894 0.000000
0.000000 0.072733 0.000000
0.009524 0.402857 0.000000
0.019048 0.405714 0.000000
0.028571 0.408571 0.000000
0.038095 0.411429 0.000000
0.047619 0.414286 0.000000
0.057143 0.417143 0.000000
0.066667 0.420000 0.000000
0.076190 0.422857 0.000000
0.085714 0.425714 0.000000
0.095238 0.428571 0.000000
0.104762 0.431429 0.000000
0.114286 0.434286 0.000000
0.123810 0.437143 0.000000
0.133333 0.440000 0.000000
0.142857 0.442857 0.000000
0.152381 0.445714 0.000000
0.161905 0.448571 0.000000
0.171429 0.451429 0.000000
0.180952 0.454286 0.000000
0.190476 0.457143 0.000000
0.200000 0.460000 0.000000
0.209524 0.462857 0.000000
0.219048 0.465714 0.000000
0.228571 0.468571 0.000000
0.238095 0.471429 0.000000
0.247619 0.474286 0.000000
0.257143 0.477143 0.000000
0.266667 0.480000 0.000000
0.276190 0.482857 0.000000
0.285714 0.485714 0.000000
0.295238 0.488571 0.000000
0.304762 0.491429 0.000000
0.314286 0.494286 0.000000
0.323810 0.497143 0.000000
0.333333 0.500000 0.000000
0.342857 0.502857 0.000000
0.352381 0.505714 0.000000
0.361905 0.508571 0.000000
0.371429 0.511429 0.000000
0.380952 0.514286 0.000000
0.390476 0.517143 0.000000
0.400000 0.520000 0.000000
0.409524 0.522857 0.000000
0.419048 0.525714 0.000000
0.428571 0.528571 0.000000
0.438095 0.531429 0.000000
0.447619 0.534286 0.000000
0.457143 0.537143 0.000000
0.466667 0.540000 0.000000
0.476190 0.542857 0.000000
0.485714 0.545714 0.000000
0.495238 0.548571 0.000000
0.504762 0.551429 0.000000
0.514286 0.554286 0.000000
0.523810 0.557143 0.000000
0.533333 0.560000 0.000000
0.542857 0.562857 0.000000
0.552381 0.565714 0.000000
0.561905 0.568571 0.000000
0.571429 0.571429 0.000000
0.580952 0.574286 0.000000
0.590476 0.577143 0.000000
0.600000 0.580000 0.000000
0.609524 0.582857 0.000000
0.619048 0.585714 0.000000
0.628571 0.588571 0.000000
0.638095 0.591429 0.000000
0.647619 0.594286 0.000000
0.657143 0.597143 0.000000
0.666667 0.600000 0.000000
0.676190 0.602857 0.000000
0.685714 0.605714 0.000000
0.695238 0.608571 0.000000
0.704762 0.611429 0.000000
0.714286 0.614286 0.000000
0.723810 0.617143 0.000000
0.733333 0.620000 0.000000
0.742857 0.622857 0.000000
0.752381 0.625714 0.000000
0.761905 0.628571 0.000000
0.771429 0.631429 0.000000
0.780952 0.634286 0.000000
0.790476 0.637143 0.000000
0.800000 0.640000 0.000000
0.809524 0.642857 0.000000
0.819048 0.645714 0.000000
0.828571 0.648571 0.000000
0.838095 0.651429 0.000000
0.847619 0.654286 0.000000
0.857143 0.657143 0.000000
0.866667 0.660000 0.000000
0.876190 0.662857 0.000000
0.885714 0.665714 0.000000
0.895238 0.668571 0.000000
0.904762 0.671429 0.000000
0.914286 0.674286 0.000000
0.923810 0.677143 0.000000
0.933333 0.680000 0.000000
0.942857 0.682857 0.000000
0.952381 0.685714 0.000000
0.961905 0.688571 0.000000
0.971429 0.691429 0.000000
0.980952 0.694286 0.000000
0.990476 0.697143 0.000000
0.550247 0.936021 0.000000
0.598730 0.947336 0.000000
0.976610 0.770825 0.000000
0.954227 0.756268 0.000000
0.971092 0.744229 0.000000
0.222474 0.478666 0.000000
0.232830 0.480758 0.000000
0.226704 0.491317 0.000000
0.206092 0.489932 0.000000
0.203346 0.477773 0.000000
0.212291 0.478281 0.000000
0.337029 0.827570 0.000000
0.338272 0.876692 0.000000
0.294691 0.845991 0.000000
0.292669 0.895990 0.000000
0.028178 0.571366 0.000000
0.052619 0.571366 0.000000
0.043357 0.592917 0.000000
0.194656 0.482705 0.000000
0.120019 0.509334 0.000000
0.104858 0.521566 0.000000
0.103644 0.501600 0.000000
0.123619 0.525441 0.000000
0.496177 0.952805 0.000000
0.526253 0.897175 0.000000
0.473709 0.900904 0.000000
0.333600 0.647806 0.000000
0.334944 0.617844 0.000000
0.350710 0.624174 0.000000
0.312069 0.619745 0.000000
0.427669 0.706680 0.000000
0.455240 0.722221 0.000000
0.426739 0.737884 0.000000
0.449455 0.691430 0.000000
0.299723 0.576374 0.000000
0.313929 0.562827 0.000000
0.318779 0.580307 0.000000
0.127424 0.484534 0.000000
0.115024 0.492679 0.000000
0.112226 0.476038 0.000000
0.205065 0.506299 0.000000
0.203555 0.525298 0.000000
0.192372 0.512628 0.000000
0.217962 0.514806 0.000000
0.132363 0.497960 0.000000
0.425538 0.938478 0.000000
0.388831 0.889752 0.000000
0.430549 0.889213 0.000000
0.435198 0.547668 0.000000
0.431264 0.538643 0.000000
0.440407 0.539478 0.000000
0.696765 0.728502 0.000000
0.675358 0.711957 0.000000
0.701472 0.703413 0.000000
0.685256 0.688794 0.000000
0.553777 0.624195 0.000000
0.573518 0.630846 0.000000
0.559610 0.641564 0.000000
0.571117 0.612219 0.000000
0.616750 0.630655 0.000000
0.630917 0.627393 0.000000
0.627094 0.639958 0.000000
0.625324 0.617494 0.000000
0.692140 0.636361 0.000000
0.683580 0.628469 0.000000
0.693455 0.622776 0.000000
0.680477 0.640716 0.000000
0.632320 0.608032 0.000000
0.630172 0.598650 0.000000
0.640604 0.603519 0.000000
0.706310 0.681708 0.000000
0.690987 0.671868 0.000000
0.704446 0.661967 0.000000
0.909875 0.698866 0.000000
0.905331 0.689037 0.000000
0.916425 0.686473 0.000000
0.687729 0.653949 0.000000
0.097642 0.475417 0.000000
0.083278 0.473933 0.000000
0.093322 0.460512 0.000000
0.726886 0.640736 0.000000
0.724287 0.629222 0.000000
0.736426 0.633353 0.000000
0.541521 0.585834 0.000000
0.529106 0.581867 0.000000
0.537098 0.572631 0.000000
0.530971 0.597834 0.000000
0.328799 0.570535 0.000000
0.871572 0.685730 0.000000
0.868578 0.671870 0.000000
0.882393 0.675586 0.000000
0.222681 0.567699 0.000000
0.202860 0.584364 0.000000
0.200556 0.560998 0.000000
0.899675 0.721429 0.000000
0.917200 0.732334 0.000000
0.897754 0.737907 0.000000
0.911878 0.753244 0.000000
0.717773 0.639422 0.000000
0.712948 0.630815 0.000000
0.326528 0.505168 0.000000
0.336643 0.508782 0.000000
0.330004 0.515544 0.000000
0.167978 0.467612 0.000000
0.158943 0.461320 0.000000
0.167148 0.457860 0.000000
0.157022 0.471851 0.000000
0.603686 0.588739 0.000000
0.608253 0.599400 0.000000
0.595185 0.595365 0.000000
0.188228 0.529508 0.000000
0.200332 0.541549 0.000000
0.182381 0.550450 0.000000
0.596717 0.608184 0.000000
0.636978 0.615405 0.000000
0.647823 0.612062 0.000000
0.677198 0.621972 0.000000
0.676579 0.612608 0.000000
0.686443 0.615957 0.000000
0.193877 0.496510 0.000000
0.181352 0.500973 0.000000
0.183523 0.488188 0.000000
0.402249 0.533069 0.000000
0.411698 0.541868 0.000000
0.400223 0.546174 0.000000
0.412847 0.531612 0.000000
0.421239 0.535898 0.000000
0.493263 0.568166 0.000000
0.485312 0.557374 0.000000
0.496742 0.557516 0.000000
0.289986 0.722176 0.000000
0.302002 0.691205 0.000000
0.319322 0.717472 0.000000
0.167042 0.477960 0.000000
0.046846 0.521647 0.000000
0.063475 0.532458 0.000000
0.044066 0.546285 0.000000
0.644562 0.861268 0.000000
0.612213 0.838732 0.000000
0.642851 0.818940 0.000000
0.234382 0.617882 0.000000
0.245619 0.641932 0.000000
0.220572 0.645095 0.000000
0.987346 0.716649 0.000000
0.969922 0.721600 0.000000
0.977583 0.703991 0.000000
0.543817 0.640929 0.000000
0.534538 0.627905 0.000000
0.985492 0.732207 0.000000
0.541949 0.611248 0.000000
0.711653 0.801413 0.000000
0.670601 0.798975 0.000000
0.693666 0.761663 0.000000
0.421775 0.845325 0.000000
0.462972 0.867491 0.000000
0.242445 0.670236 0.000000
0.271101 0.652871 0.000000
0.896377 0.682067 0.000000
0.883080 0.692293 0.000000
0.859027 0.684304 0.000000
0.857236 0.669607 0.000000
0.281958 0.548778 0.000000
0.296792 0.562008 0.000000
0.279889 0.567733 0.000000
0.620431 0.606039 0.000000
0.608366 0.610678 0.000000
0.584025 0.602581 0.000000
0.585286 0.617232 0.000000
0.289829 0.534333 0.000000
0.300545 0.531822 0.000000
0.302063 0.545869 0.000000
0.312029 0.534827 0.000000
0.802853 0.807583 0.000000
0.771539 0.806279 0.000000
0.784431 0.778603 0.000000
0.216185 0.488507 0.000000
0.217222 0.499449 0.000000
[...]
POINT_DATA 1792
SCALARS UX float 1
LOOKUP_TABLE default
-0.000000
0.000000
0.000009
-0.000202
-0.000144
0.000055
-0.000000
-0.000000
-0.000000
-0.000000
-0.000000
-0.000000
0.000000
0.000000
0.000000
0.000000
0.000000
-0.000000
0.000042
0.000064
0.000077
0.000085
0.000091
0.000095
0.000098
0.000100
0.000102
0.000103
0.000104
0.000105
0.000105
0.000105
0.000105
0.000105
0.000105
0.000103
0.000098
0.000085
0.000025
0.000016
0.000011
0.000010
0.000009
0.000009
0.000009
0.000009
-0.000006
-0.000022
-0.000038
-0.000054
-0.000071
-0.000087
-0.000104
-0.000121
-0.000138
-0.000154
-0.000170
-0.000186
-0.000201
-0.000201
-0.000201
-0.000201
-0.000200
-0.000200
-0.000199
-0.000198
-0.000197
-0.000197
-0.000195
-0.000194
-0.000193
-0.000191
-0.000189
-0.000184
-0.000171
-0.000115
-0.000104
-0.000100
-0.000096
-0.000093
-0.000090
-0.000086
-0.000081
-0.000073
-0.000061
-0.000042
-0.000144
-0.000143
-0.000141
-0.000140
-0.000139
-0.000138
-0.000136
-0.000134
-0.000133
-0.000131
-0.000130
-0.000128
-0.000127
-0.000125
-0.000123
-0.000121
-0.000120
-0.000117
-0.000114
-0.000112
-0.000109
-0.000108
-0.000106
-0.000104
-0.000102
-0.000100
-0.000099
-0.000097
-0.000096
-0.000094
-0.000092
-0.000090
-0.000088
-0.000086
-0.000084
-0.000082
-0.000079
-0.000078
-0.000076
-0.000074
-0.000072
-0.000070
-0.000067
-0.000065
-0.000063
-0.000061
-0.000060
-0.000057
-0.000055
-0.000052
-0.000049
-0.000047
-0.000045
-0.000042
-0.000041
-0.000039
-0.000037
-0.000035
-0.000034
-0.000032
-0.000030
-0.000028
-0.000026
-0.000023
-0.000021
-0.000018
-0.000016
-0.000014
-0.000014
-0.000013
-0.000011
-0.000010
-0.000009
-0.000006
-0.000003
-0.000001
0.000001
0.000003
0.000006
0.000008
0.000010
0.000012
0.000014
0.000016
0.000018
0.000020
0.000022
0.000024
0.000025
0.000027
0.000029
0.000031
0.000033
0.000035
0.000036
0.000038
0.000040
0.000042
0.000044
0.000046
0.000048
0.000050
0.000052
0.000053
-0.000085
-0.000074
0.000005
0.000001
0.000005
-0.000133
-0.000130
-0.000142
-0.000149
-0.000143
-0.000139
-0.000131
-0.000131
-0.000140
-0.000141
-0.000192
-0.000188
-0.000190
-0.000150
-0.000171
-0.000175
-0.000174
-0.000171
-0.000097
-0.000090
-0.000102
-0.000131
-0.000130
-0.000127
-0.000135
-0.000111
-0.000106
-0.000112
-0.000107
-0.000137
-0.000133
-0.000133
-0.000167
-0.000171
-0.000169
-0.000152
-0.000154
-0.000156
-0.000150
-0.000168
-0.000112
-0.000120
-0.000111
-0.000097
-0.000087
-0.000080
-0.000054
-0.000059
-0.000053
-0.000056
-0.000083
-0.000079
-0.000083
-0.000078
-0.000069
-0.000065
-0.000067
-0.000064
-0.000050
-0.000050
-0.000042
-0.000054
-0.000058
-0.000049
-0.000050
-0.000051
-0.000054
-0.000051
-0.000004
0.000000
0.000008
-0.000054
-0.000173
-0.000176
-0.000171
-0.000039
-0.000031
-0.000029
-0.000080
-0.000083
-0.000073
-0.000086
-0.000130
-0.000011
-0.000002
0.000001
-0.000153
-0.000157
-0.000157
-0.000010
-0.000006
-0.000011
-0.000008
-0.000042
-0.000039
-0.000105
-0.000104
-0.000118
-0.000150
-0.000148
-0.000136
-0.000156
-0.000050
-0.000062
-0.000065
-0.000158
-0.000156
-0.000160
-0.000070
-0.000060
-0.000054
-0.000048
-0.000038
-0.000036
-0.000153
-0.000157
-0.000154
-0.000099
-0.000103
-0.000110
-0.000087
-0.000090
-0.000089
-0.000082
-0.000073
-0.000141
-0.000138
-0.000135
-0.000155
-0.000187
-0.000184
-0.000188
-0.000065
-0.000072
-0.000065
-0.000151
-0.000149
-0.000155
0.000016
0.000007
0.000021
-0.000086
-0.000088
0.000010
-0.000085
-0.000050
-0.000059
-0.000054
-0.000113
-0.000104
-0.000150
-0.000144
0.000001
-0.000010
-0.000014
-0.000006
-0.000139
-0.000137
-0.000140
-0.000062
-0.000067
-0.000073
-0.000075
-0.000136
-0.000133
-0.000134
-0.000131
-0.000031
-0.000038
-0.000035
-0.000145
-0.000148
-0.000123
-0.000118
-0.000119
0.000014
0.000017
0.000012
0.000004
-0.000101
-0.000113
-0.000104
-0.000115
-0.000157
-0.000153
-0.000138
-0.000077
-0.000076
-0.000147
-0.000143
-0.000144
-0.000184
-0.000182
-0.000180
-0.000193
-0.000191
-0.000184
-0.000096
-0.000127
-0.000124
-0.000128
-0.000176
-0.000178
-0.000167
-0.000123
-0.000122
-0.000148
-0.000151
-0.000152
-0.000081
-0.000088
-0.000085
-0.000082
-0.000086
-0.000178
-0.000181
-0.000176
-0.000182
-0.000074
-0.000066
-0.000071
-0.000115
-0.000109
-0.000125
-0.000124
-0.000119
-0.000132
-0.000129
0.000024
-0.000036
-0.000034
-0.000037
-0.000117
-0.000122
-0.000033
-0.000084
-0.000077
-0.000078
-0.000162
-0.000130
-0.000127
-0.000186
-0.000183
-0.000180
-0.000175
-0.000180
-0.000163
-0.000156
-0.000153
-0.000179
-0.000123
-0.000161
-0.000123
-0.000117
-0.000130
-0.000149
-0.000095
-0.000092
-0.000097
-0.000095
-0.000091
-0.000043
0.000002
-0.000153
-0.000146
-0.000039
-0.000044
-0.000058
-0.000059
-0.000144
-0.000145
-0.000148
-0.000061
-0.000067
-0.000071
0.000000
0.000003
-0.000191
-0.000191
-0.000069
-0.000074
-0.000161
-0.000164
-0.000162
-0.000018
-0.000011
-0.000011
-0.000156
-0.000159
-0.000154
-0.000028
-0.000026
-0.000030
-0.000023
-0.000022
0.000001
-0.000005
0.000000
-0.000171
-0.000163
-0.000168
-0.000171
-0.000180
-0.000175
-0.000162
-0.000164
-0.000048
-0.000045
-0.000044
-0.000164
-0.000050
-0.000044
-0.000050
-0.000044
-0.000175
-0.000172
-0.000168
-0.000157
-0.000152
-0.000145
-0.000164
-0.000192
-0.000165
-0.000111
-0.000108
-0.000112
-0.000109
-0.000024
-0.000159
-0.000029
-0.000048
-0.000181
-0.000180
-0.000184
-0.000048
-0.000018
-0.000019
-0.000081
-0.000082
-0.000094
-0.000017
-0.000020
-0.000019
-0.000027
-0.000025
-0.000008
-0.000024
-0.000002
-0.000162
-0.000174
-0.000012
-0.000014
-0.000003
-0.000062
-0.000014
-0.000034
-0.000036
-0.000158
-0.000165
-0.000147
-0.000165
-0.000173
-0.000176
-0.000002
-0.000001
-0.000002
-0.000169
-0.000009
-0.000066
-0.000061
-0.000019
-0.000026
-0.000033
-0.000181
-0.000184
-0.000171
-0.000022
-0.000167
-0.000044
-0.000171
-0.000175
-0.000039
-0.000040
-0.000039
-0.000004
-0.000005
-0.000093
-0.000090
-0.000013
-0.000028
-0.000079
-0.000076
-0.000075
-0.000137
-0.000149
-0.000078
-0.000079
-0.000126
-0.000144
-0.000094
-0.000045
-0.000042
-0.000136
-0.000138
-0.000139
-0.000055
-0.000056
-0.000046
-0.000073
-0.000063
-0.000066
-0.000064
-0.000103
-0.000103
-0.000169
-0.000167
-0.000176
-0.000064
-0.000069
-0.000105
-0.000105
-0.000102
-0.000114
-0.000115
-0.000110
-0.000054
-0.000122
-0.000175
-0.000082
-0.000015
-0.000030
-0.000027
-0.000034
-0.000124
-0.000185
-0.000186
-0.000105
-0.000007
-0.000141
-0.000026
-0.000001
-0.000016
-0.000019
-0.000033
-0.000099
-0.000096
0.000016
0.000008
-0.000074
-0.000089
-0.000164
-0.000160
-0.000090
-0.000158
-0.000161
-0.000144
-0.000019
-0.000023
-0.000091
-0.000097
-0.000173
-0.000168
-0.000171
-0.000094
-0.000029
-0.000033
-0.000020
-0.000063
-0.000083
-0.000080
-0.000080
-0.000130
-0.000086
-0.000116
-0.000102
-0.000025
-0.000043
-0.000048
-0.000154
-0.000161
-0.000159
-0.000136
-0.000137
-0.000149
-0.000055
-0.000150
-0.000148
-0.000145
-0.000144
-0.000154
-0.000158
-0.000029
-0.000020
-0.000179
-0.000173
-0.000072
-0.000040
-0.000127
-0.000135
-0.000135
-0.000027
-0.000108
-0.000100
-0.000101
-0.000097
-0.000097
-0.000101
-0.000118
-0.000115
-0.000113
-0.000110
-0.000120
-0.000088
-0.000169
-0.000170
-0.000149
-0.000048
-0.000050
-0.000085
-0.000088
-0.000031
-0.000017
-0.000018
-0.000041
-0.000188
-0.000093
-0.000076
-0.000065
-0.000120
-0.000013
-0.000010
-0.000038
-0.000067
-0.000035
-0.000026
-0.000036
-0.000060
-0.000074
-0.000074
-0.000116
-0.000139
-0.000142
-0.000129
-0.000133
-0.000136
-0.000141
-0.000116
-0.000121
-0.000091
-0.000148
-0.000070
-0.000139
-0.000161
-0.000071
-0.000161
-0.000146
-0.000073
-0.000075
-0.000187
-0.000181
-0.000065
-0.000051
-0.000140
-0.000052
-0.000092
-0.000101
-0.000108
-0.000059
-0.000165
-0.000082
-0.000165
-0.000165
-0.000140
-0.000069
-0.000102
-0.000097
-0.000103
-0.000100
-0.000106
-0.000128
-0.000130
-0.000125
-0.000120
-0.000105
-0.000054
-0.000120
-0.000116
-0.000117
-0.000112
-0.000129
-0.000193
-0.000194
-0.000124
-0.000100
-0.000123
-0.000105
-0.000048
-0.000129
-0.000111
-0.000146
-0.000170
-0.000180
-0.000179
-0.000185
-0.000148
-0.000112
-0.000113
-0.000108
-0.000176
-0.000169
-0.000179
-0.000145
-0.000140
-0.000154
-0.000103
-0.000136
-0.000177
-0.000192
-0.000146
-0.000160
-0.000168
-0.000192
-0.000195
-0.000087
-0.000155
-0.000165
-0.000161
-0.000104
-0.000164
-0.000116
-0.000116
-0.000188
-0.000193
-0.000191
-0.000190
0.000008
0.000028
-0.000062
-0.000064
-0.000076
-0.000066
-0.000090
-0.000188
-0.000129
-0.000113
-0.000111
-0.000188
-0.000128
-0.000189
-0.000058
-0.000168
-0.000097
-0.000154
-0.000178
-0.000101
-0.000168
-0.000136
-0.000157
-0.000130
-0.000127
-0.000185
-0.000183
-0.000096
0.000014
-0.000141
0.000008
-0.000171
-0.000012
-0.000179
-0.000188
-0.000154
-0.000182
-0.000175
-0.000022
-0.000142
-0.000121
-0.000114
-0.000139
-0.000136
-0.000121
-0.000105
-0.000020
-0.000041
-0.000042
-0.000131
-0.000092
-0.000142
-0.000094
-0.000126
-0.000156
-0.000065
-0.000019
-0.000040
-0.000004
-0.000097
-0.000079
-0.000107
-0.000119
-0.000120
-0.000103
-0.000115
-0.000098
-0.000115
-0.000006
-0.000006
-0.000002
0.000038
0.000037
0.000040
0.000039
0.000010
-0.000010
-0.000053
-0.000054
-0.000047
0.000055
0.000057
0.000054
-0.000053
-0.000040
-0.000036
-0.000041
-0.000088
-0.000084
-0.000084
-0.000033
-0.000007
-0.000011
0.000063
0.000063
0.000071
0.000071
0.000077
0.000079
0.000076
0.000080
-0.000097
-0.000102
-0.000089
0.000093
0.000098
0.000094
0.000019
0.000015
0.000071
0.000068
0.000071
0.000068
-0.000000
-0.000003
0.000000
0.000022
0.000021
0.000025
0.000015
0.000019
0.000015
0.000018
0.000043
0.000042
0.000040
0.000022
0.000037
0.000083
0.000082
0.000017
0.000021
0.000020
0.000086
0.000090
0.000024
-0.000089
-0.000091
-0.000095
-0.000065
-0.000066
-0.000085
-0.000043
-0.000022
-0.000099
-0.000110
-0.000113
-0.000079
-0.000075
-0.000064
0.000058
0.000055
0.000056
0.000086
0.000089
0.000084
0.000086
0.000085
0.000090
-0.000065
-0.000060
-0.000060
-0.000049
-0.000050
-0.000070
-0.000058
-0.000058
0.000021
0.000024
0.000018
0.000024
0.000032
0.000006
0.000004
0.000008
0.000007
0.000025
0.000028
-0.000003
-0.000002
-0.000007
0.000001
0.000004
0.000003
0.000008
0.000008
-0.000068
-0.000079
-0.000074
-0.000094
-0.000094
-0.000084
-0.000046
-0.000041
-0.000056
0.000084
0.000081
0.000082
-0.000036
0.000002
-0.000003
0.000047
0.000045
0.000042
0.000080
0.000081
0.000026
0.000028
0.000049
0.000042
-0.000033
-0.000030
-0.000022
-0.000078
-0.000080
0.000027
-0.000026
-0.000026
-0.000022
-0.000022
-0.000029
-0.000034
-0.000076
-0.000087
-0.000085
0.000002
0.000006
0.000002
-0.000010
-0.000011
-0.000007
-0.000007
-0.000012
-0.000019
0.000059
0.000056
0.000047
0.000054
0.000060
0.000057
-0.000048
-0.000050
-0.000046
0.000095
0.000091
0.000097
-0.000051
0.000090
0.000064
0.000068
0.000066
0.000005
0.000002
0.000062
0.000074
0.000069
0.000061
0.000058
0.000044
0.000042
0.000041
-0.000025
-0.000027
-0.000024
-0.000028
0.000071
0.000073
0.000093
0.000093
0.000091
0.000089
-0.000031
-0.000028
-0.000026
0.000050
0.000087
0.000086
-0.000034
-0.000035
0.000015
0.000017
0.000012
0.000014
0.000099
0.000101
-0.000037
-0.000030
-0.000027
-0.000061
-0.000054
-0.000046
-0.000037
-0.000016
-0.000020
-0.000019
0.000048
0.000048
0.000058
0.000061
0.000061
-0.000112
-0.000099
-0.000092
-0.000093
0.000046
0.000037
0.000087
0.000055
0.000064
0.000038
-0.000016
-0.000020
-0.000012
-0.000022
0.000050
0.000047
0.000049
0.000053
-0.000016
-0.000026
0.000053
0.000029
0.000026
-0.000046
-0.000043
-0.000049
-0.000048
0.000083
0.000089
0.000029
-0.000078
-0.000074
-0.000074
-0.000079
-0.000069
-0.000080
-0.000075
0.000000
-0.000000
-0.000004
-0.000003
-0.000004
0.000009
0.000008
0.000078
0.000081
0.000083
0.000015
0.000009
-0.000040
-0.000032
0.000077
0.000073
0.000006
0.000010
0.000008
0.000006
0.000008
0.000072
0.000060
0.000062
0.000046
0.000042
0.000047
0.000033
0.000037
-0.000024
-0.000025
-0.000021
0.000014
0.000010
-0.000021
0.000023
0.000006
-0.000025
0.000028
0.000020
0.000051
-0.000056
-0.000060
-0.000061
-0.000077
-0.000069
0.000082
0.000075
0.000077
0.000085
0.000090
0.000094
0.000087
0.000088
0.000028
-0.000014
-0.000017
-0.000017
-0.000013
-0.000020
-0.000026
-0.000081
-0.000079
-0.000084
-0.000082
0.000010
0.000015
0.000023
-0.000029
0.000074
-0.000036
0.000079
0.000083
0.000082
-0.000015
-0.000012
0.000065
0.000068
-0.000061
-0.000058
-0.000062
-0.000042
0.000019
0.000062
-0.000065
0.000059
0.000063
-0.000032
0.000095
0.000094
0.000098
0.000042
0.000035
0.000031
0.000102
0.000103
0.000074
0.000075
0.000078
0.000076
0.000071
0.000070
0.000031
-0.000021
-0.000024
-0.000021
-0.000088
-0.000088
0.000077
0.000079
0.000087
0.000091
0.000078
0.000072
0.000066
0.000072
-0.000011
-0.000006
-0.000015
0.000076
-0.000008
0.000002
-0.000002
0.000100
0.000066
0.000069
0.000074
0.000078
0.000071
0.000070
0.000078
0.000074
0.000090
0.000062
0.000057
-0.000017
-0.000017
0.000049
-0.000090
-0.000085
-0.000089
0.000051
0.000057
0.000003
-0.000001
-0.000003
0.000061
0.000068
0.000062
0.000005
0.000000
0.000100
0.000102
0.000098
0.000085
0.000091
0.000088
-0.000054
-0.000016
-0.000017
-0.000022
-0.000012
-0.000009
0.000100
-0.000009
-0.000005
-0.000070
-0.000109
-0.000094
0.000087
0.000090
0.000016
-0.000006
-0.000024
-0.000018
-0.000022
-0.000100
-0.000017
0.000049
0.000049
0.000052
-0.000053
-0.000054
-0.000049
-0.000048
-0.000044
0.000052
0.000050
0.000084
-0.000038
-0.000039
0.000015
0.000013
0.000031
0.000039
0.000037
0.000010
0.000006
0.000007
0.000031
0.000088
-0.000083
-0.000094
0.000026
0.000023
0.000028
0.000026
0.000072
0.000071
0.000068
0.000075
-0.000066
-0.000064
-0.000063
-0.000065
-0.000069
-0.000070
0.000051
-0.000030
-0.000026
-0.000032
-0.000002
-0.000048
-0.000045
-0.000052
-0.000057
-0.000077
-0.000075
-0.000021
0.000046
0.000094
0.000094
-0.000034
-0.000036
-0.000037
0.000066
0.000067
-0.000059
0.000044
0.000040
0.000064
0.000064
0.000062
0.000059
0.000022
0.000034
-0.000059
-0.000055
-0.000032
-0.000030
-0.000033
0.000069
0.000072
0.000097
0.000071
-0.000012
0.000047
-0.000057
-0.000045
-0.000043
-0.000048
-0.000011
-0.000012
-0.000008
-0.000027
-0.000009
0.000048
0.000041
0.000044
0.000041
-0.000044
-0.000045
-0.000084
-0.000082
0.000025
0.000025
-0.000078
-0.000077
0.000067
-0.000078
0.000053
0.000054
0.000063
0.000042
0.000036
0.000027
0.000051
-0.000043
-0.000042
0.000018
0.000022
0.000019
0.000021
-0.000040
0.000064
0.000063
0.000025
0.000030
0.000025
0.000060
0.000026
0.000031
-0.000069
-0.000073
0.000018
0.000004
0.000066
0.000020
0.000006
-0.000017
-0.000014
-0.000013
0.000072
-0.000069
-0.000072
0.000038
0.000039
0.000035
0.000052
0.000057
-0.000043
0.000055
-0.000015
0.000094
0.000018
0.000023
-0.000021
-0.000027
-0.000032
0.000004
0.000003
0.000056
0.000015
0.000011
0.000056
0.000053
0.000011
0.000012
-0.000031
-0.000029
0.000018
0.000013
0.000014
0.000012
-0.000096
-0.000089
-0.000086
0.000015
-0.000051
-0.000053
-0.000003
-0.000004
-0.000008
0.000004
0.000066
0.000076
0.000003
0.000040
0.000029
0.000037
0.000035
0.000031
0.000045
-0.000054
-0.000008
0.000059
-0.000008
0.000044
-0.000010
0.000028
-0.000018
-0.000019
-0.000015
0.000008
0.000007
0.000017
0.000014
0.000013
0.000035
-0.000070
-0.000063
0.000043
0.000048
0.000067
0.000071
0.000009
0.000092
0.000033
-0.000055
-0.000071
-0.000001
0.000000
-0.000003
0.000064
0.000078
-0.000008
-0.000010
-0.000024
0.000008
0.000079
-0.000103
-0.000101
-0.000023
-0.000018
-0.000045
-0.000045
0.000038
0.000026
-0.000066
-0.000060
-0.000069
-0.000065
-0.000032
-0.000030
-0.000034
0.000058
-0.000023
-0.000006
-0.000049
-0.000029
-0.000003
0.000050
-0.000015
-0.000030
-0.000032
-0.000003
0.000058
-0.000077
-0.000074
-0.000063
-0.000027
-0.000007
-0.000001
-0.000006
0.000077
-0.000070
-0.000067
-0.000071
-0.000031
-0.000017
-0.000013
-0.000040
-0.000043
-0.000040
0.000008
0.000011
-0.000046
-0.000003
-0.000040
-0.000037
-0.000021
-0.000041
-0.000039
-0.000050
-0.000036
-0.000007
-0.000021
-0.000035
-0.000037
0.000069
-0.000033
-0.000034
0.000057
0.000011
-0.000030
-0.000055
-0.000049
-0.000037
-0.000036
-0.000002
-0.000006
0.000091
-0.000053
0.000072
0.000010
0.000012
0.000036
0.000011
0.000015
0.000069
-0.000004
-0.000073
-0.000076
0.000043
0.000046
0.000031
0.000035
0.000031
0.000052
-0.000088
-0.000087
-0.000080
-0.000075
-0.000063
-0.000026
-0.000054
0.000097
-0.000082
-0.000063
0.000095
0.000052
0.000047
0.000033
0.000037
0.000061
0.000033
0.000032
0.000000
0.000082
0.000016
0.000024
-0.000067
0.000080
0.000082
-0.000072
0.000026
-0.000057
-0.000052
0.000024
0.000021
0.000099
0.000101
0.000030
-0.000121
-0.000103
0.000088
0.000082
-0.000044
-0.000038
0.000079
0.000092
0.000098
-0.000104
-0.000099
-0.000096
-0.000099
0.000098
0.000050
0.000002
0.000079
0.000074
0.000018
0.000029
-0.000111
-0.000115
0.000036
-0.000063
-0.000058
-0.000038
0.000032
-0.000001
0.000004
-0.000038
0.000022
0.000036
0.000061
0.000057
0.000052
0.000018
0.000074
-0.000050
0.000080
0.000087
-0.000084
-0.000021
-0.000024
0.000035
-0.000090
0.000021
0.000020
0.000028
0.000030
0.000020
0.000028
0.000030
0.000042
0.000076
-0.000061
0.000004
0.000014
-0.000057
0.000030
0.000032
-0.000034
0.000056
-0.000053
0.000055
0.000053
0.000037
0.000012
0.000022
-0.000016
-0.000074
-0.000070
0.000029
-0.000015
0.000064
0.000003
-0.000045
0.000036
0.000039
0.000033
0.000032
-0.000007
0.000017
-0.000082
0.000023
-0.000023
0.000009
-0.000008
-0.000061
-0.000017
0.000051
-0.000023
-0.000051
-0.000039
0.000030
-0.000004
0.000032
0.000015
0.000012
0.000020
-0.000063
-0.000010
0.000005
SCALARS UY float 1
LOOKUP_TABLE default
-0.000000
-0.000000
-0.000500
-0.000500
-0.000211
-0.000344
-0.000000
-0.000000
-0.000000
-0.000000
-0.000000
-0.000000
-0.000000
-0.000000
-0.000000
-0.000000
-0.000000
-0.000000
-0.000049
-0.000082
-0.000110
-0.000134
-0.000156
-0.000176
-0.000194
-0.000211
-0.000226
-0.000240
-0.000253
-0.000264
-0.000274
-0.000284
-0.000293
-0.000301
-0.000309
-0.000316
-0.000323
-0.000332
-0.000359
-0.000368
-0.000378
-0.000389
-0.000402
-0.000419
-0.000440
-0.000467
-0.000500
-0.000500
-0.000500
-0.000500
-0.000500
-0.000500
-0.000500
-0.000500
-0.000500
-0.000500
-0.000500
-0.000500
-0.000465
-0.000433
-0.000405
-0.000380
-0.000358
-0.000339
-0.000322
-0.000307
-0.000293
-0.000281
-0.000270
-0.000261
-0.000252
-0.000244
-0.000237
-0.000230
-0.000222
-0.000197
-0.000188
-0.000180
-0.000172
-0.000162
-0.000151
-0.000137
-0.000121
-0.000102
-0.000079
-0.000048
-0.000209
-0.000210
-0.000212
-0.000212
-0.000214
-0.000214
-0.000213
-0.000216
-0.000217
-0.000217
-0.000217
-0.000218
-0.000219
-0.000220
-0.000221
-0.000221
-0.000223
-0.000223
-0.000224
-0.000224
-0.000226
-0.000226
-0.000228
-0.000227
-0.000230
-0.000230
-0.000231
-0.000233
-0.000234
-0.000234
-0.000236
-0.000238
-0.000238
-0.000239
-0.000240
-0.000241
-0.000243
-0.000243
-0.000246
-0.000246
-0.000248
-0.000248
-0.000251
-0.000251
-0.000252
-0.000254
-0.000255
-0.000257
-0.000257
-0.000258
-0.000260
-0.000262
-0.000262
-0.000264
-0.000265
-0.000267
-0.000268
-0.000271
-0.000272
-0.000273
-0.000275
-0.000277
-0.000277
-0.000279
-0.000281
-0.000282
-0.000283
-0.000286
-0.000286
-0.000289
-0.000291
-0.000293
-0.000294
-0.000296
-0.000297
-0.000299
-0.000300
-0.000303
-0.000304
-0.000304
-0.000307
-0.000309
-0.000310
-0.000312
-0.000314
-0.000315
-0.000317
-0.000319
-0.000321
-0.000322
-0.000324
-0.000325
-0.000326
-0.000329
-0.000331
-0.000332
-0.000334
-0.000335
-0.000337
-0.000338
-0.000340
-0.000341
-0.000343
-0.000345
-0.000468
-0.000474
-0.000392
-0.000385
-0.000379
-0.000241
-0.000242
-0.000250
-0.000252
-0.000244
-0.000244
-0.000415
-0.000439
-0.000425
-0.000449
-0.000299
-0.000298
-0.000308
-0.000248
-0.000266
-0.000272
-0.000263
-0.000273
-0.000477
-0.000449
-0.000451
-0.000327
-0.000312
-0.000315
-0.000313
-0.000355
-0.000362
-0.000370
-0.000347
-0.000292
-0.000285
-0.000293
-0.000253
-0.000258
-0.000250
-0.000260
-0.000270
-0.000264
-0.000264
-0.000260
-0.000470
-0.000446
-0.000445
-0.000272
-0.000265
-0.000264
-0.000367
-0.000359
-0.000355
-0.000348
-0.000313
-0.000317
-0.000322
-0.000307
-0.000317
-0.000315
-0.000322
-0.000310
-0.000321
-0.000316
-0.000312