# vtk DataFile Version 2.0
Test
ASCII
DATASET POLYDATA
POINTS 1818 float
0.000000 0.000000 0.000000
1.000000 0.000000 0.000000
1.000000 1.000000 0.000000
0.000000 1.000000 0.000000
0.300000 0.330000 0.000000
0.700000 0.680000 0.000000
0.058824 0.000000 0.000000
0.117647 0.000000 0.000000
0.176471 0.000000 0.000000
0.235294 0.000000 0.000000
0.294118 0.000000 0.000000
0.352941 0.000000 0.000000
0.411765 0.000000 0.000000
0.470588 0.000000 0.000000
0.529412 0.000000 0.000000
0.588235 0.000000 0.000000
0.647059 0.000000 0.000000
0.705882 0.000000 0.000000
0.764706 0.000000 0.000000
0.823529 0.000000 0.000000
0.882353 0.000000 0.000000
0.941176 0.000000 0.000000
1.000000 0.058824 0.000000
1.000000 0.117647 0.000000
1.000000 0.176471 0.000000
1.000000 0.235294 0.000000
1.000000 0.294118 0.000000
1.000000 0.352941 0.000000
1.000000 0.411765 0.000000
1.000000 0.470588 0.000000
1.000000 0.529412 0.000000
1.000000 0.588235 0.000000
1.000000 0.647059 0.000000
1.000000 0.705882 0.000000
1.000000 0.764706 0.000000
1.000000 0.823529 0.000000
1.000000 0.882353 0.000000
1.000000 0.941176 0.000000
0.941176 1.000000 0.000000
0.882353 1.000000 0.000000
0.823529 1.000000 0.000000
0.764706 1.000000 0.000000
0.705882 1.000000 0.000000
0.647059 1.000000 0.000000
0.588235 1.000000 0.000000
0.529412 1.000000 0.000000
0.470588 1.000000 0.000000
0.411765 1.000000 0.000000
0.352941 1.000000 0.000000
0.294118 1.000000 0.000000
0.235294 1.000000 0.000000
0.176471 1.000000 0.000000
0.117647 1.000000 0.000000
0.058824 1.000000 0.000000
0.000000 0.941176 0.000000
0.000000 0.882353 0.000000
0.000000 0.823529 0.000000
0.000000 0.764706 0.000000
0.000000 0.705882 0.000000
0.000000 0.647059 0.000000
0.000000 0.588235 0.000000
0.000000 0.529412 0.000000
0.000000 0.470588 0.000000
0.000000 0.411765 0.000000
0.000000 0.352941 0.000000
0.000000 0.294118 0.000000
0.000000 0.235294 0.000000
0.000000 0.176471 0.000000
0.000000 0.117647 0.000000
0.000000 0.058824 0.000000
0.305970 0.335224 0.000000
0.311940 0.340448 0.000000
0.317910 0.345672 0.000000
0.323881 0.350896 0.000000
0.329851 0.356119 0.000000
0.335821 0.361343 0.000000
0.341791 0.366567 0.000000
0.347761 0.371791 0.000000
0.353731 0.377015 0.000000
0.359701 0.382239 0.000000
0.365672 0.387463 0.000000
0.371642 0.392687 0.000000
0.377612 0.397910 0.000000
0.383582 0.403134 0.000000
0.389552 0.408358 0.000000
0.395522 0.413582 0.000000
0.401493 0.418806 0.000000
0.407463 0.424030 0.000000
0.413433 0.429254 0.000000
0.419403 0.434478 0.000000
0.425373 0.439701 0.000000
0.431343 0.444925 0.000000
0.437313 0.450149 0.000000
0.443284 0.455373 0.000000
0.449254 0.460597 0.000000
0.455224 0.465821 0.000000
0.461194 0.471045 0.000000
0.467164 0.476269 0.000000
0.473134 0.481493 0.000000
0.479104 0.486716 0.000000
0.485075 0.491940 0.000000
0.491045 0.497164 0.000000
0.497015 0.502388 0.000000
0.502985 0.507612 0.000000
0.508955 0.512836 0.000000
0.514925 0.518060 0.000000
0.520896 0.523284 0.000000
0.526866 0.528507 0.000000
0.532836 0.533731 0.000000
0.538806 0.538955 0.000000
0.544776 0.544179 0.000000
0.550746 0.549403 0.000000
0.556716 0.554627 0.000000
0.562687 0.559851 0.000000
0.568657 0.565075 0.000000
0.574627 0.570299 0.000000
0.580597 0.575522 0.000000
0.586567 0.580746 0.000000
0.592537 0.585970 0.000000
0.598507 0.591194 0.000000
0.604478 0.596418 0.000000
0.610448 0.601642 0.000000
0.616418 0.606866 0.000000
0.622388 0.612090 0.000000
0.628358 0.617313 0.000000
0.634328 0.622537 0.000000
0.640299 0.627761 0.000000
0.646269 0.632985 0.000000
0.652239 0.638209 0.000000
0.658209 0.643433 0.000000
0.664179 0.648657 0.000000
0.670149 0.653881 0.000000
0.676119 0.659104 0.000000
0.682090 0.664328 0.000000
0.688060 0.669552 0.000000
0.694030 0.674776 0.000000
0.516135 0.080917 0.000000
0.549338 0.042552 0.000000
0.567302 0.088709 0.000000
0.555658 0.563778 0.000000
0.559301 0.571359 0.000000
0.552318 0.570919 0.000000
0.603235 0.047100 0.000000
0.446553 0.448087 0.000000
0.438652 0.443189 0.000000
0.445116 0.440368 0.000000
0.437254 0.190586 0.000000
0.465954 0.201747 0.000000
0.439184 0.213838 0.000000
0.453137 0.228102 0.000000
0.522423 0.410182 0.000000
0.522098 0.390982 0.000000
0.537289 0.398500 0.000000
0.453388 0.527105 0.000000
0.462022 0.524948 0.000000
0.461218 0.533993 0.000000
0.324300 0.374550 0.000000
0.319287 0.386214 0.000000
0.314834 0.375138 0.000000
0.668809 0.628853 0.000000
0.677366 0.632907 0.000000
0.668274 0.639611 0.000000
0.469934 0.529282 0.000000
0.439703 0.436699 0.000000
0.446608 0.432083 0.000000
0.542854 0.633425 0.000000
0.535117 0.647070 0.000000
0.524302 0.633157 0.000000
0.519372 0.648877 0.000000
0.586338 0.611293 0.000000
0.591638 0.624149 0.000000
0.575478 0.621479 0.000000
0.437962 0.035513 0.000000
0.421505 0.085456 0.000000
0.394924 0.044162 0.000000
0.445207 0.955749 0.000000
0.429168 0.919510 0.000000
0.464409 0.914226 0.000000
0.317150 0.400904 0.000000
0.328626 0.395860 0.000000
0.439616 0.884412 0.000000
0.330406 0.381773 0.000000
0.676842 0.602700 0.000000
0.674982 0.614185 0.000000
0.665930 0.611798 0.000000
0.414707 0.535036 0.000000
0.420123 0.526072 0.000000
0.425338 0.533771 0.000000
0.398407 0.375558 0.000000
0.393804 0.363255 0.000000
0.407284 0.365452 0.000000
0.407758 0.523337 0.000000
0.899969 0.377867 0.000000
0.945915 0.378245 0.000000
0.914158 0.409130 0.000000
0.358219 0.436142 0.000000
0.361390 0.425428 0.000000
0.369309 0.432300 0.000000
0.465999 0.075074 0.000000
0.269944 0.367761 0.000000
0.266521 0.352125 0.000000
0.283474 0.357667 0.000000
0.385889 0.083020 0.000000
0.359482 0.060981 0.000000
0.279658 0.346766 0.000000
0.363604 0.104040 0.000000
0.511115 0.503731 0.000000
0.503243 0.499914 0.000000
0.509146 0.494910 0.000000
0.513188 0.475753 0.000000
0.504957 0.474656 0.000000
0.511959 0.464784 0.000000
0.311863 0.447505 0.000000
0.293019 0.442078 0.000000
0.305555 0.431691 0.000000
0.499204 0.464990 0.000000
0.293855 0.459576 0.000000
0.396676 0.236328 0.000000
0.371014 0.247362 0.000000
0.373003 0.229199 0.000000
0.384478 0.261522 0.000000
0.555704 0.523331 0.000000
0.551313 0.515879 0.000000
0.562752 0.515269 0.000000
0.554954 0.506854 0.000000
0.804236 0.611103 0.000000
0.819351 0.593503 0.000000
0.832061 0.615776 0.000000
0.509908 0.485173 0.000000
0.129738 0.481190 0.000000
0.110722 0.443736 0.000000
0.154857 0.452634 0.000000
0.089738 0.485299 0.000000
0.396427 0.153886 0.000000
0.393058 0.115469 0.000000
0.420333 0.126587 0.000000
0.442628 0.413512 0.000000
0.434815 0.404283 0.000000
0.446816 0.400259 0.000000
0.499770 0.482873 0.000000
0.353883 0.235057 0.000000
0.351360 0.254011 0.000000
0.332147 0.240870 0.000000
0.112307 0.405527 0.000000
0.140355 0.392788 0.000000
0.142004 0.423465 0.000000
0.334868 0.263052 0.000000
0.551239 0.594093 0.000000
0.560217 0.601969 0.000000
0.546711 0.604614 0.000000
0.398510 0.570197 0.000000
0.387124 0.557316 0.000000
0.399978 0.555748 0.000000
0.705281 0.743146 0.000000
0.722930 0.758853 0.000000
0.697202 0.758074 0.000000
0.380190 0.572638 0.000000
0.278345 0.431947 0.000000
0.292575 0.428097 0.000000
0.470820 0.540616 0.000000
0.478213 0.533042 0.000000
0.480161 0.543190 0.000000
0.415268 0.299334 0.000000
0.412465 0.313515 0.000000
0.400419 0.297680 0.000000
0.396495 0.317117 0.000000
0.718655 0.732879 0.000000
0.709319 0.677587 0.000000
0.715709 0.670111 0.000000
0.719283 0.682820 0.000000
0.212992 0.453899 0.000000
0.184619 0.470046 0.000000
0.186665 0.440862 0.000000
0.452307 0.386568 0.000000
0.460371 0.397715 0.000000
0.478664 0.456068 0.000000
0.476179 0.462123 0.000000
0.471250 0.456445 0.000000
0.464654 0.388544 0.000000
0.483415 0.461045 0.000000
0.357146 0.449596 0.000000
0.344653 0.443966 0.000000
0.554562 0.459423 0.000000
0.543333 0.457517 0.000000
0.553850 0.449505 0.000000
0.543131 0.445036 0.000000
0.347312 0.459318 0.000000
0.781088 0.538918 0.000000
0.810909 0.534152 0.000000
0.799399 0.553968 0.000000
0.402869 0.534333 0.000000
0.408011 0.546121 0.000000
0.703844 0.670118 0.000000
0.552234 0.794299 0.000000
0.528593 0.795589 0.000000
0.539188 0.770312 0.000000
0.596088 0.518714 0.000000
0.593029 0.508081 0.000000
0.604120 0.510731 0.000000
0.384880 0.468703 0.000000
0.382270 0.455963 0.000000
0.394062 0.458803 0.000000
0.374729 0.466839 0.000000
0.340939 0.294790 0.000000
0.324530 0.290188 0.000000
0.338473 0.279923 0.000000
0.465367 0.336545 0.000000
0.477337 0.352846 0.000000
0.459495 0.350024 0.000000
0.584947 0.516440 0.000000
0.326802 0.302636 0.000000
0.945343 0.420397 0.000000
0.779746 0.749037 0.000000
0.771533 0.774140 0.000000
0.758291 0.749848 0.000000
0.743435 0.765852 0.000000
0.751942 0.297541 0.000000
0.784264 0.292048 0.000000
0.772562 0.330207 0.000000
0.812744 0.305799 0.000000
0.655547 0.494535 0.000000
0.649767 0.472522 0.000000
0.671966 0.480244 0.000000
0.612062 0.502007 0.000000
0.616789 0.515227 0.000000
0.403059 0.898561 0.000000
0.391512 0.946883 0.000000
0.625780 0.504699 0.000000
0.635988 0.491275 0.000000
0.596252 0.650380 0.000000
0.583401 0.655132 0.000000
0.583737 0.644777 0.000000
0.713099 0.416502 0.000000
0.708474 0.388943 0.000000
0.733625 0.389568 0.000000
0.684835 0.406222 0.000000
0.656936 0.416423 0.000000
0.633624 0.425116 0.000000
0.634362 0.400237 0.000000
0.646884 0.740682 0.000000
0.654954 0.726002 0.000000
0.663305 0.741855 0.000000
0.732481 0.441235 0.000000
0.751303 0.460839 0.000000
0.721338 0.462235 0.000000
0.759622 0.437863 0.000000
0.462761 0.363156 0.000000
0.373644 0.622389 0.000000
0.346217 0.613642 0.000000
0.370315 0.594521 0.000000
0.351411 0.640635 0.000000
0.695337 0.690220 0.000000
0.705202 0.700133 0.000000
0.692303 0.700990 0.000000
0.521365 0.516400 0.000000
0.522992 0.510597 0.000000
0.527633 0.513574 0.000000
0.291567 0.329512 0.000000
0.294927 0.318154 0.000000
0.365771 0.366553 0.000000
0.366135 0.358691 0.000000
0.374180 0.368122 0.000000
0.408232 0.327056 0.000000
0.423479 0.328280 0.000000
0.411272 0.339740 0.000000
0.664110 0.670607 0.000000
0.667245 0.662649 0.000000
[...]
POINT_DATA 1818
SCALARS UX float 1
LOOKUP_TABLE default
-0.000000
0.000000
0.012446
-0.022843
-0.010980
0.007388
0.000000
-0.000000
-0.000000
-0.000000
-0.000000
-0.000000
-0.000000
-0.000000
-0.000000
-0.000000
0.000000
0.000000
0.000000
0.000000
0.000000
0.000000
0.006530
0.010147
0.012886
0.015244
0.017233
0.018972
0.020474
0.021617
0.022286
0.022298
0.021368
0.019823
0.017752
0.015694
0.013973
0.012971
0.009764
0.007311
0.005071
0.003037
0.001271
-0.000294
-0.001843
-0.003484
-0.005297
-0.007272
-0.009360
-0.011533
-0.013753
-0.015993
-0.018228
-0.020545
-0.022887
-0.023130
-0.023613
-0.024248
-0.025001
-0.025776
-0.026478
-0.026921
-0.026836
-0.026030
-0.024350
-0.021754
-0.018514
-0.014999
-0.011176
-0.007107
-0.010424
-0.010032
-0.009803
-0.009854
-0.009213
-0.008954
-0.008608
-0.008415
-0.008084
-0.007770
-0.007617
-0.007367
-0.007237
-0.007205
-0.006914
-0.006846
-0.006926
-0.006702
-0.006578
-0.006223
-0.005988
-0.005710
-0.005468
-0.005123
-0.004822
-0.004598
-0.004250
-0.003912
-0.003744
-0.003451
-0.003316
-0.003100
-0.002732
-0.002477
-0.001845
-0.001503
-0.001153
-0.000618
-0.000342
0.000259
0.000547
0.000930
0.001158
0.001367
0.001561
0.001759
0.001899
0.002184
0.002345
0.002529
0.002853
0.002956
0.003168
0.003472
0.003635
0.003906
0.004090
0.004238
0.004473
0.004721
0.005198
0.005361
0.005641
0.006030
0.006752
0.007162
-0.000280
-0.000084
0.000169
-0.006297
-0.006784
-0.007894
0.000194
0.001161
0.000034
0.002262
-0.001372
-0.000798
-0.001333
-0.000947
0.005462
0.004803
0.005407
-0.013285
-0.013047
-0.012925
-0.015621
-0.016595
-0.016191
0.011817
0.012277
0.010500
-0.012715
0.001796
0.003325
-0.007633
-0.007380
-0.008225
-0.007812
-0.006272
-0.005948
-0.006824
-0.000337
-0.000840
-0.000497
-0.006135
-0.006741
-0.005541
-0.017170
-0.016624
-0.006506
-0.015756
0.012957
0.012731
0.012483
-0.014039
-0.014126
-0.013829
0.000557
0.000089
0.000734
-0.014465
0.016342
0.017923
0.017646
-0.016488
-0.016235
-0.016087
-0.000547
-0.017830
-0.017274
-0.016933
-0.000964
-0.000765
-0.016345
-0.001360
0.004216
0.002612
0.005411
0.006974
0.006582
0.006797
-0.017599
-0.018080
-0.017760
0.006268
-0.018000
-0.002372
-0.003131
-0.002960
-0.002685
0.008729
0.008592
0.009185
0.008807
0.016550
0.017057
0.017191
0.006685
-0.023025
-0.023424
-0.022177
-0.024278
-0.001740
-0.001326
-0.001222
0.003270
0.002746
0.003142
0.005768
-0.003525
-0.003806
-0.004224
-0.022733
-0.021641
-0.022252
-0.004496
-0.008487
-0.007937
-0.008459
-0.013533
-0.014136
-0.013864
0.003431
0.004064
0.002716
-0.013944
-0.018481
-0.018079
-0.012520
-0.012369
-0.012185
-0.001015
-0.000727
-0.001572
-0.001200
0.004683
0.010210
0.011943
0.010547
-0.020428
-0.021292
-0.021180
0.002900
0.003494
0.005136
0.004619
0.004521
0.003310
0.005375
-0.016547
-0.016849
0.007771
0.007464
0.007453
0.007076
-0.016724
0.015577
0.016490
0.016337
-0.014320
-0.013919
0.010723
-0.003057
-0.003919
-0.003824
0.010212
0.009914
0.010226
-0.015808
-0.015912
-0.015554
-0.016063
-0.004370
-0.005350
-0.004529
0.001574
0.002420
0.001855
0.009884
-0.005249
0.018948
0.008390
0.006546
0.006831
0.005101
0.008663
0.009591
0.010353
0.011028
0.011001
0.010303
0.011077
0.010192
0.010606
-0.007742
-0.008001
0.010557
0.010450
-0.005024
-0.005379
-0.005746
0.010705
0.009814
0.010674
0.009524
0.008969
0.008571
0.007871
0.000393
0.000694
0.001223
0.011983
0.013091
0.012120
0.012839
0.002387
-0.012950
-0.014010
-0.013704
-0.013263
0.004799
0.005485
0.003803
0.003103
0.005144
0.005639
-0.012797
-0.009773
-0.002011
-0.001538
-0.000923
-0.000469
0.000081
0.000048
0.000498
0.001869
0.002216
-0.015902
-0.015859
-0.016264
-0.016186
-0.000999
-0.001857
-0.003009
0.004112
0.002070
0.002744
0.002814
-0.004657
-0.005372
-0.004275
0.000441
-0.001126
-0.001522
-0.010498
-0.010562
-0.011095
-0.001596
-0.003718
-0.003556
-0.000278
0.003517
0.004511
0.003002
0.003841
-0.003581
-0.001028
-0.011483
-0.010344
-0.009917
-0.011622
-0.019094
-0.018475
-0.018826
-0.016688
-0.017231
-0.016796
-0.001607
-0.001438
-0.007150
0.009642
0.009602
-0.016558
-0.016570
-0.016093
-0.008568
-0.017415
-0.016140
-0.015519
-0.014772
-0.015626
-0.010996
-0.011180
-0.011338
-0.010684
-0.012655
-0.011900
0.012996
0.012767
0.012416
0.013573
-0.017547
-0.017314
-0.017205
-0.010251
-0.011938
-0.009599
-0.007832
-0.006941
-0.005709
-0.003735
-0.009000
-0.010396
-0.011854
0.012580
0.010675
-0.013123
-0.012369
-0.012018
-0.003132
-0.004924
-0.005015
-0.011929
-0.012747
-0.012556
-0.004920
-0.004253
-0.004222
-0.012227
-0.013226
-0.001878
-0.002243
-0.003495
-0.003751
-0.002985
-0.004404
0.007025
0.007017
0.006285
-0.024882
-0.025587
-0.024232
-0.020543
-0.019192
-0.019872
-0.019695
-0.000768
-0.001885
-0.004099
-0.004440
-0.010102
-0.010634
-0.010228
-0.010914
-0.009433
-0.009825
-0.009254
-0.015022
-0.015359
-0.014973
-0.014932
-0.014804
-0.015094
-0.014862
-0.012688
0.001389
-0.000310
-0.000370
0.004265
0.003402
0.003634
0.004004
0.013527
0.012100
0.012591
0.014454
0.014954
-0.012556
-0.013321
-0.014640
0.008872
0.009093
0.006511
-0.013681
-0.013310
-0.013732
-0.003797
-0.002276
-0.012858
-0.002934
-0.004284
-0.004596
0.003825
0.004399
0.003989
0.008744
0.008941
0.009118
-0.003741
-0.003974
-0.004091
0.009312
-0.016532
-0.015160
-0.017936
-0.016597
-0.018091
0.002616
0.003315
0.007424
0.007882
0.007551
0.007831
0.006734
-0.024574
-0.000938
-0.000108
-0.000973
-0.000164
-0.016408
-0.017392
-0.015158
0.009696
0.010353
0.011126
-0.003299
0.006065
0.005650
0.008200
0.008184
0.000259
0.001304
0.001214
-0.017029
-0.016740
-0.016661
-0.004642
-0.005340
-0.023249
0.008001
0.008492
0.008329
0.002505
0.002232
-0.005724
-0.005501
-0.004685
0.002464
0.008867
-0.017349
-0.017621
-0.017852
-0.015015
-0.014127
-0.014163
0.004941
0.007458
0.005916
0.007036
0.002993
0.009660
0.009235
-0.011794
-0.009079
-0.009874
-0.000448
-0.000011
-0.017412
-0.017068
-0.016608
-0.000564
0.000140
-0.000089
-0.000395
-0.017303
-0.017964
-0.017883
-0.008957
-0.010816
-0.007826
-0.005119
-0.005388
-0.006323
-0.014603
-0.012280
0.008243
-0.016829
-0.018208
0.007849
0.008179
0.008707
-0.013601
0.007759
0.007023
-0.010345
-0.009932
0.012931
0.013686
0.013563
-0.010890
0.006898
0.007218
0.010509
-0.013500
-0.013652
-0.013090
-0.010159
-0.009564
-0.005641
-0.014072
0.003682
0.004255
-0.014119
-0.006009
-0.006824
-0.006069
-0.006617
0.016555
0.015317
0.015367
0.009463
0.007630
0.006701
-0.006752
-0.006224
-0.005513
-0.002891
-0.002220
0.006038
0.002816
0.003421
0.004597
0.000012
-0.017136
-0.017005
-0.000016
0.000147
-0.015694
0.011331
0.012794
0.010844
0.020051
0.012887
0.003058
0.003527
0.003926
-0.017366
0.005007
0.000600
0.000714
0.001177
-0.007991
-0.011089
-0.006787
-0.006231
0.010113
-0.014980
-0.013570
-0.016811
-0.017093
-0.017013
-0.012582
-0.012133
-0.012167
-0.014579
0.013948
0.013483
0.014198
-0.011698
-0.000913
0.016258
0.011028
0.011030
0.005991
0.008215
0.005747
0.008563
0.007502
0.009188
0.000540
-0.013601
-0.002532
-0.014709
-0.015385
-0.015786
-0.017014
0.000806
0.001290
-0.006562
-0.007987
0.007327
0.000839
-0.022696
-0.000009
-0.014960
-0.014511
-0.013529
-0.000393
0.013638
0.013310
0.012945
0.012894
0.001183
0.000346
-0.003943
-0.003859
-0.003086
0.012262
0.012443
0.011998
0.012022
0.011674
0.012430
-0.013551
-0.013787
0.015027
-0.021562
-0.018995
-0.020128
0.014721
0.014266
0.013926
-0.003526
-0.004249
-0.002969
0.014877
0.016544
0.009893
0.007381
0.008554
0.005797
-0.004858
0.005066
0.004890
0.004230
0.013328
0.014687
0.014114
-0.015370
-0.016632
-0.017494
0.015524
-0.011640
-0.010652
-0.013161
-0.012985
-0.013410
-0.016225
0.002397
0.001634
0.004153
0.018486
0.019252
0.020250
0.017374
0.015174
0.018102
0.017285
-0.001947
-0.001856
-0.021721
-0.019244
-0.019641
-0.002546
0.004404
-0.000014
-0.021415
-0.021604
-0.022945
-0.018443
-0.018529
-0.024447
0.003618
0.000468
-0.010224
-0.001281
-0.010223
-0.008963
-0.008811
0.020430
0.021296
0.001210
0.001045
0.002466
0.006831
0.005294
0.007514
0.004484
0.002431
0.006362
-0.001156
-0.001825
-0.012196
-0.014451
-0.014820
-0.012931
-0.017572
-0.018062
-0.018154
-0.025653
-0.025396
-0.001319
-0.002005
-0.001083
-0.002036
-0.002326
-0.000735
0.000140
-0.000232
-0.023968
-0.000594
-0.000981
-0.005331
-0.006457
-0.006493
0.020508
0.019199
-0.018827
0.015518
0.015080
0.014936
0.015633
-0.022209
-0.022041
-0.021200
0.016239
-0.000536
0.018054
0.002865
-0.000205
-0.001059
-0.001594
-0.007111
0.000547
-0.000737
-0.001538
-0.000886
-0.000681
0.010285
0.008641
-0.003377
-0.007598
-0.007534
0.000350
-0.007220
0.006304
0.007479
0.006205
0.008033
-0.017464
-0.017386
-0.008931
-0.004461
-0.001205
-0.002246
0.002561
0.002122
0.001441
-0.001916
-0.004046
-0.020186
-0.018830
-0.019513
-0.019377
-0.006176
-0.021122
-0.020577
-0.022049
-0.020064
-0.020395
-0.008927
-0.008302
-0.009230
-0.008066
-0.008882
-0.005928
-0.004892
-0.002679
-0.001614
-0.021957
-0.024006
-0.021392
0.005476
0.004999
0.005113
-0.009828
-0.010381
0.001042
0.000511
-0.019568
-0.020392
-0.019595
-0.015644
-0.015502
-0.015049
-0.009111
-0.010145
-0.018354
0.005732
0.002568
0.001688
-0.015074
-0.013578
-0.012590
-0.013968
-0.015610
-0.021532
0.008957
0.007561
-0.015729
-0.015720
-0.016559
-0.016530
0.001923
0.001263
-0.015591
0.013600
-0.000844
0.000928
0.001302
0.001745
0.000738
-0.006882
0.001000
-0.012442
-0.009974
-0.009227
-0.010084
-0.009990
-0.015949
-0.016206
-0.016865
0.001852
0.001631
-0.017250
0.007636
0.011553
0.011574
-0.024936
-0.023438
-0.023622
-0.004740
-0.005390
-0.005692
-0.017336
0.018803
0.019758
0.018482
0.017651
0.017512
-0.019561
-0.018863
-0.014505
-0.015178
-0.014764
0.003631
0.009783
0.007827
0.012310
-0.017570
-0.017927
-0.011813
-0.012336
-0.010992
-0.017128
-0.019778
-0.011984
0.004180
0.004424
0.004333
-0.012837
-0.012351
-0.013309
0.013931
0.014025
0.014436
-0.013653
0.017128
0.016634
-0.021336
-0.005278
0.004133
-0.021042
-0.022796
-0.003402
-0.004235
0.010985
0.010789
0.010577
-0.002565
-0.002324
0.011341
-0.002531
0.011715
-0.018796
-0.019928
0.014095
0.014538
0.012037
0.003589
-0.001780
0.015561
0.013757
0.017434
0.013152
-0.001488
-0.002080
-0.001264
-0.001816
0.005553
-0.001788
-0.002545
0.006014
-0.014236
-0.011865
-0.013399
-0.009553
-0.009404
0.003605
0.004517
-0.008348
-0.008651
-0.009089
0.006073
0.005668
0.006007
-0.011483
-0.011275
-0.010868
-0.016010
0.014885
0.015258
0.015390
-0.018406
-0.018852
-0.019406
-0.001880
-0.002380
-0.002489
-0.019419
-0.006213
-0.003019
-0.005468
-0.001746
-0.020791
-0.020511
0.018056
0.005610
0.011861
0.010672
-0.010488
-0.011025
0.001326
0.000700
-0.001851
-0.021342
0.001206
-0.015200
-0.019992
-0.019324
-0.015036
-0.014959
-0.015289
0.012493
0.012419
0.012633
0.012855
0.003272
0.004111
0.003176
0.004678
-0.018023
-0.008639
-0.009242
-0.018456
-0.010147
0.004723
0.004520
0.002533
0.014035
0.012176
0.010445
0.001910
0.002765
-0.001102
-0.018198
-0.017848
-0.017629
-0.019946
-0.006503
-0.002804
-0.006118
-0.000758
-0.006319
0.003693
0.003023
-0.000882
-0.001521
-0.001191
-0.000753
0.013255
0.003379
0.002455
0.001928
0.002399
0.004283
-0.003979
-0.003119
0.016558
-0.011159
-0.011930
-0.011664
-0.011237
-0.013129
0.015606
0.013694
0.014210
0.013193
0.012872
0.012656
-0.019033
0.001482
0.000680
0.001470
0.001274
0.002924
0.003063
0.003371
0.018964
0.019993
0.014426
-0.014580
-0.014660
-0.002181
-0.002967
0.011359
0.012957
0.011780
0.011751
-0.015234
-0.014921
-0.007301
-0.007617
-0.002895
-0.016908
-0.016619
0.001782
-0.017032
0.007561
0.007755
0.007601
0.001694
0.002203
0.013417
0.012630
-0.010530
-0.011239
-0.010148
-0.010861
-0.010014
-0.010322
0.005216
0.005012
-0.020588
0.004628
0.006991
0.007833
0.016605
0.015886
0.006007
0.002273
0.002337
0.001350
-0.001225
-0.005007
-0.005916
-0.006810
-0.007350
-0.014432
-0.014763
0.014514
0.006155
0.004847
0.005307
0.003851
-0.002589
-0.003211
-0.003452
0.011325
0.011352
0.009951
-0.015959
-0.015932
-0.014645
-0.000215
-0.004633
-0.003883
-0.003526
0.002000
-0.005350
-0.004842
-0.003795
-0.004632
0.002379
-0.002522
0.014173
0.014778
0.014928
0.013040
0.014353
0.015044
-0.016248
-0.002414
-0.006628
-0.007696
-0.007502
-0.006409
-0.007459
-0.008964
0.002110
0.012093
0.004124
0.000057
0.000364
0.013340
0.013438
0.008469
0.009490
0.009267
-0.013515
-0.014772
0.001266
0.002283
-0.016543
0.013672
0.013560
0.012536
0.012247
-0.016481
-0.018491
-0.017908
0.011752
0.011727
0.006775
0.005955
0.006049
0.006184
0.011324
0.015416
0.000736
0.011059
0.008430
0.009303
-0.002039
-0.008027
-0.005670
0.015813
0.002592
-0.007395
0.011587
0.012060
-0.002440
-0.003477
-0.005899
-0.006861
-0.006193
-0.008865
0.010559
0.010151
-0.003526
-0.005636
-0.005114
-0.009280
-0.009392
-0.023038
0.010019
0.009837
0.009828
0.009581
0.009665
-0.014705
0.010066
-0.015550
-0.001709
-0.011399
-0.016268
-0.007774
-0.005946
-0.005866
-0.013753
0.002156
-0.016012
-0.020521
0.000157
0.000744
-0.000548
-0.015877
-0.014559
-0.011921
0.011571
0.002061
0.001706
-0.012127
-0.004758
0.010287
0.011688
-0.011801
-0.012139
-0.012624
0.006891
-0.012528
0.012925
0.012521
0.001020
-0.008131
-0.008751
-0.008821
-0.009906
-0.009388
-0.003444
0.001284
0.016664
0.017658
0.007496
-0.004479
0.007620
-0.002241
-0.002487
0.009389
-0.001764
-0.006489
0.015994
-0.001129
-0.015587
-0.015645
0.011760
0.005446
0.005833
0.017978
0.006020
0.003373
0.000737
-0.019078
-0.018604
-0.001511
-0.002330
-0.015206
-0.015708
-0.015320
0.018421
-0.015826
-0.008030
-0.010767
0.012296
-0.005217
-0.005248
-0.005319
-0.011471
0.000922
0.000170
0.007310
-0.008261
-0.009255
0.009784
0.010237
0.010621
0.010806
0.010278
0.005724
-0.020606
-0.008974
-0.011087
-0.011138
-0.003965
-0.000866
-0.001029
0.006111
0.006582
-0.004350
-0.006329
0.004361
0.006780
0.009356
0.001205
0.001474
0.001733
0.001969
-0.009350
-0.013508
-0.012317
0.011493
0.011508
0.011888
-0.009799
-0.009715
0.001086
-0.014260
-0.014458
0.000911
0.001312
0.012326
0.000605
-0.016347
-0.017570
-0.016026
-0.010806
0.001980
-0.011885
-0.000620
-0.001051
-0.019060
-0.019610
0.002321
-0.000379
0.003359
-0.009830
0.004216
-0.000250
0.003767
-0.014701
-0.014495
0.005255
-0.011547
-0.016606
-0.016986
-0.017981
-0.015045
-0.010144
-0.009916
-0.009102
0.009321
0.009704
0.009643
-0.011730
-0.010823
-0.000193
-0.000512
-0.012790
-0.012413
-0.013176
-0.002293
-0.001744
-0.011294
-0.012183
0.012188
0.012095
-0.000308
-0.014423
-0.014297
-0.016279
-0.015730
-0.015649
0.001144
0.001594
0.009237
0.006577
-0.008053
-0.007436
-0.010073
0.002620
0.003442
0.002900
0.003779
-0.013898
0.000992
0.001009
-0.005411
-0.008996
0.003108
0.002557
-0.010845
-0.009860
-0.001506
0.006459
0.006456
0.011002
-0.015667
0.011045
-0.000170
0.013986
0.014109
-0.015542
-0.015585
-0.000883
-0.000372
-0.003222
-0.003523
0.010029
0.012210
0.003669
-0.006898
0.011629
-0.017177
0.009380
0.007413
0.007539
-0.017344
0.012596
0.005572
0.003667
0.008437
0.008112
0.003475
0.005865
-0.018955
-0.017964
-0.017038
-0.018581
0.014145
0.008209
0.008925
0.008378
0.000543
-0.019440
0.015186
-0.016278
-0.014486
-0.014024
-0.000481
0.001734
0.000268
0.009488
0.004977
-0.007940
-0.007167
-0.018820
-0.002405
0.009322
0.010978
-0.021062
-0.020670
-0.007402
0.002538
0.006059
0.002777
0.008665
0.011230
0.007679
0.005134
-0.015135
0.007242
-0.016228
-0.004232
0.008391
0.010566
0.009751
0.007835
0.013884
0.011236
-0.014590
-0.012029
-0.011540
0.014501
0.014303
0.000569
0.012418
-0.008456
-0.009097
-0.009004
0.005138
0.005608
0.005136
0.005224
-0.007820
-0.001905
0.013289
0.006394
-0.013855
-0.006862
-0.019684
-0.007487
0.010128
0.012732
0.012334
-0.009810
-0.010554
-0.018702
0.012903
0.012264
-0.008543
-0.003708
0.000361
-0.000335
-0.015731
0.000045
0.000562
-0.007438
0.013473
0.015754
0.007109
0.005855
0.004866
-0.016269
-0.005611
-0.000485
0.000132
-0.015313
0.016693
-0.015873
0.004625
0.004727
-0.018823
0.009741
0.008885
0.007085
-0.004408
0.007439
0.006465
-0.008306
0.011159
-0.007784
0.002102
0.001506
0.001168
-0.011902
0.003979
-0.007018
0.003243
-0.002936
-0.002727
-0.007963
0.016311
0.009497
-0.014241
-0.014359
-0.005130
0.008079
-0.021575
-0.023002
-0.023116
-0.010266
-0.014690
0.010008
-0.009981
0.007687
0.010387
0.010464
0.000243
-0.008964
-0.010084
-0.013607
0.013455
0.012799
0.007315
0.007082
-0.006125
-0.008400
-0.015362
-0.015496
0.007874
-0.015509
-0.006326
-0.006864
-0.013287
-0.015104
0.007242
0.005161
0.009179
0.007979
-0.008931
0.011792
0.009635
-0.006613
-0.012230
-0.012828
0.008571
0.007261
-0.011754
0.009209
0.005940
-0.015585
0.012167
-0.007223
-0.017863
0.010941
0.009775
-0.004264
-0.003867
-0.011862
-0.015532
0.011075
0.011134
0.011390
-0.002079
0.006518
0.002264
-0.013708
-0.017920
0.007707
0.006428
-0.013822
-0.014461
0.009758
0.011664
0.002690
0.004336
0.002242
0.011349
0.016249
-0.003248
-0.002875
-0.007456
-0.015334
0.008089
-0.011859
-0.002613
-0.002796
0.001411
0.006228
-0.012627
0.010537
-0.013779
-0.007501
0.011791
-0.012905
-0.010000
-0.012531
-0.013063
-0.003592
-0.002156
-0.012521
0.011007
-0.014027
-0.000164
-0.000738
-0.003984
0.001188
-0.004438
-0.003936
0.006661
-0.013160
-0.013629
-0.003204
0.000085
-0.000902
-0.009140
-0.009116
-0.006550
-0.010456
-0.007387
-0.002055
-0.009233
-0.005943
-0.004397
0.001913
-0.011347
0.012320
0.010034
-0.002059
-0.015067
-0.014843
-0.003123
0.004190
0.004637
-0.007263
0.001691
-0.013446
-0.014866
0.001215
0.007638
0.008572
0.009876
0.012033
-0.013069
0.007147
-0.011950
-0.010889
-0.012299
0.007589
-0.006563
0.007907
-0.013537
0.005893
0.004808
0.004424
-0.016829
0.002475
-0.007545
-0.009302
0.000688
-0.006226
-0.013504
0.002588
0.008968
-0.005671
-0.010332
0.000013
SCALARS UY float 1
LOOKUP_TABLE default
-0.000000
-0.000000
-0.080000
-0.080000
-0.021474
-0.056411
-0.000000
-0.000000
-0.000000
-0.000000
-0.000000
-0.000000
-0.000000
-0.000000
-0.000000
-0.000000
-0.000000
-0.000000
-0.000000
-0.000000
-0.000000
-0.000000
-0.007200
-0.012472
-0.017201
-0.021656
-0.025953
-0.030125
-0.034125
-0.037867
-0.041486
-0.044898
-0.048507
-0.052445
-0.057014
-0.062258
-0.067953
-0.073930
-0.080000
-0.080000
-0.080000
-0.080000
-0.080000
-0.080000
-0.080000
-0.080000
-0.080000
-0.080000
-0.080000
-0.080000
-0.080000
-0.080000
-0.080000
-0.080000
-0.074894
-0.069823
-0.064846
-0.059958
-0.055275
-0.050829
-0.046674
-0.042867
-0.039293
-0.035963
-0.032562
-0.028789
-0.024529
-0.019542
-0.014089
-0.007987
-0.022183
-0.022762
-0.023364
-0.023679
-0.024473
-0.024914
-0.025482
-0.025904
-0.026301
-0.026720
-0.027045
-0.027724
-0.028240
-0.028762
-0.029525
-0.030059
-0.030532
-0.031138
-0.031592
-0.032173
-0.032606
-0.033006
-0.033330
-0.033895
-0.034435
-0.034474
-0.035140
-0.035749
-0.036045
-0.036652
-0.037123
-0.037655
-0.038305
-0.038351
-0.038887
-0.039116
-0.039375
-0.039944
-0.040043
-0.040639
-0.040916
-0.041435
-0.041744
-0.042443
-0.043014
-0.043551
-0.044048
-0.044712
-0.045239
-0.045791
-0.046543
-0.046972
-0.047353
-0.048100
-0.048671
-0.049317
-0.049937
-0.050551
-0.051092
-0.051700
-0.052335
-0.053029
-0.053541
-0.054116
-0.055068
-0.056103
-0.003784
-0.002002
-0.004432
-0.049107
-0.050485
-0.051027
-0.002358
-0.028010
-0.028135
-0.026252
-0.008940
-0.009840
-0.010254
-0.011232
-0.023692
-0.022489
-0.023307
-0.047534
-0.047538
-0.048193
-0.031182
-0.032505
-0.031071
-0.044938
-0.045481
-0.046912
-0.047989
-0.026051
-0.024576
-0.056390
-0.057132
-0.056031
-0.056949
-0.055051
-0.056179
-0.056004
-0.001521
-0.003706
-0.001876
-0.077002
-0.074446
-0.074297
-0.033906
-0.033770
-0.072078
-0.032184
-0.042490
-0.043457
-0.042899
-0.047089
-0.046636
-0.047296
-0.020057
-0.019139
-0.019281
-0.046109
-0.029645
-0.030591
-0.032262
-0.038259
-0.037399
-0.038189
-0.003344
-0.028881
-0.027072
-0.027918
-0.003582
-0.002634
-0.026382
-0.004550
-0.032654
-0.033484
-0.030760
-0.027970
-0.027848
-0.027065
-0.037624
-0.036596
-0.036139
-0.026959
-0.038050
-0.011116
-0.011591
-0.010618
-0.012482
-0.032480
-0.031697
-0.031722
-0.030891
-0.046925
-0.045591
-0.047371
-0.028904
-0.038839
-0.036241
-0.036433
-0.039498
-0.006842
-0.005037
-0.005617
-0.022791
-0.022076
-0.021815
-0.029108
-0.010950
-0.011957
-0.011469
-0.033441
-0.032062
-0.034340
-0.012603
-0.053720
-0.054391
-0.054507
-0.049023