# vtk DataFile Version 2.0
Test
ASCII
DATASET POLYDATA
POINTS 1818 float
0.000000 0.000000 0.000000
1.000000 0.000000 0.000000
1.000000 1.000000 0.000000
0.000000 1.000000 0.000000
0.300000 0.330000 0.000000
0.700000 0.680000 0.000000
0.058824 0.000000 0.000000
0.117647 0.000000 0.000000
0.176471 0.000000 0.000000
0.235294 0.000000 0.000000
0.294118 0.000000 0.000000
0.352941 0.000000 0.000000
0.411765 0.000000 0.000000
0.470588 0.000000 0.000000
0.529412 0.000000 0.000000
0.588235 0.000000 0.000000
0.647059 0.000000 0.000000
0.705882 0.000000 0.000000
0.764706 0.000000 0.000000
0.823529 0.000000 0.000000
0.882353 0.000000 0.000000
0.941176 0.000000 0.000000
1.000000 0.058824 0.000000
1.000000 0.117647 0.000000
1.000000 0.176471 0.000000
1.000000 0.235294 0.000000
1.000000 0.294118 0.000000
1.000000 0.352941 0.000000
1.000000 0.411765 0.000000
1.000000 0.470588 0.000000
1.000000 0.529412 0.000000
1.000000 0.588235 0.000000
1.000000 0.647059 0.000000
1.000000 0.705882 0.000000
1.000000 0.764706 0.000000
1.000000 0.823529 0.000000
1.000000 0.882353 0.000000
1.000000 0.941176 0.000000
0.941176 1.000000 0.000000
0.882353 1.000000 0.000000
0.823529 1.000000 0.000000
0.764706 1.000000 0.000000
0.705882 1.000000 0.000000
0.647059 1.000000 0.000000
0.588235 1.000000 0.000000
0.529412 1.000000 0.000000
0.470588 1.000000 0.000000
0.411765 1.000000 0.000000
0.352941 1.000000 0.000000
0.294118 1.000000 0.000000
0.235294 1.000000 0.000000
0.176471 1.000000 0.000000
0.117647 1.000000 0.000000
0.058824 1.000000 0.000000
0.000000 0.941176 0.000000
0.000000 0.882353 0.000000
0.000000 0.823529 0.000000
0.000000 0.764706 0.000000
0.000000 0.705882 0.000000
0.000000 0.647059 0.000000
0.000000 0.588235 0.000000
0.000000 0.529412 0.000000
0.000000 0.470588 0.000000
0.000000 0.411765 0.000000
0.000000 0.352941 0.000000
0.000000 0.294118 0.000000
0.000000 0.235294 0.000000
0.000000 0.176471 0.000000
0.000000 0.117647 0.000000
0.000000 0.058824 0.000000
0.305970 0.335224 0.000000
0.311940 0.340448 0.000000
0.317910 0.345672 0.000000
0.323881 0.350896 0.000000
0.329851 0.356119 0.000000
0.335821 0.361343 0.000000
0.341791 0.366567 0.000000
0.347761 0.371791 0.000000
0.353731 0.377015 0.000000
0.359701 0.382239 0.000000
0.365672 0.387463 0.000000
0.371642 0.392687 0.000000
0.377612 0.397910 0.000000
0.383582 0.403134 0.000000
0.389552 0.408358 0.000000
0.395522 0.413582 0.000000
0.401493 0.418806 0.000000
0.407463 0.424030 0.000000
0.413433 0.429254 0.000000
0.419403 0.434478 0.000000
0.425373 0.439701 0.000000
0.431343 0.444925 0.000000
0.437313 0.450149 0.000000
0.443284 0.455373 0.000000
0.449254 0.460597 0.000000
0.455224 0.465821 0.000000
0.461194 0.471045 0.000000
0.467164 0.476269 0.000000
0.473134 0.481493 0.000000
0.479104 0.486716 0.000000
0.485075 0.491940 0.000000
0.491045 0.497164 0.000000
0.497015 0.502388 0.000000
0.502985 0.507612 0.000000
0.508955 0.512836 0.000000
0.514925 0.518060 0.000000
0.520896 0.523284 0.000000
0.526866 0.528507 0.000000
0.532836 0.533731 0.000000
0.538806 0.538955 0.000000
0.544776 0.544179 0.000000
0.550746 0.549403 0.000000
0.556716 0.554627 0.000000
0.562687 0.559851 0.000000
0.568657 0.565075 0.000000
0.574627 0.570299 0.000000
0.580597 0.575522 0.000000
0.586567 0.580746 0.000000
0.592537 0.585970 0.000000
0.598507 0.591194 0.000000
0.604478 0.596418 0.000000
0.610448 0.601642 0.000000
0.616418 0.606866 0.000000
0.622388 0.612090 0.000000
0.628358 0.617313 0.000000
0.634328 0.622537 0.000000
0.640299 0.627761 0.000000
0.646269 0.632985 0.000000
0.652239 0.638209 0.000000
0.658209 0.643433 0.000000
0.664179 0.648657 0.000000
0.670149 0.653881 0.000000
0.676119 0.659104 0.000000
0.682090 0.664328 0.000000
0.688060 0.669552 0.000000
0.694030 0.674776 0.000000
0.516135 0.080917 0.000000
0.549338 0.042552 0.000000
0.567302 0.088709 0.000000
0.555658 0.563778 0.000000
0.559301 0.571359 0.000000
0.552318 0.570919 0.000000
0.603235 0.047100 0.000000
0.446553 0.448087 0.000000
0.438652 0.443189 0.000000
0.445116 0.440368 0.000000
0.437254 0.190586 0.000000
0.465954 0.201747 0.000000
0.439184 0.213838 0.000000
0.453137 0.228102 0.000000
0.522423 0.410182 0.000000
0.522098 0.390982 0.000000
0.537289 0.398500 0.000000
0.453388 0.527105 0.000000
0.462022 0.524948 0.000000
0.461218 0.533993 0.000000
0.324300 0.374550 0.000000
0.319287 0.386214 0.000000
0.314834 0.375138 0.000000
0.668809 0.628853 0.000000
0.677366 0.632907 0.000000
0.668274 0.639611 0.000000
0.469934 0.529282 0.000000
0.439703 0.436699 0.000000
0.446608 0.432083 0.000000
0.542854 0.633425 0.000000
0.535117 0.647070 0.000000
0.524302 0.633157 0.000000
0.519372 0.648877 0.000000
0.586338 0.611293 0.000000
0.591638 0.624149 0.000000
0.575478 0.621479 0.000000
0.437962 0.035513 0.000000
0.421505 0.085456 0.000000
0.394924 0.044162 0.000000
0.445207 0.955749 0.000000
0.429168 0.919510 0.000000
0.464409 0.914226 0.000000
0.317150 0.400904 0.000000
0.328626 0.395860 0.000000
0.439616 0.884412 0.000000
0.330406 0.381773 0.000000
0.676842 0.602700 0.000000
0.674982 0.614185 0.000000
0.665930 0.611798 0.000000
0.414707 0.535036 0.000000
0.420123 0.526072 0.000000
0.425338 0.533771 0.000000
0.398407 0.375558 0.000000
0.393804 0.363255 0.000000
0.407284 0.365452 0.000000
0.407758 0.523337 0.000000
0.899969 0.377867 0.000000
0.945915 0.378245 0.000000
0.914158 0.409130 0.000000
0.358219 0.436142 0.000000
0.361390 0.425428 0.000000
0.369309 0.432300 0.000000
0.465999 0.075074 0.000000
0.269944 0.367761 0.000000
0.266521 0.352125 0.000000
0.283474 0.357667 0.000000
0.385889 0.083020 0.000000
0.359482 0.060981 0.000000
0.279658 0.346766 0.000000
0.363604 0.104040 0.000000
0.511115 0.503731 0.000000
0.503243 0.499914 0.000000
0.509146 0.494910 0.000000
0.513188 0.475753 0.000000
0.504957 0.474656 0.000000
0.511959 0.464784 0.000000
0.311863 0.447505 0.000000
0.293019 0.442078 0.000000
0.305555 0.431691 0.000000
0.499204 0.464990 0.000000
0.293855 0.459576 0.000000
0.396676 0.236328 0.000000
0.371014 0.247362 0.000000
0.373003 0.229199 0.000000
0.384478 0.261522 0.000000
0.555704 0.523331 0.000000
0.551313 0.515879 0.000000
0.562752 0.515269 0.000000
0.554954 0.506854 0.000000
0.804236 0.611103 0.000000
0.819351 0.593503 0.000000
0.832061 0.615776 0.000000
0.509908 0.485173 0.000000
0.129738 0.481190 0.000000
0.110722 0.443736 0.000000
0.154857 0.452634 0.000000
0.089738 0.485299 0.000000
0.396427 0.153886 0.000000
0.393058 0.115469 0.000000
0.420333 0.126587 0.000000
0.442628 0.413512 0.000000
0.434815 0.404283 0.000000
0.446816 0.400259 0.000000
0.499770 0.482873 0.000000
0.353883 0.235057 0.000000
0.351360 0.254011 0.000000
0.332147 0.240870 0.000000
0.112307 0.405527 0.000000
0.140355 0.392788 0.000000
0.142004 0.423465 0.000000
0.334868 0.263052 0.000000
0.551239 0.594093 0.000000
0.560217 0.601969 0.000000
0.546711 0.604614 0.000000
0.398510 0.570197 0.000000
0.387124 0.557316 0.000000
0.399978 0.555748 0.000000
0.705281 0.743146 0.000000
0.722930 0.758853 0.000000
0.697202 0.758074 0.000000
0.380190 0.572638 0.000000
0.278345 0.431947 0.000000
0.292575 0.428097 0.000000
0.470820 0.540616 0.000000
0.478213 0.533042 0.000000
0.480161 0.543190 0.000000
0.415268 0.299334 0.000000
0.412465 0.313515 0.000000
0.400419 0.297680 0.000000
0.396495 0.317117 0.000000
0.718655 0.732879 0.000000
0.709319 0.677587 0.000000
0.715709 0.670111 0.000000
0.719283 0.682820 0.000000
0.212992 0.453899 0.000000
0.184619 0.470046 0.000000
0.186665 0.440862 0.000000
0.452307 0.386568 0.000000
0.460371 0.397715 0.000000
0.478664 0.456068 0.000000
0.476179 0.462123 0.000000
0.471250 0.456445 0.000000
0.464654 0.388544 0.000000
0.483415 0.461045 0.000000
0.357146 0.449596 0.000000
0.344653 0.443966 0.000000
0.554562 0.459423 0.000000
0.543333 0.457517 0.000000
0.553850 0.449505 0.000000
0.543131 0.445036 0.000000
0.347312 0.459318 0.000000
0.781088 0.538918 0.000000
0.810909 0.534152 0.000000
0.799399 0.553968 0.000000
0.402869 0.534333 0.000000
0.408011 0.546121 0.000000
0.703844 0.670118 0.000000
0.552234 0.794299 0.000000
0.528593 0.795589 0.000000
0.539188 0.770312 0.000000
0.596088 0.518714 0.000000
0.593029 0.508081 0.000000
0.604120 0.510731 0.000000
0.384880 0.468703 0.000000
0.382270 0.455963 0.000000
0.394062 0.458803 0.000000
0.374729 0.466839 0.000000
0.340939 0.294790 0.000000
0.324530 0.290188 0.000000
0.338473 0.279923 0.000000
0.465367 0.336545 0.000000
0.477337 0.352846 0.000000
0.459495 0.350024 0.000000
0.584947 0.516440 0.000000
0.326802 0.302636 0.000000
0.945343 0.420397 0.000000
0.779746 0.749037 0.000000
0.771533 0.774140 0.000000
0.758291 0.749848 0.000000
0.743435 0.765852 0.000000
0.751942 0.297541 0.000000
0.784264 0.292048 0.000000
0.772562 0.330207 0.000000
0.812744 0.305799 0.000000
0.655547 0.494535 0.000000
0.649767 0.472522 0.000000
0.671966 0.480244 0.000000
0.612062 0.502007 0.000000
0.616789 0.515227 0.000000
0.403059 0.898561 0.000000
0.391512 0.946883 0.000000
0.625780 0.504699 0.000000
0.635988 0.491275 0.000000
0.596252 0.650380 0.000000
0.583401 0.655132 0.000000
0.583737 0.644777 0.000000
0.713099 0.416502 0.000000
0.708474 0.388943 0.000000
0.733625 0.389568 0.000000
0.684835 0.406222 0.000000
0.656936 0.416423 0.000000
0.633624 0.425116 0.000000
0.634362 0.400237 0.000000
0.646884 0.740682 0.000000
0.654954 0.726002 0.000000
0.663305 0.741855 0.000000
0.732481 0.441235 0.000000
0.751303 0.460839 0.000000
0.721338 0.462235 0.000000
0.759622 0.437863 0.000000
0.462761 0.363156 0.000000
0.373644 0.622389 0.000000
0.346217 0.613642 0.000000
0.370315 0.594521 0.000000
0.351411 0.640635 0.000000
0.695337 0.690220 0.000000
0.705202 0.700133 0.000000
0.692303 0.700990 0.000000
0.521365 0.516400 0.000000
0.522992 0.510597 0.000000
0.527633 0.513574 0.000000
0.291567 0.329512 0.000000
0.294927 0.318154 0.000000
0.365771 0.366553 0.000000
0.366135 0.358691 0.000000
0.374180 0.368122 0.000000
0.408232 0.327056 0.000000
0.423479 0.328280 0.000000
0.411272 0.339740 0.000000
0.664110 0.670607 0.000000
0.667245 0.662649 0.000000
[...]
POINT_DATA 1818
SCALARS UX float 1
LOOKUP_TABLE default
-0.000000
0.000000
-0.111111
-0.266918
-0.227821
-0.157810
0.000000
-0.000000
-0.000000
0.000000
-0.000000
-0.000000
0.000000
-0.000000
-0.000000
0.000000
-0.000000
0.000000
0.000000
-0.000000
0.000000
-0.000000
0.019993
0.036340
0.046529
0.058826
0.045960
0.006628
-0.058408
-0.069400
-0.087863
-0.098386
-0.103714
-0.107593
-0.109341
-0.110779
-0.111557
-0.110940
-0.122167
-0.131943
-0.141791
-0.151264
-0.160230
-0.168793
-0.177311
-0.185796
-0.194304
-0.202891
-0.211532
-0.220368
-0.229367
-0.238486
-0.247738
-0.257326
-0.266926
-0.267090
-0.267254
-0.267193
-0.267541
-0.268222
-0.268946
-0.270237
-0.271803
-0.274008
-0.277047
-0.281251
-0.286865
-0.291817
-0.302482
-0.307721
-0.226617
-0.225448
-0.224278
-0.223124
-0.221988
-0.220857
-0.219672
-0.218559
-0.217384
-0.216218
-0.215070
-0.213899
-0.212746
-0.211564
-0.210396
-0.209246
-0.208006
-0.206829
-0.205666
-0.204513
-0.203383
-0.202242
-0.201064
-0.199920
-0.198796
-0.197674
-0.196567
-0.195465
-0.194390
-0.193323
-0.192262
-0.191227
-0.190203
-0.189191
-0.188188
-0.187187
-0.186193
-0.185223
-0.184234
-0.183243
-0.182260
-0.181282
-0.180300
-0.179315
-0.178321
-0.177326
-0.176323
-0.175339
-0.174334
-0.173275
-0.172243
-0.171207
-0.170175
-0.169097
-0.168083
-0.167092
-0.166097
-0.165124
-0.164218
-0.163310
-0.162445
-0.161667
-0.160874
-0.160102
-0.159333
-0.158576
-0.016572
-0.005102
-0.012314
-0.180426
-0.179803
-0.180924
-0.002934
-0.199533
-0.201062
-0.200009
-0.191865
-0.191473
-0.206444
-0.202532
-0.186201
-0.186222
-0.183239
-0.197050
-0.195686
-0.195717
-0.221946
-0.222212
-0.223366
-0.161299
-0.159959
-0.161575
-0.194366
-0.201047
-0.199976
-0.182204
-0.183418
-0.185149
-0.185878
-0.175184
-0.174326
-0.176950
-0.015563
-0.040721
-0.027496
-0.197900
-0.200088
-0.194921
-0.221895
-0.220368
-0.198476
-0.220725
-0.159669
-0.160027
-0.161543
-0.203087
-0.202350
-0.201421
-0.210395
-0.211894
-0.209471
-0.204349
-0.086698
-0.068692
-0.085641
-0.214305
-0.214152
-0.212691
-0.024419
-0.230604
-0.231848
-0.228925
-0.054411
-0.050609
-0.230100
-0.098236
-0.187870
-0.189186
-0.188231
-0.187650
-0.189059
-0.187879
-0.221101
-0.224173
-0.222604
-0.190106
-0.223528
-0.216782
-0.220840
-0.221952
-0.219115
-0.180542
-0.181254
-0.179388
-0.180608
-0.138552
-0.135035
-0.134516
-0.188161
-0.249065
-0.253094
-0.245667
-0.255577
-0.153885
-0.100196
-0.091329
-0.201218
-0.202915
-0.200919
-0.189878
-0.225371
-0.225332
-0.230455
-0.254549
-0.250447
-0.248851
-0.227250
-0.180989
-0.179501
-0.181655
-0.205169
-0.207100
-0.205115
-0.158419
-0.156164
-0.159832
-0.207983
-0.226772
-0.224723
-0.194133
-0.193012
-0.192618
-0.212127
-0.211814
-0.215040
-0.214290
-0.156249
-0.156337
-0.155149
-0.154999
-0.236389
-0.240422
-0.240966
-0.200638
-0.198586
-0.193831
-0.194170
-0.195108
-0.198137
-0.192943
-0.214009
-0.216148
-0.180448
-0.182378
-0.180421
-0.182299
-0.215263
-0.139503
-0.132609
-0.136322
-0.204959
-0.203975
-0.156966
-0.181620
-0.185129
-0.183382
-0.173940
-0.174393
-0.172578
-0.209102
-0.209846
-0.207904
-0.210749
-0.223645
-0.226851
-0.225345
-0.200463
-0.197191
-0.201137
-0.175772
-0.225412
-0.077672
-0.147591
-0.149365
-0.150779
-0.153316
-0.088948
-0.063210
-0.105311
-0.058643
-0.163357
-0.163477
-0.159756
-0.171152
-0.170540
-0.203882
-0.205734
-0.168882
-0.166671
-0.173634
-0.175744
-0.175632
-0.148273
-0.147614
-0.142205
-0.154128
-0.160511
-0.165733
-0.165114
-0.166972
-0.165534
-0.164562
-0.146127
-0.143109
-0.149541
-0.140079
-0.199461
-0.208507
-0.212779
-0.209241
-0.211787
-0.158785
-0.157541
-0.159488
-0.186140
-0.185878
-0.185113
-0.229196
-0.229158
-0.216079
-0.216562
-0.214687
-0.211589
-0.208929
-0.210432
-0.163018
-0.162323
-0.161497
-0.210359
-0.211693
-0.213287
-0.214221
-0.166407
-0.166099
-0.167920
-0.185091
-0.174159
-0.158251
-0.179493
-0.221968
-0.223505
-0.222520
-0.207256
-0.206928
-0.208245
-0.189825
-0.191970
-0.192112
-0.211664
-0.211735
-0.212742
-0.209125
-0.156169
-0.152796
-0.156869
-0.153502
-0.229568
-0.215384
-0.190437
-0.190231
-0.189219
-0.191518
-0.234015
-0.231024
-0.231144
-0.225181
-0.226656
-0.226973
-0.210657
-0.209386
-0.185346
-0.175992
-0.175044
-0.218131
-0.216812
-0.215272
-0.227168
-0.239873
-0.233455
-0.233181
-0.228744
-0.224344
-0.188489
-0.189723
-0.189635
-0.187897
-0.211369
-0.210202
-0.157936
-0.157023
-0.158717
-0.155500
-0.220888
-0.219329
-0.218528
-0.233660
-0.236072
-0.236086
-0.267133
-0.274596
-0.264334
-0.265937
-0.260663
-0.265930
-0.258884
-0.153180
-0.152831
-0.234021
-0.193072
-0.191885
-0.170911
-0.172053
-0.172760
-0.191372
-0.216010
-0.217275
-0.183539
-0.179901
-0.181674
-0.207141
-0.205989
-0.216566
-0.217830
-0.221385
-0.222222
-0.220143
-0.223606
-0.174162
-0.176591
-0.177556
-0.262144
-0.263135
-0.256543
-0.247453
-0.242674
-0.247005
-0.242532
-0.164653
-0.166356
-0.178456
-0.177629
-0.185713
-0.187112
-0.186458
-0.188073
-0.184448
-0.184843
-0.183395
-0.205235
-0.206678
-0.206167
-0.204289
-0.203466
-0.204964
-0.203727
-0.195550
-0.203288
-0.203259
-0.204369
-0.173147
-0.178764
-0.174559
-0.177899
-0.074044
-0.085631
-0.052266
-0.036444
-0.102327
-0.223967
-0.222942
-0.223837
-0.177537
-0.176209
-0.177779
-0.198116
-0.196613
-0.198258
-0.169506
-0.167858
-0.196453
-0.168894
-0.170486
-0.171418
-0.195561
-0.194217
-0.196926
-0.180186
-0.178574
-0.178861
-0.222379
-0.224427
-0.171381
-0.176932
-0.232872
-0.228264
-0.237061
-0.231002
-0.235555
-0.184651
-0.181981
-0.184161
-0.182896
-0.184861
-0.181640
-0.178907
-0.258999
-0.173630
-0.169548
-0.173535
-0.170124
-0.236747
-0.240121
-0.240852
-0.170306
-0.171333
-0.169794
-0.221808
-0.180661
-0.148877
-0.182007
-0.180816
-0.164609
-0.162765
-0.163674
-0.217941
-0.217501
-0.215899
-0.174827
-0.177157
-0.254253
-0.175484
-0.174259
-0.176514
-0.203436
-0.203201
-0.190215
-0.187166
-0.186512
-0.201107
-0.174528
-0.220316
-0.222298
-0.222956
-0.207193
-0.205630
-0.204515
-0.183997
-0.182892
-0.182784
-0.183902
-0.190149
-0.160414
-0.161185
-0.198044
-0.197602
-0.196741
-0.213482
-0.211746
-0.222930
-0.220748
-0.219903
-0.212718
-0.105538
-0.169483
-0.126219
-0.223579
-0.226983
-0.225518
-0.231181
-0.231736
-0.232657
-0.231336
-0.228718
-0.232422
-0.232672
-0.223208
-0.182391
-0.243291
-0.243567
-0.181853
-0.179302
-0.177105
-0.227948
-0.178497
-0.184218
-0.187961
-0.187712
-0.148610
-0.144738
-0.148019
-0.189838
-0.186153
-0.186182
-0.159812
-0.198604
-0.198431
-0.197388
-0.272695
-0.282337
-0.285068
-0.200334
-0.199082
-0.197015
-0.199979
-0.179373
-0.180482
-0.177596
-0.182298
-0.122454
-0.135213
-0.126203
-0.168035
-0.167930
-0.168891
-0.196977
-0.193562
-0.192345
-0.220282
-0.216835
-0.186313
-0.187134
-0.194425
-0.193365
-0.026692
-0.219453
-0.219917
-0.194573
-0.195487
-0.226665
-0.147970
-0.144411
-0.145787
-0.075916
-0.141444
-0.079407
-0.040000
-0.077793
-0.228259
-0.189198
-0.207804
-0.206014
-0.205253
-0.195502
-0.196285
-0.178445
-0.176249
-0.167014
-0.229641
-0.228043
-0.216193
-0.218255
-0.217290
-0.196414
-0.194611
-0.195960
-0.211165
-0.153175
-0.154860
-0.152739
-0.193993
-0.148302
0.012713
-0.166227
-0.168268
-0.180984
-0.179429
-0.180155
-0.180073
-0.179029
-0.177971
-0.209107
-0.209636
-0.171839
-0.212694
-0.222847
-0.226534
-0.230741
-0.203240
-0.200400
-0.225928
-0.225983
-0.186325
-0.165967
-0.249363
-0.168839
-0.221934
-0.222321
-0.217947
-0.169136
-0.152248
-0.155460
-0.156928
-0.158795
-0.203344
-0.206460
-0.176770
-0.174529
-0.174170
-0.158998
-0.159813
-0.161333
-0.162927
0.041028
0.044663
-0.223439
-0.222688
0.047341
-0.258662
-0.247718
-0.254294
-0.149317
-0.149074
-0.151294
-0.185456
-0.187572
-0.182298
-0.146614
-0.099220
0.033038
0.024945
0.029512
0.021334
-0.190876
-0.179481
-0.183094
-0.183587
-0.146068
-0.144563
-0.142678
-0.234971
-0.240899
-0.243380
-0.140412
-0.203330
-0.202183
-0.203124
-0.280268
-0.268471
-0.274333
0.008790
0.005627
0.014005
-0.121588
-0.122147
-0.113642
-0.129352
-0.126521
-0.119526
-0.116565
-0.177470
-0.177755
-0.269908
-0.271849
-0.263229
-0.181012
-0.168043
-0.206493
-0.261470
-0.254910
-0.260590
-0.226059
-0.226541
-0.267105
-0.170938
-0.203126
-0.214793
-0.130354
-0.210522
-0.205472
-0.206197
-0.092030
-0.101565
-0.161316
-0.163582
-0.156199
-0.137171
-0.144481
-0.137896
-0.145361
-0.154991
-0.136877
-0.215025
-0.216626
-0.251618
-0.250935
-0.255508
-0.245305
-0.222706
-0.225437
-0.225039
-0.263310
-0.265601
-0.106651
-0.160233
-0.091696
-0.171678
-0.180986
-0.168011
-0.166003
-0.167778
-0.259881
-0.041667
-0.094789
-0.175468
-0.176024
-0.176765
-0.112715
-0.121539
-0.228567
-0.143966
-0.147096
-0.146672
-0.144031
-0.244847
-0.244101
-0.239905
-0.139980
-0.035555
-0.129384
-0.158602
-0.059975
-0.208138
-0.210684
-0.179023
-0.001394
-0.079095
-0.173922
-0.171257
-0.171608
-0.143437
-0.150097
-0.221509
-0.201006
-0.201968
-0.167949
-0.177551
-0.023180
-0.062556
-0.086426
-0.013891
-0.221637
-0.220169
-0.208078
-0.189943
-0.101871
-0.184835
-0.040533
-0.075735
-0.043054
-0.149691
-0.259896
-0.239398
-0.234488
-0.239190
-0.234976
-0.183455
-0.239964
-0.238946
-0.244745
-0.235624
-0.236242
-0.185613
-0.182849
-0.205017
-0.201253
-0.183723
-0.234738
-0.234153
-0.179282
-0.175214
-0.251500
-0.260315
-0.245855
-0.190305
-0.191917
-0.189430
-0.190690
-0.193218
-0.207279
-0.209294
-0.232170
-0.235858
-0.231948
-0.212421
-0.210401
-0.209289
-0.253079
-0.246212
-0.231206
-0.187918
-0.125355
-0.126123
-0.211256
-0.214882
-0.213282
-0.217676
-0.213725
-0.244158
-0.131135
-0.130842
-0.221246
-0.223019
-0.225316
-0.227078
-0.160062
-0.179436
-0.209526
0.030395
-0.205586
-0.205767
-0.158817
-0.188928
-0.194737
-0.177984
-0.197170
-0.210739
-0.195438
-0.195109
-0.197578
-0.199460
-0.218890
-0.221412
-0.222752
-0.202929
-0.205292
-0.226021
-0.172990
-0.163531
-0.165601
-0.258772
-0.250925
-0.252550
-0.179361
-0.182652
-0.180975
-0.246908
-0.106974
-0.108836
-0.118833
-0.117813
-0.125564
-0.243722
-0.248094
-0.216559
-0.217260
-0.219314
-0.150492
-0.140917
-0.145920
-0.138476
-0.229403
-0.232731
-0.218668
-0.219583
-0.214379
-0.251460
-0.255259
-0.216627
-0.188240
-0.190238
-0.185922
-0.194849
-0.194980
-0.196461
-0.154036
-0.152963
-0.151077
-0.231167
-0.131773
-0.136939
-0.246488
-0.178735
-0.182240
-0.253971
-0.261953
-0.185269
-0.189391
-0.170140
-0.171568
-0.171981
-0.218959
-0.218169
-0.168202
-0.218813
-0.166738
-0.239454
-0.240491
-0.152092
-0.150855
-0.164291
-0.134345
-0.216985
-0.143057
-0.147889
-0.132234
-0.150804
-0.169543
-0.169691
-0.167831
-0.167858
-0.180049
-0.177568
-0.181160
-0.183172
-0.229537
-0.220413
-0.224720
-0.187931
-0.185760
-0.184445
-0.179231
-0.187357
-0.189247
-0.188334
-0.189966
-0.191211
-0.188936
-0.197061
-0.194449
-0.194814
-0.216492
-0.148967
-0.146387
-0.145759
-0.228896
-0.229584
-0.233149
-0.196250
-0.208074
-0.218067
-0.232039
-0.196152
-0.226078
-0.193956
-0.177235
-0.241547
-0.238044
-0.128413
-0.192279
-0.125795
-0.135601
-0.195284
-0.196903
-0.163854
-0.166290
-0.156444
-0.243371
-0.164574
-0.208309
-0.237322
-0.237278
-0.205700
-0.206369
-0.207453
-0.160949
-0.162535
-0.161276
-0.156053
-0.001906
-0.015748
-0.025294
-0.037623
-0.233046
-0.191352
-0.191010
-0.232839
-0.289972
-0.159793
-0.159450
-0.161016
-0.120463
-0.121720
-0.131167
-0.191139
-0.160771
-0.174275
-0.226343
-0.223877
-0.224090
-0.234837
-0.298476
-0.173142
-0.227863
-0.172510
-0.226632
-0.187928
-0.189789
-0.052171
-0.213526
-0.210596
-0.209652
-0.153585
0.004490
-0.000301
0.005636
-0.161354
0.004188
-0.233815
-0.230505
-0.127607
-0.209094
-0.213284
-0.209418
-0.212522
-0.218778
-0.136377
-0.153964
-0.150558
-0.158310
-0.160468
-0.161403
-0.229465
-0.207116
-0.008840
-0.003783
-0.014039
-0.198697
-0.195790
-0.196439
-0.119313
-0.113175
-0.143836
-0.213373
-0.211506
-0.171590
-0.171759
-0.169247
-0.132923
-0.141373
-0.134620
-0.206083
-0.204528
-0.229188
-0.227557
-0.168080
-0.217998
-0.215797
-0.162852
-0.219600
-0.171242
-0.172347
-0.174696
-0.163086
-0.161787
-0.154289
-0.156421
-0.205545
-0.206349
-0.202490
-0.202954
-0.205171
-0.207908
-0.166981
-0.172639
-0.248945
-0.161528
-0.170281
-0.168696
-0.135180
-0.134639
-0.175413
-0.159858
-0.158557
-0.163142
-0.170577
-0.189297
-0.241742
-0.239127
-0.244689
-0.206710
-0.206756
-0.149862
-0.151577
-0.112774
-0.161321
-0.160502
-0.169571
-0.176671
-0.178851
-0.159204
-0.158153
-0.159616
-0.217484
-0.218568
-0.217167
-0.169585
-0.239100
-0.243598
-0.238571
-0.161558
-0.243734
-0.247867
-0.251953
-0.176873
-0.161194
-0.206317
-0.148120
-0.143284
-0.144913
-0.158489
-0.148552
-0.138472
-0.212530
-0.180503
-0.189677
-0.194006
-0.191420
-0.190938
-0.195182
-0.182671
-0.030499
-0.157944
-0.150011
-0.167573
-0.165386
-0.157305
-0.156428
-0.158639
-0.171654
-0.175086
-0.225340
-0.224960
-0.164941
-0.008549
-0.214419
-0.155338
-0.155932
-0.162361
-0.163242
-0.213578
-0.279298
-0.228667
-0.156829
-0.160233
-0.167375
-0.171673
-0.166572
-0.160590
-0.155360
-0.120281
-0.166617
-0.164785
-0.165706
-0.166576
-0.215239
-0.179704
-0.174474
-0.131905
-0.188277
-0.178215
-0.165450
-0.165295
-0.176479
-0.180575
-0.186095
-0.188223
-0.185321
-0.202278
-0.173184
-0.175295
-0.218561
-0.218828
-0.219807
-0.201393
-0.184457
-0.267352
-0.169535
-0.167761
-0.172847
-0.166169
-0.162279
-0.204034
-0.164569
-0.228316
-0.172465
-0.191631
-0.212060
-0.182443
-0.182356
-0.181238
-0.226725
-0.201865
-0.225696
-0.243937
-0.208325
-0.162718
-0.164516
-0.231521
-0.218379
-0.218207
-0.163380
-0.196419
-0.196835
-0.208315
-0.173553
-0.158150
-0.156756
-0.204274
-0.207457
-0.205382
-0.186760
-0.204527
-0.159579
-0.162624
-0.200095
-0.180515
-0.181914
-0.181724
-0.193168
-0.193225
-0.220772
-0.162346
-0.110944
-0.111347
-0.174087
-0.223193
-0.165157
-0.217987
-0.217415
-0.172915
-0.217207
-0.249197
-0.141973
-0.165171
-0.211550
-0.212640
-0.167489
-0.191915
-0.191630
-0.126591
-0.190885
-0.193338
-0.192995
-0.231563
-0.230861
-0.166415
-0.167738
-0.208527
-0.209795
-0.209598
-0.095385
-0.211050
-0.189314
-0.188927
-0.156307
-0.172714
-0.224038
-0.224897
-0.189899
-0.209054
-0.210675
-0.181448
-0.181942
-0.183014
-0.175848
-0.174238
-0.173199
-0.172305
-0.174755
-0.178748
-0.244638
-0.198448
-0.199578
-0.209132
-0.220539
-0.172191
-0.173446
-0.185230
-0.182656
-0.179449
-0.229579
-0.191749
-0.170395
-0.169109
-0.207975
-0.207488
-0.206422
-0.205600
-0.183444
-0.200509
-0.200812
-0.169166
-0.168349
-0.166977
-0.184599
-0.185014
-0.208749
-0.200905
-0.202409
-0.118140
-0.082713
-0.163742
-0.162420
-0.233650
-0.234597
-0.211063
-0.198188
-0.205043
-0.198921
-0.213625
-0.215223
-0.229289
-0.232289
-0.193058
-0.196358
-0.195346
-0.186307
-0.193024
-0.009240
-0.193696
-0.208850
-0.209283
-0.176115
-0.191177
-0.218636
-0.265904
-0.257850
-0.261297
-0.186316
-0.194930
-0.193605
-0.178549
-0.177172
-0.177585
-0.201647
-0.200683
-0.212707
-0.213715
-0.202705
-0.203164
-0.205599
-0.173817
-0.173354
-0.193200
-0.200968
-0.164987
-0.165189
-0.206177
-0.201954
-0.202259
-0.215383
-0.213947
-0.215083
-0.207484
-0.206063
-0.175032
-0.176792
-0.198159
-0.197754
-0.189579
-0.160886
-0.159545
-0.193413
-0.199315
-0.200509
0.004450
0.003918
-0.174723
-0.190382
-0.201060
-0.202432
-0.188337
-0.187408
-0.216563
-0.187737
-0.188789
-0.168603
-0.219516
-0.167295
-0.202212
-0.135687
-0.139838
-0.208299
-0.207962
-0.166015
-0.166318
-0.169652
-0.171362
-0.159037
-0.164051
-0.191172
-0.176759
-0.162350
-0.223374
0.014678
0.010783
0.023781
-0.224951
-0.159795
0.013358
-0.198401
-0.181405
-0.183177
-0.158836
0.016855
-0.245289
-0.239836
-0.240063
-0.235447
-0.124461
-0.169648
-0.167684
-0.172105
-0.054049
-0.232269
-0.113475
-0.212404
-0.201678
-0.199652
-0.205856
-0.194549
-0.202177
-0.177511
-0.187875
-0.180494
-0.180078
-0.249913
-0.168952
-0.129857
-0.121682
-0.259138
-0.257892
-0.179359
0.007985
0.022865
0.007333
-0.128118
-0.117713
-0.155470
-0.156832
-0.210324
-0.153726
-0.216705
-0.217629
-0.182240
-0.172723
-0.173731
-0.184102
-0.148595
-0.160162
-0.202306
-0.198740
-0.198914
-0.131915
-0.136716
-0.022055
-0.155498
-0.194682
-0.196701
-0.198107
-0.194244
-0.192593
-0.194067
-0.192836
-0.181207
-0.212147
-0.156964
0.000183
-0.215022
-0.194309
-0.235105
-0.235663
-0.136250
-0.128171
-0.134558
-0.210368
-0.214208
-0.228890
-0.152274
-0.152846
-0.198127
-0.169627
-0.184269
-0.192896
-0.246092
-0.196967
-0.166564
-0.178401
-0.152418
-0.141336
-0.143331
-0.144329
-0.149254
-0.282647
-0.237776
-0.202583
-0.200572
-0.206133
-0.126692
-0.236133
-0.194704
-0.195511
-0.228180
0.031765
-0.172439
-0.180144
-0.183805
-0.177415
-0.171226
-0.192697
-0.151896
-0.190175
-0.204448
-0.204282
0.002512
-0.239773
0.008785
-0.186781
-0.154327
-0.217959
-0.206656
-0.188193
-0.138762
-0.143932
-0.207322
-0.208724
-0.253411
-0.138591
-0.253132
-0.260555
-0.258649
-0.186077
-0.203144
-0.162836
-0.208263
-0.171872
-0.153508
-0.156611
-0.163837
-0.209143
-0.213323
-0.221932
-0.113319
-0.125942
-0.185420
-0.184877
-0.183480
-0.183490
-0.213754
-0.215759
-0.184049
-0.216246
-0.221961
-0.223181
-0.202608
-0.226235
-0.155361
-0.013560
-0.169691
-0.148104
-0.240297
0.006313
-0.004199
-0.257667
-0.193127
-0.194623
-0.152361
-0.161036
-0.190924
-0.179248
-0.153484
-0.207777
-0.149482
-0.187149
-0.226572
-0.171415
-0.157425
-0.172792
-0.173055
-0.196441
-0.208643
-0.171031
-0.170738
-0.169495
-0.218013
-0.181125
-0.158240
-0.219537
-0.236981
-0.156847
-0.186341
-0.220745
-0.203580
-0.163926
-0.167035
-0.196414
-0.196460
-0.204831
0.027942
-0.048396
-0.174410
-0.173491
-0.186307
-0.216450
0.005489
-0.192976
-0.219078
-0.219580
-0.163110
-0.176086
-0.200564
-0.172142
-0.201878
-0.224314
-0.165573
-0.202074
-0.200927
-0.212561
-0.200356
-0.170796
-0.169712
-0.198407
-0.170787
-0.236870
-0.163801
-0.212570
-0.213695
-0.192189
-0.176642
-0.175507
-0.184075
-0.197808
-0.199391
-0.219223
-0.167655
-0.213598
-0.199992
-0.184809
-0.184468
-0.191697
-0.192407
-0.214204
-0.185987
-0.185245
-0.216541
-0.163576
-0.189408
-0.160887
-0.150870
-0.168962
-0.234864
-0.232929
-0.215445
-0.197812
-0.191867
-0.191744
-0.198431
-0.213689
-0.213739
-0.197557
-0.184955
-0.179480
-0.176430
-0.165909
-0.198939
-0.175088
-0.192316
-0.242550
-0.194088
-0.163187
-0.224813
-0.183456
-0.201435
-0.190643
-0.195381
-0.196679
-0.223802
-0.191231
-0.188209
-0.188212
-0.164492
-0.220950
-0.199717
-0.203008
-0.177401
-0.173962
-0.187209
-0.211466
SCALARS UY float 1
LOOKUP_TABLE default
-0.000000
-0.000000
-0.240000
-0.240000
-0.135430
-0.191903
0.000000
-0.000000
-0.000000
-0.000000
-0.000000
-0.000000
-0.000000
-0.000000
-0.000000
-0.000000
-0.000000
-0.000000
-0.000000
-0.000000
-0.000000
0.000000
-0.009080
-0.014275
-0.023908
-0.033466
-0.038498
-0.053624
-0.105627
-0.120396
-0.136555
-0.151975
-0.166890
-0.181752
-0.193676
-0.205164
-0.216404
-0.228262
-0.240000
-0.240000
-0.240000
-0.240000
-0.240000
-0.240000
-0.240000
-0.240000
-0.240000
-0.240000
-0.240000
-0.240000
-0.240000
-0.240000
-0.240000
-0.240000
-0.230101
-0.220274
-0.210209
-0.200056
-0.189902
-0.179619
-0.169119
-0.158346
-0.147460
-0.136270
-0.125130
-0.113845
-0.102999
-0.093107
-0.082739
-0.074307
-0.136488
-0.137421
-0.138308
-0.139223
-0.140079
-0.140878
-0.141721
-0.142513
-0.143316
-0.144128
-0.144937
-0.145760
-0.146541
-0.147374
-0.148159
-0.148882
-0.149701
-0.150495
-0.151324
-0.152127
-0.152953
-0.153771
-0.154591
-0.155447
-0.156326
-0.157207
-0.158082
-0.158950
-0.159809
-0.160672
-0.161536
-0.162403
-0.163257
-0.164106
-0.164937
-0.165779
-0.166603
-0.167421
-0.168250
-0.169062
-0.169872
-0.170674
-0.171474
-0.172266
-0.173070
-0.173876
-0.174693
-0.175505
-0.176325
-0.177119
-0.177937
-0.178788
-0.179640
-0.180585
-0.181503
-0.182434
-0.183413
-0.184362
-0.185285
-0.186239
-0.187171
-0.188006
-0.188828
-0.189642
-0.190393
-0.191161
-0.008121
-0.002014
-0.005615
-0.172984
-0.174192
-0.174177
-0.001287
-0.154152
-0.153364
-0.152778
-0.099692
-0.095796
-0.107594
-0.111414
-0.146472
-0.142643
-0.144023
-0.167431
-0.167072
-0.168551
-0.142835
-0.144566
-0.142773
-0.183919
-0.184648
-0.185716
-0.167768
-0.152213
-0.151285
-0.184406
-0.186641
-0.184440
-0.186959
-0.180659
-0.182764
-0.182391
-0.003598
-0.017193
-0.004746
-0.233408
-0.227970