# vtk DataFile Version 2.0
Test
ASCII
DATASET POLYDATA
POINTS 4588 float
0.000000 0.000000 0.000000
6.000000 0.000000 0.000000
6.000000 2.500000 0.000000
4.000000 2.500000 0.000000
3.500000 2.500000 0.000000
2.500000 2.500000 0.000000
2.000000 2.500000 0.000000
0.000000 2.500000 0.000000
5.900000 0.010000 0.000000
0.200000 0.000000 0.000000
0.400000 0.000000 0.000000
0.600000 0.000000 0.000000
0.800000 0.000000 0.000000
1.000000 0.000000 0.000000
1.200000 0.000000 0.000000
1.400000 0.000000 0.000000
1.600000 0.000000 0.000000
1.800000 0.000000 0.000000
2.000000 0.000000 0.000000
2.200000 0.000000 0.000000
2.400000 0.000000 0.000000
2.600000 0.000000 0.000000
2.800000 0.000000 0.000000
3.000000 0.000000 0.000000
3.200000 0.000000 0.000000
3.400000 0.000000 0.000000
3.600000 0.000000 0.000000
3.800000 0.000000 0.000000
4.000000 0.000000 0.000000
4.200000 0.000000 0.000000
4.400000 0.000000 0.000000
4.600000 0.000000 0.000000
4.800000 0.000000 0.000000
5.000000 0.000000 0.000000
5.200000 0.000000 0.000000
5.400000 0.000000 0.000000
5.600000 0.000000 0.000000
5.800000 0.000000 0.000000
6.000000 0.192308 0.000000
6.000000 0.384615 0.000000
6.000000 0.576923 0.000000
6.000000 0.769231 0.000000
6.000000 0.961538 0.000000
6.000000 1.153846 0.000000
6.000000 1.346154 0.000000
6.000000 1.538462 0.000000
6.000000 1.730769 0.000000
6.000000 1.923077 0.000000
6.000000 2.115385 0.000000
6.000000 2.307692 0.000000
5.811856 2.500000 0.000000
5.640527 2.500000 0.000000
5.484509 2.500000 0.000000
5.342434 2.500000 0.000000
5.213056 2.500000 0.000000
5.095240 2.500000 0.000000
4.987953 2.500000 0.000000
4.890254 2.500000 0.000000
4.801287 2.500000 0.000000
4.720270 2.500000 0.000000
4.646494 2.500000 0.000000
4.579310 2.500000 0.000000
4.518131 2.500000 0.000000
4.462420 2.500000 0.000000
4.411687 2.500000 0.000000
4.365488 2.500000 0.000000
4.323418 2.500000 0.000000
4.285107 2.500000 0.000000
4.250221 2.500000 0.000000
4.218452 2.500000 0.000000
4.189522 2.500000 0.000000
4.163177 2.500000 0.000000
4.139187 2.500000 0.000000
4.117341 2.500000 0.000000
4.097448 2.500000 0.000000
4.079332 2.500000 0.000000
4.062835 2.500000 0.000000
4.047812 2.500000 0.000000
4.034132 2.500000 0.000000
4.021675 2.500000 0.000000
4.010330 2.500000 0.000000
3.990000 2.500000 0.000000
3.980000 2.500000 0.000000
3.970000 2.500000 0.000000
3.960000 2.500000 0.000000
3.950000 2.500000 0.000000
3.940000 2.500000 0.000000
3.930000 2.500000 0.000000
3.920000 2.500000 0.000000
3.910000 2.500000 0.000000
3.900000 2.500000 0.000000
3.890000 2.500000 0.000000
3.880000 2.500000 0.000000
3.870000 2.500000 0.000000
3.860000 2.500000 0.000000
3.850000 2.500000 0.000000
3.840000 2.500000 0.000000
3.830000 2.500000 0.000000
3.820000 2.500000 0.000000
3.810000 2.500000 0.000000
3.800000 2.500000 0.000000
3.790000 2.500000 0.000000
3.780000 2.500000 0.000000
3.770000 2.500000 0.000000
3.760000 2.500000 0.000000
3.750000 2.500000 0.000000
3.740000 2.500000 0.000000
3.730000 2.500000 0.000000
3.720000 2.500000 0.000000
3.710000 2.500000 0.000000
3.700000 2.500000 0.000000
3.690000 2.500000 0.000000
3.680000 2.500000 0.000000
3.670000 2.500000 0.000000
3.660000 2.500000 0.000000
3.650000 2.500000 0.000000
3.640000 2.500000 0.000000
3.630000 2.500000 0.000000
3.620000 2.500000 0.000000
3.610000 2.500000 0.000000
3.600000 2.500000 0.000000
3.590000 2.500000 0.000000
3.580000 2.500000 0.000000
3.570000 2.500000 0.000000
3.560000 2.500000 0.000000
3.550000 2.500000 0.000000
3.540000 2.500000 0.000000
3.530000 2.500000 0.000000
3.520000 2.500000 0.000000
3.510000 2.500000 0.000000
3.490000 2.500000 0.000000
3.480000 2.500000 0.000000
3.470000 2.500000 0.000000
3.460000 2.500000 0.000000
3.450000 2.500000 0.000000
3.440000 2.500000 0.000000
3.430000 2.500000 0.000000
3.420000 2.500000 0.000000
3.410000 2.500000 0.000000
3.400000 2.500000 0.000000
3.390000 2.500000 0.000000
3.380000 2.500000 0.000000
3.370000 2.500000 0.000000
3.360000 2.500000 0.000000
3.350000 2.500000 0.000000
3.340000 2.500000 0.000000
3.330000 2.500000 0.000000
3.320000 2.500000 0.000000
3.310000 2.500000 0.000000
3.300000 2.500000 0.000000
3.290000 2.500000 0.000000
3.280000 2.500000 0.000000
3.270000 2.500000 0.000000
3.260000 2.500000 0.000000
3.250000 2.500000 0.000000
3.240000 2.500000 0.000000
3.230000 2.500000 0.000000
3.220000 2.500000 0.000000
3.210000 2.500000 0.000000
3.200000 2.500000 0.000000
3.190000 2.500000 0.000000
3.180000 2.500000 0.000000
3.170000 2.500000 0.000000
3.160000 2.500000 0.000000
3.150000 2.500000 0.000000
3.140000 2.500000 0.000000
3.130000 2.500000 0.000000
3.120000 2.500000 0.000000
3.110000 2.500000 0.000000
3.100000 2.500000 0.000000
3.090000 2.500000 0.000000
3.080000 2.500000 0.000000
3.070000 2.500000 0.000000
3.060000 2.500000 0.000000
3.050000 2.500000 0.000000
3.040000 2.500000 0.000000
3.030000 2.500000 0.000000
3.020000 2.500000 0.000000
3.010000 2.500000 0.000000
3.000000 2.500000 0.000000
2.990000 2.500000 0.000000
2.980000 2.500000 0.000000
2.970000 2.500000 0.000000
2.960000 2.500000 0.000000
2.950000 2.500000 0.000000
2.940000 2.500000 0.000000
2.930000 2.500000 0.000000
2.920000 2.500000 0.000000
2.910000 2.500000 0.000000
2.900000 2.500000 0.000000
2.890000 2.500000 0.000000
2.880000 2.500000 0.000000
2.870000 2.500000 0.000000
2.860000 2.500000 0.000000
2.850000 2.500000 0.000000
2.840000 2.500000 0.000000
2.830000 2.500000 0.000000
2.820000 2.500000 0.000000
2.810000 2.500000 0.000000
2.800000 2.500000 0.000000
2.790000 2.500000 0.000000
2.780000 2.500000 0.000000
2.770000 2.500000 0.000000
2.760000 2.500000 0.000000
2.750000 2.500000 0.000000
2.740000 2.500000 0.000000
2.730000 2.500000 0.000000
2.720000 2.500000 0.000000
2.710000 2.500000 0.000000
2.700000 2.500000 0.000000
2.690000 2.500000 0.000000
2.680000 2.500000 0.000000
2.670000 2.500000 0.000000
2.660000 2.500000 0.000000
2.650000 2.500000 0.000000
2.640000 2.500000 0.000000
2.630000 2.500000 0.000000
2.620000 2.500000 0.000000
2.610000 2.500000 0.000000
2.600000 2.500000 0.000000
2.590000 2.500000 0.000000
2.580000 2.500000 0.000000
2.570000 2.500000 0.000000
2.560000 2.500000 0.000000
2.550000 2.500000 0.000000
2.540000 2.500000 0.000000
2.530000 2.500000 0.000000
2.520000 2.500000 0.000000
2.510000 2.500000 0.000000
2.490000 2.500000 0.000000
2.480000 2.500000 0.000000
2.470000 2.500000 0.000000
2.460000 2.500000 0.000000
2.450000 2.500000 0.000000
2.440000 2.500000 0.000000
2.430000 2.500000 0.000000
2.420000 2.500000 0.000000
2.410000 2.500000 0.000000
2.400000 2.500000 0.000000
2.390000 2.500000 0.000000
2.380000 2.500000 0.000000
2.370000 2.500000 0.000000
2.360000 2.500000 0.000000
2.350000 2.500000 0.000000
2.340000 2.500000 0.000000
2.330000 2.500000 0.000000
2.320000 2.500000 0.000000
2.310000 2.500000 0.000000
2.300000 2.500000 0.000000
2.290000 2.500000 0.000000
2.280000 2.500000 0.000000
2.270000 2.500000 0.000000
2.260000 2.500000 0.000000
2.250000 2.500000 0.000000
2.240000 2.500000 0.000000
2.230000 2.500000 0.000000
2.220000 2.500000 0.000000
2.210000 2.500000 0.000000
2.200000 2.500000 0.000000
2.190000 2.500000 0.000000
2.180000 2.500000 0.000000
2.170000 2.500000 0.000000
2.160000 2.500000 0.000000
2.150000 2.500000 0.000000
2.140000 2.500000 0.000000
2.130000 2.500000 0.000000
2.120000 2.500000 0.000000
2.110000 2.500000 0.000000
2.100000 2.500000 0.000000
2.090000 2.500000 0.000000
2.080000 2.500000 0.000000
2.070000 2.500000 0.000000
2.060000 2.500000 0.000000
2.050000 2.500000 0.000000
2.040000 2.500000 0.000000
2.030000 2.500000 0.000000
2.020000 2.500000 0.000000
2.010000 2.500000 0.000000
1.989670 2.500000 0.000000
1.978325 2.500000 0.000000
1.965868 2.500000 0.000000
1.952188 2.500000 0.000000
1.937165 2.500000 0.000000
1.920668 2.500000 0.000000
1.902552 2.500000 0.000000
1.882659 2.500000 0.000000
1.860813 2.500000 0.000000
1.836823 2.500000 0.000000
1.810478 2.500000 0.000000
1.781548 2.500000 0.000000
1.749779 2.500000 0.000000
1.714893 2.500000 0.000000
1.676582 2.500000 0.000000
1.634512 2.500000 0.000000
1.588313 2.500000 0.000000
1.537580 2.500000 0.000000
1.481869 2.500000 0.000000
1.420690 2.500000 0.000000
1.353506 2.500000 0.000000
1.279730 2.500000 0.000000
1.198713 2.500000 0.000000
1.109746 2.500000 0.000000
1.012047 2.500000 0.000000
0.904760 2.500000 0.000000
0.786944 2.500000 0.000000
0.657566 2.500000 0.000000
0.515491 2.500000 0.000000
0.359473 2.500000 0.000000
0.188144 2.500000 0.000000
0.000000 2.307692 0.000000
0.000000 2.115385 0.000000
0.000000 1.923077 0.000000
0.000000 1.730769 0.000000
0.000000 1.538462 0.000000
0.000000 1.346154 0.000000
0.000000 1.153846 0.000000
0.000000 0.961538 0.000000
0.000000 0.769231 0.000000
0.000000 0.576923 0.000000
0.000000 0.384615 0.000000
0.000000 0.192308 0.000000
2.166060 1.612117 0.000000
2.216288 1.582260 0.000000
2.224482 1.642233 0.000000
1.606376 2.429879 0.000000
1.605233 2.464843 0.000000
1.558068 2.443987 0.000000
3.879213 2.221734 0.000000
3.894413 2.240135 0.000000
3.870787 2.243476 0.000000
3.886006 2.258435 0.000000
2.339802 2.266888 0.000000
2.365581 2.253498 0.000000
2.364362 2.273473 0.000000
2.341103 2.240156 0.000000
2.423678 1.645586 0.000000
2.384384 1.592910 0.000000
2.465868 1.603917 0.000000
2.088761 2.444299 0.000000
2.083345 2.451608 0.000000
2.072981 2.440348 0.000000
2.075032 2.456216 0.000000
4.476806 2.331734 0.000000
4.434266 2.353962 0.000000
4.414303 2.302573 0.000000
4.378117 2.343910 0.000000
2.446073 1.537545 0.000000
4.239409 2.336520 0.000000
4.213048 2.298142 0.000000
4.253747 2.306569 0.000000
2.389441 2.269279 0.000000
4.290118 2.293594 0.000000
4.317604 2.355401 0.000000
4.273059 2.333019 0.000000
2.391236 2.242853 0.000000
3.695178 2.157745 0.000000
3.731439 2.154949 0.000000
3.712254 2.183983 0.000000
2.623247 2.337360 0.000000
2.617269 2.318390 0.000000
2.637121 2.325349 0.000000
2.631601 2.307649 0.000000
3.741363 2.188931 0.000000
4.480476 2.389007 0.000000
4.420788 2.405007 0.000000
3.026631 2.286441 0.000000
3.029815 2.314517 0.000000
[...]
POINT_DATA 4588
SCALARS UX float 1
LOOKUP_TABLE default
-0.000000
0.000000
-0.000000
-0.000015
-0.000009
0.000008
0.000014
0.000000
-0.000000
0.000000
-0.000000
-0.000000
0.000000
-0.000000
0.000000
0.000000
-0.000000
0.000000
0.000000
-0.000000
0.000000
-0.000000
0.000000
0.000000
-0.000000
-0.000000
-0.000000
-0.000000
-0.000000
-0.000000
-0.000000
-0.000000
-0.000000
-0.000000
-0.000000
-0.000000
0.000000
-0.000000
-0.000000
-0.000000
-0.000000
-0.000000
-0.000000
-0.000000
-0.000000
-0.000000
-0.000000
-0.000000
-0.000000
-0.000000
-0.000006
-0.000011
-0.000015
-0.000016
-0.000017
-0.000018
-0.000018
-0.000018
-0.000019
-0.000019
-0.000019
-0.000019
-0.000019
-0.000018
-0.000018
-0.000018
-0.000018
-0.000017
-0.000017
-0.000017
-0.000017
-0.000017
-0.000016
-0.000016
-0.000016
-0.000016
-0.000016
-0.000015
-0.000015
-0.000015
-0.000015
-0.000015
-0.000015
-0.000014
-0.000014
-0.000014
-0.000014
-0.000014
-0.000014
-0.000014
-0.000013
-0.000013
-0.000013
-0.000013
-0.000013
-0.000013
-0.000013
-0.000013
-0.000012
-0.000012
-0.000012
-0.000012
-0.000012
-0.000012
-0.000012
-0.000011
-0.000011
-0.000011
-0.000011
-0.000011
-0.000011
-0.000011
-0.000011
-0.000010
-0.000010
-0.000010
-0.000010
-0.000010
-0.000010
-0.000010
-0.000009
-0.000009
-0.000009
-0.000009
-0.000009
-0.000009
-0.000009
-0.000009
-0.000009
-0.000009
-0.000008
-0.000008
-0.000008
-0.000008
-0.000007
-0.000007
-0.000007
-0.000007
-0.000007
-0.000007
-0.000007
-0.000006
-0.000006
-0.000006
-0.000006
-0.000006
-0.000005
-0.000005
-0.000005
-0.000005
-0.000005
-0.000005
-0.000004
-0.000004
-0.000004
-0.000004
-0.000004
-0.000004
-0.000003
-0.000003
-0.000003
-0.000003
-0.000003
-0.000003
-0.000002
-0.000002
-0.000002
-0.000002
-0.000002
-0.000002
-0.000001
-0.000001
-0.000001
-0.000001
-0.000001
-0.000001
-0.000000
-0.000000
-0.000000
0.000000
0.000000
0.000000
0.000001
0.000001
0.000001
0.000001
0.000001
0.000002
0.000002
0.000002
0.000002
0.000002
0.000002
0.000002
0.000003
0.000003
0.000003
0.000003
0.000003
0.000004
0.000004
0.000004
0.000004
0.000004
0.000004
0.000004
0.000005
0.000005
0.000005
0.000005
0.000005
0.000005
0.000005
0.000006
0.000006
0.000006
0.000006
0.000006
0.000006
0.000007
0.000007
0.000007
0.000007
0.000007
0.000007
0.000007
0.000008
0.000008
0.000008
0.000009
0.000009
0.000009
0.000009
0.000009
0.000009
0.000009
0.000009
0.000009
0.000009
0.000009
0.000009
0.000010
0.000010
0.000010
0.000010
0.000010
0.000010
0.000010
0.000011
0.000011
0.000011
0.000011
0.000011
0.000011
0.000011
0.000012
0.000012
0.000012
0.000012
0.000012
0.000012
0.000012
0.000012
0.000013
0.000013
0.000013
0.000013
0.000013
0.000013
0.000013
0.000013
0.000014
0.000014
0.000014
0.000014
0.000014
0.000014
0.000014
0.000015
0.000015
0.000015
0.000015
0.000015
0.000015
0.000016
0.000016
0.000016
0.000016
0.000017
0.000017
0.000017
0.000017
0.000017
0.000017
0.000018
0.000018
0.000018
0.000018
0.000018
0.000018
0.000019
0.000018
0.000018
0.000018
0.000017
0.000016
0.000013
0.000010
0.000006
0.000000
0.000000
0.000000
0.000000
0.000000
0.000000
0.000000
0.000000
0.000000
0.000000
0.000000
0.000000
0.000054
0.000053
0.000054
0.000021
0.000019
0.000020
-0.000046
-0.000044
-0.000044
-0.000042
0.000049
0.000051
0.000050
0.000052
0.000049
0.000049
0.000045
0.000021
0.000020
0.000021
0.000019
-0.000025
-0.000024
-0.000027
-0.000025
0.000045
-0.000027
-0.000030
-0.000029
0.000051
-0.000029
-0.000025
-0.000027
0.000052
-0.000055
-0.000055
-0.000054
0.000036
0.000039
0.000036
0.000038
-0.000053
-0.000022
-0.000022
-0.000003
-0.000003
-0.000001
-0.000005
0.000028
0.000026
0.000029
0.000025
0.000023
0.000025
0.000024
0.000024
-0.000021
-0.000020
-0.000020
-0.000018
0.000050
0.000049
0.000049
0.000049
-0.000053
-0.000053
0.000006
0.000005
0.000006
0.000008
0.000007
0.000008
0.000005
-0.000030
-0.000032
-0.000030
-0.000038
-0.000038
-0.000040
-0.000039
-0.000032
0.000015
0.000015
0.000025
0.000022
0.000023
0.000020
0.000015
0.000013
0.000014
-0.000058
-0.000059
-0.000058
-0.000059
0.000021
0.000023
0.000026
0.000029
-0.000045
-0.000042
-0.000045
0.000034
0.000036
0.000037
-0.000043
0.000013
-0.000046
-0.000047
-0.000047
0.000035
0.000035
0.000034
-0.000048
0.000034
0.000036
-0.000017
-0.000012
-0.000017
0.000034
-0.000019
-0.000019
-0.000020
-0.000010
-0.000008
-0.000012
-0.000008
-0.000002
-0.000003
-0.000006
-0.000005
-0.000038
-0.000041
-0.000038
-0.000041
-0.000041
-0.000038
-0.000054
-0.000056
-0.000055
-0.000037
0.000025
0.000023
0.000023
0.000044
0.000044
0.000048
-0.000028
-0.000024
-0.000031
0.000055
0.000056
0.000055
0.000039
0.000039
0.000042
0.000042
0.000022
0.000016
0.000018
0.000016
-0.000058
-0.000058
-0.000058
-0.000058
0.000057
0.000058
0.000058
0.000058
0.000055
0.000055
0.000054
0.000052
0.000053
0.000053
0.000055
0.000052
-0.000023
-0.000012
-0.000009
-0.000017
-0.000007
-0.000024
-0.000023
-0.000025
-0.000039
-0.000037
-0.000035
0.000048
0.000049
0.000049
0.000020
-0.000028
-0.000030
-0.000027
-0.000039
-0.000041
-0.000039
0.000030
0.000028
0.000028
0.000045
0.000045
0.000043
0.000047
0.000025
0.000010
0.000008
0.000010
-0.000033
-0.000031
-0.000033
-0.000026
-0.000028
-0.000027
-0.000026
-0.000008
-0.000007
-0.000008
-0.000007
-0.000020
-0.000018
-0.000021
-0.000052
-0.000055
-0.000054
-0.000053
-0.000051
-0.000050
-0.000049
-0.000056
-0.000055
-0.000018
0.000046
0.000043
0.000046
0.000052
0.000002
0.000003
0.000003
-0.000054
-0.000055
-0.000054
0.000035
0.000034
0.000030
0.000036
0.000031
0.000032
0.000034
0.000049
0.000052
0.000051
0.000051
0.000046
0.000048
0.000047
-0.000049
-0.000048
-0.000050
0.000049
-0.000049
-0.000053
-0.000054
-0.000055
-0.000036
-0.000034
-0.000034
-0.000057
-0.000056
-0.000055
-0.000057
0.000058
0.000057
0.000057
0.000058
0.000052
0.000049
0.000052
0.000050
-0.000032
-0.000016
-0.000014
-0.000013
0.000050
0.000048
0.000052
-0.000015
-0.000012
-0.000011
0.000053
0.000054
0.000055
0.000052
0.000054
0.000054
0.000052
0.000055
-0.000009
-0.000039
-0.000036
-0.000036
-0.000031
-0.000026
-0.000030
-0.000034
-0.000050
-0.000048
-0.000050
0.000037
0.000039
0.000039
0.000026
0.000030
-0.000012
-0.000048
-0.000050
-0.000050
-0.000048
-0.000047
-0.000045
-0.000047
0.000049
0.000035
0.000042
0.000039
0.000005
0.000004
0.000007
0.000042
0.000033
0.000035
0.000033
0.000036
-0.000045
-0.000030
-0.000030
-0.000031
-0.000028
0.000028
0.000026
0.000027
0.000046
0.000046
0.000044
0.000027
0.000015
0.000017
-0.000054
-0.000053
-0.000053
0.000002
-0.000052
0.000003
0.000009
0.000005
-0.000030
-0.000029
-0.000026
0.000030
0.000032
0.000031
-0.000024
-0.000023
-0.000017
0.000031
-0.000003
-0.000003
-0.000003
0.000032
0.000030
-0.000027
0.000030
-0.000003
0.000019
0.000018
0.000018
-0.000015
-0.000015
-0.000013
0.000017
-0.000034
-0.000032
-0.000031
0.000045
0.000046
0.000048
-0.000030
0.000044
0.000015
0.000013
0.000013
-0.000010
-0.000007
-0.000011
-0.000037
-0.000039
-0.000033
-0.000006
-0.000022
-0.000022
-0.000016
0.000015
0.000013
0.000014
-0.000040
-0.000041
-0.000038
-0.000039
-0.000025
-0.000023
-0.000022
-0.000011
-0.000013
-0.000021
-0.000002
-0.000001
0.000004
-0.000026
-0.000028
-0.000015
-0.000013
-0.000016
-0.000016
-0.000018
-0.000015
0.000030
0.000036
0.000035
0.000039
0.000015
0.000010
0.000019
0.000008
-0.000042
-0.000044
-0.000046
-0.000000
-0.000000
-0.000000
-0.000034
-0.000035
-0.000038
-0.000018
-0.000021
-0.000023
-0.000045
-0.000048
-0.000048
-0.000027
-0.000030
-0.000029
-0.000028
-0.000026
-0.000028
-0.000027
-0.000045
-0.000042
-0.000042
-0.000040
-0.000023
-0.000021
-0.000023
-0.000022
0.000002
-0.000002
-0.000005
0.000011
0.000008
0.000009
-0.000029
-0.000031
-0.000034
0.000006
0.000018
0.000019
0.000017
0.000004
-0.000001
-0.000000
0.000021
-0.000023
-0.000026
-0.000029
-0.000041
-0.000043
-0.000015
-0.000019
-0.000021
-0.000005
-0.000011
-0.000011
-0.000039
-0.000038
-0.000040
-0.000039
-0.000051
-0.000053
-0.000051
-0.000053
0.000049
0.000048
0.000046
-0.000008
-0.000006
-0.000007
0.000041
0.000043
-0.000006
-0.000024
-0.000022
-0.000024
0.000047
-0.000022
0.000049
0.000049
0.000047
0.000049
0.000048
0.000034
0.000036
0.000035
0.000046
0.000043
0.000041
0.000044
-0.000050
-0.000049
-0.000051
-0.000028
-0.000025
-0.000024
-0.000018
-0.000014
0.000045
-0.000015
-0.000007
-0.000001
-0.000005
-0.000035
-0.000034
0.000036
-0.000031
0.000027
0.000024
-0.000008
-0.000006
-0.000028
-0.000030
-0.000029
-0.000034
-0.000032
-0.000025
-0.000025
-0.000023
-0.000052
-0.000051
-0.000016
-0.000016
-0.000017
-0.000016
-0.000013
-0.000013
-0.000035
0.000050
0.000052
0.000052
0.000008
0.000006
-0.000032
-0.000037
-0.000014
-0.000018
-0.000050
-0.000046
-0.000045
-0.000049
0.000046
0.000048
0.000047
0.000042
-0.000004
-0.000004
-0.000003
0.000047
0.000049
-0.000031
-0.000023
-0.000010
-0.000008
-0.000008
-0.000000
0.000000
0.000000
-0.000000
0.000001
0.000000
0.000034
0.000032
0.000031
0.000029
0.000028
0.000026
0.000026
-0.000015
0.000034
0.000037
0.000034
0.000037
0.000041
0.000042
0.000040
-0.000036
-0.000035
-0.000032
-0.000038
0.000043
-0.000021
-0.000018
0.000021
0.000019
0.000016
0.000022
-0.000011
-0.000007
-0.000014
0.000022
0.000020
0.000022
-0.000013
0.000022
-0.000036
-0.000033
-0.000039
-0.000023
-0.000021
-0.000023
-0.000038
-0.000021
-0.000054
-0.000052
-0.000055
-0.000043
-0.000041
-0.000044
-0.000055
-0.000040
-0.000033
-0.000035
-0.000036
0.000002
0.000002
0.000011
0.000012
0.000012
0.000039
0.000043
0.000040
0.000032
0.000035
0.000032
-0.000024
-0.000019
-0.000021
-0.000022
-0.000046
-0.000042
-0.000044
-0.000044
0.000014
0.000017
0.000015
-0.000057
-0.000055
-0.000055
-0.000027
-0.000023
-0.000028
-0.000012
-0.000013
-0.000014
0.000044
0.000041
0.000042
-0.000044
-0.000041
-0.000043
-0.000040
-0.000018
-0.000016
-0.000020
-0.000012
0.000020
0.000025
0.000024
0.000027
0.000023
-0.000018
-0.000020
0.000052
0.000049
-0.000035
-0.000032
-0.000035
-0.000037
-0.000018
-0.000017
-0.000020
-0.000018
0.000012
0.000013
0.000015
-0.000032
-0.000030
-0.000034
0.000059
0.000059
0.000059
-0.000034
0.000035
0.000031
0.000031
0.000034
0.000013
0.000013
0.000014
-0.000020
-0.000020
0.000035
0.000031
0.000020
0.000024
-0.000005
-0.000005
0.000017
0.000018
0.000018
0.000012
0.000012
0.000011
0.000056
0.000056
0.000011
0.000001
0.000001
-0.000004
0.000033
0.000031
0.000032
-0.000026
-0.000029
0.000032
-0.000048
-0.000050
0.000049
0.000045
0.000047
0.000026
0.000025
0.000022
-0.000051
-0.000054
-0.000052
-0.000054
-0.000055
-0.000056
-0.000057
-0.000058
0.000016
0.000014
0.000014
-0.000057
-0.000056
-0.000024
-0.000026
-0.000023
-0.000024
-0.000022
-0.000025
0.000033
-0.000055
-0.000053
-0.000055
-0.000056
-0.000002
-0.000003
0.000002
-0.000028
-0.000029
-0.000024
-0.000049
-0.000050
-0.000047
0.000034
-0.000004
-0.000007
-0.000002
-0.000005
-0.000028
-0.000031
-0.000026
-0.000029
-0.000048
-0.000047
-0.000045
0.000017
0.000012
0.000012
-0.000015
-0.000017
-0.000019
-0.000038
-0.000040
-0.000042
0.000014
0.000012
0.000012
-0.000054
-0.000054
-0.000055
-0.000057
-0.000058
-0.000057
-0.000058
-0.000057
-0.000055
-0.000055
-0.000057
0.000005
0.000005
0.000003
0.000017
0.000015
0.000011
0.000032
0.000030
0.000033
0.000030
0.000035
0.000031
0.000006
-0.000019
-0.000020
-0.000020
-0.000022
0.000026
0.000026
0.000029
0.000027
-0.000015
-0.000012
-0.000012
0.000041
0.000042
0.000042
0.000043
0.000041
0.000041
0.000039
-0.000057
-0.000057
-0.000052
-0.000051
-0.000051
-0.000053
0.000002
0.000003
0.000003
0.000003
-0.000036
-0.000036
-0.000038
-0.000055
-0.000057
-0.000058
-0.000058
-0.000058
-0.000058
-0.000036
-0.000034
-0.000035
0.000022
0.000022
0.000044
0.000044
0.000045
0.000041
0.000030
0.000030
0.000032
0.000031
0.000027
0.000025
0.000024
0.000023
0.000021
0.000023
0.000016
0.000026
0.000024
0.000059
0.000059
0.000059
0.000016
0.000017
0.000018
0.000025
0.000029
0.000030
0.000055
0.000054
0.000056
0.000028
0.000027
0.000030
-0.000059
-0.000058
0.000019
0.000030
0.000028
-0.000029
-0.000029
-0.000003
-0.000003
-0.000003
-0.000022
-0.000023
-0.000044
-0.000045
-0.000017
-0.000016
-0.000014
-0.000056
-0.000057
-0.000038
-0.000014
0.000040
0.000042
0.000040
0.000042
-0.000044
-0.000045
-0.000042
-0.000047
0.000046
0.000048
0.000046
0.000019
0.000018
-0.000026
-0.000024
-0.000023
-0.000022
-0.000044
-0.000042
-0.000043
-0.000041
-0.000006
-0.000005
-0.000004
-0.000003
-0.000028
-0.000028
-0.000031
-0.000033
0.000007
0.000007
0.000008
0.000008
0.000006
0.000006
-0.000058
-0.000058
-0.000058
-0.000057
0.000058
0.000058
0.000059
0.000058
-0.000034
-0.000032
-0.000031
0.000047
0.000048
0.000050
0.000001
0.000006
-0.000001
-0.000024
-0.000025
-0.000022
0.000002
0.000003
0.000003
-0.000023
-0.000022
-0.000020
-0.000003
0.000004
0.000004
0.000005
0.000003
0.000058
0.000058
0.000057
0.000057
0.000001
-0.000018
-0.000023
-0.000016
-0.000019
-0.000001
-0.000030
0.000006
0.000009
0.000003
0.000002
-0.000010
0.000008
0.000010
0.000007
-0.000041
-0.000045
-0.000041
-0.000043
0.000010
-0.000003
-0.000002
-0.000001
-0.000056
-0.000057
-0.000056
-0.000057
-0.000003
-0.000004
-0.000005
0.000013
0.000014
0.000012
-0.000037
-0.000034
-0.000020
-0.000022
-0.000023
0.000005
0.000003
0.000005
0.000027
0.000030
0.000024
0.000024
0.000026
-0.000021
-0.000020
-0.000018
0.000034
0.000038
0.000021
0.000041
0.000043
0.000038
0.000040
-0.000042
-0.000044
-0.000044
0.000019
0.000019
0.000021
-0.000053
0.000006
0.000009
-0.000043
-0.000040
-0.000039
0.000008
0.000012
0.000017
-0.000058
-0.000059
-0.000059
0.000025
0.000028
0.000029
-0.000007
-0.000005
-0.000006
0.000059
0.000059
0.000001
0.000002
-0.000019
-0.000019
-0.000021
0.000001
0.000001
0.000001
-0.000016
-0.000012
-0.000015
0.000051
0.000003
0.000050
0.000055
0.000054
-0.000003
-0.000005
-0.000003
0.000056
0.000057
0.000051
0.000052
0.000051
0.000044
0.000054
0.000053
0.000055
0.000055
0.000054
0.000053
0.000008
0.000007
0.000005
0.000001
0.000052
-0.000002
-0.000005
-0.000001
-0.000007
-0.000033
-0.000052
0.000012
-0.000053
0.000057
0.000056
-0.000012
0.000056
0.000056
0.000001
0.000001
-0.000058
-0.000001
-0.000017
0.000034
0.000031
0.000032
0.000030
0.000053
-0.000026
-0.000024
-0.000024
-0.000007
0.000005
-0.000022
-0.000024
-0.000023
0.000014
0.000011
0.000014
0.000003
0.000004
0.000011
0.000000
-0.000000
-0.000004
-0.000003
0.000017
0.000019
0.000018
-0.000008
-0.000011
-0.000015
-0.000012
-0.000014
0.000012
0.000008
-0.000049
-0.000047
-0.000049
0.000014
0.000012
0.000019
0.000032
0.000032
0.000029
0.000018
0.000020
0.000018
0.000021
0.000035
0.000033
0.000036
0.000034
0.000037
0.000034
0.000035
0.000040
0.000012
0.000009
-0.000024
-0.000024
-0.000025
-0.000010
-0.000012
0.000005
0.000002
0.000007
-0.000022
-0.000022
-0.000002
-0.000005
-0.000007
0.000044
0.000044
-0.000038
-0.000040
-0.000038
-0.000042
0.000009
-0.000014
-0.000013
-0.000009
0.000018
0.000015
0.000029
-0.000019
-0.000020
-0.000018
-0.000020
0.000006
0.000006
0.000007
0.000006
0.000010
0.000005
0.000008
-0.000011
-0.000008
0.000018
0.000020
0.000018
0.000021
0.000016
0.000015
0.000010
0.000011
-0.000013
-0.000018
-0.000014
0.000009
-0.000015
-0.000015
-0.000014
-0.000018
-0.000010
0.000048
0.000046
-0.000006
-0.000009
-0.000007
-0.000013
0.000044
0.000041
0.000043
0.000038
0.000038
0.000040
-0.000009
0.000042
0.000040
-0.000019
-0.000020
-0.000021
0.000038
0.000036
-0.000019
-0.000017
-0.000020
0.000030
0.000033
-0.000016
-0.000029
-0.000028
-0.000032
-0.000025
-0.000024
-0.000025
-0.000024
0.000003
0.000005
-0.000022
-0.000024
-0.000020
-0.000023
-0.000025
-0.000003
-0.000023
0.000025
-0.000020
0.000024
0.000026
0.000022
-0.000006
-0.000005
-0.000005
-0.000005
-0.000007
-0.000006
-0.000006
-0.000016
-0.000014
-0.000013
0.000035
0.000036
0.000038
0.000039
0.000031
0.000011
0.000030
0.000032
0.000026
0.000017
0.000017
0.000010
-0.000037
-0.000035
-0.000036
0.000033
0.000031
0.000034
0.000030
0.000040
0.000039
0.000041
0.000037
0.000033
0.000031
0.000032
0.000029
-0.000043
-0.000046
-0.000044
-0.000047
0.000021
0.000022
0.000032
0.000032
0.000030
0.000030
-0.000001
-0.000000
0.000024
0.000021
0.000026
0.000022
0.000015
0.000015
-0.000016
0.000019
0.000020
0.000020
0.000016
0.000016
0.000021
0.000018
0.000017
-0.000008
-0.000009
0.000000
0.000001
-0.000000
-0.000000
-0.000001
0.000000
-0.000018
-0.000017
-0.000017
-0.000024
-0.000026
-0.000025
0.000008
-0.000025
-0.000023
-0.000023
-0.000010
0.000018
-0.000009
-0.000010
-0.000011
-0.000009
-0.000043
-0.000046
-0.000046
0.000019
0.000020
-0.000026
-0.000029
-0.000029
-0.000026
0.000037
0.000034
0.000036
0.000033
-0.000020
-0.000021
-0.000017
-0.000040
-0.000043
-0.000042
-0.000041
0.000054
0.000053
-0.000024
-0.000026
0.000056
0.000054
-0.000056
-0.000055
0.000018
0.000020
0.000052
0.000050
0.000051
-0.000050
-0.000011
-0.000012
-0.000009
0.000022
0.000018
0.000021
0.000023
-0.000004
0.000019
0.000017
0.000018
0.000016
0.000018
0.000015
0.000055
0.000056
0.000051
0.000052
0.000050
0.000053
0.000055
0.000047
0.000049
0.000032
0.000031
-0.000057
0.000028
0.000030
0.000002
0.000001
-0.000000
-0.000015
-0.000015
-0.000000
0.000001
0.000002
0.000023
0.000019
0.000020
0.000016
0.000021
0.000017
-0.000016
0.000021
0.000028
0.000027
-0.000026
0.000027
-0.000047
0.000026
-0.000057
-0.000057
-0.000018
-0.000018
-0.000019
-0.000017
-0.000015
-0.000020
-0.000020
-0.000018
0.000023
0.000024
0.000024
-0.000017
-0.000034
-0.000031
-0.000033
-0.000032
0.000041
0.000041
-0.000050
-0.000049
-0.000050
-0.000048
-0.000011
-0.000010
-0.000013
-0.000012
-0.000010
-0.000010
0.000033
0.000005
0.000005
0.000005
0.000004
0.000017
0.000019
0.000009
0.000008
0.000009
0.000016
0.000010
0.000008
0.000009
0.000014
0.000011
0.000012
-0.000054
-0.000053
-0.000021
-0.000022
-0.000019
0.000043
0.000046
0.000046
0.000048
0.000041
0.000041
0.000039
-0.000029
-0.000031
-0.000028
-0.000032
-0.000028
-0.000025
-0.000024
-0.000042
-0.000045
-0.000043
-0.000046
-0.000039
-0.000041
-0.000038
0.000033
0.000019
0.000020
0.000021
0.000023
0.000029
0.000030
0.000033
0.000017
0.000019
0.000016
0.000017
0.000018
0.000018
-0.000051
-0.000018
-0.000020
-0.000018
0.000007
0.000007
0.000010
0.000009
0.000008
0.000009
0.000042
0.000040
0.000040
0.000038
0.000000
-0.000001
-0.000001
-0.000001
0.000022
0.000022
-0.000019
-0.000025
-0.000028
-0.000026
-0.000028
-0.000027
-0.000024
-0.000024
-0.000011
-0.000013
-0.000011
-0.000012
-0.000012
-0.000011
-0.000011
0.000017
0.000021
-0.000038
-0.000040
-0.000038
-0.000040
-0.000035
-0.000037
0.000006
-0.000034
-0.000000
0.000004
0.000036
0.000038
0.000050
0.000040
0.000034
0.000035
0.000026
0.000029
0.000025
0.000031
0.000042
0.000055
0.000055
0.000048
0.000050
0.000036
-0.000035
-0.000038
-0.000036
0.000041
0.000044
-0.000033
-0.000032
-0.000031
-0.000028
0.000027
0.000026
0.000028
-0.000033
-0.000034
-0.000035
0.000024
0.000018
0.000018
0.000020
0.000008
0.000008
0.000009
0.000007
-0.000016
-0.000016
0.000016
0.000016
-0.000024
-0.000022
-0.000020
-0.000023
-0.000021
-0.000026
-0.000004
0.000023
0.000022
0.000023
-0.000007
-0.000009
-0.000007
0.000046
0.000044
0.000047
0.000044
-0.000010
-0.000034
-0.000030
-0.000032
-0.000033
-0.000035
-0.000034
0.000008
0.000016
0.000017
0.000018
0.000016
0.000020
-0.000034
-0.000038
-0.000035
0.000003
0.000002
0.000003
-0.000037
-0.000040
0.000020
0.000022
-0.000028
-0.000032
-0.000030
0.000003
-0.000034
-0.000035
-0.000012
-0.000014
-0.000014
0.000003
-0.000016
-0.000016
0.000002
-0.000000
0.000000
-0.000017
-0.000017
-0.000019
-0.000016
-0.000015
-0.000014
-0.000017
0.000002
0.000002
0.000001
0.000002
-0.000024
-0.000021
-0.000019
-0.000020
-0.000021
-0.000017
0.000014
0.000012
0.000010
-0.000037
-0.000036
-0.000023
-0.000023
-0.000026
0.000022
0.000023
-0.000008
-0.000007
0.000009
-0.000032
-0.000032
-0.000035
-0.000016
-0.000017
-0.000019
0.000024
0.000024
0.000027
-0.000019
0.000020
-0.000004
-0.000005
-0.000006
0.000020
0.000029
0.000029
-0.000017
-0.000016
-0.000016
0.000035
0.000037
0.000036
0.000045
0.000045
0.000033
0.000004
0.000003
0.000003
0.000004
0.000012
0.000014
0.000010
0.000011
0.000016
0.000017
-0.000036
0.000045
0.000031
0.000003
0.000019