# vtk DataFile Version 2.0
Test
ASCII
DATASET POLYDATA
POINTS 1818 float
0.000000 0.000000 0.000000
1.000000 0.000000 0.000000
1.000000 1.000000 0.000000
0.000000 1.000000 0.000000
0.300000 0.330000 0.000000
0.700000 0.680000 0.000000
0.058824 0.000000 0.000000
0.117647 0.000000 0.000000
0.176471 0.000000 0.000000
0.235294 0.000000 0.000000
0.294118 0.000000 0.000000
0.352941 0.000000 0.000000
0.411765 0.000000 0.000000
0.470588 0.000000 0.000000
0.529412 0.000000 0.000000
0.588235 0.000000 0.000000
0.647059 0.000000 0.000000
0.705882 0.000000 0.000000
0.764706 0.000000 0.000000
0.823529 0.000000 0.000000
0.882353 0.000000 0.000000
0.941176 0.000000 0.000000
1.000000 0.058824 0.000000
1.000000 0.117647 0.000000
1.000000 0.176471 0.000000
1.000000 0.235294 0.000000
1.000000 0.294118 0.000000
1.000000 0.352941 0.000000
1.000000 0.411765 0.000000
1.000000 0.470588 0.000000
1.000000 0.529412 0.000000
1.000000 0.588235 0.000000
1.000000 0.647059 0.000000
1.000000 0.705882 0.000000
1.000000 0.764706 0.000000
1.000000 0.823529 0.000000
1.000000 0.882353 0.000000
1.000000 0.941176 0.000000
0.941176 1.000000 0.000000
0.882353 1.000000 0.000000
0.823529 1.000000 0.000000
0.764706 1.000000 0.000000
0.705882 1.000000 0.000000
0.647059 1.000000 0.000000
0.588235 1.000000 0.000000
0.529412 1.000000 0.000000
0.470588 1.000000 0.000000
0.411765 1.000000 0.000000
0.352941 1.000000 0.000000
0.294118 1.000000 0.000000
0.235294 1.000000 0.000000
0.176471 1.000000 0.000000
0.117647 1.000000 0.000000
0.058824 1.000000 0.000000
0.000000 0.941176 0.000000
0.000000 0.882353 0.000000
0.000000 0.823529 0.000000
0.000000 0.764706 0.000000
0.000000 0.705882 0.000000
0.000000 0.647059 0.000000
0.000000 0.588235 0.000000
0.000000 0.529412 0.000000
0.000000 0.470588 0.000000
0.000000 0.411765 0.000000
0.000000 0.352941 0.000000
0.000000 0.294118 0.000000
0.000000 0.235294 0.000000
0.000000 0.176471 0.000000
0.000000 0.117647 0.000000
0.000000 0.058824 0.000000
0.305970 0.335224 0.000000
0.311940 0.340448 0.000000
0.317910 0.345672 0.000000
0.323881 0.350896 0.000000
0.329851 0.356119 0.000000
0.335821 0.361343 0.000000
0.341791 0.366567 0.000000
0.347761 0.371791 0.000000
0.353731 0.377015 0.000000
0.359701 0.382239 0.000000
0.365672 0.387463 0.000000
0.371642 0.392687 0.000000
0.377612 0.397910 0.000000
0.383582 0.403134 0.000000
0.389552 0.408358 0.000000
0.395522 0.413582 0.000000
0.401493 0.418806 0.000000
0.407463 0.424030 0.000000
0.413433 0.429254 0.000000
0.419403 0.434478 0.000000
0.425373 0.439701 0.000000
0.431343 0.444925 0.000000
0.437313 0.450149 0.000000
0.443284 0.455373 0.000000
0.449254 0.460597 0.000000
0.455224 0.465821 0.000000
0.461194 0.471045 0.000000
0.467164 0.476269 0.000000
0.473134 0.481493 0.000000
0.479104 0.486716 0.000000
0.485075 0.491940 0.000000
0.491045 0.497164 0.000000
0.497015 0.502388 0.000000
0.502985 0.507612 0.000000
0.508955 0.512836 0.000000
0.514925 0.518060 0.000000
0.520896 0.523284 0.000000
0.526866 0.528507 0.000000
0.532836 0.533731 0.000000
0.538806 0.538955 0.000000
0.544776 0.544179 0.000000
0.550746 0.549403 0.000000
0.556716 0.554627 0.000000
0.562687 0.559851 0.000000
0.568657 0.565075 0.000000
0.574627 0.570299 0.000000
0.580597 0.575522 0.000000
0.586567 0.580746 0.000000
0.592537 0.585970 0.000000
0.598507 0.591194 0.000000
0.604478 0.596418 0.000000
0.610448 0.601642 0.000000
0.616418 0.606866 0.000000
0.622388 0.612090 0.000000
0.628358 0.617313 0.000000
0.634328 0.622537 0.000000
0.640299 0.627761 0.000000
0.646269 0.632985 0.000000
0.652239 0.638209 0.000000
0.658209 0.643433 0.000000
0.664179 0.648657 0.000000
0.670149 0.653881 0.000000
0.676119 0.659104 0.000000
0.682090 0.664328 0.000000
0.688060 0.669552 0.000000
0.694030 0.674776 0.000000
0.516135 0.080917 0.000000
0.549338 0.042552 0.000000
0.567302 0.088709 0.000000
0.555658 0.563778 0.000000
0.559301 0.571359 0.000000
0.552318 0.570919 0.000000
0.603235 0.047100 0.000000
0.446553 0.448087 0.000000
0.438652 0.443189 0.000000
0.445116 0.440368 0.000000
0.437254 0.190586 0.000000
0.465954 0.201747 0.000000
0.439184 0.213838 0.000000
0.453137 0.228102 0.000000
0.522423 0.410182 0.000000
0.522098 0.390982 0.000000
0.537289 0.398500 0.000000
0.453388 0.527105 0.000000
0.462022 0.524948 0.000000
0.461218 0.533993 0.000000
0.324300 0.374550 0.000000
0.319287 0.386214 0.000000
0.314834 0.375138 0.000000
0.668809 0.628853 0.000000
0.677366 0.632907 0.000000
0.668274 0.639611 0.000000
0.469934 0.529282 0.000000
0.439703 0.436699 0.000000
0.446608 0.432083 0.000000
0.542854 0.633425 0.000000
0.535117 0.647070 0.000000
0.524302 0.633157 0.000000
0.519372 0.648877 0.000000
0.586338 0.611293 0.000000
0.591638 0.624149 0.000000
0.575478 0.621479 0.000000
0.437962 0.035513 0.000000
0.421505 0.085456 0.000000
0.394924 0.044162 0.000000
0.445207 0.955749 0.000000
0.429168 0.919510 0.000000
0.464409 0.914226 0.000000
0.317150 0.400904 0.000000
0.328626 0.395860 0.000000
0.439616 0.884412 0.000000
0.330406 0.381773 0.000000
0.676842 0.602700 0.000000
0.674982 0.614185 0.000000
0.665930 0.611798 0.000000
0.414707 0.535036 0.000000
0.420123 0.526072 0.000000
0.425338 0.533771 0.000000
0.398407 0.375558 0.000000
0.393804 0.363255 0.000000
0.407284 0.365452 0.000000
0.407758 0.523337 0.000000
0.899969 0.377867 0.000000
0.945915 0.378245 0.000000
0.914158 0.409130 0.000000
0.358219 0.436142 0.000000
0.361390 0.425428 0.000000
0.369309 0.432300 0.000000
0.465999 0.075074 0.000000
0.269944 0.367761 0.000000
0.266521 0.352125 0.000000
0.283474 0.357667 0.000000
0.385889 0.083020 0.000000
0.359482 0.060981 0.000000
0.279658 0.346766 0.000000
0.363604 0.104040 0.000000
0.511115 0.503731 0.000000
0.503243 0.499914 0.000000
0.509146 0.494910 0.000000
0.513188 0.475753 0.000000
0.504957 0.474656 0.000000
0.511959 0.464784 0.000000
0.311863 0.447505 0.000000
0.293019 0.442078 0.000000
0.305555 0.431691 0.000000
0.499204 0.464990 0.000000
0.293855 0.459576 0.000000
0.396676 0.236328 0.000000
0.371014 0.247362 0.000000
0.373003 0.229199 0.000000
0.384478 0.261522 0.000000
0.555704 0.523331 0.000000
0.551313 0.515879 0.000000
0.562752 0.515269 0.000000
0.554954 0.506854 0.000000
0.804236 0.611103 0.000000
0.819351 0.593503 0.000000
0.832061 0.615776 0.000000
0.509908 0.485173 0.000000
0.129738 0.481190 0.000000
0.110722 0.443736 0.000000
0.154857 0.452634 0.000000
0.089738 0.485299 0.000000
0.396427 0.153886 0.000000
0.393058 0.115469 0.000000
0.420333 0.126587 0.000000
0.442628 0.413512 0.000000
0.434815 0.404283 0.000000
0.446816 0.400259 0.000000
0.499770 0.482873 0.000000
0.353883 0.235057 0.000000
0.351360 0.254011 0.000000
0.332147 0.240870 0.000000
0.112307 0.405527 0.000000
0.140355 0.392788 0.000000
0.142004 0.423465 0.000000
0.334868 0.263052 0.000000
0.551239 0.594093 0.000000
0.560217 0.601969 0.000000
0.546711 0.604614 0.000000
0.398510 0.570197 0.000000
0.387124 0.557316 0.000000
0.399978 0.555748 0.000000
0.705281 0.743146 0.000000
0.722930 0.758853 0.000000
0.697202 0.758074 0.000000
0.380190 0.572638 0.000000
0.278345 0.431947 0.000000
0.292575 0.428097 0.000000
0.470820 0.540616 0.000000
0.478213 0.533042 0.000000
0.480161 0.543190 0.000000
0.415268 0.299334 0.000000
0.412465 0.313515 0.000000
0.400419 0.297680 0.000000
0.396495 0.317117 0.000000
0.718655 0.732879 0.000000
0.709319 0.677587 0.000000
0.715709 0.670111 0.000000
0.719283 0.682820 0.000000
0.212992 0.453899 0.000000
0.184619 0.470046 0.000000
0.186665 0.440862 0.000000
0.452307 0.386568 0.000000
0.460371 0.397715 0.000000
0.478664 0.456068 0.000000
0.476179 0.462123 0.000000
0.471250 0.456445 0.000000
0.464654 0.388544 0.000000
0.483415 0.461045 0.000000
0.357146 0.449596 0.000000
0.344653 0.443966 0.000000
0.554562 0.459423 0.000000
0.543333 0.457517 0.000000
0.553850 0.449505 0.000000
0.543131 0.445036 0.000000
0.347312 0.459318 0.000000
0.781088 0.538918 0.000000
0.810909 0.534152 0.000000
0.799399 0.553968 0.000000
0.402869 0.534333 0.000000
0.408011 0.546121 0.000000
0.703844 0.670118 0.000000
0.552234 0.794299 0.000000
0.528593 0.795589 0.000000
0.539188 0.770312 0.000000
0.596088 0.518714 0.000000
0.593029 0.508081 0.000000
0.604120 0.510731 0.000000
0.384880 0.468703 0.000000
0.382270 0.455963 0.000000
0.394062 0.458803 0.000000
0.374729 0.466839 0.000000
0.340939 0.294790 0.000000
0.324530 0.290188 0.000000
0.338473 0.279923 0.000000
0.465367 0.336545 0.000000
0.477337 0.352846 0.000000
0.459495 0.350024 0.000000
0.584947 0.516440 0.000000
0.326802 0.302636 0.000000
0.945343 0.420397 0.000000
0.779746 0.749037 0.000000
0.771533 0.774140 0.000000
0.758291 0.749848 0.000000
0.743435 0.765852 0.000000
0.751942 0.297541 0.000000
0.784264 0.292048 0.000000
0.772562 0.330207 0.000000
0.812744 0.305799 0.000000
0.655547 0.494535 0.000000
0.649767 0.472522 0.000000
0.671966 0.480244 0.000000
0.612062 0.502007 0.000000
0.616789 0.515227 0.000000
0.403059 0.898561 0.000000
0.391512 0.946883 0.000000
0.625780 0.504699 0.000000
0.635988 0.491275 0.000000
0.596252 0.650380 0.000000
0.583401 0.655132 0.000000
0.583737 0.644777 0.000000
0.713099 0.416502 0.000000
0.708474 0.388943 0.000000
0.733625 0.389568 0.000000
0.684835 0.406222 0.000000
0.656936 0.416423 0.000000
0.633624 0.425116 0.000000
0.634362 0.400237 0.000000
0.646884 0.740682 0.000000
0.654954 0.726002 0.000000
0.663305 0.741855 0.000000
0.732481 0.441235 0.000000
0.751303 0.460839 0.000000
0.721338 0.462235 0.000000
0.759622 0.437863 0.000000
0.462761 0.363156 0.000000
0.373644 0.622389 0.000000
0.346217 0.613642 0.000000
0.370315 0.594521 0.000000
0.351411 0.640635 0.000000
0.695337 0.690220 0.000000
0.705202 0.700133 0.000000
0.692303 0.700990 0.000000
0.521365 0.516400 0.000000
0.522992 0.510597 0.000000
0.527633 0.513574 0.000000
0.291567 0.329512 0.000000
0.294927 0.318154 0.000000
0.365771 0.366553 0.000000
0.366135 0.358691 0.000000
0.374180 0.368122 0.000000
0.408232 0.327056 0.000000
0.423479 0.328280 0.000000
0.411272 0.339740 0.000000
0.664110 0.670607 0.000000
0.667245 0.662649 0.000000
[...]
POINT_DATA 1818
SCALARS UX float 1
LOOKUP_TABLE default
-0.000000
0.000000
0.023664
-0.059064
-0.024145
0.011437
0.000000
-0.000000
-0.000000
-0.000000
-0.000000
-0.000000
-0.000000
-0.000000
-0.000000
-0.000000
0.000000
0.000000
0.000000
0.000000
0.000000
0.000000
0.014305
0.021875
0.027521
0.032417
0.036458
0.039920
0.042848
0.045008
0.046298
0.046432
0.044918
0.042293
0.038273
0.033471
0.028727
0.025627
0.016504
0.010432
0.005357
0.000966
-0.002824
-0.006279
-0.009796
-0.013577
-0.017788
-0.022403
-0.027287
-0.032367
-0.037563
-0.042822
-0.048089
-0.053579
-0.058722
-0.058726
-0.059170
-0.059828
-0.060671
-0.061513
-0.062189
-0.062382
-0.061629
-0.059656
-0.056234
-0.051051
-0.044228
-0.036296
-0.027131
-0.017647
-0.023264
-0.022490
-0.021941
-0.022359
-0.021165
-0.020559
-0.019785
-0.019405
-0.018781
-0.018172
-0.017868
-0.017314
-0.017263
-0.017519
-0.016927
-0.016789
-0.016922
-0.016475
-0.016066
-0.015552
-0.015092
-0.014611
-0.014201
-0.013569
-0.013038
-0.012631
-0.011950
-0.011297
-0.010983
-0.010397
-0.010128
-0.009699
-0.008969
-0.008471
-0.007237
-0.006560
-0.005874
-0.004825
-0.004275
-0.003089
-0.002505
-0.001742
-0.001287
-0.000843
-0.000441
-0.000033
0.000271
0.000857
0.001194
0.001584
0.002256
0.002514
0.002833
0.003457
0.003817
0.004369
0.004764
0.005108
0.005583
0.006096
0.007014
0.007583
0.008404
0.009466
0.009993
0.010959
-0.000638
-0.000169
0.000222
-0.016214
-0.017328
-0.019710
0.000355
-0.001031
-0.003274
0.001349
-0.003331
-0.002230
-0.003385
-0.002693
0.008636
0.007475
0.008707
-0.031156
-0.030590
-0.030431
-0.035187
-0.037413
-0.036232
0.021064
0.022131
0.017872
-0.029896
0.000410
0.003677
-0.020007
-0.019681
-0.021335
-0.020687
-0.016632
-0.016112
-0.018004
-0.000730
-0.001861
-0.001089
-0.019574
-0.020849
-0.018052
-0.038687
-0.037458
-0.020170
-0.035440
0.023949
0.023325
0.022702
-0.033052
-0.033101
-0.032529
-0.001401
-0.002159
-0.000849
-0.033862
0.034042
0.037519
0.036733
-0.037368
-0.036679
-0.036418
-0.001213
-0.040184
-0.038765
-0.037771
-0.002128
-0.001682
-0.036156
-0.003000
0.004954
0.001706
0.007565
0.011112
0.010259
0.010839
-0.040265
-0.041394
-0.040466
0.009672
-0.041430
-0.005600
-0.007179
-0.006729
-0.006393
0.014557
0.014331
0.015677
0.014906
0.033380
0.034606
0.035059
0.010377
-0.053536
-0.054209
-0.051434
-0.056325
-0.003928
-0.002952
-0.002757
0.003797
0.002804
0.003709
0.008392
-0.007889
-0.008561
-0.009323
-0.052605
-0.050130
-0.051507
-0.010000
-0.021283
-0.020174
-0.021376
-0.032508
-0.033709
-0.033024
0.002444
0.003920
0.000870
-0.033539
-0.042262
-0.041213
-0.029601
-0.029167
-0.028878
-0.003439
-0.003038
-0.004532
-0.004041
0.005297
0.017433
0.021403
0.018491
-0.047294
-0.049480
-0.049023
0.003396
0.004504
0.007295
0.006114
0.005962
0.004248
0.007763
-0.037687
-0.038335
0.013129
0.012446
0.012548
0.011746
-0.038260
0.031113
0.033362
0.032892
-0.033715
-0.032972
0.018406
-0.011881
-0.013826
-0.013448
0.018040
0.017473
0.018193
-0.036204
-0.036259
-0.035491
-0.036775
-0.010040
-0.011941
-0.010198
0.001354
0.002896
0.001746
0.017285
-0.011883
0.039513
0.014668
0.009926
0.010609
0.006371
0.017243
0.019360
0.020829
0.022531
0.020386
0.019023
0.020799
0.018250
0.019059
-0.023083
-0.023881
0.019110
0.019073
-0.014518
-0.015382
-0.016008
0.020787
0.019040
0.021026
0.018150
0.016700
0.015620
0.014364
-0.004145
-0.003452
-0.002386
0.023496
0.025893
0.023567
0.025545
0.002669
-0.032106
-0.034441
-0.033376
-0.033154
0.005756
0.007139
0.003406
0.002662
0.006933
0.007956
-0.028077
-0.021512
-0.006600
-0.005461
-0.004361
-0.002705
-0.001603
-0.001844
-0.002721
0.000335
0.001184
-0.036635
-0.036848
-0.037580
-0.037706
-0.005608
-0.007563
-0.010017
0.004705
0.003204
0.004647
0.004575
-0.011797
-0.013047
-0.010631
-0.002141
-0.005491
-0.006206
-0.025756
-0.026074
-0.027012
-0.006130
-0.010445
-0.010167
-0.002107
0.002677
0.004959
0.001505
0.003389
-0.007917
-0.004304
-0.027162
-0.024639
-0.023752
-0.027381
-0.043588
-0.041922
-0.042875
-0.037098
-0.038613
-0.037344
-0.006194
-0.005947
-0.019476
0.016843
0.016849
-0.038960
-0.038678
-0.037808
-0.019177
-0.044671
-0.041548
-0.040551
-0.038590
-0.034226
-0.026429
-0.026907
-0.027135
-0.025864
-0.028510
-0.027015
0.023925
0.023329
0.022468
0.025370
-0.040434
-0.039741
-0.039239
-0.022714
-0.026861
-0.021292
-0.017456
-0.015326
-0.012299
-0.007679
-0.020314
-0.024055
-0.027714
0.023269
0.019334
-0.029379
-0.029069
-0.028340
-0.009876
-0.013848
-0.013930
-0.028231
-0.028662
-0.028202
-0.015405
-0.013834
-0.013965
-0.027801
-0.030800
-0.005238
-0.005809
-0.008832
-0.009026
-0.007593
-0.010365
0.012198
0.012014
0.010623
-0.059206
-0.060020
-0.057235
-0.050692
-0.047837
-0.049644
-0.048516
-0.005344
-0.007905
-0.011748
-0.012437
-0.024417
-0.025614
-0.024618
-0.026136
-0.022952
-0.023878
-0.022615
-0.034311
-0.035111
-0.034098
-0.034219
-0.034026
-0.034693
-0.034264
-0.030042
-0.000344
-0.003929
-0.003999
0.007310
0.005558
0.006162
0.006589
0.027886
0.024704
0.025958
0.030108
0.030923
-0.027754
-0.029273
-0.032201
0.014691
0.015156
0.009629
-0.031713
-0.030944
-0.031929
-0.011648
-0.008279
-0.029875
-0.009640
-0.012527
-0.013449
0.005255
0.006313
0.005442
0.014872
0.015364
0.015644
-0.008663
-0.009007
-0.012605
0.016168
-0.042024
-0.039104
-0.044926
-0.041786
-0.044848
0.003972
0.005221
0.012252
0.013149
0.012402
0.013155
0.011345
-0.056763
-0.007310
-0.005482
-0.007486
-0.005526
-0.037380
-0.039995
-0.034997
0.016319
0.017827
0.019597
-0.007658
0.010032
0.007663
0.013776
0.013847
-0.004041
-0.001884
-0.002270
-0.038612
-0.037803
-0.037699
-0.013993
-0.015466
-0.055658
0.013873
0.014868
0.014412
0.002486
0.002138
-0.017627
-0.016851
-0.015344
0.002679
0.015538
-0.040235
-0.041049
-0.041347
-0.034065
-0.032340
-0.032412
0.006403
0.011791
0.008423
0.010909
0.002482
0.015783
0.015148
-0.027499
-0.021789
-0.023437
-0.003098
-0.002140
-0.041083
-0.040150
-0.039430
-0.003014
-0.000186
-0.000802
-0.001274
-0.041142
-0.042783
-0.042282
-0.019747
-0.023912
-0.017164
-0.011239
-0.011904
-0.013851
-0.039321
-0.033875
0.013603
-0.039027
-0.042138
0.012617
0.013952
0.015064
-0.036750
0.013231
0.011532
-0.025303
-0.024567
0.025286
0.027065
0.026619
-0.026435
0.011176
0.011719
0.019694
-0.031684
-0.031882
-0.030897
-0.023614
-0.022322
-0.012299
-0.032754
0.004747
0.005834
-0.032727
-0.016869
-0.018413
-0.016790
-0.018231
0.033869
0.030948
0.031339
0.015804
0.011963
0.010070
-0.020337
-0.018944
-0.017556
-0.006988
-0.005601
0.008818
0.002095
0.003504
0.006027
-0.000198
-0.038782
-0.038393
-0.003479
-0.003135
-0.034718
0.021738
0.025406
0.020867
0.041763
0.025975
0.005557
0.006594
0.007298
-0.038911
0.006719
-0.000780
-0.000430
0.000314
-0.019599
-0.026030
-0.018137
-0.016915
0.017223
-0.032827
-0.029742
-0.038652
-0.039415
-0.038966
-0.029963
-0.029029
-0.029223
-0.032703
0.026466
0.025284
0.027083
-0.028232
-0.002320
0.034193
0.020216
0.020039
0.008590
0.013323
0.008089
0.014109
0.011727
0.015474
-0.001737
-0.030655
-0.008631
-0.032502
-0.034693
-0.039722
-0.042334
-0.000024
0.000982
-0.015028
-0.018290
0.011827
-0.003234
-0.053919
-0.005048
-0.037605
-0.037010
-0.034703
-0.005788
0.026225
0.025284
0.024538
0.024207
0.000497
-0.000980
-0.012963
-0.012581
-0.011168
0.023215
0.023468
0.022506
0.022410
0.024794
0.026196
-0.035744
-0.035984
0.031759
-0.054501
-0.048555
-0.051672
0.028579
0.027635
0.026568
-0.013240
-0.014725
-0.011818
0.029249
0.034263
0.020652
0.015012
0.017855
0.011689
-0.016243
0.008346
0.007820
0.006665
0.026282
0.029203
0.028350
-0.040800
-0.044011
-0.045589
0.031368
-0.027234
-0.025113
-0.030331
-0.031038
-0.031876
-0.038842
0.004551
0.003056
0.008048
0.038843
0.040109
0.042527
0.036156
0.031963
0.038384
0.036897
-0.009432
-0.009345
-0.050816
-0.045629
-0.046292
-0.010978
0.007788
-0.001490
-0.049958
-0.050161
-0.053134
-0.042673
-0.042620
-0.056351
0.006312
-0.000477
-0.029037
-0.002974
-0.028229
-0.025340
-0.025209
0.042418
0.044206
-0.002745
-0.002935
0.000137
0.009899
0.006429
0.011932
0.004316
-0.000138
0.008498
-0.004160
-0.005313
-0.028348
-0.033936
-0.035010
-0.029982
-0.041153
-0.042404
-0.042291
-0.059259
-0.058427
-0.002885
-0.004404
-0.002327
-0.004389
-0.004880
-0.006287
-0.004484
-0.005365
-0.055339
-0.001299
-0.002003
-0.014431
-0.016923
-0.016890
0.042652
0.039728
-0.043974
0.030678
0.029487
0.029250
0.030942
-0.051955
-0.051304
-0.049526
0.032526
-0.001257
0.037234
0.001209
-0.000752
-0.003050
-0.004051
-0.018077
0.001021
-0.001817
-0.008327
-0.006886
-0.006538
0.019662
0.015126
-0.008124
-0.022371
-0.022412
-0.004333
-0.018591
0.012339
0.014750
0.011987
0.016053
-0.039565
-0.039531
-0.025706
-0.015494
-0.002304
-0.004585
0.004680
0.003727
0.002504
-0.003595
-0.008467
-0.048549
-0.045676
-0.047590
-0.046487
-0.017580
-0.049691
-0.048913
-0.052002
-0.047421
-0.047816
-0.022614
-0.021247
-0.025703
-0.023188
-0.022343
-0.012912
-0.010675
-0.010937
-0.008587
-0.053401
-0.057832
-0.051526
0.008406
0.007478
0.007832
-0.024676
-0.025890
-0.000093
-0.001086
-0.045766
-0.047484
-0.045508
-0.036708
-0.036180
-0.035383
-0.020473
-0.022942
-0.044301
0.009005
0.004467
0.002761
-0.035725
-0.034192
-0.032409
-0.035308
-0.036889
-0.049825
0.017679
0.014759
-0.038565
-0.038911
-0.040583
-0.040898
0.003082
0.001679
-0.036153
0.028525
-0.004919
-0.001193
0.001909
0.002422
0.000514
-0.017648
0.000846
-0.031713
-0.025445
-0.024164
-0.025905
-0.026020
-0.038378
-0.039261
-0.040418
0.001589
0.001024
-0.041674
0.011906
0.021465
0.021315
-0.058176
-0.054768
-0.055560
-0.014637
-0.016124
-0.016476
-0.040455
0.038855
0.040899
0.038045
0.036244
0.035802
-0.045182
-0.043906
-0.035880
-0.036978
-0.036791
0.002603
0.018356
0.013220
0.024854
-0.042861
-0.044045
-0.032162
-0.033162
-0.030121
-0.040252
-0.046282
-0.032093
0.006299
0.006601
0.006699
-0.029957
-0.028800
-0.031062
0.026403
0.026792
0.027763
-0.030153
0.034816
0.033563
-0.049353
-0.015519
0.004776
-0.052719
-0.056816
-0.013107
-0.015164
0.019766
0.019268
0.018865
-0.006995
-0.006350
0.020608
-0.006526
0.021406
-0.043151
-0.045879
0.026853
0.028013
0.022255
0.006463
-0.005437
0.031031
0.026827
0.035529
0.025033
-0.007810
-0.008880
-0.007188
-0.008164
0.009162
-0.009296
-0.011086
0.009793
-0.037944
-0.032576
-0.035741
-0.023933
-0.023460
0.005594
0.007427
-0.021771
-0.022492
-0.023159
0.009453
0.008674
0.009425
-0.028176
-0.027549
-0.026890
-0.037944
0.028923
0.029939
0.030341
-0.041755
-0.043047
-0.044447
-0.004325
-0.005322
-0.005678
-0.044591
-0.019302
-0.006745
-0.017744
-0.009293
-0.047998
-0.047343
0.037041
0.008461
0.023967
0.021267
-0.026294
-0.027384
-0.002202
-0.003599
-0.004117
-0.050905
-0.002452
-0.035448
-0.045961
-0.044277
-0.034843
-0.034840
-0.035439
0.023397
0.023033
0.023428
0.024574
0.006224
0.007875
0.005964
0.008930
-0.040784
-0.022709
-0.023697
-0.041906
-0.024096
0.005685
0.005307
0.001151
0.029286
0.024170
0.019799
0.002550
0.001314
-0.007605
-0.041341
-0.040527
-0.039811
-0.045925
-0.015041
-0.006071
-0.013573
-0.006782
-0.014139
0.005511
0.004346
-0.002007
-0.004248
-0.003455
-0.002822
0.024675
0.006466
0.004637
0.003646
0.000292
0.008265
-0.008702
-0.006869
0.033678
-0.029456
-0.031404
-0.030290
-0.030196
-0.034255
0.031364
0.026120
0.027427
0.024668
0.023820
0.023191
-0.043730
0.000579
0.001221
0.002739
0.002299
0.003592
0.004011
0.004470
0.039116
0.041425
0.028680
-0.035385
-0.035168
-0.009279
-0.010697
0.020488
0.026014
0.023296
0.023484
-0.035123
-0.034505
-0.016088
-0.016939
-0.010007
-0.039270
-0.038463
-0.001191
-0.039814
0.013389
0.013653
0.013204
-0.001353
-0.000202
0.025017
0.022881
-0.027856
-0.029097
-0.026744
-0.027949
-0.026986
-0.027946
0.009310
0.008634
-0.047745
0.008442
0.012377
0.014065
0.034041
0.032787
0.010254
-0.000109
0.000004
-0.002174
-0.007451
-0.016264
-0.012833
-0.014816
-0.016070
-0.034114
-0.034612
0.028078
0.011631
0.009093
0.009691
0.004324
-0.009764
-0.011643
-0.012291
0.020302
0.019749
0.016207
-0.036033
-0.035764
-0.032933
-0.005796
-0.010038
-0.008341
-0.007656
-0.000711
-0.011523
-0.010375
-0.008051
-0.014193
0.000108
-0.005551
0.027673
0.029266
0.029412
0.024111
0.027924
0.030719
-0.036900
-0.010945
-0.019092
-0.021479
-0.020791
-0.018900
-0.021261
-0.022345
0.003865
0.022037
0.003893
-0.005271
-0.004696
0.024953
0.025130
0.015874
0.016894
0.016234
-0.029738
-0.032649
-0.000938
0.004267
-0.038027
0.025818
0.025628
0.022932
0.022139
-0.037685
-0.044072
-0.040398
0.022363
0.022066
0.012199
0.010414
0.010860
0.011397
0.021610
0.032621
-0.002027
0.019309
0.013604
0.015432
-0.005085
-0.020179
-0.015713
0.032901
0.003713
-0.018867
0.020553
0.022115
-0.010223
-0.012517
-0.017400
-0.019300
-0.017814
-0.024664
0.018696
0.017772
-0.009623
-0.013920
-0.012886
-0.025189
-0.023296
-0.053434
0.018041
0.017819
0.017442
0.017461
0.017905
-0.034165
0.017090
-0.033890
-0.006909
-0.027488
-0.037111
-0.019379
-0.015493
-0.015348
-0.030525
0.001218
-0.035351
-0.047401
-0.002646
-0.002383
-0.005203
-0.035246
-0.032594
-0.026752
0.020498
0.002376
0.001867
-0.027491
-0.013304
0.017613
0.020919
-0.029636
-0.030681
-0.031107
0.010755
-0.029141
0.024088
0.022998
0.000663
-0.020285
-0.021600
-0.021874
-0.025067
-0.024194
-0.009084
-0.001676
0.034317
0.036399
0.011610
-0.010761
0.011947
-0.006836
-0.007497
0.015726
-0.005737
-0.014064
0.031960
-0.006314
-0.035286
-0.035269
0.021316
0.007838
0.008761
0.036829
0.009241
0.003362
-0.001998
-0.045243
-0.044525
-0.007358
-0.009014
-0.034294
-0.035641
-0.034678
0.038215
-0.035895
-0.019737
-0.025633
0.023482
-0.014671
-0.012474
-0.012288
-0.027238
-0.000796
-0.002412
0.011385
-0.020451
-0.022745
0.016759
0.017750
0.018728
0.019079
0.017945
0.008029
-0.050189
-0.021579
-0.025966
-0.025441
-0.010447
-0.007449
-0.007707
0.009841
0.010838
-0.012265
-0.013937
0.005412
0.010189
0.015552
-0.000303
0.000375
0.000763
0.001390
-0.023060
-0.031151
-0.028564
0.020556
0.020505
0.021476
-0.023935
-0.023892
-0.000321
-0.032852
-0.033213
0.001275
0.002136
0.022655
0.000555
-0.036773
-0.039818
-0.036432
-0.027172
0.001546
-0.027673
-0.003257
-0.004139
-0.044048
-0.045243
0.003016
-0.004167
0.003405
-0.024246
0.006077
-0.000534
0.005287
-0.034816
-0.034568
0.008897
-0.027684
-0.037485
-0.040460
-0.042460
-0.035734
-0.024767
-0.023539
-0.021883
0.015831
0.016703
0.016653
-0.029141
-0.027541
-0.002918
-0.003378
-0.031002
-0.030452
-0.032004
-0.009705
-0.008657
-0.026528
-0.029794
0.022224
0.021912
-0.001870
-0.033475
-0.033345
-0.036766
-0.035459
-0.035287
-0.000547
0.000329
0.015444
0.009742
-0.022687
-0.021600
-0.024995
0.000657
0.002500
0.003917
0.004784
-0.032528
0.001868
0.001887
-0.014646
-0.021717
0.003318
0.002172
-0.025874
-0.023672
-0.005091
0.010289
0.010185
0.019283
-0.035205
0.019346
-0.003656
0.028124
0.028181
-0.035876
-0.035817
-0.006229
-0.005410
-0.010856
-0.011625
0.015707
0.022124
0.005263
-0.018003
0.020628
-0.038610
0.019198
0.014876
0.015230
-0.038875
0.022964
0.010966
0.004292
0.014232
0.013487
0.002531
0.011656
-0.047977
-0.045469
-0.044159
-0.042351
0.028751
0.014678
0.016139
0.014811
0.000708
-0.045773
0.031183
-0.037352
-0.033456
-0.032400
-0.002032
0.002063
-0.000676
0.016424
0.007689
-0.020359
-0.018974
-0.049049
-0.004722
0.016426
0.020554
-0.054213
-0.053654
-0.019303
0.004796
0.012510
0.005504
0.014182
0.020864
0.012135
0.006341
-0.034203
0.011384
-0.036650
-0.011162
0.014039
0.018446
0.016552
0.012943
0.027208
0.020004
-0.033592
-0.029278
-0.028481
0.030189
0.029415
0.000896
0.022519
-0.022825
-0.024164
-0.024223
0.007380
0.008344
0.007493
0.007789
-0.020233
-0.004523
0.025069
0.012633
-0.031071
-0.020131
-0.046881
-0.016380
0.019179
0.026002
0.025000
-0.027529
-0.029373
-0.044058
0.024970
0.023680
-0.023484
-0.011660
-0.000057
-0.001431
-0.036754
-0.000799
-0.003944
-0.019224
0.026068
0.031370
0.011236
0.007963
0.005720
-0.039073
-0.012189
-0.001873
-0.000771
-0.035118
0.035078
-0.041681
0.006646
0.006700
-0.043715
0.020165
0.015720
0.011898
-0.014534
0.012719
0.009547
-0.022308
0.021514
-0.021111
0.001355
-0.000020
0.002195
-0.027076
0.007696
-0.019405
0.001979
-0.006275
-0.005914
-0.021192
0.032976
0.018609
-0.032146
-0.032602
-0.010986
0.013611
-0.053240
-0.056727
-0.056389
-0.024895
-0.033994
0.016861
-0.027458
0.012017
0.019863
0.019821
-0.003795
-0.025966
-0.028479
-0.030351
0.027505
0.025884
0.011632
0.011075
-0.015852
-0.020684
-0.036552
-0.037118
0.012880
-0.034888
-0.015373
-0.016373
-0.031795
-0.038640
0.013682
0.010023
0.016460
0.015420
-0.019805
0.024417
0.019600
-0.014385
-0.028670
-0.030033
0.016378
0.013464
-0.027970
0.015643
0.008333
-0.035687
0.023257
-0.018078
-0.040290
0.019517
0.018430
-0.013096
-0.012432
-0.028753
-0.035275
0.019627
0.019865
0.020420
-0.006207
0.010821
-0.000217
-0.030490
-0.040900
0.012054
0.010334
-0.030681
-0.033119
0.016359
0.020846
0.002037
0.005629
0.001812
0.023627
0.033995
-0.010027
-0.009277
-0.018563
-0.037038
0.016280
-0.028402
-0.007454
-0.007640
-0.000677
0.009007
-0.030477
0.018320
-0.031693
-0.017398
0.021108
-0.029800
-0.023733
-0.027950
-0.031175
-0.010965
-0.007891
-0.030067
0.019392
-0.031873
-0.004133
-0.004310
-0.010777
-0.001129
-0.012432
-0.011419
0.010892
-0.030476
-0.031463
-0.008871
-0.003340
-0.004446
-0.021948
-0.022179
-0.016717
-0.024753
-0.018388
-0.006914
-0.022368
-0.015483
-0.011545
0.000324
-0.027062
0.022299
0.018316
-0.007713
-0.033967
-0.033131
-0.009037
0.005546
0.006872
-0.018180
0.000028
-0.030206
-0.033648
-0.000961
0.012424
0.014640
0.017028
0.021921
-0.031032
0.010897
-0.028472
-0.024723
-0.029249
0.013970
-0.015408
0.012892
-0.032067
0.008753
0.006750
0.005951
-0.037427
0.001456
-0.018737
-0.022461
-0.002181
-0.015166
-0.031823
0.002338
0.015510
-0.015355
-0.024783
-0.002654
SCALARS UY float 1
LOOKUP_TABLE default
-0.000000
-0.000000
-0.160000
-0.160000
-0.041985
-0.111173
-0.000000
-0.000000
-0.000000
-0.000000
-0.000000
-0.000000
-0.000000
-0.000000
-0.000000
-0.000000
-0.000000
-0.000000
-0.000000
-0.000000
-0.000000
-0.000000
-0.015023
-0.025731
-0.034854
-0.043460
-0.051628
-0.059572
-0.067182
-0.074267
-0.081132
-0.087608
-0.094459
-0.101859
-0.110642
-0.121365
-0.133538
-0.146683
-0.160000
-0.160000
-0.160000
-0.160000
-0.160000
-0.160000
-0.160000
-0.160000
-0.160000
-0.160000
-0.160000
-0.160000
-0.160000
-0.160000
-0.160000
-0.160000
-0.149721
-0.139554
-0.129653
-0.119994
-0.110790
-0.102165
-0.094167
-0.086886
-0.080127
-0.073856
-0.067500
-0.060482
-0.052385
-0.042517
-0.030991
-0.017691
-0.043032
-0.044190
-0.045358
-0.045410
-0.047332
-0.048301
-0.049473
-0.050256
-0.050951
-0.051728
-0.052323
-0.053621
-0.054160
-0.056015
-0.057430
-0.058376
-0.059198
-0.060271
-0.061271
-0.062330
-0.063266
-0.064085
-0.064760
-0.065918
-0.067005
-0.067114
-0.068447
-0.069658
-0.070266
-0.071468
-0.072403
-0.073464
-0.074758
-0.074880
-0.075954
-0.076435
-0.076973
-0.078116
-0.078347
-0.079545
-0.080131
-0.081178
-0.081814
-0.083215
-0.084363
-0.085441
-0.086447
-0.087777
-0.088834
-0.089946
-0.091459
-0.092345
-0.093188
-0.094666
-0.095821
-0.097116
-0.098356
-0.099593
-0.100673
-0.101880
-0.103098
-0.104474
-0.105647
-0.107196
-0.107939
-0.110435
-0.006870
-0.003603
-0.007975
-0.096517
-0.099387
-0.100555
-0.004194
-0.054249
-0.054514
-0.050656
-0.016566
-0.018232
-0.019068
-0.020925
-0.045177
-0.042787
-0.044370
-0.093826
-0.093805
-0.095130
-0.062075
-0.064954
-0.061766
-0.087803
-0.088698
-0.092172
-0.094691
-0.050271
-0.047198
-0.111616
-0.113129
-0.110889
-0.112764
-0.108835
-0.111172
-0.110831
-0.002744
-0.006740
-0.003393
-0.153925
-0.148741
-0.148442
-0.067716
-0.067295
-0.143925
-0.063985
-0.082486
-0.084518
-0.083505
-0.093099
-0.092157
-0.093459
-0.038303
-0.036494
-0.036726
-0.091168
-0.057833
-0.060081
-0.063027
-0.075914
-0.074170
-0.075651
-0.006069
-0.058187
-0.054509
-0.055890
-0.006518
-0.004773
-0.052709
-0.008296
-0.063511
-0.065188
-0.059587
-0.053757
-0.053541
-0.051930
-0.075197
-0.073414
-0.072337
-0.051758
-0.076267
-0.020747
-0.021657
-0.019776
-0.023394
-0.062803
-0.061201
-0.061183
-0.059518
-0.091002
-0.088397
-0.091922
-0.055689
-0.078637
-0.073778
-0.073910
-0.080054
-0.012607
-0.009211
-0.010300
-0.043592
-0.042189
-0.041631
-0.056198
-0.020401
-0.022360
-0.021370
-0.068455