# vtk DataFile Version 2.0
Test
ASCII
DATASET POLYDATA
POINTS 4588 float
0.000000 0.000000 0.000000
6.000000 0.000000 0.000000
6.000000 2.500000 0.000000
4.000000 2.500000 0.000000
3.500000 2.500000 0.000000
2.500000 2.500000 0.000000
2.000000 2.500000 0.000000
0.000000 2.500000 0.000000
5.900000 0.010000 0.000000
0.200000 0.000000 0.000000
0.400000 0.000000 0.000000
0.600000 0.000000 0.000000
0.800000 0.000000 0.000000
1.000000 0.000000 0.000000
1.200000 0.000000 0.000000
1.400000 0.000000 0.000000
1.600000 0.000000 0.000000
1.800000 0.000000 0.000000
2.000000 0.000000 0.000000
2.200000 0.000000 0.000000
2.400000 0.000000 0.000000
2.600000 0.000000 0.000000
2.800000 0.000000 0.000000
3.000000 0.000000 0.000000
3.200000 0.000000 0.000000
3.400000 0.000000 0.000000
3.600000 0.000000 0.000000
3.800000 0.000000 0.000000
4.000000 0.000000 0.000000
4.200000 0.000000 0.000000
4.400000 0.000000 0.000000
4.600000 0.000000 0.000000
4.800000 0.000000 0.000000
5.000000 0.000000 0.000000
5.200000 0.000000 0.000000
5.400000 0.000000 0.000000
5.600000 0.000000 0.000000
5.800000 0.000000 0.000000
6.000000 0.192308 0.000000
6.000000 0.384615 0.000000
6.000000 0.576923 0.000000
6.000000 0.769231 0.000000
6.000000 0.961538 0.000000
6.000000 1.153846 0.000000
6.000000 1.346154 0.000000
6.000000 1.538462 0.000000
6.000000 1.730769 0.000000
6.000000 1.923077 0.000000
6.000000 2.115385 0.000000
6.000000 2.307692 0.000000
5.811856 2.500000 0.000000
5.640527 2.500000 0.000000
5.484509 2.500000 0.000000
5.342434 2.500000 0.000000
5.213056 2.500000 0.000000
5.095240 2.500000 0.000000
4.987953 2.500000 0.000000
4.890254 2.500000 0.000000
4.801287 2.500000 0.000000
4.720270 2.500000 0.000000
4.646494 2.500000 0.000000
4.579310 2.500000 0.000000
4.518131 2.500000 0.000000
4.462420 2.500000 0.000000
4.411687 2.500000 0.000000
4.365488 2.500000 0.000000
4.323418 2.500000 0.000000
4.285107 2.500000 0.000000
4.250221 2.500000 0.000000
4.218452 2.500000 0.000000
4.189522 2.500000 0.000000
4.163177 2.500000 0.000000
4.139187 2.500000 0.000000
4.117341 2.500000 0.000000
4.097448 2.500000 0.000000
4.079332 2.500000 0.000000
4.062835 2.500000 0.000000
4.047812 2.500000 0.000000
4.034132 2.500000 0.000000
4.021675 2.500000 0.000000
4.010330 2.500000 0.000000
3.990000 2.500000 0.000000
3.980000 2.500000 0.000000
3.970000 2.500000 0.000000
3.960000 2.500000 0.000000
3.950000 2.500000 0.000000
3.940000 2.500000 0.000000
3.930000 2.500000 0.000000
3.920000 2.500000 0.000000
3.910000 2.500000 0.000000
3.900000 2.500000 0.000000
3.890000 2.500000 0.000000
3.880000 2.500000 0.000000
3.870000 2.500000 0.000000
3.860000 2.500000 0.000000
3.850000 2.500000 0.000000
3.840000 2.500000 0.000000
3.830000 2.500000 0.000000
3.820000 2.500000 0.000000
3.810000 2.500000 0.000000
3.800000 2.500000 0.000000
3.790000 2.500000 0.000000
3.780000 2.500000 0.000000
3.770000 2.500000 0.000000
3.760000 2.500000 0.000000
3.750000 2.500000 0.000000
3.740000 2.500000 0.000000
3.730000 2.500000 0.000000
3.720000 2.500000 0.000000
3.710000 2.500000 0.000000
3.700000 2.500000 0.000000
3.690000 2.500000 0.000000
3.680000 2.500000 0.000000
3.670000 2.500000 0.000000
3.660000 2.500000 0.000000
3.650000 2.500000 0.000000
3.640000 2.500000 0.000000
3.630000 2.500000 0.000000
3.620000 2.500000 0.000000
3.610000 2.500000 0.000000
3.600000 2.500000 0.000000
3.590000 2.500000 0.000000
3.580000 2.500000 0.000000
3.570000 2.500000 0.000000
3.560000 2.500000 0.000000
3.550000 2.500000 0.000000
3.540000 2.500000 0.000000
3.530000 2.500000 0.000000
3.520000 2.500000 0.000000
3.510000 2.500000 0.000000
3.490000 2.500000 0.000000
3.480000 2.500000 0.000000
3.470000 2.500000 0.000000
3.460000 2.500000 0.000000
3.450000 2.500000 0.000000
3.440000 2.500000 0.000000
3.430000 2.500000 0.000000
3.420000 2.500000 0.000000
3.410000 2.500000 0.000000
3.400000 2.500000 0.000000
3.390000 2.500000 0.000000
3.380000 2.500000 0.000000
3.370000 2.500000 0.000000
3.360000 2.500000 0.000000
3.350000 2.500000 0.000000
3.340000 2.500000 0.000000
3.330000 2.500000 0.000000
3.320000 2.500000 0.000000
3.310000 2.500000 0.000000
3.300000 2.500000 0.000000
3.290000 2.500000 0.000000
3.280000 2.500000 0.000000
3.270000 2.500000 0.000000
3.260000 2.500000 0.000000
3.250000 2.500000 0.000000
3.240000 2.500000 0.000000
3.230000 2.500000 0.000000
3.220000 2.500000 0.000000
3.210000 2.500000 0.000000
3.200000 2.500000 0.000000
3.190000 2.500000 0.000000
3.180000 2.500000 0.000000
3.170000 2.500000 0.000000
3.160000 2.500000 0.000000
3.150000 2.500000 0.000000
3.140000 2.500000 0.000000
3.130000 2.500000 0.000000
3.120000 2.500000 0.000000
3.110000 2.500000 0.000000
3.100000 2.500000 0.000000
3.090000 2.500000 0.000000
3.080000 2.500000 0.000000
3.070000 2.500000 0.000000
3.060000 2.500000 0.000000
3.050000 2.500000 0.000000
3.040000 2.500000 0.000000
3.030000 2.500000 0.000000
3.020000 2.500000 0.000000
3.010000 2.500000 0.000000
3.000000 2.500000 0.000000
2.990000 2.500000 0.000000
2.980000 2.500000 0.000000
2.970000 2.500000 0.000000
2.960000 2.500000 0.000000
2.950000 2.500000 0.000000
2.940000 2.500000 0.000000
2.930000 2.500000 0.000000
2.920000 2.500000 0.000000
2.910000 2.500000 0.000000
2.900000 2.500000 0.000000
2.890000 2.500000 0.000000
2.880000 2.500000 0.000000
2.870000 2.500000 0.000000
2.860000 2.500000 0.000000
2.850000 2.500000 0.000000
2.840000 2.500000 0.000000
2.830000 2.500000 0.000000
2.820000 2.500000 0.000000
2.810000 2.500000 0.000000
2.800000 2.500000 0.000000
2.790000 2.500000 0.000000
2.780000 2.500000 0.000000
2.770000 2.500000 0.000000
2.760000 2.500000 0.000000
2.750000 2.500000 0.000000
2.740000 2.500000 0.000000
2.730000 2.500000 0.000000
2.720000 2.500000 0.000000
2.710000 2.500000 0.000000
2.700000 2.500000 0.000000
2.690000 2.500000 0.000000
2.680000 2.500000 0.000000
2.670000 2.500000 0.000000
2.660000 2.500000 0.000000
2.650000 2.500000 0.000000
2.640000 2.500000 0.000000
2.630000 2.500000 0.000000
2.620000 2.500000 0.000000
2.610000 2.500000 0.000000
2.600000 2.500000 0.000000
2.590000 2.500000 0.000000
2.580000 2.500000 0.000000
2.570000 2.500000 0.000000
2.560000 2.500000 0.000000
2.550000 2.500000 0.000000
2.540000 2.500000 0.000000
2.530000 2.500000 0.000000
2.520000 2.500000 0.000000
2.510000 2.500000 0.000000
2.490000 2.500000 0.000000
2.480000 2.500000 0.000000
2.470000 2.500000 0.000000
2.460000 2.500000 0.000000
2.450000 2.500000 0.000000
2.440000 2.500000 0.000000
2.430000 2.500000 0.000000
2.420000 2.500000 0.000000
2.410000 2.500000 0.000000
2.400000 2.500000 0.000000
2.390000 2.500000 0.000000
2.380000 2.500000 0.000000
2.370000 2.500000 0.000000
2.360000 2.500000 0.000000
2.350000 2.500000 0.000000
2.340000 2.500000 0.000000
2.330000 2.500000 0.000000
2.320000 2.500000 0.000000
2.310000 2.500000 0.000000
2.300000 2.500000 0.000000
2.290000 2.500000 0.000000
2.280000 2.500000 0.000000
2.270000 2.500000 0.000000
2.260000 2.500000 0.000000
2.250000 2.500000 0.000000
2.240000 2.500000 0.000000
2.230000 2.500000 0.000000
2.220000 2.500000 0.000000
2.210000 2.500000 0.000000
2.200000 2.500000 0.000000
2.190000 2.500000 0.000000
2.180000 2.500000 0.000000
2.170000 2.500000 0.000000
2.160000 2.500000 0.000000
2.150000 2.500000 0.000000
2.140000 2.500000 0.000000
2.130000 2.500000 0.000000
2.120000 2.500000 0.000000
2.110000 2.500000 0.000000
2.100000 2.500000 0.000000
2.090000 2.500000 0.000000
2.080000 2.500000 0.000000
2.070000 2.500000 0.000000
2.060000 2.500000 0.000000
2.050000 2.500000 0.000000
2.040000 2.500000 0.000000
2.030000 2.500000 0.000000
2.020000 2.500000 0.000000
2.010000 2.500000 0.000000
1.989670 2.500000 0.000000
1.978325 2.500000 0.000000
1.965868 2.500000 0.000000
1.952188 2.500000 0.000000
1.937165 2.500000 0.000000
1.920668 2.500000 0.000000
1.902552 2.500000 0.000000
1.882659 2.500000 0.000000
1.860813 2.500000 0.000000
1.836823 2.500000 0.000000
1.810478 2.500000 0.000000
1.781548 2.500000 0.000000
1.749779 2.500000 0.000000
1.714893 2.500000 0.000000
1.676582 2.500000 0.000000
1.634512 2.500000 0.000000
1.588313 2.500000 0.000000
1.537580 2.500000 0.000000
1.481869 2.500000 0.000000
1.420690 2.500000 0.000000
1.353506 2.500000 0.000000
1.279730 2.500000 0.000000
1.198713 2.500000 0.000000
1.109746 2.500000 0.000000
1.012047 2.500000 0.000000
0.904760 2.500000 0.000000
0.786944 2.500000 0.000000
0.657566 2.500000 0.000000
0.515491 2.500000 0.000000
0.359473 2.500000 0.000000
0.188144 2.500000 0.000000
0.000000 2.307692 0.000000
0.000000 2.115385 0.000000
0.000000 1.923077 0.000000
0.000000 1.730769 0.000000
0.000000 1.538462 0.000000
0.000000 1.346154 0.000000
0.000000 1.153846 0.000000
0.000000 0.961538 0.000000
0.000000 0.769231 0.000000
0.000000 0.576923 0.000000
0.000000 0.384615 0.000000
0.000000 0.192308 0.000000
2.166060 1.612117 0.000000
2.216288 1.582260 0.000000
2.224482 1.642233 0.000000
1.606376 2.429879 0.000000
1.605233 2.464843 0.000000
1.558068 2.443987 0.000000
3.879213 2.221734 0.000000
3.894413 2.240135 0.000000
3.870787 2.243476 0.000000
3.886006 2.258435 0.000000
2.339802 2.266888 0.000000
2.365581 2.253498 0.000000
2.364362 2.273473 0.000000
2.341103 2.240156 0.000000
2.423678 1.645586 0.000000
2.384384 1.592910 0.000000
2.465868 1.603917 0.000000
2.088761 2.444299 0.000000
2.083345 2.451608 0.000000
2.072981 2.440348 0.000000
2.075032 2.456216 0.000000
4.476806 2.331734 0.000000
4.434266 2.353962 0.000000
4.414303 2.302573 0.000000
4.378117 2.343910 0.000000
2.446073 1.537545 0.000000
4.239409 2.336520 0.000000
4.213048 2.298142 0.000000
4.253747 2.306569 0.000000
2.389441 2.269279 0.000000
4.290118 2.293594 0.000000
4.317604 2.355401 0.000000
4.273059 2.333019 0.000000
2.391236 2.242853 0.000000
3.695178 2.157745 0.000000
3.731439 2.154949 0.000000
3.712254 2.183983 0.000000
2.623247 2.337360 0.000000
2.617269 2.318390 0.000000
2.637121 2.325349 0.000000
2.631601 2.307649 0.000000
3.741363 2.188931 0.000000
4.480476 2.389007 0.000000
4.420788 2.405007 0.000000
3.026631 2.286441 0.000000
3.029815 2.314517 0.000000
[...]
POINT_DATA 4588
SCALARS UX float 1
LOOKUP_TABLE default
0.000000
-0.000000
0.000000
0.000453
0.000262
-0.000259
-0.000445
-0.000000
-0.000001
-0.000000
0.000000
0.000000
-0.000000
0.000000
-0.000000
-0.000000
0.000000
-0.000000
-0.000000
0.000000
-0.000000
0.000000
-0.000000
-0.000000
0.000000
0.000000
0.000000
0.000000
0.000000
0.000000
0.000000
0.000000
0.000000
0.000000
0.000000
0.000000
-0.000000
0.000000
0.000000
0.000000
0.000000
0.000000
0.000000
0.000000
0.000000
0.000000
0.000000
0.000000
0.000000
0.000000
0.000188
0.000340
0.000445
0.000486
0.000522
0.000553
0.000543
0.000561
0.000590
0.000584
0.000583
0.000577
0.000575
0.000562
0.000554
0.000546
0.000542
0.000531
0.000528
0.000523
0.000515
0.000509
0.000502
0.000496
0.000490
0.000484
0.000478
0.000471
0.000465
0.000461
0.000457
0.000449
0.000446
0.000442
0.000437
0.000433
0.000430
0.000426
0.000422
0.000417
0.000413
0.000409
0.000405
0.000401
0.000397
0.000393
0.000390
0.000386
0.000382
0.000378
0.000373
0.000368
0.000361
0.000357
0.000354
0.000350
0.000346
0.000342
0.000338
0.000332
0.000329
0.000325
0.000323
0.000318
0.000313
0.000309
0.000305
0.000303
0.000298
0.000292
0.000287
0.000282
0.000281
0.000274
0.000273
0.000274
0.000271
0.000272
0.000269
0.000268
0.000255
0.000249
0.000244
0.000240
0.000230
0.000219
0.000211
0.000210
0.000208
0.000205
0.000203
0.000194
0.000186
0.000179
0.000175
0.000169
0.000164
0.000158
0.000152
0.000148
0.000145
0.000140
0.000135
0.000131
0.000125
0.000118
0.000112
0.000108
0.000104
0.000101
0.000097
0.000091
0.000084
0.000078
0.000073
0.000068
0.000063
0.000057
0.000051
0.000046
0.000042
0.000036
0.000032
0.000028
0.000023
0.000016
0.000011
0.000004
0.000000
-0.000005
-0.000009
-0.000014
-0.000019
-0.000024
-0.000030
-0.000034
-0.000040
-0.000047
-0.000051
-0.000058
-0.000061
-0.000066
-0.000070
-0.000076
-0.000082
-0.000087
-0.000092
-0.000097
-0.000101
-0.000108
-0.000112
-0.000115
-0.000118
-0.000124
-0.000130
-0.000137
-0.000143
-0.000145
-0.000149
-0.000153
-0.000156
-0.000159
-0.000161
-0.000170
-0.000175
-0.000178
-0.000185
-0.000190
-0.000197
-0.000200
-0.000205
-0.000208
-0.000210
-0.000217
-0.000225
-0.000227
-0.000235
-0.000247
-0.000253
-0.000264
-0.000269
-0.000275
-0.000277
-0.000276
-0.000275
-0.000278
-0.000278
-0.000283
-0.000283
-0.000289
-0.000290
-0.000295
-0.000300
-0.000304
-0.000307
-0.000309
-0.000314
-0.000321
-0.000325
-0.000329
-0.000334
-0.000339
-0.000344
-0.000348
-0.000351
-0.000354
-0.000357
-0.000361
-0.000365
-0.000370
-0.000373
-0.000378
-0.000382
-0.000386
-0.000389
-0.000393
-0.000397
-0.000402
-0.000406
-0.000410
-0.000414
-0.000418
-0.000421
-0.000425
-0.000431
-0.000434
-0.000438
-0.000441
-0.000447
-0.000451
-0.000454
-0.000460
-0.000466
-0.000472
-0.000478
-0.000486
-0.000494
-0.000502
-0.000510
-0.000514
-0.000519
-0.000524
-0.000531
-0.000537
-0.000546
-0.000545
-0.000543
-0.000555
-0.000567
-0.000565
-0.000576
-0.000561
-0.000542
-0.000545
-0.000523
-0.000487
-0.000412
-0.000313
-0.000175
-0.000000
-0.000000
-0.000000
-0.000000
-0.000000
-0.000000
-0.000000
-0.000000
-0.000000
-0.000000
-0.000000
-0.000000
-0.001660
-0.001624
-0.001659
-0.000642
-0.000585
-0.000614
0.001401
0.001339
0.001357
0.001301
-0.001517
-0.001572
-0.001528
-0.001583
-0.001497
-0.001510
-0.001392
-0.000634
-0.000605
-0.000649
-0.000588
0.000759
0.000743
0.000826
0.000776
-0.001387
0.000843
0.000930
0.000892
-0.001562
0.000895
0.000774
0.000835
-0.001608
0.001702
0.001684
0.001664
-0.001120
-0.001189
-0.001112
-0.001171
0.001631
0.000687
0.000677
0.000085
0.000092
0.000038
0.000148
-0.000873
-0.000796
-0.000877
-0.000774
-0.000721
-0.000780
-0.000737
-0.000737
0.000653
0.000602
0.000617
0.000554
-0.001538
-0.001490
-0.001508
-0.001515
0.001611
0.001630
-0.000186
-0.000158
-0.000181
-0.000252
-0.000212
-0.000255
-0.000145
0.000923
0.000981
0.000911
0.001175
0.001170
0.001234
0.001202
0.000968
-0.000461
-0.000457
-0.000755
-0.000661
-0.000720
-0.000611
-0.000459
-0.000398
-0.000417
0.001776
0.001796
0.001787
0.001804
-0.000656
-0.000711
-0.000804
-0.000903
0.001366
0.001285
0.001379
-0.001056
-0.001091
-0.001131
0.001317
-0.000404
0.001406
0.001457
0.001433
-0.001077
-0.001073
-0.001028
0.001488
-0.001057
-0.001114
0.000515
0.000369
0.000523
-0.001039
0.000596
0.000570
0.000629
0.000307
0.000238
0.000373
0.000246
0.000065
0.000088
0.000173
0.000154
0.001179
0.001258
0.001165
0.001262
0.001263
0.001173
0.001660
0.001720
0.001683
0.001120
-0.000761
-0.000709
-0.000710
-0.001355
-0.001358
-0.001460
0.000852
0.000740
0.000948
-0.001693
-0.001708
-0.001702
-0.001189
-0.001185
-0.001292
-0.001301
-0.000661
-0.000481
-0.000560
-0.000477
0.001772
0.001793
0.001771
0.001777
-0.001758
-0.001774
-0.001768
-0.001783
-0.001698
-0.001676
-0.001647
-0.001608
-0.001625
-0.001637
-0.001673
-0.001592
0.000717
0.000374
0.000268
0.000526
0.000209
0.000735
0.000695
0.000776
0.001190
0.001124
0.001067
-0.001459
-0.001516
-0.001515
-0.000601
0.000848
0.000907
0.000816
0.001190
0.001249
0.001188
-0.000929
-0.000858
-0.000858
-0.001367
-0.001385
-0.001312
-0.001442
-0.000780
-0.000295
-0.000253
-0.000306
0.001016
0.000958
0.001026
0.000787
0.000846
0.000825
0.000786
0.000248
0.000214
0.000251
0.000218
0.000622
0.000559
0.000655
0.001605
0.001676
0.001663
0.001614
0.001571
0.001542
0.001513
0.001707
0.001682
0.000551
-0.001417
-0.001322
-0.001420
-0.001583
-0.000069
-0.000085
-0.000086
0.001656
0.001686
0.001661
-0.001062
-0.001047
-0.000935
-0.001096
-0.000946
-0.000982
-0.001031
-0.001519
-0.001585
-0.001554
-0.001556
-0.001411
-0.001472
-0.001431
0.001506
0.001470
0.001529
-0.001494
0.001501
0.001633
0.001642
0.001681
0.001115
0.001044
0.001054
0.001745
0.001707
0.001700
0.001741
-0.001771
-0.001759
-0.001745
-0.001783
-0.001597
-0.001517
-0.001586
-0.001533
0.000977
0.000485
0.000428
0.000409
-0.001545
-0.001487
-0.001584
0.000448
0.000369
0.000352
-0.001638
-0.001643
-0.001681
-0.001606
-0.001644
-0.001672
-0.001597
-0.001701
0.000265
0.001182
0.001112
0.001108
0.000937
0.000813
0.000913
0.001031
0.001528
0.001460
0.001530
-0.001127
-0.001187
-0.001201
-0.000804
-0.000912
0.000367
0.001462
0.001540
0.001537
0.001473
0.001442
0.001389
0.001437
-0.001493
-0.001089
-0.001283
-0.001209
-0.000140
-0.000122
-0.000204
-0.001279
-0.001019
-0.001080
-0.001016
-0.001108
0.001386
0.000907
0.000907
0.000964
0.000851
-0.000873
-0.000811
-0.000843
-0.001415
-0.001407
-0.001340
-0.000815
-0.000450
-0.000517
0.001662
0.001628
0.001637
-0.000072
0.001603
-0.000101
-0.000275
-0.000162
0.000907
0.000898
0.000809
-0.000908
-0.000984
-0.000947
0.000731
0.000706
0.000525
-0.000956
0.000102
0.000105
0.000077
-0.000973
-0.000915
0.000827
-0.000929
0.000093
-0.000588
-0.000563
-0.000548
0.000447
0.000445
0.000388
-0.000525
0.001036
0.000990
0.000951
-0.001384
-0.001399
-0.001459
0.000923
-0.001335
-0.000473
-0.000390
-0.000386
0.000293
0.000223
0.000331
0.001141
0.001185
0.001010
0.000199
0.000662
0.000668
0.000487
-0.000461
-0.000413
-0.000416
0.001235
0.001243
0.001174
0.001184
0.000762
0.000701
0.000674
0.000345
0.000397
0.000641
0.000068
0.000028
-0.000111
0.000789
0.000846
0.000473
0.000404
0.000501
0.000503
0.000559
0.000456
-0.000920
-0.001101
-0.001064
-0.001192
-0.000457
-0.000302
-0.000577
-0.000232
0.001300
0.001341
0.001403
0.000012
0.000012
0.000005
0.001039
0.001080
0.001165
0.000545
0.000631
0.000715
0.001390
0.001460
0.001463
0.000826
0.000906
0.000875
0.000856
0.000811
0.000870
0.000834
0.001382
0.001301
0.001276
0.001239
0.000709
0.000647
0.000718
0.000683
-0.000053
0.000059
0.000150
-0.000339
-0.000232
-0.000264
0.000875
0.000945
0.001055
-0.000178
-0.000555
-0.000591
-0.000513
-0.000135
0.000036
0.000002
-0.000640
0.000705
0.000797
0.000892
0.001244
0.001309
0.000458
0.000596
0.000631
0.000168
0.000324
0.000324
0.001186
0.001152
0.001219
0.001208
0.001570
0.001624
0.001572
0.001624
-0.001516
-0.001486
-0.001412
0.000237
0.000193
0.000223
-0.001247
-0.001318
0.000190
0.000751
0.000679
0.000726
-0.001443
0.000665
-0.001489
-0.001508
-0.001450
-0.001495
-0.001484
-0.001041
-0.001103
-0.001068
-0.001419
-0.001318
-0.001271
-0.001349
0.001549
0.001501
0.001558
0.000857
0.000767
0.000728
0.000553
0.000418
-0.001388
0.000453
0.000200
0.000018
0.000140
0.001061
0.001030
-0.001100
0.000942
-0.000814
-0.000749
0.000260
0.000181
0.000865
0.000922
0.000897
0.001039
0.000971
0.000762
0.000755
0.000707
0.001604
0.001571
0.000494
0.000498
0.000531
0.000498
0.000394
0.000387
0.001060
-0.001528
-0.001598
-0.001605
-0.000248
-0.000195
0.000991
0.001130
0.000431
0.000560
0.001529
0.001407
0.001384
0.001517
-0.001415
-0.001462
-0.001447
-0.001283
0.000127
0.000109
0.000097
-0.001444
-0.001496
0.000957
0.000697
0.000320
0.000260
0.000242
0.000004
-0.000005
-0.000009
0.000004
-0.000017
-0.000012
-0.001048
-0.000976
-0.000961
-0.000895
-0.000857
-0.000799
-0.000798
0.000455
-0.001057
-0.001131
-0.001048
-0.001123
-0.001256
-0.001300
-0.001219
0.001116
0.001066
0.000985
0.001158
-0.001322
0.000631
0.000564
-0.000642
-0.000579
-0.000491
-0.000688
0.000345
0.000229
0.000431
-0.000665
-0.000624
-0.000688
0.000403
-0.000663
0.001119
0.001011
0.001190
0.000712
0.000650
0.000712
0.001160
0.000643
0.001656
0.001595
0.001681
0.001320
0.001268
0.001342
0.001681
0.001241
0.001011
0.001068
0.001114
-0.000057
-0.000051
-0.000340
-0.000371
-0.000372
-0.001192
-0.001307
-0.001234
-0.000974
-0.001078
-0.000996
0.000747
0.000579
0.000646
0.000676
0.001425
0.001288
0.001360
0.001364
-0.000435
-0.000537
-0.000453
0.001736
0.001686
0.001684
0.000814
0.000700
0.000858
0.000375
0.000389
0.000442
-0.001342
-0.001256
-0.001274
0.001344
0.001265
0.001329
0.001225
0.000565
0.000493
0.000600
0.000362
-0.000615
-0.000762
-0.000731
-0.000820
-0.000695
0.000565
0.000615
-0.001582
-0.001503
0.001076
0.000978
0.001067
0.001147
0.000537
0.000506
0.000627
0.000554
-0.000374
-0.000394
-0.000471
0.000982
0.000924
0.001043
-0.001810
-0.001800
-0.001801
0.001050
-0.001076
-0.000953
-0.000964
-0.001030
-0.000389
-0.000405
-0.000443
0.000620
0.000599
-0.001059
-0.000955
-0.000622
-0.000726
0.000156
0.000161
-0.000508
-0.000548
-0.000556
-0.000371
-0.000373
-0.000330
-0.001723
-0.001733
-0.000330
-0.000043
-0.000022
0.000109
-0.001023
-0.000950
-0.000997
0.000800
0.000899
-0.000974
0.001464
0.001523
-0.001499
-0.001373
-0.001454
-0.000801
-0.000777
-0.000668
0.001570
0.001647
0.001597
0.001656
0.001691
0.001727
0.001762
0.001765
-0.000480
-0.000437
-0.000444
0.001735
0.001724
0.000731
0.000789
0.000701
0.000740
0.000664
0.000756
-0.001011
0.001683
0.001620
0.001691
0.001729
0.000055
0.000088
-0.000065
0.000847
0.000889
0.000749
0.001493
0.001522
0.001430
-0.001033
0.000124
0.000226
0.000051
0.000139
0.000854
0.000948
0.000803
0.000902
0.001487
0.001454
0.001379
-0.000510
-0.000376
-0.000381
0.000449
0.000534
0.000586
0.001177
0.001222
0.001280
-0.000444
-0.000377
-0.000378
0.001647
0.001655
0.001690
0.001755
0.001772
0.001747
0.001774
0.001744
0.001695
0.001702
0.001752
-0.000150
-0.000144
-0.000099
-0.000520
-0.000457
-0.000345
-0.000992
-0.000909
-0.001022
-0.000919
-0.001067
-0.000939
-0.000195
0.000582
0.000617
0.000624
0.000668
-0.000811
-0.000792
-0.000875
-0.000824
0.000451
0.000382
0.000379
-0.001246
-0.001274
-0.001297
-0.001331
-0.001256
-0.001264
-0.001188
0.001756
0.001745
0.001600
0.001574
0.001556
0.001623
-0.000057
-0.000077
-0.000085
-0.000103
0.001110
0.001115
0.001159
0.001688
0.001742
0.001778
0.001788
0.001779
0.001785
0.001118
0.001054
0.001087
-0.000668
-0.000674
-0.001356
-0.001339
-0.001393
-0.001272
-0.000905
-0.000912
-0.000991
-0.000951
-0.000821
-0.000761
-0.000730
-0.000713
-0.000656
-0.000698
-0.000480
-0.000787
-0.000750
-0.001810
-0.001802
-0.001795
-0.000500
-0.000526
-0.000557
-0.000753
-0.000875
-0.000912
-0.001687
-0.001644
-0.001713
-0.000861
-0.000832
-0.000906
0.001797
0.001784
-0.000569
-0.000933
-0.000852
0.000900
0.000900
0.000087
0.000095
0.000079
0.000688
0.000709
0.001344
0.001379
0.000517
0.000488
0.000442
0.001711
0.001740
0.001165
0.000434
-0.001219
-0.001292
-0.001215
-0.001300
0.001338
0.001378
0.001293
0.001439
-0.001421
-0.001459
-0.001410
-0.000578
-0.000558
0.000795
0.000724
0.000720
0.000660
0.001358
0.001297
0.001305
0.001247
0.000184
0.000146
0.000121
0.000100
0.000869
0.000853
0.000943
0.001011
-0.000213
-0.000222
-0.000257
-0.000253
-0.000197
-0.000178
0.001789
0.001772
0.001788
0.001760
-0.001790
-0.001783
-0.001800
-0.001793
0.001037
0.000987
0.000936
-0.001438
-0.001483
-0.001532
-0.000023
-0.000169
0.000016
0.000746
0.000756
0.000671
-0.000047
-0.000090
-0.000078
0.000701
0.000684
0.000619
0.000092
-0.000114
-0.000137
-0.000151
-0.000102
-0.001771
-0.001784
-0.001739
-0.001745
-0.000022
0.000543
0.000697
0.000501
0.000593
0.000022
0.000905
-0.000173
-0.000266
-0.000092
-0.000064
0.000293
-0.000240
-0.000298
-0.000228
0.001269
0.001391
0.001246
0.001320
-0.000300
0.000091
0.000055
0.000030
0.001714
0.001763
0.001714
0.001734
0.000082
0.000126
0.000161
-0.000411
-0.000433
-0.000361
0.001147
0.001034
0.000613
0.000683
0.000692
-0.000167
-0.000092
-0.000159
-0.000842
-0.000919
-0.000722
-0.000727
-0.000797
0.000655
0.000608
0.000555
-0.001037
-0.001164
-0.000637
-0.001250
-0.001321
-0.001174
-0.001217
0.001290
0.001356
0.001356
-0.000596
-0.000582
-0.000639
0.001618
-0.000175
-0.000279
0.001311
0.001239
0.001211
-0.000246
-0.000380
-0.000524
0.001776
0.001799
0.001797
-0.000781
-0.000858
-0.000882
0.000209
0.000162
0.000188
-0.001799
-0.001806
-0.000043
-0.000060
0.000590
0.000585
0.000636
-0.000036
-0.000018
-0.000033
0.000492
0.000377
0.000454
-0.001565
-0.000083
-0.001537
-0.001703
-0.001651
0.000092
0.000167
0.000085
-0.001705
-0.001750
-0.001555
-0.001597
-0.001575
-0.001364
-0.001661
-0.001637
-0.001698
-0.001684
-0.001652
-0.001623
-0.000242
-0.000217
-0.000168
-0.000026
-0.001591
0.000047
0.000163
0.000018
0.000211
0.000999
0.001586
-0.000367
0.001625
-0.001760
-0.001722
0.000383
-0.001730
-0.001722
-0.000017
-0.000026
0.001768
0.000017
0.000525
-0.001033
-0.000950
-0.000995
-0.000913
-0.001625
0.000792
0.000733
0.000728
0.000223
-0.000156
0.000686
0.000746
0.000695
-0.000414
-0.000350
-0.000422
-0.000094
-0.000130
-0.000338
-0.000004
-0.000000
0.000137
0.000098
-0.000528
-0.000569
-0.000564
0.000260
0.000343
0.000469
0.000377
0.000425
-0.000363
-0.000257
0.001513
0.001435
0.001489
-0.000423
-0.000377
-0.000598
-0.000971
-0.000985
-0.000889
-0.000564
-0.000602
-0.000539
-0.000632
-0.001068
-0.001012
-0.001111
-0.001042
-0.001137
-0.001043
-0.001068
-0.001213
-0.000365
-0.000274
0.000729
0.000721
0.000754
0.000295
0.000382
-0.000156
-0.000058
-0.000216
0.000682
0.000682
0.000057
0.000164
0.000215
-0.001349
-0.001346
0.001166
0.001228
0.001180
0.001288
-0.000262
0.000437
0.000413
0.000266
-0.000537
-0.000454
-0.000900
0.000580
0.000611
0.000562
0.000628
-0.000175
-0.000190
-0.000207
-0.000199
-0.000303
-0.000154
-0.000243
0.000329
0.000232
-0.000550
-0.000604
-0.000547
-0.000641
-0.000502
-0.000475
-0.000302
-0.000351
0.000406
0.000554
0.000444
-0.000291
0.000466
0.000462
0.000426
0.000538
0.000322
-0.001458
-0.001400
0.000197
0.000266
0.000222
0.000404
-0.001353
-0.001271
-0.001316
-0.001170
-0.001176
-0.001227
0.000273
-0.001299
-0.001238
0.000597
0.000612
0.000635
-0.001170
-0.001115
0.000595
0.000531
0.000624
-0.000929
-0.001020
0.000483
0.000894
0.000852
0.000966
0.000764
0.000726
0.000774
0.000734
-0.000098
-0.000166
0.000665
0.000727
0.000605
0.000709
0.000776
0.000106
0.000696
-0.000775
0.000612
-0.000746
-0.000795
-0.000676
0.000181
0.000144
0.000157
0.000160
0.000220
0.000187
0.000177
0.000504
0.000430
0.000399
-0.001089
-0.001111
-0.001178
-0.001189
-0.000951
-0.000352
-0.000915
-0.000979
-0.000807
-0.000520
-0.000525
-0.000300
0.001136
0.001085
0.001096
-0.001004
-0.000962
-0.001044
-0.000918
-0.001224
-0.001188
-0.001268
-0.001138
-0.001026
-0.000950
-0.000986
-0.000888
0.001314
0.001401
0.001348
0.001440
-0.000639
-0.000669
-0.000988
-0.000977
-0.000917
-0.000935
0.000021
0.000013
-0.000729
-0.000659
-0.000812
-0.000663
-0.000466
-0.000459
0.000479
-0.000577
-0.000618
-0.000603
-0.000495
-0.000478
-0.000647
-0.000549
-0.000518
0.000254
0.000287
-0.000013
-0.000037
0.000010
0.000002
0.000032
-0.000008
0.000556
0.000536
0.000519
0.000748
0.000807
0.000762
-0.000254
0.000767
0.000698
0.000701
0.000303
-0.000554
0.000288
0.000322
0.000349
0.000261
0.001332
0.001416
0.001400
-0.000591
-0.000620
0.000795
0.000876
0.000890
0.000783
-0.001131
-0.001058
-0.001096
-0.001013
0.000623
0.000642
0.000534
0.001235
0.001315
0.001275
0.001261
-0.001657
-0.001621
0.000732
0.000799
-0.001708
-0.001667
0.001715
0.001673
-0.000542
-0.000613
-0.001591
-0.001541
-0.001550
0.001519
0.000329
0.000361
0.000289
-0.000666
-0.000551
-0.000632
-0.000720
0.000135
-0.000592
-0.000520
-0.000556
-0.000483
-0.000553
-0.000473
-0.001672
-0.001713
-0.001560
-0.001596
-0.001528
-0.001613
-0.001701
-0.001432
-0.001499
-0.000975
-0.000948
0.001741
-0.000867
-0.000927
-0.000069
-0.000039
0.000007
0.000455
0.000469
0.000011
-0.000034
-0.000053
-0.000692
-0.000575
-0.000618
-0.000501
-0.000650
-0.000510
0.000486
-0.000633
-0.000863
-0.000815
0.000786
-0.000835
0.001450
-0.000812
0.001739
0.001756
0.000558
0.000555
0.000593
0.000525
0.000449
0.000600
0.000610
0.000542
-0.000693
-0.000744
-0.000744
0.000536
0.001045
0.000950
0.001001
0.000974
-0.001253
-0.001263
0.001534
0.001496
0.001534
0.001480
0.000324
0.000294
0.000385
0.000363
0.000292
0.000315
-0.001003
-0.000143
-0.000142
-0.000162
-0.000122
-0.000527
-0.000590
-0.000264
-0.000245
-0.000283
-0.000496
-0.000305
-0.000247
-0.000270
-0.000443
-0.000352
-0.000381
0.001653
0.001613
0.000639
0.000672
0.000591
-0.001330
-0.001397
-0.001402
-0.001467
-0.001254
-0.001257
-0.001193
0.000898
0.000963
0.000860
0.000994
0.000844
0.000759
0.000740
0.001296
0.001384
0.001328
0.001424
0.001202
0.001254
0.001179
-0.001004
-0.000589
-0.000611
-0.000654
-0.000704
-0.000878
-0.000935
-0.001003
-0.000510
-0.000574
-0.000505
-0.000514
-0.000539
-0.000557
0.001556
0.000547
0.000625
0.000549
-0.000226
-0.000210
-0.000297
-0.000284
-0.000234
-0.000291
-0.001302
-0.001223
-0.001238
-0.001154
-0.000010
0.000017
0.000045
0.000028
-0.000661
-0.000667
0.000592
0.000768
0.000867
0.000792
0.000848
0.000825
0.000730
0.000740
0.000332
0.000388
0.000352
0.000368
0.000378
0.000326
0.000336
-0.000533
-0.000635
0.001157
0.001221
0.001176
0.001235
0.001079
0.001137
-0.000171
0.001036
0.000010
-0.000120
-0.001111
-0.001172
-0.001542
-0.001242
-0.001049
-0.001063
-0.000810
-0.000878
-0.000767
-0.000939
-0.001302
-0.001685
-0.001680
-0.001463
-0.001531
-0.001116
0.001064
0.001156
0.001099
-0.001257
-0.001338
0.001020
0.000983
0.000937
0.000873
-0.000824
-0.000784
-0.000869
0.000997
0.001037
0.001073
-0.000747
-0.000566
-0.000538
-0.000623
-0.000257
-0.000254
-0.000290
-0.000220
0.000485
0.000480
-0.000482
-0.000477
0.000742
0.000663
0.000629
0.000715
0.000638
0.000797
0.000113
-0.000710
-0.000678
-0.000718
0.000227
0.000265
0.000225
-0.001415
-0.001351
-0.001435
-0.001364
0.000313
0.001032
0.000928
0.000994
0.001000
0.001086
0.001050
-0.000250
-0.000484
-0.000532
-0.000545
-0.000480
-0.000616
0.001058
0.001164
0.001066
-0.000086
-0.000074
-0.000087
0.001147
0.001235
-0.000607
-0.000664
0.000860
0.000969
0.000936
-0.000103
0.001033
0.001068
0.000370
0.000432
0.000423
-0.000099
0.000482
0.000504
-0.000052
0.000004
-0.000003
0.000529
0.000520
0.000570
0.000477
0.000470
0.000443
0.000514
-0.000056
-0.000055
-0.000045
-0.000066
0.000721
0.000647
0.000596
0.000603
0.000656
0.000530
-0.000423
-0.000375
-0.000306
0.001143
0.001102
0.000720
0.000719
0.000784
-0.000674
-0.000700
0.000259
0.000216
-0.000285
0.000988
0.000982
0.001071
0.000500
0.000510
0.000589
-0.000732
-0.000727
-0.000822
0.000579
-0.000609
0.000126
0.000151
0.000183
-0.000629
-0.000901
-0.000896
0.000534
0.000497
0.000494
-0.001069
-0.001123
-0.001119
-0.001366
-0.001379
-0.001025
-0.000128
-0.000102
-0.000107
-0.000127
-0.000372
-0.000416
-0.000300
-0.000340
-0.000484
-0.000510
0.001099
-0.001370
-0.000955
-0.000094
-0.000584
-0.000584
-0.000639
-0.000461
-0.000524
0.000853
0.000926