# vtk DataFile Version 2.0
Test
ASCII
DATASET POLYDATA
POINTS 7607 float
0.000000 0.000000 0.000000
1.000000 0.000000 0.000000
1.000000 0.800000 0.000000
1.000000 1.000000 0.000000
0.000000 1.000000 0.000000
0.000000 0.200000 0.000000
0.300000 0.330000 0.000000
0.700000 0.680000 0.000000
0.012987 0.000000 0.000000
0.025974 0.000000 0.000000
0.038961 0.000000 0.000000
0.051948 0.000000 0.000000
0.064935 0.000000 0.000000
0.077922 0.000000 0.000000
0.090909 0.000000 0.000000
0.103896 0.000000 0.000000
0.116883 0.000000 0.000000
0.129870 0.000000 0.000000
0.142857 0.000000 0.000000
0.155844 0.000000 0.000000
0.168831 0.000000 0.000000
0.181818 0.000000 0.000000
0.194805 0.000000 0.000000
0.207792 0.000000 0.000000
0.220779 0.000000 0.000000
0.233766 0.000000 0.000000
0.246753 0.000000 0.000000
0.259740 0.000000 0.000000
0.272727 0.000000 0.000000
0.285714 0.000000 0.000000
0.298701 0.000000 0.000000
0.311688 0.000000 0.000000
0.324675 0.000000 0.000000
0.337662 0.000000 0.000000
0.350649 0.000000 0.000000
0.363636 0.000000 0.000000
0.376623 0.000000 0.000000
0.389610 0.000000 0.000000
0.402597 0.000000 0.000000
0.415584 0.000000 0.000000
0.428571 0.000000 0.000000
0.441558 0.000000 0.000000
0.454545 0.000000 0.000000
0.467532 0.000000 0.000000
0.480519 0.000000 0.000000
0.493506 0.000000 0.000000
0.506494 0.000000 0.000000
0.519481 0.000000 0.000000
0.532468 0.000000 0.000000
0.545455 0.000000 0.000000
0.558442 0.000000 0.000000
0.571429 0.000000 0.000000
0.584416 0.000000 0.000000
0.597403 0.000000 0.000000
0.610390 0.000000 0.000000
0.623377 0.000000 0.000000
0.636364 0.000000 0.000000
0.649351 0.000000 0.000000
0.662338 0.000000 0.000000
0.675325 0.000000 0.000000
0.688312 0.000000 0.000000
0.701299 0.000000 0.000000
0.714286 0.000000 0.000000
0.727273 0.000000 0.000000
0.740260 0.000000 0.000000
0.753247 0.000000 0.000000
0.766234 0.000000 0.000000
0.779221 0.000000 0.000000
0.792208 0.000000 0.000000
0.805195 0.000000 0.000000
0.818182 0.000000 0.000000
0.831169 0.000000 0.000000
0.844156 0.000000 0.000000
0.857143 0.000000 0.000000
0.870130 0.000000 0.000000
0.883117 0.000000 0.000000
0.896104 0.000000 0.000000
0.909091 0.000000 0.000000
0.922078 0.000000 0.000000
0.935065 0.000000 0.000000
0.948052 0.000000 0.000000
0.961039 0.000000 0.000000
0.974026 0.000000 0.000000
0.987013 0.000000 0.000000
1.000000 0.012903 0.000000
1.000000 0.025806 0.000000
1.000000 0.038710 0.000000
1.000000 0.051613 0.000000
1.000000 0.064516 0.000000
1.000000 0.077419 0.000000
1.000000 0.090323 0.000000
1.000000 0.103226 0.000000
1.000000 0.116129 0.000000
1.000000 0.129032 0.000000
1.000000 0.141935 0.000000
1.000000 0.154839 0.000000
1.000000 0.167742 0.000000
1.000000 0.180645 0.000000
1.000000 0.193548 0.000000
1.000000 0.206452 0.000000
1.000000 0.219355 0.000000
1.000000 0.232258 0.000000
1.000000 0.245161 0.000000
1.000000 0.258065 0.000000
1.000000 0.270968 0.000000
1.000000 0.283871 0.000000
1.000000 0.296774 0.000000
1.000000 0.309677 0.000000
1.000000 0.322581 0.000000
1.000000 0.335484 0.000000
1.000000 0.348387 0.000000
1.000000 0.361290 0.000000
1.000000 0.374194 0.000000
1.000000 0.387097 0.000000
1.000000 0.400000 0.000000
1.000000 0.412903 0.000000
1.000000 0.425806 0.000000
1.000000 0.438710 0.000000
1.000000 0.451613 0.000000
1.000000 0.464516 0.000000
1.000000 0.477419 0.000000
1.000000 0.490323 0.000000
1.000000 0.503226 0.000000
1.000000 0.516129 0.000000
1.000000 0.529032 0.000000
1.000000 0.541935 0.000000
1.000000 0.554839 0.000000
1.000000 0.567742 0.000000
1.000000 0.580645 0.000000
1.000000 0.593548 0.000000
1.000000 0.606452 0.000000
1.000000 0.619355 0.000000
1.000000 0.632258 0.000000
1.000000 0.645161 0.000000
1.000000 0.658065 0.000000
1.000000 0.670968 0.000000
1.000000 0.683871 0.000000
1.000000 0.696774 0.000000
1.000000 0.709677 0.000000
1.000000 0.722581 0.000000
1.000000 0.735484 0.000000
1.000000 0.748387 0.000000
1.000000 0.761290 0.000000
1.000000 0.774194 0.000000
1.000000 0.787097 0.000000
1.000000 0.812500 0.000000
1.000000 0.825000 0.000000
1.000000 0.837500 0.000000
1.000000 0.850000 0.000000
1.000000 0.862500 0.000000
1.000000 0.875000 0.000000
1.000000 0.887500 0.000000
1.000000 0.900000 0.000000
1.000000 0.912500 0.000000
1.000000 0.925000 0.000000
1.000000 0.937500 0.000000
1.000000 0.950000 0.000000
1.000000 0.962500 0.000000
1.000000 0.975000 0.000000
1.000000 0.987500 0.000000
0.987013 1.000000 0.000000
0.974026 1.000000 0.000000
0.961039 1.000000 0.000000
0.948052 1.000000 0.000000
0.935065 1.000000 0.000000
0.922078 1.000000 0.000000
0.909091 1.000000 0.000000
0.896104 1.000000 0.000000
0.883117 1.000000 0.000000
0.870130 1.000000 0.000000
0.857143 1.000000 0.000000
0.844156 1.000000 0.000000
0.831169 1.000000 0.000000
0.818182 1.000000 0.000000
0.805195 1.000000 0.000000
0.792208 1.000000 0.000000
0.779221 1.000000 0.000000
0.766234 1.000000 0.000000
0.753247 1.000000 0.000000
0.740260 1.000000 0.000000
0.727273 1.000000 0.000000
0.714286 1.000000 0.000000
0.701299 1.000000 0.000000
0.688312 1.000000 0.000000
0.675325 1.000000 0.000000
0.662338 1.000000 0.000000
0.649351 1.000000 0.000000
0.636364 1.000000 0.000000
0.623377 1.000000 0.000000
0.610390 1.000000 0.000000
0.597403 1.000000 0.000000
0.584416 1.000000 0.000000
0.571429 1.000000 0.000000
0.558442 1.000000 0.000000
0.545455 1.000000 0.000000
0.532468 1.000000 0.000000
0.519481 1.000000 0.000000
0.506494 1.000000 0.000000
0.493506 1.000000 0.000000
0.480519 1.000000 0.000000
0.467532 1.000000 0.000000
0.454545 1.000000 0.000000
0.441558 1.000000 0.000000
0.428571 1.000000 0.000000
0.415584 1.000000 0.000000
0.402597 1.000000 0.000000
0.389610 1.000000 0.000000
0.376623 1.000000 0.000000
0.363636 1.000000 0.000000
0.350649 1.000000 0.000000
0.337662 1.000000 0.000000
0.324675 1.000000 0.000000
0.311688 1.000000 0.000000
0.298701 1.000000 0.000000
0.285714 1.000000 0.000000
0.272727 1.000000 0.000000
0.259740 1.000000 0.000000
0.246753 1.000000 0.000000
0.233766 1.000000 0.000000
0.220779 1.000000 0.000000
0.207792 1.000000 0.000000
0.194805 1.000000 0.000000
0.181818 1.000000 0.000000
0.168831 1.000000 0.000000
0.155844 1.000000 0.000000
0.142857 1.000000 0.000000
0.129870 1.000000 0.000000
0.116883 1.000000 0.000000
0.103896 1.000000 0.000000
0.090909 1.000000 0.000000
0.077922 1.000000 0.000000
0.064935 1.000000 0.000000
0.051948 1.000000 0.000000
0.038961 1.000000 0.000000
0.025974 1.000000 0.000000
0.012987 1.000000 0.000000
0.000000 0.987097 0.000000
0.000000 0.974194 0.000000
0.000000 0.961290 0.000000
0.000000 0.948387 0.000000
0.000000 0.935484 0.000000
0.000000 0.922581 0.000000
0.000000 0.909677 0.000000
0.000000 0.896774 0.000000
0.000000 0.883871 0.000000
0.000000 0.870968 0.000000
0.000000 0.858065 0.000000
0.000000 0.845161 0.000000
0.000000 0.832258 0.000000
0.000000 0.819355 0.000000
0.000000 0.806452 0.000000
0.000000 0.793548 0.000000
0.000000 0.780645 0.000000
0.000000 0.767742 0.000000
0.000000 0.754839 0.000000
0.000000 0.741935 0.000000
0.000000 0.729032 0.000000
0.000000 0.716129 0.000000
0.000000 0.703226 0.000000
0.000000 0.690323 0.000000
0.000000 0.677419 0.000000
0.000000 0.664516 0.000000
0.000000 0.651613 0.000000
0.000000 0.638710 0.000000
0.000000 0.625806 0.000000
0.000000 0.612903 0.000000
0.000000 0.600000 0.000000
0.000000 0.587097 0.000000
0.000000 0.574194 0.000000
0.000000 0.561290 0.000000
0.000000 0.548387 0.000000
0.000000 0.535484 0.000000
0.000000 0.522581 0.000000
0.000000 0.509677 0.000000
0.000000 0.496774 0.000000
0.000000 0.483871 0.000000
0.000000 0.470968 0.000000
0.000000 0.458065 0.000000
0.000000 0.445161 0.000000
0.000000 0.432258 0.000000
0.000000 0.419355 0.000000
0.000000 0.406452 0.000000
0.000000 0.393548 0.000000
0.000000 0.380645 0.000000
0.000000 0.367742 0.000000
0.000000 0.354839 0.000000
0.000000 0.341935 0.000000
0.000000 0.329032 0.000000
0.000000 0.316129 0.000000
0.000000 0.303226 0.000000
0.000000 0.290323 0.000000
0.000000 0.277419 0.000000
0.000000 0.264516 0.000000
0.000000 0.251613 0.000000
0.000000 0.238710 0.000000
0.000000 0.225806 0.000000
0.000000 0.212903 0.000000
0.000000 0.187500 0.000000
0.000000 0.175000 0.000000
0.000000 0.162500 0.000000
0.000000 0.150000 0.000000
0.000000 0.137500 0.000000
0.000000 0.125000 0.000000
0.000000 0.112500 0.000000
0.000000 0.100000 0.000000
0.000000 0.087500 0.000000
0.000000 0.075000 0.000000
0.000000 0.062500 0.000000
0.000000 0.050000 0.000000
0.000000 0.037500 0.000000
0.000000 0.025000 0.000000
0.000000 0.012500 0.000000
0.309756 0.338537 0.000000
0.319512 0.347073 0.000000
0.329268 0.355610 0.000000
0.339024 0.364146 0.000000
0.348780 0.372683 0.000000
0.358537 0.381220 0.000000
0.368293 0.389756 0.000000
0.378049 0.398293 0.000000
0.387805 0.406829 0.000000
0.397561 0.415366 0.000000
0.407317 0.423902 0.000000
0.417073 0.432439 0.000000
0.426829 0.440976 0.000000
0.436585 0.449512 0.000000
0.446341 0.458049 0.000000
0.456098 0.466585 0.000000
0.465854 0.475122 0.000000
0.475610 0.483659 0.000000
0.485366 0.492195 0.000000
0.495122 0.500732 0.000000
0.504878 0.509268 0.000000
0.514634 0.517805 0.000000
0.524390 0.526341 0.000000
0.534146 0.534878 0.000000
0.543902 0.543415 0.000000
0.553659 0.551951 0.000000
0.563415 0.560488 0.000000
0.573171 0.569024 0.000000
0.582927 0.577561 0.000000
0.592683 0.586098 0.000000
0.602439 0.594634 0.000000
0.612195 0.603171 0.000000
0.621951 0.611707 0.000000
0.631707 0.620244 0.000000
0.641463 0.628780 0.000000
0.651220 0.637317 0.000000
0.660976 0.645854 0.000000
0.670732 0.654390 0.000000
0.680488 0.662927 0.000000
0.690244 0.671463 0.000000
0.011538 0.205000 0.000000
0.023077 0.210000 0.000000
0.034615 0.215000 0.000000
0.046154 0.220000 0.000000
0.057692 0.225000 0.000000
0.069231 0.230000 0.000000
0.080769 0.235000 0.000000
0.092308 0.240000 0.000000
0.103846 0.245000 0.000000
0.115385 0.250000 0.000000
0.126923 0.255000 0.000000
0.138462 0.260000 0.000000
0.150000 0.265000 0.000000
0.161538 0.270000 0.000000
0.173077 0.275000 0.000000
[...]
POINT_DATA 7607
SCALARS UX float 1
LOOKUP_TABLE default
-0.000000
0.000000
0.001063
0.000804
-0.001193
-0.000994
-0.000882
0.000703
-0.000000
0.000000
-0.000000
0.000000
0.000000
0.000000
0.000000
-0.000000
0.000000
-0.000000
0.000000
-0.000000
0.000000
-0.000000
0.000000
-0.000000
0.000000
-0.000000
0.000000
0.000000
0.000000
-0.000000
0.000000
0.000000
0.000000
-0.000000
-0.000000
0.000000
-0.000000
0.000000
0.000000
-0.000000
-0.000000
-0.000000
0.000000
-0.000000
-0.000000
-0.000000
0.000000
0.000000
-0.000000
-0.000000
-0.000000
-0.000000
0.000000
0.000000
0.000000
-0.000000
0.000000
0.000000
-0.000000
-0.000000
0.000000
-0.000000
-0.000000
0.000000
-0.000000
0.000000
0.000000
-0.000000
0.000000
0.000000
0.000000
-0.000000
-0.000000
0.000000
0.000000
-0.000000
-0.000000
-0.000000
-0.000000
-0.000000
0.000000
0.000000
-0.000000
0.000000
0.000081
0.000213
0.000290
0.000360
0.000418
0.000473
0.000523
0.000570
0.000614
0.000655
0.000695
0.000733
0.000769
0.000805
0.000838
0.000872
0.000904
0.000937
0.000966
0.000998
0.001028
0.001059
0.001087
0.001116
0.001144
0.001170
0.001199
0.001224
0.001250
0.001275
0.001300
0.001323
0.001345
0.001367
0.001386
0.001405
0.001422
0.001437
0.001450
0.001462
0.001470
0.001476
0.001480
0.001481
0.001479
0.001473
0.001465
0.001453
0.001439
0.001420
0.001400
0.001376
0.001349
0.001320
0.001291
0.001260
0.001226
0.001194
0.001160
0.001125
0.001093
0.001032
0.001003
0.000977
0.000951
0.000928
0.000907
0.000887
0.000871
0.000855
0.000840
0.000830
0.000822
0.000814
0.000809
0.000806
0.000770
0.000736
0.000701
0.000667
0.000634
0.000601
0.000569
0.000538
0.000506
0.000475
0.000444
0.000413
0.000384
0.000356
0.000328
0.000302
0.000276
0.000251
0.000227
0.000204
0.000181
0.000159
0.000138
0.000118
0.000099
0.000080
0.000062
0.000044
0.000026
0.000009
-0.000009
-0.000027
-0.000045
-0.000064
-0.000083
-0.000102
-0.000121
-0.000142
-0.000163
-0.000185
-0.000207
-0.000229
-0.000252
-0.000276
-0.000300
-0.000324
-0.000349
-0.000374
-0.000400
-0.000426
-0.000452
-0.000479
-0.000506
-0.000532
-0.000560
-0.000587
-0.000615
-0.000643
-0.000671
-0.000699
-0.000727
-0.000755
-0.000784
-0.000812
-0.000841
-0.000869
-0.000898
-0.000927
-0.000956
-0.000985
-0.001014
-0.001043
-0.001073
-0.001103
-0.001133
-0.001163
-0.001193
-0.001195
-0.001197
-0.001201
-0.001204
-0.001209
-0.001215
-0.001222
-0.001230
-0.001238
-0.001248
-0.001258
-0.001268
-0.001280
-0.001292
-0.001306
-0.001320
-0.001334
-0.001349
-0.001366
-0.001382
-0.001397
-0.001415
-0.001432
-0.001450
-0.001467
-0.001485
-0.001503
-0.001519
-0.001538
-0.001554
-0.001570
-0.001586
-0.001599
-0.001613
-0.001624
-0.001635
-0.001643
-0.001650
-0.001653
-0.001655
-0.001654
-0.001651
-0.001643
-0.001633
-0.001619
-0.001602
-0.001580
-0.001555
-0.001527
-0.001495
-0.001460
-0.001420
-0.001379
-0.001336
-0.001291
-0.001243
-0.001194
-0.001144
-0.001094
-0.001042
-0.000943
-0.000893
-0.000845
-0.000795
-0.000746
-0.000697
-0.000646
-0.000597
-0.000543
-0.000487
-0.000431
-0.000368
-0.000296
-0.000219
-0.000086
-0.000796
-0.000830
-0.000841
-0.001054
-0.000965
-0.000861
-0.000836
-0.000806
-0.000767
-0.000712
-0.000703
-0.000641
-0.000575
-0.000517
-0.000443
-0.000406
-0.000347
-0.000284
-0.000272
-0.000204
-0.000182
-0.000107
-0.000057
0.000014
0.000075
0.000130
0.000222
0.000262
0.000343
0.000424
0.000436
0.000521
0.000562
0.000578
0.000599
0.000594
0.000649
0.000628
0.000607
0.000642
-0.000987
-0.000979
-0.000973
-0.000967
-0.000961
-0.000955
-0.000949
-0.000942
-0.000936
-0.000930
-0.000925
-0.000919
-0.000914
-0.000910
-0.000907
-0.000903
-0.000900
-0.000900
-0.000899
-0.000904
-0.000913
-0.000930
-0.000968
-0.001030
-0.000953
0.000817
0.000813
0.000806
0.000807
0.000807
0.000811
0.000817
0.000826
0.000834
0.000844
0.000856
0.000868
0.000881
0.000895
0.000909
0.000924
0.000939
0.000954
0.000968
0.000982
0.000997
0.001013
0.001028
0.001045
0.000169
0.000155
0.000192
0.000141
0.000888
0.000867
0.000888
-0.001233
-0.001227
-0.001233
-0.001110
-0.001138
-0.001070
0.000286
0.000334
0.000321
-0.001154
-0.001059
-0.001075
-0.001052
0.000556
0.000569
0.000590
0.000532
-0.000690
-0.000669
-0.000726
-0.000632
-0.000226
-0.000297
-0.001178
-0.001137
-0.001145
-0.001189
-0.000811
-0.000758
0.000190
0.000243
0.000236
0.000194
-0.000954
-0.000989
-0.000964
-0.000983
0.000852
0.000815
0.000841
0.000789
0.001140
0.001109
0.001131
0.000780
0.000787
0.001085
0.000756
0.000771
0.000797
0.000146
0.000134
0.000160
-0.000901
-0.000948
0.000151
0.000448
0.000490
0.000493
-0.000516
-0.000573
-0.000523
0.000543
-0.001179
-0.001176
0.000296
0.000236
0.000861
-0.000207
-0.000200
-0.000177
-0.000369
-0.000373
-0.000349
-0.000170
0.000165
0.000184
0.000179
0.000637
0.000668
0.000689
0.000710
-0.000079
-0.000090
-0.000084
-0.000660
-0.000700
-0.000651
-0.000090
0.001238
0.001252
0.001219
-0.000980
-0.000983
-0.001056
0.000860
0.000894
0.000876
0.000880
-0.000394
0.000034
0.000009
-0.000008
-0.000057
-0.000088
-0.000083
0.000488
0.000529
0.000525
0.000199
0.000173
0.000195
0.000511
0.000518
0.000551
0.000714
0.000741
0.000740
0.000714
0.000568
0.001159
0.001123
0.001154
-0.000068
-0.000044
-0.000400
-0.000456
-0.000434
-0.000427
-0.001228
-0.001200
-0.001222
-0.001187
-0.000184
-0.000191
-0.000204
-0.000166
0.000459
0.000458
0.000481
0.000440
0.000690
-0.000071
-0.000062
-0.000064
-0.000054
-0.001635
-0.001637
-0.001617
-0.000087
-0.000090
-0.000097
-0.001086
-0.001066
-0.001093
-0.000102
0.000382
0.000445
0.000401
-0.001218
-0.001198
-0.001212
-0.000889
-0.000884
-0.000909
-0.001204
0.001182
0.001173
0.001197
0.001165
0.001160
0.001172
0.001182
0.000653
0.000684
0.000682
-0.000154
-0.000176
-0.000152
0.000008
0.000034
0.000024
-0.000079
-0.000096
-0.000080
-0.000094
0.000526
0.000566
0.000525
-0.000588
-0.000617
-0.000567
-0.000633
-0.000733
-0.000720
-0.000686
-0.000686
0.000842
0.000839
0.000816
0.000790
0.000839
0.000803
0.000806
0.001300
0.001281
0.001274
0.000964
0.000907
-0.001346
-0.001346
-0.001369
0.000746
0.000770
0.000742
0.000775
0.001245
0.001221
0.001261
0.000970
0.000960
0.000953
0.000941
-0.000258
-0.000230
-0.001021
-0.001040
-0.001015
-0.000786
-0.000791
-0.000812
-0.000821
-0.000032
-0.000038
-0.000038
-0.001057
-0.000179
-0.000162
0.000222
0.000224
0.000197
0.001176
0.001161
0.001128
0.000250
-0.000144
-0.000103
-0.000105
-0.000122
-0.001102
-0.001120
-0.000127
-0.000119
-0.000138
0.000449
0.000470
0.000491
0.000233
0.000228
0.000256
0.000764
0.000740
-0.001108
-0.001138
-0.001133
-0.000509
-0.000485
0.001229
0.001205
0.000253
0.000912
0.000938
0.000922
0.000297
0.000300
0.000328
0.000327
-0.001355
-0.001343
-0.001360
-0.001337
-0.001356
-0.001328
-0.001341
-0.001303
0.000576
0.000540
0.000556
0.000570
-0.001331
-0.001317
-0.001320
-0.001306
0.001253
0.001271
0.001115
0.001101
0.001121
0.000574
0.000553
0.000584
0.001091
0.000615
0.000638
0.000604
0.000936
0.000607
-0.001477
-0.001477
-0.001496
-0.000166
-0.000172
-0.000205
-0.000620
-0.000647
-0.000652
-0.000223
-0.000221
-0.000181
0.000938
0.000649
-0.000249
0.001187
0.000655
0.000637
0.000624
0.000668
-0.001371
-0.001387
-0.000615
0.000333
0.000381
0.000351
0.000539
0.000507
0.000553
-0.001033
-0.001043
-0.001019
0.000183
0.000057
0.000017
-0.000523
-0.000567
0.001168
0.001135
0.000448
0.000409
0.000399
0.000513
-0.001362
-0.001385
-0.001370
-0.001382
-0.001349
-0.001336
-0.000069
-0.000059
-0.000066
-0.000061
0.001236
0.001213
0.000806
0.000814
0.000790
0.000842
0.000636
0.000616
0.000653
0.000628
0.000002
0.000005
0.000041
0.000261
0.000244
0.000272
-0.000107
-0.000121
-0.000119
-0.000115
-0.001356
-0.001318
0.000023
-0.000011
-0.001556
-0.001578
-0.001558
0.000737
0.000706
0.000773
-0.000513
-0.000451
-0.000551
0.000687
0.000680
0.000646
0.000691
0.000715
0.000323
0.000366
-0.000998
-0.001007
-0.001033
0.001261
0.001280
0.000007
0.000005
-0.000368
-0.000329
-0.000389
0.000231
-0.000351
-0.000347
-0.000371
0.000378
0.000394
0.000418
0.000613
0.000599
-0.000296
-0.000271
-0.000316
-0.000024
-0.000012
-0.000025
0.000422
-0.001386
-0.000740
-0.001403
0.001195
0.000334
0.000291
-0.000989
-0.000976
0.001176
0.001142
-0.000704
-0.000674
-0.000706
0.000369
0.000420
0.000375
-0.000075
-0.000065
-0.000096
-0.000079
-0.000683
-0.000851
-0.000875
-0.000864
-0.000890
0.001242
0.001220
-0.001393
-0.001420
-0.001414
0.000302
0.000280
0.000673
0.000638
0.000671
0.000639
0.000160
0.000185
0.000165
-0.001008
-0.000986
-0.000904
-0.000926
-0.000925
-0.000903
-0.001393
-0.001383
-0.001371
-0.001222
0.000147
0.000147
0.000172
0.000115
-0.000189
-0.000208
-0.000209
-0.001135
-0.001111
-0.001128
0.000706
0.000737
0.000711
0.000768
-0.001369
-0.001332
-0.001240
-0.001164
-0.001183
-0.001147
0.001261
0.001288
-0.001226
0.000433
0.000404
-0.001104
0.001000
0.000970
0.000969
-0.001062
-0.001070
-0.000414
-0.001159
-0.001151
0.000258
0.000181
-0.000375
-0.000442
-0.000407
-0.000024
-0.000026
0.000172
0.001271
0.001295
0.001287
0.001284
0.001267
0.001251
-0.000488
-0.000508
-0.000506
-0.000483
0.000515
0.000522
0.000563
-0.000236
-0.000180
0.000757
0.000748
0.001086
0.001071
-0.001222
-0.001191
-0.001207
-0.001219
-0.000508
-0.000540
-0.000542
-0.000570
0.001151
0.001127
0.001165
0.001191
0.001182
0.000510
0.000488
0.000482
0.000565
-0.001262
-0.001270
-0.001286
-0.001086
-0.001065
-0.000374
-0.000358
-0.000334
-0.000312
0.000507
0.000514
0.000484
0.000681
0.000716
0.000487
-0.000047
-0.000052
0.001114
0.000734
0.000732
0.000697
0.000573
0.000585
0.000609
0.000548
0.000481
-0.001088
0.000514
0.000709
0.000056
-0.000288
-0.000327
-0.000273
-0.001139
-0.001184
-0.001439
-0.001460
-0.001448
-0.001248
-0.001197
-0.000673
-0.000669
-0.000642
-0.001479
0.000907
0.000978
0.000719
0.000738
0.000754
-0.000359
-0.000407
0.000706
-0.000905
-0.000911
-0.000928
0.000345
0.000305
-0.000699
-0.000979
-0.000965
-0.001402
-0.000134
-0.000147
-0.000108
-0.001416
-0.000077
-0.000095
-0.001476
-0.001460
0.000557
0.000585
0.000604
0.001202
0.000039
0.000029
0.000043
0.000025
-0.001453
-0.001454
-0.001427
-0.000573
-0.000598
-0.000589
-0.000587
-0.000065
-0.000064
-0.000318
-0.000296
0.001076
0.001109
0.001072
0.000177
0.001029
0.001007
0.000205
0.000939
0.000486
0.000452
0.000453
0.000455
0.000497
-0.001160
-0.001188
-0.001173
-0.000117
-0.000109
-0.000129
-0.000110
0.001181
0.001152
-0.000342
-0.000390
-0.000938
-0.001059
-0.001025
-0.001006
-0.001005
-0.000973
-0.000972
-0.001088
-0.001115
0.000453
-0.001038
-0.000114
0.000457
-0.000103
0.001224
-0.000082
0.001147
0.001190
-0.000132
-0.000126
-0.000142
0.000788
0.000719
0.000731
-0.000115
-0.001343
-0.001370
-0.000150
-0.000108
0.000452
-0.000937
-0.000498
-0.000477
-0.000454
-0.000420
0.000643
0.000607
0.000609
-0.000271
-0.000249
-0.001175
-0.000491
0.000344
-0.000535
-0.001144
-0.001133
-0.001381
0.000894
0.000285
0.000213
-0.001344
0.000384
0.000742
-0.000357
-0.001572
-0.001553
-0.001538
0.000794
-0.000450
-0.000219
-0.000287
0.000084
0.000069
0.000070
0.000733
0.000756
0.000078
-0.000303
-0.000280
0.000480
0.000487
0.000987
0.000968
0.000525
0.000940
0.000949
0.000423
0.000423
0.000425
0.000466
-0.000912
0.000460
0.000479
0.000459
-0.000325
-0.000368
-0.001011
-0.001015
-0.001038
-0.001211
-0.001227
-0.001166
-0.001276
-0.000233
-0.000211
0.000424
0.000428
0.000422
0.001042
0.001085
0.001118
0.001004
-0.001005
0.000653
-0.000047
0.000288
0.000327
-0.001062
0.000811
0.000804
0.000840
0.000042
-0.001123
0.000295
0.000292
0.000323
0.000139
0.000254
0.000670
0.000673
0.000697
0.000702
-0.000081
-0.000129
-0.000102
-0.000170
0.001416
0.001414
0.001429
0.001396
-0.001098
-0.001106
-0.001085
-0.000056
0.000016
0.000436
0.000463
0.000431
0.000107
0.000172
0.000141
0.000477
0.000436
-0.001009
0.000956
0.000918
0.000923
-0.001095
-0.001133
-0.001273
-0.001298
-0.001305
0.000443
0.001254
0.001201
0.001221
0.001160
0.000944
-0.000238
-0.000203
-0.000217
0.000543
0.000584
-0.000230
0.000485
0.000491
-0.000112
-0.000136
-0.000132
-0.001076
-0.001093
-0.000256
-0.000538
-0.000544
-0.000523
-0.000559
0.001416
0.001402
0.001399
0.001383
-0.001257
-0.000131
-0.001239
-0.001186
-0.001299
0.000555
0.000583
0.000554
0.001214
0.001219
0.001184
-0.000442
-0.000376
-0.000413
-0.001182
0.000405
-0.001326
-0.001130
-0.001117
-0.001250
-0.001251
-0.001215
-0.001216
-0.001203
0.000293
0.000236
-0.001222
0.001050
-0.000140
-0.000157
-0.000142
-0.000016
-0.000019
-0.000031
-0.000412
-0.000149
0.000364
0.000356
0.000403
0.000799
-0.000309
-0.000345
-0.000238
0.000737
0.000769
0.000717
0.001091
0.001127
0.001010
-0.000080
-0.000079
-0.000910
-0.000897
-0.000925
-0.001008
-0.001545
-0.001527
-0.001523
-0.000940
-0.000956
-0.000928
0.000906
0.000922
0.000907
-0.001054
-0.001114
-0.001155
-0.000287
-0.000265
-0.000798
0.000649
0.000625
-0.000087
-0.000051
0.001240
0.001278
0.001216
0.001173
0.000652
0.000682
-0.000142
-0.000188
-0.000073
0.000361
0.000354
0.000386
-0.001040
0.000017
-0.000011
-0.000011
0.000054
-0.000421
-0.000407
-0.001188
-0.001163
-0.001174
-0.001068
-0.001067
-0.001093
0.000149
0.000091
0.000194
-0.001285
-0.001333
-0.001264
-0.001210
0.000393
0.001050
0.001000
0.000394
0.000395
0.000914
0.000439
0.001097
0.001138
0.000431
-0.000415
-0.000838
-0.000876
-0.000186
-0.000222
-0.000172
0.000107
0.000118
0.000095
0.001128
0.001138
0.001147
-0.001176
-0.001222
-0.001231
-0.001217
-0.000578
-0.000614
-0.000609
-0.001213
-0.001215
0.000432
-0.000648
-0.001154
-0.001123
-0.001104
0.000359
0.000324
0.000256
-0.000385
-0.000453
0.000100
0.000766
0.000805
-0.000041
-0.000036
-0.000041
-0.000350
-0.000260
0.000723
0.000695
-0.001068
-0.001006
-0.001137
-0.001176
0.001262
0.001310
0.001236
0.001185
0.000623
0.000598
-0.000636
-0.000689
-0.000613
-0.000094
-0.000051
-0.000309
-0.001319
-0.001377
-0.000351
-0.000038
0.000625
0.000658
-0.000149
-0.000199
-0.000039
-0.000046
0.000395
0.000400
-0.000220
-0.001040
-0.001016
-0.001215
0.000099
0.000047
-0.000587
-0.000550
-0.000563
-0.001293
-0.001233
-0.001046
-0.001075
0.000163
0.000213
-0.000199
-0.000909
-0.000884
-0.000899
0.001058
0.000975
0.001108
0.001148
-0.000553
-0.001073
-0.001008
-0.001132
0.001155
0.001154
0.001180
-0.001146
0.001125
-0.000869
0.000401
0.000683
0.000648
0.000665
0.001203
-0.001114
-0.001091
-0.001169
0.000353
0.000281
0.000463
0.001286
0.001231
-0.000475
-0.000552
-0.000462
0.001254
0.001202
0.001323
-0.000429
-0.000530
-0.000415
-0.000474
0.000632
-0.000042
0.000848
0.000836
0.000860
0.000393
-0.000308
-0.000131
-0.000132
-0.000145
-0.000112
0.000687
0.000818
-0.001355
-0.001133
-0.001151
-0.001099
-0.000242
-0.001319
-0.001262
-0.001400
-0.001204
-0.001239
0.001070
0.000674
0.000594
0.000704
0.000676
-0.000099
0.000647
0.000406
0.000587
0.000413
0.000570
-0.000137
-0.000970
-0.000959
-0.000948
-0.000056
-0.001018
-0.000987
0.000116
0.001001
0.001013
0.001014
-0.001416
0.001117
0.001164
0.001026
-0.001025
-0.001056
-0.000990
0.000173
0.000237
0.000071
-0.001430
0.000363
-0.001081
0.000365
-0.000174
-0.000197
-0.000178
-0.001607
-0.001579
-0.001595
-0.001190
-0.001043
0.000364
0.001293
0.000399
-0.001207
0.001024
0.001023
0.000996
-0.000197
-0.000174
-0.000271
-0.000251
-0.000417
-0.000397
-0.000374
0.000992
0.000401
-0.001135
-0.000995
0.000427
-0.000175
-0.000151
-0.001100
-0.001083
-0.001169
0.000372
0.000311
0.000507
0.000125
0.000134
0.000113
0.000122
0.000366
0.000371
-0.000206
-0.000187
0.000354
0.000316
0.000364
0.000511
0.000539
0.000546
-0.001146
-0.001164
-0.001148
-0.001233
0.000577
0.000503
0.000528
-0.000293
-0.000334
-0.000140
-0.000116
-0.000492
-0.000489
-0.000515
-0.001441
-0.001459
0.001219
-0.000402
-0.000458
0.001032
0.000989
0.001021
-0.001288
0.000959
0.000030
0.000049
0.000036
0.000044
-0.000515
-0.000644
-0.000663
-0.000668
-0.000370
-0.000334
-0.000360
-0.000997
-0.000303
-0.000372
0.000129
-0.000411
0.000378
-0.001094
0.000384
0.001452
0.001452
0.001439
0.000334
0.000336
-0.000228
-0.001004
0.000078
0.000089
0.000071
0.000180
-0.000474
0.000093
-0.000477
-0.000498
-0.000476
0.000334
0.000369
0.001300
0.001325
0.001310
-0.001312
-0.001291
-0.001295
0.001317
-0.001306
-0.001330
-0.001323
-0.001103
-0.001129
-0.001048
-0.001278
-0.001057
0.000071
0.000088
0.000075
0.000927
0.000891
-0.000255
-0.000237
0.000373
0.000336
0.000342
-0.000139
-0.000164
-0.000179
0.000468
0.000434
-0.001373
-0.001389
-0.001400
-0.001151
-0.001169
-0.001162
0.000395
0.000430
-0.000164
-0.001136
-0.001130
-0.001156
0.000879
0.000890
-0.000193
-0.000173
0.000334
-0.001359
-0.001341
-0.000008
-0.000016
-0.000011
-0.000275
-0.000316
0.000304
0.000307
-0.001324
0.000446
0.000486
-0.001154
0.000825
0.000857
0.000865
0.000818
-0.001464
-0.001456
-0.001434
0.000124
0.000120
0.000148
-0.000131
-0.000108
0.000817
0.000806
0.000844
0.000780
0.000872
0.000885
0.000304
0.000337
-0.000198
-0.000248
-0.000209
-0.000252
-0.001484
0.000008
-0.000003
0.000026
0.000349
0.000357
0.001133
0.001113
0.001118
0.001125
0.001104
0.001127
0.001107
-0.000113
-0.000114
-0.000097
0.000863
-0.000215
-0.000133
0.000078
0.000069
0.000064
0.000085
-0.000660
-0.000664
-0.000708
0.001024
-0.000609
-0.000757
-0.000759
-0.000802
0.000746
0.000745
0.000699
0.000441
0.000403
0.000967
0.001008
0.000979
0.000985
0.001009
0.000958
0.001006
0.001053
0.000709
0.001003
0.000987
-0.000240
-0.000220
0.001236
0.001223
0.001234
0.001224
0.001224
0.001245
0.001232
0.001208
-0.000356
0.000307
0.000309
0.000409
0.000461
0.000344
0.000787
0.000877
0.000840
0.000870
0.000845
0.001466
0.001448
0.001447
0.000274
0.000275
0.000370
0.000306
0.000335
0.000335
0.000305
0.000308
-0.000182
-0.000163
0.000275
-0.000153
0.001393
0.001409
0.001375
0.000940
0.000958
0.000920
-0.000260
-0.000297
-0.001026
-0.001060
-0.000250
-0.000272
-0.000249
-0.000266
-0.001118
-0.001093
-0.001111
-0.001097
0.000117
0.000119
0.000135
0.000128
0.000311
0.000349
-0.000122
-0.000100
0.000321
0.000329
0.000373
0.000428
0.001376
0.001362
0.001361
0.001342
0.000737
0.000605
0.000569
0.000578
0.001342
0.001362
0.001380
-0.000383
-0.000441
-0.000202
-0.000760
-0.000723
-0.000775
-0.000715
-0.000792
-0.000827
-0.000852
0.000280
0.000282
-0.000226
-0.000207
0.001435
-0.000338
0.000315
0.000247
0.000248
0.000784
-0.000971
0.000278
-0.000009
-0.000013
-0.000013
-0.000017
-0.000170
-0.000151
0.000247
0.000274
-0.000245
-0.000280
-0.000144
-0.000961
-0.000274
-0.000253
-0.000227
-0.000114
-0.000093
0.000294
0.000302
-0.000017
-0.000022
-0.000016
-0.000023
-0.000545
-0.000561
-0.000574
-0.000537
-0.000338
-0.000307
-0.000352
-0.000363
-0.000419
-0.000189
0.000253
0.000256
-0.000213
-0.000195
-0.000367
-0.000333
-0.000330
-0.000717
-0.000701
-0.000730
-0.001011
-0.001034
-0.001024
-0.001050
-0.000319
0.000251
0.000287
0.000223
0.000223
0.001069
0.001082
0.001080
0.001104
0.000245
0.000274
0.000267
-0.000157
-0.000137
-0.000233
-0.000264
0.000277
-0.000909
-0.000920
-0.000874
-0.000091
0.000073
0.000121
0.000105
0.000224
0.000247
0.000061
0.000054
0.000065
-0.001438
-0.001461
0.001089
0.001110
0.001092
0.001065
-0.000136
0.000268
0.000276
-0.000119
-0.001239
-0.000031
-0.000027
-0.000032
0.000981
0.000994
0.001019
-0.000284
-0.000341
-0.000314
-0.000305
0.000282
0.000323
-0.000184
0.000196
0.000201
0.000228
0.000231
-0.000346
-0.000402
-0.000176
0.000876
0.000834
0.001023
0.000879
0.000854
0.000069
0.000088
0.000079
0.000077
-0.000521
-0.000474
0.000227
-0.000224
-0.000249
-0.000057
-0.000062
-0.000069
-0.000053
-0.000302
0.000261
-0.000146
-0.000127
-0.001338
0.000980
0.000959
0.000986
0.000242
0.000250
-0.000867
-0.000855
-0.000842
-0.000883
-0.001581
-0.001599
-0.001596
-0.001616
0.001214
0.001203
-0.000165
0.000202
0.000207
0.000935
-0.000329
-0.000379
0.000957
-0.000494
-0.000516
-0.000508
0.000207
-0.001252
-0.001232
-0.001269
-0.001257
-0.001248
-0.001226
-0.001220
-0.001203
0.000145
-0.000285
0.000236
-0.000540
-0.000119
-0.000122
-0.000476
-0.000476
-0.000009
-0.000159
-0.000149
-0.000139
-0.000152
-0.000226
-0.000221
-0.000245
-0.000203
0.000218
0.000226
0.000251
-0.000451
0.000145
0.000169
0.000136
0.000182
-0.000264
-0.000270
-0.000244
0.000180
0.000155
-0.000077
-0.000082
-0.000069
-0.000095
-0.000311
-0.000359
-0.001572