# vtk DataFile Version 2.0
Test
ASCII
DATASET POLYDATA
POINTS 7607 float
0.000000 0.000000 0.000000
1.000000 0.000000 0.000000
1.000000 0.800000 0.000000
1.000000 1.000000 0.000000
0.000000 1.000000 0.000000
0.000000 0.200000 0.000000
0.300000 0.330000 0.000000
0.700000 0.680000 0.000000
0.012987 0.000000 0.000000
0.025974 0.000000 0.000000
0.038961 0.000000 0.000000
0.051948 0.000000 0.000000
0.064935 0.000000 0.000000
0.077922 0.000000 0.000000
0.090909 0.000000 0.000000
0.103896 0.000000 0.000000
0.116883 0.000000 0.000000
0.129870 0.000000 0.000000
0.142857 0.000000 0.000000
0.155844 0.000000 0.000000
0.168831 0.000000 0.000000
0.181818 0.000000 0.000000
0.194805 0.000000 0.000000
0.207792 0.000000 0.000000
0.220779 0.000000 0.000000
0.233766 0.000000 0.000000
0.246753 0.000000 0.000000
0.259740 0.000000 0.000000
0.272727 0.000000 0.000000
0.285714 0.000000 0.000000
0.298701 0.000000 0.000000
0.311688 0.000000 0.000000
0.324675 0.000000 0.000000
0.337662 0.000000 0.000000
0.350649 0.000000 0.000000
0.363636 0.000000 0.000000
0.376623 0.000000 0.000000
0.389610 0.000000 0.000000
0.402597 0.000000 0.000000
0.415584 0.000000 0.000000
0.428571 0.000000 0.000000
0.441558 0.000000 0.000000
0.454545 0.000000 0.000000
0.467532 0.000000 0.000000
0.480519 0.000000 0.000000
0.493506 0.000000 0.000000
0.506494 0.000000 0.000000
0.519481 0.000000 0.000000
0.532468 0.000000 0.000000
0.545455 0.000000 0.000000
0.558442 0.000000 0.000000
0.571429 0.000000 0.000000
0.584416 0.000000 0.000000
0.597403 0.000000 0.000000
0.610390 0.000000 0.000000
0.623377 0.000000 0.000000
0.636364 0.000000 0.000000
0.649351 0.000000 0.000000
0.662338 0.000000 0.000000
0.675325 0.000000 0.000000
0.688312 0.000000 0.000000
0.701299 0.000000 0.000000
0.714286 0.000000 0.000000
0.727273 0.000000 0.000000
0.740260 0.000000 0.000000
0.753247 0.000000 0.000000
0.766234 0.000000 0.000000
0.779221 0.000000 0.000000
0.792208 0.000000 0.000000
0.805195 0.000000 0.000000
0.818182 0.000000 0.000000
0.831169 0.000000 0.000000
0.844156 0.000000 0.000000
0.857143 0.000000 0.000000
0.870130 0.000000 0.000000
0.883117 0.000000 0.000000
0.896104 0.000000 0.000000
0.909091 0.000000 0.000000
0.922078 0.000000 0.000000
0.935065 0.000000 0.000000
0.948052 0.000000 0.000000
0.961039 0.000000 0.000000
0.974026 0.000000 0.000000
0.987013 0.000000 0.000000
1.000000 0.012903 0.000000
1.000000 0.025806 0.000000
1.000000 0.038710 0.000000
1.000000 0.051613 0.000000
1.000000 0.064516 0.000000
1.000000 0.077419 0.000000
1.000000 0.090323 0.000000
1.000000 0.103226 0.000000
1.000000 0.116129 0.000000
1.000000 0.129032 0.000000
1.000000 0.141935 0.000000
1.000000 0.154839 0.000000
1.000000 0.167742 0.000000
1.000000 0.180645 0.000000
1.000000 0.193548 0.000000
1.000000 0.206452 0.000000
1.000000 0.219355 0.000000
1.000000 0.232258 0.000000
1.000000 0.245161 0.000000
1.000000 0.258065 0.000000
1.000000 0.270968 0.000000
1.000000 0.283871 0.000000
1.000000 0.296774 0.000000
1.000000 0.309677 0.000000
1.000000 0.322581 0.000000
1.000000 0.335484 0.000000
1.000000 0.348387 0.000000
1.000000 0.361290 0.000000
1.000000 0.374194 0.000000
1.000000 0.387097 0.000000
1.000000 0.400000 0.000000
1.000000 0.412903 0.000000
1.000000 0.425806 0.000000
1.000000 0.438710 0.000000
1.000000 0.451613 0.000000
1.000000 0.464516 0.000000
1.000000 0.477419 0.000000
1.000000 0.490323 0.000000
1.000000 0.503226 0.000000
1.000000 0.516129 0.000000
1.000000 0.529032 0.000000
1.000000 0.541935 0.000000
1.000000 0.554839 0.000000
1.000000 0.567742 0.000000
1.000000 0.580645 0.000000
1.000000 0.593548 0.000000
1.000000 0.606452 0.000000
1.000000 0.619355 0.000000
1.000000 0.632258 0.000000
1.000000 0.645161 0.000000
1.000000 0.658065 0.000000
1.000000 0.670968 0.000000
1.000000 0.683871 0.000000
1.000000 0.696774 0.000000
1.000000 0.709677 0.000000
1.000000 0.722581 0.000000
1.000000 0.735484 0.000000
1.000000 0.748387 0.000000
1.000000 0.761290 0.000000
1.000000 0.774194 0.000000
1.000000 0.787097 0.000000
1.000000 0.812500 0.000000
1.000000 0.825000 0.000000
1.000000 0.837500 0.000000
1.000000 0.850000 0.000000
1.000000 0.862500 0.000000
1.000000 0.875000 0.000000
1.000000 0.887500 0.000000
1.000000 0.900000 0.000000
1.000000 0.912500 0.000000
1.000000 0.925000 0.000000
1.000000 0.937500 0.000000
1.000000 0.950000 0.000000
1.000000 0.962500 0.000000
1.000000 0.975000 0.000000
1.000000 0.987500 0.000000
0.987013 1.000000 0.000000
0.974026 1.000000 0.000000
0.961039 1.000000 0.000000
0.948052 1.000000 0.000000
0.935065 1.000000 0.000000
0.922078 1.000000 0.000000
0.909091 1.000000 0.000000
0.896104 1.000000 0.000000
0.883117 1.000000 0.000000
0.870130 1.000000 0.000000
0.857143 1.000000 0.000000
0.844156 1.000000 0.000000
0.831169 1.000000 0.000000
0.818182 1.000000 0.000000
0.805195 1.000000 0.000000
0.792208 1.000000 0.000000
0.779221 1.000000 0.000000
0.766234 1.000000 0.000000
0.753247 1.000000 0.000000
0.740260 1.000000 0.000000
0.727273 1.000000 0.000000
0.714286 1.000000 0.000000
0.701299 1.000000 0.000000
0.688312 1.000000 0.000000
0.675325 1.000000 0.000000
0.662338 1.000000 0.000000
0.649351 1.000000 0.000000
0.636364 1.000000 0.000000
0.623377 1.000000 0.000000
0.610390 1.000000 0.000000
0.597403 1.000000 0.000000
0.584416 1.000000 0.000000
0.571429 1.000000 0.000000
0.558442 1.000000 0.000000
0.545455 1.000000 0.000000
0.532468 1.000000 0.000000
0.519481 1.000000 0.000000
0.506494 1.000000 0.000000
0.493506 1.000000 0.000000
0.480519 1.000000 0.000000
0.467532 1.000000 0.000000
0.454545 1.000000 0.000000
0.441558 1.000000 0.000000
0.428571 1.000000 0.000000
0.415584 1.000000 0.000000
0.402597 1.000000 0.000000
0.389610 1.000000 0.000000
0.376623 1.000000 0.000000
0.363636 1.000000 0.000000
0.350649 1.000000 0.000000
0.337662 1.000000 0.000000
0.324675 1.000000 0.000000
0.311688 1.000000 0.000000
0.298701 1.000000 0.000000
0.285714 1.000000 0.000000
0.272727 1.000000 0.000000
0.259740 1.000000 0.000000
0.246753 1.000000 0.000000
0.233766 1.000000 0.000000
0.220779 1.000000 0.000000
0.207792 1.000000 0.000000
0.194805 1.000000 0.000000
0.181818 1.000000 0.000000
0.168831 1.000000 0.000000
0.155844 1.000000 0.000000
0.142857 1.000000 0.000000
0.129870 1.000000 0.000000
0.116883 1.000000 0.000000
0.103896 1.000000 0.000000
0.090909 1.000000 0.000000
0.077922 1.000000 0.000000
0.064935 1.000000 0.000000
0.051948 1.000000 0.000000
0.038961 1.000000 0.000000
0.025974 1.000000 0.000000
0.012987 1.000000 0.000000
0.000000 0.987097 0.000000
0.000000 0.974194 0.000000
0.000000 0.961290 0.000000
0.000000 0.948387 0.000000
0.000000 0.935484 0.000000
0.000000 0.922581 0.000000
0.000000 0.909677 0.000000
0.000000 0.896774 0.000000
0.000000 0.883871 0.000000
0.000000 0.870968 0.000000
0.000000 0.858065 0.000000
0.000000 0.845161 0.000000
0.000000 0.832258 0.000000
0.000000 0.819355 0.000000
0.000000 0.806452 0.000000
0.000000 0.793548 0.000000
0.000000 0.780645 0.000000
0.000000 0.767742 0.000000
0.000000 0.754839 0.000000
0.000000 0.741935 0.000000
0.000000 0.729032 0.000000
0.000000 0.716129 0.000000
0.000000 0.703226 0.000000
0.000000 0.690323 0.000000
0.000000 0.677419 0.000000
0.000000 0.664516 0.000000
0.000000 0.651613 0.000000
0.000000 0.638710 0.000000
0.000000 0.625806 0.000000
0.000000 0.612903 0.000000
0.000000 0.600000 0.000000
0.000000 0.587097 0.000000
0.000000 0.574194 0.000000
0.000000 0.561290 0.000000
0.000000 0.548387 0.000000
0.000000 0.535484 0.000000
0.000000 0.522581 0.000000
0.000000 0.509677 0.000000
0.000000 0.496774 0.000000
0.000000 0.483871 0.000000
0.000000 0.470968 0.000000
0.000000 0.458065 0.000000
0.000000 0.445161 0.000000
0.000000 0.432258 0.000000
0.000000 0.419355 0.000000
0.000000 0.406452 0.000000
0.000000 0.393548 0.000000
0.000000 0.380645 0.000000
0.000000 0.367742 0.000000
0.000000 0.354839 0.000000
0.000000 0.341935 0.000000
0.000000 0.329032 0.000000
0.000000 0.316129 0.000000
0.000000 0.303226 0.000000
0.000000 0.290323 0.000000
0.000000 0.277419 0.000000
0.000000 0.264516 0.000000
0.000000 0.251613 0.000000
0.000000 0.238710 0.000000
0.000000 0.225806 0.000000
0.000000 0.212903 0.000000
0.000000 0.187500 0.000000
0.000000 0.175000 0.000000
0.000000 0.162500 0.000000
0.000000 0.150000 0.000000
0.000000 0.137500 0.000000
0.000000 0.125000 0.000000
0.000000 0.112500 0.000000
0.000000 0.100000 0.000000
0.000000 0.087500 0.000000
0.000000 0.075000 0.000000
0.000000 0.062500 0.000000
0.000000 0.050000 0.000000
0.000000 0.037500 0.000000
0.000000 0.025000 0.000000
0.000000 0.012500 0.000000
0.309756 0.338537 0.000000
0.319512 0.347073 0.000000
0.329268 0.355610 0.000000
0.339024 0.364146 0.000000
0.348780 0.372683 0.000000
0.358537 0.381220 0.000000
0.368293 0.389756 0.000000
0.378049 0.398293 0.000000
0.387805 0.406829 0.000000
0.397561 0.415366 0.000000
0.407317 0.423902 0.000000
0.417073 0.432439 0.000000
0.426829 0.440976 0.000000
0.436585 0.449512 0.000000
0.446341 0.458049 0.000000
0.456098 0.466585 0.000000
0.465854 0.475122 0.000000
0.475610 0.483659 0.000000
0.485366 0.492195 0.000000
0.495122 0.500732 0.000000
0.504878 0.509268 0.000000
0.514634 0.517805 0.000000
0.524390 0.526341 0.000000
0.534146 0.534878 0.000000
0.543902 0.543415 0.000000
0.553659 0.551951 0.000000
0.563415 0.560488 0.000000
0.573171 0.569024 0.000000
0.582927 0.577561 0.000000
0.592683 0.586098 0.000000
0.602439 0.594634 0.000000
0.612195 0.603171 0.000000
0.621951 0.611707 0.000000
0.631707 0.620244 0.000000
0.641463 0.628780 0.000000
0.651220 0.637317 0.000000
0.660976 0.645854 0.000000
0.670732 0.654390 0.000000
0.680488 0.662927 0.000000
0.690244 0.671463 0.000000
0.011538 0.205000 0.000000
0.023077 0.210000 0.000000
0.034615 0.215000 0.000000
0.046154 0.220000 0.000000
0.057692 0.225000 0.000000
0.069231 0.230000 0.000000
0.080769 0.235000 0.000000
0.092308 0.240000 0.000000
0.103846 0.245000 0.000000
0.115385 0.250000 0.000000
0.126923 0.255000 0.000000
0.138462 0.260000 0.000000
0.150000 0.265000 0.000000
0.161538 0.270000 0.000000
0.173077 0.275000 0.000000
[...]
POINT_DATA 7607
SCALARS UX float 1
LOOKUP_TABLE default
0.006350
0.001460
0.182272
-0.400948
-0.436879
-0.130945
0.061672
-0.494896
-0.002224
0.000115
0.002616
0.001416
0.010970
0.000296
-0.000225
0.010606
0.000288
0.001137
-0.000289
0.000059
0.000191
-0.000092
-0.000159
0.000164
-0.000107
0.000240
0.000111
-0.001372
-0.000229
-0.000174
-0.000786
-0.007675
0.000242
-0.000206
-0.000215
-0.000273
0.000326
0.000351
0.000968
-0.000000
-0.000422
-0.001086
0.000234
0.001237
0.000049
-0.001477
-0.000916
-0.000028
-0.000428
0.000104
0.000006
-0.004669
-0.000273
-0.000478
-0.000190
-0.001231
0.000186
-0.000056
0.000116
-0.001347
-0.001950
0.000603
-0.000353
-0.001468
0.001833
0.001226
-0.003068
0.000088
0.000779
0.000991
-0.001211
-0.000129
-0.003502
0.000942
0.004719
0.002965
-0.006438
0.000198
-0.000944
0.002383
-0.000027
0.000017
-0.000214
-0.005711
0.000130
0.008961
0.004873
0.000589
0.003193
0.002152
0.001617
0.006007
0.013125
0.017881
0.014272
0.022404
0.010748
0.031483
0.012964
0.017026
0.027830
0.030271
0.030564
0.040686
0.033850
0.042256
0.047406
0.034090
0.051603
0.056977
0.050268
0.071410
0.066393
0.068933
0.073486
0.073139
0.083440
0.083294
0.098358
0.088722
0.101708
0.112964
0.101831
0.115174
0.128760
0.120497
0.143924
0.144741
0.133420
0.163880
0.173237
0.145489
0.190809
0.148493
0.169657
0.177295
0.185287
0.197424
0.195119
0.187930
0.213731
0.129913
0.185588
0.326341
0.126028
-0.185417
0.036850
-0.033824
-0.332782
-0.304694
-0.241196
-0.403972
-0.303037
-0.370115
-0.360890
-0.408421
-0.362714
-0.374839
-0.402428
-0.386537
-0.384043
-0.387766
-0.395659
-0.406367
-0.399426
-0.401453
-0.398276
-0.403019
-0.404644
-0.406008
-0.402954
-0.405259
-0.405329
-0.400779
-0.407061
-0.409725
-0.400623
-0.412415
-0.416104
-0.407762
-0.406690
-0.410505
-0.405959
-0.409497
-0.409306
-0.413961
-0.408595
-0.408538
-0.413097
-0.409744
-0.413732
-0.411934
-0.408945
-0.415601
-0.410481
-0.411482
-0.408971
-0.409706
-0.413864
-0.409521
-0.405440
-0.414267
-0.410387
-0.409524
-0.406935
-0.409381
-0.410753
-0.409732
-0.409375
-0.412563
-0.412193
-0.417582
-0.416629
-0.421609
-0.416725
-0.421672
-0.418129
-0.424668
-0.425924
-0.422653
-0.427907
-0.428905
-0.427879
-0.423677
-0.433176
-0.438231
-0.433938
-0.435867
-0.440169
-0.437608
-0.437098
-0.440638
-0.443196
-0.444243
-0.443951
-0.445516
-0.449346
-0.448950
-0.448641
-0.435858
-0.444579
-0.432156
-0.440214
-0.442768
-0.447957
-0.446099
-0.443546
-0.468276
-0.452237
-0.455318
-0.450724
-0.455323
-0.465468
-0.460685
-0.458302
-0.451887
-0.463490
-0.465487
-0.464151
-0.461636
-0.473756
-0.463606
-0.467078
-0.478814
-0.476599
-0.475863
-0.453193
-0.455356
-0.465461
-0.481570
-0.482399
-0.493274
-0.481708
-0.496708
-0.496215
-0.512408
-0.494582
-0.507402
-0.503491
-0.510814
-0.512533
-0.512362
-0.526214
-0.523803
-0.528677
-0.517966
-0.505199
-0.526477
-0.504236
-0.494727
-0.479253
-0.443398
-0.416399
-0.415247
-0.399666
-0.313601
-0.425811
-0.241729
-0.098390
-0.203602
-0.068998
-0.020285
-0.041332
-0.025487
-0.019344
-0.012562
-0.016981
-0.010108
-0.020016
-0.008372
-0.007738
-0.006967
-0.092564
0.027054
-0.182534
-0.163540
-0.167991
-0.024733
-0.043965
-0.183409
-0.036928
-0.100982
-0.015834
-0.201776
-0.099462
-0.094238
-0.106907
-0.094243
0.005725
-0.122496
-0.005449
-0.145557
-0.136767
-0.134627
-0.223316
-0.085288
-0.093104
-0.053283
-0.048724
-0.047867
-0.029130
-0.114010
-0.237827
-0.371674
-0.107342
-0.182533
-0.201261
-0.333877
-0.298839
-0.212217
-0.362674
-0.287920
-0.284892
-0.415502
-0.104908
-0.205693
-0.284052
-0.383819
-0.439467
-0.207945
-0.431831
-0.114167
-0.322725
-0.238818
-0.349954
-0.330285
-0.276748
-0.520397
-0.302343
-0.220475
-0.251399
-0.459884
-0.382195
-0.378513
-0.392414
-0.258411
-0.443318
0.173380
0.020958
-0.144916
0.263805
0.080019
0.060796
0.143337
-0.030417
-0.039801
-0.143844
0.097284
-0.058171
-0.142394
0.206620
-0.159244
0.120668
-0.051359
-0.144761
0.138814
-0.075535
-0.138361
0.157634
0.117447
0.023466
-0.392181
-0.397188
-0.406850
-0.399757
0.066287
0.056087
0.073286
-0.578350
-0.356124
-0.315895
-0.372337
-0.380787
-0.377329
-0.006411
0.000240
0.011797
-0.411454
-0.426297
-0.432030
-0.454023
0.018606
-0.000264
0.012254
0.000895
-0.103919
-0.010482
-0.131314
-0.046769
-0.000904
-0.006185
-0.412654
-0.378641
-0.601899
-0.451456
-0.014430
-0.084968
0.005437
-0.001261
-0.005604
0.000395
-0.430990
-0.429797
-0.440868
-0.444323
-0.281599
-0.307332
-0.125498
-0.250236
0.160274
0.137532
0.129207
-0.391568
-0.416934
0.140495
0.023896
0.004507
0.029694
-0.416104
-0.408517
-0.401561
0.122668
-0.487423
-0.402449
-0.380114
-0.328027
-0.371868
-0.026357
-0.058439
-0.007335
-0.439114
-0.431668
-0.433536
-0.011942
-0.000835
0.070878
0.000386
-0.007166
-0.004222
-0.411473
-0.409758
-0.412931
-0.013050
-0.414298
-0.412958
-0.399200
0.012446
0.019124
-0.002071
0.009498
0.002701
-0.002347
-0.004398
-0.066197
0.006730
-0.007064
-0.006905
0.100759
0.169366
0.194529
-0.674432
-0.330592
-0.281659
-0.323747
-0.376761
-0.473837
-0.406465
-0.410928
-0.376221
-0.441934
-0.387413
-0.015242
0.014340
0.003289
0.001897
0.041592
0.025355
-0.411740
-0.399816
-0.397032
0.003584
0.006259
0.014337
-0.387966
-0.390011
-0.393460
-0.382486
0.017030
0.116646
0.173827
0.105106
-0.006459
-0.365841
-0.020998
0.017717
0.009962
-0.009671
-0.484075
-0.475246
-0.483881
-0.527306
-0.398206
-0.423501
-0.415078
-0.409080
-0.397330
-0.406386
-0.413483
-0.399617
-0.110369
-0.002840
-0.000877
-0.001124
0.002063
-0.507201
-0.475470
-0.505351
-0.002377
-0.002133
-0.000024
-0.456794
-0.436453
-0.436853
-0.005788
-0.366717
-0.399041
-0.419976
-0.480040
-0.486186
-0.448194
-0.431252
-0.428424
-0.438933
-0.477051
0.118777
0.102163
0.106950
0.116121
0.132392
0.078154
0.111779
0.035568
0.041494
0.033508
-0.411965
-0.407162
-0.399960
-0.407764
-0.407226
-0.403089
-0.003470
-0.003814
-0.004301
-0.001760
0.003276
0.014676
0.001890
-0.039494
0.000330
-0.032616
-0.075095
-0.431055
-0.430703
-0.436694
-0.424423
0.059312
0.065342
0.058570
0.046189
0.046788
0.041986
0.056247
0.111413
0.123303
0.102042
0.171394
0.014317
-0.481092
-0.473892
-0.481271
-0.244323
-0.387815
-0.372521
-0.324175
0.135642
0.173652
0.168230
0.085657
0.083998
0.081172
0.065831
-0.412270
-0.403405
-0.458616
-0.445124
-0.436136
-0.411068
-0.429159
-0.420637
-0.428794
0.001174
-0.005873
0.003627
-0.446797
-0.421106
-0.415315
-0.007844
0.014646
-0.012604
0.170358
0.131163
0.199010
-0.003128
-0.002958
-0.003647
-0.008012
-0.009854
-0.436597
-0.444855
-0.001030
-0.006077
-0.000673
0.005914
0.002573
-0.012343
-0.006340
0.000105
0.001670
-0.355899
-0.375367
-0.435004
-0.446755
-0.425277
-0.038118
-0.018612
0.159968
0.156776
0.001198
0.069814
0.076010
0.071316
0.013668
-0.016916
-0.005432
0.015685
-0.483202
-0.478824
-0.510387
-0.480537
-0.534879
-0.463266
-0.517634
-0.457089
0.024814
-0.011193
0.055617
0.073378
-0.512381
-0.495213
-0.483379
-0.467775
0.130924
0.175978
0.102707
0.094227
0.063879
-0.399388
-0.399367
-0.394630
0.079413
-0.377942
-0.394014
-0.411078
0.051483
-0.404737
-0.471846
-0.493209
-0.457092
-0.011195
0.010317
-0.007598
-0.420501
-0.428912
-0.417347
-0.013962
-0.011680
0.008973
0.047621
0.029015
0.004188
0.103278
-0.391386
-0.401864
-0.370360
-0.404541
-0.507952
-0.507872
-0.425221
0.012893
0.008696
0.008468
0.015386
0.007167
0.008562
-0.430194
-0.446586
-0.443190
-0.441997
-0.385192
-0.375469
-0.039432
-0.015668
0.146354
0.090720
-0.005008
0.008106
0.004234
0.016033
-0.470232
-0.512118
-0.470909
-0.507168
-0.532898
-0.484856
-0.013538
0.017441
0.002751
-0.006640
0.151456
0.127034
0.049255
-0.016240
0.062715
0.025268
0.040240
0.042226
0.048105
0.037308
-0.417769
-0.420035
-0.390724
0.014202
0.008087
0.011381
0.002423
-0.008998
0.000626
-0.003366
-0.542503
-0.461487
-0.399767
-0.411600
-0.488984
-0.504403
-0.550524
-0.353290
-0.376354
-0.390093
-0.030656
-0.026817
0.009311
-0.401318
-0.392665
-0.396272
-0.354047
-0.394640
-0.004117
-0.000587
-0.421787
-0.434184
-0.433108
0.137972
0.110123
-0.394453
-0.428388
-0.020916
0.006960
-0.008848
0.012581
-0.024307
-0.014776
-0.017572
0.028039
0.023346
0.035715
-0.396784
-0.397263
-0.037791
-0.004301
0.001836
-0.409757
-0.409184
-0.412198
0.029731
-0.488348
-0.426744
-0.478478
0.224191
0.014132
0.012267
-0.443182
-0.440382
0.138902
0.163295
-0.428929
-0.420858
-0.426715
-0.406046
-0.354060
-0.001131
-0.009254
0.003481
0.004204
-0.011138
-0.425487
-0.421782
-0.452048
-0.456946
-0.419651
0.139771
0.150895
-0.478881
-0.479391
-0.480440
0.007440
0.006997
-0.366138
-0.384248
-0.363584
-0.390905
0.003723
0.008094
0.001932
-0.448926
-0.430005
-0.432120
-0.426005
-0.428767
-0.423061
-0.486486
-0.451261
-0.503761
-0.450816
0.000131
-0.001930
-0.004438
-0.002905
-0.015451
-0.012600
-0.006319
-0.454981
-0.451762
-0.451920
-0.394874
-0.327920
-0.310030
-0.397440
-0.516346
-0.492673
-0.465634
-0.444686
-0.447354
-0.458962
0.152023
0.190976
-0.500634
0.013566
-0.009609
-0.435233
-0.093061
-0.489502
0.347928
-0.448599
-0.427399
-0.002946
-0.458240
-0.453789
0.014928
0.004405
0.002059
-0.038969
-0.025627
-0.002022
0.000071
-0.005756
0.111536
0.159494
0.123755
0.113092
0.141790
0.139207
-0.419863
-0.415500
-0.413086
-0.410014
0.014826
0.006556
0.020068
-0.031332
-0.007307
-0.372715
-0.385596
0.089652
0.065970
-0.461903
-0.452261
-0.448376
-0.445481
-0.001312
-0.040813
-0.049081
-0.028858
0.038567
0.291701
0.175619
0.219168
0.262881
-0.421530
-0.395849
-0.400921
0.015170
-0.460051
-0.460540
-0.497823
-0.402575
-0.325026
-0.005614
-0.005638
-0.002474
-0.026553
-0.425510
-0.385614
-0.399609
-0.399534
-0.398560
-0.395283
-0.003270
-0.001183
0.172028
0.059562
0.064665
0.035589
-0.373704
-0.380451
-0.400245
-0.402336
-0.383604
-0.454300
-0.353332
0.041259
0.002698
0.008556
-0.000697
-0.027314
-0.362621
-0.447497
-0.516462
-0.481436
-0.510078
-0.440341
-0.387380
-0.430437
-0.428433
-0.428592
-0.506624
0.142242
0.062792
0.036345
0.065887
0.056806
-0.012158
-0.002443
0.037472
-0.441929
-0.431868
-0.446519
-0.017809
-0.007595
-0.433121
-0.429202
-0.435627
-0.480880
0.005623
-0.011490
-0.011217
-0.504559
-0.000041
-0.004585
-0.469998
-0.458227
0.041694
0.040373
0.040009
0.095245
-0.001810
0.005647
0.000204
-0.006024
-0.446751
-0.481428
-0.478755
-0.424349
-0.421768
-0.434326
-0.414239
0.002794
0.003524
-0.012920
-0.001153
0.204836
0.122304
0.199117
0.006168
0.083764
0.299267
-0.002728
-0.231385
-0.395484
-0.388334
-0.403408
-0.406967
-0.410130
-0.453989
-0.450018
-0.449704
-0.405386
-0.416446
-0.412434
-0.403775
0.169808
0.119481
-0.022975
-0.017440
-0.449473
-0.320207
-0.436573
-0.230652
-0.457803
-0.438554
-0.453918
-0.407507
-0.374912
-0.387093
-0.223930
-0.011143
-0.404426
-0.006852
0.205089
-0.008337
0.252963
0.183917
-0.009671
-0.001170
0.000976
0.005851
-0.376094
-0.391316
-0.002314
-0.452514
-0.480969
-0.009881
-0.001222
-0.397397
-0.425092
0.003453
-0.023921
-0.011701
-0.017351
-0.372634
-0.377906
-0.384442
-0.016802
0.024617
-0.456386
-0.021256
0.013910
-0.071970
-0.430571
-0.428664
-0.518253
0.015079
-0.006951
-0.006749
-0.487235
0.017056
0.021594
-0.024745
-0.531477
-0.503420
-0.518823
-0.361814
-0.015712
-0.001284
-0.000675
-0.404468
-0.416016
-0.404279
-0.395442
-0.383099
-0.411693
0.003486
0.002484
0.007766
0.000364
-0.033745
0.054957
0.009397
-0.410290
0.303918
-0.375036
-0.398871
-0.421913
-0.374974
-0.188175
-0.396926
-0.396328
-0.386909
-0.014757
0.010821
-0.446768
-0.427557
-0.439691
-0.407316
-0.442490
-0.426459
-0.441478
-0.015172
-0.009193
-0.401478
-0.391159
-0.387474
0.045988
0.061064
0.227601
-0.001904
-0.455928
-0.375612
-0.014096
0.000902
-0.004756
-0.433939
0.054960
0.048326
0.062552
0.000001
-0.454168
-0.003730
0.001592
0.001649
0.009108
0.002308
-0.371986
-0.401232
-0.401237
-0.401717
-0.003546
-0.006530
0.002762
-0.004044
0.138676
0.139146
0.143055
0.134763
-0.437422
-0.451938
-0.428880
-0.382831
-0.423121
0.032700
0.029705
0.033321
0.004913
0.007951
-0.009064
0.038423
-0.410549
-0.428115
0.063784
0.054280
0.070151
-0.473959
-0.450580
-0.462702
-0.439891
-0.449440
-0.401752
0.167338
0.197338
0.180207
0.160167
0.144347
-0.390067
-0.390912
-0.426316
0.001507
0.002213
-0.432461
0.011779
0.014417
-0.410497
-0.404376
-0.412694
-0.435478
-0.440439
-0.005646
-0.422543
-0.417974
-0.407108
-0.421728
0.149273
0.123437
0.163181
0.174111
-0.446825
-0.401531
-0.456911
-0.423303
-0.435199
0.034674
0.045916
0.044490
0.064066
0.062563
0.069374
-0.000893
-0.010215
-0.014754
-0.457630
0.017027
-0.472026
-0.441942
-0.426379
-0.487159
-0.483993
-0.495231
-0.451919
-0.513866
0.005284
-0.009666
-0.472787
0.303720
-0.007120
-0.004238
-0.003065
-0.417467
-0.412988
-0.407786
-0.026416
-0.011140
0.005205
0.003978
0.005783
-0.346608
-0.026311
-0.001825
-0.009351
-0.384134
-0.398218
-0.393792
0.166523
0.196082
0.197970
-0.001421
-0.001797
-0.431343
-0.433315
-0.432154
-0.229238
-0.486466
-0.502333
-0.491906
-0.430141
-0.437884
-0.419368
-0.116638
-0.253065
-0.239211
-0.391710
-0.358655
-0.432327
-0.017452
-0.006790
-0.119955
-0.429562
-0.391406
0.025053
-0.015327
0.215958
0.237341
0.184537
0.195602
-0.403111
-0.399457
-0.011789
-0.000952
-0.004283
0.019609
-0.012267
-0.000989
-0.435398
0.018344
-0.012233
-0.014792
-0.003284
-0.417941
-0.409060
-0.459064
-0.470495
-0.499548
-0.429329
-0.448288
-0.452465
-0.002053
0.002430
0.007353
-0.504839
-0.496194
-0.451631
-0.465979
-0.405102
0.035524
0.050203
-0.404812
-0.381238
-0.193725
-0.414648
0.188109
0.253360
-0.405286
-0.408040
-0.149126
-0.313402
-0.004740
-0.012141
-0.013770
-0.410585
-0.407036
-0.413812
0.091639
0.192613
0.104613
-0.431320
-0.438910
-0.443776
-0.404568
-0.395280
-0.441257
-0.432436
-0.475560
-0.482395
-0.010494
-0.435465
-0.433811
-0.449492
-0.444286
0.002225
0.008348
0.010896
-0.013319
-0.012276
-0.403687
-0.396148
-0.375338
-0.001326
-0.002602
-0.004202
-0.002274
-0.009742
-0.381887
-0.382564
-0.385308
-0.331353
-0.504944
-0.395109
0.160018
0.181674
0.198590
0.129037
-0.396794
-0.400294
-0.043662
-0.000783
-0.039728
0.005670
-0.000273
0.014097
-0.488508
-0.492992
-0.011364
-0.003101
-0.400342
-0.358224
-0.003272
-0.014318
0.002472
-0.004261
-0.409338
-0.401888
-0.001233
-0.438711
-0.443438
-0.494623
-0.001214
0.004884
-0.425943
-0.428375
-0.421172
-0.468180
-0.474147
-0.445891
-0.440348
0.007032
0.001008
-0.004153
-0.421461
-0.428518
-0.448595
0.182406
0.184206
0.128260
0.181671
-0.415435
-0.428447
-0.400544
-0.464621
0.078760
0.070618
0.081711
-0.443825
0.070233
-0.412971
0.001119
0.003507
0.034951
0.050667
0.134357
-0.433063
-0.443945
-0.433853
0.002004
-0.000214
0.006324
0.203692
0.158027
0.020673
-0.063709
-0.022963
0.184033
0.171369
0.192725
0.005911
-0.169622
-0.035155
-0.141057
0.027492
-0.002751
0.087391
0.068515
0.036296
-0.405286
-0.011277
-0.000197
-0.000712
-0.003244
-0.006049
-0.375154
0.067957
-0.497842
-0.454684
-0.494158
-0.519628
-0.003296
-0.491084
-0.485089
-0.498161
-0.489164
-0.467147
0.173687
-0.378913
-0.403115
-0.389827
-0.360185
-0.004404
-0.388308
-0.402024
-0.389842
-0.398079
-0.403700
-0.006223
-0.423287
-0.425578
-0.436225
0.002435
-0.439478
-0.446831
-0.001816
0.094247
0.095501
0.113225
-0.491191
0.224396
0.167572
0.082466
-0.437823
-0.436815
-0.437771
0.003445
0.000374
0.002201
-0.513123
-0.397036
-0.380200
-0.410489
-0.409906
-0.413058
-0.413042
-0.529544
-0.511051
-0.501312
-0.454065
-0.431054
-0.418029
0.100915
-0.393262
-0.471279
0.074104
0.080769
0.065448
-0.407688
-0.404600
-0.004876
-0.010657
-0.022543
-0.010111
-0.025837
0.080064
-0.400388
-0.441550
-0.435693
0.010011
-0.000394
0.003821
-0.445813
-0.442442
-0.439613
0.004953
0.008954
0.004015
-0.397273
-0.397765
-0.406203
-0.407185
-0.389402
-0.399391
0.004354
0.009598
0.018196
0.000842
-0.401449
-0.398198
-0.391153
-0.401762
-0.488429
-0.444944
-0.463841
-0.425278
-0.394654
-0.398722
-0.395358
-0.017341
-0.005589
-0.001036
-0.000841
-0.404328
-0.421756
-0.432661
-0.523796
-0.498082
0.189947
0.000472
-0.015684
0.147925
0.217345
0.065437
-0.503233
-0.011220
-0.407760
-0.407519
-0.404659
-0.410355
-0.429354
-0.441994
-0.422209
-0.417081
-0.048668
-0.010319
-0.065972
-0.439326
-0.018971
-0.083600
-0.001865
-0.055572
-0.406318
-0.567461
-0.405954
0.155394
0.133193
0.170514
-0.387174
-0.412338
-0.002371
-0.427639
-0.002091
0.000928
0.001277
0.002962
-0.013002
0.006205
0.001578
-0.019858
-0.020660
-0.397915
-0.408837
0.071171
0.084334
0.114298
-0.458286
-0.540860
-0.512071
0.112063
-0.500034
-0.505758
-0.486231
-0.323288
-0.469498
-0.354516
-0.522957
-0.507998
-0.412118
-0.409983
-0.408909
0.158593
-0.149539
0.006123
0.003962
-0.393083
-0.409519
-0.398018
-0.406112
-0.407197
-0.417280
-0.355328
-0.411627
-0.451717
-0.478081
-0.476544
-0.462916
-0.458556
-0.455476
-0.005774
0.008820
-0.003469
-0.449854
-0.447688
-0.445275
-0.048879
-0.175314
-0.006551
-0.004626
-0.393357
-0.458800
-0.456115
-0.000957
0.000179
-0.007844
-0.025325
0.001200
-0.400895
-0.405880
-0.479826
0.006316
0.010533
-0.462919
0.025208
0.031423
0.019898
0.020916
-0.467518
-0.504624
-0.433859
-0.387926
-0.406938
-0.398949
0.001930
0.004479
-0.310674
-0.136160
-0.469256
-0.357004
-0.223409
-0.117756
-0.411489
-0.410015
-0.011876
-0.008925
-0.009661
0.004798
-0.448180
0.005065
0.000535
0.005095
-0.404317
-0.405674
0.130258
0.174675
0.094055
0.124394
0.160754
0.121035
0.107608
-0.003535
0.009777
0.001702
0.032997
0.002184
-0.007917
-0.408406
-0.416385
-0.403366
-0.412984
-0.028827
-0.030133
-0.046971
0.142365
-0.026206
-0.074913
-0.005966
-0.167323
0.029754
0.019373
0.013465
-0.427892
-0.397474
0.098121
0.152259
0.079483
0.067713
0.099843
0.051239
0.077151
0.066740
0.023054
0.097952
0.090596
-0.009513
-0.004000
0.117777
0.065891
0.173639
0.138710
0.065408
0.152326
0.150353
0.175146
-0.037345
-0.396701
-0.408370
-0.384325
-0.379292
-0.416073
0.024026
0.069625
0.065009
0.054547
0.072369
0.127194
0.150783
0.126490
-0.407729
-0.418726
-0.396129
-0.412428
-0.411754
-0.396120
-0.400457
-0.394547
0.002683
0.000159
-0.396110
0.001594
0.136047
0.130621
0.146743
0.025389
0.067135
-0.044513
0.008232
-0.005839
-0.440607
-0.440227
-0.012478
-0.038010
-0.002560
-0.024098
-0.449733
-0.444669
-0.440735
-0.454071
-0.410464
-0.414178
-0.412056
-0.406928
-0.401889
-0.393758
-0.007132
0.003373
-0.408126
-0.400564
-0.391054
-0.399961
0.130044
0.129717
0.126897
0.128270
0.029245
-0.388112
-0.394579
-0.390240
0.158483
0.148546
0.139528
-0.022654
-0.027700
0.002657
-0.038165
-0.105815
-0.104418
0.020462
-0.000990
-0.174722
-0.091992
-0.406847
-0.403092
-0.005756
0.013996
0.151600
0.008171
-0.395573
-0.398476
-0.407944
0.023663
-0.437930
-0.385190
-0.003198
0.001308
0.001192
-0.000428
0.008766
0.004680
-0.393615
-0.425975
-0.007127
-0.022166
0.008924
-0.438626
-0.008853
-0.021235
-0.004502
0.009783
0.004762
-0.405554
-0.409639
0.001079
-0.003353
0.000984
-0.005305
-0.435041
-0.414505
-0.427051
-0.429204
-0.034167
-0.011871
-0.002243
-0.028924
-0.004940
-0.017613
-0.396960
-0.413103
-0.009863
-0.003698
0.017062
-0.012707
-0.041499
-0.431975
-0.432938
-0.424488
-0.451713
-0.441302
-0.434366
-0.457383
-0.019694
-0.413286
-0.411996
-0.405137
-0.404611
0.138797
0.092644
0.110380
0.114230
0.000919
0.001469
-0.002010
0.003193
-0.001314
-0.001712
-0.008458
-0.375302
-0.092060
-0.220668
-0.150006
0.055144
-0.012976
-0.113344
0.008564
-0.412980
-0.415753
-0.410091
-0.404947
-0.008114
-0.467818
-0.449704
0.110722
0.057398
0.103054
0.116378
-0.002297
-0.404200
-0.405544
-0.008668
-0.436843
-0.002747
0.000296
-0.004731
0.040135
0.034323
0.034229
-0.445732
-0.372988
-0.373484
-0.446706
-0.405562
-0.401820
0.008877
-0.401340
-0.405522
-0.409970
-0.404239
-0.013159
-0.058181
0.003653
0.054985
0.051728
0.042411
0.058291
0.057682
0.003034
0.003998
0.003018
-0.001807
-0.015431
-0.028706
-0.403630
-0.008220
-0.019718
-0.002803
-0.001578
0.000383
0.002053
-0.013860
-0.397971
-0.000713
0.006056
-0.456775
0.076083
0.068375
0.078852
-0.407081
-0.408794
-0.443768
-0.441976
-0.413147
-0.417341
-0.486549
-0.507355
-0.496426
-0.492613
0.095207
0.131146
-0.009417
-0.396783
-0.410453
0.039392
-0.021247
-0.009804
0.066623
-0.367374
-0.418135
-0.419418
-0.406305
-0.497615
-0.455622
-0.479877
-0.518780
-0.431755
-0.553007
-0.535568
-0.438731
-0.395041