# vtk DataFile Version 2.0
Test
ASCII
DATASET POLYDATA
POINTS 7607 float
0.000000 0.000000 0.000000
1.000000 0.000000 0.000000
1.000000 0.800000 0.000000
1.000000 1.000000 0.000000
0.000000 1.000000 0.000000
0.000000 0.200000 0.000000
0.300000 0.330000 0.000000
0.700000 0.680000 0.000000
0.012987 0.000000 0.000000
0.025974 0.000000 0.000000
0.038961 0.000000 0.000000
0.051948 0.000000 0.000000
0.064935 0.000000 0.000000
0.077922 0.000000 0.000000
0.090909 0.000000 0.000000
0.103896 0.000000 0.000000
0.116883 0.000000 0.000000
0.129870 0.000000 0.000000
0.142857 0.000000 0.000000
0.155844 0.000000 0.000000
0.168831 0.000000 0.000000
0.181818 0.000000 0.000000
0.194805 0.000000 0.000000
0.207792 0.000000 0.000000
0.220779 0.000000 0.000000
0.233766 0.000000 0.000000
0.246753 0.000000 0.000000
0.259740 0.000000 0.000000
0.272727 0.000000 0.000000
0.285714 0.000000 0.000000
0.298701 0.000000 0.000000
0.311688 0.000000 0.000000
0.324675 0.000000 0.000000
0.337662 0.000000 0.000000
0.350649 0.000000 0.000000
0.363636 0.000000 0.000000
0.376623 0.000000 0.000000
0.389610 0.000000 0.000000
0.402597 0.000000 0.000000
0.415584 0.000000 0.000000
0.428571 0.000000 0.000000
0.441558 0.000000 0.000000
0.454545 0.000000 0.000000
0.467532 0.000000 0.000000
0.480519 0.000000 0.000000
0.493506 0.000000 0.000000
0.506494 0.000000 0.000000
0.519481 0.000000 0.000000
0.532468 0.000000 0.000000
0.545455 0.000000 0.000000
0.558442 0.000000 0.000000
0.571429 0.000000 0.000000
0.584416 0.000000 0.000000
0.597403 0.000000 0.000000
0.610390 0.000000 0.000000
0.623377 0.000000 0.000000
0.636364 0.000000 0.000000
0.649351 0.000000 0.000000
0.662338 0.000000 0.000000
0.675325 0.000000 0.000000
0.688312 0.000000 0.000000
0.701299 0.000000 0.000000
0.714286 0.000000 0.000000
0.727273 0.000000 0.000000
0.740260 0.000000 0.000000
0.753247 0.000000 0.000000
0.766234 0.000000 0.000000
0.779221 0.000000 0.000000
0.792208 0.000000 0.000000
0.805195 0.000000 0.000000
0.818182 0.000000 0.000000
0.831169 0.000000 0.000000
0.844156 0.000000 0.000000
0.857143 0.000000 0.000000
0.870130 0.000000 0.000000
0.883117 0.000000 0.000000
0.896104 0.000000 0.000000
0.909091 0.000000 0.000000
0.922078 0.000000 0.000000
0.935065 0.000000 0.000000
0.948052 0.000000 0.000000
0.961039 0.000000 0.000000
0.974026 0.000000 0.000000
0.987013 0.000000 0.000000
1.000000 0.012903 0.000000
1.000000 0.025806 0.000000
1.000000 0.038710 0.000000
1.000000 0.051613 0.000000
1.000000 0.064516 0.000000
1.000000 0.077419 0.000000
1.000000 0.090323 0.000000
1.000000 0.103226 0.000000
1.000000 0.116129 0.000000
1.000000 0.129032 0.000000
1.000000 0.141935 0.000000
1.000000 0.154839 0.000000
1.000000 0.167742 0.000000
1.000000 0.180645 0.000000
1.000000 0.193548 0.000000
1.000000 0.206452 0.000000
1.000000 0.219355 0.000000
1.000000 0.232258 0.000000
1.000000 0.245161 0.000000
1.000000 0.258065 0.000000
1.000000 0.270968 0.000000
1.000000 0.283871 0.000000
1.000000 0.296774 0.000000
1.000000 0.309677 0.000000
1.000000 0.322581 0.000000
1.000000 0.335484 0.000000
1.000000 0.348387 0.000000
1.000000 0.361290 0.000000
1.000000 0.374194 0.000000
1.000000 0.387097 0.000000
1.000000 0.400000 0.000000
1.000000 0.412903 0.000000
1.000000 0.425806 0.000000
1.000000 0.438710 0.000000
1.000000 0.451613 0.000000
1.000000 0.464516 0.000000
1.000000 0.477419 0.000000
1.000000 0.490323 0.000000
1.000000 0.503226 0.000000
1.000000 0.516129 0.000000
1.000000 0.529032 0.000000
1.000000 0.541935 0.000000
1.000000 0.554839 0.000000
1.000000 0.567742 0.000000
1.000000 0.580645 0.000000
1.000000 0.593548 0.000000
1.000000 0.606452 0.000000
1.000000 0.619355 0.000000
1.000000 0.632258 0.000000
1.000000 0.645161 0.000000
1.000000 0.658065 0.000000
1.000000 0.670968 0.000000
1.000000 0.683871 0.000000
1.000000 0.696774 0.000000
1.000000 0.709677 0.000000
1.000000 0.722581 0.000000
1.000000 0.735484 0.000000
1.000000 0.748387 0.000000
1.000000 0.761290 0.000000
1.000000 0.774194 0.000000
1.000000 0.787097 0.000000
1.000000 0.812500 0.000000
1.000000 0.825000 0.000000
1.000000 0.837500 0.000000
1.000000 0.850000 0.000000
1.000000 0.862500 0.000000
1.000000 0.875000 0.000000
1.000000 0.887500 0.000000
1.000000 0.900000 0.000000
1.000000 0.912500 0.000000
1.000000 0.925000 0.000000
1.000000 0.937500 0.000000
1.000000 0.950000 0.000000
1.000000 0.962500 0.000000
1.000000 0.975000 0.000000
1.000000 0.987500 0.000000
0.987013 1.000000 0.000000
0.974026 1.000000 0.000000
0.961039 1.000000 0.000000
0.948052 1.000000 0.000000
0.935065 1.000000 0.000000
0.922078 1.000000 0.000000
0.909091 1.000000 0.000000
0.896104 1.000000 0.000000
0.883117 1.000000 0.000000
0.870130 1.000000 0.000000
0.857143 1.000000 0.000000
0.844156 1.000000 0.000000
0.831169 1.000000 0.000000
0.818182 1.000000 0.000000
0.805195 1.000000 0.000000
0.792208 1.000000 0.000000
0.779221 1.000000 0.000000
0.766234 1.000000 0.000000
0.753247 1.000000 0.000000
0.740260 1.000000 0.000000
0.727273 1.000000 0.000000
0.714286 1.000000 0.000000
0.701299 1.000000 0.000000
0.688312 1.000000 0.000000
0.675325 1.000000 0.000000
0.662338 1.000000 0.000000
0.649351 1.000000 0.000000
0.636364 1.000000 0.000000
0.623377 1.000000 0.000000
0.610390 1.000000 0.000000
0.597403 1.000000 0.000000
0.584416 1.000000 0.000000
0.571429 1.000000 0.000000
0.558442 1.000000 0.000000
0.545455 1.000000 0.000000
0.532468 1.000000 0.000000
0.519481 1.000000 0.000000
0.506494 1.000000 0.000000
0.493506 1.000000 0.000000
0.480519 1.000000 0.000000
0.467532 1.000000 0.000000
0.454545 1.000000 0.000000
0.441558 1.000000 0.000000
0.428571 1.000000 0.000000
0.415584 1.000000 0.000000
0.402597 1.000000 0.000000
0.389610 1.000000 0.000000
0.376623 1.000000 0.000000
0.363636 1.000000 0.000000
0.350649 1.000000 0.000000
0.337662 1.000000 0.000000
0.324675 1.000000 0.000000
0.311688 1.000000 0.000000
0.298701 1.000000 0.000000
0.285714 1.000000 0.000000
0.272727 1.000000 0.000000
0.259740 1.000000 0.000000
0.246753 1.000000 0.000000
0.233766 1.000000 0.000000
0.220779 1.000000 0.000000
0.207792 1.000000 0.000000
0.194805 1.000000 0.000000
0.181818 1.000000 0.000000
0.168831 1.000000 0.000000
0.155844 1.000000 0.000000
0.142857 1.000000 0.000000
0.129870 1.000000 0.000000
0.116883 1.000000 0.000000
0.103896 1.000000 0.000000
0.090909 1.000000 0.000000
0.077922 1.000000 0.000000
0.064935 1.000000 0.000000
0.051948 1.000000 0.000000
0.038961 1.000000 0.000000
0.025974 1.000000 0.000000
0.012987 1.000000 0.000000
0.000000 0.987097 0.000000
0.000000 0.974194 0.000000
0.000000 0.961290 0.000000
0.000000 0.948387 0.000000
0.000000 0.935484 0.000000
0.000000 0.922581 0.000000
0.000000 0.909677 0.000000
0.000000 0.896774 0.000000
0.000000 0.883871 0.000000
0.000000 0.870968 0.000000
0.000000 0.858065 0.000000
0.000000 0.845161 0.000000
0.000000 0.832258 0.000000
0.000000 0.819355 0.000000
0.000000 0.806452 0.000000
0.000000 0.793548 0.000000
0.000000 0.780645 0.000000
0.000000 0.767742 0.000000
0.000000 0.754839 0.000000
0.000000 0.741935 0.000000
0.000000 0.729032 0.000000
0.000000 0.716129 0.000000
0.000000 0.703226 0.000000
0.000000 0.690323 0.000000
0.000000 0.677419 0.000000
0.000000 0.664516 0.000000
0.000000 0.651613 0.000000
0.000000 0.638710 0.000000
0.000000 0.625806 0.000000
0.000000 0.612903 0.000000
0.000000 0.600000 0.000000
0.000000 0.587097 0.000000
0.000000 0.574194 0.000000
0.000000 0.561290 0.000000
0.000000 0.548387 0.000000
0.000000 0.535484 0.000000
0.000000 0.522581 0.000000
0.000000 0.509677 0.000000
0.000000 0.496774 0.000000
0.000000 0.483871 0.000000
0.000000 0.470968 0.000000
0.000000 0.458065 0.000000
0.000000 0.445161 0.000000
0.000000 0.432258 0.000000
0.000000 0.419355 0.000000
0.000000 0.406452 0.000000
0.000000 0.393548 0.000000
0.000000 0.380645 0.000000
0.000000 0.367742 0.000000
0.000000 0.354839 0.000000
0.000000 0.341935 0.000000
0.000000 0.329032 0.000000
0.000000 0.316129 0.000000
0.000000 0.303226 0.000000
0.000000 0.290323 0.000000
0.000000 0.277419 0.000000
0.000000 0.264516 0.000000
0.000000 0.251613 0.000000
0.000000 0.238710 0.000000
0.000000 0.225806 0.000000
0.000000 0.212903 0.000000
0.000000 0.187500 0.000000
0.000000 0.175000 0.000000
0.000000 0.162500 0.000000
0.000000 0.150000 0.000000
0.000000 0.137500 0.000000
0.000000 0.125000 0.000000
0.000000 0.112500 0.000000
0.000000 0.100000 0.000000
0.000000 0.087500 0.000000
0.000000 0.075000 0.000000
0.000000 0.062500 0.000000
0.000000 0.050000 0.000000
0.000000 0.037500 0.000000
0.000000 0.025000 0.000000
0.000000 0.012500 0.000000
0.309756 0.338537 0.000000
0.319512 0.347073 0.000000
0.329268 0.355610 0.000000
0.339024 0.364146 0.000000
0.348780 0.372683 0.000000
0.358537 0.381220 0.000000
0.368293 0.389756 0.000000
0.378049 0.398293 0.000000
0.387805 0.406829 0.000000
0.397561 0.415366 0.000000
0.407317 0.423902 0.000000
0.417073 0.432439 0.000000
0.426829 0.440976 0.000000
0.436585 0.449512 0.000000
0.446341 0.458049 0.000000
0.456098 0.466585 0.000000
0.465854 0.475122 0.000000
0.475610 0.483659 0.000000
0.485366 0.492195 0.000000
0.495122 0.500732 0.000000
0.504878 0.509268 0.000000
0.514634 0.517805 0.000000
0.524390 0.526341 0.000000
0.534146 0.534878 0.000000
0.543902 0.543415 0.000000
0.553659 0.551951 0.000000
0.563415 0.560488 0.000000
0.573171 0.569024 0.000000
0.582927 0.577561 0.000000
0.592683 0.586098 0.000000
0.602439 0.594634 0.000000
0.612195 0.603171 0.000000
0.621951 0.611707 0.000000
0.631707 0.620244 0.000000
0.641463 0.628780 0.000000
0.651220 0.637317 0.000000
0.660976 0.645854 0.000000
0.670732 0.654390 0.000000
0.680488 0.662927 0.000000
0.690244 0.671463 0.000000
0.011538 0.205000 0.000000
0.023077 0.210000 0.000000
0.034615 0.215000 0.000000
0.046154 0.220000 0.000000
0.057692 0.225000 0.000000
0.069231 0.230000 0.000000
0.080769 0.235000 0.000000
0.092308 0.240000 0.000000
0.103846 0.245000 0.000000
0.115385 0.250000 0.000000
0.126923 0.255000 0.000000
0.138462 0.260000 0.000000
0.150000 0.265000 0.000000
0.161538 0.270000 0.000000
0.173077 0.275000 0.000000
[...]
POINT_DATA 7607
SCALARS UX float 1
LOOKUP_TABLE default
0.007176
0.002101
0.157100
-0.730665
-0.822633
-0.164092
-0.368469
-0.403783
-0.002907
0.000181
0.002232
0.001560
0.012386
0.000435
-0.000262
0.011353
0.000342
0.001192
-0.000360
0.000052
0.000271
-0.000116
-0.000218
0.000203
-0.000160
0.000362
0.000147
-0.001706
-0.000278
-0.000242
-0.000947
-0.010256
0.000322
-0.000291
-0.000198
-0.000590
0.000492
0.000268
0.003085
0.000063
0.000516
-0.002664
0.000128
0.005370
0.000352
-0.000022
-0.004006
-0.000035
-0.000481
-0.000001
0.000043
-0.003764
-0.000288
-0.001273
-0.000144
-0.001038
0.000237
-0.000062
0.000080
-0.001457
-0.001947
0.000652
-0.000371
-0.000393
0.004132
0.001110
-0.008660
0.000368
0.002644
0.000757
-0.001424
-0.000708
-0.006261
0.000251
0.005669
0.003367
-0.006137
0.000089
-0.000904
0.002295
0.000119
0.001335
-0.000187
-0.011591
-0.000347
0.014694
0.008910
0.017788
0.008021
0.015655
0.012389
0.021993
0.036580
0.040063
0.036124
0.047344
0.030192
0.054403
0.031912
0.029987
0.047081
0.052755
0.045063
0.058320
0.048230
0.056819
0.065907
0.043407
0.057834
0.070321
0.049657
0.081954
0.059009
0.064649
0.071671
0.051325
0.089427
0.059035
0.088871
0.054912
0.080597
0.094584
0.058973
0.075665
0.107328
0.073355
0.101492
0.094952
0.093630
0.107110
0.105114
0.099046
0.128046
0.087507
0.101482
0.119421
0.113675
0.115937
0.136346
0.103900
0.119362
0.063338
0.129823
0.162606
0.072436
-0.222735
0.003136
-0.308752
-0.183555
-0.599284
-0.453837
-0.723672
-0.508179
-0.743514
-0.660918
-0.736094
-0.678216
-0.702202
-0.726202
-0.713001
-0.703208
-0.714996
-0.719235
-0.739496
-0.726144
-0.730537
-0.725592
-0.731587
-0.734592
-0.735942
-0.732452
-0.735496
-0.734591
-0.728712
-0.738504
-0.737153
-0.733560
-0.746325
-0.744738
-0.745413
-0.742754
-0.743345
-0.743123
-0.746798
-0.751865
-0.746259
-0.754498
-0.751777
-0.753129
-0.757825
-0.752634
-0.764806
-0.761408
-0.766580
-0.766762
-0.766190
-0.763909
-0.767646
-0.768061
-0.767612
-0.768446
-0.771230
-0.776919
-0.768333
-0.769735
-0.781873
-0.772520
-0.780461
-0.774255
-0.785489
-0.787524
-0.791593
-0.792286
-0.795223
-0.791796
-0.800601
-0.793076
-0.803661
-0.808211
-0.795035
-0.812828
-0.807276
-0.807763
-0.803158
-0.814100
-0.820541
-0.815074
-0.819869
-0.822132
-0.820853
-0.820019
-0.822799
-0.827702
-0.827666
-0.826824
-0.830457
-0.829989
-0.832876
-0.832492
-0.819866
-0.827136
-0.815511
-0.823996
-0.823588
-0.827924
-0.825973
-0.824428
-0.845378
-0.828649
-0.832499
-0.827880
-0.829098
-0.839726
-0.833584
-0.830048
-0.822718
-0.837967
-0.835365
-0.829032
-0.831519
-0.840384
-0.822650
-0.831223
-0.848313
-0.825571
-0.839232
-0.813237
-0.786319
-0.816988
-0.826649
-0.834243
-0.841189
-0.824163
-0.841656
-0.835174
-0.854518
-0.828038
-0.841668
-0.832607
-0.836616
-0.838097
-0.833752
-0.838817
-0.847898
-0.827062
-0.841451
-0.819782
-0.838029
-0.798008
-0.816197
-0.790997
-0.759839
-0.749759
-0.734690
-0.699254
-0.574078
-0.633885
-0.437827
-0.187708
-0.252533
-0.151896
-0.011766
-0.042508
-0.069717
-0.017480
-0.022747
-0.019127
-0.008431
-0.017023
-0.015280
-0.002246
-0.008477
-0.321233
-0.136663
-0.161886
-0.553673
-0.652391
-0.667913
-0.539055
-0.296148
-0.302368
-0.447931
-0.179369
-0.360663
0.239642
-0.200433
-0.246313
-0.401161
0.201527
-0.236575
-0.615864
-0.435687
-0.155904
-0.422635
-0.926158
-0.500520
-0.554620
-0.262895
-0.409828
-0.297212
0.335138
0.245513
0.085674
-0.121037
-0.352228
0.006245
-0.254623
0.115307
-0.046689
-0.176012
-0.964656
-1.130242
-0.484016
-0.654294
-0.266910
-0.552569
-0.339211
-0.541983
-0.770609
-0.708829
-0.763905
-0.334286
-0.766101
-0.354093
-0.537594
-0.676780
-0.335491
-0.695580
-0.590413
-0.168024
-0.059259
-0.756499
-0.139285
-0.409575
-0.251510
-0.323240
-0.211022
0.050560
-0.147408
-0.472039
0.402783
-0.250738
0.135753
-0.058096
-0.182129
-0.066305
-0.416493
-0.020163
-0.178378
-0.085433
0.039070
-0.126830
0.004072
-0.100231
-0.142563
0.005106
-0.099228
-0.053432
0.018235
0.081597
-0.166502
-0.738400
-0.756478
-0.767720
-0.754170
-0.001200
-0.000936
0.017369
-0.683572
-0.807197
-0.354319
-0.760383
-0.710340
-0.540507
-0.008783
0.010629
0.016501
-0.777642
-0.812759
-0.811550
-0.839466
0.038848
0.008353
0.016137
0.014620
0.005262
-0.049143
-0.116333
-0.074083
-0.004167
0.008753
-0.695302
-0.702515
-1.022831
-0.745250
-0.056367
-0.133693
0.014899
0.005504
-0.003958
-0.002685
-0.812922
-0.811200
-0.823059
-0.828513
-0.481323
-0.296911
-0.498037
-0.506355
0.090206
0.050908
0.037557
-0.709019
-0.747657
0.035148
0.037898
0.017768
0.051531
-0.767076
-0.750377
-0.741589
0.064896
-0.903960
-0.741325
-0.742844
-0.704759
-0.670510
-0.047422
-0.055698
-0.005738
-0.788743
-0.812804
-0.814713
-0.018507
0.016683
0.008809
-0.000882
-0.014183
-0.014512
-0.780778
-0.778682
-0.781620
-0.031637
-0.757163
-0.757059
-0.738256
0.032954
0.032070
-0.002236
0.036555
0.006400
-0.011713
-0.024947
-0.088916
-0.002323
-0.011699
-0.028835
0.032035
0.091803
0.119136
-0.999834
-0.137162
-0.533254
-0.564835
-0.250752
-0.954768
-0.840639
-0.775258
-0.746065
-0.770050
-0.741402
-0.021246
0.009661
0.007786
0.008462
0.051968
0.054144
-0.766489
-0.740429
-0.738095
0.014533
0.030497
0.021150
-0.698022
-0.718720
-0.726904
-0.696060
0.033321
0.055166
0.091805
0.076171
-0.008652
-0.758066
-0.032970
0.003598
-0.002812
-0.012781
-0.851016
-0.692404
-0.760549
-0.827791
-0.754053
-0.791934
-0.776832
-0.765581
-0.732103
-0.731606
-0.739733
-0.727899
-0.605432
-0.012205
-0.007799
-0.004747
0.001638
-0.841480
-0.808448
-0.839389
-0.014825
-0.012468
-0.000520
-0.835028
-0.815367
-0.816350
-0.017403
-0.705326
-0.743936
-0.764833
-0.796635
-0.793729
-0.759702
-0.812644
-0.809143
-0.817756
-0.788672
0.052326
0.038467
0.055004
0.058877
0.056280
-0.001295
0.031642
0.021695
0.035607
0.020569
-0.771915
-0.759483
-0.745122
-0.763646
-0.760088
-0.756058
-0.009166
-0.026112
-0.011964
-0.005846
0.015357
0.033678
0.009987
-0.091197
0.030809
-0.098163
-0.062742
-0.757623
-0.767515
-0.783505
-0.755912
-0.002731
0.026240
0.000863
0.012703
0.017099
0.015487
0.032396
0.060754
0.066063
0.027773
-0.008213
0.464765
-0.807040
-0.806758
-0.804756
-0.402412
-0.694119
-0.630072
-0.608512
0.048250
0.108161
0.124499
0.036979
-0.007474
0.017556
-0.022285
-0.766915
-0.765552
-0.774372
-0.737343
-0.778240
-0.788202
-0.809175
-0.797269
-0.809106
-0.000312
-0.024112
0.013518
-0.751246
-0.794521
-0.772461
-0.004001
0.033947
-0.021004
0.051860
0.089675
0.066092
-0.010154
-0.022060
-0.019146
-0.017430
-0.025799
-0.816494
-0.825292
-0.010216
-0.023793
0.001749
0.019413
0.012050
0.003011
-0.021838
-0.003589
0.014493
-0.620744
-0.738929
-0.816504
-0.828957
-0.803400
-0.049412
-0.020801
0.090860
0.074501
0.014836
0.009945
-0.012684
0.005014
0.018002
-0.004420
-0.005105
0.016051
-0.810041
-0.806955
-0.829963
-0.806905
-0.829673
-0.812262
-0.825575
-0.787256
-0.019455
-0.074050
-0.034198
0.046660
-0.834460
-0.810600
-0.809509
-0.796628
0.048404
0.127293
0.019717
0.022463
-0.005840
-0.736231
-0.720850
-0.717401
0.011049
-0.704546
-0.727559
-0.742723
0.023368
-0.727268
-0.808927
-0.837779
-0.797157
-0.014872
0.017955
-0.009862
-0.777340
-0.785545
-0.764922
-0.027118
-0.008562
0.003202
-0.380151
0.028375
0.015921
0.043161
-0.732511
-0.729922
-0.685711
-0.741032
-0.858731
-0.819062
-0.782719
0.024143
0.034863
0.001599
0.015326
0.017975
0.016967
-0.810123
-0.829643
-0.831551
-0.791006
-0.694644
-0.735496
-0.014493
-0.017208
0.069060
0.031352
-0.016361
0.033999
0.036034
0.027024
-0.776633
-0.830717
-0.811717
-0.843706
-0.863869
-0.794427
-0.031343
0.023698
-0.016179
-0.021866
0.071111
0.072603
0.024865
-0.130090
-0.065651
-0.066917
0.018720
0.017288
0.016415
0.023964
-0.772505
-0.799883
-0.760556
0.007628
0.000546
0.003156
0.011875
-0.035895
0.008916
-0.012631
-0.823175
-0.782915
-0.763545
-0.776015
-0.805367
-0.828740
-0.864974
-0.660618
-0.704857
-0.660453
-0.053369
-0.038467
-0.002907
-0.718137
-0.713445
-0.725233
-0.670666
-0.721599
0.007556
-0.001832
-0.788695
-0.819074
-0.809221
0.088617
0.042633
-0.765671
-0.785655
-0.015389
0.001354
-0.016084
0.007537
-0.022950
-0.022597
-0.017060
0.004565
0.017282
0.016194
-0.721916
-0.727003
-0.046970
0.000071
-0.005204
-0.769108
-0.759217
-0.757757
0.008557
-0.800900
-0.804104
-0.810863
0.127385
0.037641
0.023621
-0.823674
-0.826076
0.071930
0.056463
-0.802946
-0.795545
-0.806415
-0.783608
-0.773904
-0.002374
-0.037615
-0.009569
-0.002867
-0.022050
-0.804422
-0.799225
-0.829152
-0.832809
-0.790796
0.072347
0.071696
-0.811927
-0.821439
-0.813435
0.015522
0.012782
-0.669247
-0.716476
-0.701256
-0.716204
0.006796
0.011316
0.001469
-0.836340
-0.811871
-0.817090
-0.805164
-0.811993
-0.804135
-0.812638
-0.776531
-0.842845
-0.763093
0.000891
-0.001549
-0.000729
0.001670
-0.030883
-0.000604
0.000743
-0.823911
-0.828773
-0.829815
-0.727648
-0.640638
-0.632367
-0.634436
-0.854490
-0.810782
-0.797301
-0.822087
-0.825973
-0.838553
0.080390
0.121781
-0.824546
0.025734
-0.007278
-0.813307
-0.039888
-0.836157
0.518179
-0.831962
-0.807755
-0.015819
-0.841986
-0.838220
0.031599
0.000850
-0.012197
-0.041375
-0.035448
-0.007390
-0.000111
-0.019062
0.033308
0.099794
0.040449
0.032881
0.095558
0.086669
-0.786320
-0.791533
-0.786549
-0.784885
0.019988
0.010590
0.022847
-0.034917
-0.003279
-0.699263
-0.715272
0.018972
-0.009883
-0.835580
-0.827963
-0.824117
-0.821228
0.012047
-0.055566
-0.080357
-0.068112
0.046248
0.170992
0.060643
0.156314
0.166748
-0.726054
-0.745599
-0.733667
0.022072
-0.786138
-0.790683
-0.829170
-0.685488
-0.616240
-0.041452
-0.023998
-0.013794
-0.022085
-0.753387
-0.712881
-0.731863
-0.723033
-0.727917
-0.723172
-0.003538
-0.001133
0.066092
0.014577
0.025667
-0.016828
-0.711011
-0.754033
-0.709833
-0.756119
-0.711482
-0.838799
-0.679660
0.004842
0.001602
-0.006936
-0.023740
-0.021752
-0.665531
-0.737866
-0.841663
-0.807586
-0.824377
-0.821264
-0.675430
-0.771592
-0.775782
-0.767276
-0.825746
0.586188
-0.014026
-0.014632
-0.017595
-0.006057
-0.020162
-0.018621
-0.006389
-0.811952
-0.811838
-0.823859
-0.011581
-0.012617
-0.767077
-0.807294
-0.820334
-0.817545
0.006795
-0.012514
-0.046358
-0.817941
-0.002778
-0.007987
-0.806224
-0.802402
0.009663
-0.004645
-0.000016
0.037663
0.005826
0.011958
-0.001108
-0.003879
-0.806749
-0.846514
-0.839925
-0.789293
-0.783079
-0.788977
-0.767963
-0.013788
-0.018021
-0.035308
-0.023123
0.086948
0.043993
0.150733
0.012520
-0.019812
0.109287
0.001720
-0.267929
-0.728220
-0.728277
-0.726165
-0.754085
-0.723666
-0.828275
-0.826109
-0.826160
-0.753897
-0.764586
-0.787104
-0.761043
0.069997
0.046656
-0.036704
-0.023329
-0.819943
-0.714790
-0.558535
-0.753556
-0.831007
-0.807534
-0.822713
-0.788456
-0.711838
-0.701342
-0.434606
-0.028243
-0.739797
-0.027206
0.138797
-0.011362
0.173669
0.126050
-0.024171
-0.014783
-0.005013
0.020820
-0.699515
-0.712416
-0.015002
-0.779713
-0.823355
-0.008267
-0.003085
-0.730083
-0.808808
-0.062470
-0.056987
-0.026381
-0.018026
-0.703489
-0.706042
-0.705206
-0.027010
-0.003144
-0.842773
-0.020972
0.015700
-0.026046
-0.813850
-0.811459
-0.824586
0.027077
0.004389
-0.006655
-0.815737
0.032271
0.039258
-0.040875
-0.866730
-0.825558
-0.843258
-0.682357
-0.062373
-0.004048
0.000867
-0.745835
-0.773821
-0.737294
-0.720647
-0.691825
-0.749440
-0.001430
-0.008850
0.023141
-0.003092
0.027813
-0.072729
0.015991
-0.131106
-0.190940
-0.711692
-0.715215
-0.745917
-0.711464
-0.371346
-0.723949
-0.723894
-0.711657
-0.040187
-0.012199
-0.825157
-0.805396
-0.818899
-0.791157
-0.719676
-0.728829
-0.731389
-0.019858
-0.013207
-0.730943
-0.719290
-0.723913
0.075695
0.090149
0.131672
0.025694
-0.829103
-0.697056
-0.016698
0.013469
-0.009968
-0.816005
-0.008525
-0.008084
-0.002888
0.000554
-0.838098
0.002174
0.013028
0.004505
0.015955
0.009215
-0.691668
-0.725520
-0.733230
-0.724649
-0.005091
-0.004666
0.000905
-0.001972
0.078263
0.102205
0.085034
0.069885
-0.821182
-0.836741
-0.810132
-0.731238
-0.737345
-0.003422
-0.007108
0.014217
0.009166
0.018423
-0.014760
0.026001
-0.739173
-0.769775
0.031418
0.024740
0.050367
-0.925147
-0.681394
-0.816847
-0.788049
-0.798794
-0.733430
0.086871
0.103300
0.120270
0.082359
-0.030279
-0.714655
-0.730084
-0.800719
0.018382
0.003652
-0.804342
0.024614
0.036995
-0.769232
-0.760630
-0.764969
-0.815363
-0.820537
-0.018398
-0.794013
-0.796800
-0.782872
-0.799311
0.087894
0.076897
0.099727
0.125595
-0.781366
-0.750118
-0.773500
-0.745759
-0.798678
-0.018160
0.016050
0.029767
0.054462
0.048094
0.061997
-0.017617
-0.031979
-0.016887
-0.839181
0.036140
-0.817391
-0.823567
-0.808338
-0.818565
-0.800193
-0.794252
-0.727701
-0.826227
0.009198
-0.017203
-0.801443
0.095292
-0.026326
-0.009921
-0.023255
-0.770051
-0.755277
-0.756795
-0.011332
-0.016230
0.013205
0.010819
0.026306
-0.655095
-0.012526
-0.006033
-0.008500
-0.705301
-0.732973
-0.720513
0.089437
0.093017
0.065511
-0.006988
-0.016333
-0.813176
-0.813373
-0.813759
-0.601625
-0.827484
-0.843113
-0.842185
-0.808120
-0.819237
-0.797208
-0.276304
-0.421889
-0.229304
-0.638061
-0.771888
-0.742342
-0.048163
-0.001301
-0.204555
-0.766509
-0.717855
0.026865
-0.018106
0.135907
0.148263
0.124813
0.145508
-0.736293
-0.730890
-0.013737
-0.004107
-0.013557
0.035409
0.001863
-0.007999
-0.819453
-0.000084
-0.018274
-0.028887
-0.002521
-0.799457
-0.784462
-0.735711
-0.740223
-0.840875
-0.813187
-0.830806
-0.837301
-0.002176
0.003249
0.021421
-0.781491
-0.812090
-0.783287
-0.798164
-0.743570
0.086703
0.051272
-0.735734
-0.711716
-0.289191
-0.748208
0.121178
0.174096
-0.742945
-0.774810
-0.299300
-0.579637
-0.014896
-0.024568
-0.012352
-0.755313
-0.749510
-0.759325
0.023711
0.157205
0.034308
-0.815697
-0.700051
-0.705086
-0.698265
-0.732327
-0.765834
-0.787233
-0.740486
-0.791642
-0.005867
-0.769543
-0.816739
-0.835065
-0.829251
0.008298
0.024030
0.017380
-0.026353
-0.005375
-0.741707
-0.720899
-0.685334
-0.005387
-0.016912
-0.021400
-0.008520
-0.011549
-0.699453
-0.709101
-0.622544
-0.666041
-0.869056
-0.684014
0.095764
0.123402
0.115881
0.056412
-0.726428
-0.727293
-0.088371
-0.138719
-0.054929
0.011047
-0.001479
0.007399
-0.801859
-0.796436
-0.007655
-0.012344
-0.725008
-0.668084
-0.009622
-0.009990
0.012839
-0.017737
-0.754195
-0.736361
-0.007524
-0.823206
-0.827403
-0.777295
0.005028
0.005833
-0.776849
-0.777097
-0.780241
-0.788487
-0.780005
-0.828496
-0.824450
0.005794
0.006773
-0.008351
-0.801523
-0.806252
-0.829100
0.083815
0.073048
0.104755
0.093061
-0.766973
-0.763674
-0.808417
-0.779336
0.059462
0.050565
0.062628
-0.826651
0.042213
-0.789948
0.010442
-0.123888
-0.131288
-0.010955
0.059780
-0.817090
-0.823473
-0.816544
0.001273
0.006164
0.018792
0.131709
0.093044
0.042735
-0.176181
-0.073846
0.105585
0.120071
0.119463
0.007263
-0.150089
-0.087360
-0.161001
-0.039214
-0.014553
0.008078
0.026563
-0.016048
-0.735589
-0.010734
-0.007495
-0.004912
-0.011701
-0.021550
-0.696195
0.024871
-0.818358
-0.873349
-0.848109
-0.649642
-0.023856
-0.801467
-0.815290
-0.800961
-0.766020
-0.786683
0.054903
-0.701030
-0.734054
-0.671955
-0.626878
-0.009461
-0.705186
-0.734695
-0.712005
-0.725342
-0.733892
0.001014
-0.799407
-0.801684
-0.817852
0.001608
-0.822088
-0.829212
-0.002755
0.010741
0.034314
-0.050710
-0.815602
0.151591
0.100215
-0.022451
-0.822640
-0.816826
-0.819330
0.014365
0.006846
0.003974
-0.838316
-0.737584
-0.635950
-0.738742
-0.768114
-0.775330
-0.785811
-0.845508
-0.833186
-0.829141
-0.784987
-0.711387
-0.754523
0.053967
-0.738505
-0.740086
0.027976
0.033431
0.017449
-0.772427
-0.767311
-0.015596
-0.023450
-0.045082
-0.025319
-0.025840
0.038849
-0.725633
-0.823795
-0.814543
0.024535
-0.012861
-0.003901
-0.827841
-0.826001
-0.821584
0.022216
0.022663
0.017166
-0.741043
-0.740876
-0.761465
-0.750191
-0.715512
-0.727921
-0.014504
-0.003920
0.028679
0.006191
-0.742149
-0.727534
-0.716491
-0.731478
-0.793537
-0.766775
-0.791886
-0.739653
-0.740450
-0.727415
-0.723207
-0.020806
-0.022951
-0.016343
-0.014795
-0.749364
-0.777210
-0.802869
-0.830257
-0.830265
0.126024
-0.011563
-0.031312
0.076207
-0.021048
-0.068213
-0.810073
0.035251
-0.748183
-0.763581
-0.761081
-0.744101
-0.792485
-0.813322
-0.797374
-0.786980
-0.073536
-0.018858
-0.085201
-0.823345
-0.037576
-0.047314
-0.004044
-0.117800
-0.731100
-0.910717
-0.734846
0.092679
0.101004
0.091088
-0.717743
-0.752361
-0.014745
-0.808985
-0.010793
-0.005958
-0.000979
0.012964
-0.058476
0.015082
0.000044
-0.014219
-0.034650
-0.734090
-0.732871
0.020918
0.023668
0.087213
-0.785890
-0.842362
-0.827627
0.108437
-0.808643
-0.821448
-0.845064
-0.617724
-0.805653
-0.867126
-0.822762
-0.751782
-0.754586
-0.747787
-0.751058
0.125572
-0.290231
0.003576
-0.012064
-0.721318
-0.745700
-0.730899
-0.768746
-0.756365
-0.777671
-0.684693
-0.753757
-0.791271
-0.817351
-0.819751
-0.769755
-0.790099
-0.763868
0.004544
0.017914
-0.013172
-0.826365
-0.822302
-0.820186
0.048160
-0.232297
-0.019234
-0.013441
-0.728862
-0.796872
-0.799065
-0.002023
-0.003209
-0.011352
-0.037891
-0.008862
-0.738054
-0.745692
-0.818426
0.017353
0.032941
-0.789859
0.040249
0.054123
0.033651
0.033036
-0.811204
-0.861167
-0.774071
-0.715188
-0.773933
-0.761682
-0.002427
0.006594
-0.550862
-0.285238
-0.986690
-0.625678
-0.013968
-0.433679
-0.764684
-0.761885
-0.013112
-0.015413
-0.015980
-0.000238
-0.789497
-0.017628
-0.009475
-0.012164
-0.744409
-0.736127
0.004591
0.119720
0.003972
0.012216
0.073997
0.051667
-0.003612
-0.022128
0.013545
-0.007357
0.049426
0.000971
-0.024549
-0.758599
-0.761227
-0.740799
-0.754259
-0.067982
-0.152478
-0.106444
0.073268
-0.027828
-0.172878
-0.082631
-0.207741
0.052290
0.030088
0.021074
-0.740463
-0.735604
-0.000787
0.011740
-0.116969
-0.029019
0.044349
-0.013361
-0.010524
-0.016484
0.037071
0.002148
0.007445
-0.024064
-0.004362
0.040641
-0.029915
0.111153
0.086163
-0.022755
0.077359
0.099646
0.125797
-0.056396
-0.731148
-0.746184
-0.747652
-0.735831
-0.749905
0.029766
0.023435
0.020336
-0.006211
0.024727
0.079865
0.110946
0.065276
-0.745955
-0.755520
-0.720647
-0.747045
-0.771016
-0.744418
-0.722458
-0.723461
0.000629
-0.012586
-0.732484
-0.003878
0.111164
0.058579
0.080158
0.025260
-0.024055
-0.254267
0.007650
-0.015760
-0.819180
-0.819404
-0.012414
-0.081032
0.026899
-0.029913
-0.826348
-0.820572
-0.819197
-0.829979
-0.751566
-0.759277
-0.759866
-0.749727
-0.774495
-0.710590
-0.024386
-0.008628
-0.737552
-0.726478
-0.730864
-0.720736
0.063714
0.071831
0.084596
0.069120
0.048866
-0.694247
-0.719803
-0.724226
0.105087
0.082286
0.082983
-0.014595
-0.004728
-0.009665
-0.073520
-0.150530
-0.246588
0.110901
-0.092899
-0.275928
-0.580432
-0.745319
-0.740383
-0.019470
0.008527
0.112614
0.005703
-0.723899
-0.734970
-0.750951
0.044554
-0.818008
-0.723661
-0.006880
0.001598
0.004219
-0.000557
-0.003831
0.000886
-0.740918
-0.788079
-0.017623
-0.024571
0.003556
-0.823081
-0.047998
-0.008358
-0.040120
0.007635
0.001286
-0.739106
-0.739234
0.002714
-0.016339
0.003336
-0.018279
-0.811722
-0.769147
-0.801240
-0.807644
-0.025439
-0.011013
-0.012980
-0.041418
-0.025514
-0.028875
-0.733058
-0.747489
-0.013272
-0.018030
-0.021304
-0.005715
-0.052095
-0.797810
-0.798290
-0.776044
-0.798403
-0.779681
-0.778550
-0.797404
-0.021035
-0.755359
-0.747278
-0.748711
-0.746191
0.023427
-0.013269
0.033971
0.032817
0.005209
0.009468
0.005318
-0.008259
-0.008744
-0.003349
-0.023171
-0.697376
-0.811033
-0.324411
-0.220618
-0.085711
0.040980
0.003958
0.013342
-0.753920
-0.755936
-0.766727
-0.744131
-0.007996
-0.817756
-0.814975
0.021933
-0.050781
0.009193
0.011752
-0.017289
-0.741177
-0.741460
-0.018529
-0.541815
-0.011452
0.000367
-0.014689
0.051750
0.048482
0.045745
-0.837457
-0.750375
-0.388397
-0.772337
-0.748492
-0.742622
0.013414
-0.741000
-0.747763
-0.747022
-0.744586
-0.013331
-0.043021
0.004510
0.024154
0.037686
0.057572
0.025885
0.034571
-0.007463
-0.000383
-0.000713
-0.012486
-0.051212
-0.059438
-0.743810
-0.013167
-0.027062
-0.017982
-0.006783
-0.001874
0.004881
-0.009966
-0.729083
-0.011910
-0.004415
-0.792480
0.022914
0.023062
0.037593
-0.739017
-0.736546
-0.827578
-0.823750
-0.790916
-0.796038
-0.824932
-0.833149
-0.830779
-0.826396
0.019914
0.060377
-0.023653
-0.731178
-0.750552
-0.089904
-0.041524
-0.005377
0.017431
-0.672558
-0.785719
-0.782813
-0.744695
-0.772651