# vtk DataFile Version 2.0
Test
ASCII
DATASET POLYDATA
POINTS 7607 float
0.000000 0.000000 0.000000
1.000000 0.000000 0.000000
1.000000 0.800000 0.000000
1.000000 1.000000 0.000000
0.000000 1.000000 0.000000
0.000000 0.200000 0.000000
0.300000 0.330000 0.000000
0.700000 0.680000 0.000000
0.012987 0.000000 0.000000
0.025974 0.000000 0.000000
0.038961 0.000000 0.000000
0.051948 0.000000 0.000000
0.064935 0.000000 0.000000
0.077922 0.000000 0.000000
0.090909 0.000000 0.000000
0.103896 0.000000 0.000000
0.116883 0.000000 0.000000
0.129870 0.000000 0.000000
0.142857 0.000000 0.000000
0.155844 0.000000 0.000000
0.168831 0.000000 0.000000
0.181818 0.000000 0.000000
0.194805 0.000000 0.000000
0.207792 0.000000 0.000000
0.220779 0.000000 0.000000
0.233766 0.000000 0.000000
0.246753 0.000000 0.000000
0.259740 0.000000 0.000000
0.272727 0.000000 0.000000
0.285714 0.000000 0.000000
0.298701 0.000000 0.000000
0.311688 0.000000 0.000000
0.324675 0.000000 0.000000
0.337662 0.000000 0.000000
0.350649 0.000000 0.000000
0.363636 0.000000 0.000000
0.376623 0.000000 0.000000
0.389610 0.000000 0.000000
0.402597 0.000000 0.000000
0.415584 0.000000 0.000000
0.428571 0.000000 0.000000
0.441558 0.000000 0.000000
0.454545 0.000000 0.000000
0.467532 0.000000 0.000000
0.480519 0.000000 0.000000
0.493506 0.000000 0.000000
0.506494 0.000000 0.000000
0.519481 0.000000 0.000000
0.532468 0.000000 0.000000
0.545455 0.000000 0.000000
0.558442 0.000000 0.000000
0.571429 0.000000 0.000000
0.584416 0.000000 0.000000
0.597403 0.000000 0.000000
0.610390 0.000000 0.000000
0.623377 0.000000 0.000000
0.636364 0.000000 0.000000
0.649351 0.000000 0.000000
0.662338 0.000000 0.000000
0.675325 0.000000 0.000000
0.688312 0.000000 0.000000
0.701299 0.000000 0.000000
0.714286 0.000000 0.000000
0.727273 0.000000 0.000000
0.740260 0.000000 0.000000
0.753247 0.000000 0.000000
0.766234 0.000000 0.000000
0.779221 0.000000 0.000000
0.792208 0.000000 0.000000
0.805195 0.000000 0.000000
0.818182 0.000000 0.000000
0.831169 0.000000 0.000000
0.844156 0.000000 0.000000
0.857143 0.000000 0.000000
0.870130 0.000000 0.000000
0.883117 0.000000 0.000000
0.896104 0.000000 0.000000
0.909091 0.000000 0.000000
0.922078 0.000000 0.000000
0.935065 0.000000 0.000000
0.948052 0.000000 0.000000
0.961039 0.000000 0.000000
0.974026 0.000000 0.000000
0.987013 0.000000 0.000000
1.000000 0.012903 0.000000
1.000000 0.025806 0.000000
1.000000 0.038710 0.000000
1.000000 0.051613 0.000000
1.000000 0.064516 0.000000
1.000000 0.077419 0.000000
1.000000 0.090323 0.000000
1.000000 0.103226 0.000000
1.000000 0.116129 0.000000
1.000000 0.129032 0.000000
1.000000 0.141935 0.000000
1.000000 0.154839 0.000000
1.000000 0.167742 0.000000
1.000000 0.180645 0.000000
1.000000 0.193548 0.000000
1.000000 0.206452 0.000000
1.000000 0.219355 0.000000
1.000000 0.232258 0.000000
1.000000 0.245161 0.000000
1.000000 0.258065 0.000000
1.000000 0.270968 0.000000
1.000000 0.283871 0.000000
1.000000 0.296774 0.000000
1.000000 0.309677 0.000000
1.000000 0.322581 0.000000
1.000000 0.335484 0.000000
1.000000 0.348387 0.000000
1.000000 0.361290 0.000000
1.000000 0.374194 0.000000
1.000000 0.387097 0.000000
1.000000 0.400000 0.000000
1.000000 0.412903 0.000000
1.000000 0.425806 0.000000
1.000000 0.438710 0.000000
1.000000 0.451613 0.000000
1.000000 0.464516 0.000000
1.000000 0.477419 0.000000
1.000000 0.490323 0.000000
1.000000 0.503226 0.000000
1.000000 0.516129 0.000000
1.000000 0.529032 0.000000
1.000000 0.541935 0.000000
1.000000 0.554839 0.000000
1.000000 0.567742 0.000000
1.000000 0.580645 0.000000
1.000000 0.593548 0.000000
1.000000 0.606452 0.000000
1.000000 0.619355 0.000000
1.000000 0.632258 0.000000
1.000000 0.645161 0.000000
1.000000 0.658065 0.000000
1.000000 0.670968 0.000000
1.000000 0.683871 0.000000
1.000000 0.696774 0.000000
1.000000 0.709677 0.000000
1.000000 0.722581 0.000000
1.000000 0.735484 0.000000
1.000000 0.748387 0.000000
1.000000 0.761290 0.000000
1.000000 0.774194 0.000000
1.000000 0.787097 0.000000
1.000000 0.812500 0.000000
1.000000 0.825000 0.000000
1.000000 0.837500 0.000000
1.000000 0.850000 0.000000
1.000000 0.862500 0.000000
1.000000 0.875000 0.000000
1.000000 0.887500 0.000000
1.000000 0.900000 0.000000
1.000000 0.912500 0.000000
1.000000 0.925000 0.000000
1.000000 0.937500 0.000000
1.000000 0.950000 0.000000
1.000000 0.962500 0.000000
1.000000 0.975000 0.000000
1.000000 0.987500 0.000000
0.987013 1.000000 0.000000
0.974026 1.000000 0.000000
0.961039 1.000000 0.000000
0.948052 1.000000 0.000000
0.935065 1.000000 0.000000
0.922078 1.000000 0.000000
0.909091 1.000000 0.000000
0.896104 1.000000 0.000000
0.883117 1.000000 0.000000
0.870130 1.000000 0.000000
0.857143 1.000000 0.000000
0.844156 1.000000 0.000000
0.831169 1.000000 0.000000
0.818182 1.000000 0.000000
0.805195 1.000000 0.000000
0.792208 1.000000 0.000000
0.779221 1.000000 0.000000
0.766234 1.000000 0.000000
0.753247 1.000000 0.000000
0.740260 1.000000 0.000000
0.727273 1.000000 0.000000
0.714286 1.000000 0.000000
0.701299 1.000000 0.000000
0.688312 1.000000 0.000000
0.675325 1.000000 0.000000
0.662338 1.000000 0.000000
0.649351 1.000000 0.000000
0.636364 1.000000 0.000000
0.623377 1.000000 0.000000
0.610390 1.000000 0.000000
0.597403 1.000000 0.000000
0.584416 1.000000 0.000000
0.571429 1.000000 0.000000
0.558442 1.000000 0.000000
0.545455 1.000000 0.000000
0.532468 1.000000 0.000000
0.519481 1.000000 0.000000
0.506494 1.000000 0.000000
0.493506 1.000000 0.000000
0.480519 1.000000 0.000000
0.467532 1.000000 0.000000
0.454545 1.000000 0.000000
0.441558 1.000000 0.000000
0.428571 1.000000 0.000000
0.415584 1.000000 0.000000
0.402597 1.000000 0.000000
0.389610 1.000000 0.000000
0.376623 1.000000 0.000000
0.363636 1.000000 0.000000
0.350649 1.000000 0.000000
0.337662 1.000000 0.000000
0.324675 1.000000 0.000000
0.311688 1.000000 0.000000
0.298701 1.000000 0.000000
0.285714 1.000000 0.000000
0.272727 1.000000 0.000000
0.259740 1.000000 0.000000
0.246753 1.000000 0.000000
0.233766 1.000000 0.000000
0.220779 1.000000 0.000000
0.207792 1.000000 0.000000
0.194805 1.000000 0.000000
0.181818 1.000000 0.000000
0.168831 1.000000 0.000000
0.155844 1.000000 0.000000
0.142857 1.000000 0.000000
0.129870 1.000000 0.000000
0.116883 1.000000 0.000000
0.103896 1.000000 0.000000
0.090909 1.000000 0.000000
0.077922 1.000000 0.000000
0.064935 1.000000 0.000000
0.051948 1.000000 0.000000
0.038961 1.000000 0.000000
0.025974 1.000000 0.000000
0.012987 1.000000 0.000000
0.000000 0.987097 0.000000
0.000000 0.974194 0.000000
0.000000 0.961290 0.000000
0.000000 0.948387 0.000000
0.000000 0.935484 0.000000
0.000000 0.922581 0.000000
0.000000 0.909677 0.000000
0.000000 0.896774 0.000000
0.000000 0.883871 0.000000
0.000000 0.870968 0.000000
0.000000 0.858065 0.000000
0.000000 0.845161 0.000000
0.000000 0.832258 0.000000
0.000000 0.819355 0.000000
0.000000 0.806452 0.000000
0.000000 0.793548 0.000000
0.000000 0.780645 0.000000
0.000000 0.767742 0.000000
0.000000 0.754839 0.000000
0.000000 0.741935 0.000000
0.000000 0.729032 0.000000
0.000000 0.716129 0.000000
0.000000 0.703226 0.000000
0.000000 0.690323 0.000000
0.000000 0.677419 0.000000
0.000000 0.664516 0.000000
0.000000 0.651613 0.000000
0.000000 0.638710 0.000000
0.000000 0.625806 0.000000
0.000000 0.612903 0.000000
0.000000 0.600000 0.000000
0.000000 0.587097 0.000000
0.000000 0.574194 0.000000
0.000000 0.561290 0.000000
0.000000 0.548387 0.000000
0.000000 0.535484 0.000000
0.000000 0.522581 0.000000
0.000000 0.509677 0.000000
0.000000 0.496774 0.000000
0.000000 0.483871 0.000000
0.000000 0.470968 0.000000
0.000000 0.458065 0.000000
0.000000 0.445161 0.000000
0.000000 0.432258 0.000000
0.000000 0.419355 0.000000
0.000000 0.406452 0.000000
0.000000 0.393548 0.000000
0.000000 0.380645 0.000000
0.000000 0.367742 0.000000
0.000000 0.354839 0.000000
0.000000 0.341935 0.000000
0.000000 0.329032 0.000000
0.000000 0.316129 0.000000
0.000000 0.303226 0.000000
0.000000 0.290323 0.000000
0.000000 0.277419 0.000000
0.000000 0.264516 0.000000
0.000000 0.251613 0.000000
0.000000 0.238710 0.000000
0.000000 0.225806 0.000000
0.000000 0.212903 0.000000
0.000000 0.187500 0.000000
0.000000 0.175000 0.000000
0.000000 0.162500 0.000000
0.000000 0.150000 0.000000
0.000000 0.137500 0.000000
0.000000 0.125000 0.000000
0.000000 0.112500 0.000000
0.000000 0.100000 0.000000
0.000000 0.087500 0.000000
0.000000 0.075000 0.000000
0.000000 0.062500 0.000000
0.000000 0.050000 0.000000
0.000000 0.037500 0.000000
0.000000 0.025000 0.000000
0.000000 0.012500 0.000000
0.309756 0.338537 0.000000
0.319512 0.347073 0.000000
0.329268 0.355610 0.000000
0.339024 0.364146 0.000000
0.348780 0.372683 0.000000
0.358537 0.381220 0.000000
0.368293 0.389756 0.000000
0.378049 0.398293 0.000000
0.387805 0.406829 0.000000
0.397561 0.415366 0.000000
0.407317 0.423902 0.000000
0.417073 0.432439 0.000000
0.426829 0.440976 0.000000
0.436585 0.449512 0.000000
0.446341 0.458049 0.000000
0.456098 0.466585 0.000000
0.465854 0.475122 0.000000
0.475610 0.483659 0.000000
0.485366 0.492195 0.000000
0.495122 0.500732 0.000000
0.504878 0.509268 0.000000
0.514634 0.517805 0.000000
0.524390 0.526341 0.000000
0.534146 0.534878 0.000000
0.543902 0.543415 0.000000
0.553659 0.551951 0.000000
0.563415 0.560488 0.000000
0.573171 0.569024 0.000000
0.582927 0.577561 0.000000
0.592683 0.586098 0.000000
0.602439 0.594634 0.000000
0.612195 0.603171 0.000000
0.621951 0.611707 0.000000
0.631707 0.620244 0.000000
0.641463 0.628780 0.000000
0.651220 0.637317 0.000000
0.660976 0.645854 0.000000
0.670732 0.654390 0.000000
0.680488 0.662927 0.000000
0.690244 0.671463 0.000000
0.011538 0.205000 0.000000
0.023077 0.210000 0.000000
0.034615 0.215000 0.000000
0.046154 0.220000 0.000000
0.057692 0.225000 0.000000
0.069231 0.230000 0.000000
0.080769 0.235000 0.000000
0.092308 0.240000 0.000000
0.103846 0.245000 0.000000
0.115385 0.250000 0.000000
0.126923 0.255000 0.000000
0.138462 0.260000 0.000000
0.150000 0.265000 0.000000
0.161538 0.270000 0.000000
0.173077 0.275000 0.000000
[...]
POINT_DATA 7607
SCALARS UX float 1
LOOKUP_TABLE default
-0.000005
0.000012
0.065502
0.030786
-0.097689
-0.075727
-0.053769
0.017087
-0.000004
-0.000000
-0.000002
0.000001
0.000003
-0.000002
0.000001
-0.000001
0.000001
-0.000000
0.000001
-0.000000
0.000000
-0.000000
0.000000
-0.000001
0.000000
-0.000000
-0.000000
0.000000
0.000000
-0.000000
0.000000
-0.000000
-0.000000
-0.000000
-0.000000
-0.000000
0.000000
0.000000
0.000000
-0.000000
-0.000000
-0.000000
-0.000000
-0.000000
0.000000
-0.000000
0.000000
0.000000
-0.000000
-0.000000
-0.000000
-0.000000
0.000000
0.000000
0.000000
-0.000001
0.000001
-0.000000
-0.000000
-0.000000
0.000000
-0.000000
-0.000000
-0.000000
-0.000000
0.000000
0.000001
-0.000001
0.000001
0.000000
0.000000
-0.000000
-0.000001
0.000000
0.000000
-0.000000
-0.000001
-0.000000
0.000001
-0.000002
0.000002
0.000002
-0.000009
0.000009
0.005673
0.009489
0.012733
0.015504
0.017917
0.020214
0.022378
0.024370
0.026281
0.028052
0.029781
0.031412
0.033048
0.034617
0.036110
0.037633
0.039135
0.040655
0.042023
0.043532
0.044999
0.046519
0.047976
0.049466
0.050957
0.052430
0.054023
0.055539
0.057122
0.058694
0.060314
0.061934
0.063542
0.065178
0.066853
0.068375
0.069457
0.070405
0.071292
0.072120
0.072798
0.073352
0.073952
0.074410
0.074799
0.075064
0.075327
0.075447
0.075508
0.075455
0.075333
0.075091
0.074725
0.074229
0.073686
0.072981
0.072063
0.071119
0.069954
0.068584
0.067088
0.063682
0.061731
0.059618
0.057337
0.054916
0.052582
0.049859
0.047159
0.044339
0.041468
0.038934
0.036627
0.034606
0.032923
0.031643
0.025573
0.020641
0.016090
0.011942
0.008126
0.004811
0.002055
-0.000586
-0.002923
-0.005095
-0.007053
-0.008748
-0.010298
-0.011673
-0.012880
-0.014077
-0.015351
-0.016576
-0.017777
-0.018941
-0.020096
-0.021207
-0.022294
-0.023377
-0.024444
-0.025508
-0.026573
-0.027624
-0.028660
-0.029715
-0.030793
-0.031887
-0.033006
-0.034152
-0.035340
-0.036565
-0.037848
-0.039195
-0.040721
-0.042336
-0.043799
-0.045281
-0.046781
-0.048295
-0.049822
-0.051367
-0.052914
-0.054482
-0.055983
-0.057555
-0.059138
-0.060698
-0.062248
-0.063777
-0.065293
-0.066813
-0.068325
-0.069813
-0.071330
-0.072826
-0.074298
-0.075760
-0.077252
-0.078717
-0.080153
-0.081627
-0.083081
-0.084509
-0.085948
-0.087401
-0.088853
-0.090309
-0.091773
-0.093230
-0.094695
-0.096187
-0.097690
-0.097755
-0.097837
-0.097975
-0.098052
-0.098222
-0.098454
-0.098662
-0.098939
-0.099226
-0.099531
-0.099858
-0.100180
-0.100582
-0.100970
-0.101433
-0.101899
-0.102305
-0.102788
-0.103342
-0.103856
-0.104286
-0.104887
-0.105414
-0.105969
-0.106491
-0.107031
-0.107582
-0.108053
-0.108640
-0.109115
-0.109603
-0.110118
-0.110584
-0.111079
-0.111534
-0.111993
-0.112344
-0.112653
-0.112830
-0.112945
-0.112937
-0.112815
-0.112543
-0.112169
-0.111646
-0.110993
-0.110142
-0.109125
-0.107902
-0.106456
-0.104796
-0.102825
-0.100662
-0.098280
-0.095609
-0.092793
-0.089896
-0.086516
-0.083101
-0.079378
-0.071993
-0.068282
-0.065014
-0.061410
-0.058014
-0.054700
-0.051143
-0.047210
-0.043071
-0.038489
-0.034481
-0.030078
-0.025305
-0.020259
-0.012534
-0.051479
-0.076827
-0.073019
-0.070227
-0.068694
-0.061912
-0.056248
-0.060664
-0.052488
-0.054854
-0.054326
-0.054016
-0.049265
-0.049076
-0.045005
-0.042153
-0.038464
-0.036984
-0.034974
-0.032006
-0.030986
-0.029399
-0.025199
-0.021763
-0.017809
-0.014923
-0.008890
-0.007503
-0.002078
0.002327
0.002530
0.008468
0.009911
0.010822
0.012229
0.008344
0.015169
0.010803
0.010789
0.009947
-0.075094
-0.074419
-0.074435
-0.074271
-0.074155
-0.074051
-0.073892
-0.073695
-0.073478
-0.073284
-0.073121
-0.072743
-0.072486
-0.072539
-0.072570
-0.071489
-0.070152
-0.068947
-0.068999
-0.068964
-0.066949
-0.065435
-0.062706
-0.061702
-0.059567
0.026405
0.030752
0.032015
0.034566
0.036658
0.037849
0.038679
0.039319
0.041059
0.042384
0.044594
0.045980
0.047844
0.049533
0.051253
0.052906
0.054465
0.055982
0.057416
0.058757
0.060153
0.061521
0.062847
0.064175
-0.025711
-0.027022
-0.024818
-0.027296
0.035130
0.034269
0.035378
-0.089473
-0.089522
-0.087263
-0.084520
-0.086096
-0.081307
0.011572
0.013575
0.012986
-0.087450
-0.090964
-0.091718
-0.090560
0.022902
0.023495
0.024423
0.021847
-0.050183
-0.047393
-0.054176
-0.043624
-0.019197
-0.023956
-0.090406
-0.087855
-0.088458
-0.090996
-0.062082
-0.057884
0.007548
0.009752
0.009449
0.007736
-0.085801
-0.087498
-0.086249
-0.087277
0.047733
0.043707
0.046600
0.040673
0.057699
0.056406
0.056532
0.028835
0.030731
0.054721
0.032246
0.033007
0.034148
-0.023950
-0.024877
-0.023389
-0.068268
-0.072034
-0.024274
-0.003834
0.000589
0.001121
-0.031565
-0.037230
-0.032629
0.007759
-0.096946
-0.096814
0.012688
0.010013
0.033752
-0.009730
-0.009342
-0.008281
-0.054157
-0.054398
-0.052953
-0.007920
-0.022800
-0.021874
-0.022519
0.026648
0.028135
0.029029
0.030080
-0.003834
-0.004369
-0.004062
-0.050744
-0.054394
-0.050721
-0.004423
0.066348
0.067441
0.066089
-0.074847
-0.075024
-0.080552
0.047072
0.051293
0.048784
0.049901
-0.055689
-0.034196
-0.035715
-0.036309
-0.002008
-0.003236
-0.003041
0.020101
0.021995
0.021728
-0.022064
-0.023708
-0.022676
0.020952
0.021232
0.022671
0.024372
0.029026
0.027973
0.025427
0.023436
0.063514
0.061792
0.062691
-0.002413
-0.038194
-0.027567
-0.032646
-0.031322
-0.029465
-0.091013
-0.089487
-0.089546
-0.088048
-0.043041
-0.043125
-0.044023
-0.041689
-0.005624
-0.005474
-0.004070
-0.006894
0.023462
-0.003396
-0.002967
-0.003051
-0.002566
-0.112095
-0.112195
-0.111376
-0.004330
-0.004550
-0.004868
-0.091733
-0.090873
-0.092176
-0.005201
-0.010291
-0.004485
-0.008454
-0.090108
-0.089574
-0.090335
-0.082500
-0.082302
-0.083543
-0.089214
0.054886
0.054146
0.055913
0.053598
0.054246
0.054777
0.056100
0.028889
0.030408
0.029953
-0.041582
-0.042904
-0.041614
-0.032995
-0.031659
-0.031928
-0.005081
-0.005738
-0.004923
-0.005396
0.021676
0.023450
0.021575
-0.042694
-0.045651
-0.041065
-0.046858
-0.069780
-0.069000
-0.067661
-0.067460
0.033172
0.032765
0.031791
0.034041
0.036360
0.034461
0.034997
0.062753
0.061620
0.060929
0.037157
0.034524
-0.098145
-0.098438
-0.099480
0.033896
0.037031
0.032741
0.038165
0.065940
0.065333
0.067107
0.039688
0.038956
0.038838
0.037939
-0.047132
-0.045333
-0.081869
-0.082267
-0.081430
-0.077226
-0.077516
-0.078567
-0.079068
-0.001476
-0.001720
-0.001771
-0.082897
-0.042799
-0.041621
0.008998
0.009132
0.007971
0.063372
0.062218
0.061239
0.010199
-0.010221
-0.008520
-0.009044
-0.008979
-0.092672
-0.093469
-0.007323
-0.007236
-0.008068
0.018417
0.019485
0.020341
0.009679
0.009395
0.010601
0.033265
0.030067
-0.093182
-0.094670
-0.094335
-0.037392
-0.034780
0.064835
0.064214
0.010418
0.035859
0.037049
0.036065
0.012061
0.012141
0.013314
0.013256
-0.098444
-0.097606
-0.098667
-0.097284
-0.100173
-0.098720
-0.099345
-0.097442
0.018972
0.017560
0.018576
0.018828
-0.097137
-0.096392
-0.096355
-0.095510
0.065495
0.066778
0.049751
0.048735
0.050285
0.004406
0.002716
0.006076
0.047881
0.009490
0.011565
0.007500
0.036593
0.009014
-0.105441
-0.105483
-0.106259
-0.007670
-0.007858
-0.010123
-0.067526
-0.068920
-0.068983
-0.011742
-0.012114
-0.008938
0.039859
0.029056
-0.013346
0.062966
0.015875
0.012627
0.011918
0.016912
-0.100814
-0.101645
-0.067448
0.013434
0.015424
0.014153
0.022388
0.020997
0.022928
-0.089603
-0.090029
-0.088864
-0.022669
-0.029992
-0.030947
-0.031830
-0.036271
0.061700
0.060744
0.018228
0.016589
0.016159
0.021161
-0.099338
-0.100485
-0.099953
-0.100168
-0.099040
-0.098069
-0.003231
-0.002768
-0.003124
-0.002822
0.064326
0.063690
0.029639
0.029758
0.028607
0.031101
0.025719
0.025067
0.026757
0.025834
-0.035986
-0.035960
-0.033972
0.011045
0.010646
0.011813
-0.005157
-0.005800
-0.005670
-0.005540
-0.100111
-0.098197
-0.034656
-0.036393
-0.108948
-0.109903
-0.109087
0.030565
0.025123
0.035568
-0.036822
-0.031004
-0.040786
0.020500
0.020381
0.015603
0.020430
0.023566
0.012993
0.014771
-0.087840
-0.088225
-0.089466
0.065042
0.066361
-0.035181
-0.035152
-0.024110
-0.020243
-0.025497
0.009870
-0.021497
-0.022787
-0.025577
0.013543
0.014363
0.015088
0.011275
0.008833
-0.016934
-0.014693
-0.018115
-0.032363
-0.031462
-0.032111
0.015575
-0.101539
-0.074974
-0.102454
0.062447
0.013449
0.011694
-0.087362
-0.086762
0.061202
0.060191
-0.073001
-0.071439
-0.073133
-0.011708
-0.007350
0.015133
-0.006076
-0.005877
-0.007133
-0.006804
-0.071954
-0.080030
-0.081201
-0.080595
-0.081833
0.063888
0.063067
-0.101292
-0.102552
-0.102231
0.012128
0.011252
0.020383
0.015538
0.021059
0.016553
0.007078
0.008175
0.007325
-0.088364
-0.087332
-0.083319
-0.084438
-0.084350
-0.083298
-0.101134
-0.100456
-0.100067
-0.089674
0.005779
0.005759
0.006785
0.004445
-0.009472
-0.010442
-0.010254
-0.093306
-0.092249
-0.093081
0.027002
0.031417
0.028596
0.035681
-0.100718
-0.098819
-0.091325
-0.095466
-0.096302
-0.094625
0.064349
0.065917
-0.091264
0.017593
0.016410
-0.092023
0.061170
0.058894
0.058679
-0.090889
-0.091336
-0.027074
-0.095993
-0.095600
0.010922
0.007850
-0.023052
-0.029115
-0.025455
-0.001104
-0.001154
0.007553
0.062143
0.063661
0.063741
0.062489
0.062679
0.061470
-0.061232
-0.062360
-0.062283
-0.060969
0.021722
0.021921
0.023803
-0.018153
-0.014215
0.026006
0.023888
0.047819
0.046622
-0.097548
-0.096122
-0.096992
-0.097272
-0.035371
-0.038883
-0.038070
-0.042178
0.068768
0.067293
0.068952
0.070271
0.070324
0.002064
-0.000557
-0.000893
0.023737
-0.092938
-0.093824
-0.094529
-0.083117
-0.081397
-0.020639
-0.019613
-0.017531
-0.016095
0.000780
0.001283
-0.001648
0.013815
0.018385
-0.001688
-0.002803
-0.003837
0.067067
0.027895
0.027579
0.026129
0.009587
0.011763
0.015172
0.006750
-0.001585
-0.092500
0.001877
0.026377
0.002022
-0.014537
-0.017436
-0.013625
-0.086645
-0.089578
-0.103410
-0.104505
-0.104087
-0.093302
-0.089984
-0.068627
-0.068179
-0.067106
-0.105468
0.032909
0.038181
0.026090
0.027152
0.027615
-0.019202
-0.023111
0.025814
-0.082539
-0.082852
-0.083577
0.013905
0.012255
-0.069497
-0.086817
-0.086191
-0.102099
-0.011310
-0.010971
-0.009721
-0.102928
-0.005182
-0.005881
-0.105378
-0.104716
0.019518
0.020876
0.021473
0.061879
0.001609
0.001160
0.001753
0.000980
-0.105531
-0.105351
-0.104420
-0.065725
-0.066951
-0.066394
-0.066485
-0.004518
-0.004247
-0.016202
-0.014764
0.064279
0.066115
0.064543
0.007021
0.061890
0.060108
0.008138
0.056266
-0.000300
-0.003666
-0.003773
-0.003287
0.001018
-0.094666
-0.095840
-0.095414
-0.039863
-0.039299
-0.040405
-0.039138
0.060627
0.059715
-0.017727
-0.021398
-0.084144
-0.081467
-0.078817
-0.077635
-0.086930
-0.085444
-0.085474
-0.083588
-0.085316
-0.004203
-0.080233
-0.008101
-0.004136
-0.007121
0.071380
-0.006007
0.067783
0.069662
-0.006249
-0.006012
-0.006751
0.033637
0.019798
0.020966
-0.005444
-0.098746
-0.100159
-0.010651
-0.009210
-0.004043
-0.084911
-0.031511
-0.029890
-0.027320
-0.024591
0.017989
0.012304
0.013583
-0.013220
-0.011942
-0.096703
-0.030492
0.014522
-0.034772
-0.095229
-0.094686
-0.101228
0.038599
0.011840
0.008921
-0.099432
0.015543
0.031527
-0.028052
-0.109605
-0.108766
-0.108132
0.032634
-0.026482
-0.015914
-0.021694
-0.027848
-0.028640
-0.028967
0.022474
0.026481
-0.027826
-0.015013
-0.013661
0.019587
0.019884
0.059940
0.058283
0.021532
0.056412
0.057036
-0.006191
-0.006241
-0.005991
-0.002072
-0.069385
-0.004246
-0.002807
-0.004549
-0.016413
-0.019457
-0.088251
-0.088478
-0.089511
-0.091366
-0.092021
-0.088576
-0.094931
-0.010902
-0.009645
-0.006492
-0.006357
-0.006444
0.062145
0.064246
0.066108
0.059591
-0.086830
0.010638
-0.002413
0.011723
0.013344
-0.091222
0.030973
0.030954
0.032541
0.001441
-0.094230
0.011904
0.011755
0.013061
0.006053
0.010199
0.012929
0.013912
0.016407
0.017889
-0.004419
-0.007294
-0.006308
-0.011562
0.071137
0.070648
0.071601
0.069646
-0.092998
-0.093390
-0.092354
-0.037433
-0.033890
0.014686
0.015591
0.014256
0.004493
0.007147
0.005774
0.016283
-0.006258
-0.078316
0.042541
0.040486
0.041062
-0.084313
-0.086700
-0.097051
-0.098105
-0.098199
-0.006013
0.072134
0.069525
0.070714
0.067929
0.056777
-0.048115
-0.046449
-0.047116
0.022503
0.024341
-0.047664
0.019861
0.020175
-0.039023
-0.040332
-0.040266
-0.091472
-0.092324
-0.012210
-0.064060
-0.064387
-0.063192
-0.065269
0.071641
0.071337
0.070559
0.070227
-0.094031
-0.040320
-0.093158
-0.090025
-0.096344
0.019936
0.020971
0.019714
0.056122
0.056733
0.054664
-0.028147
-0.022254
-0.025049
-0.096984
0.017171
-0.099161
-0.094483
-0.093904
-0.092865
-0.093219
-0.087423
-0.087237
-0.084643
0.012084
0.009770
-0.088290
0.062127
-0.007711
-0.008394
-0.007575
-0.032339
-0.032288
-0.033207
-0.031884
-0.008287
0.014778
0.014395
0.016347
0.034648
-0.022211
-0.026185
-0.016278
0.024601
0.029513
0.020766
0.064069
0.066075
0.059641
-0.003969
-0.004004
-0.083495
-0.082909
-0.084296
-0.078494
-0.108287
-0.107611
-0.107459
-0.084960
-0.085717
-0.084351
0.053336
0.054666
0.053065
-0.081617
-0.085796
-0.088236
-0.013948
-0.012687
-0.060343
0.010631
0.007573
-0.004416
-0.002225
0.071081
0.072596
0.069657
0.067953
0.011717
0.015868
-0.007541
-0.011497
-0.003621
0.014730
0.014375
0.015720
-0.090148
-0.002617
-0.004086
-0.003749
0.001778
-0.057337
-0.056479
-0.086512
-0.086790
-0.087330
-0.091488
-0.091489
-0.092711
0.006050
0.003644
0.008029
-0.095747
-0.098356
-0.094728
-0.091647
-0.008586
0.061660
0.058540
-0.008512
-0.008434
0.053982
-0.004690
0.063811
0.066102
-0.006370
-0.056959
-0.063784
-0.066384
-0.008239
-0.010380
-0.007503
-0.025503
-0.024626
-0.025954
0.050854
0.051568
0.052267
-0.096638
-0.084768
-0.084691
-0.080881
-0.063064
-0.064666
-0.064227
-0.087594
-0.088810
0.018185
-0.065955
-0.095648
-0.094105
-0.093233
0.014923
0.013297
0.010447
-0.028755
-0.034641
-0.025450
0.030172
0.036365
-0.001908
-0.001666
-0.001934
-0.024623
-0.016808
0.023614
0.018678
-0.082846
-0.078667
-0.087505
-0.089752
0.071398
0.073163
0.069870
0.067955
0.008039
0.005052
-0.045441
-0.051295
-0.043309
-0.004368
-0.002120
-0.015250
-0.097768
-0.100789
-0.018046
-0.001699
0.008964
0.013338
-0.007380
-0.011417
-0.001848
-0.002235
-0.008615
-0.008406
-0.010076
-0.090129
-0.088973
-0.085165
0.003930
0.002069
-0.065838
-0.064104
-0.064859
-0.096501
-0.093141
-0.090416
-0.091840
0.006543
0.008662
-0.008919
-0.083382
-0.082147
-0.082920
0.061530
0.056396
0.063700
0.065933
-0.064122
-0.083431
-0.079088
-0.087412
0.053794
0.053846
0.055267
-0.095208
0.052211
-0.081415
0.016628
0.023404
0.021736
0.022958
0.061152
-0.093623
-0.092574
-0.096238
0.014468
0.011428
0.019437
0.071641
0.062711
-0.024446
-0.029779
-0.023427
0.069927
0.068006
0.073034
-0.031766
-0.028417
-0.021007
-0.024801
0.021552
-0.002086
0.032479
0.032103
0.033287
-0.008666
-0.019947
-0.006150
-0.006200
-0.006823
-0.005273
0.018671
0.031079
-0.099788
-0.087741
-0.088861
-0.085738
-0.011334
-0.098007
-0.094915
-0.102033
-0.091597
-0.091987
0.061461
0.022493
0.005241
0.025829
0.023407
-0.004311
0.019482
-0.008245
0.005153
-0.007992
0.002475
-0.006233
-0.086357
-0.085740
-0.085273
-0.002166
-0.089058
-0.087102
0.004507
0.041058
0.042141
0.041435
-0.102524
0.063437
0.065814
0.043008
-0.089366
-0.090844
-0.087661
0.006921
0.009591
0.002833
-0.103395
-0.010811
-0.084146
-0.010646
-0.042619
-0.043956
-0.042939
-0.111119
-0.109992
-0.110597
-0.087312
-0.081729
-0.010782
0.071292
-0.008164
-0.086517
0.045143
0.044855
0.043508
-0.044124
-0.042939
-0.012966
-0.011817
-0.022797
-0.021490
-0.019537
0.043108
-0.008431
-0.094588
-0.087587
0.017634
-0.007624
-0.006384
-0.092932
-0.092142
-0.096166
0.015209
0.012619
0.021262
-0.027441
-0.026709
-0.027979
-0.027062
-0.010630
-0.010356
-0.009331
-0.008276
0.014322
0.012746
-0.010721
-0.000412
0.002760
0.002781
-0.086371
-0.086198
-0.086031
-0.093451
0.006902
-0.000695
0.002250
-0.014196
-0.016760
-0.005834
-0.004623
-0.061442
-0.061339
-0.062671
-0.104013
-0.104698
0.068019
-0.021449
-0.025967
0.046673
0.044769
0.044867
-0.096464
0.040979
-0.031310
-0.030240
-0.030755
-0.030796
-0.062732
-0.069433
-0.070323
-0.070752
-0.018847
-0.017252
-0.019237
-0.087985
-0.016289
-0.018453
0.005105
-0.020412
-0.010122
-0.085173
-0.009847
0.073793
0.074295
0.073305
-0.012878
-0.012631
-0.010513
-0.088304
0.003539
0.004051
0.003252
0.007158
-0.031624
0.004210
-0.033009
-0.033557
-0.030926
-0.012944
-0.010559
0.062195
0.063737
0.062793
-0.096912
-0.096126
-0.096184
0.063239
-0.096226
-0.097295
-0.097275
-0.083566
-0.084990
-0.079152
-0.094845
-0.080474
-0.026392
-0.025354
-0.025981
0.039916
0.039788
-0.012049
-0.011027
-0.010323
-0.012573
-0.012202
-0.043114
-0.044345
-0.045222
-0.001799
-0.005144
-0.100894
-0.101670
-0.102029
-0.088087
-0.088824
-0.088168
0.016013
0.017457
-0.007079
-0.093707
-0.093258
-0.094311
0.050364
0.051390
-0.008677
-0.007611
-0.012715
-0.100156
-0.099572
-0.000401
-0.000795
-0.000542
-0.013156
-0.015540
-0.014884
-0.014519
-0.098597
0.018126
0.019822
-0.088302
0.035281
0.036852
0.037199
0.035012
-0.105107
-0.104684
-0.103838
-0.028509
-0.029048
-0.027912
-0.005452
-0.004297
0.043006
0.041969
0.046599
0.037983
0.049766
0.051045
-0.015019
-0.012858
-0.009159
-0.012334
-0.009978
-0.012387
-0.105815
-0.002436
-0.002537
-0.001481
-0.011865
-0.011497
0.053868
0.053030
0.052625
0.054438
0.051373
0.052361
0.050936
-0.005283
-0.005240
-0.004515
0.037139
-0.009841
-0.006127
-0.027476
-0.027843
-0.028394
-0.026741
-0.049590
-0.049860
-0.053062
0.059208
-0.045299
-0.056535
-0.057250
-0.060768
0.031556
0.031515
0.029348
-0.004484
-0.007860
0.041849
0.042806
0.041557
0.039865
0.042288
0.038728
0.043231
0.044984
0.029825
0.041400
0.040575
-0.011224
-0.010185
0.060894
0.059901
0.060329
0.060723
0.059255
0.060547
0.059316
0.058677
-0.018161
-0.014413
-0.014217
-0.007409
-0.002524
-0.012101
0.033493
0.035265
0.033571
0.035215
0.034118
0.073363
0.072658
0.072169
-0.016763
-0.016572
-0.010592
-0.014511
-0.013417
-0.013244
-0.015310
-0.014924
-0.008139
-0.007155
-0.016919
-0.006582
0.069059
0.070024
0.068036
0.055563
0.057240
0.054206
-0.012291
-0.014335
-0.088885
-0.090495
-0.012460
-0.013360
-0.012177
-0.013430
-0.092932
-0.091798
-0.092746
-0.091851
-0.025063
-0.025169
-0.024188
-0.024887
-0.015237
-0.012639
-0.005120
-0.004019
-0.013502
-0.013088
-0.010558
-0.005852
0.068576
0.068047
0.067590
0.066607
0.031436
0.011063
0.006825
0.008879
0.067260
0.068700
0.069327
-0.019799
-0.024225
-0.009203
-0.057565
-0.054568
-0.059113
-0.053990
-0.060703
-0.063440
-0.065689
-0.016057
-0.015835
-0.010552
-0.009555
0.072506
-0.016825
-0.013846
-0.018462
-0.018207
0.033325
-0.086687
-0.016282
-0.000390
-0.000545
-0.000571
-0.000725
-0.007619
-0.006651
-0.018706
-0.017179
-0.011514
-0.013362
-0.006194
-0.086205
-0.013248
-0.012177
-0.011015
-0.004820
-0.003786
-0.015065
-0.014586
-0.000769
-0.000980
-0.000691
-0.001026
-0.064493
-0.065327
-0.066017
-0.064072
-0.019461
-0.016554
-0.019781
-0.018300
-0.022225
-0.008605
-0.017637
-0.017339
-0.009947
-0.009004
-0.017954
-0.016104
-0.016155
-0.072720
-0.072116
-0.073472
-0.084584
-0.085555
-0.084932
-0.085977
-0.015600
-0.017920
-0.015474
-0.019998
-0.019738
0.046648
0.047422
0.047526
0.049364
0.009790
0.011016
0.010712
-0.007077
-0.006052
-0.010920
-0.012524
-0.017309
-0.070229
-0.070622
-0.067142
-0.014364
-0.003183
-0.001223
0.004107
-0.020228
-0.018961
-0.029803
-0.029553
0.002509
-0.104173
-0.105123
0.048769
0.050456
0.049519
0.046688
-0.005875
-0.016518
-0.016032
-0.005131
-0.090440
-0.001355
-0.001143
-0.001392
0.042777
0.043373
0.044646
-0.047955
-0.050814
-0.048734
-0.049794
-0.017339
-0.014833
-0.008539
-0.021692
-0.021128
-0.019121
-0.018769
-0.017128
-0.020791
-0.008039
0.038358
0.036448
0.044792
0.038182
0.036851
0.003095
0.003920
0.003272
0.003467
-0.032966
-0.028241
-0.019341
-0.010498
-0.011777
-0.002744
-0.002936
-0.003324
-0.002495
-0.014573
-0.016963
-0.006610
-0.005656
-0.099056
0.042032
0.041036
0.042584
-0.017916
-0.017404
-0.081413
-0.080746
-0.080124
-0.082168
-0.109885
-0.110623
-0.110528
-0.111361
0.057965
0.057737
-0.007583
-0.020646
-0.020170
0.055588
-0.016005
-0.019036
0.041118
-0.061242
-0.062611
-0.062398
-0.020565
-0.093496
-0.092030
-0.093919
-0.092776
-0.093733
-0.092126
-0.092115
-0.090746
-0.023811
-0.013630
-0.018390
-0.063990
-0.005364
-0.005574
-0.060638
-0.060399
-0.000384
-0.007405
-0.006921
-0.006467
-0.007131