# vtk DataFile Version 2.0
Test
ASCII
DATASET POLYDATA
POINTS 7607 float
0.000000 0.000000 0.000000
1.000000 0.000000 0.000000
1.000000 0.800000 0.000000
1.000000 1.000000 0.000000
0.000000 1.000000 0.000000
0.000000 0.200000 0.000000
0.300000 0.330000 0.000000
0.700000 0.680000 0.000000
0.012987 0.000000 0.000000
0.025974 0.000000 0.000000
0.038961 0.000000 0.000000
0.051948 0.000000 0.000000
0.064935 0.000000 0.000000
0.077922 0.000000 0.000000
0.090909 0.000000 0.000000
0.103896 0.000000 0.000000
0.116883 0.000000 0.000000
0.129870 0.000000 0.000000
0.142857 0.000000 0.000000
0.155844 0.000000 0.000000
0.168831 0.000000 0.000000
0.181818 0.000000 0.000000
0.194805 0.000000 0.000000
0.207792 0.000000 0.000000
0.220779 0.000000 0.000000
0.233766 0.000000 0.000000
0.246753 0.000000 0.000000
0.259740 0.000000 0.000000
0.272727 0.000000 0.000000
0.285714 0.000000 0.000000
0.298701 0.000000 0.000000
0.311688 0.000000 0.000000
0.324675 0.000000 0.000000
0.337662 0.000000 0.000000
0.350649 0.000000 0.000000
0.363636 0.000000 0.000000
0.376623 0.000000 0.000000
0.389610 0.000000 0.000000
0.402597 0.000000 0.000000
0.415584 0.000000 0.000000
0.428571 0.000000 0.000000
0.441558 0.000000 0.000000
0.454545 0.000000 0.000000
0.467532 0.000000 0.000000
0.480519 0.000000 0.000000
0.493506 0.000000 0.000000
0.506494 0.000000 0.000000
0.519481 0.000000 0.000000
0.532468 0.000000 0.000000
0.545455 0.000000 0.000000
0.558442 0.000000 0.000000
0.571429 0.000000 0.000000
0.584416 0.000000 0.000000
0.597403 0.000000 0.000000
0.610390 0.000000 0.000000
0.623377 0.000000 0.000000
0.636364 0.000000 0.000000
0.649351 0.000000 0.000000
0.662338 0.000000 0.000000
0.675325 0.000000 0.000000
0.688312 0.000000 0.000000
0.701299 0.000000 0.000000
0.714286 0.000000 0.000000
0.727273 0.000000 0.000000
0.740260 0.000000 0.000000
0.753247 0.000000 0.000000
0.766234 0.000000 0.000000
0.779221 0.000000 0.000000
0.792208 0.000000 0.000000
0.805195 0.000000 0.000000
0.818182 0.000000 0.000000
0.831169 0.000000 0.000000
0.844156 0.000000 0.000000
0.857143 0.000000 0.000000
0.870130 0.000000 0.000000
0.883117 0.000000 0.000000
0.896104 0.000000 0.000000
0.909091 0.000000 0.000000
0.922078 0.000000 0.000000
0.935065 0.000000 0.000000
0.948052 0.000000 0.000000
0.961039 0.000000 0.000000
0.974026 0.000000 0.000000
0.987013 0.000000 0.000000
1.000000 0.012903 0.000000
1.000000 0.025806 0.000000
1.000000 0.038710 0.000000
1.000000 0.051613 0.000000
1.000000 0.064516 0.000000
1.000000 0.077419 0.000000
1.000000 0.090323 0.000000
1.000000 0.103226 0.000000
1.000000 0.116129 0.000000
1.000000 0.129032 0.000000
1.000000 0.141935 0.000000
1.000000 0.154839 0.000000
1.000000 0.167742 0.000000
1.000000 0.180645 0.000000
1.000000 0.193548 0.000000
1.000000 0.206452 0.000000
1.000000 0.219355 0.000000
1.000000 0.232258 0.000000
1.000000 0.245161 0.000000
1.000000 0.258065 0.000000
1.000000 0.270968 0.000000
1.000000 0.283871 0.000000
1.000000 0.296774 0.000000
1.000000 0.309677 0.000000
1.000000 0.322581 0.000000
1.000000 0.335484 0.000000
1.000000 0.348387 0.000000
1.000000 0.361290 0.000000
1.000000 0.374194 0.000000
1.000000 0.387097 0.000000
1.000000 0.400000 0.000000
1.000000 0.412903 0.000000
1.000000 0.425806 0.000000
1.000000 0.438710 0.000000
1.000000 0.451613 0.000000
1.000000 0.464516 0.000000
1.000000 0.477419 0.000000
1.000000 0.490323 0.000000
1.000000 0.503226 0.000000
1.000000 0.516129 0.000000
1.000000 0.529032 0.000000
1.000000 0.541935 0.000000
1.000000 0.554839 0.000000
1.000000 0.567742 0.000000
1.000000 0.580645 0.000000
1.000000 0.593548 0.000000
1.000000 0.606452 0.000000
1.000000 0.619355 0.000000
1.000000 0.632258 0.000000
1.000000 0.645161 0.000000
1.000000 0.658065 0.000000
1.000000 0.670968 0.000000
1.000000 0.683871 0.000000
1.000000 0.696774 0.000000
1.000000 0.709677 0.000000
1.000000 0.722581 0.000000
1.000000 0.735484 0.000000
1.000000 0.748387 0.000000
1.000000 0.761290 0.000000
1.000000 0.774194 0.000000
1.000000 0.787097 0.000000
1.000000 0.812500 0.000000
1.000000 0.825000 0.000000
1.000000 0.837500 0.000000
1.000000 0.850000 0.000000
1.000000 0.862500 0.000000
1.000000 0.875000 0.000000
1.000000 0.887500 0.000000
1.000000 0.900000 0.000000
1.000000 0.912500 0.000000
1.000000 0.925000 0.000000
1.000000 0.937500 0.000000
1.000000 0.950000 0.000000
1.000000 0.962500 0.000000
1.000000 0.975000 0.000000
1.000000 0.987500 0.000000
0.987013 1.000000 0.000000
0.974026 1.000000 0.000000
0.961039 1.000000 0.000000
0.948052 1.000000 0.000000
0.935065 1.000000 0.000000
0.922078 1.000000 0.000000
0.909091 1.000000 0.000000
0.896104 1.000000 0.000000
0.883117 1.000000 0.000000
0.870130 1.000000 0.000000
0.857143 1.000000 0.000000
0.844156 1.000000 0.000000
0.831169 1.000000 0.000000
0.818182 1.000000 0.000000
0.805195 1.000000 0.000000
0.792208 1.000000 0.000000
0.779221 1.000000 0.000000
0.766234 1.000000 0.000000
0.753247 1.000000 0.000000
0.740260 1.000000 0.000000
0.727273 1.000000 0.000000
0.714286 1.000000 0.000000
0.701299 1.000000 0.000000
0.688312 1.000000 0.000000
0.675325 1.000000 0.000000
0.662338 1.000000 0.000000
0.649351 1.000000 0.000000
0.636364 1.000000 0.000000
0.623377 1.000000 0.000000
0.610390 1.000000 0.000000
0.597403 1.000000 0.000000
0.584416 1.000000 0.000000
0.571429 1.000000 0.000000
0.558442 1.000000 0.000000
0.545455 1.000000 0.000000
0.532468 1.000000 0.000000
0.519481 1.000000 0.000000
0.506494 1.000000 0.000000
0.493506 1.000000 0.000000
0.480519 1.000000 0.000000
0.467532 1.000000 0.000000
0.454545 1.000000 0.000000
0.441558 1.000000 0.000000
0.428571 1.000000 0.000000
0.415584 1.000000 0.000000
0.402597 1.000000 0.000000
0.389610 1.000000 0.000000
0.376623 1.000000 0.000000
0.363636 1.000000 0.000000
0.350649 1.000000 0.000000
0.337662 1.000000 0.000000
0.324675 1.000000 0.000000
0.311688 1.000000 0.000000
0.298701 1.000000 0.000000
0.285714 1.000000 0.000000
0.272727 1.000000 0.000000
0.259740 1.000000 0.000000
0.246753 1.000000 0.000000
0.233766 1.000000 0.000000
0.220779 1.000000 0.000000
0.207792 1.000000 0.000000
0.194805 1.000000 0.000000
0.181818 1.000000 0.000000
0.168831 1.000000 0.000000
0.155844 1.000000 0.000000
0.142857 1.000000 0.000000
0.129870 1.000000 0.000000
0.116883 1.000000 0.000000
0.103896 1.000000 0.000000
0.090909 1.000000 0.000000
0.077922 1.000000 0.000000
0.064935 1.000000 0.000000
0.051948 1.000000 0.000000
0.038961 1.000000 0.000000
0.025974 1.000000 0.000000
0.012987 1.000000 0.000000
0.000000 0.987097 0.000000
0.000000 0.974194 0.000000
0.000000 0.961290 0.000000
0.000000 0.948387 0.000000
0.000000 0.935484 0.000000
0.000000 0.922581 0.000000
0.000000 0.909677 0.000000
0.000000 0.896774 0.000000
0.000000 0.883871 0.000000
0.000000 0.870968 0.000000
0.000000 0.858065 0.000000
0.000000 0.845161 0.000000
0.000000 0.832258 0.000000
0.000000 0.819355 0.000000
0.000000 0.806452 0.000000
0.000000 0.793548 0.000000
0.000000 0.780645 0.000000
0.000000 0.767742 0.000000
0.000000 0.754839 0.000000
0.000000 0.741935 0.000000
0.000000 0.729032 0.000000
0.000000 0.716129 0.000000
0.000000 0.703226 0.000000
0.000000 0.690323 0.000000
0.000000 0.677419 0.000000
0.000000 0.664516 0.000000
0.000000 0.651613 0.000000
0.000000 0.638710 0.000000
0.000000 0.625806 0.000000
0.000000 0.612903 0.000000
0.000000 0.600000 0.000000
0.000000 0.587097 0.000000
0.000000 0.574194 0.000000
0.000000 0.561290 0.000000
0.000000 0.548387 0.000000
0.000000 0.535484 0.000000
0.000000 0.522581 0.000000
0.000000 0.509677 0.000000
0.000000 0.496774 0.000000
0.000000 0.483871 0.000000
0.000000 0.470968 0.000000
0.000000 0.458065 0.000000
0.000000 0.445161 0.000000
0.000000 0.432258 0.000000
0.000000 0.419355 0.000000
0.000000 0.406452 0.000000
0.000000 0.393548 0.000000
0.000000 0.380645 0.000000
0.000000 0.367742 0.000000
0.000000 0.354839 0.000000
0.000000 0.341935 0.000000
0.000000 0.329032 0.000000
0.000000 0.316129 0.000000
0.000000 0.303226 0.000000
0.000000 0.290323 0.000000
0.000000 0.277419 0.000000
0.000000 0.264516 0.000000
0.000000 0.251613 0.000000
0.000000 0.238710 0.000000
0.000000 0.225806 0.000000
0.000000 0.212903 0.000000
0.000000 0.187500 0.000000
0.000000 0.175000 0.000000
0.000000 0.162500 0.000000
0.000000 0.150000 0.000000
0.000000 0.137500 0.000000
0.000000 0.125000 0.000000
0.000000 0.112500 0.000000
0.000000 0.100000 0.000000
0.000000 0.087500 0.000000
0.000000 0.075000 0.000000
0.000000 0.062500 0.000000
0.000000 0.050000 0.000000
0.000000 0.037500 0.000000
0.000000 0.025000 0.000000
0.000000 0.012500 0.000000
0.309756 0.338537 0.000000
0.319512 0.347073 0.000000
0.329268 0.355610 0.000000
0.339024 0.364146 0.000000
0.348780 0.372683 0.000000
0.358537 0.381220 0.000000
0.368293 0.389756 0.000000
0.378049 0.398293 0.000000
0.387805 0.406829 0.000000
0.397561 0.415366 0.000000
0.407317 0.423902 0.000000
0.417073 0.432439 0.000000
0.426829 0.440976 0.000000
0.436585 0.449512 0.000000
0.446341 0.458049 0.000000
0.456098 0.466585 0.000000
0.465854 0.475122 0.000000
0.475610 0.483659 0.000000
0.485366 0.492195 0.000000
0.495122 0.500732 0.000000
0.504878 0.509268 0.000000
0.514634 0.517805 0.000000
0.524390 0.526341 0.000000
0.534146 0.534878 0.000000
0.543902 0.543415 0.000000
0.553659 0.551951 0.000000
0.563415 0.560488 0.000000
0.573171 0.569024 0.000000
0.582927 0.577561 0.000000
0.592683 0.586098 0.000000
0.602439 0.594634 0.000000
0.612195 0.603171 0.000000
0.621951 0.611707 0.000000
0.631707 0.620244 0.000000
0.641463 0.628780 0.000000
0.651220 0.637317 0.000000
0.660976 0.645854 0.000000
0.670732 0.654390 0.000000
0.680488 0.662927 0.000000
0.690244 0.671463 0.000000
0.011538 0.205000 0.000000
0.023077 0.210000 0.000000
0.034615 0.215000 0.000000
0.046154 0.220000 0.000000
0.057692 0.225000 0.000000
0.069231 0.230000 0.000000
0.080769 0.235000 0.000000
0.092308 0.240000 0.000000
0.103846 0.245000 0.000000
0.115385 0.250000 0.000000
0.126923 0.255000 0.000000
0.138462 0.260000 0.000000
0.150000 0.265000 0.000000
0.161538 0.270000 0.000000
0.173077 0.275000 0.000000
[...]
POINT_DATA 7607
SCALARS UX float 1
LOOKUP_TABLE default
0.003494
0.001925
0.009996
-0.032726
-0.105824
-0.048562
-0.048325
-0.031419
-0.000642
-0.000053
-0.000913
0.000822
0.007746
-0.000203
-0.000113
0.007273
0.000206
0.000319
-0.000147
0.000087
0.000024
-0.000018
-0.000081
0.000115
-0.000067
0.000248
0.000045
-0.000620
-0.000028
-0.000068
-0.000277
-0.005507
0.000107
-0.000085
-0.000022
-0.000243
0.000178
0.000154
0.001628
0.000059
0.000927
-0.001170
-0.000050
0.003266
0.000107
0.000342
-0.002149
-0.000022
-0.000123
0.000016
0.000057
-0.002394
-0.000129
-0.001085
-0.000027
0.000100
-0.000088
-0.000046
-0.000012
-0.000305
-0.000524
0.000151
-0.000128
-0.000009
0.004209
0.000230
-0.005876
0.000190
0.001699
0.000008
-0.000512
-0.000401
-0.004777
-0.000815
0.004236
0.002093
-0.004724
-0.000125
-0.000543
0.001187
0.000210
-0.000089
-0.000099
-0.008759
-0.001494
0.011388
0.005194
0.010068
0.006976
0.008606
0.007490
0.014004
0.027791
0.028083
0.022538
0.029579
0.020249
0.041760
0.021799
0.024285
0.038313
0.039485
0.039170
0.047697
0.041201
0.048484
0.054287
0.039256
0.050538
0.060046
0.048707
0.069217
0.061428
0.061734
0.064553
0.057758
0.070877
0.065715
0.077213
0.059632
0.071544
0.075355
0.065928
0.067578
0.081178
0.067162
0.073705
0.075306
0.062540
0.072182
0.074832
0.060006
0.073733
0.051291
0.056417
0.052039
0.058599
0.048467
0.056338
0.042086
0.039036
0.041859
0.034991
0.038106
0.032552
0.013666
0.016199
-0.007574
-0.006904
-0.033080
-0.004618
-0.016086
-0.017946
-0.014681
-0.019052
-0.025811
-0.025129
-0.010244
-0.033321
-0.026211
-0.019064
-0.028808
-0.028005
-0.038704
-0.035212
-0.036435
-0.034805
-0.041717
-0.040247
-0.041397
-0.040900
-0.043974
-0.041411
-0.040512
-0.045491
-0.048626
-0.041644
-0.052422
-0.053373
-0.049915
-0.049031
-0.051011
-0.048116
-0.051263
-0.053194
-0.052900
-0.054510
-0.052885
-0.055440
-0.056200
-0.054676
-0.060135
-0.058549
-0.061948
-0.061443
-0.061828
-0.059401
-0.062280
-0.062789
-0.062412
-0.062523
-0.065246
-0.069465
-0.062950
-0.064621
-0.072599
-0.066699
-0.072471
-0.067471
-0.077067
-0.077992
-0.080598
-0.082480
-0.082437
-0.081245
-0.088861
-0.082206
-0.090038
-0.095004
-0.083034
-0.099679
-0.092500
-0.094146
-0.091788
-0.098897
-0.105463
-0.098996
-0.105163
-0.107939
-0.103661
-0.106308
-0.108010
-0.112473
-0.111803
-0.111957
-0.113138
-0.117183
-0.115863
-0.115644
-0.107533
-0.109861
-0.101393
-0.108691
-0.108992
-0.115937
-0.111584
-0.110304
-0.131702
-0.118002
-0.120232
-0.116006
-0.119717
-0.127678
-0.124019
-0.120955
-0.116503
-0.125620
-0.126295
-0.124196
-0.121962
-0.131657
-0.122994
-0.121599
-0.136805
-0.127567
-0.129881
-0.112828
-0.103253
-0.115140
-0.126638
-0.127338
-0.128182
-0.122174
-0.130235
-0.126972
-0.136709
-0.123312
-0.128141
-0.122197
-0.124603
-0.125271
-0.122700
-0.123046
-0.134286
-0.113822
-0.124233
-0.113409
-0.114168
-0.109551
-0.109720
-0.098749
-0.095276
-0.082479
-0.093871
-0.074340
-0.071911
-0.074492
-0.065627
-0.037857
-0.048277
-0.040405
-0.005180
-0.034212
-0.023660
-0.020720
-0.017923
-0.016672
-0.011530
-0.015908
-0.013053
-0.008720
-0.004924
-0.044355
-0.042187
-0.067121
-0.080251
-0.044255
-0.044436
-0.073072
-0.055372
-0.021169
-0.048694
-0.028266
-0.069083
0.009357
-0.042696
-0.053381
-0.035611
-0.038394
-0.028712
-0.021858
0.011113
-0.001954
0.001065
-0.076236
-0.008067
-0.001966
-0.054648
-0.033732
-0.034579
-0.093563
-0.051206
0.005783
-0.009101
-0.022682
0.042984
0.031493
0.057602
0.005557
-0.009104
-0.072143
-0.057206
-0.054167
-0.077257
-0.043030
-0.072227
-0.064570
-0.085125
-0.080425
-0.055603
-0.075304
-0.035516
-0.072953
-0.047294
-0.080754
-0.064485
-0.053217
-0.108877
-0.062135
-0.061395
-0.063693
-0.100654
-0.058878
-0.074382
-0.083692
-0.060629
-0.082014
-0.020755
0.019562
0.021805
0.035287
0.032683
0.022592
0.021719
-0.014616
0.030137
-0.002410
0.024362
-0.000546
0.013500
0.020780
0.002219
0.005709
0.014056
0.018701
0.011062
0.017014
0.012570
0.022821
0.034594
-0.009441
-0.042389
-0.050264
-0.052967
-0.047887
0.040995
0.032625
0.023510
-0.102212
-0.117702
-0.102777
-0.083406
-0.080098
-0.064875
-0.009477
0.006470
0.009167
-0.090289
-0.097320
-0.099436
-0.121502
0.027671
0.009222
0.019401
0.008823
-0.040876
-0.018088
-0.050633
-0.031793
0.000510
-0.006946
-0.063301
-0.071491
-0.135153
-0.106421
-0.048457
-0.031631
0.011700
0.002499
-0.004872
-0.004496
-0.098864
-0.097788
-0.108238
-0.112783
-0.013682
-0.010270
-0.001890
-0.000949
0.044810
0.036656
0.050388
-0.040198
-0.045042
0.038904
0.030919
0.011206
0.043837
-0.059456
-0.051674
-0.045215
-0.041397
-0.077999
-0.046312
-0.027156
-0.016385
-0.025594
-0.024536
-0.034799
-0.021879
-0.046230
-0.099955
-0.103208
-0.015142
0.012820
0.026243
-0.005388
-0.011117
-0.011635
-0.072324
-0.070373
-0.073375
-0.017800
-0.056371
-0.054372
-0.040441
0.022562
0.028633
0.004198
0.019003
0.002424
-0.009346
-0.015370
-0.035320
-0.017891
-0.014493
-0.017563
0.028066
0.049372
0.051390
-0.102338
-0.075063
-0.070211
-0.027962
-0.022058
-0.036582
-0.019516
-0.068160
-0.046537
-0.091094
-0.040935
-0.014546
0.008894
0.004197
0.004439
0.045504
0.039041
-0.053794
-0.047697
-0.042657
0.017262
0.021764
0.009164
-0.024908
-0.025246
-0.038925
-0.029164
0.028856
0.021006
0.042994
0.026155
-0.005092
-0.038477
-0.017042
0.000549
-0.003456
-0.005439
-0.112537
-0.091897
-0.094676
-0.119260
-0.052790
-0.079465
-0.068825
-0.059821
-0.033705
-0.045333
-0.044757
-0.041262
0.013558
-0.008365
-0.005243
-0.004341
-0.000168
-0.127687
-0.109325
-0.127339
-0.009794
-0.008613
-0.002424
-0.122029
-0.103198
-0.104118
-0.011922
-0.028789
-0.035678
-0.043815
-0.109666
-0.106412
-0.090224
-0.101401
-0.096368
-0.103403
-0.103682
0.064155
0.051650
0.055582
0.058157
0.050202
0.037707
0.046950
0.024978
0.034425
0.026450
-0.067062
-0.058123
-0.045848
-0.059689
-0.056007
-0.054475
-0.006550
-0.016581
-0.010843
-0.005574
0.009556
0.028715
-0.001597
-0.027940
-0.011026
-0.025584
-0.038095
-0.091023
-0.101034
-0.099806
-0.084611
0.028883
0.049300
0.025633
0.024185
0.030030
0.026165
0.040245
0.062368
0.056284
0.050562
-0.002334
0.083420
-0.114389
-0.104973
-0.109668
-0.022953
-0.027841
-0.027976
-0.013161
0.036558
0.047074
0.054855
0.067537
0.031526
0.038197
0.014694
-0.060817
-0.061277
-0.116107
-0.095217
-0.085165
-0.079495
-0.096644
-0.086201
-0.096841
-0.000827
-0.013472
0.006362
-0.084933
-0.080760
-0.066262
-0.003234
0.018539
-0.013732
0.040057
0.035298
0.055657
-0.004662
-0.014334
-0.016948
-0.014254
-0.017005
-0.104111
-0.112199
-0.007940
-0.015387
-0.003951
0.010317
0.006925
0.000564
-0.014803
-0.002048
0.010359
-0.022407
-0.019140
-0.103219
-0.113914
-0.095212
-0.018210
-0.019634
0.053450
0.051245
0.008621
0.048238
0.014110
0.044725
0.014254
-0.003381
-0.000305
0.007594
-0.105336
-0.114604
-0.128389
-0.100604
-0.119711
-0.095996
-0.131852
-0.082462
0.026692
0.004321
0.021727
0.025714
-0.126024
-0.112838
-0.106465
-0.101089
0.021933
0.065843
0.061375
0.044423
0.033168
-0.037439
-0.031533
-0.032131
0.021015
-0.025152
-0.031219
-0.042755
0.054661
-0.036805
-0.110638
-0.133189
-0.104635
-0.010718
0.009196
-0.010223
-0.084003
-0.089884
-0.077125
-0.011701
-0.008647
0.004064
0.034910
0.028163
0.003029
0.016425
-0.031441
-0.035592
-0.017294
-0.045816
-0.092982
-0.112990
-0.087970
0.016595
0.025076
0.001143
0.014911
0.013715
0.013576
-0.098146
-0.113861
-0.113855
-0.038274
-0.043388
-0.093471
-0.017989
-0.033917
0.046746
0.009581
-0.010731
0.022785
0.020736
0.023359
-0.094932
-0.126698
-0.098602
-0.123826
-0.131069
-0.098851
-0.018686
0.012846
-0.008673
-0.013465
0.064439
0.027413
0.039543
0.056676
0.005926
0.010422
0.029517
0.024422
0.026593
0.028907
-0.073908
-0.073619
-0.046156
0.008127
0.004649
0.005708
0.003454
-0.020964
0.000731
-0.009945
-0.124176
-0.080804
-0.051692
-0.066095
-0.104711
-0.118284
-0.142130
-0.023629
-0.030977
-0.020723
-0.026483
-0.021326
-0.011895
-0.029056
-0.028656
-0.031631
-0.015193
-0.017933
0.006922
-0.005389
-0.085647
-0.103278
-0.098988
0.063580
0.035516
-0.041252
-0.070411
-0.020648
0.004561
-0.015292
0.006261
-0.017251
-0.018903
-0.013518
0.012875
0.020090
0.021480
-0.033331
-0.039017
-0.032828
-0.000141
-0.003105
-0.062334
-0.057019
-0.057208
0.017063
-0.106634
-0.091080
-0.103955
0.081278
0.029092
0.017791
-0.111146
-0.108306
0.043722
0.040694
-0.092336
-0.085739
-0.094280
-0.046685
-0.026596
-0.004995
-0.022840
-0.003995
-0.004290
-0.016895
-0.091566
-0.088737
-0.117446
-0.122542
-0.084174
0.042276
0.053866
-0.118319
-0.108249
-0.110261
0.012163
0.007985
-0.024172
-0.030906
-0.026135
-0.027573
0.004608
0.009746
0.001749
-0.117658
-0.100108
-0.101542
-0.093965
-0.098804
-0.090933
-0.119202
-0.097912
-0.127069
-0.095858
0.001908
-0.003360
-0.001886
-0.002355
-0.019604
-0.009421
-0.006341
-0.116765
-0.117843
-0.116815
-0.033345
-0.009894
-0.016974
-0.028454
-0.105015
-0.108767
-0.106309
-0.111536
-0.113079
-0.123245
0.046273
0.073899
-0.125554
0.020633
-0.007134
-0.102528
0.004987
-0.062845
0.065041
-0.115772
-0.096632
-0.013175
-0.124246
-0.120980
0.023690
-0.000759
-0.000368
-0.029570
-0.023097
-0.004282
-0.000811
-0.009772
0.040563
0.075628
0.052274
0.048246
0.065547
0.066553
-0.077758
-0.079669
-0.078457
-0.075746
0.018974
0.010138
0.019727
-0.028953
-0.004266
-0.011125
-0.022954
0.047134
0.036318
-0.125176
-0.117000
-0.113563
-0.110909
-0.007361
-0.043197
-0.028581
-0.020974
0.031908
0.051182
0.025741
0.050613
0.032072
-0.043129
-0.036902
-0.037695
0.020864
-0.104160
-0.101550
-0.113788
-0.082282
-0.071827
-0.026882
-0.005360
-0.015204
-0.008752
-0.048345
-0.028883
-0.038721
-0.034469
-0.036654
-0.041131
-0.000017
0.002087
0.032226
0.031783
0.043652
0.012883
-0.018572
-0.031106
-0.031497
-0.039452
-0.025912
-0.121471
-0.013010
0.025381
0.001300
-0.007892
-0.020083
-0.015903
-0.080667
-0.085150
-0.124169
-0.111784
-0.105850
-0.103941
-0.082989
-0.084746
-0.091731
-0.087390
-0.117364
0.083360
0.024318
0.024787
0.024334
0.020524
-0.012368
-0.013799
0.025128
-0.106868
-0.101389
-0.112488
-0.009810
-0.011969
-0.088175
-0.096297
-0.105630
-0.101595
-0.008949
-0.013927
-0.019246
-0.113745
-0.004712
-0.007661
-0.110607
-0.108641
0.027146
0.019680
0.024158
0.014685
0.003947
0.006975
-0.001685
-0.001178
-0.107630
-0.135202
-0.131775
-0.088554
-0.083475
-0.088453
-0.071857
-0.007940
-0.010609
-0.018122
-0.015845
0.036754
0.031250
0.030792
0.007137
0.017945
0.036934
0.002320
0.007249
-0.027177
-0.031996
-0.039655
-0.042407
-0.040568
-0.118416
-0.114491
-0.114859
-0.054025
-0.060040
-0.077726
-0.058814
0.058025
0.025455
-0.023258
-0.020321
-0.111206
-0.078998
-0.072693
-0.065919
-0.119467
-0.102154
-0.116220
-0.078701
-0.079469
-0.026749
-0.044705
-0.023246
-0.042295
-0.018110
0.050155
-0.011215
0.046959
0.045525
-0.016642
-0.007777
-0.004846
0.013176
-0.021042
-0.022407
-0.010352
-0.095901
-0.116707
-0.009171
-0.000869
-0.042653
-0.096467
-0.030037
-0.026916
-0.019025
-0.014116
-0.028700
-0.028274
-0.012938
-0.013276
-0.000197
-0.122770
-0.011749
0.009518
-0.034252
-0.100614
-0.097910
-0.116948
0.023464
0.002278
-0.010479
-0.109312
0.024304
0.030860
-0.021035
-0.145354
-0.114006
-0.131314
-0.007254
-0.033188
-0.005897
-0.000353
-0.046600
-0.065351
-0.043587
-0.032841
-0.025926
-0.052162
-0.004174
-0.006964
0.012254
0.006368
0.007889
0.016524
0.007578
-0.000672
0.018589
-0.027847
-0.034658
-0.044772
-0.030311
-0.051159
-0.035535
-0.033086
-0.028945
-0.025266
-0.007957
-0.113492
-0.095307
-0.106751
-0.088567
-0.081828
-0.082057
-0.080750
-0.011418
-0.004327
-0.042516
-0.029562
-0.026782
0.025348
0.037031
0.039869
0.022066
-0.118649
-0.020228
-0.009193
0.005974
-0.004936
-0.101720
0.029699
0.019620
0.033775
0.000023
-0.120834
0.004140
0.009604
0.002571
0.014345
0.006087
-0.013767
-0.036923
-0.038076
-0.031381
-0.003158
-0.004848
-0.003209
-0.002964
0.065483
0.073681
0.066506
0.065005
-0.106589
-0.118837
-0.097478
-0.070627
-0.063449
0.014978
0.010061
0.024980
0.003723
0.011958
-0.010020
0.029724
-0.047792
-0.089709
0.043005
0.035079
0.061091
-0.115595
-0.084880
-0.118690
-0.097481
-0.104516
-0.040773
0.042844
0.047482
0.035085
0.040982
0.019151
-0.048911
-0.052354
-0.081349
0.006445
0.008811
-0.087510
0.024069
0.025121
-0.063641
-0.056446
-0.062339
-0.103187
-0.107382
-0.012435
-0.083988
-0.083845
-0.072680
-0.087080
0.063684
0.055672
0.071476
0.079785
-0.097304
-0.049619
-0.090864
-0.082772
-0.098717
0.011877
0.029368
0.033173
0.054673
0.051507
0.061729
-0.011899
-0.014823
-0.011652
-0.122427
0.027063
-0.116436
-0.108876
-0.095472
-0.117395
-0.110854
-0.112525
-0.083686
-0.127776
0.003860
-0.014095
-0.108514
0.027003
-0.015920
-0.008535
-0.014057
-0.063682
-0.056732
-0.055920
-0.026760
-0.014519
0.009212
0.008584
0.015926
-0.009622
-0.017311
-0.009783
-0.010067
-0.023844
-0.032893
-0.028883
0.036731
0.025347
0.030196
-0.005447
-0.011033
-0.101281
-0.098691
-0.102485
-0.060289
-0.123246
-0.131016
-0.133197
-0.095291
-0.106348
-0.086777
-0.011854
-0.004857
-0.019387
-0.080960
-0.074544
-0.087336
-0.025366
-0.010953
-0.045988
-0.053324
-0.032201
0.016454
-0.012172
0.059965
0.050609
0.037411
0.045228
-0.037249
-0.037026
-0.006535
-0.001540
-0.009066
0.021374
0.001456
-0.005156
-0.102870
0.003560
-0.015229
-0.021456
-0.000726
-0.084795
-0.076989
-0.086684
-0.080437
-0.149636
-0.098252
-0.115955
-0.119851
-0.001838
0.001622
0.014378
-0.107689
-0.105469
-0.093584
-0.104607
-0.037945
0.032339
0.016872
-0.046511
-0.030183
0.005626
-0.044039
0.050976
0.058583
-0.044840
-0.068374
-0.051114
-0.068679
-0.007523
-0.016255
-0.008929
-0.054933
-0.051347
-0.057948
0.037605
0.109387
0.051447
-0.100954
-0.083104
-0.094995
-0.099380
-0.050341
-0.096808
-0.101605
-0.091852
-0.112405
-0.008812
-0.092349
-0.101069
-0.117423
-0.113522
0.005458
0.015844
0.013445
-0.011154
-0.011901
-0.046330
-0.025213
-0.024043
-0.004760
-0.010072
-0.011969
-0.008379
-0.009499
-0.031338
-0.025368
-0.066871
-0.082369
-0.109391
-0.070618
0.042739
0.050811
0.051095
0.031746
-0.031045
-0.036944
-0.036405
-0.033063
-0.028663
0.007494
0.000151
-0.002121
-0.100490
-0.100651
-0.015502
-0.007676
-0.035407
-0.010131
-0.008715
-0.012895
0.004934
-0.011791
-0.045862
-0.041945
-0.009821
-0.108253
-0.111583
-0.107779
0.001897
0.002852
-0.082675
-0.081428
-0.085096
-0.095080
-0.097505
-0.112881
-0.108769
0.004349
0.003300
-0.008282
-0.089343
-0.096231
-0.116062
0.027351
0.022789
0.027572
0.036113
-0.077077
-0.084887
-0.084424
-0.079221
0.057652
0.053889
0.065270
-0.111725
0.055905
-0.079493
0.005997
0.024316
0.025402
0.022811
0.042171
-0.102961
-0.107755
-0.102484
0.000577
0.002729
0.013483
0.055028
0.066253
0.016053
-0.044319
-0.030162
0.043655
0.046603
0.061649
-0.006857
-0.047206
-0.041527
-0.077030
0.032842
-0.009688
0.042572
0.048496
0.020361
-0.042496
-0.011872
-0.006301
-0.005395
-0.011076
-0.012099
-0.017788
0.040819
-0.108324
-0.107089
-0.096984
-0.067881
-0.008835
-0.103640
-0.095694
-0.102377
-0.092055
-0.106540
0.031604
-0.022686
-0.039638
-0.028572
-0.025359
-0.008025
-0.031162
-0.040496
-0.028318
-0.037375
-0.041706
-0.000131
-0.090000
-0.091335
-0.104873
0.000470
-0.106013
-0.114580
-0.003032
0.037759
0.026777
0.062853
-0.110106
0.060331
0.033925
0.029468
-0.107485
-0.104122
-0.104933
0.009098
0.002332
0.002496
-0.127083
-0.038399
-0.076143
-0.042869
-0.062862
-0.067162
-0.074119
-0.125239
-0.122594
-0.120165
-0.095145
-0.083827
-0.045256
0.025207
-0.037362
-0.099384
0.047342
0.053332
0.032724
-0.064674
-0.062122
-0.013342
-0.016206
-0.024561
-0.018652
-0.020084
0.046734
-0.039079
-0.107888
-0.102214
0.014172
-0.007669
-0.003120
-0.112631
-0.111128
-0.107517
0.014365
0.015788
0.010955
-0.047427
-0.045235
-0.053580
-0.050392
-0.028997
-0.040380
-0.004858
-0.002706
0.021237
0.004006
-0.041198
-0.036694
-0.032220
-0.040136
-0.103904
-0.109206
-0.112109
-0.087919
-0.035216
-0.036987
-0.036029
-0.016682
-0.017963
-0.005674
-0.007418
-0.061434
-0.076557
-0.096385
-0.117375
-0.116023
0.056765
-0.017851
-0.022234
0.030705
0.047707
0.008705
-0.121820
0.065333
-0.050553
-0.057736
-0.056282
-0.049607
-0.088766
-0.102812
-0.090713
-0.082014
-0.042498
-0.011231
-0.049063
-0.107728
-0.018842
-0.026644
-0.004016
-0.045039
-0.043553
-0.101336
-0.045614
0.067600
0.061894
0.071579
-0.029505
-0.047712
-0.012384
-0.096985
-0.005282
-0.004013
0.000646
0.010468
-0.011465
0.008196
0.007429
-0.025929
-0.017698
-0.040740
-0.042933
0.042308
0.050592
0.077549
-0.079082
-0.131013
-0.114343
0.082489
-0.107935
-0.107905
-0.118491
-0.084696
-0.111853
-0.114714
-0.117028
-0.126403
-0.056316
-0.051710
-0.051787
0.035777
-0.046658
-0.002815
-0.009190
-0.034403
-0.049258
-0.039213
-0.066650
-0.062483
-0.071690
-0.017731
-0.036714
-0.102503
-0.126655
-0.118405
-0.092080
-0.097715
-0.097077
0.001925
0.014394
-0.006761
-0.115440
-0.112265
-0.111118
0.017626
0.002844
-0.016105
-0.006157
-0.034685
-0.109985
-0.105546
-0.000950
-0.002124
-0.006357
-0.025567
-0.011408
-0.041551
-0.046318
-0.120561
0.009795
0.024422
-0.106654
0.034715
0.042055
0.026891
0.028351
-0.113497
-0.142223
-0.095289
-0.040819
-0.054849
-0.047211
-0.001457
0.004109
-0.016397
-0.001800
-0.026028
-0.020478
-0.000633
-0.021664
-0.053729
-0.043105
-0.011758
-0.011937
-0.006700
-0.000506
-0.105729
-0.008100
-0.005207
-0.007175
-0.044588
-0.044799
0.041823
0.060709
0.025443
0.041200
0.035978
0.045113
0.029870
-0.014109
0.005528
-0.005401
0.040626
0.000966
-0.012851
-0.056254
-0.058694
-0.045415
-0.055049
-0.030855
-0.033957
-0.035566
0.040515
-0.019167
-0.048506
-0.030699
-0.046182
0.041637
0.027952
0.020698
-0.046449
-0.033173
0.040405
0.073828
0.030146
0.002844
0.015968
0.043048
0.007610
0.014339
0.029448
0.050442
0.052830
-0.018252
-0.007085
0.042415
0.003380
0.086260
0.061278
0.015987
0.067655
0.074570
0.083604
-0.030649
-0.040722
-0.045752
-0.038246
-0.028244
-0.054091
0.027960
0.036135
0.044964
0.023352
0.043812
0.060521
0.072788
0.063881
-0.045870
-0.047002
-0.034362
-0.046206
-0.052128
-0.034809
-0.050654
-0.030517
-0.000095
-0.012149
-0.035578
-0.002847
0.069115
0.059190
0.075322
0.025709
0.010396
-0.000640
-0.000540
-0.012695
-0.107240
-0.107382
-0.017800
-0.036188
-0.004502
-0.017099
-0.114960
-0.109300
-0.106682
-0.119343
-0.051423
-0.058955
-0.057351
-0.050358
-0.033749
-0.028566
-0.012904
-0.005165
-0.048226
-0.039033
-0.038309
-0.030608
0.054934
0.059611
0.060808
0.063209
0.040790
-0.029928
-0.029902
-0.043342
0.076300
0.064497
0.066204
-0.020303
-0.019601
-0.009961
-0.024488
-0.047553
-0.044174
-0.037252
-0.038439
-0.061324
-0.050422
-0.046532
-0.044441
-0.015151
0.000159
0.073508
-0.009612
-0.033572
-0.041938
-0.049770
0.032680
-0.106008
-0.037133
-0.003137
-0.000117
0.002215
-0.000822
-0.004426
0.002017
-0.043382
-0.064409
-0.015018
-0.020079
0.000045
-0.107455
-0.022213
-0.009251
-0.018861
0.004573
0.003185
-0.045976
-0.049021
0.000780
-0.011421
0.002045
-0.011585
-0.101896
-0.070519
-0.094279
-0.098629
-0.025321
-0.010230
-0.005899
-0.021058
-0.014958
-0.017386
-0.040412
-0.047452
-0.013960
-0.012314
-0.015563
-0.012241
-0.025813
-0.097284
-0.097392
-0.082841
-0.103945
-0.092150
-0.090185
-0.110551
-0.021374
-0.050288
-0.051008
-0.049474
-0.037762
0.072941
0.035999
0.046759
0.048972
0.003113
0.008693
-0.000691
-0.007835
-0.005531
-0.006424
-0.015111
-0.018710
-0.041488
-0.059149
-0.058173
0.023430
-0.002589
-0.035520
0.009730
-0.048782
-0.044434
-0.060379
-0.047213
-0.006776
-0.118094
-0.111831
0.027664
0.006363
0.033256
0.026791
-0.008704
-0.045777
-0.045657
-0.012784
-0.151178
-0.006914
-0.000323
-0.010818
0.047372
0.039715
0.041601
-0.096464
-0.056960
-0.075691
-0.092434
-0.052167
-0.044577
0.002843
-0.042882
-0.051391
-0.048109
-0.047153
-0.015262
-0.036788
-0.000967
0.033348
0.040419
0.049806
0.035240
0.041447
-0.004725
0.000978
-0.001059
-0.009428
-0.029932
-0.023560
-0.051682
-0.014737
-0.021739
-0.010812
-0.004769
-0.002538
0.002299
-0.014470
-0.039902
-0.007917
-0.003871
-0.107344
0.038273
0.043706
0.046721
-0.046903
-0.046870
-0.113792
-0.109818
-0.080970
-0.084596
-0.120830
-0.123540
-0.122876
-0.119603
0.042388
0.051226
-0.015919
-0.040549
-0.049158
0.013023
-0.022284
-0.010175
0.037601
0.008043
-0.080856
-0.078750
-0.042963
-0.099836
-0.095180
-0.108645
-0.109940
-0.078785
-0.138013