# vtk DataFile Version 2.0
Test
ASCII
DATASET POLYDATA
POINTS 7607 float
0.000000 0.000000 0.000000
1.000000 0.000000 0.000000
1.000000 0.800000 0.000000
1.000000 1.000000 0.000000
0.000000 1.000000 0.000000
0.000000 0.200000 0.000000
0.300000 0.330000 0.000000
0.700000 0.680000 0.000000
0.012987 0.000000 0.000000
0.025974 0.000000 0.000000
0.038961 0.000000 0.000000
0.051948 0.000000 0.000000
0.064935 0.000000 0.000000
0.077922 0.000000 0.000000
0.090909 0.000000 0.000000
0.103896 0.000000 0.000000
0.116883 0.000000 0.000000
0.129870 0.000000 0.000000
0.142857 0.000000 0.000000
0.155844 0.000000 0.000000
0.168831 0.000000 0.000000
0.181818 0.000000 0.000000
0.194805 0.000000 0.000000
0.207792 0.000000 0.000000
0.220779 0.000000 0.000000
0.233766 0.000000 0.000000
0.246753 0.000000 0.000000
0.259740 0.000000 0.000000
0.272727 0.000000 0.000000
0.285714 0.000000 0.000000
0.298701 0.000000 0.000000
0.311688 0.000000 0.000000
0.324675 0.000000 0.000000
0.337662 0.000000 0.000000
0.350649 0.000000 0.000000
0.363636 0.000000 0.000000
0.376623 0.000000 0.000000
0.389610 0.000000 0.000000
0.402597 0.000000 0.000000
0.415584 0.000000 0.000000
0.428571 0.000000 0.000000
0.441558 0.000000 0.000000
0.454545 0.000000 0.000000
0.467532 0.000000 0.000000
0.480519 0.000000 0.000000
0.493506 0.000000 0.000000
0.506494 0.000000 0.000000
0.519481 0.000000 0.000000
0.532468 0.000000 0.000000
0.545455 0.000000 0.000000
0.558442 0.000000 0.000000
0.571429 0.000000 0.000000
0.584416 0.000000 0.000000
0.597403 0.000000 0.000000
0.610390 0.000000 0.000000
0.623377 0.000000 0.000000
0.636364 0.000000 0.000000
0.649351 0.000000 0.000000
0.662338 0.000000 0.000000
0.675325 0.000000 0.000000
0.688312 0.000000 0.000000
0.701299 0.000000 0.000000
0.714286 0.000000 0.000000
0.727273 0.000000 0.000000
0.740260 0.000000 0.000000
0.753247 0.000000 0.000000
0.766234 0.000000 0.000000
0.779221 0.000000 0.000000
0.792208 0.000000 0.000000
0.805195 0.000000 0.000000
0.818182 0.000000 0.000000
0.831169 0.000000 0.000000
0.844156 0.000000 0.000000
0.857143 0.000000 0.000000
0.870130 0.000000 0.000000
0.883117 0.000000 0.000000
0.896104 0.000000 0.000000
0.909091 0.000000 0.000000
0.922078 0.000000 0.000000
0.935065 0.000000 0.000000
0.948052 0.000000 0.000000
0.961039 0.000000 0.000000
0.974026 0.000000 0.000000
0.987013 0.000000 0.000000
1.000000 0.012903 0.000000
1.000000 0.025806 0.000000
1.000000 0.038710 0.000000
1.000000 0.051613 0.000000
1.000000 0.064516 0.000000
1.000000 0.077419 0.000000
1.000000 0.090323 0.000000
1.000000 0.103226 0.000000
1.000000 0.116129 0.000000
1.000000 0.129032 0.000000
1.000000 0.141935 0.000000
1.000000 0.154839 0.000000
1.000000 0.167742 0.000000
1.000000 0.180645 0.000000
1.000000 0.193548 0.000000
1.000000 0.206452 0.000000
1.000000 0.219355 0.000000
1.000000 0.232258 0.000000
1.000000 0.245161 0.000000
1.000000 0.258065 0.000000
1.000000 0.270968 0.000000
1.000000 0.283871 0.000000
1.000000 0.296774 0.000000
1.000000 0.309677 0.000000
1.000000 0.322581 0.000000
1.000000 0.335484 0.000000
1.000000 0.348387 0.000000
1.000000 0.361290 0.000000
1.000000 0.374194 0.000000
1.000000 0.387097 0.000000
1.000000 0.400000 0.000000
1.000000 0.412903 0.000000
1.000000 0.425806 0.000000
1.000000 0.438710 0.000000
1.000000 0.451613 0.000000
1.000000 0.464516 0.000000
1.000000 0.477419 0.000000
1.000000 0.490323 0.000000
1.000000 0.503226 0.000000
1.000000 0.516129 0.000000
1.000000 0.529032 0.000000
1.000000 0.541935 0.000000
1.000000 0.554839 0.000000
1.000000 0.567742 0.000000
1.000000 0.580645 0.000000
1.000000 0.593548 0.000000
1.000000 0.606452 0.000000
1.000000 0.619355 0.000000
1.000000 0.632258 0.000000
1.000000 0.645161 0.000000
1.000000 0.658065 0.000000
1.000000 0.670968 0.000000
1.000000 0.683871 0.000000
1.000000 0.696774 0.000000
1.000000 0.709677 0.000000
1.000000 0.722581 0.000000
1.000000 0.735484 0.000000
1.000000 0.748387 0.000000
1.000000 0.761290 0.000000
1.000000 0.774194 0.000000
1.000000 0.787097 0.000000
1.000000 0.812500 0.000000
1.000000 0.825000 0.000000
1.000000 0.837500 0.000000
1.000000 0.850000 0.000000
1.000000 0.862500 0.000000
1.000000 0.875000 0.000000
1.000000 0.887500 0.000000
1.000000 0.900000 0.000000
1.000000 0.912500 0.000000
1.000000 0.925000 0.000000
1.000000 0.937500 0.000000
1.000000 0.950000 0.000000
1.000000 0.962500 0.000000
1.000000 0.975000 0.000000
1.000000 0.987500 0.000000
0.987013 1.000000 0.000000
0.974026 1.000000 0.000000
0.961039 1.000000 0.000000
0.948052 1.000000 0.000000
0.935065 1.000000 0.000000
0.922078 1.000000 0.000000
0.909091 1.000000 0.000000
0.896104 1.000000 0.000000
0.883117 1.000000 0.000000
0.870130 1.000000 0.000000
0.857143 1.000000 0.000000
0.844156 1.000000 0.000000
0.831169 1.000000 0.000000
0.818182 1.000000 0.000000
0.805195 1.000000 0.000000
0.792208 1.000000 0.000000
0.779221 1.000000 0.000000
0.766234 1.000000 0.000000
0.753247 1.000000 0.000000
0.740260 1.000000 0.000000
0.727273 1.000000 0.000000
0.714286 1.000000 0.000000
0.701299 1.000000 0.000000
0.688312 1.000000 0.000000
0.675325 1.000000 0.000000
0.662338 1.000000 0.000000
0.649351 1.000000 0.000000
0.636364 1.000000 0.000000
0.623377 1.000000 0.000000
0.610390 1.000000 0.000000
0.597403 1.000000 0.000000
0.584416 1.000000 0.000000
0.571429 1.000000 0.000000
0.558442 1.000000 0.000000
0.545455 1.000000 0.000000
0.532468 1.000000 0.000000
0.519481 1.000000 0.000000
0.506494 1.000000 0.000000
0.493506 1.000000 0.000000
0.480519 1.000000 0.000000
0.467532 1.000000 0.000000
0.454545 1.000000 0.000000
0.441558 1.000000 0.000000
0.428571 1.000000 0.000000
0.415584 1.000000 0.000000
0.402597 1.000000 0.000000
0.389610 1.000000 0.000000
0.376623 1.000000 0.000000
0.363636 1.000000 0.000000
0.350649 1.000000 0.000000
0.337662 1.000000 0.000000
0.324675 1.000000 0.000000
0.311688 1.000000 0.000000
0.298701 1.000000 0.000000
0.285714 1.000000 0.000000
0.272727 1.000000 0.000000
0.259740 1.000000 0.000000
0.246753 1.000000 0.000000
0.233766 1.000000 0.000000
0.220779 1.000000 0.000000
0.207792 1.000000 0.000000
0.194805 1.000000 0.000000
0.181818 1.000000 0.000000
0.168831 1.000000 0.000000
0.155844 1.000000 0.000000
0.142857 1.000000 0.000000
0.129870 1.000000 0.000000
0.116883 1.000000 0.000000
0.103896 1.000000 0.000000
0.090909 1.000000 0.000000
0.077922 1.000000 0.000000
0.064935 1.000000 0.000000
0.051948 1.000000 0.000000
0.038961 1.000000 0.000000
0.025974 1.000000 0.000000
0.012987 1.000000 0.000000
0.000000 0.987097 0.000000
0.000000 0.974194 0.000000
0.000000 0.961290 0.000000
0.000000 0.948387 0.000000
0.000000 0.935484 0.000000
0.000000 0.922581 0.000000
0.000000 0.909677 0.000000
0.000000 0.896774 0.000000
0.000000 0.883871 0.000000
0.000000 0.870968 0.000000
0.000000 0.858065 0.000000
0.000000 0.845161 0.000000
0.000000 0.832258 0.000000
0.000000 0.819355 0.000000
0.000000 0.806452 0.000000
0.000000 0.793548 0.000000
0.000000 0.780645 0.000000
0.000000 0.767742 0.000000
0.000000 0.754839 0.000000
0.000000 0.741935 0.000000
0.000000 0.729032 0.000000
0.000000 0.716129 0.000000
0.000000 0.703226 0.000000
0.000000 0.690323 0.000000
0.000000 0.677419 0.000000
0.000000 0.664516 0.000000
0.000000 0.651613 0.000000
0.000000 0.638710 0.000000
0.000000 0.625806 0.000000
0.000000 0.612903 0.000000
0.000000 0.600000 0.000000
0.000000 0.587097 0.000000
0.000000 0.574194 0.000000
0.000000 0.561290 0.000000
0.000000 0.548387 0.000000
0.000000 0.535484 0.000000
0.000000 0.522581 0.000000
0.000000 0.509677 0.000000
0.000000 0.496774 0.000000
0.000000 0.483871 0.000000
0.000000 0.470968 0.000000
0.000000 0.458065 0.000000
0.000000 0.445161 0.000000
0.000000 0.432258 0.000000
0.000000 0.419355 0.000000
0.000000 0.406452 0.000000
0.000000 0.393548 0.000000
0.000000 0.380645 0.000000
0.000000 0.367742 0.000000
0.000000 0.354839 0.000000
0.000000 0.341935 0.000000
0.000000 0.329032 0.000000
0.000000 0.316129 0.000000
0.000000 0.303226 0.000000
0.000000 0.290323 0.000000
0.000000 0.277419 0.000000
0.000000 0.264516 0.000000
0.000000 0.251613 0.000000
0.000000 0.238710 0.000000
0.000000 0.225806 0.000000
0.000000 0.212903 0.000000
0.000000 0.187500 0.000000
0.000000 0.175000 0.000000
0.000000 0.162500 0.000000
0.000000 0.150000 0.000000
0.000000 0.137500 0.000000
0.000000 0.125000 0.000000
0.000000 0.112500 0.000000
0.000000 0.100000 0.000000
0.000000 0.087500 0.000000
0.000000 0.075000 0.000000
0.000000 0.062500 0.000000
0.000000 0.050000 0.000000
0.000000 0.037500 0.000000
0.000000 0.025000 0.000000
0.000000 0.012500 0.000000
0.309756 0.338537 0.000000
0.319512 0.347073 0.000000
0.329268 0.355610 0.000000
0.339024 0.364146 0.000000
0.348780 0.372683 0.000000
0.358537 0.381220 0.000000
0.368293 0.389756 0.000000
0.378049 0.398293 0.000000
0.387805 0.406829 0.000000
0.397561 0.415366 0.000000
0.407317 0.423902 0.000000
0.417073 0.432439 0.000000
0.426829 0.440976 0.000000
0.436585 0.449512 0.000000
0.446341 0.458049 0.000000
0.456098 0.466585 0.000000
0.465854 0.475122 0.000000
0.475610 0.483659 0.000000
0.485366 0.492195 0.000000
0.495122 0.500732 0.000000
0.504878 0.509268 0.000000
0.514634 0.517805 0.000000
0.524390 0.526341 0.000000
0.534146 0.534878 0.000000
0.543902 0.543415 0.000000
0.553659 0.551951 0.000000
0.563415 0.560488 0.000000
0.573171 0.569024 0.000000
0.582927 0.577561 0.000000
0.592683 0.586098 0.000000
0.602439 0.594634 0.000000
0.612195 0.603171 0.000000
0.621951 0.611707 0.000000
0.631707 0.620244 0.000000
0.641463 0.628780 0.000000
0.651220 0.637317 0.000000
0.660976 0.645854 0.000000
0.670732 0.654390 0.000000
0.680488 0.662927 0.000000
0.690244 0.671463 0.000000
0.011538 0.205000 0.000000
0.023077 0.210000 0.000000
0.034615 0.215000 0.000000
0.046154 0.220000 0.000000
0.057692 0.225000 0.000000
0.069231 0.230000 0.000000
0.080769 0.235000 0.000000
0.092308 0.240000 0.000000
0.103846 0.245000 0.000000
0.115385 0.250000 0.000000
0.126923 0.255000 0.000000
0.138462 0.260000 0.000000
0.150000 0.265000 0.000000
0.161538 0.270000 0.000000
0.173077 0.275000 0.000000
[...]
POINT_DATA 7607
SCALARS UX float 1
LOOKUP_TABLE default
0.006237
0.001774
0.047140
-0.509040
-0.592221
-0.110475
-0.193005
-0.497200
-0.002421
0.000158
0.002124
0.001355
0.010690
0.000370
-0.000222
0.010213
0.000276
0.000921
-0.000306
0.000067
0.000201
-0.000091
-0.000181
0.000184
-0.000109
0.000252
0.000101
-0.001403
-0.000201
-0.000174
-0.000649
-0.008371
0.000228
-0.000207
-0.000170
-0.000411
0.000347
0.000234
0.002168
0.000048
0.000607
-0.001853
0.000108
0.003626
0.000157
-0.000396
-0.002174
-0.000016
-0.000410
0.000172
0.000036
-0.004307
-0.000264
-0.001246
-0.000133
-0.000841
0.000114
-0.000065
0.000075
-0.001156
-0.001716
0.000523
-0.000328
-0.000655
0.003815
0.000985
-0.006994
0.000279
0.002001
0.000684
-0.001219
-0.000493
-0.005264
0.000338
0.004982
0.002974
-0.006106
0.000096
-0.000845
0.002055
0.000099
0.000588
-0.000202
-0.009465
-0.000371
0.015626
0.004251
0.011118
0.009418
0.009021
0.008405
0.016552
0.034285
0.034591
0.025633
0.032702
0.024591
0.050731
0.024006
0.027718
0.046843
0.047414
0.048012
0.059629
0.050220
0.061112
0.068711
0.046895
0.063715
0.076997
0.060875
0.094235
0.081483
0.082628
0.090493
0.080456
0.099320
0.098305
0.120068
0.086150
0.114806
0.124061
0.107320
0.113219
0.148858
0.120617
0.139459
0.144508
0.129594
0.147895
0.157783
0.137208
0.175923
0.130572
0.145744
0.169906
0.160292
0.159293
0.180996
0.141975
0.154762
0.108048
0.160233
0.184336
0.093337
-0.102512
-0.057251
-0.197289
-0.231862
-0.438878
-0.425655
-0.435949
-0.417881
-0.489466
-0.463316
-0.499970
-0.478386
-0.469596
-0.510140
-0.488644
-0.479284
-0.500138
-0.495120
-0.520429
-0.508685
-0.512294
-0.505934
-0.515678
-0.516613
-0.518592
-0.514256
-0.520541
-0.516107
-0.515726
-0.523458
-0.521931
-0.524917
-0.531415
-0.530680
-0.531753
-0.528728
-0.531295
-0.529550
-0.532689
-0.535706
-0.534935
-0.536815
-0.535678
-0.538219
-0.538971
-0.539568
-0.544102
-0.540064
-0.547272
-0.543803
-0.544740
-0.541657
-0.544090
-0.547227
-0.543665
-0.543287
-0.548621
-0.551902
-0.545194
-0.545132
-0.554693
-0.548486
-0.554884
-0.548938
-0.559303
-0.561022
-0.563576
-0.565404
-0.567183
-0.564920
-0.572232
-0.565273
-0.576354
-0.579013
-0.567856
-0.584361
-0.579808
-0.579199
-0.576264
-0.586300
-0.591567
-0.585683
-0.593330
-0.594647
-0.590794
-0.591869
-0.594764
-0.598766
-0.599111
-0.598152
-0.600187
-0.604019
-0.604469
-0.603346
-0.591693
-0.598862
-0.586550
-0.595588
-0.595427
-0.603454
-0.598622
-0.597898
-0.622345
-0.604914
-0.608682
-0.604091
-0.606857
-0.617230
-0.612595
-0.610214
-0.600904
-0.616020
-0.615260
-0.610693
-0.610799
-0.620019
-0.607502
-0.613232
-0.621672
-0.618173
-0.616660
-0.596962
-0.576288
-0.600583
-0.613030
-0.616246
-0.620864
-0.611845
-0.623384
-0.620591
-0.635902
-0.615164
-0.623997
-0.617157
-0.618962
-0.623730
-0.620040
-0.624328
-0.631824
-0.618787
-0.622053
-0.602451
-0.625820
-0.592767
-0.593439
-0.564182
-0.572185
-0.534370
-0.508556
-0.526098
-0.332574
-0.545634
-0.346325
-0.203463
-0.189662
-0.094325
0.015959
-0.050599
-0.052027
-0.036037
-0.014183
-0.022933
-0.014278
-0.020416
-0.016541
-0.007399
-0.007197
0.005232
-0.139908
-0.249103
-0.566951
-0.758100
-0.519939
-0.481829
-0.302817
-0.330721
-0.527092
-0.349431
-0.306278
0.081263
-0.260908
-0.172108
-0.025162
0.015637
-0.133178
-0.342369
-0.366479
-0.013724
-0.498008
-0.705322
-0.380522
-0.362369
-0.329837
-0.161788
-0.257312
-0.122215
-0.123026
-0.023662
0.241924
-0.103135
-0.171188
0.288940
0.163511
-0.169530
-0.082120
-0.136867
-0.252602
-0.341726
-0.517786
-0.201598
-0.434689
-0.231705
-0.516125
-0.560881
-0.305075
-0.485184
-0.146047
-0.488839
-0.232195
-0.326939
-0.448908
-0.331650
-0.560299
-0.502800
-0.089782
-0.124371
-0.514223
0.018494
-0.338358
-0.306920
-0.214660
-0.251898
0.051747
0.017800
-0.120420
0.272029
-0.280518
0.244053
-0.089591
-0.132417
-0.025236
-0.239698
0.010302
-0.169628
-0.049668
-0.037294
-0.200341
0.087771
-0.033395
-0.087679
0.118267
-0.025136
-0.083993
0.063988
0.046771
-0.132677
-0.517979
-0.522368
-0.530094
-0.520160
0.061435
0.035668
0.044167
-0.451712
-0.619907
-0.287850
-0.540176
-0.469157
-0.324551
-0.012628
0.006147
0.012097
-0.576716
-0.581131
-0.585843
-0.610864
0.033692
0.009289
0.021255
0.006414
-0.083264
0.020676
-0.173717
-0.105098
0.001412
-0.004891
-0.534958
-0.463439
-0.668260
-0.593011
-0.192442
-0.023848
0.013591
0.002634
-0.007097
-0.005958
-0.585462
-0.583050
-0.594591
-0.599295
-0.311979
-0.469436
-0.139681
-0.226721
0.144043
0.111138
0.092518
-0.510711
-0.531946
0.090709
0.037107
0.011014
0.054886
-0.543024
-0.536670
-0.525135
0.127204
-0.786534
-0.526712
-0.501985
-0.453799
-0.475342
-0.030830
-0.065033
-0.030228
-0.523888
-0.585204
-0.588181
-0.017673
0.016139
0.046666
-0.003374
-0.013212
-0.015720
-0.554595
-0.553087
-0.554822
-0.020038
-0.542063
-0.546451
-0.521403
0.025144
0.034626
0.002565
0.022642
0.004241
-0.010173
-0.017169
-0.096196
-0.020859
-0.030421
-0.018279
0.095846
0.143970
0.163607
-0.568075
-0.284511
-0.399695
-0.427909
-0.271962
-0.575698
-0.535215
-0.550178
-0.518378
-0.598964
-0.480516
-0.019163
0.008339
0.006814
0.006088
0.058712
0.047026
-0.539936
-0.520204
-0.519324
0.019466
0.023142
0.008773
-0.501055
-0.468385
-0.514645
-0.505189
0.035323
0.105773
0.140134
0.106571
-0.005638
-0.491970
-0.025496
-0.003964
-0.003824
-0.003751
-0.608986
-0.548509
-0.563392
-0.582154
-0.530438
-0.566050
-0.551361
-0.541167
-0.505310
-0.517367
-0.524119
-0.518578
-0.292011
-0.008127
-0.005696
-0.002538
-0.000187
-0.622695
-0.595412
-0.622677
-0.009906
-0.008206
-0.002291
-0.612153
-0.588057
-0.590033
-0.013531
-0.480267
-0.500447
-0.538547
-0.592675
-0.585381
-0.553739
-0.585749
-0.580927
-0.591778
-0.584445
0.110328
0.086166
0.103885
0.099370
0.103059
0.063057
0.091777
0.034991
0.043350
0.031090
-0.547887
-0.539485
-0.524287
-0.539852
-0.536231
-0.532798
-0.006694
-0.019735
-0.011522
-0.005329
0.010979
0.034949
-0.005862
-0.059274
-0.007839
-0.076237
-0.065379
-0.566096
-0.573054
-0.570648
-0.521130
0.045631
0.064909
0.046349
0.033672
0.039409
0.034685
0.053189
0.101638
0.103976
0.091010
0.091567
0.223682
-0.597853
-0.585675
-0.586923
-0.461732
-0.491204
-0.455917
-0.395616
0.100102
0.136570
0.152086
0.088878
0.058271
0.065213
0.026448
-0.543225
-0.540664
-0.590919
-0.549022
-0.562086
-0.559446
-0.582417
-0.569796
-0.581066
0.000555
-0.015741
0.007909
-0.536482
-0.563227
-0.549740
-0.007989
0.021050
-0.018029
0.109591
0.114248
0.127950
-0.005526
-0.015152
-0.015928
-0.018583
-0.032458
-0.590774
-0.599349
-0.009235
-0.021006
-0.000161
0.010542
0.008233
-0.002465
-0.018713
-0.003947
0.010090
-0.495873
-0.450615
-0.589778
-0.601163
-0.577018
-0.037334
-0.032429
0.132032
0.122478
0.007841
0.054667
0.040823
0.062643
0.016890
-0.005760
-0.003464
0.008312
-0.594913
-0.602108
-0.621629
-0.576181
-0.621852
-0.567522
-0.667452
-0.553640
0.025553
-0.065050
0.048401
0.114869
-0.625764
-0.600612
-0.588747
-0.569499
0.104354
0.159209
0.077921
0.080768
0.046329
-0.513748
-0.507072
-0.498182
0.051911
-0.493762
-0.507529
-0.517309
0.081545
-0.509891
-0.587436
-0.623612
-0.591619
-0.011910
0.016747
-0.014792
-0.560181
-0.565017
-0.551341
-0.019077
-0.008554
0.001212
-0.044708
0.031755
0.011052
0.099842
-0.510937
-0.504946
-0.476780
-0.524006
-0.563507
-0.617639
-0.565691
0.020396
0.030566
0.000472
0.016542
0.011784
0.013534
-0.582156
-0.602565
-0.600868
-0.275470
-0.448367
-0.666946
-0.023270
-0.043707
0.123042
0.061448
-0.015079
0.026616
0.023093
0.026437
-0.574110
-0.631180
-0.577930
-0.621408
-0.628866
-0.586178
-0.022247
0.015683
-0.010148
-0.016221
0.131070
0.116832
0.044611
-0.164517
0.062117
0.047565
0.036989
0.031508
0.036818
0.034067
-0.558856
-0.567227
-0.514332
0.010293
0.006627
0.006582
0.005082
-0.026792
0.006740
-0.010515
-0.631882
-0.519737
-0.520176
-0.548684
-0.590835
-0.609705
-0.652025
-0.479691
-0.498027
-0.432109
-0.053471
-0.036821
-0.005647
-0.478050
-0.491224
-0.502880
-0.475214
-0.478183
0.006790
-0.007452
-0.571615
-0.586182
-0.584247
0.128505
0.091586
-0.516210
-0.559897
-0.025680
0.001578
-0.018270
0.007712
-0.024976
-0.031990
-0.015242
0.016176
0.025161
0.027642
-0.504426
-0.510843
-0.049019
0.001316
-0.003717
-0.543935
-0.538925
-0.541397
0.020909
-0.585464
-0.577481
-0.598463
0.181984
0.033935
0.022225
-0.600685
-0.593097
0.101615
0.129978
-0.576539
-0.568008
-0.578929
-0.542810
-0.495991
-0.007243
-0.025357
-0.005609
-0.003204
-0.023534
-0.576856
-0.573974
-0.603014
-0.608846
-0.567507
0.102588
0.115299
-0.606596
-0.596697
-0.595551
0.014201
0.009506
-0.470268
-0.496446
-0.488700
-0.491585
0.004940
0.011654
0.002021
-0.605611
-0.585025
-0.586643
-0.579894
-0.583183
-0.573944
-0.605029
-0.579578
-0.615367
-0.563660
0.002520
-0.004470
-0.003509
-0.003646
-0.019014
-0.012599
-0.006286
-0.606057
-0.604926
-0.603718
-0.493237
-0.445986
-0.441120
-0.478992
-0.585223
-0.614182
-0.586744
-0.597429
-0.600583
-0.613058
0.138925
0.170928
-0.619024
0.025478
-0.012079
-0.587747
-0.001207
-0.361806
0.209781
-0.603754
-0.581734
-0.021253
-0.614169
-0.608944
0.029247
-0.001774
-0.002433
-0.041247
-0.041200
-0.005395
0.000035
-0.013361
0.084648
0.146666
0.100673
0.095708
0.124531
0.135434
-0.560907
-0.563040
-0.559092
-0.556196
0.020600
0.009854
0.022706
-0.040592
-0.006197
-0.470337
-0.485711
0.075649
0.048667
-0.614301
-0.604797
-0.601011
-0.597103
0.000303
-0.067647
-0.072334
-0.052497
0.087003
0.191855
0.103127
0.170282
0.201511
-0.513894
-0.521626
-0.515040
0.022412
-0.581489
-0.578210
-0.599375
-0.442354
-0.494464
-0.037789
-0.017637
-0.013842
-0.022596
-0.538515
-0.498075
-0.512609
-0.506567
-0.517221
-0.509230
-0.003084
-0.001106
0.113880
0.046447
0.059098
0.013016
-0.476818
-0.523030
-0.504014
-0.532846
-0.490954
-0.610144
-0.464899
0.038182
0.001879
-0.009717
-0.023257
-0.029974
-0.444648
-0.523167
-0.625808
-0.603296
-0.591490
-0.542950
-0.473208
-0.560445
-0.567447
-0.554355
-0.610739
0.136558
-0.041047
0.030737
0.031980
0.023198
-0.031509
-0.027736
0.024304
-0.587226
-0.585741
-0.601605
-0.015511
-0.017067
-0.561223
-0.580199
-0.591658
-0.587512
-0.012813
-0.027660
-0.036767
-0.609233
-0.006315
-0.007744
-0.583546
-0.598268
0.029651
0.028692
0.027828
0.093387
0.003281
0.009097
-0.001524
-0.004339
-0.586919
-0.627578
-0.622053
-0.565604
-0.559680
-0.567882
-0.547000
-0.008877
-0.011587
-0.034582
-0.019957
0.106995
0.114315
0.143213
0.008145
0.075395
0.096655
0.001958
-0.263065
-0.510151
-0.502783
-0.523694
-0.538133
-0.508563
-0.606593
-0.602137
-0.603038
-0.535283
-0.546401
-0.557711
-0.536191
0.119078
0.088845
-0.030002
-0.024884
-0.597842
-0.440571
-0.446235
-0.310029
-0.609640
-0.585332
-0.601974
-0.454884
-0.563935
-0.490722
-0.549892
-0.037455
-0.524690
-0.021308
0.175830
-0.013480
0.217883
0.174250
-0.017515
-0.012114
-0.004646
0.013551
-0.485203
-0.486693
-0.010557
-0.574698
-0.605834
-0.011653
-0.002287
-0.512294
-0.581234
-0.024201
-0.047858
-0.036121
-0.023699
-0.493006
-0.492858
-0.481890
-0.023370
0.002771
-0.612634
-0.018160
0.011908
-0.085340
-0.586281
-0.582435
-0.616920
0.027174
0.000618
-0.013950
-0.591170
0.029899
0.035374
-0.036292
-0.645257
-0.605235
-0.632026
-0.466356
-0.055734
-0.004343
-0.001455
-0.531242
-0.550866
-0.527967
-0.510017
-0.491824
-0.536549
0.001963
-0.011075
0.010987
0.006767
0.028443
-0.049872
0.006539
-0.195589
-0.107622
-0.483878
-0.500347
-0.539342
-0.505770
-0.348130
-0.506172
-0.504018
-0.497031
-0.048564
-0.014531
-0.600605
-0.579389
-0.593494
-0.537535
-0.529319
-0.517556
-0.533276
-0.019000
-0.015218
-0.513291
-0.502003
-0.505804
0.155996
0.081208
0.180405
-0.003128
-0.603236
-0.484084
-0.014314
0.004347
-0.007261
-0.587420
0.043418
0.029971
0.042545
0.000230
-0.610855
0.003808
0.010324
0.001330
0.019115
0.005627
-0.465274
-0.517176
-0.517879
-0.503153
-0.004102
-0.005944
0.001294
-0.004665
0.134046
0.139245
0.130333
0.124957
-0.592459
-0.607420
-0.581841
-0.554031
-0.550191
0.016875
0.015193
0.032496
0.006481
0.014837
-0.014446
0.039096
-0.520045
-0.430633
0.058990
0.047617
0.079912
-0.543881
-0.601944
-0.602265
-0.578125
-0.584398
-0.516591
0.134639
0.136992
0.170080
0.094506
-0.208065
-0.507902
-0.514206
-0.569707
0.004757
0.010155
-0.578318
0.029348
0.029755
-0.545171
-0.535458
-0.546037
-0.588612
-0.593506
-0.022549
-0.570970
-0.565637
-0.553821
-0.569655
0.125409
0.116988
0.145368
0.168103
-0.563519
-0.528097
-0.576593
-0.528018
-0.548519
0.016724
0.036157
0.040496
0.074673
0.070432
0.083339
-0.020998
-0.030954
-0.017255
-0.613289
0.034133
-0.598908
-0.596399
-0.579520
-0.605625
-0.589399
-0.595951
-0.554042
-0.592902
0.005441
-0.017233
-0.596746
0.136616
-0.020227
-0.008221
-0.013190
-0.549970
-0.540962
-0.537190
-0.024913
-0.012298
0.009297
0.008564
0.017658
-0.455774
-0.020498
-0.009347
-0.006465
-0.490243
-0.500359
-0.498237
0.136848
0.160917
0.074248
-0.005019
-0.012044
-0.586428
-0.584800
-0.588777
-0.336937
-0.610863
-0.624530
-0.631927
-0.580094
-0.591940
-0.569567
-0.180725
-0.329541
-0.323347
-0.488538
-0.529161
-0.536476
-0.046084
-0.008974
-0.156011
-0.545984
-0.503889
0.023483
-0.015412
0.176321
0.173292
0.173636
0.190442
-0.515527
-0.511137
-0.010299
-0.006174
-0.009480
0.025077
-0.002156
-0.008521
-0.588791
0.006439
-0.021000
-0.029361
-0.002278
-0.570686
-0.557344
-0.545161
-0.524208
-0.645269
-0.584433
-0.603188
-0.607870
-0.001846
0.002695
0.017476
-0.595944
-0.612214
-0.553649
-0.548968
-0.530935
0.188083
0.074875
-0.522726
-0.492407
-0.234279
-0.520992
0.150404
0.196938
-0.526152
-0.548774
-0.242170
-0.271838
-0.009937
-0.023630
-0.012433
-0.537982
-0.533738
-0.542971
0.068970
0.196520
0.093630
-0.584728
-0.517678
-0.590120
-0.494248
-0.501913
-0.561102
-0.572452
-0.566150
-0.581488
-0.011542
-0.576125
-0.586748
-0.605408
-0.600242
0.007051
0.018492
0.017075
-0.024958
-0.005644
-0.525385
-0.494072
-0.480452
-0.003546
-0.012320
-0.011550
-0.012032
-0.012547
-0.500127
-0.494303
-0.507320
-0.510959
-0.637537
-0.488159
0.150393
0.170326
0.144442
0.100624
-0.503658
-0.508669
-0.065824
-0.084279
-0.049216
0.010315
-0.001091
0.004729
-0.563424
-0.580135
-0.013246
-0.008962
-0.509596
-0.459528
-0.009853
-0.014138
0.005054
-0.011663
-0.536625
-0.517264
-0.008813
-0.595340
-0.598578
-0.549263
0.002533
0.004924
-0.559101
-0.559428
-0.559604
-0.577708
-0.577138
-0.600004
-0.595771
0.005539
0.003635
-0.008539
-0.572881
-0.579681
-0.605078
0.098899
0.052704
0.133137
0.142536
-0.551801
-0.532654
-0.519189
-0.447399
0.080789
0.074924
0.091410
-0.599632
0.077308
-0.561499
0.007187
-0.029665
-0.024405
0.030150
0.112613
-0.588433
-0.597245
-0.588621
0.000012
0.004967
0.014378
0.171083
0.139371
0.065143
-0.186500
-0.060835
0.156620
0.169776
0.167326
-0.003455
-0.117945
-0.072042
-0.150191
0.028470
-0.009983
0.079943
0.051058
0.016305
-0.520447
-0.011579
-0.005637
-0.005546
-0.014197
-0.015828
-0.469567
0.060018
-0.605603
-0.571806
-0.610489
-0.469365
-0.020436
-0.583109
-0.570765
-0.589903
-0.554642
-0.579896
0.105071
-0.484796
-0.514558
-0.491467
-0.486461
-0.010302
-0.499200
-0.519942
-0.499625
-0.510602
-0.517804
0.001007
-0.573658
-0.575978
-0.590733
0.001626
-0.592673
-0.602294
-0.004217
0.079868
0.051728
0.057090
-0.595637
0.198306
0.127249
0.037028
-0.593301
-0.590796
-0.591485
0.010859
0.003102
0.003007
-0.628630
-0.516517
-0.481656
-0.529079
-0.544747
-0.548366
-0.554731
-0.624848
-0.618353
-0.612930
-0.587963
-0.516431
-0.533804
0.093430
-0.516523
-0.539223
0.066169
0.074989
0.047896
-0.544116
-0.540327
-0.015842
-0.023907
-0.044882
-0.029842
-0.019189
0.070206
-0.508748
-0.594829
-0.588175
0.017642
-0.011197
-0.004195
-0.600199
-0.596667
-0.593180
0.017335
0.018320
0.013437
-0.526666
-0.522004
-0.534400
-0.532712
-0.500147
-0.513438
-0.012082
-0.001622
0.025860
0.003350
-0.520151
-0.507253
-0.500186
-0.516191
-0.590087
-0.564301
-0.607754
-0.557187
-0.501022
-0.513565
-0.506108
-0.031892
-0.031812
-0.011795
-0.009712
-0.530999
-0.555028
-0.576232
-0.613321
-0.606183
0.163700
-0.024849
-0.035080
0.141824
0.114521
0.008383
-0.615551
0.129275
-0.535215
-0.538937
-0.534308
-0.534845
-0.568044
-0.592523
-0.569822
-0.558899
-0.075021
-0.008528
-0.084233
-0.594348
-0.015941
-0.030163
-0.004165
-0.105411
-0.516501
-0.721114
-0.519719
0.137919
0.138082
0.144688
-0.500409
-0.533845
-0.014410
-0.582951
-0.006094
-0.005338
0.001038
0.011630
-0.037838
0.009841
0.005762
-0.032959
-0.027910
-0.517904
-0.524169
0.060680
0.072068
0.121626
-0.528167
-0.653976
-0.614844
0.129841
-0.594207
-0.594377
-0.611369
-0.409948
-0.569299
-0.611165
-0.603825
-0.607753
-0.538807
-0.533116
-0.535082
0.021040
-0.227391
-0.003919
-0.011785
-0.506017
-0.528693
-0.514663
-0.543571
-0.535136
-0.552549
-0.473495
-0.536759
-0.580671
-0.608090
-0.606227
-0.560829
-0.582578
-0.566960
-0.000394
0.015728
-0.012524
-0.602329
-0.599427
-0.597789
-0.259629
-0.173520
-0.014360
-0.013436
-0.512433
-0.591081
-0.586397
-0.001413
-0.002835
-0.009194
-0.035149
-0.006103
-0.520013
-0.528958
-0.599286
0.009605
0.029980
-0.584886
0.042124
0.051106
0.030973
0.033214
-0.597132
-0.645830
-0.562410
-0.516225
-0.529934
-0.532067
-0.003012
0.003625
-0.406465
-0.270905
-0.588896
-0.442219
-0.161166
-0.318251
-0.543866
-0.538810
-0.012948
-0.017596
-0.011183
-0.002445
-0.582915
-0.009984
-0.004051
-0.008950
-0.529388
-0.521643
0.078882
0.141926
0.069976
0.079411
0.108141
0.088504
0.041089
-0.016895
0.007423
-0.007416
0.048535
-0.004990
-0.017133
-0.536764
-0.546401
-0.526918
-0.540113
-0.070701
-0.120993
-0.070489
0.141251
-0.023551
-0.116065
-0.107529
-0.231914
0.051081
0.032737
0.022598
-0.535238
-0.518009
0.100179
0.082240
-0.036956
0.018952
0.076457
0.025525
0.054060
0.029752
0.033971
0.071142
0.070548
-0.027461
-0.007179
0.094777
0.028382
0.156874
0.117254
0.035995
0.127259
0.142216
0.170500
-0.057233
-0.515681
-0.530473
-0.508466
-0.507982
-0.534000
0.032839
0.058413
0.061184
0.036735
0.061434
0.109734
0.143216
0.122194
-0.531151
-0.535302
-0.501349
-0.529600
-0.554506
-0.514140
-0.529905
-0.503934
-0.004429
-0.012924
-0.510932
-0.004081
0.131745
0.109541
0.131687
0.016182
-0.027153
-0.217756
0.002872
-0.014412
-0.593848
-0.592665
-0.023051
-0.058990
0.006039
-0.017737
-0.603230
-0.596164
-0.593450
-0.607538
-0.538134
-0.545762
-0.537541
-0.530221
-0.523745
-0.494948
-0.016244
-0.006556
-0.523026
-0.510166
-0.514782
-0.511912
0.108945
0.123058
0.121259
0.121715
0.047978
-0.501037
-0.502461
-0.509600
0.147725
0.127588
0.128146
-0.029950
-0.026255
-0.010980
-0.088400
-0.112177
-0.140687
0.000090
-0.131742
-0.125629
-0.211302
-0.528611
-0.522037
-0.020826
0.002504
0.148853
-0.009034
-0.508684
-0.517673
-0.537727
0.038026
-0.592200
-0.506307
-0.004273
0.000793
0.002462
-0.000256
-0.005893
0.001530
-0.522150
-0.560607
-0.018264
-0.031681
-0.001482
-0.593296
-0.016409
-0.010071
-0.020481
0.006085
0.000024
-0.523596
-0.526146
0.003950
-0.014941
0.002691
-0.011299
-0.586953
-0.547261
-0.574498
-0.580325
-0.030391
-0.008426
-0.012785
-0.031883
-0.002471
-0.021874
-0.516895
-0.534109
-0.020825
-0.014649
-0.027007
0.000693
-0.030104
-0.576210
-0.577792
-0.558964
-0.585732
-0.568348
-0.564083
-0.591095
-0.033766
-0.536540
-0.533746
-0.535356
-0.516518
0.102589
0.050130
0.089529
0.098282
0.002697
0.010991
-0.003489
-0.012401
-0.006079
0.000447
-0.017911
-0.483362
-0.332457
-0.342679
-0.176725
-0.246364
0.066724
0.048411
0.010990
-0.538612
-0.538497
-0.542074
-0.530023
-0.007948
-0.606030
-0.595740
0.063418
0.012349
0.076930
0.044294
-0.012523
-0.527094
-0.527430
-0.015215
-0.210624
-0.007864
0.000823
-0.012995
0.060211
0.047000
0.050251
-0.456260
-0.558219
-0.580509
-0.579462
-0.535010
-0.523686
0.003077
-0.520497
-0.531761
-0.529728
-0.529002
-0.010291
-0.065508
-0.001359
0.043992
0.052450
0.062774
0.050035
0.054246
-0.005704
0.001352
-0.000576
-0.010807
-0.055994
-0.048574
-0.535797
-0.020000
-0.037245
-0.010366
-0.006702
-0.002939
0.003867
-0.016613
-0.512275
-0.011395
-0.004902
-0.593210
0.062034
0.060449
0.071068
-0.525106
-0.522821
-0.600428
-0.597379
-0.564051
-0.566958
-0.613531
-0.619671
-0.614124
-0.612337
0.080065
0.103619
-0.016858
-0.521333
-0.532106
0.040520
-0.037559
-0.018928
0.052689
-0.472435
-0.554751
-0.559493
-0.521007
-0.581281
-0.575776
-0.589510
-0.580932