# vtk DataFile Version 2.0
Test
ASCII
DATASET POLYDATA
POINTS 7607 float
0.000000 0.000000 0.000000
1.000000 0.000000 0.000000
1.000000 0.800000 0.000000
1.000000 1.000000 0.000000
0.000000 1.000000 0.000000
0.000000 0.200000 0.000000
0.300000 0.330000 0.000000
0.700000 0.680000 0.000000
0.012987 0.000000 0.000000
0.025974 0.000000 0.000000
0.038961 0.000000 0.000000
0.051948 0.000000 0.000000
0.064935 0.000000 0.000000
0.077922 0.000000 0.000000
0.090909 0.000000 0.000000
0.103896 0.000000 0.000000
0.116883 0.000000 0.000000
0.129870 0.000000 0.000000
0.142857 0.000000 0.000000
0.155844 0.000000 0.000000
0.168831 0.000000 0.000000
0.181818 0.000000 0.000000
0.194805 0.000000 0.000000
0.207792 0.000000 0.000000
0.220779 0.000000 0.000000
0.233766 0.000000 0.000000
0.246753 0.000000 0.000000
0.259740 0.000000 0.000000
0.272727 0.000000 0.000000
0.285714 0.000000 0.000000
0.298701 0.000000 0.000000
0.311688 0.000000 0.000000
0.324675 0.000000 0.000000
0.337662 0.000000 0.000000
0.350649 0.000000 0.000000
0.363636 0.000000 0.000000
0.376623 0.000000 0.000000
0.389610 0.000000 0.000000
0.402597 0.000000 0.000000
0.415584 0.000000 0.000000
0.428571 0.000000 0.000000
0.441558 0.000000 0.000000
0.454545 0.000000 0.000000
0.467532 0.000000 0.000000
0.480519 0.000000 0.000000
0.493506 0.000000 0.000000
0.506494 0.000000 0.000000
0.519481 0.000000 0.000000
0.532468 0.000000 0.000000
0.545455 0.000000 0.000000
0.558442 0.000000 0.000000
0.571429 0.000000 0.000000
0.584416 0.000000 0.000000
0.597403 0.000000 0.000000
0.610390 0.000000 0.000000
0.623377 0.000000 0.000000
0.636364 0.000000 0.000000
0.649351 0.000000 0.000000
0.662338 0.000000 0.000000
0.675325 0.000000 0.000000
0.688312 0.000000 0.000000
0.701299 0.000000 0.000000
0.714286 0.000000 0.000000
0.727273 0.000000 0.000000
0.740260 0.000000 0.000000
0.753247 0.000000 0.000000
0.766234 0.000000 0.000000
0.779221 0.000000 0.000000
0.792208 0.000000 0.000000
0.805195 0.000000 0.000000
0.818182 0.000000 0.000000
0.831169 0.000000 0.000000
0.844156 0.000000 0.000000
0.857143 0.000000 0.000000
0.870130 0.000000 0.000000
0.883117 0.000000 0.000000
0.896104 0.000000 0.000000
0.909091 0.000000 0.000000
0.922078 0.000000 0.000000
0.935065 0.000000 0.000000
0.948052 0.000000 0.000000
0.961039 0.000000 0.000000
0.974026 0.000000 0.000000
0.987013 0.000000 0.000000
1.000000 0.012903 0.000000
1.000000 0.025806 0.000000
1.000000 0.038710 0.000000
1.000000 0.051613 0.000000
1.000000 0.064516 0.000000
1.000000 0.077419 0.000000
1.000000 0.090323 0.000000
1.000000 0.103226 0.000000
1.000000 0.116129 0.000000
1.000000 0.129032 0.000000
1.000000 0.141935 0.000000
1.000000 0.154839 0.000000
1.000000 0.167742 0.000000
1.000000 0.180645 0.000000
1.000000 0.193548 0.000000
1.000000 0.206452 0.000000
1.000000 0.219355 0.000000
1.000000 0.232258 0.000000
1.000000 0.245161 0.000000
1.000000 0.258065 0.000000
1.000000 0.270968 0.000000
1.000000 0.283871 0.000000
1.000000 0.296774 0.000000
1.000000 0.309677 0.000000
1.000000 0.322581 0.000000
1.000000 0.335484 0.000000
1.000000 0.348387 0.000000
1.000000 0.361290 0.000000
1.000000 0.374194 0.000000
1.000000 0.387097 0.000000
1.000000 0.400000 0.000000
1.000000 0.412903 0.000000
1.000000 0.425806 0.000000
1.000000 0.438710 0.000000
1.000000 0.451613 0.000000
1.000000 0.464516 0.000000
1.000000 0.477419 0.000000
1.000000 0.490323 0.000000
1.000000 0.503226 0.000000
1.000000 0.516129 0.000000
1.000000 0.529032 0.000000
1.000000 0.541935 0.000000
1.000000 0.554839 0.000000
1.000000 0.567742 0.000000
1.000000 0.580645 0.000000
1.000000 0.593548 0.000000
1.000000 0.606452 0.000000
1.000000 0.619355 0.000000
1.000000 0.632258 0.000000
1.000000 0.645161 0.000000
1.000000 0.658065 0.000000
1.000000 0.670968 0.000000
1.000000 0.683871 0.000000
1.000000 0.696774 0.000000
1.000000 0.709677 0.000000
1.000000 0.722581 0.000000
1.000000 0.735484 0.000000
1.000000 0.748387 0.000000
1.000000 0.761290 0.000000
1.000000 0.774194 0.000000
1.000000 0.787097 0.000000
1.000000 0.812500 0.000000
1.000000 0.825000 0.000000
1.000000 0.837500 0.000000
1.000000 0.850000 0.000000
1.000000 0.862500 0.000000
1.000000 0.875000 0.000000
1.000000 0.887500 0.000000
1.000000 0.900000 0.000000
1.000000 0.912500 0.000000
1.000000 0.925000 0.000000
1.000000 0.937500 0.000000
1.000000 0.950000 0.000000
1.000000 0.962500 0.000000
1.000000 0.975000 0.000000
1.000000 0.987500 0.000000
0.987013 1.000000 0.000000
0.974026 1.000000 0.000000
0.961039 1.000000 0.000000
0.948052 1.000000 0.000000
0.935065 1.000000 0.000000
0.922078 1.000000 0.000000
0.909091 1.000000 0.000000
0.896104 1.000000 0.000000
0.883117 1.000000 0.000000
0.870130 1.000000 0.000000
0.857143 1.000000 0.000000
0.844156 1.000000 0.000000
0.831169 1.000000 0.000000
0.818182 1.000000 0.000000
0.805195 1.000000 0.000000
0.792208 1.000000 0.000000
0.779221 1.000000 0.000000
0.766234 1.000000 0.000000
0.753247 1.000000 0.000000
0.740260 1.000000 0.000000
0.727273 1.000000 0.000000
0.714286 1.000000 0.000000
0.701299 1.000000 0.000000
0.688312 1.000000 0.000000
0.675325 1.000000 0.000000
0.662338 1.000000 0.000000
0.649351 1.000000 0.000000
0.636364 1.000000 0.000000
0.623377 1.000000 0.000000
0.610390 1.000000 0.000000
0.597403 1.000000 0.000000
0.584416 1.000000 0.000000
0.571429 1.000000 0.000000
0.558442 1.000000 0.000000
0.545455 1.000000 0.000000
0.532468 1.000000 0.000000
0.519481 1.000000 0.000000
0.506494 1.000000 0.000000
0.493506 1.000000 0.000000
0.480519 1.000000 0.000000
0.467532 1.000000 0.000000
0.454545 1.000000 0.000000
0.441558 1.000000 0.000000
0.428571 1.000000 0.000000
0.415584 1.000000 0.000000
0.402597 1.000000 0.000000
0.389610 1.000000 0.000000
0.376623 1.000000 0.000000
0.363636 1.000000 0.000000
0.350649 1.000000 0.000000
0.337662 1.000000 0.000000
0.324675 1.000000 0.000000
0.311688 1.000000 0.000000
0.298701 1.000000 0.000000
0.285714 1.000000 0.000000
0.272727 1.000000 0.000000
0.259740 1.000000 0.000000
0.246753 1.000000 0.000000
0.233766 1.000000 0.000000
0.220779 1.000000 0.000000
0.207792 1.000000 0.000000
0.194805 1.000000 0.000000
0.181818 1.000000 0.000000
0.168831 1.000000 0.000000
0.155844 1.000000 0.000000
0.142857 1.000000 0.000000
0.129870 1.000000 0.000000
0.116883 1.000000 0.000000
0.103896 1.000000 0.000000
0.090909 1.000000 0.000000
0.077922 1.000000 0.000000
0.064935 1.000000 0.000000
0.051948 1.000000 0.000000
0.038961 1.000000 0.000000
0.025974 1.000000 0.000000
0.012987 1.000000 0.000000
0.000000 0.987097 0.000000
0.000000 0.974194 0.000000
0.000000 0.961290 0.000000
0.000000 0.948387 0.000000
0.000000 0.935484 0.000000
0.000000 0.922581 0.000000
0.000000 0.909677 0.000000
0.000000 0.896774 0.000000
0.000000 0.883871 0.000000
0.000000 0.870968 0.000000
0.000000 0.858065 0.000000
0.000000 0.845161 0.000000
0.000000 0.832258 0.000000
0.000000 0.819355 0.000000
0.000000 0.806452 0.000000
0.000000 0.793548 0.000000
0.000000 0.780645 0.000000
0.000000 0.767742 0.000000
0.000000 0.754839 0.000000
0.000000 0.741935 0.000000
0.000000 0.729032 0.000000
0.000000 0.716129 0.000000
0.000000 0.703226 0.000000
0.000000 0.690323 0.000000
0.000000 0.677419 0.000000
0.000000 0.664516 0.000000
0.000000 0.651613 0.000000
0.000000 0.638710 0.000000
0.000000 0.625806 0.000000
0.000000 0.612903 0.000000
0.000000 0.600000 0.000000
0.000000 0.587097 0.000000
0.000000 0.574194 0.000000
0.000000 0.561290 0.000000
0.000000 0.548387 0.000000
0.000000 0.535484 0.000000
0.000000 0.522581 0.000000
0.000000 0.509677 0.000000
0.000000 0.496774 0.000000
0.000000 0.483871 0.000000
0.000000 0.470968 0.000000
0.000000 0.458065 0.000000
0.000000 0.445161 0.000000
0.000000 0.432258 0.000000
0.000000 0.419355 0.000000
0.000000 0.406452 0.000000
0.000000 0.393548 0.000000
0.000000 0.380645 0.000000
0.000000 0.367742 0.000000
0.000000 0.354839 0.000000
0.000000 0.341935 0.000000
0.000000 0.329032 0.000000
0.000000 0.316129 0.000000
0.000000 0.303226 0.000000
0.000000 0.290323 0.000000
0.000000 0.277419 0.000000
0.000000 0.264516 0.000000
0.000000 0.251613 0.000000
0.000000 0.238710 0.000000
0.000000 0.225806 0.000000
0.000000 0.212903 0.000000
0.000000 0.187500 0.000000
0.000000 0.175000 0.000000
0.000000 0.162500 0.000000
0.000000 0.150000 0.000000
0.000000 0.137500 0.000000
0.000000 0.125000 0.000000
0.000000 0.112500 0.000000
0.000000 0.100000 0.000000
0.000000 0.087500 0.000000
0.000000 0.075000 0.000000
0.000000 0.062500 0.000000
0.000000 0.050000 0.000000
0.000000 0.037500 0.000000
0.000000 0.025000 0.000000
0.000000 0.012500 0.000000
0.309756 0.338537 0.000000
0.319512 0.347073 0.000000
0.329268 0.355610 0.000000
0.339024 0.364146 0.000000
0.348780 0.372683 0.000000
0.358537 0.381220 0.000000
0.368293 0.389756 0.000000
0.378049 0.398293 0.000000
0.387805 0.406829 0.000000
0.397561 0.415366 0.000000
0.407317 0.423902 0.000000
0.417073 0.432439 0.000000
0.426829 0.440976 0.000000
0.436585 0.449512 0.000000
0.446341 0.458049 0.000000
0.456098 0.466585 0.000000
0.465854 0.475122 0.000000
0.475610 0.483659 0.000000
0.485366 0.492195 0.000000
0.495122 0.500732 0.000000
0.504878 0.509268 0.000000
0.514634 0.517805 0.000000
0.524390 0.526341 0.000000
0.534146 0.534878 0.000000
0.543902 0.543415 0.000000
0.553659 0.551951 0.000000
0.563415 0.560488 0.000000
0.573171 0.569024 0.000000
0.582927 0.577561 0.000000
0.592683 0.586098 0.000000
0.602439 0.594634 0.000000
0.612195 0.603171 0.000000
0.621951 0.611707 0.000000
0.631707 0.620244 0.000000
0.641463 0.628780 0.000000
0.651220 0.637317 0.000000
0.660976 0.645854 0.000000
0.670732 0.654390 0.000000
0.680488 0.662927 0.000000
0.690244 0.671463 0.000000
0.011538 0.205000 0.000000
0.023077 0.210000 0.000000
0.034615 0.215000 0.000000
0.046154 0.220000 0.000000
0.057692 0.225000 0.000000
0.069231 0.230000 0.000000
0.080769 0.235000 0.000000
0.092308 0.240000 0.000000
0.103846 0.245000 0.000000
0.115385 0.250000 0.000000
0.126923 0.255000 0.000000
0.138462 0.260000 0.000000
0.150000 0.265000 0.000000
0.161538 0.270000 0.000000
0.173077 0.275000 0.000000
[...]
POINT_DATA 7607
SCALARS UX float 1
LOOKUP_TABLE default
-0.000002
0.000006
0.036986
0.025292
-0.044793
-0.036340
-0.029205
0.018378
-0.000002
-0.000000
-0.000001
0.000000
0.000002
-0.000001
0.000000
-0.000001
0.000001
0.000000
0.000001
-0.000000
0.000000
-0.000000
0.000000
-0.000001
0.000000
-0.000000
-0.000000
0.000000
0.000000
-0.000000
0.000000
0.000000
-0.000000
0.000000
0.000000
-0.000000
0.000000
-0.000000
0.000000
-0.000000
-0.000000
-0.000000
-0.000000
-0.000000
0.000000
-0.000000
0.000000
0.000000
-0.000000
-0.000000
-0.000000
-0.000000
0.000000
0.000000
0.000000
-0.000000
0.000000
-0.000000
-0.000000
-0.000000
0.000000
-0.000000
-0.000000
-0.000000
-0.000000
0.000000
0.000000
-0.000000
0.000000
0.000000
0.000000
-0.000000
-0.000000
0.000000
0.000000
-0.000000
-0.000000
-0.000000
0.000000
-0.000001
0.000001
0.000001
-0.000006
0.000005
0.003799
0.006609
0.008871
0.010815
0.012501
0.014094
0.015592
0.016963
0.018280
0.019504
0.020698
0.021818
0.022933
0.024003
0.025016
0.026040
0.027046
0.028058
0.028957
0.029945
0.030898
0.031876
0.032799
0.033733
0.034656
0.035550
0.036512
0.037403
0.038321
0.039212
0.040114
0.040995
0.041842
0.042689
0.043514
0.044269
0.044850
0.045351
0.045815
0.046240
0.046562
0.046790
0.047026
0.047154
0.047215
0.047175
0.047109
0.046928
0.046690
0.046357
0.045966
0.045484
0.044913
0.044259
0.043586
0.042815
0.041928
0.041063
0.040093
0.039053
0.038001
0.035897
0.034840
0.033789
0.032754
0.031744
0.030852
0.029896
0.029091
0.028293
0.027538
0.026948
0.026449
0.026018
0.025667
0.025438
0.023594
0.021949
0.020365
0.018837
0.017358
0.015959
0.014662
0.013379
0.012159
0.010978
0.009856
0.008805
0.007802
0.006872
0.006014
0.005184
0.004327
0.003507
0.002718
0.001962
0.001218
0.000512
-0.000165
-0.000830
-0.001469
-0.002098
-0.002723
-0.003332
-0.003930
-0.004535
-0.005148
-0.005767
-0.006397
-0.007039
-0.007698
-0.008375
-0.009080
-0.009809
-0.010596
-0.011424
-0.012224
-0.013030
-0.013850
-0.014682
-0.015527
-0.016384
-0.017248
-0.018128
-0.018983
-0.019882
-0.020791
-0.021693
-0.022596
-0.023495
-0.024392
-0.025300
-0.026211
-0.027113
-0.028037
-0.028958
-0.029867
-0.030775
-0.031703
-0.032618
-0.033526
-0.034454
-0.035376
-0.036289
-0.037209
-0.038139
-0.039067
-0.040004
-0.040950
-0.041893
-0.042847
-0.043818
-0.044801
-0.044854
-0.044927
-0.045044
-0.045130
-0.045283
-0.045486
-0.045680
-0.045926
-0.046187
-0.046467
-0.046768
-0.047074
-0.047438
-0.047800
-0.048218
-0.048646
-0.049038
-0.049486
-0.049988
-0.050468
-0.050895
-0.051440
-0.051940
-0.052459
-0.052958
-0.053471
-0.053991
-0.054455
-0.054994
-0.055456
-0.055916
-0.056384
-0.056803
-0.057225
-0.057603
-0.057966
-0.058240
-0.058470
-0.058603
-0.058679
-0.058657
-0.058541
-0.058312
-0.058000
-0.057579
-0.057064
-0.056414
-0.055658
-0.054775
-0.053761
-0.052633
-0.051334
-0.049960
-0.048487
-0.046902
-0.045264
-0.043591
-0.041802
-0.039969
-0.038128
-0.034482
-0.032681
-0.030937
-0.029154
-0.027452
-0.025802
-0.024060
-0.022341
-0.020496
-0.018363
-0.016449
-0.014328
-0.011956
-0.009345
-0.005612
-0.026673
-0.027095
-0.029110
-0.031359
-0.030564
-0.026792
-0.027891
-0.027016
-0.026106
-0.024440
-0.024442
-0.022629
-0.020297
-0.019714
-0.017860
-0.016609
-0.014562
-0.013303
-0.012788
-0.010732
-0.009902
-0.008053
-0.006096
-0.004085
-0.002039
-0.000211
0.002808
0.004142
0.006867
0.009544
0.010001
0.013004
0.014079
0.014889
0.015104
0.012916
0.017090
0.015234
0.014947
0.015524
-0.036068
-0.035722
-0.035610
-0.035453
-0.035342
-0.035221
-0.035074
-0.034917
-0.034761
-0.034623
-0.034484
-0.034298
-0.034180
-0.034054
-0.034112
-0.033699
-0.033654
-0.033572
-0.033633
-0.033850
-0.033849
-0.034060
-0.034479
-0.035255
-0.031402
0.022652
0.023380
0.023656
0.024235
0.024471
0.024812
0.025461
0.025840
0.026364
0.026909
0.027632
0.028244
0.028901
0.029573
0.030274
0.030967
0.031644
0.032315
0.032959
0.033576
0.034231
0.034904
0.035573
0.036268
-0.000537
-0.001126
0.000111
-0.001450
0.025169
0.024550
0.025236
-0.040594
-0.042009
-0.035520
-0.040685
-0.041588
-0.039084
0.008344
0.009767
0.009354
-0.042200
-0.040517
-0.041034
-0.040288
0.016297
0.016696
0.017331
0.015573
-0.025020
-0.024126
-0.026492
-0.022619
-0.009188
-0.011580
-0.043730
-0.042259
-0.042606
-0.044065
-0.029620
-0.027657
0.005484
0.007060
0.006844
0.005617
-0.037171
-0.038286
-0.037490
-0.038111
0.028428
0.026849
0.027958
0.025708
0.036252
0.035324
0.035764
0.024317
0.024751
0.034421
0.022471
0.022945
0.023726
-0.000480
-0.000947
-0.000080
-0.032870
-0.034622
-0.000483
0.010268
0.011992
0.012229
-0.017712
-0.020102
-0.018065
0.014408
-0.044353
-0.044247
0.008943
0.007119
0.024299
-0.006447
-0.006196
-0.005489
-0.017949
-0.018085
-0.017267
-0.005260
0.000165
0.000781
0.000509
0.018793
0.019759
0.020375
0.021037
-0.002438
-0.002781
-0.002603
-0.024232
-0.025769
-0.024048
-0.002790
0.040448
0.041027
0.040027
-0.036832
-0.036872
-0.039549
0.028713
0.030262
0.029413
0.029657
-0.018817
-0.005344
-0.006228
-0.006711
-0.001527
-0.002370
-0.002232
0.014305
0.015564
0.015418
0.000994
0.000073
0.000760
0.014951
0.015152
0.016141
0.021744
0.023067
0.022930
0.021863
0.016663
0.038196
0.037047
0.037876
-0.001784
-0.007887
-0.014244
-0.016445
-0.015711
-0.015184
-0.045561
-0.044786
-0.045204
-0.044304
-0.011630
-0.011811
-0.012272
-0.010956
0.010531
0.010525
0.011343
0.009783
0.019737
-0.002162
-0.001897
-0.001943
-0.001642
-0.058116
-0.058172
-0.057631
-0.002699
-0.002791
-0.003028
-0.041357
-0.040733
-0.041598
-0.003188
0.007457
0.010033
0.008298
-0.044509
-0.043829
-0.044396
-0.035084
-0.034933
-0.035737
-0.044038
0.036308
0.035958
0.036886
0.035633
0.035670
0.036045
0.036602
0.019705
0.020698
0.020491
-0.010669
-0.011418
-0.010646
-0.005390
-0.004562
-0.004833
-0.002634
-0.003133
-0.002622
-0.003010
0.015422
0.016623
0.015368
-0.021163
-0.022295
-0.020422
-0.022936
-0.029022
-0.028588
-0.027568
-0.027528
0.023802
0.023628
0.022937
0.023469
0.025001
0.023799
0.024050
0.040708
0.040024
0.039736
0.027764
0.025940
-0.049160
-0.049234
-0.049957
0.023690
0.024762
0.023448
0.025042
0.040479
0.039867
0.041104
0.027959
0.027553
0.027388
0.026919
-0.014042
-0.013059
-0.037809
-0.038161
-0.037486
-0.031802
-0.031955
-0.032645
-0.032935
-0.000960
-0.001108
-0.001141
-0.038717
-0.011462
-0.010858
0.006487
0.006569
0.005748
0.038481
0.037877
0.036990
0.007329
-0.004992
-0.003814
-0.003949
-0.004303
-0.041878
-0.042456
-0.004121
-0.003930
-0.004497
0.013140
0.013821
0.014437
0.006902
0.006717
0.007563
0.024227
0.023146
-0.042073
-0.043036
-0.042859
-0.018471
-0.017465
0.039871
0.039250
0.007454
0.025836
0.026644
0.026081
0.008670
0.008740
0.009565
0.009537
-0.049461
-0.049020
-0.049607
-0.048834
-0.049810
-0.048880
-0.049328
-0.048092
0.015094
0.014053
0.014596
0.014908
-0.048695
-0.048241
-0.048294
-0.047833
0.040495
0.041193
0.033584
0.033044
0.033868
0.015212
0.014374
0.015710
0.032585
0.017058
0.018004
0.016485
0.026498
0.016751
-0.053440
-0.053410
-0.053992
-0.005042
-0.005215
-0.006420
-0.026376
-0.027270
-0.027386
-0.007168
-0.007198
-0.005659
0.028062
0.019717
-0.008074
0.038570
0.019004
0.018113
0.017632
0.019528
-0.050308
-0.050787
-0.026255
0.009683
0.011092
0.010200
0.015860
0.014913
0.016257
-0.039695
-0.040013
-0.039249
0.000735
-0.003718
-0.005063
-0.017945
-0.019803
0.037871
0.036995
0.013065
0.011921
0.011616
0.015051
-0.049799
-0.050539
-0.050095
-0.050405
-0.049469
-0.049003
-0.002128
-0.001819
-0.002047
-0.001859
0.039861
0.039248
0.022184
0.022365
0.021625
0.023252
0.018255
0.017743
0.018877
0.018193
-0.006362
-0.006335
-0.005121
0.007748
0.007359
0.008180
-0.003354
-0.003776
-0.003708
-0.003590
-0.049842
-0.048627
-0.005599
-0.006668
-0.055824
-0.056467
-0.055875
0.023098
0.021558
0.024738
-0.018452
-0.015993
-0.020018
0.020514
0.020260
0.018699
0.020635
0.021704
0.009373
0.010639
-0.038573
-0.038861
-0.039681
0.040512
0.041231
-0.005994
-0.006150
-0.012862
-0.011240
-0.013591
0.006901
-0.011961
-0.012141
-0.013213
0.010239
0.010748
0.011344
0.017219
0.016503
-0.009828
-0.008823
-0.010515
-0.005845
-0.005387
-0.005788
0.011579
-0.050869
-0.030286
-0.051330
0.038574
0.009700
0.008451
-0.038292
-0.037865
0.037887
0.036977
-0.029197
-0.028204
-0.029250
0.006818
0.008846
0.010897
-0.002802
-0.002536
-0.003421
-0.003012
-0.028496
-0.033961
-0.034735
-0.034381
-0.035197
0.039853
0.039204
-0.050887
-0.051729
-0.051555
0.008759
0.008130
0.020040
0.018465
0.020041
0.018580
0.004933
0.005685
0.005093
-0.038883
-0.038210
-0.035572
-0.036282
-0.036241
-0.035542
-0.050854
-0.050487
-0.050134
-0.044550
0.004214
0.004199
0.004937
0.003252
-0.005977
-0.006586
-0.006572
-0.042878
-0.042141
-0.042662
0.021736
0.023166
0.022055
0.024597
-0.050294
-0.049083
-0.045209
-0.043819
-0.044423
-0.043291
0.040333
0.041274
-0.044828
0.012617
0.011779
-0.041907
0.034591
0.033414
0.033332
-0.040619
-0.040863
-0.014434
-0.043726
-0.043450
0.007786
0.005628
-0.012792
-0.015444
-0.013985
-0.000719
-0.000754
0.005271
0.039937
0.040816
0.040666
0.040304
0.040010
0.039370
-0.022025
-0.022681
-0.022645
-0.021864
0.015259
0.015450
0.016705
-0.009135
-0.006862
0.023321
0.022785
0.032531
0.031885
-0.045610
-0.044643
-0.045156
-0.045509
-0.018071
-0.019414
-0.019320
-0.020697
0.039582
0.038688
0.039882
0.040749
0.040619
0.013039
0.012068
0.011851
0.016714
-0.046173
-0.046512
-0.047024
-0.039874
-0.039022
-0.012341
-0.011777
-0.010814
-0.010026
0.012783
0.013073
0.011802
0.019500
0.021119
0.011897
-0.001555
-0.001956
0.038385
0.020378
0.020255
0.019236
0.015800
0.016405
0.017510
0.014733
0.011729
-0.041422
0.013135
0.019504
0.001484
-0.009170
-0.010627
-0.008642
-0.041759
-0.043372
-0.052294
-0.052957
-0.052582
-0.045509
-0.043666
-0.027638
-0.027423
-0.026628
-0.053567
0.025528
0.028592
0.019603
0.020246
0.020664
-0.011714
-0.013581
0.019296
-0.035698
-0.035870
-0.036399
0.010023
0.008846
-0.028352
-0.037970
-0.037526
-0.051254
-0.004967
-0.005189
-0.004115
-0.051712
-0.002601
-0.003127
-0.053348
-0.052880
0.014884
0.015773
0.016270
0.038547
0.001172
0.000851
0.001278
0.000721
-0.052521
-0.052523
-0.051733
-0.024962
-0.025773
-0.025448
-0.025418
-0.002221
-0.002130
-0.010187
-0.009378
0.036870
0.038012
0.036875
0.005106
0.035309
0.034404
0.005907
0.032228
0.012046
0.010627
0.010640
0.010751
0.012504
-0.043669
-0.044548
-0.044086
-0.009523
-0.009234
-0.009902
-0.009205
0.037805
0.037025
-0.011024
-0.012862
-0.036738
-0.038969
-0.037653
-0.037027
-0.038819
-0.037813
-0.037782
-0.040055
-0.041002
0.010581
-0.038289
-0.003986
0.010705
-0.003578
0.041695
-0.002905
0.039213
0.040553
-0.004112
-0.003940
-0.004436
0.023423
0.021428
0.021929
-0.003572
-0.049206
-0.050124
-0.005486
-0.004214
0.010579
-0.036619
-0.017235
-0.016437
-0.015451
-0.014135
0.018852
0.017138
0.017357
-0.008503
-0.007760
-0.044218
-0.016890
0.010261
-0.018699
-0.043243
-0.042868
-0.050619
0.026716
0.008480
0.006420
-0.049518
0.011185
0.022027
-0.013591
-0.056305
-0.055755
-0.055285
0.025149
-0.015205
-0.008071
-0.010774
-0.002663
-0.003144
-0.003215
0.022175
0.023322
-0.002767
-0.009591
-0.008808
0.014011
0.014219
0.033989
0.033182
0.015362
0.032206
0.032511
0.009438
0.009455
0.009511
0.011218
-0.033342
0.010754
0.011499
0.010701
-0.010380
-0.011968
-0.039018
-0.039118
-0.039844
-0.044356
-0.044778
-0.042776
-0.046484
-0.007191
-0.006443
0.009433
0.009574
0.009404
0.035622
0.037033
0.038183
0.034210
-0.038806
0.018288
-0.001419
0.008416
0.009569
-0.040594
0.022617
0.022490
0.023579
0.001063
-0.042556
0.008581
0.008482
0.009409
0.004339
0.007370
0.019089
0.019337
0.020336
0.020698
-0.002632
-0.004279
-0.003505
-0.005952
0.045078
0.044923
0.045438
0.044308
-0.041752
-0.042020
-0.041344
-0.007973
-0.005585
0.011441
0.012143
0.011211
0.003260
0.005160
0.004185
0.012588
0.009790
-0.037286
0.028905
0.027613
0.027911
-0.040401
-0.041715
-0.047080
-0.047812
-0.047998
0.010034
0.042447
0.040718
0.041437
0.039493
0.032389
-0.014010
-0.012916
-0.013348
0.015959
0.017194
-0.013743
0.014190
0.014384
-0.009232
-0.010012
-0.009927
-0.041073
-0.041592
-0.007965
-0.023665
-0.023862
-0.023155
-0.024383
0.045216
0.044861
0.044614
0.044218
-0.045900
-0.009913
-0.045370
-0.043567
-0.047284
0.014985
0.015767
0.014905
0.037431
0.037705
0.036499
-0.015278
-0.012687
-0.014063
-0.044437
0.012065
-0.048654
-0.042769
-0.042373
-0.045814
-0.045931
-0.044152
-0.044151
-0.043580
0.008672
0.007035
-0.044399
0.035764
-0.004499
-0.005020
-0.004521
-0.005685
-0.005728
-0.006190
-0.015457
-0.004808
0.010623
0.010361
0.011741
0.025518
-0.011273
-0.012907
-0.008523
0.022513
0.024047
0.021479
0.037096
0.038341
0.034345
-0.002457
-0.002434
-0.035780
-0.035372
-0.036269
-0.037324
-0.055518
-0.055038
-0.054874
-0.036729
-0.037253
-0.036367
0.030822
0.031476
0.030853
-0.038959
-0.041171
-0.042537
-0.009018
-0.008272
-0.029018
0.018193
0.017062
-0.002744
-0.001399
0.041876
0.043023
0.041020
0.039732
0.018429
0.019858
-0.004548
-0.006377
-0.002232
0.010564
0.010326
0.011275
-0.039901
-0.000295
-0.001143
-0.001071
0.001318
-0.019756
-0.019264
-0.042622
-0.042171
-0.042606
-0.040788
-0.040774
-0.041590
0.004388
0.002657
0.005794
-0.046914
-0.048506
-0.046284
-0.044472
0.008256
0.035642
0.033861
0.008319
0.008333
0.031086
0.010068
0.037132
0.038557
0.009647
-0.019542
-0.030597
-0.031934
-0.005591
-0.006845
-0.005133
-0.001638
-0.001195
-0.001979
0.034188
0.034555
0.034918
-0.044239
-0.043217
-0.043310
-0.042938
-0.024343
-0.025448
-0.025227
-0.043998
-0.044226
0.012812
-0.026414
-0.043552
-0.042545
-0.041950
0.010616
0.009538
0.007540
-0.014226
-0.016837
-0.001752
0.023997
0.025879
-0.001163
-0.001002
-0.001157
-0.012597
-0.009045
0.021971
0.020577
-0.039564
-0.037366
-0.042084
-0.043369
0.042366
0.043759
0.041439
0.039959
0.017091
0.015951
-0.022895
-0.025074
-0.021981
-0.002843
-0.001427
-0.009776
-0.048126
-0.050016
-0.011295
-0.001051
0.017273
0.018814
-0.004647
-0.006596
-0.001074
-0.001327
0.008329
0.008487
-0.006716
-0.039902
-0.039149
-0.043115
0.002865
0.001514
-0.025289
-0.024117
-0.024565
-0.047344
-0.045332
-0.040104
-0.041038
0.004749
0.006262
-0.006016
-0.035768
-0.034973
-0.035439
0.035761
0.032808
0.037306
0.038690
-0.024188
-0.039843
-0.037536
-0.042016
0.035715
0.035722
0.036585
-0.043303
0.034741
-0.034465
0.011818
0.018303
0.017197
0.017796
0.038370
-0.042258
-0.041541
-0.044016
0.010370
0.008240
0.013699
0.042866
0.039316
-0.015339
-0.018193
-0.014866
0.041787
0.040275
0.043937
-0.015728
-0.017413
-0.013287
-0.015375
0.016805
-0.001192
0.023722
0.023396
0.024163
0.008267
-0.010735
-0.004066
-0.004090
-0.004507
-0.003479
0.020310
0.022791
-0.049382
-0.042461
-0.043054
-0.041264
-0.007474
-0.048276
-0.046382
-0.050818
-0.044419
-0.045373
0.035973
0.020303
0.015884
0.021565
0.020437
-0.002888
0.019144
0.008699
0.015682
0.008924
0.014771
-0.004126
-0.037706
-0.037337
-0.036998
-0.001551
-0.039215
-0.038237
0.003288
0.029050
0.029596
0.029465
-0.051602
0.037406
0.038953
0.029925
-0.039434
-0.040411
-0.038309
0.005025
0.006934
0.002076
-0.052095
0.007111
-0.040207
0.007207
-0.011320
-0.012087
-0.011478
-0.057256
-0.056467
-0.056932
-0.043017
-0.038891
0.007138
0.042890
0.008451
-0.043180
0.030754
0.030626
0.029767
-0.012123
-0.011392
-0.008462
-0.007771
-0.013754
-0.013051
-0.012125
0.029563
0.008532
-0.042935
-0.038503
0.012544
-0.005216
-0.004436
-0.041836
-0.041285
-0.044022
0.010901
0.009092
0.014972
-0.001782
-0.001428
-0.002150
-0.001743
0.007241
0.007419
-0.006262
-0.005611
0.010313
0.009194
0.007173
0.012754
0.013967
0.014176
-0.041649
-0.041989
-0.041558
-0.045509
0.015635
0.012479
0.013592
-0.009198
-0.010649
-0.004073
-0.003289
-0.022275
-0.022174
-0.023042
-0.052425
-0.052969
0.040593
-0.013168
-0.015329
0.031358
0.030093
0.030713
-0.047333
0.028828
-0.004564
-0.003929
-0.004317
-0.004160
-0.023040
-0.027234
-0.027865
-0.028030
-0.011800
-0.010646
-0.011515
-0.038532
-0.009688
-0.011813
0.003721
-0.013093
0.007635
-0.040756
0.007855
0.046454
0.046591
0.046080
0.006010
0.006132
-0.006985
-0.038757
0.002504
0.002850
0.002315
0.005199
-0.016624
0.002966
-0.016963
-0.017546
-0.016583
0.005989
0.007262
0.040648
0.041522
0.040972
-0.048290
-0.047765
-0.047766
0.041249
-0.047988
-0.048712
-0.048585
-0.039332
-0.039951
-0.037345
-0.047209
-0.037296
-0.002520
-0.001920
-0.002332
0.027780
0.027089
-0.007922
-0.007292
0.007473
0.006157
0.006375
-0.010834
-0.011606
-0.012134
0.011265
0.009840
-0.050236
-0.050697
-0.051066
-0.042369
-0.042990
-0.042625
0.011511
0.012532
-0.004864
-0.042938
-0.042720
-0.043526
0.029529
0.029984
-0.005842
-0.005175
0.006076
-0.049817
-0.049258
-0.000234
-0.000491
-0.000323
-0.008599
-0.009998
0.004901
0.005077
-0.048711
0.012996
0.014181
-0.042480
0.024551
0.025570
0.025813
0.024351
-0.052832
-0.052638
-0.051940
-0.002088
-0.002299
-0.001512
-0.003803
-0.003048
0.026901
0.026415
0.028138
0.025193
0.029334
0.029898
0.004856
0.006059
-0.006067
-0.007820
-0.006476
-0.007917
-0.053467
-0.000416
-0.000605
0.000153
0.006617
0.006876
0.035057
0.034466
0.034444
0.035065
0.033875
0.034527
0.033792
-0.003495
-0.003480
-0.002990
0.025744
-0.006565
-0.004073
-0.002679
-0.002953
-0.003186
-0.002355
-0.023902
-0.024115
-0.025620
0.034481
-0.022101
-0.027500
-0.027427
-0.029116
0.022109
0.022087
0.020647
0.010122
0.008584
0.027874
0.029346
0.028802
0.028571
0.029749
0.027778
0.029910
0.031213
0.020962
0.029124
0.028553
-0.007413
-0.006765
0.038920
0.038404
0.038751
0.038649
0.038262
0.039008
0.038449
0.037792
-0.011455
0.005103
0.005209
0.008776
0.010897
0.006451
0.023392
0.025029
0.023894
0.024911
0.024173
0.046599
0.046087
0.045937
0.003841
0.003911
0.007248
0.005063
0.005829
0.005883
0.004779
0.004942
-0.005484
-0.004861
0.003798
-0.004528
0.044115
0.044670
0.043490
0.031939
0.032715
0.031228
-0.008082
-0.009327
-0.039493
-0.040553
-0.007932
-0.008597
-0.007863
-0.008447
-0.042353
-0.041570
-0.042159
-0.041692
-0.001320
-0.001317
-0.000761
-0.001071
0.004882
0.006271
-0.003557
-0.002835
0.005638
0.005906
0.007284
0.009481
0.043646
0.043236
0.043110
0.042481
0.021899
0.016941
0.015372
0.015875
0.042660
0.043422
0.043931
-0.012389
-0.014613
-0.006152
-0.027741
-0.026369
-0.028364
-0.026080
-0.029037
-0.030323
-0.031313
0.004146
0.004254
-0.006989
-0.006356
0.045803
-0.010766
0.005427
0.002874
0.002968
0.023282
-0.037695
0.004044
-0.000257
-0.000354
-0.000372
-0.000465
-0.005128
-0.004516
0.002798
0.003709
-0.007600
-0.008756
-0.004250
-0.037375
-0.008631
-0.007942
-0.007146
-0.003328
-0.002651
0.004689
0.004979
-0.000376
-0.000524
-0.000347
-0.000581
-0.024038
-0.024571
-0.024987
-0.023779
-0.011272
-0.009998
-0.011654
-0.011641
-0.013716
-0.005753
0.003216
0.003357
-0.006596
-0.005990
-0.011627
-0.010500
-0.010430
-0.029611
-0.029131
-0.030047
-0.038578
-0.039311
-0.038940
-0.039737
-0.010096
0.003090
0.004451
0.002005
0.002087
0.031739
0.032281
0.032297
0.033242
0.007086
0.007963
0.007741
-0.004753
-0.004097
-0.007225
-0.008246
0.003702
-0.033449
-0.033763
-0.032070
-0.004974
0.000237
0.001574
0.003004
0.001947
0.002723
-0.003583
-0.003660
0.001841
-0.052043
-0.052745
0.032845
0.033683
0.033139
0.031897
-0.004016
0.003795
0.004081
-0.003510
-0.039766
-0.000859
-0.000723
-0.000870
0.029449
0.029840
0.030652
-0.014846
-0.016713
-0.015723
-0.015775
0.003776
0.005191
-0.005676
0.001051
0.001292
0.002339
0.002501
-0.011029
-0.013057
-0.005370
0.026254
0.024973
0.030763
0.026220
0.025386
0.002242
0.002792
0.002441
0.002477
-0.018069
-0.016101
0.002264
-0.006949
-0.007778
-0.001771
-0.001891
-0.002145
-0.001606
-0.009511
0.003552
-0.004426
-0.003810
-0.049167
0.028987
0.028337
0.029283
0.002937
0.003219
-0.034408
-0.034003
-0.033582
-0.034921
-0.056606
-0.057113
-0.057024
-0.057598
0.037726
0.037450
-0.005058
0.001449
0.001670
0.031872
-0.010408
-0.012158
0.028340
-0.022324
-0.023064
-0.022825
0.001556
-0.046399
-0.045755
-0.046840
-0.046413
-0.046334
-0.045636
-0.045488
-0.044933
-0.000467
-0.008951
0.002689
-0.023852
-0.003596
-0.003719
-0.021734
-0.021707
-0.000256
-0.004915
-0.004594
-0.004289
-0.004721
-0.007081
-0.006935
-0.007681
-0.006348
0.002125
0.002429
0.002749
-0.020911
0.003227
0.003828
0.002937
0.004228
-0.014444
-0.014634
-0.013714
0.000732
-0.000088