# vtk DataFile Version 2.0
Test
ASCII
DATASET POLYDATA
POINTS 7607 float
0.000000 0.000000 0.000000
1.000000 0.000000 0.000000
1.000000 0.800000 0.000000
1.000000 1.000000 0.000000
0.000000 1.000000 0.000000
0.000000 0.200000 0.000000
0.300000 0.330000 0.000000
0.700000 0.680000 0.000000
0.012987 0.000000 0.000000
0.025974 0.000000 0.000000
0.038961 0.000000 0.000000
0.051948 0.000000 0.000000
0.064935 0.000000 0.000000
0.077922 0.000000 0.000000
0.090909 0.000000 0.000000
0.103896 0.000000 0.000000
0.116883 0.000000 0.000000
0.129870 0.000000 0.000000
0.142857 0.000000 0.000000
0.155844 0.000000 0.000000
0.168831 0.000000 0.000000
0.181818 0.000000 0.000000
0.194805 0.000000 0.000000
0.207792 0.000000 0.000000
0.220779 0.000000 0.000000
0.233766 0.000000 0.000000
0.246753 0.000000 0.000000
0.259740 0.000000 0.000000
0.272727 0.000000 0.000000
0.285714 0.000000 0.000000
0.298701 0.000000 0.000000
0.311688 0.000000 0.000000
0.324675 0.000000 0.000000
0.337662 0.000000 0.000000
0.350649 0.000000 0.000000
0.363636 0.000000 0.000000
0.376623 0.000000 0.000000
0.389610 0.000000 0.000000
0.402597 0.000000 0.000000
0.415584 0.000000 0.000000
0.428571 0.000000 0.000000
0.441558 0.000000 0.000000
0.454545 0.000000 0.000000
0.467532 0.000000 0.000000
0.480519 0.000000 0.000000
0.493506 0.000000 0.000000
0.506494 0.000000 0.000000
0.519481 0.000000 0.000000
0.532468 0.000000 0.000000
0.545455 0.000000 0.000000
0.558442 0.000000 0.000000
0.571429 0.000000 0.000000
0.584416 0.000000 0.000000
0.597403 0.000000 0.000000
0.610390 0.000000 0.000000
0.623377 0.000000 0.000000
0.636364 0.000000 0.000000
0.649351 0.000000 0.000000
0.662338 0.000000 0.000000
0.675325 0.000000 0.000000
0.688312 0.000000 0.000000
0.701299 0.000000 0.000000
0.714286 0.000000 0.000000
0.727273 0.000000 0.000000
0.740260 0.000000 0.000000
0.753247 0.000000 0.000000
0.766234 0.000000 0.000000
0.779221 0.000000 0.000000
0.792208 0.000000 0.000000
0.805195 0.000000 0.000000
0.818182 0.000000 0.000000
0.831169 0.000000 0.000000
0.844156 0.000000 0.000000
0.857143 0.000000 0.000000
0.870130 0.000000 0.000000
0.883117 0.000000 0.000000
0.896104 0.000000 0.000000
0.909091 0.000000 0.000000
0.922078 0.000000 0.000000
0.935065 0.000000 0.000000
0.948052 0.000000 0.000000
0.961039 0.000000 0.000000
0.974026 0.000000 0.000000
0.987013 0.000000 0.000000
1.000000 0.012903 0.000000
1.000000 0.025806 0.000000
1.000000 0.038710 0.000000
1.000000 0.051613 0.000000
1.000000 0.064516 0.000000
1.000000 0.077419 0.000000
1.000000 0.090323 0.000000
1.000000 0.103226 0.000000
1.000000 0.116129 0.000000
1.000000 0.129032 0.000000
1.000000 0.141935 0.000000
1.000000 0.154839 0.000000
1.000000 0.167742 0.000000
1.000000 0.180645 0.000000
1.000000 0.193548 0.000000
1.000000 0.206452 0.000000
1.000000 0.219355 0.000000
1.000000 0.232258 0.000000
1.000000 0.245161 0.000000
1.000000 0.258065 0.000000
1.000000 0.270968 0.000000
1.000000 0.283871 0.000000
1.000000 0.296774 0.000000
1.000000 0.309677 0.000000
1.000000 0.322581 0.000000
1.000000 0.335484 0.000000
1.000000 0.348387 0.000000
1.000000 0.361290 0.000000
1.000000 0.374194 0.000000
1.000000 0.387097 0.000000
1.000000 0.400000 0.000000
1.000000 0.412903 0.000000
1.000000 0.425806 0.000000
1.000000 0.438710 0.000000
1.000000 0.451613 0.000000
1.000000 0.464516 0.000000
1.000000 0.477419 0.000000
1.000000 0.490323 0.000000
1.000000 0.503226 0.000000
1.000000 0.516129 0.000000
1.000000 0.529032 0.000000
1.000000 0.541935 0.000000
1.000000 0.554839 0.000000
1.000000 0.567742 0.000000
1.000000 0.580645 0.000000
1.000000 0.593548 0.000000
1.000000 0.606452 0.000000
1.000000 0.619355 0.000000
1.000000 0.632258 0.000000
1.000000 0.645161 0.000000
1.000000 0.658065 0.000000
1.000000 0.670968 0.000000
1.000000 0.683871 0.000000
1.000000 0.696774 0.000000
1.000000 0.709677 0.000000
1.000000 0.722581 0.000000
1.000000 0.735484 0.000000
1.000000 0.748387 0.000000
1.000000 0.761290 0.000000
1.000000 0.774194 0.000000
1.000000 0.787097 0.000000
1.000000 0.812500 0.000000
1.000000 0.825000 0.000000
1.000000 0.837500 0.000000
1.000000 0.850000 0.000000
1.000000 0.862500 0.000000
1.000000 0.875000 0.000000
1.000000 0.887500 0.000000
1.000000 0.900000 0.000000
1.000000 0.912500 0.000000
1.000000 0.925000 0.000000
1.000000 0.937500 0.000000
1.000000 0.950000 0.000000
1.000000 0.962500 0.000000
1.000000 0.975000 0.000000
1.000000 0.987500 0.000000
0.987013 1.000000 0.000000
0.974026 1.000000 0.000000
0.961039 1.000000 0.000000
0.948052 1.000000 0.000000
0.935065 1.000000 0.000000
0.922078 1.000000 0.000000
0.909091 1.000000 0.000000
0.896104 1.000000 0.000000
0.883117 1.000000 0.000000
0.870130 1.000000 0.000000
0.857143 1.000000 0.000000
0.844156 1.000000 0.000000
0.831169 1.000000 0.000000
0.818182 1.000000 0.000000
0.805195 1.000000 0.000000
0.792208 1.000000 0.000000
0.779221 1.000000 0.000000
0.766234 1.000000 0.000000
0.753247 1.000000 0.000000
0.740260 1.000000 0.000000
0.727273 1.000000 0.000000
0.714286 1.000000 0.000000
0.701299 1.000000 0.000000
0.688312 1.000000 0.000000
0.675325 1.000000 0.000000
0.662338 1.000000 0.000000
0.649351 1.000000 0.000000
0.636364 1.000000 0.000000
0.623377 1.000000 0.000000
0.610390 1.000000 0.000000
0.597403 1.000000 0.000000
0.584416 1.000000 0.000000
0.571429 1.000000 0.000000
0.558442 1.000000 0.000000
0.545455 1.000000 0.000000
0.532468 1.000000 0.000000
0.519481 1.000000 0.000000
0.506494 1.000000 0.000000
0.493506 1.000000 0.000000
0.480519 1.000000 0.000000
0.467532 1.000000 0.000000
0.454545 1.000000 0.000000
0.441558 1.000000 0.000000
0.428571 1.000000 0.000000
0.415584 1.000000 0.000000
0.402597 1.000000 0.000000
0.389610 1.000000 0.000000
0.376623 1.000000 0.000000
0.363636 1.000000 0.000000
0.350649 1.000000 0.000000
0.337662 1.000000 0.000000
0.324675 1.000000 0.000000
0.311688 1.000000 0.000000
0.298701 1.000000 0.000000
0.285714 1.000000 0.000000
0.272727 1.000000 0.000000
0.259740 1.000000 0.000000
0.246753 1.000000 0.000000
0.233766 1.000000 0.000000
0.220779 1.000000 0.000000
0.207792 1.000000 0.000000
0.194805 1.000000 0.000000
0.181818 1.000000 0.000000
0.168831 1.000000 0.000000
0.155844 1.000000 0.000000
0.142857 1.000000 0.000000
0.129870 1.000000 0.000000
0.116883 1.000000 0.000000
0.103896 1.000000 0.000000
0.090909 1.000000 0.000000
0.077922 1.000000 0.000000
0.064935 1.000000 0.000000
0.051948 1.000000 0.000000
0.038961 1.000000 0.000000
0.025974 1.000000 0.000000
0.012987 1.000000 0.000000
0.000000 0.987097 0.000000
0.000000 0.974194 0.000000
0.000000 0.961290 0.000000
0.000000 0.948387 0.000000
0.000000 0.935484 0.000000
0.000000 0.922581 0.000000
0.000000 0.909677 0.000000
0.000000 0.896774 0.000000
0.000000 0.883871 0.000000
0.000000 0.870968 0.000000
0.000000 0.858065 0.000000
0.000000 0.845161 0.000000
0.000000 0.832258 0.000000
0.000000 0.819355 0.000000
0.000000 0.806452 0.000000
0.000000 0.793548 0.000000
0.000000 0.780645 0.000000
0.000000 0.767742 0.000000
0.000000 0.754839 0.000000
0.000000 0.741935 0.000000
0.000000 0.729032 0.000000
0.000000 0.716129 0.000000
0.000000 0.703226 0.000000
0.000000 0.690323 0.000000
0.000000 0.677419 0.000000
0.000000 0.664516 0.000000
0.000000 0.651613 0.000000
0.000000 0.638710 0.000000
0.000000 0.625806 0.000000
0.000000 0.612903 0.000000
0.000000 0.600000 0.000000
0.000000 0.587097 0.000000
0.000000 0.574194 0.000000
0.000000 0.561290 0.000000
0.000000 0.548387 0.000000
0.000000 0.535484 0.000000
0.000000 0.522581 0.000000
0.000000 0.509677 0.000000
0.000000 0.496774 0.000000
0.000000 0.483871 0.000000
0.000000 0.470968 0.000000
0.000000 0.458065 0.000000
0.000000 0.445161 0.000000
0.000000 0.432258 0.000000
0.000000 0.419355 0.000000
0.000000 0.406452 0.000000
0.000000 0.393548 0.000000
0.000000 0.380645 0.000000
0.000000 0.367742 0.000000
0.000000 0.354839 0.000000
0.000000 0.341935 0.000000
0.000000 0.329032 0.000000
0.000000 0.316129 0.000000
0.000000 0.303226 0.000000
0.000000 0.290323 0.000000
0.000000 0.277419 0.000000
0.000000 0.264516 0.000000
0.000000 0.251613 0.000000
0.000000 0.238710 0.000000
0.000000 0.225806 0.000000
0.000000 0.212903 0.000000
0.000000 0.187500 0.000000
0.000000 0.175000 0.000000
0.000000 0.162500 0.000000
0.000000 0.150000 0.000000
0.000000 0.137500 0.000000
0.000000 0.125000 0.000000
0.000000 0.112500 0.000000
0.000000 0.100000 0.000000
0.000000 0.087500 0.000000
0.000000 0.075000 0.000000
0.000000 0.062500 0.000000
0.000000 0.050000 0.000000
0.000000 0.037500 0.000000
0.000000 0.025000 0.000000
0.000000 0.012500 0.000000
0.309756 0.338537 0.000000
0.319512 0.347073 0.000000
0.329268 0.355610 0.000000
0.339024 0.364146 0.000000
0.348780 0.372683 0.000000
0.358537 0.381220 0.000000
0.368293 0.389756 0.000000
0.378049 0.398293 0.000000
0.387805 0.406829 0.000000
0.397561 0.415366 0.000000
0.407317 0.423902 0.000000
0.417073 0.432439 0.000000
0.426829 0.440976 0.000000
0.436585 0.449512 0.000000
0.446341 0.458049 0.000000
0.456098 0.466585 0.000000
0.465854 0.475122 0.000000
0.475610 0.483659 0.000000
0.485366 0.492195 0.000000
0.495122 0.500732 0.000000
0.504878 0.509268 0.000000
0.514634 0.517805 0.000000
0.524390 0.526341 0.000000
0.534146 0.534878 0.000000
0.543902 0.543415 0.000000
0.553659 0.551951 0.000000
0.563415 0.560488 0.000000
0.573171 0.569024 0.000000
0.582927 0.577561 0.000000
0.592683 0.586098 0.000000
0.602439 0.594634 0.000000
0.612195 0.603171 0.000000
0.621951 0.611707 0.000000
0.631707 0.620244 0.000000
0.641463 0.628780 0.000000
0.651220 0.637317 0.000000
0.660976 0.645854 0.000000
0.670732 0.654390 0.000000
0.680488 0.662927 0.000000
0.690244 0.671463 0.000000
0.011538 0.205000 0.000000
0.023077 0.210000 0.000000
0.034615 0.215000 0.000000
0.046154 0.220000 0.000000
0.057692 0.225000 0.000000
0.069231 0.230000 0.000000
0.080769 0.235000 0.000000
0.092308 0.240000 0.000000
0.103846 0.245000 0.000000
0.115385 0.250000 0.000000
0.126923 0.255000 0.000000
0.138462 0.260000 0.000000
0.150000 0.265000 0.000000
0.161538 0.270000 0.000000
0.173077 0.275000 0.000000
[...]
POINT_DATA 7607
SCALARS UX float 1
LOOKUP_TABLE default
-0.000017
0.000014
0.094801
-0.161773
-0.302421
-0.289723
-0.166486
-0.121125
-0.000011
-0.000000
-0.000005
0.000002
0.000007
-0.000005
-0.000000
-0.000002
0.000001
-0.000000
-0.000000
0.000000
-0.000000
-0.000000
0.000000
-0.000001
0.000000
-0.000001
-0.000000
0.000000
0.000000
-0.000000
0.000000
-0.000000
-0.000000
-0.000000
-0.000000
0.000000
-0.000000
0.000000
-0.000000
0.000000
-0.000000
-0.000000
-0.000000
-0.000000
-0.000000
-0.000000
0.000000
0.000000
-0.000000
-0.000000
-0.000000
-0.000000
0.000000
0.000000
0.000000
-0.000001
0.000001
-0.000000
-0.000000
-0.000000
0.000000
-0.000000
-0.000000
0.000000
0.000000
0.000000
0.000000
-0.000001
0.000001
0.000000
0.000000
0.000000
-0.000000
0.000000
0.000000
0.000000
-0.000001
0.000000
0.000001
-0.000002
0.000002
0.000001
-0.000006
0.000009
0.005451
0.008966
0.012004
0.014660
0.016985
0.019218
0.021310
0.023200
0.025047
0.026782
0.028480
0.030086
0.031691
0.033241
0.034719
0.036220
0.037703
0.039200
0.040550
0.042027
0.043466
0.044955
0.046392
0.047870
0.049459
0.050782
0.052120
0.053348
0.054616
0.055862
0.057133
0.058394
0.059639
0.060927
0.062194
0.063505
0.064794
0.066047
0.067380
0.068747
0.070065
0.071349
0.072781
0.074157
0.075566
0.076944
0.078435
0.079896
0.081438
0.083076
0.084575
0.085999
0.087371
0.088667
0.089966
0.091139
0.092136
0.093076
0.093810
0.094327
0.094671
0.094584
0.094023
0.093115
0.091752
0.089594
0.086784
0.082388
0.075104
0.063009
0.033790
-0.014079
-0.066847
-0.113427
-0.144622
-0.156537
-0.171916
-0.179508
-0.185467
-0.190131
-0.193716
-0.196425
-0.198760
-0.200757
-0.202507
-0.204152
-0.205668
-0.207148
-0.208728
-0.210292
-0.211839
-0.213350
-0.214880
-0.216380
-0.217808
-0.219209
-0.220638
-0.222041
-0.223458
-0.224906
-0.226345
-0.227833
-0.229347
-0.230855
-0.232400
-0.233879
-0.235313
-0.236797
-0.238347
-0.239928
-0.241540
-0.243186
-0.244925
-0.246585
-0.248137
-0.249692
-0.251219
-0.252735
-0.254248
-0.255731
-0.257230
-0.258740
-0.260263
-0.261815
-0.263264
-0.264823
-0.266389
-0.267938
-0.269485
-0.271007
-0.272513
-0.274006
-0.275489
-0.276944
-0.278443
-0.279896
-0.281323
-0.282724
-0.284158
-0.285557
-0.286893
-0.288277
-0.289615
-0.290900
-0.292190
-0.293491
-0.294778
-0.296055
-0.297328
-0.298584
-0.299834
-0.301107
-0.302350
-0.302353
-0.302362
-0.302405
-0.302387
-0.302429
-0.302507
-0.302548
-0.302627
-0.302699
-0.302767
-0.302836
-0.302889
-0.302988
-0.303065
-0.303191
-0.303311
-0.303373
-0.303489
-0.303648
-0.303762
-0.303793
-0.303931
-0.303990
-0.304053
-0.304074
-0.304102
-0.304129
-0.304080
-0.304100
-0.304001
-0.303879
-0.303744
-0.303535
-0.303347
-0.303136
-0.302956
-0.302729
-0.302534
-0.302277
-0.302047
-0.301771
-0.301484
-0.301143
-0.300848
-0.300527
-0.300227
-0.299884
-0.299549
-0.299190
-0.298803
-0.298415
-0.297946
-0.297487
-0.297046
-0.296634
-0.296077
-0.295238
-0.294165
-0.292927
-0.291384
-0.287699
-0.285373
-0.282569
-0.279243
-0.275094
-0.269839
-0.262778
-0.254213
-0.244354
-0.226905
-0.189197
-0.141828
-0.094113
-0.056537
-0.031012
-0.149911
-0.151513
-0.171954
-0.197097
-0.185947
-0.183876
-0.178973
-0.177826
-0.174250
-0.173265
-0.172416
-0.172103
-0.164380
-0.161635
-0.162195
-0.154782
-0.156634
-0.155660
-0.154862
-0.148397
-0.148739
-0.147643
-0.141717
-0.135436
-0.134816
-0.132481
-0.127466
-0.130411
-0.130952
-0.121087
-0.134161
-0.124969
-0.121285
-0.122035
-0.127762
-0.124448
-0.121011
-0.117001
-0.124292
-0.118770
-0.289050
-0.288201
-0.287144
-0.286194
-0.285370
-0.284522
-0.283586
-0.282774
-0.282104
-0.281422
-0.280734
-0.280094
-0.279206
-0.277812
-0.276568
-0.273125
-0.272027
-0.265756
-0.253569
-0.235603
-0.217813
-0.201852
-0.181032
-0.171719
-0.168566
-0.070618
-0.029398
0.006356
0.038101
0.055746
0.068897
0.068759
0.068722
0.069720
0.070714
0.073784
0.074078
0.074946
0.077691
0.079676
0.081638
0.083403
0.085255
0.086962
0.088367
0.089776
0.091149
0.092457
0.093690
-0.233251
-0.235040
-0.232712
-0.234915
0.038628
0.037959
0.039064
-0.232853
-0.238268
-0.262471
-0.291868
-0.293378
-0.291064
0.011379
0.013303
0.012771
-0.293152
-0.296421
-0.296998
-0.295997
0.022675
0.023168
0.024113
0.021637
-0.234919
-0.200984
-0.250193
-0.163147
-0.046728
-0.075735
-0.288694
-0.287916
-0.287682
-0.289408
-0.280396
-0.276007
0.007562
0.009704
0.009462
0.007696
-0.291957
-0.293397
-0.292272
-0.293285
0.082062
0.077416
0.080654
0.072337
0.069007
0.069349
0.067991
-0.155670
-0.132416
0.068711
0.031141
0.031764
0.032908
-0.227019
-0.228487
-0.226655
-0.285561
-0.287654
-0.228217
-0.209767
-0.202846
-0.203303
-0.058615
-0.082020
-0.065944
-0.184871
-0.301596
-0.301543
0.012115
0.009553
0.037364
-0.010280
-0.010221
-0.008827
-0.261477
-0.261705
-0.260297
-0.008737
-0.225436
-0.224682
-0.226043
0.026031
0.027337
0.028247
0.029114
-0.003030
-0.003499
-0.003358
-0.264274
-0.270246
-0.262658
-0.003393
0.076946
0.078099
0.077921
-0.267526
-0.254118
-0.273938
0.079461
0.086005
0.081861
0.084897
-0.262970
-0.241861
-0.243092
-0.243151
-0.002455
-0.003811
-0.003446
0.019612
0.021343
0.021178
-0.227066
-0.228943
-0.228393
0.020996
0.021178
0.022609
-0.125315
-0.057344
-0.087062
-0.104481
0.023256
0.077552
0.077097
0.076267
-0.002909
-0.244812
-0.077434
-0.137722
-0.130436
-0.093886
-0.280035
-0.277787
-0.278550
-0.275850
-0.250550
-0.250757
-0.251662
-0.249076
-0.204789
-0.204858
-0.203590
-0.205995
-0.058049
-0.002649
-0.002359
-0.002329
-0.002015
-0.301209
-0.301003
-0.300215
-0.003160
-0.003169
-0.003589
-0.296249
-0.295666
-0.296747
-0.003709
-0.216510
-0.210487
-0.214490
-0.280213
-0.280490
-0.281449
-0.288894
-0.288786
-0.289888
-0.278771
0.058266
0.056942
0.058684
0.057199
0.061167
0.060603
0.062436
0.028062
0.029316
0.029294
-0.249126
-0.250491
-0.249139
-0.239644
-0.238114
-0.238114
-0.002733
-0.003494
-0.002661
-0.003255
0.021253
0.022936
0.021226
-0.222967
-0.248236
-0.213064
-0.251662
-0.267761
-0.267213
-0.266316
-0.265767
0.036955
0.036429
0.035578
0.034257
0.036422
0.034912
0.034832
0.062903
0.062610
0.061099
0.023051
-0.017383
-0.287767
-0.288580
-0.288905
0.034263
0.052658
0.024374
0.060264
0.075408
0.076078
0.076543
0.043840
0.042425
0.042887
0.041281
-0.254594
-0.252788
-0.273230
-0.271719
-0.271966
-0.283580
-0.284026
-0.284926
-0.285539
-0.001116
-0.001257
-0.001363
-0.272613
-0.250413
-0.249053
0.009397
0.009588
0.008412
0.075753
0.074756
0.075537
0.010647
-0.009489
-0.007642
-0.008695
-0.007757
-0.297273
-0.297809
-0.005158
-0.005031
-0.005941
0.017970
0.018878
0.019764
0.010355
0.010000
0.011249
0.004609
-0.029193
-0.298032
-0.299299
-0.298923
-0.198775
-0.161180
0.074468
0.075148
0.010992
0.038273
0.038158
0.037635
0.012423
0.012439
0.013640
0.013515
-0.286952
-0.286156
-0.287254
-0.285768
-0.291690
-0.291134
-0.290959
-0.290249
0.013069
0.013528
0.015389
0.013545
-0.285735
-0.285059
-0.284939
-0.284136
0.073907
0.075065
0.054998
0.053421
0.054752
-0.196289
-0.197664
-0.194065
0.053417
-0.190016
-0.187919
-0.193189
0.036729
-0.190035
-0.296893
-0.297349
-0.297609
-0.008794
-0.009306
-0.012210
-0.270711
-0.272140
-0.271846
-0.015147
-0.016139
-0.010535
0.045412
0.027837
-0.018374
0.074149
-0.175033
-0.184367
-0.184484
-0.173932
-0.291610
-0.292415
-0.270993
0.013283
0.015238
0.014047
0.022658
0.021301
0.023114
-0.295106
-0.295364
-0.294385
-0.218336
-0.238240
-0.234257
-0.058927
-0.081083
0.073276
0.074059
0.018035
0.016507
0.016013
0.021389
-0.288066
-0.289194
-0.288846
-0.288732
-0.288126
-0.287179
-0.003982
-0.003444
-0.003752
-0.003610
0.072943
0.073546
0.030185
0.030342
0.028771
0.032239
0.027961
0.027042
0.028670
0.027507
-0.243674
-0.243479
-0.241954
0.012501
0.011784
0.012924
-0.004703
-0.005269
-0.005331
-0.004891
-0.290900
-0.290168
-0.242398
-0.243931
-0.297288
-0.298284
-0.297581
-0.010270
-0.097468
0.035766
-0.177393
-0.103202
-0.226280
-0.154320
-0.150608
-0.173747
-0.158031
-0.140847
0.012940
0.014701
-0.293524
-0.293753
-0.294797
0.072428
0.073540
-0.242933
-0.241977
-0.055363
-0.038304
-0.060229
0.011276
-0.041013
-0.053435
-0.067950
0.016283
0.017083
0.017726
-0.185194
-0.189847
-0.024441
-0.021137
-0.027388
-0.237405
-0.236160
-0.237070
0.018269
-0.291588
-0.281971
-0.292408
0.072634
0.013444
0.011700
-0.293030
-0.292607
0.071864
0.072606
-0.279088
-0.277715
-0.279412
-0.218514
-0.213577
0.015107
-0.003917
-0.003850
-0.005171
-0.005064
-0.278417
-0.284692
-0.285823
-0.285143
-0.286290
0.071653
0.071891
-0.291749
-0.293050
-0.292177
0.012048
0.011212
-0.146055
-0.172580
-0.136319
-0.166791
0.008300
0.009344
0.008533
-0.294056
-0.293169
-0.289742
-0.290772
-0.290654
-0.289767
-0.291138
-0.290203
-0.290525
-0.278826
0.005860
0.005802
0.006849
0.004508
-0.007862
-0.008833
-0.008847
-0.296439
-0.295610
-0.296400
-0.055192
0.006871
-0.022026
0.040289
-0.290776
-0.290029
-0.281490
-0.299350
-0.299920
-0.298596
0.071050
0.071901
-0.282453
0.017357
0.016146
-0.295624
0.092543
0.091742
0.091165
-0.295991
-0.296486
-0.064254
-0.300817
-0.300539
0.010536
0.007536
-0.044029
-0.073765
-0.053078
-0.000836
-0.000816
0.008768
0.065525
0.066341
0.067493
0.064693
0.067107
0.066191
-0.268197
-0.269327
-0.269163
-0.268013
0.022233
0.022360
0.024168
-0.041874
-0.031125
-0.160157
-0.170245
0.051951
0.051436
-0.300110
-0.298992
-0.299846
-0.299707
-0.141003
-0.196392
-0.166078
-0.231303
0.091622
0.090706
0.090616
0.091203
0.092209
-0.200363
-0.203382
-0.203853
0.024047
-0.283537
-0.284705
-0.284582
-0.290360
-0.290258
-0.030466
-0.029103
-0.024807
-0.021795
-0.201106
-0.200124
-0.203271
-0.188648
-0.183056
-0.202786
-0.004010
-0.006461
0.091710
0.031382
0.030904
0.029350
-0.189847
-0.181180
-0.166092
-0.195104
-0.203748
-0.297947
-0.200408
0.029363
0.001858
-0.020131
-0.025261
-0.019043
-0.292049
-0.293436
-0.291975
-0.292875
-0.292596
-0.295644
-0.294639
-0.269084
-0.268305
-0.267798
-0.293748
-0.021686
0.050771
0.027549
0.029549
0.029602
-0.028085
-0.037464
0.027908
-0.286859
-0.287269
-0.287790
0.013944
0.012307
-0.269166
-0.292462
-0.292018
-0.291594
-0.012991
-0.011180
-0.010367
-0.292319
-0.002795
-0.003581
-0.297846
-0.297103
0.020366
0.022394
0.022494
0.071133
0.002012
0.001448
0.002121
0.001209
-0.302716
-0.302209
-0.301933
-0.270256
-0.271302
-0.270606
-0.271122
-0.002096
-0.001890
-0.022407
-0.020201
0.089177
0.089818
0.090410
0.007117
0.089495
0.088091
0.008201
0.090946
-0.203522
-0.206738
-0.206296
-0.206956
-0.202874
-0.297813
-0.298559
-0.298607
-0.247271
-0.246631
-0.247842
-0.246463
0.070608
0.071195
-0.024623
-0.031662
-0.288386
-0.288926
-0.288277
-0.287083
-0.290320
-0.288986
-0.289192
-0.289466
-0.290702
-0.205881
-0.287688
-0.006348
-0.205296
-0.005001
0.090513
-0.003726
0.089551
0.089686
-0.006186
-0.005759
-0.006463
0.032542
-0.179206
-0.178427
-0.005355
-0.290067
-0.291242
-0.016315
-0.013770
-0.206221
-0.291107
-0.068388
-0.062540
-0.049398
-0.041650
-0.156118
-0.182260
-0.177636
-0.017884
-0.015898
-0.301335
-0.061014
0.013892
-0.078807
-0.300135
-0.299740
-0.290716
0.037309
0.011451
0.008627
-0.289847
0.015558
0.030571
-0.115775
-0.297875
-0.296983
-0.296452
-0.094415
-0.045388
-0.032181
-0.056042
-0.232279
-0.233269
-0.234007
-0.169819
-0.151679
-0.231953
-0.019630
-0.017876
0.019625
0.019837
0.091271
0.089844
0.021399
0.090179
0.089973
-0.209237
-0.208742
-0.209578
-0.206296
-0.284365
-0.204893
-0.203414
-0.204853
-0.021620
-0.027040
-0.293399
-0.293723
-0.294492
-0.293402
-0.294531
-0.292099
-0.295766
-0.014196
-0.012540
-0.208097
-0.207497
-0.208484
0.088218
0.087874
0.088641
0.086952
-0.290052
-0.191760
-0.002965
0.012151
0.013749
-0.296853
0.034349
0.034598
0.036068
0.001319
-0.299389
0.012145
0.011938
0.013249
0.005821
0.010428
-0.189056
-0.187540
-0.184779
-0.181130
-0.005907
-0.009950
-0.008761
-0.018464
0.072208
0.070972
0.072064
0.070361
-0.298363
-0.298662
-0.297787
-0.242537
-0.240285
0.016056
0.016346
0.015383
0.004270
0.006890
0.005553
0.017281
-0.206491
-0.286254
0.041504
0.039782
0.039838
-0.289113
-0.290467
-0.293928
-0.294938
-0.294491
-0.205833
0.089565
0.088136
0.089132
0.088476
0.090891
-0.252374
-0.251093
-0.251830
0.021963
0.023684
-0.251779
0.019559
0.019773
-0.246306
-0.247734
-0.247705
-0.296307
-0.297123
-0.015995
-0.271220
-0.271497
-0.270344
-0.272404
0.073525
0.074225
0.072429
0.073255
-0.294672
-0.247768
-0.293501
-0.291978
-0.295755
0.022046
0.022961
0.021407
0.052708
0.052987
0.051239
-0.063236
-0.038948
-0.047453
-0.301486
0.016402
-0.295222
-0.299481
-0.299043
-0.284119
-0.285008
-0.272495
-0.273367
-0.269529
0.011726
0.009500
-0.275326
0.087033
-0.005645
-0.006418
-0.005613
-0.237446
-0.237331
-0.238562
-0.156950
-0.006215
0.014985
0.014534
0.016468
-0.047180
-0.055638
-0.090700
-0.032875
-0.152380
-0.112881
-0.172886
0.086537
0.087429
0.085940
-0.002789
-0.002641
-0.289623
-0.289189
-0.290428
-0.285595
-0.298316
-0.297345
-0.297796
-0.290928
-0.291497
-0.290283
0.088313
0.089613
0.088285
-0.287536
-0.289026
-0.290512
-0.017730
-0.016247
-0.279217
-0.191520
-0.194424
-0.005408
-0.002173
0.088238
0.088386
0.086960
0.087124
-0.189639
-0.183335
-0.009616
-0.017119
-0.002437
0.015070
0.014659
0.015982
-0.295925
-0.000635
-0.002391
-0.001711
0.001632
-0.264582
-0.263765
-0.271674
-0.274803
-0.275232
-0.297032
-0.297067
-0.298052
0.005868
0.003481
0.007807
-0.294776
-0.296175
-0.293452
-0.292013
-0.211503
0.085644
0.084333
-0.210956
-0.211778
0.087813
-0.208840
0.085085
0.086191
-0.207015
-0.264185
-0.280099
-0.283160
-0.010668
-0.013780
-0.009516
-0.228273
-0.226895
-0.228716
0.054570
0.055812
0.056109
-0.301134
-0.260720
-0.263275
-0.247991
-0.262911
-0.264128
-0.263337
-0.274073
-0.276863
0.017463
-0.264780
-0.300403
-0.299114
-0.298446
0.014408
0.012949
0.010176
-0.114267
-0.185430
-0.227882
-0.085278
-0.008929
-0.000876
-0.000609
-0.000790
-0.067265
-0.031188
-0.148033
-0.174707
-0.287339
-0.285036
-0.289033
-0.290627
0.086901
0.086858
0.085545
0.085768
-0.194039
-0.196626
-0.220224
-0.261275
-0.198070
-0.004936
-0.002122
-0.019255
-0.295017
-0.296548
-0.023810
-0.000777
-0.192364
-0.186192
-0.008656
-0.015944
-0.000611
-0.001011
-0.210086
-0.209466
-0.013017
-0.295877
-0.294881
-0.267500
0.003807
0.001941
-0.269010
-0.267581
-0.268527
-0.293523
-0.291998
-0.296090
-0.297285
0.006397
0.008450
-0.011560
-0.289312
-0.288171
-0.289000
0.084026
0.082526
0.083397
0.084565
-0.267267
-0.286913
-0.284548
-0.288313
0.050392
0.050138
0.051551
-0.299945
0.048809
-0.287639
0.016095
0.017896
0.014795
0.019190
0.069815
-0.298644
-0.297840
-0.300715
0.014111
0.011184
0.018679
0.085237
0.070394
-0.031432
-0.051572
-0.029446
0.083885
0.084162
0.085434
-0.141015
-0.045457
-0.024361
-0.033428
0.016880
-0.000719
0.035499
0.035332
0.036392
-0.210593
-0.039981
-0.006573
-0.006375
-0.007054
-0.005651
-0.171603
0.034109
-0.295162
-0.283915
-0.285165
-0.283681
-0.014606
-0.293476
-0.292208
-0.296422
-0.290751
-0.283366
0.082148
-0.115462
-0.196239
-0.079420
-0.097215
-0.004495
-0.139296
-0.208410
-0.195961
-0.207732
-0.198534
-0.006922
-0.291950
-0.291301
-0.291001
-0.002093
-0.294942
-0.292473
0.004411
0.045809
0.048343
0.046550
-0.291550
0.081633
0.082472
0.048572
-0.295163
-0.296385
-0.293729
0.006809
0.009419
0.002766
-0.292370
-0.213565
-0.286639
-0.212971
-0.250241
-0.251625
-0.250562
-0.299735
-0.298600
-0.299049
-0.274195
-0.285239
-0.214006
0.083712
-0.211965
-0.271726
0.045973
0.046295
0.044676
-0.251744
-0.250491
-0.016022
-0.014799
-0.032032
-0.030049
-0.025601
0.044780
-0.209018
-0.299343
-0.293038
0.017086
-0.009767
-0.007986
-0.297998
-0.297416
-0.300529
0.014842
0.012377
0.020449
-0.234332
-0.233252
-0.234422
-0.233038
-0.212012
-0.211323
-0.011928
-0.010721
0.014405
0.012863
-0.212560
-0.200835
-0.197916
-0.197607
-0.274969
-0.272615
-0.273107
-0.290856
-0.192750
-0.201477
-0.198775
-0.017343
-0.021058
-0.007627
-0.005948
-0.265883
-0.266020
-0.267154
-0.293117
-0.293335
0.082488
-0.028423
-0.039128
0.060097
0.058246
0.056959
-0.292229
0.057717
-0.237045
-0.235575
-0.236069
-0.236693
-0.267489
-0.274648
-0.275754
-0.275805
-0.020143
-0.017352
-0.020681
-0.293987
-0.016061
-0.019349
0.005036
-0.023179
-0.210216
-0.286559
-0.209495
0.075610
0.076964
0.075635
-0.215574
-0.214874
-0.013286
-0.294217
0.004891
0.005411
0.004645
0.007081
-0.089732
0.005600
-0.119897
-0.102614
-0.072409
-0.216147
-0.214190
0.058490
0.060043
0.059472
-0.286460
-0.286082
-0.285522
0.059212
-0.285130
-0.286044
-0.286306
-0.272597
-0.266714
-0.263701
-0.284401
-0.255313
-0.229024
-0.227557
-0.228458
0.057775
0.060398
-0.014499
-0.013534
-0.210849
-0.213904
-0.213116
-0.249004
-0.250055
-0.250447
-0.206474
-0.209594
-0.294174
-0.295196
-0.294755
-0.280375
-0.280394
-0.279540
0.016074
0.017428
-0.009293
-0.297231
-0.296670
-0.297317
0.084123
0.084784
-0.010987
-0.009827
-0.214486
-0.293197
-0.293588
-0.000551
-0.001006
-0.000748
-0.015583
-0.018826
-0.217649
-0.216773
-0.292491
0.018146
0.019717
-0.281132
0.034290
0.035682
0.036091
0.033919
-0.300000
-0.299156
-0.299159
-0.236370
-0.237113
-0.236205
-0.007110
-0.005631
0.073929
0.072722
0.080546
0.057644
0.085161
0.086630
-0.218386
-0.216695
-0.011922
-0.015860
-0.012629
-0.017292
-0.299892
0.000041
0.000070
0.001153
-0.211919
-0.211114
0.063895
0.064421
0.063162
0.065470
0.062397
0.061808
0.061197
-0.005925
-0.006116
-0.005309
0.035872
-0.012252
-0.006997
-0.231255
-0.231596
-0.232533
-0.229991
-0.260359
-0.259942
-0.268991
0.082573
-0.251702
-0.273989
-0.275582
-0.278869
0.030920
0.030973
0.028899
-0.209079
-0.212124
0.044969
0.053553
0.051184
0.050484
0.052866
0.051340
0.053049
0.055617
0.029436
0.047139
0.045162
-0.013193
-0.012204
0.066543
0.065870
0.065480
0.067329
0.064327
0.064824
0.063376
0.064856
-0.022670
-0.215743
-0.215131
-0.212335
-0.207579
-0.212591
0.032760
0.039045
0.037274
0.038863
0.037636
0.072824
0.072815
0.071486
-0.219726
-0.218967
-0.215040
-0.216290
-0.218491
-0.217854
-0.220008
-0.218912
-0.010182
-0.009135
-0.220520
-0.008619
0.068962
0.069771
0.068394
0.087002
0.088484
0.087029
-0.014206
-0.016771
-0.293790
-0.295171
-0.011100
-0.012268
-0.010996
-0.012124
-0.296758
-0.295881
-0.296770
-0.295711
-0.227834
-0.228155
-0.226782
-0.228063
-0.220630
-0.218483
-0.006743
-0.005371
-0.213577
-0.212742
-0.215795
-0.211332
0.069775
0.070001
0.068814
0.068483
0.030279
-0.185602
-0.193264
-0.189553
0.070037
0.071526
0.071242
-0.024720
-0.033581
-0.011272
-0.274307
-0.268980
-0.276032
-0.267797
-0.274700
-0.278736
-0.279981
-0.217465
-0.216816
-0.012136
-0.011224
0.073840
-0.020176
-0.214341
-0.221696
-0.220825
0.032671
-0.292847
-0.218155
-0.000122
-0.000143
-0.000210
-0.000229
-0.009411
-0.008422
-0.222597
-0.221437
-0.013015
-0.015230
-0.008029
-0.292436
-0.012450
-0.011269
-0.009862
-0.006370
-0.005116
-0.215208
-0.214326
0.000515
0.000248
0.000506
0.000090
-0.270027
-0.270877
-0.271445
-0.269788
-0.031304
-0.024601
-0.031434
-0.021934
-0.028658
-0.010356
-0.219207
-0.218459
-0.011197
-0.010364
-0.018991
-0.016350
-0.015969
-0.276284
-0.276016
-0.277122
-0.283573
-0.284177
-0.283477
-0.284069
-0.018120
-0.219991
-0.216042
-0.223542
-0.222646
0.055529
0.055731
0.056849
0.057749
0.009918
0.011112
0.010870
-0.008624
-0.007630
-0.012059
-0.013943
-0.222241
-0.282228
-0.284090
-0.280897
-0.063561
-0.015117
-0.010808
0.004065
-0.224409
-0.223498
-0.235296
-0.234552
0.002484
-0.299926
-0.300603
0.058613
0.059647
0.060316
0.057212
-0.007606
-0.216801
-0.215885
-0.006661
-0.254042
-0.000660
-0.000434
-0.000581
0.041521
0.042019
0.043278
-0.249398
-0.251548
-0.250643
-0.252004
-0.223002
-0.220998
-0.009613
-0.225602
-0.224328
-0.220935
-0.220100
-0.019885
-0.025497
-0.009508
0.037948
0.035995
0.043337
0.038293
0.037277
0.004597
0.005396
0.005009
0.004916
-0.068519
-0.049933
-0.221671
-0.011349
-0.012775
-0.002498
-0.002524
-0.002903
-0.002166
-0.016460
-0.217656
-0.007921
-0.007049
-0.292153
0.044601
0.043351
0.044699
-0.218364
-0.217438
-0.287834
-0.287136
-0.286643
-0.288432
-0.298322
-0.299222
-0.298924
-0.299912
0.062516
0.063438
-0.008805
-0.222837
-0.221754
0.088127
-0.018006
-0.022394
0.043082
-0.267803
-0.268918
-0.268441
-0.223190
-0.283232
-0.281340
-0.283186
-0.281937
-0.283716
-0.282184
-0.283318
-0.280904
-0.226572
-0.014983