# vtk DataFile Version 2.0
Test
ASCII
DATASET POLYDATA
POINTS 7607 float
0.000000 0.000000 0.000000
1.000000 0.000000 0.000000
1.000000 0.800000 0.000000
1.000000 1.000000 0.000000
0.000000 1.000000 0.000000
0.000000 0.200000 0.000000
0.300000 0.330000 0.000000
0.700000 0.680000 0.000000
0.012987 0.000000 0.000000
0.025974 0.000000 0.000000
0.038961 0.000000 0.000000
0.051948 0.000000 0.000000
0.064935 0.000000 0.000000
0.077922 0.000000 0.000000
0.090909 0.000000 0.000000
0.103896 0.000000 0.000000
0.116883 0.000000 0.000000
0.129870 0.000000 0.000000
0.142857 0.000000 0.000000
0.155844 0.000000 0.000000
0.168831 0.000000 0.000000
0.181818 0.000000 0.000000
0.194805 0.000000 0.000000
0.207792 0.000000 0.000000
0.220779 0.000000 0.000000
0.233766 0.000000 0.000000
0.246753 0.000000 0.000000
0.259740 0.000000 0.000000
0.272727 0.000000 0.000000
0.285714 0.000000 0.000000
0.298701 0.000000 0.000000
0.311688 0.000000 0.000000
0.324675 0.000000 0.000000
0.337662 0.000000 0.000000
0.350649 0.000000 0.000000
0.363636 0.000000 0.000000
0.376623 0.000000 0.000000
0.389610 0.000000 0.000000
0.402597 0.000000 0.000000
0.415584 0.000000 0.000000
0.428571 0.000000 0.000000
0.441558 0.000000 0.000000
0.454545 0.000000 0.000000
0.467532 0.000000 0.000000
0.480519 0.000000 0.000000
0.493506 0.000000 0.000000
0.506494 0.000000 0.000000
0.519481 0.000000 0.000000
0.532468 0.000000 0.000000
0.545455 0.000000 0.000000
0.558442 0.000000 0.000000
0.571429 0.000000 0.000000
0.584416 0.000000 0.000000
0.597403 0.000000 0.000000
0.610390 0.000000 0.000000
0.623377 0.000000 0.000000
0.636364 0.000000 0.000000
0.649351 0.000000 0.000000
0.662338 0.000000 0.000000
0.675325 0.000000 0.000000
0.688312 0.000000 0.000000
0.701299 0.000000 0.000000
0.714286 0.000000 0.000000
0.727273 0.000000 0.000000
0.740260 0.000000 0.000000
0.753247 0.000000 0.000000
0.766234 0.000000 0.000000
0.779221 0.000000 0.000000
0.792208 0.000000 0.000000
0.805195 0.000000 0.000000
0.818182 0.000000 0.000000
0.831169 0.000000 0.000000
0.844156 0.000000 0.000000
0.857143 0.000000 0.000000
0.870130 0.000000 0.000000
0.883117 0.000000 0.000000
0.896104 0.000000 0.000000
0.909091 0.000000 0.000000
0.922078 0.000000 0.000000
0.935065 0.000000 0.000000
0.948052 0.000000 0.000000
0.961039 0.000000 0.000000
0.974026 0.000000 0.000000
0.987013 0.000000 0.000000
1.000000 0.012903 0.000000
1.000000 0.025806 0.000000
1.000000 0.038710 0.000000
1.000000 0.051613 0.000000
1.000000 0.064516 0.000000
1.000000 0.077419 0.000000
1.000000 0.090323 0.000000
1.000000 0.103226 0.000000
1.000000 0.116129 0.000000
1.000000 0.129032 0.000000
1.000000 0.141935 0.000000
1.000000 0.154839 0.000000
1.000000 0.167742 0.000000
1.000000 0.180645 0.000000
1.000000 0.193548 0.000000
1.000000 0.206452 0.000000
1.000000 0.219355 0.000000
1.000000 0.232258 0.000000
1.000000 0.245161 0.000000
1.000000 0.258065 0.000000
1.000000 0.270968 0.000000
1.000000 0.283871 0.000000
1.000000 0.296774 0.000000
1.000000 0.309677 0.000000
1.000000 0.322581 0.000000
1.000000 0.335484 0.000000
1.000000 0.348387 0.000000
1.000000 0.361290 0.000000
1.000000 0.374194 0.000000
1.000000 0.387097 0.000000
1.000000 0.400000 0.000000
1.000000 0.412903 0.000000
1.000000 0.425806 0.000000
1.000000 0.438710 0.000000
1.000000 0.451613 0.000000
1.000000 0.464516 0.000000
1.000000 0.477419 0.000000
1.000000 0.490323 0.000000
1.000000 0.503226 0.000000
1.000000 0.516129 0.000000
1.000000 0.529032 0.000000
1.000000 0.541935 0.000000
1.000000 0.554839 0.000000
1.000000 0.567742 0.000000
1.000000 0.580645 0.000000
1.000000 0.593548 0.000000
1.000000 0.606452 0.000000
1.000000 0.619355 0.000000
1.000000 0.632258 0.000000
1.000000 0.645161 0.000000
1.000000 0.658065 0.000000
1.000000 0.670968 0.000000
1.000000 0.683871 0.000000
1.000000 0.696774 0.000000
1.000000 0.709677 0.000000
1.000000 0.722581 0.000000
1.000000 0.735484 0.000000
1.000000 0.748387 0.000000
1.000000 0.761290 0.000000
1.000000 0.774194 0.000000
1.000000 0.787097 0.000000
1.000000 0.812500 0.000000
1.000000 0.825000 0.000000
1.000000 0.837500 0.000000
1.000000 0.850000 0.000000
1.000000 0.862500 0.000000
1.000000 0.875000 0.000000
1.000000 0.887500 0.000000
1.000000 0.900000 0.000000
1.000000 0.912500 0.000000
1.000000 0.925000 0.000000
1.000000 0.937500 0.000000
1.000000 0.950000 0.000000
1.000000 0.962500 0.000000
1.000000 0.975000 0.000000
1.000000 0.987500 0.000000
0.987013 1.000000 0.000000
0.974026 1.000000 0.000000
0.961039 1.000000 0.000000
0.948052 1.000000 0.000000
0.935065 1.000000 0.000000
0.922078 1.000000 0.000000
0.909091 1.000000 0.000000
0.896104 1.000000 0.000000
0.883117 1.000000 0.000000
0.870130 1.000000 0.000000
0.857143 1.000000 0.000000
0.844156 1.000000 0.000000
0.831169 1.000000 0.000000
0.818182 1.000000 0.000000
0.805195 1.000000 0.000000
0.792208 1.000000 0.000000
0.779221 1.000000 0.000000
0.766234 1.000000 0.000000
0.753247 1.000000 0.000000
0.740260 1.000000 0.000000
0.727273 1.000000 0.000000
0.714286 1.000000 0.000000
0.701299 1.000000 0.000000
0.688312 1.000000 0.000000
0.675325 1.000000 0.000000
0.662338 1.000000 0.000000
0.649351 1.000000 0.000000
0.636364 1.000000 0.000000
0.623377 1.000000 0.000000
0.610390 1.000000 0.000000
0.597403 1.000000 0.000000
0.584416 1.000000 0.000000
0.571429 1.000000 0.000000
0.558442 1.000000 0.000000
0.545455 1.000000 0.000000
0.532468 1.000000 0.000000
0.519481 1.000000 0.000000
0.506494 1.000000 0.000000
0.493506 1.000000 0.000000
0.480519 1.000000 0.000000
0.467532 1.000000 0.000000
0.454545 1.000000 0.000000
0.441558 1.000000 0.000000
0.428571 1.000000 0.000000
0.415584 1.000000 0.000000
0.402597 1.000000 0.000000
0.389610 1.000000 0.000000
0.376623 1.000000 0.000000
0.363636 1.000000 0.000000
0.350649 1.000000 0.000000
0.337662 1.000000 0.000000
0.324675 1.000000 0.000000
0.311688 1.000000 0.000000
0.298701 1.000000 0.000000
0.285714 1.000000 0.000000
0.272727 1.000000 0.000000
0.259740 1.000000 0.000000
0.246753 1.000000 0.000000
0.233766 1.000000 0.000000
0.220779 1.000000 0.000000
0.207792 1.000000 0.000000
0.194805 1.000000 0.000000
0.181818 1.000000 0.000000
0.168831 1.000000 0.000000
0.155844 1.000000 0.000000
0.142857 1.000000 0.000000
0.129870 1.000000 0.000000
0.116883 1.000000 0.000000
0.103896 1.000000 0.000000
0.090909 1.000000 0.000000
0.077922 1.000000 0.000000
0.064935 1.000000 0.000000
0.051948 1.000000 0.000000
0.038961 1.000000 0.000000
0.025974 1.000000 0.000000
0.012987 1.000000 0.000000
0.000000 0.987097 0.000000
0.000000 0.974194 0.000000
0.000000 0.961290 0.000000
0.000000 0.948387 0.000000
0.000000 0.935484 0.000000
0.000000 0.922581 0.000000
0.000000 0.909677 0.000000
0.000000 0.896774 0.000000
0.000000 0.883871 0.000000
0.000000 0.870968 0.000000
0.000000 0.858065 0.000000
0.000000 0.845161 0.000000
0.000000 0.832258 0.000000
0.000000 0.819355 0.000000
0.000000 0.806452 0.000000
0.000000 0.793548 0.000000
0.000000 0.780645 0.000000
0.000000 0.767742 0.000000
0.000000 0.754839 0.000000
0.000000 0.741935 0.000000
0.000000 0.729032 0.000000
0.000000 0.716129 0.000000
0.000000 0.703226 0.000000
0.000000 0.690323 0.000000
0.000000 0.677419 0.000000
0.000000 0.664516 0.000000
0.000000 0.651613 0.000000
0.000000 0.638710 0.000000
0.000000 0.625806 0.000000
0.000000 0.612903 0.000000
0.000000 0.600000 0.000000
0.000000 0.587097 0.000000
0.000000 0.574194 0.000000
0.000000 0.561290 0.000000
0.000000 0.548387 0.000000
0.000000 0.535484 0.000000
0.000000 0.522581 0.000000
0.000000 0.509677 0.000000
0.000000 0.496774 0.000000
0.000000 0.483871 0.000000
0.000000 0.470968 0.000000
0.000000 0.458065 0.000000
0.000000 0.445161 0.000000
0.000000 0.432258 0.000000
0.000000 0.419355 0.000000
0.000000 0.406452 0.000000
0.000000 0.393548 0.000000
0.000000 0.380645 0.000000
0.000000 0.367742 0.000000
0.000000 0.354839 0.000000
0.000000 0.341935 0.000000
0.000000 0.329032 0.000000
0.000000 0.316129 0.000000
0.000000 0.303226 0.000000
0.000000 0.290323 0.000000
0.000000 0.277419 0.000000
0.000000 0.264516 0.000000
0.000000 0.251613 0.000000
0.000000 0.238710 0.000000
0.000000 0.225806 0.000000
0.000000 0.212903 0.000000
0.000000 0.187500 0.000000
0.000000 0.175000 0.000000
0.000000 0.162500 0.000000
0.000000 0.150000 0.000000
0.000000 0.137500 0.000000
0.000000 0.125000 0.000000
0.000000 0.112500 0.000000
0.000000 0.100000 0.000000
0.000000 0.087500 0.000000
0.000000 0.075000 0.000000
0.000000 0.062500 0.000000
0.000000 0.050000 0.000000
0.000000 0.037500 0.000000
0.000000 0.025000 0.000000
0.000000 0.012500 0.000000
0.309756 0.338537 0.000000
0.319512 0.347073 0.000000
0.329268 0.355610 0.000000
0.339024 0.364146 0.000000
0.348780 0.372683 0.000000
0.358537 0.381220 0.000000
0.368293 0.389756 0.000000
0.378049 0.398293 0.000000
0.387805 0.406829 0.000000
0.397561 0.415366 0.000000
0.407317 0.423902 0.000000
0.417073 0.432439 0.000000
0.426829 0.440976 0.000000
0.436585 0.449512 0.000000
0.446341 0.458049 0.000000
0.456098 0.466585 0.000000
0.465854 0.475122 0.000000
0.475610 0.483659 0.000000
0.485366 0.492195 0.000000
0.495122 0.500732 0.000000
0.504878 0.509268 0.000000
0.514634 0.517805 0.000000
0.524390 0.526341 0.000000
0.534146 0.534878 0.000000
0.543902 0.543415 0.000000
0.553659 0.551951 0.000000
0.563415 0.560488 0.000000
0.573171 0.569024 0.000000
0.582927 0.577561 0.000000
0.592683 0.586098 0.000000
0.602439 0.594634 0.000000
0.612195 0.603171 0.000000
0.621951 0.611707 0.000000
0.631707 0.620244 0.000000
0.641463 0.628780 0.000000
0.651220 0.637317 0.000000
0.660976 0.645854 0.000000
0.670732 0.654390 0.000000
0.680488 0.662927 0.000000
0.690244 0.671463 0.000000
0.011538 0.205000 0.000000
0.023077 0.210000 0.000000
0.034615 0.215000 0.000000
0.046154 0.220000 0.000000
0.057692 0.225000 0.000000
0.069231 0.230000 0.000000
0.080769 0.235000 0.000000
0.092308 0.240000 0.000000
0.103846 0.245000 0.000000
0.115385 0.250000 0.000000
0.126923 0.255000 0.000000
0.138462 0.260000 0.000000
0.150000 0.265000 0.000000
0.161538 0.270000 0.000000
0.173077 0.275000 0.000000
[...]
POINT_DATA 7607
SCALARS UX float 1
LOOKUP_TABLE default
0.005888
0.001988
-0.166674
-0.472900
-0.582016
-0.113303
-0.193546
-0.317395
-0.002029
0.000128
0.001887
0.001295
0.010338
0.000277
-0.000211
0.009804
0.000251
0.000847
-0.000288
0.000090
0.000149
-0.000067
-0.000171
0.000187
-0.000096
0.000304
0.000081
-0.001264
-0.000145
-0.000151
-0.000459
-0.008390
0.000185
-0.000182
-0.000124
-0.000422
0.000303
0.000121
0.002573
0.000073
0.001133
-0.002205
0.000021
0.004620
0.000187
0.000201
-0.002810
-0.000020
-0.000343
0.000137
0.000045
-0.003915
-0.000242
-0.001354
-0.000102
-0.000509
0.000021
-0.000069
0.000044
-0.000923
-0.001464
0.000430
-0.000289
-0.000690
0.004032
0.000837
-0.006560
0.000236
0.001855
0.000544
-0.001068
-0.000431
-0.005261
0.000074
0.005142
0.002976
-0.006478
0.000046
-0.000844
0.001976
0.000143
0.000126
-0.000199
-0.010132
-0.000865
0.014783
0.003254
0.012942
0.009517
0.010467
0.008076
0.016387
0.035245
0.031733
0.023375
0.029026
0.024219
0.046010
0.019897
0.024720
0.041821
0.041276
0.041550
0.051715
0.041933
0.051996
0.057853
0.036604
0.049444
0.061236
0.044747
0.073897
0.060661
0.060122
0.064950
0.055036
0.069894
0.065048
0.085251
0.051605
0.075688
0.080359
0.059528
0.064197
0.091128
0.064808
0.076449
0.079997
0.060381
0.073532
0.084471
0.057662
0.086538
0.042204
0.050096
0.059639
0.049437
0.046597
0.065934
0.012303
0.010250
-0.005162
0.007586
0.051217
-0.073374
-0.179981
-0.209223
-0.305376
-0.337164
-0.454055
-0.363456
-0.426080
-0.416477
-0.447998
-0.436776
-0.455084
-0.454990
-0.427068
-0.476928
-0.460570
-0.449958
-0.466931
-0.465879
-0.487289
-0.481084
-0.481483
-0.476227
-0.490946
-0.486340
-0.485404
-0.485168
-0.487396
-0.486233
-0.481625
-0.489937
-0.493087
-0.479993
-0.498591
-0.500281
-0.493288
-0.492690
-0.494713
-0.492119
-0.495850
-0.498903
-0.497343
-0.501820
-0.498524
-0.501872
-0.504592
-0.500297
-0.510407
-0.509217
-0.511721
-0.515499
-0.513098
-0.511465
-0.516689
-0.515109
-0.516580
-0.519990
-0.518084
-0.531856
-0.515752
-0.522281
-0.534807
-0.522793
-0.533847
-0.528803
-0.540769
-0.543734
-0.547637
-0.551391
-0.550411
-0.549792
-0.559996
-0.550018
-0.563514
-0.566748
-0.551489
-0.574747
-0.565309
-0.567285
-0.563142
-0.574293
-0.580275
-0.573627
-0.580948
-0.582164
-0.579228
-0.580511
-0.582658
-0.587261
-0.587409
-0.586456
-0.588195
-0.590281
-0.591325
-0.591923
-0.580234
-0.586652
-0.575486
-0.582937
-0.582461
-0.588292
-0.585010
-0.581267
-0.602916
-0.587948
-0.589064
-0.583889
-0.586735
-0.593508
-0.588675
-0.585228
-0.578162
-0.587118
-0.585978
-0.583033
-0.579022
-0.587159
-0.576150
-0.574385
-0.588784
-0.578149
-0.577605
-0.558443
-0.548662
-0.557675
-0.567213
-0.566292
-0.565495
-0.556603
-0.563049
-0.558092
-0.566429
-0.548642
-0.552402
-0.543173
-0.542506
-0.538664
-0.534747
-0.530240
-0.534227
-0.513161
-0.507451
-0.488632
-0.493485
-0.459731
-0.460689
-0.433195
-0.397766
-0.365025
-0.371762
-0.329478
-0.228466
-0.328939
-0.226285
-0.090646
-0.161466
-0.080657
-0.002948
-0.048478
-0.035278
-0.022479
-0.021585
-0.020189
-0.012267
-0.017455
-0.015000
-0.005550
-0.007190
-0.136323
-0.126381
-0.210976
-0.241350
-0.132444
-0.099096
-0.146484
-0.248087
-0.155972
-0.171965
-0.245718
-0.230205
-0.125756
-0.173523
-0.244253
-0.196009
-0.115613
-0.189549
-0.262638
-0.197443
-0.176650
-0.205570
-0.405314
-0.159821
-0.216300
-0.295075
-0.309374
-0.315646
-0.332521
-0.369434
-0.202014
-0.287157
-0.262206
-0.182165
-0.212278
-0.156284
-0.363120
-0.278611
-0.429404
-0.410895
-0.178118
-0.343015
-0.079875
-0.254956
-0.200970
-0.286839
-0.324742
-0.228276
-0.336344
-0.107905
-0.349786
-0.225332
-0.316079
-0.301623
-0.327573
-0.421962
-0.425359
-0.243341
-0.127214
-0.488386
-0.150708
-0.374653
-0.202264
-0.267460
-0.161002
-0.276289
-0.000307
-0.120237
0.059015
-0.231664
0.127158
-0.136531
-0.257239
-0.115751
-0.208110
-0.078699
-0.191679
-0.190568
-0.117138
-0.248323
-0.143661
-0.132481
-0.195925
-0.069674
-0.226871
-0.211620
-0.105080
-0.111472
-0.241421
-0.487171
-0.495235
-0.502468
-0.487755
0.009217
-0.001335
-0.006877
-0.454952
-0.327646
-0.483899
-0.322585
-0.325122
-0.251974
-0.012351
0.006027
0.010210
-0.376080
-0.571174
-0.573352
-0.596624
0.030064
0.010750
0.018595
0.005695
-0.101343
-0.035368
-0.115850
-0.057010
-0.001181
-0.000739
-0.372172
-0.348888
-0.523842
-0.458043
-0.074493
-0.070036
0.014085
0.002670
-0.006900
-0.006911
-0.574328
-0.571683
-0.582294
-0.586916
-0.308850
-0.461256
-0.207029
-0.278468
0.041312
0.009443
0.026146
-0.487654
-0.502838
0.003404
0.034309
0.009032
0.052883
-0.507482
-0.494320
-0.486708
0.020847
-0.379613
-0.487256
-0.452285
-0.431475
-0.437683
-0.043596
-0.068317
-0.013558
-0.488322
-0.575644
-0.575710
-0.017814
0.019103
-0.012984
-0.007518
-0.017339
-0.017684
-0.532115
-0.533196
-0.532978
-0.022878
-0.502438
-0.497977
-0.478854
0.023156
0.032586
0.002167
0.020864
0.004485
-0.013436
-0.021502
-0.071395
-0.014084
-0.025447
-0.024550
-0.011441
0.041946
0.063879
-0.546182
-0.172602
-0.297287
-0.423033
-0.367959
-0.473570
-0.444208
-0.529111
-0.496382
-0.538101
-0.473153
-0.017654
0.009618
0.005096
0.005234
0.053468
0.047041
-0.497964
-0.489513
-0.481378
0.021252
0.022888
0.004126
-0.462186
-0.449768
-0.482836
-0.463327
0.033980
-0.026216
0.008230
-0.019852
-0.006235
-0.487640
-0.028504
0.002082
0.002875
-0.014463
-0.536019
-0.492036
-0.461149
-0.509398
-0.503979
-0.540066
-0.524553
-0.509903
-0.480411
-0.487429
-0.485968
-0.479113
-0.353829
-0.010656
-0.007481
-0.004545
-0.000036
-0.555487
-0.533031
-0.553314
-0.013742
-0.010561
-0.002684
-0.594566
-0.574020
-0.575751
-0.016534
-0.451535
-0.470075
-0.492344
-0.526908
-0.521511
-0.493198
-0.576910
-0.568410
-0.578158
-0.504281
0.040977
0.035309
0.033786
0.037904
0.026722
-0.009598
0.012403
0.016800
0.029748
0.015261
-0.521332
-0.509156
-0.489072
-0.509592
-0.503259
-0.501605
-0.012458
-0.023165
-0.012997
-0.006010
0.010196
0.034986
-0.008394
-0.050550
-0.014709
-0.044480
-0.058979
-0.514793
-0.527094
-0.533015
-0.515051
-0.007577
0.025423
0.000392
0.009089
0.018198
0.013375
0.030367
0.054362
0.041745
0.037630
-0.166355
0.032673
-0.534854
-0.527244
-0.526624
-0.418481
-0.452868
-0.460908
-0.394215
0.001884
0.039390
0.048929
0.053463
-0.017540
0.002080
-0.028728
-0.509332
-0.518307
-0.520737
-0.496165
-0.513662
-0.548724
-0.568976
-0.555372
-0.570145
-0.000427
-0.018587
0.008995
-0.489593
-0.542085
-0.520596
-0.006645
0.020073
-0.017275
0.018807
0.000203
0.044503
-0.005713
-0.027264
-0.016540
-0.015871
-0.027494
-0.577355
-0.583859
-0.011874
-0.025098
0.001613
0.010183
0.009187
-0.000384
-0.019654
-0.005015
0.010207
-0.440986
-0.430639
-0.578367
-0.587413
-0.566486
-0.033930
-0.017610
0.035662
0.028686
0.008098
0.015264
-0.030596
-0.010585
0.015010
-0.003072
-0.002314
0.004661
-0.511970
-0.523840
-0.550023
-0.503535
-0.506311
-0.470377
-0.533655
-0.436149
-0.009382
-0.069249
-0.008577
0.023948
-0.540764
-0.520357
-0.508851
-0.507569
0.002622
0.069663
0.029184
0.012638
-0.010708
-0.482008
-0.473658
-0.470609
-0.018623
-0.458145
-0.474955
-0.486455
0.020423
-0.480825
-0.545898
-0.570982
-0.538865
-0.012522
0.011900
-0.012254
-0.531695
-0.540218
-0.519571
-0.016107
-0.006846
0.002650
-0.008769
0.027281
0.008085
-0.016614
-0.471617
-0.475571
-0.445163
-0.495807
-0.486908
-0.504409
-0.537862
0.017834
0.031725
-0.001887
0.012375
0.008829
0.011453
-0.571787
-0.588355
-0.586741
-0.476697
-0.463858
-0.547422
-0.020050
-0.037530
0.031960
-0.052928
-0.016158
0.026543
0.023191
0.024182
-0.487702
-0.541142
-0.496552
-0.537836
-0.540564
-0.502056
-0.024345
0.015100
-0.015437
-0.019653
0.043176
0.010444
0.016087
0.045556
-0.098438
-0.090138
0.018769
0.011135
0.015350
0.018021
-0.520917
-0.519700
-0.493192
0.004101
0.004412
0.000894
0.005422
-0.029826
0.001922
-0.014436
-0.529984
-0.437241
-0.501317
-0.517512
-0.512151
-0.527472
-0.559600
-0.453582
-0.459473
-0.431910
-0.035756
-0.036591
-0.013821
-0.464555
-0.462647
-0.461707
-0.427214
-0.445952
0.009319
-0.010139
-0.560417
-0.575718
-0.573026
0.041957
0.007026
-0.492475
-0.512922
-0.014861
0.000287
-0.013342
0.000406
-0.024511
-0.026077
-0.016639
-0.000516
0.014935
0.009356
-0.472811
-0.478574
-0.044353
-0.000859
-0.003543
-0.513874
-0.506895
-0.506366
0.004431
-0.470888
-0.562641
-0.497004
0.079833
0.033740
0.021800
-0.585483
-0.583023
0.017836
0.015335
-0.561431
-0.553999
-0.565143
-0.505401
-0.445585
-0.007659
-0.028331
-0.014691
-0.010192
-0.020952
-0.562889
-0.556676
-0.586504
-0.590917
-0.548152
0.013681
0.036014
-0.548800
-0.534225
-0.535535
0.015048
0.007543
-0.446067
-0.464913
-0.456108
-0.455247
0.004453
0.010740
0.002093
-0.591625
-0.573822
-0.577434
-0.567992
-0.571762
-0.561767
-0.549050
-0.516067
-0.555517
-0.494666
0.002865
-0.004531
-0.003060
-0.004106
-0.024897
-0.008800
-0.003435
-0.583629
-0.585223
-0.583720
-0.447394
-0.417817
-0.410638
-0.432397
-0.521036
-0.485735
-0.528272
-0.582501
-0.583873
-0.595020
0.046025
0.088824
-0.554987
0.023886
-0.012207
-0.568760
-0.178410
-0.520144
0.060623
-0.589489
-0.569791
-0.015376
-0.598826
-0.596530
0.031022
-0.004609
-0.006548
-0.035986
-0.035069
-0.006637
-0.000004
-0.015075
0.008534
0.084065
0.028932
0.028020
0.056824
0.069364
-0.542745
-0.545837
-0.542419
-0.539830
0.016085
0.006381
0.017429
-0.036684
-0.004199
-0.433784
-0.448693
0.025987
-0.007013
-0.592279
-0.584593
-0.581723
-0.576746
-0.007579
-0.057507
-0.053476
-0.040624
-0.034082
0.040506
-0.037312
0.057280
0.033159
-0.477593
-0.476490
-0.480014
0.017944
-0.522921
-0.517529
-0.536449
-0.352695
-0.285621
-0.032859
-0.008269
-0.021318
-0.017178
-0.500882
-0.462708
-0.478671
-0.477546
-0.484281
-0.471926
-0.003000
-0.001084
-0.035872
0.009343
0.024017
-0.022859
-0.433580
-0.455079
-0.480714
-0.487796
-0.455431
-0.597541
-0.429824
-0.003395
0.002123
-0.009768
-0.025869
-0.022150
-0.314554
-0.387348
-0.541431
-0.520451
-0.505670
-0.394913
-0.330089
-0.525092
-0.530001
-0.520793
-0.524375
0.051294
-0.040963
-0.012119
-0.009125
-0.019191
-0.019279
-0.021528
-0.012376
-0.571437
-0.567548
-0.580433
-0.014698
-0.017468
-0.522003
-0.569271
-0.578596
-0.492910
-0.018480
-0.018948
-0.024520
-0.521229
-0.003397
-0.009293
-0.545848
-0.545447
0.006932
-0.010040
-0.000831
-0.015536
0.005277
0.009494
-0.001692
-0.004071
-0.558457
-0.587459
-0.584737
-0.542941
-0.538673
-0.541509
-0.522116
-0.012138
-0.013804
-0.025598
-0.021060
-0.063609
-0.018492
0.017960
0.007820
-0.088900
-0.053240
0.003180
-0.278379
-0.462921
-0.467966
-0.477855
-0.484041
-0.477479
-0.586179
-0.581633
-0.583320
-0.501117
-0.509917
-0.538139
-0.509685
0.036158
-0.018099
-0.037176
-0.024690
-0.577268
-0.310704
-0.284297
-0.266321
-0.582131
-0.565009
-0.578293
-0.357691
-0.330716
-0.459017
-0.163304
-0.029534
-0.486864
-0.022905
0.054348
-0.014300
0.033515
0.025597
-0.022236
-0.012331
-0.006747
0.010734
-0.452990
-0.453529
-0.014528
-0.521849
-0.548760
-0.011919
-0.002289
-0.480314
-0.570460
-0.007526
-0.043353
-0.032092
-0.025712
-0.457211
-0.455254
-0.437850
-0.018114
-0.002177
-0.598144
-0.028814
0.008813
-0.065621
-0.577252
-0.572928
-0.517573
0.023963
0.002253
-0.014199
-0.494945
0.028842
0.031310
-0.032052
-0.560296
-0.527181
-0.546086
-0.418389
-0.046000
-0.002474
0.000373
-0.488302
-0.517115
-0.483306
-0.476589
-0.463053
-0.496093
-0.003443
-0.006985
0.008522
0.009420
-0.146106
-0.132448
0.001738
-0.223015
-0.239370
-0.448335
-0.469927
-0.498322
-0.460055
-0.156067
-0.477143
-0.473320
-0.462474
-0.036502
-0.008838
-0.585914
-0.566819
-0.578522
-0.384622
-0.369000
-0.344678
-0.387118
-0.015325
-0.009913
-0.483539
-0.465080
-0.463368
0.030798
-0.058308
0.046047
-0.131852
-0.581256
-0.452468
-0.013837
0.003804
-0.006450
-0.575775
-0.016222
-0.014632
0.001458
0.000068
-0.596762
0.004679
0.011819
0.000579
0.019773
0.006014
-0.438643
-0.478271
-0.487763
-0.468174
-0.004336
-0.005911
0.000478
-0.005838
0.065584
0.073900
0.065164
0.066294
-0.581649
-0.594654
-0.570565
-0.526607
-0.504553
-0.005702
-0.017183
0.009963
0.005423
0.015574
-0.014193
0.018294
-0.490245
-0.385862
0.032081
0.023550
0.057975
-0.477078
-0.353044
-0.564841
-0.542950
-0.547853
-0.484350
0.014701
0.029181
0.013669
0.018358
-0.242456
-0.474065
-0.485151
-0.544344
0.001970
0.009324
-0.546734
0.029599
0.028707
-0.516237
-0.505435
-0.514643
-0.575448
-0.579849
-0.022159
-0.555007
-0.550650
-0.536963
-0.556784
0.058854
0.047644
0.075008
0.090384
-0.405383
-0.496281
-0.406445
-0.375090
-0.436018
-0.015054
0.010921
0.020218
0.052398
0.046844
0.060022
-0.017366
-0.023261
-0.016324
-0.597948
0.033498
-0.562157
-0.583155
-0.569610
-0.543304
-0.532518
-0.519928
-0.474900
-0.542584
0.004493
-0.017851
-0.505021
-0.039035
-0.025020
-0.009554
-0.019228
-0.514366
-0.502898
-0.504230
-0.023008
-0.013724
0.008149
0.007447
0.016528
-0.431178
-0.022744
-0.007492
-0.007437
-0.461096
-0.461797
-0.464633
-0.014902
0.007131
-0.095387
-0.005634
-0.015211
-0.576838
-0.570938
-0.577608
-0.239519
-0.552710
-0.559803
-0.568114
-0.567197
-0.580777
-0.556840
-0.308262
-0.359166
-0.376522
-0.341437
-0.327453
-0.371355
-0.037638
-0.014220
-0.127030
-0.513837
-0.469506
0.022345
-0.015224
0.067172
0.045545
0.023133
0.033352
-0.490739
-0.486506
-0.011278
-0.002462
-0.012485
0.021136
0.000815
-0.010786
-0.577831
-0.006715
-0.014193
-0.029989
-0.002012
-0.553979
-0.542873
-0.473169
-0.472531
-0.568219
-0.574232
-0.590662
-0.596158
-0.000498
0.002517
0.018218
-0.434620
-0.434837
-0.410997
-0.438203
-0.482917
0.054582
-0.116961
-0.487948
-0.459361
-0.232656
-0.482166
0.013211
0.071249
-0.487099
-0.526435
-0.137323
-0.240757
-0.010821
-0.021074
-0.012017
-0.501271
-0.496376
-0.504642
0.020340
0.108004
0.029540
-0.575057
-0.425702
-0.448073
-0.468425
-0.471166
-0.540225
-0.538390
-0.487460
-0.531966
-0.011023
-0.504428
-0.575921
-0.592719
-0.587472
0.007970
0.018684
0.015769
-0.019057
-0.009577
-0.490509
-0.456122
-0.462145
-0.003620
-0.014603
-0.014349
-0.009118
-0.011583
-0.467241
-0.460417
-0.306155
-0.333764
-0.456252
-0.333336
0.035199
0.049939
0.029001
-0.026827
-0.476920
-0.481954
-0.079739
-0.071922
-0.032777
0.009094
-0.001185
-0.002577
-0.450160
-0.452189
-0.020133
-0.010348
-0.475200
-0.421214
-0.009711
-0.015265
0.006371
-0.012870
-0.490428
-0.480010
-0.012793
-0.583878
-0.586895
-0.516201
0.003890
0.004595
-0.529481
-0.531059
-0.534063
-0.427445
-0.421623
-0.586862
-0.583474
0.003546
0.003693
-0.009777
-0.560428
-0.569941
-0.591926
-0.002443
-0.033548
-0.011045
0.003483
-0.523004
-0.373606
-0.355614
-0.387675
0.052970
0.046959
0.061776
-0.586909
0.047797
-0.548018
0.007502
-0.036039
-0.013979
-0.009822
0.019523
-0.576450
-0.584085
-0.576780
0.000171
0.005085
0.015536
0.055305
0.060573
0.071247
-0.083207
-0.043880
0.035386
0.043359
0.064488
0.000106
-0.091917
-0.081089
-0.110825
-0.004276
-0.011746
0.020323
0.021252
-0.030950
-0.485371
-0.011955
-0.008895
-0.007269
-0.017471
-0.017148
-0.441616
0.016826
-0.471099
-0.423501
-0.497844
-0.413344
-0.014604
-0.455594
-0.449159
-0.458479
-0.420784
-0.522909
-0.037872
-0.454672
-0.481159
-0.457342
-0.445317
-0.009514
-0.469588
-0.480049
-0.471449
-0.476567
-0.485631
-0.000314
-0.561053
-0.562083
-0.578370
0.001180
-0.581039
-0.587140
-0.004723
-0.004885
-0.008149
0.001391
-0.513048
0.080568
0.011015
-0.030874
-0.583670
-0.579118
-0.579265
0.011475
0.003372
0.002908
-0.537570
-0.475028
-0.348557
-0.488906
-0.514216
-0.524109
-0.533762
-0.544401
-0.531563
-0.532030
-0.494001
-0.354005
-0.487978
-0.017144
-0.473699
-0.466390
0.034460
0.035998
0.010074
-0.519153
-0.514996
-0.016819
-0.023525
-0.033906
-0.029065
-0.028944
0.032641
-0.479200
-0.582379
-0.575035
0.015810
-0.012341
-0.003968
-0.587689
-0.585869
-0.581165
0.017401
0.017578
0.013391
-0.489202
-0.486216
-0.499434
-0.492256
-0.465187
-0.481736
-0.008333
-0.005478
0.024569
0.001991
-0.477436
-0.477029
-0.469560
-0.481837
-0.499472
-0.517639
-0.515569
-0.388948
-0.469332
-0.477353
-0.474876
-0.026537
-0.022100
-0.009809
-0.011437
-0.505724
-0.528135
-0.554579
-0.517946
-0.526697
0.058162
-0.024557
-0.030839
-0.011909
0.053454
-0.087053
-0.481930
0.056358
-0.492516
-0.505479
-0.505241
-0.492471
-0.545699
-0.576240
-0.552931
-0.540967
-0.052038
-0.013597
-0.059960
-0.582672
-0.020749
-0.002569
-0.003967
-0.095914
-0.486339
-0.473320
-0.488537
0.066439
0.063381
0.073261
-0.465262
-0.490949
-0.016160
-0.572565
-0.006908
-0.008146
0.001895
0.011816
-0.023632
0.011438
0.004642
-0.034761
-0.024231
-0.477181
-0.480388
0.020290
0.031717
0.083181
-0.467041
-0.541402
-0.530145
0.092974
-0.500918
-0.516210
-0.513012
-0.432020
-0.523462
-0.450388
-0.520532
-0.557810
-0.503059
-0.497266
-0.497288
-0.018742
-0.339296
-0.007365
-0.012551
-0.471146
-0.491220
-0.477739
-0.520118
-0.500208
-0.526238
-0.412315
-0.490310
-0.538085
-0.565435
-0.555099
-0.497595
-0.510027
-0.499848
0.001704
0.012929
-0.011149
-0.583588
-0.580032
-0.577180
-0.284635
-0.245113
-0.023017
-0.010021
-0.473849
-0.546002
-0.543436
-0.001406
-0.003612
-0.009443
-0.033883
-0.014313
-0.478659
-0.486689
-0.559285
0.008179
0.029565
-0.526118
0.037507
0.045767
0.027146
0.029156
-0.559692
-0.591259
-0.535600
-0.470147
-0.510930
-0.495908
-0.002628
0.004303
-0.404768
-0.333745
-0.455729
-0.418579
-0.272547
-0.409270
-0.498435
-0.488542
-0.013092
-0.016156
-0.011122
-0.002231
-0.543745
-0.020995
-0.011347
-0.012061
-0.487791
-0.486235
-0.011419
0.057886
-0.028540
0.001759
0.006752
0.013016
-0.033827
-0.021389
0.007079
-0.009720
0.041322
-0.000390
-0.019332
-0.504729
-0.504180
-0.486286
-0.501126
-0.037604
-0.064491
-0.075305
-0.019781
-0.031129
-0.084777
-0.030914
-0.140034
0.046203
0.029121
0.019424
-0.506918
-0.466691
-0.008298
0.014262
-0.052962
-0.060603
-0.024273
-0.021758
-0.035256
-0.052975
0.029769
0.013503
0.018650
-0.022925
-0.011026
0.020910
-0.060840
0.091425
0.038264
-0.045416
0.059499
0.081163
0.099508
-0.045474
-0.480639
-0.489358
-0.473206
-0.445376
-0.500008
0.028072
0.008303
0.027813
-0.010359
0.026502
0.048148
0.075237
0.061914
-0.487936
-0.492145
-0.467661
-0.488694
-0.497825
-0.469472
-0.490179
-0.467260
-0.001286
-0.016898
-0.468138
-0.004852
0.062590
0.053914
0.074816
-0.132138
-0.103215
-0.296443
-0.001566
-0.019246
-0.578412
-0.578334
-0.020930
-0.056810
0.006741
-0.018259
-0.584566
-0.578675
-0.575801
-0.588581
-0.492579
-0.504949
-0.508938
-0.496285
-0.475586
-0.457796
-0.019352
-0.007846
-0.490893
-0.478550
-0.474363
-0.472122
0.046742
0.056620
0.053044
0.059386
0.043660
-0.467792
-0.464404
-0.480700
0.081139
0.062508
0.062977
-0.032449
-0.025595
-0.013635
-0.069876
-0.101316
-0.115459
-0.008623
-0.032133
-0.163093
-0.117072
-0.487528
-0.486301
-0.023393
-0.000010
0.079602
-0.005424
-0.471190
-0.481047
-0.490473
0.032418
-0.580001
-0.472298
-0.004618
0.000778
0.002890
0.000290
-0.008706
0.001804
-0.486097
-0.515684
-0.019254
-0.028538
0.000434
-0.581817
-0.034593
-0.006665
-0.030769
0.005918
0.001904
-0.488064
-0.491765
0.003862
-0.017332
0.003765
-0.012406
-0.567759
-0.524041
-0.556954
-0.565125
-0.029355
-0.011512
-0.010020
-0.033991
-0.009862
-0.024855
-0.479370
-0.489806
-0.019342
-0.020087
-0.025947
-0.013914
-0.034004
-0.552209
-0.554051
-0.532973
-0.544207
-0.529451
-0.526177
-0.546076
-0.030158
-0.496528
-0.495383
-0.491127
-0.477624
0.035016
-0.021276
0.000380
0.012627
0.001890
0.012482
-0.004106
-0.011989
-0.009242
-0.008499
-0.024787
-0.444206
-0.170434
-0.192455
-0.157674
-0.014394
0.028534
-0.092142
0.010215
-0.489747
-0.481452
-0.509549
-0.489063
-0.008630
-0.566267
-0.558819
-0.020572
-0.061339
-0.017684
-0.016035
-0.014612
-0.486407
-0.488429
-0.017281
-0.570489
-0.009191
0.001166
-0.014056
0.051922
0.038564
0.042162
-0.545362
-0.499338
-0.517217
-0.512073
-0.495032
-0.487927
0.003635
-0.482393
-0.492750
-0.490767
-0.487233
-0.015389
-0.055792
-0.002155
0.020341
0.032789
0.053792
0.022971
0.029917
-0.008919
0.000296
-0.002177
-0.012362
-0.041583
-0.043033
-0.490406
-0.019794
-0.031411
-0.013810
-0.007306
-0.004061
0.003399
-0.017710
-0.479879
-0.013039
-0.006304
-0.542858
0.019305
0.023486
0.036602
-0.488457
-0.490759
-0.588584
-0.586094
-0.551777
-0.554662
-0.541230
-0.550433
-0.542125
-0.541578
0.000662
0.032366
-0.021196
-0.478672
-0.493765
-0.169547