# vtk DataFile Version 2.0
Test
ASCII
DATASET POLYDATA
POINTS 7607 float
0.000000 0.000000 0.000000
1.000000 0.000000 0.000000
1.000000 0.800000 0.000000
1.000000 1.000000 0.000000
0.000000 1.000000 0.000000
0.000000 0.200000 0.000000
0.300000 0.330000 0.000000
0.700000 0.680000 0.000000
0.012987 0.000000 0.000000
0.025974 0.000000 0.000000
0.038961 0.000000 0.000000
0.051948 0.000000 0.000000
0.064935 0.000000 0.000000
0.077922 0.000000 0.000000
0.090909 0.000000 0.000000
0.103896 0.000000 0.000000
0.116883 0.000000 0.000000
0.129870 0.000000 0.000000
0.142857 0.000000 0.000000
0.155844 0.000000 0.000000
0.168831 0.000000 0.000000
0.181818 0.000000 0.000000
0.194805 0.000000 0.000000
0.207792 0.000000 0.000000
0.220779 0.000000 0.000000
0.233766 0.000000 0.000000
0.246753 0.000000 0.000000
0.259740 0.000000 0.000000
0.272727 0.000000 0.000000
0.285714 0.000000 0.000000
0.298701 0.000000 0.000000
0.311688 0.000000 0.000000
0.324675 0.000000 0.000000
0.337662 0.000000 0.000000
0.350649 0.000000 0.000000
0.363636 0.000000 0.000000
0.376623 0.000000 0.000000
0.389610 0.000000 0.000000
0.402597 0.000000 0.000000
0.415584 0.000000 0.000000
0.428571 0.000000 0.000000
0.441558 0.000000 0.000000
0.454545 0.000000 0.000000
0.467532 0.000000 0.000000
0.480519 0.000000 0.000000
0.493506 0.000000 0.000000
0.506494 0.000000 0.000000
0.519481 0.000000 0.000000
0.532468 0.000000 0.000000
0.545455 0.000000 0.000000
0.558442 0.000000 0.000000
0.571429 0.000000 0.000000
0.584416 0.000000 0.000000
0.597403 0.000000 0.000000
0.610390 0.000000 0.000000
0.623377 0.000000 0.000000
0.636364 0.000000 0.000000
0.649351 0.000000 0.000000
0.662338 0.000000 0.000000
0.675325 0.000000 0.000000
0.688312 0.000000 0.000000
0.701299 0.000000 0.000000
0.714286 0.000000 0.000000
0.727273 0.000000 0.000000
0.740260 0.000000 0.000000
0.753247 0.000000 0.000000
0.766234 0.000000 0.000000
0.779221 0.000000 0.000000
0.792208 0.000000 0.000000
0.805195 0.000000 0.000000
0.818182 0.000000 0.000000
0.831169 0.000000 0.000000
0.844156 0.000000 0.000000
0.857143 0.000000 0.000000
0.870130 0.000000 0.000000
0.883117 0.000000 0.000000
0.896104 0.000000 0.000000
0.909091 0.000000 0.000000
0.922078 0.000000 0.000000
0.935065 0.000000 0.000000
0.948052 0.000000 0.000000
0.961039 0.000000 0.000000
0.974026 0.000000 0.000000
0.987013 0.000000 0.000000
1.000000 0.012903 0.000000
1.000000 0.025806 0.000000
1.000000 0.038710 0.000000
1.000000 0.051613 0.000000
1.000000 0.064516 0.000000
1.000000 0.077419 0.000000
1.000000 0.090323 0.000000
1.000000 0.103226 0.000000
1.000000 0.116129 0.000000
1.000000 0.129032 0.000000
1.000000 0.141935 0.000000
1.000000 0.154839 0.000000
1.000000 0.167742 0.000000
1.000000 0.180645 0.000000
1.000000 0.193548 0.000000
1.000000 0.206452 0.000000
1.000000 0.219355 0.000000
1.000000 0.232258 0.000000
1.000000 0.245161 0.000000
1.000000 0.258065 0.000000
1.000000 0.270968 0.000000
1.000000 0.283871 0.000000
1.000000 0.296774 0.000000
1.000000 0.309677 0.000000
1.000000 0.322581 0.000000
1.000000 0.335484 0.000000
1.000000 0.348387 0.000000
1.000000 0.361290 0.000000
1.000000 0.374194 0.000000
1.000000 0.387097 0.000000
1.000000 0.400000 0.000000
1.000000 0.412903 0.000000
1.000000 0.425806 0.000000
1.000000 0.438710 0.000000
1.000000 0.451613 0.000000
1.000000 0.464516 0.000000
1.000000 0.477419 0.000000
1.000000 0.490323 0.000000
1.000000 0.503226 0.000000
1.000000 0.516129 0.000000
1.000000 0.529032 0.000000
1.000000 0.541935 0.000000
1.000000 0.554839 0.000000
1.000000 0.567742 0.000000
1.000000 0.580645 0.000000
1.000000 0.593548 0.000000
1.000000 0.606452 0.000000
1.000000 0.619355 0.000000
1.000000 0.632258 0.000000
1.000000 0.645161 0.000000
1.000000 0.658065 0.000000
1.000000 0.670968 0.000000
1.000000 0.683871 0.000000
1.000000 0.696774 0.000000
1.000000 0.709677 0.000000
1.000000 0.722581 0.000000
1.000000 0.735484 0.000000
1.000000 0.748387 0.000000
1.000000 0.761290 0.000000
1.000000 0.774194 0.000000
1.000000 0.787097 0.000000
1.000000 0.812500 0.000000
1.000000 0.825000 0.000000
1.000000 0.837500 0.000000
1.000000 0.850000 0.000000
1.000000 0.862500 0.000000
1.000000 0.875000 0.000000
1.000000 0.887500 0.000000
1.000000 0.900000 0.000000
1.000000 0.912500 0.000000
1.000000 0.925000 0.000000
1.000000 0.937500 0.000000
1.000000 0.950000 0.000000
1.000000 0.962500 0.000000
1.000000 0.975000 0.000000
1.000000 0.987500 0.000000
0.987013 1.000000 0.000000
0.974026 1.000000 0.000000
0.961039 1.000000 0.000000
0.948052 1.000000 0.000000
0.935065 1.000000 0.000000
0.922078 1.000000 0.000000
0.909091 1.000000 0.000000
0.896104 1.000000 0.000000
0.883117 1.000000 0.000000
0.870130 1.000000 0.000000
0.857143 1.000000 0.000000
0.844156 1.000000 0.000000
0.831169 1.000000 0.000000
0.818182 1.000000 0.000000
0.805195 1.000000 0.000000
0.792208 1.000000 0.000000
0.779221 1.000000 0.000000
0.766234 1.000000 0.000000
0.753247 1.000000 0.000000
0.740260 1.000000 0.000000
0.727273 1.000000 0.000000
0.714286 1.000000 0.000000
0.701299 1.000000 0.000000
0.688312 1.000000 0.000000
0.675325 1.000000 0.000000
0.662338 1.000000 0.000000
0.649351 1.000000 0.000000
0.636364 1.000000 0.000000
0.623377 1.000000 0.000000
0.610390 1.000000 0.000000
0.597403 1.000000 0.000000
0.584416 1.000000 0.000000
0.571429 1.000000 0.000000
0.558442 1.000000 0.000000
0.545455 1.000000 0.000000
0.532468 1.000000 0.000000
0.519481 1.000000 0.000000
0.506494 1.000000 0.000000
0.493506 1.000000 0.000000
0.480519 1.000000 0.000000
0.467532 1.000000 0.000000
0.454545 1.000000 0.000000
0.441558 1.000000 0.000000
0.428571 1.000000 0.000000
0.415584 1.000000 0.000000
0.402597 1.000000 0.000000
0.389610 1.000000 0.000000
0.376623 1.000000 0.000000
0.363636 1.000000 0.000000
0.350649 1.000000 0.000000
0.337662 1.000000 0.000000
0.324675 1.000000 0.000000
0.311688 1.000000 0.000000
0.298701 1.000000 0.000000
0.285714 1.000000 0.000000
0.272727 1.000000 0.000000
0.259740 1.000000 0.000000
0.246753 1.000000 0.000000
0.233766 1.000000 0.000000
0.220779 1.000000 0.000000
0.207792 1.000000 0.000000
0.194805 1.000000 0.000000
0.181818 1.000000 0.000000
0.168831 1.000000 0.000000
0.155844 1.000000 0.000000
0.142857 1.000000 0.000000
0.129870 1.000000 0.000000
0.116883 1.000000 0.000000
0.103896 1.000000 0.000000
0.090909 1.000000 0.000000
0.077922 1.000000 0.000000
0.064935 1.000000 0.000000
0.051948 1.000000 0.000000
0.038961 1.000000 0.000000
0.025974 1.000000 0.000000
0.012987 1.000000 0.000000
0.000000 0.987097 0.000000
0.000000 0.974194 0.000000
0.000000 0.961290 0.000000
0.000000 0.948387 0.000000
0.000000 0.935484 0.000000
0.000000 0.922581 0.000000
0.000000 0.909677 0.000000
0.000000 0.896774 0.000000
0.000000 0.883871 0.000000
0.000000 0.870968 0.000000
0.000000 0.858065 0.000000
0.000000 0.845161 0.000000
0.000000 0.832258 0.000000
0.000000 0.819355 0.000000
0.000000 0.806452 0.000000
0.000000 0.793548 0.000000
0.000000 0.780645 0.000000
0.000000 0.767742 0.000000
0.000000 0.754839 0.000000
0.000000 0.741935 0.000000
0.000000 0.729032 0.000000
0.000000 0.716129 0.000000
0.000000 0.703226 0.000000
0.000000 0.690323 0.000000
0.000000 0.677419 0.000000
0.000000 0.664516 0.000000
0.000000 0.651613 0.000000
0.000000 0.638710 0.000000
0.000000 0.625806 0.000000
0.000000 0.612903 0.000000
0.000000 0.600000 0.000000
0.000000 0.587097 0.000000
0.000000 0.574194 0.000000
0.000000 0.561290 0.000000
0.000000 0.548387 0.000000
0.000000 0.535484 0.000000
0.000000 0.522581 0.000000
0.000000 0.509677 0.000000
0.000000 0.496774 0.000000
0.000000 0.483871 0.000000
0.000000 0.470968 0.000000
0.000000 0.458065 0.000000
0.000000 0.445161 0.000000
0.000000 0.432258 0.000000
0.000000 0.419355 0.000000
0.000000 0.406452 0.000000
0.000000 0.393548 0.000000
0.000000 0.380645 0.000000
0.000000 0.367742 0.000000
0.000000 0.354839 0.000000
0.000000 0.341935 0.000000
0.000000 0.329032 0.000000
0.000000 0.316129 0.000000
0.000000 0.303226 0.000000
0.000000 0.290323 0.000000
0.000000 0.277419 0.000000
0.000000 0.264516 0.000000
0.000000 0.251613 0.000000
0.000000 0.238710 0.000000
0.000000 0.225806 0.000000
0.000000 0.212903 0.000000
0.000000 0.187500 0.000000
0.000000 0.175000 0.000000
0.000000 0.162500 0.000000
0.000000 0.150000 0.000000
0.000000 0.137500 0.000000
0.000000 0.125000 0.000000
0.000000 0.112500 0.000000
0.000000 0.100000 0.000000
0.000000 0.087500 0.000000
0.000000 0.075000 0.000000
0.000000 0.062500 0.000000
0.000000 0.050000 0.000000
0.000000 0.037500 0.000000
0.000000 0.025000 0.000000
0.000000 0.012500 0.000000
0.309756 0.338537 0.000000
0.319512 0.347073 0.000000
0.329268 0.355610 0.000000
0.339024 0.364146 0.000000
0.348780 0.372683 0.000000
0.358537 0.381220 0.000000
0.368293 0.389756 0.000000
0.378049 0.398293 0.000000
0.387805 0.406829 0.000000
0.397561 0.415366 0.000000
0.407317 0.423902 0.000000
0.417073 0.432439 0.000000
0.426829 0.440976 0.000000
0.436585 0.449512 0.000000
0.446341 0.458049 0.000000
0.456098 0.466585 0.000000
0.465854 0.475122 0.000000
0.475610 0.483659 0.000000
0.485366 0.492195 0.000000
0.495122 0.500732 0.000000
0.504878 0.509268 0.000000
0.514634 0.517805 0.000000
0.524390 0.526341 0.000000
0.534146 0.534878 0.000000
0.543902 0.543415 0.000000
0.553659 0.551951 0.000000
0.563415 0.560488 0.000000
0.573171 0.569024 0.000000
0.582927 0.577561 0.000000
0.592683 0.586098 0.000000
0.602439 0.594634 0.000000
0.612195 0.603171 0.000000
0.621951 0.611707 0.000000
0.631707 0.620244 0.000000
0.641463 0.628780 0.000000
0.651220 0.637317 0.000000
0.660976 0.645854 0.000000
0.670732 0.654390 0.000000
0.680488 0.662927 0.000000
0.690244 0.671463 0.000000
0.011538 0.205000 0.000000
0.023077 0.210000 0.000000
0.034615 0.215000 0.000000
0.046154 0.220000 0.000000
0.057692 0.225000 0.000000
0.069231 0.230000 0.000000
0.080769 0.235000 0.000000
0.092308 0.240000 0.000000
0.103846 0.245000 0.000000
0.115385 0.250000 0.000000
0.126923 0.255000 0.000000
0.138462 0.260000 0.000000
0.150000 0.265000 0.000000
0.161538 0.270000 0.000000
0.173077 0.275000 0.000000
[...]
POINT_DATA 7607
SCALARS UX float 1
LOOKUP_TABLE default
-0.000001
0.000001
0.011648
0.008509
-0.013524
-0.011315
-0.008920
0.007437
-0.000000
-0.000000
-0.000000
0.000000
0.000000
-0.000000
0.000000
-0.000000
0.000000
0.000000
0.000000
-0.000000
0.000000
-0.000000
0.000000
-0.000000
0.000000
-0.000000
-0.000000
0.000000
0.000000
-0.000000
0.000000
0.000000
0.000000
0.000000
0.000000
-0.000000
0.000000
-0.000000
0.000000
-0.000000
-0.000000
-0.000000
0.000000
-0.000000
-0.000000
-0.000000
0.000000
0.000000
-0.000000
-0.000000
-0.000000
-0.000000
0.000000
0.000000
0.000000
-0.000000
0.000000
0.000000
-0.000000
-0.000000
0.000000
-0.000000
-0.000000
-0.000000
-0.000000
0.000000
0.000000
-0.000000
0.000000
0.000000
0.000000
-0.000000
-0.000000
0.000000
0.000000
-0.000000
-0.000000
-0.000000
-0.000000
-0.000000
0.000000
0.000000
-0.000002
0.000001
0.001250
0.002433
0.003277
0.004009
0.004634
0.005219
0.005762
0.006257
0.006741
0.007189
0.007625
0.008033
0.008435
0.008821
0.009185
0.009550
0.009908
0.010266
0.010580
0.010924
0.011254
0.011590
0.011902
0.012215
0.012520
0.012811
0.013122
0.013403
0.013688
0.013960
0.014230
0.014488
0.014728
0.014967
0.015183
0.015393
0.015580
0.015739
0.015888
0.016022
0.016118
0.016177
0.016231
0.016242
0.016222
0.016159
0.016078
0.015949
0.015792
0.015595
0.015371
0.015112
0.014821
0.014503
0.014183
0.013834
0.013456
0.013099
0.012720
0.012337
0.011969
0.011305
0.010972
0.010653
0.010349
0.010061
0.009813
0.009556
0.009353
0.009156
0.008974
0.008838
0.008730
0.008638
0.008568
0.008529
0.008094
0.007686
0.007285
0.006891
0.006502
0.006125
0.005768
0.005413
0.005072
0.004733
0.004400
0.004076
0.003758
0.003451
0.003150
0.002867
0.002580
0.002305
0.002043
0.001793
0.001547
0.001312
0.001088
0.000870
0.000664
0.000462
0.000259
0.000063
-0.000130
-0.000325
-0.000522
-0.000720
-0.000922
-0.001128
-0.001337
-0.001550
-0.001769
-0.001993
-0.002224
-0.002462
-0.002708
-0.002957
-0.003211
-0.003472
-0.003737
-0.004007
-0.004281
-0.004560
-0.004837
-0.005128
-0.005421
-0.005715
-0.006009
-0.006305
-0.006602
-0.006903
-0.007207
-0.007508
-0.007817
-0.008127
-0.008434
-0.008742
-0.009054
-0.009365
-0.009675
-0.009989
-0.010303
-0.010616
-0.010932
-0.011249
-0.011566
-0.011886
-0.012209
-0.012532
-0.012860
-0.013192
-0.013528
-0.013545
-0.013571
-0.013612
-0.013643
-0.013697
-0.013769
-0.013838
-0.013926
-0.014019
-0.014120
-0.014229
-0.014340
-0.014473
-0.014605
-0.014757
-0.014914
-0.015059
-0.015224
-0.015409
-0.015587
-0.015746
-0.015949
-0.016135
-0.016330
-0.016518
-0.016712
-0.016909
-0.017087
-0.017293
-0.017470
-0.017645
-0.017821
-0.017974
-0.018125
-0.018256
-0.018380
-0.018473
-0.018553
-0.018599
-0.018629
-0.018627
-0.018593
-0.018518
-0.018412
-0.018267
-0.018086
-0.017856
-0.017589
-0.017279
-0.016930
-0.016546
-0.016110
-0.015656
-0.015177
-0.014669
-0.014137
-0.013587
-0.013019
-0.012452
-0.011870
-0.010751
-0.010201
-0.009644
-0.009070
-0.008510
-0.007961
-0.007379
-0.006823
-0.006226
-0.005587
-0.004970
-0.004285
-0.003519
-0.002662
-0.001484
-0.008076
-0.009093
-0.009198
-0.010124
-0.009245
-0.008573
-0.008165
-0.007880
-0.007522
-0.007031
-0.007003
-0.006407
-0.005807
-0.005278
-0.004525
-0.004142
-0.003563
-0.002903
-0.002769
-0.002083
-0.001898
-0.001089
-0.000576
0.000190
0.000852
0.001424
0.002435
0.002873
0.003790
0.004675
0.004818
0.005801
0.006222
0.006456
0.006472
0.005487
0.006864
0.006219
0.006061
0.006628
-0.011252
-0.011178
-0.011116
-0.011052
-0.011000
-0.010947
-0.010883
-0.010811
-0.010741
-0.010679
-0.010621
-0.010553
-0.010502
-0.010449
-0.010418
-0.010357
-0.010322
-0.010317
-0.010318
-0.010371
-0.010493
-0.010606
-0.010676
-0.010905
-0.009812
0.008750
0.008745
0.008676
0.008699
0.008708
0.008766
0.008832
0.008945
0.009056
0.009178
0.009329
0.009472
0.009622
0.009782
0.009954
0.010125
0.010298
0.010468
0.010628
0.010773
0.010929
0.011097
0.011267
0.011451
0.001395
0.001250
0.001652
0.001090
0.009667
0.009446
0.009670
-0.012555
-0.013378
-0.011696
-0.012661
-0.012969
-0.012200
0.003166
0.003697
0.003545
-0.013157
-0.012061
-0.012238
-0.011982
0.006109
0.006253
0.006482
0.005847
-0.007883
-0.007640
-0.008309
-0.007211
-0.002731
-0.003492
-0.013474
-0.013016
-0.013109
-0.013596
-0.009254
-0.008645
0.002096
0.002688
0.002607
0.002146
-0.010914
-0.011296
-0.011023
-0.011236
0.009236
0.008808
0.009126
0.008507
0.012523
0.012168
0.012409
0.008227
0.008321
0.011886
0.008291
0.008450
0.008732
0.001186
0.001053
0.001332
-0.010281
-0.010812
0.001228
0.004577
0.005063
0.005097
-0.005840
-0.006510
-0.005921
0.005690
-0.013374
-0.013337
0.003331
0.002672
0.009376
-0.002332
-0.002253
-0.001993
-0.004503
-0.004543
-0.004282
-0.001921
0.001387
0.001602
0.001541
0.006998
0.007335
0.007558
0.007784
-0.000873
-0.000991
-0.000932
-0.007523
-0.007989
-0.007427
-0.000991
0.013601
0.013760
0.013394
-0.011287
-0.011318
-0.012151
0.009257
0.009660
0.009436
0.009506
-0.004779
-0.000061
-0.000357
-0.000528
-0.000618
-0.000937
-0.000884
0.005369
0.005816
0.005774
0.001753
0.001461
0.001703
0.005615
0.005692
0.006050
0.007507
0.007833
0.007809
0.007524
0.006240
0.012742
0.012350
0.012687
-0.000716
-0.000928
-0.004545
-0.005185
-0.004938
-0.004842
-0.014122
-0.013884
-0.014047
-0.013745
-0.002463
-0.002538
-0.002679
-0.002258
0.004575
0.004566
0.004806
0.004354
0.007368
-0.000780
-0.000689
-0.000707
-0.000602
-0.018404
-0.018431
-0.018214
-0.000956
-0.000981
-0.001065
-0.012351
-0.012135
-0.012434
-0.001112
0.003816
0.004549
0.004028
-0.013757
-0.013516
-0.013691
-0.010200
-0.010150
-0.010424
-0.013596
0.012970
0.012877
0.013137
0.012789
0.012702
0.012842
0.012964
0.007176
0.007515
0.007488
-0.002138
-0.002380
-0.002121
-0.000348
-0.000064
-0.000177
-0.000822
-0.001015
-0.000839
-0.000994
0.005785
0.006217
0.005769
-0.006678
-0.007011
-0.006444
-0.007208
-0.008338
-0.008196
-0.007829
-0.007829
0.009182
0.009142
0.008893
0.008667
0.009201
0.008809
0.008842
0.014262
0.014049
0.013976
0.010368
0.009827
-0.015242
-0.015240
-0.015496
0.007956
0.008234
0.007898
0.008308
0.013685
0.013424
0.013861
0.010565
0.010452
0.010375
0.010245
-0.003272
-0.002965
-0.011433
-0.011576
-0.011327
-0.009074
-0.009129
-0.009361
-0.009463
-0.000361
-0.000415
-0.000425
-0.011774
-0.002404
-0.002220
0.002447
0.002471
0.002167
0.012931
0.012763
0.012403
0.002757
-0.001532
-0.001075
-0.001101
-0.001288
-0.012530
-0.012731
-0.001354
-0.001255
-0.001460
0.004942
0.005174
0.005407
0.002571
0.002509
0.002823
0.008116
0.007841
-0.012596
-0.012927
-0.012867
-0.005788
-0.005509
0.013507
0.013245
0.002791
0.009926
0.010200
0.010027
0.003268
0.003301
0.003606
0.003602
-0.015398
-0.015256
-0.015438
-0.015196
-0.015434
-0.015128
-0.015265
-0.014858
0.006250
0.005860
0.006040
0.006183
-0.015143
-0.014993
-0.015017
-0.014867
0.013765
0.013967
0.012200
0.012050
0.012284
0.005855
0.005614
0.005969
0.011914
0.006328
0.006593
0.006196
0.010174
0.006240
-0.016650
-0.016646
-0.016851
-0.001837
-0.001907
-0.002282
-0.007267
-0.007564
-0.007616
-0.002489
-0.002479
-0.002018
0.010189
0.007131
-0.002782
0.013047
0.006811
0.006599
0.006455
0.006958
-0.015598
-0.015769
-0.007215
0.003671
0.004198
0.003867
0.005917
0.005576
0.006071
-0.011778
-0.011887
-0.011624
0.001705
0.000249
-0.000137
-0.005924
-0.006445
0.012840
0.012481
0.004929
0.004507
0.004394
0.005634
-0.015491
-0.015736
-0.015577
-0.015697
-0.015357
-0.015219
-0.000784
-0.000670
-0.000751
-0.000688
0.013581
0.013326
0.008750
0.008831
0.008573
0.009129
0.006998
0.006778
0.007183
0.006905
-0.000447
-0.000418
-0.000018
0.002908
0.002710
0.003026
-0.001201
-0.001350
-0.001331
-0.001281
-0.015431
-0.015026
-0.000216
-0.000582
-0.017583
-0.017824
-0.017610
0.007819
0.007437
0.008237
-0.005824
-0.005104
-0.006266
0.007197
0.007118
0.006719
0.007236
0.007509
0.003556
0.004030
-0.011392
-0.011490
-0.011772
0.013846
0.014055
-0.000386
-0.000357
-0.004169
-0.003713
-0.004400
0.002572
-0.003948
-0.003935
-0.004215
0.004191
0.004357
0.004623
0.006335
0.006159
-0.003311
-0.003026
-0.003533
-0.000690
-0.000556
-0.000695
0.004666
-0.015759
-0.008575
-0.015936
0.013131
0.003678
0.003211
-0.011295
-0.011150
0.012926
0.012556
-0.008185
-0.007854
-0.008207
0.003664
0.004256
0.004127
-0.000773
-0.000649
-0.000998
-0.000812
-0.007956
-0.009787
-0.010052
-0.009930
-0.010211
0.013645
0.013398
-0.015746
-0.016031
-0.015981
0.003327
0.003089
0.007050
0.006646
0.007039
0.006664
0.001783
0.002062
0.001841
-0.011499
-0.011269
-0.010369
-0.010611
-0.010597
-0.010360
-0.015749
-0.015647
-0.015504
-0.013821
0.001616
0.001610
0.001888
0.001251
-0.002073
-0.002278
-0.002292
-0.012888
-0.012629
-0.012811
0.007464
0.007829
0.007541
0.008195
-0.015570
-0.015174
-0.014017
-0.013204
-0.013415
-0.013022
0.013849
0.014149
-0.013864
0.004764
0.004450
-0.012546
0.010949
0.010593
0.010587
-0.012095
-0.012179
-0.004672
-0.013159
-0.013065
0.002920
0.002104
-0.004213
-0.004988
-0.004581
-0.000269
-0.000285
0.001911
0.013945
0.014215
0.014124
0.014093
0.013912
0.013730
-0.005813
-0.006030
-0.006016
-0.005763
0.005658
0.005742
0.006189
-0.002805
-0.002170
0.007971
0.007851
0.011901
0.011714
-0.013842
-0.013503
-0.013680
-0.013810
-0.005754
-0.006128
-0.006141
-0.006484
0.012640
0.012372
0.012792
0.013073
0.012980
0.005192
0.004938
0.004882
0.006207
-0.014293
-0.014389
-0.014569
-0.012402
-0.012160
-0.004201
-0.004020
-0.003747
-0.003496
0.005139
0.005219
0.004878
0.007051
0.007462
0.004911
-0.000565
-0.000667
0.012225
0.008006
0.007982
0.007612
0.005932
0.006095
0.006378
0.005653
0.004854
-0.012371
0.005221
0.007727
0.000593
-0.003224
-0.003659
-0.003050
-0.012997
-0.013498
-0.016315
-0.016535
-0.016411
-0.014195
-0.013624
-0.007785
-0.007719
-0.007437
-0.016747
0.009861
0.010658
0.007815
0.008031
0.008195
-0.004029
-0.004576
0.007686
-0.010384
-0.010443
-0.010626
0.003798
0.003356
-0.008045
-0.011184
-0.011032
-0.015923
-0.001428
-0.001568
-0.001127
-0.016074
-0.000785
-0.000991
-0.016633
-0.016460
0.006078
0.006392
0.006590
0.013203
0.000431
0.000317
0.000475
0.000270
-0.016365
-0.016369
-0.016075
-0.006763
-0.007034
-0.006929
-0.006912
-0.000660
-0.000649
-0.003571
-0.003311
0.011817
0.012177
0.011770
0.001951
0.011289
0.011048
0.002254
0.010214
0.004926
0.004552
0.004553
0.004584
0.005065
-0.013162
-0.013473
-0.013306
-0.001734
-0.001646
-0.001870
-0.001649
0.012968
0.012657
-0.003835
-0.004384
-0.010743
-0.012106
-0.011716
-0.011507
-0.011469
-0.011119
-0.011107
-0.012431
-0.012736
0.004541
-0.011878
-0.001201
0.004580
-0.001082
0.013447
-0.000836
0.012603
0.013072
-0.001483
-0.001415
-0.001593
0.008634
0.007514
0.007651
-0.001288
-0.015181
-0.015479
-0.001801
-0.001332
0.004539
-0.010725
-0.005626
-0.005374
-0.005100
-0.004708
0.006727
0.006289
0.006339
-0.003027
-0.002783
-0.013329
-0.005538
0.003837
-0.006058
-0.012994
-0.012865
-0.015700
0.009796
0.003198
0.002422
-0.015300
0.004232
0.008141
-0.004134
-0.017754
-0.017545
-0.017382
0.008406
-0.005055
-0.002568
-0.003346
0.000496
0.000333
0.000336
0.007686
0.007961
0.000436
-0.003397
-0.003141
0.005273
0.005351
0.010799
0.010593
0.005771
0.010251
0.010356
0.004225
0.004225
0.004247
0.004721
-0.010433
0.004600
0.004811
0.004591
-0.003649
-0.004132
-0.011542
-0.011577
-0.011827
-0.013805
-0.013975
-0.013298
-0.014517
-0.002608
-0.002359
0.004218
0.004261
0.004211
0.011439
0.011922
0.012284
0.011020
-0.011465
0.006734
-0.000535
0.003167
0.003601
-0.012088
0.008826
0.008760
0.009144
0.000428
-0.012758
0.003246
0.003213
0.003559
0.001621
0.002794
0.006931
0.006980
0.007247
0.007321
-0.000941
-0.001497
-0.001204
-0.001983
0.015536
0.015516
0.015672
0.015312
-0.012484
-0.012575
-0.012344
-0.001005
-0.000217
0.004781
0.005062
0.004712
0.001242
0.001957
0.001597
0.005219
0.004330
-0.011560
0.010483
0.010058
0.010121
-0.012519
-0.012944
-0.014399
-0.014670
-0.014742
0.004408
0.013771
0.013200
0.013417
0.012747
0.010287
-0.003052
-0.002672
-0.002832
0.005972
0.006414
-0.002954
0.005341
0.005406
-0.001675
-0.001934
-0.001898
-0.012252
-0.012431
-0.002865
-0.006361
-0.006425
-0.006192
-0.006598
0.015541
0.015383
0.015357
0.015181
-0.014311
-0.001885
-0.014117
-0.013532
-0.014768
0.006072
0.006374
0.006060
0.013293
0.013350
0.012970
-0.004977
-0.004216
-0.004637
-0.013405
0.004494
-0.014974
-0.012832
-0.012696
-0.014154
-0.014184
-0.013789
-0.013777
-0.013486
0.003276
0.002661
-0.013813
0.011531
-0.001510
-0.001702
-0.001536
-0.000596
-0.000630
-0.000765
-0.004736
-0.001601
0.004011
0.003918
0.004433
0.008480
-0.003557
-0.003983
-0.002754
0.007744
0.008124
0.007501
0.011993
0.012387
0.011100
-0.000872
-0.000858
-0.010434
-0.010296
-0.010603
-0.011554
-0.017402
-0.017215
-0.017159
-0.010759
-0.010937
-0.010633
0.009854
0.010018
0.009834
-0.012064
-0.012740
-0.013186
-0.003222
-0.002975
-0.009096
0.006695
0.006409
-0.000993
-0.000550
0.013620
0.014043
0.013361
0.012890
0.006737
0.007095
-0.001606
-0.002156
-0.000797
0.003978
0.003896
0.004249
-0.011850
0.000253
-0.000062
-0.000062
0.000536
-0.005082
-0.004924
-0.013196
-0.012977
-0.013125
-0.012154
-0.012149
-0.012428
0.001675
0.001024
0.002197
-0.014627
-0.015157
-0.014396
-0.013805
0.003893
0.011538
0.010997
0.003905
0.003923
0.009960
0.004410
0.012061
0.012513
0.004286
-0.005010
-0.009573
-0.010005
-0.002072
-0.002481
-0.001912
0.000749
0.000874
0.000618
0.012384
0.012481
0.012587
-0.013338
-0.013477
-0.013618
-0.013451
-0.006689
-0.007077
-0.007010
-0.013649
-0.013723
0.004779
-0.007425
-0.013101
-0.012756
-0.012552
0.003987
0.003604
0.002861
-0.004418
-0.005185
0.000672
0.008097
0.008561
-0.000441
-0.000385
-0.000437
-0.003995
-0.002968
0.007594
0.007258
-0.012228
-0.011548
-0.013003
-0.013431
0.013864
0.014395
0.013579
0.013027
0.006398
0.006105
-0.007245
-0.007865
-0.006974
-0.001047
-0.000542
-0.003468
-0.015007
-0.015646
-0.003940
-0.000404
0.006424
0.006815
-0.001663
-0.002260
-0.000405
-0.000492
0.003902
0.003948
-0.002458
-0.011851
-0.011594
-0.013494
0.001102
0.000578
-0.006904
-0.006503
-0.006648
-0.014724
-0.014063
-0.011920
-0.012239
0.001816
0.002382
-0.002221
-0.010426
-0.010154
-0.010316
0.011633
0.010708
0.012184
0.012623
-0.006536
-0.012295
-0.011575
-0.012959
0.012651
0.012636
0.012925
-0.013017
0.012323
-0.009982
0.004433
0.007410
0.007029
0.007214
0.013213
-0.012658
-0.012412
-0.013263
0.003914
0.003125
0.005104
0.014128
0.013517
-0.005305
-0.006172
-0.005159
0.013782
0.013210
0.014532
-0.004901
-0.005941
-0.004615
-0.005288
0.006865
-0.000438
0.009226
0.009101
0.009361
0.003887
-0.003504
-0.001480
-0.001481
-0.001633
-0.001266
0.007171
0.008905
-0.015405
-0.012993
-0.013190
-0.012611
-0.002712
-0.015011
-0.014385
-0.015899
-0.013747
-0.014022
0.011770
0.007099
0.006068
0.007428
0.007129
-0.001086
0.006797
0.004012
0.005997
0.004083
0.005778
-0.001519
-0.011092
-0.010964
-0.010848
-0.000610
-0.011616
-0.011273
0.001268
0.010911
0.011038
0.011059
-0.016068
0.012289
0.012803
0.011058
-0.011690
-0.012025
-0.011305
0.001921
0.002638
0.000803
-0.016230
0.003563
-0.012391
0.003585
-0.002359
-0.002608
-0.002407
-0.018133
-0.017837
-0.018002
-0.013292
-0.011970
0.003585
0.014208
0.003961
-0.013400
0.011222
0.011213
0.010916
-0.002611
-0.002362
-0.003045
-0.002816
-0.004681
-0.004467
-0.004202
0.010877
0.003961
-0.012891
-0.011366
0.004703
-0.001948
-0.001676
-0.012513
-0.012324
-0.013266
0.004112
0.003447
0.005574
0.000919
0.001019
0.000786
0.000895
0.003584
0.003634
-0.002308
-0.002085
0.003903
0.003484
0.003569
0.005164
0.005473
0.005544
-0.012785
-0.012940
-0.012770
-0.014076
0.005916
0.005077
0.005365
-0.003288
-0.003749
-0.001550
-0.001272
-0.005874
-0.005839
-0.006128
-0.016347
-0.016537
0.013400
-0.004522
-0.005161
0.011229
0.010746
0.011090
-0.014678
0.010396
-0.000103
0.000105
-0.000038
0.000047
-0.006125
-0.007530
-0.007739
-0.007798
-0.004094
-0.003679
-0.003939
-0.011382
-0.003305
-0.004129
0.001429
-0.004573
0.003696
-0.012543
0.003763
0.015934
0.015936
0.015790
0.003243
0.003270
-0.002553
-0.011458
0.000882
0.001011
0.000815
0.001989
-0.005350
0.001056
-0.005407
-0.005637
-0.005376
0.003250
0.003629
0.014245
0.014523
0.014352
-0.014965
-0.014735
-0.014782
0.014431
-0.014889
-0.015143
-0.015081
-0.012055
-0.012255
-0.011172
-0.014606
-0.011160
0.000357
0.000548
0.000400
0.010033
0.009643
-0.002869
-0.002657
0.003648
0.003261
0.003321
-0.001989
-0.002265
-0.002420
0.004770
0.004365
-0.015499
-0.015678
-0.015801
-0.012962
-0.013171
-0.013083
0.004350
0.004732
-0.001827
-0.012905
-0.012830
-0.013114
0.009560
0.009707
-0.002164
-0.001934
0.003243
-0.015347
-0.015147
-0.000085
-0.000179
-0.000116
-0.003094
-0.003548
0.002913
0.002953
-0.014959
0.004901
0.005341
-0.013011
0.009039
0.009394
0.009482
0.008965
-0.016484
-0.016401
-0.016154
0.000899
0.000865
0.001170
-0.001453
-0.001182
0.008788
0.008663
0.009116
0.008345
0.009443
0.009588
0.002914
0.003284
-0.002208
-0.002764
-0.002328
-0.002810
-0.016709
0.000153
0.000050
0.000364
0.003387
0.003465
0.012387
0.012161
0.012212
0.012308
0.012055
0.012305
0.012081
-0.001279
-0.001282
-0.001101
0.009453
-0.002411
-0.001498
0.000438
0.000333
0.000278
0.000517
-0.007513
-0.007559
-0.008060
0.011261
-0.006927
-0.008624
-0.008640
-0.009142
0.008181
0.008173
0.007665
0.004470
0.004018
0.010438
0.010915
0.010645
0.010717
0.010937
0.010383
0.010933
0.011437
0.007773
0.010918
0.010750
-0.002695
-0.002476
0.013563
0.013420
0.013549
0.013436
0.013433
0.013660
0.013524
0.013255
-0.004006
0.002940
0.002965
0.004104
0.004708
0.003340
0.008633
0.009569
0.009174
0.009508
0.009249
0.016076
0.015888
0.015869
0.002592
0.002598
0.003644
0.002937
0.003263
0.003248
0.002922
0.002957
-0.002037
-0.001820
0.002596
-0.001709
0.015283
0.015458
0.015079
0.010286
0.010492
0.010043
-0.002920
-0.003335
-0.011706
-0.012073
-0.002760
-0.003006
-0.002752
-0.002929
-0.012699
-0.012426
-0.012631
-0.012469
0.000868
0.000885
0.001061
0.000985
0.002989
0.003433
-0.001359
-0.001099
0.003086
0.003165
0.003697
0.004336
0.015093
0.014941
0.014933
0.014722
0.008079
0.006250
0.005830
0.005952
0.014732
0.014953
0.015149
-0.004298
-0.004968
-0.002267
-0.008678
-0.008249
-0.008853
-0.008155
-0.009052
-0.009457
-0.009752
0.002645
0.002669
-0.002546
-0.002330
0.015750
-0.003798
0.003026
0.002295
0.002306
0.008593
-0.011096
0.002626
-0.000103
-0.000144
-0.000148
-0.000187
-0.001907
-0.001694
0.002291
0.002589
-0.002752
-0.003145
-0.001606
-0.010986
-0.003034
-0.002792
-0.002504
-0.001270
-0.001025
0.002789
0.002873
-0.000162
-0.000215
-0.000154
-0.000238
-0.006450
-0.006630
-0.006764
-0.006366
-0.003779
-0.003431
-0.003941
-0.004074
-0.004712
-0.002123
0.002355
0.002388
-0.002402
-0.002195
-0.004081
-0.003696
-0.003656
-0.008326
-0.008155
-0.008468
-0.011520
-0.011776
-0.011666
-0.011944
-0.003586
0.002330
0.002722
0.002027
0.002033
0.011617
0.011783
0.011748
0.012029
0.002694
0.003024
0.002937
-0.001766
-0.001536
-0.002618
-0.002969
0.002605
-0.010422
-0.010539
-0.010004
-0.001078
0.000792
0.001322
0.001159
0.002029
0.002289
0.000239
0.000170
0.000713
-0.016197
-0.016453
0.011861
0.012104
0.011899
0.011583
-0.001517
0.002504
0.002589
-0.001330
-0.011923
-0.000334
-0.000286
-0.000340
0.010742
0.010882
0.011157
-0.003440
-0.004079
-0.003768
-0.003723
0.002664
0.003134
-0.002076
0.001731
0.001785
0.002080
0.002117
-0.003885
-0.004523
-0.001981
0.009605
0.009145
0.011205
0.009636
0.009369
0.000801
0.001003
0.000907
0.000881
-0.005900
-0.005339
0.002072
-0.002515
-0.002803
-0.000643
-0.000686
-0.000774
-0.000587
-0.003394
0.002438
-0.001641
-0.001425
-0.015123
0.010751
0.010523
0.010817
0.002232
0.002311
-0.009967
-0.009827
-0.009686
-0.010140
-0.017825
-0.018018
-0.017994
-0.018211
0.013319
0.013202
-0.001862
0.001800
0.001854
0.010213
-0.003685
-0.004248
0.010493
-0.005888
-0.006135
-0.006041
0.001851
-0.014333
-0.014139
-0.014515
-0.014397
-0.014290
-0.014063
-0.013979
-0.013824
0.001174
-0.003204
0.002165
-0.006394
-0.001340
-0.001377
-0.005691
-0.005686
-0.000101
-0.001792
-0.001680
-0.001567
-0.001715
-0.002509
-0.002447
-0.002709
-0.002252
0.001968
0.002051
0.002319
-0.005419
0.001632
0.001890
0.001542
0.002030
-0.003359
-0.003429
-0.003132
0.001554
0.001285
-0.000872
-0.000930
-0.000784
-0.001075
-0.003479
-0.004017