# vtk DataFile Version 2.0
Test
ASCII
DATASET POLYDATA
POINTS 7607 float
0.000000 0.000000 0.000000
1.000000 0.000000 0.000000
1.000000 0.800000 0.000000
1.000000 1.000000 0.000000
0.000000 1.000000 0.000000
0.000000 0.200000 0.000000
0.300000 0.330000 0.000000
0.700000 0.680000 0.000000
0.012987 0.000000 0.000000
0.025974 0.000000 0.000000
0.038961 0.000000 0.000000
0.051948 0.000000 0.000000
0.064935 0.000000 0.000000
0.077922 0.000000 0.000000
0.090909 0.000000 0.000000
0.103896 0.000000 0.000000
0.116883 0.000000 0.000000
0.129870 0.000000 0.000000
0.142857 0.000000 0.000000
0.155844 0.000000 0.000000
0.168831 0.000000 0.000000
0.181818 0.000000 0.000000
0.194805 0.000000 0.000000
0.207792 0.000000 0.000000
0.220779 0.000000 0.000000
0.233766 0.000000 0.000000
0.246753 0.000000 0.000000
0.259740 0.000000 0.000000
0.272727 0.000000 0.000000
0.285714 0.000000 0.000000
0.298701 0.000000 0.000000
0.311688 0.000000 0.000000
0.324675 0.000000 0.000000
0.337662 0.000000 0.000000
0.350649 0.000000 0.000000
0.363636 0.000000 0.000000
0.376623 0.000000 0.000000
0.389610 0.000000 0.000000
0.402597 0.000000 0.000000
0.415584 0.000000 0.000000
0.428571 0.000000 0.000000
0.441558 0.000000 0.000000
0.454545 0.000000 0.000000
0.467532 0.000000 0.000000
0.480519 0.000000 0.000000
0.493506 0.000000 0.000000
0.506494 0.000000 0.000000
0.519481 0.000000 0.000000
0.532468 0.000000 0.000000
0.545455 0.000000 0.000000
0.558442 0.000000 0.000000
0.571429 0.000000 0.000000
0.584416 0.000000 0.000000
0.597403 0.000000 0.000000
0.610390 0.000000 0.000000
0.623377 0.000000 0.000000
0.636364 0.000000 0.000000
0.649351 0.000000 0.000000
0.662338 0.000000 0.000000
0.675325 0.000000 0.000000
0.688312 0.000000 0.000000
0.701299 0.000000 0.000000
0.714286 0.000000 0.000000
0.727273 0.000000 0.000000
0.740260 0.000000 0.000000
0.753247 0.000000 0.000000
0.766234 0.000000 0.000000
0.779221 0.000000 0.000000
0.792208 0.000000 0.000000
0.805195 0.000000 0.000000
0.818182 0.000000 0.000000
0.831169 0.000000 0.000000
0.844156 0.000000 0.000000
0.857143 0.000000 0.000000
0.870130 0.000000 0.000000
0.883117 0.000000 0.000000
0.896104 0.000000 0.000000
0.909091 0.000000 0.000000
0.922078 0.000000 0.000000
0.935065 0.000000 0.000000
0.948052 0.000000 0.000000
0.961039 0.000000 0.000000
0.974026 0.000000 0.000000
0.987013 0.000000 0.000000
1.000000 0.012903 0.000000
1.000000 0.025806 0.000000
1.000000 0.038710 0.000000
1.000000 0.051613 0.000000
1.000000 0.064516 0.000000
1.000000 0.077419 0.000000
1.000000 0.090323 0.000000
1.000000 0.103226 0.000000
1.000000 0.116129 0.000000
1.000000 0.129032 0.000000
1.000000 0.141935 0.000000
1.000000 0.154839 0.000000
1.000000 0.167742 0.000000
1.000000 0.180645 0.000000
1.000000 0.193548 0.000000
1.000000 0.206452 0.000000
1.000000 0.219355 0.000000
1.000000 0.232258 0.000000
1.000000 0.245161 0.000000
1.000000 0.258065 0.000000
1.000000 0.270968 0.000000
1.000000 0.283871 0.000000
1.000000 0.296774 0.000000
1.000000 0.309677 0.000000
1.000000 0.322581 0.000000
1.000000 0.335484 0.000000
1.000000 0.348387 0.000000
1.000000 0.361290 0.000000
1.000000 0.374194 0.000000
1.000000 0.387097 0.000000
1.000000 0.400000 0.000000
1.000000 0.412903 0.000000
1.000000 0.425806 0.000000
1.000000 0.438710 0.000000
1.000000 0.451613 0.000000
1.000000 0.464516 0.000000
1.000000 0.477419 0.000000
1.000000 0.490323 0.000000
1.000000 0.503226 0.000000
1.000000 0.516129 0.000000
1.000000 0.529032 0.000000
1.000000 0.541935 0.000000
1.000000 0.554839 0.000000
1.000000 0.567742 0.000000
1.000000 0.580645 0.000000
1.000000 0.593548 0.000000
1.000000 0.606452 0.000000
1.000000 0.619355 0.000000
1.000000 0.632258 0.000000
1.000000 0.645161 0.000000
1.000000 0.658065 0.000000
1.000000 0.670968 0.000000
1.000000 0.683871 0.000000
1.000000 0.696774 0.000000
1.000000 0.709677 0.000000
1.000000 0.722581 0.000000
1.000000 0.735484 0.000000
1.000000 0.748387 0.000000
1.000000 0.761290 0.000000
1.000000 0.774194 0.000000
1.000000 0.787097 0.000000
1.000000 0.812500 0.000000
1.000000 0.825000 0.000000
1.000000 0.837500 0.000000
1.000000 0.850000 0.000000
1.000000 0.862500 0.000000
1.000000 0.875000 0.000000
1.000000 0.887500 0.000000
1.000000 0.900000 0.000000
1.000000 0.912500 0.000000
1.000000 0.925000 0.000000
1.000000 0.937500 0.000000
1.000000 0.950000 0.000000
1.000000 0.962500 0.000000
1.000000 0.975000 0.000000
1.000000 0.987500 0.000000
0.987013 1.000000 0.000000
0.974026 1.000000 0.000000
0.961039 1.000000 0.000000
0.948052 1.000000 0.000000
0.935065 1.000000 0.000000
0.922078 1.000000 0.000000
0.909091 1.000000 0.000000
0.896104 1.000000 0.000000
0.883117 1.000000 0.000000
0.870130 1.000000 0.000000
0.857143 1.000000 0.000000
0.844156 1.000000 0.000000
0.831169 1.000000 0.000000
0.818182 1.000000 0.000000
0.805195 1.000000 0.000000
0.792208 1.000000 0.000000
0.779221 1.000000 0.000000
0.766234 1.000000 0.000000
0.753247 1.000000 0.000000
0.740260 1.000000 0.000000
0.727273 1.000000 0.000000
0.714286 1.000000 0.000000
0.701299 1.000000 0.000000
0.688312 1.000000 0.000000
0.675325 1.000000 0.000000
0.662338 1.000000 0.000000
0.649351 1.000000 0.000000
0.636364 1.000000 0.000000
0.623377 1.000000 0.000000
0.610390 1.000000 0.000000
0.597403 1.000000 0.000000
0.584416 1.000000 0.000000
0.571429 1.000000 0.000000
0.558442 1.000000 0.000000
0.545455 1.000000 0.000000
0.532468 1.000000 0.000000
0.519481 1.000000 0.000000
0.506494 1.000000 0.000000
0.493506 1.000000 0.000000
0.480519 1.000000 0.000000
0.467532 1.000000 0.000000
0.454545 1.000000 0.000000
0.441558 1.000000 0.000000
0.428571 1.000000 0.000000
0.415584 1.000000 0.000000
0.402597 1.000000 0.000000
0.389610 1.000000 0.000000
0.376623 1.000000 0.000000
0.363636 1.000000 0.000000
0.350649 1.000000 0.000000
0.337662 1.000000 0.000000
0.324675 1.000000 0.000000
0.311688 1.000000 0.000000
0.298701 1.000000 0.000000
0.285714 1.000000 0.000000
0.272727 1.000000 0.000000
0.259740 1.000000 0.000000
0.246753 1.000000 0.000000
0.233766 1.000000 0.000000
0.220779 1.000000 0.000000
0.207792 1.000000 0.000000
0.194805 1.000000 0.000000
0.181818 1.000000 0.000000
0.168831 1.000000 0.000000
0.155844 1.000000 0.000000
0.142857 1.000000 0.000000
0.129870 1.000000 0.000000
0.116883 1.000000 0.000000
0.103896 1.000000 0.000000
0.090909 1.000000 0.000000
0.077922 1.000000 0.000000
0.064935 1.000000 0.000000
0.051948 1.000000 0.000000
0.038961 1.000000 0.000000
0.025974 1.000000 0.000000
0.012987 1.000000 0.000000
0.000000 0.987097 0.000000
0.000000 0.974194 0.000000
0.000000 0.961290 0.000000
0.000000 0.948387 0.000000
0.000000 0.935484 0.000000
0.000000 0.922581 0.000000
0.000000 0.909677 0.000000
0.000000 0.896774 0.000000
0.000000 0.883871 0.000000
0.000000 0.870968 0.000000
0.000000 0.858065 0.000000
0.000000 0.845161 0.000000
0.000000 0.832258 0.000000
0.000000 0.819355 0.000000
0.000000 0.806452 0.000000
0.000000 0.793548 0.000000
0.000000 0.780645 0.000000
0.000000 0.767742 0.000000
0.000000 0.754839 0.000000
0.000000 0.741935 0.000000
0.000000 0.729032 0.000000
0.000000 0.716129 0.000000
0.000000 0.703226 0.000000
0.000000 0.690323 0.000000
0.000000 0.677419 0.000000
0.000000 0.664516 0.000000
0.000000 0.651613 0.000000
0.000000 0.638710 0.000000
0.000000 0.625806 0.000000
0.000000 0.612903 0.000000
0.000000 0.600000 0.000000
0.000000 0.587097 0.000000
0.000000 0.574194 0.000000
0.000000 0.561290 0.000000
0.000000 0.548387 0.000000
0.000000 0.535484 0.000000
0.000000 0.522581 0.000000
0.000000 0.509677 0.000000
0.000000 0.496774 0.000000
0.000000 0.483871 0.000000
0.000000 0.470968 0.000000
0.000000 0.458065 0.000000
0.000000 0.445161 0.000000
0.000000 0.432258 0.000000
0.000000 0.419355 0.000000
0.000000 0.406452 0.000000
0.000000 0.393548 0.000000
0.000000 0.380645 0.000000
0.000000 0.367742 0.000000
0.000000 0.354839 0.000000
0.000000 0.341935 0.000000
0.000000 0.329032 0.000000
0.000000 0.316129 0.000000
0.000000 0.303226 0.000000
0.000000 0.290323 0.000000
0.000000 0.277419 0.000000
0.000000 0.264516 0.000000
0.000000 0.251613 0.000000
0.000000 0.238710 0.000000
0.000000 0.225806 0.000000
0.000000 0.212903 0.000000
0.000000 0.187500 0.000000
0.000000 0.175000 0.000000
0.000000 0.162500 0.000000
0.000000 0.150000 0.000000
0.000000 0.137500 0.000000
0.000000 0.125000 0.000000
0.000000 0.112500 0.000000
0.000000 0.100000 0.000000
0.000000 0.087500 0.000000
0.000000 0.075000 0.000000
0.000000 0.062500 0.000000
0.000000 0.050000 0.000000
0.000000 0.037500 0.000000
0.000000 0.025000 0.000000
0.000000 0.012500 0.000000
0.309756 0.338537 0.000000
0.319512 0.347073 0.000000
0.329268 0.355610 0.000000
0.339024 0.364146 0.000000
0.348780 0.372683 0.000000
0.358537 0.381220 0.000000
0.368293 0.389756 0.000000
0.378049 0.398293 0.000000
0.387805 0.406829 0.000000
0.397561 0.415366 0.000000
0.407317 0.423902 0.000000
0.417073 0.432439 0.000000
0.426829 0.440976 0.000000
0.436585 0.449512 0.000000
0.446341 0.458049 0.000000
0.456098 0.466585 0.000000
0.465854 0.475122 0.000000
0.475610 0.483659 0.000000
0.485366 0.492195 0.000000
0.495122 0.500732 0.000000
0.504878 0.509268 0.000000
0.514634 0.517805 0.000000
0.524390 0.526341 0.000000
0.534146 0.534878 0.000000
0.543902 0.543415 0.000000
0.553659 0.551951 0.000000
0.563415 0.560488 0.000000
0.573171 0.569024 0.000000
0.582927 0.577561 0.000000
0.592683 0.586098 0.000000
0.602439 0.594634 0.000000
0.612195 0.603171 0.000000
0.621951 0.611707 0.000000
0.631707 0.620244 0.000000
0.641463 0.628780 0.000000
0.651220 0.637317 0.000000
0.660976 0.645854 0.000000
0.670732 0.654390 0.000000
0.680488 0.662927 0.000000
0.690244 0.671463 0.000000
0.011538 0.205000 0.000000
0.023077 0.210000 0.000000
0.034615 0.215000 0.000000
0.046154 0.220000 0.000000
0.057692 0.225000 0.000000
0.069231 0.230000 0.000000
0.080769 0.235000 0.000000
0.092308 0.240000 0.000000
0.103846 0.245000 0.000000
0.115385 0.250000 0.000000
0.126923 0.255000 0.000000
0.138462 0.260000 0.000000
0.150000 0.265000 0.000000
0.161538 0.270000 0.000000
0.173077 0.275000 0.000000
[...]
POINT_DATA 7607
SCALARS UX float 1
LOOKUP_TABLE default
0.005871
0.001733
0.008094
-0.134840
-0.232422
-0.109667
-0.109844
-0.090512
-0.001935
0.000079
-0.000945
0.001285
0.011722
0.000064
-0.000184
0.010221
0.000290
0.000315
-0.000282
0.000122
0.000114
-0.000058
-0.000170
0.000206
-0.000095
0.000253
0.000058
-0.001057
-0.000085
-0.000121
-0.000440
-0.007554
0.000152
-0.000143
-0.000081
-0.000323
0.000243
0.000172
0.002030
0.000063
0.000920
-0.001775
-0.000007
0.003892
0.000138
0.000080
-0.002553
-0.000033
-0.000239
0.000038
0.000059
-0.003153
-0.000201
-0.001306
-0.000067
-0.000127
-0.000059
-0.000063
0.000008
-0.000659
-0.001077
0.000319
-0.000220
-0.000579
0.003930
0.000606
-0.006233
0.000187
0.001598
0.000339
-0.000847
-0.000315
-0.005170
-0.000223
0.004707
0.002511
-0.005811
-0.000006
-0.000733
0.001688
0.000116
-0.000416
-0.000167
-0.007961
-0.000644
0.014246
0.002253
0.010244
0.007893
0.008134
0.008821
0.013408
0.034629
0.029236
0.026917
0.032368
0.026471
0.048802
0.024444
0.029580
0.047494
0.048923
0.049546
0.060322
0.051100
0.061154
0.067855
0.047779
0.063304
0.075616
0.060041
0.090689
0.078278
0.079413
0.084702
0.075275
0.093135
0.086586
0.110152
0.078016
0.101297
0.107221
0.092176
0.097558
0.121989
0.100394
0.112083
0.116878
0.099376
0.115165
0.123440
0.100598
0.127075
0.090534
0.100225
0.102150
0.104521
0.094118
0.107515
0.081889
0.075370
0.076590
0.068876
0.083389
0.050468
-0.001415
0.003379
-0.053122
-0.056074
-0.116251
-0.058648
-0.086791
-0.097913
-0.091538
-0.098963
-0.115747
-0.112716
-0.099003
-0.129027
-0.117587
-0.108732
-0.125356
-0.125567
-0.140839
-0.137186
-0.137258
-0.133071
-0.143994
-0.141425
-0.143342
-0.142437
-0.144693
-0.141913
-0.139939
-0.147936
-0.150279
-0.142436
-0.155577
-0.156784
-0.152835
-0.151437
-0.153993
-0.151198
-0.154756
-0.157237
-0.156628
-0.159342
-0.156668
-0.160191
-0.161524
-0.158900
-0.166544
-0.164787
-0.168416
-0.169290
-0.168660
-0.166025
-0.170569
-0.169891
-0.170366
-0.170859
-0.172921
-0.181360
-0.170036
-0.173773
-0.183647
-0.175796
-0.183566
-0.178223
-0.189568
-0.192084
-0.195645
-0.199285
-0.197702
-0.197117
-0.207396
-0.198004
-0.209980
-0.213298
-0.200613
-0.221060
-0.212708
-0.215461
-0.210174
-0.221895
-0.231746
-0.221233
-0.230346
-0.233397
-0.228481
-0.231734
-0.233517
-0.239598
-0.239862
-0.238533
-0.239372
-0.243659
-0.245564
-0.245200
-0.231047
-0.238735
-0.224966
-0.235208
-0.234562
-0.244543
-0.239852
-0.237806
-0.265326
-0.247080
-0.250552
-0.246147
-0.249881
-0.260983
-0.255456
-0.252120
-0.246097
-0.259908
-0.260313
-0.256490
-0.254977
-0.268386
-0.253658
-0.254661
-0.279074
-0.258571
-0.268893
-0.246459
-0.224697
-0.246634
-0.262111
-0.264724
-0.264327
-0.257085
-0.268113
-0.265593
-0.278487
-0.259680
-0.267750
-0.258263
-0.265253
-0.263188
-0.262064
-0.264235
-0.275171
-0.253352
-0.262940
-0.250553
-0.248667
-0.244951
-0.240274
-0.221969
-0.217645
-0.185608
-0.218295
-0.169388
-0.163227
-0.164714
-0.138014
-0.068782
-0.111545
-0.075541
0.000621
-0.057469
-0.041599
-0.035567
-0.025249
-0.028482
-0.016512
-0.024212
-0.021767
-0.010720
-0.007222
-0.027701
-0.106340
-0.122311
-0.279646
-0.263555
-0.196195
-0.200664
-0.137926
-0.164662
-0.181703
-0.186599
-0.065961
0.076543
-0.025336
-0.133695
-0.128050
0.073596
-0.075971
-0.196556
-0.214557
-0.194375
-0.175961
-0.298880
-0.031240
-0.111584
-0.088313
-0.095708
-0.053451
-0.060918
0.058760
0.008333
0.029896
-0.030037
0.110113
0.075074
0.090131
-0.067219
-0.055403
-0.211193
-0.113680
-0.128970
-0.176282
-0.087537
-0.150274
-0.134647
-0.185352
-0.177818
-0.119842
-0.151009
-0.079479
-0.165089
-0.105518
-0.164669
-0.152989
-0.105357
-0.225039
-0.181814
-0.107411
-0.114145
-0.225809
-0.071110
-0.149063
-0.166632
-0.125522
-0.121726
0.061032
0.087571
-0.001163
0.148204
-0.017447
0.098480
0.022675
-0.038307
0.028640
-0.029911
0.029934
-0.007904
0.014754
0.025381
-0.043597
0.021191
0.025064
0.009694
0.018516
0.003659
0.004117
0.032913
0.048818
-0.030460
-0.144165
-0.156637
-0.157969
-0.152133
0.047463
0.032656
0.032998
-0.222321
-0.188914
-0.163239
-0.194264
-0.180168
-0.135105
-0.009491
0.004740
0.010199
-0.219610
-0.219080
-0.222544
-0.252879
0.029904
0.015705
0.021266
0.011900
-0.063598
-0.024610
-0.084751
-0.058893
-0.002669
-0.011718
-0.153118
-0.156758
-0.294653
-0.222412
-0.094188
-0.055079
0.014119
0.001894
-0.005498
-0.005184
-0.222508
-0.220837
-0.234884
-0.241238
-0.047928
-0.095741
-0.007518
-0.027592
0.084169
0.064302
0.080394
-0.125464
-0.148158
0.070050
0.041048
0.012105
0.056437
-0.164958
-0.155296
-0.146633
-0.077975
-0.189563
-0.149312
-0.114266
-0.096654
-0.102192
-0.038052
-0.055675
-0.029843
-0.146317
-0.224927
-0.224892
-0.018459
0.016386
0.036305
-0.007791
-0.016201
-0.017248
-0.183290
-0.181353
-0.185050
-0.022340
-0.161491
-0.158816
-0.140493
0.023866
0.037178
0.003000
0.019767
0.002116
-0.012757
-0.018830
-0.061596
-0.030602
-0.029339
-0.021795
0.050764
0.093092
0.108613
-0.230558
-0.115549
-0.157953
-0.102262
-0.089921
-0.129054
-0.091034
-0.178687
-0.147403
-0.209774
-0.142506
-0.019113
0.010785
0.006000
0.004422
0.057611
0.048463
-0.153372
-0.151479
-0.143969
0.023827
0.026786
0.009055
-0.120379
-0.106177
-0.138126
-0.118683
0.037364
0.044563
0.071735
0.052777
-0.006119
-0.147124
-0.025241
-0.003511
-0.009968
-0.005894
-0.252240
-0.213635
-0.211439
-0.234653
-0.158049
-0.191789
-0.179029
-0.166188
-0.131294
-0.146336
-0.150556
-0.140478
-0.063419
-0.010276
-0.006866
-0.005413
-0.000606
-0.265758
-0.241452
-0.263903
-0.012276
-0.010764
-0.003787
-0.253680
-0.227682
-0.231240
-0.015755
-0.114179
-0.134568
-0.143971
-0.235710
-0.230473
-0.209299
-0.222108
-0.220011
-0.228015
-0.225795
0.089331
0.071138
0.078055
0.078231
0.076099
0.046438
0.067572
0.027865
0.040086
0.028934
-0.175710
-0.165398
-0.148865
-0.166076
-0.162168
-0.159263
-0.009625
-0.021055
-0.014759
-0.008003
0.014531
0.037928
-0.006319
-0.036973
-0.025395
-0.040052
-0.063584
-0.204042
-0.221813
-0.213139
-0.200961
0.034006
0.058744
0.032399
0.027205
0.037135
0.031135
0.047709
0.084784
0.084171
0.077292
0.056159
0.155808
-0.245363
-0.229153
-0.236537
-0.089624
-0.109072
-0.112826
-0.070230
0.063648
0.089058
0.095972
0.088434
0.033724
0.046452
0.017077
-0.165964
-0.169735
-0.240247
-0.218107
-0.189516
-0.195196
-0.218192
-0.204107
-0.218016
-0.001158
-0.015954
0.006967
-0.194852
-0.194438
-0.175429
-0.003984
0.021040
-0.013428
0.080198
0.060519
0.101973
-0.004088
-0.019321
-0.018575
-0.026091
-0.029571
-0.230584
-0.239542
-0.010328
-0.022582
-0.004997
0.011222
0.009173
-0.001698
-0.018005
-0.003771
0.013099
-0.104716
-0.095091
-0.228511
-0.241982
-0.215936
-0.026841
-0.034713
0.090188
0.083508
0.009510
0.061220
0.011299
0.053201
0.016753
0.000919
0.000990
0.007851
-0.236806
-0.242783
-0.266098
-0.219941
-0.250836
-0.224839
-0.283616
-0.200045
0.018203
-0.031538
0.026427
0.060957
-0.272338
-0.244761
-0.227343
-0.226399
0.055144
0.113179
0.075628
0.059807
0.036716
-0.134328
-0.130797
-0.129545
0.031994
-0.111191
-0.128733
-0.146644
0.067629
-0.138469
-0.237508
-0.268815
-0.231713
-0.013513
0.014852
-0.015338
-0.196938
-0.209407
-0.190019
-0.017332
-0.007485
0.002934
0.015515
0.033770
0.005387
0.045000
-0.126279
-0.133393
-0.101695
-0.147534
-0.205489
-0.249374
-0.208208
0.017398
0.027541
0.001047
0.013848
0.014158
0.015388
-0.220337
-0.242908
-0.242881
-0.117918
-0.132621
-0.225337
-0.025024
-0.050167
0.080314
0.021079
-0.011300
0.027657
0.024996
0.027037
-0.215474
-0.271524
-0.222843
-0.261138
-0.272665
-0.225187
-0.022346
0.014045
-0.011806
-0.017299
0.096747
0.060489
0.049680
0.039485
0.009125
0.011014
0.034698
0.027655
0.030914
0.032416
-0.186083
-0.189226
-0.151498
0.007847
0.006431
0.005274
0.003330
-0.026619
-0.000637
-0.013296
-0.269771
-0.173897
-0.157235
-0.178411
-0.236846
-0.250486
-0.291435
-0.108802
-0.117777
-0.104573
-0.043216
-0.029575
-0.014324
-0.118309
-0.121321
-0.124828
-0.092232
-0.109740
0.010833
-0.010159
-0.199901
-0.227189
-0.220404
0.093419
0.061444
-0.149134
-0.184564
-0.028027
0.004138
-0.023120
0.004594
-0.024202
-0.033435
-0.016021
0.012528
0.022133
0.023111
-0.127280
-0.140430
-0.048454
0.003214
-0.006128
-0.168811
-0.162784
-0.163008
0.017857
-0.233858
-0.209489
-0.236592
0.133598
0.030616
0.019168
-0.237384
-0.237013
0.072223
0.079112
-0.212193
-0.202785
-0.215373
-0.159169
-0.113117
-0.006492
-0.026875
-0.009044
-0.005960
-0.025007
-0.212256
-0.212648
-0.246562
-0.253602
-0.204351
0.068202
0.090570
-0.252085
-0.234892
-0.237664
0.015870
0.006782
-0.109583
-0.122868
-0.107545
-0.117931
0.004922
0.011558
0.001747
-0.249400
-0.221697
-0.225537
-0.213988
-0.221281
-0.212509
-0.249018
-0.225548
-0.256986
-0.220955
0.002334
-0.004933
-0.002863
-0.003198
-0.026262
-0.014535
-0.008935
-0.244404
-0.248694
-0.249363
-0.115720
-0.080753
-0.085640
-0.103246
-0.233415
-0.242142
-0.235371
-0.238333
-0.241040
-0.255733
0.091514
0.126822
-0.259362
0.021299
-0.011312
-0.230150
-0.009746
-0.155087
0.117589
-0.246120
-0.219007
-0.021460
-0.254775
-0.251936
0.026364
-0.002705
-0.000226
-0.042240
-0.035349
-0.005207
-0.000982
-0.012749
0.060060
0.118912
0.079347
0.074400
0.098988
0.109541
-0.192321
-0.194348
-0.192375
-0.190199
0.020359
0.009728
0.022483
-0.040423
-0.006465
-0.102327
-0.114319
0.065554
0.039226
-0.256413
-0.247167
-0.242418
-0.239556
-0.014828
-0.065876
-0.047144
-0.035787
0.064502
0.095568
0.041513
0.107486
0.069731
-0.138777
-0.132448
-0.136651
0.023109
-0.228857
-0.223459
-0.244094
-0.168624
-0.178626
-0.038332
-0.008529
-0.021274
-0.014907
-0.155481
-0.121305
-0.136329
-0.138258
-0.134926
-0.135305
0.000007
0.002832
0.057096
0.040552
0.050105
0.010814
-0.098653
-0.117061
-0.130069
-0.139155
-0.115760
-0.252321
-0.090685
0.024455
0.002472
-0.012818
-0.028293
-0.024973
-0.174958
-0.193805
-0.260571
-0.242995
-0.233539
-0.232348
-0.175656
-0.200222
-0.209582
-0.200097
-0.253299
0.130203
0.018523
0.023318
0.028831
0.023090
-0.021862
-0.022682
0.019302
-0.232756
-0.225579
-0.242861
-0.004614
-0.013881
-0.203777
-0.219294
-0.230639
-0.220559
-0.011600
-0.015353
-0.034692
-0.253150
-0.006797
-0.010906
-0.235068
-0.243067
0.026834
0.021684
0.023649
0.041183
0.004955
0.008470
-0.001320
-0.003043
-0.235221
-0.274522
-0.268112
-0.205234
-0.197051
-0.206661
-0.182910
-0.010648
-0.012707
-0.029346
-0.022181
0.058969
0.061505
0.068066
0.007955
0.036589
0.057625
0.003334
-0.022120
-0.118584
-0.121693
-0.140466
-0.146150
-0.137441
-0.248390
-0.244404
-0.244121
-0.158968
-0.167673
-0.190426
-0.165467
0.093519
0.049703
-0.033241
-0.029308
-0.238460
-0.170034
-0.161522
-0.141363
-0.248987
-0.227642
-0.243744
-0.164389
-0.185669
-0.118446
-0.130273
-0.033195
-0.145521
-0.023612
0.097235
-0.017532
0.097771
0.092085
-0.020606
-0.010237
-0.007098
0.012574
-0.108616
-0.115209
-0.013578
-0.219405
-0.248862
-0.013772
-0.001693
-0.141612
-0.216860
-0.037101
-0.044132
-0.031540
-0.024367
-0.113560
-0.115679
-0.099664
-0.018717
-0.001069
-0.253539
-0.017205
0.012337
-0.063623
-0.226601
-0.221566
-0.249988
0.028076
0.000186
-0.013070
-0.241913
0.025421
0.034983
-0.035862
-0.292889
-0.248085
-0.270752
-0.079982
-0.049204
-0.008557
-0.001741
-0.149014
-0.173558
-0.145914
-0.127941
-0.117127
-0.155675
-0.002983
-0.010341
0.014738
0.011187
0.011855
0.012964
0.006532
-0.018864
-0.001492
-0.116615
-0.127404
-0.148898
-0.116818
-0.122534
-0.132852
-0.130800
-0.120547
-0.041371
-0.010981
-0.240114
-0.217178
-0.232620
-0.206180
-0.179907
-0.189716
-0.185178
-0.016438
-0.010486
-0.141603
-0.121545
-0.120041
0.075280
0.056531
0.087275
0.041598
-0.249393
-0.102686
-0.014526
0.007720
-0.003801
-0.225388
0.028085
0.022061
0.035502
0.000139
-0.251131
0.006227
0.014589
0.002771
0.017192
0.006793
-0.103102
-0.134231
-0.137272
-0.130234
-0.004200
-0.008750
-0.003333
-0.003254
0.107272
0.111654
0.103457
0.105769
-0.231395
-0.248846
-0.220121
-0.174927
-0.182335
0.014741
0.009368
0.026935
0.003822
0.014735
-0.012011
0.032872
-0.147714
-0.184013
0.053675
0.043417
0.075649
-0.249655
-0.216225
-0.247768
-0.219537
-0.228777
-0.142256
0.080788
0.088604
0.077791
0.077010
-0.000804
-0.151332
-0.154948
-0.198829
0.000693
0.009149
-0.209617
0.032822
0.027403
-0.171878
-0.161733
-0.170273
-0.226273
-0.232681
-0.019492
-0.202316
-0.199232
-0.184002
-0.204228
0.098045
0.091370
0.113058
0.130284
-0.221698
-0.153852
-0.209457
-0.185695
-0.224355
0.012202
0.032182
0.034702
0.070943
0.065330
0.078242
-0.016776
-0.026988
-0.017186
-0.255244
0.026836
-0.250820
-0.234466
-0.216205
-0.248690
-0.236439
-0.250314
-0.199287
-0.262033
0.005102
-0.016028
-0.236716
0.046454
-0.022279
-0.011697
-0.017088
-0.170735
-0.161723
-0.160982
-0.041188
-0.019550
0.010666
0.011545
0.018105
-0.082515
-0.026001
-0.012234
-0.013701
-0.114617
-0.126268
-0.124176
0.067325
0.059747
0.040644
-0.007018
-0.013679
-0.222696
-0.223132
-0.224062
-0.145019
-0.257745
-0.270795
-0.274806
-0.218446
-0.230775
-0.206388
-0.053860
-0.052891
-0.087827
-0.172359
-0.176174
-0.194897
-0.040436
-0.013864
-0.094454
-0.171526
-0.126406
0.025610
-0.017659
0.113447
0.095948
0.076468
0.090297
-0.138791
-0.138227
-0.009574
-0.000959
-0.011583
0.022546
0.006542
-0.004163
-0.227376
0.004563
-0.016950
-0.031260
-0.001548
-0.201146
-0.188878
-0.204839
-0.194192
-0.287047
-0.220679
-0.244651
-0.250305
-0.001291
0.002433
0.014534
-0.238513
-0.230650
-0.209145
-0.227206
-0.133593
0.087431
0.018815
-0.148838
-0.121043
-0.017124
-0.148030
0.091100
0.115916
-0.148335
-0.179024
-0.099341
-0.145424
-0.010030
-0.022577
-0.012175
-0.159151
-0.155092
-0.162889
0.055295
0.152225
0.074622
-0.222749
-0.178135
-0.202204
-0.224919
-0.162418
-0.209171
-0.220133
-0.205510
-0.243477
-0.011516
-0.203957
-0.224299
-0.246177
-0.240802
0.007166
0.016527
0.016237
-0.017909
-0.012929
-0.149173
-0.118752
-0.110744
-0.005971
-0.011710
-0.013963
-0.014181
-0.014637
-0.121409
-0.113634
-0.154250
-0.178084
-0.246301
-0.163184
0.084586
0.098143
0.094413
0.054215
-0.130770
-0.138328
-0.059808
-0.060480
-0.045903
0.011125
-0.000314
-0.000747
-0.224836
-0.230296
-0.019687
-0.009263
-0.134422
-0.088505
-0.012539
-0.018705
0.004591
-0.013949
-0.152261
-0.141346
-0.013652
-0.235241
-0.238608
-0.237255
0.003113
0.003962
-0.197492
-0.197776
-0.200378
-0.218676
-0.224407
-0.240238
-0.234535
0.004603
0.003463
-0.009657
-0.210851
-0.216881
-0.241494
0.065364
0.050536
0.057336
0.074222
-0.189764
-0.197261
-0.198029
-0.169307
0.073151
0.068910
0.084627
-0.239584
0.069975
-0.196608
0.005481
0.023950
0.020190
0.028451
0.071819
-0.227556
-0.235679
-0.227513
-0.001363
0.004725
0.017444
0.103319
0.106178
0.032031
-0.077841
-0.050302
0.085226
0.096239
0.111124
-0.010990
-0.070217
-0.061711
-0.110292
0.019054
-0.011646
0.052985
0.056513
0.022557
-0.143107
-0.014376
-0.008882
-0.008004
-0.016069
-0.015219
-0.100651
0.054254
-0.237821
-0.227133
-0.234944
-0.149596
-0.016025
-0.228812
-0.212078
-0.230246
-0.203449
-0.235144
0.058000
-0.107469
-0.137625
-0.119439
-0.108920
-0.011082
-0.124372
-0.141874
-0.125885
-0.135361
-0.140273
0.000190
-0.210323
-0.213356
-0.228034
0.001343
-0.230808
-0.241239
-0.004143
0.052377
0.049970
0.052335
-0.242287
0.113401
0.064019
0.038912
-0.232829
-0.229231
-0.229552
0.008485
0.002219
0.002657
-0.269243
-0.139865
-0.169426
-0.141610
-0.169634
-0.177352
-0.186253
-0.266919
-0.260610
-0.257423
-0.216669
-0.183777
-0.144359
0.051740
-0.132775
-0.212555
0.058802
0.066619
0.038841
-0.172892
-0.169778
-0.018018
-0.024202
-0.040509
-0.027660
-0.022186
0.058950
-0.136283
-0.233728
-0.224902
0.014943
-0.011228
-0.004449
-0.241645
-0.236600
-0.232667
0.017372
0.016223
0.010878
-0.151186
-0.147406
-0.158616
-0.153894
-0.122229
-0.136905
-0.008617
-0.004295
0.022007
0.001360
-0.140795
-0.134879
-0.126960
-0.139408
-0.229930
-0.232856
-0.234041
-0.199555
-0.131848
-0.135390
-0.131298
-0.027041
-0.033322
-0.008754
-0.010529
-0.169456
-0.191101
-0.215834
-0.250646
-0.249900
0.107246
-0.026885
-0.032524
0.066608
0.090524
0.007973
-0.259796
0.116699
-0.153677
-0.163162
-0.161927
-0.152308
-0.205938
-0.228478
-0.211126
-0.197628
-0.064878
-0.018007
-0.071606
-0.234362
-0.024557
-0.036079
-0.003569
-0.075952
-0.143487
-0.248949
-0.145581
0.106951
0.102561
0.115598
-0.122133
-0.153466
-0.016195
-0.218184
-0.006167
-0.006527
0.001010
0.011728
-0.019067
0.010480
0.006997
-0.040199
-0.028138
-0.140798
-0.143258
0.054356
0.065173
0.109864
-0.191451
-0.276334
-0.247181
0.115853
-0.231074
-0.236840
-0.255535
-0.186149
-0.203129
-0.295490
-0.252664
-0.287748
-0.161067
-0.155838
-0.155625
0.069784
-0.112179
-0.003940
-0.012895
-0.131823
-0.151247
-0.139934
-0.178063
-0.170225
-0.184693
-0.092143
-0.136574
-0.227372
-0.260577
-0.249501
-0.210572
-0.221240
-0.217918
0.003819
0.017386
-0.010746
-0.244735
-0.240132
-0.238810
-0.017569
-0.015806
-0.020526
-0.010046
-0.130940
-0.238924
-0.232621
-0.001178
-0.003012
-0.008491
-0.037825
-0.012581
-0.139600
-0.143958
-0.251957
0.009472
0.031245
-0.230711
0.042426
0.052137
0.031878
0.034699
-0.239675
-0.286311
-0.215694
-0.141245
-0.159605
-0.158578
-0.002704
0.004868
-0.085684
-0.053838
-0.103392
-0.085758
-0.032284
-0.085485
-0.155619
-0.144312
-0.015532
-0.018157
-0.007546
-0.001825
-0.230241
-0.012933
-0.008135
-0.010390
-0.146501
-0.145813
0.063933
0.099710
0.042390
0.067155
0.067062
0.071891
0.035359
-0.018843
0.006107
-0.008067
0.051577
-0.002580
-0.016158
-0.161670
-0.163301
-0.147419
-0.159509
-0.050475
-0.062103
-0.058497
0.070254
-0.033172
-0.086634
-0.063335
-0.095327
0.053670
0.035029
0.022415
-0.153188
-0.130473
0.092354
0.110694
0.011150
0.000975
0.028699
0.057878
0.041662
0.035125
0.033731
0.060656
0.060251
-0.026007
-0.009665
0.066899
0.011917
0.121138
0.092245
0.023186
0.101440
0.115872
0.129845
-0.051463
-0.138549
-0.147080
-0.130535
-0.117198
-0.157855
0.031740
0.049396
0.054392
0.024910
0.055912
0.088981
0.112816
0.099060
-0.148175
-0.151020
-0.126841
-0.150990
-0.160243
-0.129205
-0.149786
-0.128306
-0.001125
-0.015791
-0.131995
-0.004069
0.098850
0.092611
0.116830
0.031431
0.019380
-0.027670
-0.000683
-0.018047
-0.234398
-0.233412
-0.024881
-0.054449
-0.002259
-0.023517
-0.244047
-0.236003
-0.234079
-0.249110
-0.154566
-0.164171
-0.162620
-0.153224
-0.134543
-0.120038
-0.017812
-0.007290
-0.149637
-0.137689
-0.135356
-0.131335
0.082750
0.094567
0.094264
0.099032
0.048072
-0.121548
-0.123855
-0.136806
0.118940
0.102379
0.105135
-0.030530
-0.030056
-0.013712
-0.029634
-0.082983
-0.090902
-0.060439
-0.067890
-0.127297
-0.089597
-0.147037
-0.147234
-0.022254
-0.000482
0.117048
-0.008984
-0.131971
-0.140227
-0.154501
0.037361
-0.230359
-0.135177
-0.004036
0.000133
0.002570
-0.000828
-0.006898
0.001570
-0.141875
-0.177049
-0.020462
-0.030144
-0.000380
-0.233611
-0.029465
-0.013729
-0.025938
0.005812
0.002887
-0.147172
-0.151263
0.000834
-0.014354
0.002281
-0.013396
-0.225387
-0.180435
-0.216685
-0.219686
-0.035623
-0.011527
-0.010115
-0.033129
-0.019253
-0.023302
-0.140816
-0.150635
-0.019955
-0.017879
-0.024133
-0.015465
-0.037278
-0.218357
-0.217788
-0.199733
-0.229276
-0.210793
-0.208782
-0.236393
-0.033563
-0.152338
-0.153879
-0.151611
-0.138543
0.089306
0.044016
0.066903
0.070775
0.002228
0.012769
-0.002063
-0.012760
-0.007451
-0.009731
-0.019844
-0.102772
-0.096475
-0.140625
-0.099675
0.006455
-0.015824
-0.069069
0.010097
-0.151257
-0.145839
-0.167556
-0.149450
-0.007365
-0.249660
-0.246045
0.049155
0.007339
0.036238
0.041018
-0.013294
-0.146994
-0.148296
-0.016566
-0.222504
-0.008389
-0.000188
-0.013392
0.061435
0.047323
0.050584
-0.161417
-0.182188
-0.119625
-0.211299
-0.156261
-0.146018
0.003264
-0.143761
-0.153870
-0.150287
-0.148774
-0.019517
-0.056224
-0.002389
0.039203
0.048067
0.063008
0.042329
0.049887
-0.006794
0.001034
-0.001435
-0.011772
-0.047265
-0.042138
-0.152768
-0.020819
-0.033053
-0.013164
-0.006394
-0.003611
0.002539
-0.022228
-0.139252
-0.010647
-0.005812
-0.232122
0.049418
0.054288
0.060905
-0.148323
-0.148177
-0.239905
-0.235048
-0.199732
-0.205225
-0.256589
-0.260462
-0.261196
-0.254886
0.058719
0.075537
-0.020255
-0.141542
-0.152150
0.016554
-0.031960
-0.014585
0.042884
-0.079509
-0.194958
-0.192227
-0.144824
-0.213610
-0.213973
-0.240521
-0.234658