# vtk DataFile Version 2.0
Test
ASCII
DATASET POLYDATA
POINTS 7607 float
0.000000 0.000000 0.000000
1.000000 0.000000 0.000000
1.000000 0.800000 0.000000
1.000000 1.000000 0.000000
0.000000 1.000000 0.000000
0.000000 0.200000 0.000000
0.300000 0.330000 0.000000
0.700000 0.680000 0.000000
0.012987 0.000000 0.000000
0.025974 0.000000 0.000000
0.038961 0.000000 0.000000
0.051948 0.000000 0.000000
0.064935 0.000000 0.000000
0.077922 0.000000 0.000000
0.090909 0.000000 0.000000
0.103896 0.000000 0.000000
0.116883 0.000000 0.000000
0.129870 0.000000 0.000000
0.142857 0.000000 0.000000
0.155844 0.000000 0.000000
0.168831 0.000000 0.000000
0.181818 0.000000 0.000000
0.194805 0.000000 0.000000
0.207792 0.000000 0.000000
0.220779 0.000000 0.000000
0.233766 0.000000 0.000000
0.246753 0.000000 0.000000
0.259740 0.000000 0.000000
0.272727 0.000000 0.000000
0.285714 0.000000 0.000000
0.298701 0.000000 0.000000
0.311688 0.000000 0.000000
0.324675 0.000000 0.000000
0.337662 0.000000 0.000000
0.350649 0.000000 0.000000
0.363636 0.000000 0.000000
0.376623 0.000000 0.000000
0.389610 0.000000 0.000000
0.402597 0.000000 0.000000
0.415584 0.000000 0.000000
0.428571 0.000000 0.000000
0.441558 0.000000 0.000000
0.454545 0.000000 0.000000
0.467532 0.000000 0.000000
0.480519 0.000000 0.000000
0.493506 0.000000 0.000000
0.506494 0.000000 0.000000
0.519481 0.000000 0.000000
0.532468 0.000000 0.000000
0.545455 0.000000 0.000000
0.558442 0.000000 0.000000
0.571429 0.000000 0.000000
0.584416 0.000000 0.000000
0.597403 0.000000 0.000000
0.610390 0.000000 0.000000
0.623377 0.000000 0.000000
0.636364 0.000000 0.000000
0.649351 0.000000 0.000000
0.662338 0.000000 0.000000
0.675325 0.000000 0.000000
0.688312 0.000000 0.000000
0.701299 0.000000 0.000000
0.714286 0.000000 0.000000
0.727273 0.000000 0.000000
0.740260 0.000000 0.000000
0.753247 0.000000 0.000000
0.766234 0.000000 0.000000
0.779221 0.000000 0.000000
0.792208 0.000000 0.000000
0.805195 0.000000 0.000000
0.818182 0.000000 0.000000
0.831169 0.000000 0.000000
0.844156 0.000000 0.000000
0.857143 0.000000 0.000000
0.870130 0.000000 0.000000
0.883117 0.000000 0.000000
0.896104 0.000000 0.000000
0.909091 0.000000 0.000000
0.922078 0.000000 0.000000
0.935065 0.000000 0.000000
0.948052 0.000000 0.000000
0.961039 0.000000 0.000000
0.974026 0.000000 0.000000
0.987013 0.000000 0.000000
1.000000 0.012903 0.000000
1.000000 0.025806 0.000000
1.000000 0.038710 0.000000
1.000000 0.051613 0.000000
1.000000 0.064516 0.000000
1.000000 0.077419 0.000000
1.000000 0.090323 0.000000
1.000000 0.103226 0.000000
1.000000 0.116129 0.000000
1.000000 0.129032 0.000000
1.000000 0.141935 0.000000
1.000000 0.154839 0.000000
1.000000 0.167742 0.000000
1.000000 0.180645 0.000000
1.000000 0.193548 0.000000
1.000000 0.206452 0.000000
1.000000 0.219355 0.000000
1.000000 0.232258 0.000000
1.000000 0.245161 0.000000
1.000000 0.258065 0.000000
1.000000 0.270968 0.000000
1.000000 0.283871 0.000000
1.000000 0.296774 0.000000
1.000000 0.309677 0.000000
1.000000 0.322581 0.000000
1.000000 0.335484 0.000000
1.000000 0.348387 0.000000
1.000000 0.361290 0.000000
1.000000 0.374194 0.000000
1.000000 0.387097 0.000000
1.000000 0.400000 0.000000
1.000000 0.412903 0.000000
1.000000 0.425806 0.000000
1.000000 0.438710 0.000000
1.000000 0.451613 0.000000
1.000000 0.464516 0.000000
1.000000 0.477419 0.000000
1.000000 0.490323 0.000000
1.000000 0.503226 0.000000
1.000000 0.516129 0.000000
1.000000 0.529032 0.000000
1.000000 0.541935 0.000000
1.000000 0.554839 0.000000
1.000000 0.567742 0.000000
1.000000 0.580645 0.000000
1.000000 0.593548 0.000000
1.000000 0.606452 0.000000
1.000000 0.619355 0.000000
1.000000 0.632258 0.000000
1.000000 0.645161 0.000000
1.000000 0.658065 0.000000
1.000000 0.670968 0.000000
1.000000 0.683871 0.000000
1.000000 0.696774 0.000000
1.000000 0.709677 0.000000
1.000000 0.722581 0.000000
1.000000 0.735484 0.000000
1.000000 0.748387 0.000000
1.000000 0.761290 0.000000
1.000000 0.774194 0.000000
1.000000 0.787097 0.000000
1.000000 0.812500 0.000000
1.000000 0.825000 0.000000
1.000000 0.837500 0.000000
1.000000 0.850000 0.000000
1.000000 0.862500 0.000000
1.000000 0.875000 0.000000
1.000000 0.887500 0.000000
1.000000 0.900000 0.000000
1.000000 0.912500 0.000000
1.000000 0.925000 0.000000
1.000000 0.937500 0.000000
1.000000 0.950000 0.000000
1.000000 0.962500 0.000000
1.000000 0.975000 0.000000
1.000000 0.987500 0.000000
0.987013 1.000000 0.000000
0.974026 1.000000 0.000000
0.961039 1.000000 0.000000
0.948052 1.000000 0.000000
0.935065 1.000000 0.000000
0.922078 1.000000 0.000000
0.909091 1.000000 0.000000
0.896104 1.000000 0.000000
0.883117 1.000000 0.000000
0.870130 1.000000 0.000000
0.857143 1.000000 0.000000
0.844156 1.000000 0.000000
0.831169 1.000000 0.000000
0.818182 1.000000 0.000000
0.805195 1.000000 0.000000
0.792208 1.000000 0.000000
0.779221 1.000000 0.000000
0.766234 1.000000 0.000000
0.753247 1.000000 0.000000
0.740260 1.000000 0.000000
0.727273 1.000000 0.000000
0.714286 1.000000 0.000000
0.701299 1.000000 0.000000
0.688312 1.000000 0.000000
0.675325 1.000000 0.000000
0.662338 1.000000 0.000000
0.649351 1.000000 0.000000
0.636364 1.000000 0.000000
0.623377 1.000000 0.000000
0.610390 1.000000 0.000000
0.597403 1.000000 0.000000
0.584416 1.000000 0.000000
0.571429 1.000000 0.000000
0.558442 1.000000 0.000000
0.545455 1.000000 0.000000
0.532468 1.000000 0.000000
0.519481 1.000000 0.000000
0.506494 1.000000 0.000000
0.493506 1.000000 0.000000
0.480519 1.000000 0.000000
0.467532 1.000000 0.000000
0.454545 1.000000 0.000000
0.441558 1.000000 0.000000
0.428571 1.000000 0.000000
0.415584 1.000000 0.000000
0.402597 1.000000 0.000000
0.389610 1.000000 0.000000
0.376623 1.000000 0.000000
0.363636 1.000000 0.000000
0.350649 1.000000 0.000000
0.337662 1.000000 0.000000
0.324675 1.000000 0.000000
0.311688 1.000000 0.000000
0.298701 1.000000 0.000000
0.285714 1.000000 0.000000
0.272727 1.000000 0.000000
0.259740 1.000000 0.000000
0.246753 1.000000 0.000000
0.233766 1.000000 0.000000
0.220779 1.000000 0.000000
0.207792 1.000000 0.000000
0.194805 1.000000 0.000000
0.181818 1.000000 0.000000
0.168831 1.000000 0.000000
0.155844 1.000000 0.000000
0.142857 1.000000 0.000000
0.129870 1.000000 0.000000
0.116883 1.000000 0.000000
0.103896 1.000000 0.000000
0.090909 1.000000 0.000000
0.077922 1.000000 0.000000
0.064935 1.000000 0.000000
0.051948 1.000000 0.000000
0.038961 1.000000 0.000000
0.025974 1.000000 0.000000
0.012987 1.000000 0.000000
0.000000 0.987097 0.000000
0.000000 0.974194 0.000000
0.000000 0.961290 0.000000
0.000000 0.948387 0.000000
0.000000 0.935484 0.000000
0.000000 0.922581 0.000000
0.000000 0.909677 0.000000
0.000000 0.896774 0.000000
0.000000 0.883871 0.000000
0.000000 0.870968 0.000000
0.000000 0.858065 0.000000
0.000000 0.845161 0.000000
0.000000 0.832258 0.000000
0.000000 0.819355 0.000000
0.000000 0.806452 0.000000
0.000000 0.793548 0.000000
0.000000 0.780645 0.000000
0.000000 0.767742 0.000000
0.000000 0.754839 0.000000
0.000000 0.741935 0.000000
0.000000 0.729032 0.000000
0.000000 0.716129 0.000000
0.000000 0.703226 0.000000
0.000000 0.690323 0.000000
0.000000 0.677419 0.000000
0.000000 0.664516 0.000000
0.000000 0.651613 0.000000
0.000000 0.638710 0.000000
0.000000 0.625806 0.000000
0.000000 0.612903 0.000000
0.000000 0.600000 0.000000
0.000000 0.587097 0.000000
0.000000 0.574194 0.000000
0.000000 0.561290 0.000000
0.000000 0.548387 0.000000
0.000000 0.535484 0.000000
0.000000 0.522581 0.000000
0.000000 0.509677 0.000000
0.000000 0.496774 0.000000
0.000000 0.483871 0.000000
0.000000 0.470968 0.000000
0.000000 0.458065 0.000000
0.000000 0.445161 0.000000
0.000000 0.432258 0.000000
0.000000 0.419355 0.000000
0.000000 0.406452 0.000000
0.000000 0.393548 0.000000
0.000000 0.380645 0.000000
0.000000 0.367742 0.000000
0.000000 0.354839 0.000000
0.000000 0.341935 0.000000
0.000000 0.329032 0.000000
0.000000 0.316129 0.000000
0.000000 0.303226 0.000000
0.000000 0.290323 0.000000
0.000000 0.277419 0.000000
0.000000 0.264516 0.000000
0.000000 0.251613 0.000000
0.000000 0.238710 0.000000
0.000000 0.225806 0.000000
0.000000 0.212903 0.000000
0.000000 0.187500 0.000000
0.000000 0.175000 0.000000
0.000000 0.162500 0.000000
0.000000 0.150000 0.000000
0.000000 0.137500 0.000000
0.000000 0.125000 0.000000
0.000000 0.112500 0.000000
0.000000 0.100000 0.000000
0.000000 0.087500 0.000000
0.000000 0.075000 0.000000
0.000000 0.062500 0.000000
0.000000 0.050000 0.000000
0.000000 0.037500 0.000000
0.000000 0.025000 0.000000
0.000000 0.012500 0.000000
0.309756 0.338537 0.000000
0.319512 0.347073 0.000000
0.329268 0.355610 0.000000
0.339024 0.364146 0.000000
0.348780 0.372683 0.000000
0.358537 0.381220 0.000000
0.368293 0.389756 0.000000
0.378049 0.398293 0.000000
0.387805 0.406829 0.000000
0.397561 0.415366 0.000000
0.407317 0.423902 0.000000
0.417073 0.432439 0.000000
0.426829 0.440976 0.000000
0.436585 0.449512 0.000000
0.446341 0.458049 0.000000
0.456098 0.466585 0.000000
0.465854 0.475122 0.000000
0.475610 0.483659 0.000000
0.485366 0.492195 0.000000
0.495122 0.500732 0.000000
0.504878 0.509268 0.000000
0.514634 0.517805 0.000000
0.524390 0.526341 0.000000
0.534146 0.534878 0.000000
0.543902 0.543415 0.000000
0.553659 0.551951 0.000000
0.563415 0.560488 0.000000
0.573171 0.569024 0.000000
0.582927 0.577561 0.000000
0.592683 0.586098 0.000000
0.602439 0.594634 0.000000
0.612195 0.603171 0.000000
0.621951 0.611707 0.000000
0.631707 0.620244 0.000000
0.641463 0.628780 0.000000
0.651220 0.637317 0.000000
0.660976 0.645854 0.000000
0.670732 0.654390 0.000000
0.680488 0.662927 0.000000
0.690244 0.671463 0.000000
0.011538 0.205000 0.000000
0.023077 0.210000 0.000000
0.034615 0.215000 0.000000
0.046154 0.220000 0.000000
0.057692 0.225000 0.000000
0.069231 0.230000 0.000000
0.080769 0.235000 0.000000
0.092308 0.240000 0.000000
0.103846 0.245000 0.000000
0.115385 0.250000 0.000000
0.126923 0.255000 0.000000
0.138462 0.260000 0.000000
0.150000 0.265000 0.000000
0.161538 0.270000 0.000000
0.173077 0.275000 0.000000
[...]
POINT_DATA 7607
SCALARS UX float 1
LOOKUP_TABLE default
-0.000001
0.000004
0.023767
0.017308
-0.027388
-0.022688
-0.017694
0.013880
-0.000001
-0.000000
-0.000000
0.000000
0.000001
-0.000000
0.000000
-0.000000
0.000000
0.000000
0.000001
-0.000000
0.000000
-0.000000
0.000000
-0.000001
0.000000
-0.000000
-0.000000
0.000000
0.000000
-0.000000
0.000000
0.000000
-0.000000
0.000000
0.000000
-0.000000
0.000000
-0.000000
0.000000
-0.000000
-0.000000
-0.000000
0.000000
-0.000000
0.000000
-0.000000
0.000000
0.000000
-0.000000
-0.000000
-0.000000
-0.000000
0.000000
0.000000
0.000000
-0.000000
0.000000
-0.000000
-0.000000
-0.000000
0.000000
-0.000000
-0.000000
-0.000000
-0.000000
0.000000
0.000000
-0.000000
0.000000
0.000000
0.000000
-0.000000
-0.000000
0.000000
0.000000
-0.000000
-0.000000
-0.000000
0.000000
-0.000001
0.000001
0.000001
-0.000004
0.000003
0.002560
0.004612
0.006194
0.007561
0.008740
0.009851
0.010893
0.011845
0.012759
0.013609
0.014437
0.015214
0.015982
0.016721
0.017419
0.018121
0.018810
0.019501
0.020111
0.020781
0.021424
0.022081
0.022697
0.023316
0.023925
0.024509
0.025136
0.025708
0.026294
0.026857
0.027422
0.027966
0.028482
0.028995
0.029479
0.029933
0.030306
0.030625
0.030922
0.031192
0.031390
0.031520
0.031649
0.031699
0.031696
0.031619
0.031514
0.031324
0.031087
0.030781
0.030428
0.030012
0.029533
0.029001
0.028461
0.027860
0.027192
0.026553
0.025859
0.025139
0.024430
0.023073
0.022419
0.021788
0.021182
0.020604
0.020104
0.019578
0.019157
0.018744
0.018357
0.018066
0.017827
0.017622
0.017459
0.017362
0.016394
0.015502
0.014633
0.013784
0.012951
0.012148
0.011387
0.010626
0.009889
0.009165
0.008466
0.007796
0.007144
0.006526
0.005938
0.005378
0.004804
0.004255
0.003730
0.003228
0.002734
0.002265
0.001818
0.001381
0.000964
0.000556
0.000149
-0.000246
-0.000634
-0.001025
-0.001421
-0.001820
-0.002226
-0.002640
-0.003064
-0.003497
-0.003946
-0.004407
-0.004893
-0.005400
-0.005907
-0.006420
-0.006942
-0.007473
-0.008014
-0.008563
-0.009118
-0.009683
-0.010238
-0.010821
-0.011412
-0.012000
-0.012590
-0.013180
-0.013769
-0.014368
-0.014970
-0.015566
-0.016179
-0.016790
-0.017395
-0.018000
-0.018618
-0.019229
-0.019836
-0.020455
-0.021072
-0.021685
-0.022302
-0.022925
-0.023546
-0.024174
-0.024809
-0.025441
-0.026083
-0.026734
-0.027394
-0.027429
-0.027479
-0.027561
-0.027621
-0.027727
-0.027868
-0.028003
-0.028174
-0.028356
-0.028551
-0.028763
-0.028978
-0.029233
-0.029487
-0.029781
-0.030082
-0.030360
-0.030677
-0.031030
-0.031370
-0.031674
-0.032060
-0.032415
-0.032784
-0.033139
-0.033506
-0.033878
-0.034212
-0.034598
-0.034929
-0.035259
-0.035590
-0.035883
-0.036175
-0.036432
-0.036677
-0.036861
-0.037018
-0.037109
-0.037163
-0.037152
-0.037077
-0.036923
-0.036712
-0.036424
-0.036072
-0.035627
-0.035112
-0.034515
-0.033835
-0.033086
-0.032229
-0.031332
-0.030381
-0.029364
-0.028318
-0.027245
-0.026104
-0.024966
-0.023802
-0.021526
-0.020403
-0.019308
-0.018182
-0.017095
-0.016033
-0.014908
-0.013816
-0.012642
-0.011342
-0.010124
-0.008769
-0.007260
-0.005571
-0.003265
-0.016124
-0.017024
-0.019075
-0.020593
-0.018665
-0.017387
-0.016603
-0.016112
-0.015571
-0.014496
-0.014480
-0.013307
-0.012057
-0.011110
-0.009998
-0.009158
-0.007900
-0.006707
-0.006419
-0.005106
-0.004715
-0.003129
-0.002108
-0.000606
0.000702
0.001835
0.003813
0.004684
0.006483
0.008226
0.008517
0.010498
0.011182
0.011671
0.011768
0.010108
0.012750
0.011649
0.011355
0.012301
-0.022527
-0.022334
-0.022230
-0.022111
-0.022017
-0.021917
-0.021801
-0.021682
-0.021565
-0.021459
-0.021358
-0.021230
-0.021142
-0.021043
-0.021001
-0.020836
-0.020812
-0.020803
-0.020817
-0.020983
-0.021182
-0.021278
-0.021686
-0.022046
-0.019644
0.016518
0.016686
0.016661
0.016841
0.016903
0.017111
0.017263
0.017553
0.017845
0.018073
0.018474
0.018819
0.019170
0.019538
0.019925
0.020310
0.020691
0.021070
0.021433
0.021782
0.022155
0.022544
0.022932
0.023341
0.002034
0.001698
0.002497
0.001437
0.017975
0.017539
0.017992
-0.025377
-0.026701
-0.023834
-0.025376
-0.025978
-0.024407
0.005918
0.006920
0.006631
-0.026345
-0.024522
-0.024870
-0.024369
0.011479
0.011754
0.012192
0.010978
-0.015749
-0.015237
-0.016623
-0.014351
-0.005623
-0.007129
-0.027122
-0.026192
-0.026395
-0.027354
-0.018514
-0.017301
0.003903
0.005015
0.004863
0.003997
-0.022275
-0.023024
-0.022490
-0.022906
0.018707
0.017808
0.018445
0.017165
0.024393
0.023746
0.024133
0.016721
0.016932
0.023184
0.015688
0.016002
0.016542
0.001811
0.001527
0.002089
-0.020548
-0.021634
0.001857
0.008612
0.009610
0.009726
-0.011500
-0.012892
-0.011685
0.010946
-0.027095
-0.027022
0.006277
0.005018
0.017393
-0.004394
-0.004231
-0.003736
-0.009567
-0.009651
-0.009124
-0.003590
0.002222
0.002639
0.002492
0.013187
0.013840
0.014267
0.014710
-0.001647
-0.001872
-0.001757
-0.015119
-0.016056
-0.014960
-0.001876
0.026838
0.027187
0.026491
-0.022823
-0.022911
-0.024680
0.018908
0.019765
0.019304
0.019421
-0.010127
-0.001020
-0.001589
-0.001932
-0.001114
-0.001705
-0.001608
0.010083
0.010943
0.010853
0.002871
0.002281
0.002753
0.010543
0.010685
0.011370
0.015168
0.015868
0.015821
0.015202
0.011731
0.025235
0.024463
0.025076
-0.001291
-0.002705
-0.009073
-0.010388
-0.009907
-0.009665
-0.028398
-0.027941
-0.028204
-0.027641
-0.005472
-0.005606
-0.005887
-0.005035
0.008857
0.008838
0.009349
0.008387
0.014148
-0.001468
-0.001294
-0.001326
-0.001128
-0.036757
-0.036801
-0.036410
-0.001812
-0.001868
-0.002026
-0.025102
-0.024678
-0.025263
-0.002126
0.006986
0.008504
0.007466
-0.027641
-0.027211
-0.027519
-0.020876
-0.020776
-0.021314
-0.027348
0.024878
0.024671
0.025235
0.024470
0.024412
0.024667
0.024965
0.013662
0.014329
0.014232
-0.004828
-0.005315
-0.004801
-0.001309
-0.000754
-0.000960
-0.001668
-0.002022
-0.001678
-0.001958
0.010866
0.011692
0.010832
-0.013351
-0.014029
-0.012888
-0.014424
-0.017076
-0.016798
-0.016087
-0.016083
0.017022
0.016931
0.016446
0.016385
0.017425
0.016635
0.016754
0.027616
0.027177
0.027014
0.019723
0.018588
-0.030639
-0.030666
-0.031160
0.016076
0.016672
0.015964
0.016814
0.026934
0.026470
0.027315
0.019801
0.019560
0.019416
0.019138
-0.007065
-0.006438
-0.023084
-0.023347
-0.022876
-0.018675
-0.018780
-0.019240
-0.019436
-0.000670
-0.000772
-0.000793
-0.023731
-0.005358
-0.004976
0.004588
0.004639
0.004064
0.025520
0.025154
0.024501
0.005175
-0.003157
-0.002312
-0.002380
-0.002690
-0.025449
-0.025842
-0.002691
-0.002540
-0.002933
0.009274
0.009730
0.010164
0.004850
0.004726
0.005320
0.016473
0.015877
-0.025573
-0.026221
-0.026104
-0.011617
-0.011033
0.026557
0.026088
0.005251
0.018472
0.019018
0.018660
0.006128
0.006183
0.006761
0.006748
-0.030885
-0.030595
-0.030974
-0.030481
-0.031065
-0.030449
-0.030737
-0.029926
0.011236
0.010502
0.010852
0.011097
-0.030386
-0.030091
-0.030130
-0.029835
0.027021
0.027453
0.023238
0.022908
0.023404
0.011617
0.011113
0.011870
0.022634
0.012636
0.013196
0.012345
0.018950
0.012447
-0.033470
-0.033454
-0.033849
-0.003487
-0.003612
-0.004379
-0.015078
-0.015672
-0.015761
-0.004832
-0.004822
-0.003872
0.019450
0.013624
-0.005417
0.025668
0.013671
0.013214
0.012911
0.013986
-0.031396
-0.031711
-0.014987
0.006865
0.007855
0.007231
0.011146
0.010492
0.011430
-0.023971
-0.024187
-0.023673
0.002561
-0.000361
-0.001096
-0.011658
-0.012742
0.025232
0.024584
0.009235
0.008437
0.008223
0.010596
-0.031101
-0.031590
-0.031285
-0.031505
-0.030858
-0.030564
-0.001449
-0.001241
-0.001393
-0.001269
0.026631
0.026172
0.016095
0.016245
0.015743
0.016832
0.012987
0.012602
0.013380
0.012879
-0.001698
-0.001667
-0.000870
0.005458
0.005135
0.005719
-0.002258
-0.002538
-0.002495
-0.002412
-0.031076
-0.030271
-0.001216
-0.001927
-0.035172
-0.035623
-0.035213
0.015821
0.015007
0.016721
-0.011655
-0.010183
-0.012570
0.014499
0.014328
0.013471
0.014585
0.015176
0.006647
0.007538
-0.023218
-0.023412
-0.023965
0.027111
0.027556
-0.001509
-0.001598
-0.008278
-0.007328
-0.008742
0.004845
-0.007795
-0.007814
-0.008415
0.007534
0.007869
0.008326
0.012652
0.012277
-0.006497
-0.005896
-0.006943
-0.001814
-0.001532
-0.001801
0.008451
-0.031726
-0.017673
-0.032072
0.025757
0.006877
0.005998
-0.023030
-0.022742
0.025327
0.024655
-0.016933
-0.016275
-0.016972
0.006630
0.007844
0.007719
-0.001690
-0.001476
-0.002115
-0.001792
-0.016472
-0.020114
-0.020636
-0.020398
-0.020948
0.026694
0.026233
-0.031727
-0.032291
-0.032183
0.006216
0.005769
0.014176
0.013310
0.014143
0.013339
0.003414
0.003941
0.003525
-0.023425
-0.022974
-0.021203
-0.021679
-0.021652
-0.021184
-0.031718
-0.031492
-0.031235
-0.027737
0.003004
0.002993
0.003515
0.002322
-0.004012
-0.004425
-0.004429
-0.026158
-0.025655
-0.026007
0.015043
0.015829
0.015191
0.016619
-0.031361
-0.030581
-0.028151
-0.026766
-0.027177
-0.026411
0.027058
0.027666
-0.027857
0.008923
0.008334
-0.025492
0.022306
0.021592
0.021555
-0.024596
-0.024758
-0.009281
-0.026673
-0.026487
0.005490
0.003971
-0.008324
-0.009914
-0.009068
-0.000501
-0.000528
0.003653
0.027035
0.027594
0.027450
0.027307
0.027022
0.026631
-0.012209
-0.012640
-0.012614
-0.012106
0.010688
0.010835
0.011696
-0.005683
-0.004362
0.016168
0.015899
0.022584
0.022198
-0.028007
-0.027350
-0.027694
-0.027945
-0.011482
-0.012260
-0.012256
-0.013003
0.025603
0.025038
0.025850
0.026418
0.026286
0.010179
0.009632
0.009496
0.011717
-0.028705
-0.028903
-0.029254
-0.024850
-0.024344
-0.008186
-0.007827
-0.007246
-0.006745
0.010070
0.010249
0.009509
0.014140
0.015031
0.009582
-0.001058
-0.001292
0.024797
0.014706
0.014648
0.013934
0.011734
0.012054
0.012660
0.011127
0.009450
-0.025125
0.010256
0.014147
0.001069
-0.006198
-0.007101
-0.005856
-0.026044
-0.027065
-0.032750
-0.033190
-0.032940
-0.028455
-0.027298
-0.016016
-0.015887
-0.015336
-0.033602
0.018364
0.020280
0.014288
0.014713
0.015023
-0.007816
-0.008956
0.014049
-0.021288
-0.021403
-0.021762
0.007103
0.006273
-0.016522
-0.022814
-0.022515
-0.032006
-0.003037
-0.003255
-0.002456
-0.032304
-0.001623
-0.002001
-0.033419
-0.033092
0.010967
0.011572
0.011942
0.025823
0.000817
0.000596
0.000896
0.000507
-0.032850
-0.032858
-0.032301
-0.014110
-0.014648
-0.014435
-0.014410
-0.001371
-0.001329
-0.006867
-0.006348
0.023887
0.024621
0.023845
0.003633
0.022857
0.022322
0.004201
0.020878
0.009604
0.008779
0.008794
0.008849
0.009858
-0.026688
-0.027292
-0.026966
-0.004043
-0.003863
-0.004305
-0.003859
0.025345
0.024777
-0.007400
-0.008536
-0.021990
-0.024263
-0.023463
-0.023051
-0.023410
-0.022728
-0.022704
-0.024929
-0.025539
0.008780
-0.023814
-0.002502
0.008868
-0.002252
0.027101
-0.001791
0.025438
0.026348
-0.002767
-0.002653
-0.002981
0.016345
0.015164
0.015455
-0.002408
-0.030605
-0.031208
-0.003562
-0.002637
0.008768
-0.021905
-0.011130
-0.010636
-0.010073
-0.009265
0.013461
0.012539
0.012628
-0.005785
-0.005302
-0.027006
-0.010941
0.007214
-0.012008
-0.026350
-0.026097
-0.031574
0.018591
0.005995
0.004545
-0.030833
0.007920
0.015393
-0.008405
-0.035504
-0.035116
-0.034796
0.017120
-0.009951
-0.005135
-0.006754
0.000413
0.000093
0.000075
0.015547
0.016148
0.000316
-0.006499
-0.005992
0.009891
0.010038
0.021961
0.021492
0.010833
0.020878
0.021069
0.008073
0.008087
0.008119
0.009118
-0.020831
0.008914
0.009367
0.008896
-0.007005
-0.008000
-0.023521
-0.023588
-0.024079
-0.027678
-0.027979
-0.026664
-0.029072
-0.004940
-0.004450
0.008085
0.008182
0.008061
0.023101
0.024041
0.024780
0.022227
-0.023404
0.013460
-0.000982
0.005943
0.006757
-0.024570
0.016289
0.016172
0.016925
0.000768
-0.025886
0.006076
0.006010
0.006662
0.003061
0.005224
0.013893
0.014010
0.014579
0.014751
-0.001796
-0.002885
-0.002332
-0.003889
0.030310
0.030242
0.030566
0.029837
-0.025348
-0.025528
-0.025074
-0.002839
-0.001314
0.008525
0.009042
0.008385
0.002318
0.003660
0.002976
0.009344
0.008338
-0.023175
0.019993
0.019144
0.019306
-0.025121
-0.025968
-0.029103
-0.029616
-0.029753
0.008505
0.027672
0.026528
0.026984
0.025672
0.020978
-0.006801
-0.006063
-0.006356
0.011229
0.012076
-0.006623
0.010017
0.010145
-0.003899
-0.004414
-0.004347
-0.024905
-0.025253
-0.005446
-0.013291
-0.013419
-0.012956
-0.013763
0.030359
0.030083
0.029978
0.029669
-0.028669
-0.004327
-0.028306
-0.027146
-0.029583
0.010979
0.011546
0.010947
0.025607
0.025753
0.024979
-0.009868
-0.008315
-0.009167
-0.027155
0.008462
-0.030202
-0.026033
-0.025765
-0.028444
-0.028503
-0.027611
-0.027547
-0.027203
0.006137
0.004984
-0.027662
0.023235
-0.002966
-0.003330
-0.002994
-0.001668
-0.001716
-0.002000
-0.009595
-0.003168
0.007514
0.007335
0.008304
0.017284
-0.007132
-0.008052
-0.005476
0.015682
0.016508
0.015149
0.024129
0.024932
0.022344
-0.001653
-0.001633
-0.021341
-0.021068
-0.021670
-0.023173
-0.034911
-0.034558
-0.034446
-0.021979
-0.022331
-0.021735
0.020069
0.020446
0.020090
-0.024205
-0.025581
-0.026467
-0.006137
-0.005650
-0.018175
0.013387
0.012764
-0.001893
-0.000986
0.027330
0.028132
0.026787
0.025891
0.013489
0.014269
-0.003090
-0.004217
-0.001507
0.007462
0.007301
0.007967
-0.024105
0.000164
-0.000425
-0.000407
0.000955
-0.010735
-0.010417
-0.026475
-0.026097
-0.026401
-0.024701
-0.024691
-0.025239
0.003121
0.001897
0.004109
-0.029315
-0.030361
-0.028878
-0.027706
0.007362
0.023199
0.022078
0.007401
0.007415
0.020236
0.008450
0.024206
0.025127
0.008239
-0.010594
-0.019135
-0.019975
-0.003888
-0.004707
-0.003582
0.000994
0.001263
0.000751
0.023597
0.023822
0.024035
-0.027024
-0.026877
-0.027168
-0.026748
-0.013873
-0.014627
-0.014494
-0.027405
-0.027549
0.008996
-0.015301
-0.026560
-0.025883
-0.025482
0.007485
0.006750
0.005349
-0.008906
-0.010481
0.000879
0.016449
0.017457
-0.000815
-0.000708
-0.000809
-0.007993
-0.005867
0.015357
0.014627
-0.024555
-0.023175
-0.026131
-0.026975
0.027734
0.028726
0.027142
0.026101
0.012753
0.012120
-0.014459
-0.015738
-0.013909
-0.001982
-0.001007
-0.006628
-0.030084
-0.031336
-0.007591
-0.000742
0.012823
0.013669
-0.003188
-0.004399
-0.000754
-0.000921
0.007411
0.007515
-0.004632
-0.024106
-0.023601
-0.026886
0.002044
0.001079
-0.014354
-0.013566
-0.013860
-0.029546
-0.028236
-0.024242
-0.024869
0.003380
0.004447
-0.004170
-0.021333
-0.020799
-0.021113
0.023329
0.021454
0.024384
0.025279
-0.013621
-0.024703
-0.023252
-0.026061
0.024396
0.024385
0.024955
-0.026395
0.023751
-0.020459
0.008329
0.013471
0.012729
0.013098
0.025778
-0.025692
-0.025209
-0.026877
0.007336
0.005844
0.009618
0.028162
0.026392
-0.010272
-0.012028
-0.009984
0.027458
0.026388
0.028920
-0.009863
-0.011555
-0.008929
-0.010264
0.012423
-0.000824
0.017066
0.016827
0.017344
0.007370
-0.006940
-0.002748
-0.002754
-0.003050
-0.002351
0.014444
0.016433
-0.030887
-0.026250
-0.026632
-0.025477
-0.005130
-0.030133
-0.028895
-0.031847
-0.027624
-0.028174
0.023533
0.014258
0.012055
0.014979
0.014309
-0.002030
0.013593
0.007663
0.011912
0.007815
0.011428
-0.002870
-0.022636
-0.022388
-0.022160
-0.001116
-0.023646
-0.022994
0.002348
0.020511
0.020845
0.020893
-0.032273
0.024521
0.025544
0.020926
-0.023793
-0.024450
-0.023038
0.003576
0.004925
0.001485
-0.032595
0.006664
-0.024908
0.006721
-0.005264
-0.005763
-0.005363
-0.036187
-0.035633
-0.035952
-0.026710
-0.024070
0.006691
0.028250
0.007492
-0.026884
0.021332
0.021278
0.020701
-0.005776
-0.005284
-0.005777
-0.005325
-0.009126
-0.008682
-0.008120
0.020592
0.007550
-0.026150
-0.023173
0.008843
-0.003638
-0.003115
-0.025409
-0.025038
-0.026885
0.007710
0.006447
0.010507
0.001152
0.001364
0.000894
0.001129
0.006739
0.006852
-0.004330
-0.003898
0.007304
0.006515
0.006696
0.010131
0.010810
0.010963
-0.025721
-0.025991
-0.025666
-0.028302
0.011765
0.009945
0.010568
-0.006258
-0.007192
-0.002867
-0.002335
-0.012333
-0.012267
-0.012840
-0.032821
-0.033191
0.026682
-0.008781
-0.010097
0.021617
0.020719
0.021282
-0.029494
0.019999
-0.000803
-0.000389
-0.000656
-0.000515
-0.012838
-0.015645
-0.016060
-0.016175
-0.007928
-0.007138
-0.007670
-0.023188
-0.006453
-0.007972
0.002654
-0.008829
0.006998
-0.025231
0.007145
0.031157
0.031202
0.030890
0.005987
0.006055
-0.004808
-0.023339
0.001714
0.001957
0.001585
0.003701
-0.010644
0.002041
-0.010790
-0.011216
-0.010669
0.005986
0.006779
0.027597
0.028158
0.027807
-0.030092
-0.029664
-0.029726
0.027979
-0.029910
-0.030395
-0.030292
-0.024251
-0.024664
-0.022665
-0.029382
-0.022683
0.000313
0.000700
0.000418
0.019294
0.018698
-0.005422
-0.005006
0.006890
0.006061
0.006196
-0.004689
-0.005205
-0.005548
0.009151
0.008321
-0.031262
-0.031590
-0.031837
-0.026129
-0.026535
-0.026369
0.008145
0.008863
-0.003399
-0.026187
-0.026043
-0.026597
0.019349
0.019624
-0.004045
-0.003599
0.006013
-0.030974
-0.030587
-0.000161
-0.000339
-0.000221
-0.005867
-0.006779
0.005296
0.005394
-0.030219
0.009185
0.010014
-0.026220
0.017123
0.017812
0.017980
0.016982
-0.033089
-0.032947
-0.032465
0.001039
0.000935
0.001490
-0.002677
-0.002162
0.017864
0.017580
0.018545
0.016924
0.019217
0.019539
0.005283
0.006044
-0.004186
-0.005310
-0.004440
-0.005385
-0.033528
0.000013
-0.000154
0.000406
0.006354
0.006523
0.023909
0.023498
0.023545
0.023826
0.023217
0.023667
0.023219
-0.002365
-0.002366
-0.002027
0.017928
-0.004525
-0.002777
0.000345
0.000150
0.000020
0.000529
-0.015029
-0.015135
-0.016100
0.022536
-0.013877
-0.017243
-0.017235
-0.018249
0.015463
0.015449
0.014467
0.008496
0.007582
0.019773
0.020662
0.020289
0.020177
0.020814
0.019772
0.020908
0.021775
0.014679
0.020540
0.020193
-0.005079
-0.004649
0.026315
0.026004
0.026248
0.026098
0.025973
0.026445
0.026128
0.025639
-0.007710
0.005395
0.005458
0.007710
0.008955
0.006246
0.016337
0.017805
0.017026
0.017693
0.017183
0.031352
0.030995
0.030930
0.004629
0.004659
0.006786
0.005376
0.005945
0.005957
0.005276
0.005354
-0.003796
-0.003379
0.004621
-0.003166
0.029747
0.030104
0.029337
0.020788
0.021233
0.020343
-0.005522
-0.006347
-0.023844
-0.024560
-0.005346
-0.005809
-0.005315
-0.005682
-0.025786
-0.025254
-0.025651
-0.025341
0.001217
0.001236
0.001593
0.001416
0.005369
0.006244
-0.002498
-0.002006
0.005729
0.005902
0.006834
0.008146
0.029400
0.029111
0.029065
0.028647
0.015287
0.012466
0.011580
0.011824
0.028712
0.029181
0.029546
-0.008309
-0.009683
-0.004242
-0.017366
-0.016515
-0.017730
-0.016334
-0.018132
-0.018931
-0.019527
0.004786
0.004847
-0.004788
-0.004366
0.030761
-0.007279
0.005595
0.004017
0.004059
0.016262
-0.022627
0.004731
-0.000186
-0.000258
-0.000268
-0.000337
-0.003546
-0.003136
0.003991
0.004587
-0.005195
-0.005969
-0.002968
-0.022412
-0.005847
-0.005380
-0.004831
-0.002330
-0.001869
0.005117
0.005302
-0.000282
-0.000383
-0.000265
-0.000425
-0.013503
-0.013863
-0.014132
-0.013340
-0.007430
-0.006674
-0.007711
-0.007846
-0.009147
-0.003964
0.004190
0.004270
-0.004514
-0.004108
-0.007866
-0.007117
-0.007054
-0.017212
-0.016881
-0.017498
-0.023397
-0.023899
-0.023663
-0.024210
-0.006850
0.004122
0.004968
0.003466
0.003497
0.022110
0.022439
0.022419
0.022990
0.005031
0.005650
0.005490
-0.003279
-0.002839
-0.004936
-0.005626
0.004609
-0.020842
-0.021059
-0.020010
-0.002746
0.000947
0.001913
0.002146
0.003453
0.003967
-0.000137
-0.000237
0.001317
-0.032539
-0.033027
0.022707
0.023206
0.022838
0.022139
-0.002799
0.004537
0.004719
-0.002445
-0.024304
-0.000610
-0.000519
-0.000620
0.020438
0.020706
0.021248
-0.007547
-0.008790
-0.008174
-0.008111
0.004689
0.005601
-0.003884
0.002861
0.002990
0.003626
0.003718
-0.007460
-0.008751
-0.003693
0.018242
0.017362
0.021331
0.018260
0.017718
0.001548
0.001931
0.001719
0.001705
-0.011663
-0.010510
0.003594
-0.004743
-0.005305
-0.001208
-0.001289
-0.001455
-0.001102
-0.006467
0.004388
-0.003043
-0.002629
-0.030535
0.020268
0.019828
0.020435
0.003980
0.004155
-0.020423
-0.020151
-0.019869
-0.020765
-0.035689
-0.036045
-0.035989
-0.036394
0.025686
0.025476
-0.003469
0.003056
0.003182
0.020716
-0.007060
-0.008191
0.019804
-0.012387
-0.012878
-0.012704
0.003141
-0.028840
-0.028465
-0.029179
-0.028927
-0.028783
-0.028384
-0.028227
-0.027911
0.001803
-0.006094
0.003830
-0.013395
-0.002471
-0.002544
-0.011995
-0.011983
-0.000183
-0.003346
-0.003129
-0.002914
-0.003203
-0.004801
-0.004695
-0.005209
-0.004296
0.003448
0.003633
0.004013
-0.011454
0.002686
0.003143
0.002507
0.003411
-0.007278
-0.007411
-0.006815
0.002574
0.002036
-0.001631
-0.001733
-0.001463
-0.002004
-0.006651