# vtk DataFile Version 2.0
Test
ASCII
DATASET POLYDATA
POINTS 7607 float
0.000000 0.000000 0.000000
1.000000 0.000000 0.000000
1.000000 0.800000 0.000000
1.000000 1.000000 0.000000
0.000000 1.000000 0.000000
0.000000 0.200000 0.000000
0.300000 0.330000 0.000000
0.700000 0.680000 0.000000
0.012987 0.000000 0.000000
0.025974 0.000000 0.000000
0.038961 0.000000 0.000000
0.051948 0.000000 0.000000
0.064935 0.000000 0.000000
0.077922 0.000000 0.000000
0.090909 0.000000 0.000000
0.103896 0.000000 0.000000
0.116883 0.000000 0.000000
0.129870 0.000000 0.000000
0.142857 0.000000 0.000000
0.155844 0.000000 0.000000
0.168831 0.000000 0.000000
0.181818 0.000000 0.000000
0.194805 0.000000 0.000000
0.207792 0.000000 0.000000
0.220779 0.000000 0.000000
0.233766 0.000000 0.000000
0.246753 0.000000 0.000000
0.259740 0.000000 0.000000
0.272727 0.000000 0.000000
0.285714 0.000000 0.000000
0.298701 0.000000 0.000000
0.311688 0.000000 0.000000
0.324675 0.000000 0.000000
0.337662 0.000000 0.000000
0.350649 0.000000 0.000000
0.363636 0.000000 0.000000
0.376623 0.000000 0.000000
0.389610 0.000000 0.000000
0.402597 0.000000 0.000000
0.415584 0.000000 0.000000
0.428571 0.000000 0.000000
0.441558 0.000000 0.000000
0.454545 0.000000 0.000000
0.467532 0.000000 0.000000
0.480519 0.000000 0.000000
0.493506 0.000000 0.000000
0.506494 0.000000 0.000000
0.519481 0.000000 0.000000
0.532468 0.000000 0.000000
0.545455 0.000000 0.000000
0.558442 0.000000 0.000000
0.571429 0.000000 0.000000
0.584416 0.000000 0.000000
0.597403 0.000000 0.000000
0.610390 0.000000 0.000000
0.623377 0.000000 0.000000
0.636364 0.000000 0.000000
0.649351 0.000000 0.000000
0.662338 0.000000 0.000000
0.675325 0.000000 0.000000
0.688312 0.000000 0.000000
0.701299 0.000000 0.000000
0.714286 0.000000 0.000000
0.727273 0.000000 0.000000
0.740260 0.000000 0.000000
0.753247 0.000000 0.000000
0.766234 0.000000 0.000000
0.779221 0.000000 0.000000
0.792208 0.000000 0.000000
0.805195 0.000000 0.000000
0.818182 0.000000 0.000000
0.831169 0.000000 0.000000
0.844156 0.000000 0.000000
0.857143 0.000000 0.000000
0.870130 0.000000 0.000000
0.883117 0.000000 0.000000
0.896104 0.000000 0.000000
0.909091 0.000000 0.000000
0.922078 0.000000 0.000000
0.935065 0.000000 0.000000
0.948052 0.000000 0.000000
0.961039 0.000000 0.000000
0.974026 0.000000 0.000000
0.987013 0.000000 0.000000
1.000000 0.012903 0.000000
1.000000 0.025806 0.000000
1.000000 0.038710 0.000000
1.000000 0.051613 0.000000
1.000000 0.064516 0.000000
1.000000 0.077419 0.000000
1.000000 0.090323 0.000000
1.000000 0.103226 0.000000
1.000000 0.116129 0.000000
1.000000 0.129032 0.000000
1.000000 0.141935 0.000000
1.000000 0.154839 0.000000
1.000000 0.167742 0.000000
1.000000 0.180645 0.000000
1.000000 0.193548 0.000000
1.000000 0.206452 0.000000
1.000000 0.219355 0.000000
1.000000 0.232258 0.000000
1.000000 0.245161 0.000000
1.000000 0.258065 0.000000
1.000000 0.270968 0.000000
1.000000 0.283871 0.000000
1.000000 0.296774 0.000000
1.000000 0.309677 0.000000
1.000000 0.322581 0.000000
1.000000 0.335484 0.000000
1.000000 0.348387 0.000000
1.000000 0.361290 0.000000
1.000000 0.374194 0.000000
1.000000 0.387097 0.000000
1.000000 0.400000 0.000000
1.000000 0.412903 0.000000
1.000000 0.425806 0.000000
1.000000 0.438710 0.000000
1.000000 0.451613 0.000000
1.000000 0.464516 0.000000
1.000000 0.477419 0.000000
1.000000 0.490323 0.000000
1.000000 0.503226 0.000000
1.000000 0.516129 0.000000
1.000000 0.529032 0.000000
1.000000 0.541935 0.000000
1.000000 0.554839 0.000000
1.000000 0.567742 0.000000
1.000000 0.580645 0.000000
1.000000 0.593548 0.000000
1.000000 0.606452 0.000000
1.000000 0.619355 0.000000
1.000000 0.632258 0.000000
1.000000 0.645161 0.000000
1.000000 0.658065 0.000000
1.000000 0.670968 0.000000
1.000000 0.683871 0.000000
1.000000 0.696774 0.000000
1.000000 0.709677 0.000000
1.000000 0.722581 0.000000
1.000000 0.735484 0.000000
1.000000 0.748387 0.000000
1.000000 0.761290 0.000000
1.000000 0.774194 0.000000
1.000000 0.787097 0.000000
1.000000 0.812500 0.000000
1.000000 0.825000 0.000000
1.000000 0.837500 0.000000
1.000000 0.850000 0.000000
1.000000 0.862500 0.000000
1.000000 0.875000 0.000000
1.000000 0.887500 0.000000
1.000000 0.900000 0.000000
1.000000 0.912500 0.000000
1.000000 0.925000 0.000000
1.000000 0.937500 0.000000
1.000000 0.950000 0.000000
1.000000 0.962500 0.000000
1.000000 0.975000 0.000000
1.000000 0.987500 0.000000
0.987013 1.000000 0.000000
0.974026 1.000000 0.000000
0.961039 1.000000 0.000000
0.948052 1.000000 0.000000
0.935065 1.000000 0.000000
0.922078 1.000000 0.000000
0.909091 1.000000 0.000000
0.896104 1.000000 0.000000
0.883117 1.000000 0.000000
0.870130 1.000000 0.000000
0.857143 1.000000 0.000000
0.844156 1.000000 0.000000
0.831169 1.000000 0.000000
0.818182 1.000000 0.000000
0.805195 1.000000 0.000000
0.792208 1.000000 0.000000
0.779221 1.000000 0.000000
0.766234 1.000000 0.000000
0.753247 1.000000 0.000000
0.740260 1.000000 0.000000
0.727273 1.000000 0.000000
0.714286 1.000000 0.000000
0.701299 1.000000 0.000000
0.688312 1.000000 0.000000
0.675325 1.000000 0.000000
0.662338 1.000000 0.000000
0.649351 1.000000 0.000000
0.636364 1.000000 0.000000
0.623377 1.000000 0.000000
0.610390 1.000000 0.000000
0.597403 1.000000 0.000000
0.584416 1.000000 0.000000
0.571429 1.000000 0.000000
0.558442 1.000000 0.000000
0.545455 1.000000 0.000000
0.532468 1.000000 0.000000
0.519481 1.000000 0.000000
0.506494 1.000000 0.000000
0.493506 1.000000 0.000000
0.480519 1.000000 0.000000
0.467532 1.000000 0.000000
0.454545 1.000000 0.000000
0.441558 1.000000 0.000000
0.428571 1.000000 0.000000
0.415584 1.000000 0.000000
0.402597 1.000000 0.000000
0.389610 1.000000 0.000000
0.376623 1.000000 0.000000
0.363636 1.000000 0.000000
0.350649 1.000000 0.000000
0.337662 1.000000 0.000000
0.324675 1.000000 0.000000
0.311688 1.000000 0.000000
0.298701 1.000000 0.000000
0.285714 1.000000 0.000000
0.272727 1.000000 0.000000
0.259740 1.000000 0.000000
0.246753 1.000000 0.000000
0.233766 1.000000 0.000000
0.220779 1.000000 0.000000
0.207792 1.000000 0.000000
0.194805 1.000000 0.000000
0.181818 1.000000 0.000000
0.168831 1.000000 0.000000
0.155844 1.000000 0.000000
0.142857 1.000000 0.000000
0.129870 1.000000 0.000000
0.116883 1.000000 0.000000
0.103896 1.000000 0.000000
0.090909 1.000000 0.000000
0.077922 1.000000 0.000000
0.064935 1.000000 0.000000
0.051948 1.000000 0.000000
0.038961 1.000000 0.000000
0.025974 1.000000 0.000000
0.012987 1.000000 0.000000
0.000000 0.987097 0.000000
0.000000 0.974194 0.000000
0.000000 0.961290 0.000000
0.000000 0.948387 0.000000
0.000000 0.935484 0.000000
0.000000 0.922581 0.000000
0.000000 0.909677 0.000000
0.000000 0.896774 0.000000
0.000000 0.883871 0.000000
0.000000 0.870968 0.000000
0.000000 0.858065 0.000000
0.000000 0.845161 0.000000
0.000000 0.832258 0.000000
0.000000 0.819355 0.000000
0.000000 0.806452 0.000000
0.000000 0.793548 0.000000
0.000000 0.780645 0.000000
0.000000 0.767742 0.000000
0.000000 0.754839 0.000000
0.000000 0.741935 0.000000
0.000000 0.729032 0.000000
0.000000 0.716129 0.000000
0.000000 0.703226 0.000000
0.000000 0.690323 0.000000
0.000000 0.677419 0.000000
0.000000 0.664516 0.000000
0.000000 0.651613 0.000000
0.000000 0.638710 0.000000
0.000000 0.625806 0.000000
0.000000 0.612903 0.000000
0.000000 0.600000 0.000000
0.000000 0.587097 0.000000
0.000000 0.574194 0.000000
0.000000 0.561290 0.000000
0.000000 0.548387 0.000000
0.000000 0.535484 0.000000
0.000000 0.522581 0.000000
0.000000 0.509677 0.000000
0.000000 0.496774 0.000000
0.000000 0.483871 0.000000
0.000000 0.470968 0.000000
0.000000 0.458065 0.000000
0.000000 0.445161 0.000000
0.000000 0.432258 0.000000
0.000000 0.419355 0.000000
0.000000 0.406452 0.000000
0.000000 0.393548 0.000000
0.000000 0.380645 0.000000
0.000000 0.367742 0.000000
0.000000 0.354839 0.000000
0.000000 0.341935 0.000000
0.000000 0.329032 0.000000
0.000000 0.316129 0.000000
0.000000 0.303226 0.000000
0.000000 0.290323 0.000000
0.000000 0.277419 0.000000
0.000000 0.264516 0.000000
0.000000 0.251613 0.000000
0.000000 0.238710 0.000000
0.000000 0.225806 0.000000
0.000000 0.212903 0.000000
0.000000 0.187500 0.000000
0.000000 0.175000 0.000000
0.000000 0.162500 0.000000
0.000000 0.150000 0.000000
0.000000 0.137500 0.000000
0.000000 0.125000 0.000000
0.000000 0.112500 0.000000
0.000000 0.100000 0.000000
0.000000 0.087500 0.000000
0.000000 0.075000 0.000000
0.000000 0.062500 0.000000
0.000000 0.050000 0.000000
0.000000 0.037500 0.000000
0.000000 0.025000 0.000000
0.000000 0.012500 0.000000
0.309756 0.338537 0.000000
0.319512 0.347073 0.000000
0.329268 0.355610 0.000000
0.339024 0.364146 0.000000
0.348780 0.372683 0.000000
0.358537 0.381220 0.000000
0.368293 0.389756 0.000000
0.378049 0.398293 0.000000
0.387805 0.406829 0.000000
0.397561 0.415366 0.000000
0.407317 0.423902 0.000000
0.417073 0.432439 0.000000
0.426829 0.440976 0.000000
0.436585 0.449512 0.000000
0.446341 0.458049 0.000000
0.456098 0.466585 0.000000
0.465854 0.475122 0.000000
0.475610 0.483659 0.000000
0.485366 0.492195 0.000000
0.495122 0.500732 0.000000
0.504878 0.509268 0.000000
0.514634 0.517805 0.000000
0.524390 0.526341 0.000000
0.534146 0.534878 0.000000
0.543902 0.543415 0.000000
0.553659 0.551951 0.000000
0.563415 0.560488 0.000000
0.573171 0.569024 0.000000
0.582927 0.577561 0.000000
0.592683 0.586098 0.000000
0.602439 0.594634 0.000000
0.612195 0.603171 0.000000
0.621951 0.611707 0.000000
0.631707 0.620244 0.000000
0.641463 0.628780 0.000000
0.651220 0.637317 0.000000
0.660976 0.645854 0.000000
0.670732 0.654390 0.000000
0.680488 0.662927 0.000000
0.690244 0.671463 0.000000
0.011538 0.205000 0.000000
0.023077 0.210000 0.000000
0.034615 0.215000 0.000000
0.046154 0.220000 0.000000
0.057692 0.225000 0.000000
0.069231 0.230000 0.000000
0.080769 0.235000 0.000000
0.092308 0.240000 0.000000
0.103846 0.245000 0.000000
0.115385 0.250000 0.000000
0.126923 0.255000 0.000000
0.138462 0.260000 0.000000
0.150000 0.265000 0.000000
0.161538 0.270000 0.000000
0.173077 0.275000 0.000000
[...]
POINT_DATA 7607
SCALARS UX float 1
LOOKUP_TABLE default
0.004981
0.002044
-0.005087
-0.093603
-0.193245
-0.073310
-0.092903
-0.062255
-0.001370
0.000018
-0.000927
0.001119
0.010316
-0.000066
-0.000159
0.009211
0.000262
0.000349
-0.000230
0.000112
0.000074
-0.000040
-0.000135
0.000173
-0.000087
0.000266
0.000054
-0.000898
-0.000059
-0.000101
-0.000387
-0.007057
0.000137
-0.000121
-0.000056
-0.000296
0.000222
0.000177
0.001907
0.000063
0.000923
-0.001602
-0.000030
0.003751
0.000133
0.000174
-0.002520
-0.000030
-0.000195
-0.000007
0.000065
-0.003422
-0.000169
-0.001161
-0.000052
0.000001
-0.000074
-0.000056
-0.000003
-0.000508
-0.000816
0.000247
-0.000179
-0.000190
0.004542
0.000413
-0.006906
0.000227
0.001917
0.000144
-0.000726
-0.000429
-0.005381
-0.000582
0.004713
0.002470
-0.005736
-0.000078
-0.000663
0.001465
0.000192
-0.000209
-0.000135
-0.009242
-0.001318
0.013244
0.005335
0.012830
0.009116
0.010309
0.008640
0.016741
0.034106
0.032854
0.025765
0.031704
0.024682
0.048917
0.023616
0.027755
0.044970
0.045468
0.045815
0.055865
0.047826
0.057103
0.063786
0.045094
0.058321
0.070410
0.056042
0.082821
0.072343
0.073117
0.077316
0.069529
0.085231
0.079959
0.096940
0.072591
0.089971
0.094601
0.081588
0.085315
0.104532
0.085725
0.094872
0.097611
0.081377
0.094112
0.099141
0.079127
0.099025
0.067856
0.074919
0.072008
0.076908
0.066270
0.077073
0.054516
0.049187
0.050329
0.041518
0.047776
0.032786
-0.006459
-0.001374
-0.045124
-0.044465
-0.089475
-0.043196
-0.066280
-0.068499
-0.068214
-0.070235
-0.083570
-0.081465
-0.059624
-0.095399
-0.084058
-0.074225
-0.087660
-0.086970
-0.102727
-0.097492
-0.099630
-0.096221
-0.106605
-0.103779
-0.104730
-0.104094
-0.107329
-0.104664
-0.102495
-0.109372
-0.113047
-0.102843
-0.117543
-0.118759
-0.113779
-0.112738
-0.115216
-0.112036
-0.115755
-0.117928
-0.117668
-0.120216
-0.117740
-0.120839
-0.122389
-0.119613
-0.127181
-0.125896
-0.129068
-0.130120
-0.129475
-0.126781
-0.131089
-0.130920
-0.130925
-0.131845
-0.133862
-0.142300
-0.131199
-0.135190
-0.144572
-0.137175
-0.145394
-0.139697
-0.150877
-0.152654
-0.155921
-0.159887
-0.160559
-0.157702
-0.168025
-0.158139
-0.171382
-0.177556
-0.161330
-0.184045
-0.174173
-0.176129
-0.173465
-0.183045
-0.192861
-0.183323
-0.191382
-0.195948
-0.190058
-0.193412
-0.196043
-0.201032
-0.200735
-0.200887
-0.204198
-0.208910
-0.204926
-0.206530
-0.195696
-0.197378
-0.186670
-0.196440
-0.200040
-0.205195
-0.199725
-0.199041
-0.224669
-0.208137
-0.210007
-0.204997
-0.209519
-0.218687
-0.213969
-0.210376
-0.205042
-0.216179
-0.217109
-0.214116
-0.210719
-0.223845
-0.212733
-0.209278
-0.232080
-0.217968
-0.220999
-0.200265
-0.183891
-0.200637
-0.213829
-0.215682
-0.214403
-0.209513
-0.217647
-0.212998
-0.225847
-0.207670
-0.213866
-0.203720
-0.209371
-0.207275
-0.204279
-0.206064
-0.215550
-0.191478
-0.204683
-0.187897
-0.188798
-0.183791
-0.180476
-0.163929
-0.160131
-0.134888
-0.158572
-0.123229
-0.120077
-0.122850
-0.109345
-0.054105
-0.078758
-0.065190
0.001690
-0.047442
-0.037016
-0.030790
-0.022763
-0.025681
-0.017002
-0.021416
-0.021819
-0.009157
-0.006485
-0.058066
-0.082453
-0.099802
-0.098943
-0.098451
-0.099515
-0.101406
-0.107843
-0.098612
-0.075998
-0.126495
-0.095298
-0.004604
-0.066753
-0.108334
-0.046373
-0.016483
-0.072926
-0.090703
-0.084706
-0.002908
-0.065537
-0.157628
-0.073536
-0.045344
-0.116610
-0.089151
-0.075541
-0.112395
-0.118932
0.046156
-0.047462
-0.048111
0.066506
0.029403
0.065802
-0.068441
-0.052789
-0.104147
-0.095988
-0.089937
-0.129290
-0.064559
-0.106884
-0.104702
-0.135598
-0.118028
-0.092326
-0.108194
-0.057107
-0.116880
-0.084059
-0.127473
-0.102941
-0.084417
-0.174399
-0.114305
-0.101266
-0.089663
-0.164521
-0.090721
-0.126624
-0.124791
-0.106450
-0.086877
-0.032610
0.038420
0.007398
0.080136
0.007506
0.049163
0.012245
-0.047921
0.022662
-0.026989
0.022259
-0.024549
0.000866
0.011096
-0.029394
0.001131
0.003359
0.004370
0.005725
0.000924
-0.003099
0.018144
0.032887
-0.033692
-0.105106
-0.114316
-0.118863
-0.110755
0.044911
0.031039
0.025757
-0.175896
-0.160391
-0.164803
-0.143640
-0.128541
-0.100689
-0.012064
0.007014
0.009800
-0.156578
-0.182541
-0.184965
-0.212745
0.032428
0.010963
0.021684
0.008492
-0.059008
-0.024270
-0.070374
-0.050042
-0.004624
-0.005079
-0.105567
-0.116950
-0.220377
-0.172324
-0.076910
-0.045235
0.013855
0.002418
-0.006045
-0.006214
-0.184388
-0.182951
-0.195825
-0.202374
-0.044097
-0.071969
-0.012135
-0.025323
0.059499
0.044212
0.063413
-0.103193
-0.112890
0.048057
0.036460
0.011724
0.053472
-0.125638
-0.115617
-0.107397
-0.060417
-0.136938
-0.109105
-0.083079
-0.067812
-0.075772
-0.036042
-0.050772
-0.025304
-0.109334
-0.184646
-0.190732
-0.018730
0.018386
0.024923
-0.008908
-0.015512
-0.016499
-0.144311
-0.143219
-0.145304
-0.021163
-0.122121
-0.119191
-0.102174
0.025537
0.033739
0.004290
0.022329
0.001749
-0.012740
-0.018712
-0.050993
-0.034381
-0.027116
-0.022509
0.031044
0.067198
0.075607
-0.174007
-0.094235
-0.126770
-0.079843
-0.070735
-0.092210
-0.068059
-0.139794
-0.111766
-0.163033
-0.106102
-0.018487
0.010519
0.005375
0.005514
0.054231
0.047407
-0.117487
-0.110807
-0.104342
0.022299
0.025291
0.006799
-0.084248
-0.079096
-0.098014
-0.088717
0.035147
0.024637
0.051588
0.031402
-0.006009
-0.104712
-0.023525
-0.000927
-0.008572
-0.008270
-0.186526
-0.160002
-0.160781
-0.196914
-0.119160
-0.152045
-0.139862
-0.127291
-0.097761
-0.108369
-0.106667
-0.101730
-0.025511
-0.010431
-0.006906
-0.005810
-0.000817
-0.213366
-0.187117
-0.212310
-0.012320
-0.011045
-0.003945
-0.211377
-0.190428
-0.191255
-0.015758
-0.083594
-0.096318
-0.108794
-0.185751
-0.180013
-0.159000
-0.185669
-0.181444
-0.187918
-0.174865
0.077969
0.061929
0.066882
0.068565
0.060908
0.039204
0.054600
0.028084
0.039353
0.028501
-0.136404
-0.125713
-0.108973
-0.126697
-0.121684
-0.119447
-0.009230
-0.021961
-0.014820
-0.008033
0.010942
0.035120
-0.005825
-0.035107
-0.018862
-0.038227
-0.054484
-0.164296
-0.174610
-0.179364
-0.157695
0.028440
0.054601
0.026754
0.026264
0.034107
0.029622
0.046166
0.075454
0.069540
0.064670
-0.006433
0.099453
-0.193462
-0.180117
-0.185827
-0.075657
-0.081580
-0.083806
-0.054683
0.043472
0.063367
0.071172
0.081284
0.028372
0.041444
0.011771
-0.126447
-0.131233
-0.193000
-0.177071
-0.154745
-0.158240
-0.179050
-0.166692
-0.179941
-0.001430
-0.015343
0.006638
-0.152374
-0.154725
-0.135707
-0.004837
0.019989
-0.016059
0.050887
0.043461
0.072019
-0.005361
-0.019562
-0.019967
-0.021258
-0.025970
-0.189798
-0.200868
-0.010754
-0.020930
-0.006122
0.010549
0.009299
-0.000243
-0.018380
-0.003715
0.011602
-0.077095
-0.068768
-0.190694
-0.202463
-0.180171
-0.026348
-0.030572
0.067750
0.063282
0.009075
0.051774
0.014738
0.042733
0.015776
-0.002909
-0.000725
0.006151
-0.182389
-0.191146
-0.211070
-0.169202
-0.193183
-0.167035
-0.218320
-0.142534
0.027876
-0.016228
0.021164
0.043472
-0.209788
-0.189851
-0.177454
-0.172837
0.031939
0.089325
0.068656
0.052053
0.031033
-0.100747
-0.092249
-0.092177
0.020661
-0.082716
-0.091545
-0.105835
0.061317
-0.097914
-0.193511
-0.222586
-0.183711
-0.013904
0.011534
-0.013974
-0.157713
-0.165994
-0.149189
-0.016366
-0.009052
0.004793
0.036162
0.034161
0.003048
0.021874
-0.090723
-0.097350
-0.072480
-0.111848
-0.149614
-0.192647
-0.163772
0.018630
0.030864
-0.000743
0.015322
0.013447
0.014649
-0.183059
-0.202442
-0.204871
-0.105750
-0.091747
-0.180165
-0.025723
-0.044705
0.061385
0.006706
-0.014340
0.027245
0.024152
0.026420
-0.163978
-0.211552
-0.169907
-0.204275
-0.211010
-0.171480
-0.021884
0.013592
-0.011744
-0.016626
0.078114
0.038084
0.044203
0.037018
-0.010363
0.000490
0.033117
0.026689
0.029184
0.031749
-0.142427
-0.140610
-0.112336
0.008381
0.005723
0.005743
0.003624
-0.026256
-0.000774
-0.012979
-0.207529
-0.127918
-0.117297
-0.135498
-0.180773
-0.197270
-0.230556
-0.080269
-0.089402
-0.071651
-0.036147
-0.026438
-0.016649
-0.086128
-0.085178
-0.089831
-0.064832
-0.075827
0.008104
-0.007898
-0.162324
-0.190602
-0.182397
0.076858
0.044691
-0.108483
-0.140132
-0.026508
0.002888
-0.020259
0.005847
-0.022616
-0.028654
-0.018852
0.011839
0.021634
0.022573
-0.093801
-0.101102
-0.043459
0.001616
-0.005765
-0.129783
-0.123646
-0.123787
0.017130
-0.176931
-0.171299
-0.176563
0.104343
0.034284
0.021722
-0.199174
-0.197351
0.054779
0.049120
-0.173112
-0.165080
-0.175842
-0.116456
-0.080393
-0.007078
-0.028359
-0.008216
-0.007079
-0.023999
-0.174815
-0.170842
-0.207862
-0.215196
-0.162317
0.051249
0.068340
-0.202093
-0.186369
-0.187288
0.015405
0.008324
-0.078788
-0.089660
-0.081598
-0.083903
0.004949
0.011289
0.002052
-0.209553
-0.184445
-0.188680
-0.176756
-0.183485
-0.173278
-0.200188
-0.175483
-0.207725
-0.167735
0.002382
-0.004062
-0.003079
-0.003298
-0.027117
-0.012724
-0.008843
-0.203026
-0.207277
-0.207913
-0.088382
-0.058042
-0.064965
-0.079537
-0.175940
-0.183820
-0.180596
-0.200089
-0.200673
-0.214466
0.063881
0.099464
-0.212289
0.024203
-0.010317
-0.188879
-0.016561
-0.125197
0.081096
-0.206873
-0.180735
-0.019153
-0.217353
-0.212790
0.029805
-0.003248
-0.002042
-0.038855
-0.029900
-0.005178
-0.001126
-0.011738
0.048688
0.101241
0.062155
0.058176
0.082688
0.087500
-0.153226
-0.153464
-0.153955
-0.151421
0.020823
0.010625
0.021740
-0.035574
-0.005633
-0.061980
-0.077630
0.055198
0.034294
-0.214942
-0.206227
-0.201883
-0.198758
-0.013261
-0.057550
-0.036198
-0.027684
0.039663
0.066317
0.021857
0.072656
0.039943
-0.104066
-0.097081
-0.100031
0.023003
-0.177598
-0.177075
-0.190911
-0.126663
-0.125184
-0.034672
-0.005966
-0.021435
-0.012459
-0.113807
-0.086822
-0.100286
-0.096979
-0.100601
-0.100366
-0.000085
0.002495
0.035160
0.033989
0.047846
0.007999
-0.070026
-0.087376
-0.091988
-0.101819
-0.082736
-0.214236
-0.065269
0.024187
0.001890
-0.011208
-0.028529
-0.022041
-0.130395
-0.138367
-0.204268
-0.188529
-0.177672
-0.172307
-0.132597
-0.158677
-0.167875
-0.158079
-0.197417
0.078504
0.021841
0.023307
0.022670
0.016560
-0.018151
-0.020238
0.021211
-0.187167
-0.185862
-0.199107
-0.013029
-0.016782
-0.162117
-0.179122
-0.193341
-0.166727
-0.015651
-0.019485
-0.023590
-0.192623
-0.006063
-0.010611
-0.193143
-0.190074
0.027196
0.017512
0.023127
0.019385
0.004884
0.008337
-0.002075
-0.002004
-0.193601
-0.227936
-0.222688
-0.165077
-0.159393
-0.163201
-0.142527
-0.010660
-0.013283
-0.025941
-0.020507
0.038916
0.035962
0.037581
0.008420
0.015324
0.036956
0.002782
-0.018876
-0.084839
-0.090276
-0.101149
-0.104690
-0.100061
-0.207006
-0.202859
-0.203190
-0.119600
-0.126865
-0.150968
-0.126102
0.073287
0.029044
-0.030995
-0.027175
-0.200900
-0.123351
-0.121204
-0.101848
-0.206654
-0.187890
-0.201544
-0.123903
-0.129570
-0.084220
-0.088991
-0.031410
-0.105234
-0.023309
0.067310
-0.016190
0.061427
0.059839
-0.020502
-0.010343
-0.007216
0.014098
-0.077246
-0.077357
-0.013511
-0.172493
-0.199360
-0.015242
-0.001425
-0.103518
-0.180130
-0.033184
-0.037696
-0.030706
-0.021628
-0.085220
-0.084920
-0.066263
-0.017051
-0.001266
-0.215729
-0.017235
0.010098
-0.053905
-0.184634
-0.183676
-0.191280
0.027196
0.002610
-0.014022
-0.183021
0.029409
0.034786
-0.032983
-0.233590
-0.192346
-0.214362
-0.054519
-0.042803
-0.006490
-0.004830
-0.109687
-0.133533
-0.105784
-0.096228
-0.084938
-0.116650
-0.003670
-0.009737
0.011335
0.008453
-0.005024
0.002624
0.004926
-0.024444
-0.002042
-0.081628
-0.094102
-0.109777
-0.088345
-0.088984
-0.096859
-0.093623
-0.087515
-0.036918
-0.010898
-0.201374
-0.179390
-0.192982
-0.149006
-0.132797
-0.138711
-0.135243
-0.015185
-0.007959
-0.104435
-0.088395
-0.085727
0.036418
0.040074
0.056166
0.016997
-0.204107
-0.077074
-0.012635
0.005571
-0.005761
-0.187574
0.025682
0.017679
0.033870
0.000093
-0.211801
0.005542
0.011876
0.001845
0.018480
0.006458
-0.067865
-0.097829
-0.100661
-0.091445
-0.003956
-0.007513
-0.003455
-0.001975
0.086196
0.094245
0.085747
0.086129
-0.193517
-0.209618
-0.182473
-0.138115
-0.133872
0.014392
0.006547
0.024371
0.004139
0.014952
-0.012567
0.030834
-0.111129
-0.140351
0.050350
0.040252
0.072430
-0.188274
-0.149314
-0.204530
-0.176845
-0.184294
-0.103999
0.053016
0.062577
0.047086
0.052881
-0.004094
-0.111119
-0.115546
-0.155834
0.005048
0.009919
-0.163032
0.030044
0.029419
-0.132296
-0.121869
-0.130617
-0.188120
-0.195220
-0.018118
-0.164888
-0.158645
-0.145063
-0.167237
0.081842
0.072954
0.093040
0.104990
-0.163468
-0.113890
-0.151990
-0.135789
-0.163642
0.009895
0.030546
0.035088
0.064735
0.061687
0.073716
-0.016989
-0.022255
-0.016054
-0.214758
0.033057
-0.200793
-0.196511
-0.179964
-0.200622
-0.184532
-0.182470
-0.149854
-0.204483
0.004290
-0.017328
-0.180811
0.027067
-0.021899
-0.011986
-0.017903
-0.130990
-0.122719
-0.121884
-0.036905
-0.019781
0.009049
0.008446
0.018369
-0.060074
-0.025921
-0.010975
-0.013202
-0.081732
-0.090244
-0.087489
0.042674
0.030285
0.028102
-0.007548
-0.013894
-0.186468
-0.183952
-0.187305
-0.107103
-0.207235
-0.217460
-0.223598
-0.178557
-0.193921
-0.167672
-0.044263
-0.043734
-0.065907
-0.127003
-0.127350
-0.144656
-0.034841
-0.014437
-0.069179
-0.123263
-0.091824
0.022224
-0.015818
0.083838
0.068217
0.048268
0.058674
-0.101296
-0.100975
-0.010046
-0.001965
-0.011440
0.022558
0.002005
-0.008430
-0.188697
0.003833
-0.020225
-0.030714
-0.001112
-0.161064
-0.150800
-0.158292
-0.146509
-0.233438
-0.182092
-0.206328
-0.212192
-0.001708
0.002037
0.017479
-0.179211
-0.173074
-0.153437
-0.170442
-0.100707
0.047685
0.009515
-0.108585
-0.087221
-0.017865
-0.104847
0.064784
0.082960
-0.107804
-0.138962
-0.076623
-0.109421
-0.009018
-0.020666
-0.011750
-0.120059
-0.116067
-0.123605
0.042286
0.140231
0.061189
-0.186122
-0.141932
-0.171188
-0.159384
-0.111966
-0.169139
-0.185121
-0.168824
-0.191109
-0.010906
-0.165134
-0.186868
-0.209059
-0.202568
0.007528
0.018801
0.015591
-0.017304
-0.012339
-0.110265
-0.082336
-0.084517
-0.005956
-0.012776
-0.013614
-0.010664
-0.013263
-0.089657
-0.083693
-0.108525
-0.135117
-0.182726
-0.117139
0.055143
0.069389
0.067054
0.033282
-0.093142
-0.099580
-0.053422
-0.051880
-0.038220
0.009459
-0.000164
-0.003049
-0.167579
-0.170839
-0.020536
-0.009045
-0.096821
-0.059644
-0.010495
-0.018484
0.004638
-0.014069
-0.109503
-0.103149
-0.012827
-0.195735
-0.200997
-0.174305
0.002923
0.003561
-0.156658
-0.154929
-0.159077
-0.161637
-0.165057
-0.202922
-0.196902
0.004442
0.003821
-0.010231
-0.171958
-0.179187
-0.203893
0.034589
0.023521
0.031759
0.045735
-0.148246
-0.137982
-0.141268
-0.126367
0.069841
0.064122
0.078671
-0.200778
0.065192
-0.158959
0.007157
0.012344
0.025791
0.017725
0.051478
-0.188688
-0.194318
-0.188460
0.000237
0.004492
0.015950
0.075473
0.086251
0.034388
-0.067959
-0.043614
0.058030
0.065621
0.081951
-0.010328
-0.072778
-0.062557
-0.101177
0.039329
-0.011872
0.050697
0.051643
0.014691
-0.105314
-0.014320
-0.008749
-0.007187
-0.015342
-0.014985
-0.069764
0.045320
-0.177615
-0.174234
-0.170363
-0.103742
-0.013210
-0.171546
-0.155364
-0.171030
-0.152127
-0.183197
0.037213
-0.078442
-0.101814
-0.085089
-0.079612
-0.010228
-0.089247
-0.101756
-0.089240
-0.098065
-0.104823
-0.000809
-0.170717
-0.173384
-0.192032
0.000906
-0.193070
-0.203421
-0.004229
0.039930
0.030645
0.064096
-0.184650
0.081389
0.041748
0.024412
-0.195259
-0.189723
-0.191402
0.011052
0.002572
0.002757
-0.212530
-0.098746
-0.125847
-0.106532
-0.130266
-0.137495
-0.146156
-0.209076
-0.203705
-0.201382
-0.166935
-0.136739
-0.107553
0.030097
-0.096832
-0.157149
0.055535
0.062774
0.034470
-0.132969
-0.130017
-0.017317
-0.022409
-0.034290
-0.023781
-0.025718
0.054661
-0.100846
-0.196211
-0.187436
0.016263
-0.010613
-0.004184
-0.202402
-0.200620
-0.197216
0.017174
0.018426
0.013367
-0.111049
-0.107121
-0.117950
-0.114956
-0.088023
-0.101803
-0.007435
-0.004297
0.025264
0.003496
-0.101861
-0.098216
-0.091797
-0.102374
-0.181554
-0.179756
-0.176438
-0.145714
-0.095653
-0.098741
-0.097700
-0.024398
-0.026376
-0.007579
-0.009978
-0.128239
-0.147332
-0.174306
-0.193491
-0.192739
0.077819
-0.025635
-0.029288
0.039692
0.060915
-0.000194
-0.195811
0.118066
-0.114196
-0.123134
-0.122213
-0.113212
-0.165467
-0.190135
-0.170277
-0.157151
-0.057919
-0.015065
-0.069168
-0.195511
-0.023955
-0.029683
-0.004499
-0.071573
-0.106488
-0.166689
-0.108708
0.086925
0.083224
0.093507
-0.087276
-0.111347
-0.016198
-0.180544
-0.005976
-0.005181
0.001067
0.012304
-0.016600
0.009359
0.003014
-0.037040
-0.023796
-0.102200
-0.103992
0.049289
0.059766
0.097915
-0.139779
-0.212055
-0.190213
0.103605
-0.179506
-0.181055
-0.194728
-0.145359
-0.178377
-0.208095
-0.191972
-0.219104
-0.122042
-0.116464
-0.116453
0.044081
-0.104062
-0.005058
-0.012397
-0.094433
-0.111955
-0.100520
-0.137386
-0.128181
-0.142870
-0.065148
-0.098844
-0.182248
-0.212595
-0.203057
-0.159878
-0.169362
-0.169792
0.001875
0.015438
-0.009387
-0.204313
-0.199696
-0.198974
-0.016969
-0.015220
-0.020798
-0.008778
-0.095038
-0.191564
-0.185745
-0.001162
-0.002910
-0.008060
-0.035025
-0.013582
-0.102852
-0.107808
-0.205657
0.009640
0.030565
-0.183839
0.040873
0.049102
0.030903
0.032327
-0.194981
-0.241253
-0.174740
-0.101042
-0.122216
-0.113710
-0.002380
0.004945
-0.067137
-0.040355
-0.074575
-0.067925
-0.034664
-0.068849
-0.117877
-0.105083
-0.014610
-0.016346
-0.008227
-0.002053
-0.183589
-0.013016
-0.007612
-0.010748
-0.107635
-0.107314
0.045937
0.079737
0.027032
0.051178
0.046810
0.051873
0.025848
-0.018344
0.006042
-0.007797
0.046146
-0.000547
-0.016391
-0.122333
-0.123999
-0.107851
-0.120415
-0.046425
-0.049511
-0.048343
0.045425
-0.027958
-0.075724
-0.051157
-0.068893
0.049363
0.032503
0.023249
-0.114600
-0.092463
0.062667
0.084696
0.011411
0.000569
0.016725
0.060420
0.011142
0.019454
0.033090
0.060354
0.052856
-0.023975
-0.010199
0.051643
-0.001976
0.107542
0.075221
0.013680
0.085823
0.098285
0.109026
-0.043226
-0.102384
-0.108754
-0.097386
-0.081371
-0.118953
0.031668
0.041688
0.049923
0.021507
0.050170
0.075998
0.094559
0.082106
-0.108263
-0.110587
-0.093868
-0.109640
-0.117544
-0.092303
-0.115399
-0.089905
-0.001282
-0.015209
-0.094155
-0.003809
0.086104
0.076021
0.096245
0.018330
0.000022
-0.031889
-0.001702
-0.017418
-0.194369
-0.194703
-0.022984
-0.050102
-0.004416
-0.023671
-0.203206
-0.196395
-0.193317
-0.208327
-0.114650
-0.124855
-0.124565
-0.114621
-0.093846
-0.085969
-0.017099
-0.006608
-0.111379
-0.100698
-0.098338
-0.091696
0.069416
0.077398
0.078571
0.082063
0.046492
-0.088553
-0.088150
-0.104788
0.099218
0.084327
0.086024
-0.029240
-0.027184
-0.013004
-0.033926
-0.065439
-0.072740
-0.058266
-0.055796
-0.097844
-0.069882
-0.109069
-0.107389
-0.020390
-0.000909
0.096411
-0.010733
-0.094236
-0.103233
-0.113058
0.037005
-0.191511
-0.097214
-0.003904
-0.000036
0.002505
-0.000803
-0.007012
0.001542
-0.106228
-0.131727
-0.020254
-0.027885
-0.000374
-0.196222
-0.031930
-0.013129
-0.026904
0.005663
0.003355
-0.108914
-0.112383
0.000257
-0.014765
0.002591
-0.012558
-0.186096
-0.138947
-0.175946
-0.180025
-0.032851
-0.013024
-0.008038
-0.030050
-0.019863
-0.022542
-0.101480
-0.110301
-0.019567
-0.017118
-0.019501
-0.018432
-0.037283
-0.176856
-0.176660
-0.158298
-0.183086
-0.166337
-0.165679
-0.192108
-0.031224
-0.114526
-0.114904
-0.111956
-0.098862
0.077234
0.035142
0.054949
0.057220
0.002368
0.011933
-0.002620
-0.011254
-0.007614
-0.009381
-0.019694
-0.072984
-0.069520
-0.099649
-0.089890
-0.003096
0.007781
-0.032764
0.010880
-0.112108
-0.105854
-0.127403
-0.110034
-0.007842
-0.202135
-0.201197
0.031003
0.000075
0.028090
0.029516
-0.012194
-0.108248
-0.108835
-0.016046
-0.184260
-0.008099
-0.000420
-0.013096
0.056473
0.045341
0.048280
-0.155526
-0.123196
-0.157655
-0.163525
-0.115026
-0.108556
0.001796
-0.104241
-0.114173
-0.112104
-0.109497
-0.018759
-0.049689
-0.002633
0.037489
0.046354
0.058615
0.040479
0.047295
-0.007023
0.001060
-0.001602
-0.011578
-0.043099
-0.036497
-0.114452
-0.019537
-0.030299
-0.013479
-0.006119
-0.003415
0.002110
-0.020421
-0.101725
-0.010872
-0.005268
-0.185872
0.044535
0.049459
0.055830
-0.109740
-0.110401
-0.201962
-0.196901
-0.161691
-0.165662
-0.203128
-0.206225
-0.206158
-0.200706
0.044850
0.062728
-0.019515
-0.101250
-0.113154
0.001736
-0.030195
-0.016473
0.041997
-0.040840
-0.152021
-0.154022
-0.105793
-0.165478
-0.160993
-0.182480