# vtk DataFile Version 2.0
Test
ASCII
DATASET POLYDATA
POINTS 7607 float
0.000000 0.000000 0.000000
1.000000 0.000000 0.000000
1.000000 0.800000 0.000000
1.000000 1.000000 0.000000
0.000000 1.000000 0.000000
0.000000 0.200000 0.000000
0.300000 0.330000 0.000000
0.700000 0.680000 0.000000
0.012987 0.000000 0.000000
0.025974 0.000000 0.000000
0.038961 0.000000 0.000000
0.051948 0.000000 0.000000
0.064935 0.000000 0.000000
0.077922 0.000000 0.000000
0.090909 0.000000 0.000000
0.103896 0.000000 0.000000
0.116883 0.000000 0.000000
0.129870 0.000000 0.000000
0.142857 0.000000 0.000000
0.155844 0.000000 0.000000
0.168831 0.000000 0.000000
0.181818 0.000000 0.000000
0.194805 0.000000 0.000000
0.207792 0.000000 0.000000
0.220779 0.000000 0.000000
0.233766 0.000000 0.000000
0.246753 0.000000 0.000000
0.259740 0.000000 0.000000
0.272727 0.000000 0.000000
0.285714 0.000000 0.000000
0.298701 0.000000 0.000000
0.311688 0.000000 0.000000
0.324675 0.000000 0.000000
0.337662 0.000000 0.000000
0.350649 0.000000 0.000000
0.363636 0.000000 0.000000
0.376623 0.000000 0.000000
0.389610 0.000000 0.000000
0.402597 0.000000 0.000000
0.415584 0.000000 0.000000
0.428571 0.000000 0.000000
0.441558 0.000000 0.000000
0.454545 0.000000 0.000000
0.467532 0.000000 0.000000
0.480519 0.000000 0.000000
0.493506 0.000000 0.000000
0.506494 0.000000 0.000000
0.519481 0.000000 0.000000
0.532468 0.000000 0.000000
0.545455 0.000000 0.000000
0.558442 0.000000 0.000000
0.571429 0.000000 0.000000
0.584416 0.000000 0.000000
0.597403 0.000000 0.000000
0.610390 0.000000 0.000000
0.623377 0.000000 0.000000
0.636364 0.000000 0.000000
0.649351 0.000000 0.000000
0.662338 0.000000 0.000000
0.675325 0.000000 0.000000
0.688312 0.000000 0.000000
0.701299 0.000000 0.000000
0.714286 0.000000 0.000000
0.727273 0.000000 0.000000
0.740260 0.000000 0.000000
0.753247 0.000000 0.000000
0.766234 0.000000 0.000000
0.779221 0.000000 0.000000
0.792208 0.000000 0.000000
0.805195 0.000000 0.000000
0.818182 0.000000 0.000000
0.831169 0.000000 0.000000
0.844156 0.000000 0.000000
0.857143 0.000000 0.000000
0.870130 0.000000 0.000000
0.883117 0.000000 0.000000
0.896104 0.000000 0.000000
0.909091 0.000000 0.000000
0.922078 0.000000 0.000000
0.935065 0.000000 0.000000
0.948052 0.000000 0.000000
0.961039 0.000000 0.000000
0.974026 0.000000 0.000000
0.987013 0.000000 0.000000
1.000000 0.012903 0.000000
1.000000 0.025806 0.000000
1.000000 0.038710 0.000000
1.000000 0.051613 0.000000
1.000000 0.064516 0.000000
1.000000 0.077419 0.000000
1.000000 0.090323 0.000000
1.000000 0.103226 0.000000
1.000000 0.116129 0.000000
1.000000 0.129032 0.000000
1.000000 0.141935 0.000000
1.000000 0.154839 0.000000
1.000000 0.167742 0.000000
1.000000 0.180645 0.000000
1.000000 0.193548 0.000000
1.000000 0.206452 0.000000
1.000000 0.219355 0.000000
1.000000 0.232258 0.000000
1.000000 0.245161 0.000000
1.000000 0.258065 0.000000
1.000000 0.270968 0.000000
1.000000 0.283871 0.000000
1.000000 0.296774 0.000000
1.000000 0.309677 0.000000
1.000000 0.322581 0.000000
1.000000 0.335484 0.000000
1.000000 0.348387 0.000000
1.000000 0.361290 0.000000
1.000000 0.374194 0.000000
1.000000 0.387097 0.000000
1.000000 0.400000 0.000000
1.000000 0.412903 0.000000
1.000000 0.425806 0.000000
1.000000 0.438710 0.000000
1.000000 0.451613 0.000000
1.000000 0.464516 0.000000
1.000000 0.477419 0.000000
1.000000 0.490323 0.000000
1.000000 0.503226 0.000000
1.000000 0.516129 0.000000
1.000000 0.529032 0.000000
1.000000 0.541935 0.000000
1.000000 0.554839 0.000000
1.000000 0.567742 0.000000
1.000000 0.580645 0.000000
1.000000 0.593548 0.000000
1.000000 0.606452 0.000000
1.000000 0.619355 0.000000
1.000000 0.632258 0.000000
1.000000 0.645161 0.000000
1.000000 0.658065 0.000000
1.000000 0.670968 0.000000
1.000000 0.683871 0.000000
1.000000 0.696774 0.000000
1.000000 0.709677 0.000000
1.000000 0.722581 0.000000
1.000000 0.735484 0.000000
1.000000 0.748387 0.000000
1.000000 0.761290 0.000000
1.000000 0.774194 0.000000
1.000000 0.787097 0.000000
1.000000 0.812500 0.000000
1.000000 0.825000 0.000000
1.000000 0.837500 0.000000
1.000000 0.850000 0.000000
1.000000 0.862500 0.000000
1.000000 0.875000 0.000000
1.000000 0.887500 0.000000
1.000000 0.900000 0.000000
1.000000 0.912500 0.000000
1.000000 0.925000 0.000000
1.000000 0.937500 0.000000
1.000000 0.950000 0.000000
1.000000 0.962500 0.000000
1.000000 0.975000 0.000000
1.000000 0.987500 0.000000
0.987013 1.000000 0.000000
0.974026 1.000000 0.000000
0.961039 1.000000 0.000000
0.948052 1.000000 0.000000
0.935065 1.000000 0.000000
0.922078 1.000000 0.000000
0.909091 1.000000 0.000000
0.896104 1.000000 0.000000
0.883117 1.000000 0.000000
0.870130 1.000000 0.000000
0.857143 1.000000 0.000000
0.844156 1.000000 0.000000
0.831169 1.000000 0.000000
0.818182 1.000000 0.000000
0.805195 1.000000 0.000000
0.792208 1.000000 0.000000
0.779221 1.000000 0.000000
0.766234 1.000000 0.000000
0.753247 1.000000 0.000000
0.740260 1.000000 0.000000
0.727273 1.000000 0.000000
0.714286 1.000000 0.000000
0.701299 1.000000 0.000000
0.688312 1.000000 0.000000
0.675325 1.000000 0.000000
0.662338 1.000000 0.000000
0.649351 1.000000 0.000000
0.636364 1.000000 0.000000
0.623377 1.000000 0.000000
0.610390 1.000000 0.000000
0.597403 1.000000 0.000000
0.584416 1.000000 0.000000
0.571429 1.000000 0.000000
0.558442 1.000000 0.000000
0.545455 1.000000 0.000000
0.532468 1.000000 0.000000
0.519481 1.000000 0.000000
0.506494 1.000000 0.000000
0.493506 1.000000 0.000000
0.480519 1.000000 0.000000
0.467532 1.000000 0.000000
0.454545 1.000000 0.000000
0.441558 1.000000 0.000000
0.428571 1.000000 0.000000
0.415584 1.000000 0.000000
0.402597 1.000000 0.000000
0.389610 1.000000 0.000000
0.376623 1.000000 0.000000
0.363636 1.000000 0.000000
0.350649 1.000000 0.000000
0.337662 1.000000 0.000000
0.324675 1.000000 0.000000
0.311688 1.000000 0.000000
0.298701 1.000000 0.000000
0.285714 1.000000 0.000000
0.272727 1.000000 0.000000
0.259740 1.000000 0.000000
0.246753 1.000000 0.000000
0.233766 1.000000 0.000000
0.220779 1.000000 0.000000
0.207792 1.000000 0.000000
0.194805 1.000000 0.000000
0.181818 1.000000 0.000000
0.168831 1.000000 0.000000
0.155844 1.000000 0.000000
0.142857 1.000000 0.000000
0.129870 1.000000 0.000000
0.116883 1.000000 0.000000
0.103896 1.000000 0.000000
0.090909 1.000000 0.000000
0.077922 1.000000 0.000000
0.064935 1.000000 0.000000
0.051948 1.000000 0.000000
0.038961 1.000000 0.000000
0.025974 1.000000 0.000000
0.012987 1.000000 0.000000
0.000000 0.987097 0.000000
0.000000 0.974194 0.000000
0.000000 0.961290 0.000000
0.000000 0.948387 0.000000
0.000000 0.935484 0.000000
0.000000 0.922581 0.000000
0.000000 0.909677 0.000000
0.000000 0.896774 0.000000
0.000000 0.883871 0.000000
0.000000 0.870968 0.000000
0.000000 0.858065 0.000000
0.000000 0.845161 0.000000
0.000000 0.832258 0.000000
0.000000 0.819355 0.000000
0.000000 0.806452 0.000000
0.000000 0.793548 0.000000
0.000000 0.780645 0.000000
0.000000 0.767742 0.000000
0.000000 0.754839 0.000000
0.000000 0.741935 0.000000
0.000000 0.729032 0.000000
0.000000 0.716129 0.000000
0.000000 0.703226 0.000000
0.000000 0.690323 0.000000
0.000000 0.677419 0.000000
0.000000 0.664516 0.000000
0.000000 0.651613 0.000000
0.000000 0.638710 0.000000
0.000000 0.625806 0.000000
0.000000 0.612903 0.000000
0.000000 0.600000 0.000000
0.000000 0.587097 0.000000
0.000000 0.574194 0.000000
0.000000 0.561290 0.000000
0.000000 0.548387 0.000000
0.000000 0.535484 0.000000
0.000000 0.522581 0.000000
0.000000 0.509677 0.000000
0.000000 0.496774 0.000000
0.000000 0.483871 0.000000
0.000000 0.470968 0.000000
0.000000 0.458065 0.000000
0.000000 0.445161 0.000000
0.000000 0.432258 0.000000
0.000000 0.419355 0.000000
0.000000 0.406452 0.000000
0.000000 0.393548 0.000000
0.000000 0.380645 0.000000
0.000000 0.367742 0.000000
0.000000 0.354839 0.000000
0.000000 0.341935 0.000000
0.000000 0.329032 0.000000
0.000000 0.316129 0.000000
0.000000 0.303226 0.000000
0.000000 0.290323 0.000000
0.000000 0.277419 0.000000
0.000000 0.264516 0.000000
0.000000 0.251613 0.000000
0.000000 0.238710 0.000000
0.000000 0.225806 0.000000
0.000000 0.212903 0.000000
0.000000 0.187500 0.000000
0.000000 0.175000 0.000000
0.000000 0.162500 0.000000
0.000000 0.150000 0.000000
0.000000 0.137500 0.000000
0.000000 0.125000 0.000000
0.000000 0.112500 0.000000
0.000000 0.100000 0.000000
0.000000 0.087500 0.000000
0.000000 0.075000 0.000000
0.000000 0.062500 0.000000
0.000000 0.050000 0.000000
0.000000 0.037500 0.000000
0.000000 0.025000 0.000000
0.000000 0.012500 0.000000
0.309756 0.338537 0.000000
0.319512 0.347073 0.000000
0.329268 0.355610 0.000000
0.339024 0.364146 0.000000
0.348780 0.372683 0.000000
0.358537 0.381220 0.000000
0.368293 0.389756 0.000000
0.378049 0.398293 0.000000
0.387805 0.406829 0.000000
0.397561 0.415366 0.000000
0.407317 0.423902 0.000000
0.417073 0.432439 0.000000
0.426829 0.440976 0.000000
0.436585 0.449512 0.000000
0.446341 0.458049 0.000000
0.456098 0.466585 0.000000
0.465854 0.475122 0.000000
0.475610 0.483659 0.000000
0.485366 0.492195 0.000000
0.495122 0.500732 0.000000
0.504878 0.509268 0.000000
0.514634 0.517805 0.000000
0.524390 0.526341 0.000000
0.534146 0.534878 0.000000
0.543902 0.543415 0.000000
0.553659 0.551951 0.000000
0.563415 0.560488 0.000000
0.573171 0.569024 0.000000
0.582927 0.577561 0.000000
0.592683 0.586098 0.000000
0.602439 0.594634 0.000000
0.612195 0.603171 0.000000
0.621951 0.611707 0.000000
0.631707 0.620244 0.000000
0.641463 0.628780 0.000000
0.651220 0.637317 0.000000
0.660976 0.645854 0.000000
0.670732 0.654390 0.000000
0.680488 0.662927 0.000000
0.690244 0.671463 0.000000
0.011538 0.205000 0.000000
0.023077 0.210000 0.000000
0.034615 0.215000 0.000000
0.046154 0.220000 0.000000
0.057692 0.225000 0.000000
0.069231 0.230000 0.000000
0.080769 0.235000 0.000000
0.092308 0.240000 0.000000
0.103846 0.245000 0.000000
0.115385 0.250000 0.000000
0.126923 0.255000 0.000000
0.138462 0.260000 0.000000
0.150000 0.265000 0.000000
0.161538 0.270000 0.000000
0.173077 0.275000 0.000000
[...]
POINT_DATA 7607
SCALARS UX float 1
LOOKUP_TABLE default
0.005508
0.002013
-0.014668
-0.123213
-0.230485
-0.086000
-0.072618
-0.091480
-0.001776
0.000062
-0.001220
0.001208
0.011212
0.000019
-0.000173
0.009909
0.000282
0.000197
-0.000265
0.000118
0.000103
-0.000053
-0.000160
0.000196
-0.000093
0.000245
0.000055
-0.000996
-0.000071
-0.000113
-0.000413
-0.007464
0.000145
-0.000132
-0.000065
-0.000323
0.000236
0.000164
0.002076
0.000068
0.001011
-0.001755
-0.000027
0.003999
0.000144
0.000217
-0.002599
-0.000028
-0.000219
0.000032
0.000066
-0.003375
-0.000186
-0.001346
-0.000054
-0.000035
-0.000070
-0.000060
-0.000000
-0.000573
-0.000931
0.000277
-0.000198
-0.000274
0.004724
0.000482
-0.007065
0.000234
0.001945
0.000205
-0.000791
-0.000434
-0.005631
-0.000510
0.004945
0.002533
-0.005634
-0.000059
-0.000715
0.001593
0.000168
-0.000343
-0.000152
-0.008901
-0.001087
0.014353
0.003291
0.012936
0.008913
0.012839
0.010102
0.016135
0.038205
0.034856
0.026793
0.032826
0.027045
0.051422
0.024491
0.029703
0.047600
0.048116
0.048703
0.059112
0.050634
0.060535
0.067524
0.047858
0.061414
0.074467
0.059054
0.087659
0.076436
0.077066
0.081815
0.073558
0.089431
0.084637
0.103314
0.075792
0.095983
0.100137
0.085661
0.089004
0.111517
0.089536
0.100539
0.102572
0.085552
0.098408
0.104137
0.082467
0.104429
0.070574
0.077741
0.075845
0.080338
0.068233
0.080788
0.055314
0.047675
0.049756
0.039515
0.051421
0.023455
-0.020337
-0.016634
-0.064197
-0.065019
-0.118549
-0.064971
-0.092546
-0.095344
-0.096510
-0.096620
-0.111787
-0.109757
-0.086447
-0.125108
-0.113465
-0.103200
-0.118638
-0.115538
-0.132903
-0.130354
-0.129228
-0.126398
-0.136929
-0.134415
-0.135386
-0.135059
-0.138001
-0.135386
-0.133217
-0.140403
-0.143861
-0.134375
-0.148763
-0.150217
-0.145256
-0.144328
-0.146640
-0.143635
-0.147556
-0.150038
-0.148983
-0.152670
-0.149559
-0.153270
-0.154895
-0.151344
-0.160178
-0.158605
-0.161790
-0.163129
-0.162420
-0.159783
-0.164491
-0.163514
-0.164327
-0.165404
-0.166803
-0.175640
-0.164523
-0.168249
-0.178224
-0.170284
-0.178870
-0.173285
-0.184146
-0.186587
-0.189611
-0.193727
-0.194992
-0.192152
-0.202048
-0.191377
-0.207468
-0.210579
-0.196594
-0.219631
-0.208732
-0.212344
-0.206269
-0.218595
-0.228672
-0.218086
-0.227015
-0.230573
-0.225749
-0.228612
-0.230056
-0.236891
-0.236383
-0.235418
-0.237788
-0.240746
-0.241676
-0.243582
-0.227388
-0.234676
-0.223479
-0.231137
-0.233951
-0.241703
-0.233791
-0.234172
-0.260267
-0.242420
-0.245126
-0.240046
-0.244013
-0.252938
-0.248225
-0.244795
-0.238939
-0.250403
-0.250617
-0.247731
-0.243748
-0.256659
-0.242197
-0.246142
-0.258120
-0.251387
-0.249201
-0.227800
-0.216184
-0.231317
-0.245436
-0.245856
-0.248183
-0.239526
-0.250242
-0.244054
-0.257311
-0.240083
-0.244644
-0.236533
-0.241530
-0.240464
-0.237732
-0.239641
-0.250163
-0.224087
-0.238589
-0.220987
-0.220795
-0.215959
-0.212497
-0.194365
-0.189211
-0.158446
-0.191281
-0.144471
-0.138250
-0.144656
-0.128818
-0.058707
-0.094569
-0.075249
0.002692
-0.054195
-0.038603
-0.034608
-0.023015
-0.028124
-0.016756
-0.022997
-0.026491
-0.011884
-0.006948
-0.051626
-0.066603
-0.107918
-0.106708
-0.091683
-0.091125
-0.116979
-0.130135
-0.044152
-0.105586
-0.084778
-0.143611
-0.033613
-0.083179
-0.105326
-0.066496
-0.083486
-0.052335
-0.076308
-0.038774
-0.037574
-0.035984
-0.135068
-0.061500
-0.015329
-0.119992
-0.096788
-0.092434
-0.194487
-0.111761
-0.037148
-0.070875
-0.066089
0.023958
-0.000017
0.059145
-0.044343
-0.048152
-0.130961
-0.117142
-0.107745
-0.150254
-0.075893
-0.126905
-0.116651
-0.161726
-0.146481
-0.095739
-0.125870
-0.074829
-0.144478
-0.097665
-0.146239
-0.133572
-0.095146
-0.201848
-0.135604
-0.109707
-0.114171
-0.196573
-0.084732
-0.115478
-0.160827
-0.111891
-0.150934
-0.052999
0.022809
0.000481
0.079615
0.013409
0.054947
0.003095
-0.070567
0.014528
-0.037718
0.006017
-0.034661
-0.008832
0.003749
-0.051697
-0.004756
-0.002310
-0.007692
0.002131
-0.012907
-0.016454
0.007928
0.022044
-0.048879
-0.138419
-0.149365
-0.152550
-0.142090
0.044597
0.036367
0.026396
-0.145816
-0.236040
-0.235606
-0.172999
-0.152763
-0.113019
-0.012684
0.007060
0.010475
-0.189746
-0.217874
-0.219499
-0.248937
0.033614
0.012830
0.022698
0.009800
-0.061535
-0.025476
-0.080052
-0.054163
0.009220
-0.009644
-0.130977
-0.136270
-0.261304
-0.199628
-0.080950
-0.052301
0.015503
0.003024
-0.006668
-0.006923
-0.219203
-0.217948
-0.231179
-0.237695
-0.059956
-0.100718
-0.022021
-0.043607
0.062444
0.042086
0.067544
-0.135954
-0.143932
0.050945
0.039318
0.012643
0.057192
-0.158700
-0.147116
-0.138844
-0.072524
-0.154945
-0.141641
-0.109452
-0.095425
-0.104133
-0.037690
-0.055055
-0.026439
-0.137330
-0.219762
-0.221481
-0.018463
0.017807
0.026935
-0.008974
-0.016399
-0.016689
-0.177920
-0.176637
-0.178702
-0.021713
-0.153949
-0.150129
-0.132573
0.027105
0.036072
0.004391
0.024159
0.001484
-0.013193
-0.019550
-0.055523
-0.033907
-0.028869
-0.023710
0.030618
0.069547
0.078800
-0.204539
-0.111307
-0.150349
-0.105666
-0.094552
-0.119096
-0.094161
-0.173286
-0.146971
-0.197402
-0.136847
-0.018718
0.010341
0.005819
0.005794
0.058310
0.050882
-0.148289
-0.144086
-0.135736
0.024757
0.027372
0.006172
-0.113800
-0.107378
-0.128937
-0.116757
0.037711
0.020877
0.050653
0.029958
-0.005567
-0.139829
-0.022244
-0.004450
-0.010166
-0.003484
-0.216901
-0.177382
-0.186234
-0.238428
-0.151937
-0.185895
-0.173031
-0.159861
-0.126399
-0.139446
-0.140339
-0.132694
-0.051771
-0.011109
-0.007312
-0.006400
-0.001059
-0.244598
-0.219477
-0.245213
-0.012834
-0.011730
-0.004242
-0.246358
-0.225425
-0.226045
-0.016318
-0.112358
-0.125936
-0.136638
-0.214715
-0.209602
-0.187725
-0.220620
-0.216172
-0.222215
-0.203675
0.080640
0.064336
0.071076
0.071213
0.062643
0.038610
0.056124
0.029095
0.041509
0.030590
-0.169654
-0.158172
-0.141382
-0.159254
-0.154385
-0.152379
-0.008750
-0.022793
-0.015443
-0.008352
0.012202
0.037883
-0.007394
-0.040130
-0.018081
-0.040812
-0.057724
-0.193370
-0.210421
-0.208838
-0.182701
0.028389
0.058090
0.029844
0.026780
0.036425
0.031395
0.047945
0.078617
0.071317
0.067459
-0.021419
0.086734
-0.222971
-0.210280
-0.216941
-0.104203
-0.107044
-0.114629
-0.075636
0.042985
0.064356
0.073387
0.080166
0.031848
0.044935
0.009990
-0.159998
-0.164376
-0.227488
-0.197526
-0.180088
-0.192118
-0.213730
-0.201295
-0.214480
-0.001739
-0.015881
0.006464
-0.179508
-0.188887
-0.169222
-0.004844
0.020979
-0.016478
0.051755
0.041880
0.074871
-0.005308
-0.020391
-0.022263
-0.021493
-0.022069
-0.224329
-0.235911
-0.011184
-0.019937
-0.007229
0.010383
0.008972
0.000298
-0.019334
-0.003826
0.012599
-0.105863
-0.094201
-0.225212
-0.238329
-0.215792
-0.023787
-0.032428
0.070005
0.064160
0.009817
0.051737
0.012866
0.043482
0.016459
-0.002076
-0.000152
0.006128
-0.215521
-0.217524
-0.240720
-0.199601
-0.225753
-0.199737
-0.257327
-0.173767
0.024279
-0.008063
0.020762
0.028816
-0.243103
-0.219169
-0.207359
-0.202768
0.031863
0.093706
0.072882
0.052883
0.032199
-0.129552
-0.124126
-0.123293
0.019691
-0.110007
-0.121941
-0.138080
0.062023
-0.130743
-0.223181
-0.256653
-0.215143
-0.013797
0.013484
-0.013920
-0.192512
-0.199388
-0.182345
-0.015987
-0.008012
0.003065
0.042520
0.037561
0.006704
0.021185
-0.120868
-0.127570
-0.099542
-0.144446
-0.175139
-0.227456
-0.198229
0.019629
0.032975
-0.000893
0.015719
0.014809
0.016105
-0.217937
-0.238000
-0.240951
-0.132295
-0.123526
-0.204814
-0.024852
-0.049257
0.062151
0.003698
-0.015218
0.029304
0.026024
0.027817
-0.192879
-0.245680
-0.200969
-0.236619
-0.243753
-0.201385
-0.022016
0.013127
-0.012679
-0.017196
0.080383
0.038133
0.047750
0.074108
-0.011498
-0.008064
0.035647
0.028241
0.030093
0.034609
-0.176630
-0.178338
-0.145059
0.009178
0.005887
0.006102
0.003972
-0.027126
-0.001404
-0.013223
-0.243143
-0.149689
-0.151327
-0.170376
-0.213279
-0.229378
-0.263787
-0.110999
-0.118394
-0.096793
-0.040100
-0.026593
-0.016977
-0.115535
-0.114807
-0.119285
-0.091184
-0.102213
0.009496
-0.008597
-0.195355
-0.225604
-0.216464
0.078768
0.046260
-0.142273
-0.172774
-0.029456
0.007067
-0.023119
0.006473
-0.024717
-0.031671
-0.015471
0.013108
0.023137
0.024374
-0.122273
-0.132922
-0.049006
0.002973
-0.004603
-0.162914
-0.156374
-0.155974
0.018647
-0.207195
-0.206447
-0.209463
0.109228
0.036640
0.023434
-0.234183
-0.232546
0.054247
0.051084
-0.207738
-0.198833
-0.210587
-0.148464
-0.108583
-0.007574
-0.031049
-0.007298
-0.006687
-0.023420
-0.210486
-0.205320
-0.241365
-0.249533
-0.196575
0.051594
0.071484
-0.234397
-0.216191
-0.217671
0.016215
0.008958
-0.106372
-0.119361
-0.110116
-0.113172
0.005211
0.011844
0.002109
-0.245154
-0.219807
-0.224151
-0.211618
-0.218833
-0.208576
-0.229268
-0.208241
-0.237793
-0.197886
0.003215
-0.004135
-0.002996
-0.004127
-0.028279
-0.012199
-0.008933
-0.237760
-0.241770
-0.242432
-0.115477
-0.084695
-0.090114
-0.105932
-0.205097
-0.219253
-0.212967
-0.234736
-0.235348
-0.249673
0.066291
0.104329
-0.240917
0.025176
-0.010209
-0.223401
-0.028155
-0.159921
0.083111
-0.241910
-0.215013
-0.020397
-0.252896
-0.248784
0.028325
-0.003139
0.002045
-0.039146
-0.033888
-0.005337
-0.001516
-0.012046
0.049438
0.107460
0.063638
0.059444
0.086628
0.092026
-0.187027
-0.187283
-0.188158
-0.185276
0.021992
0.011777
0.023011
-0.048536
-0.009281
-0.091057
-0.106007
0.056876
0.035058
-0.249575
-0.240922
-0.236577
-0.233468
-0.011493
-0.061372
-0.042782
-0.032036
0.036111
0.064864
0.018833
0.077417
0.039425
-0.132964
-0.128198
-0.127977
0.024396
-0.206757
-0.203963
-0.226965
-0.149291
-0.149178
-0.034658
-0.008490
-0.019523
-0.013670
-0.144253
-0.118396
-0.128250
-0.128662
-0.132457
-0.131438
0.000227
0.002999
0.031820
0.036540
0.050352
0.009253
-0.099030
-0.117004
-0.119970
-0.134291
-0.112937
-0.249422
-0.092429
0.025706
0.002266
-0.010820
-0.027579
-0.022652
-0.150256
-0.164318
-0.237394
-0.220494
-0.207850
-0.204299
-0.149164
-0.192213
-0.200226
-0.191974
-0.229387
0.082229
0.026273
0.024932
0.027356
0.018426
-0.020238
-0.022198
0.021993
-0.220994
-0.219829
-0.233393
-0.013541
-0.018050
-0.194122
-0.213635
-0.228626
-0.197382
-0.014540
-0.021060
-0.026307
-0.228287
-0.006642
-0.011061
-0.222774
-0.221474
0.029773
0.020571
0.025249
0.018253
0.005080
0.008753
-0.002075
-0.002348
-0.224610
-0.260533
-0.255680
-0.197099
-0.188274
-0.198153
-0.177611
-0.010943
-0.014796
-0.027069
-0.020492
0.032624
0.036831
0.035711
0.008601
0.010613
0.030531
0.003836
-0.035631
-0.116190
-0.121169
-0.132235
-0.136717
-0.129686
-0.241689
-0.237199
-0.237820
-0.152241
-0.160986
-0.184325
-0.158756
0.075011
0.028075
-0.032389
-0.026016
-0.235164
-0.148107
-0.143653
-0.120465
-0.241097
-0.222070
-0.235818
-0.139221
-0.156854
-0.115135
-0.113004
-0.031040
-0.135746
-0.024706
0.067624
-0.015799
0.062713
0.061817
-0.020950
-0.010883
-0.007276
0.014547
-0.105224
-0.106588
-0.014068
-0.201676
-0.230960
-0.012943
-0.001740
-0.134533
-0.214962
-0.034183
-0.040788
-0.027990
-0.021414
-0.113984
-0.112904
-0.094097
-0.019078
-0.000061
-0.254155
-0.020106
0.010551
-0.056125
-0.220684
-0.217469
-0.222151
0.029228
0.005151
-0.012680
-0.215770
0.031324
0.036207
-0.030530
-0.268892
-0.222920
-0.248287
-0.080721
-0.045681
-0.006323
-0.000568
-0.140838
-0.166879
-0.137156
-0.125025
-0.113494
-0.148043
-0.005748
-0.008866
0.011985
0.009348
-0.013551
-0.009305
0.004022
-0.040263
-0.014572
-0.112913
-0.122230
-0.139811
-0.116423
-0.104574
-0.128493
-0.124831
-0.115969
-0.034891
-0.012761
-0.236651
-0.214111
-0.227465
-0.178895
-0.156538
-0.162631
-0.161542
-0.015996
-0.006962
-0.134548
-0.118587
-0.115307
0.039921
0.031973
0.058732
0.008515
-0.237173
-0.102830
-0.013861
0.006132
-0.005628
-0.222847
0.029133
0.019733
0.034623
0.000157
-0.248225
0.006148
0.013004
0.002224
0.018571
0.007190
-0.094518
-0.130070
-0.132715
-0.119946
-0.004157
-0.007601
-0.003854
-0.004125
0.090397
0.098876
0.089747
0.090797
-0.228325
-0.245958
-0.216176
-0.181104
-0.163181
0.014765
0.008224
0.027601
0.004137
0.016308
-0.011165
0.034495
-0.142270
-0.157754
0.052570
0.042761
0.075951
-0.216955
-0.183560
-0.234986
-0.207446
-0.212536
-0.134385
0.053487
0.063421
0.046871
0.050626
-0.019688
-0.143959
-0.151053
-0.191155
0.004410
0.010152
-0.197043
0.032542
0.031204
-0.165396
-0.155034
-0.163316
-0.223300
-0.229959
-0.018174
-0.199116
-0.193241
-0.180041
-0.200386
0.085317
0.076661
0.097370
0.110575
-0.192976
-0.147295
-0.178871
-0.158666
-0.196106
0.011572
0.032508
0.037539
0.068522
0.065233
0.077722
-0.018065
-0.022602
-0.015069
-0.249516
0.033945
-0.237564
-0.231420
-0.214007
-0.230209
-0.216009
-0.218776
-0.172601
-0.238447
0.005499
-0.016090
-0.215645
0.023110
-0.021563
-0.012278
-0.019427
-0.164195
-0.154623
-0.154579
-0.041567
-0.021402
0.009445
0.008791
0.019724
-0.088597
-0.024760
-0.015633
-0.012862
-0.110960
-0.118805
-0.117561
0.041847
0.031669
0.020841
-0.008247
-0.014756
-0.220900
-0.219276
-0.221835
-0.132984
-0.240719
-0.250195
-0.257071
-0.213543
-0.228705
-0.202599
-0.066216
-0.066164
-0.089208
-0.149555
-0.151366
-0.172495
-0.037010
-0.014461
-0.079323
-0.157980
-0.120038
0.024243
-0.017097
0.087680
0.070069
0.049644
0.059681
-0.134299
-0.132269
-0.008644
0.000567
-0.011810
0.023178
0.003171
-0.008992
-0.224401
0.003787
-0.021882
-0.031393
-0.001300
-0.195152
-0.184197
-0.180395
-0.169428
-0.271252
-0.217118
-0.241337
-0.249575
-0.000666
0.002292
0.016344
-0.208903
-0.200579
-0.184462
-0.202752
-0.130367
0.050655
-0.001342
-0.140491
-0.116899
-0.036041
-0.137951
0.064960
0.085060
-0.138463
-0.172207
-0.087491
-0.127182
-0.010269
-0.021824
-0.012095
-0.152047
-0.147734
-0.155811
0.043586
0.142923
0.063651
-0.223529
-0.165891
-0.177037
-0.201517
-0.140967
-0.204908
-0.211478
-0.175356
-0.219424
-0.009657
-0.199591
-0.221819
-0.243903
-0.237656
0.007692
0.019232
0.016733
-0.014617
-0.011608
-0.141857
-0.110466
-0.111416
-0.006588
-0.013467
-0.014498
-0.014644
-0.011035
-0.119787
-0.113160
-0.131490
-0.157691
-0.210409
-0.145065
0.056826
0.071745
0.068530
0.030200
-0.123735
-0.131009
-0.052630
-0.056211
-0.043493
0.011261
-0.000324
-0.002160
-0.200249
-0.200684
-0.019893
-0.009436
-0.126786
-0.084893
-0.012721
-0.018175
0.004727
-0.015213
-0.142416
-0.134771
-0.013606
-0.231209
-0.236371
-0.211102
0.004493
0.003878
-0.189176
-0.187476
-0.193561
-0.189187
-0.189880
-0.237768
-0.231773
0.004515
0.004622
-0.010587
-0.206393
-0.213590
-0.238917
0.034486
0.022779
0.029509
0.045409
-0.181032
-0.169757
-0.169439
-0.148381
0.072927
0.067430
0.082753
-0.235551
0.068192
-0.193759
0.007998
0.018446
0.024935
0.025863
0.051968
-0.225440
-0.228666
-0.223305
-0.000195
0.006901
0.016558
0.078686
0.090672
0.029716
-0.068642
-0.044575
0.058954
0.068528
0.086192
-0.012505
-0.078840
-0.062882
-0.115857
0.023677
-0.012778
0.050871
0.056741
0.016177
-0.135515
-0.018152
-0.009545
-0.007438
-0.016038
-0.015264
-0.097777
0.049742
-0.208560
-0.207190
-0.201198
-0.119034
-0.012682
-0.203794
-0.182317
-0.202102
-0.181131
-0.216574
0.034773
-0.107494
-0.131616
-0.111867
-0.108097
-0.010925
-0.119690
-0.132824
-0.119481
-0.129215
-0.134240
0.001589
-0.205032
-0.207876
-0.226958
0.001070
-0.227727
-0.238537
-0.003996
0.047004
0.028918
0.063075
-0.216474
0.083206
0.042131
0.020616
-0.231198
-0.224644
-0.226583
0.011570
0.004830
0.002856
-0.245082
-0.129074
-0.145621
-0.137090
-0.163199
-0.171860
-0.180931
-0.241950
-0.237558
-0.234516
-0.191863
-0.159922
-0.138380
0.029178
-0.128624
-0.195366
0.058289
0.066024
0.035921
-0.166673
-0.163934
-0.017502
-0.022174
-0.036734
-0.027249
-0.028583
0.057187
-0.130757
-0.231709
-0.221969
0.018099
-0.010064
-0.004534
-0.237372
-0.235990
-0.231529
0.018079
0.019095
0.014526
-0.143730
-0.139565
-0.150282
-0.146688
-0.117442
-0.132259
-0.007041
-0.004580
0.026842
0.003939
-0.133216
-0.129032
-0.121553
-0.133570
-0.209047
-0.211162
-0.219558
-0.174183
-0.125605
-0.127331
-0.127870
-0.025454
-0.027120
-0.007567
-0.010282
-0.160752
-0.182579
-0.208982
-0.223832
-0.225813
0.081265
-0.022851
-0.029166
0.038159
0.068745
-0.005363
-0.228551
0.108039
-0.145695
-0.155982
-0.155297
-0.144875
-0.199384
-0.224539
-0.203768
-0.191437
-0.060707
-0.016935
-0.070949
-0.230833
-0.027747
-0.033455
-0.003578
-0.071589
-0.137184
-0.215267
-0.140278
0.090702
0.087106
0.097267
-0.118826
-0.142811
-0.017140
-0.214698
-0.006383
-0.005111
0.000894
0.013556
-0.017070
0.009423
0.005198
-0.037459
-0.024641
-0.132702
-0.135016
0.051040
0.060954
0.103237
-0.166430
-0.244131
-0.224359
0.110512
-0.207564
-0.212201
-0.226649
-0.172694
-0.222787
-0.226201
-0.225858
-0.236794
-0.154187
-0.148346
-0.148497
0.036580
-0.125432
-0.005433
-0.012849
-0.124596
-0.143725
-0.132062
-0.172507
-0.161814
-0.177547
-0.090925
-0.129940
-0.213233
-0.245577
-0.235047
-0.193565
-0.202975
-0.197442
0.002639
0.016370
-0.009720
-0.239110
-0.234177
-0.233485
-0.034989
-0.033359
-0.021660
-0.008837
-0.125250
-0.222214
-0.216462
-0.001237
-0.003087
-0.008521
-0.035326
-0.014731
-0.132830
-0.139040
-0.236980
0.010021
0.033054
-0.210672
0.043324
0.052009
0.032900
0.034173
-0.224831
-0.268990
-0.210134
-0.132714
-0.156091
-0.147663
-0.002690
0.004889
-0.094391
-0.064718
-0.100773
-0.091468
-0.051300
-0.094619
-0.149857
-0.136586
-0.014869
-0.017281
-0.008955
-0.000838
-0.218659
-0.012469
-0.007744
-0.010618
-0.139100
-0.138620
0.044178
0.083926
0.024197
0.050043
0.049033
0.054908
0.019820
-0.019028
0.005502
-0.008322
0.048320
-0.000478
-0.016951
-0.154914
-0.155970
-0.139259
-0.152055
-0.049159
-0.057154
-0.054484
0.045275
-0.030159
-0.082266
-0.058830
-0.082591
0.052478
0.034630
0.024710
-0.144279
-0.122063
0.054324
0.080126
0.016154
-0.002420
0.013288
0.051108
0.011241
0.017098
0.034927
0.059069
0.053576
-0.024285
-0.010523
0.052634
-0.005012
0.113486
0.078967
0.010897
0.088691
0.102949
0.114425
-0.045009
-0.133374
-0.139481
-0.127652
-0.111459
-0.150648
0.033293
0.042069
0.053438
0.022173
0.052745
0.077609
0.099415
0.086626
-0.139537
-0.142281
-0.122351
-0.141544
-0.149834
-0.123726
-0.144269
-0.120359
-0.001433
-0.015671
-0.125124
-0.003679
0.089733
0.079442
0.101049
0.003294
-0.006188
-0.044085
-0.001130
-0.017989
-0.229096
-0.229663
-0.023008
-0.052977
-0.004127
-0.024939
-0.238216
-0.231299
-0.228072
-0.242976
-0.146151
-0.156966
-0.156308
-0.146628
-0.125313
-0.114388
-0.017475
-0.006480
-0.142405
-0.131486
-0.129966
-0.121800
0.072387
0.080804
0.081951
0.086103
0.047881
-0.118423
-0.117374
-0.136580
0.104265
0.088719
0.089840
-0.029225
-0.031261
-0.013383
-0.036280
-0.076758
-0.074510
-0.062435
-0.059928
-0.117152
-0.081365
-0.140324
-0.139212
-0.020979
-0.001626
0.101651
-0.010438
-0.124815
-0.134504
-0.145272
0.039015
-0.226790
-0.128335
-0.004048
-0.000078
0.002632
-0.001008
-0.007029
0.001420
-0.135833
-0.166921
-0.021343
-0.029165
-0.000365
-0.230937
-0.032256
-0.011821
-0.028618
0.005477
0.003106
-0.140294
-0.143689
-0.000293
-0.015241
0.002496
-0.013551
-0.221305
-0.172880
-0.209815
-0.214160
-0.034919
-0.012042
-0.008754
-0.031984
-0.018590
-0.022653
-0.133165
-0.141876
-0.019399
-0.017770
-0.020297
-0.019091
-0.039223
-0.210662
-0.211211
-0.190368
-0.214769
-0.196044
-0.193695
-0.224165
-0.032038
-0.145579
-0.146455
-0.143585
-0.129866
0.082275
0.034367
0.053624
0.056859
0.002759
0.013175
-0.002519
-0.011793
-0.008206
-0.009636
-0.020664
-0.100332
-0.079221
-0.122275
-0.095426
0.016516
-0.005334
-0.062229
0.010951
-0.143269
-0.136999
-0.160810
-0.141716
-0.007494
-0.234202
-0.228534
0.030024
-0.003232
0.026502
0.029092
-0.012381
-0.139924
-0.140277
-0.016502
-0.240177
-0.008527
-0.000693
-0.013668
0.060086
0.047787
0.051225
-0.195877
-0.152800
-0.182619
-0.198912
-0.149072
-0.140390
0.002066
-0.136529
-0.147049
-0.143001
-0.140891
-0.019569
-0.053723
-0.003057
0.038733
0.049237
0.062077
0.041776
0.050331
-0.007258
0.000982
-0.001932
-0.012266
-0.043285
-0.038569
-0.145952
-0.019799
-0.031572
-0.014529
-0.006096
-0.003455
0.001767
-0.019648
-0.131917
-0.011225
-0.005374
-0.215445
0.046627
0.052303
0.057913
-0.141121
-0.141649
-0.237062
-0.231950
-0.196296
-0.200335
-0.235354
-0.236396
-0.238549
-0.232132
0.047095
0.061836
-0.020231
-0.132101
-0.145197
-0.008914
-0.031723
-0.016648
0.043976
-0.072940
-0.185551
-0.187306
-0.137813
-0.189346
-0.187797