# vtk DataFile Version 2.0
Test
ASCII
DATASET POLYDATA
POINTS 7607 float
0.000000 0.000000 0.000000
1.000000 0.000000 0.000000
1.000000 0.800000 0.000000
1.000000 1.000000 0.000000
0.000000 1.000000 0.000000
0.000000 0.200000 0.000000
0.300000 0.330000 0.000000
0.700000 0.680000 0.000000
0.012987 0.000000 0.000000
0.025974 0.000000 0.000000
0.038961 0.000000 0.000000
0.051948 0.000000 0.000000
0.064935 0.000000 0.000000
0.077922 0.000000 0.000000
0.090909 0.000000 0.000000
0.103896 0.000000 0.000000
0.116883 0.000000 0.000000
0.129870 0.000000 0.000000
0.142857 0.000000 0.000000
0.155844 0.000000 0.000000
0.168831 0.000000 0.000000
0.181818 0.000000 0.000000
0.194805 0.000000 0.000000
0.207792 0.000000 0.000000
0.220779 0.000000 0.000000
0.233766 0.000000 0.000000
0.246753 0.000000 0.000000
0.259740 0.000000 0.000000
0.272727 0.000000 0.000000
0.285714 0.000000 0.000000
0.298701 0.000000 0.000000
0.311688 0.000000 0.000000
0.324675 0.000000 0.000000
0.337662 0.000000 0.000000
0.350649 0.000000 0.000000
0.363636 0.000000 0.000000
0.376623 0.000000 0.000000
0.389610 0.000000 0.000000
0.402597 0.000000 0.000000
0.415584 0.000000 0.000000
0.428571 0.000000 0.000000
0.441558 0.000000 0.000000
0.454545 0.000000 0.000000
0.467532 0.000000 0.000000
0.480519 0.000000 0.000000
0.493506 0.000000 0.000000
0.506494 0.000000 0.000000
0.519481 0.000000 0.000000
0.532468 0.000000 0.000000
0.545455 0.000000 0.000000
0.558442 0.000000 0.000000
0.571429 0.000000 0.000000
0.584416 0.000000 0.000000
0.597403 0.000000 0.000000
0.610390 0.000000 0.000000
0.623377 0.000000 0.000000
0.636364 0.000000 0.000000
0.649351 0.000000 0.000000
0.662338 0.000000 0.000000
0.675325 0.000000 0.000000
0.688312 0.000000 0.000000
0.701299 0.000000 0.000000
0.714286 0.000000 0.000000
0.727273 0.000000 0.000000
0.740260 0.000000 0.000000
0.753247 0.000000 0.000000
0.766234 0.000000 0.000000
0.779221 0.000000 0.000000
0.792208 0.000000 0.000000
0.805195 0.000000 0.000000
0.818182 0.000000 0.000000
0.831169 0.000000 0.000000
0.844156 0.000000 0.000000
0.857143 0.000000 0.000000
0.870130 0.000000 0.000000
0.883117 0.000000 0.000000
0.896104 0.000000 0.000000
0.909091 0.000000 0.000000
0.922078 0.000000 0.000000
0.935065 0.000000 0.000000
0.948052 0.000000 0.000000
0.961039 0.000000 0.000000
0.974026 0.000000 0.000000
0.987013 0.000000 0.000000
1.000000 0.012903 0.000000
1.000000 0.025806 0.000000
1.000000 0.038710 0.000000
1.000000 0.051613 0.000000
1.000000 0.064516 0.000000
1.000000 0.077419 0.000000
1.000000 0.090323 0.000000
1.000000 0.103226 0.000000
1.000000 0.116129 0.000000
1.000000 0.129032 0.000000
1.000000 0.141935 0.000000
1.000000 0.154839 0.000000
1.000000 0.167742 0.000000
1.000000 0.180645 0.000000
1.000000 0.193548 0.000000
1.000000 0.206452 0.000000
1.000000 0.219355 0.000000
1.000000 0.232258 0.000000
1.000000 0.245161 0.000000
1.000000 0.258065 0.000000
1.000000 0.270968 0.000000
1.000000 0.283871 0.000000
1.000000 0.296774 0.000000
1.000000 0.309677 0.000000
1.000000 0.322581 0.000000
1.000000 0.335484 0.000000
1.000000 0.348387 0.000000
1.000000 0.361290 0.000000
1.000000 0.374194 0.000000
1.000000 0.387097 0.000000
1.000000 0.400000 0.000000
1.000000 0.412903 0.000000
1.000000 0.425806 0.000000
1.000000 0.438710 0.000000
1.000000 0.451613 0.000000
1.000000 0.464516 0.000000
1.000000 0.477419 0.000000
1.000000 0.490323 0.000000
1.000000 0.503226 0.000000
1.000000 0.516129 0.000000
1.000000 0.529032 0.000000
1.000000 0.541935 0.000000
1.000000 0.554839 0.000000
1.000000 0.567742 0.000000
1.000000 0.580645 0.000000
1.000000 0.593548 0.000000
1.000000 0.606452 0.000000
1.000000 0.619355 0.000000
1.000000 0.632258 0.000000
1.000000 0.645161 0.000000
1.000000 0.658065 0.000000
1.000000 0.670968 0.000000
1.000000 0.683871 0.000000
1.000000 0.696774 0.000000
1.000000 0.709677 0.000000
1.000000 0.722581 0.000000
1.000000 0.735484 0.000000
1.000000 0.748387 0.000000
1.000000 0.761290 0.000000
1.000000 0.774194 0.000000
1.000000 0.787097 0.000000
1.000000 0.812500 0.000000
1.000000 0.825000 0.000000
1.000000 0.837500 0.000000
1.000000 0.850000 0.000000
1.000000 0.862500 0.000000
1.000000 0.875000 0.000000
1.000000 0.887500 0.000000
1.000000 0.900000 0.000000
1.000000 0.912500 0.000000
1.000000 0.925000 0.000000
1.000000 0.937500 0.000000
1.000000 0.950000 0.000000
1.000000 0.962500 0.000000
1.000000 0.975000 0.000000
1.000000 0.987500 0.000000
0.987013 1.000000 0.000000
0.974026 1.000000 0.000000
0.961039 1.000000 0.000000
0.948052 1.000000 0.000000
0.935065 1.000000 0.000000
0.922078 1.000000 0.000000
0.909091 1.000000 0.000000
0.896104 1.000000 0.000000
0.883117 1.000000 0.000000
0.870130 1.000000 0.000000
0.857143 1.000000 0.000000
0.844156 1.000000 0.000000
0.831169 1.000000 0.000000
0.818182 1.000000 0.000000
0.805195 1.000000 0.000000
0.792208 1.000000 0.000000
0.779221 1.000000 0.000000
0.766234 1.000000 0.000000
0.753247 1.000000 0.000000
0.740260 1.000000 0.000000
0.727273 1.000000 0.000000
0.714286 1.000000 0.000000
0.701299 1.000000 0.000000
0.688312 1.000000 0.000000
0.675325 1.000000 0.000000
0.662338 1.000000 0.000000
0.649351 1.000000 0.000000
0.636364 1.000000 0.000000
0.623377 1.000000 0.000000
0.610390 1.000000 0.000000
0.597403 1.000000 0.000000
0.584416 1.000000 0.000000
0.571429 1.000000 0.000000
0.558442 1.000000 0.000000
0.545455 1.000000 0.000000
0.532468 1.000000 0.000000
0.519481 1.000000 0.000000
0.506494 1.000000 0.000000
0.493506 1.000000 0.000000
0.480519 1.000000 0.000000
0.467532 1.000000 0.000000
0.454545 1.000000 0.000000
0.441558 1.000000 0.000000
0.428571 1.000000 0.000000
0.415584 1.000000 0.000000
0.402597 1.000000 0.000000
0.389610 1.000000 0.000000
0.376623 1.000000 0.000000
0.363636 1.000000 0.000000
0.350649 1.000000 0.000000
0.337662 1.000000 0.000000
0.324675 1.000000 0.000000
0.311688 1.000000 0.000000
0.298701 1.000000 0.000000
0.285714 1.000000 0.000000
0.272727 1.000000 0.000000
0.259740 1.000000 0.000000
0.246753 1.000000 0.000000
0.233766 1.000000 0.000000
0.220779 1.000000 0.000000
0.207792 1.000000 0.000000
0.194805 1.000000 0.000000
0.181818 1.000000 0.000000
0.168831 1.000000 0.000000
0.155844 1.000000 0.000000
0.142857 1.000000 0.000000
0.129870 1.000000 0.000000
0.116883 1.000000 0.000000
0.103896 1.000000 0.000000
0.090909 1.000000 0.000000
0.077922 1.000000 0.000000
0.064935 1.000000 0.000000
0.051948 1.000000 0.000000
0.038961 1.000000 0.000000
0.025974 1.000000 0.000000
0.012987 1.000000 0.000000
0.000000 0.987097 0.000000
0.000000 0.974194 0.000000
0.000000 0.961290 0.000000
0.000000 0.948387 0.000000
0.000000 0.935484 0.000000
0.000000 0.922581 0.000000
0.000000 0.909677 0.000000
0.000000 0.896774 0.000000
0.000000 0.883871 0.000000
0.000000 0.870968 0.000000
0.000000 0.858065 0.000000
0.000000 0.845161 0.000000
0.000000 0.832258 0.000000
0.000000 0.819355 0.000000
0.000000 0.806452 0.000000
0.000000 0.793548 0.000000
0.000000 0.780645 0.000000
0.000000 0.767742 0.000000
0.000000 0.754839 0.000000
0.000000 0.741935 0.000000
0.000000 0.729032 0.000000
0.000000 0.716129 0.000000
0.000000 0.703226 0.000000
0.000000 0.690323 0.000000
0.000000 0.677419 0.000000
0.000000 0.664516 0.000000
0.000000 0.651613 0.000000
0.000000 0.638710 0.000000
0.000000 0.625806 0.000000
0.000000 0.612903 0.000000
0.000000 0.600000 0.000000
0.000000 0.587097 0.000000
0.000000 0.574194 0.000000
0.000000 0.561290 0.000000
0.000000 0.548387 0.000000
0.000000 0.535484 0.000000
0.000000 0.522581 0.000000
0.000000 0.509677 0.000000
0.000000 0.496774 0.000000
0.000000 0.483871 0.000000
0.000000 0.470968 0.000000
0.000000 0.458065 0.000000
0.000000 0.445161 0.000000
0.000000 0.432258 0.000000
0.000000 0.419355 0.000000
0.000000 0.406452 0.000000
0.000000 0.393548 0.000000
0.000000 0.380645 0.000000
0.000000 0.367742 0.000000
0.000000 0.354839 0.000000
0.000000 0.341935 0.000000
0.000000 0.329032 0.000000
0.000000 0.316129 0.000000
0.000000 0.303226 0.000000
0.000000 0.290323 0.000000
0.000000 0.277419 0.000000
0.000000 0.264516 0.000000
0.000000 0.251613 0.000000
0.000000 0.238710 0.000000
0.000000 0.225806 0.000000
0.000000 0.212903 0.000000
0.000000 0.187500 0.000000
0.000000 0.175000 0.000000
0.000000 0.162500 0.000000
0.000000 0.150000 0.000000
0.000000 0.137500 0.000000
0.000000 0.125000 0.000000
0.000000 0.112500 0.000000
0.000000 0.100000 0.000000
0.000000 0.087500 0.000000
0.000000 0.075000 0.000000
0.000000 0.062500 0.000000
0.000000 0.050000 0.000000
0.000000 0.037500 0.000000
0.000000 0.025000 0.000000
0.000000 0.012500 0.000000
0.309756 0.338537 0.000000
0.319512 0.347073 0.000000
0.329268 0.355610 0.000000
0.339024 0.364146 0.000000
0.348780 0.372683 0.000000
0.358537 0.381220 0.000000
0.368293 0.389756 0.000000
0.378049 0.398293 0.000000
0.387805 0.406829 0.000000
0.397561 0.415366 0.000000
0.407317 0.423902 0.000000
0.417073 0.432439 0.000000
0.426829 0.440976 0.000000
0.436585 0.449512 0.000000
0.446341 0.458049 0.000000
0.456098 0.466585 0.000000
0.465854 0.475122 0.000000
0.475610 0.483659 0.000000
0.485366 0.492195 0.000000
0.495122 0.500732 0.000000
0.504878 0.509268 0.000000
0.514634 0.517805 0.000000
0.524390 0.526341 0.000000
0.534146 0.534878 0.000000
0.543902 0.543415 0.000000
0.553659 0.551951 0.000000
0.563415 0.560488 0.000000
0.573171 0.569024 0.000000
0.582927 0.577561 0.000000
0.592683 0.586098 0.000000
0.602439 0.594634 0.000000
0.612195 0.603171 0.000000
0.621951 0.611707 0.000000
0.631707 0.620244 0.000000
0.641463 0.628780 0.000000
0.651220 0.637317 0.000000
0.660976 0.645854 0.000000
0.670732 0.654390 0.000000
0.680488 0.662927 0.000000
0.690244 0.671463 0.000000
0.011538 0.205000 0.000000
0.023077 0.210000 0.000000
0.034615 0.215000 0.000000
0.046154 0.220000 0.000000
0.057692 0.225000 0.000000
0.069231 0.230000 0.000000
0.080769 0.235000 0.000000
0.092308 0.240000 0.000000
0.103846 0.245000 0.000000
0.115385 0.250000 0.000000
0.126923 0.255000 0.000000
0.138462 0.260000 0.000000
0.150000 0.265000 0.000000
0.161538 0.270000 0.000000
0.173077 0.275000 0.000000
[...]
POINT_DATA 7607
SCALARS UX float 1
LOOKUP_TABLE default
0.007706
0.003014
-0.031292
-0.491440
-0.655867
-0.294291
-0.266790
-0.282314
-0.003303
0.000202
0.001447
0.001655
0.013601
0.000462
-0.000279
0.012435
0.000385
0.000937
-0.000392
0.000052
0.000307
-0.000131
-0.000243
0.000223
-0.000182
0.000379
0.000160
-0.001869
-0.000288
-0.000264
-0.001102
-0.012235
0.000361
-0.000319
-0.000207
-0.000643
0.000546
0.000375
0.003291
0.000063
0.000657
-0.002609
0.000138
0.005411
0.000335
-0.000395
-0.003392
0.000001
-0.000479
-0.000006
0.000093
-0.005095
-0.000303
-0.002320
-0.000103
-0.000789
0.000235
-0.000069
0.000049
-0.001467
-0.001866
0.000651
-0.000373
0.000462
0.006591
0.000956
-0.012865
0.000582
0.004148
0.000510
-0.001533
-0.001186
-0.008383
-0.000359
0.006662
0.003793
-0.006366
-0.000020
-0.000921
0.002222
0.000268
0.001927
-0.000165
-0.016222
-0.001150
0.026262
0.011832
0.024810
0.011975
0.021071
0.017859
0.032319
0.059533
0.067399
0.057618
0.079983
0.049783
0.095002
0.059064
0.055542
0.087232
0.094918
0.087418
0.109754
0.096220
0.111873
0.126407
0.093704
0.119820
0.141038
0.113641
0.160432
0.137169
0.142775
0.150506
0.129638
0.175438
0.141431
0.183005
0.135619
0.170849
0.185681
0.152282
0.164752
0.206139
0.163395
0.197967
0.192036
0.178257
0.204115
0.199357
0.181285
0.224101
0.158481
0.180941
0.186647
0.189985
0.182235
0.210585
0.153559
0.164576
0.112046
0.135718
0.159325
0.083328
-0.099074
-0.057661
-0.189198
-0.237441
-0.423505
-0.337082
-0.465921
-0.375628
-0.447054
-0.440077
-0.477391
-0.451030
-0.437000
-0.492029
-0.463894
-0.457030
-0.472927
-0.479689
-0.500719
-0.490456
-0.493652
-0.486053
-0.499400
-0.500924
-0.506981
-0.498940
-0.509328
-0.501028
-0.501013
-0.513862
-0.509257
-0.517733
-0.526240
-0.519298
-0.525544
-0.523545
-0.525298
-0.526430
-0.529857
-0.535844
-0.529451
-0.541760
-0.534475
-0.541110
-0.544659
-0.539668
-0.552529
-0.550190
-0.554900
-0.558826
-0.556790
-0.553451
-0.559795
-0.560004
-0.560363
-0.564117
-0.563408
-0.581087
-0.560590
-0.567696
-0.584161
-0.571547
-0.583715
-0.575649
-0.592191
-0.595632
-0.603460
-0.607481
-0.605265
-0.603635
-0.622915
-0.604677
-0.625248
-0.634555
-0.608073
-0.644273
-0.628591
-0.633455
-0.625184
-0.644080
-0.654563
-0.643115
-0.658087
-0.660276
-0.653168
-0.656673
-0.659793
-0.668483
-0.667900
-0.666346
-0.668627
-0.677155
-0.679333
-0.674206
-0.657022
-0.668103
-0.647733
-0.663196
-0.664389
-0.674521
-0.670897
-0.666550
-0.710172
-0.679674
-0.686955
-0.678482
-0.685355
-0.700269
-0.692635
-0.688864
-0.676756
-0.697482
-0.697828
-0.691190
-0.692967
-0.704741
-0.684824
-0.700271
-0.707576
-0.704079
-0.706210
-0.661996
-0.641923
-0.678857
-0.704058
-0.706154
-0.714558
-0.698930
-0.721395
-0.712743
-0.745659
-0.711040
-0.730858
-0.717429
-0.729364
-0.731813
-0.730276
-0.736112
-0.756782
-0.733812
-0.738757
-0.721785
-0.731220
-0.731899
-0.704339
-0.692034
-0.670750
-0.625793
-0.650795
-0.587377
-0.415965
-0.651478
-0.376069
-0.438910
-0.307429
-0.212099
-0.053011
-0.121812
-0.059087
-0.059054
-0.013977
-0.047523
-0.011597
-0.050760
-0.018364
-0.013629
-0.009179
0.267962
-0.199532
-0.381943
-0.824796
-0.633590
-0.673692
-0.581283
-0.360956
-0.375508
-0.487193
-0.352928
-0.417745
0.204905
-0.120622
-0.006293
-0.091005
0.225137
-0.222090
-0.326009
-0.300779
0.032792
-0.433452
-0.784203
-0.380713
-0.342754
-0.506775
-0.205015
-0.227059
-0.264114
-0.022193
0.013641
0.147192
-0.274350
-0.075717
0.053756
-0.010635
-0.086196
-0.523421
-0.416163
-0.512921
-0.494626
-0.608630
-0.223358
-0.477220
-0.521698
-0.737263
-0.644443
-0.479215
-0.550212
-0.416954
-0.575457
-0.350951
-0.509418
-0.540711
-0.441815
-0.766778
-0.519924
-0.261310
-0.393795
-0.751899
-0.420745
-0.330533
-0.725267
-0.392775
-0.662192
-0.028941
0.005444
-0.220804
0.366176
-0.308436
0.257421
-0.022050
-0.114832
-0.004052
-0.201824
0.062151
-0.099343
-0.222856
0.142128
-0.206421
-0.025815
-0.024396
-0.109619
0.069122
-0.091092
-0.055513
0.015919
0.050077
-0.183960
-0.497348
-0.504230
-0.505388
-0.534424
0.091964
0.055666
0.063216
-0.654220
-0.626501
-0.352432
-0.620205
-0.540333
-0.396412
-0.014349
0.014069
0.026887
-0.681824
-0.637697
-0.645209
-0.689837
0.067651
0.015537
0.036231
0.024035
-0.114248
-0.038993
-0.213902
-0.165654
-0.011145
-0.000517
-0.587723
-0.622305
-0.812132
-0.725845
-0.372184
-0.143271
0.021523
0.006752
-0.005013
-0.003715
-0.644593
-0.640472
-0.661309
-0.669487
-0.346596
-0.356268
-0.243089
-0.218498
0.159481
0.122773
0.121089
-0.482613
-0.522341
0.095372
0.068361
0.033803
0.089280
-0.547722
-0.531506
-0.514062
-0.241910
-0.606647
-0.519357
-0.490751
-0.400302
-0.411270
-0.052002
-0.118095
-0.047120
-0.539541
-0.644154
-0.652594
-0.029620
0.022423
0.047328
-0.007243
-0.021522
-0.030716
-0.581623
-0.583250
-0.583166
-0.040061
-0.545153
-0.544506
-0.507515
0.056428
0.059687
0.003977
0.058277
0.002417
-0.017750
-0.028681
-0.160645
0.009535
0.024608
-0.037607
0.081350
0.146026
0.202724
-0.815173
-0.365160
-0.457580
-0.422107
-0.303827
-0.553435
-0.533202
-0.573958
-0.478169
-0.605875
-0.483271
-0.030109
0.014293
0.010709
0.013876
0.093268
0.086964
-0.534459
-0.506585
-0.507450
0.028384
0.048490
0.039970
-0.473530
-0.458689
-0.504631
-0.453899
0.060200
0.080388
0.164193
0.087893
-0.008981
-0.529880
-0.042984
0.006661
0.000289
-0.005994
-0.705046
-0.633132
-0.638385
-0.706061
-0.543298
-0.593607
-0.571368
-0.550714
-0.482504
-0.505149
-0.515062
-0.505186
-0.120115
-0.015796
-0.012051
-0.003161
-0.000678
-0.727076
-0.679779
-0.727946
-0.018216
-0.018705
-0.003438
-0.692645
-0.649757
-0.654241
-0.022204
-0.447038
-0.507204
-0.495788
-0.674538
-0.658405
-0.612831
-0.646638
-0.634698
-0.654023
-0.652574
0.141756
0.127908
0.125013
0.152725
0.155816
0.075832
0.120022
0.064677
0.082473
0.056641
-0.570619
-0.551465
-0.520371
-0.549270
-0.535044
-0.539927
-0.012639
-0.036894
-0.015109
-0.007212
0.027108
0.059046
0.015435
-0.108196
0.012606
-0.099165
-0.139338
-0.610315
-0.625201
-0.633008
-0.541973
0.051364
0.100649
0.073311
0.063857
0.058311
0.055508
0.090650
0.148922
0.146258
0.106475
-0.037913
0.320127
-0.689411
-0.665887
-0.675275
-0.279126
-0.499137
-0.473959
-0.468126
0.115631
0.171507
0.185345
0.121170
0.050538
0.102889
0.015315
-0.550618
-0.561911
-0.680790
-0.618162
-0.584367
-0.602153
-0.638355
-0.615756
-0.639255
-0.001346
-0.026729
0.013368
-0.574429
-0.596287
-0.566903
-0.007710
0.053832
-0.031615
0.139693
0.117055
0.222428
-0.014031
-0.026059
-0.015745
-0.017195
-0.054571
-0.656730
-0.670081
-0.017447
-0.035402
0.004306
0.029321
0.017684
0.003524
-0.031130
-0.003098
0.023323
-0.439114
-0.443731
-0.653219
-0.673106
-0.630882
-0.061119
-0.070221
0.181738
0.153675
0.022614
0.045280
0.041646
0.096758
0.031652
-0.012424
-0.007715
0.031434
-0.691257
-0.680362
-0.724457
-0.666682
-0.748351
-0.666477
-0.772284
-0.651928
0.065943
-0.074942
0.010703
0.071194
-0.734542
-0.697818
-0.674766
-0.672879
0.078138
0.212846
0.126686
0.100730
0.061863
-0.496358
-0.484375
-0.475429
0.060374
-0.459966
-0.479327
-0.507052
0.045412
-0.494369
-0.668856
-0.729267
-0.664309
-0.025155
0.023615
-0.013977
-0.607939
-0.621067
-0.592062
-0.029331
-0.019141
0.007548
0.043703
0.061600
0.012289
0.071018
-0.480683
-0.488956
-0.440200
-0.501851
-0.673022
-0.725831
-0.617986
0.039833
0.051964
0.006528
0.036829
0.036815
0.032911
-0.639361
-0.675934
-0.671939
-0.451681
-0.390802
-0.700606
-0.041325
-0.060731
0.177486
-0.007069
-0.022820
0.053387
0.052974
0.052417
-0.663368
-0.740965
-0.669430
-0.723666
-0.743744
-0.689039
-0.032082
0.021241
-0.022336
-0.025898
0.189105
0.105396
0.068663
-0.100710
-0.035505
-0.046161
0.061780
0.056833
0.067823
0.057858
-0.580209
-0.602819
-0.515824
0.022307
0.012539
0.016920
0.008859
-0.039392
0.001118
-0.021289
-0.755664
-0.622310
-0.508578
-0.576864
-0.679324
-0.719248
-0.778815
-0.440583
-0.460028
-0.458310
-0.091667
-0.051266
0.012969
-0.474428
-0.478349
-0.477609
-0.436091
-0.442176
0.009846
-0.003215
-0.622098
-0.646356
-0.643767
0.185772
0.112075
-0.491678
-0.619950
-0.047969
0.010664
-0.041469
0.018770
-0.043122
-0.053437
-0.026514
0.027647
0.050203
0.053155
-0.483531
-0.496510
-0.078585
-0.005669
-0.004313
-0.554718
-0.546934
-0.548254
0.038062
-0.706878
-0.624524
-0.687509
0.255160
0.060781
0.034845
-0.671147
-0.658817
0.152892
0.123365
-0.629108
-0.616143
-0.632581
-0.518180
-0.465525
-0.005502
-0.036205
-0.024591
-0.006752
-0.023056
-0.625743
-0.622980
-0.682747
-0.693722
-0.614103
0.137883
0.159282
-0.688345
-0.682911
-0.684350
0.024517
0.020571
-0.446578
-0.476377
-0.441879
-0.463675
0.016365
0.022201
0.004781
-0.680260
-0.644518
-0.649513
-0.634751
-0.640179
-0.621122
-0.690297
-0.652158
-0.716698
-0.643781
0.002802
-0.003099
-0.003822
0.001436
-0.051407
-0.008010
-0.006844
-0.682078
-0.682500
-0.679857
-0.477082
-0.373542
-0.387679
-0.432341
-0.701979
-0.716220
-0.662513
-0.666189
-0.672904
-0.693731
0.146128
0.218293
-0.719866
0.043054
-0.011531
-0.651115
-0.102611
-0.626751
0.362121
-0.678243
-0.638097
-0.027753
-0.695893
-0.683590
0.045430
0.004611
-0.004898
-0.079265
-0.066062
-0.007131
-0.001822
-0.026003
0.112318
0.194560
0.143138
0.108383
0.183331
0.166184
-0.597231
-0.599599
-0.595287
-0.591173
0.045042
0.026710
0.050193
-0.059893
-0.006345
-0.440089
-0.462547
0.095953
0.072914
-0.696282
-0.679894
-0.674672
-0.667908
-0.004108
-0.113450
-0.091097
-0.077384
0.062346
0.205874
0.105595
0.191943
0.183831
-0.480485
-0.495923
-0.486932
0.047866
-0.649113
-0.654497
-0.706110
-0.592193
-0.582752
-0.066039
-0.019989
-0.032038
-0.034275
-0.523677
-0.473374
-0.484717
-0.492399
-0.490757
-0.495874
-0.002910
-0.000098
0.105581
0.068491
0.081333
0.023549
-0.439161
-0.436520
-0.471458
-0.507013
-0.472420
-0.687382
-0.416900
0.051439
0.001349
-0.015032
-0.034974
-0.046582
-0.573685
-0.654870
-0.736736
-0.696175
-0.699280
-0.683247
-0.599727
-0.602629
-0.625600
-0.602194
-0.715641
0.284237
0.000642
0.030484
0.037851
0.002582
-0.038436
-0.032104
0.028067
-0.666014
-0.648075
-0.670548
-0.017819
-0.018968
-0.612328
-0.637687
-0.656004
-0.684012
-0.011142
-0.026707
-0.064752
-0.714068
-0.005052
-0.009262
-0.670041
-0.658191
0.051777
0.033384
0.038908
0.053444
0.005852
0.014529
-0.001742
-0.001937
-0.655886
-0.720041
-0.712905
-0.618187
-0.605432
-0.615760
-0.583060
-0.016989
-0.023294
-0.047506
-0.031533
0.118502
0.116825
0.126196
0.016846
0.006013
0.121103
0.000938
-0.220104
-0.465525
-0.464352
-0.508110
-0.527002
-0.477921
-0.683820
-0.677320
-0.677764
-0.538055
-0.547715
-0.595194
-0.553666
0.179799
0.093524
-0.047388
-0.055074
-0.673049
-0.515229
-0.616539
-0.403478
-0.683295
-0.651311
-0.681025
-0.625382
-0.651138
-0.458551
-0.479282
-0.056012
-0.509164
-0.032870
0.192986
-0.022843
0.240624
0.189154
-0.034838
-0.018172
-0.006686
0.039048
-0.456859
-0.469034
-0.020031
-0.643616
-0.689841
-0.018730
-0.003652
-0.495999
-0.637470
-0.046671
-0.079858
-0.056090
-0.027253
-0.466868
-0.463357
-0.433462
-0.031343
0.004840
-0.691694
-0.029541
0.026649
-0.135650
-0.647447
-0.638141
-0.727077
0.053402
0.004832
-0.015305
-0.691072
0.051455
0.071645
-0.048638
-0.770022
-0.707145
-0.750196
-0.425217
-0.084608
-0.004340
-0.007876
-0.527110
-0.563706
-0.518913
-0.481225
-0.466042
-0.533466
-0.006675
-0.014391
0.040753
0.000505
0.031151
-0.095903
0.033880
-0.232262
-0.066430
-0.474904
-0.459854
-0.491130
-0.451846
-0.464866
-0.489609
-0.479721
-0.471922
-0.071419
-0.006955
-0.674184
-0.635965
-0.659973
-0.655070
-0.621235
-0.631944
-0.662078
-0.032892
-0.019201
-0.497750
-0.475211
-0.468775
0.108873
0.050132
0.179399
-0.005553
-0.686942
-0.449088
-0.018254
0.022722
-0.013407
-0.648694
0.036477
0.039888
0.065319
0.000980
-0.690337
0.003838
0.018385
0.008193
0.024876
0.012924
-0.435266
-0.496796
-0.494375
-0.486821
-0.005623
-0.009047
-0.000524
-0.007546
0.159522
0.193364
0.176225
0.158069
-0.656486
-0.683743
-0.638236
-0.492468
-0.583930
0.014387
0.008759
0.070784
0.012071
0.026445
-0.020479
0.089910
-0.511514
-0.560088
0.094474
0.074598
0.125445
-0.842583
-0.636574
-0.676035
-0.638895
-0.653142
-0.497516
0.158326
0.159749
0.160938
0.095814
-0.016581
-0.525661
-0.516304
-0.599118
0.028610
0.011150
-0.623332
0.043253
0.058043
-0.561658
-0.544437
-0.559941
-0.652184
-0.658527
-0.032016
-0.610790
-0.609465
-0.582963
-0.617338
0.179968
0.157474
0.191399
0.227198
-0.662898
-0.530191
-0.683834
-0.636380
-0.676754
0.025330
0.066651
0.072693
0.125542
0.116313
0.140795
-0.025157
-0.037913
-0.033385
-0.693189
0.056697
-0.682992
-0.663936
-0.634344
-0.701748
-0.662024
-0.648411
-0.604146
-0.718711
0.014985
-0.026951
-0.676346
0.227508
-0.039759
-0.015302
-0.031957
-0.555986
-0.544287
-0.543116
-0.050562
-0.016088
0.024878
0.020819
0.039798
-0.406996
-0.039183
-0.018807
-0.014567
-0.462049
-0.481108
-0.475729
0.132809
0.169569
0.119063
-0.011193
-0.021050
-0.647351
-0.644277
-0.650535
-0.550031
-0.710957
-0.724191
-0.723633
-0.636211
-0.657282
-0.617047
-0.261324
-0.310576
-0.252607
-0.591358
-0.676091
-0.623658
-0.073842
-0.016613
-0.321723
-0.541523
-0.482861
0.029224
-0.020173
0.212729
0.202547
0.186384
0.196637
-0.495803
-0.487674
-0.011588
-0.005324
-0.017556
0.063262
0.000020
-0.007403
-0.649241
0.015761
-0.028661
-0.057196
-0.001774
-0.614839
-0.595194
-0.591544
-0.612139
-0.751368
-0.642476
-0.675720
-0.684640
-0.007104
0.003805
0.030775
-0.727710
-0.721118
-0.669214
-0.694547
-0.471286
0.053838
0.058349
-0.519791
-0.480196
-0.168934
-0.528445
0.174131
0.234543
-0.511552
-0.574916
-0.407971
-0.429747
-0.017022
-0.037031
-0.021105
-0.539959
-0.533748
-0.544856
0.114843
0.268962
0.117049
-0.645265
-0.612344
-0.606111
-0.610330
-0.501749
-0.591566
-0.660877
-0.639789
-0.661852
-0.015307
-0.638515
-0.646759
-0.680464
-0.670873
0.010980
0.035916
0.026223
-0.029219
-0.018151
-0.521962
-0.476649
-0.452679
-0.008771
-0.018618
-0.029879
-0.007538
-0.025101
-0.471777
-0.465784
-0.554471
-0.545439
-0.740845
-0.544548
0.158768
0.195534
0.173931
0.114827
-0.480275
-0.489585
-0.090581
-0.147111
-0.142161
0.009003
-0.001652
0.006259
-0.683641
-0.697876
-0.023721
-0.015002
-0.493715
-0.422765
-0.010689
-0.027736
0.016608
-0.027248
-0.522076
-0.505953
-0.018371
-0.662818
-0.667036
-0.652812
0.003869
0.006685
-0.605047
-0.599163
-0.607196
-0.674707
-0.716592
-0.669585
-0.662856
0.011961
0.009238
-0.014647
-0.623382
-0.638218
-0.680535
0.150415
0.098888
0.140702
0.164011
-0.594037
-0.664978
-0.679304
-0.560036
0.134867
0.123400
0.148084
-0.669973
0.117935
-0.601447
0.015171
-0.039672
-0.000902
-0.012399
0.127284
-0.650892
-0.664789
-0.651206
0.000802
0.008412
0.028604
0.204350
0.202791
0.045911
-0.190910
-0.112552
0.179308
0.168029
0.201756
-0.007386
-0.193806
-0.088217
-0.208602
0.027883
-0.017215
0.119429
0.062958
0.024463
-0.500922
-0.018331
-0.013595
-0.006704
-0.026455
-0.024699
-0.442296
0.094446
-0.731758
-0.672968
-0.735222
-0.626664
-0.027588
-0.683963
-0.707359
-0.711211
-0.641123
-0.655464
0.095491
-0.440696
-0.497402
-0.487825
-0.457266
-0.011934
-0.462814
-0.506194
-0.472586
-0.492089
-0.502967
-0.005598
-0.625681
-0.627561
-0.655490
0.001508
-0.656361
-0.675468
-0.004240
0.067469
0.091435
0.137916
-0.696168
0.234879
0.155237
0.032258
-0.659005
-0.654095
-0.654933
0.019844
0.006993
0.005503
-0.739011
-0.509949
-0.584303
-0.489438
-0.557075
-0.572859
-0.585816
-0.744994
-0.730056
-0.715109
-0.623940
-0.577758
-0.503719
0.088088
-0.476717
-0.643343
0.098715
0.112702
0.082939
-0.562386
-0.560504
-0.023463
-0.038196
-0.073453
-0.048177
-0.036495
0.108712
-0.490100
-0.661134
-0.649623
0.038447
-0.014301
-0.005216
-0.671233
-0.665016
-0.659551
0.035469
0.035991
0.024910
-0.537816
-0.503493
-0.527652
-0.525804
-0.472222
-0.489106
-0.012148
-0.002437
0.046629
0.010585
-0.510891
-0.488690
-0.478277
-0.498109
-0.655229
-0.632696
-0.647039
-0.627809
-0.482434
-0.492948
-0.486029
-0.044285
-0.054115
-0.015031
-0.014637
-0.555403
-0.585765
-0.637618
-0.724265
-0.716693
0.194852
-0.023692
-0.059489
0.166629
0.213304
0.016090
-0.763044
0.113342
-0.530059
-0.540052
-0.539870
-0.533287
-0.619943
-0.662719
-0.624569
-0.606623
-0.098333
-0.027881
-0.122115
-0.660249
-0.030495
-0.088618
-0.007223
-0.126317
-0.499097
-0.755564
-0.506492
0.184696
0.183666
0.185610
-0.461271
-0.527156
-0.022554
-0.640849
-0.014901
-0.004192
0.000303
0.019697
-0.050876
0.029061
0.004795
-0.059001
-0.044485
-0.511707
-0.502208
0.092182
0.101265
0.182994
-0.631614
-0.765292
-0.712053
0.205279
-0.689446
-0.699351
-0.705521
-0.456595
-0.649356
-0.750764
-0.720261
-0.694621
-0.540167
-0.533347
-0.534899
0.049412
-0.260360
-0.003883
-0.020618
-0.488178
-0.518215
-0.498963
-0.566598
-0.557164
-0.581270
-0.423815
-0.486771
-0.646012
-0.705670
-0.690028
-0.620398
-0.652309
-0.635802
0.005996
0.032595
-0.018664
-0.676500
-0.672534
-0.669465
-0.167189
-0.100410
-0.029130
-0.021180
-0.481489
-0.668120
-0.651777
-0.002345
-0.003792
-0.013597
-0.067627
-0.012328
-0.500064
-0.507222
-0.684905
0.031041
0.051179
-0.655788
0.076456
0.097857
0.063923
0.063604
-0.665939
-0.740479
-0.625787
-0.517346
-0.518350
-0.526575
-0.005323
0.005535
-0.353331
-0.162898
-0.516404
-0.438381
-0.192411
-0.175097
-0.542677
-0.509221
-0.020053
-0.026472
-0.020524
-0.002887
-0.649994
-0.024642
-0.008252
-0.008476
-0.519992
-0.508960
0.079653
0.219865
0.065678
0.122345
0.144249
0.124886
0.077094
-0.031452
0.010892
-0.010762
0.095353
-0.005517
-0.028514
-0.541694
-0.547555
-0.518535
-0.540223
-0.145434
-0.155300
-0.103803
0.136000
-0.063924
-0.186434
-0.168485
-0.391816
0.093068
0.061358
0.044951
-0.502262
-0.493896
0.176398
0.179539
-0.070841
-0.000186
0.000618
0.137484
0.001496
0.055604
0.072058
0.098703
0.105397
-0.039539
-0.014278
0.127244
0.023798
0.234967
0.171292
0.049185
0.178651
0.189575
0.218755
-0.095529
-0.495590
-0.517418
-0.485951
-0.476627
-0.524554
0.063223
0.081901
0.097952
0.051966
0.094913
0.164929
0.206776
0.152205
-0.521926
-0.521880
-0.470730
-0.523913
-0.556174
-0.484134
-0.516385
-0.472477
-0.000919
-0.020526
-0.487762
-0.004586
0.205494
0.145099
0.180003
0.047053
0.028710
-0.269881
0.004816
-0.033326
-0.660022
-0.659317
-0.027919
-0.116192
0.023505
-0.043397
-0.677439
-0.665408
-0.659628
-0.685776
-0.532677
-0.547965
-0.540531
-0.530505
-0.505496
-0.450899
-0.027551
-0.007881
-0.512317
-0.492603
-0.500653
-0.458569
0.144415
0.149866
0.171004
0.158840
0.087476
-0.469460
-0.477040
-0.491431
0.203384
0.173641
0.173790
-0.052600
-0.051417
-0.020304
-0.014350
-0.266583
-0.218951
-0.072871
-0.113640
-0.366267
-0.377474
-0.520164
-0.510905
-0.034782
0.006280
0.210600
-0.007701
-0.487791
-0.495174
-0.539557
0.082256
-0.656107
-0.492574
-0.006293
0.001464
0.004367
-0.002874
-0.009409
0.002581
-0.506760
-0.584469
-0.027425
-0.050609
0.001819
-0.659826
-0.067689
-0.011218
-0.053792
0.010317
0.002240
-0.509800
-0.516791
0.006070
-0.021146
0.000506
-0.023219
-0.652674
-0.577111
-0.634942
-0.642937
-0.056299
-0.022423
-0.018488
-0.049095
-0.019947
-0.037770
-0.500451
-0.518161
-0.032714
-0.030457
-0.012463
-0.042182
-0.075785
-0.640965
-0.641566
-0.606681
-0.656867
-0.624608
-0.624469
-0.668648
-0.046264
-0.525231
-0.525513
-0.532278
-0.498763
0.154859
0.071528
0.114934
0.097482
0.008219
0.013024
0.007657
-0.014862
-0.015930
-0.013711
-0.036206
-0.425867
-0.249792
-0.517580
-0.294621
-0.078063
-0.067994
-0.143499
0.020571
-0.529773
-0.528436
-0.549646
-0.522047
-0.008677
-0.680112
-0.663806
0.101258
0.019382
0.051107
0.045016
-0.019837
-0.520294
-0.518960
-0.026283
-0.552984
-0.011675
-0.002108
-0.020328
0.102742
0.097258
0.095788
-0.548835
-0.526707
-0.333128
-0.613961
-0.526605
-0.513245
0.010143
-0.507432
-0.529966
-0.518899
-0.526227
-0.030347
-0.111208
-0.004832
0.081394
0.088445
0.111600
0.085659
0.089247
-0.006598
0.003803
0.005613
-0.013648
-0.087253
-0.058964
-0.532094
-0.028026
-0.056877
-0.024748
-0.006579
-0.003715
0.004747
-0.040996
-0.495049
-0.021201
-0.004755
-0.661473
0.084872
0.098275
0.113444
-0.513390
-0.509694
-0.671706
-0.667351
-0.604638
-0.612491
-0.703544
-0.725145
-0.721889
-0.703590
0.109974
0.146719
-0.028565
-0.508153
-0.525225
-0.066372
-0.056330
-0.022589
0.081145
-0.425546
-0.592931
-0.604032
-0.508968
-0.635069
-0.656656
-0.683259
-0.695707