# vtk DataFile Version 2.0
Test
ASCII
DATASET POLYDATA
POINTS 7607 float
0.000000 0.000000 0.000000
1.000000 0.000000 0.000000
1.000000 0.800000 0.000000
1.000000 1.000000 0.000000
0.000000 1.000000 0.000000
0.000000 0.200000 0.000000
0.300000 0.330000 0.000000
0.700000 0.680000 0.000000
0.012987 0.000000 0.000000
0.025974 0.000000 0.000000
0.038961 0.000000 0.000000
0.051948 0.000000 0.000000
0.064935 0.000000 0.000000
0.077922 0.000000 0.000000
0.090909 0.000000 0.000000
0.103896 0.000000 0.000000
0.116883 0.000000 0.000000
0.129870 0.000000 0.000000
0.142857 0.000000 0.000000
0.155844 0.000000 0.000000
0.168831 0.000000 0.000000
0.181818 0.000000 0.000000
0.194805 0.000000 0.000000
0.207792 0.000000 0.000000
0.220779 0.000000 0.000000
0.233766 0.000000 0.000000
0.246753 0.000000 0.000000
0.259740 0.000000 0.000000
0.272727 0.000000 0.000000
0.285714 0.000000 0.000000
0.298701 0.000000 0.000000
0.311688 0.000000 0.000000
0.324675 0.000000 0.000000
0.337662 0.000000 0.000000
0.350649 0.000000 0.000000
0.363636 0.000000 0.000000
0.376623 0.000000 0.000000
0.389610 0.000000 0.000000
0.402597 0.000000 0.000000
0.415584 0.000000 0.000000
0.428571 0.000000 0.000000
0.441558 0.000000 0.000000
0.454545 0.000000 0.000000
0.467532 0.000000 0.000000
0.480519 0.000000 0.000000
0.493506 0.000000 0.000000
0.506494 0.000000 0.000000
0.519481 0.000000 0.000000
0.532468 0.000000 0.000000
0.545455 0.000000 0.000000
0.558442 0.000000 0.000000
0.571429 0.000000 0.000000
0.584416 0.000000 0.000000
0.597403 0.000000 0.000000
0.610390 0.000000 0.000000
0.623377 0.000000 0.000000
0.636364 0.000000 0.000000
0.649351 0.000000 0.000000
0.662338 0.000000 0.000000
0.675325 0.000000 0.000000
0.688312 0.000000 0.000000
0.701299 0.000000 0.000000
0.714286 0.000000 0.000000
0.727273 0.000000 0.000000
0.740260 0.000000 0.000000
0.753247 0.000000 0.000000
0.766234 0.000000 0.000000
0.779221 0.000000 0.000000
0.792208 0.000000 0.000000
0.805195 0.000000 0.000000
0.818182 0.000000 0.000000
0.831169 0.000000 0.000000
0.844156 0.000000 0.000000
0.857143 0.000000 0.000000
0.870130 0.000000 0.000000
0.883117 0.000000 0.000000
0.896104 0.000000 0.000000
0.909091 0.000000 0.000000
0.922078 0.000000 0.000000
0.935065 0.000000 0.000000
0.948052 0.000000 0.000000
0.961039 0.000000 0.000000
0.974026 0.000000 0.000000
0.987013 0.000000 0.000000
1.000000 0.012903 0.000000
1.000000 0.025806 0.000000
1.000000 0.038710 0.000000
1.000000 0.051613 0.000000
1.000000 0.064516 0.000000
1.000000 0.077419 0.000000
1.000000 0.090323 0.000000
1.000000 0.103226 0.000000
1.000000 0.116129 0.000000
1.000000 0.129032 0.000000
1.000000 0.141935 0.000000
1.000000 0.154839 0.000000
1.000000 0.167742 0.000000
1.000000 0.180645 0.000000
1.000000 0.193548 0.000000
1.000000 0.206452 0.000000
1.000000 0.219355 0.000000
1.000000 0.232258 0.000000
1.000000 0.245161 0.000000
1.000000 0.258065 0.000000
1.000000 0.270968 0.000000
1.000000 0.283871 0.000000
1.000000 0.296774 0.000000
1.000000 0.309677 0.000000
1.000000 0.322581 0.000000
1.000000 0.335484 0.000000
1.000000 0.348387 0.000000
1.000000 0.361290 0.000000
1.000000 0.374194 0.000000
1.000000 0.387097 0.000000
1.000000 0.400000 0.000000
1.000000 0.412903 0.000000
1.000000 0.425806 0.000000
1.000000 0.438710 0.000000
1.000000 0.451613 0.000000
1.000000 0.464516 0.000000
1.000000 0.477419 0.000000
1.000000 0.490323 0.000000
1.000000 0.503226 0.000000
1.000000 0.516129 0.000000
1.000000 0.529032 0.000000
1.000000 0.541935 0.000000
1.000000 0.554839 0.000000
1.000000 0.567742 0.000000
1.000000 0.580645 0.000000
1.000000 0.593548 0.000000
1.000000 0.606452 0.000000
1.000000 0.619355 0.000000
1.000000 0.632258 0.000000
1.000000 0.645161 0.000000
1.000000 0.658065 0.000000
1.000000 0.670968 0.000000
1.000000 0.683871 0.000000
1.000000 0.696774 0.000000
1.000000 0.709677 0.000000
1.000000 0.722581 0.000000
1.000000 0.735484 0.000000
1.000000 0.748387 0.000000
1.000000 0.761290 0.000000
1.000000 0.774194 0.000000
1.000000 0.787097 0.000000
1.000000 0.812500 0.000000
1.000000 0.825000 0.000000
1.000000 0.837500 0.000000
1.000000 0.850000 0.000000
1.000000 0.862500 0.000000
1.000000 0.875000 0.000000
1.000000 0.887500 0.000000
1.000000 0.900000 0.000000
1.000000 0.912500 0.000000
1.000000 0.925000 0.000000
1.000000 0.937500 0.000000
1.000000 0.950000 0.000000
1.000000 0.962500 0.000000
1.000000 0.975000 0.000000
1.000000 0.987500 0.000000
0.987013 1.000000 0.000000
0.974026 1.000000 0.000000
0.961039 1.000000 0.000000
0.948052 1.000000 0.000000
0.935065 1.000000 0.000000
0.922078 1.000000 0.000000
0.909091 1.000000 0.000000
0.896104 1.000000 0.000000
0.883117 1.000000 0.000000
0.870130 1.000000 0.000000
0.857143 1.000000 0.000000
0.844156 1.000000 0.000000
0.831169 1.000000 0.000000
0.818182 1.000000 0.000000
0.805195 1.000000 0.000000
0.792208 1.000000 0.000000
0.779221 1.000000 0.000000
0.766234 1.000000 0.000000
0.753247 1.000000 0.000000
0.740260 1.000000 0.000000
0.727273 1.000000 0.000000
0.714286 1.000000 0.000000
0.701299 1.000000 0.000000
0.688312 1.000000 0.000000
0.675325 1.000000 0.000000
0.662338 1.000000 0.000000
0.649351 1.000000 0.000000
0.636364 1.000000 0.000000
0.623377 1.000000 0.000000
0.610390 1.000000 0.000000
0.597403 1.000000 0.000000
0.584416 1.000000 0.000000
0.571429 1.000000 0.000000
0.558442 1.000000 0.000000
0.545455 1.000000 0.000000
0.532468 1.000000 0.000000
0.519481 1.000000 0.000000
0.506494 1.000000 0.000000
0.493506 1.000000 0.000000
0.480519 1.000000 0.000000
0.467532 1.000000 0.000000
0.454545 1.000000 0.000000
0.441558 1.000000 0.000000
0.428571 1.000000 0.000000
0.415584 1.000000 0.000000
0.402597 1.000000 0.000000
0.389610 1.000000 0.000000
0.376623 1.000000 0.000000
0.363636 1.000000 0.000000
0.350649 1.000000 0.000000
0.337662 1.000000 0.000000
0.324675 1.000000 0.000000
0.311688 1.000000 0.000000
0.298701 1.000000 0.000000
0.285714 1.000000 0.000000
0.272727 1.000000 0.000000
0.259740 1.000000 0.000000
0.246753 1.000000 0.000000
0.233766 1.000000 0.000000
0.220779 1.000000 0.000000
0.207792 1.000000 0.000000
0.194805 1.000000 0.000000
0.181818 1.000000 0.000000
0.168831 1.000000 0.000000
0.155844 1.000000 0.000000
0.142857 1.000000 0.000000
0.129870 1.000000 0.000000
0.116883 1.000000 0.000000
0.103896 1.000000 0.000000
0.090909 1.000000 0.000000
0.077922 1.000000 0.000000
0.064935 1.000000 0.000000
0.051948 1.000000 0.000000
0.038961 1.000000 0.000000
0.025974 1.000000 0.000000
0.012987 1.000000 0.000000
0.000000 0.987097 0.000000
0.000000 0.974194 0.000000
0.000000 0.961290 0.000000
0.000000 0.948387 0.000000
0.000000 0.935484 0.000000
0.000000 0.922581 0.000000
0.000000 0.909677 0.000000
0.000000 0.896774 0.000000
0.000000 0.883871 0.000000
0.000000 0.870968 0.000000
0.000000 0.858065 0.000000
0.000000 0.845161 0.000000
0.000000 0.832258 0.000000
0.000000 0.819355 0.000000
0.000000 0.806452 0.000000
0.000000 0.793548 0.000000
0.000000 0.780645 0.000000
0.000000 0.767742 0.000000
0.000000 0.754839 0.000000
0.000000 0.741935 0.000000
0.000000 0.729032 0.000000
0.000000 0.716129 0.000000
0.000000 0.703226 0.000000
0.000000 0.690323 0.000000
0.000000 0.677419 0.000000
0.000000 0.664516 0.000000
0.000000 0.651613 0.000000
0.000000 0.638710 0.000000
0.000000 0.625806 0.000000
0.000000 0.612903 0.000000
0.000000 0.600000 0.000000
0.000000 0.587097 0.000000
0.000000 0.574194 0.000000
0.000000 0.561290 0.000000
0.000000 0.548387 0.000000
0.000000 0.535484 0.000000
0.000000 0.522581 0.000000
0.000000 0.509677 0.000000
0.000000 0.496774 0.000000
0.000000 0.483871 0.000000
0.000000 0.470968 0.000000
0.000000 0.458065 0.000000
0.000000 0.445161 0.000000
0.000000 0.432258 0.000000
0.000000 0.419355 0.000000
0.000000 0.406452 0.000000
0.000000 0.393548 0.000000
0.000000 0.380645 0.000000
0.000000 0.367742 0.000000
0.000000 0.354839 0.000000
0.000000 0.341935 0.000000
0.000000 0.329032 0.000000
0.000000 0.316129 0.000000
0.000000 0.303226 0.000000
0.000000 0.290323 0.000000
0.000000 0.277419 0.000000
0.000000 0.264516 0.000000
0.000000 0.251613 0.000000
0.000000 0.238710 0.000000
0.000000 0.225806 0.000000
0.000000 0.212903 0.000000
0.000000 0.187500 0.000000
0.000000 0.175000 0.000000
0.000000 0.162500 0.000000
0.000000 0.150000 0.000000
0.000000 0.137500 0.000000
0.000000 0.125000 0.000000
0.000000 0.112500 0.000000
0.000000 0.100000 0.000000
0.000000 0.087500 0.000000
0.000000 0.075000 0.000000
0.000000 0.062500 0.000000
0.000000 0.050000 0.000000
0.000000 0.037500 0.000000
0.000000 0.025000 0.000000
0.000000 0.012500 0.000000
0.309756 0.338537 0.000000
0.319512 0.347073 0.000000
0.329268 0.355610 0.000000
0.339024 0.364146 0.000000
0.348780 0.372683 0.000000
0.358537 0.381220 0.000000
0.368293 0.389756 0.000000
0.378049 0.398293 0.000000
0.387805 0.406829 0.000000
0.397561 0.415366 0.000000
0.407317 0.423902 0.000000
0.417073 0.432439 0.000000
0.426829 0.440976 0.000000
0.436585 0.449512 0.000000
0.446341 0.458049 0.000000
0.456098 0.466585 0.000000
0.465854 0.475122 0.000000
0.475610 0.483659 0.000000
0.485366 0.492195 0.000000
0.495122 0.500732 0.000000
0.504878 0.509268 0.000000
0.514634 0.517805 0.000000
0.524390 0.526341 0.000000
0.534146 0.534878 0.000000
0.543902 0.543415 0.000000
0.553659 0.551951 0.000000
0.563415 0.560488 0.000000
0.573171 0.569024 0.000000
0.582927 0.577561 0.000000
0.592683 0.586098 0.000000
0.602439 0.594634 0.000000
0.612195 0.603171 0.000000
0.621951 0.611707 0.000000
0.631707 0.620244 0.000000
0.641463 0.628780 0.000000
0.651220 0.637317 0.000000
0.660976 0.645854 0.000000
0.670732 0.654390 0.000000
0.680488 0.662927 0.000000
0.690244 0.671463 0.000000
0.011538 0.205000 0.000000
0.023077 0.210000 0.000000
0.034615 0.215000 0.000000
0.046154 0.220000 0.000000
0.057692 0.225000 0.000000
0.069231 0.230000 0.000000
0.080769 0.235000 0.000000
0.092308 0.240000 0.000000
0.103846 0.245000 0.000000
0.115385 0.250000 0.000000
0.126923 0.255000 0.000000
0.138462 0.260000 0.000000
0.150000 0.265000 0.000000
0.161538 0.270000 0.000000
0.173077 0.275000 0.000000
[...]
POINT_DATA 7607
SCALARS UX float 1
LOOKUP_TABLE default
0.002013
0.001412
0.024537
0.002404
-0.041657
-0.027877
-0.039988
0.011477
-0.000185
-0.000070
-0.000727
0.000496
0.004785
-0.000211
-0.000068
0.004852
0.000133
0.000148
-0.000075
0.000055
-0.000004
-0.000003
-0.000038
0.000062
-0.000045
0.000184
0.000031
-0.000338
-0.000009
-0.000039
-0.000173
-0.003411
0.000069
-0.000050
0.000002
-0.000166
0.000118
0.000110
0.001135
0.000043
0.000743
-0.000674
-0.000049
0.002343
0.000069
0.000356
-0.001640
-0.000018
-0.000069
0.000017
0.000037
-0.001689
-0.000074
-0.000652
-0.000016
0.000082
-0.000059
-0.000025
-0.000004
-0.000148
-0.000231
0.000067
-0.000066
0.000129
0.003234
0.000064
-0.004110
0.000131
0.001234
-0.000086
-0.000278
-0.000301
-0.003448
-0.000760
0.002975
0.001394
-0.003174
-0.000122
-0.000340
0.000727
0.000167
-0.000027
-0.000052
-0.006315
-0.001225
0.008121
0.003461
0.005470
0.004151
0.004606
0.004542
0.008514
0.017075
0.018526
0.015285
0.020096
0.012755
0.028180
0.014895
0.015801
0.025939
0.026409
0.026345
0.032332
0.027957
0.032777
0.036873
0.026405
0.034978
0.040900
0.033765
0.047164
0.042265
0.042829
0.044556
0.040260
0.049791
0.045600
0.053653
0.042624
0.049714
0.053008
0.047630
0.048089
0.056922
0.048454
0.053173
0.054739
0.045638
0.053887
0.054712
0.045600
0.054680
0.041136
0.044996
0.042016
0.047436
0.040846
0.045358
0.038902
0.037119
0.040009
0.037311
0.035869
0.035333
0.026237
0.029305
0.015157
0.017063
0.001605
0.017921
0.012076
0.011547
0.014779
0.010426
0.006136
0.007387
0.015613
0.002516
0.007003
0.011093
0.005667
0.005380
-0.000663
0.002050
0.000346
0.001495
-0.002818
-0.001755
-0.002917
-0.002162
-0.004649
-0.002547
-0.002397
-0.005540
-0.007397
-0.003201
-0.010253
-0.010442
-0.008569
-0.007890
-0.009336
-0.006904
-0.009377
-0.010588
-0.010560
-0.010950
-0.010445
-0.011957
-0.012190
-0.011646
-0.014781
-0.013187
-0.016328
-0.014570
-0.015650
-0.013718
-0.015083
-0.016224
-0.015281
-0.014800
-0.017351
-0.018891
-0.016221
-0.016022
-0.020836
-0.017882
-0.021043
-0.017641
-0.023554
-0.023800
-0.025681
-0.026544
-0.026887
-0.025685
-0.030424
-0.026799
-0.031218
-0.034194
-0.026925
-0.037137
-0.033441
-0.033879
-0.032554
-0.037567
-0.041133
-0.037133
-0.041549
-0.042956
-0.040222
-0.042327
-0.042875
-0.046581
-0.045774
-0.045985
-0.045934
-0.049135
-0.048778
-0.048777
-0.041693
-0.045208
-0.038647
-0.043910
-0.043965
-0.049008
-0.046370
-0.045268
-0.060595
-0.050696
-0.052552
-0.049637
-0.052330
-0.058600
-0.055923
-0.053912
-0.050409
-0.057354
-0.058135
-0.056949
-0.055365
-0.062940
-0.056803
-0.056436
-0.066638
-0.061686
-0.062656
-0.050648
-0.046829
-0.054463
-0.062210
-0.062231
-0.065809
-0.060759
-0.067033
-0.065454
-0.072900
-0.063207
-0.067959
-0.063542
-0.066531
-0.066559
-0.064997
-0.066902
-0.072688
-0.061477
-0.067478
-0.061219
-0.062481
-0.059524
-0.061886
-0.054121
-0.053030
-0.046451
-0.052902
-0.042550
-0.040668
-0.042822
-0.038392
-0.023881
-0.027213
-0.025235
-0.004121
-0.021090
-0.014775
-0.012761
-0.011283
-0.011046
-0.006973
-0.010362
-0.008633
-0.005681
-0.003070
-0.020886
-0.023452
-0.042122
-0.085255
-0.075789
-0.054924
-0.064852
-0.032680
-0.047428
-0.050743
-0.052270
-0.008430
0.041748
0.004132
-0.022784
0.018181
0.033968
-0.005236
-0.034555
-0.035792
-0.009064
-0.021401
-0.075436
0.018758
-0.000009
-0.027060
-0.012561
-0.005436
-0.004115
0.029422
0.075162
0.035576
0.016116
0.051692
0.056940
0.074960
-0.003456
0.006576
-0.038866
-0.008964
-0.029597
-0.044036
-0.025180
-0.040272
-0.039443
-0.050780
-0.046713
-0.030455
-0.045267
-0.020752
-0.042157
-0.028337
-0.045558
-0.035811
-0.031057
-0.063942
-0.035246
-0.034062
-0.040573
-0.054107
-0.039300
-0.042834
-0.052105
-0.040590
-0.039944
0.024702
0.029546
0.027898
0.045439
0.031362
0.027925
0.030610
0.009854
0.035670
0.019049
0.030714
0.016075
0.024357
0.032600
0.018526
0.020596
0.023618
0.030901
0.023423
0.028521
0.025791
0.031209
0.036527
0.013361
-0.002471
-0.008155
-0.009484
-0.007283
0.031862
0.025984
0.024501
-0.047251
-0.068077
-0.045018
-0.047514
-0.044936
-0.038505
-0.005683
0.003888
0.007157
-0.051398
-0.035589
-0.037719
-0.052495
0.019058
0.004533
0.013775
0.005855
-0.025129
-0.013500
-0.030708
-0.019002
0.001135
-0.003910
-0.035852
-0.039108
-0.076632
-0.059504
-0.028961
-0.019941
0.007236
0.001914
-0.002927
-0.002522
-0.037274
-0.036763
-0.043525
-0.046092
0.011674
0.014640
0.017803
0.019153
0.041553
0.035304
0.043480
0.000757
-0.005125
0.038199
0.020937
0.007615
0.028238
-0.014549
-0.010126
-0.005752
-0.024804
-0.045487
-0.005599
0.005190
0.012763
0.005836
-0.014763
-0.021573
-0.014173
-0.007245
-0.037792
-0.039373
-0.009820
0.006451
0.026150
-0.002368
-0.006494
-0.007322
-0.021201
-0.019356
-0.021940
-0.012894
-0.012405
-0.012256
-0.002569
0.015179
0.018834
0.002348
0.012870
0.002747
-0.005534
-0.010096
-0.021980
-0.009879
-0.007877
-0.011248
0.026093
0.042525
0.043795
-0.060649
-0.045888
-0.037937
0.004132
0.006177
-0.002222
0.008274
-0.018637
-0.000903
-0.036018
-0.001814
-0.010047
0.006698
0.002628
0.003238
0.030960
0.024802
-0.011804
-0.005880
-0.004475
0.009878
0.013277
0.008944
0.007929
0.006245
-0.001837
0.005492
0.018436
0.027451
0.040465
0.029032
-0.004340
0.005062
-0.011895
0.002376
-0.000503
-0.004788
-0.060247
-0.050981
-0.051657
-0.066414
-0.009161
-0.026492
-0.019414
-0.014554
0.002799
-0.005358
-0.005098
-0.003180
0.026139
-0.005100
-0.003137
-0.002269
0.000636
-0.067006
-0.053334
-0.066698
-0.006176
-0.004800
-0.000666
-0.053875
-0.040179
-0.040915
-0.007639
0.003378
0.000837
-0.004589
-0.055965
-0.053494
-0.042967
-0.039482
-0.034423
-0.041434
-0.051142
0.048705
0.040077
0.041777
0.044044
0.042812
0.033178
0.039289
0.018843
0.024559
0.019805
-0.018565
-0.012496
-0.005798
-0.014312
-0.012176
-0.010923
-0.004107
-0.009555
-0.005523
-0.002721
0.006004
0.018585
0.001086
-0.018230
-0.007669
-0.015857
-0.023485
-0.039313
-0.042936
-0.043551
-0.032587
0.025220
0.035940
0.022215
0.019816
0.021468
0.019285
0.030064
0.045766
0.043895
0.037885
0.013731
0.062089
-0.058601
-0.052543
-0.055477
0.011374
0.004317
0.006946
0.011025
0.036577
0.042582
0.044156
0.049305
0.031022
0.033357
0.018833
-0.015075
-0.014091
-0.056925
-0.044990
-0.036662
-0.023567
-0.036435
-0.028560
-0.035835
0.000003
-0.009893
0.005413
-0.039309
-0.026513
-0.017750
-0.001951
0.013378
-0.009397
0.038556
0.033998
0.047414
-0.003089
-0.007550
-0.008451
-0.009314
-0.011464
-0.040836
-0.046689
-0.003899
-0.009611
-0.000967
0.007303
0.003581
-0.000106
-0.009153
-0.000737
0.007063
0.010259
0.009252
-0.040565
-0.047334
-0.034001
-0.012864
-0.012086
0.044174
0.042501
0.006062
0.037709
0.021753
0.036384
0.010851
-0.004112
-0.000732
0.007540
-0.052136
-0.060448
-0.069392
-0.052829
-0.065790
-0.050562
-0.071771
-0.042256
0.025590
0.002864
0.018074
0.033722
-0.066580
-0.061259
-0.055954
-0.050809
0.025771
0.049659
0.045909
0.038110
0.027558
0.000227
0.003992
0.003440
0.024528
0.008271
0.004398
-0.004466
0.042775
0.000326
-0.054366
-0.067322
-0.047811
-0.007726
0.006255
-0.006904
-0.029180
-0.035725
-0.024560
-0.007980
-0.007520
0.004007
0.052818
0.019794
0.000802
0.021756
0.003475
0.001081
0.012685
-0.003659
-0.050376
-0.061356
-0.032999
0.011593
0.015585
0.002032
0.011421
0.009784
0.009362
-0.036647
-0.047636
-0.046869
0.014084
0.000687
-0.044159
-0.011134
-0.022434
0.039675
0.020103
-0.006146
0.015034
0.013846
0.016194
-0.047269
-0.067340
-0.051176
-0.066646
-0.072009
-0.051486
-0.013866
0.010820
-0.005127
-0.009370
0.051259
0.027823
0.035811
0.040274
0.002808
0.011889
0.021116
0.018910
0.020884
0.021374
-0.024347
-0.024380
-0.003697
0.006818
0.003270
0.005096
0.002650
-0.014184
0.002027
-0.006341
-0.068516
-0.043657
-0.008061
-0.017654
-0.052059
-0.063006
-0.078572
0.009487
0.003758
0.006792
-0.016141
-0.014176
-0.007385
0.004610
0.004927
0.002414
0.012178
0.012251
0.004835
-0.003366
-0.029674
-0.039717
-0.037711
0.049429
0.031418
-0.001570
-0.022700
-0.014089
0.004043
-0.009684
0.006201
-0.011096
-0.010610
-0.010748
0.011770
0.015524
0.017446
0.001669
-0.000586
-0.020979
-0.001555
-0.002468
-0.016225
-0.012380
-0.012587
0.014303
-0.056410
-0.032071
-0.054471
0.065368
0.018947
0.010882
-0.046038
-0.043564
0.038927
0.038124
-0.033546
-0.028642
-0.033915
-0.005715
0.006656
-0.003284
-0.013643
-0.000886
-0.001004
-0.011159
-0.032067
-0.030651
-0.050464
-0.053746
-0.027999
0.036760
0.044576
-0.058169
-0.054254
-0.054633
0.007445
0.005922
0.007469
0.004990
0.007269
0.005171
0.003696
0.006993
0.001559
-0.049398
-0.037595
-0.038956
-0.033879
-0.036297
-0.031357
-0.060611
-0.043884
-0.068074
-0.046556
0.000675
-0.002603
-0.001368
-0.001072
-0.010996
-0.006381
-0.003556
-0.050736
-0.051259
-0.050319
0.000504
0.016503
0.012182
0.004629
-0.058191
-0.056622
-0.052651
-0.045903
-0.047438
-0.054762
0.039185
0.055755
-0.064196
0.013002
-0.004115
-0.040365
0.022219
-0.013852
0.053122
-0.048824
-0.035577
-0.008682
-0.054816
-0.052033
0.014538
0.001179
-0.000829
-0.020500
-0.014513
-0.003130
-0.000089
-0.006523
0.035021
0.053515
0.043649
0.038648
0.048477
0.049407
-0.023840
-0.025274
-0.024062
-0.022080
0.013445
0.007351
0.014015
-0.018925
-0.002885
0.015723
0.007730
0.036317
0.031907
-0.056412
-0.050433
-0.047964
-0.045961
-0.003938
-0.028226
-0.018991
-0.013428
0.034323
0.044561
0.032193
0.043151
0.032674
-0.005317
0.000020
-0.001489
0.014269
-0.050756
-0.049697
-0.058695
-0.047407
-0.040546
-0.019149
-0.002406
-0.011100
-0.005171
-0.007917
0.005798
-0.002190
0.002228
0.001162
-0.003229
0.000050
0.001457
0.034690
0.025619
0.032809
0.013513
0.011485
0.003486
0.004124
-0.001019
0.007517
-0.051947
0.015961
0.022078
0.000733
-0.005713
-0.013077
-0.011617
-0.044841
-0.047960
-0.066811
-0.056962
-0.056514
-0.059769
-0.046195
-0.030906
-0.035914
-0.033151
-0.062689
0.067103
0.036426
0.020523
0.022098
0.019566
-0.007267
-0.007547
0.021592
-0.042910
-0.038557
-0.047130
-0.004731
-0.007270
-0.034504
-0.035866
-0.041115
-0.052824
-0.003398
-0.005744
-0.011261
-0.060659
-0.002006
-0.004048
-0.053033
-0.049626
0.022136
0.017542
0.021262
0.019145
0.002677
0.004858
-0.001248
-0.000366
-0.046812
-0.066352
-0.063730
-0.032543
-0.030199
-0.033051
-0.021076
-0.004189
-0.005413
-0.011131
-0.011502
0.039109
0.034997
0.033071
0.005184
0.028367
0.038661
0.001094
0.022785
0.007652
0.004474
-0.002352
-0.003967
-0.004368
-0.051401
-0.049168
-0.048876
-0.010526
-0.014726
-0.024518
-0.013161
0.048396
0.028893
-0.015191
-0.014782
-0.046687
-0.045567
-0.043161
-0.036432
-0.052255
-0.040915
-0.050082
-0.044416
-0.044525
0.007667
-0.024200
-0.014142
-0.003778
-0.010876
0.044201
-0.006299
0.042394
0.041199
-0.011209
-0.004850
-0.002388
0.008684
0.010455
0.008940
-0.006295
-0.043822
-0.058195
-0.006767
-0.000443
-0.003785
-0.035345
-0.020493
-0.017563
-0.012265
-0.009870
0.005088
0.005135
0.015431
-0.008372
0.000536
-0.053713
-0.006923
0.007521
-0.021241
-0.037938
-0.035801
-0.063118
0.015150
0.000663
-0.006843
-0.057967
0.015039
0.020960
-0.014535
-0.079954
-0.059272
-0.071953
0.018737
-0.021715
-0.002887
-0.000422
-0.006788
-0.018195
-0.004333
0.003454
0.007186
-0.009797
-0.001592
-0.005351
0.009492
0.003644
0.022711
0.028552
0.008187
0.018721
0.029458
0.004758
0.001147
-0.004720
0.004214
-0.030575
0.001648
0.003331
0.004997
-0.018485
-0.003164
-0.047715
-0.034762
-0.042938
-0.048634
-0.045455
-0.046084
-0.043480
-0.007439
-0.003897
-0.003685
0.005186
0.006912
0.027990
0.037234
0.037033
0.028050
-0.051776
0.010306
-0.005500
0.004553
-0.003359
-0.038916
0.026133
0.017418
0.029379
0.000006
-0.052347
0.002165
0.005778
0.002371
0.009048
0.004170
0.014194
0.000142
0.000249
0.002338
-0.002062
-0.001805
-0.002394
-0.001705
0.048312
0.052901
0.049525
0.046942
-0.042310
-0.050856
-0.036022
-0.013786
-0.013204
0.014778
0.011151
0.019430
0.002590
0.007428
-0.006009
0.022469
-0.007392
-0.049737
0.031413
0.025683
0.042249
-0.065209
-0.047393
-0.055679
-0.041301
-0.046685
-0.002158
0.039906
0.042158
0.033584
0.035779
0.030571
-0.006706
-0.007704
-0.026848
0.005109
0.005488
-0.032305
0.015045
0.016579
-0.016570
-0.012106
-0.015455
-0.040192
-0.043302
-0.007670
-0.027561
-0.027432
-0.021065
-0.029220
0.047915
0.041605
0.053056
0.058212
-0.055062
-0.007868
-0.049877
-0.046829
-0.054926
0.012640
0.023495
0.025693
0.037988
0.035943
0.042810
-0.007859
-0.009126
-0.008223
-0.053342
0.017503
-0.057949
-0.044147
-0.034342
-0.058571
-0.055777
-0.064697
-0.041675
-0.067510
0.003041
-0.008655
-0.055290
0.033304
-0.009558
-0.004596
-0.007726
-0.017550
-0.012747
-0.011870
-0.017121
-0.008245
0.007087
0.006565
0.010149
0.018244
-0.011663
-0.005661
-0.006625
0.008903
0.001222
0.005043
0.036947
0.031340
0.037599
-0.002655
-0.006634
-0.038839
-0.036796
-0.039799
-0.032898
-0.061619
-0.068128
-0.067913
-0.035168
-0.042354
-0.029062
0.014058
0.018802
0.010619
-0.047214
-0.041582
-0.049119
-0.017324
-0.007000
-0.028397
-0.009060
0.002484
0.010027
-0.007713
0.046335
0.044029
0.038003
0.041725
0.001907
0.001341
-0.006294
-0.002344
-0.006052
0.016493
-0.000223
-0.002131
-0.039811
0.005008
-0.008713
-0.012600
-0.000307
-0.028558
-0.022616
-0.044638
-0.036471
-0.080105
-0.036334
-0.048711
-0.051270
-0.001974
0.001004
0.008610
-0.060458
-0.058294
-0.052037
-0.058694
0.000206
0.033179
0.025365
-0.007141
0.004141
0.023598
-0.005171
0.045191
0.047126
-0.005347
-0.017855
-0.030400
-0.039551
-0.005194
-0.010825
-0.005788
-0.011924
-0.009320
-0.013943
0.032152
0.078796
0.041621
-0.038555
-0.042298
-0.049369
-0.053563
-0.012029
-0.037546
-0.045052
-0.048456
-0.060549
-0.006664
-0.037238
-0.038520
-0.049573
-0.046674
0.002716
0.009967
0.009084
-0.007748
-0.008311
-0.005438
0.005857
0.009477
-0.002355
-0.007041
-0.008174
-0.005444
-0.006333
0.004060
0.008029
-0.038700
-0.047578
-0.059807
-0.038824
0.038919
0.041884
0.042987
0.035383
0.004629
0.000701
-0.021948
-0.019394
-0.019266
0.004027
0.000251
-0.000960
-0.055803
-0.055574
-0.009948
-0.005344
0.000599
0.015620
-0.004085
-0.007783
0.004782
-0.007461
-0.005673
-0.003407
-0.006169
-0.043332
-0.045478
-0.057287
0.000610
0.001783
-0.029982
-0.029047
-0.029545
-0.052192
-0.054160
-0.046664
-0.043949
0.003892
0.002292
-0.005692
-0.030921
-0.035893
-0.049515
0.030460
0.030518
0.030700
0.035534
-0.025565
-0.046168
-0.045987
-0.045620
0.040729
0.038164
0.046071
-0.045717
0.039361
-0.023447
0.003598
0.020779
0.019875
0.017864
0.037730
-0.039621
-0.043877
-0.039561
0.000596
0.001383
0.008434
0.044799
0.051039
0.010301
-0.029921
-0.020163
0.039076
0.038757
0.048760
-0.003605
-0.028090
-0.022961
-0.045782
0.030530
-0.006022
0.034810
0.034241
0.020149
-0.003052
-0.006284
-0.003154
-0.003431
-0.006978
-0.008424
0.010973
0.034341
-0.059686
-0.058944
-0.052341
-0.041963
-0.006319
-0.056934
-0.053756
-0.054633
-0.051063
-0.051319
0.034880
0.009253
-0.002266
0.004338
0.006950
-0.004882
0.004396
-0.002680
0.006942
-0.000288
-0.003149
-0.001742
-0.031741
-0.032669
-0.041021
0.000167
-0.041719
-0.047968
-0.001704
0.031397
0.028296
0.047955
-0.057802
0.051520
0.035030
0.028457
-0.042583
-0.040723
-0.041480
0.005628
0.001211
0.001762
-0.068703
-0.002083
-0.042691
-0.003265
-0.016659
-0.017963
-0.022435
-0.066961
-0.065200
-0.062763
-0.049394
-0.047955
-0.005721
0.027393
-0.000187
-0.049526
0.034561
0.038710
0.026468
-0.017423
-0.015311
-0.009108
-0.010597
-0.016114
-0.011178
-0.011527
0.035526
-0.001307
-0.043497
-0.039677
0.009905
-0.004579
-0.002049
-0.046603
-0.045182
-0.042984
0.009620
0.009987
0.006296
-0.005861
-0.005953
-0.011260
-0.008355
0.005858
-0.001859
-0.003218
-0.001007
0.013128
0.003193
-0.003452
0.000568
0.003044
-0.001678
-0.053263
-0.054787
-0.054400
-0.047629
0.001009
-0.000528
0.001414
-0.009966
-0.011966
-0.003859
-0.004464
-0.016126
-0.024621
-0.037269
-0.064048
-0.060468
0.045268
-0.012528
-0.015279
0.037957
0.038766
0.017454
-0.067027
0.044438
-0.009340
-0.013802
-0.012053
-0.007696
-0.032805
-0.041893
-0.032093
-0.025934
-0.029895
-0.005702
-0.033665
-0.043054
-0.010238
-0.017722
-0.002850
-0.029648
-0.004086
-0.056276
-0.005425
0.050830
0.045240
0.053620
0.005753
-0.007984
-0.007549
-0.036048
-0.003653
-0.001568
0.000696
0.006829
-0.006824
0.006159
0.005033
-0.016844
-0.011211
-0.002959
-0.004665
0.031098
0.036634
0.054803
-0.040899
-0.071283
-0.061142
0.057714
-0.057143
-0.056654
-0.065099
-0.033276
-0.053933
-0.076968
-0.063148
-0.077692
-0.012534
-0.009333
-0.009661
0.039892
-0.005297
-0.000975
-0.005623
0.001713
-0.009264
-0.000693
-0.016519
-0.016600
-0.021024
0.010178
0.000892
-0.046053
-0.061814
-0.057823
-0.041523
-0.045797
-0.046711
0.001408
0.010507
-0.004462
-0.049190
-0.047081
-0.045968
0.029648
0.021307
-0.009981
-0.004352
0.002357
-0.051360
-0.048658
-0.000639
-0.001258
-0.003989
-0.016887
-0.007459
-0.003363
-0.006394
-0.060054
0.007397
0.014459
-0.053608
0.023330
0.028345
0.017720
0.018989
-0.055119
-0.075228
-0.038457
-0.002421
-0.009707
-0.006033
-0.000917
0.002820
0.012645
0.021860
0.004200
0.008304
0.020124
0.008785
-0.011348
-0.003549
-0.008302
-0.007818
-0.004669
-0.000282
-0.045597
-0.003000
-0.002266
-0.003519
-0.005230
-0.005098
0.039417
0.046989
0.030364
0.037439
0.037922
0.039846
0.030927
-0.009046
0.004358
-0.002908
0.028717
0.000412
-0.008619
-0.012155
-0.014928
-0.005901
-0.011784
-0.018890
-0.020531
-0.022755
0.040102
-0.012172
-0.028771
-0.017273
-0.028148
0.027709
0.018761
0.013767
-0.005627
0.001805
0.034185
0.060661
0.037895
0.021189
0.022983
0.011928
0.036524
0.019264
0.020325
0.044046
0.045125
-0.012456
-0.003988
0.036407
0.016257
0.062538
0.046435
0.021757
0.051697
0.052335
0.059193
-0.020842
-0.001602
-0.006490
-0.000993
0.004264
-0.011652
0.018808
0.029729
0.032904
0.020781
0.033479
0.045849
0.052721
0.046882
-0.006574
-0.006511
0.000669
-0.006337
-0.009952
0.001906
-0.010316
0.004007
0.000199
-0.008088
0.000674
-0.001984
0.051246
0.044338
0.054369
0.035287
0.022217
0.019128
0.000392
-0.007972
-0.043062
-0.043095
-0.012278
-0.022455
-0.002274
-0.008823
-0.048903
-0.045277
-0.042927
-0.051793
-0.010507
-0.014493
-0.012642
-0.008096
0.002561
0.004711
-0.008120
-0.003335
-0.007563
-0.000687
-0.001640
0.004520
0.042327
0.044046
0.045489
0.046650
0.026920
0.004796
0.003854
-0.003345
0.055745
0.048540
0.048785
-0.012128
-0.010858
-0.006704
-0.016890
-0.029987
-0.025876
-0.022436
-0.022590
-0.034553
-0.030045
-0.006747
-0.004508
-0.009010
0.000873
0.053167
-0.006723
0.002947
-0.002634
-0.008873
0.022541
-0.042080
-0.000206
-0.002237
-0.000061
0.001686
-0.000363
-0.001932
0.002131
-0.005999
-0.017539
-0.009840
-0.012638
0.000513
-0.042161
-0.011858
-0.006677
-0.010093
0.003310
0.002527
-0.005738
-0.008237
0.001292
-0.007265
0.001874
-0.007795
-0.038765
-0.020957
-0.034747
-0.038947
-0.016829
-0.007341
-0.004253
-0.012502
-0.011092
-0.011537
-0.002021
-0.007044
-0.009539
-0.007316
-0.009322
-0.005399
-0.015419
-0.038292
-0.037738
-0.030238
-0.046422
-0.039780
-0.038361
-0.050666
-0.013419
-0.008903
-0.009491
-0.008865
-0.000516
0.059463
0.032317
0.040944
0.043195
0.002357
0.004940
-0.000063
-0.005063
-0.003197
-0.003268
-0.009017
0.011260
-0.022345
-0.033341
-0.034087
0.007751
0.004966
-0.007272
0.007169
-0.008289
-0.004336
-0.015000
-0.007066
-0.004716
-0.055967
-0.048657
0.028496
0.015431
0.037673
0.033541
-0.005853
-0.006300
-0.005614
-0.008705
-0.043709
-0.004707
0.000027
-0.006829
0.031452
0.027365
0.028051
-0.029373
-0.013360
-0.023751
-0.036056
-0.010823
-0.004171
0.003295
-0.003699
-0.009478
-0.007040
-0.007552
-0.010158
-0.023146
0.000287
0.025876
0.028722
0.033755
0.026933
0.030024
-0.002090
0.001286
0.000117
-0.005481
-0.019929
-0.014352
-0.010556
-0.009580
-0.014014
-0.006614
-0.003510
-0.001364
0.002342
-0.009371
-0.001614
-0.004847
-0.002707
-0.050037
0.030289
0.031837
0.034872
-0.006345
-0.006186
-0.047542
-0.045639
-0.024039
-0.027192
-0.061816
-0.064369
-0.063868
-0.061188
0.037151
0.042192
-0.011147
-0.003207
-0.007655
0.025176
-0.014762
-0.005289
0.028913
0.029746
-0.026401
-0.026021
-0.002914
-0.054780
-0.051527
-0.057257
-0.061697
-0.042277
-0.074859
-0.060036
-0.040618
0.000468
-0.009088
-0.008778
-0.029734
0.000267
-0.000817
-0.029399
-0.079741
-0.000196
-0.008922
0.003322
0.000809
-0.006052
-0.001453
-0.010460
-0.017295
-0.008814