# vtk DataFile Version 2.0
Test
ASCII
DATASET POLYDATA
POINTS 7607 float
0.000000 0.000000 0.000000
1.000000 0.000000 0.000000
1.000000 0.800000 0.000000
1.000000 1.000000 0.000000
0.000000 1.000000 0.000000
0.000000 0.200000 0.000000
0.300000 0.330000 0.000000
0.700000 0.680000 0.000000
0.012987 0.000000 0.000000
0.025974 0.000000 0.000000
0.038961 0.000000 0.000000
0.051948 0.000000 0.000000
0.064935 0.000000 0.000000
0.077922 0.000000 0.000000
0.090909 0.000000 0.000000
0.103896 0.000000 0.000000
0.116883 0.000000 0.000000
0.129870 0.000000 0.000000
0.142857 0.000000 0.000000
0.155844 0.000000 0.000000
0.168831 0.000000 0.000000
0.181818 0.000000 0.000000
0.194805 0.000000 0.000000
0.207792 0.000000 0.000000
0.220779 0.000000 0.000000
0.233766 0.000000 0.000000
0.246753 0.000000 0.000000
0.259740 0.000000 0.000000
0.272727 0.000000 0.000000
0.285714 0.000000 0.000000
0.298701 0.000000 0.000000
0.311688 0.000000 0.000000
0.324675 0.000000 0.000000
0.337662 0.000000 0.000000
0.350649 0.000000 0.000000
0.363636 0.000000 0.000000
0.376623 0.000000 0.000000
0.389610 0.000000 0.000000
0.402597 0.000000 0.000000
0.415584 0.000000 0.000000
0.428571 0.000000 0.000000
0.441558 0.000000 0.000000
0.454545 0.000000 0.000000
0.467532 0.000000 0.000000
0.480519 0.000000 0.000000
0.493506 0.000000 0.000000
0.506494 0.000000 0.000000
0.519481 0.000000 0.000000
0.532468 0.000000 0.000000
0.545455 0.000000 0.000000
0.558442 0.000000 0.000000
0.571429 0.000000 0.000000
0.584416 0.000000 0.000000
0.597403 0.000000 0.000000
0.610390 0.000000 0.000000
0.623377 0.000000 0.000000
0.636364 0.000000 0.000000
0.649351 0.000000 0.000000
0.662338 0.000000 0.000000
0.675325 0.000000 0.000000
0.688312 0.000000 0.000000
0.701299 0.000000 0.000000
0.714286 0.000000 0.000000
0.727273 0.000000 0.000000
0.740260 0.000000 0.000000
0.753247 0.000000 0.000000
0.766234 0.000000 0.000000
0.779221 0.000000 0.000000
0.792208 0.000000 0.000000
0.805195 0.000000 0.000000
0.818182 0.000000 0.000000
0.831169 0.000000 0.000000
0.844156 0.000000 0.000000
0.857143 0.000000 0.000000
0.870130 0.000000 0.000000
0.883117 0.000000 0.000000
0.896104 0.000000 0.000000
0.909091 0.000000 0.000000
0.922078 0.000000 0.000000
0.935065 0.000000 0.000000
0.948052 0.000000 0.000000
0.961039 0.000000 0.000000
0.974026 0.000000 0.000000
0.987013 0.000000 0.000000
1.000000 0.012903 0.000000
1.000000 0.025806 0.000000
1.000000 0.038710 0.000000
1.000000 0.051613 0.000000
1.000000 0.064516 0.000000
1.000000 0.077419 0.000000
1.000000 0.090323 0.000000
1.000000 0.103226 0.000000
1.000000 0.116129 0.000000
1.000000 0.129032 0.000000
1.000000 0.141935 0.000000
1.000000 0.154839 0.000000
1.000000 0.167742 0.000000
1.000000 0.180645 0.000000
1.000000 0.193548 0.000000
1.000000 0.206452 0.000000
1.000000 0.219355 0.000000
1.000000 0.232258 0.000000
1.000000 0.245161 0.000000
1.000000 0.258065 0.000000
1.000000 0.270968 0.000000
1.000000 0.283871 0.000000
1.000000 0.296774 0.000000
1.000000 0.309677 0.000000
1.000000 0.322581 0.000000
1.000000 0.335484 0.000000
1.000000 0.348387 0.000000
1.000000 0.361290 0.000000
1.000000 0.374194 0.000000
1.000000 0.387097 0.000000
1.000000 0.400000 0.000000
1.000000 0.412903 0.000000
1.000000 0.425806 0.000000
1.000000 0.438710 0.000000
1.000000 0.451613 0.000000
1.000000 0.464516 0.000000
1.000000 0.477419 0.000000
1.000000 0.490323 0.000000
1.000000 0.503226 0.000000
1.000000 0.516129 0.000000
1.000000 0.529032 0.000000
1.000000 0.541935 0.000000
1.000000 0.554839 0.000000
1.000000 0.567742 0.000000
1.000000 0.580645 0.000000
1.000000 0.593548 0.000000
1.000000 0.606452 0.000000
1.000000 0.619355 0.000000
1.000000 0.632258 0.000000
1.000000 0.645161 0.000000
1.000000 0.658065 0.000000
1.000000 0.670968 0.000000
1.000000 0.683871 0.000000
1.000000 0.696774 0.000000
1.000000 0.709677 0.000000
1.000000 0.722581 0.000000
1.000000 0.735484 0.000000
1.000000 0.748387 0.000000
1.000000 0.761290 0.000000
1.000000 0.774194 0.000000
1.000000 0.787097 0.000000
1.000000 0.812500 0.000000
1.000000 0.825000 0.000000
1.000000 0.837500 0.000000
1.000000 0.850000 0.000000
1.000000 0.862500 0.000000
1.000000 0.875000 0.000000
1.000000 0.887500 0.000000
1.000000 0.900000 0.000000
1.000000 0.912500 0.000000
1.000000 0.925000 0.000000
1.000000 0.937500 0.000000
1.000000 0.950000 0.000000
1.000000 0.962500 0.000000
1.000000 0.975000 0.000000
1.000000 0.987500 0.000000
0.987013 1.000000 0.000000
0.974026 1.000000 0.000000
0.961039 1.000000 0.000000
0.948052 1.000000 0.000000
0.935065 1.000000 0.000000
0.922078 1.000000 0.000000
0.909091 1.000000 0.000000
0.896104 1.000000 0.000000
0.883117 1.000000 0.000000
0.870130 1.000000 0.000000
0.857143 1.000000 0.000000
0.844156 1.000000 0.000000
0.831169 1.000000 0.000000
0.818182 1.000000 0.000000
0.805195 1.000000 0.000000
0.792208 1.000000 0.000000
0.779221 1.000000 0.000000
0.766234 1.000000 0.000000
0.753247 1.000000 0.000000
0.740260 1.000000 0.000000
0.727273 1.000000 0.000000
0.714286 1.000000 0.000000
0.701299 1.000000 0.000000
0.688312 1.000000 0.000000
0.675325 1.000000 0.000000
0.662338 1.000000 0.000000
0.649351 1.000000 0.000000
0.636364 1.000000 0.000000
0.623377 1.000000 0.000000
0.610390 1.000000 0.000000
0.597403 1.000000 0.000000
0.584416 1.000000 0.000000
0.571429 1.000000 0.000000
0.558442 1.000000 0.000000
0.545455 1.000000 0.000000
0.532468 1.000000 0.000000
0.519481 1.000000 0.000000
0.506494 1.000000 0.000000
0.493506 1.000000 0.000000
0.480519 1.000000 0.000000
0.467532 1.000000 0.000000
0.454545 1.000000 0.000000
0.441558 1.000000 0.000000
0.428571 1.000000 0.000000
0.415584 1.000000 0.000000
0.402597 1.000000 0.000000
0.389610 1.000000 0.000000
0.376623 1.000000 0.000000
0.363636 1.000000 0.000000
0.350649 1.000000 0.000000
0.337662 1.000000 0.000000
0.324675 1.000000 0.000000
0.311688 1.000000 0.000000
0.298701 1.000000 0.000000
0.285714 1.000000 0.000000
0.272727 1.000000 0.000000
0.259740 1.000000 0.000000
0.246753 1.000000 0.000000
0.233766 1.000000 0.000000
0.220779 1.000000 0.000000
0.207792 1.000000 0.000000
0.194805 1.000000 0.000000
0.181818 1.000000 0.000000
0.168831 1.000000 0.000000
0.155844 1.000000 0.000000
0.142857 1.000000 0.000000
0.129870 1.000000 0.000000
0.116883 1.000000 0.000000
0.103896 1.000000 0.000000
0.090909 1.000000 0.000000
0.077922 1.000000 0.000000
0.064935 1.000000 0.000000
0.051948 1.000000 0.000000
0.038961 1.000000 0.000000
0.025974 1.000000 0.000000
0.012987 1.000000 0.000000
0.000000 0.987097 0.000000
0.000000 0.974194 0.000000
0.000000 0.961290 0.000000
0.000000 0.948387 0.000000
0.000000 0.935484 0.000000
0.000000 0.922581 0.000000
0.000000 0.909677 0.000000
0.000000 0.896774 0.000000
0.000000 0.883871 0.000000
0.000000 0.870968 0.000000
0.000000 0.858065 0.000000
0.000000 0.845161 0.000000
0.000000 0.832258 0.000000
0.000000 0.819355 0.000000
0.000000 0.806452 0.000000
0.000000 0.793548 0.000000
0.000000 0.780645 0.000000
0.000000 0.767742 0.000000
0.000000 0.754839 0.000000
0.000000 0.741935 0.000000
0.000000 0.729032 0.000000
0.000000 0.716129 0.000000
0.000000 0.703226 0.000000
0.000000 0.690323 0.000000
0.000000 0.677419 0.000000
0.000000 0.664516 0.000000
0.000000 0.651613 0.000000
0.000000 0.638710 0.000000
0.000000 0.625806 0.000000
0.000000 0.612903 0.000000
0.000000 0.600000 0.000000
0.000000 0.587097 0.000000
0.000000 0.574194 0.000000
0.000000 0.561290 0.000000
0.000000 0.548387 0.000000
0.000000 0.535484 0.000000
0.000000 0.522581 0.000000
0.000000 0.509677 0.000000
0.000000 0.496774 0.000000
0.000000 0.483871 0.000000
0.000000 0.470968 0.000000
0.000000 0.458065 0.000000
0.000000 0.445161 0.000000
0.000000 0.432258 0.000000
0.000000 0.419355 0.000000
0.000000 0.406452 0.000000
0.000000 0.393548 0.000000
0.000000 0.380645 0.000000
0.000000 0.367742 0.000000
0.000000 0.354839 0.000000
0.000000 0.341935 0.000000
0.000000 0.329032 0.000000
0.000000 0.316129 0.000000
0.000000 0.303226 0.000000
0.000000 0.290323 0.000000
0.000000 0.277419 0.000000
0.000000 0.264516 0.000000
0.000000 0.251613 0.000000
0.000000 0.238710 0.000000
0.000000 0.225806 0.000000
0.000000 0.212903 0.000000
0.000000 0.187500 0.000000
0.000000 0.175000 0.000000
0.000000 0.162500 0.000000
0.000000 0.150000 0.000000
0.000000 0.137500 0.000000
0.000000 0.125000 0.000000
0.000000 0.112500 0.000000
0.000000 0.100000 0.000000
0.000000 0.087500 0.000000
0.000000 0.075000 0.000000
0.000000 0.062500 0.000000
0.000000 0.050000 0.000000
0.000000 0.037500 0.000000
0.000000 0.025000 0.000000
0.000000 0.012500 0.000000
0.309756 0.338537 0.000000
0.319512 0.347073 0.000000
0.329268 0.355610 0.000000
0.339024 0.364146 0.000000
0.348780 0.372683 0.000000
0.358537 0.381220 0.000000
0.368293 0.389756 0.000000
0.378049 0.398293 0.000000
0.387805 0.406829 0.000000
0.397561 0.415366 0.000000
0.407317 0.423902 0.000000
0.417073 0.432439 0.000000
0.426829 0.440976 0.000000
0.436585 0.449512 0.000000
0.446341 0.458049 0.000000
0.456098 0.466585 0.000000
0.465854 0.475122 0.000000
0.475610 0.483659 0.000000
0.485366 0.492195 0.000000
0.495122 0.500732 0.000000
0.504878 0.509268 0.000000
0.514634 0.517805 0.000000
0.524390 0.526341 0.000000
0.534146 0.534878 0.000000
0.543902 0.543415 0.000000
0.553659 0.551951 0.000000
0.563415 0.560488 0.000000
0.573171 0.569024 0.000000
0.582927 0.577561 0.000000
0.592683 0.586098 0.000000
0.602439 0.594634 0.000000
0.612195 0.603171 0.000000
0.621951 0.611707 0.000000
0.631707 0.620244 0.000000
0.641463 0.628780 0.000000
0.651220 0.637317 0.000000
0.660976 0.645854 0.000000
0.670732 0.654390 0.000000
0.680488 0.662927 0.000000
0.690244 0.671463 0.000000
0.011538 0.205000 0.000000
0.023077 0.210000 0.000000
0.034615 0.215000 0.000000
0.046154 0.220000 0.000000
0.057692 0.225000 0.000000
0.069231 0.230000 0.000000
0.080769 0.235000 0.000000
0.092308 0.240000 0.000000
0.103846 0.245000 0.000000
0.115385 0.250000 0.000000
0.126923 0.255000 0.000000
0.138462 0.260000 0.000000
0.150000 0.265000 0.000000
0.161538 0.270000 0.000000
0.173077 0.275000 0.000000
[...]
POINT_DATA 7607
SCALARS UX float 1
LOOKUP_TABLE default
0.007236
0.001914
0.231383
-0.507449
-0.609125
-0.213970
-0.339067
-0.367300
-0.002828
0.000156
0.001569
0.001577
0.012899
0.000352
-0.000255
0.011922
0.000357
0.001022
-0.000355
0.000064
0.000253
-0.000112
-0.000212
0.000207
-0.000156
0.000340
0.000139
-0.001673
-0.000248
-0.000226
-0.000953
-0.010920
0.000310
-0.000273
-0.000192
-0.000531
0.000465
0.000371
0.002684
0.000051
0.000604
-0.002090
0.000136
0.004402
0.000223
-0.000548
-0.002892
-0.000016
-0.000466
0.000093
0.000050
-0.004652
-0.000295
-0.001581
-0.000140
-0.000964
0.000202
-0.000061
0.000079
-0.001456
-0.001990
0.000649
-0.000357
-0.001093
0.003547
0.001196
-0.005525
0.000187
0.001597
0.000892
-0.001320
-0.000369
-0.005226
0.000489
0.005845
0.003406
-0.006852
0.000132
-0.001002
0.002560
0.000045
0.000580
-0.000209
-0.008832
0.000017
0.012961
0.009153
0.022355
0.006144
0.018124
0.010322
0.026123
0.031706
0.042033
0.037264
0.053535
0.032338
0.055882
0.035594
0.033034
0.049092
0.054036
0.050199
0.063061
0.054033
0.066953
0.073400
0.055108
0.073358
0.082284
0.063203
0.093334
0.076609
0.079031
0.087618
0.071272
0.105220
0.077669
0.103683
0.084399
0.097630
0.118167
0.086846
0.102847
0.124490
0.103543
0.131290
0.120454
0.129735
0.137519
0.128807
0.136895
0.148849
0.120867
0.133641
0.139296
0.133304
0.145230
0.157428
0.142002
0.145264
0.085200
0.137146
0.236837
0.123297
-0.167420
0.189446
-0.088444
0.016426
-0.444598
-0.239206
-0.470554
-0.363533
-0.530300
-0.408667
-0.509161
-0.448100
-0.475420
-0.492310
-0.475169
-0.472117
-0.488854
-0.490909
-0.507914
-0.496732
-0.500479
-0.494646
-0.501026
-0.502613
-0.505980
-0.502916
-0.509050
-0.504235
-0.503204
-0.512863
-0.504780
-0.515446
-0.517226
-0.511259
-0.518312
-0.516188
-0.516670
-0.520787
-0.520218
-0.525259
-0.518090
-0.530131
-0.524718
-0.526736
-0.531777
-0.526625
-0.536629
-0.536047
-0.536852
-0.542763
-0.538302
-0.537767
-0.543450
-0.540506
-0.542604
-0.545628
-0.543956
-0.556557
-0.540340
-0.548057
-0.560333
-0.547214
-0.557136
-0.554069
-0.563660
-0.566630
-0.571541
-0.573513
-0.575431
-0.574017
-0.582515
-0.572479
-0.588957
-0.593879
-0.577158
-0.600776
-0.590757
-0.593775
-0.587173
-0.599660
-0.609909
-0.601281
-0.607922
-0.610882
-0.606425
-0.607087
-0.611709
-0.612930
-0.616296
-0.614008
-0.618422
-0.619817
-0.621516
-0.619597
-0.611343
-0.612926
-0.602910
-0.613134
-0.612055
-0.619082
-0.615638
-0.614250
-0.638118
-0.621071
-0.625527
-0.620916
-0.623097
-0.632809
-0.628264
-0.626978
-0.616132
-0.633261
-0.634280
-0.625871
-0.630660
-0.638196
-0.623571
-0.631051
-0.643473
-0.636590
-0.635949
-0.611627
-0.588130
-0.622534
-0.637867
-0.640260
-0.653783
-0.638921
-0.655868
-0.649821
-0.668230
-0.649598
-0.660117
-0.651577
-0.660730
-0.662681
-0.657477
-0.668919
-0.671742
-0.667048
-0.673486
-0.671564
-0.670641
-0.664607
-0.663221
-0.650111
-0.635287
-0.612164
-0.667696
-0.562149
-0.622003
-0.686787
-0.393800
-0.153704
-0.336178
-0.131811
-0.026648
-0.069387
-0.052038
-0.034788
-0.025066
-0.024337
-0.020592
-0.025082
-0.013923
-0.006684
-0.008452
-0.002834
-0.407149
-0.465929
-0.802590
-1.077805
-0.816910
-0.525948
-0.354820
-0.538736
-0.563733
-0.673621
-0.273856
0.144899
0.132587
0.321678
-0.014290
0.208564
-0.321404
-0.297993
-0.453309
-0.239687
-0.457314
-0.778425
-0.600017
-0.505744
-0.301485
-0.273177
-0.284495
0.654612
0.404611
0.588318
-0.040884
-0.155941
-0.049896
0.213690
-0.267827
-0.707931
-0.424822
-0.527840
-0.385132
-0.400611
-0.713551
-0.242083
-0.544688
-0.485864
-0.506353
-0.642281
-0.584850
-0.576487
-0.235589
-0.353336
-0.318243
-0.642868
-0.631700
-0.248314
-0.852202
-0.617052
-0.257510
-0.309503
-0.218944
-0.284784
-0.217495
-0.178980
-0.166942
-0.159767
0.082214
-0.030298
-0.002757
0.134804
-0.186419
0.201233
-0.022128
-0.093228
-0.025329
-0.305088
0.022308
-0.024370
-0.123255
0.195642
-0.167985
0.076669
-0.170703
-0.163573
0.089953
-0.128964
-0.152882
0.132628
0.109269
-0.022682
-0.518524
-0.529401
-0.525248
-0.529793
0.035411
0.023156
0.032770
-0.411350
-0.621930
0.146406
-0.579035
-0.592632
-0.578075
-0.004518
0.010768
0.015538
-0.693962
-0.597192
-0.603271
-0.626606
0.037838
0.008875
0.008966
0.015880
0.055761
-0.116413
-0.258620
-0.132298
-0.001196
-0.010491
-0.683506
-0.537623
-0.678333
-0.554310
-0.072280
-0.137668
0.010417
0.005957
-0.000279
0.000213
-0.599654
-0.601297
-0.609824
-0.616303
-0.415064
-0.105446
-0.430613
-0.296812
0.105910
0.073707
0.077026
-0.463900
-0.506616
0.084546
0.039201
0.024656
0.047014
-0.536359
-0.524549
-0.515048
0.069501
-0.957345
-0.519604
-0.530100
-0.440402
-0.447968
-0.029244
-0.099317
-0.044336
-0.516707
-0.601186
-0.604256
-0.016258
0.015967
0.028007
-0.004141
-0.013906
-0.022452
-0.556206
-0.557794
-0.556487
-0.026370
-0.530209
-0.532297
-0.512611
0.032290
0.034843
0.000404
0.045812
0.001015
-0.010790
-0.018272
-0.118060
-0.015025
-0.029566
-0.022801
0.064549
0.098219
0.135286
-0.784739
-0.297923
-0.231555
-0.455611
-0.294589
-0.600002
-0.367538
-0.552218
-0.524382
-0.595162
-0.502658
-0.021155
0.008139
0.008793
0.010348
0.048216
0.047110
-0.525931
-0.517797
-0.513576
0.009057
0.030248
0.029842
-0.491302
-0.504021
-0.446759
-0.469355
0.030911
0.076682
0.102624
0.082783
-0.005095
-0.534491
-0.035961
0.008973
0.001288
-0.022927
-0.542497
-0.528552
-0.565755
-0.685206
-0.531245
-0.562848
-0.552232
-0.536895
-0.496311
-0.505277
-0.513378
-0.506990
-0.319955
-0.009583
-0.008476
-0.001564
-0.000024
-0.654182
-0.632719
-0.657525
-0.012574
-0.010323
-0.003059
-0.626062
-0.605150
-0.606372
-0.015232
-0.478502
-0.480858
-0.524162
-0.599847
-0.609741
-0.559156
-0.600246
-0.597456
-0.602799
-0.578427
0.076321
0.071484
0.093377
0.095933
0.087144
0.039688
0.060897
0.031346
0.040794
0.026950
-0.546628
-0.539427
-0.519302
-0.535877
-0.531162
-0.530555
-0.011963
-0.021486
-0.009258
-0.005397
0.020737
0.022693
0.020324
-0.085676
0.010055
-0.083614
-0.084897
-0.563645
-0.632518
-0.558250
-0.527772
0.025264
0.031996
0.024356
0.036266
0.028386
0.026756
0.042284
0.085681
0.095017
0.063591
0.044040
0.097607
-0.628357
-0.616317
-0.625499
-0.054788
-0.482168
-0.475962
-0.365431
0.061605
0.152830
0.149060
0.065042
-0.000679
0.036334
0.027457
-0.536071
-0.543306
-0.615586
-0.567335
-0.558437
-0.577385
-0.594159
-0.583475
-0.594882
-0.000112
-0.017329
0.007972
-0.517984
-0.567417
-0.547976
-0.004823
0.032839
-0.019979
0.113748
0.089144
0.116513
-0.008694
-0.015289
-0.008994
-0.019602
-0.032065
-0.607765
-0.614967
-0.011288
-0.020469
0.001352
0.025315
0.011992
0.000642
-0.016105
-0.001551
0.008837
-0.453603
-0.455121
-0.606065
-0.616818
-0.593090
-0.062739
-0.029777
0.147041
0.074599
0.012388
0.048328
-0.005434
0.015782
0.015424
-0.005725
-0.002540
0.018517
-0.628670
-0.637778
-0.659189
-0.599732
-0.662884
-0.632778
-0.669723
-0.643227
-0.081081
-0.106037
0.043125
0.170829
-0.662688
-0.649776
-0.608572
-0.621746
0.080869
0.164001
0.055812
0.051559
0.031973
-0.494685
-0.488471
-0.497445
0.036657
-0.468648
-0.485657
-0.516850
0.049349
-0.503418
-0.623588
-0.644938
-0.612792
-0.019454
0.017120
-0.005824
-0.569832
-0.582039
-0.562762
-0.033899
-0.019731
0.011773
-0.068686
0.023123
0.014480
0.087122
-0.489423
-0.495291
-0.462182
-0.509575
-0.628149
-0.668375
-0.582385
0.019288
0.036992
0.002949
0.016575
0.019346
0.019646
-0.598073
-0.619031
-0.619687
-0.354359
-0.560567
-0.575516
-0.041055
-0.016631
0.092514
0.061491
-0.011627
0.031130
0.036720
0.026811
-0.630332
-0.666761
-0.625299
-0.650493
-0.645147
-0.637409
-0.020596
0.012764
-0.017926
-0.019801
0.112341
0.084983
-0.001782
-0.067865
0.064193
0.072238
0.024846
0.031243
0.034259
0.020944
-0.555736
-0.580027
-0.530285
0.007060
0.002677
0.002920
0.003460
-0.024088
-0.002705
-0.015341
-0.664297
-0.598104
-0.524504
-0.558830
-0.632560
-0.652315
-0.686556
-0.439638
-0.463110
-0.434221
-0.056462
-0.032891
-0.010117
-0.463602
-0.476655
-0.510083
-0.448825
-0.485251
0.007532
0.001114
-0.578215
-0.606043
-0.599003
0.103718
0.085666
-0.536207
-0.576354
-0.033378
-0.001216
-0.021285
0.005916
-0.032637
-0.028343
-0.030317
0.006244
0.017416
0.015612
-0.467937
-0.500451
-0.048137
0.000932
-0.009650
-0.537490
-0.533209
-0.533879
0.012688
-0.649779
-0.588101
-0.643714
0.160110
0.033326
0.020445
-0.616135
-0.610299
0.098626
0.120379
-0.588257
-0.582222
-0.593343
-0.550068
-0.481059
-0.002999
-0.028186
-0.014673
0.000486
-0.024213
-0.594334
-0.590852
-0.623369
-0.633030
-0.579963
0.111567
0.110932
-0.642498
-0.629911
-0.626832
0.014456
0.010985
-0.446429
-0.482454
-0.449348
-0.495924
0.007570
0.008523
0.001442
-0.625140
-0.599891
-0.603071
-0.594169
-0.602286
-0.591428
-0.628660
-0.619064
-0.638400
-0.579101
-0.000191
0.001307
-0.000425
0.002891
-0.028743
-0.006949
0.000142
-0.622741
-0.620252
-0.620229
-0.487952
-0.436903
-0.395245
-0.506992
-0.619395
-0.678149
-0.623434
-0.613804
-0.616419
-0.629389
0.109043
0.155576
-0.642622
0.020634
-0.004021
-0.604885
0.099025
-0.681514
0.435346
-0.619457
-0.597435
-0.018508
-0.631190
-0.626195
0.029612
0.001556
-0.018002
-0.057194
-0.044982
-0.005097
-0.000628
-0.016216
0.065114
0.131676
0.077887
0.062486
0.126866
0.118425
-0.566207
-0.572218
-0.567715
-0.568752
0.023081
0.016195
0.024187
-0.044796
-0.005530
-0.464969
-0.485059
0.050035
0.036261
-0.629641
-0.620871
-0.617710
-0.614781
-0.014079
-0.066691
-0.081307
-0.073223
0.037184
0.177306
0.126093
0.157479
0.219958
-0.526253
-0.495116
-0.512616
0.024899
-0.584019
-0.591805
-0.640179
-0.642222
-0.540538
-0.051822
-0.009623
-0.022949
-0.030015
-0.519674
-0.479160
-0.505079
-0.492105
-0.499669
-0.494636
-0.002737
-0.000068
0.126998
0.027797
0.025775
0.012263
-0.471744
-0.499631
-0.494056
-0.468319
-0.469032
-0.627806
-0.446079
0.022560
0.002537
-0.004694
-0.034411
-0.022523
-0.606411
-0.608741
-0.655879
-0.642665
-0.641059
-0.710066
-0.562138
-0.572851
-0.575934
-0.563061
-0.655524
0.007571
-0.161025
0.013042
0.018493
0.018668
-0.026970
-0.030699
0.002933
-0.597938
-0.611578
-0.623307
-0.009890
-0.004480
-0.567148
-0.593634
-0.613111
-0.636779
0.013808
-0.011199
-0.056590
-0.648433
-0.004737
-0.008166
-0.618507
-0.614540
0.019571
0.009025
0.011821
0.061649
0.003550
0.009061
-0.000090
-0.004940
-0.597642
-0.652128
-0.637865
-0.579348
-0.575367
-0.579173
-0.561215
-0.011464
-0.013628
-0.038549
-0.022759
0.133228
0.104021
0.176470
0.011318
0.022513
0.154379
-0.000985
-0.132295
-0.482594
-0.450781
-0.514528
-0.529496
-0.491452
-0.622864
-0.617751
-0.619868
-0.530400
-0.537818
-0.563543
-0.538907
0.099810
0.076670
-0.040664
-0.028369
-0.613397
-0.571693
-0.499876
-0.625092
-0.620697
-0.607581
-0.615232
-0.570669
-0.574398
-0.484688
-0.399409
-0.034783
-0.499657
-0.025838
0.179304
-0.011836
0.171741
0.120029
-0.022380
-0.009675
-0.007658
0.025444
-0.466372
-0.482580
-0.012804
-0.591985
-0.642205
-0.011917
-0.002646
-0.486974
-0.597197
-0.101961
-0.065931
-0.035378
-0.025821
-0.463926
-0.474019
-0.447548
-0.026153
-0.003308
-0.627328
-0.002057
0.012680
-0.059549
-0.603104
-0.596703
-0.650743
0.029543
0.006394
-0.000880
-0.655574
0.033044
0.040102
-0.035816
-0.682016
-0.646681
-0.664828
-0.457538
-0.074377
-0.002069
-0.000346
-0.522111
-0.542552
-0.519951
-0.493061
-0.476700
-0.523635
-0.012538
0.000197
0.029306
-0.011043
0.092932
-0.030586
0.026086
-0.291285
0.100941
-0.498399
-0.464573
-0.503415
-0.505818
-0.288745
-0.488949
-0.498924
-0.480938
-0.032871
-0.019488
-0.615929
-0.596331
-0.609011
-0.665195
-0.569209
-0.600593
-0.586505
-0.023660
-0.015783
-0.497932
-0.485022
-0.503075
0.068743
0.067652
0.159282
0.040976
-0.620818
-0.466027
-0.016915
0.013091
-0.009249
-0.603457
0.008819
0.011969
0.025555
0.000325
-0.629047
-0.001242
0.009906
0.005594
0.010710
0.009494
-0.467186
-0.494495
-0.502971
-0.495255
-0.004881
-0.005989
0.000194
-0.005518
0.106901
0.128895
0.122384
0.094042
-0.608186
-0.626092
-0.595439
-0.596642
-0.559633
-0.000609
-0.013559
0.023327
0.007491
0.018301
-0.013916
0.032494
-0.507922
-0.625461
0.046543
0.038877
0.065977
-0.655950
-0.673859
-0.626126
-0.587230
-0.606394
-0.506360
0.112062
0.164190
0.124934
0.134669
0.299233
-0.509667
-0.520863
-0.580245
0.027019
0.008520
-0.590956
0.021959
0.037543
-0.542774
-0.534151
-0.542102
-0.605751
-0.608831
-0.023371
-0.582983
-0.574427
-0.557018
-0.581634
0.123313
0.111078
0.132190
0.153061
-0.658059
-0.527078
-0.613880
-0.598103
-0.666014
0.000187
0.024373
0.026395
0.076879
0.069918
0.076685
-0.034046
-0.019909
-0.028835
-0.632719
0.035391
-0.618311
-0.613040
-0.593775
-0.637443
-0.613974
-0.671175
-0.546214
-0.587744
0.008204
-0.015261
-0.607959
0.076726
-0.024872
-0.010726
-0.016910
-0.538896
-0.529077
-0.530636
-0.030392
-0.009545
0.014368
0.007886
0.028004
-0.415269
-0.030622
-0.008244
-0.010442
-0.477540
-0.488096
-0.484063
0.102764
0.099915
0.100635
-0.006708
-0.012904
-0.601132
-0.602278
-0.603224
-0.461215
-0.641174
-0.658452
-0.660431
-0.595774
-0.607075
-0.585422
-0.055877
-0.260369
-0.179586
-0.655944
-0.550313
-0.644590
-0.055810
-0.005910
-0.224023
-0.538478
-0.487653
0.028251
-0.018845
0.174124
0.162337
0.126851
0.125029
-0.506114
-0.509021
-0.014129
-0.005430
-0.011569
0.032852
-0.000145
-0.007008
-0.603949
0.006646
-0.022894
-0.037705
-0.003022
-0.576691
-0.566496
-0.598627
-0.524336
-0.681926
-0.601675
-0.619353
-0.626353
-0.001020
0.003282
0.021902
-0.662505
-0.660641
-0.656467
-0.665184
-0.490892
0.067982
-0.026742
-0.522342
-0.513122
-0.129230
-0.511224
0.133269
0.224075
-0.515439
-0.554771
-0.243173
-0.587598
-0.012433
-0.026908
-0.011858
-0.527784
-0.525344
-0.529231
0.070212
0.158893
0.059266
-0.597811
-0.455250
-0.565956
-0.419866
-0.517197
-0.587109
-0.577842
-0.517761
-0.600729
-0.003256
-0.586574
-0.604304
-0.621505
-0.617942
0.010398
0.024191
0.014186
-0.024240
-0.018887
-0.518936
-0.483883
-0.477930
-0.004364
-0.010354
-0.016401
-0.014550
-0.015210
-0.473544
-0.470782
-0.573268
-0.511647
-0.644845
-0.570523
0.115303
0.156223
0.144862
0.065424
-0.496389
-0.499203
-0.131819
-0.026368
-0.126210
0.007805
-0.001016
0.015318
-0.642185
-0.657549
-0.023799
-0.009344
-0.497482
-0.440836
-0.007693
-0.013059
0.007431
-0.013457
-0.520912
-0.505352
-0.010861
-0.611824
-0.614999
-0.523399
0.004850
0.005830
-0.569571
-0.572302
-0.572322
-0.651680
-0.625423
-0.615489
-0.609879
0.004391
0.006163
-0.008943
-0.590105
-0.595461
-0.618194
0.130126
0.183176
0.083424
0.129333
-0.566530
-0.650487
-0.559282
-0.644075
0.079686
0.067640
0.082624
-0.614946
0.062257
-0.578331
0.011325
0.091705
-0.077811
-0.025459
0.102775
-0.607788
-0.611665
-0.605623
0.003054
0.006957
0.019252
0.152473
0.119509
-0.097213
-0.081311
-0.060808
0.138197
0.142522
0.137818
-0.002902
0.053481
0.001869
0.023118
0.098508
-0.009949
0.041968
0.040425
0.002849
-0.492395
-0.013485
-0.013688
-0.003041
-0.016090
-0.016197
-0.458644
0.027633
-0.656058
-0.652006
-0.585600
-0.406328
-0.030452
-0.654608
-0.633186
-0.660491
-0.640140
-0.600053
0.122847
-0.443701
-0.498299
-0.417470
-0.402521
-0.009376
-0.496964
-0.510791
-0.488493
-0.495723
-0.505989
-0.003666
-0.590053
-0.591731
-0.607068
0.001852
-0.607593
-0.618602
-0.002984
0.060433
0.067559
-0.058201
-0.639623
0.151792
0.104520
0.036952
-0.609474
-0.607773
-0.606004
0.012243
0.007302
0.003526
-0.667268
-0.527566
-0.537564
-0.490790
-0.539405
-0.552003
-0.560083
-0.667553
-0.660840
-0.650885
-0.547735
-0.629156
-0.512950
0.076439
-0.490437
-0.630762
0.048081
0.052084
0.039463
-0.544749
-0.542275
-0.012714
-0.028989
-0.035535
-0.045851
-0.028321
0.058214
-0.491357
-0.610511
-0.602996
0.024851
-0.009323
-0.004414
-0.612300
-0.611836
-0.611237
0.021595
0.022136
0.018359
-0.530055
-0.518961
-0.527224
-0.525513
-0.484044
-0.490200
-0.007594
-0.003988
0.026865
0.008254
-0.515756
-0.497216
-0.485841
-0.499404
-0.615859
-0.550182
-0.615309
-0.654030
-0.499566
-0.498150
-0.473928
-0.025772
-0.042398
-0.011696
-0.013252
-0.546698
-0.558421
-0.587552
-0.655894
-0.643843
0.152021
0.006374
-0.074984
0.088269
0.133444
0.031180
-0.688052
0.081727
-0.523554
-0.530628
-0.531954
-0.525509
-0.581447
-0.602227
-0.593457
-0.579145
-0.017377
-0.032637
-0.046768
-0.611608
-0.003452
-0.071651
-0.002392
-0.021811
-0.497462
-0.670027
-0.507158
0.128284
0.137558
0.124668
-0.489908
-0.534360
-0.017893
-0.597843
-0.009403
-0.002241
-0.003034
0.008415
-0.040866
0.012535
-0.014548
-0.026689
-0.023951
-0.502916
-0.511776
0.060143
0.060027
0.104347
-0.557872
-0.692299
-0.675203
0.118845
-0.615160
-0.647881
-0.626416
-0.506067
-0.532180
-0.513133
-0.583622
-0.489955
-0.527128
-0.522591
-0.525053
0.032200
-0.052193
-0.013902
-0.016847
-0.500157
-0.531600
-0.501277
-0.556694
-0.539686
-0.564640
-0.488318
-0.517096
-0.606169
-0.629523
-0.637379
-0.565422
-0.606234
-0.558599
0.001690
0.022451
-0.013619
-0.618568
-0.616177
-0.615587
0.476441
-0.323069
-0.021589
-0.016369
-0.481753
-0.617944
-0.606748
-0.001808
-0.003316
-0.011842
-0.027032
-0.014556
-0.510877
-0.508480
-0.628941
0.018054
0.030404
-0.603961
0.041353
0.054167
0.038059
0.038692
-0.623234
-0.676042
-0.573580
-0.525190
-0.528534
-0.547651
-0.004060
0.004145
-0.359237
-0.181100
-0.559902
-0.377611
-0.347678
0.134008
-0.540212
-0.531546
-0.013427
-0.017355
-0.014298
0.004629
-0.586646
-0.015517
-0.009466
-0.010524
-0.520146
-0.505279
0.051388
0.131803
0.016288
0.069312
0.084446
0.070872
0.069296
-0.020569
0.003010
-0.009068
0.057497
-0.000333
-0.017314
-0.532802
-0.528623
-0.515565
-0.528122
-0.063721
-0.103373
-0.123615
0.068003
-0.047280
-0.116545
-0.086997
-0.264332
0.051790
0.034135
0.022814
-0.507955
-0.518535
0.157123
0.057150
-0.075910
0.009141
0.039781
0.190998
-0.006463
0.010967
0.040648
0.044571
0.082682
-0.032168
-0.006523
0.067693
0.024691
0.130326
0.119787
0.017280
0.129685
0.128331
0.144806
-0.079646
-0.493740
-0.519196
-0.500604
-0.493278
-0.514507
0.031318
0.035139
0.042192
0.020779
0.044513
0.117128
0.137252
0.101445
-0.520750
-0.531159
-0.502426
-0.530755
-0.530495
-0.502393
-0.507142
-0.501274
-0.003529
-0.010171
-0.502331
-0.002533
0.148051
0.094391
0.106798
0.004558
0.079283
-0.086852
0.003963
-0.028205
-0.610518
-0.609448
-0.034958
-0.045960
0.010936
-0.006166
-0.619464
-0.611307
-0.611154
-0.624263
-0.523833
-0.530957
-0.531448
-0.521599
-0.542849
-0.492212
-0.021992
-0.006510
-0.506779
-0.495629
-0.504375
-0.492003
0.092170
0.108435
0.119696
0.097286
0.044176
-0.473064
-0.501180
-0.475842
0.134187
0.114379
0.117352
-0.025066
-0.045745
-0.012483
-0.003168
-0.194348
-0.216018
-0.001308
-0.041534
-0.354520
-0.211840
-0.519584
-0.506164
-0.025859
0.010528
0.140394
-0.007668
-0.493376
-0.508062
-0.527758
0.049720
-0.607304
-0.493957
-0.005344
0.001965
0.002445
-0.001020
-0.005894
-0.000538
-0.510500
-0.551531
-0.020194
-0.031215
0.002934
-0.610950
-0.019639
-0.005500
-0.030805
0.006514
0.001425
-0.509546
-0.512165
0.002310
-0.011953
-0.000273
-0.011809
-0.603349
-0.553577
-0.596226
-0.593574
-0.022838
-0.026090
-0.017561
-0.030703
-0.016190
-0.027008
-0.505646
-0.526884
-0.017941
-0.024468
-0.013208
-0.019739
-0.038326
-0.597256
-0.595818
-0.573730
-0.600996
-0.581028
-0.585557
-0.608080
-0.018754
-0.525765
-0.520361
-0.525339
-0.513058
0.059117
0.031884
0.059233
0.077274
0.005640
0.002768
0.006367
-0.011735
-0.013346
-0.010846
-0.020019
-0.479164
-0.432114
-0.355501
-0.266857
-0.401791
0.141194
-0.060316
0.011477
-0.529507
-0.532232
-0.537604
-0.519824
-0.008541
-0.623606
-0.621430
0.021754
0.010451
0.041239
0.050557
-0.015690
-0.518877
-0.513812
-0.019293
0.225010
-0.007325
0.000049
-0.011212
0.060202
0.057446
0.054729
-0.678907
-0.566570
-0.107239
-0.573672
-0.520191
-0.507096
0.010168
-0.518282
-0.520725
-0.517643
-0.517349
-0.028150
-0.084724
-0.003227
0.041341
0.044551
0.064191
0.041617
0.043252
-0.006068
-0.001125
0.000952
-0.008582
-0.084002
-0.077661
-0.524158
-0.022698
-0.034416
-0.016080
-0.005800
-0.002074
0.003264
-0.035668
-0.500378
-0.015319
-0.003158
-0.605401
0.046546
0.044453
0.062281
-0.505658
-0.508047
-0.613553
-0.612173
-0.581912
-0.584552
-0.646917
-0.652004
-0.653144
-0.648020
0.041444
0.097902
-0.022763
-0.511448
-0.523496
0.151165
-0.027586
-0.004314
0.036288
-0.453647
-0.568525
-0.567659
-0.515766
-0.585028
-0.617450
-0.649849
-0.620555
-0.659331