# vtk DataFile Version 2.0
Test
ASCII
DATASET POLYDATA
POINTS 7607 float
0.000000 0.000000 0.000000
1.000000 0.000000 0.000000
1.000000 0.800000 0.000000
1.000000 1.000000 0.000000
0.000000 1.000000 0.000000
0.000000 0.200000 0.000000
0.300000 0.330000 0.000000
0.700000 0.680000 0.000000
0.012987 0.000000 0.000000
0.025974 0.000000 0.000000
0.038961 0.000000 0.000000
0.051948 0.000000 0.000000
0.064935 0.000000 0.000000
0.077922 0.000000 0.000000
0.090909 0.000000 0.000000
0.103896 0.000000 0.000000
0.116883 0.000000 0.000000
0.129870 0.000000 0.000000
0.142857 0.000000 0.000000
0.155844 0.000000 0.000000
0.168831 0.000000 0.000000
0.181818 0.000000 0.000000
0.194805 0.000000 0.000000
0.207792 0.000000 0.000000
0.220779 0.000000 0.000000
0.233766 0.000000 0.000000
0.246753 0.000000 0.000000
0.259740 0.000000 0.000000
0.272727 0.000000 0.000000
0.285714 0.000000 0.000000
0.298701 0.000000 0.000000
0.311688 0.000000 0.000000
0.324675 0.000000 0.000000
0.337662 0.000000 0.000000
0.350649 0.000000 0.000000
0.363636 0.000000 0.000000
0.376623 0.000000 0.000000
0.389610 0.000000 0.000000
0.402597 0.000000 0.000000
0.415584 0.000000 0.000000
0.428571 0.000000 0.000000
0.441558 0.000000 0.000000
0.454545 0.000000 0.000000
0.467532 0.000000 0.000000
0.480519 0.000000 0.000000
0.493506 0.000000 0.000000
0.506494 0.000000 0.000000
0.519481 0.000000 0.000000
0.532468 0.000000 0.000000
0.545455 0.000000 0.000000
0.558442 0.000000 0.000000
0.571429 0.000000 0.000000
0.584416 0.000000 0.000000
0.597403 0.000000 0.000000
0.610390 0.000000 0.000000
0.623377 0.000000 0.000000
0.636364 0.000000 0.000000
0.649351 0.000000 0.000000
0.662338 0.000000 0.000000
0.675325 0.000000 0.000000
0.688312 0.000000 0.000000
0.701299 0.000000 0.000000
0.714286 0.000000 0.000000
0.727273 0.000000 0.000000
0.740260 0.000000 0.000000
0.753247 0.000000 0.000000
0.766234 0.000000 0.000000
0.779221 0.000000 0.000000
0.792208 0.000000 0.000000
0.805195 0.000000 0.000000
0.818182 0.000000 0.000000
0.831169 0.000000 0.000000
0.844156 0.000000 0.000000
0.857143 0.000000 0.000000
0.870130 0.000000 0.000000
0.883117 0.000000 0.000000
0.896104 0.000000 0.000000
0.909091 0.000000 0.000000
0.922078 0.000000 0.000000
0.935065 0.000000 0.000000
0.948052 0.000000 0.000000
0.961039 0.000000 0.000000
0.974026 0.000000 0.000000
0.987013 0.000000 0.000000
1.000000 0.012903 0.000000
1.000000 0.025806 0.000000
1.000000 0.038710 0.000000
1.000000 0.051613 0.000000
1.000000 0.064516 0.000000
1.000000 0.077419 0.000000
1.000000 0.090323 0.000000
1.000000 0.103226 0.000000
1.000000 0.116129 0.000000
1.000000 0.129032 0.000000
1.000000 0.141935 0.000000
1.000000 0.154839 0.000000
1.000000 0.167742 0.000000
1.000000 0.180645 0.000000
1.000000 0.193548 0.000000
1.000000 0.206452 0.000000
1.000000 0.219355 0.000000
1.000000 0.232258 0.000000
1.000000 0.245161 0.000000
1.000000 0.258065 0.000000
1.000000 0.270968 0.000000
1.000000 0.283871 0.000000
1.000000 0.296774 0.000000
1.000000 0.309677 0.000000
1.000000 0.322581 0.000000
1.000000 0.335484 0.000000
1.000000 0.348387 0.000000
1.000000 0.361290 0.000000
1.000000 0.374194 0.000000
1.000000 0.387097 0.000000
1.000000 0.400000 0.000000
1.000000 0.412903 0.000000
1.000000 0.425806 0.000000
1.000000 0.438710 0.000000
1.000000 0.451613 0.000000
1.000000 0.464516 0.000000
1.000000 0.477419 0.000000
1.000000 0.490323 0.000000
1.000000 0.503226 0.000000
1.000000 0.516129 0.000000
1.000000 0.529032 0.000000
1.000000 0.541935 0.000000
1.000000 0.554839 0.000000
1.000000 0.567742 0.000000
1.000000 0.580645 0.000000
1.000000 0.593548 0.000000
1.000000 0.606452 0.000000
1.000000 0.619355 0.000000
1.000000 0.632258 0.000000
1.000000 0.645161 0.000000
1.000000 0.658065 0.000000
1.000000 0.670968 0.000000
1.000000 0.683871 0.000000
1.000000 0.696774 0.000000
1.000000 0.709677 0.000000
1.000000 0.722581 0.000000
1.000000 0.735484 0.000000
1.000000 0.748387 0.000000
1.000000 0.761290 0.000000
1.000000 0.774194 0.000000
1.000000 0.787097 0.000000
1.000000 0.812500 0.000000
1.000000 0.825000 0.000000
1.000000 0.837500 0.000000
1.000000 0.850000 0.000000
1.000000 0.862500 0.000000
1.000000 0.875000 0.000000
1.000000 0.887500 0.000000
1.000000 0.900000 0.000000
1.000000 0.912500 0.000000
1.000000 0.925000 0.000000
1.000000 0.937500 0.000000
1.000000 0.950000 0.000000
1.000000 0.962500 0.000000
1.000000 0.975000 0.000000
1.000000 0.987500 0.000000
0.987013 1.000000 0.000000
0.974026 1.000000 0.000000
0.961039 1.000000 0.000000
0.948052 1.000000 0.000000
0.935065 1.000000 0.000000
0.922078 1.000000 0.000000
0.909091 1.000000 0.000000
0.896104 1.000000 0.000000
0.883117 1.000000 0.000000
0.870130 1.000000 0.000000
0.857143 1.000000 0.000000
0.844156 1.000000 0.000000
0.831169 1.000000 0.000000
0.818182 1.000000 0.000000
0.805195 1.000000 0.000000
0.792208 1.000000 0.000000
0.779221 1.000000 0.000000
0.766234 1.000000 0.000000
0.753247 1.000000 0.000000
0.740260 1.000000 0.000000
0.727273 1.000000 0.000000
0.714286 1.000000 0.000000
0.701299 1.000000 0.000000
0.688312 1.000000 0.000000
0.675325 1.000000 0.000000
0.662338 1.000000 0.000000
0.649351 1.000000 0.000000
0.636364 1.000000 0.000000
0.623377 1.000000 0.000000
0.610390 1.000000 0.000000
0.597403 1.000000 0.000000
0.584416 1.000000 0.000000
0.571429 1.000000 0.000000
0.558442 1.000000 0.000000
0.545455 1.000000 0.000000
0.532468 1.000000 0.000000
0.519481 1.000000 0.000000
0.506494 1.000000 0.000000
0.493506 1.000000 0.000000
0.480519 1.000000 0.000000
0.467532 1.000000 0.000000
0.454545 1.000000 0.000000
0.441558 1.000000 0.000000
0.428571 1.000000 0.000000
0.415584 1.000000 0.000000
0.402597 1.000000 0.000000
0.389610 1.000000 0.000000
0.376623 1.000000 0.000000
0.363636 1.000000 0.000000
0.350649 1.000000 0.000000
0.337662 1.000000 0.000000
0.324675 1.000000 0.000000
0.311688 1.000000 0.000000
0.298701 1.000000 0.000000
0.285714 1.000000 0.000000
0.272727 1.000000 0.000000
0.259740 1.000000 0.000000
0.246753 1.000000 0.000000
0.233766 1.000000 0.000000
0.220779 1.000000 0.000000
0.207792 1.000000 0.000000
0.194805 1.000000 0.000000
0.181818 1.000000 0.000000
0.168831 1.000000 0.000000
0.155844 1.000000 0.000000
0.142857 1.000000 0.000000
0.129870 1.000000 0.000000
0.116883 1.000000 0.000000
0.103896 1.000000 0.000000
0.090909 1.000000 0.000000
0.077922 1.000000 0.000000
0.064935 1.000000 0.000000
0.051948 1.000000 0.000000
0.038961 1.000000 0.000000
0.025974 1.000000 0.000000
0.012987 1.000000 0.000000
0.000000 0.987097 0.000000
0.000000 0.974194 0.000000
0.000000 0.961290 0.000000
0.000000 0.948387 0.000000
0.000000 0.935484 0.000000
0.000000 0.922581 0.000000
0.000000 0.909677 0.000000
0.000000 0.896774 0.000000
0.000000 0.883871 0.000000
0.000000 0.870968 0.000000
0.000000 0.858065 0.000000
0.000000 0.845161 0.000000
0.000000 0.832258 0.000000
0.000000 0.819355 0.000000
0.000000 0.806452 0.000000
0.000000 0.793548 0.000000
0.000000 0.780645 0.000000
0.000000 0.767742 0.000000
0.000000 0.754839 0.000000
0.000000 0.741935 0.000000
0.000000 0.729032 0.000000
0.000000 0.716129 0.000000
0.000000 0.703226 0.000000
0.000000 0.690323 0.000000
0.000000 0.677419 0.000000
0.000000 0.664516 0.000000
0.000000 0.651613 0.000000
0.000000 0.638710 0.000000
0.000000 0.625806 0.000000
0.000000 0.612903 0.000000
0.000000 0.600000 0.000000
0.000000 0.587097 0.000000
0.000000 0.574194 0.000000
0.000000 0.561290 0.000000
0.000000 0.548387 0.000000
0.000000 0.535484 0.000000
0.000000 0.522581 0.000000
0.000000 0.509677 0.000000
0.000000 0.496774 0.000000
0.000000 0.483871 0.000000
0.000000 0.470968 0.000000
0.000000 0.458065 0.000000
0.000000 0.445161 0.000000
0.000000 0.432258 0.000000
0.000000 0.419355 0.000000
0.000000 0.406452 0.000000
0.000000 0.393548 0.000000
0.000000 0.380645 0.000000
0.000000 0.367742 0.000000
0.000000 0.354839 0.000000
0.000000 0.341935 0.000000
0.000000 0.329032 0.000000
0.000000 0.316129 0.000000
0.000000 0.303226 0.000000
0.000000 0.290323 0.000000
0.000000 0.277419 0.000000
0.000000 0.264516 0.000000
0.000000 0.251613 0.000000
0.000000 0.238710 0.000000
0.000000 0.225806 0.000000
0.000000 0.212903 0.000000
0.000000 0.187500 0.000000
0.000000 0.175000 0.000000
0.000000 0.162500 0.000000
0.000000 0.150000 0.000000
0.000000 0.137500 0.000000
0.000000 0.125000 0.000000
0.000000 0.112500 0.000000
0.000000 0.100000 0.000000
0.000000 0.087500 0.000000
0.000000 0.075000 0.000000
0.000000 0.062500 0.000000
0.000000 0.050000 0.000000
0.000000 0.037500 0.000000
0.000000 0.025000 0.000000
0.000000 0.012500 0.000000
0.309756 0.338537 0.000000
0.319512 0.347073 0.000000
0.329268 0.355610 0.000000
0.339024 0.364146 0.000000
0.348780 0.372683 0.000000
0.358537 0.381220 0.000000
0.368293 0.389756 0.000000
0.378049 0.398293 0.000000
0.387805 0.406829 0.000000
0.397561 0.415366 0.000000
0.407317 0.423902 0.000000
0.417073 0.432439 0.000000
0.426829 0.440976 0.000000
0.436585 0.449512 0.000000
0.446341 0.458049 0.000000
0.456098 0.466585 0.000000
0.465854 0.475122 0.000000
0.475610 0.483659 0.000000
0.485366 0.492195 0.000000
0.495122 0.500732 0.000000
0.504878 0.509268 0.000000
0.514634 0.517805 0.000000
0.524390 0.526341 0.000000
0.534146 0.534878 0.000000
0.543902 0.543415 0.000000
0.553659 0.551951 0.000000
0.563415 0.560488 0.000000
0.573171 0.569024 0.000000
0.582927 0.577561 0.000000
0.592683 0.586098 0.000000
0.602439 0.594634 0.000000
0.612195 0.603171 0.000000
0.621951 0.611707 0.000000
0.631707 0.620244 0.000000
0.641463 0.628780 0.000000
0.651220 0.637317 0.000000
0.660976 0.645854 0.000000
0.670732 0.654390 0.000000
0.680488 0.662927 0.000000
0.690244 0.671463 0.000000
0.011538 0.205000 0.000000
0.023077 0.210000 0.000000
0.034615 0.215000 0.000000
0.046154 0.220000 0.000000
0.057692 0.225000 0.000000
0.069231 0.230000 0.000000
0.080769 0.235000 0.000000
0.092308 0.240000 0.000000
0.103846 0.245000 0.000000
0.115385 0.250000 0.000000
0.126923 0.255000 0.000000
0.138462 0.260000 0.000000
0.150000 0.265000 0.000000
0.161538 0.270000 0.000000
0.173077 0.275000 0.000000
[...]
POINT_DATA 7607
SCALARS UX float 1
LOOKUP_TABLE default
0.003754
0.001733
0.004574
-0.043835
-0.121251
-0.053912
-0.048443
-0.040557
-0.000757
-0.000042
-0.000949
0.000875
0.008224
-0.000184
-0.000121
0.007625
0.000217
0.000329
-0.000162
0.000092
0.000032
-0.000021
-0.000091
0.000126
-0.000072
0.000260
0.000047
-0.000674
-0.000033
-0.000075
-0.000303
-0.005821
0.000114
-0.000093
-0.000027
-0.000257
0.000188
0.000171
0.001698
0.000060
0.000998
-0.001203
-0.000046
0.003340
0.000097
0.000247
-0.002065
-0.000019
-0.000135
0.000025
0.000061
-0.002750
-0.000139
-0.001154
-0.000031
0.000093
-0.000088
-0.000048
-0.000013
-0.000363
-0.000613
0.000180
-0.000137
-0.000202
0.003757
0.000305
-0.005494
0.000159
0.001468
0.000089
-0.000548
-0.000313
-0.004592
-0.000658
0.004108
0.002063
-0.004854
-0.000095
-0.000559
0.001256
0.000168
-0.000239
-0.000108
-0.007668
-0.001135
0.011845
0.002013
0.007907
0.005791
0.005791
0.008668
0.008772
0.026098
0.025496
0.021457
0.023977
0.020961
0.038103
0.019244
0.021628
0.036432
0.036295
0.037892
0.045758
0.039731
0.047273
0.053105
0.038336
0.050863
0.060749
0.049343
0.071909
0.062392
0.063171
0.066221
0.058481
0.072374
0.066211
0.080001
0.059801
0.073008
0.077158
0.066767
0.068153
0.083539
0.068139
0.075323
0.076757
0.063217
0.073425
0.076540
0.060015
0.075584
0.050899
0.056626
0.052418
0.058754
0.048239
0.056604
0.040851
0.037644
0.040233
0.032865
0.036298
0.029665
0.008422
0.010795
-0.015374
-0.015130
-0.043733
-0.012529
-0.025624
-0.027453
-0.024390
-0.028693
-0.036284
-0.035533
-0.019351
-0.044557
-0.036832
-0.029057
-0.039703
-0.038657
-0.050367
-0.046615
-0.047854
-0.046041
-0.053510
-0.051960
-0.053161
-0.052664
-0.055799
-0.053177
-0.052139
-0.057461
-0.060792
-0.053323
-0.064813
-0.065657
-0.062175
-0.061218
-0.063326
-0.060264
-0.063597
-0.065631
-0.065309
-0.067076
-0.065319
-0.067961
-0.068893
-0.067189
-0.073021
-0.071395
-0.074881
-0.074462
-0.074795
-0.072306
-0.075362
-0.075888
-0.075355
-0.075616
-0.078432
-0.082917
-0.076091
-0.077853
-0.086256
-0.079825
-0.085999
-0.081082
-0.090533
-0.091774
-0.094657
-0.096587
-0.096519
-0.095324
-0.103383
-0.096257
-0.104816
-0.109221
-0.098005
-0.114002
-0.107349
-0.109168
-0.106001
-0.113998
-0.121020
-0.113639
-0.120802
-0.122816
-0.118903
-0.121714
-0.123226
-0.127955
-0.127548
-0.127409
-0.128666
-0.132679
-0.131505
-0.131153
-0.123249
-0.125172
-0.116776
-0.124305
-0.124350
-0.131689
-0.126961
-0.125882
-0.147883
-0.133587
-0.135804
-0.131571
-0.135061
-0.143428
-0.139554
-0.136828
-0.131146
-0.141080
-0.142069
-0.138904
-0.137313
-0.147260
-0.137725
-0.136616
-0.152625
-0.142576
-0.144951
-0.127624
-0.116431
-0.129222
-0.141415
-0.141772
-0.142200
-0.136072
-0.143964
-0.140975
-0.150784
-0.136675
-0.141637
-0.135483
-0.137440
-0.138475
-0.135403
-0.135800
-0.147546
-0.125930
-0.136603
-0.125160
-0.125742
-0.120820
-0.120432
-0.109054
-0.105091
-0.090281
-0.103544
-0.080944
-0.079337
-0.081149
-0.070812
-0.040302
-0.053430
-0.043738
-0.005797
-0.036959
-0.025452
-0.022531
-0.019278
-0.017808
-0.012302
-0.017402
-0.013674
-0.009480
-0.005187
-0.027501
-0.041964
-0.066845
-0.091258
-0.060115
-0.053855
-0.082544
-0.060654
-0.029222
-0.069350
-0.049851
-0.075746
-0.002139
-0.044844
-0.056281
-0.043190
-0.037112
-0.033463
-0.022662
0.004223
-0.007830
-0.003941
-0.078961
-0.017316
0.000583
-0.062509
-0.044048
-0.040191
-0.108496
-0.070032
-0.001208
-0.011117
-0.035435
0.049822
0.022537
0.062938
-0.001612
-0.015311
-0.062646
-0.052249
-0.059045
-0.085190
-0.045981
-0.078790
-0.069392
-0.093723
-0.086561
-0.059720
-0.080323
-0.039215
-0.080388
-0.053840
-0.088184
-0.070317
-0.055966
-0.115240
-0.069666
-0.067362
-0.071475
-0.106354
-0.061031
-0.074070
-0.093124
-0.068824
-0.086775
-0.023881
0.018255
0.017471
0.039057
0.029798
0.025055
0.018465
-0.020397
0.027090
-0.010073
0.022007
-0.006675
0.008884
0.015998
-0.005390
0.001393
0.010021
0.013069
0.007954
0.011886
0.007147
0.019361
0.032026
-0.016627
-0.054017
-0.062310
-0.065618
-0.059646
0.039117
0.029658
0.021678
-0.102586
-0.104853
-0.132424
-0.092017
-0.086330
-0.070952
-0.007159
0.004268
0.009634
-0.098654
-0.111869
-0.114376
-0.137264
0.024943
0.009960
0.017856
0.009287
-0.043208
-0.019633
-0.055027
-0.034674
0.001398
-0.008176
-0.069193
-0.079361
-0.148795
-0.116463
-0.052219
-0.034483
0.011024
0.001635
-0.004257
-0.003385
-0.114235
-0.113459
-0.123699
-0.128085
-0.021971
-0.019860
-0.008033
-0.007575
0.044384
0.034127
0.048407
-0.052153
-0.057143
0.038281
0.032299
0.009198
0.041393
-0.072318
-0.063998
-0.056802
-0.045950
-0.085224
-0.058302
-0.037628
-0.025862
-0.035348
-0.025762
-0.036945
-0.022525
-0.057797
-0.115172
-0.118597
-0.015204
0.011335
0.023996
-0.005975
-0.011887
-0.012430
-0.085843
-0.083692
-0.086800
-0.018327
-0.069137
-0.066869
-0.052026
0.019598
0.028906
0.002072
0.017307
0.002196
-0.009885
-0.015753
-0.037894
-0.020215
-0.015898
-0.018398
0.025743
0.048902
0.051237
-0.112986
-0.080474
-0.077012
-0.038093
-0.031560
-0.047310
-0.028796
-0.081622
-0.059376
-0.103435
-0.052710
-0.015091
0.009221
0.004391
0.003563
0.045239
0.038619
-0.065877
-0.059645
-0.054186
0.016457
0.018029
0.010041
-0.035558
-0.035764
-0.050645
-0.039850
0.028408
0.018010
0.041261
0.023102
-0.005248
-0.050662
-0.017997
-0.000002
-0.004619
-0.005302
-0.123390
-0.097674
-0.103020
-0.141136
-0.065183
-0.093477
-0.082253
-0.072667
-0.044735
-0.057320
-0.057175
-0.052822
0.002745
-0.008600
-0.005462
-0.004636
-0.000144
-0.141285
-0.121952
-0.141041
-0.010202
-0.008893
-0.002688
-0.137981
-0.118029
-0.119516
-0.012555
-0.038949
-0.046520
-0.055802
-0.121504
-0.118175
-0.102008
-0.116271
-0.110764
-0.119080
-0.114729
0.064958
0.050279
0.054700
0.057691
0.049445
0.034123
0.044576
0.024323
0.034426
0.026171
-0.080449
-0.070745
-0.057907
-0.072151
-0.068375
-0.066851
-0.006861
-0.017612
-0.011799
-0.006131
0.011608
0.029949
-0.003650
-0.028579
-0.013027
-0.027946
-0.042534
-0.102673
-0.116722
-0.113728
-0.096513
0.026391
0.048330
0.023833
0.022659
0.029576
0.025267
0.039685
0.062263
0.055932
0.050574
-0.011313
0.076904
-0.126651
-0.117395
-0.121614
-0.032824
-0.038228
-0.038903
-0.022024
0.034346
0.046136
0.054879
0.067681
0.028630
0.036762
0.011291
-0.073493
-0.074321
-0.129782
-0.111845
-0.097567
-0.093669
-0.111540
-0.100825
-0.111468
-0.000956
-0.013227
0.006215
-0.094512
-0.094894
-0.079474
-0.003456
0.017140
-0.011897
0.038609
0.033123
0.054901
-0.002789
-0.015126
-0.017653
-0.015911
-0.019096
-0.119390
-0.127713
-0.008662
-0.016162
-0.004665
0.009701
0.006686
-0.000395
-0.013121
-0.002073
0.011006
-0.032717
-0.028380
-0.118947
-0.129050
-0.110500
-0.019110
-0.021223
0.052645
0.050428
0.007872
0.047143
0.010844
0.041594
0.015289
-0.002819
0.000205
0.009162
-0.117815
-0.126219
-0.141093
-0.111177
-0.131105
-0.106642
-0.145105
-0.090902
0.026406
0.004237
0.018593
0.019290
-0.139932
-0.125532
-0.117551
-0.111304
0.019902
0.067008
0.059196
0.044563
0.028960
-0.048952
-0.042685
-0.043188
0.018125
-0.035541
-0.042368
-0.054557
0.055074
-0.048493
-0.123341
-0.147539
-0.117920
-0.011149
0.009686
-0.010760
-0.097097
-0.103492
-0.090217
-0.012352
-0.008812
0.004204
0.046869
0.029408
0.002997
0.013919
-0.042589
-0.046864
-0.027095
-0.058114
-0.102685
-0.125592
-0.102377
0.015627
0.021145
0.002074
0.015443
0.013349
0.013827
-0.113193
-0.129520
-0.129536
-0.057026
-0.053659
-0.101146
-0.019175
-0.035510
0.045389
0.006245
-0.009200
0.022470
0.020285
0.022948
-0.105846
-0.139747
-0.109568
-0.136785
-0.144343
-0.109654
-0.019037
0.012866
-0.009188
-0.013903
0.064081
0.025352
0.039305
0.056519
-0.000821
0.004072
0.029215
0.023527
0.025531
0.028645
-0.086774
-0.086055
-0.057371
0.008383
0.004826
0.005906
0.003457
-0.021590
0.000278
-0.010461
-0.136851
-0.089214
-0.063881
-0.079042
-0.116208
-0.130758
-0.156304
-0.034101
-0.042307
-0.030551
-0.028508
-0.022496
-0.012930
-0.039640
-0.039153
-0.042414
-0.024984
-0.027444
0.008163
-0.005613
-0.099724
-0.118416
-0.113952
0.063377
0.033405
-0.053723
-0.083317
-0.022299
0.004598
-0.016515
0.006572
-0.018198
-0.020105
-0.013698
0.011828
0.019714
0.020724
-0.044243
-0.050894
-0.034650
0.000219
-0.003419
-0.075242
-0.069763
-0.069976
0.016250
-0.117506
-0.106493
-0.115710
0.082861
0.024421
0.015596
-0.126825
-0.124003
0.042174
0.039896
-0.107079
-0.100142
-0.109135
-0.058784
-0.036570
-0.004711
-0.024320
-0.004745
-0.004882
-0.018567
-0.106599
-0.103048
-0.132551
-0.138378
-0.098129
0.040686
0.053098
-0.132038
-0.120646
-0.123049
0.012255
0.006901
-0.034346
-0.042039
-0.035967
-0.038430
0.005300
0.010080
0.003122
-0.133287
-0.114638
-0.117336
-0.108558
-0.113328
-0.105730
-0.132190
-0.110212
-0.139663
-0.106228
0.001161
-0.003916
-0.002123
-0.002119
-0.021272
-0.009842
-0.007045
-0.132367
-0.133005
-0.132379
-0.044105
-0.018853
-0.026534
-0.038855
-0.115069
-0.120672
-0.117993
-0.126883
-0.128575
-0.139625
0.046373
0.075543
-0.140172
0.018135
-0.008759
-0.117288
-0.001526
-0.076601
0.065954
-0.131219
-0.111721
-0.014133
-0.139894
-0.136704
0.020732
-0.000427
-0.000335
-0.030779
-0.024479
-0.004259
-0.000660
-0.007006
0.038997
0.077080
0.051463
0.047952
0.065537
0.067515
-0.091445
-0.093164
-0.092605
-0.089393
0.020481
0.011103
0.020516
-0.031699
-0.004583
-0.020572
-0.033119
0.044938
0.032183
-0.140845
-0.132606
-0.128966
-0.126175
-0.008332
-0.044752
-0.030252
-0.022692
0.029439
0.050945
0.022494
0.050165
0.029923
-0.054514
-0.048239
-0.048830
0.020568
-0.116367
-0.112719
-0.126562
-0.088965
-0.079390
-0.028228
-0.005717
-0.015625
-0.009410
-0.060258
-0.039962
-0.049771
-0.045956
-0.048264
-0.052620
0.000018
0.002225
0.029821
0.030034
0.042611
0.010146
-0.028328
-0.041808
-0.042652
-0.051095
-0.036611
-0.137052
-0.022508
0.023468
0.001589
-0.008389
-0.021268
-0.016792
-0.089018
-0.093045
-0.136534
-0.124127
-0.116798
-0.113296
-0.092813
-0.098045
-0.105380
-0.100284
-0.130001
0.071100
0.028535
0.022716
0.022592
0.017788
-0.013536
-0.014810
0.022560
-0.121749
-0.116647
-0.127917
-0.004912
-0.010434
-0.101246
-0.111315
-0.120780
-0.112641
-0.010550
-0.015822
-0.020755
-0.125895
-0.005163
-0.008295
-0.123322
-0.122854
0.025622
0.017979
0.022352
0.012026
0.004451
0.006897
-0.001555
-0.001541
-0.122013
-0.150743
-0.147215
-0.101968
-0.096407
-0.102583
-0.084141
-0.008604
-0.011179
-0.019394
-0.016600
0.034153
0.028474
0.028125
0.007446
0.014278
0.033350
0.002594
0.001243
-0.037970
-0.043025
-0.051168
-0.054280
-0.051627
-0.133742
-0.129871
-0.130206
-0.066479
-0.073019
-0.091465
-0.071491
0.057550
0.022366
-0.024442
-0.021289
-0.126467
-0.086379
-0.079338
-0.071659
-0.134713
-0.116678
-0.131739
-0.086129
-0.087130
-0.037524
-0.050955
-0.024748
-0.053968
-0.019462
0.049922
-0.012278
0.046947
0.044507
-0.017078
-0.008205
-0.005309
0.010295
-0.031213
-0.032610
-0.010873
-0.108251
-0.130338
-0.009341
-0.000916
-0.054330
-0.111278
-0.030582
-0.028463
-0.020512
-0.015143
-0.039400
-0.038815
-0.022364
-0.014164
-0.000074
-0.138473
-0.012802
0.010734
-0.037345
-0.116032
-0.112940
-0.129090
0.021989
-0.000119
-0.010400
-0.120882
0.021544
0.026754
-0.021509
-0.160139
-0.126328
-0.144472
-0.016304
-0.034879
-0.005772
0.000020
-0.058604
-0.078532
-0.055409
-0.044133
-0.036408
-0.064568
-0.004448
-0.007260
0.011460
0.009043
0.002034
0.011754
0.007543
-0.007236
0.013078
-0.038409
-0.045498
-0.056606
-0.041083
-0.055774
-0.047054
-0.044278
-0.039619
-0.026768
-0.008808
-0.129119
-0.110025
-0.122075
-0.097145
-0.091443
-0.091040
-0.088338
-0.011999
-0.004690
-0.054134
-0.040504
-0.037428
0.024041
0.034652
0.038687
0.017707
-0.133533
-0.030280
-0.009792
0.005776
-0.002560
-0.116869
0.026995
0.016850
0.031164
0.000045
-0.136697
0.005396
0.010847
0.002427
0.013422
0.006053
-0.023377
-0.048410
-0.049722
-0.042166
-0.003275
-0.005469
-0.003269
-0.002903
0.067073
0.074698
0.067430
0.065925
-0.122135
-0.134618
-0.112463
-0.083199
-0.078003
0.013406
0.008130
0.024076
0.003375
0.011535
-0.009041
0.029568
-0.059890
-0.096598
0.042633
0.034610
0.062005
-0.126187
-0.093367
-0.133057
-0.110045
-0.117713
-0.052447
0.041503
0.046481
0.033979
0.039266
0.013963
-0.060673
-0.064786
-0.094965
0.002313
0.006887
-0.100683
0.025326
0.022252
-0.076790
-0.068890
-0.075384
-0.118507
-0.122539
-0.013266
-0.098614
-0.097887
-0.086096
-0.101300
0.063746
0.055961
0.072236
0.081899
-0.106341
-0.061728
-0.099494
-0.090395
-0.109161
0.009845
0.028068
0.032194
0.055358
0.051969
0.063200
-0.012787
-0.015846
-0.012196
-0.138466
0.021514
-0.133596
-0.124386
-0.110567
-0.130877
-0.123773
-0.126179
-0.093501
-0.138452
0.005161
-0.012688
-0.120362
0.022973
-0.016966
-0.009295
-0.015089
-0.076739
-0.069415
-0.068505
-0.028642
-0.015913
0.009152
0.009059
0.014642
-0.018849
-0.018082
-0.011022
-0.010945
-0.034157
-0.043780
-0.039796
0.034989
0.022797
0.027110
-0.005767
-0.011333
-0.116195
-0.114085
-0.116913
-0.067698
-0.137039
-0.145099
-0.147475
-0.110694
-0.121286
-0.101312
-0.020215
-0.012973
-0.028837
-0.088960
-0.081649
-0.097296
-0.026926
-0.011506
-0.049879
-0.066209
-0.043137
0.017567
-0.012842
0.060689
0.050069
0.035837
0.044658
-0.049038
-0.048617
-0.006712
-0.001237
-0.009366
0.020738
0.001809
-0.002793
-0.118106
0.002663
-0.015982
-0.023106
-0.000891
-0.098876
-0.090119
-0.097098
-0.091665
-0.163815
-0.113049
-0.131622
-0.136048
-0.001501
0.001766
0.010921
-0.119444
-0.115098
-0.103234
-0.114115
-0.049368
0.031231
0.012397
-0.058446
-0.041066
0.000447
-0.055758
0.050264
0.058825
-0.056597
-0.081760
-0.055001
-0.075415
-0.007862
-0.017062
-0.009427
-0.067426
-0.063651
-0.070658
0.035040
0.112946
0.050300
-0.116189
-0.095330
-0.104202
-0.112024
-0.059744
-0.110426
-0.116371
-0.101782
-0.125681
-0.010116
-0.105367
-0.116295
-0.133124
-0.128532
0.004458
0.013305
0.013450
-0.011886
-0.012363
-0.058383
-0.035669
-0.034543
-0.004785
-0.009664
-0.012013
-0.008802
-0.010210
-0.042333
-0.036086
-0.073218
-0.091023
-0.118908
-0.078980
0.041847
0.050829
0.050603
0.028891
-0.042257
-0.048490
-0.039454
-0.034881
-0.030015
0.008117
0.000136
-0.002138
-0.110605
-0.111383
-0.015968
-0.007355
-0.046630
-0.019288
-0.009258
-0.013754
0.004793
-0.011849
-0.058046
-0.053587
-0.010358
-0.123546
-0.127065
-0.118255
0.001746
0.002938
-0.095904
-0.094407
-0.098637
-0.105126
-0.107443
-0.128532
-0.123811
0.004497
0.003054
-0.008666
-0.104157
-0.111005
-0.131501
0.024912
0.019453
0.025056
0.034363
-0.090070
-0.092931
-0.092957
-0.087371
0.058133
0.054074
0.066314
-0.127194
0.056528
-0.093924
0.004725
0.021380
0.023073
0.020123
0.040765
-0.118160
-0.123502
-0.117783
-0.001081
0.002862
0.014255
0.055252
0.066378
0.018161
-0.048118
-0.033763
0.042815
0.046619
0.062064
-0.007619
-0.050865
-0.045289
-0.082331
0.029753
-0.009644
0.040793
0.046880
0.017808
-0.054228
-0.013038
-0.006769
-0.005634
-0.011744
-0.012493
-0.027583
0.040209
-0.119258
-0.117791
-0.107876
-0.073821
-0.009352
-0.113837
-0.104801
-0.112790
-0.101174
-0.119347
0.029537
-0.032846
-0.051074
-0.038982
-0.035870
-0.008503
-0.042040
-0.052057
-0.039346
-0.048693
-0.053313
-0.000045
-0.104672
-0.106178
-0.120046
0.000580
-0.121100
-0.130076
-0.002648
0.035863
0.024562
0.058274
-0.122082
0.060298
0.031669
0.023481
-0.123340
-0.119686
-0.120291
0.006825
0.001922
0.002391
-0.140618
-0.050051
-0.083354
-0.054499
-0.075754
-0.080771
-0.087648
-0.138591
-0.135396
-0.132849
-0.108568
-0.092644
-0.056860
0.022416
-0.048699
-0.108064
0.046876
0.053281
0.031068
-0.077602
-0.074969
-0.013984
-0.017080
-0.026661
-0.019703
-0.021091
0.045671
-0.050526
-0.123478
-0.117196
0.012475
-0.008095
-0.003273
-0.128380
-0.127345
-0.123076
0.014079
0.013215
0.007636
-0.059113
-0.057252
-0.065987
-0.062426
-0.039815
-0.051880
-0.005183
-0.002932
0.018719
0.002656
-0.052894
-0.048169
-0.043271
-0.051757
-0.113957
-0.121259
-0.124865
-0.096807
-0.046543
-0.048170
-0.047337
-0.017994
-0.019557
-0.005901
-0.007764
-0.072154
-0.090328
-0.111491
-0.128830
-0.128326
0.057156
-0.018262
-0.023305
0.028581
0.048079
-0.001286
-0.134736
0.073087
-0.062752
-0.070157
-0.068866
-0.061900
-0.102762
-0.117329
-0.104386
-0.096484
-0.044896
-0.012362
-0.053462
-0.123290
-0.019112
-0.027192
-0.003296
-0.048296
-0.055371
-0.110471
-0.057541
0.068151
0.062730
0.072728
-0.040965
-0.059208
-0.013099
-0.111435
-0.003942
-0.003492
0.001522
0.009888
-0.012944
0.008371
0.007046
-0.027187
-0.018919
-0.052117
-0.054370
0.041149
0.050167
0.079345
-0.087268
-0.145098
-0.125193
0.084597
-0.119657
-0.118872
-0.131201
-0.096637
-0.126916
-0.137395
-0.132072
-0.139253
-0.068937
-0.064110
-0.064175
0.037310
-0.058882
-0.003254
-0.009641
-0.045651
-0.061225
-0.050842
-0.079705
-0.074662
-0.084998
-0.027098
-0.048208
-0.116057
-0.140992
-0.132474
-0.103914
-0.110681
-0.108411
0.004034
0.013602
-0.007123
-0.131063
-0.127586
-0.126396
0.010495
-0.001619
-0.016763
-0.006516
-0.045949
-0.122919
-0.119067
-0.000964
-0.002218
-0.006655
-0.026905
-0.011781
-0.053034
-0.058233
-0.134223
0.008936
0.023031
-0.119123
0.033373
0.039687
0.024891
0.025635
-0.127359
-0.157623
-0.108183
-0.051967
-0.067537
-0.059620
-0.001610
0.004222
-0.025872
-0.009635
-0.035682
-0.029906
-0.007977
-0.031214
-0.065997
-0.055075
-0.012222
-0.012715
-0.006982
-0.000663
-0.119642
-0.009193
-0.005900
-0.008342
-0.056481
-0.056694
0.038702
0.061409
0.020774
0.039546
0.038283
0.044508
0.023816
-0.014744
0.005649
-0.005731
0.038914
0.000708
-0.013412
-0.068789
-0.071482
-0.057281
-0.067611
-0.032687
-0.036597
-0.038289
0.038272
-0.020964
-0.052320
-0.034264
-0.050003
0.040139
0.028838
0.019205
-0.058293
-0.044232
0.034733
0.069832
0.022748
0.002253
0.017367
0.031306
0.025707
0.008726
0.027648
0.049696
0.049736
-0.019158
-0.007583
0.041333
-0.001226
0.087589
0.060439
0.012103
0.068158
0.075962
0.085536
-0.032495
-0.052613
-0.057474
-0.049672
-0.038791
-0.066488
0.024693
0.034903
0.043976
0.020187
0.043396
0.060256
0.074361
0.064444
-0.057674
-0.059086
-0.045210
-0.058186
-0.064316
-0.046037
-0.062685
-0.041289
-0.000294
-0.012728
-0.046932
-0.002954
0.069765
0.059515
0.076831
0.021756
0.005530
-0.009137
-0.000850
-0.013370
-0.122431
-0.122570
-0.018829
-0.039007
-0.004943
-0.018603
-0.130392
-0.124853
-0.122135
-0.134802
-0.063714
-0.071768
-0.069891
-0.062477
-0.045074
-0.039172
-0.013394
-0.005389
-0.060279
-0.050574
-0.049341
-0.041325
0.054595
0.059993
0.061121
0.063864
0.035762
-0.040741
-0.040588
-0.055071
0.077673
0.065088
0.066958
-0.021750
-0.021107
-0.010464
-0.027633
-0.049697
-0.048326
-0.041225
-0.040854
-0.065531
-0.054761
-0.058371
-0.056393
-0.015930
-0.000139
0.074839
-0.009987
-0.044813
-0.053535
-0.061979
0.031762
-0.121263
-0.048490
-0.003009
-0.000112
0.002297
-0.000493
-0.004865
0.001988
-0.054773
-0.077532
-0.015898
-0.021304
-0.000172
-0.122536
-0.024457
-0.009263
-0.020627
0.004653
0.003228
-0.057998
-0.061141
0.000375
-0.011451
0.002286
-0.011020
-0.117038
-0.083441
-0.109137
-0.113128
-0.026925
-0.010608
-0.006311
-0.022676
-0.015630
-0.018070
-0.052003
-0.059524
-0.014801
-0.013053
-0.017376
-0.013772
-0.027664
-0.111470
-0.111537
-0.096765
-0.117837
-0.104232
-0.102464
-0.124306
-0.022867
-0.062378
-0.063262
-0.061402
-0.049142
0.069841
0.029495
0.043964
0.047845
0.002345
0.009911
-0.000935
-0.008304
-0.005788
-0.006990
-0.016034
-0.028477
-0.045733
-0.065653
-0.063555
0.034622
-0.009144
-0.048712
0.009073
-0.060883
-0.056406
-0.073249
-0.059236
-0.006615
-0.132193
-0.126851
0.023261
0.001404
0.029386
0.030427
-0.009074
-0.057649
-0.057593
-0.013279
-0.147712
-0.006638
-0.000147
-0.010098
0.045926
0.038862
0.040319
-0.105661
-0.068980
-0.090373
-0.103083
-0.064195
-0.056338
0.002606
-0.054454
-0.063492
-0.060252
-0.059064
-0.015906
-0.038669
-0.001340
0.032061
0.040536
0.048591
0.034068
0.041466
-0.004614
0.001307
-0.000885
-0.009287
-0.031858
-0.025399
-0.063778
-0.015418
-0.023037
-0.011107
-0.004912
-0.002712
0.002232
-0.015262
-0.051364
-0.008303
-0.004103
-0.120446
0.036959
0.042909
0.045754
-0.059065
-0.058959
-0.129330
-0.125260
-0.095131
-0.099206
-0.134206
-0.136638
-0.136095
-0.132672
0.039198
0.050699
-0.016429
-0.051766
-0.061465
0.007206
-0.023835
-0.011242
0.036443
-0.000578
-0.094867
-0.092435
-0.055107
-0.112793
-0.101688
-0.115027
-0.125714