# vtk DataFile Version 2.0
Test
ASCII
DATASET POLYDATA
POINTS 7607 float
0.000000 0.000000 0.000000
1.000000 0.000000 0.000000
1.000000 0.800000 0.000000
1.000000 1.000000 0.000000
0.000000 1.000000 0.000000
0.000000 0.200000 0.000000
0.300000 0.330000 0.000000
0.700000 0.680000 0.000000
0.012987 0.000000 0.000000
0.025974 0.000000 0.000000
0.038961 0.000000 0.000000
0.051948 0.000000 0.000000
0.064935 0.000000 0.000000
0.077922 0.000000 0.000000
0.090909 0.000000 0.000000
0.103896 0.000000 0.000000
0.116883 0.000000 0.000000
0.129870 0.000000 0.000000
0.142857 0.000000 0.000000
0.155844 0.000000 0.000000
0.168831 0.000000 0.000000
0.181818 0.000000 0.000000
0.194805 0.000000 0.000000
0.207792 0.000000 0.000000
0.220779 0.000000 0.000000
0.233766 0.000000 0.000000
0.246753 0.000000 0.000000
0.259740 0.000000 0.000000
0.272727 0.000000 0.000000
0.285714 0.000000 0.000000
0.298701 0.000000 0.000000
0.311688 0.000000 0.000000
0.324675 0.000000 0.000000
0.337662 0.000000 0.000000
0.350649 0.000000 0.000000
0.363636 0.000000 0.000000
0.376623 0.000000 0.000000
0.389610 0.000000 0.000000
0.402597 0.000000 0.000000
0.415584 0.000000 0.000000
0.428571 0.000000 0.000000
0.441558 0.000000 0.000000
0.454545 0.000000 0.000000
0.467532 0.000000 0.000000
0.480519 0.000000 0.000000
0.493506 0.000000 0.000000
0.506494 0.000000 0.000000
0.519481 0.000000 0.000000
0.532468 0.000000 0.000000
0.545455 0.000000 0.000000
0.558442 0.000000 0.000000
0.571429 0.000000 0.000000
0.584416 0.000000 0.000000
0.597403 0.000000 0.000000
0.610390 0.000000 0.000000
0.623377 0.000000 0.000000
0.636364 0.000000 0.000000
0.649351 0.000000 0.000000
0.662338 0.000000 0.000000
0.675325 0.000000 0.000000
0.688312 0.000000 0.000000
0.701299 0.000000 0.000000
0.714286 0.000000 0.000000
0.727273 0.000000 0.000000
0.740260 0.000000 0.000000
0.753247 0.000000 0.000000
0.766234 0.000000 0.000000
0.779221 0.000000 0.000000
0.792208 0.000000 0.000000
0.805195 0.000000 0.000000
0.818182 0.000000 0.000000
0.831169 0.000000 0.000000
0.844156 0.000000 0.000000
0.857143 0.000000 0.000000
0.870130 0.000000 0.000000
0.883117 0.000000 0.000000
0.896104 0.000000 0.000000
0.909091 0.000000 0.000000
0.922078 0.000000 0.000000
0.935065 0.000000 0.000000
0.948052 0.000000 0.000000
0.961039 0.000000 0.000000
0.974026 0.000000 0.000000
0.987013 0.000000 0.000000
1.000000 0.012903 0.000000
1.000000 0.025806 0.000000
1.000000 0.038710 0.000000
1.000000 0.051613 0.000000
1.000000 0.064516 0.000000
1.000000 0.077419 0.000000
1.000000 0.090323 0.000000
1.000000 0.103226 0.000000
1.000000 0.116129 0.000000
1.000000 0.129032 0.000000
1.000000 0.141935 0.000000
1.000000 0.154839 0.000000
1.000000 0.167742 0.000000
1.000000 0.180645 0.000000
1.000000 0.193548 0.000000
1.000000 0.206452 0.000000
1.000000 0.219355 0.000000
1.000000 0.232258 0.000000
1.000000 0.245161 0.000000
1.000000 0.258065 0.000000
1.000000 0.270968 0.000000
1.000000 0.283871 0.000000
1.000000 0.296774 0.000000
1.000000 0.309677 0.000000
1.000000 0.322581 0.000000
1.000000 0.335484 0.000000
1.000000 0.348387 0.000000
1.000000 0.361290 0.000000
1.000000 0.374194 0.000000
1.000000 0.387097 0.000000
1.000000 0.400000 0.000000
1.000000 0.412903 0.000000
1.000000 0.425806 0.000000
1.000000 0.438710 0.000000
1.000000 0.451613 0.000000
1.000000 0.464516 0.000000
1.000000 0.477419 0.000000
1.000000 0.490323 0.000000
1.000000 0.503226 0.000000
1.000000 0.516129 0.000000
1.000000 0.529032 0.000000
1.000000 0.541935 0.000000
1.000000 0.554839 0.000000
1.000000 0.567742 0.000000
1.000000 0.580645 0.000000
1.000000 0.593548 0.000000
1.000000 0.606452 0.000000
1.000000 0.619355 0.000000
1.000000 0.632258 0.000000
1.000000 0.645161 0.000000
1.000000 0.658065 0.000000
1.000000 0.670968 0.000000
1.000000 0.683871 0.000000
1.000000 0.696774 0.000000
1.000000 0.709677 0.000000
1.000000 0.722581 0.000000
1.000000 0.735484 0.000000
1.000000 0.748387 0.000000
1.000000 0.761290 0.000000
1.000000 0.774194 0.000000
1.000000 0.787097 0.000000
1.000000 0.812500 0.000000
1.000000 0.825000 0.000000
1.000000 0.837500 0.000000
1.000000 0.850000 0.000000
1.000000 0.862500 0.000000
1.000000 0.875000 0.000000
1.000000 0.887500 0.000000
1.000000 0.900000 0.000000
1.000000 0.912500 0.000000
1.000000 0.925000 0.000000
1.000000 0.937500 0.000000
1.000000 0.950000 0.000000
1.000000 0.962500 0.000000
1.000000 0.975000 0.000000
1.000000 0.987500 0.000000
0.987013 1.000000 0.000000
0.974026 1.000000 0.000000
0.961039 1.000000 0.000000
0.948052 1.000000 0.000000
0.935065 1.000000 0.000000
0.922078 1.000000 0.000000
0.909091 1.000000 0.000000
0.896104 1.000000 0.000000
0.883117 1.000000 0.000000
0.870130 1.000000 0.000000
0.857143 1.000000 0.000000
0.844156 1.000000 0.000000
0.831169 1.000000 0.000000
0.818182 1.000000 0.000000
0.805195 1.000000 0.000000
0.792208 1.000000 0.000000
0.779221 1.000000 0.000000
0.766234 1.000000 0.000000
0.753247 1.000000 0.000000
0.740260 1.000000 0.000000
0.727273 1.000000 0.000000
0.714286 1.000000 0.000000
0.701299 1.000000 0.000000
0.688312 1.000000 0.000000
0.675325 1.000000 0.000000
0.662338 1.000000 0.000000
0.649351 1.000000 0.000000
0.636364 1.000000 0.000000
0.623377 1.000000 0.000000
0.610390 1.000000 0.000000
0.597403 1.000000 0.000000
0.584416 1.000000 0.000000
0.571429 1.000000 0.000000
0.558442 1.000000 0.000000
0.545455 1.000000 0.000000
0.532468 1.000000 0.000000
0.519481 1.000000 0.000000
0.506494 1.000000 0.000000
0.493506 1.000000 0.000000
0.480519 1.000000 0.000000
0.467532 1.000000 0.000000
0.454545 1.000000 0.000000
0.441558 1.000000 0.000000
0.428571 1.000000 0.000000
0.415584 1.000000 0.000000
0.402597 1.000000 0.000000
0.389610 1.000000 0.000000
0.376623 1.000000 0.000000
0.363636 1.000000 0.000000
0.350649 1.000000 0.000000
0.337662 1.000000 0.000000
0.324675 1.000000 0.000000
0.311688 1.000000 0.000000
0.298701 1.000000 0.000000
0.285714 1.000000 0.000000
0.272727 1.000000 0.000000
0.259740 1.000000 0.000000
0.246753 1.000000 0.000000
0.233766 1.000000 0.000000
0.220779 1.000000 0.000000
0.207792 1.000000 0.000000
0.194805 1.000000 0.000000
0.181818 1.000000 0.000000
0.168831 1.000000 0.000000
0.155844 1.000000 0.000000
0.142857 1.000000 0.000000
0.129870 1.000000 0.000000
0.116883 1.000000 0.000000
0.103896 1.000000 0.000000
0.090909 1.000000 0.000000
0.077922 1.000000 0.000000
0.064935 1.000000 0.000000
0.051948 1.000000 0.000000
0.038961 1.000000 0.000000
0.025974 1.000000 0.000000
0.012987 1.000000 0.000000
0.000000 0.987097 0.000000
0.000000 0.974194 0.000000
0.000000 0.961290 0.000000
0.000000 0.948387 0.000000
0.000000 0.935484 0.000000
0.000000 0.922581 0.000000
0.000000 0.909677 0.000000
0.000000 0.896774 0.000000
0.000000 0.883871 0.000000
0.000000 0.870968 0.000000
0.000000 0.858065 0.000000
0.000000 0.845161 0.000000
0.000000 0.832258 0.000000
0.000000 0.819355 0.000000
0.000000 0.806452 0.000000
0.000000 0.793548 0.000000
0.000000 0.780645 0.000000
0.000000 0.767742 0.000000
0.000000 0.754839 0.000000
0.000000 0.741935 0.000000
0.000000 0.729032 0.000000
0.000000 0.716129 0.000000
0.000000 0.703226 0.000000
0.000000 0.690323 0.000000
0.000000 0.677419 0.000000
0.000000 0.664516 0.000000
0.000000 0.651613 0.000000
0.000000 0.638710 0.000000
0.000000 0.625806 0.000000
0.000000 0.612903 0.000000
0.000000 0.600000 0.000000
0.000000 0.587097 0.000000
0.000000 0.574194 0.000000
0.000000 0.561290 0.000000
0.000000 0.548387 0.000000
0.000000 0.535484 0.000000
0.000000 0.522581 0.000000
0.000000 0.509677 0.000000
0.000000 0.496774 0.000000
0.000000 0.483871 0.000000
0.000000 0.470968 0.000000
0.000000 0.458065 0.000000
0.000000 0.445161 0.000000
0.000000 0.432258 0.000000
0.000000 0.419355 0.000000
0.000000 0.406452 0.000000
0.000000 0.393548 0.000000
0.000000 0.380645 0.000000
0.000000 0.367742 0.000000
0.000000 0.354839 0.000000
0.000000 0.341935 0.000000
0.000000 0.329032 0.000000
0.000000 0.316129 0.000000
0.000000 0.303226 0.000000
0.000000 0.290323 0.000000
0.000000 0.277419 0.000000
0.000000 0.264516 0.000000
0.000000 0.251613 0.000000
0.000000 0.238710 0.000000
0.000000 0.225806 0.000000
0.000000 0.212903 0.000000
0.000000 0.187500 0.000000
0.000000 0.175000 0.000000
0.000000 0.162500 0.000000
0.000000 0.150000 0.000000
0.000000 0.137500 0.000000
0.000000 0.125000 0.000000
0.000000 0.112500 0.000000
0.000000 0.100000 0.000000
0.000000 0.087500 0.000000
0.000000 0.075000 0.000000
0.000000 0.062500 0.000000
0.000000 0.050000 0.000000
0.000000 0.037500 0.000000
0.000000 0.025000 0.000000
0.000000 0.012500 0.000000
0.309756 0.338537 0.000000
0.319512 0.347073 0.000000
0.329268 0.355610 0.000000
0.339024 0.364146 0.000000
0.348780 0.372683 0.000000
0.358537 0.381220 0.000000
0.368293 0.389756 0.000000
0.378049 0.398293 0.000000
0.387805 0.406829 0.000000
0.397561 0.415366 0.000000
0.407317 0.423902 0.000000
0.417073 0.432439 0.000000
0.426829 0.440976 0.000000
0.436585 0.449512 0.000000
0.446341 0.458049 0.000000
0.456098 0.466585 0.000000
0.465854 0.475122 0.000000
0.475610 0.483659 0.000000
0.485366 0.492195 0.000000
0.495122 0.500732 0.000000
0.504878 0.509268 0.000000
0.514634 0.517805 0.000000
0.524390 0.526341 0.000000
0.534146 0.534878 0.000000
0.543902 0.543415 0.000000
0.553659 0.551951 0.000000
0.563415 0.560488 0.000000
0.573171 0.569024 0.000000
0.582927 0.577561 0.000000
0.592683 0.586098 0.000000
0.602439 0.594634 0.000000
0.612195 0.603171 0.000000
0.621951 0.611707 0.000000
0.631707 0.620244 0.000000
0.641463 0.628780 0.000000
0.651220 0.637317 0.000000
0.660976 0.645854 0.000000
0.670732 0.654390 0.000000
0.680488 0.662927 0.000000
0.690244 0.671463 0.000000
0.011538 0.205000 0.000000
0.023077 0.210000 0.000000
0.034615 0.215000 0.000000
0.046154 0.220000 0.000000
0.057692 0.225000 0.000000
0.069231 0.230000 0.000000
0.080769 0.235000 0.000000
0.092308 0.240000 0.000000
0.103846 0.245000 0.000000
0.115385 0.250000 0.000000
0.126923 0.255000 0.000000
0.138462 0.260000 0.000000
0.150000 0.265000 0.000000
0.161538 0.270000 0.000000
0.173077 0.275000 0.000000
[...]
POINT_DATA 7607
SCALARS UX float 1
LOOKUP_TABLE default
0.005302
0.002051
-0.009923
-0.110247
-0.213473
-0.082157
-0.089543
-0.065041
-0.001660
0.000050
-0.001269
0.001168
0.010893
-0.000006
-0.000167
0.009639
0.000275
0.000191
-0.000253
0.000116
0.000094
-0.000049
-0.000153
0.000189
-0.000092
0.000249
0.000054
-0.000957
-0.000064
-0.000108
-0.000404
-0.007295
0.000142
-0.000128
-0.000059
-0.000315
0.000231
0.000170
0.002032
0.000067
0.001019
-0.001678
-0.000031
0.003909
0.000136
0.000203
-0.002528
-0.000026
-0.000209
0.000022
0.000065
-0.003634
-0.000177
-0.001242
-0.000055
-0.000029
-0.000070
-0.000057
0.000000
-0.000544
-0.000877
0.000262
-0.000189
-0.000240
0.004597
0.000451
-0.006983
0.000229
0.001924
0.000177
-0.000760
-0.000428
-0.005466
-0.000538
0.004817
0.002520
-0.005787
-0.000069
-0.000690
0.001530
0.000183
-0.000268
-0.000143
-0.009158
-0.001252
0.013313
0.005484
0.012996
0.009316
0.010491
0.008805
0.016941
0.034932
0.033340
0.025978
0.032089
0.025260
0.049549
0.023873
0.028208
0.045557
0.046087
0.046667
0.056911
0.048734
0.058328
0.065198
0.046101
0.059413
0.071964
0.057093
0.084786
0.073917
0.074596
0.079042
0.071035
0.086874
0.081781
0.099579
0.073805
0.092432
0.096968
0.083530
0.086801
0.107908
0.087869
0.097992
0.100395
0.083525
0.096279
0.101811
0.080477
0.102199
0.068844
0.076089
0.074333
0.079022
0.066949
0.078848
0.055330
0.048497
0.049775
0.040517
0.050714
0.026761
-0.012979
-0.010431
-0.054661
-0.055571
-0.106241
-0.057101
-0.078407
-0.083124
-0.083308
-0.084608
-0.099635
-0.097182
-0.075725
-0.110492
-0.100462
-0.089391
-0.104233
-0.102738
-0.119711
-0.114110
-0.116313
-0.112792
-0.123516
-0.120687
-0.121586
-0.120842
-0.124068
-0.121573
-0.119057
-0.126210
-0.130063
-0.119548
-0.134294
-0.136119
-0.130598
-0.129803
-0.131980
-0.128975
-0.132703
-0.134919
-0.134611
-0.137612
-0.134670
-0.138019
-0.139720
-0.136708
-0.144675
-0.143391
-0.146463
-0.148188
-0.147087
-0.144250
-0.149180
-0.148337
-0.149030
-0.150358
-0.151173
-0.160983
-0.149004
-0.153441
-0.163354
-0.155204
-0.163963
-0.158176
-0.169691
-0.171703
-0.174946
-0.179234
-0.180033
-0.176979
-0.187513
-0.177338
-0.191174
-0.197417
-0.180581
-0.204120
-0.193930
-0.195955
-0.193026
-0.203045
-0.212977
-0.203356
-0.211654
-0.215752
-0.210430
-0.213617
-0.215403
-0.221999
-0.221263
-0.220288
-0.224317
-0.228236
-0.226488
-0.225684
-0.216087
-0.217546
-0.208530
-0.216762
-0.217415
-0.225910
-0.221236
-0.218089
-0.244488
-0.228570
-0.229891
-0.224795
-0.229514
-0.238426
-0.233697
-0.229953
-0.224723
-0.236017
-0.236355
-0.233815
-0.229831
-0.243019
-0.230243
-0.229306
-0.249575
-0.238159
-0.237632
-0.217798
-0.204270
-0.218902
-0.231440
-0.233298
-0.234312
-0.227008
-0.236546
-0.229904
-0.243466
-0.225345
-0.230440
-0.221818
-0.227136
-0.224023
-0.221943
-0.222441
-0.233833
-0.206948
-0.220914
-0.202810
-0.203359
-0.198092
-0.193378
-0.177408
-0.171353
-0.145387
-0.171468
-0.132087
-0.130222
-0.131727
-0.113643
-0.053462
-0.088308
-0.062110
-0.007522
-0.053291
-0.034297
-0.034326
-0.023372
-0.026165
-0.015005
-0.023575
-0.022804
-0.009222
-0.006759
-0.073889
-0.069177
-0.128909
-0.150253
-0.118111
-0.101961
-0.111645
-0.117520
-0.081463
-0.088108
-0.136535
-0.091721
0.007143
-0.061707
-0.117865
-0.050928
-0.019731
-0.093096
-0.100807
-0.085783
-0.002812
-0.066759
-0.165974
-0.081066
-0.061977
-0.104100
-0.103101
-0.103724
-0.057646
-0.042643
0.020845
-0.076532
-0.054714
0.033146
0.008222
0.060451
-0.089138
-0.052243
-0.129409
-0.132803
-0.100970
-0.139769
-0.066671
-0.112280
-0.105153
-0.140654
-0.130023
-0.100015
-0.114474
-0.061716
-0.126875
-0.085854
-0.135349
-0.110303
-0.091012
-0.179733
-0.132415
-0.100808
-0.097631
-0.175453
-0.093268
-0.120783
-0.137408
-0.102569
-0.121878
-0.056818
0.030179
-0.003641
0.081652
-0.006191
0.065855
0.007248
-0.058601
0.018394
-0.036695
0.016678
-0.031644
-0.001102
0.004610
-0.042851
-0.002264
-0.000923
-0.001125
0.002459
-0.003853
-0.011627
0.014756
0.028116
-0.040694
-0.121176
-0.131078
-0.135969
-0.128244
0.044791
0.030054
0.023822
-0.188334
-0.171938
-0.174755
-0.152412
-0.138361
-0.107719
-0.012221
0.007074
0.009880
-0.168806
-0.202067
-0.205123
-0.232909
0.032332
0.011356
0.021860
0.008565
-0.065665
-0.021507
-0.075544
-0.046789
-0.000569
-0.005691
-0.106984
-0.132815
-0.234342
-0.180411
-0.077463
-0.049101
0.014041
0.002396
-0.006187
-0.006365
-0.204651
-0.202830
-0.216022
-0.222662
-0.054469
-0.086308
-0.019467
-0.035059
0.061629
0.043120
0.063488
-0.119965
-0.128647
0.051075
0.036888
0.011841
0.054317
-0.143216
-0.132150
-0.124170
-0.065242
-0.140987
-0.126318
-0.097924
-0.082663
-0.090916
-0.037787
-0.052840
-0.025511
-0.123984
-0.205823
-0.209105
-0.019075
0.018746
0.022919
-0.008702
-0.015483
-0.016482
-0.162509
-0.161895
-0.163610
-0.021554
-0.139160
-0.135612
-0.118632
0.025820
0.034461
0.004146
0.022605
0.002064
-0.012673
-0.018705
-0.054760
-0.022845
-0.024101
-0.022284
0.030584
0.067459
0.076741
-0.177308
-0.118299
-0.136372
-0.095185
-0.081305
-0.109535
-0.083240
-0.158259
-0.129637
-0.181401
-0.124926
-0.018958
0.010233
0.005986
0.005528
0.055034
0.048302
-0.133920
-0.127961
-0.121331
0.022660
0.025651
0.006702
-0.100637
-0.094186
-0.115404
-0.104253
0.035812
0.022867
0.051374
0.030089
-0.005647
-0.121484
-0.022912
0.000049
-0.006335
-0.007626
-0.206872
-0.174035
-0.173482
-0.217189
-0.136736
-0.170297
-0.157291
-0.145236
-0.114614
-0.125162
-0.123383
-0.118079
-0.051804
-0.010442
-0.006855
-0.005674
-0.000686
-0.230626
-0.205367
-0.230579
-0.012262
-0.010854
-0.003788
-0.231374
-0.210475
-0.211199
-0.015753
-0.099297
-0.110537
-0.126061
-0.204554
-0.198667
-0.173956
-0.205882
-0.201347
-0.208412
-0.191388
0.078003
0.062643
0.067874
0.069682
0.061132
0.036974
0.053736
0.027946
0.039699
0.028854
-0.154996
-0.143534
-0.125448
-0.143653
-0.139154
-0.137090
-0.009308
-0.021613
-0.014892
-0.007719
0.011007
0.035767
-0.006208
-0.038238
-0.024773
-0.034963
-0.058632
-0.181469
-0.191437
-0.196262
-0.175201
0.027553
0.055379
0.026924
0.026339
0.034745
0.029687
0.046417
0.076194
0.070293
0.066104
-0.028322
0.123705
-0.211394
-0.197376
-0.204572
-0.087948
-0.098634
-0.100094
-0.067677
0.041950
0.064100
0.071874
0.080294
0.027738
0.041591
0.008446
-0.143834
-0.149612
-0.207974
-0.190626
-0.172250
-0.178003
-0.198924
-0.186303
-0.199869
-0.001304
-0.015500
0.006820
-0.170085
-0.174199
-0.153560
-0.004916
0.020171
-0.016206
0.050006
0.041806
0.072083
-0.005462
-0.020240
-0.019547
-0.021662
-0.026357
-0.210211
-0.221249
-0.011007
-0.021069
-0.005360
0.010609
0.009611
-0.000338
-0.018455
-0.003713
0.011717
-0.091208
-0.083176
-0.210785
-0.223075
-0.199652
-0.025168
-0.031909
0.068836
0.062433
0.009150
0.048630
0.013740
0.049766
0.015857
-0.002725
-0.000857
0.006274
-0.198680
-0.211623
-0.229422
-0.180500
-0.209471
-0.180028
-0.237171
-0.156744
0.023581
-0.017315
0.021005
0.044428
-0.229082
-0.212524
-0.189646
-0.183090
0.031738
0.091234
0.068648
0.051304
0.028527
-0.117549
-0.108693
-0.108392
0.018499
-0.098266
-0.108073
-0.122299
0.058895
-0.114490
-0.211940
-0.241236
-0.201052
-0.013440
0.012756
-0.013170
-0.176609
-0.184945
-0.167099
-0.016367
-0.009692
0.003143
0.049778
0.035375
0.005780
0.021731
-0.107496
-0.113382
-0.087800
-0.128894
-0.161056
-0.209651
-0.182508
0.018674
0.031492
-0.000982
0.015707
0.013590
0.015031
-0.203239
-0.222585
-0.224913
-0.134363
-0.108287
-0.187995
-0.023089
-0.041478
0.060963
0.005267
-0.014680
0.027446
0.024478
0.026705
-0.179911
-0.226468
-0.186946
-0.221094
-0.227096
-0.187340
-0.022125
0.013830
-0.011825
-0.016773
0.079315
0.037461
0.044778
0.034902
-0.009266
-0.000935
0.033565
0.026720
0.029307
0.032144
-0.161097
-0.159773
-0.128613
0.008576
0.006092
0.005836
0.003648
-0.026365
-0.000332
-0.013135
-0.223659
-0.141140
-0.133807
-0.153722
-0.197700
-0.213880
-0.248281
-0.095712
-0.105408
-0.087113
-0.038520
-0.027908
-0.019059
-0.101377
-0.100924
-0.105505
-0.079210
-0.091638
0.008259
-0.008021
-0.181807
-0.210483
-0.202301
0.076286
0.044853
-0.125191
-0.156261
-0.026035
0.003891
-0.020752
0.006065
-0.024074
-0.031852
-0.018721
0.011738
0.021981
0.022561
-0.109602
-0.118113
-0.045194
0.001449
-0.006406
-0.147133
-0.141125
-0.141290
0.017158
-0.190290
-0.190868
-0.192116
0.106890
0.034556
0.022037
-0.219471
-0.217584
0.054252
0.049926
-0.192602
-0.184474
-0.195499
-0.133084
-0.091806
-0.007170
-0.028141
-0.008680
-0.007402
-0.023649
-0.194778
-0.190167
-0.227985
-0.235401
-0.181396
0.049843
0.069537
-0.220704
-0.203112
-0.204689
0.015649
0.008422
-0.093661
-0.105410
-0.096739
-0.100186
0.005209
0.011558
0.002325
-0.229999
-0.204392
-0.208719
-0.196445
-0.203362
-0.193105
-0.217923
-0.193763
-0.226089
-0.182522
0.002422
-0.004156
-0.003035
-0.003480
-0.026826
-0.012743
-0.008649
-0.222926
-0.227549
-0.227608
-0.102421
-0.073793
-0.078950
-0.093699
-0.195275
-0.195184
-0.198453
-0.219408
-0.221680
-0.235123
0.065844
0.101863
-0.226036
0.024542
-0.010939
-0.208646
-0.025029
-0.140799
0.082993
-0.226892
-0.200416
-0.018726
-0.237446
-0.232789
0.030431
-0.003502
-0.000409
-0.039892
-0.033217
-0.005326
-0.001003
-0.011635
0.048334
0.104789
0.062426
0.058107
0.083670
0.089559
-0.172223
-0.172270
-0.173412
-0.170569
0.021289
0.010944
0.022151
-0.037339
-0.008436
-0.076998
-0.093564
0.054346
0.032250
-0.234973
-0.226199
-0.221797
-0.218506
-0.013090
-0.061711
-0.039051
-0.030695
0.035843
0.065801
0.021610
0.076079
0.041336
-0.120096
-0.113286
-0.116996
0.023535
-0.193420
-0.188436
-0.211358
-0.134987
-0.132301
-0.034535
-0.008652
-0.021028
-0.015075
-0.131291
-0.103573
-0.116255
-0.113710
-0.117429
-0.116224
0.000274
0.003001
0.033468
0.033918
0.047124
0.008160
-0.084874
-0.102542
-0.108885
-0.118391
-0.098448
-0.233523
-0.079578
0.024685
0.002053
-0.011352
-0.025994
-0.022951
-0.143077
-0.147805
-0.221596
-0.205998
-0.193670
-0.185108
-0.141221
-0.176185
-0.185771
-0.176249
-0.213146
0.110598
0.022111
0.022292
0.020499
0.018809
-0.019104
-0.019654
0.019998
-0.206828
-0.205484
-0.218810
-0.013239
-0.017109
-0.179758
-0.198931
-0.213518
-0.182917
-0.015001
-0.019235
-0.024075
-0.210233
-0.006090
-0.010819
-0.211255
-0.207050
0.026704
0.017503
0.022565
0.017464
0.004918
0.008425
-0.002086
-0.002203
-0.212098
-0.247649
-0.241217
-0.184463
-0.176468
-0.181959
-0.160620
-0.010387
-0.013312
-0.026187
-0.020679
0.035465
0.036928
0.036794
0.008481
0.013325
0.030877
0.002834
-0.030454
-0.100218
-0.106387
-0.117666
-0.121490
-0.116588
-0.227083
-0.222702
-0.223168
-0.136744
-0.144810
-0.169655
-0.144405
0.073600
0.027775
-0.030779
-0.027927
-0.220582
-0.138513
-0.129335
-0.117507
-0.226048
-0.207347
-0.221177
-0.138612
-0.137065
-0.100301
-0.083467
-0.030513
-0.122050
-0.023454
0.066145
-0.016599
0.061184
0.060172
-0.020408
-0.010554
-0.007315
0.014265
-0.092654
-0.092905
-0.013413
-0.189262
-0.216827
-0.011446
-0.001667
-0.120046
-0.200147
-0.025760
-0.038892
-0.030548
-0.023483
-0.100663
-0.100699
-0.081901
-0.018141
-0.000853
-0.235652
-0.024125
0.010358
-0.055458
-0.206672
-0.201928
-0.207098
0.027837
0.002529
-0.014190
-0.198358
0.029850
0.035283
-0.032874
-0.252671
-0.208166
-0.232588
-0.070299
-0.043648
-0.006992
-0.005047
-0.126023
-0.151210
-0.122707
-0.112578
-0.100434
-0.133618
-0.004106
-0.010567
0.011392
0.008545
-0.011329
-0.001607
0.004629
-0.032355
-0.009872
-0.096749
-0.109930
-0.127375
-0.103740
-0.094467
-0.113538
-0.110008
-0.103581
-0.036503
-0.012341
-0.221247
-0.199446
-0.212745
-0.161487
-0.145096
-0.149522
-0.146362
-0.015602
-0.008956
-0.120931
-0.104526
-0.101768
0.038074
0.034938
0.058614
0.015155
-0.223620
-0.092614
-0.013416
0.005631
-0.005790
-0.207355
0.027586
0.016844
0.032717
0.000107
-0.233484
0.005445
0.012110
0.001803
0.018800
0.006745
-0.082990
-0.114760
-0.117370
-0.107338
-0.004079
-0.008294
-0.003925
-0.004688
0.088563
0.096254
0.087685
0.088942
-0.213909
-0.231382
-0.201640
-0.157534
-0.153419
0.014196
0.006130
0.024417
0.004141
0.015217
-0.012881
0.031097
-0.127814
-0.160080
0.050877
0.040638
0.073602
-0.204561
-0.158080
-0.222135
-0.194655
-0.200687
-0.120654
0.053746
0.063666
0.046995
0.051534
-0.012521
-0.127182
-0.132956
-0.175062
0.004952
0.009971
-0.182452
0.030499
0.029832
-0.150287
-0.139540
-0.148724
-0.208175
-0.215224
-0.018210
-0.184611
-0.177770
-0.164265
-0.186885
0.083245
0.074596
0.095319
0.108010
-0.172177
-0.130551
-0.164096
-0.148551
-0.177600
0.009253
0.030370
0.035121
0.066235
0.062961
0.075040
-0.016516
-0.023888
-0.016812
-0.234298
0.033415
-0.222843
-0.216895
-0.199614
-0.218147
-0.206949
-0.200759
-0.162652
-0.227484
0.004341
-0.017639
-0.201306
0.023791
-0.022081
-0.011640
-0.017855
-0.148391
-0.140040
-0.139214
-0.041741
-0.019610
0.009065
0.008438
0.018519
-0.073406
-0.026166
-0.010698
-0.011857
-0.097003
-0.106419
-0.104016
0.041714
0.030553
0.022850
-0.007364
-0.013717
-0.206535
-0.203864
-0.207435
-0.114680
-0.225662
-0.236156
-0.241500
-0.198400
-0.213859
-0.187485
-0.054583
-0.054113
-0.081183
-0.133608
-0.137679
-0.150949
-0.035809
-0.014290
-0.072683
-0.141050
-0.107989
0.023506
-0.016671
0.085615
0.069711
0.048906
0.058869
-0.118299
-0.117647
-0.008497
-0.001409
-0.011422
0.022798
0.001967
-0.008471
-0.208991
0.003670
-0.019044
-0.030464
-0.001215
-0.180263
-0.170092
-0.168929
-0.161084
-0.256275
-0.202034
-0.226697
-0.232178
-0.001656
0.002125
0.017913
-0.193424
-0.187815
-0.164949
-0.183102
-0.117645
0.050545
0.004828
-0.125149
-0.102929
-0.027134
-0.121098
0.064913
0.084661
-0.124446
-0.157494
-0.083143
-0.120520
-0.009594
-0.020796
-0.012237
-0.136952
-0.133025
-0.140855
0.041293
0.142596
0.061418
-0.207826
-0.154011
-0.172474
-0.186228
-0.128535
-0.186759
-0.200423
-0.173108
-0.204701
-0.010948
-0.182221
-0.206561
-0.228336
-0.223993
0.007730
0.019116
0.015824
-0.014503
-0.011838
-0.127071
-0.099601
-0.097887
-0.005793
-0.012709
-0.013484
-0.013639
-0.012397
-0.104893
-0.099778
-0.118882
-0.140878
-0.189407
-0.128702
0.055608
0.070705
0.067617
0.030892
-0.109680
-0.116472
-0.055291
-0.052997
-0.037224
0.010629
-0.000282
-0.003181
-0.179104
-0.182227
-0.020440
-0.009031
-0.113194
-0.073893
-0.011303
-0.017711
0.004764
-0.013880
-0.126357
-0.119524
-0.012776
-0.216542
-0.221024
-0.200905
0.003069
0.003702
-0.174806
-0.172778
-0.176979
-0.174593
-0.179285
-0.222551
-0.217308
0.004423
0.003903
-0.010387
-0.191539
-0.199283
-0.224344
0.032635
0.020751
0.030328
0.044880
-0.166931
-0.148925
-0.158211
-0.138578
0.070898
0.065226
0.080170
-0.220946
0.066099
-0.178629
0.007288
0.011428
0.027368
0.017492
0.051727
-0.209127
-0.213922
-0.209493
0.000231
0.004533
0.016118
0.077017
0.088089
0.035326
-0.066313
-0.046652
0.057979
0.067438
0.084356
-0.013427
-0.077264
-0.062831
-0.106550
0.038544
-0.011759
0.042261
0.050935
0.017850
-0.122279
-0.016335
-0.008629
-0.007387
-0.015536
-0.015133
-0.084552
0.044785
-0.192531
-0.178557
-0.182024
-0.125169
-0.014342
-0.183250
-0.167430
-0.185159
-0.161486
-0.197156
0.035668
-0.093328
-0.118301
-0.099367
-0.095045
-0.010877
-0.105181
-0.118183
-0.106029
-0.114684
-0.121503
0.000807
-0.190733
-0.193036
-0.212104
0.000992
-0.212631
-0.223468
-0.004345
0.036038
0.026054
0.061049
-0.201598
0.083085
0.040940
0.023771
-0.215709
-0.209840
-0.211591
0.011246
0.002603
0.002789
-0.228243
-0.115015
-0.132247
-0.123365
-0.147987
-0.157073
-0.165263
-0.226211
-0.220736
-0.219363
-0.182580
-0.145950
-0.124198
0.029133
-0.113422
-0.171951
0.055575
0.064176
0.034355
-0.150793
-0.148026
-0.017510
-0.022831
-0.035865
-0.025691
-0.024849
0.053767
-0.117572
-0.216148
-0.207221
0.016398
-0.010507
-0.004288
-0.222568
-0.220907
-0.215177
0.017456
0.018635
0.013577
-0.127971
-0.123520
-0.134911
-0.131782
-0.104095
-0.118859
-0.008200
-0.004152
0.025664
0.003415
-0.118364
-0.114491
-0.108270
-0.119147
-0.196146
-0.195610
-0.197430
-0.158920
-0.111465
-0.114884
-0.113910
-0.024341
-0.026940
-0.008086
-0.010116
-0.143997
-0.166222
-0.194756
-0.208419
-0.210618
0.079402
-0.023975
-0.029111
0.037188
0.069759
-0.003736
-0.211764
0.114504
-0.130706
-0.140603
-0.139663
-0.130322
-0.184058
-0.209480
-0.189500
-0.176716
-0.058112
-0.017306
-0.068185
-0.215814
-0.024438
-0.028046
-0.004531
-0.073787
-0.123249
-0.176273
-0.125561
0.088708
0.085331
0.095139
-0.103813
-0.127867
-0.015633
-0.200329
-0.005775
-0.005165
0.001369
0.012504
-0.017627
0.009722
0.005616
-0.039797
-0.024432
-0.118738
-0.120456
0.049656
0.060460
0.100355
-0.151018
-0.233548
-0.204657
0.106287
-0.193571
-0.198493
-0.213018
-0.158893
-0.189922
-0.225748
-0.206579
-0.237282
-0.139168
-0.133626
-0.133503
0.033815
-0.102613
-0.004560
-0.012635
-0.110528
-0.128479
-0.117135
-0.155326
-0.145394
-0.161058
-0.079972
-0.115248
-0.200193
-0.232027
-0.221183
-0.175670
-0.190314
-0.185562
0.001845
0.015493
-0.009920
-0.224234
-0.219309
-0.218873
-0.024446
-0.024667
-0.020609
-0.009321
-0.111508
-0.209079
-0.203534
-0.001215
-0.002933
-0.008340
-0.035593
-0.013802
-0.119045
-0.124479
-0.223993
0.009648
0.031084
-0.200086
0.041492
0.049795
0.031272
0.032634
-0.214142
-0.260230
-0.194508
-0.116769
-0.139690
-0.131226
-0.002567
0.004741
-0.079724
-0.052297
-0.092033
-0.079186
-0.041214
-0.081325
-0.134731
-0.121915
-0.014763
-0.016549
-0.008426
-0.001785
-0.202648
-0.013157
-0.007588
-0.010437
-0.124395
-0.124140
0.046485
0.080952
0.021659
0.049351
0.050345
0.054233
0.021549
-0.018445
0.005773
-0.007886
0.046534
-0.001219
-0.016734
-0.139414
-0.141236
-0.124631
-0.137473
-0.046491
-0.049142
-0.052388
0.043153
-0.029371
-0.075865
-0.052788
-0.078551
0.049618
0.033360
0.023590
-0.131720
-0.108367
0.054231
0.078965
0.010249
-0.001710
0.023758
0.046786
0.030425
0.010005
0.033583
0.056676
0.055373
-0.024486
-0.010038
0.052277
-0.005480
0.110708
0.076003
0.010168
0.086197
0.100391
0.112490
-0.043532
-0.119109
-0.125443
-0.113518
-0.096853
-0.135932
0.032259
0.039475
0.050129
0.020090
0.050211
0.075801
0.097297
0.084858
-0.124667
-0.127840
-0.109873
-0.126271
-0.134973
-0.108974
-0.131184
-0.105838
-0.001425
-0.015292
-0.110556
-0.003970
0.087507
0.077736
0.098545
0.011284
-0.003604
-0.038606
-0.001126
-0.017173
-0.214521
-0.214864
-0.022116
-0.051801
-0.004163
-0.024920
-0.223323
-0.216289
-0.213065
-0.228539
-0.131272
-0.142068
-0.141495
-0.131887
-0.111176
-0.101035
-0.016977
-0.006435
-0.128195
-0.117390
-0.113666
-0.107755
0.070334
0.078966
0.080320
0.083936
0.047270
-0.104592
-0.104024
-0.120241
0.101579
0.086447
0.087810
-0.029234
-0.028527
-0.013186
-0.029660
-0.070317
-0.073261
-0.050524
-0.057907
-0.111836
-0.072062
-0.125739
-0.124052
-0.020739
-0.000650
0.099197
-0.011438
-0.110633
-0.119880
-0.129830
0.037147
-0.211520
-0.113331
-0.003917
0.000035
0.002513
-0.000702
-0.006996
0.001339
-0.122422
-0.149480
-0.020350
-0.028018
-0.000594
-0.216125
-0.031738
-0.013178
-0.026401
0.005462
0.002863
-0.125702
-0.129180
0.000541
-0.014844
0.002777
-0.012402
-0.205175
-0.157899
-0.193783
-0.198594
-0.033182
-0.012256
-0.009226
-0.029530
-0.018513
-0.022621
-0.118091
-0.127231
-0.019410
-0.016993
-0.019903
-0.019093
-0.037824
-0.194291
-0.194036
-0.177353
-0.201157
-0.183552
-0.183169
-0.209504
-0.030805
-0.131346
-0.131876
-0.128710
-0.115120
0.081775
0.029404
0.052173
0.056113
0.002433
0.012229
-0.002842
-0.011404
-0.007576
-0.008885
-0.019673
-0.087798
-0.073062
-0.109080
-0.093406
0.016353
-0.002794
-0.041971
0.010840
-0.128538
-0.122440
-0.144652
-0.126646
-0.007845
-0.221061
-0.217326
0.028281
-0.003908
0.025626
0.033237
-0.012349
-0.124823
-0.125595
-0.015936
-0.201027
-0.008120
-0.000268
-0.013071
0.057652
0.046187
0.049337
-0.170886
-0.140342
-0.167349
-0.178139
-0.131924
-0.124735
0.001781
-0.120900
-0.131436
-0.128868
-0.126167
-0.019259
-0.050619
-0.002812
0.037530
0.047038
0.059814
0.040619
0.048047
-0.007054
0.001343
-0.001388
-0.011577
-0.039563
-0.035638
-0.131208
-0.019599
-0.030637
-0.013261
-0.006235
-0.003461
0.002288
-0.020170
-0.118200
-0.011268
-0.005426
-0.204182
0.043747
0.051013
0.056303
-0.126572
-0.127343
-0.222133
-0.216988
-0.181585
-0.185313
-0.221464
-0.222739
-0.225246
-0.217465
0.045149
0.060928
-0.019595
-0.117697
-0.129977
-0.005468
-0.030424
-0.016851
0.040649
-0.056495
-0.167650
-0.173865
-0.122828
-0.182093
-0.169572