# vtk DataFile Version 2.0
Test
ASCII
DATASET POLYDATA
POINTS 7607 float
0.000000 0.000000 0.000000
1.000000 0.000000 0.000000
1.000000 0.800000 0.000000
1.000000 1.000000 0.000000
0.000000 1.000000 0.000000
0.000000 0.200000 0.000000
0.300000 0.330000 0.000000
0.700000 0.680000 0.000000
0.012987 0.000000 0.000000
0.025974 0.000000 0.000000
0.038961 0.000000 0.000000
0.051948 0.000000 0.000000
0.064935 0.000000 0.000000
0.077922 0.000000 0.000000
0.090909 0.000000 0.000000
0.103896 0.000000 0.000000
0.116883 0.000000 0.000000
0.129870 0.000000 0.000000
0.142857 0.000000 0.000000
0.155844 0.000000 0.000000
0.168831 0.000000 0.000000
0.181818 0.000000 0.000000
0.194805 0.000000 0.000000
0.207792 0.000000 0.000000
0.220779 0.000000 0.000000
0.233766 0.000000 0.000000
0.246753 0.000000 0.000000
0.259740 0.000000 0.000000
0.272727 0.000000 0.000000
0.285714 0.000000 0.000000
0.298701 0.000000 0.000000
0.311688 0.000000 0.000000
0.324675 0.000000 0.000000
0.337662 0.000000 0.000000
0.350649 0.000000 0.000000
0.363636 0.000000 0.000000
0.376623 0.000000 0.000000
0.389610 0.000000 0.000000
0.402597 0.000000 0.000000
0.415584 0.000000 0.000000
0.428571 0.000000 0.000000
0.441558 0.000000 0.000000
0.454545 0.000000 0.000000
0.467532 0.000000 0.000000
0.480519 0.000000 0.000000
0.493506 0.000000 0.000000
0.506494 0.000000 0.000000
0.519481 0.000000 0.000000
0.532468 0.000000 0.000000
0.545455 0.000000 0.000000
0.558442 0.000000 0.000000
0.571429 0.000000 0.000000
0.584416 0.000000 0.000000
0.597403 0.000000 0.000000
0.610390 0.000000 0.000000
0.623377 0.000000 0.000000
0.636364 0.000000 0.000000
0.649351 0.000000 0.000000
0.662338 0.000000 0.000000
0.675325 0.000000 0.000000
0.688312 0.000000 0.000000
0.701299 0.000000 0.000000
0.714286 0.000000 0.000000
0.727273 0.000000 0.000000
0.740260 0.000000 0.000000
0.753247 0.000000 0.000000
0.766234 0.000000 0.000000
0.779221 0.000000 0.000000
0.792208 0.000000 0.000000
0.805195 0.000000 0.000000
0.818182 0.000000 0.000000
0.831169 0.000000 0.000000
0.844156 0.000000 0.000000
0.857143 0.000000 0.000000
0.870130 0.000000 0.000000
0.883117 0.000000 0.000000
0.896104 0.000000 0.000000
0.909091 0.000000 0.000000
0.922078 0.000000 0.000000
0.935065 0.000000 0.000000
0.948052 0.000000 0.000000
0.961039 0.000000 0.000000
0.974026 0.000000 0.000000
0.987013 0.000000 0.000000
1.000000 0.012903 0.000000
1.000000 0.025806 0.000000
1.000000 0.038710 0.000000
1.000000 0.051613 0.000000
1.000000 0.064516 0.000000
1.000000 0.077419 0.000000
1.000000 0.090323 0.000000
1.000000 0.103226 0.000000
1.000000 0.116129 0.000000
1.000000 0.129032 0.000000
1.000000 0.141935 0.000000
1.000000 0.154839 0.000000
1.000000 0.167742 0.000000
1.000000 0.180645 0.000000
1.000000 0.193548 0.000000
1.000000 0.206452 0.000000
1.000000 0.219355 0.000000
1.000000 0.232258 0.000000
1.000000 0.245161 0.000000
1.000000 0.258065 0.000000
1.000000 0.270968 0.000000
1.000000 0.283871 0.000000
1.000000 0.296774 0.000000
1.000000 0.309677 0.000000
1.000000 0.322581 0.000000
1.000000 0.335484 0.000000
1.000000 0.348387 0.000000
1.000000 0.361290 0.000000
1.000000 0.374194 0.000000
1.000000 0.387097 0.000000
1.000000 0.400000 0.000000
1.000000 0.412903 0.000000
1.000000 0.425806 0.000000
1.000000 0.438710 0.000000
1.000000 0.451613 0.000000
1.000000 0.464516 0.000000
1.000000 0.477419 0.000000
1.000000 0.490323 0.000000
1.000000 0.503226 0.000000
1.000000 0.516129 0.000000
1.000000 0.529032 0.000000
1.000000 0.541935 0.000000
1.000000 0.554839 0.000000
1.000000 0.567742 0.000000
1.000000 0.580645 0.000000
1.000000 0.593548 0.000000
1.000000 0.606452 0.000000
1.000000 0.619355 0.000000
1.000000 0.632258 0.000000
1.000000 0.645161 0.000000
1.000000 0.658065 0.000000
1.000000 0.670968 0.000000
1.000000 0.683871 0.000000
1.000000 0.696774 0.000000
1.000000 0.709677 0.000000
1.000000 0.722581 0.000000
1.000000 0.735484 0.000000
1.000000 0.748387 0.000000
1.000000 0.761290 0.000000
1.000000 0.774194 0.000000
1.000000 0.787097 0.000000
1.000000 0.812500 0.000000
1.000000 0.825000 0.000000
1.000000 0.837500 0.000000
1.000000 0.850000 0.000000
1.000000 0.862500 0.000000
1.000000 0.875000 0.000000
1.000000 0.887500 0.000000
1.000000 0.900000 0.000000
1.000000 0.912500 0.000000
1.000000 0.925000 0.000000
1.000000 0.937500 0.000000
1.000000 0.950000 0.000000
1.000000 0.962500 0.000000
1.000000 0.975000 0.000000
1.000000 0.987500 0.000000
0.987013 1.000000 0.000000
0.974026 1.000000 0.000000
0.961039 1.000000 0.000000
0.948052 1.000000 0.000000
0.935065 1.000000 0.000000
0.922078 1.000000 0.000000
0.909091 1.000000 0.000000
0.896104 1.000000 0.000000
0.883117 1.000000 0.000000
0.870130 1.000000 0.000000
0.857143 1.000000 0.000000
0.844156 1.000000 0.000000
0.831169 1.000000 0.000000
0.818182 1.000000 0.000000
0.805195 1.000000 0.000000
0.792208 1.000000 0.000000
0.779221 1.000000 0.000000
0.766234 1.000000 0.000000
0.753247 1.000000 0.000000
0.740260 1.000000 0.000000
0.727273 1.000000 0.000000
0.714286 1.000000 0.000000
0.701299 1.000000 0.000000
0.688312 1.000000 0.000000
0.675325 1.000000 0.000000
0.662338 1.000000 0.000000
0.649351 1.000000 0.000000
0.636364 1.000000 0.000000
0.623377 1.000000 0.000000
0.610390 1.000000 0.000000
0.597403 1.000000 0.000000
0.584416 1.000000 0.000000
0.571429 1.000000 0.000000
0.558442 1.000000 0.000000
0.545455 1.000000 0.000000
0.532468 1.000000 0.000000
0.519481 1.000000 0.000000
0.506494 1.000000 0.000000
0.493506 1.000000 0.000000
0.480519 1.000000 0.000000
0.467532 1.000000 0.000000
0.454545 1.000000 0.000000
0.441558 1.000000 0.000000
0.428571 1.000000 0.000000
0.415584 1.000000 0.000000
0.402597 1.000000 0.000000
0.389610 1.000000 0.000000
0.376623 1.000000 0.000000
0.363636 1.000000 0.000000
0.350649 1.000000 0.000000
0.337662 1.000000 0.000000
0.324675 1.000000 0.000000
0.311688 1.000000 0.000000
0.298701 1.000000 0.000000
0.285714 1.000000 0.000000
0.272727 1.000000 0.000000
0.259740 1.000000 0.000000
0.246753 1.000000 0.000000
0.233766 1.000000 0.000000
0.220779 1.000000 0.000000
0.207792 1.000000 0.000000
0.194805 1.000000 0.000000
0.181818 1.000000 0.000000
0.168831 1.000000 0.000000
0.155844 1.000000 0.000000
0.142857 1.000000 0.000000
0.129870 1.000000 0.000000
0.116883 1.000000 0.000000
0.103896 1.000000 0.000000
0.090909 1.000000 0.000000
0.077922 1.000000 0.000000
0.064935 1.000000 0.000000
0.051948 1.000000 0.000000
0.038961 1.000000 0.000000
0.025974 1.000000 0.000000
0.012987 1.000000 0.000000
0.000000 0.987097 0.000000
0.000000 0.974194 0.000000
0.000000 0.961290 0.000000
0.000000 0.948387 0.000000
0.000000 0.935484 0.000000
0.000000 0.922581 0.000000
0.000000 0.909677 0.000000
0.000000 0.896774 0.000000
0.000000 0.883871 0.000000
0.000000 0.870968 0.000000
0.000000 0.858065 0.000000
0.000000 0.845161 0.000000
0.000000 0.832258 0.000000
0.000000 0.819355 0.000000
0.000000 0.806452 0.000000
0.000000 0.793548 0.000000
0.000000 0.780645 0.000000
0.000000 0.767742 0.000000
0.000000 0.754839 0.000000
0.000000 0.741935 0.000000
0.000000 0.729032 0.000000
0.000000 0.716129 0.000000
0.000000 0.703226 0.000000
0.000000 0.690323 0.000000
0.000000 0.677419 0.000000
0.000000 0.664516 0.000000
0.000000 0.651613 0.000000
0.000000 0.638710 0.000000
0.000000 0.625806 0.000000
0.000000 0.612903 0.000000
0.000000 0.600000 0.000000
0.000000 0.587097 0.000000
0.000000 0.574194 0.000000
0.000000 0.561290 0.000000
0.000000 0.548387 0.000000
0.000000 0.535484 0.000000
0.000000 0.522581 0.000000
0.000000 0.509677 0.000000
0.000000 0.496774 0.000000
0.000000 0.483871 0.000000
0.000000 0.470968 0.000000
0.000000 0.458065 0.000000
0.000000 0.445161 0.000000
0.000000 0.432258 0.000000
0.000000 0.419355 0.000000
0.000000 0.406452 0.000000
0.000000 0.393548 0.000000
0.000000 0.380645 0.000000
0.000000 0.367742 0.000000
0.000000 0.354839 0.000000
0.000000 0.341935 0.000000
0.000000 0.329032 0.000000
0.000000 0.316129 0.000000
0.000000 0.303226 0.000000
0.000000 0.290323 0.000000
0.000000 0.277419 0.000000
0.000000 0.264516 0.000000
0.000000 0.251613 0.000000
0.000000 0.238710 0.000000
0.000000 0.225806 0.000000
0.000000 0.212903 0.000000
0.000000 0.187500 0.000000
0.000000 0.175000 0.000000
0.000000 0.162500 0.000000
0.000000 0.150000 0.000000
0.000000 0.137500 0.000000
0.000000 0.125000 0.000000
0.000000 0.112500 0.000000
0.000000 0.100000 0.000000
0.000000 0.087500 0.000000
0.000000 0.075000 0.000000
0.000000 0.062500 0.000000
0.000000 0.050000 0.000000
0.000000 0.037500 0.000000
0.000000 0.025000 0.000000
0.000000 0.012500 0.000000
0.309756 0.338537 0.000000
0.319512 0.347073 0.000000
0.329268 0.355610 0.000000
0.339024 0.364146 0.000000
0.348780 0.372683 0.000000
0.358537 0.381220 0.000000
0.368293 0.389756 0.000000
0.378049 0.398293 0.000000
0.387805 0.406829 0.000000
0.397561 0.415366 0.000000
0.407317 0.423902 0.000000
0.417073 0.432439 0.000000
0.426829 0.440976 0.000000
0.436585 0.449512 0.000000
0.446341 0.458049 0.000000
0.456098 0.466585 0.000000
0.465854 0.475122 0.000000
0.475610 0.483659 0.000000
0.485366 0.492195 0.000000
0.495122 0.500732 0.000000
0.504878 0.509268 0.000000
0.514634 0.517805 0.000000
0.524390 0.526341 0.000000
0.534146 0.534878 0.000000
0.543902 0.543415 0.000000
0.553659 0.551951 0.000000
0.563415 0.560488 0.000000
0.573171 0.569024 0.000000
0.582927 0.577561 0.000000
0.592683 0.586098 0.000000
0.602439 0.594634 0.000000
0.612195 0.603171 0.000000
0.621951 0.611707 0.000000
0.631707 0.620244 0.000000
0.641463 0.628780 0.000000
0.651220 0.637317 0.000000
0.660976 0.645854 0.000000
0.670732 0.654390 0.000000
0.680488 0.662927 0.000000
0.690244 0.671463 0.000000
0.011538 0.205000 0.000000
0.023077 0.210000 0.000000
0.034615 0.215000 0.000000
0.046154 0.220000 0.000000
0.057692 0.225000 0.000000
0.069231 0.230000 0.000000
0.080769 0.235000 0.000000
0.092308 0.240000 0.000000
0.103846 0.245000 0.000000
0.115385 0.250000 0.000000
0.126923 0.255000 0.000000
0.138462 0.260000 0.000000
0.150000 0.265000 0.000000
0.161538 0.270000 0.000000
0.173077 0.275000 0.000000
[...]
POINT_DATA 7607
SCALARS UX float 1
LOOKUP_TABLE default
0.007183
0.002199
0.023173
-0.905944
-1.020947
-0.222186
-0.521814
-0.332853
-0.002797
0.000159
0.002190
0.001572
0.012555
0.000380
-0.000259
0.011512
0.000349
0.001270
-0.000353
0.000055
0.000260
-0.000114
-0.000210
0.000200
-0.000157
0.000355
0.000145
-0.001684
-0.000273
-0.000235
-0.000969
-0.010056
0.000321
-0.000284
-0.000204
-0.000544
0.000479
0.000345
0.002689
0.000047
0.000254
-0.002344
0.000148
0.004273
0.000293
-0.000390
-0.002884
-0.000009
-0.000456
0.000043
0.000055
-0.003851
-0.000286
-0.001689
-0.000119
-0.000911
0.000217
-0.000066
0.000065
-0.001403
-0.001886
0.000628
-0.000363
-0.000215
0.004509
0.001051
-0.009329
0.000406
0.002889
0.000687
-0.001412
-0.000788
-0.006654
0.000113
0.005833
0.003365
-0.005957
0.000067
-0.000897
0.002249
0.000142
0.001371
-0.000186
-0.012192
-0.000487
0.017828
0.009851
0.018420
0.010348
0.017538
0.013692
0.023620
0.045673
0.048788
0.040333
0.051742
0.036320
0.067666
0.037784
0.041034
0.062320
0.065941
0.061520
0.078489
0.067597
0.078531
0.087554
0.063795
0.083198
0.097926
0.079304
0.113172
0.099698
0.099826
0.107874
0.093032
0.120981
0.107810
0.134094
0.098947
0.122238
0.135189
0.113765
0.120921
0.155219
0.122843
0.144313
0.147428
0.126682
0.149292
0.153267
0.126886
0.164625
0.116573
0.122033
0.145315
0.129320
0.125423
0.145909
0.089985
0.117322
0.053679
0.108192
0.201985
0.057412
-0.270624
-0.146877
-0.468753
-0.335640
-0.826809
-0.652651
-0.764139
-0.794766
-0.938578
-0.811657
-0.908885
-0.870906
-0.855187
-0.912994
-0.888895
-0.876755
-0.899764
-0.894714
-0.922588
-0.910925
-0.914540
-0.905821
-0.919078
-0.917272
-0.919733
-0.914640
-0.920815
-0.918030
-0.914934
-0.923772
-0.928098
-0.915130
-0.931444
-0.937298
-0.922973
-0.923947
-0.927988
-0.923735
-0.927519
-0.928405
-0.930305
-0.933892
-0.928236
-0.934308
-0.935870
-0.929072
-0.942356
-0.940115
-0.942660
-0.946610
-0.944284
-0.942166
-0.947829
-0.946390
-0.947401
-0.951528
-0.949103
-0.965464
-0.946521
-0.953774
-0.970490
-0.955307
-0.967550
-0.958249
-0.975634
-0.976672
-0.983844
-0.986307
-0.984152
-0.983847
-0.997518
-0.983377
-1.000018
-1.005240
-0.986140
-1.013672
-1.001907
-1.004702
-0.999391
-1.013180
-1.018974
-1.012431
-1.020815
-1.022565
-1.019231
-1.020067
-1.022662
-1.028184
-1.028059
-1.027297
-1.029770
-1.032647
-1.033230
-1.032911
-1.018694
-1.028210
-1.013833
-1.023722
-1.023131
-1.030575
-1.026745
-1.022961
-1.049577
-1.029897
-1.033885
-1.026927
-1.030333
-1.039383
-1.032665
-1.029811
-1.020010
-1.032499
-1.029861
-1.024556
-1.023109
-1.029637
-1.016046
-1.019516
-1.025558
-1.022291
-1.016262
-0.987898
-0.984006
-0.993144
-1.005328
-1.002079
-1.005268
-0.989013
-0.998550
-0.993141
-1.001177
-0.978822
-0.982976
-0.969396
-0.972373
-0.963192
-0.951849
-0.954625
-0.949024
-0.929318
-0.910018
-0.892680
-0.885304
-0.853682
-0.820801
-0.788569
-0.738555
-0.690411
-0.698630
-0.628965
-0.474719
-0.614863
-0.413158
-0.238379
-0.212096
-0.112434
-0.019980
-0.064482
-0.057523
-0.038672
-0.016933
-0.032442
-0.015682
-0.034806
-0.012878
-0.012027
-0.008580
-0.282993
-0.415286
-0.373468
-0.788343
-0.611394
-0.405311
-0.528368
-0.682179
-0.466384
-0.464172
-0.624202
-0.631310
-0.409619
-0.520797
-0.615986
-0.584902
-0.484116
-0.448590
-0.625728
-0.349463
-0.156841
-0.393595
-0.738397
-0.381398
-0.378257
-0.483351
-0.483528
-0.479048
-0.601666
-0.565312
-0.254517
-0.428389
-0.366684
-0.262346
-0.291455
-0.035713
-0.271530
-0.288276
-0.315425
-0.364346
-0.437111
-0.569913
-0.210459
-0.482125
-0.410762
-0.583258
-0.745964
-0.381920
-0.791285
-0.215117
-0.609135
-0.551578
-0.622261
-0.583913
-0.442420
-0.964413
-0.346634
-0.382708
-0.273108
-0.830038
-0.182181
-0.584740
-0.650213
-0.614732
-0.279948
0.069763
-0.054560
0.091880
0.042570
-0.237200
0.279357
0.005284
-0.210389
-0.083269
-0.120012
-0.019901
-0.115464
-0.059688
-0.024934
-0.186351
-0.097201
-0.015067
-0.171184
0.059459
-0.146577
-0.133376
-0.081427
0.086490
-0.249019
-0.922128
-0.932899
-0.937182
-0.921900
0.058289
0.055269
0.044256
-0.877669
-0.745241
-0.887042
-0.568458
-0.651875
-0.524711
-0.014256
0.011260
0.016889
-0.694473
-1.009129
-1.012225
-1.039989
0.045444
0.016671
0.028510
0.015565
-0.207656
-0.014012
-0.252679
-0.095242
-0.001959
-0.010057
-0.724802
-0.660938
-0.917505
-0.832187
-0.110949
-0.083358
0.017358
0.004412
-0.005058
-0.004306
-1.012356
-1.010275
-1.022155
-1.028157
-0.511705
-0.809437
-0.364656
-0.515631
0.123530
0.089627
0.106371
-0.910254
-0.943495
0.090861
0.049701
0.022403
0.069601
-0.939416
-0.924125
-0.918766
0.156168
-0.761056
-0.920530
-0.892428
-0.728398
-0.804126
-0.055284
-0.087838
-0.042106
-0.880986
-1.012810
-1.015426
-0.023286
0.020061
0.027452
-0.012507
-0.022118
-0.026472
-0.964680
-0.967414
-0.966432
-0.024675
-0.932727
-0.929456
-0.908786
0.037657
0.044805
0.004586
0.039240
0.000811
-0.017960
-0.023553
-0.103720
0.001106
0.005641
-0.030599
0.050807
0.133181
0.163436
-1.148780
-0.657526
-0.590907
-0.661195
-0.480271
-1.069472
-0.926921
-0.958684
-0.927243
-0.992785
-0.919456
-0.022878
0.015509
0.006570
0.009434
0.067083
0.064747
-0.925181
-0.926801
-0.909980
0.026241
0.038693
0.017627
-0.900670
-0.869467
-0.929519
-0.883309
0.045083
0.072730
0.109443
0.059834
-0.009186
-0.941710
-0.032986
0.018590
0.012961
-0.025975
-0.951729
-0.998895
-0.895445
-0.905436
-0.934014
-0.973417
-0.958867
-0.942355
-0.907475
-0.919708
-0.921752
-0.913442
-0.216953
-0.012924
-0.010076
-0.006961
-0.001416
-0.990532
-0.958248
-0.984263
-0.015139
-0.013051
-0.004850
-1.039966
-1.013674
-1.016672
-0.021215
-0.864429
-0.849096
-0.919545
-0.955564
-0.966597
-0.918351
-1.015884
-1.004982
-1.018746
-0.948676
0.092177
0.093987
0.078448
0.094939
0.096740
0.058139
0.080756
0.042920
0.054356
0.036567
-0.956618
-0.940972
-0.917804
-0.946261
-0.934435
-0.932757
-0.010801
-0.024923
-0.015320
-0.007209
0.017832
0.043997
0.002969
-0.070513
-0.003986
-0.083243
-0.098225
-0.959903
-0.960015
-0.984316
-0.960585
0.034639
0.080328
0.047363
0.037208
0.043987
0.040006
0.060258
0.106895
0.108750
0.084166
0.154377
-0.040499
-0.970150
-0.950711
-0.953079
-0.807654
-0.851723
-0.830910
-0.689012
0.086626
0.135969
0.125454
0.096914
0.040764
0.061240
0.026243
-0.939170
-0.949378
-0.971754
-0.939520
-0.935405
-0.983850
-1.006719
-0.990672
-1.008758
-0.002002
-0.019689
0.007562
-0.899639
-0.980393
-0.952897
-0.004832
0.034913
-0.023459
0.118720
0.088432
0.138817
-0.009601
-0.019598
-0.007695
-0.021996
-0.039672
-1.018794
-1.025784
-0.009595
-0.029440
0.001843
0.018289
0.015724
0.001852
-0.024054
-0.004846
0.015817
-0.885938
-0.839255
-1.018152
-1.029051
-1.004665
-0.064681
-0.035078
0.121825
0.106672
0.015826
0.064845
0.040519
0.014599
0.019379
-0.002827
-0.004871
0.015078
-0.937404
-0.940951
-0.973278
-0.916042
-0.929340
-0.855120
-0.930781
-0.811508
0.014987
-0.098900
0.043527
0.092990
-0.974781
-0.960497
-0.915595
-0.894326
0.085697
0.148670
0.089731
0.066350
0.047948
-0.911696
-0.909055
-0.899848
0.036649
-0.887056
-0.910522
-0.916178
0.100165
-0.908603
-0.978864
-1.007913
-0.965083
-0.019351
0.013732
-0.012038
-0.970809
-0.973679
-0.961220
-0.025957
-0.018127
0.008474
-0.021786
0.045506
0.008858
0.062485
-0.894560
-0.914480
-0.862759
-0.928376
-0.867226
-0.909599
-0.976411
0.028955
0.040488
0.000714
0.021241
0.023038
0.021266
-1.009411
-1.031321
-1.027214
-0.610171
-0.931894
-0.976016
-0.047327
-0.064260
0.107507
0.059231
-0.017349
0.037443
0.037189
0.037667
-0.897634
-0.967927
-0.894900
-0.961454
-0.965791
-0.905699
-0.024775
0.012689
-0.018386
-0.021931
0.122131
0.086732
0.080343
0.043758
-0.053964
-0.064318
0.046020
0.036338
0.042331
0.042115
-0.954163
-0.974147
-0.938201
0.013735
0.011238
0.008978
0.003156
-0.031881
-0.007780
-0.016742
-0.950726
-0.832702
-0.940143
-0.957517
-0.932858
-0.949047
-0.986445
-0.845838
-0.876194
-0.789448
-0.057771
-0.045450
0.009961
-0.903893
-0.888694
-0.903367
-0.844051
-0.866388
0.009371
-0.004373
-1.000587
-1.011630
-1.012161
0.111311
0.081700
-0.931382
-0.962179
-0.026058
-0.002798
-0.019845
0.009189
-0.037895
-0.031340
-0.033377
0.019681
0.034900
0.032358
-0.907998
-0.903886
-0.056354
-0.006584
-0.005507
-0.943896
-0.937291
-0.936717
0.025451
-0.892109
-0.998867
-0.896175
0.178474
0.048216
0.028031
-1.028205
-1.022085
0.098718
0.117252
-0.999359
-0.990652
-1.002999
-0.958787
-0.833095
-0.005097
-0.025127
-0.010171
-0.008745
-0.023866
-0.997007
-0.990648
-1.032617
-1.036540
-0.981713
0.098861
0.115423
-0.976712
-0.969237
-0.966455
0.017811
0.013681
-0.856166
-0.894131
-0.865637
-0.877386
0.009758
0.016311
0.004168
-1.033156
-1.011715
-1.016667
-1.005146
-1.008769
-0.996623
-0.979154
-0.936053
-0.995189
-0.909691
0.004295
-0.003009
-0.002014
-0.001827
-0.034634
-0.017901
-0.007074
-1.027977
-1.029198
-1.027488
-0.877367
-0.759073
-0.767987
-0.871045
-0.905626
-0.893364
-0.943966
-1.023100
-1.026646
-1.040416
0.124970
0.166018
-0.999492
0.033101
-0.007849
-1.008932
-0.144738
-0.588040
0.207881
-1.032033
-1.007894
-0.012794
-1.044129
-1.038078
0.037259
-0.000625
-0.009143
-0.057766
-0.048187
-0.006267
-0.002135
-0.017666
0.075328
0.153313
0.094846
0.089692
0.123660
0.137852
-0.976120
-0.981798
-0.976046
-0.975456
0.027173
0.016898
0.033733
-0.048430
-0.007850
-0.867884
-0.881758
0.078759
0.046522
-1.037719
-1.027916
-1.024972
-1.018541
-0.015051
-0.069131
-0.075945
-0.065777
0.017891
0.146334
0.074810
0.116898
0.160596
-0.925051
-0.909709
-0.915884
0.032617
-0.947130
-0.935994
-0.972094
-0.734000
-0.575768
-0.027012
-0.016230
-0.019542
-0.037795
-0.952108
-0.890224
-0.921076
-0.902902
-0.919276
-0.902069
-0.003538
-0.001072
0.033115
0.048262
0.064894
0.013464
-0.854839
-0.891015
-0.895405
-0.931148
-0.880723
-1.039484
-0.835039
0.035301
0.001542
-0.002327
-0.018874
-0.033725
-0.638353
-0.732949
-0.963735
-0.934661
-0.927891
-0.728341
-0.656737
-0.972449
-0.975360
-0.958968
-0.951511
0.115678
-0.044766
0.023350
0.046885
0.011360
-0.030416
-0.018721
0.015424
-1.015133
-1.007099
-1.022189
-0.016880
-0.019891
-0.963581
-1.007197
-1.017904
-0.890707
-0.030066
-0.028041
-0.021286
-0.932162
-0.004220
-0.009719
-0.986783
-0.971185
0.033313
0.022154
0.031670
0.055802
0.005385
0.011449
-0.001576
-0.003584
-0.992963
-1.029295
-1.029636
-0.976019
-0.964556
-0.986452
-0.963643
-0.010667
-0.012878
-0.020916
-0.021138
0.051839
0.067616
0.113041
0.011232
-0.015218
0.043443
0.002431
-0.446645
-0.891845
-0.904330
-0.906899
-0.912887
-0.915306
-1.030301
-1.025668
-1.027035
-0.931505
-0.938861
-0.977808
-0.943966
0.124095
0.076969
-0.049265
-0.036379
-1.020526
-0.554927
-0.585846
-0.486078
-1.026177
-1.004518
-1.023177
-0.704799
-0.653942
-0.884495
-0.380397
-0.036204
-0.923231
-0.019724
0.135959
-0.018923
0.123313
0.118173
-0.027807
-0.011463
-0.006282
0.025310
-0.876770
-0.879522
-0.017218
-0.944284
-0.979268
-0.014497
-0.002999
-0.912098
-1.009423
-0.017317
-0.050779
-0.033661
-0.030034
-0.888834
-0.882876
-0.851919
-0.024602
0.012277
-1.043070
-0.060493
0.017363
-0.097832
-1.013448
-1.009782
-0.936593
0.039615
0.004798
-0.011797
-0.903652
0.041557
0.047847
-0.038190
-0.986072
-0.951249
-0.967764
-0.849438
-0.044524
-0.002477
-0.004980
-0.913892
-0.947754
-0.914965
-0.911506
-0.886014
-0.927183
-0.013194
-0.004749
0.024690
0.003755
0.092254
-0.137949
0.015142
-0.306901
-0.238052
-0.858954
-0.911323
-0.937181
-0.877523
-0.367372
-0.905870
-0.902873
-0.894947
-0.035910
-0.008376
-1.029407
-1.004323
-1.019330
-0.713734
-0.695927
-0.635210
-0.732349
-0.023901
-0.015456
-0.921510
-0.895469
-0.883309
0.125999
0.024104
0.148786
-0.057902
-1.029367
-0.879597
-0.016818
0.012154
-0.008570
-1.014266
0.038288
0.036244
0.036458
0.000580
-1.040904
0.004881
0.015690
0.003275
0.020433
0.010100
-0.858387
-0.915855
-0.926481
-0.899154
-0.005182
-0.007179
0.000736
-0.008075
0.135848
0.139815
0.130270
0.124849
-1.021526
-1.037288
-1.008815
-1.016079
-0.922032
0.020503
0.004569
0.040916
0.009340
0.019727
-0.017633
0.051032
-0.927518
-0.721987
0.066665
0.054038
0.089722
-0.804971
-0.692678
-1.001598
-0.970195
-0.982239
-0.912897
0.103147
0.107008
0.110643
0.086812
-0.302908
-0.917004
-0.925716
-0.991410
0.014977
0.011917
-0.997337
0.033433
0.045313
-0.949181
-0.937278
-0.946067
-1.014890
-1.020645
-0.025690
-0.987281
-0.989089
-0.969249
-0.993742
0.124127
0.112889
0.146083
0.162723
-0.750878
-0.924008
-0.776265
-0.748591
-0.791939
0.015345
0.041783
0.049468
0.088580
0.081470
0.099768
-0.013521
-0.020062
-0.033195
-1.041961
0.043770
-1.006002
-1.024866
-1.006413
-0.972171
-0.979745
-0.943661
-0.877519
-0.981201
0.009782
-0.022962
-0.957117
0.069933
-0.026804
-0.012393
-0.018774
-0.945069
-0.935249
-0.934943
-0.039612
-0.018717
0.015877
0.012116
0.028898
-0.851876
-0.036107
-0.006364
-0.014825
-0.893929
-0.890510
-0.894623
0.102996
0.097735
0.019990
-0.009355
-0.017860
-1.015653
-1.009344
-1.016741
-0.419832
-0.986390
-0.994406
-0.997865
-1.005089
-1.021368
-0.992912
-0.211038
-0.523472
-0.555874
-0.679969
-0.650376
-0.688280
-0.044438
-0.018816
-0.174083
-0.951064
-0.900744
0.027157
-0.018422
0.141773
0.127316
0.123954
0.123282
-0.922258
-0.912603
-0.012783
-0.002907
-0.014778
0.037281
0.002223
-0.010858
-1.017056
0.011913
-0.016874
-0.036824
-0.002369
-0.993504
-0.979642
-0.909362
-0.913589
-1.013510
-1.012814
-1.032324
-1.037115
-0.003010
0.003264
0.025716
-0.799269
-0.784931
-0.759036
-0.756039
-0.919922
0.163379
-0.021102
-0.918642
-0.881074
-0.426571
-0.911471
0.098517
0.159320
-0.920130
-0.962110
-0.162667
-0.466742
-0.013487
-0.026472
-0.019568
-0.931078
-0.928588
-0.934118
0.082317
0.162425
0.087771
-1.012651
-0.834770
-0.855646
-0.839398
-0.904889
-0.993886
-0.976152
-0.921399
-0.948320
-0.008031
-0.951651
-1.015315
-1.034613
-1.029040
0.008998
0.026349
0.020507
-0.019529
-0.015211
-0.922764
-0.885167
-0.886820
-0.008245
-0.012390
-0.019008
-0.006842
-0.015243
-0.896036
-0.891957
-0.618336
-0.602749
-0.831257
-0.682157
0.113514
0.138019
0.110991
0.064370
-0.904767
-0.911671
-0.107551
-0.034124
-0.052163
0.006356
-0.001372
-0.000239
-0.810992
-0.841011
-0.029497
-0.012347
-0.907399
-0.840653
-0.008140
-0.021013
0.005622
-0.017079
-0.917493
-0.916092
-0.014878
-1.024682
-1.027508
-0.983526
0.004205
0.005850
-0.965661
-0.970746
-0.975613
-0.802492
-0.800040
-1.027639
-1.024451
0.006132
0.005126
-0.012503
-0.996538
-1.008734
-1.034686
0.070718
0.042013
0.072700
0.085615
-0.959161
-0.750079
-0.660173
-0.732544
0.094008
0.085238
0.104826
-1.027956
0.085862
-0.981514
0.011788
-0.068201
0.021442
0.010610
0.097688
-1.015413
-1.026321
-1.015920
0.000141
0.007211
0.019954
0.134845
0.142059
0.066857
-0.193850
0.003129
0.119618
0.134306
0.145462
-0.007153
-0.192813
-0.109806
-0.098348
0.017311
-0.013330
0.078117
0.060580
0.018978
-0.929296
-0.017876
-0.015703
-0.007093
-0.022732
-0.016555
-0.864247
0.059888
-0.839706
-0.880453
-0.805844
-0.734576
-0.010041
-0.834375
-0.808244
-0.855869
-0.779979
-0.952351
0.075255
-0.854077
-0.914179
-0.940372
-0.900216
-0.009982
-0.881881
-0.912802
-0.901537
-0.912228
-0.918622
-0.004608
-0.997463
-0.998683
-1.019034
0.001557
-1.020822
-1.030483
-0.003817
0.065342
0.058735
0.061070
-0.919245
0.192838
0.110329
0.040628
-1.021849
-1.019429
-1.018913
0.016001
0.006864
0.004092
-0.955708
-0.906362
-0.699664
-0.925875
-0.946951
-0.959275
-0.970550
-0.978567
-0.952564
-0.949036
-0.904963
-0.701699
-0.915977
0.063455
-0.896878
-0.909227
0.068560
0.075717
0.053114
-0.951726
-0.947659
-0.022647
-0.023113
-0.046304
-0.034694
-0.041234
0.075580
-0.914968
-1.022781
-1.014168
0.026310
-0.009632
-0.001889
-1.029817
-1.024362
-1.021448
0.025641
0.027425
0.019811
-0.928891
-0.912730
-0.932838
-0.925523
-0.894722
-0.916220
-0.004054
-0.002125
0.036117
0.006425
-0.903633
-0.908267
-0.898738
-0.914089
-0.947068
-0.946438
-0.938401
-0.748355
-0.890867
-0.912796
-0.899276
-0.037146
-0.027381
-0.008520
-0.010227
-0.932525
-0.968601
-0.997862
-0.943711
-0.933722
0.138550
-0.043263
-0.043478
0.081305
0.128751
0.004821
-0.857379
0.016217
-0.924440
-0.936766
-0.934924
-0.922576
-0.986119
-1.015240
-0.993995
-0.975678
-0.085326
-0.021897
-0.066892
-1.023398
-0.026435
-0.020672
-0.005156
-0.169246
-0.921124
-0.913559
-0.920602
0.137622
0.126693
0.144852
-0.885904
-0.923475
-0.023042
-1.011035
-0.007747
-0.006928
0.001877
0.015092
-0.042384
0.020090
-0.002426
-0.030192
-0.044106
-0.913781
-0.912641
0.063104
0.074917
0.135807
-0.837131
-0.990022
-0.943102
0.147878
-0.917178
-0.918542
-0.940813
-0.788316
-0.939385
-0.903106
-0.926663
-0.996275
-0.935037
-0.928996
-0.927184
0.041580
-0.159037
-0.013294
-0.011326
-0.899270
-0.923585
-0.908823
-0.968205
-0.939428
-0.970279
-0.802267
-0.924268
-0.967267
-1.005351
-0.991256
-0.935769
-0.943471
-0.941652
0.004940
0.021268
-0.012442
-1.026656
-1.023092
-1.019525
-0.407071
-0.457013
-0.028423
-0.009776
-0.901650
-0.973416
-0.977011
-0.002070
-0.003388
-0.011267
-0.044500
-0.018786
-0.908209
-0.913041
-0.997730
0.018371
0.041352
-0.954837
0.054617
0.068569
0.044937
0.047425
-0.998049
-1.038178
-0.964395
-0.908044
-0.945434
-0.928506
-0.002421
0.004015
-0.710229
-0.631557
-0.957380
-0.858339
-0.272281
-0.772809
-0.932211
-0.907443
-0.017912
-0.018153
-0.016105
-0.001304
-0.971719
-0.012465
-0.004208
-0.008077
-0.918040
-0.921884
0.071671
0.141176
0.028495
0.091095
0.060861
0.102866
0.058465
-0.025580
0.003943
-0.011086
0.064324
-0.002106
-0.019247
-0.937516
-0.932938
-0.915506
-0.931931
-0.065844
-0.095832
-0.091509
0.102261
-0.029919
-0.062291
-0.071455
-0.233354
0.066437
0.043371
0.033023
-0.957749
-0.896052
0.146590
0.102192
-0.025814
0.010868
0.002231
0.060450
0.050810
0.065775
0.048859
0.072179
0.073497
-0.025627
-0.019748
0.084678
0.014059
0.158402
0.119256
0.023406
0.132636
0.145738
0.166203
-0.064687
-0.911091
-0.920780
-0.885434
-0.827795
-0.938117
0.046923
0.054397
0.072488
0.029709
0.066035
0.114422
0.145241
0.123406
-0.920749
-0.925063
-0.910950
-0.924692
-0.932791
-0.884308
-0.922419
-0.896897
-0.002416
-0.019437
-0.892683
-0.005520
0.130394
0.113248
0.134913
-0.096238
0.000173
-0.172200
-0.004568
-0.024074
-1.019358
-1.018804
-0.028874
-0.082236
0.018842
-0.026911
-1.028265
-1.020842
-1.016578
-1.032772
-0.923608
-0.934065
-0.943766
-0.927491
-0.909930
-0.869043
-0.020530
-0.004793
-0.924790
-0.912680
-0.895814
-0.902635
0.106505
0.113863
0.126934
0.122300
0.061363
-0.896719
-0.904879
-0.899040
0.150185
0.129402
0.132778
-0.041542
-0.042809
-0.014071
-0.138815
-0.159554
-0.159151
0.045238
-0.022521
-0.116503
-0.284017
-0.916285
-0.917416
-0.028346
-0.000950
0.147620
-0.008872
-0.904094
-0.908407
-0.921496
0.053923
-1.018532
-0.903412
-0.005675
0.001463
0.002937
-0.001073
-0.007336
0.003851
-0.917032
-0.961048
-0.029798
-0.040744
0.004328
-1.022682
-0.026269
-0.028218
-0.037512
0.007917
0.003212
-0.918147
-0.927323
0.002323
-0.019500
0.003313
-0.014278
-1.010096
-0.957505
-0.998327
-1.001834
-0.046731
-0.023675
-0.012687
-0.051537
-0.010215
-0.031824
-0.910118
-0.921726
-0.026361
-0.025114
-0.023863
-0.013146
-0.037125
-0.990727
-0.995636
-0.967562
-0.982260
-0.956483
-0.951982
-0.995041
-0.052299
-0.927674
-0.928305
-0.923781
-0.910532
0.095274
0.057510
0.084067
0.077822
0.005519
0.013924
0.003166
-0.013902
-0.011758
-0.014555
-0.032818
-0.859354
-0.315701
-0.453504
-0.272846
-0.315409
0.122951
-0.063787
0.014194
-0.920050
-0.906450
-0.941158
-0.920512
-0.007871
-1.006849
-0.987739
0.055458
0.033755
0.034354
0.030214
-0.013567
-0.917991
-0.922347
-0.022967
-1.056605
-0.010568
-0.000306
-0.016147
0.075432
0.065544
0.065886
-0.990737
-0.996013
-0.893897
-0.945725
-0.933411
-0.923246
-0.001241
-0.915484
-0.923401
-0.921328
-0.918757
-0.028987
-0.102502
-0.006396
0.051357
0.063435
0.078698
0.056320
0.062511
-0.006198
0.003434
0.001964
-0.011819
-0.033831
-0.056872
-0.923908
-0.030717
-0.046859
-0.019331
-0.006717
-0.003959
0.001533
-0.030025
-0.911771
-0.014519
-0.005564
-0.971351
0.062957
0.064886
0.077645
-0.921396
-0.924135
-1.030540
-1.027234
-0.984718
-0.990552
-0.966463
-0.981750
-0.972329
-0.969138
0.064697
0.106117
-0.024069
-0.912204
-0.924186
-0.027728
-0.035445
-0.017218
0.054404
-0.834306
-0.977714
-0.972996
-0.914480
-0.916343
-0.881593