# vtk DataFile Version 2.0
Test
ASCII
DATASET POLYDATA
POINTS 7607 float
0.000000 0.000000 0.000000
1.000000 0.000000 0.000000
1.000000 0.800000 0.000000
1.000000 1.000000 0.000000
0.000000 1.000000 0.000000
0.000000 0.200000 0.000000
0.300000 0.330000 0.000000
0.700000 0.680000 0.000000
0.012987 0.000000 0.000000
0.025974 0.000000 0.000000
0.038961 0.000000 0.000000
0.051948 0.000000 0.000000
0.064935 0.000000 0.000000
0.077922 0.000000 0.000000
0.090909 0.000000 0.000000
0.103896 0.000000 0.000000
0.116883 0.000000 0.000000
0.129870 0.000000 0.000000
0.142857 0.000000 0.000000
0.155844 0.000000 0.000000
0.168831 0.000000 0.000000
0.181818 0.000000 0.000000
0.194805 0.000000 0.000000
0.207792 0.000000 0.000000
0.220779 0.000000 0.000000
0.233766 0.000000 0.000000
0.246753 0.000000 0.000000
0.259740 0.000000 0.000000
0.272727 0.000000 0.000000
0.285714 0.000000 0.000000
0.298701 0.000000 0.000000
0.311688 0.000000 0.000000
0.324675 0.000000 0.000000
0.337662 0.000000 0.000000
0.350649 0.000000 0.000000
0.363636 0.000000 0.000000
0.376623 0.000000 0.000000
0.389610 0.000000 0.000000
0.402597 0.000000 0.000000
0.415584 0.000000 0.000000
0.428571 0.000000 0.000000
0.441558 0.000000 0.000000
0.454545 0.000000 0.000000
0.467532 0.000000 0.000000
0.480519 0.000000 0.000000
0.493506 0.000000 0.000000
0.506494 0.000000 0.000000
0.519481 0.000000 0.000000
0.532468 0.000000 0.000000
0.545455 0.000000 0.000000
0.558442 0.000000 0.000000
0.571429 0.000000 0.000000
0.584416 0.000000 0.000000
0.597403 0.000000 0.000000
0.610390 0.000000 0.000000
0.623377 0.000000 0.000000
0.636364 0.000000 0.000000
0.649351 0.000000 0.000000
0.662338 0.000000 0.000000
0.675325 0.000000 0.000000
0.688312 0.000000 0.000000
0.701299 0.000000 0.000000
0.714286 0.000000 0.000000
0.727273 0.000000 0.000000
0.740260 0.000000 0.000000
0.753247 0.000000 0.000000
0.766234 0.000000 0.000000
0.779221 0.000000 0.000000
0.792208 0.000000 0.000000
0.805195 0.000000 0.000000
0.818182 0.000000 0.000000
0.831169 0.000000 0.000000
0.844156 0.000000 0.000000
0.857143 0.000000 0.000000
0.870130 0.000000 0.000000
0.883117 0.000000 0.000000
0.896104 0.000000 0.000000
0.909091 0.000000 0.000000
0.922078 0.000000 0.000000
0.935065 0.000000 0.000000
0.948052 0.000000 0.000000
0.961039 0.000000 0.000000
0.974026 0.000000 0.000000
0.987013 0.000000 0.000000
1.000000 0.012903 0.000000
1.000000 0.025806 0.000000
1.000000 0.038710 0.000000
1.000000 0.051613 0.000000
1.000000 0.064516 0.000000
1.000000 0.077419 0.000000
1.000000 0.090323 0.000000
1.000000 0.103226 0.000000
1.000000 0.116129 0.000000
1.000000 0.129032 0.000000
1.000000 0.141935 0.000000
1.000000 0.154839 0.000000
1.000000 0.167742 0.000000
1.000000 0.180645 0.000000
1.000000 0.193548 0.000000
1.000000 0.206452 0.000000
1.000000 0.219355 0.000000
1.000000 0.232258 0.000000
1.000000 0.245161 0.000000
1.000000 0.258065 0.000000
1.000000 0.270968 0.000000
1.000000 0.283871 0.000000
1.000000 0.296774 0.000000
1.000000 0.309677 0.000000
1.000000 0.322581 0.000000
1.000000 0.335484 0.000000
1.000000 0.348387 0.000000
1.000000 0.361290 0.000000
1.000000 0.374194 0.000000
1.000000 0.387097 0.000000
1.000000 0.400000 0.000000
1.000000 0.412903 0.000000
1.000000 0.425806 0.000000
1.000000 0.438710 0.000000
1.000000 0.451613 0.000000
1.000000 0.464516 0.000000
1.000000 0.477419 0.000000
1.000000 0.490323 0.000000
1.000000 0.503226 0.000000
1.000000 0.516129 0.000000
1.000000 0.529032 0.000000
1.000000 0.541935 0.000000
1.000000 0.554839 0.000000
1.000000 0.567742 0.000000
1.000000 0.580645 0.000000
1.000000 0.593548 0.000000
1.000000 0.606452 0.000000
1.000000 0.619355 0.000000
1.000000 0.632258 0.000000
1.000000 0.645161 0.000000
1.000000 0.658065 0.000000
1.000000 0.670968 0.000000
1.000000 0.683871 0.000000
1.000000 0.696774 0.000000
1.000000 0.709677 0.000000
1.000000 0.722581 0.000000
1.000000 0.735484 0.000000
1.000000 0.748387 0.000000
1.000000 0.761290 0.000000
1.000000 0.774194 0.000000
1.000000 0.787097 0.000000
1.000000 0.812500 0.000000
1.000000 0.825000 0.000000
1.000000 0.837500 0.000000
1.000000 0.850000 0.000000
1.000000 0.862500 0.000000
1.000000 0.875000 0.000000
1.000000 0.887500 0.000000
1.000000 0.900000 0.000000
1.000000 0.912500 0.000000
1.000000 0.925000 0.000000
1.000000 0.937500 0.000000
1.000000 0.950000 0.000000
1.000000 0.962500 0.000000
1.000000 0.975000 0.000000
1.000000 0.987500 0.000000
0.987013 1.000000 0.000000
0.974026 1.000000 0.000000
0.961039 1.000000 0.000000
0.948052 1.000000 0.000000
0.935065 1.000000 0.000000
0.922078 1.000000 0.000000
0.909091 1.000000 0.000000
0.896104 1.000000 0.000000
0.883117 1.000000 0.000000
0.870130 1.000000 0.000000
0.857143 1.000000 0.000000
0.844156 1.000000 0.000000
0.831169 1.000000 0.000000
0.818182 1.000000 0.000000
0.805195 1.000000 0.000000
0.792208 1.000000 0.000000
0.779221 1.000000 0.000000
0.766234 1.000000 0.000000
0.753247 1.000000 0.000000
0.740260 1.000000 0.000000
0.727273 1.000000 0.000000
0.714286 1.000000 0.000000
0.701299 1.000000 0.000000
0.688312 1.000000 0.000000
0.675325 1.000000 0.000000
0.662338 1.000000 0.000000
0.649351 1.000000 0.000000
0.636364 1.000000 0.000000
0.623377 1.000000 0.000000
0.610390 1.000000 0.000000
0.597403 1.000000 0.000000
0.584416 1.000000 0.000000
0.571429 1.000000 0.000000
0.558442 1.000000 0.000000
0.545455 1.000000 0.000000
0.532468 1.000000 0.000000
0.519481 1.000000 0.000000
0.506494 1.000000 0.000000
0.493506 1.000000 0.000000
0.480519 1.000000 0.000000
0.467532 1.000000 0.000000
0.454545 1.000000 0.000000
0.441558 1.000000 0.000000
0.428571 1.000000 0.000000
0.415584 1.000000 0.000000
0.402597 1.000000 0.000000
0.389610 1.000000 0.000000
0.376623 1.000000 0.000000
0.363636 1.000000 0.000000
0.350649 1.000000 0.000000
0.337662 1.000000 0.000000
0.324675 1.000000 0.000000
0.311688 1.000000 0.000000
0.298701 1.000000 0.000000
0.285714 1.000000 0.000000
0.272727 1.000000 0.000000
0.259740 1.000000 0.000000
0.246753 1.000000 0.000000
0.233766 1.000000 0.000000
0.220779 1.000000 0.000000
0.207792 1.000000 0.000000
0.194805 1.000000 0.000000
0.181818 1.000000 0.000000
0.168831 1.000000 0.000000
0.155844 1.000000 0.000000
0.142857 1.000000 0.000000
0.129870 1.000000 0.000000
0.116883 1.000000 0.000000
0.103896 1.000000 0.000000
0.090909 1.000000 0.000000
0.077922 1.000000 0.000000
0.064935 1.000000 0.000000
0.051948 1.000000 0.000000
0.038961 1.000000 0.000000
0.025974 1.000000 0.000000
0.012987 1.000000 0.000000
0.000000 0.987097 0.000000
0.000000 0.974194 0.000000
0.000000 0.961290 0.000000
0.000000 0.948387 0.000000
0.000000 0.935484 0.000000
0.000000 0.922581 0.000000
0.000000 0.909677 0.000000
0.000000 0.896774 0.000000
0.000000 0.883871 0.000000
0.000000 0.870968 0.000000
0.000000 0.858065 0.000000
0.000000 0.845161 0.000000
0.000000 0.832258 0.000000
0.000000 0.819355 0.000000
0.000000 0.806452 0.000000
0.000000 0.793548 0.000000
0.000000 0.780645 0.000000
0.000000 0.767742 0.000000
0.000000 0.754839 0.000000
0.000000 0.741935 0.000000
0.000000 0.729032 0.000000
0.000000 0.716129 0.000000
0.000000 0.703226 0.000000
0.000000 0.690323 0.000000
0.000000 0.677419 0.000000
0.000000 0.664516 0.000000
0.000000 0.651613 0.000000
0.000000 0.638710 0.000000
0.000000 0.625806 0.000000
0.000000 0.612903 0.000000
0.000000 0.600000 0.000000
0.000000 0.587097 0.000000
0.000000 0.574194 0.000000
0.000000 0.561290 0.000000
0.000000 0.548387 0.000000
0.000000 0.535484 0.000000
0.000000 0.522581 0.000000
0.000000 0.509677 0.000000
0.000000 0.496774 0.000000
0.000000 0.483871 0.000000
0.000000 0.470968 0.000000
0.000000 0.458065 0.000000
0.000000 0.445161 0.000000
0.000000 0.432258 0.000000
0.000000 0.419355 0.000000
0.000000 0.406452 0.000000
0.000000 0.393548 0.000000
0.000000 0.380645 0.000000
0.000000 0.367742 0.000000
0.000000 0.354839 0.000000
0.000000 0.341935 0.000000
0.000000 0.329032 0.000000
0.000000 0.316129 0.000000
0.000000 0.303226 0.000000
0.000000 0.290323 0.000000
0.000000 0.277419 0.000000
0.000000 0.264516 0.000000
0.000000 0.251613 0.000000
0.000000 0.238710 0.000000
0.000000 0.225806 0.000000
0.000000 0.212903 0.000000
0.000000 0.187500 0.000000
0.000000 0.175000 0.000000
0.000000 0.162500 0.000000
0.000000 0.150000 0.000000
0.000000 0.137500 0.000000
0.000000 0.125000 0.000000
0.000000 0.112500 0.000000
0.000000 0.100000 0.000000
0.000000 0.087500 0.000000
0.000000 0.075000 0.000000
0.000000 0.062500 0.000000
0.000000 0.050000 0.000000
0.000000 0.037500 0.000000
0.000000 0.025000 0.000000
0.000000 0.012500 0.000000
0.309756 0.338537 0.000000
0.319512 0.347073 0.000000
0.329268 0.355610 0.000000
0.339024 0.364146 0.000000
0.348780 0.372683 0.000000
0.358537 0.381220 0.000000
0.368293 0.389756 0.000000
0.378049 0.398293 0.000000
0.387805 0.406829 0.000000
0.397561 0.415366 0.000000
0.407317 0.423902 0.000000
0.417073 0.432439 0.000000
0.426829 0.440976 0.000000
0.436585 0.449512 0.000000
0.446341 0.458049 0.000000
0.456098 0.466585 0.000000
0.465854 0.475122 0.000000
0.475610 0.483659 0.000000
0.485366 0.492195 0.000000
0.495122 0.500732 0.000000
0.504878 0.509268 0.000000
0.514634 0.517805 0.000000
0.524390 0.526341 0.000000
0.534146 0.534878 0.000000
0.543902 0.543415 0.000000
0.553659 0.551951 0.000000
0.563415 0.560488 0.000000
0.573171 0.569024 0.000000
0.582927 0.577561 0.000000
0.592683 0.586098 0.000000
0.602439 0.594634 0.000000
0.612195 0.603171 0.000000
0.621951 0.611707 0.000000
0.631707 0.620244 0.000000
0.641463 0.628780 0.000000
0.651220 0.637317 0.000000
0.660976 0.645854 0.000000
0.670732 0.654390 0.000000
0.680488 0.662927 0.000000
0.690244 0.671463 0.000000
0.011538 0.205000 0.000000
0.023077 0.210000 0.000000
0.034615 0.215000 0.000000
0.046154 0.220000 0.000000
0.057692 0.225000 0.000000
0.069231 0.230000 0.000000
0.080769 0.235000 0.000000
0.092308 0.240000 0.000000
0.103846 0.245000 0.000000
0.115385 0.250000 0.000000
0.126923 0.255000 0.000000
0.138462 0.260000 0.000000
0.150000 0.265000 0.000000
0.161538 0.270000 0.000000
0.173077 0.275000 0.000000
[...]
POINT_DATA 7607
SCALARS UX float 1
LOOKUP_TABLE default
0.002229
0.001503
0.023399
-0.001684
-0.049600
-0.030924
-0.041448
0.012765
-0.000248
-0.000070
-0.000763
0.000544
0.005231
-0.000214
-0.000075
0.005315
0.000145
0.000151
-0.000086
0.000060
-0.000000
-0.000005
-0.000044
0.000070
-0.000049
0.000197
0.000033
-0.000382
-0.000012
-0.000044
-0.000193
-0.003741
0.000076
-0.000056
-0.000001
-0.000179
0.000128
0.000120
0.001218
0.000046
0.000786
-0.000737
-0.000050
0.002483
0.000072
0.000354
-0.001713
-0.000018
-0.000079
0.000022
0.000040
-0.001930
-0.000083
-0.000715
-0.000020
0.000077
-0.000063
-0.000028
-0.000004
-0.000177
-0.000279
0.000081
-0.000076
0.000100
0.003434
0.000091
-0.004391
0.000139
0.001302
-0.000071
-0.000315
-0.000314
-0.003685
-0.000780
0.003208
0.001516
-0.003451
-0.000124
-0.000376
0.000811
0.000174
-0.000050
-0.000060
-0.006704
-0.001278
0.008644
0.003704
0.006093
0.004634
0.004962
0.004899
0.009306
0.018519
0.019944
0.016254
0.021421
0.013718
0.030179
0.015789
0.016885
0.027749
0.028206
0.028235
0.034603
0.029901
0.035108
0.039526
0.028228
0.037413
0.043841
0.036010
0.050686
0.045246
0.045857
0.047835
0.043027
0.053409
0.048939
0.057643
0.045572
0.053546
0.056781
0.051034
0.051464
0.061157
0.051885
0.057028
0.058558
0.048784
0.057422
0.058497
0.048468
0.058234
0.043339
0.047476
0.044357
0.049898
0.042697
0.047581
0.040124
0.038218
0.041112
0.038169
0.036547
0.035827
0.025383
0.028663
0.012912
0.014714
-0.002312
0.015636
0.008957
0.008620
0.011884
0.007325
0.002400
0.003979
0.012797
-0.001469
0.003257
0.007872
0.001890
0.001670
-0.005102
-0.002066
-0.003941
-0.002727
-0.007299
-0.006290
-0.007576
-0.006708
-0.009381
-0.007151
-0.006920
-0.010349
-0.012419
-0.007749
-0.015392
-0.015772
-0.013549
-0.012817
-0.014444
-0.011819
-0.014437
-0.015674
-0.015811
-0.016091
-0.015476
-0.017236
-0.017362
-0.016927
-0.020114
-0.018424
-0.021777
-0.019962
-0.021053
-0.018982
-0.020514
-0.021729
-0.020666
-0.020255
-0.022942
-0.024886
-0.021574
-0.021679
-0.026878
-0.023592
-0.027096
-0.023440
-0.030046
-0.030242
-0.032310
-0.033216
-0.033577
-0.032424
-0.037392
-0.033606
-0.038448
-0.041617
-0.033686
-0.044900
-0.040840
-0.041350
-0.039873
-0.045295
-0.049243
-0.044907
-0.049609
-0.051233
-0.048226
-0.050483
-0.051159
-0.055032
-0.054244
-0.054448
-0.054785
-0.058173
-0.057429
-0.057252
-0.050259
-0.053281
-0.046579
-0.052275
-0.052329
-0.057576
-0.054750
-0.053656
-0.069974
-0.059486
-0.061432
-0.058225
-0.061179
-0.067839
-0.064945
-0.062791
-0.059047
-0.066457
-0.067252
-0.065945
-0.064273
-0.072339
-0.065712
-0.065252
-0.076298
-0.070831
-0.071920
-0.059250
-0.054481
-0.063006
-0.071148
-0.071226
-0.074772
-0.069403
-0.076050
-0.074242
-0.082253
-0.071828
-0.076732
-0.071910
-0.075195
-0.074964
-0.073289
-0.075329
-0.081342
-0.069184
-0.075815
-0.068749
-0.070001
-0.066687
-0.068895
-0.060627
-0.059161
-0.051566
-0.059011
-0.047146
-0.045472
-0.047437
-0.042435
-0.026014
-0.030447
-0.027538
-0.004447
-0.023237
-0.016148
-0.014031
-0.012303
-0.012063
-0.007619
-0.011363
-0.009326
-0.006125
-0.003349
-0.024206
-0.025344
-0.045788
-0.091033
-0.077565
-0.058422
-0.075120
-0.035301
-0.056308
-0.082663
-0.064833
-0.010055
0.045093
-0.003308
-0.020140
0.011790
0.028481
-0.011323
-0.032205
-0.038746
-0.010337
-0.023633
-0.072622
0.013244
0.018804
-0.023898
-0.009523
0.006227
0.005079
0.051484
0.065286
0.028231
0.010746
0.079223
0.043815
0.069729
-0.012364
0.012661
-0.030137
-0.014572
-0.033221
-0.048595
-0.027812
-0.044816
-0.043508
-0.056163
-0.051465
-0.033760
-0.049716
-0.022871
-0.047052
-0.031638
-0.050344
-0.040003
-0.034138
-0.069803
-0.038927
-0.038402
-0.044207
-0.060228
-0.043277
-0.047031
-0.056237
-0.044967
-0.045115
0.023516
0.032478
0.027516
0.047372
0.031631
0.027696
0.030371
0.007261
0.036580
0.017348
0.030868
0.014244
0.023701
0.032507
0.016772
0.019829
0.022851
0.030914
0.022313
0.027928
0.024983
0.031252
0.037032
0.010928
-0.006496
-0.012610
-0.014524
-0.011991
0.034979
0.025062
0.024547
-0.052486
-0.063535
-0.046209
-0.052818
-0.049895
-0.042742
-0.006370
0.004196
0.007490
-0.056932
-0.043342
-0.045490
-0.061441
0.020345
0.004921
0.014620
0.006066
-0.027819
-0.013943
-0.033803
-0.021162
0.000984
-0.004412
-0.039512
-0.043788
-0.085374
-0.066316
-0.031881
-0.021814
0.007826
0.001876
-0.003242
-0.002768
-0.045025
-0.044518
-0.051770
-0.054592
0.009073
0.011970
0.016112
0.017348
0.043761
0.036551
0.046241
-0.003430
-0.009862
0.039765
0.022325
0.007942
0.030438
-0.019865
-0.015100
-0.010425
-0.027263
-0.050365
-0.010395
0.001759
0.009800
0.002557
-0.016185
-0.023695
-0.015382
-0.011853
-0.045551
-0.047620
-0.010688
0.007412
0.028881
-0.002754
-0.006989
-0.007870
-0.027246
-0.025323
-0.028077
-0.013753
-0.017746
-0.017465
-0.007152
0.016094
0.020248
0.002427
0.013589
0.002763
-0.006082
-0.010825
-0.024140
-0.011099
-0.008741
-0.012052
0.026095
0.044983
0.046368
-0.066466
-0.050291
-0.042903
0.000323
0.002857
-0.006407
0.004943
-0.024356
-0.003355
-0.043390
-0.005297
-0.010585
0.007014
0.002622
0.003426
0.033274
0.026787
-0.016785
-0.010621
-0.008989
0.010752
0.014235
0.008872
0.004301
0.002679
-0.006214
0.001794
0.020093
0.027613
0.041907
0.029435
-0.004670
-0.000412
-0.012943
0.002334
-0.000849
-0.004847
-0.067283
-0.055992
-0.057901
-0.075096
-0.014069
-0.032825
-0.025153
-0.019734
-0.001347
-0.010125
-0.009948
-0.007761
0.025230
-0.005552
-0.003414
-0.002507
0.000526
-0.075869
-0.061048
-0.075475
-0.006687
-0.005421
-0.000939
-0.062875
-0.048167
-0.048907
-0.008228
-0.000116
-0.003370
-0.009144
-0.063657
-0.060901
-0.049490
-0.047277
-0.042088
-0.049367
-0.058309
0.052048
0.042653
0.044490
0.046720
0.045048
0.034862
0.041499
0.020126
0.026049
0.020679
-0.024410
-0.017770
-0.010163
-0.019548
-0.017228
-0.015780
-0.004627
-0.010337
-0.006349
-0.003193
0.006439
0.020008
0.000609
-0.019762
-0.008387
-0.017357
-0.025937
-0.046296
-0.051613
-0.049255
-0.038741
0.027278
0.038007
0.022209
0.020874
0.022741
0.020264
0.032023
0.048970
0.046767
0.040334
0.015315
0.067757
-0.066639
-0.059958
-0.063207
0.008860
0.000497
0.003256
0.007923
0.037728
0.044862
0.046436
0.052304
0.032789
0.034900
0.018258
-0.020196
-0.019447
-0.064833
-0.053362
-0.042826
-0.030244
-0.044042
-0.035587
-0.043360
-0.000103
-0.010442
0.005575
-0.045277
-0.032841
-0.023369
-0.002335
0.014006
-0.010142
0.040172
0.034972
0.049842
-0.003350
-0.008163
-0.008930
-0.010832
-0.013214
-0.049017
-0.055100
-0.004469
-0.010459
-0.001464
0.007675
0.003957
-0.000152
-0.010080
-0.001014
0.007464
0.007018
0.006019
-0.048497
-0.055929
-0.041563
-0.013831
-0.013308
0.046441
0.044392
0.006248
0.039984
0.020354
0.044289
0.011494
-0.004353
-0.000913
0.007596
-0.059454
-0.068491
-0.078177
-0.059588
-0.073854
-0.056814
-0.080328
-0.048104
0.024159
0.000641
0.019770
0.036782
-0.075125
-0.069370
-0.063041
-0.057615
0.026130
0.052825
0.048881
0.040200
0.028641
-0.004154
-0.000041
-0.000462
0.024998
0.004757
0.000281
-0.009137
0.043953
-0.003920
-0.062604
-0.076335
-0.055454
-0.008222
0.006725
-0.007387
-0.035828
-0.042658
-0.031031
-0.008672
-0.007862
0.004297
0.054583
0.020696
0.000717
0.021713
-0.000313
-0.003240
0.009523
-0.008300
-0.056429
-0.068998
-0.040013
0.012488
0.016853
0.001886
0.011999
0.010078
0.009809
-0.044407
-0.056186
-0.055449
-0.018957
-0.007151
-0.041066
-0.012248
-0.023862
0.041542
0.019298
-0.006884
0.016089
0.014861
0.017152
-0.053775
-0.075696
-0.058096
-0.075119
-0.080673
-0.058163
-0.014649
0.011302
-0.005492
-0.009946
0.054262
0.028671
0.037873
0.037034
0.006159
0.015363
0.022214
0.019758
0.022207
0.022154
-0.029789
-0.029573
-0.007379
0.006897
0.003470
0.005092
0.002744
-0.015224
0.001948
-0.006836
-0.076565
-0.048917
-0.012577
-0.023013
-0.059413
-0.071012
-0.087974
0.006110
-0.000076
0.003179
-0.017759
-0.015180
-0.008107
0.000788
0.001046
-0.001726
0.009202
0.008970
0.005203
-0.003769
-0.036563
-0.047716
-0.045424
0.052375
0.032587
-0.005317
-0.030680
-0.015194
0.004146
-0.010715
0.006074
-0.011780
-0.011983
-0.011308
0.011955
0.016413
0.018034
-0.002307
-0.005107
-0.022542
-0.001575
-0.002665
-0.021493
-0.017562
-0.017932
0.014770
-0.063622
-0.039279
-0.061418
0.069493
0.020376
0.011809
-0.054539
-0.051910
0.040567
0.039486
-0.040804
-0.035574
-0.041383
-0.010610
0.003249
-0.003734
-0.014838
-0.001479
-0.001363
-0.012345
-0.039385
-0.038111
-0.058872
-0.062674
-0.035134
0.038204
0.046785
-0.066534
-0.061830
-0.062396
0.007975
0.006286
0.003941
0.001169
0.003796
0.001388
0.003727
0.007356
0.001489
-0.058119
-0.045354
-0.046878
-0.041294
-0.044053
-0.038701
-0.068931
-0.051102
-0.076665
-0.053241
0.000772
-0.002783
-0.001527
-0.001351
-0.011944
-0.007059
-0.004139
-0.059448
-0.060348
-0.058820
-0.003564
0.013924
0.009211
0.000920
-0.064821
-0.064259
-0.060112
-0.054296
-0.055896
-0.063739
0.041269
0.059300
-0.072925
0.013991
-0.004620
-0.048522
0.020818
-0.018874
0.055014
-0.057530
-0.043227
-0.009634
-0.064062
-0.060998
0.016009
0.000865
-0.000963
-0.022127
-0.015573
-0.003303
-0.000166
-0.007218
0.036516
0.057271
0.045883
0.040917
0.051347
0.053302
-0.030365
-0.031897
-0.030495
-0.028374
0.014148
0.007493
0.014851
-0.020376
-0.003100
0.012909
0.004217
0.038892
0.033310
-0.065493
-0.059146
-0.056463
-0.054319
-0.004367
-0.030660
-0.020654
-0.014598
0.034929
0.046322
0.032354
0.044876
0.033463
-0.009876
-0.004222
-0.005710
0.015130
-0.058268
-0.056883
-0.066559
-0.052383
-0.045058
-0.020720
-0.002916
-0.011717
-0.005435
-0.012889
0.001973
-0.006516
-0.001977
-0.003151
-0.007720
0.000041
0.001561
0.035234
0.026865
0.033882
0.014216
0.008363
-0.000234
0.000158
-0.005454
0.003923
-0.061000
0.013072
0.023008
0.000838
-0.006209
-0.014206
-0.012467
-0.050123
-0.053217
-0.075040
-0.064487
-0.063892
-0.066356
-0.051749
-0.037804
-0.042938
-0.039878
-0.070854
0.072341
0.032248
0.022655
0.023275
0.021931
-0.008042
-0.008298
0.021889
-0.050770
-0.046400
-0.055841
-0.005427
-0.008167
-0.041324
-0.043479
-0.049244
-0.059774
-0.004194
-0.006367
-0.012603
-0.068583
-0.002459
-0.004770
-0.061039
-0.057397
0.022900
0.018746
0.021308
0.018918
0.002787
0.005174
-0.001351
-0.000512
-0.055045
-0.075971
-0.073025
-0.039365
-0.036620
-0.040041
-0.027092
-0.004760
-0.006185
-0.012272
-0.012432
0.039934
0.035457
0.033338
0.005445
0.028228
0.039323
0.001123
0.021318
0.003901
0.000585
-0.006856
-0.008547
-0.008854
-0.060198
-0.057744
-0.057435
-0.015611
-0.020112
-0.030775
-0.018353
0.050550
0.029446
-0.016280
-0.015899
-0.054969
-0.050510
-0.047593
-0.040481
-0.061110
-0.048763
-0.058564
-0.049742
-0.049477
0.003912
-0.027026
-0.015431
-0.008442
-0.012029
0.046171
-0.007098
0.043916
0.042702
-0.011955
-0.005284
-0.002764
0.009205
0.007283
0.005496
-0.006811
-0.050937
-0.066479
-0.007373
-0.000507
-0.008406
-0.042915
-0.021746
-0.019126
-0.013520
-0.010502
0.001356
0.001359
0.012435
-0.009069
0.000321
-0.062698
-0.007723
0.007771
-0.023460
-0.045540
-0.043429
-0.070688
0.016213
0.000847
-0.007796
-0.065437
0.016370
0.022411
-0.015548
-0.089518
-0.067000
-0.080770
0.016213
-0.023503
-0.003184
-0.000562
-0.011540
-0.023713
-0.009064
-0.000559
0.003650
-0.014997
-0.001819
-0.005646
0.009730
0.003988
0.021479
0.027956
0.008101
0.016937
0.028818
0.000961
-0.003028
-0.009406
0.000508
-0.033715
-0.002558
-0.000789
0.001162
-0.019860
-0.003613
-0.056181
-0.042334
-0.051141
-0.054299
-0.050980
-0.051567
-0.048628
-0.007853
-0.004288
-0.008283
0.001302
0.003256
0.028260
0.038249
0.038262
0.027862
-0.060367
0.006974
-0.006045
0.004578
-0.003749
-0.046813
0.026863
0.017649
0.031103
0.000003
-0.061389
0.002355
0.006199
0.002289
0.010138
0.004423
0.011233
-0.004151
-0.004032
-0.001774
-0.002228
-0.002061
-0.002534
-0.001748
0.051651
0.056601
0.052794
0.050340
-0.050454
-0.059742
-0.043662
-0.017601
-0.024725
0.014973
0.011389
0.020793
0.002757
0.008155
-0.006712
0.023874
-0.012266
-0.055454
0.033442
0.027220
0.045447
-0.072588
-0.052436
-0.064293
-0.048343
-0.054633
-0.006709
0.041372
0.043922
0.034495
0.036800
0.029837
-0.012698
-0.012642
-0.033265
0.005200
0.005958
-0.039200
0.016268
0.017748
-0.021983
-0.017057
-0.021022
-0.048092
-0.051457
-0.008378
-0.034640
-0.034155
-0.027098
-0.036114
0.050918
0.044201
0.056600
0.062242
-0.061079
-0.012444
-0.055596
-0.051948
-0.061218
0.012728
0.024333
0.026862
0.040675
0.038521
0.045885
-0.008702
-0.010017
-0.008816
-0.062430
0.019110
-0.066495
-0.052564
-0.041924
-0.066776
-0.063527
-0.071617
-0.048488
-0.075223
0.003112
-0.009449
-0.062593
0.033073
-0.010478
-0.005294
-0.008563
-0.023013
-0.018091
-0.016982
-0.018637
-0.009095
0.007400
0.006824
0.010848
0.015814
-0.012653
-0.006291
-0.007117
0.005448
-0.002786
0.001156
0.037800
0.031540
0.038327
-0.003011
-0.007298
-0.046732
-0.044549
-0.047586
-0.036912
-0.070126
-0.077020
-0.077381
-0.042730
-0.050345
-0.036273
0.011559
0.016727
0.007709
-0.052092
-0.046304
-0.054712
-0.018651
-0.007477
-0.031174
-0.014305
-0.001500
0.010985
-0.008398
0.048590
0.046007
0.039330
0.043338
-0.002402
-0.002891
-0.006722
-0.002423
-0.006502
0.017323
-0.000361
-0.002617
-0.047786
0.004889
-0.009538
-0.013722
-0.000388
-0.035312
-0.029208
-0.051011
-0.042478
-0.088577
-0.044078
-0.057414
-0.060223
-0.001993
0.001105
0.009494
-0.067679
-0.065071
-0.058195
-0.065260
-0.004073
0.034223
0.024769
-0.011901
0.000350
0.022441
-0.009980
0.047325
0.049235
-0.010144
-0.023728
-0.033523
-0.043811
-0.005337
-0.011541
-0.006264
-0.016987
-0.014309
-0.019242
0.033732
0.084916
0.044206
-0.046408
-0.050713
-0.054988
-0.059001
-0.017194
-0.045314
-0.052549
-0.055677
-0.068732
-0.007223
-0.045589
-0.046493
-0.058327
-0.055311
0.003087
0.010811
0.009791
-0.008332
-0.009035
-0.010241
0.002094
0.006078
-0.002655
-0.007885
-0.008587
-0.005944
-0.006921
0.000216
0.004469
-0.042835
-0.052962
-0.066609
-0.043505
0.040415
0.043869
0.044788
0.036260
0.000601
-0.003630
-0.023726
-0.021633
-0.021045
0.004462
0.000248
-0.001230
-0.062241
-0.062303
-0.010761
-0.005734
-0.003561
0.012938
-0.004428
-0.008569
0.004817
-0.008135
-0.010511
-0.008042
-0.006583
-0.051630
-0.053912
-0.062873
0.000795
0.001960
-0.036473
-0.035538
-0.036437
-0.058504
-0.060487
-0.055173
-0.052201
0.003996
0.002375
-0.006046
-0.038029
-0.043564
-0.058372
0.030519
0.030616
0.030944
0.036416
-0.031889
-0.051387
-0.051377
-0.050683
0.043658
0.040848
0.049400
-0.054161
0.042185
-0.030108
0.003902
0.022725
0.022079
0.017794
0.040142
-0.047580
-0.052079
-0.047578
0.000544
0.001520
0.009087
0.047035
0.053679
0.011632
-0.032750
-0.022081
0.040719
0.040414
0.051509
-0.004054
-0.030753
-0.025114
-0.050485
0.030097
-0.006588
0.033497
0.037191
0.023950
-0.007549
-0.006824
-0.003500
-0.003832
-0.007546
-0.008916
0.007837
0.036995
-0.066609
-0.066112
-0.058799
-0.046004
-0.006960
-0.063620
-0.059739
-0.061292
-0.056916
-0.059007
0.035732
0.005869
-0.006684
0.000584
0.003484
-0.005340
0.000634
-0.007267
0.003105
-0.004602
-0.007728
-0.001820
-0.039203
-0.040076
-0.049093
0.000210
-0.049841
-0.056543
-0.001987
0.034803
0.027871
0.050785
-0.065432
0.054202
0.035776
0.029912
-0.050842
-0.048746
-0.049550
0.006158
0.001312
0.001882
-0.077122
-0.006479
-0.047515
-0.007870
-0.022119
-0.023505
-0.028185
-0.075482
-0.073441
-0.071061
-0.056610
-0.053355
-0.010376
0.027838
-0.004400
-0.056710
0.036876
0.041321
0.027735
-0.022751
-0.020541
-0.009839
-0.011374
-0.017517
-0.012312
-0.012276
0.037728
-0.005643
-0.051693
-0.047550
0.010541
-0.005197
-0.002104
-0.055151
-0.053635
-0.051228
0.010334
0.010893
0.006920
-0.010588
-0.010420
-0.016098
-0.013387
0.001928
-0.006350
-0.003577
-0.001270
0.014262
0.003203
-0.008009
-0.003715
-0.000936
-0.006192
-0.058769
-0.064609
-0.062341
-0.053333
-0.003308
-0.004841
-0.002846
-0.010901
-0.013086
-0.004248
-0.004774
-0.021265
-0.031001
-0.044726
-0.071762
-0.068004
0.047523
-0.013458
-0.016424
0.037537
0.041926
0.016659
-0.075151
0.048049
-0.014354
-0.018747
-0.016976
-0.012795
-0.039701
-0.049598
-0.039376
-0.032806
-0.032440
-0.006494
-0.036692
-0.051327
-0.011404
-0.019463
-0.003039
-0.032503
-0.008800
-0.062489
-0.010236
0.054119
0.048247
0.057139
0.001933
-0.012889
-0.008259
-0.043666
-0.003992
-0.002048
0.000615
0.007253
-0.007547
0.006315
0.005403
-0.018315
-0.012255
-0.007496
-0.009342
0.033268
0.039257
0.058832
-0.046103
-0.080148
-0.068793
0.061929
-0.064236
-0.063856
-0.073323
-0.043253
-0.055168
-0.092883
-0.070954
-0.083759
-0.017820
-0.014426
-0.014667
0.041896
-0.011448
-0.001053
-0.006077
-0.002471
-0.014084
-0.005161
-0.022002
-0.021850
-0.027033
0.007220
-0.003225
-0.053612
-0.070567
-0.066188
-0.047762
-0.052835
-0.053448
0.001243
0.011106
-0.004700
-0.057854
-0.055527
-0.054268
0.029136
0.019746
-0.010723
-0.004626
-0.001851
-0.059295
-0.056392
-0.000689
-0.001363
-0.004360
-0.018455
-0.007824
-0.007953
-0.011044
-0.068580
0.007675
0.015777
-0.061232
0.024996
0.030313
0.018961
0.020202
-0.063343
-0.085481
-0.045478
-0.006879
-0.014299
-0.010688
-0.001010
0.002999
0.009961
0.020131
0.000340
0.005224
0.018254
0.006201
-0.016379
-0.007994
-0.008853
-0.008471
-0.004852
-0.000377
-0.052875
-0.003885
-0.002672
-0.004146
-0.009887
-0.009835
0.040750
0.049603
0.030511
0.039195
0.039930
0.041459
0.032416
-0.009669
0.004609
-0.003244
0.030498
0.000324
-0.009200
-0.017172
-0.020351
-0.010569
-0.017054
-0.020830
-0.022542
-0.024846
0.041053
-0.013305
-0.031666
-0.019250
-0.030986
0.029748
0.019955
0.014701
-0.010545
-0.002255
0.036585
0.071196
0.038262
0.017065
0.021477
0.013336
0.037103
0.018212
0.021610
0.046572
0.046411
-0.013385
-0.004404
0.038063
0.015845
0.066363
0.048918
0.022441
0.054922
0.055790
0.063024
-0.022668
-0.006075
-0.011308
-0.005105
0.000659
-0.016928
0.020038
0.031204
0.034972
0.021679
0.035884
0.048565
0.056398
0.050198
-0.011387
-0.011433
-0.003467
-0.011277
-0.015065
-0.001985
-0.015406
-0.000074
0.000097
-0.008618
-0.003494
-0.002116
0.054605
0.047305
0.058174
0.035819
0.021068
0.017616
0.000354
-0.008522
-0.051295
-0.051238
-0.013222
-0.024301
-0.002627
-0.010109
-0.057398
-0.053565
-0.051009
-0.060608
-0.015526
-0.019958
-0.017750
-0.013035
-0.001449
0.001012
-0.008783
-0.003580
-0.012478
-0.005222
-0.005965
0.000570
0.044813
0.046969
0.048386
0.049837
0.028987
0.001104
-0.000037
-0.007810
0.059513
0.051687
0.052130
-0.013330
-0.012021
-0.007227
-0.018340
-0.032857
-0.028427
-0.025018
-0.024922
-0.038435
-0.033004
-0.011557
-0.009180
-0.009673
0.000740
0.056890
-0.007080
-0.001279
-0.007075
-0.013888
0.023953
-0.050216
-0.004341
-0.002365
-0.000072
0.001754
-0.000436
-0.002271
0.002117
-0.010518
-0.023308
-0.010569
-0.013818
0.000458
-0.050450
-0.013072
-0.007437
-0.011111
0.003499
0.002791
-0.010519
-0.013222
0.001285
-0.007982
0.001879
-0.008329
-0.046715
-0.026794
-0.042253
-0.046478
-0.017976
-0.007810
-0.004578
-0.013781
-0.011798
-0.012363
-0.006531
-0.012013
-0.010530
-0.007815
-0.010146
-0.006100
-0.017005
-0.045795
-0.045255
-0.036849
-0.054063
-0.046666
-0.044970
-0.058623
-0.014670
-0.013871
-0.014587
-0.013846
-0.004878
0.062481
0.034124
0.042770
0.045456
0.002321
0.005487
-0.000344
-0.005445
-0.003354
-0.003511
-0.009723
0.008185
-0.024813
-0.037014
-0.037777
0.012710
0.008832
-0.008375
0.007625
-0.013253
-0.009082
-0.020229
-0.011853
-0.005091
-0.064483
-0.057231
0.029903
0.014112
0.037689
0.035203
-0.006388
-0.011084
-0.010435
-0.009274
-0.058690
-0.005040
0.000012
-0.007488
0.033810
0.029177
0.029996
-0.028756
-0.028199
-0.013001
-0.042288
-0.016038
-0.008729
0.003317
-0.008216
-0.014425
-0.012012
-0.012313
-0.010837
-0.024942
0.000103
0.027262
0.030420
0.036291
0.028618
0.031820
-0.002721
0.001193
-0.000149
-0.006142
-0.021551
-0.015723
-0.015607
-0.010477
-0.015116
-0.007139
-0.003736
-0.001549
0.002418
-0.010036
-0.006063
-0.005218
-0.003037
-0.057816
0.032009
0.033809
0.037186
-0.011276
-0.011078
-0.055961
-0.053956
-0.030959
-0.034275
-0.070252
-0.072810
-0.072373
-0.069474
0.039903
0.043144
-0.011853
-0.007799
-0.012568
0.024262
-0.016054
-0.006046
0.030632
0.028498
-0.033044
-0.032474
-0.007428
-0.061246
-0.058266
-0.064630
-0.069081
-0.047576
-0.084367
-0.067751
-0.044626
-0.003874
-0.009946
-0.013701
-0.036801
0.000106
-0.000923
-0.036260
-0.091529
-0.000205
-0.009598
0.003313