# vtk DataFile Version 2.0
Test
ASCII
DATASET POLYDATA
POINTS 7607 float
0.000000 0.000000 0.000000
1.000000 0.000000 0.000000
1.000000 0.800000 0.000000
1.000000 1.000000 0.000000
0.000000 1.000000 0.000000
0.000000 0.200000 0.000000
0.300000 0.330000 0.000000
0.700000 0.680000 0.000000
0.012987 0.000000 0.000000
0.025974 0.000000 0.000000
0.038961 0.000000 0.000000
0.051948 0.000000 0.000000
0.064935 0.000000 0.000000
0.077922 0.000000 0.000000
0.090909 0.000000 0.000000
0.103896 0.000000 0.000000
0.116883 0.000000 0.000000
0.129870 0.000000 0.000000
0.142857 0.000000 0.000000
0.155844 0.000000 0.000000
0.168831 0.000000 0.000000
0.181818 0.000000 0.000000
0.194805 0.000000 0.000000
0.207792 0.000000 0.000000
0.220779 0.000000 0.000000
0.233766 0.000000 0.000000
0.246753 0.000000 0.000000
0.259740 0.000000 0.000000
0.272727 0.000000 0.000000
0.285714 0.000000 0.000000
0.298701 0.000000 0.000000
0.311688 0.000000 0.000000
0.324675 0.000000 0.000000
0.337662 0.000000 0.000000
0.350649 0.000000 0.000000
0.363636 0.000000 0.000000
0.376623 0.000000 0.000000
0.389610 0.000000 0.000000
0.402597 0.000000 0.000000
0.415584 0.000000 0.000000
0.428571 0.000000 0.000000
0.441558 0.000000 0.000000
0.454545 0.000000 0.000000
0.467532 0.000000 0.000000
0.480519 0.000000 0.000000
0.493506 0.000000 0.000000
0.506494 0.000000 0.000000
0.519481 0.000000 0.000000
0.532468 0.000000 0.000000
0.545455 0.000000 0.000000
0.558442 0.000000 0.000000
0.571429 0.000000 0.000000
0.584416 0.000000 0.000000
0.597403 0.000000 0.000000
0.610390 0.000000 0.000000
0.623377 0.000000 0.000000
0.636364 0.000000 0.000000
0.649351 0.000000 0.000000
0.662338 0.000000 0.000000
0.675325 0.000000 0.000000
0.688312 0.000000 0.000000
0.701299 0.000000 0.000000
0.714286 0.000000 0.000000
0.727273 0.000000 0.000000
0.740260 0.000000 0.000000
0.753247 0.000000 0.000000
0.766234 0.000000 0.000000
0.779221 0.000000 0.000000
0.792208 0.000000 0.000000
0.805195 0.000000 0.000000
0.818182 0.000000 0.000000
0.831169 0.000000 0.000000
0.844156 0.000000 0.000000
0.857143 0.000000 0.000000
0.870130 0.000000 0.000000
0.883117 0.000000 0.000000
0.896104 0.000000 0.000000
0.909091 0.000000 0.000000
0.922078 0.000000 0.000000
0.935065 0.000000 0.000000
0.948052 0.000000 0.000000
0.961039 0.000000 0.000000
0.974026 0.000000 0.000000
0.987013 0.000000 0.000000
1.000000 0.012903 0.000000
1.000000 0.025806 0.000000
1.000000 0.038710 0.000000
1.000000 0.051613 0.000000
1.000000 0.064516 0.000000
1.000000 0.077419 0.000000
1.000000 0.090323 0.000000
1.000000 0.103226 0.000000
1.000000 0.116129 0.000000
1.000000 0.129032 0.000000
1.000000 0.141935 0.000000
1.000000 0.154839 0.000000
1.000000 0.167742 0.000000
1.000000 0.180645 0.000000
1.000000 0.193548 0.000000
1.000000 0.206452 0.000000
1.000000 0.219355 0.000000
1.000000 0.232258 0.000000
1.000000 0.245161 0.000000
1.000000 0.258065 0.000000
1.000000 0.270968 0.000000
1.000000 0.283871 0.000000
1.000000 0.296774 0.000000
1.000000 0.309677 0.000000
1.000000 0.322581 0.000000
1.000000 0.335484 0.000000
1.000000 0.348387 0.000000
1.000000 0.361290 0.000000
1.000000 0.374194 0.000000
1.000000 0.387097 0.000000
1.000000 0.400000 0.000000
1.000000 0.412903 0.000000
1.000000 0.425806 0.000000
1.000000 0.438710 0.000000
1.000000 0.451613 0.000000
1.000000 0.464516 0.000000
1.000000 0.477419 0.000000
1.000000 0.490323 0.000000
1.000000 0.503226 0.000000
1.000000 0.516129 0.000000
1.000000 0.529032 0.000000
1.000000 0.541935 0.000000
1.000000 0.554839 0.000000
1.000000 0.567742 0.000000
1.000000 0.580645 0.000000
1.000000 0.593548 0.000000
1.000000 0.606452 0.000000
1.000000 0.619355 0.000000
1.000000 0.632258 0.000000
1.000000 0.645161 0.000000
1.000000 0.658065 0.000000
1.000000 0.670968 0.000000
1.000000 0.683871 0.000000
1.000000 0.696774 0.000000
1.000000 0.709677 0.000000
1.000000 0.722581 0.000000
1.000000 0.735484 0.000000
1.000000 0.748387 0.000000
1.000000 0.761290 0.000000
1.000000 0.774194 0.000000
1.000000 0.787097 0.000000
1.000000 0.812500 0.000000
1.000000 0.825000 0.000000
1.000000 0.837500 0.000000
1.000000 0.850000 0.000000
1.000000 0.862500 0.000000
1.000000 0.875000 0.000000
1.000000 0.887500 0.000000
1.000000 0.900000 0.000000
1.000000 0.912500 0.000000
1.000000 0.925000 0.000000
1.000000 0.937500 0.000000
1.000000 0.950000 0.000000
1.000000 0.962500 0.000000
1.000000 0.975000 0.000000
1.000000 0.987500 0.000000
0.987013 1.000000 0.000000
0.974026 1.000000 0.000000
0.961039 1.000000 0.000000
0.948052 1.000000 0.000000
0.935065 1.000000 0.000000
0.922078 1.000000 0.000000
0.909091 1.000000 0.000000
0.896104 1.000000 0.000000
0.883117 1.000000 0.000000
0.870130 1.000000 0.000000
0.857143 1.000000 0.000000
0.844156 1.000000 0.000000
0.831169 1.000000 0.000000
0.818182 1.000000 0.000000
0.805195 1.000000 0.000000
0.792208 1.000000 0.000000
0.779221 1.000000 0.000000
0.766234 1.000000 0.000000
0.753247 1.000000 0.000000
0.740260 1.000000 0.000000
0.727273 1.000000 0.000000
0.714286 1.000000 0.000000
0.701299 1.000000 0.000000
0.688312 1.000000 0.000000
0.675325 1.000000 0.000000
0.662338 1.000000 0.000000
0.649351 1.000000 0.000000
0.636364 1.000000 0.000000
0.623377 1.000000 0.000000
0.610390 1.000000 0.000000
0.597403 1.000000 0.000000
0.584416 1.000000 0.000000
0.571429 1.000000 0.000000
0.558442 1.000000 0.000000
0.545455 1.000000 0.000000
0.532468 1.000000 0.000000
0.519481 1.000000 0.000000
0.506494 1.000000 0.000000
0.493506 1.000000 0.000000
0.480519 1.000000 0.000000
0.467532 1.000000 0.000000
0.454545 1.000000 0.000000
0.441558 1.000000 0.000000
0.428571 1.000000 0.000000
0.415584 1.000000 0.000000
0.402597 1.000000 0.000000
0.389610 1.000000 0.000000
0.376623 1.000000 0.000000
0.363636 1.000000 0.000000
0.350649 1.000000 0.000000
0.337662 1.000000 0.000000
0.324675 1.000000 0.000000
0.311688 1.000000 0.000000
0.298701 1.000000 0.000000
0.285714 1.000000 0.000000
0.272727 1.000000 0.000000
0.259740 1.000000 0.000000
0.246753 1.000000 0.000000
0.233766 1.000000 0.000000
0.220779 1.000000 0.000000
0.207792 1.000000 0.000000
0.194805 1.000000 0.000000
0.181818 1.000000 0.000000
0.168831 1.000000 0.000000
0.155844 1.000000 0.000000
0.142857 1.000000 0.000000
0.129870 1.000000 0.000000
0.116883 1.000000 0.000000
0.103896 1.000000 0.000000
0.090909 1.000000 0.000000
0.077922 1.000000 0.000000
0.064935 1.000000 0.000000
0.051948 1.000000 0.000000
0.038961 1.000000 0.000000
0.025974 1.000000 0.000000
0.012987 1.000000 0.000000
0.000000 0.987097 0.000000
0.000000 0.974194 0.000000
0.000000 0.961290 0.000000
0.000000 0.948387 0.000000
0.000000 0.935484 0.000000
0.000000 0.922581 0.000000
0.000000 0.909677 0.000000
0.000000 0.896774 0.000000
0.000000 0.883871 0.000000
0.000000 0.870968 0.000000
0.000000 0.858065 0.000000
0.000000 0.845161 0.000000
0.000000 0.832258 0.000000
0.000000 0.819355 0.000000
0.000000 0.806452 0.000000
0.000000 0.793548 0.000000
0.000000 0.780645 0.000000
0.000000 0.767742 0.000000
0.000000 0.754839 0.000000
0.000000 0.741935 0.000000
0.000000 0.729032 0.000000
0.000000 0.716129 0.000000
0.000000 0.703226 0.000000
0.000000 0.690323 0.000000
0.000000 0.677419 0.000000
0.000000 0.664516 0.000000
0.000000 0.651613 0.000000
0.000000 0.638710 0.000000
0.000000 0.625806 0.000000
0.000000 0.612903 0.000000
0.000000 0.600000 0.000000
0.000000 0.587097 0.000000
0.000000 0.574194 0.000000
0.000000 0.561290 0.000000
0.000000 0.548387 0.000000
0.000000 0.535484 0.000000
0.000000 0.522581 0.000000
0.000000 0.509677 0.000000
0.000000 0.496774 0.000000
0.000000 0.483871 0.000000
0.000000 0.470968 0.000000
0.000000 0.458065 0.000000
0.000000 0.445161 0.000000
0.000000 0.432258 0.000000
0.000000 0.419355 0.000000
0.000000 0.406452 0.000000
0.000000 0.393548 0.000000
0.000000 0.380645 0.000000
0.000000 0.367742 0.000000
0.000000 0.354839 0.000000
0.000000 0.341935 0.000000
0.000000 0.329032 0.000000
0.000000 0.316129 0.000000
0.000000 0.303226 0.000000
0.000000 0.290323 0.000000
0.000000 0.277419 0.000000
0.000000 0.264516 0.000000
0.000000 0.251613 0.000000
0.000000 0.238710 0.000000
0.000000 0.225806 0.000000
0.000000 0.212903 0.000000
0.000000 0.187500 0.000000
0.000000 0.175000 0.000000
0.000000 0.162500 0.000000
0.000000 0.150000 0.000000
0.000000 0.137500 0.000000
0.000000 0.125000 0.000000
0.000000 0.112500 0.000000
0.000000 0.100000 0.000000
0.000000 0.087500 0.000000
0.000000 0.075000 0.000000
0.000000 0.062500 0.000000
0.000000 0.050000 0.000000
0.000000 0.037500 0.000000
0.000000 0.025000 0.000000
0.000000 0.012500 0.000000
0.309756 0.338537 0.000000
0.319512 0.347073 0.000000
0.329268 0.355610 0.000000
0.339024 0.364146 0.000000
0.348780 0.372683 0.000000
0.358537 0.381220 0.000000
0.368293 0.389756 0.000000
0.378049 0.398293 0.000000
0.387805 0.406829 0.000000
0.397561 0.415366 0.000000
0.407317 0.423902 0.000000
0.417073 0.432439 0.000000
0.426829 0.440976 0.000000
0.436585 0.449512 0.000000
0.446341 0.458049 0.000000
0.456098 0.466585 0.000000
0.465854 0.475122 0.000000
0.475610 0.483659 0.000000
0.485366 0.492195 0.000000
0.495122 0.500732 0.000000
0.504878 0.509268 0.000000
0.514634 0.517805 0.000000
0.524390 0.526341 0.000000
0.534146 0.534878 0.000000
0.543902 0.543415 0.000000
0.553659 0.551951 0.000000
0.563415 0.560488 0.000000
0.573171 0.569024 0.000000
0.582927 0.577561 0.000000
0.592683 0.586098 0.000000
0.602439 0.594634 0.000000
0.612195 0.603171 0.000000
0.621951 0.611707 0.000000
0.631707 0.620244 0.000000
0.641463 0.628780 0.000000
0.651220 0.637317 0.000000
0.660976 0.645854 0.000000
0.670732 0.654390 0.000000
0.680488 0.662927 0.000000
0.690244 0.671463 0.000000
0.011538 0.205000 0.000000
0.023077 0.210000 0.000000
0.034615 0.215000 0.000000
0.046154 0.220000 0.000000
0.057692 0.225000 0.000000
0.069231 0.230000 0.000000
0.080769 0.235000 0.000000
0.092308 0.240000 0.000000
0.103846 0.245000 0.000000
0.115385 0.250000 0.000000
0.126923 0.255000 0.000000
0.138462 0.260000 0.000000
0.150000 0.265000 0.000000
0.161538 0.270000 0.000000
0.173077 0.275000 0.000000
[...]
POINT_DATA 7607
SCALARS UX float 1
LOOKUP_TABLE default
0.006852
0.001915
-0.066831
-0.660101
-0.757442
-0.352911
-0.121169
-0.242471
-0.002664
0.000151
0.001930
0.001497
0.012011
0.000356
-0.000241
0.011210
0.000329
0.001071
-0.000332
0.000058
0.000238
-0.000106
-0.000196
0.000191
-0.000137
0.000298
0.000128
-0.001581
-0.000240
-0.000208
-0.000864
-0.010151
0.000284
-0.000251
-0.000196
-0.000470
0.000421
0.000336
0.002316
0.000041
0.000273
-0.002051
0.000142
0.003742
0.000220
-0.000580
-0.002597
-0.000016
-0.000447
0.000068
0.000051
-0.004188
-0.000278
-0.001576
-0.000126
-0.000868
0.000180
-0.000064
0.000065
-0.001333
-0.001866
0.000603
-0.000345
-0.000866
0.003306
0.001111
-0.005782
0.000229
0.001805
0.000810
-0.001275
-0.000455
-0.005050
0.000445
0.005470
0.003316
-0.006750
0.000120
-0.000914
0.002326
0.000101
0.001028
-0.000201
-0.010589
-0.000322
0.013672
0.010049
0.023138
0.006313
0.021332
0.007813
0.028693
0.037194
0.042181
0.038785
0.052024
0.034022
0.055520
0.036802
0.035028
0.051618
0.058979
0.050562
0.067688
0.057616
0.067207
0.077430
0.056517
0.070916
0.086166
0.065298
0.098140
0.078150
0.084151
0.092256
0.073623
0.113777
0.084019
0.113485
0.086898
0.108620
0.126261
0.095606
0.114529
0.143421
0.116741
0.137906
0.137879
0.143553
0.152555
0.152789
0.136216
0.176469
0.131347
0.145553
0.162057
0.147678
0.169428
0.156206
0.143151
0.156530
0.094120
0.136377
0.141137
0.085817
-0.101453
-0.155969
-0.287949
-0.367267
-0.597929
-0.439803
-0.640794
-0.498066
-0.644393
-0.606361
-0.627710
-0.624635
-0.614863
-0.659632
-0.635384
-0.636806
-0.641060
-0.657122
-0.663031
-0.657869
-0.660427
-0.652998
-0.661895
-0.663692
-0.665439
-0.661031
-0.666713
-0.663186
-0.661746
-0.670411
-0.670308
-0.669941
-0.677572
-0.679942
-0.675139
-0.674537
-0.677022
-0.676286
-0.679414
-0.682513
-0.679867
-0.687651
-0.682552
-0.687248
-0.691151
-0.684486
-0.697029
-0.696419
-0.696801
-0.702451
-0.698697
-0.697739
-0.702226
-0.700198
-0.702551
-0.703671
-0.703883
-0.712471
-0.700974
-0.704619
-0.716959
-0.705636
-0.714696
-0.709409
-0.718947
-0.722700
-0.725467
-0.726914
-0.728481
-0.726916
-0.734714
-0.726574
-0.738709
-0.744106
-0.730274
-0.749419
-0.741903
-0.743516
-0.738275
-0.751062
-0.755389
-0.751284
-0.755853
-0.762425
-0.757254
-0.756058
-0.759997
-0.764482
-0.764422
-0.763842
-0.767821
-0.770753
-0.768998
-0.768597
-0.760011
-0.763867
-0.751444
-0.761127
-0.760783
-0.769422
-0.764070
-0.762754
-0.787903
-0.772086
-0.774448
-0.769410
-0.773247
-0.782502
-0.777277
-0.774403
-0.766623
-0.779556
-0.779504
-0.775712
-0.774650
-0.783842
-0.770942
-0.777572
-0.785352
-0.780250
-0.780714
-0.754775
-0.743508
-0.763070
-0.776145
-0.775852
-0.780667
-0.773047
-0.784490
-0.780168
-0.795649
-0.779250
-0.786212
-0.778196
-0.789757
-0.787161
-0.780031
-0.795778
-0.792973
-0.786528
-0.785038
-0.770917
-0.784855
-0.758802
-0.744486
-0.722218
-0.685288
-0.654266
-0.663407
-0.603250
-0.490408
-0.611988
-0.210859
-0.217990
-0.309820
-0.095941
-0.030409
-0.070332
-0.033843
-0.025424
-0.017692
-0.025051
-0.006023
-0.026987
-0.011078
-0.006716
-0.007964
-0.111900
-0.291065
-0.178342
-0.713745
-0.748178
-0.829008
-0.590320
-0.410661
-0.301603
-0.432529
-0.333717
-0.407642
0.202692
-0.153502
-0.189270
-0.432088
0.234839
-0.170181
-0.616103
-0.531377
-0.464607
-0.584977
-0.705981
-0.210823
-0.122781
-0.470215
-0.393434
0.075729
-0.309570
-0.183663
0.263325
-0.036868
-0.274755
-0.050930
0.014591
0.224253
-0.666020
-0.050427
-0.758527
-0.645844
-0.411973
-0.653836
-0.280531
-0.481385
-0.371674
-0.553184
-0.710611
-0.307081
-0.671453
-0.307746
-0.519182
-0.580394
-0.548855
-0.659875
-0.267860
-0.715798
-0.768499
-0.292672
-0.077581
-0.820236
-0.157573
-0.689448
-0.375539
-0.409650
-0.152916
0.069137
0.282376
-0.184167
0.062021
-0.232534
0.441021
-0.064406
-0.288878
0.077612
0.003218
-0.163239
-0.141243
-0.182683
0.046248
-0.266219
0.050300
-0.083612
-0.198801
0.103333
-0.042347
-0.150825
0.055138
0.031775
-0.078494
-0.672564
-0.688469
-0.686540
-0.672010
0.024710
0.025071
0.033028
-0.658235
-0.789296
-0.323339
-0.599007
-0.620754
-0.537562
-0.009111
0.010556
0.013783
-0.670384
-0.743672
-0.752803
-0.774226
0.039524
0.011962
0.009218
0.012455
-0.163151
0.038022
-0.269220
-0.145500
-0.000038
-0.002797
-0.683452
-0.593494
-0.845964
-0.722166
-0.031680
-0.138343
0.013704
0.003132
-0.002010
-0.001343
-0.751184
-0.747192
-0.759918
-0.764915
-0.345999
-0.640563
-0.255738
-0.398279
0.122417
0.091211
0.090777
-0.638817
-0.654441
0.067267
0.039540
0.023545
0.052012
-0.698123
-0.679035
-0.665181
-0.143032
-0.505215
-0.677567
-0.641549
-0.602145
-0.565344
-0.053870
-0.073879
-0.028836
-0.569489
-0.749813
-0.754264
-0.019578
0.021310
0.015728
-0.009140
-0.018693
-0.022463
-0.712414
-0.715308
-0.713182
-0.017801
-0.689996
-0.688024
-0.663597
0.034455
0.030794
-0.001287
0.044079
0.000030
-0.015020
-0.020929
-0.086116
0.005930
0.001386
-0.027123
0.057833
0.119035
0.151239
-0.960033
-0.436636
-0.380814
-0.521354
-0.328001
-0.699072
-0.655302
-0.709153
-0.642175
-0.746701
-0.690904
-0.016882
0.007252
0.006929
0.009736
0.045074
0.056658
-0.673292
-0.677555
-0.666530
0.013730
0.033134
0.021902
-0.632578
-0.606887
-0.679754
-0.619462
0.034807
0.060994
0.095104
0.047277
-0.005615
-0.684035
-0.033356
0.017332
0.012749
-0.020841
-0.779016
-0.707670
-0.709089
-0.689745
-0.691884
-0.720115
-0.709179
-0.697943
-0.652230
-0.665344
-0.672282
-0.661958
-0.619693
-0.011378
-0.009943
-0.004154
-0.001062
-0.783481
-0.758685
-0.785815
-0.013739
-0.012936
-0.004643
-0.778101
-0.752665
-0.754843
-0.017682
-0.619650
-0.666870
-0.656102
-0.745294
-0.750781
-0.713720
-0.751543
-0.744491
-0.754092
-0.741635
0.080425
0.066886
0.075702
0.099314
0.103261
0.026879
0.074237
0.034938
0.039316
0.025231
-0.706005
-0.694897
-0.678759
-0.693841
-0.689924
-0.688053
-0.011008
-0.025051
-0.011848
-0.006860
0.018219
0.031684
0.015460
-0.057429
-0.026419
-0.027193
-0.117042
-0.715296
-0.730306
-0.731490
-0.649726
0.001424
0.039117
0.030201
0.029985
0.027345
0.025000
0.044122
0.085354
0.105882
0.085443
0.156908
0.280802
-0.761398
-0.749385
-0.758316
-0.309763
-0.631918
-0.679381
-0.513315
0.067819
0.142052
0.151231
0.049294
0.014782
0.022863
0.014644
-0.698709
-0.701620
-0.762547
-0.734897
-0.697004
-0.724869
-0.744899
-0.733944
-0.745924
-0.001484
-0.018006
0.007094
-0.687027
-0.727750
-0.707476
-0.002340
0.032465
-0.020305
0.141801
0.083656
0.160685
-0.010852
-0.028456
-0.015773
-0.007333
-0.018506
-0.755565
-0.765603
-0.012360
-0.023390
0.003553
0.017415
0.016480
0.004400
-0.019665
-0.004399
0.011494
-0.625678
-0.621038
-0.754223
-0.767168
-0.749412
-0.059255
-0.021964
0.148478
0.094348
0.013554
0.068236
-0.040824
0.041125
0.009484
0.001748
-0.004956
0.013214
-0.761956
-0.748970
-0.781152
-0.751565
-0.803754
-0.712817
-0.827476
-0.717667
0.007171
-0.111533
-0.009853
0.060182
-0.785715
-0.759420
-0.755362
-0.742258
0.082115
0.180230
0.063342
0.036514
0.036314
-0.650017
-0.658205
-0.656696
0.027590
-0.623553
-0.652926
-0.669895
0.096039
-0.663794
-0.752151
-0.786526
-0.748535
-0.013217
0.012926
-0.010692
-0.721853
-0.732757
-0.716290
-0.019332
-0.012715
0.003612
-0.363410
0.026291
0.012738
0.073735
-0.641379
-0.660537
-0.608386
-0.673626
-0.732794
-0.771392
-0.729478
0.020244
0.036909
-0.003671
0.014260
0.018661
0.019250
-0.749642
-0.767585
-0.764358
-0.864088
-0.639296
-0.559848
-0.019358
-0.053479
0.099037
0.052551
-0.016904
0.034381
0.037995
0.026832
-0.747626
-0.795808
-0.734369
-0.779088
-0.777307
-0.767014
-0.021230
0.009074
-0.019745
-0.018845
0.108313
0.077824
0.033323
0.106177
-0.175305
-0.125989
0.026651
0.025754
0.027791
0.023175
-0.708371
-0.736036
-0.686403
0.006750
0.007745
0.004991
0.003367
-0.028882
-0.002989
-0.015513
-0.798097
-0.697800
-0.686802
-0.710314
-0.758488
-0.780546
-0.813979
-0.578130
-0.623359
-0.576954
-0.049274
-0.038522
0.017026
-0.652110
-0.634352
-0.651562
-0.595005
-0.644936
0.005188
0.001403
-0.738273
-0.750749
-0.750383
0.100682
0.078098
-0.681426
-0.700656
-0.023635
0.005728
-0.010540
0.006560
-0.034278
-0.023972
-0.020323
0.005691
0.016291
0.017160
-0.653697
-0.654137
-0.053707
-0.001759
0.000506
-0.699225
-0.692076
-0.692162
0.009253
-0.751422
-0.739101
-0.748773
0.173064
0.038024
0.021956
-0.765249
-0.757674
0.103322
0.123858
-0.739941
-0.732514
-0.743531
-0.664996
-0.542711
-0.002642
-0.025202
-0.015724
-0.004435
-0.017292
-0.742300
-0.741123
-0.766762
-0.774355
-0.734122
0.115823
0.115231
-0.766694
-0.758353
-0.759092
0.017689
0.009642
-0.609099
-0.640322
-0.620292
-0.628251
0.009609
0.012150
0.004516
-0.769037
-0.749665
-0.753276
-0.744234
-0.747458
-0.737181
-0.758728
-0.745426
-0.775617
-0.722424
0.000608
0.000464
-0.000625
0.001655
-0.027996
-0.010331
-0.006567
-0.772111
-0.769409
-0.770530
-0.621232
-0.544974
-0.536620
-0.603942
-0.763875
-0.763275
-0.744034
-0.763394
-0.765651
-0.778360
0.133195
0.174655
-0.772333
0.023849
-0.004334
-0.751424
-0.056609
-0.058911
-0.256186
-0.768792
-0.745639
-0.012744
-0.779712
-0.774661
0.035480
-0.002002
0.000657
-0.049901
-0.041075
-0.004981
-0.001444
-0.015309
0.072622
0.136740
0.090636
0.083108
0.134961
0.123057
-0.722037
-0.724349
-0.722229
-0.719557
0.022277
0.013245
0.024562
-0.037665
-0.005776
-0.629131
-0.634360
0.062205
0.030128
-0.779806
-0.769752
-0.766498
-0.762681
-0.019301
-0.059842
-0.058164
-0.059791
0.047883
0.190212
0.072422
0.200457
0.162140
-0.661777
-0.659616
-0.662154
0.025975
-0.738084
-0.741207
-0.777710
-0.662968
-0.550571
-0.030612
-0.005894
-0.020224
-0.025655
-0.689971
-0.640888
-0.659537
-0.651799
-0.652935
-0.649423
-0.003028
-0.000637
0.141866
0.022410
0.039615
-0.014319
-0.622215
-0.636363
-0.647456
-0.675085
-0.630834
-0.775377
-0.607118
0.002734
0.001679
-0.006477
-0.013497
-0.034125
-0.631109
-0.672331
-0.785385
-0.771109
-0.763118
-0.714276
-0.615974
-0.723945
-0.731723
-0.710389
-0.778555
0.360798
-0.222001
-0.020121
0.013341
-0.039507
-0.027455
-0.012078
0.003117
-0.749983
-0.754521
-0.768945
-0.014254
-0.011866
-0.721949
-0.745527
-0.756489
-0.755949
0.017115
-0.019188
-0.055280
-0.774423
-0.003312
-0.008245
-0.752248
-0.752217
0.018841
-0.008810
0.009488
0.054352
0.005237
0.009811
-0.000535
-0.004548
-0.752745
-0.790121
-0.787042
-0.729067
-0.721434
-0.731172
-0.717264
-0.012114
-0.014701
-0.017293
-0.015481
0.126706
0.068168
0.088050
0.010538
0.046814
0.158335
-0.000695
-0.321890
-0.648510
-0.651022
-0.669251
-0.679532
-0.651790
-0.772320
-0.767400
-0.769130
-0.687007
-0.695806
-0.721850
-0.696643
0.110781
0.071513
-0.038708
-0.036316
-0.764251
-0.529491
-0.634321
-0.449514
-0.775878
-0.751645
-0.770385
-0.647235
-0.646857
-0.637593
-0.509214
-0.033581
-0.669506
-0.021944
0.153370
-0.014187
0.224520
0.148089
-0.024478
-0.012919
-0.007793
0.027307
-0.625617
-0.647087
-0.015057
-0.733363
-0.767440
-0.014361
-0.002488
-0.656942
-0.743907
0.007910
-0.044028
-0.027617
-0.030349
-0.643272
-0.634207
-0.621793
-0.021467
0.010354
-0.775132
-0.057455
0.012064
-0.111223
-0.753044
-0.748631
-0.775668
0.034473
0.007056
-0.005233
-0.756853
0.034753
0.039165
-0.030872
-0.803010
-0.776064
-0.793910
-0.616287
-0.039857
0.001514
-0.004055
-0.673566
-0.706029
-0.670600
-0.640031
-0.637670
-0.681454
-0.006875
0.000977
0.024565
-0.005886
-0.104656
-0.062242
0.017262
-0.226677
0.137807
-0.611662
-0.652762
-0.677970
-0.632636
-0.295757
-0.655836
-0.651269
-0.641429
-0.038007
-0.000431
-0.765299
-0.744537
-0.759039
-0.667963
-0.670219
-0.636600
-0.684609
-0.017005
-0.009374
-0.662990
-0.645321
-0.633519
0.022214
0.083999
0.154915
0.027246
-0.767108
-0.624205
-0.015874
0.015420
-0.009242
-0.752778
0.003615
0.007531
0.002135
0.000255
-0.776272
0.000705
0.012960
0.002865
0.014503
0.009425
-0.631227
-0.650900
-0.660623
-0.657350
-0.004582
-0.005121
0.000848
-0.004611
0.124575
0.131869
0.127189
0.118392
-0.757360
-0.772231
-0.748345
-0.749069
-0.703284
-0.002710
-0.011238
0.017874
0.007961
0.019435
-0.015968
0.026073
-0.668164
-0.629904
0.047478
0.038854
0.067882
-0.700211
-0.714856
-0.764166
-0.736734
-0.743529
-0.659518
0.097575
0.149617
0.149428
0.090824
-0.140579
-0.656906
-0.675851
-0.734441
0.021491
0.004621
-0.739127
0.020453
0.039776
-0.702710
-0.693832
-0.697471
-0.754154
-0.758287
-0.024591
-0.731248
-0.730459
-0.713811
-0.733836
0.128446
0.121670
0.146868
0.156426
-0.686286
-0.685733
-0.718556
-0.687872
-0.701105
-0.007004
0.022534
0.022967
0.071722
0.069226
0.083841
-0.009266
-0.031631
-0.016686
-0.778497
0.039277
-0.766802
-0.760728
-0.746604
-0.764369
-0.750673
-0.768238
-0.695777
-0.776525
0.008477
-0.019078
-0.747921
0.120779
-0.027341
-0.011537
-0.018893
-0.700421
-0.687645
-0.690290
-0.030978
-0.011626
0.011497
0.009536
0.029098
-0.577192
-0.029364
-0.002101
-0.007409
-0.632672
-0.642922
-0.648060
0.138273
0.147411
0.086917
-0.007860
-0.015140
-0.751792
-0.749843
-0.752714
-0.422668
-0.773027
-0.786633
-0.789850
-0.744719
-0.756552
-0.733800
-0.300078
-0.444822
-0.376837
-0.648514
-0.610404
-0.651114
-0.038978
-0.020113
-0.200792
-0.694417
-0.646297
0.026348
-0.017439
0.186471
0.210046
0.154356
0.147676
-0.663594
-0.661235
-0.013531
-0.008453
-0.013062
0.033726
0.002225
-0.008912
-0.754852
-0.004650
-0.007800
-0.033612
-0.002618
-0.731624
-0.721081
-0.688975
-0.698190
-0.783288
-0.748811
-0.768908
-0.769956
-0.001644
0.002995
0.025031
-0.755066
-0.740598
-0.708448
-0.699560
-0.673084
0.138049
-0.018513
-0.666436
-0.633728
-0.276588
-0.668619
0.090717
0.173667
-0.670435
-0.711668
-0.193883
-0.556659
-0.011172
-0.020726
-0.012696
-0.686285
-0.682164
-0.688307
0.083659
0.159780
0.062228
-0.751461
-0.656795
-0.696449
-0.599429
-0.665896
-0.692216
-0.750192
-0.691594
-0.733525
-0.004024
-0.745486
-0.751945
-0.768860
-0.765797
0.009521
0.024802
0.015156
-0.015534
-0.010394
-0.677155
-0.643289
-0.620549
-0.007029
-0.008643
-0.018230
-0.006258
-0.010834
-0.630888
-0.632309
-0.621668
-0.633966
-0.790375
-0.659605
0.124203
0.159672
0.148266
0.077002
-0.656676
-0.657830
-0.040410
-0.083417
-0.072565
0.006049
-0.001020
-0.001341
-0.730173
-0.754994
-0.022862
-0.010250
-0.651461
-0.602388
-0.005996
-0.012644
0.005720
-0.013951
-0.673088
-0.667499
-0.015503
-0.758708
-0.764595
-0.724837
0.005732
0.005446
-0.718621
-0.726736
-0.724386
-0.739659
-0.723108
-0.766090
-0.763422
0.002888
0.005723
-0.009724
-0.736701
-0.745581
-0.770116
0.129606
0.058604
0.072907
0.131777
-0.716551
-0.718444
-0.664212
-0.621405
0.081241
0.071381
0.088163
-0.765932
0.062402
-0.726055
0.011604
-0.051085
-0.177561
-0.009943
0.105779
-0.753182
-0.763487
-0.753449
0.001398
0.005910
0.017477
0.158476
0.132210
0.057604
-0.138157
-0.083604
0.149162
0.154935
0.164892
-0.002853
-0.089191
-0.066372
-0.111428
-0.001541
-0.009344
0.056242
0.012374
-0.002636
-0.677535
-0.011284
-0.016541
-0.003923
-0.019042
-0.016022
-0.616432
0.027399
-0.748467
-0.786754
-0.767214
-0.649737
-0.008358
-0.750769
-0.732181
-0.755913
-0.735858
-0.732603
0.105746
-0.605168
-0.656693
-0.660002
-0.617154
-0.006327
-0.622412
-0.664179
-0.653222
-0.656054
-0.661888
-0.004214
-0.738305
-0.742162
-0.754891
0.001784
-0.759375
-0.766241
-0.004133
0.081804
0.066905
-0.061723
-0.760633
0.193723
0.146609
-0.002713
-0.756817
-0.756003
-0.757747
0.014416
0.006624
0.003454
-0.790687
-0.648944
-0.669122
-0.676265
-0.698598
-0.710911
-0.721678
-0.801246
-0.784094
-0.772790
-0.717487
-0.539603
-0.674979
0.078420
-0.654664
-0.721027
0.042528
0.048824
0.042738
-0.705212
-0.699752
-0.014307
-0.015484
-0.036203
-0.035731
-0.031515
0.060987
-0.655654
-0.761226
-0.753584
0.026259
-0.005455
-0.003776
-0.766385
-0.762506
-0.756837
0.019729
0.025069
0.021682
-0.685629
-0.665715
-0.685235
-0.679960
-0.646728
-0.661043
0.002679
-0.004891
0.029625
0.004817
-0.659858
-0.653690
-0.646253
-0.659977
-0.731077
-0.725276
-0.746718
-0.704072
-0.639547
-0.658324
-0.647044
-0.026780
-0.032579
-0.005905
-0.009085
-0.691169
-0.720337
-0.740285
-0.781644
-0.772104
0.156831
-0.014415
-0.047458
0.022402
0.105219
-0.053799
-0.760244
0.046893
-0.678943
-0.689315
-0.692337
-0.680300
-0.734187
-0.748948
-0.738998
-0.732229
-0.061856
-0.005777
-0.079402
-0.759365
-0.020884
-0.056583
-0.003677
-0.051740
-0.664847
-0.902822
-0.668392
0.140823
0.137337
0.142400
-0.655622
-0.670063
-0.024941
-0.746849
-0.007640
-0.004557
-0.000062
0.010942
-0.028972
0.019680
-0.004829
-0.036983
-0.032266
-0.661526
-0.656834
0.061701
0.064553
0.115170
-0.709929
-0.808700
-0.787269
0.128394
-0.759008
-0.763591
-0.760345
-0.613337
-0.713806
-0.825007
-0.759246
-0.739085
-0.686677
-0.681823
-0.682626
0.278662
-0.270078
-0.022139
-0.016350
-0.650133
-0.675470
-0.659521
-0.710488
-0.693657
-0.714872
-0.599398
-0.677215
-0.745513
-0.778949
-0.769883
-0.730798
-0.737941
-0.721299
0.002454
0.018192
-0.010506
-0.768222
-0.765271
-0.762655
-0.184291
-0.229335
-0.029820
-0.002996
-0.648263
-0.751663
-0.745637
-0.001677
-0.003188
-0.011051
-0.028257
-0.016278
-0.652946
-0.667790
-0.761340
0.017702
0.036666
-0.736595
0.045985
0.057076
0.040342
0.037106
-0.754024
-0.792187
-0.736912
-0.662126
-0.692702
-0.688125
-0.001430
0.002907
-0.434415
-0.482281
-0.786482
-0.586667
-0.348897
-0.058574
-0.682865
-0.675317
-0.011889
-0.016664
-0.011440
0.000278
-0.751993
-0.019507
-0.007634
-0.010636
-0.668664
-0.669683
0.055811
0.170097
0.011726
0.085278
0.129178
0.082995
0.044663
-0.022234
-0.000527
-0.010210
0.049369
0.002612
-0.016789
-0.691621
-0.687892
-0.669750
-0.685793
-0.058888
-0.056147
-0.091408
0.102590
-0.044172
-0.123448
-0.044577
-0.192407
0.055667
0.033914
0.022886
-0.642749
-0.657503
0.146496
0.031619
-0.117140
0.016251
0.126324
0.255842
-0.019402
-0.001902
0.040595
0.035278
-0.009763
-0.027618
-0.015634
0.078868
0.024248
0.140470
0.124340
0.022804
0.116691
0.143426
0.151858
-0.065678
-0.665068
-0.667570
-0.662819
-0.649662
-0.682736
0.032334
0.043741
0.039989
0.004291
0.037253
0.122654
0.156513
0.108684
-0.677084
-0.679205
-0.640575
-0.675053
-0.663761
-0.657950
-0.662576
-0.649514
0.000891
-0.018621
-0.645387
-0.008220
0.136254
0.114632
0.118741
-0.115938
-0.074595
-0.137250
-0.005153
-0.018945
-0.759262
-0.757994
-0.030025
-0.057837
0.005169
-0.018958
-0.768533
-0.761991
-0.758147
-0.773623
-0.678256
-0.688179
-0.691508
-0.681171
-0.681785
-0.657133
-0.019330
-0.003076
-0.672167
-0.659305
-0.640014
-0.636006
0.105192
0.120265
0.127927
0.113743
0.046391
-0.644941
-0.651076
-0.640585
0.135849
0.126530
0.133347
-0.027965
-0.059896
-0.014241
-0.090719
-0.183787
-0.230421
0.067149
0.003020
-0.292281
-0.179271
-0.672063
-0.669835
-0.029765
0.001698
0.155650
-0.024846
-0.655092
-0.664594
-0.676584
0.050700
-0.754553
-0.659122
-0.005064
0.001464
0.002520
-0.001596
-0.011318
0.002173
-0.658668
-0.707966
-0.024789
-0.035419
0.005373
-0.759165
-0.022822
-0.003651
-0.032652
0.007733
0.000911
-0.668944
-0.672888
0.003494
-0.016571
0.001190
-0.011540
-0.759108
-0.701831
-0.747367
-0.747006
-0.034905
-0.011877
-0.007640
-0.023332
-0.002871
-0.023457
-0.658242
-0.673051
-0.023521
-0.023323
-0.026732
-0.010303
-0.041389
-0.744782
-0.743707
-0.725102
-0.744208
-0.723450
-0.729256
-0.757034
-0.041915
-0.679361
-0.676796
-0.679191
-0.663476
0.096787
0.041960
0.029818
0.066324
0.005999
0.008806
0.004037
-0.013613
-0.013023
-0.012918
-0.020752
-0.614036
-0.391597
-0.491899
-0.210315
0.034532
-0.047347
-0.086718
0.012274
-0.671131
-0.672029
-0.698018
-0.673339
-0.008773
-0.761857
-0.756846
0.052406
0.026097
0.000483
0.126579
-0.014511
-0.670188
-0.672036
-0.019051
-0.378353
-0.008713
-0.000722
-0.012915
0.062189
0.058011
0.056415
-0.635407
-0.705593
-0.676131
-0.715854
-0.677636
-0.653253
-0.001796
-0.673199
-0.673969
-0.678118
-0.669513
-0.014813
-0.088098
-0.008292
0.039451
0.041143
0.066292
0.042869
0.040332
-0.004767
0.001790
0.001712
-0.009583
-0.032633
-0.054928
-0.673881
-0.027261
-0.034760
-0.016677
-0.005991
-0.003796
0.002344
-0.032009
-0.660708
-0.017614
-0.005441
-0.746928
0.048042
0.041686
0.064057
-0.668907
-0.671481
-0.763338
-0.762568
-0.728220
-0.731424
-0.768055
-0.782680
-0.781485
-0.772447
0.061039
0.096307
-0.021142
-0.663803
-0.680432
0.031726
-0.021401
-0.015962
0.032672
-0.617369
-0.722764
-0.720178
-0.673489
-0.729052
-0.744586
-0.762855