# vtk DataFile Version 2.0
Test
ASCII
DATASET POLYDATA
POINTS 7607 float
0.000000 0.000000 0.000000
1.000000 0.000000 0.000000
1.000000 0.800000 0.000000
1.000000 1.000000 0.000000
0.000000 1.000000 0.000000
0.000000 0.200000 0.000000
0.300000 0.330000 0.000000
0.700000 0.680000 0.000000
0.012987 0.000000 0.000000
0.025974 0.000000 0.000000
0.038961 0.000000 0.000000
0.051948 0.000000 0.000000
0.064935 0.000000 0.000000
0.077922 0.000000 0.000000
0.090909 0.000000 0.000000
0.103896 0.000000 0.000000
0.116883 0.000000 0.000000
0.129870 0.000000 0.000000
0.142857 0.000000 0.000000
0.155844 0.000000 0.000000
0.168831 0.000000 0.000000
0.181818 0.000000 0.000000
0.194805 0.000000 0.000000
0.207792 0.000000 0.000000
0.220779 0.000000 0.000000
0.233766 0.000000 0.000000
0.246753 0.000000 0.000000
0.259740 0.000000 0.000000
0.272727 0.000000 0.000000
0.285714 0.000000 0.000000
0.298701 0.000000 0.000000
0.311688 0.000000 0.000000
0.324675 0.000000 0.000000
0.337662 0.000000 0.000000
0.350649 0.000000 0.000000
0.363636 0.000000 0.000000
0.376623 0.000000 0.000000
0.389610 0.000000 0.000000
0.402597 0.000000 0.000000
0.415584 0.000000 0.000000
0.428571 0.000000 0.000000
0.441558 0.000000 0.000000
0.454545 0.000000 0.000000
0.467532 0.000000 0.000000
0.480519 0.000000 0.000000
0.493506 0.000000 0.000000
0.506494 0.000000 0.000000
0.519481 0.000000 0.000000
0.532468 0.000000 0.000000
0.545455 0.000000 0.000000
0.558442 0.000000 0.000000
0.571429 0.000000 0.000000
0.584416 0.000000 0.000000
0.597403 0.000000 0.000000
0.610390 0.000000 0.000000
0.623377 0.000000 0.000000
0.636364 0.000000 0.000000
0.649351 0.000000 0.000000
0.662338 0.000000 0.000000
0.675325 0.000000 0.000000
0.688312 0.000000 0.000000
0.701299 0.000000 0.000000
0.714286 0.000000 0.000000
0.727273 0.000000 0.000000
0.740260 0.000000 0.000000
0.753247 0.000000 0.000000
0.766234 0.000000 0.000000
0.779221 0.000000 0.000000
0.792208 0.000000 0.000000
0.805195 0.000000 0.000000
0.818182 0.000000 0.000000
0.831169 0.000000 0.000000
0.844156 0.000000 0.000000
0.857143 0.000000 0.000000
0.870130 0.000000 0.000000
0.883117 0.000000 0.000000
0.896104 0.000000 0.000000
0.909091 0.000000 0.000000
0.922078 0.000000 0.000000
0.935065 0.000000 0.000000
0.948052 0.000000 0.000000
0.961039 0.000000 0.000000
0.974026 0.000000 0.000000
0.987013 0.000000 0.000000
1.000000 0.012903 0.000000
1.000000 0.025806 0.000000
1.000000 0.038710 0.000000
1.000000 0.051613 0.000000
1.000000 0.064516 0.000000
1.000000 0.077419 0.000000
1.000000 0.090323 0.000000
1.000000 0.103226 0.000000
1.000000 0.116129 0.000000
1.000000 0.129032 0.000000
1.000000 0.141935 0.000000
1.000000 0.154839 0.000000
1.000000 0.167742 0.000000
1.000000 0.180645 0.000000
1.000000 0.193548 0.000000
1.000000 0.206452 0.000000
1.000000 0.219355 0.000000
1.000000 0.232258 0.000000
1.000000 0.245161 0.000000
1.000000 0.258065 0.000000
1.000000 0.270968 0.000000
1.000000 0.283871 0.000000
1.000000 0.296774 0.000000
1.000000 0.309677 0.000000
1.000000 0.322581 0.000000
1.000000 0.335484 0.000000
1.000000 0.348387 0.000000
1.000000 0.361290 0.000000
1.000000 0.374194 0.000000
1.000000 0.387097 0.000000
1.000000 0.400000 0.000000
1.000000 0.412903 0.000000
1.000000 0.425806 0.000000
1.000000 0.438710 0.000000
1.000000 0.451613 0.000000
1.000000 0.464516 0.000000
1.000000 0.477419 0.000000
1.000000 0.490323 0.000000
1.000000 0.503226 0.000000
1.000000 0.516129 0.000000
1.000000 0.529032 0.000000
1.000000 0.541935 0.000000
1.000000 0.554839 0.000000
1.000000 0.567742 0.000000
1.000000 0.580645 0.000000
1.000000 0.593548 0.000000
1.000000 0.606452 0.000000
1.000000 0.619355 0.000000
1.000000 0.632258 0.000000
1.000000 0.645161 0.000000
1.000000 0.658065 0.000000
1.000000 0.670968 0.000000
1.000000 0.683871 0.000000
1.000000 0.696774 0.000000
1.000000 0.709677 0.000000
1.000000 0.722581 0.000000
1.000000 0.735484 0.000000
1.000000 0.748387 0.000000
1.000000 0.761290 0.000000
1.000000 0.774194 0.000000
1.000000 0.787097 0.000000
1.000000 0.812500 0.000000
1.000000 0.825000 0.000000
1.000000 0.837500 0.000000
1.000000 0.850000 0.000000
1.000000 0.862500 0.000000
1.000000 0.875000 0.000000
1.000000 0.887500 0.000000
1.000000 0.900000 0.000000
1.000000 0.912500 0.000000
1.000000 0.925000 0.000000
1.000000 0.937500 0.000000
1.000000 0.950000 0.000000
1.000000 0.962500 0.000000
1.000000 0.975000 0.000000
1.000000 0.987500 0.000000
0.987013 1.000000 0.000000
0.974026 1.000000 0.000000
0.961039 1.000000 0.000000
0.948052 1.000000 0.000000
0.935065 1.000000 0.000000
0.922078 1.000000 0.000000
0.909091 1.000000 0.000000
0.896104 1.000000 0.000000
0.883117 1.000000 0.000000
0.870130 1.000000 0.000000
0.857143 1.000000 0.000000
0.844156 1.000000 0.000000
0.831169 1.000000 0.000000
0.818182 1.000000 0.000000
0.805195 1.000000 0.000000
0.792208 1.000000 0.000000
0.779221 1.000000 0.000000
0.766234 1.000000 0.000000
0.753247 1.000000 0.000000
0.740260 1.000000 0.000000
0.727273 1.000000 0.000000
0.714286 1.000000 0.000000
0.701299 1.000000 0.000000
0.688312 1.000000 0.000000
0.675325 1.000000 0.000000
0.662338 1.000000 0.000000
0.649351 1.000000 0.000000
0.636364 1.000000 0.000000
0.623377 1.000000 0.000000
0.610390 1.000000 0.000000
0.597403 1.000000 0.000000
0.584416 1.000000 0.000000
0.571429 1.000000 0.000000
0.558442 1.000000 0.000000
0.545455 1.000000 0.000000
0.532468 1.000000 0.000000
0.519481 1.000000 0.000000
0.506494 1.000000 0.000000
0.493506 1.000000 0.000000
0.480519 1.000000 0.000000
0.467532 1.000000 0.000000
0.454545 1.000000 0.000000
0.441558 1.000000 0.000000
0.428571 1.000000 0.000000
0.415584 1.000000 0.000000
0.402597 1.000000 0.000000
0.389610 1.000000 0.000000
0.376623 1.000000 0.000000
0.363636 1.000000 0.000000
0.350649 1.000000 0.000000
0.337662 1.000000 0.000000
0.324675 1.000000 0.000000
0.311688 1.000000 0.000000
0.298701 1.000000 0.000000
0.285714 1.000000 0.000000
0.272727 1.000000 0.000000
0.259740 1.000000 0.000000
0.246753 1.000000 0.000000
0.233766 1.000000 0.000000
0.220779 1.000000 0.000000
0.207792 1.000000 0.000000
0.194805 1.000000 0.000000
0.181818 1.000000 0.000000
0.168831 1.000000 0.000000
0.155844 1.000000 0.000000
0.142857 1.000000 0.000000
0.129870 1.000000 0.000000
0.116883 1.000000 0.000000
0.103896 1.000000 0.000000
0.090909 1.000000 0.000000
0.077922 1.000000 0.000000
0.064935 1.000000 0.000000
0.051948 1.000000 0.000000
0.038961 1.000000 0.000000
0.025974 1.000000 0.000000
0.012987 1.000000 0.000000
0.000000 0.987097 0.000000
0.000000 0.974194 0.000000
0.000000 0.961290 0.000000
0.000000 0.948387 0.000000
0.000000 0.935484 0.000000
0.000000 0.922581 0.000000
0.000000 0.909677 0.000000
0.000000 0.896774 0.000000
0.000000 0.883871 0.000000
0.000000 0.870968 0.000000
0.000000 0.858065 0.000000
0.000000 0.845161 0.000000
0.000000 0.832258 0.000000
0.000000 0.819355 0.000000
0.000000 0.806452 0.000000
0.000000 0.793548 0.000000
0.000000 0.780645 0.000000
0.000000 0.767742 0.000000
0.000000 0.754839 0.000000
0.000000 0.741935 0.000000
0.000000 0.729032 0.000000
0.000000 0.716129 0.000000
0.000000 0.703226 0.000000
0.000000 0.690323 0.000000
0.000000 0.677419 0.000000
0.000000 0.664516 0.000000
0.000000 0.651613 0.000000
0.000000 0.638710 0.000000
0.000000 0.625806 0.000000
0.000000 0.612903 0.000000
0.000000 0.600000 0.000000
0.000000 0.587097 0.000000
0.000000 0.574194 0.000000
0.000000 0.561290 0.000000
0.000000 0.548387 0.000000
0.000000 0.535484 0.000000
0.000000 0.522581 0.000000
0.000000 0.509677 0.000000
0.000000 0.496774 0.000000
0.000000 0.483871 0.000000
0.000000 0.470968 0.000000
0.000000 0.458065 0.000000
0.000000 0.445161 0.000000
0.000000 0.432258 0.000000
0.000000 0.419355 0.000000
0.000000 0.406452 0.000000
0.000000 0.393548 0.000000
0.000000 0.380645 0.000000
0.000000 0.367742 0.000000
0.000000 0.354839 0.000000
0.000000 0.341935 0.000000
0.000000 0.329032 0.000000
0.000000 0.316129 0.000000
0.000000 0.303226 0.000000
0.000000 0.290323 0.000000
0.000000 0.277419 0.000000
0.000000 0.264516 0.000000
0.000000 0.251613 0.000000
0.000000 0.238710 0.000000
0.000000 0.225806 0.000000
0.000000 0.212903 0.000000
0.000000 0.187500 0.000000
0.000000 0.175000 0.000000
0.000000 0.162500 0.000000
0.000000 0.150000 0.000000
0.000000 0.137500 0.000000
0.000000 0.125000 0.000000
0.000000 0.112500 0.000000
0.000000 0.100000 0.000000
0.000000 0.087500 0.000000
0.000000 0.075000 0.000000
0.000000 0.062500 0.000000
0.000000 0.050000 0.000000
0.000000 0.037500 0.000000
0.000000 0.025000 0.000000
0.000000 0.012500 0.000000
0.309756 0.338537 0.000000
0.319512 0.347073 0.000000
0.329268 0.355610 0.000000
0.339024 0.364146 0.000000
0.348780 0.372683 0.000000
0.358537 0.381220 0.000000
0.368293 0.389756 0.000000
0.378049 0.398293 0.000000
0.387805 0.406829 0.000000
0.397561 0.415366 0.000000
0.407317 0.423902 0.000000
0.417073 0.432439 0.000000
0.426829 0.440976 0.000000
0.436585 0.449512 0.000000
0.446341 0.458049 0.000000
0.456098 0.466585 0.000000
0.465854 0.475122 0.000000
0.475610 0.483659 0.000000
0.485366 0.492195 0.000000
0.495122 0.500732 0.000000
0.504878 0.509268 0.000000
0.514634 0.517805 0.000000
0.524390 0.526341 0.000000
0.534146 0.534878 0.000000
0.543902 0.543415 0.000000
0.553659 0.551951 0.000000
0.563415 0.560488 0.000000
0.573171 0.569024 0.000000
0.582927 0.577561 0.000000
0.592683 0.586098 0.000000
0.602439 0.594634 0.000000
0.612195 0.603171 0.000000
0.621951 0.611707 0.000000
0.631707 0.620244 0.000000
0.641463 0.628780 0.000000
0.651220 0.637317 0.000000
0.660976 0.645854 0.000000
0.670732 0.654390 0.000000
0.680488 0.662927 0.000000
0.690244 0.671463 0.000000
0.011538 0.205000 0.000000
0.023077 0.210000 0.000000
0.034615 0.215000 0.000000
0.046154 0.220000 0.000000
0.057692 0.225000 0.000000
0.069231 0.230000 0.000000
0.080769 0.235000 0.000000
0.092308 0.240000 0.000000
0.103846 0.245000 0.000000
0.115385 0.250000 0.000000
0.126923 0.255000 0.000000
0.138462 0.260000 0.000000
0.150000 0.265000 0.000000
0.161538 0.270000 0.000000
0.173077 0.275000 0.000000
[...]
POINT_DATA 7607
SCALARS UX float 1
LOOKUP_TABLE default
0.003247
0.001892
0.012155
-0.025248
-0.093660
-0.044543
-0.043862
-0.024592
-0.000553
-0.000059
-0.000909
0.000769
0.007283
-0.000212
-0.000105
0.006924
0.000196
0.000289
-0.000134
0.000082
0.000018
-0.000015
-0.000073
0.000106
-0.000064
0.000239
0.000043
-0.000572
-0.000024
-0.000063
-0.000260
-0.005193
0.000101
-0.000079
-0.000017
-0.000232
0.000168
0.000147
0.001558
0.000057
0.000895
-0.001099
-0.000052
0.003144
0.000104
0.000370
-0.002104
-0.000022
-0.000113
0.000015
0.000055
-0.002238
-0.000119
-0.001038
-0.000023
0.000112
-0.000086
-0.000043
-0.000013
-0.000269
-0.000461
0.000133
-0.000117
0.000033
0.004108
0.000192
-0.005614
0.000184
0.001657
-0.000020
-0.000469
-0.000397
-0.004636
-0.000842
0.004115
0.002007
-0.004510
-0.000130
-0.000515
0.001119
0.000211
-0.000070
-0.000091
-0.008579
-0.001511
0.011001
0.004976
0.009512
0.006614
0.008142
0.007177
0.013371
0.026365
0.026893
0.021771
0.028406
0.019308
0.040045
0.020998
0.023181
0.036766
0.037756
0.037466
0.045562
0.039357
0.046175
0.051673
0.037296
0.048105
0.056979
0.046326
0.065556
0.058269
0.058586
0.061231
0.054817
0.067365
0.062197
0.073303
0.056671
0.067571
0.071390
0.062864
0.063674
0.076563
0.063660
0.070196
0.071258
0.059229
0.068581
0.070827
0.056870
0.069858
0.048919
0.053735
0.049494
0.055947
0.046202
0.053822
0.040723
0.038078
0.040861
0.034682
0.037258
0.032663
0.016065
0.018353
-0.003257
-0.001740
-0.026330
-0.000112
-0.010174
-0.011831
-0.008453
-0.012915
-0.019021
-0.018435
-0.004275
-0.025875
-0.019228
-0.012668
-0.021229
-0.020910
-0.030779
-0.027190
-0.028720
-0.027208
-0.033764
-0.032314
-0.033434
-0.032873
-0.035967
-0.033350
-0.032657
-0.037349
-0.040212
-0.033774
-0.043919
-0.044688
-0.041530
-0.040690
-0.042582
-0.039734
-0.042786
-0.044622
-0.044341
-0.045753
-0.044343
-0.046688
-0.047373
-0.046010
-0.051107
-0.049506
-0.052873
-0.052138
-0.052654
-0.050248
-0.052869
-0.053633
-0.053024
-0.053050
-0.055725
-0.059712
-0.053745
-0.055043
-0.062538
-0.056995
-0.062392
-0.057801
-0.066399
-0.067360
-0.070011
-0.071480
-0.071644
-0.070365
-0.077721
-0.071417
-0.078900
-0.083012
-0.072457
-0.087537
-0.081217
-0.082741
-0.080117
-0.087349
-0.093376
-0.086948
-0.093430
-0.095228
-0.091595
-0.094257
-0.095521
-0.100026
-0.099460
-0.099430
-0.100337
-0.104212
-0.103156
-0.102915
-0.095259
-0.097523
-0.089622
-0.096632
-0.096643
-0.103432
-0.099214
-0.098180
-0.118570
-0.105316
-0.107537
-0.103540
-0.106963
-0.114799
-0.111305
-0.108611
-0.103772
-0.112800
-0.113630
-0.111485
-0.109566
-0.118897
-0.110682
-0.109311
-0.123917
-0.115330
-0.117332
-0.101287
-0.092398
-0.103615
-0.114815
-0.115228
-0.116291
-0.110699
-0.118157
-0.115399
-0.124732
-0.111805
-0.116673
-0.111129
-0.113226
-0.114253
-0.111544
-0.112297
-0.122470
-0.103894
-0.113203
-0.103237
-0.104227
-0.099779
-0.100427
-0.090273
-0.086896
-0.075331
-0.086250
-0.067693
-0.066099
-0.068313
-0.060141
-0.035515
-0.044195
-0.037738
-0.005759
-0.032228
-0.022190
-0.019414
-0.017057
-0.015718
-0.010760
-0.015003
-0.012346
-0.008232
-0.004637
-0.032152
-0.033965
-0.059501
-0.078912
-0.048216
-0.043314
-0.067191
-0.049090
-0.016897
-0.055515
-0.038168
-0.055852
0.004916
-0.035112
-0.052333
-0.036125
-0.032361
-0.024331
-0.016361
0.002304
-0.007200
0.001168
-0.052799
-0.019378
0.009114
-0.054395
-0.025264
-0.026592
-0.082397
-0.038444
0.010174
0.000418
-0.019881
0.053151
0.030895
0.064546
0.011233
-0.002439
-0.040898
-0.033444
-0.048617
-0.071254
-0.039290
-0.065762
-0.059485
-0.079174
-0.073202
-0.050488
-0.068867
-0.033092
-0.067592
-0.045352
-0.072218
-0.058516
-0.048468
-0.096577
-0.058076
-0.056412
-0.061116
-0.089302
-0.055903
-0.066606
-0.081757
-0.055993
-0.077087
-0.007229
0.022970
0.024048
0.036113
0.033460
0.020737
0.023489
-0.010282
0.030424
0.001927
0.024425
0.002599
0.014918
0.022798
0.005045
0.007399
0.015639
0.020308
0.013341
0.019052
0.014553
0.023726
0.034241
-0.005678
-0.034264
-0.041902
-0.044379
-0.039589
0.040291
0.030599
0.023866
-0.082701
-0.086806
-0.105710
-0.076384
-0.072970
-0.060507
-0.009064
0.006339
0.008770
-0.081935
-0.085097
-0.087630
-0.108474
0.026830
0.008474
0.018840
0.008679
-0.037315
-0.017663
-0.047296
-0.029600
0.000710
-0.006454
-0.057637
-0.065449
-0.124062
-0.097290
-0.044708
-0.029819
0.011229
0.002378
-0.004271
-0.004036
-0.087364
-0.086660
-0.096065
-0.099943
-0.009057
-0.004627
0.001368
0.002444
0.043705
0.035998
0.048624
-0.031957
-0.037132
0.038322
0.029719
0.010848
0.041791
-0.050493
-0.043302
-0.037198
-0.038657
-0.072386
-0.037949
-0.020665
-0.010327
-0.019259
-0.022643
-0.032047
-0.020490
-0.038450
-0.088183
-0.091208
-0.014454
0.011951
0.027009
-0.004778
-0.010513
-0.010980
-0.062325
-0.060165
-0.063321
-0.017041
-0.047509
-0.045901
-0.032728
0.021783
0.027334
0.004092
0.018507
0.002455
-0.008838
-0.014752
-0.033073
-0.016509
-0.012957
-0.016827
0.027568
0.046904
0.049240
-0.094107
-0.070443
-0.062647
-0.021544
-0.016090
-0.029355
-0.013847
-0.058569
-0.038527
-0.079377
-0.033877
-0.013913
0.008598
0.003994
0.004374
0.043597
0.037355
-0.045337
-0.039247
-0.035180
0.016462
0.020887
0.009301
-0.017822
-0.018670
-0.031647
-0.021835
0.027607
0.021706
0.042109
0.026223
-0.004904
-0.029623
-0.016223
0.000650
-0.003096
-0.005396
-0.102097
-0.081763
-0.085111
-0.116160
-0.044163
-0.069262
-0.058967
-0.050827
-0.026091
-0.037146
-0.036639
-0.033424
0.016675
-0.007999
-0.004997
-0.004140
-0.000091
-0.116041
-0.098527
-0.115916
-0.009351
-0.008107
-0.002179
-0.109435
-0.090939
-0.092231
-0.011310
-0.022318
-0.028237
-0.036044
-0.098917
-0.096138
-0.081150
-0.089525
-0.084265
-0.092061
-0.092708
0.061630
0.049682
0.052842
0.056066
0.048798
0.036312
0.045372
0.024097
0.033162
0.025660
-0.057642
-0.048957
-0.037717
-0.050656
-0.047245
-0.045747
-0.006144
-0.015376
-0.010095
-0.005171
0.008964
0.027582
-0.000538
-0.025729
-0.011732
-0.023829
-0.036481
-0.081577
-0.089855
-0.089706
-0.074085
0.028558
0.047212
0.025319
0.023704
0.028856
0.025318
0.039035
0.059310
0.053273
0.048824
0.000146
0.072350
-0.104132
-0.094802
-0.098232
-0.017179
-0.021235
-0.020712
-0.008215
0.036229
0.045458
0.052526
0.065089
0.032158
0.038152
0.014235
-0.051281
-0.051984
-0.105512
-0.089925
-0.076395
-0.068666
-0.085179
-0.075279
-0.085082
-0.000762
-0.013059
0.006226
-0.074987
-0.070084
-0.056619
-0.002996
0.017886
-0.013035
0.039160
0.034968
0.053652
-0.004330
-0.013023
-0.015469
-0.012997
-0.016108
-0.092232
-0.099889
-0.007406
-0.014422
-0.003314
0.010057
0.006465
0.000667
-0.014272
-0.001911
0.010197
-0.015428
-0.013248
-0.091807
-0.100967
-0.083767
-0.017169
-0.018322
0.051632
0.049485
0.008426
0.046114
0.015901
0.042901
0.013947
-0.003296
-0.000088
0.007493
-0.095142
-0.104579
-0.117079
-0.090876
-0.109054
-0.087213
-0.120255
-0.073837
0.027261
0.006781
0.019507
0.024169
-0.114905
-0.103850
-0.096271
-0.090182
0.021798
0.062352
0.058187
0.044016
0.031906
-0.029866
-0.023867
-0.024511
0.021808
-0.018325
-0.023771
-0.034657
0.054431
-0.029236
-0.099334
-0.120991
-0.093704
-0.010389
0.008678
-0.009665
-0.072826
-0.079751
-0.066556
-0.011157
-0.008441
0.004166
0.046238
0.027295
0.002705
0.016571
-0.024349
-0.027891
-0.010507
-0.036853
-0.084200
-0.103572
-0.078046
0.016219
0.023942
0.000912
0.014437
0.013307
0.013078
-0.086414
-0.101411
-0.101209
-0.038237
-0.036009
-0.073509
-0.016937
-0.031894
0.045188
0.010708
-0.010022
0.022062
0.020548
0.022573
-0.085436
-0.114199
-0.089741
-0.113173
-0.120177
-0.089380
-0.017987
0.012530
-0.008258
-0.012895
0.061828
0.026781
0.041433
0.060541
0.001905
0.004802
0.028497
0.023836
0.025883
0.028107
-0.064192
-0.063744
-0.036743
0.008093
0.004435
0.005677
0.003421
-0.019996
0.000818
-0.009413
-0.113869
-0.073796
-0.042723
-0.056690
-0.094129
-0.107659
-0.130418
-0.016788
-0.023560
-0.014699
-0.024909
-0.020161
-0.011521
-0.021977
-0.021867
-0.024850
-0.009589
-0.011096
0.007768
-0.005409
-0.074856
-0.091279
-0.087480
0.061006
0.034283
-0.033276
-0.060837
-0.019734
0.004530
-0.014397
0.006389
-0.016476
-0.017433
-0.013102
0.012888
0.019761
0.021170
-0.026280
-0.030675
-0.030919
-0.000469
-0.002936
-0.053215
-0.048078
-0.048264
0.016902
-0.096562
-0.080242
-0.094351
0.078098
0.028400
0.016347
-0.098971
-0.096320
0.042540
0.039423
-0.081147
-0.074742
-0.082871
-0.037911
-0.019677
-0.005231
-0.021496
-0.003290
-0.003718
-0.015894
-0.080291
-0.077284
-0.104552
-0.109680
-0.073083
0.041129
0.051666
-0.106659
-0.097953
-0.099685
0.011241
0.007611
-0.017418
-0.023440
-0.019127
-0.020433
0.004496
0.009423
0.001654
-0.104618
-0.087746
-0.090077
-0.082381
-0.086455
-0.079548
-0.107970
-0.086906
-0.115775
-0.085443
0.001677
-0.003277
-0.001832
-0.002177
-0.018462
-0.008737
-0.005907
-0.104485
-0.105180
-0.104445
-0.026019
-0.004389
-0.011102
-0.021863
-0.096071
-0.098426
-0.095542
-0.099022
-0.100804
-0.110928
0.044386
0.070116
-0.114694
0.019458
-0.006384
-0.090369
0.008458
-0.053821
0.062312
-0.103032
-0.085018
-0.012208
-0.111059
-0.107838
0.022506
-0.000453
-0.000607
-0.027872
-0.021695
-0.004128
-0.000767
-0.009520
0.039163
0.071451
0.050358
0.046554
0.062783
0.063196
-0.067071
-0.069152
-0.067939
-0.065473
0.018218
0.009746
0.018894
-0.027384
-0.004072
-0.005157
-0.016212
0.045055
0.035678
-0.112347
-0.104542
-0.101220
-0.098649
-0.007191
-0.040069
-0.027149
-0.019793
0.031476
0.049336
0.026355
0.048211
0.031478
-0.035231
-0.029307
-0.030069
0.020000
-0.093793
-0.090952
-0.103316
-0.075433
-0.065800
-0.025411
-0.004808
-0.014567
-0.008182
-0.039976
-0.021316
-0.031247
-0.026602
-0.028727
-0.033811
0.000007
0.002013
0.032140
0.030610
0.042040
0.013376
-0.012141
-0.024274
-0.023455
-0.031790
-0.018822
-0.108039
-0.006997
0.025060
0.001201
-0.007540
-0.019045
-0.015167
-0.074214
-0.077906
-0.113012
-0.101168
-0.095977
-0.095186
-0.076418
-0.074652
-0.080913
-0.076982
-0.106805
0.065319
0.033600
0.024318
0.025340
0.020823
-0.011465
-0.012859
0.024340
-0.094775
-0.089526
-0.100096
-0.007650
-0.012078
-0.077944
-0.084977
-0.093178
-0.091902
-0.008478
-0.012810
-0.017597
-0.103429
-0.004170
-0.007203
-0.099167
-0.097910
0.026534
0.019785
0.023818
0.014813
0.003868
0.006716
-0.001662
-0.000997
-0.095974
-0.122463
-0.119177
-0.077669
-0.073113
-0.078043
-0.061562
-0.007373
-0.009886
-0.016930
-0.015092
0.036399
0.030720
0.030694
0.006919
0.019287
0.036613
0.001831
0.010402
-0.019776
-0.024545
-0.031835
-0.034483
-0.033303
-0.105712
-0.102247
-0.102415
-0.045299
-0.051010
-0.067491
-0.049707
0.055962
0.025528
-0.021876
-0.019285
-0.099166
-0.072328
-0.067127
-0.059518
-0.106578
-0.090548
-0.104065
-0.072060
-0.072288
-0.019567
-0.041666
-0.021554
-0.034175
-0.016926
0.048342
-0.010280
0.046144
0.043992
-0.015924
-0.007319
-0.004514
0.012697
-0.014369
-0.015733
-0.009844
-0.085839
-0.105576
-0.008660
-0.000802
-0.034879
-0.084653
-0.027380
-0.025195
-0.018073
-0.013444
-0.022021
-0.021454
-0.006486
-0.012513
0.000036
-0.109664
-0.011255
0.009263
-0.032550
-0.088796
-0.086030
-0.106497
0.022339
0.002190
-0.010047
-0.099142
0.023087
0.029638
-0.020026
-0.133412
-0.103405
-0.120030
-0.001228
-0.030895
-0.005504
-0.000275
-0.038418
-0.056035
-0.035521
-0.025180
-0.018827
-0.043618
-0.003834
-0.006763
0.012119
0.006156
0.010473
0.018365
0.007800
0.002488
0.020299
-0.021180
-0.027451
-0.036285
-0.023353
-0.047143
-0.027846
-0.025447
-0.021748
-0.024071
-0.007343
-0.101163
-0.083692
-0.094792
-0.080095
-0.075651
-0.075401
-0.073102
-0.010809
-0.004231
-0.034542
-0.022296
-0.019571
0.025051
0.036826
0.038408
0.022739
-0.106143
-0.013891
-0.008601
0.005900
-0.004714
-0.089738
0.028634
0.018884
0.033932
0.000020
-0.107981
0.004069
0.009284
0.002697
0.013700
0.006011
-0.007603
-0.029033
-0.030096
-0.024333
-0.003001
-0.004461
-0.003139
-0.002865
0.061992
0.069587
0.063409
0.061676
-0.094604
-0.106010
-0.085764
-0.058133
-0.055896
0.015192
0.010348
0.024499
0.003622
0.011403
-0.009466
0.029478
-0.039677
-0.080744
0.041351
0.033827
0.058153
-0.105295
-0.077373
-0.106720
-0.086548
-0.093159
-0.032795
0.041672
0.045704
0.034189
0.039284
0.021221
-0.041237
-0.044122
-0.070606
0.006385
0.008453
-0.076026
0.022447
0.024444
-0.054413
-0.047587
-0.053022
-0.091429
-0.095109
-0.011650
-0.073114
-0.072732
-0.062515
-0.075944
0.060621
0.052813
0.067779
0.075373
-0.088796
-0.041113
-0.082188
-0.075839
-0.090405
0.011924
0.028689
0.032476
0.051977
0.049046
0.058665
-0.011326
-0.013788
-0.011017
-0.109569
0.025938
-0.106962
-0.096781
-0.083899
-0.106311
-0.100275
-0.102976
-0.073718
-0.117000
0.003816
-0.013367
-0.098029
0.027814
-0.014967
-0.007921
-0.013296
-0.054557
-0.047913
-0.047098
-0.025220
-0.013514
0.009167
0.008494
0.015443
-0.003536
-0.016397
-0.009096
-0.009524
-0.016796
-0.025960
-0.021670
0.036226
0.025729
0.030887
-0.005088
-0.010517
-0.089406
-0.087057
-0.090014
-0.054781
-0.111528
-0.119244
-0.120850
-0.084218
-0.093942
-0.075630
-0.007046
-0.000111
-0.013371
-0.074972
-0.067817
-0.080194
-0.024102
-0.010177
-0.042975
-0.044081
-0.025185
0.015427
-0.011498
0.056746
0.048836
0.036667
0.044174
-0.029237
-0.029065
-0.006439
-0.001577
-0.008688
0.020850
0.001418
-0.004699
-0.090890
0.003562
-0.013906
-0.019720
-0.000642
-0.074102
-0.065796
-0.077771
-0.072315
-0.136141
-0.086255
-0.103264
-0.107163
-0.001847
0.001531
0.013615
-0.099325
-0.095483
-0.085769
-0.095513
-0.030026
0.031441
0.018079
-0.038502
-0.022919
0.008918
-0.036219
0.049213
0.055431
-0.036659
-0.058364
-0.046765
-0.063275
-0.007146
-0.015359
-0.008478
-0.046323
-0.042802
-0.049150
0.037281
0.103493
0.049286
-0.089206
-0.078987
-0.084853
-0.087448
-0.041692
-0.086616
-0.089314
-0.083023
-0.103322
-0.008572
-0.081934
-0.089237
-0.104598
-0.100400
0.005036
0.015069
0.012848
-0.010611
-0.011511
-0.037985
-0.018563
-0.017245
-0.004498
-0.009803
-0.011570
-0.008007
-0.008968
-0.024112
-0.018243
-0.061708
-0.076116
-0.098668
-0.064983
0.041281
0.048460
0.049203
0.031515
-0.023367
-0.028968
-0.033456
-0.030199
-0.027539
0.007049
0.000177
-0.001803
-0.091977
-0.092274
-0.014499
-0.007431
-0.027800
-0.004366
-0.008129
-0.012067
0.004975
-0.011320
-0.037661
-0.034195
-0.009298
-0.095891
-0.099063
-0.097015
0.001770
0.002706
-0.072403
-0.070872
-0.074531
-0.086795
-0.089051
-0.100441
-0.096231
0.004271
0.003172
-0.007854
-0.078136
-0.084720
-0.103545
0.027225
0.023548
0.027624
0.035647
-0.067130
-0.076376
-0.077027
-0.073328
0.055141
0.051410
0.062104
-0.099183
0.053221
-0.068702
0.005765
0.026358
0.026145
0.021778
0.041194
-0.090894
-0.096087
-0.090623
0.000590
0.002639
0.012971
0.052568
0.063159
0.016626
-0.040960
-0.028517
0.042155
0.044607
0.058642
-0.006399
-0.044427
-0.038206
-0.071752
0.030869
-0.009298
0.041341
0.046590
0.020425
-0.034310
-0.011034
-0.005961
-0.005074
-0.010316
-0.011553
-0.011624
0.041552
-0.098643
-0.097157
-0.088074
-0.062525
-0.008307
-0.094487
-0.087298
-0.092698
-0.083744
-0.096043
0.031327
-0.017152
-0.032052
-0.022015
-0.017678
-0.007587
-0.023470
-0.032672
-0.020844
-0.029728
-0.033981
-0.000285
-0.078900
-0.080187
-0.092839
0.000403
-0.093589
-0.101946
-0.002905
0.036596
0.027089
0.058868
-0.099908
0.058337
0.033420
0.026826
-0.095513
-0.092365
-0.093020
0.008766
0.002235
0.002429
-0.116549
-0.030937
-0.068895
-0.034777
-0.053760
-0.057693
-0.064092
-0.114105
-0.111630
-0.108976
-0.088378
-0.077717
-0.037334
0.024955
-0.029906
-0.087436
0.045545
0.051113
0.032106
-0.055396
-0.052944
-0.012663
-0.015300
-0.023239
-0.017219
-0.018895
0.045022
-0.031327
-0.095892
-0.090301
0.013741
-0.007183
-0.002929
-0.100330
-0.099220
-0.095455
0.013972
0.015108
0.010437
-0.038832
-0.037535
-0.045018
-0.041916
-0.021644
-0.032157
-0.004614
-0.002437
0.019601
0.003945
-0.033513
-0.028925
-0.024729
-0.032215
-0.091589
-0.099613
-0.100940
-0.079895
-0.027775
-0.029400
-0.028465
-0.015708
-0.016869
-0.005370
-0.006942
-0.051407
-0.066484
-0.085907
-0.106995
-0.105482
0.053690
-0.016532
-0.020868
0.030594
0.044955
0.008263
-0.111722
0.061290
-0.042231
-0.048941
-0.047430
-0.041118
-0.078215
-0.091320
-0.078864
-0.071254
-0.040128
-0.010108
-0.046468
-0.095607
-0.016347
-0.024580
-0.003772
-0.042875
-0.035399
-0.091586
-0.037457
0.064334
0.058409
0.067960
-0.022156
-0.039683
-0.011710
-0.084965
-0.005165
-0.003705
0.000639
0.009959
-0.010638
0.007919
0.006626
-0.024264
-0.016702
-0.032848
-0.034822
0.040720
0.048270
0.073496
-0.070524
-0.120465
-0.103118
0.078119
-0.098009
-0.097762
-0.109023
-0.077844
-0.102950
-0.114679
-0.108809
-0.116735
-0.047556
-0.043122
-0.043274
0.037805
-0.037380
-0.002584
-0.008563
-0.026930
-0.041259
-0.031175
-0.057107
-0.053472
-0.061775
-0.011599
-0.028864
-0.091912
-0.114740
-0.107004
-0.081888
-0.087879
-0.086922
0.002214
0.014292
-0.006395
-0.103106
-0.100034
-0.098846
0.019907
0.006239
-0.015231
-0.005817
-0.026901
-0.098472
-0.094692
-0.000910
-0.002007
-0.006013
-0.024067
-0.010549
-0.033782
-0.038142
-0.108996
0.009488
0.023426
-0.096842
0.033282
0.040302
0.025691
0.027190
-0.102132
-0.129629
-0.084268
-0.032816
-0.046038
-0.038919
-0.001321
0.003926
-0.010487
0.002624
-0.019801
-0.014598
0.003568
-0.016044
-0.045258
-0.035206
-0.011238
-0.011298
-0.006373
-0.000476
-0.094833
-0.007234
-0.004702
-0.006487
-0.036486
-0.036665
0.040282
0.058821
0.024509
0.040319
0.037675
0.044681
0.029625
-0.013391
0.005484
-0.005083
0.039243
0.000965
-0.012296
-0.047450
-0.049948
-0.037338
-0.046351
-0.029013
-0.031492
-0.033544
0.040270
-0.017846
-0.044308
-0.028278
-0.042983
0.039944
0.026840
0.019823
-0.037926
-0.026171
0.034481
0.068840
0.029106
0.007209
0.020158
0.030659
0.027458
0.013240
0.028322
0.050361
0.050357
-0.017267
-0.006670
0.040581
0.005332
0.082135
0.059125
0.016596
0.064691
0.070651
0.079108
-0.028791
-0.032547
-0.037790
-0.031173
-0.021451
-0.045696
0.026702
0.035002
0.043619
0.022204
0.043152
0.057425
0.068879
0.060958
-0.037864
-0.038704
-0.027176
-0.038223
-0.043274
-0.027155
-0.042847
-0.023339
-0.000020
-0.011541
-0.028059
-0.002713
0.065793
0.056412
0.071131
0.026833
0.011950
0.002867
-0.000402
-0.011960
-0.095050
-0.095152
-0.016866
-0.033827
-0.004235
-0.015528
-0.102488
-0.097471
-0.094838
-0.106577
-0.043161
-0.050116
-0.048422
-0.041791
-0.026507
-0.021913
-0.012230
-0.004899
-0.040007
-0.031027
-0.030779
-0.022927
0.052153
0.055802
0.058355
0.060251
0.038919
-0.022403
-0.023174
-0.035459
0.072385
0.061644
0.063149
-0.018852
-0.018246
-0.009393
-0.024591
-0.043885
-0.040370
-0.035813
-0.035159
-0.055092
-0.046319
-0.038441
-0.036333
-0.014276
0.000223
0.069525
-0.009125
-0.025883
-0.033873
-0.041561
0.031420
-0.093877
-0.029483
-0.003037
-0.000129
0.002152
-0.000795
-0.004057
0.002033
-0.036062
-0.054827
-0.014108
-0.018822
0.000141
-0.094734
-0.020973
-0.008392
-0.017767
0.004330
0.003110
-0.037739
-0.040726
0.000825
-0.010920
0.001996
-0.011214
-0.089672
-0.060923
-0.083058
-0.087143
-0.023980
-0.009868
-0.005646
-0.019793
-0.014240
-0.016408
-0.032459
-0.039204
-0.013167
-0.011561
-0.014498
-0.011177
-0.023801
-0.086027
-0.085851
-0.073239
-0.093148
-0.081628
-0.079864
-0.099328
-0.019951
-0.041986
-0.042591
-0.041154
-0.029967
0.068410
0.032741
0.044893
0.047804
0.002692
0.008522
-0.000385
-0.007381
-0.005198
-0.005968
-0.014037
-0.012264
-0.037909
-0.054163
-0.053885
0.029745
-0.002154
-0.037139
0.009433
-0.040729
-0.036204
-0.051339
-0.039084
-0.006531
-0.106328
-0.100231
0.026312
0.007297
0.034161
0.031320
-0.008164
-0.037788
-0.037479
-0.012189
-0.125072
-0.006689
-0.000302
-0.010394
0.045051
0.037990
0.039633
-0.079088
-0.048069
-0.067785
-0.079617
-0.043810
-0.036298
0.002987
-0.034941
-0.042959
-0.039738
-0.039134
-0.014236
-0.034233
-0.000755
0.032413
0.038768
0.047545
0.034246
0.040024
-0.004368
0.001036
-0.000875
-0.008921
-0.027996
-0.021781
-0.043463
-0.013897
-0.020344
-0.010388
-0.004544
-0.002369
0.002250
-0.013645
-0.032028
-0.007439
-0.003636
-0.096322
0.037040
0.042026
0.044923
-0.038525
-0.038585
-0.101432
-0.097724
-0.069936
-0.073533
-0.109592
-0.112313
-0.111495
-0.108353
0.040939
0.049642
-0.015229
-0.032868
-0.040740
0.015152
-0.020992
-0.009755
0.036405
0.013233
-0.070553
-0.068614
-0.034728
-0.094121
-0.083661
-0.094179
-0.104112
-0.069425
-0.124659
-0.098136