# vtk DataFile Version 2.0
Test
ASCII
DATASET POLYDATA
POINTS 7607 float
0.000000 0.000000 0.000000
1.000000 0.000000 0.000000
1.000000 0.800000 0.000000
1.000000 1.000000 0.000000
0.000000 1.000000 0.000000
0.000000 0.200000 0.000000
0.300000 0.330000 0.000000
0.700000 0.680000 0.000000
0.012987 0.000000 0.000000
0.025974 0.000000 0.000000
0.038961 0.000000 0.000000
0.051948 0.000000 0.000000
0.064935 0.000000 0.000000
0.077922 0.000000 0.000000
0.090909 0.000000 0.000000
0.103896 0.000000 0.000000
0.116883 0.000000 0.000000
0.129870 0.000000 0.000000
0.142857 0.000000 0.000000
0.155844 0.000000 0.000000
0.168831 0.000000 0.000000
0.181818 0.000000 0.000000
0.194805 0.000000 0.000000
0.207792 0.000000 0.000000
0.220779 0.000000 0.000000
0.233766 0.000000 0.000000
0.246753 0.000000 0.000000
0.259740 0.000000 0.000000
0.272727 0.000000 0.000000
0.285714 0.000000 0.000000
0.298701 0.000000 0.000000
0.311688 0.000000 0.000000
0.324675 0.000000 0.000000
0.337662 0.000000 0.000000
0.350649 0.000000 0.000000
0.363636 0.000000 0.000000
0.376623 0.000000 0.000000
0.389610 0.000000 0.000000
0.402597 0.000000 0.000000
0.415584 0.000000 0.000000
0.428571 0.000000 0.000000
0.441558 0.000000 0.000000
0.454545 0.000000 0.000000
0.467532 0.000000 0.000000
0.480519 0.000000 0.000000
0.493506 0.000000 0.000000
0.506494 0.000000 0.000000
0.519481 0.000000 0.000000
0.532468 0.000000 0.000000
0.545455 0.000000 0.000000
0.558442 0.000000 0.000000
0.571429 0.000000 0.000000
0.584416 0.000000 0.000000
0.597403 0.000000 0.000000
0.610390 0.000000 0.000000
0.623377 0.000000 0.000000
0.636364 0.000000 0.000000
0.649351 0.000000 0.000000
0.662338 0.000000 0.000000
0.675325 0.000000 0.000000
0.688312 0.000000 0.000000
0.701299 0.000000 0.000000
0.714286 0.000000 0.000000
0.727273 0.000000 0.000000
0.740260 0.000000 0.000000
0.753247 0.000000 0.000000
0.766234 0.000000 0.000000
0.779221 0.000000 0.000000
0.792208 0.000000 0.000000
0.805195 0.000000 0.000000
0.818182 0.000000 0.000000
0.831169 0.000000 0.000000
0.844156 0.000000 0.000000
0.857143 0.000000 0.000000
0.870130 0.000000 0.000000
0.883117 0.000000 0.000000
0.896104 0.000000 0.000000
0.909091 0.000000 0.000000
0.922078 0.000000 0.000000
0.935065 0.000000 0.000000
0.948052 0.000000 0.000000
0.961039 0.000000 0.000000
0.974026 0.000000 0.000000
0.987013 0.000000 0.000000
1.000000 0.012903 0.000000
1.000000 0.025806 0.000000
1.000000 0.038710 0.000000
1.000000 0.051613 0.000000
1.000000 0.064516 0.000000
1.000000 0.077419 0.000000
1.000000 0.090323 0.000000
1.000000 0.103226 0.000000
1.000000 0.116129 0.000000
1.000000 0.129032 0.000000
1.000000 0.141935 0.000000
1.000000 0.154839 0.000000
1.000000 0.167742 0.000000
1.000000 0.180645 0.000000
1.000000 0.193548 0.000000
1.000000 0.206452 0.000000
1.000000 0.219355 0.000000
1.000000 0.232258 0.000000
1.000000 0.245161 0.000000
1.000000 0.258065 0.000000
1.000000 0.270968 0.000000
1.000000 0.283871 0.000000
1.000000 0.296774 0.000000
1.000000 0.309677 0.000000
1.000000 0.322581 0.000000
1.000000 0.335484 0.000000
1.000000 0.348387 0.000000
1.000000 0.361290 0.000000
1.000000 0.374194 0.000000
1.000000 0.387097 0.000000
1.000000 0.400000 0.000000
1.000000 0.412903 0.000000
1.000000 0.425806 0.000000
1.000000 0.438710 0.000000
1.000000 0.451613 0.000000
1.000000 0.464516 0.000000
1.000000 0.477419 0.000000
1.000000 0.490323 0.000000
1.000000 0.503226 0.000000
1.000000 0.516129 0.000000
1.000000 0.529032 0.000000
1.000000 0.541935 0.000000
1.000000 0.554839 0.000000
1.000000 0.567742 0.000000
1.000000 0.580645 0.000000
1.000000 0.593548 0.000000
1.000000 0.606452 0.000000
1.000000 0.619355 0.000000
1.000000 0.632258 0.000000
1.000000 0.645161 0.000000
1.000000 0.658065 0.000000
1.000000 0.670968 0.000000
1.000000 0.683871 0.000000
1.000000 0.696774 0.000000
1.000000 0.709677 0.000000
1.000000 0.722581 0.000000
1.000000 0.735484 0.000000
1.000000 0.748387 0.000000
1.000000 0.761290 0.000000
1.000000 0.774194 0.000000
1.000000 0.787097 0.000000
1.000000 0.812500 0.000000
1.000000 0.825000 0.000000
1.000000 0.837500 0.000000
1.000000 0.850000 0.000000
1.000000 0.862500 0.000000
1.000000 0.875000 0.000000
1.000000 0.887500 0.000000
1.000000 0.900000 0.000000
1.000000 0.912500 0.000000
1.000000 0.925000 0.000000
1.000000 0.937500 0.000000
1.000000 0.950000 0.000000
1.000000 0.962500 0.000000
1.000000 0.975000 0.000000
1.000000 0.987500 0.000000
0.987013 1.000000 0.000000
0.974026 1.000000 0.000000
0.961039 1.000000 0.000000
0.948052 1.000000 0.000000
0.935065 1.000000 0.000000
0.922078 1.000000 0.000000
0.909091 1.000000 0.000000
0.896104 1.000000 0.000000
0.883117 1.000000 0.000000
0.870130 1.000000 0.000000
0.857143 1.000000 0.000000
0.844156 1.000000 0.000000
0.831169 1.000000 0.000000
0.818182 1.000000 0.000000
0.805195 1.000000 0.000000
0.792208 1.000000 0.000000
0.779221 1.000000 0.000000
0.766234 1.000000 0.000000
0.753247 1.000000 0.000000
0.740260 1.000000 0.000000
0.727273 1.000000 0.000000
0.714286 1.000000 0.000000
0.701299 1.000000 0.000000
0.688312 1.000000 0.000000
0.675325 1.000000 0.000000
0.662338 1.000000 0.000000
0.649351 1.000000 0.000000
0.636364 1.000000 0.000000
0.623377 1.000000 0.000000
0.610390 1.000000 0.000000
0.597403 1.000000 0.000000
0.584416 1.000000 0.000000
0.571429 1.000000 0.000000
0.558442 1.000000 0.000000
0.545455 1.000000 0.000000
0.532468 1.000000 0.000000
0.519481 1.000000 0.000000
0.506494 1.000000 0.000000
0.493506 1.000000 0.000000
0.480519 1.000000 0.000000
0.467532 1.000000 0.000000
0.454545 1.000000 0.000000
0.441558 1.000000 0.000000
0.428571 1.000000 0.000000
0.415584 1.000000 0.000000
0.402597 1.000000 0.000000
0.389610 1.000000 0.000000
0.376623 1.000000 0.000000
0.363636 1.000000 0.000000
0.350649 1.000000 0.000000
0.337662 1.000000 0.000000
0.324675 1.000000 0.000000
0.311688 1.000000 0.000000
0.298701 1.000000 0.000000
0.285714 1.000000 0.000000
0.272727 1.000000 0.000000
0.259740 1.000000 0.000000
0.246753 1.000000 0.000000
0.233766 1.000000 0.000000
0.220779 1.000000 0.000000
0.207792 1.000000 0.000000
0.194805 1.000000 0.000000
0.181818 1.000000 0.000000
0.168831 1.000000 0.000000
0.155844 1.000000 0.000000
0.142857 1.000000 0.000000
0.129870 1.000000 0.000000
0.116883 1.000000 0.000000
0.103896 1.000000 0.000000
0.090909 1.000000 0.000000
0.077922 1.000000 0.000000
0.064935 1.000000 0.000000
0.051948 1.000000 0.000000
0.038961 1.000000 0.000000
0.025974 1.000000 0.000000
0.012987 1.000000 0.000000
0.000000 0.987097 0.000000
0.000000 0.974194 0.000000
0.000000 0.961290 0.000000
0.000000 0.948387 0.000000
0.000000 0.935484 0.000000
0.000000 0.922581 0.000000
0.000000 0.909677 0.000000
0.000000 0.896774 0.000000
0.000000 0.883871 0.000000
0.000000 0.870968 0.000000
0.000000 0.858065 0.000000
0.000000 0.845161 0.000000
0.000000 0.832258 0.000000
0.000000 0.819355 0.000000
0.000000 0.806452 0.000000
0.000000 0.793548 0.000000
0.000000 0.780645 0.000000
0.000000 0.767742 0.000000
0.000000 0.754839 0.000000
0.000000 0.741935 0.000000
0.000000 0.729032 0.000000
0.000000 0.716129 0.000000
0.000000 0.703226 0.000000
0.000000 0.690323 0.000000
0.000000 0.677419 0.000000
0.000000 0.664516 0.000000
0.000000 0.651613 0.000000
0.000000 0.638710 0.000000
0.000000 0.625806 0.000000
0.000000 0.612903 0.000000
0.000000 0.600000 0.000000
0.000000 0.587097 0.000000
0.000000 0.574194 0.000000
0.000000 0.561290 0.000000
0.000000 0.548387 0.000000
0.000000 0.535484 0.000000
0.000000 0.522581 0.000000
0.000000 0.509677 0.000000
0.000000 0.496774 0.000000
0.000000 0.483871 0.000000
0.000000 0.470968 0.000000
0.000000 0.458065 0.000000
0.000000 0.445161 0.000000
0.000000 0.432258 0.000000
0.000000 0.419355 0.000000
0.000000 0.406452 0.000000
0.000000 0.393548 0.000000
0.000000 0.380645 0.000000
0.000000 0.367742 0.000000
0.000000 0.354839 0.000000
0.000000 0.341935 0.000000
0.000000 0.329032 0.000000
0.000000 0.316129 0.000000
0.000000 0.303226 0.000000
0.000000 0.290323 0.000000
0.000000 0.277419 0.000000
0.000000 0.264516 0.000000
0.000000 0.251613 0.000000
0.000000 0.238710 0.000000
0.000000 0.225806 0.000000
0.000000 0.212903 0.000000
0.000000 0.187500 0.000000
0.000000 0.175000 0.000000
0.000000 0.162500 0.000000
0.000000 0.150000 0.000000
0.000000 0.137500 0.000000
0.000000 0.125000 0.000000
0.000000 0.112500 0.000000
0.000000 0.100000 0.000000
0.000000 0.087500 0.000000
0.000000 0.075000 0.000000
0.000000 0.062500 0.000000
0.000000 0.050000 0.000000
0.000000 0.037500 0.000000
0.000000 0.025000 0.000000
0.000000 0.012500 0.000000
0.309756 0.338537 0.000000
0.319512 0.347073 0.000000
0.329268 0.355610 0.000000
0.339024 0.364146 0.000000
0.348780 0.372683 0.000000
0.358537 0.381220 0.000000
0.368293 0.389756 0.000000
0.378049 0.398293 0.000000
0.387805 0.406829 0.000000
0.397561 0.415366 0.000000
0.407317 0.423902 0.000000
0.417073 0.432439 0.000000
0.426829 0.440976 0.000000
0.436585 0.449512 0.000000
0.446341 0.458049 0.000000
0.456098 0.466585 0.000000
0.465854 0.475122 0.000000
0.475610 0.483659 0.000000
0.485366 0.492195 0.000000
0.495122 0.500732 0.000000
0.504878 0.509268 0.000000
0.514634 0.517805 0.000000
0.524390 0.526341 0.000000
0.534146 0.534878 0.000000
0.543902 0.543415 0.000000
0.553659 0.551951 0.000000
0.563415 0.560488 0.000000
0.573171 0.569024 0.000000
0.582927 0.577561 0.000000
0.592683 0.586098 0.000000
0.602439 0.594634 0.000000
0.612195 0.603171 0.000000
0.621951 0.611707 0.000000
0.631707 0.620244 0.000000
0.641463 0.628780 0.000000
0.651220 0.637317 0.000000
0.660976 0.645854 0.000000
0.670732 0.654390 0.000000
0.680488 0.662927 0.000000
0.690244 0.671463 0.000000
0.011538 0.205000 0.000000
0.023077 0.210000 0.000000
0.034615 0.215000 0.000000
0.046154 0.220000 0.000000
0.057692 0.225000 0.000000
0.069231 0.230000 0.000000
0.080769 0.235000 0.000000
0.092308 0.240000 0.000000
0.103846 0.245000 0.000000
0.115385 0.250000 0.000000
0.126923 0.255000 0.000000
0.138462 0.260000 0.000000
0.150000 0.265000 0.000000
0.161538 0.270000 0.000000
0.173077 0.275000 0.000000
[...]
POINT_DATA 7607
SCALARS UX float 1
LOOKUP_TABLE default
0.004015
0.001633
0.001413
-0.052941
-0.134639
-0.058040
-0.060980
-0.049898
-0.000865
-0.000033
-0.000964
0.000929
0.008701
-0.000169
-0.000129
0.007971
0.000227
0.000349
-0.000176
0.000097
0.000039
-0.000024
-0.000100
0.000136
-0.000076
0.000267
0.000049
-0.000721
-0.000038
-0.000081
-0.000326
-0.006073
0.000120
-0.000100
-0.000033
-0.000264
0.000197
0.000185
0.001728
0.000060
0.000977
-0.001271
-0.000043
0.003399
0.000101
0.000180
-0.002090
-0.000020
-0.000144
0.000011
0.000065
-0.002864
-0.000146
-0.001205
-0.000031
0.000108
-0.000090
-0.000050
-0.000016
-0.000394
-0.000659
0.000196
-0.000145
-0.000220
0.003689
0.000336
-0.005791
0.000169
0.001501
0.000111
-0.000588
-0.000310
-0.004741
-0.000612
0.004086
0.002056
-0.004867
-0.000084
-0.000562
0.001274
0.000152
-0.000235
-0.000115
-0.007419
-0.000927
0.012363
0.001896
0.008346
0.006123
0.006048
0.009226
0.008962
0.027436
0.026511
0.022215
0.024695
0.022008
0.039501
0.019714
0.022460
0.037804
0.037617
0.039413
0.047570
0.041266
0.049229
0.055240
0.039942
0.052939
0.063367
0.051293
0.075200
0.065107
0.065915
0.069196
0.061041
0.075455
0.069178
0.083875
0.062274
0.076523
0.080815
0.069659
0.071811
0.087648
0.071515
0.078625
0.080669
0.066210
0.077065
0.080366
0.063011
0.079505
0.053298
0.059169
0.055417
0.060984
0.050305
0.059196
0.041946
0.037660
0.041694
0.032830
0.036706
0.028538
0.004829
0.007188
-0.021677
-0.020626
-0.053473
-0.018561
-0.032856
-0.035300
-0.032792
-0.036548
-0.044539
-0.044329
-0.026828
-0.053668
-0.045439
-0.037325
-0.048824
-0.047386
-0.059569
-0.057011
-0.057310
-0.055388
-0.063123
-0.061472
-0.062764
-0.062263
-0.065436
-0.062809
-0.061601
-0.067224
-0.070707
-0.062780
-0.074867
-0.075810
-0.072105
-0.071112
-0.073299
-0.070244
-0.073612
-0.075735
-0.075379
-0.077356
-0.075414
-0.078229
-0.079255
-0.077386
-0.083552
-0.082021
-0.085466
-0.085236
-0.085555
-0.082871
-0.086286
-0.086600
-0.086292
-0.086555
-0.089385
-0.094329
-0.086747
-0.089002
-0.097810
-0.091042
-0.097622
-0.092276
-0.102666
-0.103968
-0.106699
-0.108794
-0.108857
-0.107618
-0.115900
-0.108448
-0.117360
-0.122701
-0.109586
-0.127991
-0.119942
-0.121807
-0.119216
-0.127008
-0.134274
-0.127173
-0.133831
-0.136967
-0.132229
-0.135017
-0.137076
-0.141688
-0.141120
-0.141185
-0.142789
-0.147025
-0.145367
-0.145124
-0.136903
-0.138698
-0.129646
-0.137599
-0.138095
-0.145301
-0.140724
-0.139252
-0.162202
-0.147371
-0.149747
-0.145189
-0.149250
-0.157407
-0.153516
-0.150162
-0.145311
-0.155169
-0.155677
-0.153251
-0.150879
-0.161162
-0.151650
-0.150007
-0.166674
-0.156146
-0.158694
-0.140601
-0.128749
-0.142099
-0.154361
-0.155403
-0.155561
-0.149052
-0.157575
-0.153786
-0.164110
-0.149519
-0.154324
-0.147772
-0.150056
-0.150662
-0.147873
-0.147705
-0.160518
-0.137021
-0.148871
-0.136178
-0.136973
-0.131526
-0.130606
-0.118404
-0.114254
-0.098025
-0.111789
-0.087976
-0.085613
-0.088173
-0.076831
-0.042269
-0.057530
-0.046344
-0.004647
-0.039133
-0.026789
-0.023643
-0.020101
-0.018639
-0.012997
-0.018004
-0.014214
-0.009882
-0.005480
-0.047166
-0.051040
-0.058081
-0.081540
-0.074697
-0.074280
-0.092171
-0.068842
-0.023537
-0.055376
-0.041196
-0.083312
0.000888
-0.053410
-0.064373
-0.050099
-0.050381
-0.040193
-0.031339
0.005045
-0.011069
-0.006957
-0.095155
-0.017758
-0.011146
-0.070838
-0.048200
-0.047523
-0.113248
-0.069153
-0.003164
-0.021181
-0.037755
0.038605
0.021396
0.054462
-0.004894
-0.018154
-0.102845
-0.077140
-0.065390
-0.092393
-0.048969
-0.085809
-0.074476
-0.099711
-0.094985
-0.065275
-0.086035
-0.043040
-0.086774
-0.055806
-0.094424
-0.078149
-0.060662
-0.127990
-0.075734
-0.071927
-0.073681
-0.118727
-0.062910
-0.082399
-0.098084
-0.070879
-0.097488
-0.033086
0.017073
0.015784
0.039126
0.026800
0.029593
0.014575
-0.030108
0.022169
-0.014099
0.017653
-0.012096
0.005859
0.012600
-0.010420
-0.001600
0.008706
0.010009
0.005152
0.008617
0.004195
0.017833
0.030373
-0.020792
-0.063952
-0.072628
-0.075545
-0.069189
0.040642
0.031301
0.020958
-0.089521
-0.167789
-0.116535
-0.100131
-0.093772
-0.075022
-0.007424
0.004277
0.009940
-0.107831
-0.125455
-0.127445
-0.151663
0.025729
0.010665
0.018384
0.009560
-0.045772
-0.018606
-0.058558
-0.037039
0.000822
-0.008891
-0.075992
-0.085161
-0.160005
-0.125685
-0.056533
-0.035971
0.011539
0.001665
-0.004469
-0.003572
-0.126959
-0.125679
-0.137264
-0.142255
-0.027033
-0.025656
-0.012732
-0.013354
0.045387
0.034957
0.052920
-0.062051
-0.066902
0.037906
0.033716
0.009417
0.043366
-0.082963
-0.073987
-0.066208
-0.048640
-0.090937
-0.068126
-0.045634
-0.033784
-0.043423
-0.027277
-0.040158
-0.024255
-0.067406
-0.128265
-0.131878
-0.015703
0.012125
0.023353
-0.006367
-0.012486
-0.013004
-0.097270
-0.095490
-0.098394
-0.019019
-0.079387
-0.076911
-0.061580
0.020199
0.030336
0.002058
0.017799
0.002092
-0.010364
-0.016320
-0.040512
-0.021499
-0.017079
-0.019081
0.025676
0.050835
0.054514
-0.117137
-0.089443
-0.086915
-0.045934
-0.038437
-0.056090
-0.036875
-0.092730
-0.068163
-0.116797
-0.062143
-0.015683
0.009469
0.004584
0.003817
0.047318
0.040164
-0.075740
-0.069657
-0.063813
0.017391
0.018722
0.010036
-0.044379
-0.043821
-0.059337
-0.048587
0.029649
0.018000
0.041745
0.025032
-0.005409
-0.061251
-0.018872
-0.000276
-0.004633
-0.005195
-0.135816
-0.110536
-0.113119
-0.140834
-0.075583
-0.105178
-0.093430
-0.083511
-0.054094
-0.066927
-0.066931
-0.062169
-0.002893
-0.008974
-0.005704
-0.004889
-0.000248
-0.154124
-0.134089
-0.153626
-0.010622
-0.009355
-0.002971
-0.151700
-0.131591
-0.132583
-0.013120
-0.047227
-0.055130
-0.065393
-0.134013
-0.130234
-0.111834
-0.129425
-0.124679
-0.131402
-0.126640
0.067249
0.052497
0.057696
0.059460
0.051173
0.034691
0.045784
0.024998
0.035580
0.026923
-0.091156
-0.081673
-0.067644
-0.082808
-0.078994
-0.077218
-0.007196
-0.018570
-0.012631
-0.006631
0.012618
0.031241
-0.004078
-0.030920
-0.012388
-0.029127
-0.043540
-0.114987
-0.126927
-0.125499
-0.107683
0.026868
0.050077
0.023784
0.022992
0.030489
0.026509
0.041079
0.065078
0.058163
0.052585
-0.009838
0.083523
-0.139076
-0.128965
-0.133808
-0.041428
-0.046723
-0.047560
-0.028539
0.034549
0.048137
0.057191
0.070780
0.028111
0.036206
0.010704
-0.084338
-0.085190
-0.142172
-0.121616
-0.107476
-0.105881
-0.124335
-0.113216
-0.124625
-0.001062
-0.013552
0.006284
-0.107159
-0.106871
-0.090635
-0.003616
0.017559
-0.012229
0.038843
0.034978
0.055715
-0.002844
-0.016034
-0.020157
-0.017521
-0.019026
-0.132583
-0.141076
-0.009283
-0.016874
-0.005377
0.010005
0.007124
-0.000535
-0.013662
-0.002256
0.011397
-0.041034
-0.036104
-0.131512
-0.143453
-0.122261
-0.019776
-0.022414
0.055109
0.051535
0.008096
0.048241
0.009741
0.043633
0.015682
-0.002613
0.000265
0.009232
-0.129883
-0.139013
-0.153976
-0.121259
-0.142166
-0.117124
-0.159114
-0.099782
0.025737
0.002023
0.020331
0.021120
-0.151873
-0.138156
-0.130032
-0.119958
0.020665
0.070082
0.062206
0.043861
0.030966
-0.058093
-0.052153
-0.052602
0.017761
-0.044147
-0.051382
-0.064275
0.054281
-0.057718
-0.135627
-0.161258
-0.130380
-0.011552
0.010156
-0.011123
-0.108568
-0.115541
-0.101562
-0.012898
-0.008809
0.004181
0.034787
0.030715
0.003555
0.013066
-0.051317
-0.056362
-0.035227
-0.068333
-0.111209
-0.136984
-0.114685
0.016003
0.022138
0.002024
0.015786
0.013786
0.014403
-0.126250
-0.143128
-0.143440
-0.055937
-0.060609
-0.124951
-0.020013
-0.037259
0.048729
0.003315
-0.009292
0.023309
0.020923
0.023699
-0.117117
-0.152179
-0.119551
-0.148937
-0.155346
-0.122227
-0.019657
0.013159
-0.009551
-0.014413
0.066765
0.026415
0.038712
0.056606
0.001393
0.005818
0.030188
0.024281
0.026165
0.029755
-0.097975
-0.097472
-0.068508
0.008447
0.005091
0.005951
0.003456
-0.022425
0.000112
-0.010919
-0.148522
-0.096189
-0.074291
-0.090479
-0.127884
-0.142630
-0.169187
-0.042768
-0.051131
-0.038406
-0.030147
-0.023511
-0.013145
-0.048571
-0.047770
-0.051443
-0.031964
-0.036437
0.008500
-0.005825
-0.112137
-0.131773
-0.126735
0.065223
0.034840
-0.063489
-0.093793
-0.022865
0.004948
-0.017442
0.006480
-0.018898
-0.021911
-0.013915
0.011908
0.020132
0.021107
-0.053075
-0.060554
-0.036591
0.000463
-0.003434
-0.085893
-0.080230
-0.080440
0.016534
-0.128689
-0.118295
-0.126004
0.085811
0.025411
0.016271
-0.140094
-0.137258
0.043919
0.037192
-0.119841
-0.112552
-0.121995
-0.069519
-0.045445
-0.005058
-0.025869
-0.005208
-0.005391
-0.019595
-0.119139
-0.116104
-0.146465
-0.152032
-0.110775
0.042132
0.054900
-0.144791
-0.132235
-0.135056
0.012794
0.006977
-0.042726
-0.050896
-0.044615
-0.046944
0.005449
0.010407
0.003225
-0.147353
-0.128403
-0.129964
-0.121735
-0.127056
-0.118543
-0.145136
-0.121778
-0.152641
-0.118449
0.001283
-0.004021
-0.002172
-0.002135
-0.022555
-0.010560
-0.007601
-0.145892
-0.146795
-0.146021
-0.052603
-0.026084
-0.033840
-0.047053
-0.125859
-0.132663
-0.130615
-0.140545
-0.142076
-0.153209
0.047629
0.079257
-0.152216
0.018895
-0.009290
-0.130725
-0.005197
-0.087001
0.066967
-0.145469
-0.124352
-0.015011
-0.154422
-0.151048
0.021433
-0.000599
-0.000045
-0.032617
-0.025884
-0.004367
-0.000735
-0.007121
0.040761
0.081835
0.052870
0.048045
0.068055
0.070960
-0.103665
-0.105271
-0.104717
-0.100957
0.021270
0.011503
0.021245
-0.032727
-0.004755
-0.028341
-0.041446
0.048061
0.034051
-0.154875
-0.146269
-0.142493
-0.139632
-0.008559
-0.048230
-0.031852
-0.023581
0.030985
0.052498
0.019364
0.054183
0.028373
-0.063883
-0.057519
-0.057970
0.021331
-0.127564
-0.123813
-0.138429
-0.095877
-0.085699
-0.029676
-0.006519
-0.016230
-0.009904
-0.070181
-0.048974
-0.058937
-0.055757
-0.057984
-0.061925
0.000009
0.002314
0.029147
0.030937
0.044142
0.010012
-0.036272
-0.050481
-0.051830
-0.060754
-0.045320
-0.151667
-0.030354
0.023842
0.001667
-0.008758
-0.022267
-0.017394
-0.095263
-0.100627
-0.148658
-0.135246
-0.127695
-0.122586
-0.099092
-0.109780
-0.117462
-0.111995
-0.142392
0.087660
0.019675
0.022804
0.021822
0.017523
-0.014410
-0.015627
0.023221
-0.134895
-0.129537
-0.141498
-0.004942
-0.011124
-0.113076
-0.124097
-0.134325
-0.123438
-0.009914
-0.016595
-0.023390
-0.136424
-0.005516
-0.008989
-0.135685
-0.135821
0.026099
0.018139
0.023211
0.011546
0.004623
0.007094
-0.001588
-0.001616
-0.134918
-0.164543
-0.160968
-0.114970
-0.108610
-0.114100
-0.096160
-0.009102
-0.011983
-0.020589
-0.017160
0.033886
0.028892
0.028278
0.007529
0.011726
0.033264
0.002793
-0.003844
-0.046937
-0.052196
-0.060572
-0.063814
-0.060554
-0.147619
-0.143465
-0.143901
-0.076716
-0.083575
-0.103262
-0.082156
0.059493
0.022991
-0.025565
-0.022201
-0.139823
-0.094329
-0.085419
-0.078056
-0.148901
-0.129901
-0.145228
-0.092726
-0.094422
-0.046472
-0.054340
-0.025982
-0.063453
-0.020656
0.051984
-0.012916
0.047580
0.046115
-0.017771
-0.008567
-0.005644
0.010424
-0.039660
-0.041075
-0.011346
-0.119387
-0.142542
-0.010069
-0.001001
-0.063718
-0.124258
-0.032880
-0.029982
-0.021601
-0.015437
-0.047992
-0.047456
-0.030319
-0.014741
-0.000564
-0.152588
-0.013521
0.011194
-0.038986
-0.129241
-0.126089
-0.140502
0.022912
-0.000119
-0.010925
-0.131335
0.022444
0.027612
-0.022824
-0.173098
-0.138134
-0.156996
-0.023483
-0.036927
-0.006651
0.000349
-0.068342
-0.089308
-0.065104
-0.053320
-0.045273
-0.074567
-0.004993
-0.007695
0.011577
0.009674
-0.000963
0.008634
0.007379
-0.011357
0.010231
-0.046939
-0.054356
-0.066389
-0.049903
-0.059306
-0.056444
-0.053531
-0.048359
-0.027630
-0.009376
-0.142573
-0.123034
-0.135303
-0.106527
-0.097950
-0.098186
-0.096563
-0.012643
-0.004684
-0.063633
-0.049538
-0.046377
0.024405
0.034371
0.039573
0.016806
-0.147553
-0.037927
-0.010412
0.005917
-0.002560
-0.130145
0.027929
0.017730
0.031864
0.000100
-0.150791
0.005743
0.011399
0.002349
0.013987
0.006261
-0.031779
-0.057561
-0.058970
-0.051121
-0.003435
-0.005795
-0.003352
-0.003075
0.070503
0.078444
0.070541
0.069263
-0.135476
-0.148633
-0.125527
-0.098752
-0.086369
0.013679
0.007882
0.024718
0.003420
0.012123
-0.009570
0.030043
-0.069690
-0.105453
0.044314
0.035927
0.064427
-0.137292
-0.100836
-0.146169
-0.123001
-0.130326
-0.062018
0.042245
0.048036
0.034886
0.040498
0.010358
-0.070386
-0.074787
-0.107029
0.002274
0.007089
-0.113344
0.026322
0.022994
-0.087502
-0.079665
-0.086285
-0.131393
-0.136036
-0.013954
-0.110770
-0.110521
-0.097975
-0.113889
0.066683
0.058904
0.075774
0.086028
-0.115904
-0.071954
-0.108491
-0.097650
-0.118310
0.010083
0.028871
0.033162
0.057638
0.054248
0.065866
-0.013257
-0.016905
-0.012709
-0.152673
0.022021
-0.143110
-0.137788
-0.123468
-0.144215
-0.135562
-0.139333
-0.103624
-0.149870
0.005485
-0.013274
-0.132197
0.021160
-0.017710
-0.010020
-0.015949
-0.087379
-0.079704
-0.078898
-0.029885
-0.016842
0.009298
0.009330
0.015255
-0.026762
-0.019013
-0.011436
-0.011338
-0.042905
-0.052430
-0.048693
0.035301
0.022355
0.024570
-0.006114
-0.011868
-0.129361
-0.126983
-0.130680
-0.073348
-0.150109
-0.158226
-0.161112
-0.123114
-0.134853
-0.113849
-0.026144
-0.019052
-0.036449
-0.095543
-0.088988
-0.104973
-0.028126
-0.012042
-0.052651
-0.077496
-0.051431
0.018630
-0.013534
0.063509
0.052135
0.036595
0.045923
-0.058696
-0.058317
-0.006741
-0.001209
-0.009736
0.021147
0.002099
-0.002985
-0.131317
0.002600
-0.017207
-0.024651
-0.000910
-0.111036
-0.103040
-0.110017
-0.099607
-0.181226
-0.126429
-0.145531
-0.149668
-0.001448
0.001914
0.011510
-0.128205
-0.126141
-0.111629
-0.124464
-0.059038
0.033057
0.010636
-0.067911
-0.049673
-0.005126
-0.065046
0.051878
0.061914
-0.066221
-0.093310
-0.058740
-0.081369
-0.008169
-0.017877
-0.009797
-0.077641
-0.073714
-0.080913
0.036036
0.118620
0.051843
-0.129227
-0.098769
-0.118710
-0.111412
-0.070104
-0.122375
-0.127881
-0.111134
-0.135452
-0.010290
-0.117448
-0.129207
-0.147203
-0.143095
0.004775
0.013847
0.013934
-0.012378
-0.012807
-0.068268
-0.044103
-0.043317
-0.005089
-0.009918
-0.012405
-0.009298
-0.010699
-0.051159
-0.044832
-0.078377
-0.096737
-0.130180
-0.084526
0.043240
0.053192
0.052378
0.028468
-0.051759
-0.057911
-0.040962
-0.039052
-0.032476
0.008454
0.000093
-0.002395
-0.120102
-0.120604
-0.017081
-0.007565
-0.055929
-0.026630
-0.009881
-0.014568
0.004697
-0.012347
-0.067959
-0.063042
-0.010825
-0.137270
-0.140910
-0.129259
0.001893
0.003038
-0.107534
-0.106229
-0.110672
-0.114089
-0.116697
-0.142162
-0.137738
0.004521
0.003120
-0.009051
-0.116723
-0.123717
-0.145219
0.024377
0.017718
0.024689
0.034880
-0.101860
-0.101275
-0.102615
-0.094568
0.060640
0.056281
0.069007
-0.140951
0.058907
-0.106134
0.004942
0.021838
0.021978
0.021838
0.041976
-0.131490
-0.136379
-0.131001
-0.001255
0.003042
0.014912
0.057825
0.069696
0.018150
-0.050760
-0.035701
0.044741
0.048590
0.064598
-0.007792
-0.055176
-0.046410
-0.088669
0.030679
-0.010074
0.041854
0.048654
0.017366
-0.063805
-0.013476
-0.007108
-0.005994
-0.012342
-0.012933
-0.035570
0.039956
-0.129867
-0.125901
-0.117460
-0.081911
-0.009809
-0.124077
-0.113206
-0.123403
-0.110681
-0.130248
0.030598
-0.041363
-0.060444
-0.047538
-0.044395
-0.008830
-0.051092
-0.061478
-0.048405
-0.058007
-0.062563
0.000178
-0.117216
-0.118719
-0.133274
0.000650
-0.134788
-0.143806
-0.002743
0.036741
0.024408
0.061754
-0.133012
0.062340
0.032037
0.026887
-0.136510
-0.132698
-0.133524
0.007078
0.002088
0.002431
-0.153409
-0.059294
-0.089724
-0.064210
-0.086472
-0.091849
-0.099523
-0.150868
-0.147593
-0.145222
-0.119908
-0.099251
-0.066159
0.022267
-0.058142
-0.118191
0.048369
0.055655
0.031493
-0.088378
-0.085903
-0.014644
-0.017990
-0.027512
-0.021238
-0.022360
0.047749
-0.059911
-0.136730
-0.130294
0.012841
-0.008591
-0.003505
-0.141927
-0.140385
-0.136306
0.014750
0.013701
0.007908
-0.069183
-0.066758
-0.075939
-0.072584
-0.048866
-0.061380
-0.005516
-0.003159
0.019326
0.002668
-0.062232
-0.057565
-0.052202
-0.061342
-0.129173
-0.129080
-0.138664
-0.106278
-0.055881
-0.057361
-0.056709
-0.018852
-0.020603
-0.006206
-0.008172
-0.084428
-0.101325
-0.122909
-0.140896
-0.139576
0.060310
-0.018955
-0.024710
0.028669
0.047994
0.005004
-0.145775
0.076723
-0.072579
-0.080747
-0.079327
-0.071710
-0.114877
-0.130091
-0.117650
-0.108474
-0.047701
-0.013649
-0.055472
-0.136678
-0.021469
-0.029845
-0.003341
-0.050991
-0.065061
-0.120340
-0.067246
0.071149
0.066216
0.076338
-0.049944
-0.068823
-0.013649
-0.124810
-0.003986
-0.003787
0.001583
0.010287
-0.013015
0.008602
0.008219
-0.028993
-0.019954
-0.061568
-0.063975
0.042738
0.051999
0.083019
-0.096409
-0.157087
-0.139085
0.088556
-0.130232
-0.130016
-0.140595
-0.104376
-0.141130
-0.153926
-0.138957
-0.156426
-0.079211
-0.074213
-0.074263
0.033435
-0.066109
-0.003415
-0.010263
-0.054751
-0.070785
-0.060400
-0.091111
-0.085392
-0.096059
-0.034600
-0.057694
-0.128471
-0.154158
-0.145421
-0.115123
-0.122915
-0.120158
0.004253
0.013791
-0.007461
-0.144621
-0.141140
-0.139873
0.006300
-0.007112
-0.017516
-0.006940
-0.055328
-0.135814
-0.131115
-0.001008
-0.002320
-0.006941
-0.028309
-0.012464
-0.062385
-0.067974
-0.147084
0.009221
0.024096
-0.130917
0.034681
0.041180
0.025854
0.026518
-0.139944
-0.171269
-0.120871
-0.061669
-0.077790
-0.069772
-0.001740
0.004369
-0.033570
-0.016334
-0.043638
-0.036984
-0.013394
-0.039132
-0.076017
-0.064639
-0.012744
-0.013225
-0.007264
-0.000671
-0.131966
-0.009828
-0.006408
-0.009176
-0.066191
-0.066381
0.040122
0.062894
0.022068
0.041008
0.035784
0.044458
0.023997
-0.015350
0.005796
-0.006055
0.040159
0.000675
-0.013922
-0.079230
-0.081630
-0.067002
-0.077765
-0.035071
-0.038783
-0.040139
0.037958
-0.021680
-0.056097
-0.036512
-0.053463
0.041684
0.030027
0.019916
-0.068248
-0.053229
0.040752
0.075183
0.023051
-0.003687
0.012214
0.041057
0.002694
0.012870
0.028555
0.049228
0.051270
-0.020136
-0.007933
0.042231
-0.001962
0.090571
0.062989
0.012909
0.071309
0.079260
0.089222
-0.034173
-0.062297
-0.067026
-0.058382
-0.046974
-0.076540
0.025601
0.035507
0.045702
0.020281
0.045035
0.063330
0.077999
0.067392
-0.067169
-0.068829
-0.054003
-0.067799
-0.074686
-0.055050
-0.072401
-0.050227
-0.000403
-0.013251
-0.056090
-0.003045
0.072787
0.062190
0.080484
0.019609
0.002538
-0.012004
-0.000801
-0.014124
-0.135877
-0.136078
-0.019852
-0.041447
-0.005176
-0.019712
-0.144026
-0.137900
-0.135185
-0.148732
-0.073609
-0.082037
-0.080311
-0.072523
-0.054029
-0.047378
-0.014003
-0.005691
-0.070058
-0.060049
-0.058694
-0.051092
0.056882
0.062586
0.064226
0.066907
0.036946
-0.049595
-0.049456
-0.064643
0.081632
0.068622
0.070219
-0.023054
-0.023205
-0.010972
-0.026377
-0.053273
-0.051747
-0.044395
-0.044212
-0.072754
-0.055649
-0.067971
-0.066204
-0.016783
-0.000346
0.078706
-0.010374
-0.054112
-0.063178
-0.071770
0.032871
-0.134683
-0.057805
-0.003094
-0.000117
0.002360
-0.000534
-0.005197
0.001972
-0.064150
-0.087977
-0.016588
-0.022661
-0.000267
-0.136561
-0.025462
-0.010459
-0.021543
0.004859
0.003307
-0.067785
-0.070957
0.000267
-0.011926
0.002301
-0.011378
-0.130414
-0.094852
-0.121353
-0.125662
-0.027957
-0.011044
-0.006485
-0.023932
-0.016090
-0.018788
-0.061447
-0.069242
-0.015542
-0.013694
-0.017980
-0.014797
-0.029748
-0.124053
-0.124220
-0.107833
-0.130079
-0.116265
-0.113989
-0.137187
-0.024005
-0.072283
-0.073155
-0.071280
-0.058346
0.074416
0.033614
0.046785
0.048183
0.002372
0.010488
-0.001008
-0.008782
-0.006085
-0.007161
-0.016814
-0.036821
-0.048776
-0.070741
-0.068295
0.038262
-0.014334
-0.048608
0.009079
-0.070482
-0.066021
-0.083796
-0.068940
-0.006441
-0.145334
-0.139793
0.026186
0.001289
0.027150
0.020805
-0.009521
-0.067259
-0.067351
-0.013798
-0.122108
-0.006841
-0.000187
-0.010482
0.047918
0.040305
0.041967
-0.123216
-0.078305
-0.100929
-0.119389
-0.073906
-0.066440
0.002503
-0.063883
-0.073356
-0.070153
-0.068755
-0.016730
-0.040974
-0.001481
0.033010
0.042028
0.050545
0.035351
0.042981
-0.004946
0.001297
-0.001070
-0.009782
-0.033507
-0.026666
-0.073569
-0.016265
-0.024457
-0.011541
-0.005083
-0.002878
0.002229
-0.015955
-0.060884
-0.008722
-0.004333
-0.132667
0.039085
0.044453
0.047609
-0.068832
-0.068844
-0.142912
-0.138591
-0.107841
-0.111755
-0.146533
-0.149222
-0.148705
-0.145150
0.039079
0.052150
-0.016993
-0.061134
-0.071423
0.005809
-0.024964
-0.012302
0.036975
-0.009918
-0.106576
-0.103588
-0.064861
-0.121209
-0.112527
-0.129674
-0.132644