# vtk DataFile Version 2.0
Test
ASCII
DATASET POLYDATA
POINTS 7607 float
0.000000 0.000000 0.000000
1.000000 0.000000 0.000000
1.000000 0.800000 0.000000
1.000000 1.000000 0.000000
0.000000 1.000000 0.000000
0.000000 0.200000 0.000000
0.300000 0.330000 0.000000
0.700000 0.680000 0.000000
0.012987 0.000000 0.000000
0.025974 0.000000 0.000000
0.038961 0.000000 0.000000
0.051948 0.000000 0.000000
0.064935 0.000000 0.000000
0.077922 0.000000 0.000000
0.090909 0.000000 0.000000
0.103896 0.000000 0.000000
0.116883 0.000000 0.000000
0.129870 0.000000 0.000000
0.142857 0.000000 0.000000
0.155844 0.000000 0.000000
0.168831 0.000000 0.000000
0.181818 0.000000 0.000000
0.194805 0.000000 0.000000
0.207792 0.000000 0.000000
0.220779 0.000000 0.000000
0.233766 0.000000 0.000000
0.246753 0.000000 0.000000
0.259740 0.000000 0.000000
0.272727 0.000000 0.000000
0.285714 0.000000 0.000000
0.298701 0.000000 0.000000
0.311688 0.000000 0.000000
0.324675 0.000000 0.000000
0.337662 0.000000 0.000000
0.350649 0.000000 0.000000
0.363636 0.000000 0.000000
0.376623 0.000000 0.000000
0.389610 0.000000 0.000000
0.402597 0.000000 0.000000
0.415584 0.000000 0.000000
0.428571 0.000000 0.000000
0.441558 0.000000 0.000000
0.454545 0.000000 0.000000
0.467532 0.000000 0.000000
0.480519 0.000000 0.000000
0.493506 0.000000 0.000000
0.506494 0.000000 0.000000
0.519481 0.000000 0.000000
0.532468 0.000000 0.000000
0.545455 0.000000 0.000000
0.558442 0.000000 0.000000
0.571429 0.000000 0.000000
0.584416 0.000000 0.000000
0.597403 0.000000 0.000000
0.610390 0.000000 0.000000
0.623377 0.000000 0.000000
0.636364 0.000000 0.000000
0.649351 0.000000 0.000000
0.662338 0.000000 0.000000
0.675325 0.000000 0.000000
0.688312 0.000000 0.000000
0.701299 0.000000 0.000000
0.714286 0.000000 0.000000
0.727273 0.000000 0.000000
0.740260 0.000000 0.000000
0.753247 0.000000 0.000000
0.766234 0.000000 0.000000
0.779221 0.000000 0.000000
0.792208 0.000000 0.000000
0.805195 0.000000 0.000000
0.818182 0.000000 0.000000
0.831169 0.000000 0.000000
0.844156 0.000000 0.000000
0.857143 0.000000 0.000000
0.870130 0.000000 0.000000
0.883117 0.000000 0.000000
0.896104 0.000000 0.000000
0.909091 0.000000 0.000000
0.922078 0.000000 0.000000
0.935065 0.000000 0.000000
0.948052 0.000000 0.000000
0.961039 0.000000 0.000000
0.974026 0.000000 0.000000
0.987013 0.000000 0.000000
1.000000 0.012903 0.000000
1.000000 0.025806 0.000000
1.000000 0.038710 0.000000
1.000000 0.051613 0.000000
1.000000 0.064516 0.000000
1.000000 0.077419 0.000000
1.000000 0.090323 0.000000
1.000000 0.103226 0.000000
1.000000 0.116129 0.000000
1.000000 0.129032 0.000000
1.000000 0.141935 0.000000
1.000000 0.154839 0.000000
1.000000 0.167742 0.000000
1.000000 0.180645 0.000000
1.000000 0.193548 0.000000
1.000000 0.206452 0.000000
1.000000 0.219355 0.000000
1.000000 0.232258 0.000000
1.000000 0.245161 0.000000
1.000000 0.258065 0.000000
1.000000 0.270968 0.000000
1.000000 0.283871 0.000000
1.000000 0.296774 0.000000
1.000000 0.309677 0.000000
1.000000 0.322581 0.000000
1.000000 0.335484 0.000000
1.000000 0.348387 0.000000
1.000000 0.361290 0.000000
1.000000 0.374194 0.000000
1.000000 0.387097 0.000000
1.000000 0.400000 0.000000
1.000000 0.412903 0.000000
1.000000 0.425806 0.000000
1.000000 0.438710 0.000000
1.000000 0.451613 0.000000
1.000000 0.464516 0.000000
1.000000 0.477419 0.000000
1.000000 0.490323 0.000000
1.000000 0.503226 0.000000
1.000000 0.516129 0.000000
1.000000 0.529032 0.000000
1.000000 0.541935 0.000000
1.000000 0.554839 0.000000
1.000000 0.567742 0.000000
1.000000 0.580645 0.000000
1.000000 0.593548 0.000000
1.000000 0.606452 0.000000
1.000000 0.619355 0.000000
1.000000 0.632258 0.000000
1.000000 0.645161 0.000000
1.000000 0.658065 0.000000
1.000000 0.670968 0.000000
1.000000 0.683871 0.000000
1.000000 0.696774 0.000000
1.000000 0.709677 0.000000
1.000000 0.722581 0.000000
1.000000 0.735484 0.000000
1.000000 0.748387 0.000000
1.000000 0.761290 0.000000
1.000000 0.774194 0.000000
1.000000 0.787097 0.000000
1.000000 0.812500 0.000000
1.000000 0.825000 0.000000
1.000000 0.837500 0.000000
1.000000 0.850000 0.000000
1.000000 0.862500 0.000000
1.000000 0.875000 0.000000
1.000000 0.887500 0.000000
1.000000 0.900000 0.000000
1.000000 0.912500 0.000000
1.000000 0.925000 0.000000
1.000000 0.937500 0.000000
1.000000 0.950000 0.000000
1.000000 0.962500 0.000000
1.000000 0.975000 0.000000
1.000000 0.987500 0.000000
0.987013 1.000000 0.000000
0.974026 1.000000 0.000000
0.961039 1.000000 0.000000
0.948052 1.000000 0.000000
0.935065 1.000000 0.000000
0.922078 1.000000 0.000000
0.909091 1.000000 0.000000
0.896104 1.000000 0.000000
0.883117 1.000000 0.000000
0.870130 1.000000 0.000000
0.857143 1.000000 0.000000
0.844156 1.000000 0.000000
0.831169 1.000000 0.000000
0.818182 1.000000 0.000000
0.805195 1.000000 0.000000
0.792208 1.000000 0.000000
0.779221 1.000000 0.000000
0.766234 1.000000 0.000000
0.753247 1.000000 0.000000
0.740260 1.000000 0.000000
0.727273 1.000000 0.000000
0.714286 1.000000 0.000000
0.701299 1.000000 0.000000
0.688312 1.000000 0.000000
0.675325 1.000000 0.000000
0.662338 1.000000 0.000000
0.649351 1.000000 0.000000
0.636364 1.000000 0.000000
0.623377 1.000000 0.000000
0.610390 1.000000 0.000000
0.597403 1.000000 0.000000
0.584416 1.000000 0.000000
0.571429 1.000000 0.000000
0.558442 1.000000 0.000000
0.545455 1.000000 0.000000
0.532468 1.000000 0.000000
0.519481 1.000000 0.000000
0.506494 1.000000 0.000000
0.493506 1.000000 0.000000
0.480519 1.000000 0.000000
0.467532 1.000000 0.000000
0.454545 1.000000 0.000000
0.441558 1.000000 0.000000
0.428571 1.000000 0.000000
0.415584 1.000000 0.000000
0.402597 1.000000 0.000000
0.389610 1.000000 0.000000
0.376623 1.000000 0.000000
0.363636 1.000000 0.000000
0.350649 1.000000 0.000000
0.337662 1.000000 0.000000
0.324675 1.000000 0.000000
0.311688 1.000000 0.000000
0.298701 1.000000 0.000000
0.285714 1.000000 0.000000
0.272727 1.000000 0.000000
0.259740 1.000000 0.000000
0.246753 1.000000 0.000000
0.233766 1.000000 0.000000
0.220779 1.000000 0.000000
0.207792 1.000000 0.000000
0.194805 1.000000 0.000000
0.181818 1.000000 0.000000
0.168831 1.000000 0.000000
0.155844 1.000000 0.000000
0.142857 1.000000 0.000000
0.129870 1.000000 0.000000
0.116883 1.000000 0.000000
0.103896 1.000000 0.000000
0.090909 1.000000 0.000000
0.077922 1.000000 0.000000
0.064935 1.000000 0.000000
0.051948 1.000000 0.000000
0.038961 1.000000 0.000000
0.025974 1.000000 0.000000
0.012987 1.000000 0.000000
0.000000 0.987097 0.000000
0.000000 0.974194 0.000000
0.000000 0.961290 0.000000
0.000000 0.948387 0.000000
0.000000 0.935484 0.000000
0.000000 0.922581 0.000000
0.000000 0.909677 0.000000
0.000000 0.896774 0.000000
0.000000 0.883871 0.000000
0.000000 0.870968 0.000000
0.000000 0.858065 0.000000
0.000000 0.845161 0.000000
0.000000 0.832258 0.000000
0.000000 0.819355 0.000000
0.000000 0.806452 0.000000
0.000000 0.793548 0.000000
0.000000 0.780645 0.000000
0.000000 0.767742 0.000000
0.000000 0.754839 0.000000
0.000000 0.741935 0.000000
0.000000 0.729032 0.000000
0.000000 0.716129 0.000000
0.000000 0.703226 0.000000
0.000000 0.690323 0.000000
0.000000 0.677419 0.000000
0.000000 0.664516 0.000000
0.000000 0.651613 0.000000
0.000000 0.638710 0.000000
0.000000 0.625806 0.000000
0.000000 0.612903 0.000000
0.000000 0.600000 0.000000
0.000000 0.587097 0.000000
0.000000 0.574194 0.000000
0.000000 0.561290 0.000000
0.000000 0.548387 0.000000
0.000000 0.535484 0.000000
0.000000 0.522581 0.000000
0.000000 0.509677 0.000000
0.000000 0.496774 0.000000
0.000000 0.483871 0.000000
0.000000 0.470968 0.000000
0.000000 0.458065 0.000000
0.000000 0.445161 0.000000
0.000000 0.432258 0.000000
0.000000 0.419355 0.000000
0.000000 0.406452 0.000000
0.000000 0.393548 0.000000
0.000000 0.380645 0.000000
0.000000 0.367742 0.000000
0.000000 0.354839 0.000000
0.000000 0.341935 0.000000
0.000000 0.329032 0.000000
0.000000 0.316129 0.000000
0.000000 0.303226 0.000000
0.000000 0.290323 0.000000
0.000000 0.277419 0.000000
0.000000 0.264516 0.000000
0.000000 0.251613 0.000000
0.000000 0.238710 0.000000
0.000000 0.225806 0.000000
0.000000 0.212903 0.000000
0.000000 0.187500 0.000000
0.000000 0.175000 0.000000
0.000000 0.162500 0.000000
0.000000 0.150000 0.000000
0.000000 0.137500 0.000000
0.000000 0.125000 0.000000
0.000000 0.112500 0.000000
0.000000 0.100000 0.000000
0.000000 0.087500 0.000000
0.000000 0.075000 0.000000
0.000000 0.062500 0.000000
0.000000 0.050000 0.000000
0.000000 0.037500 0.000000
0.000000 0.025000 0.000000
0.000000 0.012500 0.000000
0.309756 0.338537 0.000000
0.319512 0.347073 0.000000
0.329268 0.355610 0.000000
0.339024 0.364146 0.000000
0.348780 0.372683 0.000000
0.358537 0.381220 0.000000
0.368293 0.389756 0.000000
0.378049 0.398293 0.000000
0.387805 0.406829 0.000000
0.397561 0.415366 0.000000
0.407317 0.423902 0.000000
0.417073 0.432439 0.000000
0.426829 0.440976 0.000000
0.436585 0.449512 0.000000
0.446341 0.458049 0.000000
0.456098 0.466585 0.000000
0.465854 0.475122 0.000000
0.475610 0.483659 0.000000
0.485366 0.492195 0.000000
0.495122 0.500732 0.000000
0.504878 0.509268 0.000000
0.514634 0.517805 0.000000
0.524390 0.526341 0.000000
0.534146 0.534878 0.000000
0.543902 0.543415 0.000000
0.553659 0.551951 0.000000
0.563415 0.560488 0.000000
0.573171 0.569024 0.000000
0.582927 0.577561 0.000000
0.592683 0.586098 0.000000
0.602439 0.594634 0.000000
0.612195 0.603171 0.000000
0.621951 0.611707 0.000000
0.631707 0.620244 0.000000
0.641463 0.628780 0.000000
0.651220 0.637317 0.000000
0.660976 0.645854 0.000000
0.670732 0.654390 0.000000
0.680488 0.662927 0.000000
0.690244 0.671463 0.000000
0.011538 0.205000 0.000000
0.023077 0.210000 0.000000
0.034615 0.215000 0.000000
0.046154 0.220000 0.000000
0.057692 0.225000 0.000000
0.069231 0.230000 0.000000
0.080769 0.235000 0.000000
0.092308 0.240000 0.000000
0.103846 0.245000 0.000000
0.115385 0.250000 0.000000
0.126923 0.255000 0.000000
0.138462 0.260000 0.000000
0.150000 0.265000 0.000000
0.161538 0.270000 0.000000
0.173077 0.275000 0.000000
[...]
POINT_DATA 7607
SCALARS UX float 1
LOOKUP_TABLE default
0.006288
0.002064
-0.069511
-0.462331
-0.551086
-0.145636
-0.236655
-0.279028
-0.002166
0.000116
0.001879
0.001386
0.011149
0.000253
-0.000212
0.010451
0.000281
0.000972
-0.000292
0.000085
0.000163
-0.000078
-0.000167
0.000184
-0.000096
0.000249
0.000088
-0.001300
-0.000173
-0.000153
-0.000546
-0.007861
0.000200
-0.000182
-0.000158
-0.000368
0.000307
0.000198
0.002014
0.000049
0.000568
-0.001891
0.000088
0.003575
0.000151
-0.000340
-0.002343
-0.000029
-0.000373
0.000105
0.000037
-0.004027
-0.000250
-0.001113
-0.000127
-0.000700
0.000066
-0.000067
0.000065
-0.001021
-0.001570
0.000468
-0.000310
-0.000575
0.004312
0.000885
-0.007307
0.000285
0.002116
0.000576
-0.001153
-0.000519
-0.005450
0.000159
0.005166
0.003032
-0.006406
0.000059
-0.000858
0.002000
0.000140
0.000265
-0.000199
-0.010088
-0.000848
0.016461
0.004370
0.012105
0.009978
0.009836
0.009075
0.017843
0.035802
0.036280
0.028188
0.035531
0.026742
0.054614
0.026778
0.030852
0.050832
0.051265
0.052431
0.064042
0.055061
0.065872
0.074061
0.052605
0.068848
0.083024
0.066748
0.099031
0.087312
0.088488
0.095637
0.085625
0.105392
0.101282
0.123427
0.091077
0.117617
0.122879
0.107609
0.113696
0.141569
0.118479
0.132793
0.138383
0.120254
0.138190
0.148960
0.125337
0.159573
0.116476
0.124136
0.141669
0.132905
0.132116
0.150623
0.103333
0.124250
0.044792
0.120183
0.145396
0.021194
-0.160540
-0.115346
-0.257519
-0.279958
-0.424084
-0.362699
-0.397332
-0.406195
-0.437563
-0.425297
-0.446356
-0.442235
-0.418180
-0.465240
-0.447264
-0.437318
-0.455695
-0.451660
-0.476977
-0.468053
-0.468548
-0.462865
-0.474501
-0.473770
-0.474117
-0.472356
-0.477183
-0.473250
-0.472158
-0.479791
-0.481839
-0.475167
-0.487795
-0.489213
-0.484731
-0.483497
-0.485790
-0.483261
-0.486833
-0.489818
-0.488439
-0.492210
-0.489561
-0.492738
-0.494822
-0.491864
-0.500686
-0.498373
-0.502036
-0.503580
-0.502312
-0.500344
-0.504094
-0.503934
-0.504114
-0.504068
-0.507038
-0.511968
-0.504651
-0.505112
-0.516105
-0.508062
-0.515287
-0.509021
-0.519462
-0.521653
-0.524488
-0.526702
-0.527023
-0.524857
-0.533713
-0.525581
-0.535889
-0.538355
-0.528686
-0.543967
-0.538618
-0.538739
-0.535502
-0.545883
-0.549608
-0.545130
-0.551204
-0.551060
-0.549699
-0.550187
-0.552354
-0.556283
-0.556571
-0.556441
-0.557606
-0.559684
-0.560766
-0.561798
-0.549362
-0.556522
-0.545606
-0.552839
-0.553604
-0.558170
-0.555267
-0.553413
-0.574586
-0.559939
-0.561718
-0.557028
-0.559571
-0.568325
-0.562906
-0.559600
-0.553086
-0.563769
-0.562843
-0.559474
-0.557412
-0.566461
-0.555822
-0.554729
-0.571053
-0.559555
-0.560262
-0.537019
-0.524701
-0.542441
-0.553942
-0.557506
-0.558235
-0.547606
-0.560582
-0.556483
-0.568378
-0.550779
-0.559010
-0.548505
-0.555003
-0.554235
-0.547765
-0.554065
-0.557237
-0.547553
-0.542460
-0.527038
-0.546615
-0.503671
-0.510305
-0.485914
-0.461269
-0.434480
-0.413470
-0.398539
-0.249122
-0.373583
-0.274410
-0.079565
-0.198815
-0.073645
-0.019850
-0.059925
-0.036192
-0.027175
-0.017676
-0.023428
-0.011971
-0.022737
-0.013830
-0.007698
-0.007344
0.093435
-0.271389
-0.195910
-0.337554
-0.603525
-0.464314
-0.516795
-0.241837
-0.126689
-0.172932
-0.061794
-0.215681
0.094315
-0.108701
-0.078630
-0.090197
0.218108
-0.214016
-0.241702
-0.089008
-0.119064
-0.066411
-0.425505
-0.189616
-0.197079
-0.236232
-0.258387
0.021217
-0.456817
-0.131180
-0.149471
-0.297936
-0.197700
-0.175708
-0.105503
0.045447
-0.263556
-0.263558
-0.284789
-0.394338
-0.214814
-0.399586
-0.076219
-0.325639
-0.175637
-0.317786
-0.473781
-0.229311
-0.490407
-0.076156
-0.411795
-0.189677
-0.346147
-0.400182
-0.081556
-0.571596
-0.381011
-0.041422
-0.074145
-0.522438
-0.143379
-0.267004
-0.439534
-0.209894
-0.082089
-0.135703
0.121272
-0.041083
0.226021
-0.133214
0.235255
-0.028499
-0.171496
-0.033966
-0.162675
-0.028248
-0.137704
-0.153463
-0.016661
-0.225318
-0.060251
-0.096671
-0.162739
0.047635
-0.130163
-0.162933
-0.021306
-0.039571
-0.177407
-0.477596
-0.491172
-0.495815
-0.477997
0.065015
0.062622
0.052868
-0.535317
-0.609221
-0.180423
-0.396173
-0.392615
-0.266347
-0.012813
0.006973
0.011974
-0.406493
-0.542473
-0.543251
-0.566661
0.036289
0.010401
0.025027
0.008885
-0.063155
0.011338
-0.140906
-0.061809
-0.001899
-0.009508
-0.410205
-0.395679
-0.589551
-0.493510
-0.066163
-0.067047
0.014541
0.003005
-0.006958
-0.006358
-0.544125
-0.542027
-0.553256
-0.557440
-0.276578
-0.477745
-0.129632
-0.222654
0.128739
0.092927
0.095597
-0.472471
-0.490629
0.089324
0.040692
0.012936
0.058734
-0.499532
-0.487498
-0.477923
0.089720
-0.450695
-0.480852
-0.437745
-0.406382
-0.420818
-0.033480
-0.057239
-0.020223
-0.465176
-0.544109
-0.544837
-0.019219
0.017369
0.042357
-0.004349
-0.012875
-0.013287
-0.514081
-0.513912
-0.515128
-0.018018
-0.494338
-0.491240
-0.469407
0.027990
0.037300
0.004390
0.025093
0.002824
-0.010037
-0.016691
-0.080487
0.003455
-0.024391
-0.018137
0.075678
0.115588
0.143861
-0.514112
-0.254978
-0.355941
-0.406031
-0.347775
-0.489365
-0.443262
-0.510774
-0.470145
-0.545522
-0.460710
-0.017802
0.011449
0.005152
0.005962
0.062142
0.050568
-0.485503
-0.486859
-0.473734
0.022484
0.026113
0.009807
-0.456095
-0.435807
-0.473382
-0.450107
0.037750
0.069950
0.104273
0.071586
-0.005708
-0.470079
-0.023437
-0.000729
-0.000287
-0.014133
-0.544218
-0.462681
-0.489449
-0.551507
-0.491596
-0.524463
-0.512419
-0.501575
-0.462079
-0.476688
-0.481533
-0.472846
-0.267439
-0.009036
-0.005417
-0.004195
-0.000608
-0.559140
-0.531808
-0.557086
-0.009955
-0.009369
-0.002667
-0.565221
-0.545466
-0.546653
-0.012435
-0.433685
-0.470948
-0.478060
-0.529365
-0.523313
-0.493911
-0.546027
-0.539690
-0.548992
-0.518295
0.111009
0.090085
0.099576
0.101734
0.100904
0.065550
0.090336
0.036825
0.047770
0.038043
-0.507383
-0.498421
-0.482829
-0.497932
-0.494321
-0.491827
-0.005608
-0.017537
-0.010311
-0.005276
0.012466
0.037720
-0.004590
-0.055622
-0.025541
-0.023020
-0.094665
-0.504867
-0.547743
-0.528683
-0.498812
0.050908
0.079334
0.054948
0.039445
0.048502
0.041568
0.059787
0.103334
0.101474
0.096964
-0.022626
0.180232
-0.538156
-0.525929
-0.528639
-0.410467
-0.444169
-0.451337
-0.369856
0.082668
0.114072
0.128888
0.120403
0.056246
0.067345
0.038943
-0.502199
-0.502612
-0.529530
-0.467691
-0.504793
-0.519797
-0.541180
-0.530242
-0.540776
-0.000834
-0.014651
0.006442
-0.474862
-0.527744
-0.508638
-0.006492
0.021365
-0.017508
0.106493
0.079397
0.122297
-0.005386
-0.011218
-0.014441
-0.020057
-0.014942
-0.547261
-0.555138
-0.006302
-0.015997
-0.002728
0.011807
0.008672
-0.000510
-0.018769
-0.003252
0.011602
-0.432968
-0.417263
-0.547928
-0.557233
-0.536882
-0.030107
-0.027381
0.122560
0.102706
0.008994
0.066796
0.028080
0.076688
0.018109
-0.005343
-0.001790
0.008857
-0.529546
-0.525911
-0.551326
-0.514427
-0.553747
-0.498962
-0.553897
-0.475596
0.044187
-0.009929
0.037818
0.030707
-0.556279
-0.529141
-0.513790
-0.520312
0.085375
0.139856
0.096408
0.080563
0.057750
-0.465268
-0.463030
-0.462069
0.048796
-0.441445
-0.460316
-0.477859
0.084436
-0.466765
-0.536502
-0.560959
-0.525685
-0.011994
0.011060
-0.012952
-0.522467
-0.519722
-0.514371
-0.016286
-0.009302
0.001786
0.076781
0.037897
0.005764
0.070143
-0.458564
-0.464677
-0.436277
-0.480680
-0.519842
-0.527992
-0.521234
0.021663
0.032388
0.000647
0.018612
0.015649
0.016641
-0.541207
-0.558185
-0.558784
-0.424369
-0.533291
-0.584594
-0.033515
-0.021464
0.103036
0.047552
-0.014796
0.028976
0.025648
0.029134
-0.504085
-0.556492
-0.508881
-0.550620
-0.563437
-0.516510
-0.019667
0.013868
-0.009319
-0.014907
0.122472
0.088233
0.040659
-0.059468
0.044165
0.061581
0.044332
0.038729
0.041903
0.041819
-0.512154
-0.517850
-0.487418
0.011222
0.005806
0.007951
0.005161
-0.023937
0.002769
-0.009233
-0.557608
-0.476866
-0.491262
-0.509141
-0.525572
-0.546192
-0.579402
-0.442024
-0.448978
-0.421657
-0.037821
-0.029279
-0.012615
-0.448298
-0.451619
-0.454330
-0.420192
-0.434185
0.009458
-0.008565
-0.528770
-0.546299
-0.542312
0.109511
0.088723
-0.485801
-0.527861
-0.022199
-0.001417
-0.013265
0.007810
-0.029023
-0.028879
-0.015006
0.019754
0.027467
0.032637
-0.463683
-0.463899
-0.045358
0.000796
-0.001818
-0.502837
-0.496123
-0.496457
0.025589
-0.524715
-0.535001
-0.511837
0.173906
0.036448
0.022922
-0.555457
-0.551470
0.092063
0.111721
-0.536396
-0.528208
-0.537864
-0.493723
-0.428116
-0.007719
-0.026707
0.000975
0.002348
-0.023443
-0.535442
-0.533294
-0.557647
-0.558700
-0.525354
0.091691
0.111783
-0.542312
-0.538092
-0.535921
0.014806
0.009687
-0.436975
-0.449275
-0.447998
-0.445541
0.004947
0.011512
0.000885
-0.562553
-0.544541
-0.546953
-0.539308
-0.542161
-0.534861
-0.539646
-0.513680
-0.556433
-0.504936
0.003097
-0.004646
-0.003580
-0.003727
-0.017264
-0.010296
-0.005764
-0.558006
-0.557516
-0.557121
-0.438730
-0.410044
-0.394272
-0.415213
-0.529567
-0.517150
-0.524976
-0.553694
-0.555307
-0.566721
0.125196
0.158378
-0.551460
0.026417
-0.011606
-0.542593
-0.107136
-0.394942
0.086699
-0.559505
-0.540058
-0.013698
-0.568692
-0.566697
0.031225
-0.002049
0.002384
-0.045209
-0.034643
-0.004879
-0.001064
-0.012414
0.081024
0.144466
0.099727
0.092166
0.126512
0.128006
-0.520703
-0.523530
-0.520634
-0.518155
0.024237
0.012620
0.025338
-0.036341
-0.006010
-0.426341
-0.438851
0.081461
0.067849
-0.565410
-0.558047
-0.554198
-0.550535
-0.016209
-0.054671
-0.047639
-0.048941
0.011454
0.143535
0.094251
0.115770
0.200556
-0.470284
-0.468528
-0.469277
0.026219
-0.519088
-0.515093
-0.549455
-0.418859
-0.363503
-0.030742
-0.012284
-0.013273
-0.020381
-0.490759
-0.451878
-0.471775
-0.462126
-0.474134
-0.465607
-0.002797
-0.000665
0.058339
0.057005
0.073231
0.022158
-0.424539
-0.441343
-0.475787
-0.480501
-0.442632
-0.567213
-0.418975
0.037344
0.002129
-0.006840
-0.017958
-0.028716
-0.409984
-0.439502
-0.553425
-0.534084
-0.536406
-0.458207
-0.444766
-0.517577
-0.526140
-0.518411
-0.542975
0.155407
0.072056
0.027672
0.045622
0.041755
-0.021653
-0.013801
0.029379
-0.542427
-0.541111
-0.553362
-0.014109
-0.017396
-0.518880
-0.539851
-0.548245
-0.518906
-0.006540
-0.013805
-0.024244
-0.537193
-0.003722
-0.006775
-0.536134
-0.533188
0.039061
0.024480
0.035319
0.067058
0.003081
0.009087
-0.001608
-0.004083
-0.538966
-0.570121
-0.565620
-0.528136
-0.518195
-0.526325
-0.509262
-0.008042
-0.012311
-0.024861
-0.011914
0.027988
0.092595
0.116051
0.008028
0.015742
0.038075
0.002065
-0.253231
-0.455935
-0.457495
-0.472423
-0.478831
-0.471294
-0.558570
-0.555006
-0.555597
-0.491534
-0.502116
-0.521481
-0.497907
0.111552
0.075400
-0.028804
-0.021641
-0.550964
-0.344220
-0.368997
-0.365170
-0.558543
-0.540628
-0.552725
-0.344611
-0.462147
-0.446488
-0.255220
-0.028860
-0.478496
-0.018850
0.143531
-0.008910
0.135231
0.122511
-0.017289
-0.009424
-0.003262
0.015893
-0.437591
-0.442838
-0.010183
-0.513103
-0.545926
-0.012646
-0.001847
-0.472784
-0.539657
-0.005854
-0.037614
-0.035939
-0.020222
-0.453230
-0.448459
-0.424807
-0.022035
0.009547
-0.569078
-0.028203
0.012628
-0.079661
-0.544561
-0.541887
-0.545792
0.030704
0.000952
-0.014850
-0.518162
0.031255
0.038773
-0.030736
-0.572844
-0.542174
-0.559763
-0.412909
-0.041359
-0.002867
-0.005139
-0.481096
-0.507823
-0.477806
-0.463861
-0.447016
-0.488191
-0.001007
-0.006978
0.013403
0.008456
-0.078565
-0.034261
0.008433
-0.190846
-0.152101
-0.440653
-0.461842
-0.489977
-0.446250
-0.216592
-0.463736
-0.463243
-0.451243
-0.033852
-0.011447
-0.555491
-0.537478
-0.549973
-0.440301
-0.460911
-0.385962
-0.436019
-0.016631
-0.010262
-0.473080
-0.454224
-0.450966
0.126233
-0.016199
0.185499
-0.096286
-0.557783
-0.435713
-0.014561
0.005822
-0.006931
-0.546003
0.052734
0.040302
0.054997
0.000159
-0.566047
0.005025
0.011264
0.002158
0.020139
0.006682
-0.421548
-0.473669
-0.476946
-0.459103
-0.004123
-0.007204
0.000914
-0.004923
0.129957
0.129529
0.125103
0.126436
-0.550213
-0.564574
-0.540514
-0.532276
-0.483354
0.026803
0.016290
0.031002
0.005929
0.015624
-0.014527
0.039817
-0.480081
-0.472766
0.066622
0.056201
0.087091
-0.512802
-0.507928
-0.545485
-0.522010
-0.530132
-0.472651
0.102395
0.116162
0.115090
0.079171
-0.224096
-0.484344
-0.490605
-0.523021
0.005106
0.011374
-0.530897
0.032073
0.031456
-0.505153
-0.495288
-0.503060
-0.546064
-0.550445
-0.018332
-0.527334
-0.528729
-0.515221
-0.531711
0.120800
0.113634
0.137891
0.153981
-0.452689
-0.487425
-0.494733
-0.457861
-0.468565
0.017338
0.048141
0.052049
0.080033
0.075708
0.089034
-0.011251
-0.027835
-0.017946
-0.567196
0.035663
-0.550954
-0.553235
-0.539497
-0.541787
-0.535092
-0.524080
-0.476344
-0.545738
0.005566
-0.018137
-0.538363
0.091478
-0.016576
-0.007784
-0.013902
-0.505354
-0.493969
-0.494233
-0.036431
-0.013476
0.010717
0.010246
0.019191
-0.419288
-0.028536
-0.006043
-0.006569
-0.449753
-0.453338
-0.454888
0.084099
0.109465
0.021216
-0.005756
-0.012365
-0.545116
-0.543142
-0.545995
-0.234825
-0.548794
-0.560996
-0.561724
-0.539865
-0.549829
-0.529518
-0.206055
-0.318165
-0.352696
-0.439941
-0.411242
-0.419966
-0.036516
-0.008715
-0.127118
-0.506038
-0.458914
0.024607
-0.016114
0.150933
0.143646
0.129748
0.129436
-0.474911
-0.467930
-0.011272
-0.005028
-0.009183
0.026520
-0.000372
-0.007482
-0.548439
0.005869
-0.013458
-0.022539
-0.002105
-0.530849
-0.518551
-0.500777
-0.471732
-0.565956
-0.543440
-0.560072
-0.564315
-0.002010
0.002527
0.018467
-0.507660
-0.508939
-0.462666
-0.458789
-0.470339
0.115709
-0.000724
-0.482803
-0.446057
-0.172228
-0.483544
0.117359
0.172869
-0.479321
-0.510300
-0.094262
-0.304216
-0.007944
-0.019673
-0.013149
-0.492455
-0.487607
-0.495772
0.076031
0.174817
0.091954
-0.544876
-0.484542
-0.491041
-0.457702
-0.459257
-0.529069
-0.539272
-0.470113
-0.519127
-0.012042
-0.527390
-0.546950
-0.562748
-0.558820
0.007372
0.019548
0.017685
-0.016360
-0.007288
-0.481021
-0.447471
-0.446391
-0.005349
-0.012013
-0.013509
-0.011988
-0.012879
-0.455850
-0.449125
-0.380947
-0.410009
-0.518544
-0.427342
0.118355
0.137500
0.117210
0.068042
-0.460201
-0.466966
-0.070078
-0.048747
-0.036243
0.008508
-0.000718
0.008283
-0.487521
-0.506577
-0.008125
-0.008488
-0.465706
-0.413362
-0.008924
-0.012645
0.005630
-0.013435
-0.484381
-0.473303
-0.009831
-0.552451
-0.555805
-0.492199
0.002699
0.004797
-0.515191
-0.514270
-0.525098
-0.488544
-0.489999
-0.557207
-0.554154
0.005748
0.003852
-0.006510
-0.532558
-0.539502
-0.560019
0.066296
0.033941
0.081811
0.097831
-0.510344
-0.493324
-0.406633
-0.404889
0.085519
0.080325
0.097260
-0.555708
0.082745
-0.523047
0.007601
-0.015747
0.044800
0.035072
0.096352
-0.547278
-0.551719
-0.546667
0.000200
0.005112
0.015994
0.140712
0.135426
0.000629
-0.115827
-0.052250
0.121516
0.133380
0.145584
-0.005685
-0.087557
-0.023568
-0.079024
0.030792
-0.011222
0.074813
0.082023
0.041117
-0.476285
-0.011164
-0.006562
-0.005018
-0.011742
-0.012780
-0.426943
0.065287
-0.521481
-0.514567
-0.526972
-0.393986
-0.011381
-0.506524
-0.507928
-0.506545
-0.462992
-0.517276
0.075582
-0.434510
-0.470445
-0.447652
-0.448037
-0.008676
-0.451617
-0.472924
-0.457836
-0.467377
-0.472661
-0.001021
-0.532599
-0.535779
-0.547426
0.001694
-0.551393
-0.557251
-0.004377
0.065195
0.064016
0.083759
-0.527877
0.155308
0.096438
0.047355
-0.552380
-0.547878
-0.549418
0.011345
0.002932
0.003012
-0.550396
-0.466413
-0.450564
-0.479747
-0.502378
-0.510193
-0.519965
-0.564789
-0.548571
-0.542026
-0.510567
-0.439779
-0.485999
0.063734
-0.463935
-0.479367
0.074940
0.084611
0.058462
-0.506408
-0.502253
-0.012425
-0.020152
-0.037097
-0.022426
-0.029059
0.076086
-0.467852
-0.553320
-0.545856
0.018635
-0.010683
-0.000794
-0.556870
-0.555267
-0.551636
0.018430
0.019482
0.014352
-0.483199
-0.477180
-0.490790
-0.485898
-0.452466
-0.470135
-0.006065
-0.000019
0.026932
0.004085
-0.470220
-0.464857
-0.457872
-0.471836
-0.512872
-0.514512
-0.527661
-0.447998
-0.455717
-0.466602
-0.464941
-0.024137
-0.026332
-0.008468
-0.007120
-0.490347
-0.516735
-0.538638
-0.544066
-0.541946
0.137437
-0.000591
-0.028889
0.086493
0.120843
-0.007701
-0.515944
0.221461
-0.485252
-0.496192
-0.495999
-0.484953
-0.528157
-0.545540
-0.529031
-0.522682
-0.059228
-0.007290
-0.082862
-0.552449
-0.013570
-0.047679
-0.004517
-0.047533
-0.475428
-0.542509
-0.478182
0.131286
0.127313
0.137090
-0.453530
-0.486892
-0.011496
-0.540196
-0.007097
-0.004467
-0.000390
0.012377
-0.021201
0.008581
-0.008544
-0.029948
-0.025032
-0.468219
-0.475378
0.068684
0.082348
0.122820
-0.479062
-0.576261
-0.536902
0.128442
-0.533007
-0.531826
-0.537330
-0.387202
-0.488805
-0.492460
-0.543108
-0.431992
-0.493728
-0.488119
-0.488253
0.104741
-0.282237
-0.003188
-0.007369
-0.460993
-0.483873
-0.470093
-0.510040
-0.501377
-0.509840
-0.404602
-0.484792
-0.524437
-0.551441
-0.548959
-0.504299
-0.517006
-0.504727
0.000883
0.018065
-0.009534
-0.556857
-0.552941
-0.549987
-0.238204
-0.189559
-0.016455
-0.009299
-0.462605
-0.530979
-0.529970
-0.001283
-0.002604
-0.008676
-0.031907
-0.005487
-0.469665
-0.477035
-0.547756
0.010850
0.031692
-0.516654
0.046081
0.055207
0.034619
0.036352
-0.539823
-0.579895
-0.513229
-0.466227
-0.495440
-0.496324
-0.001507
0.004233
-0.393258
-0.308392
-0.469301
-0.407721
-0.241501
-0.382969
-0.487551
-0.480180
-0.011851
-0.014747
-0.010491
-0.002358
-0.527151
-0.006769
-0.003117
-0.007791
-0.479129
-0.478035
0.067181
0.137877
0.055125
0.082664
0.086129
0.103595
0.049928
-0.015259
0.008008
-0.006275
0.052799
-0.001794
-0.015387
-0.495025
-0.495955
-0.479017
-0.492032
-0.057358
-0.048598
-0.070413
0.078159
-0.043018
-0.115179
-0.047090
-0.124053
0.054763
0.036648
0.026244
-0.495822
-0.454676
0.087151
0.096284
0.022007
0.030541
0.055515
0.051167
0.058535
0.038430
0.037760
0.092226
0.088695
-0.018715
-0.008871
0.096021
0.022726
0.152769
0.111784
0.039288
0.127525
0.137623
0.160935
-0.047719
-0.468616
-0.481671
-0.462430
-0.442173
-0.491457
0.036127
0.060731
0.075091
0.039341
0.072546
0.107901
0.134069
0.119049
-0.482483
-0.487355
-0.459485
-0.484413
-0.487090
-0.457825
-0.479902
-0.461740
-0.001170
-0.010193
-0.460860
-0.001879
0.119328
0.115093
0.137607
-0.072113
-0.059863
-0.242562
0.004735
-0.013536
-0.550229
-0.549417
-0.019220
-0.043072
0.002525
-0.015765
-0.556163
-0.551935
-0.548830
-0.560156
-0.486841
-0.496548
-0.496973
-0.485419
-0.467977
-0.453602
-0.015917
-0.003839
-0.481282
-0.468321
-0.466884
-0.463370
0.101836
0.110670
0.120888
0.120440
0.051221
-0.456840
-0.456857
-0.469779
0.144053
0.125547
0.131181
-0.028575
-0.032094
-0.007045
0.008077
-0.145309
-0.129079
-0.006417
0.000845
-0.204569
-0.248325
-0.479241
-0.477213
-0.014713
0.002629
0.140486
0.004074
-0.462088
-0.470592
-0.485956
0.041899
-0.550033
-0.463140
-0.004413
0.000394
0.002534
-0.001006
-0.002857
0.002254
-0.472415
-0.514220
-0.016986
-0.029839
0.002566
-0.550884
-0.018254
-0.011544
-0.020310
0.007226
0.002175
-0.478247
-0.483599
0.001415
-0.013112
0.002141
-0.013545
-0.546504
-0.506394
-0.536018
-0.536130
-0.032039
-0.009792
-0.008430
-0.033087
-0.003749
-0.020312
-0.471941
-0.484888
-0.017128
-0.014167
-0.017366
-0.002255
-0.029698
-0.531684
-0.533356
-0.517021
-0.533103
-0.515462
-0.507784
-0.538207
-0.029010
-0.484553
-0.487409
-0.484040
-0.471251
0.116518
0.060183
0.087350
0.092000
0.002649
0.011613
-0.002783
-0.008569
-0.006339
-0.003505
-0.015807
-0.427379
-0.273596
-0.284085
-0.123840
0.054764
-0.010818
-0.059282
0.011922
-0.482316
-0.476855
-0.501390
-0.481538
-0.008593
-0.546652
-0.540784
0.059288
0.019708
0.058835
0.057826
-0.011445
-0.479814
-0.480018
-0.014238
-0.261031
-0.007878
-0.000285
-0.012762
0.064756
0.052229
0.055571
-0.504327
-0.448761
-0.591256
-0.584272
-0.491448
-0.477972
0.005802
-0.478130
-0.485384
-0.483460
-0.479909
-0.008823
-0.061718
-0.000652
0.050749
0.059255
0.067685
0.055123
0.064052
-0.005985
0.000654
-0.001578
-0.010986
-0.030862
-0.042604
-0.483759
-0.015048
-0.030557
-0.011657
-0.005189
-0.002649
0.002271
-0.008374
-0.468460
-0.007457
-0.002489
-0.528501
0.068653
0.071935
0.077053
-0.479524
-0.480463
-0.557121
-0.554368
-0.524473
-0.528469
-0.542344
-0.553101
-0.551677
-0.546126
0.079350
0.099007
-0.016350
-0.471568
-0.485640
-0.104732
-0.035272
-0.014228
0.061902
-0.430886
-0.520666
-0.518652
-0.478328
-0.505430
-0.497479
-0.517474