# vtk DataFile Version 2.0
Test
ASCII
DATASET POLYDATA
POINTS 7607 float
0.000000 0.000000 0.000000
1.000000 0.000000 0.000000
1.000000 0.800000 0.000000
1.000000 1.000000 0.000000
0.000000 1.000000 0.000000
0.000000 0.200000 0.000000
0.300000 0.330000 0.000000
0.700000 0.680000 0.000000
0.012987 0.000000 0.000000
0.025974 0.000000 0.000000
0.038961 0.000000 0.000000
0.051948 0.000000 0.000000
0.064935 0.000000 0.000000
0.077922 0.000000 0.000000
0.090909 0.000000 0.000000
0.103896 0.000000 0.000000
0.116883 0.000000 0.000000
0.129870 0.000000 0.000000
0.142857 0.000000 0.000000
0.155844 0.000000 0.000000
0.168831 0.000000 0.000000
0.181818 0.000000 0.000000
0.194805 0.000000 0.000000
0.207792 0.000000 0.000000
0.220779 0.000000 0.000000
0.233766 0.000000 0.000000
0.246753 0.000000 0.000000
0.259740 0.000000 0.000000
0.272727 0.000000 0.000000
0.285714 0.000000 0.000000
0.298701 0.000000 0.000000
0.311688 0.000000 0.000000
0.324675 0.000000 0.000000
0.337662 0.000000 0.000000
0.350649 0.000000 0.000000
0.363636 0.000000 0.000000
0.376623 0.000000 0.000000
0.389610 0.000000 0.000000
0.402597 0.000000 0.000000
0.415584 0.000000 0.000000
0.428571 0.000000 0.000000
0.441558 0.000000 0.000000
0.454545 0.000000 0.000000
0.467532 0.000000 0.000000
0.480519 0.000000 0.000000
0.493506 0.000000 0.000000
0.506494 0.000000 0.000000
0.519481 0.000000 0.000000
0.532468 0.000000 0.000000
0.545455 0.000000 0.000000
0.558442 0.000000 0.000000
0.571429 0.000000 0.000000
0.584416 0.000000 0.000000
0.597403 0.000000 0.000000
0.610390 0.000000 0.000000
0.623377 0.000000 0.000000
0.636364 0.000000 0.000000
0.649351 0.000000 0.000000
0.662338 0.000000 0.000000
0.675325 0.000000 0.000000
0.688312 0.000000 0.000000
0.701299 0.000000 0.000000
0.714286 0.000000 0.000000
0.727273 0.000000 0.000000
0.740260 0.000000 0.000000
0.753247 0.000000 0.000000
0.766234 0.000000 0.000000
0.779221 0.000000 0.000000
0.792208 0.000000 0.000000
0.805195 0.000000 0.000000
0.818182 0.000000 0.000000
0.831169 0.000000 0.000000
0.844156 0.000000 0.000000
0.857143 0.000000 0.000000
0.870130 0.000000 0.000000
0.883117 0.000000 0.000000
0.896104 0.000000 0.000000
0.909091 0.000000 0.000000
0.922078 0.000000 0.000000
0.935065 0.000000 0.000000
0.948052 0.000000 0.000000
0.961039 0.000000 0.000000
0.974026 0.000000 0.000000
0.987013 0.000000 0.000000
1.000000 0.012903 0.000000
1.000000 0.025806 0.000000
1.000000 0.038710 0.000000
1.000000 0.051613 0.000000
1.000000 0.064516 0.000000
1.000000 0.077419 0.000000
1.000000 0.090323 0.000000
1.000000 0.103226 0.000000
1.000000 0.116129 0.000000
1.000000 0.129032 0.000000
1.000000 0.141935 0.000000
1.000000 0.154839 0.000000
1.000000 0.167742 0.000000
1.000000 0.180645 0.000000
1.000000 0.193548 0.000000
1.000000 0.206452 0.000000
1.000000 0.219355 0.000000
1.000000 0.232258 0.000000
1.000000 0.245161 0.000000
1.000000 0.258065 0.000000
1.000000 0.270968 0.000000
1.000000 0.283871 0.000000
1.000000 0.296774 0.000000
1.000000 0.309677 0.000000
1.000000 0.322581 0.000000
1.000000 0.335484 0.000000
1.000000 0.348387 0.000000
1.000000 0.361290 0.000000
1.000000 0.374194 0.000000
1.000000 0.387097 0.000000
1.000000 0.400000 0.000000
1.000000 0.412903 0.000000
1.000000 0.425806 0.000000
1.000000 0.438710 0.000000
1.000000 0.451613 0.000000
1.000000 0.464516 0.000000
1.000000 0.477419 0.000000
1.000000 0.490323 0.000000
1.000000 0.503226 0.000000
1.000000 0.516129 0.000000
1.000000 0.529032 0.000000
1.000000 0.541935 0.000000
1.000000 0.554839 0.000000
1.000000 0.567742 0.000000
1.000000 0.580645 0.000000
1.000000 0.593548 0.000000
1.000000 0.606452 0.000000
1.000000 0.619355 0.000000
1.000000 0.632258 0.000000
1.000000 0.645161 0.000000
1.000000 0.658065 0.000000
1.000000 0.670968 0.000000
1.000000 0.683871 0.000000
1.000000 0.696774 0.000000
1.000000 0.709677 0.000000
1.000000 0.722581 0.000000
1.000000 0.735484 0.000000
1.000000 0.748387 0.000000
1.000000 0.761290 0.000000
1.000000 0.774194 0.000000
1.000000 0.787097 0.000000
1.000000 0.812500 0.000000
1.000000 0.825000 0.000000
1.000000 0.837500 0.000000
1.000000 0.850000 0.000000
1.000000 0.862500 0.000000
1.000000 0.875000 0.000000
1.000000 0.887500 0.000000
1.000000 0.900000 0.000000
1.000000 0.912500 0.000000
1.000000 0.925000 0.000000
1.000000 0.937500 0.000000
1.000000 0.950000 0.000000
1.000000 0.962500 0.000000
1.000000 0.975000 0.000000
1.000000 0.987500 0.000000
0.987013 1.000000 0.000000
0.974026 1.000000 0.000000
0.961039 1.000000 0.000000
0.948052 1.000000 0.000000
0.935065 1.000000 0.000000
0.922078 1.000000 0.000000
0.909091 1.000000 0.000000
0.896104 1.000000 0.000000
0.883117 1.000000 0.000000
0.870130 1.000000 0.000000
0.857143 1.000000 0.000000
0.844156 1.000000 0.000000
0.831169 1.000000 0.000000
0.818182 1.000000 0.000000
0.805195 1.000000 0.000000
0.792208 1.000000 0.000000
0.779221 1.000000 0.000000
0.766234 1.000000 0.000000
0.753247 1.000000 0.000000
0.740260 1.000000 0.000000
0.727273 1.000000 0.000000
0.714286 1.000000 0.000000
0.701299 1.000000 0.000000
0.688312 1.000000 0.000000
0.675325 1.000000 0.000000
0.662338 1.000000 0.000000
0.649351 1.000000 0.000000
0.636364 1.000000 0.000000
0.623377 1.000000 0.000000
0.610390 1.000000 0.000000
0.597403 1.000000 0.000000
0.584416 1.000000 0.000000
0.571429 1.000000 0.000000
0.558442 1.000000 0.000000
0.545455 1.000000 0.000000
0.532468 1.000000 0.000000
0.519481 1.000000 0.000000
0.506494 1.000000 0.000000
0.493506 1.000000 0.000000
0.480519 1.000000 0.000000
0.467532 1.000000 0.000000
0.454545 1.000000 0.000000
0.441558 1.000000 0.000000
0.428571 1.000000 0.000000
0.415584 1.000000 0.000000
0.402597 1.000000 0.000000
0.389610 1.000000 0.000000
0.376623 1.000000 0.000000
0.363636 1.000000 0.000000
0.350649 1.000000 0.000000
0.337662 1.000000 0.000000
0.324675 1.000000 0.000000
0.311688 1.000000 0.000000
0.298701 1.000000 0.000000
0.285714 1.000000 0.000000
0.272727 1.000000 0.000000
0.259740 1.000000 0.000000
0.246753 1.000000 0.000000
0.233766 1.000000 0.000000
0.220779 1.000000 0.000000
0.207792 1.000000 0.000000
0.194805 1.000000 0.000000
0.181818 1.000000 0.000000
0.168831 1.000000 0.000000
0.155844 1.000000 0.000000
0.142857 1.000000 0.000000
0.129870 1.000000 0.000000
0.116883 1.000000 0.000000
0.103896 1.000000 0.000000
0.090909 1.000000 0.000000
0.077922 1.000000 0.000000
0.064935 1.000000 0.000000
0.051948 1.000000 0.000000
0.038961 1.000000 0.000000
0.025974 1.000000 0.000000
0.012987 1.000000 0.000000
0.000000 0.987097 0.000000
0.000000 0.974194 0.000000
0.000000 0.961290 0.000000
0.000000 0.948387 0.000000
0.000000 0.935484 0.000000
0.000000 0.922581 0.000000
0.000000 0.909677 0.000000
0.000000 0.896774 0.000000
0.000000 0.883871 0.000000
0.000000 0.870968 0.000000
0.000000 0.858065 0.000000
0.000000 0.845161 0.000000
0.000000 0.832258 0.000000
0.000000 0.819355 0.000000
0.000000 0.806452 0.000000
0.000000 0.793548 0.000000
0.000000 0.780645 0.000000
0.000000 0.767742 0.000000
0.000000 0.754839 0.000000
0.000000 0.741935 0.000000
0.000000 0.729032 0.000000
0.000000 0.716129 0.000000
0.000000 0.703226 0.000000
0.000000 0.690323 0.000000
0.000000 0.677419 0.000000
0.000000 0.664516 0.000000
0.000000 0.651613 0.000000
0.000000 0.638710 0.000000
0.000000 0.625806 0.000000
0.000000 0.612903 0.000000
0.000000 0.600000 0.000000
0.000000 0.587097 0.000000
0.000000 0.574194 0.000000
0.000000 0.561290 0.000000
0.000000 0.548387 0.000000
0.000000 0.535484 0.000000
0.000000 0.522581 0.000000
0.000000 0.509677 0.000000
0.000000 0.496774 0.000000
0.000000 0.483871 0.000000
0.000000 0.470968 0.000000
0.000000 0.458065 0.000000
0.000000 0.445161 0.000000
0.000000 0.432258 0.000000
0.000000 0.419355 0.000000
0.000000 0.406452 0.000000
0.000000 0.393548 0.000000
0.000000 0.380645 0.000000
0.000000 0.367742 0.000000
0.000000 0.354839 0.000000
0.000000 0.341935 0.000000
0.000000 0.329032 0.000000
0.000000 0.316129 0.000000
0.000000 0.303226 0.000000
0.000000 0.290323 0.000000
0.000000 0.277419 0.000000
0.000000 0.264516 0.000000
0.000000 0.251613 0.000000
0.000000 0.238710 0.000000
0.000000 0.225806 0.000000
0.000000 0.212903 0.000000
0.000000 0.187500 0.000000
0.000000 0.175000 0.000000
0.000000 0.162500 0.000000
0.000000 0.150000 0.000000
0.000000 0.137500 0.000000
0.000000 0.125000 0.000000
0.000000 0.112500 0.000000
0.000000 0.100000 0.000000
0.000000 0.087500 0.000000
0.000000 0.075000 0.000000
0.000000 0.062500 0.000000
0.000000 0.050000 0.000000
0.000000 0.037500 0.000000
0.000000 0.025000 0.000000
0.000000 0.012500 0.000000
0.309756 0.338537 0.000000
0.319512 0.347073 0.000000
0.329268 0.355610 0.000000
0.339024 0.364146 0.000000
0.348780 0.372683 0.000000
0.358537 0.381220 0.000000
0.368293 0.389756 0.000000
0.378049 0.398293 0.000000
0.387805 0.406829 0.000000
0.397561 0.415366 0.000000
0.407317 0.423902 0.000000
0.417073 0.432439 0.000000
0.426829 0.440976 0.000000
0.436585 0.449512 0.000000
0.446341 0.458049 0.000000
0.456098 0.466585 0.000000
0.465854 0.475122 0.000000
0.475610 0.483659 0.000000
0.485366 0.492195 0.000000
0.495122 0.500732 0.000000
0.504878 0.509268 0.000000
0.514634 0.517805 0.000000
0.524390 0.526341 0.000000
0.534146 0.534878 0.000000
0.543902 0.543415 0.000000
0.553659 0.551951 0.000000
0.563415 0.560488 0.000000
0.573171 0.569024 0.000000
0.582927 0.577561 0.000000
0.592683 0.586098 0.000000
0.602439 0.594634 0.000000
0.612195 0.603171 0.000000
0.621951 0.611707 0.000000
0.631707 0.620244 0.000000
0.641463 0.628780 0.000000
0.651220 0.637317 0.000000
0.660976 0.645854 0.000000
0.670732 0.654390 0.000000
0.680488 0.662927 0.000000
0.690244 0.671463 0.000000
0.011538 0.205000 0.000000
0.023077 0.210000 0.000000
0.034615 0.215000 0.000000
0.046154 0.220000 0.000000
0.057692 0.225000 0.000000
0.069231 0.230000 0.000000
0.080769 0.235000 0.000000
0.092308 0.240000 0.000000
0.103846 0.245000 0.000000
0.115385 0.250000 0.000000
0.126923 0.255000 0.000000
0.138462 0.260000 0.000000
0.150000 0.265000 0.000000
0.161538 0.270000 0.000000
0.173077 0.275000 0.000000
[...]
POINT_DATA 7607
SCALARS UX float 1
LOOKUP_TABLE default
0.001812
0.001305
0.021718
0.001706
-0.036888
-0.025020
-0.035845
0.013463
-0.000131
-0.000070
-0.000699
0.000450
0.004367
-0.000207
-0.000060
0.004388
0.000122
0.000150
-0.000066
0.000050
-0.000007
-0.000002
-0.000032
0.000055
-0.000041
0.000170
0.000028
-0.000296
-0.000006
-0.000034
-0.000156
-0.003107
0.000062
-0.000045
0.000004
-0.000151
0.000106
0.000102
0.001035
0.000039
0.000696
-0.000591
-0.000047
0.002142
0.000061
0.000328
-0.001505
-0.000016
-0.000061
0.000015
0.000034
-0.001597
-0.000065
-0.000591
-0.000014
0.000083
-0.000054
-0.000021
-0.000004
-0.000124
-0.000188
0.000055
-0.000057
0.000143
0.003013
0.000043
-0.003778
0.000121
0.001144
-0.000094
-0.000242
-0.000281
-0.003176
-0.000724
0.002722
0.001265
-0.002889
-0.000117
-0.000304
0.000646
0.000157
-0.000016
-0.000045
-0.005814
-0.001148
0.007482
0.003141
0.004756
0.003657
0.003967
0.004057
0.007580
0.015232
0.016776
0.013923
0.018328
0.011529
0.025722
0.013641
0.014376
0.023742
0.024175
0.024144
0.029673
0.025708
0.030135
0.033940
0.024375
0.032334
0.037754
0.031301
0.043509
0.039132
0.039712
0.041253
0.037390
0.046227
0.042289
0.049554
0.039752
0.046069
0.049026
0.044358
0.044636
0.052602
0.044933
0.049274
0.050500
0.042209
0.049659
0.050265
0.041870
0.050006
0.037612
0.040986
0.038034
0.043033
0.036837
0.040928
0.035027
0.033273
0.035841
0.033387
0.031967
0.031474
0.023406
0.026002
0.013268
0.014846
0.000939
0.015705
0.010535
0.009942
0.013049
0.009019
0.005176
0.006182
0.013834
0.001841
0.006047
0.009701
0.004689
0.004441
-0.000983
0.001413
-0.000073
0.000943
-0.002984
-0.001988
-0.003052
-0.002387
-0.004602
-0.002700
-0.002556
-0.005389
-0.007164
-0.003035
-0.009612
-0.010030
-0.007917
-0.007291
-0.008778
-0.006344
-0.008623
-0.009604
-0.009898
-0.009786
-0.009459
-0.010960
-0.010816
-0.010686
-0.013148
-0.011588
-0.014666
-0.012699
-0.013869
-0.012019
-0.013158
-0.014375
-0.013338
-0.012808
-0.015307
-0.016461
-0.014275
-0.013894
-0.018193
-0.015682
-0.018455
-0.015335
-0.020710
-0.020867
-0.022663
-0.023374
-0.023668
-0.022571
-0.026919
-0.023631
-0.027598
-0.030372
-0.023657
-0.032998
-0.029587
-0.030056
-0.028838
-0.033352
-0.036601
-0.033006
-0.036997
-0.038345
-0.035817
-0.037763
-0.038207
-0.041716
-0.040862
-0.041101
-0.041211
-0.044195
-0.043608
-0.043483
-0.037267
-0.040184
-0.034360
-0.039226
-0.039234
-0.043741
-0.041383
-0.040398
-0.054411
-0.045359
-0.047080
-0.044307
-0.046876
-0.052682
-0.050181
-0.048341
-0.045106
-0.051451
-0.052239
-0.051224
-0.049661
-0.056706
-0.051068
-0.050799
-0.059898
-0.055712
-0.056431
-0.045285
-0.042436
-0.049105
-0.056271
-0.056208
-0.059631
-0.054966
-0.060732
-0.059134
-0.066272
-0.057330
-0.061697
-0.057660
-0.060306
-0.060419
-0.059006
-0.060558
-0.066033
-0.055678
-0.061037
-0.055350
-0.056574
-0.053612
-0.056056
-0.048869
-0.047876
-0.041895
-0.047734
-0.038439
-0.036505
-0.038627
-0.034593
-0.021738
-0.024274
-0.022956
-0.003501
-0.019007
-0.013135
-0.011510
-0.010129
-0.009978
-0.006280
-0.009299
-0.007924
-0.005167
-0.002800
-0.020483
-0.021145
-0.038235
-0.076947
-0.066071
-0.054565
-0.057884
-0.033147
-0.039228
-0.054045
-0.053406
-0.027600
0.038959
0.007232
-0.022296
0.000396
0.029918
-0.024011
-0.023907
-0.026331
0.006257
-0.030853
-0.052158
-0.009544
0.000288
-0.014063
-0.003020
-0.002554
0.028888
0.038588
0.061510
0.013596
0.019690
0.058177
0.041443
0.056149
-0.008454
0.008325
-0.026067
-0.014104
-0.026511
-0.039709
-0.022607
-0.036229
-0.035756
-0.045794
-0.042242
-0.027389
-0.041065
-0.018719
-0.038466
-0.025670
-0.041034
-0.032079
-0.028953
-0.057642
-0.031176
-0.031536
-0.037379
-0.049341
-0.036626
-0.038635
-0.047165
-0.036658
-0.036625
0.015903
0.027678
0.026666
0.038504
0.029537
0.023488
0.027902
0.008798
0.032273
0.017318
0.027214
0.014320
0.021575
0.029226
0.016618
0.017937
0.020725
0.027566
0.020964
0.025590
0.022888
0.027772
0.032548
0.011424
-0.002112
-0.007150
-0.008613
-0.006828
0.032105
0.023280
0.021849
-0.043776
-0.050928
-0.039249
-0.042866
-0.040612
-0.034950
-0.005110
0.003449
0.006641
-0.046354
-0.031528
-0.033514
-0.047060
0.017455
0.003856
0.012690
0.005284
-0.022827
-0.012561
-0.027833
-0.016936
0.001296
-0.003387
-0.032094
-0.035207
-0.069470
-0.054271
-0.026157
-0.018026
0.006443
0.001713
-0.002635
-0.002234
-0.033082
-0.032698
-0.038778
-0.041111
0.010058
0.012884
0.015685
0.016929
0.038228
0.032364
0.041064
0.000217
-0.005234
0.035105
0.019157
0.006968
0.025567
-0.013181
-0.009309
-0.005383
-0.022368
-0.040977
-0.005174
0.004498
0.011157
0.005030
-0.013290
-0.019346
-0.012736
-0.006717
-0.033520
-0.035245
-0.008901
0.005505
0.026691
-0.001902
-0.005608
-0.006382
-0.018617
-0.016892
-0.019333
-0.011702
-0.011334
-0.011392
-0.002771
0.013830
0.017098
0.002042
0.011784
0.002651
-0.004803
-0.008949
-0.019809
-0.008754
-0.007157
-0.009866
0.023782
0.038433
0.039927
-0.054462
-0.042188
-0.033906
0.003135
0.005207
-0.002588
0.007086
-0.016281
0.000842
-0.033874
-0.002006
-0.009238
0.006274
0.002420
0.003141
0.028135
0.022492
-0.010998
-0.005248
-0.004284
0.008664
0.011796
0.008629
0.007042
0.005133
-0.002286
0.004590
0.016648
0.024656
0.037064
0.026218
-0.003951
0.003759
-0.010711
0.002491
-0.000080
-0.004346
-0.054477
-0.045708
-0.046746
-0.061367
-0.007772
-0.023575
-0.017116
-0.012818
0.002181
-0.005320
-0.005065
-0.003271
0.024264
-0.004487
-0.002718
-0.001924
0.000676
-0.060880
-0.048241
-0.060642
-0.005428
-0.004204
-0.000475
-0.048422
-0.035643
-0.036377
-0.006733
0.002685
0.000394
-0.004237
-0.051012
-0.048996
-0.039388
-0.035144
-0.030430
-0.037043
-0.046706
0.045239
0.037997
0.039234
0.041363
0.039850
0.031822
0.036813
0.017768
0.022956
0.018502
-0.016430
-0.010953
-0.004997
-0.012836
-0.010760
-0.009595
-0.003498
-0.008380
-0.004778
-0.002285
0.005485
0.016901
0.001211
-0.016596
-0.006888
-0.014244
-0.021068
-0.035781
-0.039394
-0.040108
-0.028595
0.025711
0.034223
0.019744
0.019020
0.020115
0.018104
0.028216
0.042724
0.040623
0.035409
0.010913
0.056377
-0.053389
-0.047727
-0.050405
0.009636
0.003494
0.005984
0.009829
0.033385
0.038951
0.040284
0.046146
0.030189
0.032154
0.018051
-0.013305
-0.012124
-0.051366
-0.042054
-0.033140
-0.020551
-0.032439
-0.025174
-0.031766
0.000085
-0.008964
0.005016
-0.036887
-0.023349
-0.015598
-0.001887
0.012293
-0.008596
0.034906
0.030687
0.043401
-0.002780
-0.006190
-0.007362
-0.008495
-0.010463
-0.036486
-0.041643
-0.003324
-0.008389
-0.000744
0.006378
0.003111
-0.000113
-0.008147
-0.000530
0.006332
0.008919
0.007874
-0.036108
-0.042302
-0.029937
-0.011680
-0.010838
0.041138
0.038741
0.005454
0.035657
0.018690
0.040987
0.010078
-0.004153
-0.000796
0.007257
-0.047174
-0.055160
-0.063313
-0.048032
-0.059981
-0.045391
-0.065145
-0.037925
0.024790
0.005510
0.020180
0.028545
-0.060507
-0.056248
-0.050759
-0.045833
0.022765
0.045435
0.044361
0.035618
0.027102
-0.000341
0.003332
0.002887
0.022829
0.006895
0.003513
-0.004398
0.042705
-0.000164
-0.049059
-0.060956
-0.043104
-0.007066
0.005684
-0.006294
-0.026324
-0.031838
-0.022119
-0.007123
-0.006988
0.003753
0.043322
0.018086
0.000841
0.020014
0.002610
0.000632
0.011305
-0.003752
-0.045605
-0.055530
-0.029368
0.010603
0.013916
0.002071
0.010696
0.009026
0.008508
-0.032520
-0.042641
-0.041765
-0.009708
0.002955
-0.032580
-0.009884
-0.020578
0.036484
0.017588
-0.005504
0.013636
0.012548
0.014837
-0.042668
-0.061408
-0.046222
-0.060708
-0.065768
-0.046659
-0.012666
0.010186
-0.004294
-0.008383
0.048027
0.024783
0.030685
0.012617
0.019574
0.027003
0.019615
0.017877
0.020023
0.019876
-0.021449
-0.021335
-0.003139
0.006579
0.002955
0.004858
0.002399
-0.012688
0.002222
-0.005602
-0.062220
-0.039735
-0.007049
-0.015720
-0.046940
-0.057175
-0.071416
0.008162
0.003038
0.005840
-0.014402
-0.012940
-0.006606
0.003653
0.004039
0.001670
0.010577
0.010935
0.004329
-0.003057
-0.026449
-0.035203
-0.033593
0.045955
0.028976
-0.001023
-0.021206
-0.012954
0.004060
-0.008751
0.005915
-0.010113
-0.009443
-0.009936
0.011415
0.014922
0.016565
0.001181
-0.000917
-0.019187
-0.001493
-0.002151
-0.014372
-0.010870
-0.011247
0.013734
-0.051065
-0.028448
-0.049182
0.060318
0.017028
0.009739
-0.041168
-0.038870
0.035895
0.034374
-0.029815
-0.025279
-0.030025
-0.005532
0.005894
-0.002945
-0.012124
-0.000356
-0.000535
-0.010022
-0.028321
-0.026950
-0.045109
-0.048059
-0.024703
0.033725
0.040707
-0.052608
-0.049380
-0.049478
0.006714
0.005495
0.006383
0.004095
0.006129
0.004340
0.003376
0.006364
0.001360
-0.044065
-0.033362
-0.034611
-0.030023
-0.032184
-0.027619
-0.055187
-0.039493
-0.062217
-0.042556
0.000518
-0.002396
-0.001300
-0.000910
-0.009444
-0.006017
-0.003251
-0.045404
-0.046197
-0.044910
-0.000025
0.014581
0.010718
0.003673
-0.052949
-0.051028
-0.047924
-0.040860
-0.042407
-0.049126
0.035696
0.051082
-0.058420
0.011607
-0.003545
-0.035805
0.019816
-0.013706
0.047846
-0.043664
-0.031516
-0.007720
-0.049350
-0.046524
0.013027
0.001343
-0.000553
-0.018759
-0.013159
-0.002843
-0.000025
-0.005912
0.032562
0.049213
0.040679
0.035753
0.045055
0.045703
-0.020897
-0.022236
-0.021136
-0.019223
0.012436
0.006807
0.012956
-0.017355
-0.002662
0.014046
0.006538
0.034194
0.030881
-0.050666
-0.045121
-0.042835
-0.040922
-0.003287
-0.025760
-0.017314
-0.012147
0.030599
0.039985
0.029029
0.038651
0.029109
-0.005394
-0.000334
-0.001756
0.013122
-0.046286
-0.045167
-0.053524
-0.042919
-0.036367
-0.017347
-0.001999
-0.009955
-0.004740
-0.007725
0.005039
-0.002543
0.001701
0.000651
-0.003457
0.000074
0.001373
0.030942
0.024109
0.030542
0.014653
0.010019
0.002944
0.003349
-0.001317
0.006461
-0.046446
0.014198
0.021407
0.000645
-0.005011
-0.011837
-0.010568
-0.040250
-0.043374
-0.060949
-0.051732
-0.050950
-0.054151
-0.041587
-0.028295
-0.032572
-0.030146
-0.056769
0.068251
0.031789
0.022848
0.021064
0.022714
-0.006542
-0.006597
0.021283
-0.038434
-0.034029
-0.042008
-0.004188
-0.006380
-0.031390
-0.031896
-0.036539
-0.047837
-0.003210
-0.004972
-0.009218
-0.055098
-0.001774
-0.003456
-0.047807
-0.044848
0.021242
0.017806
0.019808
0.016909
0.002319
0.004395
-0.001152
-0.000246
-0.041850
-0.059753
-0.057556
-0.029034
-0.026879
-0.029809
-0.018802
-0.003578
-0.004723
-0.010135
-0.010240
0.035157
0.031555
0.029464
0.004732
0.025088
0.034702
0.000904
0.020065
0.006645
0.003767
-0.002424
-0.003747
-0.004583
-0.046027
-0.044007
-0.043685
-0.009404
-0.013329
-0.021520
-0.011426
0.044514
0.026479
-0.013662
-0.013237
-0.041785
-0.041041
-0.039138
-0.032583
-0.046859
-0.036413
-0.044806
-0.040538
-0.040092
0.006726
-0.021635
-0.012873
-0.003836
-0.009578
0.039690
-0.005411
0.037749
0.036967
-0.010060
-0.004296
-0.001943
0.007919
0.009049
0.007800
-0.005419
-0.039573
-0.052674
-0.006083
-0.000370
-0.003848
-0.031348
-0.018444
-0.015824
-0.011192
-0.008848
0.004261
0.004259
0.013706
-0.007667
0.000854
-0.048183
-0.006196
0.007008
-0.019130
-0.033395
-0.031662
-0.057186
0.013811
0.000416
-0.006243
-0.052654
0.013469
0.019115
-0.013481
-0.072862
-0.053636
-0.065479
0.016731
-0.019579
-0.002637
-0.000245
-0.006310
-0.016168
-0.004151
0.002681
0.006076
-0.009084
-0.001227
-0.004893
0.008787
0.003251
0.019752
0.025377
0.007990
0.016192
0.026569
0.004004
0.000329
-0.004741
0.003672
-0.027484
0.001218
0.002705
0.004066
-0.016710
-0.002864
-0.042689
-0.030822
-0.038313
-0.043794
-0.041077
-0.041701
-0.038862
-0.006792
-0.003540
-0.003768
0.004341
0.006090
0.024459
0.033335
0.032939
0.024452
-0.046357
0.008960
-0.004986
0.004192
-0.003086
-0.034533
0.024606
0.017631
0.029208
0.000009
-0.047028
0.001846
0.005081
0.002208
0.008157
0.003740
0.012614
-0.000263
-0.000301
0.001791
-0.001892
-0.001599
-0.002254
-0.001633
0.044520
0.048942
0.045832
0.043294
-0.037771
-0.045554
-0.031963
-0.011354
-0.019684
0.014094
0.011640
0.019134
0.002384
0.006659
-0.005359
0.021834
-0.007213
-0.044872
0.029432
0.024075
0.039231
-0.058820
-0.042218
-0.050170
-0.037108
-0.042093
-0.002331
0.035973
0.038027
0.029923
0.032240
0.027742
-0.007768
-0.007710
-0.023807
0.004621
0.004767
-0.028510
0.013538
0.015131
-0.014584
-0.010525
-0.013802
-0.035778
-0.038549
-0.006701
-0.024158
-0.024187
-0.018436
-0.025854
0.044454
0.038531
0.048868
0.053417
-0.049746
-0.006807
-0.044760
-0.042348
-0.049857
0.012305
0.022183
0.024481
0.035240
0.033436
0.039732
-0.007048
-0.008095
-0.007418
-0.047870
0.015830
-0.051895
-0.039552
-0.030429
-0.053184
-0.051061
-0.059422
-0.038562
-0.061483
0.002834
-0.007777
-0.050609
0.030301
-0.008297
-0.003981
-0.006647
-0.015778
-0.011576
-0.010572
-0.015506
-0.007159
0.006576
0.006117
0.009071
0.016097
-0.010560
-0.005034
-0.006041
0.007729
0.000572
0.004188
0.033125
0.028070
0.033995
-0.002256
-0.005836
-0.034675
-0.032557
-0.035434
-0.029348
-0.055672
-0.061698
-0.061503
-0.031112
-0.037740
-0.025571
0.011739
0.016528
0.009084
-0.042674
-0.037489
-0.044445
-0.015661
-0.006219
-0.025745
-0.008601
0.001787
0.009144
-0.007060
0.041832
0.039809
0.034150
0.037402
0.001256
0.000837
-0.005805
-0.002091
-0.005371
0.015356
-0.000499
-0.001710
-0.035524
0.005064
-0.008144
-0.010751
-0.000240
-0.025218
-0.019740
-0.040542
-0.033633
-0.073680
-0.032263
-0.043573
-0.045877
-0.001927
0.000902
0.007645
-0.054730
-0.052410
-0.047149
-0.052938
0.000001
0.028899
0.022752
-0.006820
0.003367
0.020877
-0.005150
0.040698
0.042496
-0.005188
-0.015458
-0.027518
-0.035676
-0.004666
-0.009737
-0.005341
-0.010726
-0.008471
-0.012674
0.030565
0.071594
0.039020
-0.034291
-0.040934
-0.044998
-0.048796
-0.011406
-0.035004
-0.042588
-0.044921
-0.055609
-0.006299
-0.035989
-0.034304
-0.044333
-0.041723
0.002328
0.008960
0.008284
-0.007062
-0.007468
-0.004919
0.004998
0.008148
-0.001991
-0.006663
-0.007321
-0.004880
-0.005731
0.003171
0.006917
-0.035061
-0.042991
-0.053761
-0.034973
0.035070
0.037814
0.038934
0.031999
0.003884
0.000246
-0.019861
-0.017176
-0.017342
0.003683
0.000260
-0.000626
-0.050497
-0.050318
-0.008865
-0.004815
0.000130
0.013841
-0.003667
-0.007108
0.004528
-0.006738
-0.005299
-0.003473
-0.005480
-0.038704
-0.040589
-0.052156
0.000420
0.001604
-0.026850
-0.026081
-0.026521
-0.047101
-0.048868
-0.041720
-0.039246
0.003712
0.002070
-0.005091
-0.027049
-0.031935
-0.044588
0.027085
0.027050
0.027480
0.031940
-0.022809
-0.041469
-0.041344
-0.041266
0.037897
0.035604
0.042893
-0.040788
0.036694
-0.020410
0.003156
0.022839
0.018978
0.017545
0.035096
-0.035220
-0.039273
-0.035219
0.000545
0.001139
0.007587
0.040517
0.047095
0.009704
-0.027248
-0.018024
0.035315
0.034736
0.044317
-0.003104
-0.025734
-0.020357
-0.042448
0.031400
-0.005406
0.029607
0.035841
0.023195
-0.003175
-0.005688
-0.002561
-0.002988
-0.006122
-0.007573
0.009436
0.033108
-0.053928
-0.053898
-0.046866
-0.038193
-0.005654
-0.051486
-0.048732
-0.049120
-0.046069
-0.046710
0.031252
0.007943
-0.002606
0.003512
0.005964
-0.004446
0.003560
-0.002752
0.006101
-0.000704
-0.003276
-0.001652
-0.028105
-0.028865
-0.036681
0.000137
-0.037139
-0.042839
-0.001499
0.031437
0.025314
0.048631
-0.052439
0.046856
0.031764
0.028759
-0.037953
-0.036298
-0.037012
0.004978
0.001037
0.001623
-0.062653
-0.002433
-0.038592
-0.003301
-0.014884
-0.015616
-0.019569
-0.060574
-0.059240
-0.056840
-0.045806
-0.043462
-0.005498
0.024878
-0.000383
-0.046654
0.032533
0.036457
0.025230
-0.015354
-0.013374
-0.008195
-0.009563
-0.014611
-0.009961
-0.010368
0.033498
-0.001669
-0.038783
-0.035304
0.009006
-0.004052
-0.001733
-0.041693
-0.040291
-0.038313
0.008787
0.008970
0.005569
-0.005342
-0.005748
-0.010147
-0.007600
0.005027
-0.002072
-0.002878
-0.000638
0.011844
0.002969
-0.003471
0.000124
0.002345
-0.001903
-0.046346
-0.051720
-0.050748
-0.043002
0.000471
-0.000918
0.000935
-0.008776
-0.010758
-0.003408
-0.003938
-0.014123
-0.022092
-0.033447
-0.058115
-0.055046
0.040945
-0.011205
-0.013715
0.034386
0.035463
0.017002
-0.060612
0.040544
-0.008703
-0.012149
-0.010488
-0.007314
-0.029376
-0.037504
-0.028365
-0.022746
-0.027539
-0.004845
-0.031096
-0.038408
-0.009373
-0.016832
-0.002615
-0.026801
-0.004125
-0.050629
-0.005312
0.046963
0.041609
0.049356
0.005218
-0.007756
-0.006600
-0.032065
-0.003380
-0.001213
0.000532
0.006089
-0.005998
0.005495
0.004795
-0.015210
-0.010047
-0.003228
-0.004830
0.029419
0.034357
0.050756
-0.037037
-0.065014
-0.055570
0.053367
-0.051800
-0.051422
-0.059427
-0.036956
-0.047252
-0.077335
-0.057699
-0.066848
-0.011446
-0.008475
-0.008691
0.033817
-0.005293
-0.000457
-0.004930
0.001209
-0.008771
-0.000850
-0.014860
-0.014970
-0.018670
0.008920
0.000783
-0.041402
-0.056028
-0.052296
-0.037942
-0.041209
-0.042943
0.001196
0.009666
-0.003992
-0.043960
-0.042123
-0.040917
0.026135
0.019187
-0.008857
-0.003938
0.001922
-0.046417
-0.043788
-0.000583
-0.001075
-0.003638
-0.015450
-0.006807
-0.003574
-0.005885
-0.054507
0.006885
0.012741
-0.049263
0.021364
0.025946
0.016198
0.017347
-0.049910
-0.068158
-0.034386
-0.002994
-0.008241
-0.005332
-0.000749
0.002622
0.011030
0.019097
0.003550
0.007063
0.017632
0.007411
-0.010413
-0.003072
-0.007610
-0.007083
-0.004236
-0.000140
-0.041043
-0.002240
-0.001665
-0.002922
-0.004949
-0.005001
0.036919
0.042814
0.027790
0.034972
0.035466
0.037488
0.029214
-0.007951
0.004089
-0.002403
0.026461
0.000471
-0.007725
-0.010739
-0.013727
-0.005483
-0.010785
-0.016867
-0.018473
-0.020760
0.036233
-0.010896
-0.025811
-0.015366
-0.025351
0.025318
0.017116
0.012632
-0.005777
0.001344
0.028779
0.061456
0.034510
0.016486
0.022692
0.012355
0.030706
0.015878
0.018595
0.042238
0.042390
-0.011366
-0.003442
0.033960
0.014765
0.058353
0.043266
0.020601
0.047476
0.048081
0.054850
-0.018783
-0.001564
-0.006331
-0.000959
0.003851
-0.010991
0.017181
0.027812
0.030965
0.020776
0.031946
0.042543
0.048697
0.043499
-0.006388
-0.006344
0.000055
-0.006277
-0.009462
0.001697
-0.009915
0.003090
0.000296
-0.007145
0.000322
-0.001680
0.047712
0.041166
0.050285
0.031351
0.019493
0.016368
0.000816
-0.006890
-0.038426
-0.038351
-0.011128
-0.019795
-0.002104
-0.007921
-0.043667
-0.040475
-0.038232
-0.046387
-0.009795
-0.013373
-0.011157
-0.007247
0.002486
0.004197
-0.007293
-0.002847
-0.007259
-0.001042
-0.001889
0.003717
0.039438
0.040806
0.042118
0.043027
0.024489
0.003915
0.003062
-0.003546
0.051500
0.044912
0.044935
-0.010758
-0.009867
-0.005908
-0.015346
-0.027111
-0.023364
-0.019838
-0.020316
-0.030998
-0.027189
-0.006457
-0.004222
-0.007736
0.001007
0.049037
-0.005775
0.002329
-0.002540
-0.008276
0.020802
-0.037506
-0.000284
-0.002036
-0.000060
0.001531
-0.000346
-0.001470
0.002013
-0.005821
-0.016174
-0.008993
-0.011556
0.000644
-0.037585
-0.009776
-0.006645
-0.008383
0.003122
0.002369
-0.005462
-0.007895
0.001211
-0.006436
0.001700
-0.007083
-0.034398
-0.018646
-0.030796
-0.034853
-0.015441
-0.006692
-0.003722
-0.011432
-0.010027
-0.010348
-0.002068
-0.006809
-0.008632
-0.006232
-0.007826
-0.004208
-0.013866
-0.034190
-0.033711
-0.027014
-0.042008
-0.036066
-0.034474
-0.045855
-0.012249
-0.008340
-0.008972
-0.008375
-0.000975
0.055784
0.031764
0.038583
0.041116
0.002177
0.004259
-0.000057
-0.004351
-0.002719
-0.002592
-0.007801
0.009956
-0.020150
-0.029745
-0.030646
0.018648
0.005568
-0.007364
0.006612
-0.007852
-0.004168
-0.013247
-0.006590
-0.004315
-0.050612
-0.043332
0.027703
0.013741
0.034339
0.030659
-0.005148
-0.005999
-0.005353
-0.007804
-0.048104
-0.004226
0.000014
-0.006090
0.028823
0.025261
0.025847
-0.025212
-0.013722
-0.010621
-0.032504
-0.010369
-0.004174
0.003140
-0.003554
-0.008651
-0.006670
-0.007115
-0.009000
-0.020915
0.000380
0.024526
0.026749
0.031012
0.025421
0.028156
-0.001721
0.001190
0.000190
-0.004817
-0.018025
-0.012890
-0.009838
-0.008556
-0.012636
-0.005767
-0.003191
-0.001161
0.002236
-0.008003
-0.001693
-0.004236
-0.002282
-0.045215
0.028461
0.029992
0.032878
-0.006189
-0.005982
-0.042630
-0.040808
-0.020926
-0.023753
-0.056109
-0.058512
-0.057835
-0.055397
0.035710
0.038442
-0.009939
-0.003391
-0.007067
0.022261
-0.013519
-0.004462
0.027599
0.027355
-0.023351
-0.023193
-0.002623
-0.050014
-0.046915
-0.051791
-0.056660
-0.038305
-0.067606
-0.055712
-0.036633
-0.000098
-0.008163
-0.008232
-0.026169
0.000419
-0.000514
-0.025953
-0.071481
-0.000171
-0.007832
0.003514
0.000823
-0.005379
-0.000579
-0.009295
-0.015398