# vtk DataFile Version 2.0
Test
ASCII
DATASET POLYDATA
POINTS 7607 float
0.000000 0.000000 0.000000
1.000000 0.000000 0.000000
1.000000 0.800000 0.000000
1.000000 1.000000 0.000000
0.000000 1.000000 0.000000
0.000000 0.200000 0.000000
0.300000 0.330000 0.000000
0.700000 0.680000 0.000000
0.012987 0.000000 0.000000
0.025974 0.000000 0.000000
0.038961 0.000000 0.000000
0.051948 0.000000 0.000000
0.064935 0.000000 0.000000
0.077922 0.000000 0.000000
0.090909 0.000000 0.000000
0.103896 0.000000 0.000000
0.116883 0.000000 0.000000
0.129870 0.000000 0.000000
0.142857 0.000000 0.000000
0.155844 0.000000 0.000000
0.168831 0.000000 0.000000
0.181818 0.000000 0.000000
0.194805 0.000000 0.000000
0.207792 0.000000 0.000000
0.220779 0.000000 0.000000
0.233766 0.000000 0.000000
0.246753 0.000000 0.000000
0.259740 0.000000 0.000000
0.272727 0.000000 0.000000
0.285714 0.000000 0.000000
0.298701 0.000000 0.000000
0.311688 0.000000 0.000000
0.324675 0.000000 0.000000
0.337662 0.000000 0.000000
0.350649 0.000000 0.000000
0.363636 0.000000 0.000000
0.376623 0.000000 0.000000
0.389610 0.000000 0.000000
0.402597 0.000000 0.000000
0.415584 0.000000 0.000000
0.428571 0.000000 0.000000
0.441558 0.000000 0.000000
0.454545 0.000000 0.000000
0.467532 0.000000 0.000000
0.480519 0.000000 0.000000
0.493506 0.000000 0.000000
0.506494 0.000000 0.000000
0.519481 0.000000 0.000000
0.532468 0.000000 0.000000
0.545455 0.000000 0.000000
0.558442 0.000000 0.000000
0.571429 0.000000 0.000000
0.584416 0.000000 0.000000
0.597403 0.000000 0.000000
0.610390 0.000000 0.000000
0.623377 0.000000 0.000000
0.636364 0.000000 0.000000
0.649351 0.000000 0.000000
0.662338 0.000000 0.000000
0.675325 0.000000 0.000000
0.688312 0.000000 0.000000
0.701299 0.000000 0.000000
0.714286 0.000000 0.000000
0.727273 0.000000 0.000000
0.740260 0.000000 0.000000
0.753247 0.000000 0.000000
0.766234 0.000000 0.000000
0.779221 0.000000 0.000000
0.792208 0.000000 0.000000
0.805195 0.000000 0.000000
0.818182 0.000000 0.000000
0.831169 0.000000 0.000000
0.844156 0.000000 0.000000
0.857143 0.000000 0.000000
0.870130 0.000000 0.000000
0.883117 0.000000 0.000000
0.896104 0.000000 0.000000
0.909091 0.000000 0.000000
0.922078 0.000000 0.000000
0.935065 0.000000 0.000000
0.948052 0.000000 0.000000
0.961039 0.000000 0.000000
0.974026 0.000000 0.000000
0.987013 0.000000 0.000000
1.000000 0.012903 0.000000
1.000000 0.025806 0.000000
1.000000 0.038710 0.000000
1.000000 0.051613 0.000000
1.000000 0.064516 0.000000
1.000000 0.077419 0.000000
1.000000 0.090323 0.000000
1.000000 0.103226 0.000000
1.000000 0.116129 0.000000
1.000000 0.129032 0.000000
1.000000 0.141935 0.000000
1.000000 0.154839 0.000000
1.000000 0.167742 0.000000
1.000000 0.180645 0.000000
1.000000 0.193548 0.000000
1.000000 0.206452 0.000000
1.000000 0.219355 0.000000
1.000000 0.232258 0.000000
1.000000 0.245161 0.000000
1.000000 0.258065 0.000000
1.000000 0.270968 0.000000
1.000000 0.283871 0.000000
1.000000 0.296774 0.000000
1.000000 0.309677 0.000000
1.000000 0.322581 0.000000
1.000000 0.335484 0.000000
1.000000 0.348387 0.000000
1.000000 0.361290 0.000000
1.000000 0.374194 0.000000
1.000000 0.387097 0.000000
1.000000 0.400000 0.000000
1.000000 0.412903 0.000000
1.000000 0.425806 0.000000
1.000000 0.438710 0.000000
1.000000 0.451613 0.000000
1.000000 0.464516 0.000000
1.000000 0.477419 0.000000
1.000000 0.490323 0.000000
1.000000 0.503226 0.000000
1.000000 0.516129 0.000000
1.000000 0.529032 0.000000
1.000000 0.541935 0.000000
1.000000 0.554839 0.000000
1.000000 0.567742 0.000000
1.000000 0.580645 0.000000
1.000000 0.593548 0.000000
1.000000 0.606452 0.000000
1.000000 0.619355 0.000000
1.000000 0.632258 0.000000
1.000000 0.645161 0.000000
1.000000 0.658065 0.000000
1.000000 0.670968 0.000000
1.000000 0.683871 0.000000
1.000000 0.696774 0.000000
1.000000 0.709677 0.000000
1.000000 0.722581 0.000000
1.000000 0.735484 0.000000
1.000000 0.748387 0.000000
1.000000 0.761290 0.000000
1.000000 0.774194 0.000000
1.000000 0.787097 0.000000
1.000000 0.812500 0.000000
1.000000 0.825000 0.000000
1.000000 0.837500 0.000000
1.000000 0.850000 0.000000
1.000000 0.862500 0.000000
1.000000 0.875000 0.000000
1.000000 0.887500 0.000000
1.000000 0.900000 0.000000
1.000000 0.912500 0.000000
1.000000 0.925000 0.000000
1.000000 0.937500 0.000000
1.000000 0.950000 0.000000
1.000000 0.962500 0.000000
1.000000 0.975000 0.000000
1.000000 0.987500 0.000000
0.987013 1.000000 0.000000
0.974026 1.000000 0.000000
0.961039 1.000000 0.000000
0.948052 1.000000 0.000000
0.935065 1.000000 0.000000
0.922078 1.000000 0.000000
0.909091 1.000000 0.000000
0.896104 1.000000 0.000000
0.883117 1.000000 0.000000
0.870130 1.000000 0.000000
0.857143 1.000000 0.000000
0.844156 1.000000 0.000000
0.831169 1.000000 0.000000
0.818182 1.000000 0.000000
0.805195 1.000000 0.000000
0.792208 1.000000 0.000000
0.779221 1.000000 0.000000
0.766234 1.000000 0.000000
0.753247 1.000000 0.000000
0.740260 1.000000 0.000000
0.727273 1.000000 0.000000
0.714286 1.000000 0.000000
0.701299 1.000000 0.000000
0.688312 1.000000 0.000000
0.675325 1.000000 0.000000
0.662338 1.000000 0.000000
0.649351 1.000000 0.000000
0.636364 1.000000 0.000000
0.623377 1.000000 0.000000
0.610390 1.000000 0.000000
0.597403 1.000000 0.000000
0.584416 1.000000 0.000000
0.571429 1.000000 0.000000
0.558442 1.000000 0.000000
0.545455 1.000000 0.000000
0.532468 1.000000 0.000000
0.519481 1.000000 0.000000
0.506494 1.000000 0.000000
0.493506 1.000000 0.000000
0.480519 1.000000 0.000000
0.467532 1.000000 0.000000
0.454545 1.000000 0.000000
0.441558 1.000000 0.000000
0.428571 1.000000 0.000000
0.415584 1.000000 0.000000
0.402597 1.000000 0.000000
0.389610 1.000000 0.000000
0.376623 1.000000 0.000000
0.363636 1.000000 0.000000
0.350649 1.000000 0.000000
0.337662 1.000000 0.000000
0.324675 1.000000 0.000000
0.311688 1.000000 0.000000
0.298701 1.000000 0.000000
0.285714 1.000000 0.000000
0.272727 1.000000 0.000000
0.259740 1.000000 0.000000
0.246753 1.000000 0.000000
0.233766 1.000000 0.000000
0.220779 1.000000 0.000000
0.207792 1.000000 0.000000
0.194805 1.000000 0.000000
0.181818 1.000000 0.000000
0.168831 1.000000 0.000000
0.155844 1.000000 0.000000
0.142857 1.000000 0.000000
0.129870 1.000000 0.000000
0.116883 1.000000 0.000000
0.103896 1.000000 0.000000
0.090909 1.000000 0.000000
0.077922 1.000000 0.000000
0.064935 1.000000 0.000000
0.051948 1.000000 0.000000
0.038961 1.000000 0.000000
0.025974 1.000000 0.000000
0.012987 1.000000 0.000000
0.000000 0.987097 0.000000
0.000000 0.974194 0.000000
0.000000 0.961290 0.000000
0.000000 0.948387 0.000000
0.000000 0.935484 0.000000
0.000000 0.922581 0.000000
0.000000 0.909677 0.000000
0.000000 0.896774 0.000000
0.000000 0.883871 0.000000
0.000000 0.870968 0.000000
0.000000 0.858065 0.000000
0.000000 0.845161 0.000000
0.000000 0.832258 0.000000
0.000000 0.819355 0.000000
0.000000 0.806452 0.000000
0.000000 0.793548 0.000000
0.000000 0.780645 0.000000
0.000000 0.767742 0.000000
0.000000 0.754839 0.000000
0.000000 0.741935 0.000000
0.000000 0.729032 0.000000
0.000000 0.716129 0.000000
0.000000 0.703226 0.000000
0.000000 0.690323 0.000000
0.000000 0.677419 0.000000
0.000000 0.664516 0.000000
0.000000 0.651613 0.000000
0.000000 0.638710 0.000000
0.000000 0.625806 0.000000
0.000000 0.612903 0.000000
0.000000 0.600000 0.000000
0.000000 0.587097 0.000000
0.000000 0.574194 0.000000
0.000000 0.561290 0.000000
0.000000 0.548387 0.000000
0.000000 0.535484 0.000000
0.000000 0.522581 0.000000
0.000000 0.509677 0.000000
0.000000 0.496774 0.000000
0.000000 0.483871 0.000000
0.000000 0.470968 0.000000
0.000000 0.458065 0.000000
0.000000 0.445161 0.000000
0.000000 0.432258 0.000000
0.000000 0.419355 0.000000
0.000000 0.406452 0.000000
0.000000 0.393548 0.000000
0.000000 0.380645 0.000000
0.000000 0.367742 0.000000
0.000000 0.354839 0.000000
0.000000 0.341935 0.000000
0.000000 0.329032 0.000000
0.000000 0.316129 0.000000
0.000000 0.303226 0.000000
0.000000 0.290323 0.000000
0.000000 0.277419 0.000000
0.000000 0.264516 0.000000
0.000000 0.251613 0.000000
0.000000 0.238710 0.000000
0.000000 0.225806 0.000000
0.000000 0.212903 0.000000
0.000000 0.187500 0.000000
0.000000 0.175000 0.000000
0.000000 0.162500 0.000000
0.000000 0.150000 0.000000
0.000000 0.137500 0.000000
0.000000 0.125000 0.000000
0.000000 0.112500 0.000000
0.000000 0.100000 0.000000
0.000000 0.087500 0.000000
0.000000 0.075000 0.000000
0.000000 0.062500 0.000000
0.000000 0.050000 0.000000
0.000000 0.037500 0.000000
0.000000 0.025000 0.000000
0.000000 0.012500 0.000000
0.309756 0.338537 0.000000
0.319512 0.347073 0.000000
0.329268 0.355610 0.000000
0.339024 0.364146 0.000000
0.348780 0.372683 0.000000
0.358537 0.381220 0.000000
0.368293 0.389756 0.000000
0.378049 0.398293 0.000000
0.387805 0.406829 0.000000
0.397561 0.415366 0.000000
0.407317 0.423902 0.000000
0.417073 0.432439 0.000000
0.426829 0.440976 0.000000
0.436585 0.449512 0.000000
0.446341 0.458049 0.000000
0.456098 0.466585 0.000000
0.465854 0.475122 0.000000
0.475610 0.483659 0.000000
0.485366 0.492195 0.000000
0.495122 0.500732 0.000000
0.504878 0.509268 0.000000
0.514634 0.517805 0.000000
0.524390 0.526341 0.000000
0.534146 0.534878 0.000000
0.543902 0.543415 0.000000
0.553659 0.551951 0.000000
0.563415 0.560488 0.000000
0.573171 0.569024 0.000000
0.582927 0.577561 0.000000
0.592683 0.586098 0.000000
0.602439 0.594634 0.000000
0.612195 0.603171 0.000000
0.621951 0.611707 0.000000
0.631707 0.620244 0.000000
0.641463 0.628780 0.000000
0.651220 0.637317 0.000000
0.660976 0.645854 0.000000
0.670732 0.654390 0.000000
0.680488 0.662927 0.000000
0.690244 0.671463 0.000000
0.011538 0.205000 0.000000
0.023077 0.210000 0.000000
0.034615 0.215000 0.000000
0.046154 0.220000 0.000000
0.057692 0.225000 0.000000
0.069231 0.230000 0.000000
0.080769 0.235000 0.000000
0.092308 0.240000 0.000000
0.103846 0.245000 0.000000
0.115385 0.250000 0.000000
0.126923 0.255000 0.000000
0.138462 0.260000 0.000000
0.150000 0.265000 0.000000
0.161538 0.270000 0.000000
0.173077 0.275000 0.000000
[...]
POINT_DATA 7607
SCALARS UX float 1
LOOKUP_TABLE default
0.006022
0.002268
-0.171134
-0.589739
-0.670542
-0.162350
-0.005717
-0.386559
-0.002105
0.000123
0.003012
0.001344
0.010137
0.000326
-0.000222
0.009921
0.000262
0.001206
-0.000282
0.000058
0.000184
-0.000085
-0.000158
0.000161
-0.000104
0.000271
0.000108
-0.001364
-0.000218
-0.000173
-0.000682
-0.007616
0.000234
-0.000206
-0.000191
-0.000354
0.000339
0.000279
0.001650
0.000026
-0.000049
-0.001707
0.000152
0.002641
0.000161
-0.000681
-0.001762
-0.000021
-0.000400
0.000109
0.000037
-0.003723
-0.000257
-0.001147
-0.000128
-0.000832
0.000118
-0.000070
0.000064
-0.001087
-0.001628
0.000500
-0.000336
-0.000421
0.003979
0.000922
-0.007194
0.000336
0.002418
0.000604
-0.001212
-0.000659
-0.005679
0.000191
0.005566
0.003218
-0.006304
0.000072
-0.000882
0.002083
0.000169
0.000772
-0.000199
-0.011928
-0.000968
0.016197
0.006435
0.014042
0.011047
0.011288
0.011360
0.020404
0.041697
0.041389
0.032279
0.040507
0.032331
0.062399
0.032683
0.038009
0.060033
0.060670
0.063133
0.075859
0.067166
0.079268
0.088296
0.067481
0.083426
0.100763
0.083577
0.119011
0.107745
0.109258
0.117088
0.108437
0.127704
0.125879
0.150651
0.116537
0.146161
0.152432
0.137683
0.144372
0.176465
0.152451
0.168166
0.175275
0.159265
0.176846
0.190119
0.168499
0.204851
0.159681
0.178277
0.199176
0.186642
0.201906
0.205791
0.169448
0.197176
0.116094
0.176818
0.328475
0.142957
0.031496
-0.191476
-0.330179
-0.305155
-0.556793
-0.519755
-0.529783
-0.527521
-0.597997
-0.557049
-0.572935
-0.573911
-0.557758
-0.593698
-0.578442
-0.571141
-0.584353
-0.585458
-0.601522
-0.594944
-0.596654
-0.592516
-0.603806
-0.599048
-0.600222
-0.598949
-0.600737
-0.600211
-0.597062
-0.604416
-0.606048
-0.599801
-0.614038
-0.611848
-0.609376
-0.608440
-0.611300
-0.607142
-0.612258
-0.615525
-0.612950
-0.617402
-0.616211
-0.617324
-0.620219
-0.619613
-0.625820
-0.622895
-0.629788
-0.626532
-0.629065
-0.623718
-0.626873
-0.631588
-0.626183
-0.624891
-0.633518
-0.634113
-0.630181
-0.627011
-0.636334
-0.631560
-0.636376
-0.631625
-0.640180
-0.642614
-0.644256
-0.645103
-0.649331
-0.644761
-0.652260
-0.647173
-0.655518
-0.657632
-0.650774
-0.661641
-0.659985
-0.658937
-0.655943
-0.665945
-0.669583
-0.665597
-0.671490
-0.672701
-0.669860
-0.670293
-0.672673
-0.677805
-0.677522
-0.677289
-0.678796
-0.683079
-0.681521
-0.682974
-0.668371
-0.676409
-0.664204
-0.672211
-0.672222
-0.678151
-0.674811
-0.671494
-0.694895
-0.678360
-0.679056
-0.673418
-0.677631
-0.686557
-0.679588
-0.674690
-0.667420
-0.677674
-0.677292
-0.674296
-0.669043
-0.680562
-0.667603
-0.666743
-0.680134
-0.671894
-0.671442
-0.642005
-0.640743
-0.650286
-0.663308
-0.662365
-0.668387
-0.653225
-0.666212
-0.661302
-0.674639
-0.652501
-0.662228
-0.649458
-0.655249
-0.651838
-0.645442
-0.648691
-0.650963
-0.638028
-0.626297
-0.609451
-0.622304
-0.590214
-0.583171
-0.554070
-0.545311
-0.508310
-0.458920
-0.520584
-0.299053
-0.486804
-0.265474
-0.118216
-0.177469
-0.062898
-0.020764
-0.056364
-0.037857
-0.028236
-0.018772
-0.029026
-0.012157
-0.026899
-0.014099
-0.010220
-0.007061
0.099073
-0.137022
-0.170464
-0.046146
-0.155575
-0.206452
-0.140719
-0.328009
-0.052816
-0.111000
-0.000719
-0.183706
-0.109083
-0.015220
0.090273
0.068161
0.040620
-0.012306
-0.261945
-0.404271
-0.255401
-0.213984
-0.374292
-0.337427
-0.350050
-0.249898
-0.347934
-0.371233
-0.334145
-0.329749
-0.161376
-0.341752
-0.266102
-0.160000
-0.181075
-0.140635
-0.387100
-0.312562
-0.566991
-0.597828
-0.384757
-0.517450
-0.093638
-0.301469
-0.230590
-0.542082
-0.586566
-0.309686
-0.406176
-0.130278
-0.382460
-0.238190
-0.383195
-0.393308
-0.223179
-0.619341
-0.434678
-0.118961
-0.171870
-0.611869
-0.359581
-0.446211
-0.394372
-0.120889
-0.386797
-0.058802
0.011712
-0.098704
0.214175
-0.244109
0.392132
-0.089084
-0.035933
-0.194392
-0.286377
0.067189
-0.189413
-0.137993
0.014975
-0.189473
0.116550
-0.071808
-0.098985
0.194764
-0.122557
-0.163356
0.017361
0.032278
-0.106349
-0.596982
-0.608777
-0.614855
-0.604871
0.089806
0.092192
0.080257
-0.628204
-0.714800
-0.375977
-0.484967
-0.455197
-0.350352
-0.014324
0.008393
0.012490
-0.501298
-0.659369
-0.663367
-0.688306
0.041835
0.014730
0.029246
0.012778
-0.067980
-0.014452
-0.124484
-0.090724
-0.001310
-0.003943
-0.487716
-0.447500
-0.689486
-0.584248
-0.072763
-0.060718
0.015936
0.003548
-0.007136
-0.006685
-0.662470
-0.660873
-0.673179
-0.677111
-0.441249
-0.556391
-0.198374
-0.357095
0.174115
0.142239
0.136331
-0.593447
-0.613077
0.106735
0.047500
0.017208
0.067496
-0.630725
-0.615261
-0.600320
0.145388
-0.548332
-0.601682
-0.571837
-0.554423
-0.565776
-0.036711
-0.068026
-0.027301
-0.630515
-0.663476
-0.665500
-0.020510
0.019523
0.064696
-0.009154
-0.013379
-0.014169
-0.637845
-0.631671
-0.639961
-0.024332
-0.623399
-0.620375
-0.594402
0.033282
0.042940
0.008198
0.029842
-0.001796
-0.011187
-0.015981
-0.081006
-0.000105
0.000267
-0.020117
0.127548
0.169740
0.183160
-0.809094
-0.143362
-0.282057
-0.483709
-0.426605
-0.640226
-0.646360
-0.636141
-0.617343
-0.643823
-0.574563
-0.023277
0.016403
0.006808
0.008449
0.067039
0.056864
-0.619733
-0.598903
-0.595383
0.028411
0.032570
0.010501
-0.592821
-0.569433
-0.602032
-0.586399
0.044916
0.122328
0.148728
0.136107
-0.008246
-0.602872
-0.027101
0.007522
0.013472
-0.014486
-0.631366
-0.600282
-0.561804
-0.615092
-0.607736
-0.654562
-0.638290
-0.624276
-0.591022
-0.603052
-0.606137
-0.595016
-0.433842
-0.011371
-0.005816
-0.006367
-0.002542
-0.664813
-0.630711
-0.662019
-0.011419
-0.015039
-0.006463
-0.684830
-0.662879
-0.663502
-0.013956
-0.563478
-0.585795
-0.633751
-0.633590
-0.630963
-0.583537
-0.664155
-0.660098
-0.670191
-0.628349
0.152302
0.118222
0.148101
0.140484
0.132816
0.103743
0.122209
0.045607
0.057937
0.053887
-0.627431
-0.622519
-0.606706
-0.620446
-0.617161
-0.612854
-0.003926
-0.023768
-0.021963
-0.011011
0.014677
0.043550
-0.005258
-0.061989
0.001044
-0.036821
-0.095628
-0.617523
-0.620492
-0.630462
-0.605312
0.074736
0.117246
0.074642
0.051067
0.068738
0.060352
0.076478
0.130723
0.132729
0.139788
-0.020562
0.210839
-0.631274
-0.631862
-0.630827
-0.554966
-0.571193
-0.567499
-0.505057
0.128250
0.158419
0.182901
0.158006
0.076080
0.100890
0.067346
-0.628747
-0.622447
-0.608706
-0.554471
-0.625617
-0.633655
-0.660342
-0.648718
-0.658451
-0.002076
-0.011748
0.003883
-0.630711
-0.652799
-0.636820
-0.006029
0.021609
-0.016704
0.135636
0.140655
0.148045
-0.004804
-0.009198
-0.029796
-0.039142
-0.032218
-0.664387
-0.673699
-0.014566
-0.014359
-0.017749
0.012379
0.011205
0.000239
-0.020146
-0.003182
0.014290
-0.575160
-0.553915
-0.666411
-0.676842
-0.651423
-0.042288
-0.034982
0.152351
0.156375
0.010535
0.108984
0.041892
0.099571
0.019082
-0.002586
0.000393
0.008046
-0.628536
-0.618982
-0.651387
-0.606983
-0.646882
-0.566172
-0.644453
-0.563387
0.067930
0.007145
0.064007
0.061287
-0.656818
-0.624724
-0.619654
-0.592089
0.138431
0.190314
0.128121
0.117230
0.088966
-0.596234
-0.589368
-0.587414
0.085156
-0.579400
-0.592141
-0.602051
0.153553
-0.597710
-0.642079
-0.672305
-0.626749
-0.018284
0.015622
-0.013281
-0.636302
-0.618741
-0.628394
-0.018150
-0.019643
0.004550
-0.019160
0.049661
0.006694
0.119940
-0.593144
-0.593909
-0.564873
-0.612003
-0.605597
-0.620630
-0.629474
0.023206
0.037077
-0.000484
0.021843
0.021056
0.021317
-0.659983
-0.679076
-0.677258
-0.573354
-0.602986
-0.661449
-0.045555
-0.048935
0.154697
0.099152
-0.015898
0.033866
0.029295
0.034611
-0.588492
-0.655624
-0.600229
-0.654411
-0.668928
-0.610794
-0.021209
0.018936
-0.002843
-0.012953
0.151896
0.150692
0.069615
0.092740
0.036676
0.051379
0.062874
0.053164
0.052129
0.059207
-0.627189
-0.620373
-0.608831
0.013563
0.004350
0.010787
0.004029
-0.024293
-0.003989
-0.006861
-0.655186
-0.556663
-0.619140
-0.630946
-0.621781
-0.643401
-0.679372
-0.570227
-0.579397
-0.547156
-0.046331
-0.037608
-0.001216
-0.581029
-0.584264
-0.579214
-0.551074
-0.568113
0.012007
-0.009520
-0.647730
-0.665143
-0.660481
0.152199
0.126007
-0.613455
-0.620798
-0.034995
0.000890
-0.014005
0.010362
-0.034317
-0.016797
-0.030269
0.026098
0.030880
0.043961
-0.593009
-0.594725
-0.054648
-0.009207
0.002061
-0.625262
-0.621768
-0.623941
0.034062
-0.615134
-0.656692
-0.598158
0.194407
0.041555
0.025242
-0.676730
-0.669884
0.126027
0.155757
-0.656435
-0.645936
-0.656044
-0.627048
-0.601772
-0.008241
-0.031028
-0.002642
-0.007096
-0.034227
-0.657075
-0.645313
-0.672761
-0.675479
-0.638751
0.137628
0.150510
-0.641335
-0.644304
-0.642112
0.016935
0.009961
-0.564562
-0.594352
-0.572252
-0.576682
0.003862
0.011510
-0.001261
-0.682406
-0.662934
-0.663320
-0.659192
-0.662165
-0.655118
-0.644679
-0.607894
-0.667946
-0.589918
0.004247
-0.005102
-0.003944
-0.004423
-0.034934
-0.021835
-0.017853
-0.674749
-0.672475
-0.674308
-0.575898
-0.537636
-0.536066
-0.559790
-0.617308
-0.616462
-0.610238
-0.670298
-0.674318
-0.687063
0.169903
0.203532
-0.678986
0.029570
-0.011514
-0.656356
-0.077785
-0.400713
0.126928
-0.679511
-0.657009
-0.009020
-0.692517
-0.687302
0.033736
-0.002882
-0.001118
-0.057436
-0.043770
-0.003471
-0.002686
-0.009586
0.120833
0.178340
0.140393
0.132071
0.158085
0.168837
-0.642226
-0.645249
-0.639736
-0.636666
0.030918
0.018340
0.030572
-0.041782
-0.007800
-0.568727
-0.570323
0.109119
0.100435
-0.683956
-0.673716
-0.670310
-0.665547
-0.008499
-0.064410
-0.068230
-0.037908
0.065231
0.257781
0.125577
0.191181
0.303406
-0.601791
-0.601844
-0.594852
0.033742
-0.605765
-0.606794
-0.652790
-0.449074
-0.400354
-0.026226
-0.011174
-0.018120
-0.028481
-0.618170
-0.586054
-0.594731
-0.589359
-0.594770
-0.587320
-0.004035
-0.002254
0.149265
0.080841
0.097710
0.039857
-0.566683
-0.607598
-0.586182
-0.608734
-0.577184
-0.687650
-0.555767
0.057091
0.001798
-0.002206
-0.015586
-0.033893
-0.416730
-0.494449
-0.652338
-0.622573
-0.636076
-0.504558
-0.464923
-0.623602
-0.626342
-0.628350
-0.643727
0.333448
0.048523
0.049626
0.069131
0.066698
-0.019755
-0.015628
0.049635
-0.658053
-0.650946
-0.667188
-0.013794
-0.019191
-0.624449
-0.656274
-0.668311
-0.608116
-0.006224
-0.027476
-0.045052
-0.626547
-0.013999
-0.014435
-0.645137
-0.635631
0.055965
0.045001
0.058958
0.126753
0.002052
0.008624
-0.001680
-0.003964
-0.645620
-0.680324
-0.680009
-0.643968
-0.620090
-0.638500
-0.617712
-0.013347
-0.017604
-0.026684
-0.012971
0.111239
0.133717
0.197753
0.008688
0.115981
0.107738
0.003172
-0.348586
-0.590961
-0.598139
-0.593808
-0.609037
-0.589170
-0.674598
-0.671440
-0.673263
-0.616360
-0.634021
-0.636820
-0.615227
0.146926
0.125982
-0.037732
-0.029388
-0.670354
-0.393046
-0.455167
-0.305243
-0.677422
-0.653451
-0.670207
-0.432708
-0.509188
-0.576444
-0.394708
-0.035948
-0.604257
-0.025734
0.206900
-0.021850
0.218953
0.212669
-0.020354
-0.007257
-0.003851
0.021222
-0.574253
-0.576572
-0.011686
-0.613819
-0.648983
-0.015020
-0.002017
-0.597002
-0.657999
-0.019992
-0.044533
-0.022930
-0.027746
-0.582261
-0.576989
-0.557607
-0.024912
0.017993
-0.691392
-0.028637
0.011463
-0.080540
-0.662689
-0.660125
-0.636414
0.039050
0.002989
-0.016030
-0.602408
0.034689
0.045283
-0.033918
-0.673067
-0.642279
-0.657626
-0.555032
-0.043856
-0.000579
-0.002181
-0.607631
-0.634043
-0.604588
-0.589610
-0.571610
-0.616074
0.000058
-0.006074
0.015642
0.013549
0.064171
-0.027583
0.007604
-0.191165
-0.214223
-0.565238
-0.590050
-0.620407
-0.592723
-0.355241
-0.598290
-0.594658
-0.576882
-0.037390
0.000352
-0.674920
-0.653444
-0.668068
-0.510427
-0.516034
-0.510460
-0.514955
-0.022818
-0.012042
-0.601893
-0.588223
-0.583483
0.195123
0.117739
0.214382
-0.084142
-0.669652
-0.572880
-0.013622
0.007496
-0.005499
-0.666527
0.086450
0.069141
0.071740
0.000266
-0.688883
0.006863
0.013278
0.002715
0.021916
0.008083
-0.563380
-0.591846
-0.602224
-0.586016
-0.004076
-0.005037
0.002521
-0.009539
0.166268
0.168777
0.163955
0.164629
-0.671579
-0.685919
-0.660857
-0.638267
-0.604548
0.037396
0.028855
0.040254
0.007476
0.016950
-0.016200
0.049914
-0.605150
-0.431028
0.088378
0.077023
0.109731
-0.580917
-0.539470
-0.654184
-0.627387
-0.636912
-0.600427
0.163753
0.155809
0.206745
0.155279
-0.289402
-0.588032
-0.604191
-0.645504
0.007419
0.013531
-0.647923
0.037146
0.036098
-0.628647
-0.616173
-0.629118
-0.664676
-0.669434
-0.014044
-0.648608
-0.647652
-0.635285
-0.650757
0.158893
0.150827
0.175432
0.193493
-0.548149
-0.612198
-0.525109
-0.470291
-0.531911
0.034209
0.067062
0.065070
0.099440
0.097785
0.111152
-0.008609
-0.025356
-0.019255
-0.688700
0.040590
-0.663559
-0.674489
-0.658375
-0.653504
-0.644376
-0.637802
-0.541045
-0.669115
0.005332
-0.019668
-0.633486
0.122010
-0.020398
-0.018377
-0.021172
-0.634562
-0.623166
-0.617932
-0.036285
-0.027883
0.012736
0.012267
0.021800
-0.557736
-0.034844
-0.008071
-0.011214
-0.579854
-0.586895
-0.583602
0.157141
0.176619
0.049127
-0.010300
-0.014887
-0.662452
-0.662962
-0.666081
-0.290044
-0.652802
-0.667415
-0.663679
-0.656749
-0.667784
-0.646741
-0.272566
-0.411335
-0.466147
-0.407935
-0.452239
-0.523721
-0.036826
-0.010026
-0.118068
-0.621635
-0.586532
0.022356
-0.014508
0.215156
0.208202
0.191481
0.235182
-0.604446
-0.601247
-0.014454
-0.007376
-0.010636
0.026890
0.003755
-0.007392
-0.667838
0.002607
-0.024683
-0.032466
-0.002144
-0.648129
-0.633574
-0.600441
-0.572792
-0.688998
-0.661409
-0.681333
-0.684388
-0.001671
0.002714
0.019979
-0.575922
-0.580483
-0.539932
-0.554219
-0.606643
0.276828
0.050980
-0.608437
-0.571330
-0.218993
-0.601414
0.181269
0.230795
-0.601018
-0.630583
-0.144749
-0.252270
-0.009095
-0.021805
-0.018597
-0.620633
-0.613650
-0.622433
0.093142
0.232761
0.122389
-0.664897
-0.547076
-0.619126
-0.507774
-0.551468
-0.628739
-0.653428
-0.568313
-0.597108
-0.012017
-0.622803
-0.664998
-0.683346
-0.679017
0.008522
0.021803
0.019319
-0.018212
-0.017496
-0.603705
-0.578317
-0.570549
-0.009904
-0.011134
-0.016390
-0.007538
-0.011624
-0.588208
-0.580168
-0.455591
-0.375932
-0.597941
-0.450838
0.175286
0.206957
0.180912
0.118106
-0.591882
-0.595915
-0.058954
-0.020557
-0.067183
0.005261
-0.001008
0.012762
-0.563239
-0.584960
-0.016602
-0.007739
-0.592226
-0.544627
-0.006512
-0.014877
0.001136
-0.018591
-0.608801
-0.596103
-0.009070
-0.672639
-0.677406
-0.609197
0.003194
0.005229
-0.623511
-0.624712
-0.639015
-0.557365
-0.559698
-0.679692
-0.675480
0.005608
0.003969
-0.007897
-0.647638
-0.654956
-0.682381
0.145090
0.097615
0.131591
0.167400
-0.618433
-0.570251
-0.501320
-0.505574
0.108269
0.102989
0.121828
-0.675620
0.105672
-0.637432
0.009029
-0.011407
0.108590
0.060273
0.139902
-0.665578
-0.674109
-0.665044
0.000058
0.006204
0.017198
0.205286
0.171193
0.026800
-0.102081
-0.063257
0.177724
0.196937
0.195126
-0.002956
-0.180443
-0.075153
-0.201907
0.044327
-0.014605
0.101692
0.112788
0.067520
-0.604741
-0.016723
-0.008179
-0.005927
-0.009314
-0.011440
-0.562658
0.084457
-0.594024
-0.585183
-0.595726
-0.434662
-0.013945
-0.579898
-0.575562
-0.591923
-0.545617
-0.623942
0.134799
-0.575575
-0.598145
-0.601531
-0.581130
-0.008945
-0.598063
-0.598490
-0.586190
-0.593025
-0.600577
-0.003521
-0.649311
-0.652141
-0.666218
0.001642
-0.671556
-0.676995
-0.004919
0.108462
0.104068
0.118237
-0.621796
0.225919
0.156029
0.079131
-0.670675
-0.667768
-0.670563
0.012570
0.004033
0.003452
-0.645930
-0.598587
-0.395482
-0.606290
-0.623227
-0.637605
-0.641273
-0.660785
-0.644909
-0.638957
-0.599035
-0.524357
-0.611696
0.114573
-0.605217
-0.602962
0.105957
0.117578
0.079367
-0.624344
-0.622411
-0.016031
-0.023924
-0.047172
-0.026074
-0.029661
0.100682
-0.593416
-0.672966
-0.664312
0.020613
-0.008357
0.002154
-0.676480
-0.674622
-0.670526
0.020787
0.021672
0.017713
-0.599747
-0.603394
-0.616140
-0.613565
-0.583062
-0.596491
-0.003747
0.006993
0.029741
0.004967
-0.599880
-0.591838
-0.587823
-0.600369
-0.625314
-0.605675
-0.643128
-0.509386
-0.586377
-0.594812
-0.588863
-0.027655
-0.025951
-0.007016
-0.005188
-0.597756
-0.634167
-0.653267
-0.643206
-0.631504
0.191931
-0.016021
-0.029804
0.122610
0.211686
0.029162
-0.594130
0.111124
-0.611393
-0.620053
-0.617358
-0.616484
-0.641109
-0.664182
-0.635991
-0.632392
-0.094204
-0.023359
-0.106274
-0.672004
-0.042423
-0.095186
-0.004537
-0.088058
-0.602119
-0.641268
-0.604991
0.168678
0.169819
0.177405
-0.587804
-0.609952
-0.009496
-0.660662
-0.007476
-0.003033
-0.003722
0.013565
-0.012462
0.002250
-0.003687
-0.036811
-0.031756
-0.588575
-0.599607
0.097014
0.112185
0.149379
-0.568651
-0.669312
-0.623952
0.152245
-0.619802
-0.631656
-0.626870
-0.410917
-0.664861
-0.566943
-0.651545
-0.680883
-0.619007
-0.612381
-0.615219
0.054052
-0.281114
0.002958
-0.003188
-0.589600
-0.611360
-0.595006
-0.630488
-0.614157
-0.629926
-0.541302
-0.618111
-0.627340
-0.661610
-0.654559
-0.613561
-0.608250
-0.612250
0.003673
0.020017
-0.008854
-0.673545
-0.669537
-0.664865
-0.266928
-0.355686
-0.013002
-0.011591
-0.589354
-0.634107
-0.636513
-0.001378
-0.001431
-0.008386
-0.043156
-0.007684
-0.596524
-0.610655
-0.660072
0.013547
0.036845
-0.617142
0.055015
0.064813
0.042798
0.043483
-0.653603
-0.693193
-0.618420
-0.581291
-0.623748
-0.609927
-0.001161
0.005309
-0.532440
-0.415548
-0.647946
-0.552682
-0.275193
-0.459937
-0.619697
-0.625311
-0.016009
-0.016524
-0.013988
0.000825
-0.632276
-0.006026
-0.002704
-0.015060
-0.605755
-0.601311
0.096231
0.168467
0.095134
0.115425
0.128584
0.122773
0.084287
-0.013288
0.011654
-0.002668
0.061316
-0.002734
-0.015943
-0.619574
-0.625599
-0.603529
-0.620477
-0.064683
-0.060278
-0.055183
0.145410
-0.038104
-0.116209
-0.067656
-0.143311
0.064362
0.045170
0.032782
-0.613338
-0.593749
0.166526
0.140875
0.024487
0.063112
0.076701
0.136274
0.071181
0.088409
0.045437
0.124362
0.109490
-0.019110
-0.009001
0.139128
0.066938
0.182671
0.140465
0.078427
0.162368
0.175755
0.199173
-0.053529
-0.599520
-0.604346
-0.603906
-0.588347
-0.615688
0.043013
0.094523
0.102124
0.060079
0.099762
0.141467
0.171855
0.155655
-0.607174
-0.614766
-0.578674
-0.607576
-0.617149
-0.598544
-0.600013
-0.589367
-0.002848
-0.005751
-0.590253
0.000244
0.153160
0.147535
0.168616
-0.098979
-0.030209
-0.166649
0.007280
-0.017469
-0.667650
-0.667082
-0.024296
-0.066219
-0.012820
-0.046099
-0.673014
-0.670403
-0.666730
-0.677670
-0.613276
-0.623940
-0.624639
-0.611466
-0.611525
-0.589513
-0.013750
0.000750
-0.605597
-0.594211
-0.591323
-0.598231
0.139687
0.155125
0.154110
0.158254
0.058265
-0.588737
-0.584199
-0.600133
0.179773
0.167157
0.164416
-0.032421
-0.032323
-0.005072
0.063194
-0.154389
-0.091502
-0.045988
-0.058420
-0.218196
-0.203097
-0.606177
-0.606076
-0.011997
0.004745
0.176928
0.001427
-0.588905
-0.599570
-0.613253
0.050744
-0.671662
-0.585661
-0.004100
-0.000138
0.001924
-0.002760
0.004114
0.004473
-0.592787
-0.636067
-0.021727
-0.033511
0.005550
-0.670382
-0.034121
-0.032240
-0.023192
0.008913
0.003304
-0.607000
-0.607298
-0.003444
-0.013734
-0.000698
-0.016759
-0.669223
-0.622636
-0.647902
-0.648173
-0.040421
-0.013530
-0.009509
-0.045044
-0.021819
-0.024610
-0.593043
-0.611234
-0.022493
-0.009103
-0.000255
-0.031613
-0.066643
-0.636293
-0.643217
-0.624135
-0.642809
-0.619812
-0.600461
-0.645084
-0.031254
-0.618862
-0.610316
-0.608253
-0.598223
0.148592
0.094019
0.126191
0.122692
0.002716
0.013487
-0.002026
-0.004774
-0.003989
-0.004804
-0.016716
-0.566641
-0.179884
-0.329017
-0.143963
0.254903
-0.154069
-0.155308
0.012175
-0.619858
-0.621635
-0.624455
-0.607804
-0.008641
-0.658390
-0.641242
0.105037
0.049124
0.094367
0.085750
-0.007425
-0.603601
-0.603946
-0.016076
-0.424293
-0.007969
-0.002401
-0.015800
0.078167
0.064231
0.068909
-0.617457
-0.564784
-0.625826
-0.659645
-0.604570
-0.604480
0.007438
-0.601784
-0.610624
-0.610953
-0.603823
-0.020432
-0.068330
0.000635
0.066565
0.078706
0.080537
0.072152
0.087016
-0.006485
-0.002218
-0.005993
-0.013932
-0.038948
-0.044275
-0.604112
-0.016607
-0.034017
-0.014322
-0.002713
-0.002192
-0.000352
-0.015767
-0.595612
-0.005096
0.001005
-0.629272
0.097034
0.098464
0.101880
-0.603674
-0.607312
-0.678513
-0.675066
-0.640639
-0.645499
-0.638357
-0.659515
-0.648632
-0.645446
0.114042
0.136082
-0.017696
-0.594349
-0.613087
-0.087571
-0.045658
-0.021695
0.089079
-0.574320
-0.631993
-0.632168
-0.608193
-0.601277
-0.542398
-0.587500
-0.638703