# vtk DataFile Version 2.0
Test
ASCII
DATASET POLYDATA
POINTS 7607 float
0.000000 0.000000 0.000000
1.000000 0.000000 0.000000
1.000000 0.800000 0.000000
1.000000 1.000000 0.000000
0.000000 1.000000 0.000000
0.000000 0.200000 0.000000
0.300000 0.330000 0.000000
0.700000 0.680000 0.000000
0.012987 0.000000 0.000000
0.025974 0.000000 0.000000
0.038961 0.000000 0.000000
0.051948 0.000000 0.000000
0.064935 0.000000 0.000000
0.077922 0.000000 0.000000
0.090909 0.000000 0.000000
0.103896 0.000000 0.000000
0.116883 0.000000 0.000000
0.129870 0.000000 0.000000
0.142857 0.000000 0.000000
0.155844 0.000000 0.000000
0.168831 0.000000 0.000000
0.181818 0.000000 0.000000
0.194805 0.000000 0.000000
0.207792 0.000000 0.000000
0.220779 0.000000 0.000000
0.233766 0.000000 0.000000
0.246753 0.000000 0.000000
0.259740 0.000000 0.000000
0.272727 0.000000 0.000000
0.285714 0.000000 0.000000
0.298701 0.000000 0.000000
0.311688 0.000000 0.000000
0.324675 0.000000 0.000000
0.337662 0.000000 0.000000
0.350649 0.000000 0.000000
0.363636 0.000000 0.000000
0.376623 0.000000 0.000000
0.389610 0.000000 0.000000
0.402597 0.000000 0.000000
0.415584 0.000000 0.000000
0.428571 0.000000 0.000000
0.441558 0.000000 0.000000
0.454545 0.000000 0.000000
0.467532 0.000000 0.000000
0.480519 0.000000 0.000000
0.493506 0.000000 0.000000
0.506494 0.000000 0.000000
0.519481 0.000000 0.000000
0.532468 0.000000 0.000000
0.545455 0.000000 0.000000
0.558442 0.000000 0.000000
0.571429 0.000000 0.000000
0.584416 0.000000 0.000000
0.597403 0.000000 0.000000
0.610390 0.000000 0.000000
0.623377 0.000000 0.000000
0.636364 0.000000 0.000000
0.649351 0.000000 0.000000
0.662338 0.000000 0.000000
0.675325 0.000000 0.000000
0.688312 0.000000 0.000000
0.701299 0.000000 0.000000
0.714286 0.000000 0.000000
0.727273 0.000000 0.000000
0.740260 0.000000 0.000000
0.753247 0.000000 0.000000
0.766234 0.000000 0.000000
0.779221 0.000000 0.000000
0.792208 0.000000 0.000000
0.805195 0.000000 0.000000
0.818182 0.000000 0.000000
0.831169 0.000000 0.000000
0.844156 0.000000 0.000000
0.857143 0.000000 0.000000
0.870130 0.000000 0.000000
0.883117 0.000000 0.000000
0.896104 0.000000 0.000000
0.909091 0.000000 0.000000
0.922078 0.000000 0.000000
0.935065 0.000000 0.000000
0.948052 0.000000 0.000000
0.961039 0.000000 0.000000
0.974026 0.000000 0.000000
0.987013 0.000000 0.000000
1.000000 0.012903 0.000000
1.000000 0.025806 0.000000
1.000000 0.038710 0.000000
1.000000 0.051613 0.000000
1.000000 0.064516 0.000000
1.000000 0.077419 0.000000
1.000000 0.090323 0.000000
1.000000 0.103226 0.000000
1.000000 0.116129 0.000000
1.000000 0.129032 0.000000
1.000000 0.141935 0.000000
1.000000 0.154839 0.000000
1.000000 0.167742 0.000000
1.000000 0.180645 0.000000
1.000000 0.193548 0.000000
1.000000 0.206452 0.000000
1.000000 0.219355 0.000000
1.000000 0.232258 0.000000
1.000000 0.245161 0.000000
1.000000 0.258065 0.000000
1.000000 0.270968 0.000000
1.000000 0.283871 0.000000
1.000000 0.296774 0.000000
1.000000 0.309677 0.000000
1.000000 0.322581 0.000000
1.000000 0.335484 0.000000
1.000000 0.348387 0.000000
1.000000 0.361290 0.000000
1.000000 0.374194 0.000000
1.000000 0.387097 0.000000
1.000000 0.400000 0.000000
1.000000 0.412903 0.000000
1.000000 0.425806 0.000000
1.000000 0.438710 0.000000
1.000000 0.451613 0.000000
1.000000 0.464516 0.000000
1.000000 0.477419 0.000000
1.000000 0.490323 0.000000
1.000000 0.503226 0.000000
1.000000 0.516129 0.000000
1.000000 0.529032 0.000000
1.000000 0.541935 0.000000
1.000000 0.554839 0.000000
1.000000 0.567742 0.000000
1.000000 0.580645 0.000000
1.000000 0.593548 0.000000
1.000000 0.606452 0.000000
1.000000 0.619355 0.000000
1.000000 0.632258 0.000000
1.000000 0.645161 0.000000
1.000000 0.658065 0.000000
1.000000 0.670968 0.000000
1.000000 0.683871 0.000000
1.000000 0.696774 0.000000
1.000000 0.709677 0.000000
1.000000 0.722581 0.000000
1.000000 0.735484 0.000000
1.000000 0.748387 0.000000
1.000000 0.761290 0.000000
1.000000 0.774194 0.000000
1.000000 0.787097 0.000000
1.000000 0.812500 0.000000
1.000000 0.825000 0.000000
1.000000 0.837500 0.000000
1.000000 0.850000 0.000000
1.000000 0.862500 0.000000
1.000000 0.875000 0.000000
1.000000 0.887500 0.000000
1.000000 0.900000 0.000000
1.000000 0.912500 0.000000
1.000000 0.925000 0.000000
1.000000 0.937500 0.000000
1.000000 0.950000 0.000000
1.000000 0.962500 0.000000
1.000000 0.975000 0.000000
1.000000 0.987500 0.000000
0.987013 1.000000 0.000000
0.974026 1.000000 0.000000
0.961039 1.000000 0.000000
0.948052 1.000000 0.000000
0.935065 1.000000 0.000000
0.922078 1.000000 0.000000
0.909091 1.000000 0.000000
0.896104 1.000000 0.000000
0.883117 1.000000 0.000000
0.870130 1.000000 0.000000
0.857143 1.000000 0.000000
0.844156 1.000000 0.000000
0.831169 1.000000 0.000000
0.818182 1.000000 0.000000
0.805195 1.000000 0.000000
0.792208 1.000000 0.000000
0.779221 1.000000 0.000000
0.766234 1.000000 0.000000
0.753247 1.000000 0.000000
0.740260 1.000000 0.000000
0.727273 1.000000 0.000000
0.714286 1.000000 0.000000
0.701299 1.000000 0.000000
0.688312 1.000000 0.000000
0.675325 1.000000 0.000000
0.662338 1.000000 0.000000
0.649351 1.000000 0.000000
0.636364 1.000000 0.000000
0.623377 1.000000 0.000000
0.610390 1.000000 0.000000
0.597403 1.000000 0.000000
0.584416 1.000000 0.000000
0.571429 1.000000 0.000000
0.558442 1.000000 0.000000
0.545455 1.000000 0.000000
0.532468 1.000000 0.000000
0.519481 1.000000 0.000000
0.506494 1.000000 0.000000
0.493506 1.000000 0.000000
0.480519 1.000000 0.000000
0.467532 1.000000 0.000000
0.454545 1.000000 0.000000
0.441558 1.000000 0.000000
0.428571 1.000000 0.000000
0.415584 1.000000 0.000000
0.402597 1.000000 0.000000
0.389610 1.000000 0.000000
0.376623 1.000000 0.000000
0.363636 1.000000 0.000000
0.350649 1.000000 0.000000
0.337662 1.000000 0.000000
0.324675 1.000000 0.000000
0.311688 1.000000 0.000000
0.298701 1.000000 0.000000
0.285714 1.000000 0.000000
0.272727 1.000000 0.000000
0.259740 1.000000 0.000000
0.246753 1.000000 0.000000
0.233766 1.000000 0.000000
0.220779 1.000000 0.000000
0.207792 1.000000 0.000000
0.194805 1.000000 0.000000
0.181818 1.000000 0.000000
0.168831 1.000000 0.000000
0.155844 1.000000 0.000000
0.142857 1.000000 0.000000
0.129870 1.000000 0.000000
0.116883 1.000000 0.000000
0.103896 1.000000 0.000000
0.090909 1.000000 0.000000
0.077922 1.000000 0.000000
0.064935 1.000000 0.000000
0.051948 1.000000 0.000000
0.038961 1.000000 0.000000
0.025974 1.000000 0.000000
0.012987 1.000000 0.000000
0.000000 0.987097 0.000000
0.000000 0.974194 0.000000
0.000000 0.961290 0.000000
0.000000 0.948387 0.000000
0.000000 0.935484 0.000000
0.000000 0.922581 0.000000
0.000000 0.909677 0.000000
0.000000 0.896774 0.000000
0.000000 0.883871 0.000000
0.000000 0.870968 0.000000
0.000000 0.858065 0.000000
0.000000 0.845161 0.000000
0.000000 0.832258 0.000000
0.000000 0.819355 0.000000
0.000000 0.806452 0.000000
0.000000 0.793548 0.000000
0.000000 0.780645 0.000000
0.000000 0.767742 0.000000
0.000000 0.754839 0.000000
0.000000 0.741935 0.000000
0.000000 0.729032 0.000000
0.000000 0.716129 0.000000
0.000000 0.703226 0.000000
0.000000 0.690323 0.000000
0.000000 0.677419 0.000000
0.000000 0.664516 0.000000
0.000000 0.651613 0.000000
0.000000 0.638710 0.000000
0.000000 0.625806 0.000000
0.000000 0.612903 0.000000
0.000000 0.600000 0.000000
0.000000 0.587097 0.000000
0.000000 0.574194 0.000000
0.000000 0.561290 0.000000
0.000000 0.548387 0.000000
0.000000 0.535484 0.000000
0.000000 0.522581 0.000000
0.000000 0.509677 0.000000
0.000000 0.496774 0.000000
0.000000 0.483871 0.000000
0.000000 0.470968 0.000000
0.000000 0.458065 0.000000
0.000000 0.445161 0.000000
0.000000 0.432258 0.000000
0.000000 0.419355 0.000000
0.000000 0.406452 0.000000
0.000000 0.393548 0.000000
0.000000 0.380645 0.000000
0.000000 0.367742 0.000000
0.000000 0.354839 0.000000
0.000000 0.341935 0.000000
0.000000 0.329032 0.000000
0.000000 0.316129 0.000000
0.000000 0.303226 0.000000
0.000000 0.290323 0.000000
0.000000 0.277419 0.000000
0.000000 0.264516 0.000000
0.000000 0.251613 0.000000
0.000000 0.238710 0.000000
0.000000 0.225806 0.000000
0.000000 0.212903 0.000000
0.000000 0.187500 0.000000
0.000000 0.175000 0.000000
0.000000 0.162500 0.000000
0.000000 0.150000 0.000000
0.000000 0.137500 0.000000
0.000000 0.125000 0.000000
0.000000 0.112500 0.000000
0.000000 0.100000 0.000000
0.000000 0.087500 0.000000
0.000000 0.075000 0.000000
0.000000 0.062500 0.000000
0.000000 0.050000 0.000000
0.000000 0.037500 0.000000
0.000000 0.025000 0.000000
0.000000 0.012500 0.000000
0.309756 0.338537 0.000000
0.319512 0.347073 0.000000
0.329268 0.355610 0.000000
0.339024 0.364146 0.000000
0.348780 0.372683 0.000000
0.358537 0.381220 0.000000
0.368293 0.389756 0.000000
0.378049 0.398293 0.000000
0.387805 0.406829 0.000000
0.397561 0.415366 0.000000
0.407317 0.423902 0.000000
0.417073 0.432439 0.000000
0.426829 0.440976 0.000000
0.436585 0.449512 0.000000
0.446341 0.458049 0.000000
0.456098 0.466585 0.000000
0.465854 0.475122 0.000000
0.475610 0.483659 0.000000
0.485366 0.492195 0.000000
0.495122 0.500732 0.000000
0.504878 0.509268 0.000000
0.514634 0.517805 0.000000
0.524390 0.526341 0.000000
0.534146 0.534878 0.000000
0.543902 0.543415 0.000000
0.553659 0.551951 0.000000
0.563415 0.560488 0.000000
0.573171 0.569024 0.000000
0.582927 0.577561 0.000000
0.592683 0.586098 0.000000
0.602439 0.594634 0.000000
0.612195 0.603171 0.000000
0.621951 0.611707 0.000000
0.631707 0.620244 0.000000
0.641463 0.628780 0.000000
0.651220 0.637317 0.000000
0.660976 0.645854 0.000000
0.670732 0.654390 0.000000
0.680488 0.662927 0.000000
0.690244 0.671463 0.000000
0.011538 0.205000 0.000000
0.023077 0.210000 0.000000
0.034615 0.215000 0.000000
0.046154 0.220000 0.000000
0.057692 0.225000 0.000000
0.069231 0.230000 0.000000
0.080769 0.235000 0.000000
0.092308 0.240000 0.000000
0.103846 0.245000 0.000000
0.115385 0.250000 0.000000
0.126923 0.255000 0.000000
0.138462 0.260000 0.000000
0.150000 0.265000 0.000000
0.161538 0.270000 0.000000
0.173077 0.275000 0.000000
[...]
POINT_DATA 7607
SCALARS UX float 1
LOOKUP_TABLE default
0.006224
0.002378
-0.027173
-0.261580
-0.365405
-0.127473
-0.129244
-0.175131
-0.001925
0.000081
0.000895
0.001384
0.011655
0.000128
-0.000203
0.010587
0.000285
0.000779
-0.000284
0.000110
0.000123
-0.000062
-0.000162
0.000194
-0.000089
0.000268
0.000071
-0.001166
-0.000126
-0.000133
-0.000451
-0.007932
0.000168
-0.000158
-0.000122
-0.000332
0.000262
0.000143
0.001977
0.000057
0.000598
-0.001976
0.000040
0.003696
0.000170
0.000004
-0.002601
-0.000036
-0.000301
0.000048
0.000046
-0.003425
-0.000222
-0.001145
-0.000096
-0.000404
-0.000012
-0.000070
0.000034
-0.000753
-0.001239
0.000359
-0.000272
-0.000330
0.004625
0.000670
-0.007592
0.000301
0.002352
0.000354
-0.001001
-0.000592
-0.005993
-0.000324
0.005555
0.003105
-0.006643
-0.000023
-0.000817
0.001854
0.000238
0.000360
-0.000188
-0.012977
-0.001518
0.016404
0.009622
0.019179
0.009433
0.021108
0.010555
0.023946
0.044926
0.046594
0.034950
0.051072
0.035130
0.063063
0.035975
0.040610
0.059889
0.064868
0.059721
0.076426
0.066362
0.076904
0.085550
0.063664
0.080915
0.096711
0.078200
0.110949
0.099000
0.099045
0.106689
0.093446
0.118058
0.107270
0.129529
0.100309
0.123067
0.132360
0.112843
0.121404
0.148870
0.122170
0.138899
0.140978
0.125529
0.139738
0.146913
0.123039
0.152707
0.111189
0.119444
0.123934
0.122422
0.114178
0.130618
0.089411
0.085459
0.071932
0.071947
0.115688
0.020269
-0.068148
-0.062726
-0.139260
-0.161181
-0.252228
-0.170528
-0.221346
-0.216880
-0.234539
-0.226888
-0.246236
-0.243479
-0.218154
-0.263528
-0.248241
-0.237654
-0.256749
-0.250213
-0.276020
-0.267773
-0.267913
-0.264506
-0.275593
-0.273139
-0.274356
-0.272747
-0.276259
-0.272908
-0.271076
-0.279285
-0.280709
-0.274465
-0.287432
-0.287627
-0.284482
-0.283135
-0.285036
-0.283618
-0.286610
-0.289785
-0.287666
-0.293865
-0.288890
-0.293060
-0.295703
-0.289576
-0.301016
-0.299314
-0.301227
-0.304821
-0.302565
-0.300392
-0.305263
-0.304151
-0.305455
-0.307077
-0.306800
-0.317987
-0.305113
-0.308779
-0.320210
-0.310737
-0.319829
-0.315165
-0.325571
-0.327913
-0.332884
-0.335276
-0.334165
-0.332872
-0.343522
-0.333773
-0.345535
-0.348926
-0.336317
-0.355839
-0.348227
-0.350354
-0.345779
-0.356499
-0.364493
-0.356892
-0.363549
-0.365882
-0.363633
-0.364816
-0.366876
-0.372583
-0.372999
-0.371591
-0.375706
-0.378625
-0.376475
-0.376989
-0.366740
-0.368171
-0.361162
-0.366282
-0.368464
-0.376208
-0.370811
-0.367708
-0.392250
-0.376877
-0.377244
-0.373139
-0.377141
-0.384376
-0.380193
-0.375459
-0.371131
-0.380321
-0.381466
-0.378372
-0.373707
-0.386331
-0.375658
-0.370219
-0.393529
-0.376500
-0.382935
-0.360000
-0.341418
-0.359728
-0.374299
-0.375810
-0.375283
-0.366008
-0.376909
-0.372947
-0.385247
-0.366863
-0.374228
-0.364128
-0.368960
-0.368739
-0.364902
-0.365200
-0.378194
-0.349330
-0.363885
-0.339931
-0.347728
-0.326739
-0.326121
-0.301397
-0.296631
-0.254244
-0.280114
-0.220841
-0.193690
-0.240628
-0.171868
-0.052934
-0.147392
-0.082449
0.002430
-0.052181
-0.036585
-0.027704
-0.019020
-0.020691
-0.013299
-0.021709
-0.014842
-0.007134
-0.007519
-0.045868
-0.161664
-0.124689
-0.305244
-0.362624
-0.366124
-0.329002
-0.159676
-0.126995
-0.217343
-0.006234
-0.119420
0.132462
0.014641
-0.058958
0.029532
0.040715
0.004674
-0.080063
-0.046921
-0.017048
-0.015559
-0.267568
-0.096541
-0.113816
-0.171414
-0.126689
-0.017857
-0.354018
-0.104951
-0.129394
-0.152010
-0.159176
-0.055773
-0.086328
-0.009953
-0.188398
-0.142534
-0.179246
-0.216108
-0.159823
-0.251703
-0.068852
-0.223994
-0.146061
-0.229297
-0.244741
-0.157420
-0.233426
-0.083137
-0.202720
-0.081157
-0.260329
-0.181422
-0.132978
-0.318373
-0.317217
-0.111864
-0.165128
-0.251108
-0.116508
-0.155009
-0.194548
-0.226513
-0.139277
-0.113810
0.065341
-0.025120
0.158669
-0.061258
0.164106
-0.007424
-0.108414
0.008221
-0.089490
0.009813
-0.053961
-0.044949
-0.004401
-0.088638
-0.020512
-0.011261
-0.057691
0.018618
-0.077876
-0.056625
-0.009308
0.006155
-0.092043
-0.276235
-0.289591
-0.293340
-0.281468
0.065566
0.051781
0.047023
-0.304539
-0.423830
-0.131140
-0.280046
-0.220731
-0.126785
-0.017136
0.011087
0.012667
-0.285348
-0.352839
-0.356870
-0.383756
0.042061
0.016162
0.025599
0.012123
-0.082260
-0.010906
-0.084767
-0.060397
-0.006305
-0.000595
-0.233923
-0.235636
-0.388420
-0.307837
-0.071184
-0.053899
0.015601
0.001700
-0.004437
-0.005053
-0.356620
-0.353362
-0.367742
-0.374363
-0.139761
-0.248370
-0.061985
-0.108864
0.104437
0.078136
0.103244
-0.274075
-0.288153
0.080576
0.046189
0.022725
0.069909
-0.299514
-0.286910
-0.277222
-0.069026
-0.196643
-0.281867
-0.244745
-0.217536
-0.229584
-0.035116
-0.061965
-0.022139
-0.277570
-0.357661
-0.360798
-0.023863
0.022989
0.040039
-0.007591
-0.015258
-0.014417
-0.318164
-0.320114
-0.320363
-0.022917
-0.294687
-0.290208
-0.268871
0.035665
0.041749
0.005083
0.037628
0.002114
-0.012121
-0.019189
-0.068651
-0.017189
-0.020584
-0.022292
0.065062
0.109149
0.130222
-0.288326
-0.229695
-0.200216
-0.231249
-0.188403
-0.254594
-0.226832
-0.313660
-0.283749
-0.346566
-0.262278
-0.019292
0.011614
0.006205
0.007281
0.063255
0.064524
-0.285573
-0.286037
-0.274757
0.023264
0.037605
0.013643
-0.251992
-0.239392
-0.268503
-0.251419
0.041845
0.053537
0.086510
0.061473
-0.006719
-0.281478
-0.029260
0.007052
0.006279
-0.006716
-0.349122
-0.299890
-0.312188
-0.340788
-0.293473
-0.326403
-0.313906
-0.299903
-0.264066
-0.276245
-0.280316
-0.270302
-0.127648
-0.010543
-0.006522
-0.004882
-0.001204
-0.373501
-0.346451
-0.372357
-0.011754
-0.011811
-0.004334
-0.380221
-0.360801
-0.361952
-0.015895
-0.241978
-0.268291
-0.273233
-0.348511
-0.344397
-0.315628
-0.357035
-0.353541
-0.360567
-0.335873
0.105984
0.093006
0.099022
0.099196
0.094170
0.063349
0.084133
0.040162
0.050623
0.035697
-0.309317
-0.299498
-0.282886
-0.299079
-0.295150
-0.293211
-0.009209
-0.022764
-0.014459
-0.008814
0.014141
0.043535
-0.000121
-0.055987
-0.010121
-0.047641
-0.054937
-0.324446
-0.349647
-0.340253
-0.307036
0.049410
0.075086
0.052535
0.036916
0.048360
0.042775
0.057513
0.106139
0.104695
0.092992
-0.039658
0.153701
-0.352730
-0.344340
-0.350501
-0.218653
-0.239315
-0.250955
-0.197674
0.074504
0.109067
0.118614
0.121500
0.052237
0.061976
0.032994
-0.299692
-0.305998
-0.349945
-0.299482
-0.319787
-0.329997
-0.352042
-0.338765
-0.352444
-0.001017
-0.016570
0.007796
-0.304642
-0.329802
-0.311265
-0.007832
0.029458
-0.022408
0.090334
0.076619
0.114951
-0.009377
-0.017983
-0.021531
-0.022896
-0.027220
-0.360368
-0.369900
-0.011423
-0.021810
-0.005639
0.014579
0.015309
0.000572
-0.022068
-0.005455
0.011567
-0.234569
-0.222241
-0.361478
-0.373370
-0.349624
-0.030261
-0.016812
0.109373
0.098896
0.010981
0.070510
0.029659
0.074841
0.015335
-0.003216
-0.005586
0.009755
-0.338847
-0.351284
-0.369213
-0.328517
-0.358635
-0.302033
-0.367747
-0.287734
0.046672
0.001645
0.029992
0.034256
-0.367519
-0.355059
-0.333755
-0.314738
0.072867
0.137087
0.098278
0.076770
0.057368
-0.264910
-0.263085
-0.262056
0.041841
-0.240735
-0.258518
-0.279382
0.071584
-0.268888
-0.348871
-0.381321
-0.344100
-0.013408
0.014596
-0.010845
-0.331202
-0.331427
-0.321388
-0.019221
-0.010447
0.009536
0.088134
0.037228
0.008162
0.057638
-0.259172
-0.264724
-0.235605
-0.281431
-0.318468
-0.348762
-0.333831
0.023603
0.040125
-0.003561
0.017840
0.019895
0.017829
-0.355988
-0.373614
-0.373253
-0.313100
-0.314015
-0.368174
-0.028408
-0.036267
0.102589
0.030890
-0.018950
0.034239
0.033972
0.032582
-0.318475
-0.364540
-0.325674
-0.364381
-0.374667
-0.328199
-0.023407
0.016131
-0.010416
-0.016706
0.115992
0.079263
0.042948
-0.029849
0.031290
0.049498
0.043520
0.036228
0.041374
0.038814
-0.316822
-0.316608
-0.285309
0.008845
0.003137
0.005107
0.005327
-0.028433
0.001357
-0.010616
-0.362177
-0.294052
-0.289886
-0.315407
-0.340557
-0.354643
-0.397236
-0.246251
-0.250358
-0.224697
-0.037439
-0.031858
-0.013887
-0.249926
-0.253181
-0.250739
-0.220668
-0.238409
0.005713
-0.005845
-0.336679
-0.363821
-0.355076
0.111616
0.078644
-0.281876
-0.324491
-0.017244
0.004212
-0.020735
0.005166
-0.013620
-0.027572
-0.017326
0.015284
0.024104
0.027558
-0.262011
-0.266490
-0.045154
0.000127
-0.002545
-0.303766
-0.296917
-0.295633
0.021488
-0.322931
-0.345584
-0.328912
0.149442
0.046421
0.026018
-0.366639
-0.371003
0.094242
0.089438
-0.346894
-0.338306
-0.348844
-0.287370
-0.238856
-0.006903
-0.030177
-0.007383
-0.005398
-0.026765
-0.344882
-0.342274
-0.374353
-0.376774
-0.334106
0.083016
0.108286
-0.359096
-0.346082
-0.350601
0.018694
0.010427
-0.237484
-0.253798
-0.245428
-0.244862
0.004212
0.010595
-0.001577
-0.377951
-0.356715
-0.360387
-0.348522
-0.356017
-0.347382
-0.358957
-0.332328
-0.372953
-0.318230
0.003288
-0.001205
-0.003267
-0.002841
-0.026297
-0.014129
-0.010132
-0.370392
-0.373721
-0.375586
-0.241510
-0.214038
-0.206593
-0.226818
-0.342193
-0.333864
-0.336790
-0.368837
-0.369936
-0.383607
0.112695
0.152350
-0.369528
0.030876
-0.010362
-0.357052
-0.066393
-0.281929
0.120923
-0.376222
-0.352964
-0.023833
-0.387482
-0.382396
0.039147
-0.003849
-0.000711
-0.042452
-0.030814
-0.004955
-0.001086
-0.016361
0.077633
0.146908
0.095209
0.089579
0.120456
0.130026
-0.327497
-0.331945
-0.324932
-0.325431
0.023894
0.014584
0.029398
-0.035617
-0.005503
-0.223100
-0.239483
0.083019
0.061380
-0.381609
-0.372905
-0.369380
-0.366363
-0.005895
-0.056858
-0.051151
-0.040200
0.050014
0.105378
0.052005
0.116912
0.104257
-0.266616
-0.264502
-0.266387
0.029707
-0.338690
-0.333771
-0.359376
-0.248188
-0.199986
-0.035373
-0.008992
-0.021520
-0.013316
-0.285847
-0.255326
-0.264674
-0.263897
-0.275287
-0.264504
-0.001864
0.000599
0.049654
0.053828
0.066333
0.017798
-0.227830
-0.241871
-0.264583
-0.273996
-0.246352
-0.383014
-0.222264
0.033073
0.001687
-0.010407
-0.023411
-0.024851
-0.198288
-0.264553
-0.365322
-0.341613
-0.346164
-0.281911
-0.253331
-0.328822
-0.336665
-0.329824
-0.362325
0.123878
0.063563
0.025911
0.035011
0.042432
-0.014660
-0.020914
0.028357
-0.357930
-0.352552
-0.368524
-0.019165
-0.021532
-0.330086
-0.352469
-0.363623
-0.323736
-0.008315
-0.024161
-0.033175
-0.352115
-0.009241
-0.011488
-0.347132
-0.353172
0.036773
0.023551
0.030913
0.053524
0.002707
0.008849
-0.001304
-0.003241
-0.352731
-0.388406
-0.384783
-0.331315
-0.323861
-0.337227
-0.320604
-0.013107
-0.017128
-0.025399
-0.020164
0.040063
0.071461
0.083293
0.010358
0.011403
0.044616
0.001082
-0.111653
-0.251437
-0.255855
-0.272912
-0.275752
-0.262704
-0.374130
-0.370309
-0.371600
-0.291446
-0.297719
-0.328203
-0.301463
0.110653
0.056772
-0.029549
-0.027697
-0.366170
-0.217098
-0.184907
-0.203031
-0.372376
-0.354105
-0.368538
-0.264193
-0.229440
-0.249486
-0.136948
-0.032501
-0.275333
-0.023941
0.114374
-0.016910
0.105419
0.104017
-0.020601
-0.010683
-0.005438
0.023652
-0.237288
-0.241865
-0.013228
-0.330692
-0.356433
-0.007830
-0.001628
-0.269590
-0.351414
-0.017342
-0.042182
-0.027616
-0.022973
-0.246589
-0.246368
-0.228760
-0.017631
0.000243
-0.384799
-0.014973
0.017465
-0.072749
-0.358468
-0.354366
-0.355985
0.040229
0.002739
-0.012498
-0.335100
0.040337
0.044896
-0.033247
-0.393626
-0.354462
-0.375193
-0.211210
-0.044904
-0.007887
-0.000180
-0.280465
-0.308783
-0.277857
-0.264916
-0.248735
-0.287693
-0.002481
-0.009955
0.019636
0.003070
-0.013682
-0.020820
0.009570
-0.097869
-0.068745
-0.247216
-0.254752
-0.281116
-0.249180
-0.093308
-0.264111
-0.263673
-0.251565
-0.037704
-0.005730
-0.369850
-0.350304
-0.363058
-0.276963
-0.256246
-0.245154
-0.258052
-0.015025
-0.008949
-0.269205
-0.254757
-0.254351
0.098315
0.026419
0.115377
0.000470
-0.372649
-0.236035
-0.014804
0.009322
-0.009246
-0.359531
0.046861
0.032052
0.051991
0.000073
-0.384034
0.004262
0.013459
0.000362
0.019850
0.007823
-0.223469
-0.273337
-0.273785
-0.259086
-0.004294
-0.007349
-0.000707
-0.002789
0.129077
0.136974
0.127339
0.123899
-0.366007
-0.381217
-0.354534
-0.337367
-0.308900
0.020483
0.012019
0.027776
0.006191
0.019721
-0.017003
0.037655
-0.278469
-0.250885
0.068577
0.056290
0.090746
-0.327824
-0.259518
-0.363237
-0.338403
-0.346062
-0.272425
0.095808
0.099776
0.085964
0.080314
-0.081476
-0.285621
-0.293256
-0.332939
0.011766
0.010697
-0.341976
0.030054
0.042137
-0.306169
-0.297628
-0.302374
-0.358454
-0.366385
-0.018060
-0.337717
-0.336920
-0.320568
-0.340015
0.122294
0.113997
0.137846
0.155404
-0.291779
-0.287843
-0.289265
-0.264834
-0.299676
0.013764
0.043405
0.048528
0.088742
0.083019
0.098683
-0.012449
-0.024032
-0.013218
-0.385289
0.040570
-0.359580
-0.368404
-0.352704
-0.355639
-0.352338
-0.347383
-0.291946
-0.369205
0.008135
-0.024688
-0.350832
0.049638
-0.022233
-0.012735
-0.018839
-0.303515
-0.293861
-0.295115
-0.024107
-0.019508
0.012982
0.008357
0.026395
-0.219908
-0.015789
-0.012212
-0.012954
-0.248336
-0.253989
-0.255393
0.069853
0.080307
0.011629
-0.008424
-0.014856
-0.357792
-0.356358
-0.357699
-0.170210
-0.368583
-0.378142
-0.383105
-0.351476
-0.364352
-0.340355
-0.137417
-0.173230
-0.191632
-0.253508
-0.226183
-0.264217
-0.036671
-0.011432
-0.113988
-0.305100
-0.259273
0.025652
-0.017158
0.134749
0.110329
0.097520
0.103625
-0.274150
-0.268486
-0.012285
0.001489
-0.011176
0.031030
0.001038
-0.013437
-0.361807
0.001648
-0.019118
-0.028731
-0.001541
-0.341246
-0.328306
-0.310942
-0.295912
-0.388417
-0.354675
-0.377302
-0.380463
-0.002023
0.002506
0.026934
-0.320809
-0.321362
-0.280183
-0.294868
-0.265449
0.117875
-0.004729
-0.281237
-0.247889
-0.097766
-0.281607
0.092986
0.137502
-0.278896
-0.314054
-0.142476
-0.204485
-0.010529
-0.021765
-0.011150
-0.292413
-0.287781
-0.295645
0.076858
0.163541
0.090821
-0.359697
-0.289395
-0.327237
-0.278905
-0.269666
-0.340947
-0.348314
-0.309324
-0.341630
-0.007621
-0.341945
-0.358826
-0.378175
-0.374494
0.011675
0.025611
0.017511
-0.022708
-0.007371
-0.281997
-0.244604
-0.251665
-0.007187
-0.013208
-0.016987
-0.009082
-0.013680
-0.255871
-0.248216
-0.207568
-0.229925
-0.330891
-0.231286
0.104503
0.116350
0.101166
0.058906
-0.259990
-0.268732
-0.049155
-0.063006
-0.052129
0.008073
-0.000458
0.000078
-0.302335
-0.309388
-0.019716
-0.010018
-0.265605
-0.216172
-0.006144
-0.016497
0.005218
-0.016286
-0.286352
-0.271444
-0.012035
-0.367139
-0.371567
-0.312660
0.004230
0.004564
-0.324759
-0.325137
-0.334190
-0.305016
-0.298659
-0.373393
-0.369435
0.003446
0.003935
-0.009585
-0.344545
-0.350815
-0.373455
0.073985
0.049501
0.066456
0.081073
-0.321187
-0.247642
-0.263557
-0.263094
0.094630
0.086513
0.104290
-0.371207
0.088496
-0.331032
0.010646
0.003000
0.030583
0.033244
0.087960
-0.359742
-0.367058
-0.360296
0.000741
0.004662
0.017226
0.125207
0.130176
0.048741
-0.095139
-0.042652
0.104757
0.112749
0.132513
0.002522
-0.120914
-0.069016
-0.131475
0.047363
-0.013607
0.078906
0.076500
0.028636
-0.268505
-0.010928
-0.008168
-0.006962
-0.012672
-0.015645
-0.230048
0.059797
-0.327234
-0.277809
-0.311000
-0.305799
-0.013722
-0.316367
-0.295687
-0.323848
-0.287103
-0.333335
0.058366
-0.243876
-0.269247
-0.242551
-0.238813
-0.008435
-0.255921
-0.273335
-0.257805
-0.265948
-0.271363
-0.003905
-0.343653
-0.345699
-0.361952
0.001575
-0.365968
-0.372192
-0.004781
0.055638
0.053692
0.075578
-0.339645
0.141508
0.083349
0.051711
-0.366188
-0.362574
-0.362771
0.016145
0.005732
0.003339
-0.366711
-0.267559
-0.224070
-0.274576
-0.301918
-0.315399
-0.323710
-0.374736
-0.363136
-0.361064
-0.335409
-0.256639
-0.281073
0.059241
-0.262907
-0.314308
0.076117
0.084685
0.052896
-0.309540
-0.305453
-0.015810
-0.022213
-0.034282
-0.022683
-0.026012
0.077416
-0.265897
-0.367788
-0.358284
0.023802
-0.009498
-0.003294
-0.372443
-0.371475
-0.366234
0.022776
0.027146
0.021956
-0.286072
-0.278595
-0.290451
-0.286258
-0.251499
-0.268745
-0.008167
-0.001533
0.033545
0.004199
-0.272840
-0.265496
-0.256308
-0.271525
-0.345644
-0.329290
-0.345911
-0.290666
-0.258135
-0.266050
-0.263352
-0.021116
-0.024525
-0.009026
-0.009302
-0.297370
-0.324223
-0.347921
-0.357430
-0.343561
0.129512
-0.021590
-0.033522
0.065736
0.117818
0.012008
-0.333518
0.170310
-0.285788
-0.297104
-0.296111
-0.285403
-0.337271
-0.362169
-0.340153
-0.329169
-0.073634
-0.014133
-0.075792
-0.367545
-0.025427
-0.037630
-0.006007
-0.094702
-0.273985
-0.314160
-0.277130
0.129954
0.127429
0.136180
-0.253448
-0.284433
-0.013684
-0.352269
-0.010327
-0.006720
-0.003313
0.014300
-0.019149
0.009338
0.011631
-0.036447
-0.031726
-0.270455
-0.273216
0.073094
0.083573
0.130538
-0.291587
-0.377566
-0.354551
0.140814
-0.335980
-0.342755
-0.352197
-0.253517
-0.321949
-0.437441
-0.356880
-0.337661
-0.294166
-0.288031
-0.288081
0.042069
-0.182216
-0.002994
-0.011355
-0.261271
-0.282587
-0.270190
-0.315309
-0.304826
-0.317272
-0.218922
-0.272550
-0.338933
-0.369751
-0.360995
-0.320104
-0.334414
-0.322582
0.002959
0.017206
-0.010123
-0.372374
-0.367004
-0.365423
-0.126895
-0.065824
-0.019523
-0.010263
-0.261492
-0.348445
-0.344906
-0.001190
-0.002725
-0.008817
-0.037062
-0.013251
-0.268503
-0.276571
-0.360380
0.014865
0.041330
-0.339878
0.052570
0.065883
0.045010
0.045919
-0.354411
-0.397995
-0.334311
-0.268911
-0.297165
-0.293587
-0.002215
0.005375
-0.210963
-0.148608
-0.242419
-0.213076
-0.113535
-0.215647
-0.288316
-0.275867
-0.014384
-0.015902
-0.010052
0.000755
-0.344315
-0.013395
-0.008458
-0.011962
-0.278381
-0.277261
0.072898
0.128453
0.046907
0.077898
0.076978
0.089059
0.045418
-0.017455
0.008446
-0.006682
0.058085
-0.000385
-0.017401
-0.296099
-0.295013
-0.279369
-0.291452
-0.038210
-0.064486
-0.067683
0.064876
-0.028358
-0.097171
-0.037204
-0.118916
0.064337
0.041285
0.031299
-0.283311
-0.256438
0.083113
0.103798
0.032370
0.018948
0.049161
0.067996
0.034545
0.027865
0.045332
0.087927
0.092088
-0.022794
-0.008786
0.089994
0.014997
0.151027
0.107553
0.033473
0.122174
0.138438
0.157538
-0.048967
-0.269561
-0.279036
-0.263658
-0.247246
-0.289562
0.045013
0.058126
0.076012
0.033054
0.072529
0.112699
0.141209
0.120332
-0.280768
-0.282687
-0.257542
-0.281670
-0.289966
-0.258668
-0.281566
-0.257900
-0.000961
-0.013691
-0.262060
-0.002919
0.130563
0.113065
0.134090
-0.006817
0.004914
-0.149677
0.002281
-0.014623
-0.364716
-0.364317
-0.023338
-0.058403
-0.000949
-0.025730
-0.371402
-0.365405
-0.362391
-0.376349
-0.285807
-0.296120
-0.296881
-0.285878
-0.263938
-0.249898
-0.017005
-0.006070
-0.280383
-0.268027
-0.268662
-0.257818
0.107769
0.115172
0.122852
0.121645
0.058584
-0.256395
-0.254700
-0.270096
0.143504
0.123869
0.127965
-0.026019
-0.026830
-0.010696
-0.050241
-0.080359
-0.102442
-0.028608
-0.049409
-0.144300
-0.101487
-0.278727
-0.277976
-0.018740
0.002232
0.143695
-0.004477
-0.261922
-0.271402
-0.285553
0.050884
-0.362630
-0.267007
-0.004471
0.000296
0.002555
-0.001666
-0.004653
0.002648
-0.272256
-0.310570
-0.019587
-0.028702
0.001600
-0.367731
-0.024582
-0.014924
-0.028187
0.006681
0.003115
-0.278301
-0.281908
0.000957
-0.016032
0.001016
-0.014740
-0.358848
-0.314562
-0.345825
-0.350324
-0.034073
-0.011439
-0.010056
-0.034125
-0.015218
-0.023163
-0.271716
-0.281963
-0.018552
-0.016127
-0.018352
-0.013025
-0.036566
-0.343543
-0.345934
-0.326380
-0.346798
-0.330148
-0.326516
-0.350529
-0.032176
-0.283130
-0.285465
-0.283336
-0.268613
0.109549
0.054043
0.083266
0.086952
0.003165
0.012668
0.001776
-0.010211
-0.006715
-0.006374
-0.020011
-0.232066
-0.127516
-0.135832
-0.145475
0.093590
-0.018679
-0.116063
0.013917
-0.282133
-0.275607
-0.301497
-0.281016
-0.009272
-0.363640
-0.359491
0.059068
0.018798
0.048275
0.050375
-0.012818
-0.279408
-0.279710
-0.016000
-0.171951
-0.008726
-0.000881
-0.014535
0.075114
0.063316
0.065050
-0.292145
-0.267325
-0.355956
-0.385616
-0.288996
-0.279242
0.004643
-0.278092
-0.286814
-0.281631
-0.280113
-0.015324
-0.055615
-0.001206
0.050930
0.063347
0.076248
0.056061
0.064902
-0.007559
-0.002132
-0.003542
-0.013602
-0.042589
-0.037926
-0.285053
-0.016513
-0.030969
-0.014125
-0.005619
-0.002936
0.002643
-0.016701
-0.268908
-0.009820
-0.004228
-0.348855
0.067230
0.070440
0.080826
-0.278875
-0.279195
-0.372516
-0.368439
-0.334376
-0.339514
-0.358195
-0.370180
-0.363087
-0.359634
0.072298
0.093943
-0.019056
-0.271857
-0.285152
-0.025950
-0.031863
-0.016428
0.059977
-0.227136
-0.322424
-0.329942
-0.277420
-0.325600
-0.301975
-0.328116