# vtk DataFile Version 2.0
Test
ASCII
DATASET POLYDATA
POINTS 7607 float
0.000000 0.000000 0.000000
1.000000 0.000000 0.000000
1.000000 0.800000 0.000000
1.000000 1.000000 0.000000
0.000000 1.000000 0.000000
0.000000 0.200000 0.000000
0.300000 0.330000 0.000000
0.700000 0.680000 0.000000
0.012987 0.000000 0.000000
0.025974 0.000000 0.000000
0.038961 0.000000 0.000000
0.051948 0.000000 0.000000
0.064935 0.000000 0.000000
0.077922 0.000000 0.000000
0.090909 0.000000 0.000000
0.103896 0.000000 0.000000
0.116883 0.000000 0.000000
0.129870 0.000000 0.000000
0.142857 0.000000 0.000000
0.155844 0.000000 0.000000
0.168831 0.000000 0.000000
0.181818 0.000000 0.000000
0.194805 0.000000 0.000000
0.207792 0.000000 0.000000
0.220779 0.000000 0.000000
0.233766 0.000000 0.000000
0.246753 0.000000 0.000000
0.259740 0.000000 0.000000
0.272727 0.000000 0.000000
0.285714 0.000000 0.000000
0.298701 0.000000 0.000000
0.311688 0.000000 0.000000
0.324675 0.000000 0.000000
0.337662 0.000000 0.000000
0.350649 0.000000 0.000000
0.363636 0.000000 0.000000
0.376623 0.000000 0.000000
0.389610 0.000000 0.000000
0.402597 0.000000 0.000000
0.415584 0.000000 0.000000
0.428571 0.000000 0.000000
0.441558 0.000000 0.000000
0.454545 0.000000 0.000000
0.467532 0.000000 0.000000
0.480519 0.000000 0.000000
0.493506 0.000000 0.000000
0.506494 0.000000 0.000000
0.519481 0.000000 0.000000
0.532468 0.000000 0.000000
0.545455 0.000000 0.000000
0.558442 0.000000 0.000000
0.571429 0.000000 0.000000
0.584416 0.000000 0.000000
0.597403 0.000000 0.000000
0.610390 0.000000 0.000000
0.623377 0.000000 0.000000
0.636364 0.000000 0.000000
0.649351 0.000000 0.000000
0.662338 0.000000 0.000000
0.675325 0.000000 0.000000
0.688312 0.000000 0.000000
0.701299 0.000000 0.000000
0.714286 0.000000 0.000000
0.727273 0.000000 0.000000
0.740260 0.000000 0.000000
0.753247 0.000000 0.000000
0.766234 0.000000 0.000000
0.779221 0.000000 0.000000
0.792208 0.000000 0.000000
0.805195 0.000000 0.000000
0.818182 0.000000 0.000000
0.831169 0.000000 0.000000
0.844156 0.000000 0.000000
0.857143 0.000000 0.000000
0.870130 0.000000 0.000000
0.883117 0.000000 0.000000
0.896104 0.000000 0.000000
0.909091 0.000000 0.000000
0.922078 0.000000 0.000000
0.935065 0.000000 0.000000
0.948052 0.000000 0.000000
0.961039 0.000000 0.000000
0.974026 0.000000 0.000000
0.987013 0.000000 0.000000
1.000000 0.012903 0.000000
1.000000 0.025806 0.000000
1.000000 0.038710 0.000000
1.000000 0.051613 0.000000
1.000000 0.064516 0.000000
1.000000 0.077419 0.000000
1.000000 0.090323 0.000000
1.000000 0.103226 0.000000
1.000000 0.116129 0.000000
1.000000 0.129032 0.000000
1.000000 0.141935 0.000000
1.000000 0.154839 0.000000
1.000000 0.167742 0.000000
1.000000 0.180645 0.000000
1.000000 0.193548 0.000000
1.000000 0.206452 0.000000
1.000000 0.219355 0.000000
1.000000 0.232258 0.000000
1.000000 0.245161 0.000000
1.000000 0.258065 0.000000
1.000000 0.270968 0.000000
1.000000 0.283871 0.000000
1.000000 0.296774 0.000000
1.000000 0.309677 0.000000
1.000000 0.322581 0.000000
1.000000 0.335484 0.000000
1.000000 0.348387 0.000000
1.000000 0.361290 0.000000
1.000000 0.374194 0.000000
1.000000 0.387097 0.000000
1.000000 0.400000 0.000000
1.000000 0.412903 0.000000
1.000000 0.425806 0.000000
1.000000 0.438710 0.000000
1.000000 0.451613 0.000000
1.000000 0.464516 0.000000
1.000000 0.477419 0.000000
1.000000 0.490323 0.000000
1.000000 0.503226 0.000000
1.000000 0.516129 0.000000
1.000000 0.529032 0.000000
1.000000 0.541935 0.000000
1.000000 0.554839 0.000000
1.000000 0.567742 0.000000
1.000000 0.580645 0.000000
1.000000 0.593548 0.000000
1.000000 0.606452 0.000000
1.000000 0.619355 0.000000
1.000000 0.632258 0.000000
1.000000 0.645161 0.000000
1.000000 0.658065 0.000000
1.000000 0.670968 0.000000
1.000000 0.683871 0.000000
1.000000 0.696774 0.000000
1.000000 0.709677 0.000000
1.000000 0.722581 0.000000
1.000000 0.735484 0.000000
1.000000 0.748387 0.000000
1.000000 0.761290 0.000000
1.000000 0.774194 0.000000
1.000000 0.787097 0.000000
1.000000 0.812500 0.000000
1.000000 0.825000 0.000000
1.000000 0.837500 0.000000
1.000000 0.850000 0.000000
1.000000 0.862500 0.000000
1.000000 0.875000 0.000000
1.000000 0.887500 0.000000
1.000000 0.900000 0.000000
1.000000 0.912500 0.000000
1.000000 0.925000 0.000000
1.000000 0.937500 0.000000
1.000000 0.950000 0.000000
1.000000 0.962500 0.000000
1.000000 0.975000 0.000000
1.000000 0.987500 0.000000
0.987013 1.000000 0.000000
0.974026 1.000000 0.000000
0.961039 1.000000 0.000000
0.948052 1.000000 0.000000
0.935065 1.000000 0.000000
0.922078 1.000000 0.000000
0.909091 1.000000 0.000000
0.896104 1.000000 0.000000
0.883117 1.000000 0.000000
0.870130 1.000000 0.000000
0.857143 1.000000 0.000000
0.844156 1.000000 0.000000
0.831169 1.000000 0.000000
0.818182 1.000000 0.000000
0.805195 1.000000 0.000000
0.792208 1.000000 0.000000
0.779221 1.000000 0.000000
0.766234 1.000000 0.000000
0.753247 1.000000 0.000000
0.740260 1.000000 0.000000
0.727273 1.000000 0.000000
0.714286 1.000000 0.000000
0.701299 1.000000 0.000000
0.688312 1.000000 0.000000
0.675325 1.000000 0.000000
0.662338 1.000000 0.000000
0.649351 1.000000 0.000000
0.636364 1.000000 0.000000
0.623377 1.000000 0.000000
0.610390 1.000000 0.000000
0.597403 1.000000 0.000000
0.584416 1.000000 0.000000
0.571429 1.000000 0.000000
0.558442 1.000000 0.000000
0.545455 1.000000 0.000000
0.532468 1.000000 0.000000
0.519481 1.000000 0.000000
0.506494 1.000000 0.000000
0.493506 1.000000 0.000000
0.480519 1.000000 0.000000
0.467532 1.000000 0.000000
0.454545 1.000000 0.000000
0.441558 1.000000 0.000000
0.428571 1.000000 0.000000
0.415584 1.000000 0.000000
0.402597 1.000000 0.000000
0.389610 1.000000 0.000000
0.376623 1.000000 0.000000
0.363636 1.000000 0.000000
0.350649 1.000000 0.000000
0.337662 1.000000 0.000000
0.324675 1.000000 0.000000
0.311688 1.000000 0.000000
0.298701 1.000000 0.000000
0.285714 1.000000 0.000000
0.272727 1.000000 0.000000
0.259740 1.000000 0.000000
0.246753 1.000000 0.000000
0.233766 1.000000 0.000000
0.220779 1.000000 0.000000
0.207792 1.000000 0.000000
0.194805 1.000000 0.000000
0.181818 1.000000 0.000000
0.168831 1.000000 0.000000
0.155844 1.000000 0.000000
0.142857 1.000000 0.000000
0.129870 1.000000 0.000000
0.116883 1.000000 0.000000
0.103896 1.000000 0.000000
0.090909 1.000000 0.000000
0.077922 1.000000 0.000000
0.064935 1.000000 0.000000
0.051948 1.000000 0.000000
0.038961 1.000000 0.000000
0.025974 1.000000 0.000000
0.012987 1.000000 0.000000
0.000000 0.987097 0.000000
0.000000 0.974194 0.000000
0.000000 0.961290 0.000000
0.000000 0.948387 0.000000
0.000000 0.935484 0.000000
0.000000 0.922581 0.000000
0.000000 0.909677 0.000000
0.000000 0.896774 0.000000
0.000000 0.883871 0.000000
0.000000 0.870968 0.000000
0.000000 0.858065 0.000000
0.000000 0.845161 0.000000
0.000000 0.832258 0.000000
0.000000 0.819355 0.000000
0.000000 0.806452 0.000000
0.000000 0.793548 0.000000
0.000000 0.780645 0.000000
0.000000 0.767742 0.000000
0.000000 0.754839 0.000000
0.000000 0.741935 0.000000
0.000000 0.729032 0.000000
0.000000 0.716129 0.000000
0.000000 0.703226 0.000000
0.000000 0.690323 0.000000
0.000000 0.677419 0.000000
0.000000 0.664516 0.000000
0.000000 0.651613 0.000000
0.000000 0.638710 0.000000
0.000000 0.625806 0.000000
0.000000 0.612903 0.000000
0.000000 0.600000 0.000000
0.000000 0.587097 0.000000
0.000000 0.574194 0.000000
0.000000 0.561290 0.000000
0.000000 0.548387 0.000000
0.000000 0.535484 0.000000
0.000000 0.522581 0.000000
0.000000 0.509677 0.000000
0.000000 0.496774 0.000000
0.000000 0.483871 0.000000
0.000000 0.470968 0.000000
0.000000 0.458065 0.000000
0.000000 0.445161 0.000000
0.000000 0.432258 0.000000
0.000000 0.419355 0.000000
0.000000 0.406452 0.000000
0.000000 0.393548 0.000000
0.000000 0.380645 0.000000
0.000000 0.367742 0.000000
0.000000 0.354839 0.000000
0.000000 0.341935 0.000000
0.000000 0.329032 0.000000
0.000000 0.316129 0.000000
0.000000 0.303226 0.000000
0.000000 0.290323 0.000000
0.000000 0.277419 0.000000
0.000000 0.264516 0.000000
0.000000 0.251613 0.000000
0.000000 0.238710 0.000000
0.000000 0.225806 0.000000
0.000000 0.212903 0.000000
0.000000 0.187500 0.000000
0.000000 0.175000 0.000000
0.000000 0.162500 0.000000
0.000000 0.150000 0.000000
0.000000 0.137500 0.000000
0.000000 0.125000 0.000000
0.000000 0.112500 0.000000
0.000000 0.100000 0.000000
0.000000 0.087500 0.000000
0.000000 0.075000 0.000000
0.000000 0.062500 0.000000
0.000000 0.050000 0.000000
0.000000 0.037500 0.000000
0.000000 0.025000 0.000000
0.000000 0.012500 0.000000
0.309756 0.338537 0.000000
0.319512 0.347073 0.000000
0.329268 0.355610 0.000000
0.339024 0.364146 0.000000
0.348780 0.372683 0.000000
0.358537 0.381220 0.000000
0.368293 0.389756 0.000000
0.378049 0.398293 0.000000
0.387805 0.406829 0.000000
0.397561 0.415366 0.000000
0.407317 0.423902 0.000000
0.417073 0.432439 0.000000
0.426829 0.440976 0.000000
0.436585 0.449512 0.000000
0.446341 0.458049 0.000000
0.456098 0.466585 0.000000
0.465854 0.475122 0.000000
0.475610 0.483659 0.000000
0.485366 0.492195 0.000000
0.495122 0.500732 0.000000
0.504878 0.509268 0.000000
0.514634 0.517805 0.000000
0.524390 0.526341 0.000000
0.534146 0.534878 0.000000
0.543902 0.543415 0.000000
0.553659 0.551951 0.000000
0.563415 0.560488 0.000000
0.573171 0.569024 0.000000
0.582927 0.577561 0.000000
0.592683 0.586098 0.000000
0.602439 0.594634 0.000000
0.612195 0.603171 0.000000
0.621951 0.611707 0.000000
0.631707 0.620244 0.000000
0.641463 0.628780 0.000000
0.651220 0.637317 0.000000
0.660976 0.645854 0.000000
0.670732 0.654390 0.000000
0.680488 0.662927 0.000000
0.690244 0.671463 0.000000
0.011538 0.205000 0.000000
0.023077 0.210000 0.000000
0.034615 0.215000 0.000000
0.046154 0.220000 0.000000
0.057692 0.225000 0.000000
0.069231 0.230000 0.000000
0.080769 0.235000 0.000000
0.092308 0.240000 0.000000
0.103846 0.245000 0.000000
0.115385 0.250000 0.000000
0.126923 0.255000 0.000000
0.138462 0.260000 0.000000
0.150000 0.265000 0.000000
0.161538 0.270000 0.000000
0.173077 0.275000 0.000000
[...]
POINT_DATA 7607
SCALARS UX float 1
LOOKUP_TABLE default
0.002747
0.001722
0.013686
-0.016285
-0.075347
-0.037444
-0.039051
-0.014895
-0.000392
-0.000067
-0.000875
0.000660
0.006308
-0.000221
-0.000091
0.006176
0.000172
0.000221
-0.000110
0.000072
0.000008
-0.000010
-0.000058
0.000088
-0.000057
0.000222
0.000038
-0.000478
-0.000017
-0.000054
-0.000229
-0.004525
0.000089
-0.000068
-0.000007
-0.000209
0.000150
0.000136
0.001413
0.000052
0.000857
-0.000932
-0.000054
0.002869
0.000091
0.000380
-0.001936
-0.000019
-0.000094
0.000018
0.000050
-0.002038
-0.000101
-0.000925
-0.000018
0.000118
-0.000078
-0.000036
-0.000012
-0.000215
-0.000359
0.000104
-0.000095
0.000092
0.003802
0.000133
-0.005095
0.000167
0.001516
-0.000056
-0.000390
-0.000367
-0.004229
-0.000835
0.003695
0.001768
-0.003993
-0.000131
-0.000445
0.000960
0.000196
-0.000057
-0.000075
-0.007721
-0.001414
0.009921
0.004390
0.007846
0.005618
0.006803
0.006059
0.011364
0.022812
0.023664
0.019207
0.025209
0.016813
0.035432
0.018648
0.020303
0.032587
0.033283
0.033118
0.040327
0.034858
0.040859
0.045797
0.032984
0.042849
0.050477
0.041260
0.057996
0.051683
0.052055
0.054191
0.048629
0.059856
0.054998
0.064686
0.050432
0.059526
0.063054
0.055710
0.056196
0.067192
0.056090
0.061705
0.062917
0.051761
0.060482
0.062105
0.049927
0.060996
0.043073
0.047028
0.043106
0.049330
0.040523
0.047167
0.036631
0.034026
0.036910
0.032688
0.032879
0.030374
0.016733
0.019482
0.001123
0.002871
-0.017989
0.004193
-0.003659
-0.005366
-0.001648
-0.006022
-0.011129
-0.010574
0.001645
-0.016778
-0.010833
-0.005388
-0.012663
-0.012645
-0.020822
-0.017696
-0.019307
-0.017857
-0.023623
-0.022220
-0.023464
-0.022710
-0.025613
-0.023266
-0.022707
-0.026769
-0.029377
-0.023494
-0.032664
-0.033209
-0.030475
-0.029710
-0.031454
-0.028685
-0.031566
-0.033137
-0.032995
-0.033980
-0.032923
-0.034995
-0.035464
-0.034383
-0.038821
-0.037253
-0.040483
-0.039378
-0.040119
-0.037896
-0.040013
-0.040987
-0.040176
-0.040078
-0.042731
-0.045834
-0.041000
-0.041885
-0.048281
-0.043847
-0.048355
-0.044093
-0.051832
-0.052484
-0.054866
-0.056148
-0.056259
-0.055069
-0.061503
-0.056184
-0.062427
-0.066273
-0.056702
-0.070215
-0.064554
-0.065674
-0.063910
-0.069862
-0.074947
-0.069627
-0.075241
-0.076835
-0.073652
-0.076045
-0.077033
-0.081226
-0.080538
-0.080627
-0.081162
-0.084859
-0.083818
-0.083821
-0.076491
-0.078961
-0.071832
-0.078080
-0.078080
-0.084078
-0.080518
-0.079421
-0.097709
-0.085774
-0.087849
-0.084203
-0.087329
-0.094465
-0.091278
-0.088825
-0.084434
-0.092512
-0.093333
-0.091509
-0.089663
-0.098168
-0.090740
-0.089724
-0.102154
-0.095342
-0.096828
-0.082075
-0.075581
-0.084942
-0.094974
-0.095071
-0.096618
-0.091413
-0.098138
-0.095978
-0.104224
-0.092723
-0.097272
-0.092201
-0.094385
-0.095158
-0.092816
-0.093683
-0.102554
-0.086465
-0.094510
-0.085997
-0.087013
-0.082852
-0.084511
-0.075163
-0.072622
-0.063216
-0.072172
-0.057052
-0.055151
-0.057404
-0.051014
-0.030559
-0.037170
-0.032445
-0.005298
-0.027518
-0.019110
-0.016650
-0.014691
-0.013759
-0.009220
-0.012989
-0.010916
-0.007217
-0.004032
-0.034664
-0.032219
-0.052121
-0.069043
-0.040335
-0.035453
-0.057713
-0.041241
-0.013636
-0.048180
-0.031098
-0.042857
0.010691
-0.031428
-0.043048
-0.029142
-0.026104
-0.019898
-0.012662
0.004727
-0.002976
0.002939
-0.043444
-0.013291
0.011619
-0.044205
-0.018696
-0.020533
-0.069832
-0.027714
0.011601
0.003969
-0.013365
0.053051
0.028823
0.061768
0.017365
0.004112
-0.031529
-0.022260
-0.040573
-0.059195
-0.033651
-0.054793
-0.051126
-0.067064
-0.061999
-0.042246
-0.059177
-0.027752
-0.057265
-0.038341
-0.061052
-0.048575
-0.042395
-0.082371
-0.047119
-0.048060
-0.052375
-0.074371
-0.049148
-0.055839
-0.068500
-0.049397
-0.065096
-0.000696
0.022974
0.027092
0.029202
0.032031
0.020653
0.023300
-0.003889
0.027554
0.005757
0.023828
0.004942
0.014866
0.023200
0.007825
0.008665
0.014982
0.021334
0.013859
0.019699
0.015636
0.022907
0.031531
-0.001523
-0.023873
-0.030727
-0.032835
-0.029037
0.036834
0.028287
0.022257
-0.067794
-0.072740
-0.087848
-0.064324
-0.061096
-0.051112
-0.007662
0.005419
0.008216
-0.068864
-0.067802
-0.070214
-0.088623
0.023896
0.006994
0.016974
0.007802
-0.032630
-0.016024
-0.040375
-0.025026
0.001036
-0.005307
-0.048411
-0.054651
-0.104221
-0.081514
-0.038199
-0.025827
0.009690
0.002333
-0.003781
-0.003443
-0.069956
-0.069377
-0.077513
-0.080935
-0.004288
0.001164
0.003788
0.005969
0.039460
0.033116
0.044210
-0.021650
-0.026747
0.034610
0.026418
0.009650
0.036406
-0.038379
-0.032030
-0.026796
-0.033001
-0.060525
-0.027132
-0.012683
-0.003525
-0.011773
-0.019388
-0.027726
-0.017762
-0.028291
-0.070637
-0.073126
-0.012704
0.009721
0.025590
-0.003786
-0.009089
-0.009526
-0.048403
-0.046354
-0.049240
-0.015551
-0.035616
-0.034465
-0.022777
0.019313
0.024026
0.003460
0.016350
0.002559
-0.007657
-0.013143
-0.028410
-0.013734
-0.010876
-0.014939
0.024412
0.041468
0.043108
-0.080010
-0.061253
-0.051775
-0.013986
-0.009469
-0.020814
-0.007451
-0.045010
-0.027232
-0.064136
-0.023310
-0.012578
0.007912
0.003572
0.004103
0.038736
0.032376
-0.034261
-0.027968
-0.024996
0.013923
0.017956
0.009359
-0.009630
-0.011214
-0.021919
-0.013354
0.024119
0.020354
0.038491
0.023968
-0.004504
-0.018777
-0.014286
0.001279
-0.001942
-0.005066
-0.084764
-0.068309
-0.071497
-0.095783
-0.032405
-0.054689
-0.045505
-0.038593
-0.016975
-0.026595
-0.025972
-0.023352
0.020082
-0.007033
-0.004360
-0.003529
0.000168
-0.096616
-0.080832
-0.096574
-0.008272
-0.007001
-0.001628
-0.089723
-0.072958
-0.074186
-0.010000
-0.014467
-0.018782
-0.025904
-0.081859
-0.079207
-0.066548
-0.071904
-0.067034
-0.074523
-0.076659
0.054754
0.044390
0.047015
0.050016
0.044070
0.033235
0.040590
0.022149
0.029329
0.023656
-0.044396
-0.036598
-0.027022
-0.038596
-0.035473
-0.034065
-0.005402
-0.013463
-0.008500
-0.004253
0.007937
0.024075
0.000321
-0.022830
-0.009955
-0.020482
-0.031186
-0.066124
-0.072812
-0.073378
-0.059407
0.026961
0.042459
0.023301
0.021767
0.025836
0.022823
0.035455
0.053010
0.047541
0.042625
0.003610
0.061587
-0.086366
-0.078279
-0.081517
-0.009630
-0.013367
-0.012150
-0.002783
0.032916
0.040881
0.046040
0.059030
0.030697
0.034881
0.014418
-0.039037
-0.039101
-0.086813
-0.073710
-0.062306
-0.053095
-0.068282
-0.059137
-0.067983
-0.000530
-0.011981
0.005943
-0.061705
-0.055184
-0.043375
-0.002295
0.016140
-0.011523
0.034934
0.031660
0.047871
-0.003866
-0.011091
-0.013619
-0.011363
-0.014139
-0.074257
-0.080989
-0.006235
-0.012585
-0.002444
0.009310
0.005307
0.000384
-0.012409
-0.001489
0.009346
-0.007824
-0.006663
-0.073898
-0.081980
-0.066419
-0.015345
-0.015720
0.046519
0.043455
0.007694
0.042140
0.015817
0.039920
0.012962
-0.003579
-0.000266
0.007622
-0.077783
-0.086987
-0.098197
-0.075760
-0.091464
-0.071681
-0.100706
-0.060603
0.025575
0.008563
0.018341
0.022402
-0.095206
-0.086567
-0.080256
-0.074051
0.019172
0.054621
0.052865
0.039766
0.029047
-0.020177
-0.014748
-0.015553
0.020756
-0.010283
-0.014697
-0.024537
0.049490
-0.019644
-0.082082
-0.100632
-0.076172
-0.009445
0.007772
-0.008615
-0.057966
-0.063912
-0.052039
-0.009835
-0.007982
0.003961
0.044126
0.024503
0.002300
0.015669
-0.015747
-0.018411
-0.003425
-0.026001
-0.070093
-0.086277
-0.062061
0.014624
0.020741
0.001450
0.013454
0.012143
0.011908
-0.069049
-0.082484
-0.081911
-0.028072
-0.024992
-0.058380
-0.014597
-0.028363
0.040012
0.010561
-0.008201
0.019492
0.018161
0.020220
-0.069935
-0.095512
-0.074030
-0.094308
-0.100307
-0.074538
-0.016505
0.011922
-0.007189
-0.011617
0.055987
0.024020
0.038018
0.055432
0.003378
0.006360
0.025591
0.021816
0.023738
0.025643
-0.050393
-0.050127
-0.025788
0.007312
0.003845
0.005451
0.003192
-0.017904
0.001229
-0.008342
-0.095257
-0.061400
-0.031380
-0.043502
-0.077193
-0.089793
-0.109483
-0.008812
-0.014996
-0.007986
-0.021314
-0.017850
-0.009785
-0.013606
-0.013435
-0.016099
-0.003256
-0.003971
0.006837
-0.004677
-0.059430
-0.073034
-0.070182
0.054723
0.030480
-0.022792
-0.047204
-0.017507
0.004508
-0.012431
0.006331
-0.014503
-0.014695
-0.012052
0.012350
0.018213
0.019724
-0.017305
-0.020773
-0.027167
-0.000689
-0.002734
-0.040767
-0.036033
-0.036145
0.015884
-0.080108
-0.063452
-0.077750
0.069370
0.024801
0.014351
-0.080356
-0.077799
0.038513
0.035190
-0.064580
-0.058900
-0.065854
-0.026976
-0.011535
-0.004509
-0.018723
-0.002492
-0.002674
-0.014189
-0.063513
-0.060523
-0.085501
-0.089779
-0.057182
0.036427
0.045049
-0.087927
-0.080972
-0.082054
0.009701
0.007002
-0.009848
-0.014636
-0.011228
-0.012315
0.004227
0.008513
0.001606
-0.085129
-0.070152
-0.072054
-0.065563
-0.068956
-0.062805
-0.089669
-0.070239
-0.097348
-0.069948
0.001214
-0.003191
-0.001617
-0.001703
-0.015945
-0.007691
-0.004980
-0.085085
-0.085883
-0.085130
-0.017755
0.001304
-0.004481
-0.013948
-0.080163
-0.081366
-0.078715
-0.080119
-0.081858
-0.090905
0.038954
0.061309
-0.095064
0.016815
-0.005364
-0.072362
0.011007
-0.041158
0.054804
-0.083778
-0.067778
-0.010587
-0.091114
-0.088120
0.019397
0.000252
-0.000498
-0.024828
-0.018889
-0.003781
-0.000568
-0.008361
0.035523
0.062416
0.045192
0.041158
0.055310
0.055449
-0.052415
-0.054077
-0.052950
-0.050505
0.016550
0.008921
0.017154
-0.024138
-0.003618
0.001155
-0.008710
0.040161
0.033321
-0.092260
-0.085104
-0.082143
-0.079737
-0.005727
-0.035285
-0.023968
-0.017161
0.028772
0.043895
0.024900
0.042868
0.028257
-0.025628
-0.019772
-0.020875
0.017934
-0.076875
-0.074864
-0.086080
-0.063818
-0.054998
-0.022833
-0.003725
-0.013162
-0.007047
-0.029191
-0.012693
-0.021990
-0.017095
-0.018948
-0.024085
0.000043
0.001830
0.030333
0.027878
0.038238
0.013316
-0.005166
-0.015863
-0.014556
-0.021895
-0.010664
-0.088054
-0.000460
0.023538
0.001025
-0.006614
-0.016958
-0.013439
-0.061823
-0.065246
-0.094707
-0.083701
-0.079392
-0.080481
-0.063746
-0.059288
-0.064807
-0.061878
-0.088699
0.057654
0.033358
0.022820
0.023634
0.020379
-0.009713
-0.010782
0.023158
-0.076681
-0.071380
-0.080907
-0.006147
-0.010178
-0.062484
-0.067840
-0.074931
-0.076243
-0.006974
-0.010826
-0.015171
-0.086018
-0.003354
-0.006048
-0.081366
-0.079725
0.024809
0.018664
0.022264
0.013983
0.003512
0.006061
-0.001559
-0.000687
-0.077792
-0.101310
-0.098513
-0.061953
-0.058046
-0.062410
-0.047727
-0.006352
-0.008331
-0.014839
-0.013334
0.033785
0.028833
0.027975
0.006402
0.018922
0.034098
0.001678
0.012281
-0.011145
-0.015587
-0.022114
-0.024316
-0.023928
-0.086236
-0.083205
-0.083270
-0.033627
-0.038701
-0.052872
-0.037363
0.050043
0.023669
-0.019459
-0.017283
-0.080582
-0.060692
-0.057404
-0.049502
-0.086898
-0.072777
-0.084733
-0.061126
-0.060414
-0.010923
-0.034165
-0.019035
-0.024043
-0.014933
0.042962
-0.008723
0.041100
0.039110
-0.014316
-0.006399
-0.003767
0.011174
-0.006864
-0.008038
-0.008602
-0.069735
-0.087076
-0.007662
-0.000672
-0.024756
-0.067527
-0.024550
-0.022001
-0.015655
-0.011943
-0.013769
-0.013316
0.000313
-0.011084
0.000370
-0.089652
-0.009690
0.008748
-0.027758
-0.071030
-0.068531
-0.088572
0.019555
0.001551
-0.008829
-0.082410
0.019860
0.026328
-0.018022
-0.112303
-0.085361
-0.100950
0.004692
-0.026930
-0.004686
-0.000117
-0.027696
-0.043273
-0.024992
-0.015994
-0.010704
-0.032254
-0.003124
-0.005987
0.011268
0.005366
0.011846
0.019087
0.008117
0.005220
0.021307
-0.012900
-0.018518
-0.025972
-0.014829
-0.040417
-0.018371
-0.016207
-0.013230
-0.021634
-0.005813
-0.082226
-0.066685
-0.076530
-0.066835
-0.063163
-0.063128
-0.060533
-0.009591
-0.003735
-0.024546
-0.013693
-0.011097
0.022495
0.033460
0.033807
0.021157
-0.086772
-0.006481
-0.007377
0.005502
-0.004129
-0.072013
0.026820
0.017524
0.031858
0.000024
-0.088273
0.003476
0.008031
0.002652
0.011940
0.005434
-0.000991
-0.019473
-0.020289
-0.015611
-0.002655
-0.003629
-0.002932
-0.002583
0.054445
0.061164
0.056041
0.053675
-0.076353
-0.086476
-0.068434
-0.044180
-0.043215
0.014361
0.010365
0.022891
0.003242
0.009891
-0.008098
0.027199
-0.029133
-0.068077
0.037166
0.030552
0.051676
-0.088465
-0.064158
-0.087638
-0.069927
-0.076072
-0.022764
0.036625
0.040862
0.030504
0.034426
0.021820
-0.030099
-0.032396
-0.055811
0.006071
0.007310
-0.060609
0.019718
0.021331
-0.041591
-0.035637
-0.040296
-0.073495
-0.076816
-0.010108
-0.057256
-0.057244
-0.048469
-0.060021
0.053575
0.046207
0.059700
0.066209
-0.074661
-0.029944
-0.068263
-0.063654
-0.075238
0.011509
0.026515
0.030118
0.046142
0.043527
0.052111
-0.010057
-0.011844
-0.009793
-0.089787
0.022655
-0.088161
-0.078278
-0.066687
-0.087851
-0.083371
-0.087749
-0.061003
-0.097689
0.003558
-0.011530
-0.080725
0.026538
-0.013050
-0.006718
-0.011492
-0.041957
-0.035993
-0.035220
-0.021951
-0.011661
0.008512
0.007948
0.013394
0.002539
-0.014462
-0.007691
-0.008391
-0.008740
-0.017476
-0.013210
0.033002
0.024318
0.029878
-0.004271
-0.009187
-0.071864
-0.069519
-0.072518
-0.045166
-0.092207
-0.099072
-0.100601
-0.067063
-0.075845
-0.059306
-0.001778
0.004474
-0.006959
-0.062860
-0.056811
-0.067238
-0.021217
-0.009018
-0.037042
-0.032191
-0.016374
0.013285
-0.010055
0.049270
0.044042
0.033218
0.039667
-0.019124
-0.019132
-0.006151
-0.001611
-0.007759
0.019286
0.000962
-0.003502
-0.073020
0.003618
-0.012071
-0.016802
-0.000487
-0.058478
-0.051001
-0.064386
-0.058727
-0.114596
-0.068918
-0.083943
-0.087336
-0.001950
0.001334
0.011661
-0.083141
-0.080286
-0.071883
-0.080138
-0.020289
0.027601
0.017828
-0.028098
-0.014416
0.011365
-0.025975
0.044189
0.048553
-0.026156
-0.044589
-0.040390
-0.052321
-0.006466
-0.013605
-0.007581
-0.034656
-0.031532
-0.037268
0.033929
0.090874
0.044361
-0.071450
-0.064386
-0.070214
-0.071963
-0.031270
-0.070003
-0.072723
-0.068420
-0.086294
-0.008100
-0.066287
-0.071501
-0.085142
-0.081427
0.004116
0.013126
0.011390
-0.009363
-0.010100
-0.027127
-0.010720
-0.009232
-0.003728
-0.009482
-0.010274
-0.006930
-0.007845
-0.015403
-0.009994
-0.052259
-0.064037
-0.082081
-0.053981
0.036700
0.042321
0.043542
0.029238
-0.014297
-0.019197
-0.028740
-0.025557
-0.024162
0.006178
0.000214
-0.001448
-0.076822
-0.076969
-0.012645
-0.006774
-0.018570
0.001416
-0.006997
-0.010454
0.005020
-0.010097
-0.026899
-0.024065
-0.008189
-0.077516
-0.080221
-0.081020
0.001317
0.002350
-0.057526
-0.056171
-0.058978
-0.072283
-0.074422
-0.081451
-0.077897
0.004202
0.002924
-0.006965
-0.061564
-0.067799
-0.084629
0.024946
0.022530
0.025265
0.031863
-0.052497
-0.063552
-0.063842
-0.061812
0.049164
0.045803
0.055256
-0.080344
0.047340
-0.053090
0.004940
0.024424
0.024661
0.021034
0.037008
-0.072895
-0.077881
-0.072768
0.000650
0.002138
0.011421
0.046216
0.055729
0.014406
-0.036366
-0.025117
0.037254
0.038892
0.051393
-0.005280
-0.037967
-0.032854
-0.062865
0.029331
-0.008239
0.037761
0.042627
0.019767
-0.024311
-0.009389
-0.005011
-0.004381
-0.009053
-0.010425
-0.004775
0.037959
-0.082355
-0.080620
-0.072408
-0.054895
-0.007273
-0.078792
-0.073274
-0.076762
-0.069920
-0.078793
0.028899
-0.009063
-0.022356
-0.013888
-0.010293
-0.006694
-0.014803
-0.022787
-0.011927
-0.020293
-0.023945
-0.000481
-0.062499
-0.063452
-0.074989
0.000284
-0.075363
-0.082789
-0.002422
0.033235
0.024691
0.054782
-0.082877
0.052022
0.030648
0.025031
-0.076957
-0.074332
-0.074981
0.007588
0.001796
0.002197
-0.097409
-0.021418
-0.057750
-0.024577
-0.041295
-0.044140
-0.049942
-0.094967
-0.092813
-0.090500
-0.073141
-0.065245
-0.027120
0.022535
-0.020326
-0.072005
0.040648
0.045818
0.029402
-0.042547
-0.040339
-0.011322
-0.013449
-0.020472
-0.014656
-0.016532
0.040577
-0.021634
-0.077448
-0.072541
0.012253
-0.006221
-0.002473
-0.081453
-0.080185
-0.077007
0.012419
0.013128
0.008652
-0.027949
-0.027013
-0.033678
-0.030672
-0.012828
-0.022265
-0.004002
-0.001916
0.017023
0.003684
-0.023614
-0.019371
-0.015838
-0.022219
-0.075399
-0.082399
-0.083922
-0.066577
-0.018518
-0.020061
-0.018768
-0.013501
-0.014639
-0.004762
-0.006077
-0.039019
-0.052050
-0.069214
-0.089426
-0.087704
0.047144
-0.014712
-0.018431
0.028843
0.039134
0.010645
-0.093303
0.050650
-0.031157
-0.037083
-0.035557
-0.029893
-0.062503
-0.074062
-0.062458
-0.055390
-0.035336
-0.008534
-0.040796
-0.077187
-0.014407
-0.021895
-0.003401
-0.037150
-0.025201
-0.076435
-0.026882
0.056841
0.051136
0.059665
-0.013241
-0.029120
-0.010247
-0.068066
-0.004694
-0.002875
0.000621
0.008790
-0.008990
0.007190
0.006086
-0.021273
-0.014221
-0.023117
-0.024956
0.036154
0.042746
0.065134
-0.058128
-0.100127
-0.086322
0.069230
-0.081556
-0.081163
-0.091050
-0.063549
-0.085765
-0.087894
-0.089964
-0.100000
-0.035795
-0.031641
-0.031915
0.033216
-0.022013
-0.001895
-0.007436
-0.017672
-0.030657
-0.021188
-0.043781
-0.040884
-0.047999
-0.005367
-0.019153
-0.074580
-0.093940
-0.088411
-0.066662
-0.071435
-0.071360
0.002110
0.012985
-0.005658
-0.083796
-0.081179
-0.079865
0.020885
0.009226
-0.013534
-0.005132
-0.017428
-0.080827
-0.077161
-0.000820
-0.001726
-0.005269
-0.021320
-0.009418
-0.023936
-0.027659
-0.090357
0.008816
0.019938
-0.080319
0.029437
0.035700
0.022615
0.023953
-0.083993
-0.108180
-0.067635
-0.022844
-0.034039
-0.027700
-0.001105
0.003612
-0.003971
0.007113
-0.012654
-0.008257
0.006944
-0.009336
-0.033876
-0.024728
-0.010104
-0.009944
-0.005770
-0.000300
-0.077161
-0.005721
-0.003880
-0.005468
-0.026037
-0.026200
0.036790
0.051211
0.023596
0.036670
0.034570
0.040464
0.028279
-0.011830
0.005133
-0.004309
0.035213
0.001101
-0.010979
-0.035554
-0.038082
-0.026803
-0.034718
-0.024733
-0.026985
-0.029038
0.036818
-0.015472
-0.038002
-0.023399
-0.037043
0.035275
0.023757
0.017516
-0.027291
-0.017189
0.029116
0.063003
0.030221
0.008555
0.018955
0.024105
0.025675
0.013534
0.025339
0.046431
0.046670
-0.015231
-0.005787
0.036125
0.005983
0.073186
0.052824
0.016174
0.057659
0.061806
0.069075
-0.025284
-0.022446
-0.027351
-0.021531
-0.013489
-0.034371
0.023559
0.031958
0.039265
0.021024
0.038956
0.051266
0.060628
0.053436
-0.027370
-0.028086
-0.018334
-0.027660
-0.032155
-0.017883
-0.032110
-0.014563
0.000262
-0.010285
-0.018878
-0.002358
0.058554
0.049877
0.062638
0.026415
0.012370
0.005699
-0.000138
-0.010408
-0.076706
-0.076709
-0.014996
-0.029603
-0.003618
-0.013289
-0.083349
-0.078976
-0.076482
-0.087009
-0.032139
-0.037999
-0.036332
-0.030634
-0.016902
-0.013404
-0.010876
-0.004244
-0.029249
-0.021160
-0.021373
-0.014012
0.046431
0.049261
0.051298
0.052699
0.034197
-0.013851
-0.014704
-0.025139
0.063614
0.054238
0.055235
-0.016256
-0.015488
-0.008319
-0.021724
-0.038468
-0.033935
-0.029974
-0.029811
-0.046260
-0.039639
-0.027924
-0.025786
-0.012544
0.000577
0.061015
-0.008102
-0.016520
-0.023705
-0.030644
0.028120
-0.075712
-0.019840
-0.002730
-0.000146
0.002023
-0.000664
-0.003292
0.002036
-0.026169
-0.042158
-0.012407
-0.016389
0.000421
-0.076282
-0.018044
-0.007566
-0.015151
0.003977
0.002910
-0.027148
-0.029955
0.000857
-0.009695
0.002035
-0.010015
-0.071995
-0.047187
-0.066242
-0.070386
-0.021185
-0.008836
-0.004809
-0.017183
-0.012908
-0.014711
-0.022322
-0.028553
-0.011556
-0.009998
-0.012716
-0.009307
-0.020742
-0.069067
-0.068988
-0.057906
-0.075941
-0.066484
-0.064344
-0.081300
-0.017434
-0.031033
-0.031565
-0.030290
-0.020377
0.062163
0.030677
0.041137
0.043224
0.002682
0.007239
-0.000226
-0.006358
-0.004500
-0.005140
-0.012461
-0.005097
-0.031236
-0.045059
-0.045647
0.027656
-0.001293
-0.031455
0.008621
-0.030105
-0.025639
-0.039091
-0.028264
-0.005831
-0.087489
-0.080860
0.024754
0.008386
0.032436
0.028664
-0.007257
-0.027290
-0.026847
-0.010929
-0.104219
-0.006025
-0.000182
-0.009136
0.039612
0.033894
0.035097
-0.062195
-0.036563
-0.054637
-0.064257
-0.033119
-0.025799
0.003061
-0.024770
-0.031775
-0.028895
-0.028566
-0.012584
-0.029857
-0.000341
0.029652
0.035000
0.042070
0.031044
0.036129
-0.003549
0.001045
-0.000563
-0.007732
-0.024662
-0.018822
-0.032296
-0.012279
-0.017599
-0.009131
-0.004141
-0.002006
0.002251
-0.011820
-0.022002
-0.006543
-0.003154
-0.078808
0.033660
0.037689
0.040325
-0.027887
-0.027888
-0.082615
-0.079402
-0.054073
-0.057374
-0.090994
-0.093356
-0.092511
-0.089645
0.037236
0.044798
-0.013727
-0.023181
-0.029687
0.015651
-0.018705
-0.008100
0.032775
0.017995
-0.055288
-0.054185
-0.024061
-0.077554
-0.070894
-0.079443
-0.086606
-0.058916
-0.103335
-0.083244
-0.058219
-0.017898