# vtk DataFile Version 2.0
Test
ASCII
DATASET POLYDATA
POINTS 7607 float
0.000000 0.000000 0.000000
1.000000 0.000000 0.000000
1.000000 0.800000 0.000000
1.000000 1.000000 0.000000
0.000000 1.000000 0.000000
0.000000 0.200000 0.000000
0.300000 0.330000 0.000000
0.700000 0.680000 0.000000
0.012987 0.000000 0.000000
0.025974 0.000000 0.000000
0.038961 0.000000 0.000000
0.051948 0.000000 0.000000
0.064935 0.000000 0.000000
0.077922 0.000000 0.000000
0.090909 0.000000 0.000000
0.103896 0.000000 0.000000
0.116883 0.000000 0.000000
0.129870 0.000000 0.000000
0.142857 0.000000 0.000000
0.155844 0.000000 0.000000
0.168831 0.000000 0.000000
0.181818 0.000000 0.000000
0.194805 0.000000 0.000000
0.207792 0.000000 0.000000
0.220779 0.000000 0.000000
0.233766 0.000000 0.000000
0.246753 0.000000 0.000000
0.259740 0.000000 0.000000
0.272727 0.000000 0.000000
0.285714 0.000000 0.000000
0.298701 0.000000 0.000000
0.311688 0.000000 0.000000
0.324675 0.000000 0.000000
0.337662 0.000000 0.000000
0.350649 0.000000 0.000000
0.363636 0.000000 0.000000
0.376623 0.000000 0.000000
0.389610 0.000000 0.000000
0.402597 0.000000 0.000000
0.415584 0.000000 0.000000
0.428571 0.000000 0.000000
0.441558 0.000000 0.000000
0.454545 0.000000 0.000000
0.467532 0.000000 0.000000
0.480519 0.000000 0.000000
0.493506 0.000000 0.000000
0.506494 0.000000 0.000000
0.519481 0.000000 0.000000
0.532468 0.000000 0.000000
0.545455 0.000000 0.000000
0.558442 0.000000 0.000000
0.571429 0.000000 0.000000
0.584416 0.000000 0.000000
0.597403 0.000000 0.000000
0.610390 0.000000 0.000000
0.623377 0.000000 0.000000
0.636364 0.000000 0.000000
0.649351 0.000000 0.000000
0.662338 0.000000 0.000000
0.675325 0.000000 0.000000
0.688312 0.000000 0.000000
0.701299 0.000000 0.000000
0.714286 0.000000 0.000000
0.727273 0.000000 0.000000
0.740260 0.000000 0.000000
0.753247 0.000000 0.000000
0.766234 0.000000 0.000000
0.779221 0.000000 0.000000
0.792208 0.000000 0.000000
0.805195 0.000000 0.000000
0.818182 0.000000 0.000000
0.831169 0.000000 0.000000
0.844156 0.000000 0.000000
0.857143 0.000000 0.000000
0.870130 0.000000 0.000000
0.883117 0.000000 0.000000
0.896104 0.000000 0.000000
0.909091 0.000000 0.000000
0.922078 0.000000 0.000000
0.935065 0.000000 0.000000
0.948052 0.000000 0.000000
0.961039 0.000000 0.000000
0.974026 0.000000 0.000000
0.987013 0.000000 0.000000
1.000000 0.012903 0.000000
1.000000 0.025806 0.000000
1.000000 0.038710 0.000000
1.000000 0.051613 0.000000
1.000000 0.064516 0.000000
1.000000 0.077419 0.000000
1.000000 0.090323 0.000000
1.000000 0.103226 0.000000
1.000000 0.116129 0.000000
1.000000 0.129032 0.000000
1.000000 0.141935 0.000000
1.000000 0.154839 0.000000
1.000000 0.167742 0.000000
1.000000 0.180645 0.000000
1.000000 0.193548 0.000000
1.000000 0.206452 0.000000
1.000000 0.219355 0.000000
1.000000 0.232258 0.000000
1.000000 0.245161 0.000000
1.000000 0.258065 0.000000
1.000000 0.270968 0.000000
1.000000 0.283871 0.000000
1.000000 0.296774 0.000000
1.000000 0.309677 0.000000
1.000000 0.322581 0.000000
1.000000 0.335484 0.000000
1.000000 0.348387 0.000000
1.000000 0.361290 0.000000
1.000000 0.374194 0.000000
1.000000 0.387097 0.000000
1.000000 0.400000 0.000000
1.000000 0.412903 0.000000
1.000000 0.425806 0.000000
1.000000 0.438710 0.000000
1.000000 0.451613 0.000000
1.000000 0.464516 0.000000
1.000000 0.477419 0.000000
1.000000 0.490323 0.000000
1.000000 0.503226 0.000000
1.000000 0.516129 0.000000
1.000000 0.529032 0.000000
1.000000 0.541935 0.000000
1.000000 0.554839 0.000000
1.000000 0.567742 0.000000
1.000000 0.580645 0.000000
1.000000 0.593548 0.000000
1.000000 0.606452 0.000000
1.000000 0.619355 0.000000
1.000000 0.632258 0.000000
1.000000 0.645161 0.000000
1.000000 0.658065 0.000000
1.000000 0.670968 0.000000
1.000000 0.683871 0.000000
1.000000 0.696774 0.000000
1.000000 0.709677 0.000000
1.000000 0.722581 0.000000
1.000000 0.735484 0.000000
1.000000 0.748387 0.000000
1.000000 0.761290 0.000000
1.000000 0.774194 0.000000
1.000000 0.787097 0.000000
1.000000 0.812500 0.000000
1.000000 0.825000 0.000000
1.000000 0.837500 0.000000
1.000000 0.850000 0.000000
1.000000 0.862500 0.000000
1.000000 0.875000 0.000000
1.000000 0.887500 0.000000
1.000000 0.900000 0.000000
1.000000 0.912500 0.000000
1.000000 0.925000 0.000000
1.000000 0.937500 0.000000
1.000000 0.950000 0.000000
1.000000 0.962500 0.000000
1.000000 0.975000 0.000000
1.000000 0.987500 0.000000
0.987013 1.000000 0.000000
0.974026 1.000000 0.000000
0.961039 1.000000 0.000000
0.948052 1.000000 0.000000
0.935065 1.000000 0.000000
0.922078 1.000000 0.000000
0.909091 1.000000 0.000000
0.896104 1.000000 0.000000
0.883117 1.000000 0.000000
0.870130 1.000000 0.000000
0.857143 1.000000 0.000000
0.844156 1.000000 0.000000
0.831169 1.000000 0.000000
0.818182 1.000000 0.000000
0.805195 1.000000 0.000000
0.792208 1.000000 0.000000
0.779221 1.000000 0.000000
0.766234 1.000000 0.000000
0.753247 1.000000 0.000000
0.740260 1.000000 0.000000
0.727273 1.000000 0.000000
0.714286 1.000000 0.000000
0.701299 1.000000 0.000000
0.688312 1.000000 0.000000
0.675325 1.000000 0.000000
0.662338 1.000000 0.000000
0.649351 1.000000 0.000000
0.636364 1.000000 0.000000
0.623377 1.000000 0.000000
0.610390 1.000000 0.000000
0.597403 1.000000 0.000000
0.584416 1.000000 0.000000
0.571429 1.000000 0.000000
0.558442 1.000000 0.000000
0.545455 1.000000 0.000000
0.532468 1.000000 0.000000
0.519481 1.000000 0.000000
0.506494 1.000000 0.000000
0.493506 1.000000 0.000000
0.480519 1.000000 0.000000
0.467532 1.000000 0.000000
0.454545 1.000000 0.000000
0.441558 1.000000 0.000000
0.428571 1.000000 0.000000
0.415584 1.000000 0.000000
0.402597 1.000000 0.000000
0.389610 1.000000 0.000000
0.376623 1.000000 0.000000
0.363636 1.000000 0.000000
0.350649 1.000000 0.000000
0.337662 1.000000 0.000000
0.324675 1.000000 0.000000
0.311688 1.000000 0.000000
0.298701 1.000000 0.000000
0.285714 1.000000 0.000000
0.272727 1.000000 0.000000
0.259740 1.000000 0.000000
0.246753 1.000000 0.000000
0.233766 1.000000 0.000000
0.220779 1.000000 0.000000
0.207792 1.000000 0.000000
0.194805 1.000000 0.000000
0.181818 1.000000 0.000000
0.168831 1.000000 0.000000
0.155844 1.000000 0.000000
0.142857 1.000000 0.000000
0.129870 1.000000 0.000000
0.116883 1.000000 0.000000
0.103896 1.000000 0.000000
0.090909 1.000000 0.000000
0.077922 1.000000 0.000000
0.064935 1.000000 0.000000
0.051948 1.000000 0.000000
0.038961 1.000000 0.000000
0.025974 1.000000 0.000000
0.012987 1.000000 0.000000
0.000000 0.987097 0.000000
0.000000 0.974194 0.000000
0.000000 0.961290 0.000000
0.000000 0.948387 0.000000
0.000000 0.935484 0.000000
0.000000 0.922581 0.000000
0.000000 0.909677 0.000000
0.000000 0.896774 0.000000
0.000000 0.883871 0.000000
0.000000 0.870968 0.000000
0.000000 0.858065 0.000000
0.000000 0.845161 0.000000
0.000000 0.832258 0.000000
0.000000 0.819355 0.000000
0.000000 0.806452 0.000000
0.000000 0.793548 0.000000
0.000000 0.780645 0.000000
0.000000 0.767742 0.000000
0.000000 0.754839 0.000000
0.000000 0.741935 0.000000
0.000000 0.729032 0.000000
0.000000 0.716129 0.000000
0.000000 0.703226 0.000000
0.000000 0.690323 0.000000
0.000000 0.677419 0.000000
0.000000 0.664516 0.000000
0.000000 0.651613 0.000000
0.000000 0.638710 0.000000
0.000000 0.625806 0.000000
0.000000 0.612903 0.000000
0.000000 0.600000 0.000000
0.000000 0.587097 0.000000
0.000000 0.574194 0.000000
0.000000 0.561290 0.000000
0.000000 0.548387 0.000000
0.000000 0.535484 0.000000
0.000000 0.522581 0.000000
0.000000 0.509677 0.000000
0.000000 0.496774 0.000000
0.000000 0.483871 0.000000
0.000000 0.470968 0.000000
0.000000 0.458065 0.000000
0.000000 0.445161 0.000000
0.000000 0.432258 0.000000
0.000000 0.419355 0.000000
0.000000 0.406452 0.000000
0.000000 0.393548 0.000000
0.000000 0.380645 0.000000
0.000000 0.367742 0.000000
0.000000 0.354839 0.000000
0.000000 0.341935 0.000000
0.000000 0.329032 0.000000
0.000000 0.316129 0.000000
0.000000 0.303226 0.000000
0.000000 0.290323 0.000000
0.000000 0.277419 0.000000
0.000000 0.264516 0.000000
0.000000 0.251613 0.000000
0.000000 0.238710 0.000000
0.000000 0.225806 0.000000
0.000000 0.212903 0.000000
0.000000 0.187500 0.000000
0.000000 0.175000 0.000000
0.000000 0.162500 0.000000
0.000000 0.150000 0.000000
0.000000 0.137500 0.000000
0.000000 0.125000 0.000000
0.000000 0.112500 0.000000
0.000000 0.100000 0.000000
0.000000 0.087500 0.000000
0.000000 0.075000 0.000000
0.000000 0.062500 0.000000
0.000000 0.050000 0.000000
0.000000 0.037500 0.000000
0.000000 0.025000 0.000000
0.000000 0.012500 0.000000
0.309756 0.338537 0.000000
0.319512 0.347073 0.000000
0.329268 0.355610 0.000000
0.339024 0.364146 0.000000
0.348780 0.372683 0.000000
0.358537 0.381220 0.000000
0.368293 0.389756 0.000000
0.378049 0.398293 0.000000
0.387805 0.406829 0.000000
0.397561 0.415366 0.000000
0.407317 0.423902 0.000000
0.417073 0.432439 0.000000
0.426829 0.440976 0.000000
0.436585 0.449512 0.000000
0.446341 0.458049 0.000000
0.456098 0.466585 0.000000
0.465854 0.475122 0.000000
0.475610 0.483659 0.000000
0.485366 0.492195 0.000000
0.495122 0.500732 0.000000
0.504878 0.509268 0.000000
0.514634 0.517805 0.000000
0.524390 0.526341 0.000000
0.534146 0.534878 0.000000
0.543902 0.543415 0.000000
0.553659 0.551951 0.000000
0.563415 0.560488 0.000000
0.573171 0.569024 0.000000
0.582927 0.577561 0.000000
0.592683 0.586098 0.000000
0.602439 0.594634 0.000000
0.612195 0.603171 0.000000
0.621951 0.611707 0.000000
0.631707 0.620244 0.000000
0.641463 0.628780 0.000000
0.651220 0.637317 0.000000
0.660976 0.645854 0.000000
0.670732 0.654390 0.000000
0.680488 0.662927 0.000000
0.690244 0.671463 0.000000
0.011538 0.205000 0.000000
0.023077 0.210000 0.000000
0.034615 0.215000 0.000000
0.046154 0.220000 0.000000
0.057692 0.225000 0.000000
0.069231 0.230000 0.000000
0.080769 0.235000 0.000000
0.092308 0.240000 0.000000
0.103846 0.245000 0.000000
0.115385 0.250000 0.000000
0.126923 0.255000 0.000000
0.138462 0.260000 0.000000
0.150000 0.265000 0.000000
0.161538 0.270000 0.000000
0.173077 0.275000 0.000000
[...]
POINT_DATA 7607
SCALARS UX float 1
LOOKUP_TABLE default
0.006062
0.002188
-0.054284
-0.460177
-0.547282
-0.129082
0.079455
-0.290868
-0.002120
0.000125
0.002365
0.001337
0.010461
0.000295
-0.000211
0.009955
0.000262
0.001031
-0.000284
0.000076
0.000166
-0.000079
-0.000162
0.000175
-0.000093
0.000239
0.000089
-0.001282
-0.000183
-0.000153
-0.000544
-0.007269
0.000200
-0.000181
-0.000164
-0.000353
0.000303
0.000179
0.001888
0.000045
0.000277
-0.001957
0.000098
0.003342
0.000185
-0.000211
-0.002467
-0.000035
-0.000377
0.000089
0.000026
-0.003709
-0.000241
-0.000819
-0.000133
-0.000776
0.000077
-0.000068
0.000069
-0.000971
-0.001511
0.000449
-0.000318
-0.000397
0.004268
0.000841
-0.007631
0.000329
0.002399
0.000521
-0.001152
-0.000625
-0.005881
-0.000002
0.005439
0.003141
-0.006436
0.000037
-0.000841
0.001973
0.000191
0.000685
-0.000199
-0.012277
-0.001102
0.016598
0.009968
0.019157
0.009787
0.021451
0.010457
0.024344
0.044034
0.047068
0.035513
0.051720
0.035703
0.064222
0.036522
0.041607
0.061260
0.066006
0.061393
0.078367
0.068395
0.079313
0.088278
0.066677
0.084143
0.100422
0.082588
0.115936
0.104474
0.105107
0.113566
0.100884
0.126513
0.116471
0.141227
0.111416
0.135426
0.146411
0.127956
0.137649
0.167648
0.141854
0.161481
0.165055
0.151058
0.167895
0.177020
0.154339
0.190244
0.148413
0.155521
0.177294
0.167645
0.166803
0.187716
0.141318
0.160006
0.084666
0.146815
0.219418
0.033221
-0.112034
-0.133217
-0.251135
-0.296166
-0.438610
-0.326945
-0.426420
-0.396860
-0.440395
-0.427800
-0.443370
-0.444981
-0.418701
-0.466211
-0.449994
-0.441610
-0.455505
-0.454833
-0.473966
-0.471607
-0.469108
-0.463055
-0.476844
-0.471584
-0.473044
-0.472149
-0.473280
-0.472807
-0.468093
-0.477214
-0.477830
-0.470461
-0.485102
-0.482915
-0.480002
-0.480079
-0.481890
-0.479611
-0.483152
-0.485761
-0.483224
-0.488842
-0.486472
-0.488540
-0.491907
-0.488274
-0.497500
-0.495993
-0.499269
-0.500965
-0.499837
-0.497588
-0.501532
-0.502100
-0.501398
-0.502299
-0.504420
-0.511469
-0.502090
-0.503536
-0.514162
-0.506286
-0.514048
-0.508876
-0.518398
-0.520655
-0.523906
-0.525448
-0.526786
-0.524175
-0.532520
-0.525976
-0.533722
-0.538104
-0.527864
-0.541198
-0.537217
-0.537200
-0.534208
-0.542932
-0.545437
-0.542901
-0.547453
-0.547563
-0.546296
-0.545702
-0.548399
-0.551817
-0.551687
-0.551400
-0.553767
-0.554842
-0.554772
-0.555195
-0.544341
-0.550890
-0.541385
-0.547252
-0.547906
-0.550186
-0.548012
-0.545226
-0.561624
-0.549605
-0.549567
-0.545251
-0.547123
-0.553156
-0.547647
-0.544147
-0.536261
-0.545080
-0.543898
-0.539877
-0.536848
-0.543581
-0.531732
-0.534110
-0.541676
-0.536152
-0.534077
-0.510292
-0.499020
-0.514071
-0.526124
-0.529036
-0.529243
-0.518323
-0.531639
-0.527908
-0.540333
-0.521225
-0.530893
-0.521756
-0.524951
-0.528149
-0.525312
-0.529214
-0.537279
-0.523616
-0.532379
-0.509789
-0.539003
-0.504561
-0.523073
-0.488095
-0.496616
-0.457054
-0.469870
-0.444047
-0.306279
-0.430313
-0.335752
-0.121787
-0.199961
-0.100230
0.023380
-0.061899
-0.042689
-0.024666
-0.023854
-0.021886
-0.011100
-0.014044
-0.019069
-0.005238
-0.007042
-0.011383
-0.056417
-0.400516
-0.345902
-0.534203
-0.332145
-0.491874
-0.122264
0.041153
-0.342569
-0.212494
-0.322110
-0.203003
-0.093042
-0.063873
-0.018176
0.104171
-0.117393
-0.180143
-0.273573
-0.184505
-0.200824
-0.364482
-0.271294
-0.262150
-0.247368
-0.328969
-0.331934
-0.403085
-0.211755
-0.318290
-0.207758
-0.198896
-0.113429
-0.127826
-0.171480
-0.354483
-0.261760
-0.375602
-0.463380
-0.259101
-0.479626
-0.064256
-0.368273
-0.211914
-0.447916
-0.491157
-0.332729
-0.290862
-0.068187
-0.294401
-0.159122
-0.287471
-0.368105
-0.217762
-0.468169
-0.359363
-0.148066
-0.074985
-0.406906
-0.131579
-0.305658
-0.355465
0.029299
-0.515317
-0.155827
0.120514
-0.155551
0.286552
-0.167596
0.403860
-0.065027
-0.122428
-0.118424
-0.180456
0.036150
-0.118701
-0.169420
0.032459
-0.139109
0.038972
-0.048433
-0.173441
0.221601
-0.118862
-0.149841
-0.005763
-0.003286
-0.162284
-0.477150
-0.488886
-0.491611
-0.482194
0.071646
0.080530
0.070020
-0.473865
-0.564314
-0.030595
-0.505075
-0.403126
-0.269156
-0.017375
0.010067
0.013460
-0.507697
-0.538459
-0.540680
-0.559033
0.042914
0.015983
0.025804
0.011126
-0.036880
-0.017988
-0.105812
-0.079565
0.005617
-0.000851
-0.400229
-0.433696
-0.611167
-0.486364
-0.115154
-0.074292
0.015589
0.001135
-0.004602
-0.004987
-0.540517
-0.539176
-0.547707
-0.551392
-0.276342
-0.455712
-0.135424
-0.236559
0.166150
0.117543
0.126266
-0.475989
-0.486386
0.117024
0.047033
0.022431
0.071654
-0.499148
-0.484417
-0.473702
0.029193
-0.504720
-0.476521
-0.438279
-0.419151
-0.416486
-0.017118
-0.049321
-0.021929
-0.485066
-0.541322
-0.542601
-0.024853
0.023692
0.050170
0.000401
-0.010188
-0.011442
-0.513679
-0.512741
-0.514767
-0.020940
-0.490996
-0.485307
-0.465756
0.036158
0.042285
0.004946
0.037989
0.004137
-0.008296
-0.016551
-0.081636
-0.042113
-0.027688
-0.015852
0.095275
0.165869
0.196682
-0.518593
-0.142851
-0.340250
-0.398947
-0.326475
-0.455426
-0.434420
-0.509590
-0.490414
-0.524711
-0.457213
-0.016489
0.009508
0.005625
0.006766
0.062585
0.064690
-0.482509
-0.478779
-0.470088
0.022884
0.037465
0.013551
-0.456413
-0.437426
-0.469351
-0.455285
0.041953
0.105055
0.136679
0.108379
-0.006120
-0.487499
-0.026852
-0.004389
-0.001977
-0.005420
-0.488439
-0.440719
-0.462048
-0.492060
-0.488009
-0.524467
-0.509163
-0.497613
-0.462928
-0.474550
-0.480072
-0.468145
-0.374736
-0.008298
-0.004521
-0.002546
-0.000337
-0.528523
-0.501381
-0.529417
-0.010020
-0.009663
-0.002745
-0.555020
-0.539051
-0.539759
-0.011939
-0.441045
-0.464129
-0.482285
-0.496530
-0.495549
-0.461271
-0.541781
-0.537094
-0.545746
-0.483068
0.128889
0.110167
0.122159
0.120169
0.125055
0.090726
0.110403
0.043337
0.053110
0.042596
-0.503675
-0.495704
-0.481616
-0.495894
-0.491460
-0.489262
-0.006948
-0.019718
-0.012832
-0.007200
0.013738
0.044033
-0.000633
-0.052194
-0.004692
-0.066898
-0.057714
-0.490277
-0.496766
-0.506185
-0.486070
0.057977
0.097564
0.063217
0.043396
0.058073
0.051722
0.064726
0.122041
0.126924
0.116026
-0.062924
0.261283
-0.499948
-0.500139
-0.501877
-0.400235
-0.442976
-0.450682
-0.364771
0.115966
0.158489
0.153147
0.138600
0.063949
0.082262
0.054389
-0.498732
-0.500091
-0.495175
-0.462051
-0.455213
-0.517990
-0.538101
-0.527826
-0.537787
0.000378
-0.015698
0.008463
-0.468499
-0.525406
-0.507547
-0.009270
0.029054
-0.023351
0.150373
0.111003
0.157631
-0.009757
-0.019565
-0.017574
-0.031373
-0.035940
-0.541254
-0.546826
-0.011470
-0.018929
-0.006135
0.015792
0.014467
0.001431
-0.022563
-0.005501
0.010759
-0.431926
-0.411686
-0.543705
-0.549784
-0.532941
-0.032940
-0.025095
0.149965
0.134588
0.009956
0.090632
0.036611
0.062453
0.015174
-0.004387
-0.006589
0.010097
-0.507327
-0.494480
-0.510466
-0.493559
-0.536412
-0.470891
-0.578559
-0.499955
0.019840
-0.037893
0.057539
0.063061
-0.511834
-0.492044
-0.503183
-0.489424
0.121612
0.173290
0.114713
0.101825
0.077876
-0.466144
-0.463181
-0.458045
0.073721
-0.448506
-0.462145
-0.473843
0.117692
-0.467897
-0.495530
-0.538757
-0.501273
-0.011349
0.011968
-0.011308
-0.511025
-0.501444
-0.500160
-0.015383
-0.005577
0.003208
0.043242
0.040611
0.008250
0.109591
-0.460169
-0.464219
-0.433025
-0.482618
-0.471324
-0.519252
-0.507734
0.023896
0.040284
-0.003372
0.018169
0.020253
0.017913
-0.537355
-0.552290
-0.551267
-0.404762
-0.442082
-0.589238
-0.021816
-0.018865
0.137867
0.092814
-0.019565
0.034007
0.033388
0.032880
-0.477039
-0.531301
-0.490272
-0.519570
-0.538433
-0.490353
-0.021526
0.017266
-0.008427
-0.014643
0.149473
0.120922
0.066473
0.073175
0.012183
0.001760
0.050898
0.043171
0.044840
0.046712
-0.506236
-0.505947
-0.492790
0.008115
0.000148
0.005404
0.005679
-0.025444
0.008175
-0.008993
-0.527795
-0.422559
-0.496856
-0.511527
-0.493897
-0.519885
-0.556788
-0.443104
-0.447429
-0.420588
-0.046398
-0.036363
-0.005731
-0.451335
-0.451509
-0.450277
-0.414852
-0.435932
0.004552
-0.005898
-0.528420
-0.540856
-0.538287
0.138390
0.114887
-0.492184
-0.508406
-0.021588
0.004269
-0.016154
0.004868
-0.024915
-0.027709
-0.012209
0.016409
0.019323
0.032649
-0.457758
-0.468061
-0.044051
-0.001190
-0.000427
-0.499266
-0.493601
-0.493576
0.022664
-0.509817
-0.534753
-0.491988
0.195670
0.046759
0.025983
-0.550326
-0.545572
0.122679
0.154219
-0.533309
-0.525478
-0.534736
-0.497343
-0.439360
-0.007397
-0.033344
-0.004762
-0.007120
-0.026930
-0.533245
-0.523771
-0.545775
-0.547027
-0.517826
0.122659
0.140259
-0.511870
-0.508750
-0.506002
0.018812
0.010381
-0.433203
-0.456010
-0.442662
-0.445590
0.002392
0.009295
-0.004237
-0.555664
-0.540733
-0.541851
-0.537506
-0.539857
-0.533438
-0.504470
-0.487956
-0.525955
-0.467391
0.003440
-0.001005
-0.003751
-0.002993
-0.015783
-0.009778
-0.007056
-0.546572
-0.542863
-0.544171
-0.434904
-0.405093
-0.388563
-0.421233
-0.495013
-0.522419
-0.491085
-0.544711
-0.546694
-0.555828
0.156215
0.188082
-0.513708
0.031494
-0.011538
-0.532550
-0.130794
-0.454998
0.179831
-0.551998
-0.535449
-0.014495
-0.562026
-0.558872
0.040164
-0.004256
-0.003335
-0.041692
-0.035739
-0.004980
0.000306
-0.016659
0.105219
0.170564
0.126111
0.116971
0.145486
0.157545
-0.519700
-0.524224
-0.517893
-0.517340
0.024680
0.014900
0.030268
-0.041605
-0.005285
-0.425822
-0.438551
0.100824
0.083828
-0.551903
-0.544644
-0.542659
-0.538345
0.002187
-0.061344
-0.060346
-0.054149
0.018976
0.184871
0.149112
0.147897
0.261368
-0.463090
-0.468010
-0.468815
0.030653
-0.481386
-0.485649
-0.515055
-0.404884
-0.383251
-0.034288
-0.013105
-0.013995
-0.017620
-0.490845
-0.452318
-0.465926
-0.467165
-0.471782
-0.456746
-0.003266
-0.001382
0.107476
0.069495
0.085196
0.022296
-0.424869
-0.447185
-0.473564
-0.477870
-0.442802
-0.559327
-0.418172
0.039529
0.001577
-0.008099
-0.019609
-0.023160
-0.389734
-0.449195
-0.528096
-0.510543
-0.497954
-0.486597
-0.432430
-0.499749
-0.501753
-0.501249
-0.518530
0.233869
0.050565
0.028068
0.063681
0.052676
-0.020369
-0.015995
0.028155
-0.532456
-0.531312
-0.540781
-0.020131
-0.022286
-0.497085
-0.535096
-0.544597
-0.497599
-0.023996
-0.024229
-0.030048
-0.509841
-0.011665
-0.011099
-0.497392
-0.512635
0.038806
0.033295
0.041369
0.104871
0.000890
0.008441
-0.000990
-0.003873
-0.515323
-0.545092
-0.542523
-0.518061
-0.505586
-0.516090
-0.500713
-0.012623
-0.018608
-0.030838
-0.015058
0.099983
0.132819
0.140188
0.009926
0.046253
0.072707
0.000492
-0.212118
-0.453806
-0.459878
-0.465422
-0.476372
-0.464875
-0.545788
-0.542890
-0.545084
-0.489403
-0.499790
-0.518323
-0.494852
0.140939
0.107686
-0.022458
-0.017527
-0.540803
-0.415415
-0.327287
-0.383850
-0.544356
-0.527539
-0.539479
-0.419365
-0.492767
-0.447166
-0.341114
-0.036154
-0.476643
-0.024464
0.181242
-0.013612
0.142601
0.162125
-0.016297
-0.011305
-0.003559
0.024068
-0.442192
-0.444184
-0.009350
-0.483097
-0.516412
-0.010816
-0.001871
-0.466333
-0.537758
-0.006060
-0.040333
-0.037920
-0.017048
-0.448242
-0.440770
-0.430083
-0.018650
0.000638
-0.562250
-0.016806
0.018721
-0.068093
-0.539973
-0.539503
-0.509084
0.041573
0.001986
-0.012808
-0.505116
0.040392
0.045665
-0.039801
-0.553639
-0.511376
-0.538105
-0.414508
-0.040646
-0.002801
0.005377
-0.476523
-0.504565
-0.475095
-0.465503
-0.452914
-0.484193
0.002510
-0.008469
0.019078
0.002669
0.022334
-0.026319
0.009694
-0.187165
-0.186763
-0.437511
-0.456649
-0.491159
-0.450610
-0.351940
-0.467825
-0.465366
-0.445890
-0.035408
-0.015228
-0.548654
-0.533152
-0.542893
-0.486864
-0.453215
-0.453391
-0.468057
-0.016050
-0.010613
-0.471998
-0.456015
-0.453524
0.160368
0.013113
0.213459
-0.155479
-0.540582
-0.437920
-0.013866
0.008821
-0.010359
-0.542703
0.069888
0.053989
0.057720
0.000153
-0.559627
0.002704
0.013211
-0.000657
0.020307
0.008124
-0.429874
-0.466937
-0.474524
-0.456689
-0.003964
-0.007322
0.001683
-0.003412
0.155263
0.158244
0.151758
0.150159
-0.547554
-0.557503
-0.538762
-0.532767
-0.466008
0.023391
0.018209
0.022905
0.006900
0.020088
-0.017817
0.031373
-0.474491
-0.391154
0.078302
0.067098
0.098865
-0.576387
-0.499102
-0.519272
-0.498343
-0.504510
-0.473702
0.136618
0.151535
0.153880
0.132724
-0.189286
-0.465643
-0.485318
-0.526457
0.011552
0.011061
-0.525760
0.029761
0.042444
-0.502946
-0.493314
-0.500192
-0.541098
-0.544190
-0.015752
-0.525760
-0.528894
-0.516062
-0.531289
0.148653
0.140639
0.165916
0.183931
-0.489511
-0.485919
-0.497638
-0.464266
-0.480673
0.021686
0.051904
0.046845
0.095325
0.090336
0.104924
-0.012665
-0.022878
-0.016070
-0.558981
0.041124
-0.521884
-0.549279
-0.537585
-0.509647
-0.499506
-0.487053
-0.447481
-0.489315
0.008453
-0.025177
-0.477170
0.165425
-0.017858
-0.010563
-0.016679
-0.502985
-0.490947
-0.491097
-0.026718
-0.014450
0.013106
0.007964
0.026039
-0.422113
-0.021755
-0.007136
-0.007843
-0.451149
-0.448990
-0.452922
0.117568
0.163014
0.124138
-0.005933
-0.012461
-0.540709
-0.539616
-0.542861
-0.359474
-0.524003
-0.533567
-0.536307
-0.535572
-0.544251
-0.526974
-0.221824
-0.336398
-0.330422
-0.431913
-0.426034
-0.446917
-0.037495
-0.006595
-0.155835
-0.502066
-0.457029
0.023113
-0.015005
0.187453
0.177150
0.164425
0.164989
-0.477156
-0.472828
-0.008972
-0.001851
-0.008900
0.031370
-0.000242
-0.014350
-0.544574
-0.004647
-0.027809
-0.027729
-0.001909
-0.532603
-0.518232
-0.469568
-0.458050
-0.523990
-0.541125
-0.554127
-0.557537
-0.002138
0.002599
0.027447
-0.511778
-0.534688
-0.480916
-0.490302
-0.468183
0.140857
0.038824
-0.483033
-0.440536
-0.168021
-0.476206
0.148852
0.204091
-0.473785
-0.507682
-0.222018
-0.251670
-0.008860
-0.019668
-0.011726
-0.490041
-0.485196
-0.491795
0.094726
0.185451
0.114019
-0.542348
-0.452440
-0.446806
-0.376417
-0.432551
-0.503565
-0.519292
-0.447050
-0.493310
-0.007486
-0.501240
-0.543093
-0.555918
-0.552234
0.012079
0.025727
0.017983
-0.020004
-0.003049
-0.477790
-0.446318
-0.450864
-0.005034
-0.013103
-0.015628
-0.009539
-0.011514
-0.456906
-0.449937
-0.391827
-0.373311
-0.595265
-0.409792
0.157885
0.173967
0.152893
0.106231
-0.463351
-0.469020
-0.057211
-0.097096
-0.038194
0.011484
-0.000855
0.006437
-0.494080
-0.493650
-0.010038
-0.008948
-0.464464
-0.412129
-0.010074
-0.016227
0.006377
-0.014266
-0.482403
-0.466683
-0.008776
-0.548643
-0.552018
-0.460337
0.004352
0.004868
-0.501667
-0.502065
-0.514067
-0.496970
-0.500988
-0.552127
-0.549330
0.003406
0.003855
-0.005305
-0.528759
-0.534997
-0.555026
0.123015
0.082595
0.126275
0.136923
-0.496757
-0.488492
-0.552578
-0.409389
0.102995
0.094727
0.113148
-0.550047
0.096573
-0.520696
0.010469
-0.024896
0.091635
0.040027
0.126261
-0.542393
-0.548673
-0.541608
0.000322
0.004913
0.016896
0.172897
0.161918
0.048852
-0.088225
-0.046860
0.160441
0.168517
0.179687
-0.001061
-0.047245
-0.073386
-0.120091
0.006822
-0.012114
0.099540
0.094145
0.040707
-0.472063
-0.011920
-0.004419
-0.004950
-0.009893
-0.014919
-0.431329
0.068190
-0.525888
-0.497315
-0.534399
-0.369855
-0.017767
-0.505593
-0.496907
-0.505551
-0.487340
-0.489153
0.126635
-0.439747
-0.469377
-0.449646
-0.440213
-0.009845
-0.465191
-0.472610
-0.459693
-0.463338
-0.470591
0.001241
-0.529763
-0.530802
-0.542509
0.001656
-0.547328
-0.550287
-0.004865
0.107648
0.096160
0.084599
-0.504658
0.181260
0.129061
0.066405
-0.547421
-0.544931
-0.545769
0.016113
0.005839
0.003291
-0.535548
-0.473004
-0.366729
-0.474337
-0.498525
-0.510307
-0.518272
-0.529411
-0.524273
-0.517179
-0.470259
-0.428025
-0.478451
0.102734
-0.471168
-0.467008
0.090565
0.100253
0.065288
-0.503742
-0.501445
-0.012302
-0.021757
-0.032044
-0.020122
-0.016981
0.088299
-0.462034
-0.547476
-0.540082
0.025407
-0.011626
-0.002113
-0.550787
-0.548840
-0.546795
0.022977
0.027609
0.022717
-0.477764
-0.480957
-0.490014
-0.481584
-0.450015
-0.466616
-0.009567
-0.000830
0.033980
0.003240
-0.470469
-0.462422
-0.457732
-0.470656
-0.483018
-0.459371
-0.511011
-0.464836
-0.454615
-0.464901
-0.460017
-0.019194
-0.022780
-0.009896
-0.009375
-0.479792
-0.510298
-0.531480
-0.518741
-0.514117
0.172234
-0.014405
-0.027230
0.108538
0.202929
0.037286
-0.530764
0.121539
-0.482089
-0.495044
-0.493257
-0.481750
-0.519063
-0.539460
-0.519894
-0.514877
-0.061504
-0.011056
-0.088589
-0.547907
-0.018205
-0.026192
-0.005783
-0.090694
-0.472397
-0.576164
-0.475893
0.159319
0.158379
0.163489
-0.456337
-0.483385
-0.007572
-0.539453
-0.011589
-0.006664
-0.005717
0.013738
-0.035284
0.005726
0.006446
-0.025569
-0.030134
-0.462967
-0.470069
0.085329
0.096846
0.143833
-0.443144
-0.536596
-0.519298
0.152106
-0.505783
-0.493017
-0.516659
-0.364959
-0.489305
-0.463245
-0.491281
-0.525368
-0.489381
-0.483281
-0.486158
0.080676
-0.244803
0.001978
-0.009113
-0.460889
-0.483717
-0.467159
-0.511919
-0.493689
-0.510184
-0.395433
-0.487807
-0.495712
-0.527019
-0.521909
-0.479022
-0.477936
-0.475527
0.002035
0.016827
-0.010490
-0.545203
-0.541860
-0.537771
-0.246833
-0.181660
-0.012553
-0.012487
-0.456745
-0.506825
-0.501761
-0.001249
-0.002303
-0.008030
-0.030430
-0.006769
-0.466870
-0.475812
-0.515377
0.014649
0.041487
-0.492414
0.053732
0.067274
0.046034
0.046958
-0.506011
-0.544729
-0.492487
-0.461836
-0.496902
-0.493770
-0.001807
0.004824
-0.378228
-0.311684
-0.451491
-0.400289
-0.230651
-0.381809
-0.484030
-0.484984
-0.011957
-0.015193
-0.009419
-0.000665
-0.509117
-0.012287
-0.008713
-0.013142
-0.477787
-0.472754
0.093385
0.159677
0.086883
0.120823
0.135755
0.113348
0.059074
-0.014111
0.009035
-0.004888
0.059195
-0.002693
-0.015934
-0.494171
-0.491135
-0.475078
-0.488956
-0.048175
-0.105769
-0.081047
0.119420
-0.022218
-0.123127
-0.088058
-0.171945
0.065467
0.042360
0.031890
-0.490960
-0.453092
0.145166
0.115448
0.015344
0.034827
0.100588
0.113113
0.073448
0.061023
0.046589
0.101542
0.078588
-0.020423
-0.003507
0.124413
0.054039
0.171223
0.130784
0.064442
0.149970
0.163603
0.182336
-0.042707
-0.468270
-0.476043
-0.468508
-0.449232
-0.486279
0.046195
0.082093
0.088585
0.043263
0.086670
0.134976
0.166266
0.143069
-0.477101
-0.485769
-0.453324
-0.481692
-0.483026
-0.461060
-0.472446
-0.461456
-0.000924
-0.009926
-0.460219
-0.002245
0.150497
0.137147
0.155697
-0.048431
-0.027451
-0.233675
0.005171
-0.013905
-0.542305
-0.542197
-0.020106
-0.047334
0.001853
-0.018584
-0.545326
-0.543178
-0.540277
-0.548802
-0.483432
-0.490799
-0.496402
-0.483535
-0.473405
-0.455114
-0.015715
-0.006010
-0.476264
-0.465804
-0.464707
-0.466131
0.130733
0.140870
0.148538
0.146912
0.059692
-0.460028
-0.454372
-0.465947
0.168758
0.150649
0.154795
-0.015334
-0.014207
-0.010089
-0.032118
-0.129270
-0.184552
-0.039476
-0.090206
-0.132976
-0.228489
-0.476056
-0.476555
-0.015211
0.003141
0.170145
-0.002803
-0.460480
-0.469715
-0.483278
0.052193
-0.546348
-0.460266
-0.004622
0.000685
0.002396
-0.001518
-0.003108
0.002640
-0.465850
-0.509607
-0.012709
-0.022765
0.001005
-0.546281
-0.022901
-0.002832
-0.022397
0.006449
0.001726
-0.477329
-0.479405
0.002615
-0.014847
0.000814
-0.014316
-0.539525
-0.504228
-0.527241
-0.530137
-0.029837
-0.008677
-0.012929
-0.025735
-0.014226
-0.017807
-0.467284
-0.482936
-0.015085
-0.011191
-0.021258
-0.003419
-0.026865
-0.517003
-0.522918
-0.501415
-0.508454
-0.494581
-0.485090
-0.505660
-0.017697
-0.485448
-0.481507
-0.477986
-0.471310
0.132114
0.076969
0.114520
0.110322
0.003442
0.012537
0.000879
-0.008746
-0.004904
0.000253
-0.012966
-0.431158
-0.363165
-0.326832
-0.248278
-0.040545
-0.026367
-0.188253
0.013582
-0.481639
-0.480412
-0.498205
-0.478826
-0.008880
-0.519374
-0.515212
0.101884
0.042575
0.088402
0.075489
-0.012960
-0.477040
-0.475783
-0.013195
-0.232535
-0.007959
-0.000133
-0.013592
0.077323
0.065468
0.067404
-0.499513
-0.450654
-0.482959
-0.528799
-0.478212
-0.477445
0.008015
-0.475921
-0.483727
-0.480616
-0.474776
-0.010216
-0.039679
0.001421
0.057238
0.070571
0.078505
0.064405
0.074633
-0.008091
-0.004726
-0.005601
-0.014451
-0.044685
-0.035343
-0.474921
-0.013322
-0.025555
-0.010333
-0.005604
-0.002184
0.003810
-0.009576
-0.467446
-0.007737
-0.004015
-0.503093
0.085602
0.085018
0.090997
-0.474059
-0.478097
-0.552930
-0.549789
-0.522197
-0.525882
-0.517916
-0.522487
-0.523863
-0.516561
0.098987
0.123743
-0.016650
-0.468011
-0.483583
-0.100630
-0.030004
-0.008450
0.072198
-0.443172
-0.508911
-0.514684
-0.479207
-0.475217
-0.497258
-0.478298