# vtk DataFile Version 2.0
Test
ASCII
DATASET POLYDATA
POINTS 7607 float
0.000000 0.000000 0.000000
1.000000 0.000000 0.000000
1.000000 0.800000 0.000000
1.000000 1.000000 0.000000
0.000000 1.000000 0.000000
0.000000 0.200000 0.000000
0.300000 0.330000 0.000000
0.700000 0.680000 0.000000
0.012987 0.000000 0.000000
0.025974 0.000000 0.000000
0.038961 0.000000 0.000000
0.051948 0.000000 0.000000
0.064935 0.000000 0.000000
0.077922 0.000000 0.000000
0.090909 0.000000 0.000000
0.103896 0.000000 0.000000
0.116883 0.000000 0.000000
0.129870 0.000000 0.000000
0.142857 0.000000 0.000000
0.155844 0.000000 0.000000
0.168831 0.000000 0.000000
0.181818 0.000000 0.000000
0.194805 0.000000 0.000000
0.207792 0.000000 0.000000
0.220779 0.000000 0.000000
0.233766 0.000000 0.000000
0.246753 0.000000 0.000000
0.259740 0.000000 0.000000
0.272727 0.000000 0.000000
0.285714 0.000000 0.000000
0.298701 0.000000 0.000000
0.311688 0.000000 0.000000
0.324675 0.000000 0.000000
0.337662 0.000000 0.000000
0.350649 0.000000 0.000000
0.363636 0.000000 0.000000
0.376623 0.000000 0.000000
0.389610 0.000000 0.000000
0.402597 0.000000 0.000000
0.415584 0.000000 0.000000
0.428571 0.000000 0.000000
0.441558 0.000000 0.000000
0.454545 0.000000 0.000000
0.467532 0.000000 0.000000
0.480519 0.000000 0.000000
0.493506 0.000000 0.000000
0.506494 0.000000 0.000000
0.519481 0.000000 0.000000
0.532468 0.000000 0.000000
0.545455 0.000000 0.000000
0.558442 0.000000 0.000000
0.571429 0.000000 0.000000
0.584416 0.000000 0.000000
0.597403 0.000000 0.000000
0.610390 0.000000 0.000000
0.623377 0.000000 0.000000
0.636364 0.000000 0.000000
0.649351 0.000000 0.000000
0.662338 0.000000 0.000000
0.675325 0.000000 0.000000
0.688312 0.000000 0.000000
0.701299 0.000000 0.000000
0.714286 0.000000 0.000000
0.727273 0.000000 0.000000
0.740260 0.000000 0.000000
0.753247 0.000000 0.000000
0.766234 0.000000 0.000000
0.779221 0.000000 0.000000
0.792208 0.000000 0.000000
0.805195 0.000000 0.000000
0.818182 0.000000 0.000000
0.831169 0.000000 0.000000
0.844156 0.000000 0.000000
0.857143 0.000000 0.000000
0.870130 0.000000 0.000000
0.883117 0.000000 0.000000
0.896104 0.000000 0.000000
0.909091 0.000000 0.000000
0.922078 0.000000 0.000000
0.935065 0.000000 0.000000
0.948052 0.000000 0.000000
0.961039 0.000000 0.000000
0.974026 0.000000 0.000000
0.987013 0.000000 0.000000
1.000000 0.012903 0.000000
1.000000 0.025806 0.000000
1.000000 0.038710 0.000000
1.000000 0.051613 0.000000
1.000000 0.064516 0.000000
1.000000 0.077419 0.000000
1.000000 0.090323 0.000000
1.000000 0.103226 0.000000
1.000000 0.116129 0.000000
1.000000 0.129032 0.000000
1.000000 0.141935 0.000000
1.000000 0.154839 0.000000
1.000000 0.167742 0.000000
1.000000 0.180645 0.000000
1.000000 0.193548 0.000000
1.000000 0.206452 0.000000
1.000000 0.219355 0.000000
1.000000 0.232258 0.000000
1.000000 0.245161 0.000000
1.000000 0.258065 0.000000
1.000000 0.270968 0.000000
1.000000 0.283871 0.000000
1.000000 0.296774 0.000000
1.000000 0.309677 0.000000
1.000000 0.322581 0.000000
1.000000 0.335484 0.000000
1.000000 0.348387 0.000000
1.000000 0.361290 0.000000
1.000000 0.374194 0.000000
1.000000 0.387097 0.000000
1.000000 0.400000 0.000000
1.000000 0.412903 0.000000
1.000000 0.425806 0.000000
1.000000 0.438710 0.000000
1.000000 0.451613 0.000000
1.000000 0.464516 0.000000
1.000000 0.477419 0.000000
1.000000 0.490323 0.000000
1.000000 0.503226 0.000000
1.000000 0.516129 0.000000
1.000000 0.529032 0.000000
1.000000 0.541935 0.000000
1.000000 0.554839 0.000000
1.000000 0.567742 0.000000
1.000000 0.580645 0.000000
1.000000 0.593548 0.000000
1.000000 0.606452 0.000000
1.000000 0.619355 0.000000
1.000000 0.632258 0.000000
1.000000 0.645161 0.000000
1.000000 0.658065 0.000000
1.000000 0.670968 0.000000
1.000000 0.683871 0.000000
1.000000 0.696774 0.000000
1.000000 0.709677 0.000000
1.000000 0.722581 0.000000
1.000000 0.735484 0.000000
1.000000 0.748387 0.000000
1.000000 0.761290 0.000000
1.000000 0.774194 0.000000
1.000000 0.787097 0.000000
1.000000 0.812500 0.000000
1.000000 0.825000 0.000000
1.000000 0.837500 0.000000
1.000000 0.850000 0.000000
1.000000 0.862500 0.000000
1.000000 0.875000 0.000000
1.000000 0.887500 0.000000
1.000000 0.900000 0.000000
1.000000 0.912500 0.000000
1.000000 0.925000 0.000000
1.000000 0.937500 0.000000
1.000000 0.950000 0.000000
1.000000 0.962500 0.000000
1.000000 0.975000 0.000000
1.000000 0.987500 0.000000
0.987013 1.000000 0.000000
0.974026 1.000000 0.000000
0.961039 1.000000 0.000000
0.948052 1.000000 0.000000
0.935065 1.000000 0.000000
0.922078 1.000000 0.000000
0.909091 1.000000 0.000000
0.896104 1.000000 0.000000
0.883117 1.000000 0.000000
0.870130 1.000000 0.000000
0.857143 1.000000 0.000000
0.844156 1.000000 0.000000
0.831169 1.000000 0.000000
0.818182 1.000000 0.000000
0.805195 1.000000 0.000000
0.792208 1.000000 0.000000
0.779221 1.000000 0.000000
0.766234 1.000000 0.000000
0.753247 1.000000 0.000000
0.740260 1.000000 0.000000
0.727273 1.000000 0.000000
0.714286 1.000000 0.000000
0.701299 1.000000 0.000000
0.688312 1.000000 0.000000
0.675325 1.000000 0.000000
0.662338 1.000000 0.000000
0.649351 1.000000 0.000000
0.636364 1.000000 0.000000
0.623377 1.000000 0.000000
0.610390 1.000000 0.000000
0.597403 1.000000 0.000000
0.584416 1.000000 0.000000
0.571429 1.000000 0.000000
0.558442 1.000000 0.000000
0.545455 1.000000 0.000000
0.532468 1.000000 0.000000
0.519481 1.000000 0.000000
0.506494 1.000000 0.000000
0.493506 1.000000 0.000000
0.480519 1.000000 0.000000
0.467532 1.000000 0.000000
0.454545 1.000000 0.000000
0.441558 1.000000 0.000000
0.428571 1.000000 0.000000
0.415584 1.000000 0.000000
0.402597 1.000000 0.000000
0.389610 1.000000 0.000000
0.376623 1.000000 0.000000
0.363636 1.000000 0.000000
0.350649 1.000000 0.000000
0.337662 1.000000 0.000000
0.324675 1.000000 0.000000
0.311688 1.000000 0.000000
0.298701 1.000000 0.000000
0.285714 1.000000 0.000000
0.272727 1.000000 0.000000
0.259740 1.000000 0.000000
0.246753 1.000000 0.000000
0.233766 1.000000 0.000000
0.220779 1.000000 0.000000
0.207792 1.000000 0.000000
0.194805 1.000000 0.000000
0.181818 1.000000 0.000000
0.168831 1.000000 0.000000
0.155844 1.000000 0.000000
0.142857 1.000000 0.000000
0.129870 1.000000 0.000000
0.116883 1.000000 0.000000
0.103896 1.000000 0.000000
0.090909 1.000000 0.000000
0.077922 1.000000 0.000000
0.064935 1.000000 0.000000
0.051948 1.000000 0.000000
0.038961 1.000000 0.000000
0.025974 1.000000 0.000000
0.012987 1.000000 0.000000
0.000000 0.987097 0.000000
0.000000 0.974194 0.000000
0.000000 0.961290 0.000000
0.000000 0.948387 0.000000
0.000000 0.935484 0.000000
0.000000 0.922581 0.000000
0.000000 0.909677 0.000000
0.000000 0.896774 0.000000
0.000000 0.883871 0.000000
0.000000 0.870968 0.000000
0.000000 0.858065 0.000000
0.000000 0.845161 0.000000
0.000000 0.832258 0.000000
0.000000 0.819355 0.000000
0.000000 0.806452 0.000000
0.000000 0.793548 0.000000
0.000000 0.780645 0.000000
0.000000 0.767742 0.000000
0.000000 0.754839 0.000000
0.000000 0.741935 0.000000
0.000000 0.729032 0.000000
0.000000 0.716129 0.000000
0.000000 0.703226 0.000000
0.000000 0.690323 0.000000
0.000000 0.677419 0.000000
0.000000 0.664516 0.000000
0.000000 0.651613 0.000000
0.000000 0.638710 0.000000
0.000000 0.625806 0.000000
0.000000 0.612903 0.000000
0.000000 0.600000 0.000000
0.000000 0.587097 0.000000
0.000000 0.574194 0.000000
0.000000 0.561290 0.000000
0.000000 0.548387 0.000000
0.000000 0.535484 0.000000
0.000000 0.522581 0.000000
0.000000 0.509677 0.000000
0.000000 0.496774 0.000000
0.000000 0.483871 0.000000
0.000000 0.470968 0.000000
0.000000 0.458065 0.000000
0.000000 0.445161 0.000000
0.000000 0.432258 0.000000
0.000000 0.419355 0.000000
0.000000 0.406452 0.000000
0.000000 0.393548 0.000000
0.000000 0.380645 0.000000
0.000000 0.367742 0.000000
0.000000 0.354839 0.000000
0.000000 0.341935 0.000000
0.000000 0.329032 0.000000
0.000000 0.316129 0.000000
0.000000 0.303226 0.000000
0.000000 0.290323 0.000000
0.000000 0.277419 0.000000
0.000000 0.264516 0.000000
0.000000 0.251613 0.000000
0.000000 0.238710 0.000000
0.000000 0.225806 0.000000
0.000000 0.212903 0.000000
0.000000 0.187500 0.000000
0.000000 0.175000 0.000000
0.000000 0.162500 0.000000
0.000000 0.150000 0.000000
0.000000 0.137500 0.000000
0.000000 0.125000 0.000000
0.000000 0.112500 0.000000
0.000000 0.100000 0.000000
0.000000 0.087500 0.000000
0.000000 0.075000 0.000000
0.000000 0.062500 0.000000
0.000000 0.050000 0.000000
0.000000 0.037500 0.000000
0.000000 0.025000 0.000000
0.000000 0.012500 0.000000
0.309756 0.338537 0.000000
0.319512 0.347073 0.000000
0.329268 0.355610 0.000000
0.339024 0.364146 0.000000
0.348780 0.372683 0.000000
0.358537 0.381220 0.000000
0.368293 0.389756 0.000000
0.378049 0.398293 0.000000
0.387805 0.406829 0.000000
0.397561 0.415366 0.000000
0.407317 0.423902 0.000000
0.417073 0.432439 0.000000
0.426829 0.440976 0.000000
0.436585 0.449512 0.000000
0.446341 0.458049 0.000000
0.456098 0.466585 0.000000
0.465854 0.475122 0.000000
0.475610 0.483659 0.000000
0.485366 0.492195 0.000000
0.495122 0.500732 0.000000
0.504878 0.509268 0.000000
0.514634 0.517805 0.000000
0.524390 0.526341 0.000000
0.534146 0.534878 0.000000
0.543902 0.543415 0.000000
0.553659 0.551951 0.000000
0.563415 0.560488 0.000000
0.573171 0.569024 0.000000
0.582927 0.577561 0.000000
0.592683 0.586098 0.000000
0.602439 0.594634 0.000000
0.612195 0.603171 0.000000
0.621951 0.611707 0.000000
0.631707 0.620244 0.000000
0.641463 0.628780 0.000000
0.651220 0.637317 0.000000
0.660976 0.645854 0.000000
0.670732 0.654390 0.000000
0.680488 0.662927 0.000000
0.690244 0.671463 0.000000
0.011538 0.205000 0.000000
0.023077 0.210000 0.000000
0.034615 0.215000 0.000000
0.046154 0.220000 0.000000
0.057692 0.225000 0.000000
0.069231 0.230000 0.000000
0.080769 0.235000 0.000000
0.092308 0.240000 0.000000
0.103846 0.245000 0.000000
0.115385 0.250000 0.000000
0.126923 0.255000 0.000000
0.138462 0.260000 0.000000
0.150000 0.265000 0.000000
0.161538 0.270000 0.000000
0.173077 0.275000 0.000000
[...]
POINT_DATA 7607
SCALARS UX float 1
LOOKUP_TABLE default
0.005981
0.002190
-0.089905
-0.372154
-0.472610
-0.111078
-0.132960
-0.261030
-0.002112
0.000131
0.001831
0.001310
0.010499
0.000285
-0.000209
0.009954
0.000257
0.000803
-0.000288
0.000087
0.000155
-0.000072
-0.000169
0.000185
-0.000092
0.000255
0.000079
-0.001252
-0.000153
-0.000147
-0.000498
-0.007852
0.000185
-0.000174
-0.000142
-0.000358
0.000287
0.000156
0.002046
0.000054
0.000546
-0.002030
0.000063
0.003743
0.000182
-0.000081
-0.002637
-0.000035
-0.000340
0.000062
0.000035
-0.003425
-0.000235
-0.001026
-0.000114
-0.000596
0.000033
-0.000070
0.000053
-0.000881
-0.001410
0.000412
-0.000298
-0.000364
0.004352
0.000775
-0.007813
0.000319
0.002379
0.000456
-0.001096
-0.000608
-0.005935
-0.000141
0.005381
0.003085
-0.006415
0.000011
-0.000818
0.001900
0.000209
0.000592
-0.000196
-0.012554
-0.001152
0.016416
0.009595
0.021625
0.008287
0.019792
0.010235
0.024957
0.042451
0.047144
0.036068
0.051617
0.036587
0.060956
0.038754
0.040100
0.059376
0.065787
0.059330
0.075487
0.067121
0.077078
0.085494
0.066287
0.082575
0.097160
0.080220
0.111619
0.098780
0.102025
0.107085
0.095304
0.121694
0.106206
0.133907
0.103175
0.122493
0.136300
0.115911
0.124008
0.151659
0.126405
0.143702
0.143373
0.133216
0.145545
0.150218
0.131011
0.161515
0.115098
0.126128
0.137117
0.130591
0.128855
0.146569
0.099644
0.099479
0.071364
0.085355
0.124791
0.017577
-0.101087
-0.121556
-0.201707
-0.243935
-0.352587
-0.266405
-0.326679
-0.321892
-0.346273
-0.339143
-0.356228
-0.356257
-0.329732
-0.375519
-0.360103
-0.350411
-0.367883
-0.361917
-0.387459
-0.379343
-0.378700
-0.375021
-0.386276
-0.383902
-0.384554
-0.382705
-0.386812
-0.383091
-0.381671
-0.389808
-0.389948
-0.386944
-0.397599
-0.396851
-0.395734
-0.394288
-0.395634
-0.394941
-0.397777
-0.400848
-0.398028
-0.405011
-0.400691
-0.403859
-0.406988
-0.402444
-0.412313
-0.411539
-0.413435
-0.416985
-0.414690
-0.413139
-0.417789
-0.416802
-0.417764
-0.419077
-0.420903
-0.428617
-0.417205
-0.421764
-0.432034
-0.422542
-0.429941
-0.427133
-0.436915
-0.438498
-0.443612
-0.445492
-0.445433
-0.443824
-0.453319
-0.444601
-0.455388
-0.457742
-0.447555
-0.464014
-0.457728
-0.460068
-0.454630
-0.465297
-0.471776
-0.465364
-0.470136
-0.474030
-0.471494
-0.470864
-0.473972
-0.478884
-0.477584
-0.478080
-0.479617
-0.482074
-0.482167
-0.483402
-0.470657
-0.477671
-0.465948
-0.474469
-0.473639
-0.479420
-0.476183
-0.473862
-0.495942
-0.480116
-0.482465
-0.477938
-0.480493
-0.488908
-0.483292
-0.480915
-0.472423
-0.483952
-0.483921
-0.480104
-0.476754
-0.486910
-0.474709
-0.475803
-0.489671
-0.481230
-0.480736
-0.461021
-0.448687
-0.463490
-0.474361
-0.476827
-0.478083
-0.468594
-0.480198
-0.476831
-0.489388
-0.470676
-0.479150
-0.469752
-0.472200
-0.473627
-0.471001
-0.470520
-0.482747
-0.464492
-0.468392
-0.443548
-0.469413
-0.432089
-0.445057
-0.415578
-0.402401
-0.352888
-0.376318
-0.347957
-0.257642
-0.349053
-0.243878
-0.072512
-0.167635
-0.094745
-0.008853
-0.045656
-0.036651
-0.033847
-0.026490
-0.019471
-0.011340
-0.022746
-0.016331
-0.005974
-0.007005
0.143997
-0.164947
-0.084253
-0.368982
-0.537522
-0.329841
-0.344864
-0.146566
-0.205139
-0.247939
-0.069543
-0.223773
0.156209
0.021941
0.038329
0.076923
0.163793
0.000213
-0.141511
-0.060290
-0.045489
-0.025032
-0.358418
-0.104417
-0.168243
-0.193909
-0.183430
0.003392
-0.445765
-0.195456
-0.116603
-0.250078
-0.194021
-0.122930
-0.171915
-0.147043
-0.267242
-0.227151
-0.236764
-0.287313
-0.214753
-0.328501
-0.155834
-0.193088
-0.142627
-0.318162
-0.361214
-0.198254
-0.280466
-0.108964
-0.362158
-0.134451
-0.325657
-0.277911
-0.207949
-0.509262
-0.319762
-0.066357
-0.050449
-0.380943
0.044597
-0.270598
-0.196714
-0.256687
-0.013600
-0.162758
0.084383
-0.077141
0.190600
-0.143249
0.237904
-0.038776
-0.149871
-0.056438
-0.162267
-0.010888
-0.102552
-0.105224
-0.027823
-0.163003
-0.027454
-0.049657
-0.110158
0.037663
-0.137943
-0.122664
-0.033968
-0.027183
-0.152193
-0.386705
-0.399607
-0.405363
-0.389896
0.066622
0.055220
0.049232
-0.513480
-0.411956
-0.209830
-0.315525
-0.346204
-0.219077
-0.015928
0.010583
0.013954
-0.376240
-0.461900
-0.463998
-0.488555
0.042734
0.013476
0.024141
0.015031
-0.089572
0.016311
-0.129628
-0.060241
-0.000395
-0.003748
-0.331638
-0.358534
-0.543919
-0.386325
-0.120569
-0.066878
0.015344
0.001771
-0.003154
-0.003123
-0.465602
-0.462366
-0.474251
-0.478303
-0.228574
-0.357225
-0.132782
-0.183322
0.119933
0.087892
0.102275
-0.385119
-0.400213
0.087973
0.045803
0.024236
0.065972
-0.410706
-0.398732
-0.388678
-0.001239
-0.488225
-0.392910
-0.357098
-0.324533
-0.334717
-0.025278
-0.059773
-0.026591
-0.397366
-0.465981
-0.466208
-0.023551
0.022147
0.041460
-0.007265
-0.014329
-0.013637
-0.430328
-0.430221
-0.431485
-0.019490
-0.406077
-0.401766
-0.380112
0.035647
0.039905
0.004052
0.041213
0.002800
-0.011259
-0.018026
-0.080754
-0.027408
-0.022790
-0.021188
0.066891
0.108481
0.149327
-0.404433
-0.224114
-0.329182
-0.326168
-0.282215
-0.363710
-0.335409
-0.427096
-0.382229
-0.454942
-0.369491
-0.017930
0.010760
0.005740
0.008602
0.058606
0.062454
-0.397331
-0.397127
-0.384831
0.020537
0.037587
0.016806
-0.362333
-0.351182
-0.379999
-0.363075
0.040749
0.061800
0.102302
0.069824
-0.005385
-0.391820
-0.030499
-0.002692
0.006006
-0.001165
-0.488370
-0.417331
-0.399350
-0.431376
-0.405533
-0.439192
-0.424734
-0.412112
-0.375110
-0.385608
-0.390007
-0.380780
-0.230286
-0.009291
-0.006288
-0.003742
-0.000599
-0.478976
-0.453322
-0.476729
-0.010395
-0.010016
-0.002798
-0.486308
-0.466602
-0.467956
-0.014364
-0.349074
-0.380896
-0.386764
-0.445336
-0.438220
-0.415129
-0.466099
-0.461833
-0.469212
-0.437176
0.110400
0.094623
0.102840
0.105544
0.097599
0.065165
0.090726
0.043659
0.052527
0.038927
-0.422194
-0.411745
-0.395372
-0.409474
-0.405481
-0.404773
-0.007039
-0.019328
-0.009654
-0.005521
0.015675
0.039837
0.005782
-0.047990
-0.024930
-0.046590
-0.041834
-0.424456
-0.459748
-0.441041
-0.406046
0.049098
0.076576
0.051681
0.041621
0.049349
0.043339
0.061726
0.109782
0.111615
0.092189
-0.067034
0.138130
-0.451689
-0.449775
-0.451383
-0.319140
-0.353188
-0.363850
-0.294947
0.076916
0.128368
0.130093
0.124947
0.053923
0.063012
0.037357
-0.414172
-0.417326
-0.444359
-0.371300
-0.426434
-0.439974
-0.460565
-0.448513
-0.460829
-0.000710
-0.016330
0.007946
-0.396935
-0.441317
-0.422995
-0.005916
0.030020
-0.021587
0.101864
0.084431
0.120402
-0.009415
-0.017698
-0.009568
-0.013264
-0.018939
-0.468523
-0.475813
-0.007870
-0.018383
-0.000202
0.016895
0.015911
0.000801
-0.021175
-0.004225
0.011942
-0.341477
-0.332655
-0.468063
-0.478380
-0.457899
-0.031038
-0.024580
0.123904
0.102224
0.012303
0.074032
0.023588
0.079716
0.015292
-0.003581
-0.007586
0.012932
-0.449814
-0.454468
-0.469413
-0.432855
-0.478426
-0.401736
-0.512775
-0.403910
0.038997
-0.036229
0.030402
0.054312
-0.473187
-0.452187
-0.440336
-0.433260
0.081987
0.144532
0.097037
0.078713
0.059014
-0.375640
-0.374768
-0.372968
0.046808
-0.352841
-0.370582
-0.389276
0.079450
-0.378987
-0.453136
-0.485586
-0.447796
-0.011943
0.010321
-0.012719
-0.439783
-0.439591
-0.429843
-0.018687
-0.011750
0.006184
0.085559
0.038762
0.008116
0.070289
-0.370541
-0.375139
-0.347751
-0.391646
-0.415448
-0.458995
-0.441407
0.025082
0.037395
-0.000905
0.019075
0.021596
0.018926
-0.462404
-0.478869
-0.480653
-0.429442
-0.404784
-0.490852
-0.024752
-0.035544
0.109471
0.039618
-0.017503
0.034504
0.035566
0.033635
-0.423386
-0.478273
-0.433981
-0.472528
-0.478067
-0.440664
-0.021612
0.013942
-0.011175
-0.016172
0.117237
0.090929
0.030291
-0.062750
0.050525
0.075865
0.044711
0.038898
0.043263
0.040063
-0.426724
-0.429598
-0.397094
0.011398
0.004868
0.007016
0.006006
-0.027048
0.002460
-0.009643
-0.476853
-0.370618
-0.398665
-0.425058
-0.441113
-0.462415
-0.506390
-0.358827
-0.357731
-0.330602
-0.043619
-0.031453
-0.012262
-0.361663
-0.364010
-0.360890
-0.331252
-0.348605
0.003462
-0.002124
-0.444587
-0.470134
-0.462071
0.115526
0.089203
-0.393000
-0.440069
-0.016831
-0.000027
-0.020501
0.008072
-0.019247
-0.031650
-0.013602
0.016432
0.026488
0.030080
-0.373554
-0.375550
-0.044600
0.001830
-0.005522
-0.414454
-0.408776
-0.408733
0.022194
-0.430753
-0.454816
-0.433607
0.160776
0.044915
0.024915
-0.475304
-0.474485
0.099727
0.101490
-0.456676
-0.446741
-0.458054
-0.400098
-0.352950
-0.006950
-0.022429
-0.006196
-0.002958
-0.017388
-0.454624
-0.448396
-0.479734
-0.481920
-0.443351
0.090715
0.110667
-0.458673
-0.451666
-0.452085
0.017445
0.011132
-0.347307
-0.363813
-0.357326
-0.355043
0.005937
0.011533
0.000926
-0.484967
-0.464771
-0.467685
-0.458957
-0.462276
-0.456126
-0.460330
-0.435727
-0.476063
-0.423058
0.002061
-0.001275
-0.001900
-0.001252
-0.020573
-0.009636
-0.004480
-0.476369
-0.478475
-0.479403
-0.348075
-0.325172
-0.310732
-0.330554
-0.456930
-0.431599
-0.448382
-0.474062
-0.475164
-0.487806
0.125237
0.157912
-0.466303
0.029302
-0.007609
-0.463839
-0.116454
-0.376714
0.121960
-0.481403
-0.459497
-0.021533
-0.490472
-0.488078
0.037223
-0.002266
-0.001886
-0.034819
-0.036366
-0.004909
-0.000837
-0.015396
0.076748
0.143819
0.100507
0.089902
0.136238
0.133239
-0.439707
-0.442741
-0.434226
-0.435149
0.025116
0.016102
0.030987
-0.035596
-0.007632
-0.335760
-0.350404
0.082860
0.065132
-0.486740
-0.477971
-0.474658
-0.470661
-0.008325
-0.058043
-0.064947
-0.038686
0.031601
0.127904
0.061158
0.137225
0.140653
-0.372354
-0.377181
-0.378932
0.030643
-0.436109
-0.433055
-0.460210
-0.350496
-0.356962
-0.031727
-0.015044
-0.012098
-0.018753
-0.397807
-0.366802
-0.376597
-0.374993
-0.386457
-0.372234
-0.002727
-0.000768
0.058465
0.054483
0.066523
0.016747
-0.336299
-0.354411
-0.377571
-0.386988
-0.354862
-0.488407
-0.333175
0.032963
0.001574
-0.008851
-0.025271
-0.023425
-0.342839
-0.370543
-0.477958
-0.451760
-0.441349
-0.410428
-0.345706
-0.432671
-0.444135
-0.434748
-0.462561
0.096987
0.064434
0.024356
0.040978
0.043354
-0.028518
-0.028524
0.024189
-0.463626
-0.458688
-0.473777
-0.016287
-0.019280
-0.433603
-0.459685
-0.470500
-0.440536
-0.008349
-0.012964
-0.018837
-0.453758
-0.003993
-0.007759
-0.449484
-0.456263
0.033611
0.021678
0.032548
0.062257
0.002757
0.008971
-0.001187
-0.003501
-0.456518
-0.490033
-0.486380
-0.445603
-0.435770
-0.443956
-0.428675
-0.009853
-0.013840
-0.029990
-0.019362
0.030031
0.080359
0.091033
0.010484
-0.000396
0.021919
0.000129
-0.192538
-0.363048
-0.366854
-0.385836
-0.390030
-0.370048
-0.479513
-0.475571
-0.477092
-0.404482
-0.412252
-0.437327
-0.412618
0.111746
0.069608
-0.027882
-0.020700
-0.471946
-0.254710
-0.392506
-0.280956
-0.478406
-0.460485
-0.473083
-0.308892
-0.342291
-0.359308
-0.291790
-0.026232
-0.387996
-0.018337
0.132162
-0.010916
0.139326
0.116781
-0.019217
-0.010415
-0.004101
0.026628
-0.349767
-0.353824
-0.011747
-0.431536
-0.464230
-0.007610
-0.001922
-0.378842
-0.459050
-0.029107
-0.046668
-0.030403
-0.019053
-0.356291
-0.355301
-0.340348
-0.020289
0.002199
-0.490327
-0.014028
0.014259
-0.062030
-0.466928
-0.464125
-0.459521
0.039008
0.005814
-0.010239
-0.439638
0.038679
0.044291
-0.032736
-0.506405
-0.456724
-0.485810
-0.322787
-0.049370
-0.004688
-0.001428
-0.392839
-0.420397
-0.389650
-0.376230
-0.361832
-0.398937
0.001620
-0.009153
0.024251
-0.000036
-0.019369
-0.069883
0.012894
-0.202778
-0.108076
-0.355892
-0.364136
-0.393546
-0.362099
-0.205719
-0.375339
-0.375222
-0.361445
-0.042614
-0.013879
-0.477228
-0.457526
-0.470036
-0.388053
-0.374856
-0.323806
-0.358035
-0.016021
-0.012851
-0.379287
-0.366323
-0.365917
0.131297
-0.021061
0.151644
-0.031188
-0.475703
-0.347840
-0.013843
0.011945
-0.009834
-0.467081
0.047501
0.035990
0.051009
0.000153
-0.487205
0.002391
0.013570
0.000659
0.017349
0.009369
-0.333967
-0.385000
-0.385727
-0.369978
-0.003975
-0.006155
0.000857
-0.004378
0.127457
0.139500
0.131323
0.127541
-0.471918
-0.485694
-0.462897
-0.439887
-0.423557
0.021060
0.012746
0.029062
0.006680
0.019638
-0.016234
0.038652
-0.386975
-0.342938
0.071183
0.058232
0.090873
-0.434166
-0.450440
-0.465293
-0.441863
-0.448950
-0.382999
0.103241
0.111391
0.100276
0.066518
-0.157537
-0.393548
-0.401595
-0.441379
0.016294
0.008466
-0.448959
0.027158
0.041428
-0.418824
-0.409207
-0.415311
-0.466329
-0.470776
-0.019935
-0.448109
-0.447123
-0.432647
-0.449880
0.130192
0.118121
0.145382
0.159529
-0.393428
-0.400814
-0.422181
-0.378744
-0.406007
0.013118
0.044478
0.047243
0.090210
0.084305
0.100176
-0.016572
-0.025484
-0.017847
-0.488736
0.043479
-0.464200
-0.474465
-0.460183
-0.461468
-0.453321
-0.452845
-0.387315
-0.466469
0.009274
-0.022854
-0.453291
0.101002
-0.019758
-0.008286
-0.014856
-0.415986
-0.405743
-0.406625
-0.028438
-0.013358
0.013274
0.010233
0.028527
-0.332446
-0.018119
-0.009728
-0.010178
-0.360939
-0.363180
-0.366128
0.070531
0.127334
-0.016012
-0.006791
-0.013127
-0.464061
-0.463664
-0.466069
-0.245223
-0.469664
-0.481151
-0.484892
-0.460002
-0.470840
-0.449810
-0.197108
-0.269948
-0.276837
-0.318805
-0.378295
-0.358881
-0.038151
-0.011607
-0.119971
-0.415919
-0.369854
0.023121
-0.015200
0.149436
0.127825
0.121886
0.117915
-0.385901
-0.379536
-0.012330
-0.001712
-0.010115
0.036233
0.001926
-0.011824
-0.469181
0.003674
-0.008122
-0.022102
-0.001664
-0.450655
-0.439715
-0.417828
-0.391004
-0.488430
-0.464621
-0.481870
-0.487750
-0.002906
0.002669
0.026193
-0.434998
-0.446378
-0.394754
-0.409017
-0.377145
0.123352
-0.014236
-0.391740
-0.357899
-0.195692
-0.394223
0.109078
0.154068
-0.389150
-0.424896
-0.145930
-0.303622
-0.008617
-0.021846
-0.011708
-0.404062
-0.399623
-0.406692
0.076144
0.178303
0.089786
-0.465971
-0.387394
-0.403598
-0.391590
-0.374866
-0.443974
-0.453035
-0.390431
-0.441986
-0.007870
-0.448858
-0.466715
-0.483434
-0.478083
0.009809
0.024540
0.017371
-0.022434
-0.013447
-0.392886
-0.357229
-0.364463
-0.005662
-0.011229
-0.016483
-0.011074
-0.011789
-0.367247
-0.360066
-0.314225
-0.368311
-0.433184
-0.347893
0.115250
0.132882
0.112694
0.058358
-0.371849
-0.379104
-0.079320
-0.086151
-0.036705
0.008335
-0.000875
0.002445
-0.425542
-0.421352
-0.014470
-0.009082
-0.376589
-0.326732
-0.006013
-0.012872
0.006324
-0.013895
-0.397910
-0.382180
-0.010274
-0.473669
-0.479201
-0.421737
0.004200
0.004752
-0.432756
-0.432222
-0.443027
-0.423986
-0.416090
-0.479962
-0.474091
0.004259
0.004123
-0.008176
-0.452999
-0.458459
-0.479945
0.077137
0.064198
0.083774
0.091760
-0.429191
-0.384663
-0.398025
-0.355810
0.096411
0.090087
0.106600
-0.477252
0.088163
-0.442001
0.010920
-0.005138
0.063703
0.027997
0.094984
-0.468953
-0.474437
-0.467654
0.001068
0.005387
0.017025
0.137311
0.140175
0.058113
-0.107409
-0.043333
0.118792
0.127823
0.144457
0.001898
-0.084740
-0.053311
-0.082189
0.027610
-0.010319
0.079499
0.076423
0.035184
-0.379987
-0.009732
-0.006942
-0.006131
-0.013243
-0.014583
-0.342026
0.060374
-0.449723
-0.445721
-0.459747
-0.374407
-0.015588
-0.420867
-0.425269
-0.432007
-0.395611
-0.441204
0.060776
-0.355634
-0.379798
-0.351537
-0.346837
-0.009003
-0.371711
-0.384654
-0.369323
-0.377047
-0.381942
-0.002221
-0.452570
-0.454394
-0.468003
0.001552
-0.472763
-0.478136
-0.004292
0.057574
0.060893
0.071661
-0.448033
0.166778
0.099819
0.052231
-0.472374
-0.469483
-0.470885
0.015805
0.006421
0.003374
-0.481883
-0.379585
-0.325925
-0.386648
-0.414656
-0.426623
-0.435106
-0.476873
-0.466618
-0.468340
-0.422666
-0.319035
-0.394878
0.060434
-0.373783
-0.400442
0.076067
0.086184
0.057342
-0.419617
-0.417747
-0.013575
-0.023013
-0.041812
-0.020775
-0.020319
0.078661
-0.375165
-0.473903
-0.465662
0.025718
-0.011955
-0.002718
-0.477873
-0.476842
-0.472308
0.022069
0.027839
0.021669
-0.396948
-0.388812
-0.401149
-0.397408
-0.363178
-0.379057
-0.008988
-0.003025
0.032773
0.002442
-0.384294
-0.375488
-0.367055
-0.382167
-0.438709
-0.428952
-0.434173
-0.381498
-0.365959
-0.377010
-0.372763
-0.028541
-0.027318
-0.009671
-0.009783
-0.408007
-0.432991
-0.457732
-0.459840
-0.461817
0.141189
-0.020993
-0.026686
0.073591
0.126280
0.009928
-0.475383
0.197605
-0.396969
-0.408032
-0.407876
-0.397114
-0.445754
-0.469996
-0.448239
-0.440413
-0.056127
-0.008349
-0.068619
-0.473810
-0.008669
-0.020225
-0.005841
-0.090103
-0.383257
-0.469378
-0.387167
0.136398
0.138346
0.137974
-0.363749
-0.396594
-0.012839
-0.462648
-0.008807
-0.005015
-0.001488
0.013613
-0.024767
0.012684
0.002013
-0.033859
-0.028649
-0.380546
-0.385441
0.075787
0.084463
0.133449
-0.400498
-0.499433
-0.446086
0.144068
-0.445545
-0.444200
-0.473184
-0.275844
-0.425303
-0.496274
-0.447045
-0.326354
-0.404661
-0.399281
-0.400006
0.052993
-0.285550
-0.003752
-0.009763
-0.372293
-0.393552
-0.380631
-0.425215
-0.413451
-0.426202
-0.327817
-0.385234
-0.443684
-0.475381
-0.467414
-0.420920
-0.437790
-0.423352
0.003314
0.017954
-0.010976
-0.476937
-0.473231
-0.470961
-0.171391
-0.145704
-0.016804
-0.010652
-0.371878
-0.451665
-0.448419
-0.001193
-0.002541
-0.008628
-0.035410
-0.006486
-0.379995
-0.387478
-0.465707
0.015378
0.040858
-0.435986
0.052108
0.066032
0.045442
0.043983
-0.457770
-0.494272
-0.439109
-0.379348
-0.407271
-0.405034
-0.002873
0.003926
-0.316681
-0.245909
-0.353465
-0.310188
-0.200320
-0.308958
-0.399402
-0.389598
-0.011972
-0.016418
-0.011329
-0.003111
-0.451676
-0.010786
-0.004615
-0.008544
-0.390980
-0.387254
0.068107
0.135347
0.055824
0.082861
0.085780
0.095563
0.046645
-0.016882
0.007424
-0.007364
0.058714
-0.003073
-0.016677
-0.407648
-0.406243
-0.390633
-0.403128
-0.061594
-0.094821
-0.050797
0.077389
-0.022921
-0.147392
-0.070984
-0.176535
0.063745
0.039760
0.030911
-0.400368
-0.368438
0.094108
0.094372
0.029385
0.017903
0.058126
0.067902
0.039630
0.037759
0.046693
0.092996
0.097177
-0.022603
-0.008328
0.094473
0.023270
0.154380
0.115183
0.045342
0.121697
0.136185
0.156529
-0.047285
-0.379987
-0.391374
-0.374884
-0.360910
-0.399063
0.043608
0.058815
0.078070
0.033652
0.072687
0.121921
0.149210
0.120862
-0.392874
-0.395841
-0.366884
-0.393925
-0.403031
-0.371795
-0.391428
-0.370513
-0.002163
-0.012983
-0.373526
-0.002986
0.136261
0.119301
0.133659
-0.053793
0.003183
-0.219031
0.003693
-0.012537
-0.470737
-0.470475
-0.017287
-0.047447
0.002481
-0.016025
-0.477648
-0.471931
-0.470035
-0.481007
-0.397706
-0.407729
-0.408032
-0.396853
-0.377102
-0.362839
-0.016001
-0.006272
-0.389956
-0.377806
-0.379306
-0.371189
0.109776
0.119813
0.128935
0.122368
0.054552
-0.369543
-0.366127
-0.379994
0.146451
0.125449
0.132513
-0.031304
-0.026254
-0.009979
-0.092572
-0.073885
-0.135501
0.007624
-0.037270
-0.199721
-0.086436
-0.390425
-0.388352
-0.017137
0.001732
0.151941
0.001736
-0.372820
-0.381528
-0.397427
0.053296
-0.469934
-0.376615
-0.004558
0.000726
0.002486
-0.001013
-0.005423
0.000923
-0.383257
-0.423069
-0.019077
-0.029781
-0.001344
-0.473017
-0.019897
-0.008042
-0.023781
0.005507
0.001253
-0.388948
-0.391769
0.003033
-0.014966
0.002023
-0.013192
-0.467421
-0.423508
-0.455000
-0.459301
-0.030937
-0.009453
-0.010696
-0.038019
-0.002271
-0.021642
-0.382358
-0.394202
-0.018905
-0.015572
-0.014878
-0.007319
-0.027651
-0.451229
-0.451997
-0.436082
-0.450200
-0.433180
-0.428834
-0.453769
-0.033920
-0.394826
-0.396636
-0.394562
-0.380659
0.109447
0.056589
0.086554
0.092199
0.005375
0.011697
0.002383
-0.010481
-0.007271
-0.005115
-0.015354
-0.342169
-0.156563
-0.305631
-0.122207
0.039639
-0.059902
-0.057845
0.014662
-0.394478
-0.388853
-0.413138
-0.392733
-0.008774
-0.467678
-0.460328
0.061911
0.023403
0.058639
0.049320
-0.011551
-0.391178
-0.390935
-0.014895
-0.285749
-0.008550
-0.000249
-0.012493
0.074961
0.064392
0.064961
-0.399455
-0.365436
-0.462838
-0.490182
-0.400123
-0.391057
0.004406
-0.389089
-0.398121
-0.393437
-0.391359
-0.006547
-0.053040
-0.001933
0.054257
0.065259
0.076622
0.060373
0.066172
-0.005951
0.000192
-0.000625
-0.011249
-0.049412
-0.040995
-0.395854
-0.015240
-0.029509
-0.013124
-0.005648
-0.002517
0.003168
-0.010716
-0.378986
-0.010207
-0.003959
-0.449578
0.070276
0.072131
0.083607
-0.388868
-0.389137
-0.478391
-0.474726
-0.444621
-0.449229
-0.462559
-0.475291
-0.467860
-0.465592
0.076388
0.100187
-0.016957
-0.382758
-0.396632
-0.057281
-0.035934
-0.016208
0.061123
-0.351283
-0.430232
-0.437212
-0.389276
-0.424233
-0.437836
-0.425389