# vtk DataFile Version 2.0
Test
ASCII
DATASET POLYDATA
POINTS 7607 float
0.000000 0.000000 0.000000
1.000000 0.000000 0.000000
1.000000 0.800000 0.000000
1.000000 1.000000 0.000000
0.000000 1.000000 0.000000
0.000000 0.200000 0.000000
0.300000 0.330000 0.000000
0.700000 0.680000 0.000000
0.012987 0.000000 0.000000
0.025974 0.000000 0.000000
0.038961 0.000000 0.000000
0.051948 0.000000 0.000000
0.064935 0.000000 0.000000
0.077922 0.000000 0.000000
0.090909 0.000000 0.000000
0.103896 0.000000 0.000000
0.116883 0.000000 0.000000
0.129870 0.000000 0.000000
0.142857 0.000000 0.000000
0.155844 0.000000 0.000000
0.168831 0.000000 0.000000
0.181818 0.000000 0.000000
0.194805 0.000000 0.000000
0.207792 0.000000 0.000000
0.220779 0.000000 0.000000
0.233766 0.000000 0.000000
0.246753 0.000000 0.000000
0.259740 0.000000 0.000000
0.272727 0.000000 0.000000
0.285714 0.000000 0.000000
0.298701 0.000000 0.000000
0.311688 0.000000 0.000000
0.324675 0.000000 0.000000
0.337662 0.000000 0.000000
0.350649 0.000000 0.000000
0.363636 0.000000 0.000000
0.376623 0.000000 0.000000
0.389610 0.000000 0.000000
0.402597 0.000000 0.000000
0.415584 0.000000 0.000000
0.428571 0.000000 0.000000
0.441558 0.000000 0.000000
0.454545 0.000000 0.000000
0.467532 0.000000 0.000000
0.480519 0.000000 0.000000
0.493506 0.000000 0.000000
0.506494 0.000000 0.000000
0.519481 0.000000 0.000000
0.532468 0.000000 0.000000
0.545455 0.000000 0.000000
0.558442 0.000000 0.000000
0.571429 0.000000 0.000000
0.584416 0.000000 0.000000
0.597403 0.000000 0.000000
0.610390 0.000000 0.000000
0.623377 0.000000 0.000000
0.636364 0.000000 0.000000
0.649351 0.000000 0.000000
0.662338 0.000000 0.000000
0.675325 0.000000 0.000000
0.688312 0.000000 0.000000
0.701299 0.000000 0.000000
0.714286 0.000000 0.000000
0.727273 0.000000 0.000000
0.740260 0.000000 0.000000
0.753247 0.000000 0.000000
0.766234 0.000000 0.000000
0.779221 0.000000 0.000000
0.792208 0.000000 0.000000
0.805195 0.000000 0.000000
0.818182 0.000000 0.000000
0.831169 0.000000 0.000000
0.844156 0.000000 0.000000
0.857143 0.000000 0.000000
0.870130 0.000000 0.000000
0.883117 0.000000 0.000000
0.896104 0.000000 0.000000
0.909091 0.000000 0.000000
0.922078 0.000000 0.000000
0.935065 0.000000 0.000000
0.948052 0.000000 0.000000
0.961039 0.000000 0.000000
0.974026 0.000000 0.000000
0.987013 0.000000 0.000000
1.000000 0.012903 0.000000
1.000000 0.025806 0.000000
1.000000 0.038710 0.000000
1.000000 0.051613 0.000000
1.000000 0.064516 0.000000
1.000000 0.077419 0.000000
1.000000 0.090323 0.000000
1.000000 0.103226 0.000000
1.000000 0.116129 0.000000
1.000000 0.129032 0.000000
1.000000 0.141935 0.000000
1.000000 0.154839 0.000000
1.000000 0.167742 0.000000
1.000000 0.180645 0.000000
1.000000 0.193548 0.000000
1.000000 0.206452 0.000000
1.000000 0.219355 0.000000
1.000000 0.232258 0.000000
1.000000 0.245161 0.000000
1.000000 0.258065 0.000000
1.000000 0.270968 0.000000
1.000000 0.283871 0.000000
1.000000 0.296774 0.000000
1.000000 0.309677 0.000000
1.000000 0.322581 0.000000
1.000000 0.335484 0.000000
1.000000 0.348387 0.000000
1.000000 0.361290 0.000000
1.000000 0.374194 0.000000
1.000000 0.387097 0.000000
1.000000 0.400000 0.000000
1.000000 0.412903 0.000000
1.000000 0.425806 0.000000
1.000000 0.438710 0.000000
1.000000 0.451613 0.000000
1.000000 0.464516 0.000000
1.000000 0.477419 0.000000
1.000000 0.490323 0.000000
1.000000 0.503226 0.000000
1.000000 0.516129 0.000000
1.000000 0.529032 0.000000
1.000000 0.541935 0.000000
1.000000 0.554839 0.000000
1.000000 0.567742 0.000000
1.000000 0.580645 0.000000
1.000000 0.593548 0.000000
1.000000 0.606452 0.000000
1.000000 0.619355 0.000000
1.000000 0.632258 0.000000
1.000000 0.645161 0.000000
1.000000 0.658065 0.000000
1.000000 0.670968 0.000000
1.000000 0.683871 0.000000
1.000000 0.696774 0.000000
1.000000 0.709677 0.000000
1.000000 0.722581 0.000000
1.000000 0.735484 0.000000
1.000000 0.748387 0.000000
1.000000 0.761290 0.000000
1.000000 0.774194 0.000000
1.000000 0.787097 0.000000
1.000000 0.812500 0.000000
1.000000 0.825000 0.000000
1.000000 0.837500 0.000000
1.000000 0.850000 0.000000
1.000000 0.862500 0.000000
1.000000 0.875000 0.000000
1.000000 0.887500 0.000000
1.000000 0.900000 0.000000
1.000000 0.912500 0.000000
1.000000 0.925000 0.000000
1.000000 0.937500 0.000000
1.000000 0.950000 0.000000
1.000000 0.962500 0.000000
1.000000 0.975000 0.000000
1.000000 0.987500 0.000000
0.987013 1.000000 0.000000
0.974026 1.000000 0.000000
0.961039 1.000000 0.000000
0.948052 1.000000 0.000000
0.935065 1.000000 0.000000
0.922078 1.000000 0.000000
0.909091 1.000000 0.000000
0.896104 1.000000 0.000000
0.883117 1.000000 0.000000
0.870130 1.000000 0.000000
0.857143 1.000000 0.000000
0.844156 1.000000 0.000000
0.831169 1.000000 0.000000
0.818182 1.000000 0.000000
0.805195 1.000000 0.000000
0.792208 1.000000 0.000000
0.779221 1.000000 0.000000
0.766234 1.000000 0.000000
0.753247 1.000000 0.000000
0.740260 1.000000 0.000000
0.727273 1.000000 0.000000
0.714286 1.000000 0.000000
0.701299 1.000000 0.000000
0.688312 1.000000 0.000000
0.675325 1.000000 0.000000
0.662338 1.000000 0.000000
0.649351 1.000000 0.000000
0.636364 1.000000 0.000000
0.623377 1.000000 0.000000
0.610390 1.000000 0.000000
0.597403 1.000000 0.000000
0.584416 1.000000 0.000000
0.571429 1.000000 0.000000
0.558442 1.000000 0.000000
0.545455 1.000000 0.000000
0.532468 1.000000 0.000000
0.519481 1.000000 0.000000
0.506494 1.000000 0.000000
0.493506 1.000000 0.000000
0.480519 1.000000 0.000000
0.467532 1.000000 0.000000
0.454545 1.000000 0.000000
0.441558 1.000000 0.000000
0.428571 1.000000 0.000000
0.415584 1.000000 0.000000
0.402597 1.000000 0.000000
0.389610 1.000000 0.000000
0.376623 1.000000 0.000000
0.363636 1.000000 0.000000
0.350649 1.000000 0.000000
0.337662 1.000000 0.000000
0.324675 1.000000 0.000000
0.311688 1.000000 0.000000
0.298701 1.000000 0.000000
0.285714 1.000000 0.000000
0.272727 1.000000 0.000000
0.259740 1.000000 0.000000
0.246753 1.000000 0.000000
0.233766 1.000000 0.000000
0.220779 1.000000 0.000000
0.207792 1.000000 0.000000
0.194805 1.000000 0.000000
0.181818 1.000000 0.000000
0.168831 1.000000 0.000000
0.155844 1.000000 0.000000
0.142857 1.000000 0.000000
0.129870 1.000000 0.000000
0.116883 1.000000 0.000000
0.103896 1.000000 0.000000
0.090909 1.000000 0.000000
0.077922 1.000000 0.000000
0.064935 1.000000 0.000000
0.051948 1.000000 0.000000
0.038961 1.000000 0.000000
0.025974 1.000000 0.000000
0.012987 1.000000 0.000000
0.000000 0.987097 0.000000
0.000000 0.974194 0.000000
0.000000 0.961290 0.000000
0.000000 0.948387 0.000000
0.000000 0.935484 0.000000
0.000000 0.922581 0.000000
0.000000 0.909677 0.000000
0.000000 0.896774 0.000000
0.000000 0.883871 0.000000
0.000000 0.870968 0.000000
0.000000 0.858065 0.000000
0.000000 0.845161 0.000000
0.000000 0.832258 0.000000
0.000000 0.819355 0.000000
0.000000 0.806452 0.000000
0.000000 0.793548 0.000000
0.000000 0.780645 0.000000
0.000000 0.767742 0.000000
0.000000 0.754839 0.000000
0.000000 0.741935 0.000000
0.000000 0.729032 0.000000
0.000000 0.716129 0.000000
0.000000 0.703226 0.000000
0.000000 0.690323 0.000000
0.000000 0.677419 0.000000
0.000000 0.664516 0.000000
0.000000 0.651613 0.000000
0.000000 0.638710 0.000000
0.000000 0.625806 0.000000
0.000000 0.612903 0.000000
0.000000 0.600000 0.000000
0.000000 0.587097 0.000000
0.000000 0.574194 0.000000
0.000000 0.561290 0.000000
0.000000 0.548387 0.000000
0.000000 0.535484 0.000000
0.000000 0.522581 0.000000
0.000000 0.509677 0.000000
0.000000 0.496774 0.000000
0.000000 0.483871 0.000000
0.000000 0.470968 0.000000
0.000000 0.458065 0.000000
0.000000 0.445161 0.000000
0.000000 0.432258 0.000000
0.000000 0.419355 0.000000
0.000000 0.406452 0.000000
0.000000 0.393548 0.000000
0.000000 0.380645 0.000000
0.000000 0.367742 0.000000
0.000000 0.354839 0.000000
0.000000 0.341935 0.000000
0.000000 0.329032 0.000000
0.000000 0.316129 0.000000
0.000000 0.303226 0.000000
0.000000 0.290323 0.000000
0.000000 0.277419 0.000000
0.000000 0.264516 0.000000
0.000000 0.251613 0.000000
0.000000 0.238710 0.000000
0.000000 0.225806 0.000000
0.000000 0.212903 0.000000
0.000000 0.187500 0.000000
0.000000 0.175000 0.000000
0.000000 0.162500 0.000000
0.000000 0.150000 0.000000
0.000000 0.137500 0.000000
0.000000 0.125000 0.000000
0.000000 0.112500 0.000000
0.000000 0.100000 0.000000
0.000000 0.087500 0.000000
0.000000 0.075000 0.000000
0.000000 0.062500 0.000000
0.000000 0.050000 0.000000
0.000000 0.037500 0.000000
0.000000 0.025000 0.000000
0.000000 0.012500 0.000000
0.309756 0.338537 0.000000
0.319512 0.347073 0.000000
0.329268 0.355610 0.000000
0.339024 0.364146 0.000000
0.348780 0.372683 0.000000
0.358537 0.381220 0.000000
0.368293 0.389756 0.000000
0.378049 0.398293 0.000000
0.387805 0.406829 0.000000
0.397561 0.415366 0.000000
0.407317 0.423902 0.000000
0.417073 0.432439 0.000000
0.426829 0.440976 0.000000
0.436585 0.449512 0.000000
0.446341 0.458049 0.000000
0.456098 0.466585 0.000000
0.465854 0.475122 0.000000
0.475610 0.483659 0.000000
0.485366 0.492195 0.000000
0.495122 0.500732 0.000000
0.504878 0.509268 0.000000
0.514634 0.517805 0.000000
0.524390 0.526341 0.000000
0.534146 0.534878 0.000000
0.543902 0.543415 0.000000
0.553659 0.551951 0.000000
0.563415 0.560488 0.000000
0.573171 0.569024 0.000000
0.582927 0.577561 0.000000
0.592683 0.586098 0.000000
0.602439 0.594634 0.000000
0.612195 0.603171 0.000000
0.621951 0.611707 0.000000
0.631707 0.620244 0.000000
0.641463 0.628780 0.000000
0.651220 0.637317 0.000000
0.660976 0.645854 0.000000
0.670732 0.654390 0.000000
0.680488 0.662927 0.000000
0.690244 0.671463 0.000000
0.011538 0.205000 0.000000
0.023077 0.210000 0.000000
0.034615 0.215000 0.000000
0.046154 0.220000 0.000000
0.057692 0.225000 0.000000
0.069231 0.230000 0.000000
0.080769 0.235000 0.000000
0.092308 0.240000 0.000000
0.103846 0.245000 0.000000
0.115385 0.250000 0.000000
0.126923 0.255000 0.000000
0.138462 0.260000 0.000000
0.150000 0.265000 0.000000
0.161538 0.270000 0.000000
0.173077 0.275000 0.000000
[...]
POINT_DATA 7607
SCALARS UX float 1
LOOKUP_TABLE default
0.006645
0.001703
-0.018339
-0.562150
-0.652056
-0.235145
-0.177346
-0.335067
-0.002613
0.000164
0.002025
0.001449
0.011521
0.000388
-0.000243
0.010978
0.000308
0.000965
-0.000331
0.000060
0.000232
-0.000100
-0.000199
0.000193
-0.000142
0.000341
0.000127
-0.001570
-0.000231
-0.000211
-0.000840
-0.009958
0.000282
-0.000255
-0.000177
-0.000507
0.000428
0.000328
0.002616
0.000051
0.000691
-0.002037
0.000110
0.004184
0.000207
-0.000359
-0.002543
-0.000004
-0.000445
0.000161
0.000035
-0.004296
-0.000273
-0.001394
-0.000132
-0.000964
0.000179
-0.000061
0.000082
-0.001310
-0.001861
0.000586
-0.000343
-0.000811
0.003180
0.001097
-0.006239
0.000245
0.001793
0.000804
-0.001273
-0.000441
-0.004878
0.000525
0.005009
0.003072
-0.006210
0.000131
-0.000873
0.002202
0.000069
0.000813
-0.000201
-0.009224
-0.000052
0.012054
0.008493
0.014167
0.006221
0.012964
0.006176
0.020416
0.028554
0.032189
0.028688
0.038227
0.024672
0.044042
0.027427
0.023679
0.039130
0.043874
0.038113
0.049943
0.041272
0.050249
0.057290
0.039130
0.054071
0.063317
0.048029
0.073128
0.059769
0.063050
0.068334
0.054633
0.084290
0.062155
0.086129
0.063305
0.082085
0.093574
0.071701
0.084011
0.108118
0.085346
0.106561
0.102676
0.104199
0.117291
0.113528
0.111094
0.134664
0.100455
0.118733
0.120900
0.123209
0.137889
0.147072
0.130927
0.118953
0.116960
0.114923
0.196133
0.111041
-0.145850
0.007590
-0.186370
-0.225676
-0.396432
-0.384542
-0.527069
-0.465663
-0.533008
-0.519761
-0.562561
-0.523261
-0.535478
-0.562045
-0.541286
-0.541117
-0.549754
-0.555795
-0.567309
-0.560453
-0.562923
-0.557429
-0.565074
-0.565472
-0.566615
-0.563667
-0.568443
-0.566152
-0.563183
-0.571293
-0.569857
-0.569757
-0.577640
-0.578074
-0.575792
-0.573950
-0.576308
-0.575617
-0.578016
-0.580378
-0.578943
-0.584614
-0.580017
-0.584375
-0.586032
-0.582568
-0.591135
-0.589863
-0.592207
-0.595527
-0.592762
-0.591433
-0.596122
-0.594903
-0.595052
-0.598018
-0.597149
-0.607789
-0.594539
-0.599551
-0.610622
-0.600555
-0.609506
-0.604503
-0.615147
-0.617723
-0.621538
-0.625074
-0.622937
-0.622541
-0.632782
-0.622361
-0.634843
-0.638856
-0.625124
-0.644700
-0.636664
-0.638829
-0.634004
-0.645221
-0.650303
-0.644546
-0.651477
-0.651793
-0.650496
-0.650757
-0.653650
-0.657019
-0.657927
-0.657776
-0.660322
-0.662100
-0.662103
-0.663853
-0.650318
-0.658696
-0.646735
-0.654208
-0.655688
-0.660383
-0.657629
-0.657070
-0.679323
-0.662360
-0.666285
-0.660674
-0.663518
-0.672744
-0.667726
-0.664972
-0.658543
-0.669580
-0.668711
-0.665616
-0.664099
-0.672322
-0.662088
-0.664243
-0.673647
-0.668749
-0.666794
-0.645041
-0.641022
-0.653456
-0.665552
-0.662458
-0.670397
-0.659170
-0.670056
-0.665654
-0.678239
-0.662856
-0.670025
-0.663359
-0.668001
-0.666856
-0.662242
-0.669444
-0.671106
-0.661811
-0.663124
-0.646679
-0.665775
-0.641799
-0.640982
-0.626562
-0.604082
-0.584193
-0.579292
-0.555014
-0.436930
-0.584779
-0.350308
-0.156737
-0.299824
-0.090980
-0.037038
-0.056211
-0.029759
-0.026326
-0.019946
-0.018971
-0.010590
-0.022893
-0.009737
-0.005067
-0.007789
0.197847
-0.255121
-0.177750
-0.728518
-0.903255
-0.947208
-0.902963
-0.185969
-0.526147
-0.682797
-0.732189
-0.292321
0.131651
0.033871
-0.118067
-0.005228
0.136435
-0.013597
-0.400988
-0.460050
-0.033013
-0.696807
-1.026607
-0.538522
-0.767598
-0.305308
-0.314342
-0.441073
0.167152
-0.039025
0.210181
-0.141164
-0.112468
-0.024815
0.182152
-0.052388
-0.292155
0.040260
-0.728400
-0.636284
-0.382262
-0.621933
-0.106517
-0.457892
-0.325431
-0.446139
-0.624500
-0.394864
-0.690095
-0.150677
-0.558860
-0.378647
-0.574915
-0.622533
-0.197993
-0.635671
-0.694742
0.159693
0.035856
-0.612628
-0.209630
-0.217463
-0.664979
0.008784
-0.267187
-0.002441
-0.282587
0.011510
0.198598
-0.112102
0.110966
0.088887
-0.199897
0.140426
-0.198996
-0.059999
-0.134648
-0.057710
-0.000593
-0.248470
0.113721
-0.084712
-0.155028
0.216226
-0.007122
-0.113304
0.086955
0.037593
-0.076994
-0.564538
-0.579238
-0.583602
-0.580453
0.018927
0.015296
0.034661
-0.715092
-0.557353
-0.185867
-0.550357
-0.550569
-0.477084
-0.006588
0.006915
0.014674
-0.590150
-0.640149
-0.645040
-0.665911
0.032574
0.002889
0.010215
0.006780
0.005857
0.001414
-0.158018
-0.110226
-0.002314
-0.003874
-0.626927
-0.552446
-0.678802
-0.573186
-0.045297
-0.107446
0.009120
0.003521
-0.002468
-0.000115
-0.645803
-0.642831
-0.654107
-0.657151
-0.236292
-0.537071
-0.127750
-0.301285
0.092144
0.078064
0.068406
-0.548893
-0.575710
0.062565
0.031048
0.013810
0.039371
-0.591447
-0.576479
-0.569530
0.239238
-0.763174
-0.574845
-0.547814
-0.496948
-0.533576
-0.038013
-0.049836
-0.004876
-0.534233
-0.645003
-0.646219
-0.015976
0.012532
0.019517
-0.001774
-0.010427
-0.011040
-0.606847
-0.609980
-0.608458
-0.023042
-0.586767
-0.585150
-0.565827
0.024858
0.026291
-0.003394
0.032147
0.005687
-0.008399
-0.016742
-0.072239
-0.001077
-0.008928
-0.017953
0.057307
0.099238
0.118290
-0.631833
-0.296072
-0.287749
-0.446494
-0.409147
-0.663224
-0.545195
-0.603045
-0.575011
-0.641758
-0.558122
-0.020151
0.009865
0.007147
0.007173
0.046175
0.038780
-0.584330
-0.575812
-0.563398
0.006281
0.020992
0.020869
-0.547222
-0.547390
-0.548494
-0.536022
0.025575
0.058918
0.087546
0.049948
-0.006398
-0.555506
-0.029864
0.011524
-0.004522
-0.015758
-0.620585
-0.535999
-0.575401
-0.633387
-0.584376
-0.615119
-0.604009
-0.590849
-0.556726
-0.567413
-0.573727
-0.565428
-0.246101
-0.007718
-0.004907
0.000616
0.001422
-0.672072
-0.646948
-0.670276
-0.010372
-0.008568
-0.000668
-0.668511
-0.647773
-0.649206
-0.011742
-0.520241
-0.544244
-0.576946
-0.638474
-0.633548
-0.600252
-0.646976
-0.639149
-0.650689
-0.627656
0.070130
0.056122
0.072270
0.078245
0.081222
0.024882
0.053547
0.027939
0.030895
0.019313
-0.600668
-0.590599
-0.573032
-0.589505
-0.584150
-0.583180
-0.007013
-0.021001
-0.009694
-0.004053
0.012670
0.023293
0.011246
-0.052328
0.001447
-0.050260
-0.083846
-0.618594
-0.640029
-0.618451
-0.554378
0.015627
0.026057
0.017105
0.026577
0.019317
0.017544
0.036749
0.069487
0.077293
0.059509
-0.188553
0.368587
-0.644322
-0.646871
-0.649136
-0.263981
-0.602915
-0.521479
-0.476621
0.056037
0.117256
0.121608
0.048030
0.000370
0.032967
0.017546
-0.590172
-0.595870
-0.654007
-0.605058
-0.567989
-0.622306
-0.641273
-0.628432
-0.641363
0.001373
-0.018432
0.011559
-0.563357
-0.618358
-0.599954
-0.005981
0.027668
-0.018759
0.113520
0.065070
0.134677
-0.008698
-0.029737
-0.016922
-0.013575
-0.038353
-0.649074
-0.659678
-0.013302
-0.022104
0.002562
0.017149
0.008632
-0.001900
-0.015636
-0.002261
0.008359
-0.527991
-0.527667
-0.648493
-0.660806
-0.644897
-0.054561
-0.021916
0.124810
0.086476
0.008814
0.025361
0.017363
-0.022410
0.014308
-0.008621
-0.006432
0.018384
-0.647981
-0.639062
-0.659882
-0.634109
-0.656277
-0.634169
-0.659861
-0.638824
-0.033811
-0.097659
0.026716
0.120524
-0.652672
-0.639710
-0.634016
-0.627375
0.068428
0.138902
0.050721
0.042380
0.017001
-0.558413
-0.557893
-0.556673
0.032761
-0.534966
-0.557475
-0.571542
0.023141
-0.566560
-0.651956
-0.670962
-0.639426
-0.015278
0.013056
-0.007925
-0.614725
-0.623525
-0.605880
-0.023263
-0.015415
0.004360
-0.149725
0.014915
0.007847
0.061764
-0.556010
-0.561283
-0.526256
-0.556690
-0.654348
-0.654433
-0.624053
0.019925
0.026058
0.002801
0.013540
0.012715
0.012501
-0.641410
-0.660745
-0.659746
-0.574548
-0.553038
-0.603797
-0.026968
-0.008361
0.070131
0.060911
-0.012057
0.024285
0.027834
0.021605
-0.630480
-0.658707
-0.638042
-0.659540
-0.661476
-0.644817
-0.023992
0.019386
-0.010925
-0.016711
0.091477
0.067199
-0.031334
-0.306426
0.128005
0.111681
0.016625
0.021531
0.024890
0.016594
-0.598527
-0.621962
-0.588657
0.004964
0.001483
0.002793
0.007924
-0.027672
0.010769
-0.009780
-0.667155
-0.608843
-0.586817
-0.599529
-0.647542
-0.663554
-0.684846
-0.493946
-0.534913
-0.547514
-0.045067
-0.027791
0.010236
-0.558816
-0.554343
-0.559423
-0.515230
-0.562276
0.004094
0.001315
-0.629923
-0.648127
-0.644815
0.084198
0.075371
-0.579903
-0.594463
-0.028055
0.004059
-0.016513
0.004497
-0.030228
-0.019411
-0.019057
0.004402
0.012408
0.014250
-0.558984
-0.553509
-0.046816
-0.005360
-0.001939
-0.591614
-0.587328
-0.588577
0.007850
-0.647776
-0.634183
-0.636951
0.154894
0.027348
0.017830
-0.658011
-0.653978
0.088584
0.119352
-0.634643
-0.628194
-0.637297
-0.607497
-0.491516
-0.003142
-0.025983
-0.016403
-0.007799
-0.020951
-0.634393
-0.634036
-0.663995
-0.665650
-0.626392
0.090860
0.099006
-0.655831
-0.650927
-0.644738
0.010080
0.011057
-0.519966
-0.543598
-0.524104
-0.553626
0.005956
0.008189
0.000628
-0.664312
-0.643927
-0.649120
-0.639127
-0.641208
-0.633058
-0.652702
-0.627920
-0.668661
-0.613295
-0.000062
-0.000526
-0.000831
0.001647
-0.019506
-0.004388
0.001989
-0.662087
-0.662452
-0.661874
-0.563541
-0.483463
-0.455489
-0.564322
-0.660488
-0.645777
-0.634510
-0.656013
-0.658103
-0.670574
0.105679
0.135332
-0.660794
0.020297
-0.006679
-0.644581
-0.124263
-0.919401
0.560343
-0.662014
-0.641150
-0.011327
-0.672150
-0.667898
0.026935
0.001405
-0.003111
-0.049517
-0.032537
-0.005217
0.001414
-0.016812
0.058524
0.114245
0.071598
0.055749
0.102867
0.096548
-0.617064
-0.619915
-0.617380
-0.614976
0.016343
0.008166
0.019120
-0.032563
-0.004157
-0.534255
-0.544091
0.037595
0.022501
-0.669862
-0.661683
-0.658323
-0.654463
-0.017796
-0.035588
-0.047966
-0.048592
0.055969
0.190488
0.048079
0.202228
0.177888
-0.570693
-0.570482
-0.568952
0.017825
-0.623494
-0.634647
-0.655954
-0.557277
-0.531322
-0.029219
-0.013197
-0.011679
-0.027688
-0.582910
-0.543475
-0.567303
-0.558789
-0.560917
-0.560021
-0.003159
-0.000908
0.145223
0.024987
0.025860
-0.004769
-0.535425
-0.527017
-0.564434
-0.567917
-0.537462
-0.669290
-0.514317
0.005905
0.001890
-0.001594
-0.016615
-0.030516
-0.557499
-0.601415
-0.660728
-0.646916
-0.665605
-0.627523
-0.546129
-0.612483
-0.621467
-0.605630
-0.661876
0.429477
0.015053
-0.004589
-0.011124
0.001449
-0.019509
-0.020920
0.002960
-0.649100
-0.645434
-0.658131
-0.012416
-0.007573
-0.614377
-0.641492
-0.650089
-0.643838
0.005015
-0.021891
-0.064577
-0.650174
-0.006583
-0.007941
-0.652406
-0.639765
0.006780
0.006843
-0.000328
0.044856
0.002617
0.008928
-0.000327
-0.004438
-0.645666
-0.675896
-0.673194
-0.626825
-0.617831
-0.621074
-0.603226
-0.013473
-0.013714
-0.027645
-0.014333
0.157411
0.086676
0.101137
0.008821
0.069187
0.125477
-0.001257
-0.268034
-0.551947
-0.541867
-0.570867
-0.582282
-0.555841
-0.663456
-0.659834
-0.660055
-0.583327
-0.590703
-0.614595
-0.591105
0.088882
0.058434
-0.033980
-0.026058
-0.655145
-0.446140
-0.595912
-0.523753
-0.662928
-0.644349
-0.658745
-0.594091
-0.590339
-0.545647
-0.369791
-0.037290
-0.567147
-0.024275
0.147531
-0.016433
0.214624
0.147246
-0.018267
-0.011988
-0.003378
0.017654
-0.536811
-0.551560
-0.009919
-0.628313
-0.660172
-0.013789
-0.002612
-0.556029
-0.640047
-0.020882
-0.048169
-0.013008
-0.029396
-0.552571
-0.541297
-0.521243
-0.025908
0.009784
-0.671066
-0.021435
0.015072
-0.089865
-0.645976
-0.643140
-0.651488
0.022662
0.001174
-0.004388
-0.644154
0.027534
0.031344
-0.025549
-0.681628
-0.663248
-0.667601
-0.522159
-0.044912
0.000400
-0.005298
-0.573915
-0.596861
-0.570462
-0.553073
-0.546338
-0.579709
0.005165
-0.002267
0.019733
-0.006656
0.003623
0.002711
0.020066
-0.347894
-0.003550
-0.542047
-0.549859
-0.572500
-0.543383
-0.288911
-0.556562
-0.556336
-0.545851
-0.040285
-0.009594
-0.658382
-0.640202
-0.652142
-0.579479
-0.599595
-0.558768
-0.586455
-0.015583
-0.014193
-0.563636
-0.553892
-0.549225
0.012665
0.074034
0.141749
0.017851
-0.664889
-0.535543
-0.015381
0.009727
-0.009405
-0.646654
0.010621
0.009740
0.009891
0.000324
-0.668034
-0.003049
0.008061
0.002202
0.011590
0.006884
-0.532042
-0.560721
-0.563427
-0.560780
-0.004561
-0.002676
0.000904
-0.003256
0.087455
0.105723
0.096916
0.084028
-0.650633
-0.667397
-0.641247
-0.648251
-0.531009
0.002310
-0.006538
0.015715
0.007245
0.014921
-0.012389
0.016293
-0.572535
-0.646986
0.036944
0.028274
0.054062
-0.653151
-0.632258
-0.657435
-0.632279
-0.640230
-0.564539
0.097797
0.124324
0.129226
0.092680
0.141406
-0.552842
-0.568075
-0.625733
0.017915
0.005244
-0.627973
0.017935
0.029529
-0.596274
-0.586679
-0.594694
-0.648700
-0.652593
-0.021045
-0.628269
-0.623800
-0.609437
-0.630249
0.102780
0.092116
0.111132
0.124803
-0.609744
-0.578188
-0.630333
-0.603578
-0.595810
-0.003747
0.018300
0.018520
0.055883
0.050535
0.061122
-0.012178
-0.029412
-0.016118
-0.670582
0.028330
-0.658564
-0.654850
-0.639153
-0.654816
-0.636085
-0.646423
-0.578712
-0.645433
0.008107
-0.014598
-0.635932
0.200723
-0.022092
-0.008205
-0.016517
-0.594299
-0.585687
-0.585394
-0.025108
-0.006660
0.011368
0.008446
0.019248
-0.504047
-0.026687
-0.002320
-0.006492
-0.543916
-0.555499
-0.553576
0.130994
0.127388
0.084987
-0.003354
-0.010935
-0.648423
-0.643784
-0.647597
-0.464567
-0.658348
-0.672941
-0.664354
-0.640010
-0.652258
-0.629053
-0.248816
-0.330936
-0.270857
-0.534523
-0.569759
-0.573530
-0.039100
-0.008987
-0.161637
-0.592760
-0.552956
0.025194
-0.016780
0.169553
0.149776
0.134157
0.143302
-0.567040
-0.562900
-0.014620
-0.010526
-0.009404
0.030896
-0.005389
-0.006568
-0.649802
-0.001514
-0.015058
-0.036979
-0.002508
-0.629449
-0.617710
-0.580777
-0.598861
-0.665850
-0.643356
-0.662085
-0.668161
-0.002697
0.002963
0.018447
-0.649229
-0.644559
-0.610471
-0.605302
-0.561670
0.060647
0.041965
-0.570191
-0.554342
-0.228250
-0.581098
0.125813
0.179155
-0.571765
-0.605048
-0.171840
-0.543938
-0.008789
-0.023426
-0.013040
-0.583606
-0.580187
-0.585718
0.051721
0.146017
0.051444
-0.644753
-0.562979
-0.564998
-0.584311
-0.539673
-0.616209
-0.647886
-0.551243
-0.613252
-0.004458
-0.633095
-0.647186
-0.664724
-0.658912
0.007343
0.019470
0.013425
-0.017764
-0.017100
-0.573689
-0.555745
-0.527814
-0.002939
-0.009819
-0.015923
-0.007663
-0.010332
-0.540606
-0.543070
-0.573915
-0.447133
-0.644251
-0.585548
0.114456
0.138111
0.123311
0.070817
-0.556970
-0.560709
-0.043592
-0.037683
-0.046014
0.004575
-0.001216
0.009440
-0.632218
-0.644808
-0.007455
-0.009167
-0.559489
-0.513517
-0.005266
-0.007652
0.009839
-0.012153
-0.575240
-0.567049
-0.010228
-0.652219
-0.655607
-0.603192
0.002771
0.005260
-0.614439
-0.615909
-0.615770
-0.633087
-0.627370
-0.658794
-0.653873
0.005756
0.004615
-0.007955
-0.633450
-0.641552
-0.662709
0.105857
0.072024
0.078298
0.117800
-0.609287
-0.599641
-0.620105
-0.641831
0.061111
0.054435
0.066190
-0.659081
0.046959
-0.621008
0.007998
0.035377
-0.175148
-0.025399
0.084799
-0.647976
-0.654934
-0.648798
0.001211
0.005190
0.013008
0.137632
0.109224
0.127267
-0.220233
-0.124697
0.121801
0.128058
0.128000
-0.002159
-0.062694
-0.110818
-0.082146
0.057475
-0.008593
0.045749
0.030376
-0.023758
-0.573197
-0.010685
-0.004183
-0.002970
-0.010802
-0.018007
-0.529784
0.017378
-0.637890
-0.654907
-0.657619
-0.579531
-0.017065
-0.636259
-0.628192
-0.637103
-0.630545
-0.619412
0.095536
-0.519297
-0.562758
-0.543917
-0.502665
-0.006491
-0.534324
-0.565813
-0.552734
-0.559205
-0.565368
-0.003606
-0.633111
-0.635403
-0.650467
0.001656
-0.653618
-0.659069
-0.002603
0.047863
0.042895
-0.008624
-0.649911
0.163852
0.111548
0.041308
-0.652327
-0.651351
-0.650230
0.010557
0.004959
0.003234
-0.652306
-0.574525
-0.547796
-0.567775
-0.594115
-0.602125
-0.610293
-0.677438
-0.660923
-0.659964
-0.612111
-0.683698
-0.568650
0.062806
-0.544163
-0.620676
0.036310
0.043451
0.029765
-0.596755
-0.593779
-0.014482
-0.019983
-0.036545
-0.029918
-0.023065
0.048938
-0.560337
-0.653644
-0.648502
0.020700
-0.011852
-0.001513
-0.658936
-0.656404
-0.652689
0.016803
0.018787
0.014191
-0.580918
-0.565669
-0.580868
-0.577691
-0.553766
-0.561028
-0.005207
0.000649
0.024242
0.003866
-0.566585
-0.556621
-0.552041
-0.563531
-0.604599
-0.600520
-0.635338
-0.599005
-0.552902
-0.562245
-0.554036
-0.023055
-0.024850
-0.010821
-0.009396
-0.590281
-0.608902
-0.630894
-0.663986
-0.653739
0.130540
-0.009315
-0.028812
0.087583
0.085644
-0.008236
-0.655385
0.058537
-0.577543
-0.585757
-0.585985
-0.578066
-0.625478
-0.651170
-0.634471
-0.617622
-0.053045
-0.018444
-0.053917
-0.654291
-0.019983
0.008215
-0.003117
-0.095959
-0.567181
-0.645909
-0.569467
0.106312
0.111263
0.104593
-0.547230
-0.578385
-0.012194
-0.640986
-0.009486
-0.004075
-0.002195
0.008003
-0.020270
0.013093
-0.021831
-0.032219
-0.022597
-0.566487
-0.576070
0.041337
0.046188
0.088523
-0.621688
-0.670317
-0.657757
0.098054
-0.640754
-0.653501
-0.626905
-0.476888
-0.547188
-0.826827
-0.641137
-0.610195
-0.584239
-0.579698
-0.579990
0.013650
-0.164329
0.003203
-0.010225
-0.555857
-0.576412
-0.562527
-0.600663
-0.583958
-0.606826
-0.513720
-0.575246
-0.635050
-0.659965
-0.656780
-0.605081
-0.630074
-0.609699
-0.001709
0.016186
-0.011316
-0.660098
-0.657135
-0.654574
0.024102
-0.352077
-0.018106
-0.012038
-0.554849
-0.642123
-0.643097
-0.001658
-0.002439
-0.010819
-0.037126
0.003876
-0.567728
-0.571199
-0.659796
0.014992
0.022233
-0.631109
0.033910
0.044199
0.027440
0.027824
-0.655764
-0.685862
-0.626281
-0.561228
-0.592524
-0.584753
-0.001739
0.004346
-0.409347
-0.157914
-0.717624
-0.516482
-0.288647
-0.074240
-0.581181
-0.571459
-0.012496
-0.014138
-0.013996
-0.000294
-0.637572
-0.019386
-0.006591
-0.011559
-0.573156
-0.568359
0.030207
0.137802
0.027091
0.054297
0.100100
0.070570
0.026454
-0.015926
0.009108
-0.005330
0.041858
0.002007
-0.018282
-0.586754
-0.585999
-0.570430
-0.583614
-0.060934
-0.051064
-0.077078
0.133734
-0.045621
-0.138086
-0.042883
-0.161879
0.042469
0.025095
0.016458
-0.574328
-0.578467
0.007204
0.059216
-0.012311
0.026437
0.044262
0.080790
0.056653
0.007065
0.030946
0.036469
0.049195
-0.020509
-0.006234
0.062142
0.010845
0.121092
0.101268
0.005928
0.106096
0.116954
0.128336
-0.049974
-0.563782
-0.572673
-0.537937
-0.536171
-0.578759
0.025287
0.036486
0.031694
0.011461
0.035984
0.094626
0.117934
0.077809
-0.576385
-0.584416
-0.563756
-0.578933
-0.579305
-0.552415
-0.566941
-0.564338
-0.000266
-0.009661
-0.560153
-0.002714
0.113527
0.077778
0.091650
-0.155969
0.004412
0.112230
0.005041
-0.014116
-0.652016
-0.652022
-0.019893
-0.053470
0.014488
-0.025424
-0.660104
-0.654691
-0.651190
-0.664760
-0.576894
-0.585953
-0.588555
-0.580449
-0.580477
-0.564077
-0.019833
-0.004345
-0.571492
-0.561571
-0.563774
-0.563949
0.074692
0.085306
0.100478
0.086067
0.038489
-0.543921
-0.558734
-0.551234
0.110307
0.098472
0.102522
-0.023927
-0.017962
-0.008087
-0.031945
-0.130877
-0.135138
0.037934
0.007844
-0.312540
-0.303722
-0.573382
-0.570239
-0.018329
0.010631
0.119812
-0.004431
-0.558606
-0.561778
-0.580563
0.038166
-0.648594
-0.552898
-0.004588
0.001521
0.002721
-0.000519
-0.002819
0.002538
-0.563131
-0.606936
-0.012513
-0.022485
0.004783
-0.651047
-0.036380
-0.002495
-0.026481
0.008054
0.001977
-0.570001
-0.572919
0.005719
-0.012150
0.001007
-0.012375
-0.646922
-0.601904
-0.637607
-0.639458
-0.028192
-0.012776
-0.015230
-0.025913
0.007039
-0.022748
-0.564222
-0.578093
-0.014312
-0.016261
-0.053593
-0.016794
-0.033028
-0.634379
-0.635676
-0.617559
-0.638176
-0.624050
-0.622217
-0.639628
-0.016445
-0.579575
-0.578036
-0.578230
-0.570491
0.067558
0.024810
0.056763
0.046063
0.003578
0.003348
0.003772
-0.007463
-0.007647
-0.001995
-0.017128
-0.531220
-0.440702
-0.398954
-0.136423
0.322080
-0.265950
-0.162158
0.011534
-0.581524
-0.578890
-0.590229
-0.573367
-0.007833
-0.658291
-0.642611
0.029000
0.005504
0.061629
0.052922
-0.013551
-0.572274
-0.572441
-0.015656
-0.220746
-0.007273
0.001066
-0.011074
0.044936
0.043400
0.040502
-0.644836
-0.562429
-0.461032
-0.593100
-0.584515
-0.562841
0.010478
-0.571027
-0.575539
-0.575283
-0.574094
-0.007662
-0.057127
0.001054
0.032147
0.032315
0.050091
0.033361
0.032308
-0.004443
-0.001368
0.000089
-0.008335
-0.042394
-0.061981
-0.575505
-0.013841
-0.026073
-0.010246
-0.006317
-0.001574
0.006254
-0.013291
-0.561748
-0.010825
-0.001812
-0.642106
0.038089
0.032116
0.048630
-0.570504
-0.571540
-0.658905
-0.657444
-0.623040
-0.626760
-0.655770
-0.668890
-0.661575
-0.659398
0.043214
0.080804
-0.018426
-0.564975
-0.578552
-0.024443
-0.032368
-0.024231
0.026152
-0.511312
-0.614660
-0.616773
-0.571583
-0.617798
-0.593145
-0.599656
-0.651863
-0.619350