# vtk DataFile Version 2.0
Test
ASCII
DATASET POLYDATA
POINTS 7607 float
0.000000 0.000000 0.000000
1.000000 0.000000 0.000000
1.000000 0.800000 0.000000
1.000000 1.000000 0.000000
0.000000 1.000000 0.000000
0.000000 0.200000 0.000000
0.300000 0.330000 0.000000
0.700000 0.680000 0.000000
0.012987 0.000000 0.000000
0.025974 0.000000 0.000000
0.038961 0.000000 0.000000
0.051948 0.000000 0.000000
0.064935 0.000000 0.000000
0.077922 0.000000 0.000000
0.090909 0.000000 0.000000
0.103896 0.000000 0.000000
0.116883 0.000000 0.000000
0.129870 0.000000 0.000000
0.142857 0.000000 0.000000
0.155844 0.000000 0.000000
0.168831 0.000000 0.000000
0.181818 0.000000 0.000000
0.194805 0.000000 0.000000
0.207792 0.000000 0.000000
0.220779 0.000000 0.000000
0.233766 0.000000 0.000000
0.246753 0.000000 0.000000
0.259740 0.000000 0.000000
0.272727 0.000000 0.000000
0.285714 0.000000 0.000000
0.298701 0.000000 0.000000
0.311688 0.000000 0.000000
0.324675 0.000000 0.000000
0.337662 0.000000 0.000000
0.350649 0.000000 0.000000
0.363636 0.000000 0.000000
0.376623 0.000000 0.000000
0.389610 0.000000 0.000000
0.402597 0.000000 0.000000
0.415584 0.000000 0.000000
0.428571 0.000000 0.000000
0.441558 0.000000 0.000000
0.454545 0.000000 0.000000
0.467532 0.000000 0.000000
0.480519 0.000000 0.000000
0.493506 0.000000 0.000000
0.506494 0.000000 0.000000
0.519481 0.000000 0.000000
0.532468 0.000000 0.000000
0.545455 0.000000 0.000000
0.558442 0.000000 0.000000
0.571429 0.000000 0.000000
0.584416 0.000000 0.000000
0.597403 0.000000 0.000000
0.610390 0.000000 0.000000
0.623377 0.000000 0.000000
0.636364 0.000000 0.000000
0.649351 0.000000 0.000000
0.662338 0.000000 0.000000
0.675325 0.000000 0.000000
0.688312 0.000000 0.000000
0.701299 0.000000 0.000000
0.714286 0.000000 0.000000
0.727273 0.000000 0.000000
0.740260 0.000000 0.000000
0.753247 0.000000 0.000000
0.766234 0.000000 0.000000
0.779221 0.000000 0.000000
0.792208 0.000000 0.000000
0.805195 0.000000 0.000000
0.818182 0.000000 0.000000
0.831169 0.000000 0.000000
0.844156 0.000000 0.000000
0.857143 0.000000 0.000000
0.870130 0.000000 0.000000
0.883117 0.000000 0.000000
0.896104 0.000000 0.000000
0.909091 0.000000 0.000000
0.922078 0.000000 0.000000
0.935065 0.000000 0.000000
0.948052 0.000000 0.000000
0.961039 0.000000 0.000000
0.974026 0.000000 0.000000
0.987013 0.000000 0.000000
1.000000 0.012903 0.000000
1.000000 0.025806 0.000000
1.000000 0.038710 0.000000
1.000000 0.051613 0.000000
1.000000 0.064516 0.000000
1.000000 0.077419 0.000000
1.000000 0.090323 0.000000
1.000000 0.103226 0.000000
1.000000 0.116129 0.000000
1.000000 0.129032 0.000000
1.000000 0.141935 0.000000
1.000000 0.154839 0.000000
1.000000 0.167742 0.000000
1.000000 0.180645 0.000000
1.000000 0.193548 0.000000
1.000000 0.206452 0.000000
1.000000 0.219355 0.000000
1.000000 0.232258 0.000000
1.000000 0.245161 0.000000
1.000000 0.258065 0.000000
1.000000 0.270968 0.000000
1.000000 0.283871 0.000000
1.000000 0.296774 0.000000
1.000000 0.309677 0.000000
1.000000 0.322581 0.000000
1.000000 0.335484 0.000000
1.000000 0.348387 0.000000
1.000000 0.361290 0.000000
1.000000 0.374194 0.000000
1.000000 0.387097 0.000000
1.000000 0.400000 0.000000
1.000000 0.412903 0.000000
1.000000 0.425806 0.000000
1.000000 0.438710 0.000000
1.000000 0.451613 0.000000
1.000000 0.464516 0.000000
1.000000 0.477419 0.000000
1.000000 0.490323 0.000000
1.000000 0.503226 0.000000
1.000000 0.516129 0.000000
1.000000 0.529032 0.000000
1.000000 0.541935 0.000000
1.000000 0.554839 0.000000
1.000000 0.567742 0.000000
1.000000 0.580645 0.000000
1.000000 0.593548 0.000000
1.000000 0.606452 0.000000
1.000000 0.619355 0.000000
1.000000 0.632258 0.000000
1.000000 0.645161 0.000000
1.000000 0.658065 0.000000
1.000000 0.670968 0.000000
1.000000 0.683871 0.000000
1.000000 0.696774 0.000000
1.000000 0.709677 0.000000
1.000000 0.722581 0.000000
1.000000 0.735484 0.000000
1.000000 0.748387 0.000000
1.000000 0.761290 0.000000
1.000000 0.774194 0.000000
1.000000 0.787097 0.000000
1.000000 0.812500 0.000000
1.000000 0.825000 0.000000
1.000000 0.837500 0.000000
1.000000 0.850000 0.000000
1.000000 0.862500 0.000000
1.000000 0.875000 0.000000
1.000000 0.887500 0.000000
1.000000 0.900000 0.000000
1.000000 0.912500 0.000000
1.000000 0.925000 0.000000
1.000000 0.937500 0.000000
1.000000 0.950000 0.000000
1.000000 0.962500 0.000000
1.000000 0.975000 0.000000
1.000000 0.987500 0.000000
0.987013 1.000000 0.000000
0.974026 1.000000 0.000000
0.961039 1.000000 0.000000
0.948052 1.000000 0.000000
0.935065 1.000000 0.000000
0.922078 1.000000 0.000000
0.909091 1.000000 0.000000
0.896104 1.000000 0.000000
0.883117 1.000000 0.000000
0.870130 1.000000 0.000000
0.857143 1.000000 0.000000
0.844156 1.000000 0.000000
0.831169 1.000000 0.000000
0.818182 1.000000 0.000000
0.805195 1.000000 0.000000
0.792208 1.000000 0.000000
0.779221 1.000000 0.000000
0.766234 1.000000 0.000000
0.753247 1.000000 0.000000
0.740260 1.000000 0.000000
0.727273 1.000000 0.000000
0.714286 1.000000 0.000000
0.701299 1.000000 0.000000
0.688312 1.000000 0.000000
0.675325 1.000000 0.000000
0.662338 1.000000 0.000000
0.649351 1.000000 0.000000
0.636364 1.000000 0.000000
0.623377 1.000000 0.000000
0.610390 1.000000 0.000000
0.597403 1.000000 0.000000
0.584416 1.000000 0.000000
0.571429 1.000000 0.000000
0.558442 1.000000 0.000000
0.545455 1.000000 0.000000
0.532468 1.000000 0.000000
0.519481 1.000000 0.000000
0.506494 1.000000 0.000000
0.493506 1.000000 0.000000
0.480519 1.000000 0.000000
0.467532 1.000000 0.000000
0.454545 1.000000 0.000000
0.441558 1.000000 0.000000
0.428571 1.000000 0.000000
0.415584 1.000000 0.000000
0.402597 1.000000 0.000000
0.389610 1.000000 0.000000
0.376623 1.000000 0.000000
0.363636 1.000000 0.000000
0.350649 1.000000 0.000000
0.337662 1.000000 0.000000
0.324675 1.000000 0.000000
0.311688 1.000000 0.000000
0.298701 1.000000 0.000000
0.285714 1.000000 0.000000
0.272727 1.000000 0.000000
0.259740 1.000000 0.000000
0.246753 1.000000 0.000000
0.233766 1.000000 0.000000
0.220779 1.000000 0.000000
0.207792 1.000000 0.000000
0.194805 1.000000 0.000000
0.181818 1.000000 0.000000
0.168831 1.000000 0.000000
0.155844 1.000000 0.000000
0.142857 1.000000 0.000000
0.129870 1.000000 0.000000
0.116883 1.000000 0.000000
0.103896 1.000000 0.000000
0.090909 1.000000 0.000000
0.077922 1.000000 0.000000
0.064935 1.000000 0.000000
0.051948 1.000000 0.000000
0.038961 1.000000 0.000000
0.025974 1.000000 0.000000
0.012987 1.000000 0.000000
0.000000 0.987097 0.000000
0.000000 0.974194 0.000000
0.000000 0.961290 0.000000
0.000000 0.948387 0.000000
0.000000 0.935484 0.000000
0.000000 0.922581 0.000000
0.000000 0.909677 0.000000
0.000000 0.896774 0.000000
0.000000 0.883871 0.000000
0.000000 0.870968 0.000000
0.000000 0.858065 0.000000
0.000000 0.845161 0.000000
0.000000 0.832258 0.000000
0.000000 0.819355 0.000000
0.000000 0.806452 0.000000
0.000000 0.793548 0.000000
0.000000 0.780645 0.000000
0.000000 0.767742 0.000000
0.000000 0.754839 0.000000
0.000000 0.741935 0.000000
0.000000 0.729032 0.000000
0.000000 0.716129 0.000000
0.000000 0.703226 0.000000
0.000000 0.690323 0.000000
0.000000 0.677419 0.000000
0.000000 0.664516 0.000000
0.000000 0.651613 0.000000
0.000000 0.638710 0.000000
0.000000 0.625806 0.000000
0.000000 0.612903 0.000000
0.000000 0.600000 0.000000
0.000000 0.587097 0.000000
0.000000 0.574194 0.000000
0.000000 0.561290 0.000000
0.000000 0.548387 0.000000
0.000000 0.535484 0.000000
0.000000 0.522581 0.000000
0.000000 0.509677 0.000000
0.000000 0.496774 0.000000
0.000000 0.483871 0.000000
0.000000 0.470968 0.000000
0.000000 0.458065 0.000000
0.000000 0.445161 0.000000
0.000000 0.432258 0.000000
0.000000 0.419355 0.000000
0.000000 0.406452 0.000000
0.000000 0.393548 0.000000
0.000000 0.380645 0.000000
0.000000 0.367742 0.000000
0.000000 0.354839 0.000000
0.000000 0.341935 0.000000
0.000000 0.329032 0.000000
0.000000 0.316129 0.000000
0.000000 0.303226 0.000000
0.000000 0.290323 0.000000
0.000000 0.277419 0.000000
0.000000 0.264516 0.000000
0.000000 0.251613 0.000000
0.000000 0.238710 0.000000
0.000000 0.225806 0.000000
0.000000 0.212903 0.000000
0.000000 0.187500 0.000000
0.000000 0.175000 0.000000
0.000000 0.162500 0.000000
0.000000 0.150000 0.000000
0.000000 0.137500 0.000000
0.000000 0.125000 0.000000
0.000000 0.112500 0.000000
0.000000 0.100000 0.000000
0.000000 0.087500 0.000000
0.000000 0.075000 0.000000
0.000000 0.062500 0.000000
0.000000 0.050000 0.000000
0.000000 0.037500 0.000000
0.000000 0.025000 0.000000
0.000000 0.012500 0.000000
0.309756 0.338537 0.000000
0.319512 0.347073 0.000000
0.329268 0.355610 0.000000
0.339024 0.364146 0.000000
0.348780 0.372683 0.000000
0.358537 0.381220 0.000000
0.368293 0.389756 0.000000
0.378049 0.398293 0.000000
0.387805 0.406829 0.000000
0.397561 0.415366 0.000000
0.407317 0.423902 0.000000
0.417073 0.432439 0.000000
0.426829 0.440976 0.000000
0.436585 0.449512 0.000000
0.446341 0.458049 0.000000
0.456098 0.466585 0.000000
0.465854 0.475122 0.000000
0.475610 0.483659 0.000000
0.485366 0.492195 0.000000
0.495122 0.500732 0.000000
0.504878 0.509268 0.000000
0.514634 0.517805 0.000000
0.524390 0.526341 0.000000
0.534146 0.534878 0.000000
0.543902 0.543415 0.000000
0.553659 0.551951 0.000000
0.563415 0.560488 0.000000
0.573171 0.569024 0.000000
0.582927 0.577561 0.000000
0.592683 0.586098 0.000000
0.602439 0.594634 0.000000
0.612195 0.603171 0.000000
0.621951 0.611707 0.000000
0.631707 0.620244 0.000000
0.641463 0.628780 0.000000
0.651220 0.637317 0.000000
0.660976 0.645854 0.000000
0.670732 0.654390 0.000000
0.680488 0.662927 0.000000
0.690244 0.671463 0.000000
0.011538 0.205000 0.000000
0.023077 0.210000 0.000000
0.034615 0.215000 0.000000
0.046154 0.220000 0.000000
0.057692 0.225000 0.000000
0.069231 0.230000 0.000000
0.080769 0.235000 0.000000
0.092308 0.240000 0.000000
0.103846 0.245000 0.000000
0.115385 0.250000 0.000000
0.126923 0.255000 0.000000
0.138462 0.260000 0.000000
0.150000 0.265000 0.000000
0.161538 0.270000 0.000000
0.173077 0.275000 0.000000
[...]
POINT_DATA 7607
SCALARS UX float 1
LOOKUP_TABLE default
0.002491
0.001619
0.013482
-0.013173
-0.067617
-0.033972
-0.041263
-0.014419
-0.000324
-0.000068
-0.000841
0.000602
0.005783
-0.000218
-0.000083
0.005771
0.000160
0.000178
-0.000098
0.000066
0.000004
-0.000007
-0.000051
0.000079
-0.000054
0.000211
0.000036
-0.000432
-0.000014
-0.000049
-0.000211
-0.004159
0.000083
-0.000062
-0.000003
-0.000197
0.000141
0.000129
0.001341
0.000050
0.000839
-0.000849
-0.000054
0.002722
0.000084
0.000385
-0.001838
-0.000018
-0.000085
0.000022
0.000046
-0.001938
-0.000092
-0.000860
-0.000016
0.000113
-0.000073
-0.000032
-0.000010
-0.000190
-0.000312
0.000090
-0.000085
0.000114
0.003632
0.000106
-0.004809
0.000157
0.001435
-0.000070
-0.000352
-0.000348
-0.004001
-0.000822
0.003467
0.001642
-0.003704
-0.000130
-0.000409
0.000881
0.000188
-0.000042
-0.000067
-0.007275
-0.001347
0.009361
0.004046
0.007135
0.005302
0.005833
0.005684
0.010513
0.020896
0.022041
0.017978
0.023537
0.015483
0.033106
0.017445
0.018806
0.030412
0.030928
0.030926
0.037630
0.032592
0.038127
0.042825
0.030782
0.040180
0.047186
0.038692
0.054166
0.048326
0.048758
0.050689
0.045548
0.056119
0.051424
0.060367
0.047357
0.055560
0.058914
0.052137
0.052691
0.062543
0.052365
0.057406
0.058600
0.048177
0.056440
0.057677
0.046504
0.056627
0.040010
0.043723
0.039827
0.045870
0.037588
0.043680
0.034131
0.031699
0.034621
0.030561
0.030760
0.028829
0.016576
0.018970
0.002506
0.003877
-0.014760
0.005229
-0.001635
-0.003278
0.000434
-0.003895
-0.008489
-0.008015
0.003318
-0.013636
-0.008056
-0.003101
-0.009786
-0.009854
-0.017292
-0.014420
-0.015933
-0.014596
-0.019991
-0.018601
-0.019757
-0.019107
-0.021784
-0.019587
-0.019081
-0.022839
-0.025312
-0.019660
-0.028364
-0.028907
-0.026226
-0.025513
-0.027187
-0.024500
-0.027242
-0.028681
-0.028632
-0.029397
-0.028498
-0.030417
-0.030821
-0.029806
-0.033971
-0.032417
-0.035539
-0.034321
-0.035151
-0.033021
-0.034937
-0.035926
-0.035097
-0.034983
-0.037529
-0.040269
-0.035976
-0.036622
-0.042598
-0.038525
-0.042700
-0.038673
-0.046106
-0.046395
-0.048675
-0.049843
-0.049995
-0.048831
-0.054761
-0.049921
-0.055521
-0.059426
-0.050327
-0.062759
-0.057615
-0.058688
-0.057026
-0.062558
-0.067183
-0.062436
-0.067432
-0.069187
-0.066057
-0.068342
-0.069248
-0.073233
-0.072454
-0.072676
-0.073093
-0.076649
-0.075615
-0.075695
-0.068396
-0.071198
-0.064220
-0.070138
-0.070277
-0.075750
-0.072569
-0.071390
-0.088553
-0.077395
-0.079374
-0.075830
-0.078899
-0.085632
-0.082548
-0.080042
-0.076334
-0.083695
-0.084407
-0.082921
-0.080925
-0.088946
-0.082033
-0.081107
-0.092495
-0.086408
-0.087639
-0.073686
-0.068178
-0.076713
-0.085914
-0.086006
-0.087722
-0.082764
-0.089274
-0.087039
-0.094956
-0.084193
-0.088325
-0.083620
-0.085877
-0.086399
-0.084345
-0.085136
-0.093402
-0.078433
-0.086130
-0.077947
-0.078893
-0.075378
-0.077181
-0.068130
-0.066087
-0.057502
-0.065699
-0.052116
-0.050424
-0.052313
-0.046741
-0.028140
-0.033743
-0.029886
-0.004742
-0.025402
-0.017569
-0.015238
-0.013534
-0.012774
-0.008480
-0.011992
-0.010221
-0.006727
-0.003706
-0.028826
-0.028607
-0.046613
-0.066777
-0.041440
-0.039183
-0.062201
-0.036188
-0.016667
-0.031881
-0.012990
-0.044794
0.012326
-0.027781
-0.036208
-0.023828
-0.023463
-0.019095
-0.012688
0.015733
0.003207
0.006222
-0.046254
-0.003695
0.008200
-0.037383
-0.018223
-0.018256
-0.063586
-0.028520
0.012177
0.001149
-0.008379
0.042598
0.031337
0.052593
0.015966
0.000902
-0.046376
-0.035550
-0.037186
-0.053380
-0.030701
-0.049572
-0.047197
-0.061509
-0.056764
-0.038376
-0.054441
-0.025429
-0.051634
-0.034406
-0.056130
-0.043949
-0.038358
-0.075675
-0.043272
-0.043320
-0.047855
-0.067421
-0.045531
-0.051211
-0.060518
-0.045165
-0.055686
-0.006346
0.020802
0.022561
0.028616
0.029526
0.018050
0.021926
-0.002651
0.026410
0.006160
0.022738
0.005049
0.014532
0.022188
0.008322
0.008555
0.014223
0.020654
0.013552
0.019508
0.015181
0.022057
0.029926
-0.000619
-0.019914
-0.026227
-0.028334
-0.024961
0.034772
0.028124
0.021489
-0.066547
-0.084200
-0.058456
-0.058493
-0.055542
-0.046884
-0.006997
0.004934
0.007968
-0.063305
-0.060967
-0.062970
-0.080086
0.022319
0.006174
0.016157
0.007279
-0.030034
-0.015198
-0.036774
-0.022923
0.001202
-0.004893
-0.044640
-0.049374
-0.094846
-0.073976
-0.034887
-0.023753
0.008929
0.002253
-0.003506
-0.003167
-0.062486
-0.062014
-0.069676
-0.072964
-0.002656
0.002361
0.004877
0.006938
0.036916
0.031202
0.042228
-0.017961
-0.022897
0.032332
0.024653
0.008989
0.033674
-0.033632
-0.027663
-0.022825
-0.029934
-0.055358
-0.023000
-0.009733
-0.001524
-0.009363
-0.017627
-0.025350
-0.016626
-0.024339
-0.063198
-0.065489
-0.011650
0.008739
0.024477
-0.003367
-0.008371
-0.008894
-0.042673
-0.040835
-0.043604
-0.014779
-0.030985
-0.029989
-0.019105
0.017986
0.022387
0.003131
0.015116
0.002547
-0.007066
-0.012294
-0.026410
-0.012209
-0.009600
-0.013944
0.022613
0.038530
0.040095
-0.072046
-0.055529
-0.046332
-0.011315
-0.007279
-0.017837
-0.005373
-0.039602
-0.022194
-0.058080
-0.019102
-0.011896
0.007501
0.003364
0.003875
0.036169
0.029929
-0.030119
-0.023774
-0.020999
0.012708
0.016418
0.009128
-0.006894
-0.008719
-0.018486
-0.010476
0.022579
0.019250
0.036154
0.022531
-0.004258
-0.014996
-0.013288
0.001611
-0.001342
-0.004767
-0.076985
-0.063461
-0.065986
-0.083546
-0.027863
-0.048683
-0.040138
-0.033778
-0.013709
-0.022758
-0.022107
-0.019724
0.019655
-0.006509
-0.004029
-0.003204
0.000286
-0.087908
-0.072786
-0.087714
-0.007716
-0.006492
-0.001359
-0.081040
-0.065598
-0.066532
-0.009341
-0.011475
-0.015464
-0.021988
-0.074321
-0.072142
-0.060199
-0.064534
-0.059747
-0.066966
-0.069791
0.051355
0.042002
0.044579
0.047164
0.041589
0.032198
0.038429
0.021030
0.027832
0.022397
-0.039093
-0.031765
-0.022895
-0.033823
-0.030659
-0.029519
-0.004946
-0.012479
-0.007703
-0.003804
0.007403
0.022366
0.000527
-0.021166
-0.009054
-0.018779
-0.028278
-0.058908
-0.065759
-0.066200
-0.054592
0.026039
0.040376
0.022319
0.020885
0.024284
0.021527
0.033616
0.049743
0.044833
0.039708
0.002218
0.066362
-0.078661
-0.070810
-0.073893
-0.007072
-0.010621
-0.009287
-0.001216
0.030946
0.038271
0.042983
0.054800
0.029171
0.033127
0.015372
-0.034141
-0.034073
-0.078037
-0.062997
-0.056101
-0.046782
-0.061141
-0.052523
-0.060801
-0.000411
-0.011363
0.005753
-0.055956
-0.049089
-0.038004
-0.002090
0.015256
-0.010766
0.032820
0.029729
0.044879
-0.003593
-0.010414
-0.012744
-0.010282
-0.012566
-0.066572
-0.072879
-0.005556
-0.011729
-0.002159
0.008618
0.004839
0.000487
-0.011385
-0.001230
0.008783
-0.005344
-0.004611
-0.066152
-0.074064
-0.058977
-0.014357
-0.014439
0.043764
0.040604
0.007252
0.040878
0.014875
0.038664
0.012375
-0.003680
-0.000343
0.007614
-0.070312
-0.079080
-0.089634
-0.068984
-0.083147
-0.065201
-0.091354
-0.054407
0.025520
0.008052
0.019212
0.021183
-0.086525
-0.078951
-0.072632
-0.067185
0.017805
0.050870
0.050478
0.037778
0.028659
-0.016713
-0.011620
-0.012457
0.019865
-0.007629
-0.011583
-0.020875
0.046702
-0.016273
-0.074309
-0.091374
-0.068262
-0.008940
0.007297
-0.008134
-0.051839
-0.057015
-0.046127
-0.009054
-0.007683
0.003867
0.030880
0.022996
0.002196
0.014542
-0.012803
-0.015064
-0.001197
-0.022068
-0.063451
-0.078674
-0.055373
0.013661
0.019015
0.001719
0.012820
0.011467
0.011153
-0.061804
-0.074301
-0.073766
-0.018321
-0.022794
-0.059686
-0.013642
-0.026765
0.037463
0.009566
-0.007485
0.018098
0.016838
0.018990
-0.063230
-0.086977
-0.066623
-0.085850
-0.091443
-0.067278
-0.015682
0.011535
-0.006627
-0.010943
0.052641
0.022174
0.035077
0.049620
0.006542
0.010526
0.024058
0.020706
0.022630
0.024230
-0.044967
-0.044851
-0.021956
0.007151
0.003533
0.005258
0.003053
-0.016800
0.001366
-0.007796
-0.086830
-0.055720
-0.026963
-0.038240
-0.069562
-0.081299
-0.099895
-0.006192
-0.012074
-0.005784
-0.019559
-0.016598
-0.008908
-0.010786
-0.010569
-0.013114
-0.001330
-0.001736
0.006303
-0.004248
-0.052999
-0.065403
-0.062776
0.051242
0.028492
-0.018618
-0.042548
-0.016423
0.004550
-0.011493
0.006291
-0.013431
-0.013280
-0.011576
0.011940
0.017433
0.018789
-0.014135
-0.017246
-0.025371
-0.000723
-0.002568
-0.035807
-0.031276
-0.031366
0.015124
-0.072619
-0.056692
-0.070403
0.065056
0.022903
0.013197
-0.072440
-0.069882
0.036212
0.032833
-0.057744
-0.052316
-0.058722
-0.023035
-0.008987
-0.004088
-0.017636
-0.001743
-0.002434
-0.012940
-0.056581
-0.053750
-0.077309
-0.081045
-0.050724
0.034322
0.042157
-0.079596
-0.073408
-0.074028
0.008979
0.006726
-0.007313
-0.011606
-0.008596
-0.009637
0.004039
0.008047
0.001560
-0.076692
-0.062955
-0.064658
-0.058501
-0.061677
-0.055771
-0.081573
-0.062884
-0.088901
-0.063943
0.001052
-0.003040
-0.001503
-0.001505
-0.014667
-0.007259
-0.004457
-0.076807
-0.077449
-0.076611
-0.014847
0.002864
-0.002352
-0.011263
-0.072953
-0.073592
-0.071956
-0.072103
-0.073743
-0.081996
0.036154
0.057065
-0.085743
0.015540
-0.004799
-0.064752
0.011245
-0.036441
0.051432
-0.075765
-0.060493
-0.009755
-0.082634
-0.079678
0.017840
0.000535
-0.000371
-0.023263
-0.017468
-0.003589
-0.000455
-0.007781
0.033574
0.058144
0.042803
0.038409
0.051566
0.051298
-0.046475
-0.048018
-0.046757
-0.044394
0.015649
0.008506
0.016144
-0.022486
-0.003443
0.002963
-0.006284
0.037777
0.032362
-0.083496
-0.076715
-0.073979
-0.071630
-0.005057
-0.032851
-0.022204
-0.015796
0.027143
0.040742
0.023643
0.039781
0.026140
-0.022155
-0.016412
-0.017536
0.016869
-0.069828
-0.067794
-0.077954
-0.058322
-0.050102
-0.021410
-0.003249
-0.012317
-0.006427
-0.025258
-0.009679
-0.018609
-0.013780
-0.015491
-0.020564
0.000053
0.001715
0.028450
0.026912
0.036824
0.012954
-0.002935
-0.012836
-0.011538
-0.018266
-0.007930
-0.079622
0.001589
0.022592
0.000924
-0.006153
-0.015827
-0.012513
-0.055648
-0.059656
-0.086110
-0.074934
-0.073156
-0.073733
-0.057396
-0.052902
-0.058287
-0.055777
-0.081467
0.071607
0.026052
0.022251
0.022437
0.019466
-0.008948
-0.009776
0.022943
-0.069071
-0.063734
-0.072708
-0.005538
-0.009238
-0.056099
-0.060560
-0.067175
-0.068635
-0.006375
-0.009646
-0.013669
-0.078553
-0.002991
-0.005505
-0.073645
-0.071769
0.023812
0.017722
0.021454
0.012899
0.003295
0.005693
-0.001474
-0.000552
-0.069842
-0.091848
-0.089408
-0.055446
-0.051891
-0.055804
-0.042256
-0.005769
-0.007556
-0.013620
-0.012549
0.031875
0.027068
0.026174
0.006032
0.018316
0.032058
0.001547
0.012516
-0.008263
-0.012381
-0.018554
-0.020559
-0.020576
-0.077825
-0.074992
-0.075049
-0.029008
-0.033907
-0.046891
-0.032519
0.047165
0.022403
-0.018174
-0.016112
-0.072488
-0.055482
-0.052686
-0.045086
-0.078514
-0.065295
-0.076164
-0.054870
-0.054810
-0.008053
-0.030777
-0.017768
-0.020371
-0.013732
0.039901
-0.007987
0.038572
0.036446
-0.013459
-0.005942
-0.003380
0.010392
-0.004469
-0.005548
-0.007968
-0.062639
-0.078743
-0.007133
-0.000615
-0.021054
-0.060435
-0.022958
-0.020487
-0.014372
-0.010973
-0.010910
-0.010487
0.002208
-0.010291
0.000498
-0.081308
-0.008809
0.008177
-0.025563
-0.063280
-0.061200
-0.080705
0.018113
0.001406
-0.008523
-0.074891
0.018263
0.024705
-0.016956
-0.102158
-0.077523
-0.092158
0.006250
-0.025154
-0.004227
0.000026
-0.023607
-0.038067
-0.020981
-0.012834
-0.008051
-0.027856
-0.002765
-0.005550
0.010755
0.004981
0.011674
0.018553
0.008111
0.005982
0.020564
-0.010019
-0.015510
-0.022233
-0.011809
-0.037113
-0.014948
-0.012933
-0.010415
-0.020249
-0.005139
-0.074166
-0.059507
-0.068720
-0.060800
-0.056876
-0.057164
-0.054702
-0.008857
-0.003496
-0.020851
-0.010705
-0.008179
0.020645
0.031545
0.031226
0.019915
-0.078492
-0.004129
-0.006734
0.005274
-0.003801
-0.064502
0.026321
0.017468
0.030257
0.000024
-0.079817
0.003128
0.007369
0.002602
0.011295
0.005071
0.000980
-0.016123
-0.016827
-0.012613
-0.002463
-0.003238
-0.002788
-0.002478
0.050565
0.057027
0.052334
0.049784
-0.068501
-0.078159
-0.061229
-0.040417
-0.035352
0.013885
0.010068
0.021889
0.003047
0.009135
-0.007486
0.025637
-0.025181
-0.061591
0.035057
0.028808
0.048386
-0.080421
-0.059390
-0.079455
-0.062668
-0.068804
-0.019117
0.034307
0.038066
0.028133
0.031844
0.021199
-0.025558
-0.027643
-0.049735
0.005754
0.006754
-0.054705
0.018337
0.019768
-0.036517
-0.030939
-0.035166
-0.065742
-0.069174
-0.009342
-0.050898
-0.050784
-0.042867
-0.053486
0.050210
0.043020
0.055621
0.061624
-0.068224
-0.025707
-0.062195
-0.057856
-0.068465
0.011221
0.025438
0.028813
0.043196
0.040793
0.048816
-0.009272
-0.010850
-0.009099
-0.081104
0.021171
-0.078543
-0.070456
-0.059393
-0.079311
-0.075951
-0.081926
-0.057452
-0.087185
0.003386
-0.010440
-0.072869
0.025353
-0.012019
-0.006084
-0.010525
-0.036924
-0.031324
-0.030564
-0.020170
-0.010833
0.008122
0.007565
0.012373
0.004217
-0.013485
-0.007074
-0.007926
-0.006121
-0.014504
-0.010313
0.031045
0.022934
0.028643
-0.003835
-0.008531
-0.064571
-0.062082
-0.065144
-0.040824
-0.083422
-0.090115
-0.091279
-0.059838
-0.068281
-0.052604
-0.000278
0.005570
-0.004665
-0.057764
-0.051553
-0.060941
-0.019730
-0.008429
-0.034060
-0.027743
-0.013289
0.012140
-0.009265
0.045606
0.040981
0.031082
0.036932
-0.015532
-0.015640
-0.005848
-0.001498
-0.007308
0.018384
0.000714
-0.002986
-0.065520
0.004014
-0.011534
-0.015599
-0.000415
-0.052022
-0.045541
-0.060693
-0.052679
-0.104500
-0.061672
-0.075780
-0.078737
-0.001941
0.001237
0.010722
-0.075397
-0.073300
-0.065156
-0.073370
-0.016803
0.025324
0.017344
-0.024120
-0.011455
0.011835
-0.022123
0.041138
0.044969
-0.022301
-0.039016
-0.036751
-0.047928
-0.006054
-0.012684
-0.007068
-0.030126
-0.027198
-0.032559
0.032297
0.084258
0.041922
-0.063960
-0.056666
-0.065067
-0.066363
-0.027073
-0.063119
-0.066943
-0.063581
-0.079239
-0.007494
-0.059236
-0.064107
-0.076860
-0.073707
0.003612
0.012117
0.010696
-0.008635
-0.009584
-0.022985
-0.008151
-0.006570
-0.003353
-0.008901
-0.009681
-0.006358
-0.007245
-0.012402
-0.007276
-0.047799
-0.058171
-0.074820
-0.048619
0.034132
0.039156
0.040575
0.027788
-0.011178
-0.015780
-0.026377
-0.023550
-0.022406
0.005675
0.000219
-0.001347
-0.069962
-0.069684
-0.011850
-0.006361
-0.015354
0.003027
-0.006421
-0.009730
0.004955
-0.009409
-0.022820
-0.020350
-0.007633
-0.069689
-0.072158
-0.073809
0.001148
0.002167
-0.051187
-0.050210
-0.052895
-0.065437
-0.067637
-0.073366
-0.070233
0.004121
0.002691
-0.006521
-0.054695
-0.060690
-0.076414
0.023365
0.021112
0.023720
0.029834
-0.046568
-0.057583
-0.057823
-0.056543
0.046087
0.043005
0.051840
-0.072296
0.044424
-0.046667
0.004596
0.023438
0.023587
0.020567
0.034564
-0.065396
-0.069840
-0.065192
0.000631
0.001929
0.010279
0.042909
0.052203
0.010995
-0.033670
-0.023482
0.034588
0.035808
0.047741
-0.004764
-0.035243
-0.029443
-0.056320
0.029956
-0.007645
0.036588
0.040773
0.019080
-0.020632
-0.008546
-0.004534
-0.004046
-0.008427
-0.009818
-0.002677
0.035178
-0.075215
-0.074525
-0.065497
-0.049655
-0.006686
-0.071536
-0.066899
-0.069638
-0.063878
-0.071313
0.027164
-0.006394
-0.018902
-0.011057
-0.007863
-0.006218
-0.011803
-0.019115
-0.008891
-0.016874
-0.020277
-0.000549
-0.055619
-0.056527
-0.067389
0.000228
-0.067769
-0.074685
-0.002218
0.032168
0.023816
0.053629
-0.074986
0.048464
0.028974
0.026988
-0.068901
-0.066618
-0.067321
0.006999
0.001656
0.002068
-0.088490
-0.018123
-0.052491
-0.020784
-0.036283
-0.038786
-0.044185
-0.086228
-0.084312
-0.082071
-0.065312
-0.059482
-0.023179
0.021098
-0.016829
-0.068301
0.038276
0.043088
0.028072
-0.037407
-0.035261
-0.010579
-0.012498
-0.019030
-0.013373
-0.015472
0.038385
-0.018191
-0.069592
-0.065060
0.011509
-0.005724
-0.002268
-0.073310
-0.071700
-0.069152
0.011549
0.012144
0.007931
-0.023979
-0.022896
-0.029269
-0.026304
-0.009886
-0.018695
-0.003647
-0.001690
0.015779
0.003582
-0.019944
-0.015987
-0.012766
-0.018608
-0.070654
-0.074196
-0.076522
-0.060158
-0.015288
-0.016730
-0.015405
-0.012432
-0.013186
-0.004415
-0.005631
-0.034775
-0.046342
-0.061801
-0.081490
-0.078246
0.043647
-0.013913
-0.017077
0.027487
0.036103
0.012897
-0.084558
0.045256
-0.026911
-0.032300
-0.030832
-0.025697
-0.055818
-0.066733
-0.055627
-0.048908
-0.033751
-0.007800
-0.038531
-0.069423
-0.013263
-0.020967
-0.003254
-0.033666
-0.021443
-0.069602
-0.022987
0.053107
0.047546
0.055598
-0.010100
-0.025127
-0.009506
-0.060977
-0.004408
-0.002446
0.000579
0.008201
-0.008107
0.006778
0.005924
-0.019717
-0.013105
-0.019500
-0.021456
0.033984
0.040131
0.060929
-0.053116
-0.090766
-0.078707
0.064735
-0.073801
-0.073801
-0.082808
-0.055569
-0.076069
-0.077863
-0.081283
-0.091110
-0.031174
-0.027263
-0.027527
0.029473
-0.022179
-0.001642
-0.006835
-0.014405
-0.026614
-0.017532
-0.038478
-0.035951
-0.042452
-0.003415
-0.015666
-0.066893
-0.085230
-0.079971
-0.060223
-0.064223
-0.064855
0.001951
0.012247
-0.005254
-0.075452
-0.073107
-0.071774
0.020213
0.009800
-0.012667
-0.004722
-0.014078
-0.072913
-0.069367
-0.000770
-0.001577
-0.004859
-0.019833
-0.008903
-0.020307
-0.023783
-0.082039
0.008430
0.018146
-0.072925
0.027480
0.033249
0.020957
0.022253
-0.075917
-0.098360
-0.060536
-0.019246
-0.029427
-0.023492
-0.000975
0.003426
-0.001887
0.007920
-0.010168
-0.006169
0.007618
-0.007097
-0.029294
-0.020851
-0.009482
-0.009271
-0.005374
-0.000246
-0.069329
-0.004927
-0.003524
-0.004868
-0.022129
-0.022327
0.035831
0.046951
0.023581
0.034728
0.031620
0.037936
0.028116
-0.011049
0.004911
-0.003912
0.033168
0.001178
-0.010289
-0.030858
-0.033409
-0.022792
-0.030158
-0.022694
-0.024698
-0.026902
0.034670
-0.014247
-0.034763
-0.020975
-0.034111
0.032749
0.022274
0.016376
-0.023550
-0.014074
0.030873
0.060545
0.030722
0.007649
0.016850
0.034252
0.009282
0.013853
0.023744
0.043409
0.045466
-0.014217
-0.005327
0.034200
0.006664
0.068276
0.049519
0.015946
0.053948
0.057271
0.064058
-0.023372
-0.018743
-0.023434
-0.017690
-0.010575
-0.029978
0.021983
0.030399
0.037240
0.020729
0.036555
0.048501
0.056517
0.049575
-0.023461
-0.024154
-0.015228
-0.023610
-0.027733
-0.014511
-0.027855
-0.011728
0.000408
-0.009662
-0.015653
-0.002197
0.054856
0.046680
0.058345
0.025204
0.011878
0.006102
-0.000070
-0.009707
-0.068958
-0.068927
-0.014088
-0.027432
-0.003369
-0.012036
-0.075114
-0.071007
-0.068522
-0.078535
-0.027862
-0.033229
-0.031691
-0.026313
-0.013549
-0.010740
-0.010167
-0.003920
-0.025220
-0.017605
-0.018010
-0.011320
0.043564
0.045982
0.047904
0.049022
0.031861
-0.010967
-0.011773
-0.021398
0.059392
0.050502
0.051471
-0.015051
-0.013986
-0.007780
-0.019857
-0.035532
-0.030994
-0.027590
-0.027212
-0.042371
-0.036256
-0.023936
-0.021882
-0.011603
0.000719
0.056868
-0.007685
-0.013219
-0.019932
-0.026259
0.026227
-0.067965
-0.016283
-0.002555
-0.000136
0.001922
-0.000579
-0.002920
0.002036
-0.022390
-0.036892
-0.011641
-0.015082
0.000546
-0.068550
-0.016448
-0.007236
-0.013875
0.003794
0.002808
-0.023206
-0.025872
0.000903
-0.008985
0.001960
-0.009405
-0.064477
-0.041706
-0.059170
-0.063330
-0.019814
-0.008301
-0.004375
-0.015763
-0.012092
-0.013819
-0.018600
-0.024524
-0.010722
-0.009264
-0.011616
-0.008658
-0.019044
-0.061930
-0.061919
-0.051498
-0.068514
-0.059849
-0.057550
-0.073404
-0.016083
-0.026860
-0.027316
-0.026150
-0.016954
0.061033
0.031521
0.039147
0.041092
0.002590
0.006545
-0.000146
-0.005800
-0.004164
-0.004901
-0.011522
-0.003015
-0.028081
-0.040864
-0.041476
0.028930
-0.004306
-0.030972
0.008190
-0.025984
-0.021705
-0.034136
-0.024189
-0.005432
-0.079252
-0.072313
0.024185
0.009230
0.031423
0.025084
-0.006746
-0.023303
-0.022831
-0.010251
-0.091880
-0.005644
-0.000153
-0.008469
0.036876
0.031712
0.032734
-0.060427
-0.033552
-0.046726
-0.058499
-0.028884
-0.021756
0.003111
-0.020933
-0.027422
-0.024804
-0.024530
-0.011927
-0.027738
-0.000165
0.028155
0.032801
0.039366
0.029526
0.034063
-0.003212
0.001119
-0.000496
-0.007121
-0.022837
-0.017172
-0.028008
-0.011404
-0.016278
-0.008471
-0.003917
-0.001833
0.002236
-0.010918
-0.018362
-0.006075
-0.002917
-0.071128
0.031787
0.035536
0.038130
-0.023897
-0.023912
-0.074574
-0.071614
-0.047566
-0.050764
-0.082418
-0.084835
-0.083873
-0.081215
0.035966
0.042091
-0.012969
-0.019525
-0.025454
0.015427
-0.017529
-0.007272
0.031067
0.019323
-0.049005
-0.048170
-0.020155
-0.069539
-0.065353
-0.073533
-0.078236
-0.053332
-0.095173
-0.076717
-0.051387
-0.014457