# vtk DataFile Version 2.0
Test
ASCII
DATASET POLYDATA
POINTS 7607 float
0.000000 0.000000 0.000000
1.000000 0.000000 0.000000
1.000000 0.800000 0.000000
1.000000 1.000000 0.000000
0.000000 1.000000 0.000000
0.000000 0.200000 0.000000
0.300000 0.330000 0.000000
0.700000 0.680000 0.000000
0.012987 0.000000 0.000000
0.025974 0.000000 0.000000
0.038961 0.000000 0.000000
0.051948 0.000000 0.000000
0.064935 0.000000 0.000000
0.077922 0.000000 0.000000
0.090909 0.000000 0.000000
0.103896 0.000000 0.000000
0.116883 0.000000 0.000000
0.129870 0.000000 0.000000
0.142857 0.000000 0.000000
0.155844 0.000000 0.000000
0.168831 0.000000 0.000000
0.181818 0.000000 0.000000
0.194805 0.000000 0.000000
0.207792 0.000000 0.000000
0.220779 0.000000 0.000000
0.233766 0.000000 0.000000
0.246753 0.000000 0.000000
0.259740 0.000000 0.000000
0.272727 0.000000 0.000000
0.285714 0.000000 0.000000
0.298701 0.000000 0.000000
0.311688 0.000000 0.000000
0.324675 0.000000 0.000000
0.337662 0.000000 0.000000
0.350649 0.000000 0.000000
0.363636 0.000000 0.000000
0.376623 0.000000 0.000000
0.389610 0.000000 0.000000
0.402597 0.000000 0.000000
0.415584 0.000000 0.000000
0.428571 0.000000 0.000000
0.441558 0.000000 0.000000
0.454545 0.000000 0.000000
0.467532 0.000000 0.000000
0.480519 0.000000 0.000000
0.493506 0.000000 0.000000
0.506494 0.000000 0.000000
0.519481 0.000000 0.000000
0.532468 0.000000 0.000000
0.545455 0.000000 0.000000
0.558442 0.000000 0.000000
0.571429 0.000000 0.000000
0.584416 0.000000 0.000000
0.597403 0.000000 0.000000
0.610390 0.000000 0.000000
0.623377 0.000000 0.000000
0.636364 0.000000 0.000000
0.649351 0.000000 0.000000
0.662338 0.000000 0.000000
0.675325 0.000000 0.000000
0.688312 0.000000 0.000000
0.701299 0.000000 0.000000
0.714286 0.000000 0.000000
0.727273 0.000000 0.000000
0.740260 0.000000 0.000000
0.753247 0.000000 0.000000
0.766234 0.000000 0.000000
0.779221 0.000000 0.000000
0.792208 0.000000 0.000000
0.805195 0.000000 0.000000
0.818182 0.000000 0.000000
0.831169 0.000000 0.000000
0.844156 0.000000 0.000000
0.857143 0.000000 0.000000
0.870130 0.000000 0.000000
0.883117 0.000000 0.000000
0.896104 0.000000 0.000000
0.909091 0.000000 0.000000
0.922078 0.000000 0.000000
0.935065 0.000000 0.000000
0.948052 0.000000 0.000000
0.961039 0.000000 0.000000
0.974026 0.000000 0.000000
0.987013 0.000000 0.000000
1.000000 0.012903 0.000000
1.000000 0.025806 0.000000
1.000000 0.038710 0.000000
1.000000 0.051613 0.000000
1.000000 0.064516 0.000000
1.000000 0.077419 0.000000
1.000000 0.090323 0.000000
1.000000 0.103226 0.000000
1.000000 0.116129 0.000000
1.000000 0.129032 0.000000
1.000000 0.141935 0.000000
1.000000 0.154839 0.000000
1.000000 0.167742 0.000000
1.000000 0.180645 0.000000
1.000000 0.193548 0.000000
1.000000 0.206452 0.000000
1.000000 0.219355 0.000000
1.000000 0.232258 0.000000
1.000000 0.245161 0.000000
1.000000 0.258065 0.000000
1.000000 0.270968 0.000000
1.000000 0.283871 0.000000
1.000000 0.296774 0.000000
1.000000 0.309677 0.000000
1.000000 0.322581 0.000000
1.000000 0.335484 0.000000
1.000000 0.348387 0.000000
1.000000 0.361290 0.000000
1.000000 0.374194 0.000000
1.000000 0.387097 0.000000
1.000000 0.400000 0.000000
1.000000 0.412903 0.000000
1.000000 0.425806 0.000000
1.000000 0.438710 0.000000
1.000000 0.451613 0.000000
1.000000 0.464516 0.000000
1.000000 0.477419 0.000000
1.000000 0.490323 0.000000
1.000000 0.503226 0.000000
1.000000 0.516129 0.000000
1.000000 0.529032 0.000000
1.000000 0.541935 0.000000
1.000000 0.554839 0.000000
1.000000 0.567742 0.000000
1.000000 0.580645 0.000000
1.000000 0.593548 0.000000
1.000000 0.606452 0.000000
1.000000 0.619355 0.000000
1.000000 0.632258 0.000000
1.000000 0.645161 0.000000
1.000000 0.658065 0.000000
1.000000 0.670968 0.000000
1.000000 0.683871 0.000000
1.000000 0.696774 0.000000
1.000000 0.709677 0.000000
1.000000 0.722581 0.000000
1.000000 0.735484 0.000000
1.000000 0.748387 0.000000
1.000000 0.761290 0.000000
1.000000 0.774194 0.000000
1.000000 0.787097 0.000000
1.000000 0.812500 0.000000
1.000000 0.825000 0.000000
1.000000 0.837500 0.000000
1.000000 0.850000 0.000000
1.000000 0.862500 0.000000
1.000000 0.875000 0.000000
1.000000 0.887500 0.000000
1.000000 0.900000 0.000000
1.000000 0.912500 0.000000
1.000000 0.925000 0.000000
1.000000 0.937500 0.000000
1.000000 0.950000 0.000000
1.000000 0.962500 0.000000
1.000000 0.975000 0.000000
1.000000 0.987500 0.000000
0.987013 1.000000 0.000000
0.974026 1.000000 0.000000
0.961039 1.000000 0.000000
0.948052 1.000000 0.000000
0.935065 1.000000 0.000000
0.922078 1.000000 0.000000
0.909091 1.000000 0.000000
0.896104 1.000000 0.000000
0.883117 1.000000 0.000000
0.870130 1.000000 0.000000
0.857143 1.000000 0.000000
0.844156 1.000000 0.000000
0.831169 1.000000 0.000000
0.818182 1.000000 0.000000
0.805195 1.000000 0.000000
0.792208 1.000000 0.000000
0.779221 1.000000 0.000000
0.766234 1.000000 0.000000
0.753247 1.000000 0.000000
0.740260 1.000000 0.000000
0.727273 1.000000 0.000000
0.714286 1.000000 0.000000
0.701299 1.000000 0.000000
0.688312 1.000000 0.000000
0.675325 1.000000 0.000000
0.662338 1.000000 0.000000
0.649351 1.000000 0.000000
0.636364 1.000000 0.000000
0.623377 1.000000 0.000000
0.610390 1.000000 0.000000
0.597403 1.000000 0.000000
0.584416 1.000000 0.000000
0.571429 1.000000 0.000000
0.558442 1.000000 0.000000
0.545455 1.000000 0.000000
0.532468 1.000000 0.000000
0.519481 1.000000 0.000000
0.506494 1.000000 0.000000
0.493506 1.000000 0.000000
0.480519 1.000000 0.000000
0.467532 1.000000 0.000000
0.454545 1.000000 0.000000
0.441558 1.000000 0.000000
0.428571 1.000000 0.000000
0.415584 1.000000 0.000000
0.402597 1.000000 0.000000
0.389610 1.000000 0.000000
0.376623 1.000000 0.000000
0.363636 1.000000 0.000000
0.350649 1.000000 0.000000
0.337662 1.000000 0.000000
0.324675 1.000000 0.000000
0.311688 1.000000 0.000000
0.298701 1.000000 0.000000
0.285714 1.000000 0.000000
0.272727 1.000000 0.000000
0.259740 1.000000 0.000000
0.246753 1.000000 0.000000
0.233766 1.000000 0.000000
0.220779 1.000000 0.000000
0.207792 1.000000 0.000000
0.194805 1.000000 0.000000
0.181818 1.000000 0.000000
0.168831 1.000000 0.000000
0.155844 1.000000 0.000000
0.142857 1.000000 0.000000
0.129870 1.000000 0.000000
0.116883 1.000000 0.000000
0.103896 1.000000 0.000000
0.090909 1.000000 0.000000
0.077922 1.000000 0.000000
0.064935 1.000000 0.000000
0.051948 1.000000 0.000000
0.038961 1.000000 0.000000
0.025974 1.000000 0.000000
0.012987 1.000000 0.000000
0.000000 0.987097 0.000000
0.000000 0.974194 0.000000
0.000000 0.961290 0.000000
0.000000 0.948387 0.000000
0.000000 0.935484 0.000000
0.000000 0.922581 0.000000
0.000000 0.909677 0.000000
0.000000 0.896774 0.000000
0.000000 0.883871 0.000000
0.000000 0.870968 0.000000
0.000000 0.858065 0.000000
0.000000 0.845161 0.000000
0.000000 0.832258 0.000000
0.000000 0.819355 0.000000
0.000000 0.806452 0.000000
0.000000 0.793548 0.000000
0.000000 0.780645 0.000000
0.000000 0.767742 0.000000
0.000000 0.754839 0.000000
0.000000 0.741935 0.000000
0.000000 0.729032 0.000000
0.000000 0.716129 0.000000
0.000000 0.703226 0.000000
0.000000 0.690323 0.000000
0.000000 0.677419 0.000000
0.000000 0.664516 0.000000
0.000000 0.651613 0.000000
0.000000 0.638710 0.000000
0.000000 0.625806 0.000000
0.000000 0.612903 0.000000
0.000000 0.600000 0.000000
0.000000 0.587097 0.000000
0.000000 0.574194 0.000000
0.000000 0.561290 0.000000
0.000000 0.548387 0.000000
0.000000 0.535484 0.000000
0.000000 0.522581 0.000000
0.000000 0.509677 0.000000
0.000000 0.496774 0.000000
0.000000 0.483871 0.000000
0.000000 0.470968 0.000000
0.000000 0.458065 0.000000
0.000000 0.445161 0.000000
0.000000 0.432258 0.000000
0.000000 0.419355 0.000000
0.000000 0.406452 0.000000
0.000000 0.393548 0.000000
0.000000 0.380645 0.000000
0.000000 0.367742 0.000000
0.000000 0.354839 0.000000
0.000000 0.341935 0.000000
0.000000 0.329032 0.000000
0.000000 0.316129 0.000000
0.000000 0.303226 0.000000
0.000000 0.290323 0.000000
0.000000 0.277419 0.000000
0.000000 0.264516 0.000000
0.000000 0.251613 0.000000
0.000000 0.238710 0.000000
0.000000 0.225806 0.000000
0.000000 0.212903 0.000000
0.000000 0.187500 0.000000
0.000000 0.175000 0.000000
0.000000 0.162500 0.000000
0.000000 0.150000 0.000000
0.000000 0.137500 0.000000
0.000000 0.125000 0.000000
0.000000 0.112500 0.000000
0.000000 0.100000 0.000000
0.000000 0.087500 0.000000
0.000000 0.075000 0.000000
0.000000 0.062500 0.000000
0.000000 0.050000 0.000000
0.000000 0.037500 0.000000
0.000000 0.025000 0.000000
0.000000 0.012500 0.000000
0.309756 0.338537 0.000000
0.319512 0.347073 0.000000
0.329268 0.355610 0.000000
0.339024 0.364146 0.000000
0.348780 0.372683 0.000000
0.358537 0.381220 0.000000
0.368293 0.389756 0.000000
0.378049 0.398293 0.000000
0.387805 0.406829 0.000000
0.397561 0.415366 0.000000
0.407317 0.423902 0.000000
0.417073 0.432439 0.000000
0.426829 0.440976 0.000000
0.436585 0.449512 0.000000
0.446341 0.458049 0.000000
0.456098 0.466585 0.000000
0.465854 0.475122 0.000000
0.475610 0.483659 0.000000
0.485366 0.492195 0.000000
0.495122 0.500732 0.000000
0.504878 0.509268 0.000000
0.514634 0.517805 0.000000
0.524390 0.526341 0.000000
0.534146 0.534878 0.000000
0.543902 0.543415 0.000000
0.553659 0.551951 0.000000
0.563415 0.560488 0.000000
0.573171 0.569024 0.000000
0.582927 0.577561 0.000000
0.592683 0.586098 0.000000
0.602439 0.594634 0.000000
0.612195 0.603171 0.000000
0.621951 0.611707 0.000000
0.631707 0.620244 0.000000
0.641463 0.628780 0.000000
0.651220 0.637317 0.000000
0.660976 0.645854 0.000000
0.670732 0.654390 0.000000
0.680488 0.662927 0.000000
0.690244 0.671463 0.000000
0.011538 0.205000 0.000000
0.023077 0.210000 0.000000
0.034615 0.215000 0.000000
0.046154 0.220000 0.000000
0.057692 0.225000 0.000000
0.069231 0.230000 0.000000
0.080769 0.235000 0.000000
0.092308 0.240000 0.000000
0.103846 0.245000 0.000000
0.115385 0.250000 0.000000
0.126923 0.255000 0.000000
0.138462 0.260000 0.000000
0.150000 0.265000 0.000000
0.161538 0.270000 0.000000
0.173077 0.275000 0.000000
[...]
POINT_DATA 7607
SCALARS UX float 1
LOOKUP_TABLE default
-0.000007
0.000013
0.078041
0.016093
-0.137684
-0.109624
-0.072861
0.001973
-0.000005
-0.000000
-0.000003
0.000001
0.000005
-0.000003
0.000001
-0.000002
0.000001
-0.000000
0.000001
-0.000000
0.000000
-0.000000
0.000000
-0.000001
0.000000
-0.000000
-0.000000
0.000000
0.000000
-0.000000
0.000000
-0.000000
-0.000000
-0.000000
-0.000000
0.000000
-0.000000
0.000000
-0.000000
-0.000000
-0.000000
-0.000000
-0.000000
-0.000000
0.000000
-0.000000
0.000000
0.000000
-0.000000
-0.000000
-0.000000
-0.000000
0.000000
0.000000
0.000000
-0.000001
0.000001
-0.000000
-0.000000
-0.000000
0.000000
-0.000000
-0.000000
-0.000000
-0.000000
0.000000
0.000001
-0.000001
0.000001
0.000000
0.000000
-0.000000
-0.000001
0.000000
0.000000
0.000000
-0.000001
-0.000000
0.000001
-0.000002
0.000002
0.000002
-0.000009
0.000010
0.006130
0.010064
0.013497
0.016424
0.018979
0.021417
0.023717
0.025840
0.027878
0.029769
0.031619
0.033369
0.035132
0.036825
0.038442
0.040097
0.041734
0.043397
0.044904
0.046568
0.048195
0.049886
0.051517
0.053194
0.054883
0.056563
0.058383
0.060135
0.061971
0.063813
0.065721
0.067653
0.069619
0.071707
0.073277
0.074650
0.075869
0.076957
0.078032
0.079075
0.079980
0.080774
0.081650
0.082390
0.083078
0.083645
0.084230
0.084672
0.085062
0.085336
0.085541
0.085618
0.085564
0.085366
0.085107
0.084667
0.083990
0.083256
0.082271
0.081031
0.079635
0.076113
0.073900
0.071446
0.068659
0.065764
0.062404
0.058215
0.053548
0.048280
0.042353
0.036473
0.030806
0.025687
0.021380
0.018089
0.007567
-0.000363
-0.007407
-0.013506
-0.018872
-0.023198
-0.026446
-0.029512
-0.032081
-0.034414
-0.036434
-0.038118
-0.039666
-0.041035
-0.042231
-0.043430
-0.044730
-0.045988
-0.047233
-0.048452
-0.049667
-0.050848
-0.052017
-0.053193
-0.054367
-0.055550
-0.056742
-0.057935
-0.059118
-0.060337
-0.061600
-0.062884
-0.064204
-0.065565
-0.066982
-0.068439
-0.070139
-0.071502
-0.073520
-0.075331
-0.077144
-0.078945
-0.080750
-0.082551
-0.084359
-0.086181
-0.087996
-0.089828
-0.091568
-0.093385
-0.095210
-0.097004
-0.098775
-0.100516
-0.102237
-0.103950
-0.105648
-0.107313
-0.109008
-0.110669
-0.112301
-0.113917
-0.115565
-0.117178
-0.118749
-0.120365
-0.121951
-0.123501
-0.125061
-0.126635
-0.128207
-0.129778
-0.131352
-0.132915
-0.134481
-0.136075
-0.137672
-0.137726
-0.137789
-0.137901
-0.137939
-0.138066
-0.138251
-0.138400
-0.138614
-0.138830
-0.139055
-0.139295
-0.139523
-0.139825
-0.140107
-0.140460
-0.140810
-0.141089
-0.141445
-0.141872
-0.142250
-0.142538
-0.143005
-0.143391
-0.143808
-0.144190
-0.144595
-0.145016
-0.145357
-0.145835
-0.146203
-0.146601
-0.147045
-0.147451
-0.147907
-0.148334
-0.148775
-0.149104
-0.149404
-0.149584
-0.149728
-0.149766
-0.149708
-0.149512
-0.149235
-0.148824
-0.148299
-0.147586
-0.146719
-0.145643
-0.144333
-0.142787
-0.140884
-0.138736
-0.136290
-0.133522
-0.130366
-0.127201
-0.123242
-0.119098
-0.114396
-0.104662
-0.099721
-0.095386
-0.090665
-0.085731
-0.081137
-0.076263
-0.070682
-0.064041
-0.055551
-0.048874
-0.041771
-0.034645
-0.027553
-0.017031
-0.070805
-0.081505
-0.079089
-0.077121
-0.074835
-0.068167
-0.064492
-0.076558
-0.064515
-0.070281
-0.060660
-0.067901
-0.069858
-0.067700
-0.066387
-0.059756
-0.056229
-0.055326
-0.052114
-0.049960
-0.049458
-0.048035
-0.041999
-0.043480
-0.038784
-0.032739
-0.027773
-0.025245
-0.021954
-0.015367
-0.019102
-0.012584
-0.012911
-0.010213
-0.012866
-0.007025
-0.006228
-0.003589
-0.003360
-0.001572
-0.108915
-0.108042
-0.108243
-0.108056
-0.107895
-0.107741
-0.107514
-0.107268
-0.107041
-0.106879
-0.106786
-0.106304
-0.106043
-0.106173
-0.105835
-0.103518
-0.101070
-0.099177
-0.096889
-0.094481
-0.091453
-0.088409
-0.084431
-0.081143
-0.083745
0.019493
0.028169
0.032555
0.037797
0.041810
0.043964
0.044813
0.045200
0.047877
0.049898
0.053140
0.055472
0.056772
0.059473
0.061589
0.063625
0.065558
0.067410
0.069111
0.070677
0.072291
0.073814
0.075265
0.076678
-0.057290
-0.058985
-0.056407
-0.059123
0.038365
0.037405
0.038631
-0.110788
-0.113528
-0.124535
-0.120915
-0.122774
-0.116938
0.012160
0.014275
0.013653
-0.124360
-0.130360
-0.131131
-0.129882
0.024221
0.024845
0.025849
0.023086
-0.070962
-0.065655
-0.077783
-0.059725
-0.025521
-0.032340
-0.127053
-0.124294
-0.124871
-0.127799
-0.091403
-0.084654
0.007921
0.010243
0.009927
0.008116
-0.124820
-0.126619
-0.125258
-0.126427
0.057168
0.051386
0.055655
0.046769
0.065960
0.064838
0.064548
0.014529
0.019017
0.063006
0.034264
0.035086
0.036320
-0.054382
-0.055572
-0.053842
-0.099588
-0.104796
-0.054946
-0.030393
-0.023888
-0.023364
-0.039325
-0.048442
-0.041156
-0.011912
-0.136829
-0.136714
0.013414
0.010565
0.036855
-0.010674
-0.010284
-0.009082
-0.089437
-0.089712
-0.088030
-0.008713
-0.053084
-0.052081
-0.052830
0.028227
0.029827
0.030792
0.031924
-0.004069
-0.004643
-0.004324
-0.075087
-0.079883
-0.075297
-0.004689
0.076057
0.077298
0.076076
-0.105401
-0.102484
-0.112658
0.054708
0.060910
0.057010
0.059191
-0.091215
-0.067863
-0.069463
-0.070046
-0.002054
-0.003382
-0.003153
0.021208
0.023240
0.022946
-0.052415
-0.054324
-0.053254
0.022174
0.022451
0.024003
0.012126
0.021714
0.018882
0.015009
0.024805
0.073703
0.072040
0.072649
-0.002489
-0.072079
-0.036819
-0.045041
-0.043202
-0.039638
-0.125320
-0.123280
-0.123545
-0.121085
-0.076346
-0.076492
-0.077568
-0.074833
-0.034753
-0.034476
-0.033011
-0.036092
0.018039
-0.003598
-0.003144
-0.003223
-0.002715
-0.148749
-0.148895
-0.147954
-0.004581
-0.004808
-0.005158
-0.130723
-0.129886
-0.131264
-0.005508
-0.038803
-0.031266
-0.036526
-0.124148
-0.123728
-0.124731
-0.121198
-0.121023
-0.122353
-0.122861
0.060540
0.059560
0.061582
0.059114
0.060597
0.060965
0.062640
0.030709
0.032297
0.031873
-0.074858
-0.076432
-0.075016
-0.065072
-0.063501
-0.063749
-0.005407
-0.006109
-0.005222
-0.005726
0.022888
0.024789
0.022782
-0.060250
-0.065799
-0.057829
-0.067583
-0.104172
-0.102863
-0.101757
-0.101247
0.036191
0.035732
0.034654
0.036497
0.039033
0.036996
0.037490
0.068924
0.067791
0.066796
0.038564
0.031805
-0.133231
-0.133651
-0.134726
0.034194
0.039747
0.031661
0.042027
0.075305
0.074952
0.076622
0.043595
0.042647
0.042582
0.041488
-0.081168
-0.079009
-0.115882
-0.115790
-0.115109
-0.115324
-0.115696
-0.116802
-0.117398
-0.001536
-0.001790
-0.001853
-0.116681
-0.075965
-0.074591
0.009511
0.009668
0.008434
0.073134
0.071835
0.071153
0.010800
-0.011396
-0.009574
-0.010246
-0.009968
-0.131854
-0.132630
-0.007845
-0.007776
-0.008684
0.019413
0.020566
0.021471
0.010322
0.009996
0.011291
0.030563
0.024733
-0.132583
-0.134183
-0.133772
-0.052844
-0.048225
0.074080
0.073718
0.011071
0.039106
0.040372
0.039234
0.012752
0.012821
0.014075
0.013995
-0.133548
-0.132553
-0.133752
-0.132173
-0.136885
-0.135569
-0.136016
-0.134098
0.019723
0.018251
0.019630
0.019250
-0.132068
-0.131185
-0.131091
-0.130062
0.074503
0.075943
0.055163
0.053905
0.055577
-0.022468
-0.024461
-0.019788
0.053172
-0.014913
-0.012219
-0.018251
0.039775
-0.015271
-0.141539
-0.141685
-0.142469
-0.008483
-0.008669
-0.011457
-0.103483
-0.104999
-0.104975
-0.013604
-0.014249
-0.010089
0.044360
0.030683
-0.015605
0.072338
-0.003635
-0.009785
-0.010299
-0.002414
-0.137577
-0.138594
-0.103491
0.014127
0.016232
0.014889
0.023829
0.022323
0.024376
-0.128817
-0.129215
-0.127976
-0.051266
-0.063223
-0.062405
-0.039545
-0.046306
0.070957
0.070303
0.019213
0.017478
0.017014
0.022467
-0.134850
-0.136003
-0.135508
-0.135535
-0.134383
-0.133438
-0.003581
-0.003068
-0.003455
-0.003137
0.073197
0.072810
0.031347
0.031001
0.029648
0.032805
0.027715
0.026968
0.028791
0.027752
-0.069603
-0.069638
-0.067361
0.011865
0.011396
0.012651
-0.005542
-0.006234
-0.006113
-0.005938
-0.136629
-0.134727
-0.068014
-0.069958
-0.145674
-0.146724
-0.145925
0.026427
0.015206
0.035707
-0.051297
-0.041758
-0.058445
0.004791
0.005319
-0.003445
0.004102
0.009679
0.013666
0.015547
-0.126892
-0.127252
-0.128564
0.073677
0.075153
-0.068479
-0.068727
-0.031289
-0.025354
-0.033179
0.010617
-0.026922
-0.029569
-0.034062
0.014724
0.015602
0.016394
-0.010841
-0.015134
-0.020446
-0.017304
-0.021915
-0.063584
-0.062488
-0.063220
0.016904
-0.138021
-0.113049
-0.139020
0.071436
0.014153
0.012297
-0.126337
-0.125748
0.070086
0.069389
-0.110576
-0.108897
-0.110780
-0.040553
-0.035059
0.015936
-0.006631
-0.006476
-0.007810
-0.007543
-0.109522
-0.117785
-0.119026
-0.118307
-0.119626
0.072429
0.071770
-0.136877
-0.138388
-0.137923
0.012748
0.011828
0.006073
-0.002925
0.008062
-0.000446
0.007767
0.008959
0.008059
-0.127498
-0.126394
-0.122143
-0.123367
-0.123247
-0.122146
-0.136675
-0.135870
-0.135529
-0.123307
0.006063
0.006039
0.007121
0.004659
-0.010140
-0.011206
-0.010995
-0.131737
-0.130661
-0.131590
0.020290
0.028732
0.024024
0.036481
-0.137179
-0.135223
-0.125584
-0.134692
-0.135513
-0.133762
0.072656
0.074294
-0.125569
0.018533
0.017276
-0.130536
0.073490
0.070938
0.070704
-0.130074
-0.130617
-0.035289
-0.135821
-0.135425
0.011517
0.008256
-0.028982
-0.038198
-0.032324
-0.001150
-0.001192
0.008259
0.069061
0.070665
0.071063
0.069142
0.069996
0.068634
-0.097550
-0.098843
-0.098735
-0.097268
0.023268
0.023427
0.025486
-0.023552
-0.019355
0.010070
0.005629
0.052748
0.051586
-0.136367
-0.134877
-0.135886
-0.135965
-0.048259
-0.054463
-0.052395
-0.060328
0.080917
0.079425
0.080944
0.082236
0.082422
-0.023447
-0.027269
-0.027585
0.025358
-0.127629
-0.128656
-0.129227
-0.119201
-0.117105
-0.024512
-0.023205
-0.020367
-0.018575
-0.025695
-0.025146
-0.029014
-0.010760
-0.003815
-0.029241
-0.003480
-0.004972
0.079334
0.030264
0.029870
0.028293
-0.011617
-0.007373
-0.001100
-0.016172
-0.028779
-0.132130
-0.024030
0.028495
0.002109
-0.016647
-0.020398
-0.015535
-0.123381
-0.126763
-0.139463
-0.140592
-0.140170
-0.130875
-0.127272
-0.103908
-0.103296
-0.102261
-0.141722
0.027963
0.044406
0.027861
0.029073
0.029362
-0.022466
-0.027816
0.027728
-0.120322
-0.120710
-0.121401
0.014642
0.012896
-0.104650
-0.125705
-0.125087
-0.138319
-0.012962
-0.012366
-0.011158
-0.139286
-0.005535
-0.006281
-0.141791
-0.140932
0.021103
0.022581
0.023175
0.070475
0.001734
0.001247
0.001879
0.001052
-0.142907
-0.142566
-0.141761
-0.101891
-0.103171
-0.102527
-0.102747
-0.004803
-0.004495
-0.018600
-0.016851
0.076355
0.078189
0.076766
0.007373
0.074039
0.072061
0.008547
0.067551
-0.026689
-0.031204
-0.031431
-0.030629
-0.024722
-0.133339
-0.134454
-0.134241
-0.073093
-0.072366
-0.073619
-0.072089
0.069180
0.068521
-0.020467
-0.025280
-0.122066
-0.117165
-0.113914
-0.112383
-0.124663
-0.123094
-0.123218
-0.119706
-0.121786
-0.032159
-0.115613
-0.008895
-0.032210
-0.007732
0.083140
-0.006498
0.079718
0.081461
-0.006781
-0.006501
-0.007300
0.035771
-0.001090
0.000406
-0.005898
-0.134179
-0.135729
-0.013633
-0.010702
-0.031849
-0.123827
-0.040499
-0.038080
-0.033932
-0.030102
0.002817
-0.007998
-0.005145
-0.014979
-0.013443
-0.136540
-0.038665
0.015337
-0.045395
-0.134984
-0.134434
-0.137275
0.041167
0.012462
0.009376
-0.135605
0.016378
0.033490
-0.038553
-0.146309
-0.145358
-0.144764
0.023795
-0.032450
-0.020874
-0.028972
-0.058674
-0.059813
-0.060181
0.003951
0.011788
-0.058672
-0.017059
-0.015461
0.020703
0.021005
0.072144
0.070270
0.022759
0.068117
0.068888
-0.034316
-0.034436
-0.034015
-0.028926
-0.101242
-0.032479
-0.030812
-0.032989
-0.018728
-0.022582
-0.127081
-0.127392
-0.128426
-0.128717
-0.129538
-0.125586
-0.132758
-0.012201
-0.010712
-0.034873
-0.034807
-0.034744
0.074144
0.076148
0.078026
0.071402
-0.124467
-0.015286
-0.002860
0.012412
0.014130
-0.130758
0.033673
0.033692
0.035497
0.001499
-0.133967
0.012556
0.012387
0.013774
0.006366
0.010747
-0.011851
-0.010112
-0.006645
-0.003840
-0.005020
-0.008626
-0.007038
-0.013842
0.078963
0.078211
0.079344
0.077148
-0.132653
-0.133056
-0.131952
-0.071007
-0.066987
0.015876
0.016818
0.015339
0.004703
0.007500
0.006051
0.017609
-0.034919
-0.113198
0.045716
0.043484
0.044042
-0.120519
-0.123357
-0.133552
-0.134659
-0.134665
-0.034796
0.083666
0.081093
0.082324
0.079690
0.068459
-0.082538
-0.080799
-0.081534
0.023775
0.025746
-0.082014
0.020949
0.021284
-0.071789
-0.073291
-0.073290
-0.130599
-0.131562
-0.013741
-0.100825
-0.101186
-0.099836
-0.102192
0.079754
0.079661
0.078506
0.078423
-0.131707
-0.073437
-0.130662
-0.127159
-0.134215
0.021609
0.022707
0.021355
0.061093
0.061968
0.059481
-0.036184
-0.027378
-0.031245
-0.136794
0.018159
-0.135642
-0.134172
-0.133580
-0.127508
-0.128026
-0.119498
-0.119843
-0.117226
0.012711
0.010267
-0.120953
0.073983
-0.008248
-0.008984
-0.008086
-0.063641
-0.063599
-0.064777
-0.044661
-0.008891
0.015602
0.015180
0.017254
0.029052
-0.029540
-0.035652
-0.021098
0.009410
0.018637
0.001625
0.075799
0.077818
0.071369
-0.004191
-0.004220
-0.122187
-0.121602
-0.123093
-0.113392
-0.144574
-0.143794
-0.143645
-0.123763
-0.124527
-0.123058
0.064359
0.065790
0.063611
-0.117252
-0.122191
-0.125064
-0.015730
-0.014258
-0.088400
-0.015095
-0.019488
-0.004921
-0.002484
0.082509
0.083880
0.081020
0.079503
-0.013056
-0.006569
-0.008607
-0.013920
-0.003813
0.015587
0.015192
0.016622
-0.129603
-0.003056
-0.004695
-0.004235
0.001847
-0.093122
-0.092137
-0.118313
-0.119599
-0.120148
-0.131015
-0.131037
-0.132314
0.006342
0.003811
0.008429
-0.133497
-0.136285
-0.132293
-0.128910
-0.037161
0.073341
0.070042
-0.037123
-0.036945
0.065268
-0.032284
0.075341
0.077653
-0.034928
-0.092676
-0.093747
-0.097080
-0.009077
-0.011588
-0.008209
-0.055880
-0.054834
-0.056311
0.056039
0.056961
0.057664
-0.136391
-0.114480
-0.114220
-0.110126
-0.097392
-0.098945
-0.098415
-0.120003
-0.121867
0.019219
-0.100035
-0.135386
-0.133741
-0.132844
0.015735
0.013989
0.010970
-0.039609
-0.049183
-0.055690
0.021301
0.033292
-0.001933
-0.001670
-0.001949
-0.032939
-0.021331
0.008692
-0.001069
-0.118685
-0.113604
-0.124082
-0.126707
0.082561
0.084108
0.080963
0.079284
-0.018463
-0.022654
-0.063547
-0.074116
-0.060201
-0.004841
-0.002242
-0.017240
-0.135560
-0.138739
-0.020681
-0.001714
-0.016731
-0.010028
-0.008322
-0.013580
-0.001893
-0.002322
-0.037330
-0.037148
-0.011224
-0.129567
-0.128332
-0.116080
0.004113
0.002164
-0.101655
-0.099868
-0.100732
-0.134096
-0.130460
-0.129853
-0.131365
0.006859
0.009090
-0.009875
-0.121970
-0.120632
-0.121518
0.073005
0.067580
0.074981
0.077240
-0.099794
-0.119331
-0.114131
-0.123885
0.058014
0.058056
0.059656
-0.134867
0.056226
-0.119899
0.017537
0.023928
0.022274
0.024107
0.069415
-0.133190
-0.132113
-0.135916
0.015226
0.012006
0.020543
0.082473
0.071000
-0.027580
-0.034770
-0.026387
0.080708
0.079054
0.083725
-0.044222
-0.032921
-0.023377
-0.028226
0.022620
-0.002162
0.035375
0.034961
0.036356
-0.037343
-0.025521
-0.006733
-0.006759
-0.007448
-0.005769
-0.000044
0.033726
-0.137555
-0.123271
-0.124602
-0.121228
-0.012703
-0.135555
-0.132279
-0.139895
-0.128662
-0.126621
0.072666
0.011458
-0.022077
0.017333
0.013779
-0.004680
0.006284
-0.037127
-0.021809
-0.036956
-0.025799
-0.006848
-0.125160
-0.124450
-0.124001
-0.002249
-0.128407
-0.125892
0.004716
0.045628
0.047300
0.046916
-0.138592
0.074446
0.076775
0.048339
-0.128711
-0.130269
-0.126911
0.007256
0.010069
0.002961
-0.139654
-0.039728
-0.120116
-0.039575
-0.076064
-0.077591
-0.076261
-0.148147
-0.146964
-0.147498
-0.119830
-0.117280
-0.039659
0.081869
-0.036561
-0.118262
0.048956
0.048750
0.047188
-0.077971
-0.076575
-0.014538
-0.013215
-0.026728
-0.025096
-0.022466
0.046831
-0.037250
-0.134159
-0.126483
0.018596
-0.008373
-0.006947
-0.132415
-0.131619
-0.135770
0.016007
0.013262
0.022481
-0.059007
-0.058063
-0.059411
-0.058300
-0.039609
-0.039336
-0.010363
-0.009151
0.015093
0.013425
-0.039684
-0.028067
-0.023620
-0.023953
-0.119522
-0.118564
-0.118791
-0.130557
-0.017742
-0.028194
-0.024018
-0.015936
-0.019012
-0.006354
-0.004971
-0.097237
-0.097193
-0.098577
-0.140438
-0.140988
0.078751
-0.024813
-0.030911
0.053150
0.050886
0.050931
-0.133800
0.045794
-0.062916
-0.061512
-0.062169
-0.062345
-0.098713
-0.106254
-0.107283
-0.107648
-0.020942
-0.019119
-0.021667
-0.127239
-0.018097
-0.020290
0.005346
-0.022616
-0.039182
-0.121238
-0.038959
0.082191
0.082968
0.081764
-0.042059
-0.041806
-0.011728
-0.127555
0.004001
0.004575
0.003709
0.007506
-0.041894
0.004762
-0.044711
-0.044736
-0.040258
-0.042095
-0.039352
0.067540
0.069315
0.068278
-0.132115
-0.131617
-0.131335
0.068713
-0.131104
-0.132339
-0.132430
-0.116917
-0.115783
-0.111489
-0.129780
-0.111179
-0.056592
-0.055421
-0.056101
0.044638
0.044556
-0.013436
-0.012288
-0.039343
-0.041771
-0.041375
-0.077341
-0.078574
-0.079552
-0.028327
-0.032745
-0.137003
-0.137898
-0.138132
-0.122433
-0.122975
-0.122213
0.016887
0.018410
-0.007776
-0.132446
-0.131861
-0.132835
0.060702
0.062044
-0.009625
-0.008412
-0.041913
-0.136091
-0.135714
-0.000457
-0.000890
-0.000616
-0.014690
-0.017490
-0.044280
-0.043891
-0.134544
0.019134
0.020927
-0.122821
0.037578
0.039271
0.039664
0.037268
-0.141756
-0.141228
-0.140468
-0.060596
-0.061359
-0.060158
-0.005952
-0.004639
0.049489
0.048162
0.055134
0.041089
0.059724
0.061336
-0.044410
-0.041962
-0.010163
-0.014036
-0.011177
-0.014049
-0.142395
-0.002705
-0.002752
-0.001642
-0.041065
-0.040718
0.060886
0.060197
0.059520
0.061824
0.058139
0.058955
0.057489
-0.005808
-0.005781
-0.004983
0.039571
-0.010940
-0.006749
-0.058222
-0.058533
-0.059288
-0.057276
-0.071821
-0.071919
-0.077704
0.070514
-0.065367
-0.082301
-0.083841
-0.088903
0.033561
0.033541
0.031182
-0.031798
-0.036070
0.047751
0.050250
0.048823
0.049251
0.051459
0.049535
0.050422
0.052288
0.031726
0.046216
0.044801
-0.012467
-0.011309
0.068208
0.067099
0.067387
0.068276
0.066078
0.067406
0.065880
0.065688
-0.020653
-0.043791
-0.043580
-0.035380
-0.028951
-0.041288
0.035668
0.038493
0.036588
0.038400
0.037153
0.081120
0.080483
0.079712
-0.046349
-0.046146
-0.039305
-0.043895
-0.042559
-0.042368
-0.044725
-0.044287
-0.009019
-0.007912
-0.046522
-0.007241
0.076255
0.077338
0.075178
0.067076
0.069057
0.065505
-0.013662
-0.016019
-0.127674
-0.129387
-0.013436
-0.014426
-0.013112
-0.014559
-0.131720
-0.130559
-0.131619
-0.130495
-0.055450
-0.055618
-0.054547
-0.055487
-0.044674
-0.041644
-0.005609
-0.004363
-0.042822
-0.042400
-0.039191
-0.033330
0.076030
0.075606
0.074882
0.073902
0.033389
-0.010675
-0.017381
-0.013550
0.074924
0.076609
0.077088
-0.022598
-0.028344
-0.010211
-0.083987
-0.078925
-0.086126
-0.078534
-0.088993
-0.093185
-0.096260
-0.045587
-0.045340
-0.011688
-0.010585
0.080606
-0.018957
-0.043182
-0.048227
-0.047943
0.035507
-0.125843
-0.045834
-0.000383
-0.000532
-0.000565
-0.000713
-0.008436
-0.007351
-0.048520
-0.046831
-0.012753
-0.014859
-0.006825
-0.125336
-0.014304
-0.013125
-0.011836
-0.005300
-0.004134
-0.044495
-0.043981
-0.000668
-0.000910
-0.000592
-0.000966
-0.100838
-0.101760
-0.102470
-0.100433
-0.023611
-0.019466
-0.023722
-0.020671
-0.025586
-0.009533
-0.047311
-0.046976
-0.010989
-0.009954
-0.019706
-0.017555
-0.017595
-0.109217
-0.108666
-0.110070
-0.120562
-0.121487
-0.120790
-0.121774
-0.017450
-0.047627
-0.044941
-0.049951
-0.049640
0.052595
0.053415
0.053744
0.055421
0.010300
0.011590
0.011278
-0.007831
-0.006693
-0.012054
-0.013866
-0.047015
-0.102645
-0.103145
-0.098344
-0.020658
-0.006631
-0.004911
0.004297
-0.050243
-0.048853
-0.061194
-0.060668
0.002624
-0.140901
-0.141889
0.055098
0.056749
0.056015
0.053406
-0.006485
-0.046050
-0.045514
-0.005661
-0.113744
-0.001365
-0.001136
-0.001392
0.045823
0.046448
0.047873
-0.081373
-0.084660
-0.081658
-0.083649
-0.047127
-0.044276
-0.009418
-0.051877
-0.051192
-0.048948
-0.048539
-0.019206
-0.023659
-0.008892
0.041170
0.039048
0.047993
0.041057
0.039633
0.003370
0.004262
0.003593
0.003979
-0.042085
-0.034765
-0.049190
-0.011557
-0.012988
-0.002943
-0.003132
-0.003552
-0.002662
-0.016205
-0.046551
-0.007308
-0.006258
-0.134936
0.045835
0.044651
0.046349
-0.047553
-0.046969
-0.119988
-0.119227
-0.118593
-0.120759
-0.146342
-0.147137
-0.147086
-0.147990
0.064406
0.064429
-0.008374
-0.050662
-0.050086
0.067163
-0.017833
-0.021447
0.044657
-0.097581
-0.098974
-0.098673
-0.050573
-0.128385
-0.126571
-0.128602
-0.127200
-0.128703
-0.126943
-0.127414
-0.125483
-0.054209
-0.015089
-0.048100
-0.100439
-0.005934
-0.006159