# vtk DataFile Version 2.0
Test
ASCII
DATASET POLYDATA
POINTS 7607 float
0.000000 0.000000 0.000000
1.000000 0.000000 0.000000
1.000000 0.800000 0.000000
1.000000 1.000000 0.000000
0.000000 1.000000 0.000000
0.000000 0.200000 0.000000
0.300000 0.330000 0.000000
0.700000 0.680000 0.000000
0.012987 0.000000 0.000000
0.025974 0.000000 0.000000
0.038961 0.000000 0.000000
0.051948 0.000000 0.000000
0.064935 0.000000 0.000000
0.077922 0.000000 0.000000
0.090909 0.000000 0.000000
0.103896 0.000000 0.000000
0.116883 0.000000 0.000000
0.129870 0.000000 0.000000
0.142857 0.000000 0.000000
0.155844 0.000000 0.000000
0.168831 0.000000 0.000000
0.181818 0.000000 0.000000
0.194805 0.000000 0.000000
0.207792 0.000000 0.000000
0.220779 0.000000 0.000000
0.233766 0.000000 0.000000
0.246753 0.000000 0.000000
0.259740 0.000000 0.000000
0.272727 0.000000 0.000000
0.285714 0.000000 0.000000
0.298701 0.000000 0.000000
0.311688 0.000000 0.000000
0.324675 0.000000 0.000000
0.337662 0.000000 0.000000
0.350649 0.000000 0.000000
0.363636 0.000000 0.000000
0.376623 0.000000 0.000000
0.389610 0.000000 0.000000
0.402597 0.000000 0.000000
0.415584 0.000000 0.000000
0.428571 0.000000 0.000000
0.441558 0.000000 0.000000
0.454545 0.000000 0.000000
0.467532 0.000000 0.000000
0.480519 0.000000 0.000000
0.493506 0.000000 0.000000
0.506494 0.000000 0.000000
0.519481 0.000000 0.000000
0.532468 0.000000 0.000000
0.545455 0.000000 0.000000
0.558442 0.000000 0.000000
0.571429 0.000000 0.000000
0.584416 0.000000 0.000000
0.597403 0.000000 0.000000
0.610390 0.000000 0.000000
0.623377 0.000000 0.000000
0.636364 0.000000 0.000000
0.649351 0.000000 0.000000
0.662338 0.000000 0.000000
0.675325 0.000000 0.000000
0.688312 0.000000 0.000000
0.701299 0.000000 0.000000
0.714286 0.000000 0.000000
0.727273 0.000000 0.000000
0.740260 0.000000 0.000000
0.753247 0.000000 0.000000
0.766234 0.000000 0.000000
0.779221 0.000000 0.000000
0.792208 0.000000 0.000000
0.805195 0.000000 0.000000
0.818182 0.000000 0.000000
0.831169 0.000000 0.000000
0.844156 0.000000 0.000000
0.857143 0.000000 0.000000
0.870130 0.000000 0.000000
0.883117 0.000000 0.000000
0.896104 0.000000 0.000000
0.909091 0.000000 0.000000
0.922078 0.000000 0.000000
0.935065 0.000000 0.000000
0.948052 0.000000 0.000000
0.961039 0.000000 0.000000
0.974026 0.000000 0.000000
0.987013 0.000000 0.000000
1.000000 0.012903 0.000000
1.000000 0.025806 0.000000
1.000000 0.038710 0.000000
1.000000 0.051613 0.000000
1.000000 0.064516 0.000000
1.000000 0.077419 0.000000
1.000000 0.090323 0.000000
1.000000 0.103226 0.000000
1.000000 0.116129 0.000000
1.000000 0.129032 0.000000
1.000000 0.141935 0.000000
1.000000 0.154839 0.000000
1.000000 0.167742 0.000000
1.000000 0.180645 0.000000
1.000000 0.193548 0.000000
1.000000 0.206452 0.000000
1.000000 0.219355 0.000000
1.000000 0.232258 0.000000
1.000000 0.245161 0.000000
1.000000 0.258065 0.000000
1.000000 0.270968 0.000000
1.000000 0.283871 0.000000
1.000000 0.296774 0.000000
1.000000 0.309677 0.000000
1.000000 0.322581 0.000000
1.000000 0.335484 0.000000
1.000000 0.348387 0.000000
1.000000 0.361290 0.000000
1.000000 0.374194 0.000000
1.000000 0.387097 0.000000
1.000000 0.400000 0.000000
1.000000 0.412903 0.000000
1.000000 0.425806 0.000000
1.000000 0.438710 0.000000
1.000000 0.451613 0.000000
1.000000 0.464516 0.000000
1.000000 0.477419 0.000000
1.000000 0.490323 0.000000
1.000000 0.503226 0.000000
1.000000 0.516129 0.000000
1.000000 0.529032 0.000000
1.000000 0.541935 0.000000
1.000000 0.554839 0.000000
1.000000 0.567742 0.000000
1.000000 0.580645 0.000000
1.000000 0.593548 0.000000
1.000000 0.606452 0.000000
1.000000 0.619355 0.000000
1.000000 0.632258 0.000000
1.000000 0.645161 0.000000
1.000000 0.658065 0.000000
1.000000 0.670968 0.000000
1.000000 0.683871 0.000000
1.000000 0.696774 0.000000
1.000000 0.709677 0.000000
1.000000 0.722581 0.000000
1.000000 0.735484 0.000000
1.000000 0.748387 0.000000
1.000000 0.761290 0.000000
1.000000 0.774194 0.000000
1.000000 0.787097 0.000000
1.000000 0.812500 0.000000
1.000000 0.825000 0.000000
1.000000 0.837500 0.000000
1.000000 0.850000 0.000000
1.000000 0.862500 0.000000
1.000000 0.875000 0.000000
1.000000 0.887500 0.000000
1.000000 0.900000 0.000000
1.000000 0.912500 0.000000
1.000000 0.925000 0.000000
1.000000 0.937500 0.000000
1.000000 0.950000 0.000000
1.000000 0.962500 0.000000
1.000000 0.975000 0.000000
1.000000 0.987500 0.000000
0.987013 1.000000 0.000000
0.974026 1.000000 0.000000
0.961039 1.000000 0.000000
0.948052 1.000000 0.000000
0.935065 1.000000 0.000000
0.922078 1.000000 0.000000
0.909091 1.000000 0.000000
0.896104 1.000000 0.000000
0.883117 1.000000 0.000000
0.870130 1.000000 0.000000
0.857143 1.000000 0.000000
0.844156 1.000000 0.000000
0.831169 1.000000 0.000000
0.818182 1.000000 0.000000
0.805195 1.000000 0.000000
0.792208 1.000000 0.000000
0.779221 1.000000 0.000000
0.766234 1.000000 0.000000
0.753247 1.000000 0.000000
0.740260 1.000000 0.000000
0.727273 1.000000 0.000000
0.714286 1.000000 0.000000
0.701299 1.000000 0.000000
0.688312 1.000000 0.000000
0.675325 1.000000 0.000000
0.662338 1.000000 0.000000
0.649351 1.000000 0.000000
0.636364 1.000000 0.000000
0.623377 1.000000 0.000000
0.610390 1.000000 0.000000
0.597403 1.000000 0.000000
0.584416 1.000000 0.000000
0.571429 1.000000 0.000000
0.558442 1.000000 0.000000
0.545455 1.000000 0.000000
0.532468 1.000000 0.000000
0.519481 1.000000 0.000000
0.506494 1.000000 0.000000
0.493506 1.000000 0.000000
0.480519 1.000000 0.000000
0.467532 1.000000 0.000000
0.454545 1.000000 0.000000
0.441558 1.000000 0.000000
0.428571 1.000000 0.000000
0.415584 1.000000 0.000000
0.402597 1.000000 0.000000
0.389610 1.000000 0.000000
0.376623 1.000000 0.000000
0.363636 1.000000 0.000000
0.350649 1.000000 0.000000
0.337662 1.000000 0.000000
0.324675 1.000000 0.000000
0.311688 1.000000 0.000000
0.298701 1.000000 0.000000
0.285714 1.000000 0.000000
0.272727 1.000000 0.000000
0.259740 1.000000 0.000000
0.246753 1.000000 0.000000
0.233766 1.000000 0.000000
0.220779 1.000000 0.000000
0.207792 1.000000 0.000000
0.194805 1.000000 0.000000
0.181818 1.000000 0.000000
0.168831 1.000000 0.000000
0.155844 1.000000 0.000000
0.142857 1.000000 0.000000
0.129870 1.000000 0.000000
0.116883 1.000000 0.000000
0.103896 1.000000 0.000000
0.090909 1.000000 0.000000
0.077922 1.000000 0.000000
0.064935 1.000000 0.000000
0.051948 1.000000 0.000000
0.038961 1.000000 0.000000
0.025974 1.000000 0.000000
0.012987 1.000000 0.000000
0.000000 0.987097 0.000000
0.000000 0.974194 0.000000
0.000000 0.961290 0.000000
0.000000 0.948387 0.000000
0.000000 0.935484 0.000000
0.000000 0.922581 0.000000
0.000000 0.909677 0.000000
0.000000 0.896774 0.000000
0.000000 0.883871 0.000000
0.000000 0.870968 0.000000
0.000000 0.858065 0.000000
0.000000 0.845161 0.000000
0.000000 0.832258 0.000000
0.000000 0.819355 0.000000
0.000000 0.806452 0.000000
0.000000 0.793548 0.000000
0.000000 0.780645 0.000000
0.000000 0.767742 0.000000
0.000000 0.754839 0.000000
0.000000 0.741935 0.000000
0.000000 0.729032 0.000000
0.000000 0.716129 0.000000
0.000000 0.703226 0.000000
0.000000 0.690323 0.000000
0.000000 0.677419 0.000000
0.000000 0.664516 0.000000
0.000000 0.651613 0.000000
0.000000 0.638710 0.000000
0.000000 0.625806 0.000000
0.000000 0.612903 0.000000
0.000000 0.600000 0.000000
0.000000 0.587097 0.000000
0.000000 0.574194 0.000000
0.000000 0.561290 0.000000
0.000000 0.548387 0.000000
0.000000 0.535484 0.000000
0.000000 0.522581 0.000000
0.000000 0.509677 0.000000
0.000000 0.496774 0.000000
0.000000 0.483871 0.000000
0.000000 0.470968 0.000000
0.000000 0.458065 0.000000
0.000000 0.445161 0.000000
0.000000 0.432258 0.000000
0.000000 0.419355 0.000000
0.000000 0.406452 0.000000
0.000000 0.393548 0.000000
0.000000 0.380645 0.000000
0.000000 0.367742 0.000000
0.000000 0.354839 0.000000
0.000000 0.341935 0.000000
0.000000 0.329032 0.000000
0.000000 0.316129 0.000000
0.000000 0.303226 0.000000
0.000000 0.290323 0.000000
0.000000 0.277419 0.000000
0.000000 0.264516 0.000000
0.000000 0.251613 0.000000
0.000000 0.238710 0.000000
0.000000 0.225806 0.000000
0.000000 0.212903 0.000000
0.000000 0.187500 0.000000
0.000000 0.175000 0.000000
0.000000 0.162500 0.000000
0.000000 0.150000 0.000000
0.000000 0.137500 0.000000
0.000000 0.125000 0.000000
0.000000 0.112500 0.000000
0.000000 0.100000 0.000000
0.000000 0.087500 0.000000
0.000000 0.075000 0.000000
0.000000 0.062500 0.000000
0.000000 0.050000 0.000000
0.000000 0.037500 0.000000
0.000000 0.025000 0.000000
0.000000 0.012500 0.000000
0.309756 0.338537 0.000000
0.319512 0.347073 0.000000
0.329268 0.355610 0.000000
0.339024 0.364146 0.000000
0.348780 0.372683 0.000000
0.358537 0.381220 0.000000
0.368293 0.389756 0.000000
0.378049 0.398293 0.000000
0.387805 0.406829 0.000000
0.397561 0.415366 0.000000
0.407317 0.423902 0.000000
0.417073 0.432439 0.000000
0.426829 0.440976 0.000000
0.436585 0.449512 0.000000
0.446341 0.458049 0.000000
0.456098 0.466585 0.000000
0.465854 0.475122 0.000000
0.475610 0.483659 0.000000
0.485366 0.492195 0.000000
0.495122 0.500732 0.000000
0.504878 0.509268 0.000000
0.514634 0.517805 0.000000
0.524390 0.526341 0.000000
0.534146 0.534878 0.000000
0.543902 0.543415 0.000000
0.553659 0.551951 0.000000
0.563415 0.560488 0.000000
0.573171 0.569024 0.000000
0.582927 0.577561 0.000000
0.592683 0.586098 0.000000
0.602439 0.594634 0.000000
0.612195 0.603171 0.000000
0.621951 0.611707 0.000000
0.631707 0.620244 0.000000
0.641463 0.628780 0.000000
0.651220 0.637317 0.000000
0.660976 0.645854 0.000000
0.670732 0.654390 0.000000
0.680488 0.662927 0.000000
0.690244 0.671463 0.000000
0.011538 0.205000 0.000000
0.023077 0.210000 0.000000
0.034615 0.215000 0.000000
0.046154 0.220000 0.000000
0.057692 0.225000 0.000000
0.069231 0.230000 0.000000
0.080769 0.235000 0.000000
0.092308 0.240000 0.000000
0.103846 0.245000 0.000000
0.115385 0.250000 0.000000
0.126923 0.255000 0.000000
0.138462 0.260000 0.000000
0.150000 0.265000 0.000000
0.161538 0.270000 0.000000
0.173077 0.275000 0.000000
[...]
POINT_DATA 7607
SCALARS UX float 1
LOOKUP_TABLE default
0.006121
0.002121
0.011154
-0.176102
-0.277811
-0.129486
-0.101601
-0.005676
-0.001808
0.000062
0.000192
0.001367
0.011875
0.000058
-0.000195
0.010468
0.000290
0.000733
-0.000281
0.000120
0.000108
-0.000055
-0.000162
0.000198
-0.000091
0.000289
0.000066
-0.001106
-0.000107
-0.000129
-0.000439
-0.007706
0.000161
-0.000154
-0.000101
-0.000332
0.000254
0.000159
0.002039
0.000061
0.000803
-0.001875
0.000015
0.003839
0.000150
0.000037
-0.002652
-0.000034
-0.000278
0.000045
0.000053
-0.003748
-0.000212
-0.001189
-0.000087
-0.000284
-0.000033
-0.000066
0.000026
-0.000712
-0.001153
0.000339
-0.000247
-0.000418
0.004443
0.000630
-0.007183
0.000255
0.002055
0.000332
-0.000933
-0.000473
-0.005618
-0.000274
0.005111
0.002834
-0.006360
-0.000018
-0.000774
0.001750
0.000184
-0.000044
-0.000175
-0.010492
-0.001187
0.014411
0.005866
0.014077
0.010255
0.011554
0.009628
0.018523
0.038318
0.036421
0.027831
0.034673
0.027631
0.053329
0.025637
0.030706
0.049613
0.050310
0.050826
0.062215
0.052639
0.063760
0.070995
0.049325
0.064609
0.078788
0.061837
0.094922
0.082040
0.083024
0.089810
0.079502
0.098894
0.095101
0.116453
0.083532
0.110467
0.115830
0.100511
0.107050
0.133775
0.111992
0.125559
0.130986
0.115009
0.130835
0.136614
0.114816
0.144587
0.103978
0.114461
0.116375
0.120449
0.109904
0.125427
0.095163
0.091478
0.084413
0.081104
0.101606
0.055660
-0.011507
-0.003210
-0.074706
-0.079674
-0.153451
-0.085465
-0.127324
-0.130287
-0.129509
-0.137656
-0.154429
-0.151265
-0.137245
-0.170206
-0.157004
-0.147695
-0.165894
-0.166684
-0.182466
-0.178629
-0.178538
-0.173912
-0.185484
-0.182969
-0.184776
-0.183304
-0.185923
-0.182579
-0.180476
-0.189031
-0.190544
-0.182997
-0.196559
-0.197598
-0.193363
-0.192167
-0.194417
-0.192058
-0.195509
-0.197920
-0.197417
-0.200279
-0.197559
-0.200984
-0.202391
-0.199831
-0.207519
-0.205866
-0.209481
-0.210450
-0.209599
-0.207046
-0.211508
-0.211061
-0.211285
-0.212109
-0.213755
-0.222219
-0.211355
-0.214566
-0.225248
-0.216274
-0.225272
-0.219611
-0.230739
-0.232929
-0.235958
-0.240444
-0.241333
-0.238522
-0.248626
-0.238292
-0.253367
-0.259034
-0.242697
-0.266335
-0.255908
-0.258005
-0.254789
-0.265450
-0.275713
-0.266101
-0.274138
-0.278817
-0.273213
-0.276028
-0.278133
-0.284913
-0.284423
-0.283040
-0.285546
-0.289051
-0.290721
-0.290169
-0.276000
-0.284129
-0.270242
-0.280148
-0.281194
-0.289774
-0.284486
-0.282559
-0.309738
-0.292608
-0.295293
-0.290051
-0.293833
-0.304968
-0.298510
-0.296872
-0.287628
-0.303573
-0.303892
-0.298911
-0.299569
-0.309999
-0.296385
-0.304950
-0.311120
-0.310490
-0.307698
-0.284886
-0.274582
-0.293740
-0.306729
-0.307705
-0.312443
-0.302701
-0.315959
-0.311210
-0.326038
-0.306261
-0.315491
-0.307913
-0.310378
-0.313737
-0.311045
-0.310410
-0.331076
-0.302774
-0.312784
-0.304137
-0.295162
-0.299162
-0.296394
-0.268617
-0.272003
-0.230421
-0.262710
-0.214598
-0.193711
-0.209959
-0.174790
-0.081921
-0.124823
-0.087057
-0.004634
-0.060888
-0.048173
-0.038227
-0.027124
-0.029471
-0.018055
-0.026045
-0.019541
-0.012425
-0.007563
0.052180
-0.053309
-0.181589
-0.218879
-0.232741
-0.265338
-0.236356
-0.152164
-0.187361
-0.236864
-0.199774
-0.123303
0.074831
0.007434
-0.134024
-0.084742
0.077052
0.030075
-0.176559
-0.163056
0.017210
-0.139028
-0.326078
-0.197117
-0.177649
-0.203121
-0.119214
-0.066714
-0.042721
-0.060121
0.152615
-0.013702
0.028524
0.073643
0.066239
0.068128
-0.170777
-0.034209
-0.167706
-0.202141
-0.162276
-0.223769
-0.107109
-0.192848
-0.154669
-0.228187
-0.195193
-0.145709
-0.170021
-0.085985
-0.181103
-0.137010
-0.220479
-0.183008
-0.132809
-0.295842
-0.170469
-0.143232
-0.117937
-0.313480
-0.094885
-0.143240
-0.280810
-0.108412
-0.179179
0.051826
0.077063
-0.009406
0.186820
-0.029200
0.125499
0.029939
-0.048029
0.030752
-0.039192
0.061577
-0.009882
0.013857
0.024132
-0.045038
0.024901
0.033712
0.008307
0.034291
-0.003936
-0.000372
0.024596
0.049300
-0.035714
-0.185648
-0.198579
-0.201596
-0.190760
0.055047
0.042237
0.036495
-0.203256
-0.348695
-0.152478
-0.251400
-0.210759
-0.158938
-0.013513
0.007474
0.010388
-0.273049
-0.265595
-0.266771
-0.297660
0.035294
0.012365
0.022788
0.008567
-0.076341
-0.025949
-0.088684
-0.067721
-0.001797
-0.012772
-0.183562
-0.214063
-0.353736
-0.283210
-0.110298
-0.057474
0.014650
0.002355
-0.006622
-0.006511
-0.266702
-0.264944
-0.279261
-0.286126
-0.068386
-0.133623
-0.005763
-0.037982
0.096786
0.073456
0.091386
-0.165493
-0.191801
0.084547
0.039653
0.012819
0.059656
-0.206641
-0.195840
-0.187119
-0.088012
-0.225804
-0.190264
-0.150103
-0.131052
-0.142115
-0.039590
-0.060127
-0.029261
-0.184580
-0.268749
-0.268696
-0.020148
0.020571
0.042001
-0.007764
-0.015768
-0.017914
-0.224559
-0.223028
-0.225201
-0.022127
-0.203023
-0.199348
-0.180363
0.027504
0.037151
0.004451
0.024615
0.001856
-0.013244
-0.018742
-0.076096
-0.042180
-0.027113
-0.022338
0.058811
0.109002
0.124622
-0.293675
-0.120572
-0.212660
-0.131289
-0.119837
-0.164218
-0.130984
-0.219590
-0.187951
-0.258632
-0.179326
-0.019858
0.010352
0.007121
0.006030
0.059342
0.052459
-0.194604
-0.193134
-0.184378
0.024341
0.026528
0.006969
-0.158720
-0.145737
-0.179796
-0.155569
0.038872
0.055676
0.086006
0.065813
-0.005467
-0.180571
-0.025842
-0.003842
-0.012210
-0.001708
-0.290411
-0.254605
-0.260282
-0.294978
-0.198927
-0.232927
-0.220117
-0.207514
-0.172844
-0.186393
-0.192223
-0.180680
-0.079349
-0.010196
-0.007188
-0.005600
-0.000838
-0.314978
-0.286909
-0.314503
-0.012094
-0.010735
-0.003815
-0.295944
-0.274146
-0.274669
-0.016327
-0.152090
-0.174689
-0.190512
-0.281375
-0.275366
-0.252655
-0.267777
-0.264061
-0.270044
-0.276211
0.096517
0.077786
0.086149
0.086792
0.086246
0.050900
0.077640
0.031814
0.042677
0.033320
-0.216500
-0.206093
-0.189553
-0.206535
-0.202803
-0.200302
-0.009007
-0.021249
-0.014031
-0.007925
0.011664
0.039123
-0.008037
-0.046945
-0.024453
-0.050498
-0.071141
-0.248323
-0.267340
-0.265183
-0.227789
0.041188
0.062273
0.038009
0.031966
0.041420
0.036428
0.053997
0.092713
0.093630
0.079493
0.010749
0.185334
-0.289866
-0.274903
-0.282141
-0.121482
-0.144269
-0.148346
-0.097170
0.074550
0.101963
0.109289
0.094318
0.042251
0.058407
0.021416
-0.207406
-0.210847
-0.286572
-0.264144
-0.238344
-0.239390
-0.260842
-0.248124
-0.261754
-0.001265
-0.015728
0.006456
-0.237301
-0.235612
-0.216298
-0.006716
0.021838
-0.017544
0.087743
0.078193
0.109195
-0.005684
-0.014604
-0.017298
-0.023892
-0.027601
-0.273008
-0.285092
-0.009808
-0.021032
-0.004903
0.010761
0.010676
-0.000756
-0.019581
-0.004411
0.011686
-0.138430
-0.133543
-0.272784
-0.287753
-0.263887
-0.029689
-0.040295
0.102009
0.096293
0.009317
0.061256
0.026863
0.057746
0.016523
-0.003093
-0.000797
0.006168
-0.289709
-0.289778
-0.311391
-0.265969
-0.304232
-0.273248
-0.343023
-0.244342
0.033803
-0.022152
0.025524
0.069980
-0.322162
-0.295797
-0.276207
-0.271935
0.065955
0.131371
0.084567
0.065779
0.044104
-0.175074
-0.171716
-0.169628
0.036889
-0.148669
-0.169942
-0.188849
0.081634
-0.179751
-0.276817
-0.323914
-0.277881
-0.013448
0.014995
-0.015950
-0.241452
-0.248784
-0.233435
-0.018409
-0.008197
0.003335
0.022766
0.036178
0.005472
0.053956
-0.165480
-0.174528
-0.141469
-0.187723
-0.248255
-0.305392
-0.248366
0.020086
0.034109
-0.001532
0.016197
0.012848
0.015366
-0.265440
-0.286303
-0.289815
-0.193052
-0.227748
-0.247941
-0.026381
-0.044691
0.092872
0.030475
-0.016435
0.029379
0.026290
0.028686
-0.265498
-0.319515
-0.269600
-0.311682
-0.323647
-0.275443
-0.021256
0.013032
-0.013261
-0.016612
0.108250
0.072926
0.054504
0.006050
0.003107
0.002325
0.038312
0.032458
0.035673
0.036482
-0.228026
-0.233550
-0.191469
0.008149
0.008398
0.007214
0.003506
-0.026871
-0.000690
-0.013505
-0.315743
-0.221228
-0.198383
-0.221145
-0.284836
-0.300616
-0.343370
-0.148258
-0.153587
-0.138723
-0.049151
-0.029061
-0.015302
-0.158817
-0.161196
-0.163185
-0.129165
-0.148988
0.008410
-0.008868
-0.240865
-0.273473
-0.263547
0.106052
0.070063
-0.188838
-0.232641
-0.032609
0.005551
-0.027070
0.005982
-0.024739
-0.037013
-0.015625
0.016232
0.026139
0.027385
-0.166667
-0.181741
-0.048899
0.004539
-0.007608
-0.209856
-0.203683
-0.204033
0.021593
-0.283062
-0.252596
-0.285997
0.147991
0.037403
0.023874
-0.282533
-0.281015
0.083594
0.090315
-0.254802
-0.246028
-0.257528
-0.200806
-0.152964
-0.007940
-0.027462
-0.007304
-0.003740
-0.024327
-0.256870
-0.252861
-0.291627
-0.300632
-0.244418
0.079424
0.102593
-0.300587
-0.278792
-0.281974
0.016693
0.008897
-0.146227
-0.160830
-0.145073
-0.155420
0.005306
0.012383
0.002893
-0.294476
-0.266759
-0.270917
-0.258795
-0.265953
-0.255343
-0.295178
-0.275516
-0.302495
-0.266106
0.002770
-0.004266
-0.003347
-0.003897
-0.026528
-0.014293
-0.009507
-0.287599
-0.293186
-0.293016
-0.149556
-0.115925
-0.117321
-0.136611
-0.280555
-0.299479
-0.278772
-0.283744
-0.285350
-0.299389
0.102325
0.142507
-0.310155
0.026685
-0.012381
-0.272902
-0.011426
-0.184664
0.129994
-0.290978
-0.262910
-0.022414
-0.300100
-0.297327
0.032839
-0.003963
-0.001655
-0.045531
-0.035503
-0.005320
-0.001208
-0.012830
0.068561
0.135446
0.085686
0.077894
0.110492
0.118573
-0.233939
-0.233774
-0.234649
-0.231339
0.021837
0.011273
0.023512
-0.045175
-0.004980
-0.140261
-0.153623
0.070416
0.046433
-0.300637
-0.291456
-0.286122
-0.282900
-0.011270
-0.069116
-0.052463
-0.039742
0.071801
0.109081
0.058369
0.116512
0.092544
-0.177018
-0.173275
-0.177665
0.024085
-0.273790
-0.269166
-0.290605
-0.215877
-0.211821
-0.040722
-0.008768
-0.021700
-0.014907
-0.197616
-0.161641
-0.176129
-0.179855
-0.176240
-0.173772
-0.001213
0.001472
0.064418
0.044148
0.056694
0.015969
-0.136222
-0.155704
-0.170472
-0.181280
-0.154051
-0.297660
-0.126031
0.032370
0.002080
-0.013447
-0.030093
-0.025792
-0.206980
-0.234799
-0.310526
-0.293542
-0.281098
-0.279788
-0.223580
-0.242921
-0.256290
-0.244233
-0.301835
0.193661
0.021208
0.023118
0.028945
0.028914
-0.022889
-0.025898
0.028175
-0.270510
-0.268866
-0.284345
-0.015469
-0.018853
-0.249215
-0.261110
-0.276620
-0.278309
-0.011231
-0.016414
-0.035103
-0.299451
-0.006258
-0.010420
-0.278973
-0.283603
0.031676
0.026289
0.028715
0.049606
0.004579
0.008975
-0.001895
-0.003105
-0.275259
-0.318603
-0.314561
-0.244852
-0.237355
-0.249091
-0.225324
-0.010154
-0.012632
-0.031972
-0.022448
0.069393
0.074683
0.083149
0.009051
0.044498
0.066671
0.002815
-0.038344
-0.158214
-0.158652
-0.183702
-0.190022
-0.178647
-0.291935
-0.288011
-0.287698
-0.200092
-0.208212
-0.231522
-0.206117
0.106221
0.058181
-0.033909
-0.028075
-0.285380
-0.213015
-0.189975
-0.186872
-0.291982
-0.271944
-0.286311
-0.207041
-0.228750
-0.156880
-0.156188
-0.031622
-0.187652
-0.023399
0.111425
-0.016350
0.117287
0.108477
-0.020920
-0.010424
-0.007628
0.015243
-0.148128
-0.155195
-0.013312
-0.263218
-0.295196
-0.015333
-0.001567
-0.181190
-0.261802
-0.033533
-0.046288
-0.035909
-0.024499
-0.150170
-0.152669
-0.139658
-0.019866
-0.000507
-0.300174
-0.017964
0.010675
-0.070652
-0.271421
-0.265355
-0.299536
0.030257
0.002787
-0.015153
-0.288744
0.032821
0.037651
-0.035821
-0.345969
-0.294961
-0.321253
-0.116603
-0.053143
-0.006659
-0.002896
-0.190099
-0.214626
-0.186925
-0.168792
-0.156895
-0.196595
-0.002017
-0.010457
0.011391
0.009656
0.026187
0.013931
0.003882
-0.041672
-0.003358
-0.154079
-0.163276
-0.191914
-0.154468
-0.139032
-0.172725
-0.171808
-0.160001
-0.042777
-0.015286
-0.285151
-0.262065
-0.275889
-0.255135
-0.221533
-0.236670
-0.228995
-0.017429
-0.011359
-0.180653
-0.160823
-0.161338
0.095014
0.057545
0.108414
0.041645
-0.287589
-0.141321
-0.014853
0.005612
-0.006223
-0.269960
0.036997
0.028353
0.041875
0.000106
-0.296145
0.005352
0.012930
0.001911
0.020325
0.006745
-0.142064
-0.174231
-0.178201
-0.171613
-0.004397
-0.008809
-0.001841
-0.002799
0.118358
0.126352
0.117343
0.114403
-0.276729
-0.294492
-0.263036
-0.208253
-0.216394
0.018515
0.012630
0.031389
0.004986
0.016419
-0.014204
0.040217
-0.188294
-0.230564
0.060406
0.049103
0.081048
-0.313352
-0.254440
-0.292455
-0.260766
-0.271082
-0.183656
0.100027
0.102057
0.091729
0.084854
-0.009109
-0.195490
-0.200329
-0.239840
0.004789
0.010785
-0.249680
0.033002
0.032394
-0.212965
-0.202450
-0.210897
-0.270915
-0.278582
-0.021179
-0.245721
-0.239430
-0.224895
-0.247878
0.112145
0.103670
0.126741
0.146655
-0.278657
-0.194656
-0.257360
-0.230473
-0.275620
0.014503
0.036257
0.041399
0.074675
0.070174
0.083400
-0.019174
-0.027557
-0.017523
-0.297729
0.036704
-0.296103
-0.277891
-0.261594
-0.296294
-0.279987
-0.287688
-0.252720
-0.310743
0.004660
-0.019166
-0.284301
0.058623
-0.021879
-0.011759
-0.016969
-0.211612
-0.202557
-0.201998
-0.045520
-0.019744
0.009108
0.008586
0.019882
-0.118921
-0.027306
-0.012138
-0.013500
-0.154899
-0.166008
-0.164146
0.082454
0.076277
0.038077
-0.007584
-0.013766
-0.268495
-0.266749
-0.269314
-0.192569
-0.307534
-0.316918
-0.320589
-0.260681
-0.276567
-0.249418
-0.065361
-0.082818
-0.110784
-0.209930
-0.218210
-0.243292
-0.043676
-0.013169
-0.112163
-0.216588
-0.166720
0.026038
-0.017697
0.132292
0.107967
0.092721
0.105458
-0.181414
-0.180096
-0.009607
-0.002397
-0.011197
0.023488
0.002053
-0.010005
-0.271635
0.006750
-0.015755
-0.030228
-0.001532
-0.241652
-0.230215
-0.256058
-0.240528
-0.341924
-0.264662
-0.289613
-0.296194
-0.001452
0.002386
0.019406
-0.290878
-0.279835
-0.254433
-0.275052
-0.172864
0.113452
0.024238
-0.192103
-0.158682
-0.036523
-0.191034
0.104847
0.135559
-0.190056
-0.218679
-0.109270
-0.186203
-0.010132
-0.021873
-0.012877
-0.200047
-0.195942
-0.203710
0.060151
0.163757
0.078623
-0.270142
-0.239760
-0.281288
-0.234919
-0.189964
-0.251365
-0.275519
-0.248483
-0.285632
-0.011685
-0.260749
-0.268138
-0.292169
-0.287531
0.008691
0.020737
0.016898
-0.018351
-0.015582
-0.189867
-0.158466
-0.149769
-0.005822
-0.012798
-0.013557
-0.013950
-0.016013
-0.159284
-0.153164
-0.190093
-0.235123
-0.302337
-0.206196
0.098219
0.114524
0.109724
0.065723
-0.172184
-0.179521
-0.060868
-0.063364
-0.048794
0.010958
-0.000335
0.001405
-0.276950
-0.278826
-0.018280
-0.009549
-0.175733
-0.124345
-0.012503
-0.019171
0.004362
-0.014107
-0.194953
-0.182654
-0.012688
-0.279084
-0.284349
-0.256548
0.003376
0.004235
-0.239614
-0.238399
-0.242901
-0.271785
-0.276244
-0.285690
-0.280133
0.004506
0.003900
-0.009179
-0.253647
-0.261045
-0.287170
0.076097
0.061435
0.072136
0.084059
-0.232078
-0.233549
-0.251860
-0.203650
0.077424
0.073378
0.090479
-0.285302
0.075606
-0.240315
0.008057
-0.010765
0.015186
0.028129
0.082044
-0.272953
-0.275659
-0.272266
0.000087
0.005467
0.017012
0.121706
0.120869
0.063111
-0.093153
-0.055844
0.099535
0.114222
0.126644
-0.012285
-0.092747
-0.073613
-0.126107
0.029281
-0.011874
0.068147
0.063029
0.026236
-0.183339
-0.015062
-0.009539
-0.007535
-0.015734
-0.015282
-0.139293
0.050855
-0.289285
-0.280347
-0.283020
-0.168714
-0.017240
-0.280493
-0.254528
-0.289961
-0.260269
-0.281187
0.070268
-0.145851
-0.177719
-0.156233
-0.143038
-0.011464
-0.163332
-0.182080
-0.166939
-0.175385
-0.181346
0.000121
-0.252462
-0.255126
-0.275110
0.001468
-0.275481
-0.287112
-0.004646
0.056127
0.055565
0.072350
-0.289923
0.132085
0.079064
0.045850
-0.278800
-0.271749
-0.274148
0.011951
0.003203
0.002983
-0.320222
-0.180814
-0.207417
-0.182977
-0.210539
-0.218506
-0.227272
-0.313836
-0.310105
-0.306499
-0.264421
-0.215835
-0.187163
0.059645
-0.173068
-0.261653
0.063212
0.071018
0.044520
-0.214004
-0.211172
-0.017955
-0.025847
-0.044979
-0.029096
-0.020874
0.065856
-0.176318
-0.279411
-0.269650
0.017598
-0.011782
-0.004425
-0.285468
-0.284335
-0.277978
0.018709
0.020023
0.015283
-0.192818
-0.188976
-0.199211
-0.194755
-0.161524
-0.176175
-0.009974
-0.003922
0.027832
0.003411
-0.181562
-0.175612
-0.166645
-0.179718
-0.292496
-0.266230
-0.278095
-0.244064
-0.170304
-0.176641
-0.169070
-0.029178
-0.037768
-0.008566
-0.010029
-0.209467
-0.231931
-0.257655
-0.299122
-0.300490
0.124232
-0.024692
-0.033443
0.071784
0.119700
0.016371
-0.317535
0.110386
-0.194594
-0.203833
-0.203148
-0.193272
-0.247521
-0.271578
-0.251316
-0.238536
-0.071822
-0.013411
-0.081458
-0.278852
-0.023364
-0.033530
-0.004567
-0.090753
-0.183811
-0.293617
-0.186593
0.119422
0.119479
0.127506
-0.162203
-0.194960
-0.015431
-0.261628
-0.005967
-0.005410
0.001502
0.012924
-0.027304
0.010100
0.003299
-0.037812
-0.030900
-0.181679
-0.183253
0.060248
0.071586
0.116892
-0.231051
-0.330687
-0.302563
0.123348
-0.282047
-0.286439
-0.302630
-0.219713
-0.259514
-0.357798
-0.295985
-0.323891
-0.201952
-0.196530
-0.196372
0.080167
-0.119781
-0.004802
-0.013020
-0.171999
-0.192302
-0.180383
-0.219811
-0.213181
-0.224638
-0.128479
-0.178224
-0.273398
-0.311555
-0.296082
-0.252043
-0.267850
-0.265187
0.001544
0.016259
-0.011159
-0.289262
-0.283994
-0.283480
-0.031617
-0.018999
-0.019345
-0.011394
-0.170406
-0.283510
-0.276000
-0.001202
-0.003166
-0.008643
-0.038261
-0.011524
-0.179269
-0.184135
-0.296694
0.009854
0.034225
-0.279037
0.044844
0.054351
0.033829
0.035651
-0.286737
-0.325624
-0.265212
-0.182152
-0.201672
-0.199141
-0.002580
0.004409
-0.119196
-0.076275
-0.142784
-0.115205
-0.051737
-0.118590
-0.196231
-0.185130
-0.014497
-0.019347
-0.007720
-0.002991
-0.278331
-0.011236
-0.006371
-0.009418
-0.187932
-0.186503
0.070486
0.113920
0.042889
0.077860
0.084238
0.079598
0.040870
-0.018624
0.003925
-0.007553
0.049839
-0.003809
-0.015988
-0.202605
-0.204273
-0.188185
-0.200251
-0.058141
-0.072470
-0.065478
0.082994
-0.034818
-0.098485
-0.076883
-0.107815
0.054386
0.035650
0.024654
-0.196901
-0.169581
0.114351
0.104901
0.022523
0.020407
0.047916
0.100494
0.043087
0.033560
0.035836
0.071575
0.066640
-0.026738
-0.010975
0.076678
0.011962
0.141631
0.103637
0.025313
0.111167
0.127720
0.145894
-0.055454
-0.178798
-0.189279
-0.171686
-0.153836
-0.199065
0.034803
0.055214
0.060039
0.030082
0.060687
0.099970
0.130254
0.110403
-0.190369
-0.193377
-0.169034
-0.192550
-0.199971
-0.170150
-0.191883
-0.169835
-0.002060
-0.015020
-0.171293
-0.003619
0.117009
0.100854
0.122416
0.026418
0.036689
-0.054843
-0.000003
-0.018933
-0.278093
-0.278588
-0.022711
-0.057445
-0.000850
-0.025909
-0.287495
-0.280596
-0.276655
-0.293499
-0.195636
-0.204918
-0.202911
-0.194267
-0.175622
-0.161210
-0.018432
-0.006867
-0.190065
-0.176941
-0.174421
-0.174649
0.094561
0.104685
0.111551
0.110365
0.050971
-0.161494
-0.163454
-0.174060
0.132263
0.113509
0.116877
-0.031264
-0.031820
-0.013141
-0.029351
-0.100397
-0.090847
-0.068489
-0.083532
-0.150669
-0.117454
-0.188387
-0.187410
-0.020976
-0.000380
0.132749
-0.006923
-0.172253
-0.180438
-0.195476
0.039696
-0.273774
-0.175368
-0.004356
0.000180
0.002595
-0.000791
-0.007273
0.000673
-0.183455
-0.220700
-0.022616
-0.032335
-0.000495
-0.279055
-0.029944
-0.013958
-0.027046
0.006519
0.002679
-0.187504
-0.192044
0.000643
-0.014995
0.002485
-0.013053
-0.268875
-0.219527
-0.258679
-0.261280
-0.035065
-0.011866
-0.010904
-0.035518
-0.019397
-0.023468
-0.181473
-0.191500
-0.020943
-0.017753
-0.021291
-0.015398
-0.037718
-0.260181
-0.260377
-0.240593
-0.271469
-0.252807
-0.251187
-0.281188
-0.034933
-0.192670
-0.194621
-0.193043
-0.179346
0.099761
0.048872
0.072144
0.079886
0.002527
0.012989
-0.003110
-0.011402
-0.008851
-0.008852
-0.018124
-0.140113
-0.124849
-0.183331
-0.106361
0.008176
-0.013137
-0.046942
0.011484
-0.191237
-0.186757
-0.209131
-0.190253
-0.008577
-0.291388
-0.279288
0.053259
0.014372
0.043951
0.062164
-0.012269
-0.188513
-0.189209
-0.016616
-0.160708
-0.008363
-0.000385
-0.013417
0.063282
0.049175
0.053111
-0.189244
-0.203514
-0.185838
-0.264768
-0.199115
-0.189033
0.001612
-0.185003
-0.195411
-0.191214
-0.190468
-0.017457
-0.059645
-0.003733
0.044223
0.051398
0.065341
0.049048
0.055594
-0.006096
0.001747
-0.001328
-0.011224
-0.050389
-0.046839
-0.193813
-0.021063
-0.034772
-0.013026
-0.006458
-0.003865
0.002041
-0.019811
-0.179013
-0.013531
-0.005165
-0.275346
0.056472
0.057275
0.068617
-0.189434
-0.188636
-0.284883
-0.279672
-0.243129
-0.247164
-0.307833
-0.308075
-0.307692
-0.303065
0.061809
0.085277
-0.018836
-0.182108
-0.193514
0.017364
-0.036358
-0.014435
0.050036
-0.121086
-0.230676
-0.235776
-0.186229
-0.262475
-0.269012
-0.292837
-0.281422