# vtk DataFile Version 2.0
Test
ASCII
DATASET POLYDATA
POINTS 7607 float
0.000000 0.000000 0.000000
1.000000 0.000000 0.000000
1.000000 0.800000 0.000000
1.000000 1.000000 0.000000
0.000000 1.000000 0.000000
0.000000 0.200000 0.000000
0.300000 0.330000 0.000000
0.700000 0.680000 0.000000
0.012987 0.000000 0.000000
0.025974 0.000000 0.000000
0.038961 0.000000 0.000000
0.051948 0.000000 0.000000
0.064935 0.000000 0.000000
0.077922 0.000000 0.000000
0.090909 0.000000 0.000000
0.103896 0.000000 0.000000
0.116883 0.000000 0.000000
0.129870 0.000000 0.000000
0.142857 0.000000 0.000000
0.155844 0.000000 0.000000
0.168831 0.000000 0.000000
0.181818 0.000000 0.000000
0.194805 0.000000 0.000000
0.207792 0.000000 0.000000
0.220779 0.000000 0.000000
0.233766 0.000000 0.000000
0.246753 0.000000 0.000000
0.259740 0.000000 0.000000
0.272727 0.000000 0.000000
0.285714 0.000000 0.000000
0.298701 0.000000 0.000000
0.311688 0.000000 0.000000
0.324675 0.000000 0.000000
0.337662 0.000000 0.000000
0.350649 0.000000 0.000000
0.363636 0.000000 0.000000
0.376623 0.000000 0.000000
0.389610 0.000000 0.000000
0.402597 0.000000 0.000000
0.415584 0.000000 0.000000
0.428571 0.000000 0.000000
0.441558 0.000000 0.000000
0.454545 0.000000 0.000000
0.467532 0.000000 0.000000
0.480519 0.000000 0.000000
0.493506 0.000000 0.000000
0.506494 0.000000 0.000000
0.519481 0.000000 0.000000
0.532468 0.000000 0.000000
0.545455 0.000000 0.000000
0.558442 0.000000 0.000000
0.571429 0.000000 0.000000
0.584416 0.000000 0.000000
0.597403 0.000000 0.000000
0.610390 0.000000 0.000000
0.623377 0.000000 0.000000
0.636364 0.000000 0.000000
0.649351 0.000000 0.000000
0.662338 0.000000 0.000000
0.675325 0.000000 0.000000
0.688312 0.000000 0.000000
0.701299 0.000000 0.000000
0.714286 0.000000 0.000000
0.727273 0.000000 0.000000
0.740260 0.000000 0.000000
0.753247 0.000000 0.000000
0.766234 0.000000 0.000000
0.779221 0.000000 0.000000
0.792208 0.000000 0.000000
0.805195 0.000000 0.000000
0.818182 0.000000 0.000000
0.831169 0.000000 0.000000
0.844156 0.000000 0.000000
0.857143 0.000000 0.000000
0.870130 0.000000 0.000000
0.883117 0.000000 0.000000
0.896104 0.000000 0.000000
0.909091 0.000000 0.000000
0.922078 0.000000 0.000000
0.935065 0.000000 0.000000
0.948052 0.000000 0.000000
0.961039 0.000000 0.000000
0.974026 0.000000 0.000000
0.987013 0.000000 0.000000
1.000000 0.012903 0.000000
1.000000 0.025806 0.000000
1.000000 0.038710 0.000000
1.000000 0.051613 0.000000
1.000000 0.064516 0.000000
1.000000 0.077419 0.000000
1.000000 0.090323 0.000000
1.000000 0.103226 0.000000
1.000000 0.116129 0.000000
1.000000 0.129032 0.000000
1.000000 0.141935 0.000000
1.000000 0.154839 0.000000
1.000000 0.167742 0.000000
1.000000 0.180645 0.000000
1.000000 0.193548 0.000000
1.000000 0.206452 0.000000
1.000000 0.219355 0.000000
1.000000 0.232258 0.000000
1.000000 0.245161 0.000000
1.000000 0.258065 0.000000
1.000000 0.270968 0.000000
1.000000 0.283871 0.000000
1.000000 0.296774 0.000000
1.000000 0.309677 0.000000
1.000000 0.322581 0.000000
1.000000 0.335484 0.000000
1.000000 0.348387 0.000000
1.000000 0.361290 0.000000
1.000000 0.374194 0.000000
1.000000 0.387097 0.000000
1.000000 0.400000 0.000000
1.000000 0.412903 0.000000
1.000000 0.425806 0.000000
1.000000 0.438710 0.000000
1.000000 0.451613 0.000000
1.000000 0.464516 0.000000
1.000000 0.477419 0.000000
1.000000 0.490323 0.000000
1.000000 0.503226 0.000000
1.000000 0.516129 0.000000
1.000000 0.529032 0.000000
1.000000 0.541935 0.000000
1.000000 0.554839 0.000000
1.000000 0.567742 0.000000
1.000000 0.580645 0.000000
1.000000 0.593548 0.000000
1.000000 0.606452 0.000000
1.000000 0.619355 0.000000
1.000000 0.632258 0.000000
1.000000 0.645161 0.000000
1.000000 0.658065 0.000000
1.000000 0.670968 0.000000
1.000000 0.683871 0.000000
1.000000 0.696774 0.000000
1.000000 0.709677 0.000000
1.000000 0.722581 0.000000
1.000000 0.735484 0.000000
1.000000 0.748387 0.000000
1.000000 0.761290 0.000000
1.000000 0.774194 0.000000
1.000000 0.787097 0.000000
1.000000 0.812500 0.000000
1.000000 0.825000 0.000000
1.000000 0.837500 0.000000
1.000000 0.850000 0.000000
1.000000 0.862500 0.000000
1.000000 0.875000 0.000000
1.000000 0.887500 0.000000
1.000000 0.900000 0.000000
1.000000 0.912500 0.000000
1.000000 0.925000 0.000000
1.000000 0.937500 0.000000
1.000000 0.950000 0.000000
1.000000 0.962500 0.000000
1.000000 0.975000 0.000000
1.000000 0.987500 0.000000
0.987013 1.000000 0.000000
0.974026 1.000000 0.000000
0.961039 1.000000 0.000000
0.948052 1.000000 0.000000
0.935065 1.000000 0.000000
0.922078 1.000000 0.000000
0.909091 1.000000 0.000000
0.896104 1.000000 0.000000
0.883117 1.000000 0.000000
0.870130 1.000000 0.000000
0.857143 1.000000 0.000000
0.844156 1.000000 0.000000
0.831169 1.000000 0.000000
0.818182 1.000000 0.000000
0.805195 1.000000 0.000000
0.792208 1.000000 0.000000
0.779221 1.000000 0.000000
0.766234 1.000000 0.000000
0.753247 1.000000 0.000000
0.740260 1.000000 0.000000
0.727273 1.000000 0.000000
0.714286 1.000000 0.000000
0.701299 1.000000 0.000000
0.688312 1.000000 0.000000
0.675325 1.000000 0.000000
0.662338 1.000000 0.000000
0.649351 1.000000 0.000000
0.636364 1.000000 0.000000
0.623377 1.000000 0.000000
0.610390 1.000000 0.000000
0.597403 1.000000 0.000000
0.584416 1.000000 0.000000
0.571429 1.000000 0.000000
0.558442 1.000000 0.000000
0.545455 1.000000 0.000000
0.532468 1.000000 0.000000
0.519481 1.000000 0.000000
0.506494 1.000000 0.000000
0.493506 1.000000 0.000000
0.480519 1.000000 0.000000
0.467532 1.000000 0.000000
0.454545 1.000000 0.000000
0.441558 1.000000 0.000000
0.428571 1.000000 0.000000
0.415584 1.000000 0.000000
0.402597 1.000000 0.000000
0.389610 1.000000 0.000000
0.376623 1.000000 0.000000
0.363636 1.000000 0.000000
0.350649 1.000000 0.000000
0.337662 1.000000 0.000000
0.324675 1.000000 0.000000
0.311688 1.000000 0.000000
0.298701 1.000000 0.000000
0.285714 1.000000 0.000000
0.272727 1.000000 0.000000
0.259740 1.000000 0.000000
0.246753 1.000000 0.000000
0.233766 1.000000 0.000000
0.220779 1.000000 0.000000
0.207792 1.000000 0.000000
0.194805 1.000000 0.000000
0.181818 1.000000 0.000000
0.168831 1.000000 0.000000
0.155844 1.000000 0.000000
0.142857 1.000000 0.000000
0.129870 1.000000 0.000000
0.116883 1.000000 0.000000
0.103896 1.000000 0.000000
0.090909 1.000000 0.000000
0.077922 1.000000 0.000000
0.064935 1.000000 0.000000
0.051948 1.000000 0.000000
0.038961 1.000000 0.000000
0.025974 1.000000 0.000000
0.012987 1.000000 0.000000
0.000000 0.987097 0.000000
0.000000 0.974194 0.000000
0.000000 0.961290 0.000000
0.000000 0.948387 0.000000
0.000000 0.935484 0.000000
0.000000 0.922581 0.000000
0.000000 0.909677 0.000000
0.000000 0.896774 0.000000
0.000000 0.883871 0.000000
0.000000 0.870968 0.000000
0.000000 0.858065 0.000000
0.000000 0.845161 0.000000
0.000000 0.832258 0.000000
0.000000 0.819355 0.000000
0.000000 0.806452 0.000000
0.000000 0.793548 0.000000
0.000000 0.780645 0.000000
0.000000 0.767742 0.000000
0.000000 0.754839 0.000000
0.000000 0.741935 0.000000
0.000000 0.729032 0.000000
0.000000 0.716129 0.000000
0.000000 0.703226 0.000000
0.000000 0.690323 0.000000
0.000000 0.677419 0.000000
0.000000 0.664516 0.000000
0.000000 0.651613 0.000000
0.000000 0.638710 0.000000
0.000000 0.625806 0.000000
0.000000 0.612903 0.000000
0.000000 0.600000 0.000000
0.000000 0.587097 0.000000
0.000000 0.574194 0.000000
0.000000 0.561290 0.000000
0.000000 0.548387 0.000000
0.000000 0.535484 0.000000
0.000000 0.522581 0.000000
0.000000 0.509677 0.000000
0.000000 0.496774 0.000000
0.000000 0.483871 0.000000
0.000000 0.470968 0.000000
0.000000 0.458065 0.000000
0.000000 0.445161 0.000000
0.000000 0.432258 0.000000
0.000000 0.419355 0.000000
0.000000 0.406452 0.000000
0.000000 0.393548 0.000000
0.000000 0.380645 0.000000
0.000000 0.367742 0.000000
0.000000 0.354839 0.000000
0.000000 0.341935 0.000000
0.000000 0.329032 0.000000
0.000000 0.316129 0.000000
0.000000 0.303226 0.000000
0.000000 0.290323 0.000000
0.000000 0.277419 0.000000
0.000000 0.264516 0.000000
0.000000 0.251613 0.000000
0.000000 0.238710 0.000000
0.000000 0.225806 0.000000
0.000000 0.212903 0.000000
0.000000 0.187500 0.000000
0.000000 0.175000 0.000000
0.000000 0.162500 0.000000
0.000000 0.150000 0.000000
0.000000 0.137500 0.000000
0.000000 0.125000 0.000000
0.000000 0.112500 0.000000
0.000000 0.100000 0.000000
0.000000 0.087500 0.000000
0.000000 0.075000 0.000000
0.000000 0.062500 0.000000
0.000000 0.050000 0.000000
0.000000 0.037500 0.000000
0.000000 0.025000 0.000000
0.000000 0.012500 0.000000
0.309756 0.338537 0.000000
0.319512 0.347073 0.000000
0.329268 0.355610 0.000000
0.339024 0.364146 0.000000
0.348780 0.372683 0.000000
0.358537 0.381220 0.000000
0.368293 0.389756 0.000000
0.378049 0.398293 0.000000
0.387805 0.406829 0.000000
0.397561 0.415366 0.000000
0.407317 0.423902 0.000000
0.417073 0.432439 0.000000
0.426829 0.440976 0.000000
0.436585 0.449512 0.000000
0.446341 0.458049 0.000000
0.456098 0.466585 0.000000
0.465854 0.475122 0.000000
0.475610 0.483659 0.000000
0.485366 0.492195 0.000000
0.495122 0.500732 0.000000
0.504878 0.509268 0.000000
0.514634 0.517805 0.000000
0.524390 0.526341 0.000000
0.534146 0.534878 0.000000
0.543902 0.543415 0.000000
0.553659 0.551951 0.000000
0.563415 0.560488 0.000000
0.573171 0.569024 0.000000
0.582927 0.577561 0.000000
0.592683 0.586098 0.000000
0.602439 0.594634 0.000000
0.612195 0.603171 0.000000
0.621951 0.611707 0.000000
0.631707 0.620244 0.000000
0.641463 0.628780 0.000000
0.651220 0.637317 0.000000
0.660976 0.645854 0.000000
0.670732 0.654390 0.000000
0.680488 0.662927 0.000000
0.690244 0.671463 0.000000
0.011538 0.205000 0.000000
0.023077 0.210000 0.000000
0.034615 0.215000 0.000000
0.046154 0.220000 0.000000
0.057692 0.225000 0.000000
0.069231 0.230000 0.000000
0.080769 0.235000 0.000000
0.092308 0.240000 0.000000
0.103846 0.245000 0.000000
0.115385 0.250000 0.000000
0.126923 0.255000 0.000000
0.138462 0.260000 0.000000
0.150000 0.265000 0.000000
0.161538 0.270000 0.000000
0.173077 0.275000 0.000000
[...]
POINT_DATA 7607
SCALARS UX float 1
LOOKUP_TABLE default
0.001614
0.001201
0.021803
0.004983
-0.031133
-0.022098
-0.032095
0.010446
-0.000087
-0.000068
-0.000674
0.000404
0.003947
-0.000200
-0.000052
0.003926
0.000110
0.000148
-0.000057
0.000045
-0.000009
-0.000000
-0.000027
0.000048
-0.000037
0.000157
0.000025
-0.000258
-0.000004
-0.000030
-0.000136
-0.002826
0.000055
-0.000040
0.000007
-0.000140
0.000096
0.000091
0.000965
0.000036
0.000667
-0.000535
-0.000047
0.002010
0.000057
0.000328
-0.001415
-0.000015
-0.000053
0.000013
0.000032
-0.001452
-0.000056
-0.000542
-0.000011
0.000088
-0.000049
-0.000018
-0.000005
-0.000099
-0.000146
0.000043
-0.000047
0.000169
0.002806
0.000020
-0.003495
0.000113
0.001071
-0.000105
-0.000208
-0.000267
-0.002915
-0.000689
0.002466
0.001134
-0.002589
-0.000112
-0.000267
0.000561
0.000147
0.000002
-0.000037
-0.005339
-0.001074
0.006914
0.002821
0.004261
0.003270
0.003509
0.003732
0.006770
0.013774
0.015272
0.012809
0.016710
0.010505
0.023449
0.012489
0.013063
0.021650
0.021977
0.021951
0.026969
0.023357
0.027356
0.030803
0.022049
0.029369
0.034164
0.028372
0.039340
0.035338
0.035884
0.037228
0.033693
0.041785
0.038051
0.044655
0.035790
0.041425
0.044182
0.039961
0.040210
0.047401
0.040485
0.044438
0.045702
0.038029
0.045117
0.045597
0.038014
0.045595
0.034395
0.037643
0.034954
0.039749
0.034183
0.037967
0.032915
0.031373
0.033894
0.031769
0.030584
0.030306
0.023421
0.025811
0.014681
0.016123
0.003983
0.016947
0.012635
0.012057
0.014990
0.011269
0.008006
0.008787
0.015758
0.004996
0.008862
0.012048
0.007618
0.007328
0.002552
0.004670
0.003308
0.004274
0.000629
0.001645
0.000654
0.001267
-0.000857
0.000971
0.000996
-0.001586
-0.003055
0.000289
-0.005542
-0.005604
-0.004095
-0.003525
-0.004763
-0.002623
-0.004749
-0.005775
-0.005743
-0.005996
-0.005652
-0.006911
-0.007057
-0.006634
-0.009233
-0.007857
-0.010582
-0.008900
-0.009968
-0.008293
-0.009341
-0.010416
-0.009543
-0.009081
-0.011310
-0.012401
-0.010444
-0.010063
-0.014037
-0.011738
-0.014303
-0.011388
-0.016342
-0.016467
-0.018130
-0.018801
-0.019007
-0.018023
-0.022029
-0.019035
-0.022584
-0.025179
-0.019029
-0.027519
-0.024395
-0.024833
-0.023748
-0.027846
-0.030748
-0.027509
-0.031182
-0.032317
-0.030074
-0.031840
-0.032256
-0.035459
-0.034645
-0.034890
-0.034778
-0.037581
-0.037132
-0.037191
-0.031065
-0.034243
-0.028644
-0.033148
-0.033114
-0.037313
-0.035124
-0.034239
-0.046945
-0.038644
-0.040278
-0.037684
-0.040026
-0.045348
-0.043026
-0.041334
-0.038320
-0.044110
-0.044810
-0.043931
-0.042393
-0.048805
-0.043704
-0.043466
-0.051449
-0.047961
-0.048426
-0.038096
-0.036025
-0.041896
-0.048333
-0.048273
-0.051444
-0.047130
-0.052489
-0.051261
-0.057540
-0.049420
-0.053426
-0.049811
-0.052268
-0.052457
-0.051109
-0.052682
-0.057701
-0.048344
-0.053295
-0.048181
-0.049473
-0.046765
-0.049305
-0.042684
-0.041932
-0.036852
-0.041875
-0.033924
-0.031756
-0.034195
-0.030573
-0.019457
-0.021318
-0.020577
-0.003170
-0.016870
-0.011793
-0.010241
-0.009103
-0.008941
-0.005616
-0.008286
-0.007177
-0.004644
-0.002536
-0.017166
-0.018804
-0.033419
-0.069483
-0.057952
-0.039439
-0.043210
-0.022844
-0.042023
-0.044926
-0.041887
-0.003981
0.036588
0.003803
-0.017277
0.013873
0.029610
-0.004918
-0.022613
-0.030768
-0.005679
-0.015826
-0.059155
0.017023
0.002154
-0.018918
-0.008802
-0.001894
-0.002161
0.025547
0.057419
0.034007
0.014698
0.052496
0.045264
0.067455
0.021598
0.015059
-0.017041
-0.005717
-0.022867
-0.035413
-0.019919
-0.031863
-0.031805
-0.040757
-0.037118
-0.024107
-0.036444
-0.016357
-0.033680
-0.022318
-0.036289
-0.028030
-0.025478
-0.051204
-0.027407
-0.027437
-0.033112
-0.043189
-0.032556
-0.034341
-0.042195
-0.032265
-0.032342
0.022266
0.028971
0.024859
0.037519
0.027711
0.023676
0.027070
0.009850
0.030415
0.017354
0.026424
0.015091
0.021209
0.028317
0.017205
0.017987
0.020443
0.026934
0.020740
0.025320
0.022704
0.026983
0.031224
0.012604
0.001084
-0.003767
-0.005263
-0.003001
0.027448
0.022499
0.021223
-0.038621
-0.047202
-0.039523
-0.037692
-0.035791
-0.030662
-0.004513
0.003143
0.006194
-0.040715
-0.026122
-0.027958
-0.040374
0.015970
0.003478
0.011795
0.005022
-0.020207
-0.011479
-0.024479
-0.015025
0.001350
-0.002932
-0.028286
-0.030665
-0.061089
-0.047554
-0.023300
-0.016168
0.005875
0.001617
-0.002339
-0.001977
-0.027583
-0.027238
-0.032743
-0.034873
0.011581
0.014521
0.016416
0.017709
0.035308
0.030199
0.037185
0.003555
-0.001273
0.031917
0.017593
0.006425
0.023174
-0.009101
-0.005444
-0.001855
-0.020005
-0.036299
-0.001528
0.006863
0.013099
0.007408
-0.011921
-0.017402
-0.011382
-0.003160
-0.028011
-0.029377
-0.008035
0.004804
0.022701
-0.001622
-0.005224
-0.005933
-0.014432
-0.012871
-0.015073
-0.011058
-0.007155
-0.007156
0.000747
0.012693
0.015604
0.001879
0.010856
0.002563
-0.004476
-0.008409
-0.017698
-0.007742
-0.006305
-0.009381
0.022570
0.035270
0.036359
-0.048470
-0.037177
-0.029024
0.005860
0.007651
0.000854
0.009444
-0.012295
0.003990
-0.027411
0.001790
-0.008538
0.005805
0.002209
0.002937
0.025689
0.020491
-0.007164
-0.002034
-0.000685
0.007883
0.010630
0.008222
0.009751
0.007689
0.001305
0.007355
0.015272
0.023476
0.034326
0.024634
-0.003634
0.006666
-0.009650
0.002486
0.000147
-0.004061
-0.047155
-0.040347
-0.040590
-0.052732
-0.004431
-0.018979
-0.013038
-0.009086
0.005468
-0.001436
-0.001167
0.000239
0.023949
-0.004169
-0.002547
-0.001788
0.000727
-0.052675
-0.041061
-0.052476
-0.005084
-0.003846
-0.000309
-0.041563
-0.029865
-0.030569
-0.006336
0.005184
0.003665
-0.000679
-0.043738
-0.041644
-0.033186
-0.029550
-0.025080
-0.031277
-0.039756
0.040935
0.033997
0.035622
0.037421
0.036177
0.028135
0.033426
0.016052
0.021040
0.017064
-0.012350
-0.007185
-0.001761
-0.008917
-0.007015
-0.006065
-0.003300
-0.007771
-0.004253
-0.001980
0.005037
0.015458
0.001340
-0.014860
-0.006172
-0.012748
-0.018668
-0.029634
-0.032824
-0.033242
-0.023673
0.021810
0.030674
0.019377
0.017216
0.018150
0.016449
0.025708
0.038386
0.036756
0.031907
0.004179
0.063640
-0.045783
-0.040973
-0.043264
0.011496
0.006259
0.008666
0.011834
0.031001
0.035697
0.037033
0.041865
0.026776
0.028451
0.016820
-0.009566
-0.008486
-0.044791
-0.034946
-0.028326
-0.016068
-0.027056
-0.020345
-0.026416
0.000097
-0.008484
0.004804
-0.030261
-0.018891
-0.011598
-0.001570
0.011462
-0.007807
0.032719
0.028898
0.039991
-0.002473
-0.006084
-0.006714
-0.007428
-0.009302
-0.030587
-0.035341
-0.003017
-0.007796
-0.000447
0.005885
0.002808
0.000007
-0.007336
-0.000376
0.005937
0.011360
0.010209
-0.030383
-0.035942
-0.024663
-0.010665
-0.009646
0.037796
0.035712
0.005168
0.032657
0.018837
0.031532
0.009397
-0.003781
-0.000649
0.006896
-0.040293
-0.047427
-0.054838
-0.041516
-0.052435
-0.039328
-0.056761
-0.032523
0.022829
0.003636
0.016137
0.027938
-0.052157
-0.048615
-0.043891
-0.039187
0.021588
0.041423
0.039138
0.032108
0.023761
0.003185
0.006463
0.005875
0.021369
0.009514
0.006696
-0.000604
0.036717
0.003240
-0.041647
-0.052837
-0.036345
-0.006561
0.005231
-0.005792
-0.021151
-0.026536
-0.017112
-0.006343
-0.006479
0.003358
0.036585
0.016837
0.000998
0.018716
0.005566
0.004027
0.013494
0.000009
-0.039703
-0.048399
-0.024081
0.009735
0.012564
0.002147
0.009950
0.008413
0.007914
-0.027022
-0.036315
-0.035483
-0.002724
-0.001642
-0.028441
-0.008879
-0.018281
0.033429
0.017093
-0.004776
0.012492
0.011473
0.013743
-0.036511
-0.053213
-0.039768
-0.052603
-0.057156
-0.040249
-0.011911
0.009592
-0.004166
-0.007887
0.043735
0.023091
0.030177
0.031778
0.004929
0.013078
0.017941
0.016332
0.017984
0.018448
-0.017031
-0.017755
0.000104
0.006165
0.002757
0.004608
0.002325
-0.011872
0.002039
-0.005268
-0.054438
-0.034471
-0.003587
-0.011765
-0.040120
-0.049552
-0.062544
0.010568
0.006005
0.008510
-0.012835
-0.011788
-0.005835
0.006581
0.006985
0.004882
0.012721
0.013220
0.004038
-0.002750
-0.021621
-0.029410
-0.028071
0.041728
0.026364
0.002070
-0.016062
-0.011830
0.003945
-0.007845
0.005726
-0.009176
-0.008210
-0.009221
0.010434
0.013447
0.015277
0.004317
0.002652
-0.017552
-0.001405
-0.001981
-0.010514
-0.007178
-0.007335
0.012522
-0.044303
-0.023429
-0.042328
0.055095
0.015452
0.008830
-0.034956
-0.032869
0.032917
0.032311
-0.024645
-0.020478
-0.024770
-0.001559
0.008083
-0.002530
-0.011304
-0.000250
-0.000436
-0.009162
-0.023219
-0.021726
-0.038663
-0.041239
-0.019720
0.031165
0.037272
-0.044969
-0.042393
-0.042399
0.006147
0.005111
0.008974
0.007025
0.008639
0.007149
0.003280
0.006020
0.001392
-0.037683
-0.027816
-0.028947
-0.024835
-0.026750
-0.022547
-0.047397
-0.032826
-0.054277
-0.035807
0.000443
-0.002217
-0.001161
-0.000711
-0.008909
-0.005227
-0.002750
-0.038643
-0.039214
-0.038439
0.003129
0.016126
0.012688
0.006411
-0.046064
-0.044020
-0.040779
-0.034616
-0.036034
-0.042184
0.032746
0.046622
-0.050053
0.010559
-0.003069
-0.029734
0.020336
-0.009469
0.044954
-0.037195
-0.026116
-0.006827
-0.042392
-0.039784
0.011688
0.001441
-0.000511
-0.017104
-0.011865
-0.002693
0.000013
-0.005348
0.029891
0.044600
0.036912
0.032398
0.040720
0.041257
-0.016460
-0.017747
-0.016696
-0.014950
0.011501
0.006413
0.011934
-0.015721
-0.002428
0.015939
0.009200
0.030435
0.027711
-0.043557
-0.038404
-0.036352
-0.034539
-0.002842
-0.023222
-0.015634
-0.010905
0.029196
0.037508
0.027710
0.036196
0.027672
-0.001792
0.002978
0.001464
0.012059
-0.039341
-0.038458
-0.046193
-0.037911
-0.032079
-0.015859
-0.001622
-0.009162
-0.004224
-0.003627
0.007901
0.000875
0.005075
0.004081
0.000083
0.000094
0.001283
0.029630
0.021999
0.028076
0.012134
0.012212
0.005588
0.006427
0.002209
0.009113
-0.039652
0.016097
0.019136
0.000551
-0.004495
-0.010861
-0.009502
-0.035456
-0.037999
-0.052981
-0.044563
-0.044183
-0.047635
-0.036433
-0.022592
-0.026636
-0.024596
-0.049064
0.058827
0.031554
0.018000
0.018992
0.017196
-0.005790
-0.005789
0.019005
-0.032592
-0.028254
-0.035317
-0.003447
-0.005642
-0.025641
-0.026475
-0.030640
-0.041212
-0.002887
-0.004586
-0.008678
-0.047727
-0.001412
-0.003132
-0.040679
-0.038065
0.019171
0.015189
0.018413
0.016080
0.002293
0.004101
-0.001095
-0.000111
-0.035160
-0.051460
-0.049665
-0.023937
-0.022158
-0.024374
-0.014366
-0.003258
-0.004202
-0.009029
-0.009404
0.033418
0.030032
0.028372
0.004378
0.024418
0.033069
0.000864
0.020627
0.009561
0.006693
0.001059
-0.000228
-0.000959
-0.039245
-0.037430
-0.037165
-0.005665
-0.009183
-0.017249
-0.007845
0.040641
0.024933
-0.012529
-0.012132
-0.035537
-0.036239
-0.034684
-0.028374
-0.039728
-0.030453
-0.038192
-0.035460
-0.035333
0.009542
-0.018693
-0.011654
-0.000177
-0.008928
0.037024
-0.004942
0.035678
0.034700
-0.009481
-0.003934
-0.001784
0.007219
0.011413
0.010369
-0.005114
-0.033295
-0.045102
-0.005415
-0.000324
-0.000199
-0.026039
-0.016823
-0.014295
-0.009914
-0.007986
0.007026
0.007107
0.015701
-0.007043
0.000772
-0.041367
-0.005515
0.006476
-0.016995
-0.028000
-0.026322
-0.049866
0.012534
0.000388
-0.005696
-0.045571
0.012041
0.017432
-0.012342
-0.063718
-0.046266
-0.057072
0.018323
-0.017664
-0.002388
-0.000153
-0.002584
-0.012122
-0.000537
0.005849
0.008806
-0.005095
-0.001210
-0.004431
0.008273
0.003120
0.020079
0.025035
0.007674
0.016918
0.026319
0.006780
0.003606
-0.000981
0.006332
-0.024343
0.004603
0.005907
0.006891
-0.015115
-0.002377
-0.036342
-0.025479
-0.032292
-0.038224
-0.036068
-0.036372
-0.034028
-0.006130
-0.003120
-0.000119
0.007413
0.008843
0.023481
0.031593
0.030911
0.024038
-0.039718
0.011427
-0.004486
0.004004
-0.002705
-0.028955
0.022496
0.014968
0.025451
0.000017
-0.040233
0.001725
0.004703
0.002186
0.007408
0.003469
0.014673
0.003190
0.003114
0.005005
-0.001733
-0.001426
-0.002131
-0.001561
0.040284
0.044161
0.041500
0.038918
-0.031870
-0.038870
-0.026589
-0.010978
-0.007868
0.012881
0.009854
0.017103
0.002199
0.006017
-0.004757
0.019562
-0.003184
-0.039373
0.026631
0.021855
0.035370
-0.051863
-0.037020
-0.042827
-0.030946
-0.035681
0.001295
0.033562
0.035448
0.028267
0.030289
0.027444
-0.002866
-0.003783
-0.018993
0.004339
0.004291
-0.023481
0.012389
0.013777
-0.010702
-0.007026
-0.009731
-0.030020
-0.032601
-0.006098
-0.019361
-0.019583
-0.014394
-0.021075
0.040265
0.034761
0.044366
0.048453
-0.043656
-0.003447
-0.039333
-0.037268
-0.043581
0.010964
0.020304
0.022350
0.031824
0.030145
0.035868
-0.006348
-0.007258
-0.006686
-0.041064
0.014410
-0.044167
-0.033422
-0.025106
-0.045448
-0.043800
-0.051375
-0.032829
-0.053246
0.002677
-0.006960
-0.043008
0.029269
-0.007772
-0.003606
-0.006182
-0.011605
-0.007531
-0.006804
-0.013930
-0.006619
0.006148
0.005759
0.008329
0.017659
-0.009529
-0.004412
-0.005471
0.010299
0.003737
0.007207
0.031463
0.026826
0.032185
-0.002030
-0.005412
-0.029153
-0.027019
-0.029766
-0.025703
-0.047881
-0.053436
-0.053138
-0.025780
-0.031896
-0.020596
0.013273
0.017663
0.010998
-0.037798
-0.032836
-0.039037
-0.014130
-0.005742
-0.022932
-0.004246
0.004948
0.008240
-0.006412
0.038802
0.037116
0.031935
0.035121
0.004699
0.004182
-0.005352
-0.001946
-0.005071
0.014281
-0.000373
-0.001320
-0.029707
0.004705
-0.007215
-0.010165
-0.000165
-0.020565
-0.015427
-0.034245
-0.027807
-0.063410
-0.026824
-0.037154
-0.039163
-0.001836
0.000802
0.006838
-0.048003
-0.046022
-0.041157
-0.046541
0.003366
0.027285
0.022366
-0.003169
0.006174
0.021183
-0.001360
0.037778
0.039584
-0.001564
-0.011496
-0.024560
-0.031559
-0.004323
-0.008961
-0.004908
-0.006916
-0.004720
-0.008601
0.027608
0.066222
0.035080
-0.028701
-0.033328
-0.038529
-0.041738
-0.007216
-0.028172
-0.034480
-0.038512
-0.048233
-0.005890
-0.028348
-0.028506
-0.037824
-0.035407
0.002013
0.008133
0.007538
-0.006405
-0.006764
-0.001332
0.007848
0.010660
-0.001744
-0.006202
-0.006828
-0.004391
-0.005110
0.006147
0.009595
-0.030791
-0.037686
-0.047167
-0.030456
0.032655
0.035034
0.036275
0.030087
0.006978
0.003704
-0.017620
-0.015126
-0.015577
0.003301
0.000249
-0.000644
-0.044248
-0.043834
-0.008262
-0.004505
0.003472
0.015673
-0.003314
-0.006350
0.004397
-0.006201
-0.001521
0.000144
-0.005098
-0.032676
-0.034439
-0.045059
0.000333
0.001427
-0.021892
-0.021024
-0.021295
-0.041076
-0.042867
-0.035447
-0.033225
0.003507
0.001935
-0.004692
-0.021986
-0.026583
-0.038149
0.026023
0.026020
0.026360
0.030098
-0.017997
-0.036301
-0.036149
-0.036220
0.034192
0.032120
0.038757
-0.034640
0.033086
-0.015899
0.002905
0.018636
0.017093
0.015801
0.032544
-0.029446
-0.033333
-0.029495
0.000537
0.001034
0.007009
0.037519
0.042689
0.007982
-0.024321
-0.016409
0.032797
0.032351
0.040770
-0.002649
-0.022656
-0.018162
-0.037335
0.026720
-0.004953
0.029872
0.029610
0.017646
0.000425
-0.005098
-0.002414
-0.002705
-0.005706
-0.007106
0.011712
0.029470
-0.047283
-0.046829
-0.040734
-0.034071
-0.004991
-0.044895
-0.042817
-0.042749
-0.040296
-0.039561
0.029482
0.010475
0.000924
0.006396
0.008470
-0.004059
0.006411
0.000770
0.008992
0.002729
0.000352
-0.001443
-0.022951
-0.023658
-0.030919
0.000095
-0.031287
-0.036458
-0.001294
0.026603
0.024348
0.042204
-0.045206
0.043238
0.029897
0.023623
-0.031925
-0.030511
-0.031191
0.004495
0.000926
0.001491
-0.054347
0.001005
-0.033869
0.000375
-0.010896
-0.011698
-0.015461
-0.052604
-0.051364
-0.049077
-0.038878
-0.037909
-0.001938
0.023320
0.002909
-0.038327
0.029240
0.032852
0.022846
-0.011548
-0.009713
-0.007578
-0.008735
-0.013113
-0.008845
-0.009716
0.030163
0.001819
-0.032801
-0.029659
0.008217
-0.003730
-0.001591
-0.035445
-0.034064
-0.032228
0.008107
0.008132
0.004921
-0.001812
-0.001992
-0.006455
-0.003910
0.007939
0.001490
-0.002599
-0.000651
0.010770
0.002798
0.000084
0.003517
0.005427
0.001680
-0.040636
-0.043813
-0.042512
-0.037601
0.003908
0.002458
0.004304
-0.007926
-0.009302
-0.003136
-0.003642
-0.010382
-0.017283
-0.027832
-0.050747
-0.047643
0.037874
-0.010188
-0.012314
0.031495
0.033014
0.017255
-0.053092
0.035846
-0.004825
-0.008500
-0.006928
-0.003332
-0.024203
-0.031753
-0.023250
-0.017859
-0.024674
-0.004555
-0.027835
-0.032412
-0.008315
-0.014861
-0.002393
-0.023904
-0.000319
-0.044666
-0.001503
0.042678
0.037593
0.044850
0.008071
-0.003918
-0.006123
-0.026724
-0.002991
-0.001005
0.000693
0.005574
-0.005202
0.005248
0.004440
-0.013730
-0.008987
0.000311
-0.001111
0.026233
0.030706
0.045848
-0.031869
-0.056425
-0.048280
0.048228
-0.044838
-0.044531
-0.051464
-0.025186
-0.042789
-0.061644
-0.049900
-0.062673
-0.007395
-0.004638
-0.004966
0.034276
-0.003644
-0.000484
-0.004526
0.004397
-0.004968
0.002619
-0.010929
-0.010859
-0.014227
0.010902
0.003883
-0.034813
-0.048187
-0.044730
-0.031696
-0.034670
-0.036397
0.001198
0.008986
-0.003658
-0.037364
-0.035693
-0.034584
0.025908
0.019559
-0.008348
-0.003514
0.005131
-0.039470
-0.037008
-0.000539
-0.000998
-0.003323
-0.013963
-0.006265
0.000085
-0.002299
-0.046878
0.006509
0.011417
-0.042336
0.019465
0.023647
0.014728
0.015816
-0.042570
-0.059005
-0.028430
0.000904
-0.004967
-0.002098
-0.000648
0.002431
0.012950
0.019993
0.006089
0.009235
0.018514
0.009485
-0.006522
0.000307
-0.007001
-0.006461
-0.003883
-0.000096
-0.034728
-0.002008
-0.001641
-0.002650
-0.001377
-0.001224
0.033474
0.038730
0.025921
0.032312
0.032370
0.033686
0.027978
-0.007498
0.003859
-0.002242
0.024264
0.000687
-0.007239
-0.007084
-0.009463
-0.001893
-0.006734
-0.014946
-0.016418
-0.018598
0.034314
-0.009741
-0.022995
-0.013475
-0.022542
0.023121
0.015609
0.011575
-0.001682
0.004443
0.027304
0.049611
0.033985
0.018596
0.021096
0.025029
0.025153
0.018250
0.016998
0.037887
0.037934
-0.010303
-0.003195
0.030772
0.014280
0.052696
0.039524
0.018722
0.043058
0.043599
0.049613
-0.016829
0.001891
-0.002571
0.002044
0.006324
-0.006748
0.015637
0.025301
0.027945
0.018097
0.028323
0.038614
0.044018
0.039181
-0.002702
-0.002405
0.003275
-0.002362
-0.005360
0.004588
-0.005870
0.006282
0.000413
-0.006767
0.003512
-0.001581
0.043184
0.037145
0.045389
0.030213
0.019601
0.017039
0.000573
-0.006502
-0.032392
-0.032337
-0.010235
-0.018403
-0.001829
-0.006999
-0.037196
-0.034280
-0.032244
-0.039625
-0.005854
-0.009082
-0.007322
-0.003599
0.005424
0.007005
-0.006884
-0.002624
-0.003317
0.002568
0.001392
0.006810
0.035799
0.036878
0.038077
0.038772
0.022216
0.006666
0.006008
0.000051
0.046586
0.040721
0.040527
-0.009710
-0.008682
-0.005494
-0.013711
-0.024091
-0.020699
-0.017574
-0.018143
-0.027181
-0.023826
-0.002688
-0.000599
-0.007296
0.000998
0.044292
-0.005572
0.005610
0.000877
-0.004363
0.019059
-0.031602
0.002791
-0.001886
-0.000053
0.001466
-0.000271
-0.001413
0.001931
-0.002346
-0.011505
-0.008149
-0.010240
0.000717
-0.031577
-0.009515
-0.005542
-0.008057
0.002876
0.002269
-0.001701
-0.003914
0.001194
-0.005938
0.001680
-0.006551
-0.028616
-0.014422
-0.025405
-0.029279
-0.013990
-0.006124
-0.003286
-0.010073
-0.009249
-0.009654
0.001355
-0.002869
-0.007790
-0.005848
-0.007603
-0.004091
-0.012627
-0.028474
-0.027996
-0.021976
-0.035401
-0.030120
-0.028976
-0.039039
-0.010880
-0.004454
-0.004944
-0.004542
0.002478
0.049438
0.027504
0.035127
0.035834
0.002119
0.003837
0.000052
-0.003903
-0.002556
-0.002701
-0.007378
0.012097
-0.017414
-0.025987
-0.027124
0.000569
0.010374
-0.002831
0.006109
-0.003910
-0.000405
-0.009437
-0.002867
-0.003896
-0.043348
-0.036236
0.024820
0.014771
0.031354
0.028625
-0.004735
-0.002317
-0.001628
-0.007265
-0.038986
-0.003949
0.000059
-0.005574
0.026077
0.023017
0.023470
-0.019461
-0.005840
-0.020985
-0.027376
-0.006181
-0.000583
0.003039
-0.000097
-0.004983
-0.002723
-0.003447
-0.008403
-0.018876
0.000441
0.022281
0.024340
0.028166
0.023058
0.025649
-0.001477
0.001236
0.000321
-0.004299
-0.016225
-0.011408
-0.005898
-0.007814
-0.011360
-0.005431
-0.002980
-0.001056
0.002125
-0.007535
0.001751
-0.004011
-0.002167
-0.038369
0.025645
0.027020
0.029466
-0.002217
-0.002083
-0.036428
-0.034699
-0.016347
-0.018942
-0.048308
-0.050581
-0.049864
-0.047696
0.032056
0.035192
-0.009362
0.000196
-0.003291
0.022199
-0.012183
-0.003962
0.024730
0.027895
-0.018622
-0.018602
0.000762
-0.043351
-0.040486
-0.044728
-0.049290
-0.033185
-0.058793
-0.048122
-0.032090
0.003298
-0.007267
-0.004413
-0.021196
0.000415
-0.000485
-0.021120
-0.062845
-0.000169
-0.007323
0.003498
0.000766
-0.005010
-0.000788
-0.008500
-0.014330
-0.007247
-0.006842
-0.002563
-0.004502
-0.009360
0.003140
0.003209