# vtk DataFile Version 2.0
Test
ASCII
DATASET POLYDATA
POINTS 7607 float
0.000000 0.000000 0.000000
1.000000 0.000000 0.000000
1.000000 0.800000 0.000000
1.000000 1.000000 0.000000
0.000000 1.000000 0.000000
0.000000 0.200000 0.000000
0.300000 0.330000 0.000000
0.700000 0.680000 0.000000
0.012987 0.000000 0.000000
0.025974 0.000000 0.000000
0.038961 0.000000 0.000000
0.051948 0.000000 0.000000
0.064935 0.000000 0.000000
0.077922 0.000000 0.000000
0.090909 0.000000 0.000000
0.103896 0.000000 0.000000
0.116883 0.000000 0.000000
0.129870 0.000000 0.000000
0.142857 0.000000 0.000000
0.155844 0.000000 0.000000
0.168831 0.000000 0.000000
0.181818 0.000000 0.000000
0.194805 0.000000 0.000000
0.207792 0.000000 0.000000
0.220779 0.000000 0.000000
0.233766 0.000000 0.000000
0.246753 0.000000 0.000000
0.259740 0.000000 0.000000
0.272727 0.000000 0.000000
0.285714 0.000000 0.000000
0.298701 0.000000 0.000000
0.311688 0.000000 0.000000
0.324675 0.000000 0.000000
0.337662 0.000000 0.000000
0.350649 0.000000 0.000000
0.363636 0.000000 0.000000
0.376623 0.000000 0.000000
0.389610 0.000000 0.000000
0.402597 0.000000 0.000000
0.415584 0.000000 0.000000
0.428571 0.000000 0.000000
0.441558 0.000000 0.000000
0.454545 0.000000 0.000000
0.467532 0.000000 0.000000
0.480519 0.000000 0.000000
0.493506 0.000000 0.000000
0.506494 0.000000 0.000000
0.519481 0.000000 0.000000
0.532468 0.000000 0.000000
0.545455 0.000000 0.000000
0.558442 0.000000 0.000000
0.571429 0.000000 0.000000
0.584416 0.000000 0.000000
0.597403 0.000000 0.000000
0.610390 0.000000 0.000000
0.623377 0.000000 0.000000
0.636364 0.000000 0.000000
0.649351 0.000000 0.000000
0.662338 0.000000 0.000000
0.675325 0.000000 0.000000
0.688312 0.000000 0.000000
0.701299 0.000000 0.000000
0.714286 0.000000 0.000000
0.727273 0.000000 0.000000
0.740260 0.000000 0.000000
0.753247 0.000000 0.000000
0.766234 0.000000 0.000000
0.779221 0.000000 0.000000
0.792208 0.000000 0.000000
0.805195 0.000000 0.000000
0.818182 0.000000 0.000000
0.831169 0.000000 0.000000
0.844156 0.000000 0.000000
0.857143 0.000000 0.000000
0.870130 0.000000 0.000000
0.883117 0.000000 0.000000
0.896104 0.000000 0.000000
0.909091 0.000000 0.000000
0.922078 0.000000 0.000000
0.935065 0.000000 0.000000
0.948052 0.000000 0.000000
0.961039 0.000000 0.000000
0.974026 0.000000 0.000000
0.987013 0.000000 0.000000
1.000000 0.012903 0.000000
1.000000 0.025806 0.000000
1.000000 0.038710 0.000000
1.000000 0.051613 0.000000
1.000000 0.064516 0.000000
1.000000 0.077419 0.000000
1.000000 0.090323 0.000000
1.000000 0.103226 0.000000
1.000000 0.116129 0.000000
1.000000 0.129032 0.000000
1.000000 0.141935 0.000000
1.000000 0.154839 0.000000
1.000000 0.167742 0.000000
1.000000 0.180645 0.000000
1.000000 0.193548 0.000000
1.000000 0.206452 0.000000
1.000000 0.219355 0.000000
1.000000 0.232258 0.000000
1.000000 0.245161 0.000000
1.000000 0.258065 0.000000
1.000000 0.270968 0.000000
1.000000 0.283871 0.000000
1.000000 0.296774 0.000000
1.000000 0.309677 0.000000
1.000000 0.322581 0.000000
1.000000 0.335484 0.000000
1.000000 0.348387 0.000000
1.000000 0.361290 0.000000
1.000000 0.374194 0.000000
1.000000 0.387097 0.000000
1.000000 0.400000 0.000000
1.000000 0.412903 0.000000
1.000000 0.425806 0.000000
1.000000 0.438710 0.000000
1.000000 0.451613 0.000000
1.000000 0.464516 0.000000
1.000000 0.477419 0.000000
1.000000 0.490323 0.000000
1.000000 0.503226 0.000000
1.000000 0.516129 0.000000
1.000000 0.529032 0.000000
1.000000 0.541935 0.000000
1.000000 0.554839 0.000000
1.000000 0.567742 0.000000
1.000000 0.580645 0.000000
1.000000 0.593548 0.000000
1.000000 0.606452 0.000000
1.000000 0.619355 0.000000
1.000000 0.632258 0.000000
1.000000 0.645161 0.000000
1.000000 0.658065 0.000000
1.000000 0.670968 0.000000
1.000000 0.683871 0.000000
1.000000 0.696774 0.000000
1.000000 0.709677 0.000000
1.000000 0.722581 0.000000
1.000000 0.735484 0.000000
1.000000 0.748387 0.000000
1.000000 0.761290 0.000000
1.000000 0.774194 0.000000
1.000000 0.787097 0.000000
1.000000 0.812500 0.000000
1.000000 0.825000 0.000000
1.000000 0.837500 0.000000
1.000000 0.850000 0.000000
1.000000 0.862500 0.000000
1.000000 0.875000 0.000000
1.000000 0.887500 0.000000
1.000000 0.900000 0.000000
1.000000 0.912500 0.000000
1.000000 0.925000 0.000000
1.000000 0.937500 0.000000
1.000000 0.950000 0.000000
1.000000 0.962500 0.000000
1.000000 0.975000 0.000000
1.000000 0.987500 0.000000
0.987013 1.000000 0.000000
0.974026 1.000000 0.000000
0.961039 1.000000 0.000000
0.948052 1.000000 0.000000
0.935065 1.000000 0.000000
0.922078 1.000000 0.000000
0.909091 1.000000 0.000000
0.896104 1.000000 0.000000
0.883117 1.000000 0.000000
0.870130 1.000000 0.000000
0.857143 1.000000 0.000000
0.844156 1.000000 0.000000
0.831169 1.000000 0.000000
0.818182 1.000000 0.000000
0.805195 1.000000 0.000000
0.792208 1.000000 0.000000
0.779221 1.000000 0.000000
0.766234 1.000000 0.000000
0.753247 1.000000 0.000000
0.740260 1.000000 0.000000
0.727273 1.000000 0.000000
0.714286 1.000000 0.000000
0.701299 1.000000 0.000000
0.688312 1.000000 0.000000
0.675325 1.000000 0.000000
0.662338 1.000000 0.000000
0.649351 1.000000 0.000000
0.636364 1.000000 0.000000
0.623377 1.000000 0.000000
0.610390 1.000000 0.000000
0.597403 1.000000 0.000000
0.584416 1.000000 0.000000
0.571429 1.000000 0.000000
0.558442 1.000000 0.000000
0.545455 1.000000 0.000000
0.532468 1.000000 0.000000
0.519481 1.000000 0.000000
0.506494 1.000000 0.000000
0.493506 1.000000 0.000000
0.480519 1.000000 0.000000
0.467532 1.000000 0.000000
0.454545 1.000000 0.000000
0.441558 1.000000 0.000000
0.428571 1.000000 0.000000
0.415584 1.000000 0.000000
0.402597 1.000000 0.000000
0.389610 1.000000 0.000000
0.376623 1.000000 0.000000
0.363636 1.000000 0.000000
0.350649 1.000000 0.000000
0.337662 1.000000 0.000000
0.324675 1.000000 0.000000
0.311688 1.000000 0.000000
0.298701 1.000000 0.000000
0.285714 1.000000 0.000000
0.272727 1.000000 0.000000
0.259740 1.000000 0.000000
0.246753 1.000000 0.000000
0.233766 1.000000 0.000000
0.220779 1.000000 0.000000
0.207792 1.000000 0.000000
0.194805 1.000000 0.000000
0.181818 1.000000 0.000000
0.168831 1.000000 0.000000
0.155844 1.000000 0.000000
0.142857 1.000000 0.000000
0.129870 1.000000 0.000000
0.116883 1.000000 0.000000
0.103896 1.000000 0.000000
0.090909 1.000000 0.000000
0.077922 1.000000 0.000000
0.064935 1.000000 0.000000
0.051948 1.000000 0.000000
0.038961 1.000000 0.000000
0.025974 1.000000 0.000000
0.012987 1.000000 0.000000
0.000000 0.987097 0.000000
0.000000 0.974194 0.000000
0.000000 0.961290 0.000000
0.000000 0.948387 0.000000
0.000000 0.935484 0.000000
0.000000 0.922581 0.000000
0.000000 0.909677 0.000000
0.000000 0.896774 0.000000
0.000000 0.883871 0.000000
0.000000 0.870968 0.000000
0.000000 0.858065 0.000000
0.000000 0.845161 0.000000
0.000000 0.832258 0.000000
0.000000 0.819355 0.000000
0.000000 0.806452 0.000000
0.000000 0.793548 0.000000
0.000000 0.780645 0.000000
0.000000 0.767742 0.000000
0.000000 0.754839 0.000000
0.000000 0.741935 0.000000
0.000000 0.729032 0.000000
0.000000 0.716129 0.000000
0.000000 0.703226 0.000000
0.000000 0.690323 0.000000
0.000000 0.677419 0.000000
0.000000 0.664516 0.000000
0.000000 0.651613 0.000000
0.000000 0.638710 0.000000
0.000000 0.625806 0.000000
0.000000 0.612903 0.000000
0.000000 0.600000 0.000000
0.000000 0.587097 0.000000
0.000000 0.574194 0.000000
0.000000 0.561290 0.000000
0.000000 0.548387 0.000000
0.000000 0.535484 0.000000
0.000000 0.522581 0.000000
0.000000 0.509677 0.000000
0.000000 0.496774 0.000000
0.000000 0.483871 0.000000
0.000000 0.470968 0.000000
0.000000 0.458065 0.000000
0.000000 0.445161 0.000000
0.000000 0.432258 0.000000
0.000000 0.419355 0.000000
0.000000 0.406452 0.000000
0.000000 0.393548 0.000000
0.000000 0.380645 0.000000
0.000000 0.367742 0.000000
0.000000 0.354839 0.000000
0.000000 0.341935 0.000000
0.000000 0.329032 0.000000
0.000000 0.316129 0.000000
0.000000 0.303226 0.000000
0.000000 0.290323 0.000000
0.000000 0.277419 0.000000
0.000000 0.264516 0.000000
0.000000 0.251613 0.000000
0.000000 0.238710 0.000000
0.000000 0.225806 0.000000
0.000000 0.212903 0.000000
0.000000 0.187500 0.000000
0.000000 0.175000 0.000000
0.000000 0.162500 0.000000
0.000000 0.150000 0.000000
0.000000 0.137500 0.000000
0.000000 0.125000 0.000000
0.000000 0.112500 0.000000
0.000000 0.100000 0.000000
0.000000 0.087500 0.000000
0.000000 0.075000 0.000000
0.000000 0.062500 0.000000
0.000000 0.050000 0.000000
0.000000 0.037500 0.000000
0.000000 0.025000 0.000000
0.000000 0.012500 0.000000
0.309756 0.338537 0.000000
0.319512 0.347073 0.000000
0.329268 0.355610 0.000000
0.339024 0.364146 0.000000
0.348780 0.372683 0.000000
0.358537 0.381220 0.000000
0.368293 0.389756 0.000000
0.378049 0.398293 0.000000
0.387805 0.406829 0.000000
0.397561 0.415366 0.000000
0.407317 0.423902 0.000000
0.417073 0.432439 0.000000
0.426829 0.440976 0.000000
0.436585 0.449512 0.000000
0.446341 0.458049 0.000000
0.456098 0.466585 0.000000
0.465854 0.475122 0.000000
0.475610 0.483659 0.000000
0.485366 0.492195 0.000000
0.495122 0.500732 0.000000
0.504878 0.509268 0.000000
0.514634 0.517805 0.000000
0.524390 0.526341 0.000000
0.534146 0.534878 0.000000
0.543902 0.543415 0.000000
0.553659 0.551951 0.000000
0.563415 0.560488 0.000000
0.573171 0.569024 0.000000
0.582927 0.577561 0.000000
0.592683 0.586098 0.000000
0.602439 0.594634 0.000000
0.612195 0.603171 0.000000
0.621951 0.611707 0.000000
0.631707 0.620244 0.000000
0.641463 0.628780 0.000000
0.651220 0.637317 0.000000
0.660976 0.645854 0.000000
0.670732 0.654390 0.000000
0.680488 0.662927 0.000000
0.690244 0.671463 0.000000
0.011538 0.205000 0.000000
0.023077 0.210000 0.000000
0.034615 0.215000 0.000000
0.046154 0.220000 0.000000
0.057692 0.225000 0.000000
0.069231 0.230000 0.000000
0.080769 0.235000 0.000000
0.092308 0.240000 0.000000
0.103846 0.245000 0.000000
0.115385 0.250000 0.000000
0.126923 0.255000 0.000000
0.138462 0.260000 0.000000
0.150000 0.265000 0.000000
0.161538 0.270000 0.000000
0.173077 0.275000 0.000000
[...]
POINT_DATA 7607
SCALARS UX float 1
LOOKUP_TABLE default
0.004763
0.001849
-0.001816
-0.080634
-0.174491
-0.071278
-0.080622
-0.064539
-0.001242
0.000006
-0.000981
0.001077
0.009984
-0.000095
-0.000152
0.008886
0.000255
0.000368
-0.000219
0.000110
0.000065
-0.000036
-0.000128
0.000165
-0.000086
0.000273
0.000053
-0.000859
-0.000053
-0.000097
-0.000382
-0.006873
0.000135
-0.000118
-0.000050
-0.000289
0.000217
0.000191
0.001853
0.000061
0.000933
-0.001510
-0.000033
0.003653
0.000122
0.000121
-0.002387
-0.000028
-0.000181
-0.000017
0.000067
-0.003380
-0.000162
-0.001160
-0.000046
0.000043
-0.000078
-0.000054
-0.000008
-0.000487
-0.000777
0.000237
-0.000168
-0.000164
0.004337
0.000391
-0.006918
0.000221
0.001846
0.000130
-0.000701
-0.000400
-0.005254
-0.000580
0.004410
0.002310
-0.005461
-0.000078
-0.000615
0.001371
0.000175
-0.000167
-0.000128
-0.008619
-0.001113
0.012975
0.005018
0.012003
0.008563
0.009712
0.008209
0.015704
0.032866
0.031554
0.024868
0.030465
0.024227
0.047554
0.023135
0.027007
0.043979
0.044284
0.045032
0.054809
0.047039
0.056069
0.062872
0.044366
0.057407
0.069255
0.055139
0.081402
0.071083
0.071823
0.075930
0.068199
0.083541
0.078446
0.094945
0.070964
0.088047
0.092346
0.079646
0.083146
0.101924
0.083245
0.092083
0.094986
0.078968
0.091320
0.095941
0.076890
0.096017
0.065955
0.073127
0.070251
0.075308
0.064032
0.074248
0.053679
0.047875
0.050426
0.040617
0.046554
0.033397
-0.001351
0.002716
-0.036391
-0.035994
-0.077152
-0.034703
-0.054752
-0.057280
-0.054391
-0.059548
-0.070802
-0.069230
-0.049475
-0.080875
-0.071841
-0.061612
-0.074866
-0.074142
-0.089011
-0.083975
-0.086242
-0.083266
-0.092931
-0.090412
-0.091344
-0.090577
-0.093863
-0.091356
-0.089157
-0.095809
-0.099672
-0.089262
-0.103955
-0.105121
-0.100207
-0.099146
-0.101633
-0.098338
-0.102024
-0.104217
-0.103918
-0.106449
-0.104017
-0.106996
-0.108486
-0.105911
-0.113241
-0.111789
-0.115059
-0.116026
-0.115414
-0.112559
-0.116912
-0.116821
-0.116551
-0.117630
-0.119253
-0.128140
-0.116873
-0.120675
-0.130969
-0.122447
-0.130559
-0.124614
-0.136160
-0.137888
-0.141417
-0.144437
-0.143035
-0.142453
-0.152211
-0.143567
-0.154227
-0.158228
-0.145224
-0.165221
-0.157142
-0.159399
-0.155258
-0.165663
-0.174529
-0.164992
-0.173441
-0.176226
-0.171638
-0.174751
-0.176943
-0.181874
-0.182191
-0.181175
-0.181764
-0.186455
-0.187198
-0.186996
-0.174173
-0.180708
-0.168447
-0.177760
-0.177715
-0.185464
-0.182354
-0.179932
-0.205718
-0.187464
-0.192164
-0.186647
-0.190254
-0.200803
-0.195059
-0.192182
-0.186066
-0.199048
-0.198276
-0.194880
-0.194091
-0.203929
-0.190863
-0.195128
-0.207615
-0.196389
-0.200393
-0.177462
-0.165081
-0.182616
-0.194997
-0.196428
-0.197254
-0.188804
-0.198200
-0.194956
-0.205453
-0.188353
-0.194873
-0.184804
-0.190302
-0.188689
-0.184234
-0.187957
-0.194459
-0.174380
-0.184349
-0.173126
-0.170441
-0.164634
-0.163700
-0.146703
-0.142870
-0.119661
-0.144864
-0.109552
-0.107891
-0.109534
-0.093369
-0.047890
-0.073418
-0.055134
-0.005370
-0.046137
-0.032580
-0.028838
-0.021804
-0.022620
-0.015069
-0.021180
-0.019425
-0.008422
-0.006290
-0.058433
-0.067898
-0.103319
-0.129344
-0.110839
-0.092389
-0.095193
-0.105077
-0.090439
-0.064336
-0.115257
-0.086875
-0.007361
-0.055843
-0.095900
-0.031465
-0.012165
-0.061356
-0.087412
-0.083024
-0.039282
-0.062852
-0.142729
-0.037334
-0.018504
-0.103106
-0.079360
-0.057873
-0.095277
-0.056033
0.042248
-0.025986
-0.047393
0.079521
0.034774
0.088555
-0.044110
-0.042889
-0.091563
-0.088964
-0.082390
-0.116547
-0.057787
-0.095705
-0.088482
-0.120564
-0.111483
-0.082313
-0.099684
-0.053440
-0.101885
-0.072030
-0.118965
-0.092211
-0.075181
-0.159277
-0.107445
-0.085072
-0.089359
-0.141063
-0.089491
-0.110049
-0.128876
-0.093560
-0.103143
-0.028373
0.036900
0.015350
0.072083
0.008246
0.052061
0.014341
-0.040362
0.026228
-0.019640
0.024275
-0.021880
0.005603
0.011205
-0.022610
0.003354
0.006501
0.009014
0.006779
0.005341
0.000818
0.019803
0.033414
-0.027658
-0.091146
-0.100151
-0.104801
-0.098207
0.043256
0.032145
0.026395
-0.162629
-0.159693
-0.153187
-0.125990
-0.116651
-0.092484
-0.011463
0.006709
0.009602
-0.140736
-0.162384
-0.166502
-0.194926
0.031379
0.010755
0.021396
0.008951
-0.057760
-0.024685
-0.063668
-0.042770
-0.004430
-0.004819
-0.089561
-0.108913
-0.199732
-0.152100
-0.065417
-0.041900
0.013463
0.002686
-0.005892
-0.006064
-0.166045
-0.165209
-0.177641
-0.183285
-0.035410
-0.059863
-0.007478
-0.018780
0.057519
0.043297
0.061543
-0.089326
-0.098303
0.048741
0.035672
0.011634
0.051582
-0.111612
-0.101768
-0.094341
-0.057465
-0.118192
-0.095805
-0.070790
-0.055639
-0.064179
-0.032696
-0.045497
-0.025197
-0.096938
-0.166687
-0.170283
-0.018089
0.017443
0.025044
-0.008168
-0.014678
-0.015587
-0.129549
-0.129706
-0.130231
-0.020338
-0.108306
-0.105488
-0.088352
0.024858
0.032815
0.004314
0.021937
0.001868
-0.012137
-0.018045
-0.049525
-0.022377
-0.020797
-0.021588
0.032248
0.064471
0.072125
-0.154979
-0.097735
-0.110433
-0.068232
-0.059595
-0.078897
-0.057558
-0.124788
-0.098952
-0.147550
-0.093690
-0.017806
0.010365
0.005248
0.004901
0.053295
0.046112
-0.104018
-0.097279
-0.091148
0.021303
0.024241
0.007583
-0.070846
-0.067286
-0.085546
-0.075549
0.034210
0.025101
0.050773
0.032292
-0.005719
-0.091198
-0.022141
0.001309
-0.007163
-0.008015
-0.170144
-0.143664
-0.145145
-0.193497
-0.105012
-0.137446
-0.124717
-0.113528
-0.084486
-0.094713
-0.093203
-0.088435
-0.020627
-0.009984
-0.006651
-0.005474
-0.000723
-0.193850
-0.171183
-0.192576
-0.011775
-0.010499
-0.003561
-0.194264
-0.170572
-0.173582
-0.015065
-0.071895
-0.082725
-0.095146
-0.170999
-0.165043
-0.145306
-0.166146
-0.163741
-0.171612
-0.160991
0.076778
0.060669
0.065515
0.067621
0.060310
0.039596
0.054514
0.027153
0.038657
0.028251
-0.122957
-0.111644
-0.095224
-0.112491
-0.107908
-0.105895
-0.008645
-0.020833
-0.013998
-0.007371
0.011413
0.033713
-0.004856
-0.033959
-0.020690
-0.032931
-0.054341
-0.150396
-0.159800
-0.162745
-0.145658
0.027478
0.054148
0.027730
0.025638
0.033745
0.028569
0.044922
0.073660
0.067783
0.063165
-0.002965
0.112455
-0.177224
-0.164065
-0.170005
-0.063964
-0.069901
-0.070385
-0.045732
0.042638
0.061132
0.069531
0.079656
0.029743
0.041244
0.013339
-0.112058
-0.117029
-0.179276
-0.162012
-0.141082
-0.140973
-0.161580
-0.149037
-0.162075
-0.001359
-0.014887
0.006439
-0.137886
-0.140655
-0.121400
-0.004382
0.019650
-0.015518
0.049325
0.043010
0.069737
-0.004936
-0.017777
-0.017935
-0.020713
-0.024900
-0.173221
-0.181899
-0.010158
-0.019691
-0.005438
0.010693
0.008525
-0.000127
-0.017342
-0.003210
0.011492
-0.064342
-0.057965
-0.171831
-0.183813
-0.158479
-0.023438
-0.027005
0.066702
0.061925
0.009099
0.051453
0.014546
0.043608
0.015751
-0.002990
-0.000908
0.006680
-0.165989
-0.176160
-0.192476
-0.150783
-0.177335
-0.149392
-0.201174
-0.128114
0.028450
-0.016806
0.022213
0.045169
-0.193473
-0.177829
-0.157323
-0.155475
0.030915
0.086198
0.066996
0.051535
0.031599
-0.088233
-0.079413
-0.078354
0.020899
-0.069992
-0.078540
-0.092259
0.058729
-0.084861
-0.176210
-0.200267
-0.166012
-0.013154
0.010969
-0.013074
-0.142110
-0.152032
-0.134692
-0.015855
-0.008882
0.004895
0.042462
0.033959
0.003538
0.021529
-0.078281
-0.083672
-0.060284
-0.096919
-0.133531
-0.173099
-0.152334
0.018488
0.029336
0.000156
0.015577
0.013950
0.014977
-0.164414
-0.184903
-0.185611
-0.099157
-0.079076
-0.164873
-0.025271
-0.042681
0.060365
0.007293
-0.013206
0.026200
0.023059
0.025894
-0.148253
-0.193340
-0.154306
-0.186789
-0.193793
-0.155490
-0.021083
0.013153
-0.011372
-0.016024
0.077115
0.037404
0.044418
0.053206
-0.008282
-0.001128
0.032539
0.026179
0.028586
0.031321
-0.128657
-0.126549
-0.098492
0.008685
0.005879
0.005942
0.003591
-0.025131
-0.000652
-0.012456
-0.189797
-0.118535
-0.103426
-0.121080
-0.163214
-0.176975
-0.209430
-0.066751
-0.076884
-0.060137
-0.034470
-0.026489
-0.018220
-0.073233
-0.072762
-0.077881
-0.054139
-0.063205
0.007959
-0.007582
-0.145816
-0.171106
-0.164237
0.075969
0.044146
-0.094270
-0.125590
-0.024454
0.002322
-0.018070
0.006186
-0.020371
-0.026526
-0.018527
0.012258
0.021585
0.022526
-0.081022
-0.087573
-0.040143
0.000855
-0.005937
-0.115610
-0.109756
-0.109870
0.017364
-0.158575
-0.154210
-0.160230
0.100387
0.032729
0.020938
-0.179588
-0.179763
0.054411
0.047883
-0.156267
-0.148024
-0.159651
-0.101482
-0.066803
-0.006195
-0.026965
-0.007587
-0.006362
-0.022245
-0.155620
-0.156383
-0.187186
-0.192682
-0.148673
0.050143
0.067148
-0.185501
-0.171291
-0.170216
0.014361
0.008156
-0.066547
-0.075157
-0.069246
-0.072313
0.005159
0.011266
0.002328
-0.190328
-0.164952
-0.169360
-0.158086
-0.164979
-0.156624
-0.183817
-0.160148
-0.191022
-0.152162
0.002247
-0.004103
-0.002951
-0.002990
-0.025695
-0.011817
-0.008222
-0.185185
-0.189471
-0.189980
-0.076208
-0.046987
-0.054951
-0.068841
-0.164879
-0.161265
-0.166559
-0.179532
-0.183284
-0.197060
0.061671
0.095984
-0.192985
0.023104
-0.009523
-0.172307
-0.011325
-0.109967
0.077578
-0.187636
-0.163352
-0.018477
-0.198429
-0.191840
0.028328
-0.002807
-0.001987
-0.037537
-0.027180
-0.005004
-0.001068
-0.010890
0.048447
0.097888
0.061690
0.057009
0.080846
0.085235
-0.137317
-0.140483
-0.138963
-0.134974
0.020795
0.011205
0.021606
-0.032716
-0.005620
-0.050021
-0.065469
0.054208
0.035146
-0.196825
-0.187715
-0.183831
-0.180818
-0.011292
-0.053514
-0.034886
-0.027661
0.039858
0.064153
0.022899
0.071014
0.037935
-0.091138
-0.083887
-0.086692
0.022860
-0.163952
-0.157334
-0.176294
-0.113408
-0.110272
-0.031653
-0.006496
-0.020076
-0.012218
-0.099878
-0.074466
-0.086867
-0.083541
-0.086580
-0.087657
-0.000037
0.002503
0.035419
0.033544
0.047398
0.008991
-0.058324
-0.074308
-0.078240
-0.088509
-0.070317
-0.192652
-0.053101
0.024656
0.001759
-0.010094
-0.025943
-0.020859
-0.120960
-0.122289
-0.187670
-0.171270
-0.162028
-0.156832
-0.116299
-0.143838
-0.152818
-0.144261
-0.178869
0.086213
0.028454
0.023520
0.023707
0.015942
-0.017390
-0.019083
0.022330
-0.173841
-0.168203
-0.183920
-0.012047
-0.015644
-0.147146
-0.162886
-0.174249
-0.151042
-0.014472
-0.017216
-0.021730
-0.176787
-0.005610
-0.009828
-0.177137
-0.170383
0.027716
0.017749
0.023762
0.019404
0.004804
0.008028
-0.002030
-0.001820
-0.174617
-0.209365
-0.203520
-0.148486
-0.140180
-0.150466
-0.128963
-0.009833
-0.012493
-0.023939
-0.019622
0.039985
0.036139
0.036221
0.008064
0.016850
0.036867
0.002734
-0.013079
-0.072299
-0.077251
-0.087692
-0.090891
-0.087130
-0.189438
-0.185325
-0.185586
-0.105508
-0.113048
-0.136619
-0.112681
0.070752
0.029425
-0.029383
-0.025642
-0.179807
-0.115248
-0.110609
-0.097796
-0.189019
-0.169162
-0.184795
-0.116727
-0.113399
-0.071620
-0.069218
-0.029065
-0.091508
-0.022074
0.063965
-0.015307
0.059901
0.058032
-0.019539
-0.009902
-0.007029
0.013956
-0.065037
-0.065140
-0.012910
-0.156591
-0.180837
-0.013696
-0.001342
-0.090253
-0.161423
-0.029445
-0.035831
-0.027533
-0.020919
-0.072558
-0.072817
-0.054126
-0.016918
-0.000837
-0.196066
-0.020104
0.010353
-0.047347
-0.168551
-0.162933
-0.174617
0.026691
0.002168
-0.013546
-0.166180
0.027781
0.033816
-0.028961
-0.212237
-0.174371
-0.195805
-0.043263
-0.039475
-0.006199
-0.004103
-0.095838
-0.119544
-0.092280
-0.082370
-0.072448
-0.103027
-0.004233
-0.009080
0.011785
0.009271
-0.001866
0.006520
0.005141
-0.019951
0.004081
-0.069256
-0.081286
-0.095864
-0.075609
-0.077562
-0.083872
-0.080435
-0.074739
-0.033257
-0.010860
-0.181669
-0.160569
-0.175221
-0.134898
-0.119302
-0.126127
-0.122395
-0.014101
-0.007159
-0.091344
-0.075725
-0.072508
0.035401
0.040453
0.052929
0.019894
-0.188794
-0.065114
-0.012166
0.005455
-0.005152
-0.168942
0.027353
0.018404
0.033279
0.000124
-0.194732
0.005297
0.011109
0.001839
0.017706
0.006362
-0.056232
-0.084298
-0.086755
-0.078583
-0.003879
-0.006834
-0.003536
-0.001651
0.084259
0.091551
0.083399
0.083169
-0.175204
-0.191411
-0.162984
-0.127436
-0.118955
0.014729
0.007223
0.024727
0.003956
0.014331
-0.012049
0.030667
-0.097796
-0.132026
0.049030
0.039652
0.070931
-0.170560
-0.130119
-0.186223
-0.158649
-0.168238
-0.090505
0.053458
0.061261
0.045675
0.051865
0.000877
-0.098830
-0.102877
-0.141051
0.004230
0.009528
-0.147681
0.028819
0.028072
-0.118207
-0.108577
-0.116571
-0.169683
-0.176315
-0.016995
-0.146797
-0.145929
-0.130586
-0.149519
0.078958
0.071156
0.090224
0.102381
-0.145326
-0.099887
-0.136399
-0.124120
-0.147342
0.010451
0.030735
0.035327
0.063496
0.060594
0.072510
-0.015024
-0.021349
-0.015501
-0.197084
0.031617
-0.187592
-0.178819
-0.159654
-0.183046
-0.173856
-0.171406
-0.131570
-0.196897
0.004412
-0.016516
-0.166556
0.028006
-0.020706
-0.011212
-0.017119
-0.117094
-0.108861
-0.108011
-0.035190
-0.018793
0.009593
0.008819
0.017370
-0.047378
-0.023726
-0.011127
-0.012680
-0.068197
-0.078050
-0.074723
0.042425
0.030490
0.029800
-0.007158
-0.013274
-0.167050
-0.166640
-0.167775
-0.092881
-0.189499
-0.199925
-0.204693
-0.161982
-0.174111
-0.150642
-0.036274
-0.034447
-0.055587
-0.113965
-0.114729
-0.127203
-0.032658
-0.013526
-0.063473
-0.108400
-0.078641
0.021462
-0.015378
0.080491
0.065940
0.047310
0.056698
-0.087496
-0.087742
-0.009694
-0.001980
-0.010893
0.022500
0.001630
-0.007007
-0.170647
0.004279
-0.018742
-0.029087
-0.000998
-0.148065
-0.136961
-0.140259
-0.136059
-0.217805
-0.165051
-0.186918
-0.192959
-0.001861
0.002026
0.016801
-0.162218
-0.157696
-0.139304
-0.152573
-0.087380
0.045434
0.010974
-0.095141
-0.074639
-0.012524
-0.091211
0.063328
0.079779
-0.094145
-0.126167
-0.068488
-0.101655
-0.008825
-0.020074
-0.011032
-0.106322
-0.102287
-0.109853
0.041711
0.137116
0.059994
-0.166253
-0.133911
-0.150959
-0.154072
-0.101602
-0.154639
-0.168327
-0.146476
-0.177946
-0.010884
-0.149563
-0.167864
-0.188669
-0.182973
0.006980
0.017964
0.015124
-0.015344
-0.011718
-0.096596
-0.070978
-0.068963
-0.005599
-0.012167
-0.013072
-0.009888
-0.012280
-0.076063
-0.070756
-0.100176
-0.119871
-0.157660
-0.106598
0.054141
0.067265
0.065492
0.033965
-0.080049
-0.086105
-0.053951
-0.043955
-0.033585
0.009084
-0.000117
-0.003222
-0.148609
-0.153419
-0.020107
-0.008668
-0.083463
-0.047693
-0.009747
-0.017275
0.004707
-0.013473
-0.095529
-0.089801
-0.012381
-0.177819
-0.180539
-0.162338
0.002630
0.003373
-0.140928
-0.140647
-0.144820
-0.147239
-0.149463
-0.182888
-0.176998
0.004589
0.003659
-0.009776
-0.155057
-0.161127
-0.184091
0.034336
0.024207
0.031638
0.045182
-0.135402
-0.123973
-0.129531
-0.117416
0.068258
0.062785
0.077142
-0.182207
0.063987
-0.141248
0.006899
0.017989
0.021493
0.020970
0.050685
-0.170117
-0.179220
-0.170607
0.000327
0.004032
0.015410
0.072949
0.084329
0.034429
-0.062151
-0.041872
0.056254
0.063120
0.080038
-0.010190
-0.067795
-0.059020
-0.098430
0.037457
-0.011334
0.045979
0.050624
0.016154
-0.092052
-0.012922
-0.008432
-0.006959
-0.014611
-0.014287
-0.057687
0.046007
-0.161677
-0.151568
-0.152102
-0.104925
-0.012296
-0.154004
-0.139996
-0.153486
-0.136602
-0.165635
0.038730
-0.066631
-0.088672
-0.072327
-0.066770
-0.009820
-0.075476
-0.088364
-0.075851
-0.085008
-0.091459
-0.000679
-0.154273
-0.157037
-0.171869
0.000827
-0.173827
-0.184129
-0.003994
0.039414
0.028963
0.063379
-0.168134
0.077426
0.041576
0.026067
-0.175717
-0.173017
-0.173279
0.010575
0.002382
0.002651
-0.192232
-0.085188
-0.111551
-0.092883
-0.116493
-0.124171
-0.132363
-0.190066
-0.185751
-0.180243
-0.153177
-0.121172
-0.094238
0.030381
-0.083791
-0.143754
0.053913
0.061830
0.034799
-0.119289
-0.115828
-0.016881
-0.021256
-0.032159
-0.023764
-0.024547
0.052547
-0.087603
-0.176685
-0.168687
0.015781
-0.010233
-0.003860
-0.184166
-0.179261
-0.175337
0.016937
0.017768
0.012464
-0.097394
-0.093805
-0.104528
-0.100736
-0.075199
-0.088751
-0.006875
-0.004199
0.023898
0.003479
-0.088549
-0.085016
-0.078961
-0.089149
-0.166619
-0.166352
-0.161706
-0.132451
-0.083202
-0.085271
-0.084433
-0.022390
-0.023774
-0.007297
-0.009470
-0.113455
-0.135553
-0.159175
-0.176883
-0.176236
0.075394
-0.023470
-0.027463
0.041156
0.064482
0.002692
-0.177821
0.100775
-0.100366
-0.109699
-0.108470
-0.099872
-0.150049
-0.174243
-0.155564
-0.140077
-0.055532
-0.013709
-0.064997
-0.177181
-0.023066
-0.026884
-0.004393
-0.066560
-0.093389
-0.149687
-0.095335
0.084502
0.080300
0.090819
-0.074535
-0.097625
-0.015559
-0.162805
-0.005499
-0.004586
0.001327
0.011921
-0.017648
0.009313
0.005649
-0.035187
-0.022719
-0.088880
-0.090548
0.048022
0.059061
0.095247
-0.122800
-0.198116
-0.173310
0.101137
-0.164897
-0.164683
-0.179765
-0.133114
-0.162532
-0.191701
-0.180272
-0.203827
-0.108097
-0.102931
-0.102821
0.035726
-0.086135
-0.004496
-0.011807
-0.081359
-0.098284
-0.087201
-0.122903
-0.114688
-0.128446
-0.054204
-0.085175
-0.167681
-0.194638
-0.182692
-0.145603
-0.156075
-0.155768
0.002400
0.014892
-0.008908
-0.185980
-0.181533
-0.180234
-0.011233
-0.008694
-0.020173
-0.008198
-0.081990
-0.174432
-0.169021
-0.001141
-0.002760
-0.007862
-0.032853
-0.013660
-0.089688
-0.094467
-0.186105
0.009924
0.028592
-0.167968
0.040021
0.047765
0.030165
0.031466
-0.177660
-0.218906
-0.155554
-0.087736
-0.108708
-0.099773
-0.002317
0.004723
-0.055788
-0.032311
-0.063668
-0.056643
-0.026637
-0.058576
-0.104191
-0.091549
-0.013826
-0.015382
-0.007999
-0.001928
-0.167027
-0.011844
-0.006921
-0.009635
-0.093892
-0.093871
0.046377
0.081723
0.023628
0.050196
0.047497
0.052700
0.027036
-0.017556
0.005784
-0.007496
0.045408
0.000072
-0.015705
-0.108446
-0.110365
-0.094365
-0.106690
-0.040288
-0.044480
-0.046931
0.045449
-0.027250
-0.064759
-0.045956
-0.066614
0.047652
0.032135
0.022957
-0.100223
-0.079158
0.055762
0.083125
0.020773
0.004786
0.017997
0.050976
0.019253
0.018962
0.032649
0.058634
0.054717
-0.022673
-0.009670
0.050725
-0.000071
0.104638
0.074147
0.016008
0.083502
0.095231
0.105388
-0.039896
-0.089234
-0.095095
-0.084486
-0.069348
-0.105300
0.031006
0.038697
0.049604
0.021771
0.049077
0.073885
0.091767
0.079881
-0.094817
-0.096803
-0.080986
-0.096070
-0.103893
-0.079383
-0.102029
-0.076626
-0.001139
-0.014620
-0.081198
-0.003645
0.083890
0.073888
0.093819
0.019922
0.003466
-0.024446
-0.001667
-0.016726
-0.177070
-0.175750
-0.020980
-0.047381
-0.004476
-0.023214
-0.185605
-0.177820
-0.176079
-0.190091
-0.101073
-0.110879
-0.110703
-0.101233
-0.080144
-0.072830
-0.016202
-0.006135
-0.098028
-0.087621
-0.085174
-0.078067
0.067907
0.074689
0.076624
0.079912
0.044588
-0.074988
-0.075253
-0.091614
0.096551
0.082078
0.083543
-0.026769
-0.025628
-0.012696
-0.030452
-0.057180
-0.064537
-0.053278
-0.051137
-0.089366
-0.065352
-0.095586
-0.093921
-0.019626
-0.000962
0.093350
-0.011607
-0.081113
-0.090072
-0.099310
0.036120
-0.173774
-0.083989
-0.003681
-0.000043
0.002473
-0.000755
-0.006654
0.001662
-0.092639
-0.117499
-0.019103
-0.026056
-0.000306
-0.176422
-0.030882
-0.011966
-0.025462
0.005293
0.003029
-0.095504
-0.098899
0.000350
-0.014084
0.002668
-0.012034
-0.169214
-0.124732
-0.159904
-0.163269
-0.030821
-0.011982
-0.008226
-0.027687
-0.018529
-0.021400
-0.088124
-0.096702
-0.018286
-0.016066
-0.019588
-0.017928
-0.033992
-0.160753
-0.160302
-0.144119
-0.168418
-0.150128
-0.149991
-0.175592
-0.028112
-0.101091
-0.101298
-0.098478
-0.085522
0.078372
0.034614
0.054646
0.057072
0.002536
0.011410
-0.002216
-0.010683
-0.007353
-0.008878
-0.018702
-0.060926
-0.061799
-0.089982
-0.081302
0.001459
0.003565
-0.031603
0.010577
-0.098669
-0.092465
-0.113272
-0.096287
-0.007331
-0.186215
-0.180422
0.029507
0.002843
0.028891
0.032550
-0.011629
-0.094659
-0.095234
-0.015395
-0.160616
-0.007795
-0.000388
-0.012445
0.055444
0.044546
0.047425
-0.147904
-0.106047
-0.149685
-0.149076
-0.101431
-0.095206
0.001704
-0.091148
-0.100686
-0.098512
-0.096048
-0.018435
-0.046850
-0.002398
0.036439
0.045300
0.057829
0.039148
0.046128
-0.006494
0.001358
-0.001292
-0.010964
-0.039016
-0.033497
-0.100897
-0.018738
-0.028167
-0.012980
-0.005817
-0.003263
0.002064
-0.019317
-0.088497
-0.010442
-0.005052
-0.170679
0.044008
0.049578
0.054403
-0.096382
-0.097071
-0.182737
-0.178129
-0.144070
-0.149805
-0.186419
-0.187706
-0.188493
-0.182857
0.044392
0.061729
-0.018853
-0.087930
-0.099440
0.004782
-0.028252
-0.015205
0.040177
-0.030919
-0.135793
-0.139631
-0.092332
-0.156914
-0.139562
-0.160085