# vtk DataFile Version 2.0
Test
ASCII
DATASET POLYDATA
POINTS 7607 float
0.000000 0.000000 0.000000
1.000000 0.000000 0.000000
1.000000 0.800000 0.000000
1.000000 1.000000 0.000000
0.000000 1.000000 0.000000
0.000000 0.200000 0.000000
0.300000 0.330000 0.000000
0.700000 0.680000 0.000000
0.012987 0.000000 0.000000
0.025974 0.000000 0.000000
0.038961 0.000000 0.000000
0.051948 0.000000 0.000000
0.064935 0.000000 0.000000
0.077922 0.000000 0.000000
0.090909 0.000000 0.000000
0.103896 0.000000 0.000000
0.116883 0.000000 0.000000
0.129870 0.000000 0.000000
0.142857 0.000000 0.000000
0.155844 0.000000 0.000000
0.168831 0.000000 0.000000
0.181818 0.000000 0.000000
0.194805 0.000000 0.000000
0.207792 0.000000 0.000000
0.220779 0.000000 0.000000
0.233766 0.000000 0.000000
0.246753 0.000000 0.000000
0.259740 0.000000 0.000000
0.272727 0.000000 0.000000
0.285714 0.000000 0.000000
0.298701 0.000000 0.000000
0.311688 0.000000 0.000000
0.324675 0.000000 0.000000
0.337662 0.000000 0.000000
0.350649 0.000000 0.000000
0.363636 0.000000 0.000000
0.376623 0.000000 0.000000
0.389610 0.000000 0.000000
0.402597 0.000000 0.000000
0.415584 0.000000 0.000000
0.428571 0.000000 0.000000
0.441558 0.000000 0.000000
0.454545 0.000000 0.000000
0.467532 0.000000 0.000000
0.480519 0.000000 0.000000
0.493506 0.000000 0.000000
0.506494 0.000000 0.000000
0.519481 0.000000 0.000000
0.532468 0.000000 0.000000
0.545455 0.000000 0.000000
0.558442 0.000000 0.000000
0.571429 0.000000 0.000000
0.584416 0.000000 0.000000
0.597403 0.000000 0.000000
0.610390 0.000000 0.000000
0.623377 0.000000 0.000000
0.636364 0.000000 0.000000
0.649351 0.000000 0.000000
0.662338 0.000000 0.000000
0.675325 0.000000 0.000000
0.688312 0.000000 0.000000
0.701299 0.000000 0.000000
0.714286 0.000000 0.000000
0.727273 0.000000 0.000000
0.740260 0.000000 0.000000
0.753247 0.000000 0.000000
0.766234 0.000000 0.000000
0.779221 0.000000 0.000000
0.792208 0.000000 0.000000
0.805195 0.000000 0.000000
0.818182 0.000000 0.000000
0.831169 0.000000 0.000000
0.844156 0.000000 0.000000
0.857143 0.000000 0.000000
0.870130 0.000000 0.000000
0.883117 0.000000 0.000000
0.896104 0.000000 0.000000
0.909091 0.000000 0.000000
0.922078 0.000000 0.000000
0.935065 0.000000 0.000000
0.948052 0.000000 0.000000
0.961039 0.000000 0.000000
0.974026 0.000000 0.000000
0.987013 0.000000 0.000000
1.000000 0.012903 0.000000
1.000000 0.025806 0.000000
1.000000 0.038710 0.000000
1.000000 0.051613 0.000000
1.000000 0.064516 0.000000
1.000000 0.077419 0.000000
1.000000 0.090323 0.000000
1.000000 0.103226 0.000000
1.000000 0.116129 0.000000
1.000000 0.129032 0.000000
1.000000 0.141935 0.000000
1.000000 0.154839 0.000000
1.000000 0.167742 0.000000
1.000000 0.180645 0.000000
1.000000 0.193548 0.000000
1.000000 0.206452 0.000000
1.000000 0.219355 0.000000
1.000000 0.232258 0.000000
1.000000 0.245161 0.000000
1.000000 0.258065 0.000000
1.000000 0.270968 0.000000
1.000000 0.283871 0.000000
1.000000 0.296774 0.000000
1.000000 0.309677 0.000000
1.000000 0.322581 0.000000
1.000000 0.335484 0.000000
1.000000 0.348387 0.000000
1.000000 0.361290 0.000000
1.000000 0.374194 0.000000
1.000000 0.387097 0.000000
1.000000 0.400000 0.000000
1.000000 0.412903 0.000000
1.000000 0.425806 0.000000
1.000000 0.438710 0.000000
1.000000 0.451613 0.000000
1.000000 0.464516 0.000000
1.000000 0.477419 0.000000
1.000000 0.490323 0.000000
1.000000 0.503226 0.000000
1.000000 0.516129 0.000000
1.000000 0.529032 0.000000
1.000000 0.541935 0.000000
1.000000 0.554839 0.000000
1.000000 0.567742 0.000000
1.000000 0.580645 0.000000
1.000000 0.593548 0.000000
1.000000 0.606452 0.000000
1.000000 0.619355 0.000000
1.000000 0.632258 0.000000
1.000000 0.645161 0.000000
1.000000 0.658065 0.000000
1.000000 0.670968 0.000000
1.000000 0.683871 0.000000
1.000000 0.696774 0.000000
1.000000 0.709677 0.000000
1.000000 0.722581 0.000000
1.000000 0.735484 0.000000
1.000000 0.748387 0.000000
1.000000 0.761290 0.000000
1.000000 0.774194 0.000000
1.000000 0.787097 0.000000
1.000000 0.812500 0.000000
1.000000 0.825000 0.000000
1.000000 0.837500 0.000000
1.000000 0.850000 0.000000
1.000000 0.862500 0.000000
1.000000 0.875000 0.000000
1.000000 0.887500 0.000000
1.000000 0.900000 0.000000
1.000000 0.912500 0.000000
1.000000 0.925000 0.000000
1.000000 0.937500 0.000000
1.000000 0.950000 0.000000
1.000000 0.962500 0.000000
1.000000 0.975000 0.000000
1.000000 0.987500 0.000000
0.987013 1.000000 0.000000
0.974026 1.000000 0.000000
0.961039 1.000000 0.000000
0.948052 1.000000 0.000000
0.935065 1.000000 0.000000
0.922078 1.000000 0.000000
0.909091 1.000000 0.000000
0.896104 1.000000 0.000000
0.883117 1.000000 0.000000
0.870130 1.000000 0.000000
0.857143 1.000000 0.000000
0.844156 1.000000 0.000000
0.831169 1.000000 0.000000
0.818182 1.000000 0.000000
0.805195 1.000000 0.000000
0.792208 1.000000 0.000000
0.779221 1.000000 0.000000
0.766234 1.000000 0.000000
0.753247 1.000000 0.000000
0.740260 1.000000 0.000000
0.727273 1.000000 0.000000
0.714286 1.000000 0.000000
0.701299 1.000000 0.000000
0.688312 1.000000 0.000000
0.675325 1.000000 0.000000
0.662338 1.000000 0.000000
0.649351 1.000000 0.000000
0.636364 1.000000 0.000000
0.623377 1.000000 0.000000
0.610390 1.000000 0.000000
0.597403 1.000000 0.000000
0.584416 1.000000 0.000000
0.571429 1.000000 0.000000
0.558442 1.000000 0.000000
0.545455 1.000000 0.000000
0.532468 1.000000 0.000000
0.519481 1.000000 0.000000
0.506494 1.000000 0.000000
0.493506 1.000000 0.000000
0.480519 1.000000 0.000000
0.467532 1.000000 0.000000
0.454545 1.000000 0.000000
0.441558 1.000000 0.000000
0.428571 1.000000 0.000000
0.415584 1.000000 0.000000
0.402597 1.000000 0.000000
0.389610 1.000000 0.000000
0.376623 1.000000 0.000000
0.363636 1.000000 0.000000
0.350649 1.000000 0.000000
0.337662 1.000000 0.000000
0.324675 1.000000 0.000000
0.311688 1.000000 0.000000
0.298701 1.000000 0.000000
0.285714 1.000000 0.000000
0.272727 1.000000 0.000000
0.259740 1.000000 0.000000
0.246753 1.000000 0.000000
0.233766 1.000000 0.000000
0.220779 1.000000 0.000000
0.207792 1.000000 0.000000
0.194805 1.000000 0.000000
0.181818 1.000000 0.000000
0.168831 1.000000 0.000000
0.155844 1.000000 0.000000
0.142857 1.000000 0.000000
0.129870 1.000000 0.000000
0.116883 1.000000 0.000000
0.103896 1.000000 0.000000
0.090909 1.000000 0.000000
0.077922 1.000000 0.000000
0.064935 1.000000 0.000000
0.051948 1.000000 0.000000
0.038961 1.000000 0.000000
0.025974 1.000000 0.000000
0.012987 1.000000 0.000000
0.000000 0.987097 0.000000
0.000000 0.974194 0.000000
0.000000 0.961290 0.000000
0.000000 0.948387 0.000000
0.000000 0.935484 0.000000
0.000000 0.922581 0.000000
0.000000 0.909677 0.000000
0.000000 0.896774 0.000000
0.000000 0.883871 0.000000
0.000000 0.870968 0.000000
0.000000 0.858065 0.000000
0.000000 0.845161 0.000000
0.000000 0.832258 0.000000
0.000000 0.819355 0.000000
0.000000 0.806452 0.000000
0.000000 0.793548 0.000000
0.000000 0.780645 0.000000
0.000000 0.767742 0.000000
0.000000 0.754839 0.000000
0.000000 0.741935 0.000000
0.000000 0.729032 0.000000
0.000000 0.716129 0.000000
0.000000 0.703226 0.000000
0.000000 0.690323 0.000000
0.000000 0.677419 0.000000
0.000000 0.664516 0.000000
0.000000 0.651613 0.000000
0.000000 0.638710 0.000000
0.000000 0.625806 0.000000
0.000000 0.612903 0.000000
0.000000 0.600000 0.000000
0.000000 0.587097 0.000000
0.000000 0.574194 0.000000
0.000000 0.561290 0.000000
0.000000 0.548387 0.000000
0.000000 0.535484 0.000000
0.000000 0.522581 0.000000
0.000000 0.509677 0.000000
0.000000 0.496774 0.000000
0.000000 0.483871 0.000000
0.000000 0.470968 0.000000
0.000000 0.458065 0.000000
0.000000 0.445161 0.000000
0.000000 0.432258 0.000000
0.000000 0.419355 0.000000
0.000000 0.406452 0.000000
0.000000 0.393548 0.000000
0.000000 0.380645 0.000000
0.000000 0.367742 0.000000
0.000000 0.354839 0.000000
0.000000 0.341935 0.000000
0.000000 0.329032 0.000000
0.000000 0.316129 0.000000
0.000000 0.303226 0.000000
0.000000 0.290323 0.000000
0.000000 0.277419 0.000000
0.000000 0.264516 0.000000
0.000000 0.251613 0.000000
0.000000 0.238710 0.000000
0.000000 0.225806 0.000000
0.000000 0.212903 0.000000
0.000000 0.187500 0.000000
0.000000 0.175000 0.000000
0.000000 0.162500 0.000000
0.000000 0.150000 0.000000
0.000000 0.137500 0.000000
0.000000 0.125000 0.000000
0.000000 0.112500 0.000000
0.000000 0.100000 0.000000
0.000000 0.087500 0.000000
0.000000 0.075000 0.000000
0.000000 0.062500 0.000000
0.000000 0.050000 0.000000
0.000000 0.037500 0.000000
0.000000 0.025000 0.000000
0.000000 0.012500 0.000000
0.309756 0.338537 0.000000
0.319512 0.347073 0.000000
0.329268 0.355610 0.000000
0.339024 0.364146 0.000000
0.348780 0.372683 0.000000
0.358537 0.381220 0.000000
0.368293 0.389756 0.000000
0.378049 0.398293 0.000000
0.387805 0.406829 0.000000
0.397561 0.415366 0.000000
0.407317 0.423902 0.000000
0.417073 0.432439 0.000000
0.426829 0.440976 0.000000
0.436585 0.449512 0.000000
0.446341 0.458049 0.000000
0.456098 0.466585 0.000000
0.465854 0.475122 0.000000
0.475610 0.483659 0.000000
0.485366 0.492195 0.000000
0.495122 0.500732 0.000000
0.504878 0.509268 0.000000
0.514634 0.517805 0.000000
0.524390 0.526341 0.000000
0.534146 0.534878 0.000000
0.543902 0.543415 0.000000
0.553659 0.551951 0.000000
0.563415 0.560488 0.000000
0.573171 0.569024 0.000000
0.582927 0.577561 0.000000
0.592683 0.586098 0.000000
0.602439 0.594634 0.000000
0.612195 0.603171 0.000000
0.621951 0.611707 0.000000
0.631707 0.620244 0.000000
0.641463 0.628780 0.000000
0.651220 0.637317 0.000000
0.660976 0.645854 0.000000
0.670732 0.654390 0.000000
0.680488 0.662927 0.000000
0.690244 0.671463 0.000000
0.011538 0.205000 0.000000
0.023077 0.210000 0.000000
0.034615 0.215000 0.000000
0.046154 0.220000 0.000000
0.057692 0.225000 0.000000
0.069231 0.230000 0.000000
0.080769 0.235000 0.000000
0.092308 0.240000 0.000000
0.103846 0.245000 0.000000
0.115385 0.250000 0.000000
0.126923 0.255000 0.000000
0.138462 0.260000 0.000000
0.150000 0.265000 0.000000
0.161538 0.270000 0.000000
0.173077 0.275000 0.000000
[...]
POINT_DATA 7607
SCALARS UX float 1
LOOKUP_TABLE default
0.006915
0.003256
-0.029228
-0.361439
-0.473322
-0.248675
-0.177608
-0.165866
-0.002817
0.000176
0.001838
0.001497
0.012032
0.000411
-0.000251
0.011223
0.000331
0.001009
-0.000350
0.000057
0.000255
-0.000109
-0.000214
0.000202
-0.000152
0.000352
0.000136
-0.001676
-0.000242
-0.000225
-0.000819
-0.011147
0.000299
-0.000273
-0.000165
-0.000641
0.000482
0.000223
0.003635
0.000090
0.001142
-0.002960
0.000042
0.006652
0.000388
0.000514
-0.004745
-0.000031
-0.000469
0.000020
0.000061
-0.004494
-0.000266
-0.001538
-0.000117
-0.000791
0.000172
-0.000068
0.000058
-0.001205
-0.001633
0.000540
-0.000346
0.000663
0.006996
0.000787
-0.013064
0.000616
0.004288
0.000349
-0.001413
-0.001232
-0.008097
-0.000405
0.006450
0.003642
-0.006472
-0.000044
-0.000897
0.001989
0.000310
0.001446
-0.000166
-0.015601
-0.001818
0.025959
0.010070
0.012760
0.010863
0.010830
0.012923
0.022315
0.043500
0.052302
0.044830
0.057987
0.035008
0.078310
0.041892
0.041394
0.071344
0.072781
0.070430
0.088745
0.075925
0.089144
0.101310
0.070441
0.096272
0.112089
0.090766
0.128831
0.112167
0.115253
0.119487
0.104642
0.136971
0.116300
0.143352
0.108635
0.131480
0.141110
0.119852
0.124316
0.151034
0.121767
0.142127
0.140796
0.118059
0.141428
0.143456
0.117373
0.153150
0.095814
0.111975
0.116346
0.124315
0.114476
0.143022
0.101781
0.103497
0.088283
0.105230
0.111143
0.083282
-0.041955
-0.048781
-0.123214
-0.274265
-0.310301
-0.276782
-0.330727
-0.292372
-0.320508
-0.332023
-0.345044
-0.342088
-0.313193
-0.364347
-0.338901
-0.332340
-0.347841
-0.353274
-0.370096
-0.361724
-0.365939
-0.358076
-0.373799
-0.370348
-0.374215
-0.368500
-0.377037
-0.370927
-0.370818
-0.380452
-0.381297
-0.378729
-0.393507
-0.390145
-0.391501
-0.388958
-0.390789
-0.386298
-0.393691
-0.398371
-0.394357
-0.399858
-0.398788
-0.401188
-0.403377
-0.402729
-0.411474
-0.405081
-0.416569
-0.408597
-0.413410
-0.407425
-0.409477
-0.415578
-0.410262
-0.407468
-0.417233
-0.417404
-0.413628
-0.410675
-0.422056
-0.416439
-0.423147
-0.414949
-0.428926
-0.430617
-0.434196
-0.436289
-0.439223
-0.434594
-0.446308
-0.437397
-0.449491
-0.455771
-0.439119
-0.462446
-0.454927
-0.455185
-0.451334
-0.465241
-0.472224
-0.464466
-0.474989
-0.477458
-0.471992
-0.475143
-0.476538
-0.485852
-0.484262
-0.484226
-0.486013
-0.493256
-0.492874
-0.492320
-0.473194
-0.484585
-0.466112
-0.480214
-0.480417
-0.491560
-0.486425
-0.483323
-0.522529
-0.495968
-0.502082
-0.493357
-0.500875
-0.517149
-0.509219
-0.505094
-0.494689
-0.514207
-0.515103
-0.512007
-0.509006
-0.528258
-0.510686
-0.515859
-0.534751
-0.526429
-0.530500
-0.494076
-0.489545
-0.509230
-0.533690
-0.534399
-0.545159
-0.531981
-0.551859
-0.547743
-0.571075
-0.546774
-0.560771
-0.551111
-0.560688
-0.564487
-0.562051
-0.568850
-0.586626
-0.568766
-0.577070
-0.558848
-0.589290
-0.558719
-0.572019
-0.541659
-0.547047
-0.533471
-0.485880
-0.547828
-0.382437
-0.451296
-0.369320
-0.209663
-0.206719
-0.103746
-0.004667
-0.062058
-0.049581
-0.033226
-0.024174
-0.030707
-0.007829
-0.028815
-0.018502
-0.009009
-0.008469
0.044159
-0.214036
-0.255796
-0.503283
-0.525745
-0.441070
-0.641754
-0.062997
-0.170450
-0.356133
-0.174317
-0.163189
0.310421
-0.029409
-0.046847
0.220293
0.194646
0.040929
-0.235860
-0.391168
0.013181
-0.262350
-0.600036
-0.191523
-0.278951
-0.202704
-0.076276
-0.185218
0.147799
0.138480
0.495840
-0.175757
-0.032869
0.044683
0.031827
0.112800
0.210791
-0.326587
-0.436174
-0.621459
-0.470765
-0.444528
-0.243830
-0.328440
-0.339276
-0.516324
-0.528546
-0.375360
-0.421605
-0.148400
-0.398120
-0.263764
-0.365037
-0.429152
-0.266173
-0.502646
-0.287348
-0.177248
-0.154014
-0.619383
-0.093123
-0.327476
-0.337504
-0.212375
-0.328522
-0.086944
-0.009190
-0.056240
0.163245
-0.089820
0.029912
-0.004327
-0.162914
0.049610
-0.200867
0.022426
-0.121197
-0.099631
0.086713
-0.145491
-0.012507
-0.066128
-0.085502
0.019491
-0.070403
-0.016800
0.054309
0.040088
-0.126840
-0.369655
-0.389102
-0.396387
-0.374059
0.072748
0.047089
0.054166
-0.633115
-0.604224
-0.159659
-0.533407
-0.495495
-0.413268
-0.012550
0.009988
0.025040
-0.525707
-0.458318
-0.464429
-0.502940
0.055167
0.006660
0.037165
0.015757
-0.016441
-0.026880
-0.076624
-0.070242
0.004548
-0.002028
-0.462772
-0.477119
-0.681154
-0.541506
-0.092014
-0.087449
0.019013
0.006340
-0.007000
-0.003741
-0.463122
-0.462039
-0.478978
-0.484136
-0.265792
-0.292898
-0.145136
-0.188396
0.095340
0.066791
0.096714
-0.367508
-0.396531
0.062672
0.057924
0.021387
0.075277
-0.410226
-0.400858
-0.386570
0.142213
-0.502840
-0.381522
-0.343788
-0.291726
-0.344836
-0.017224
-0.054039
-0.027070
-0.421370
-0.463306
-0.467737
-0.025037
0.009698
0.068083
0.007679
-0.010085
-0.012831
-0.423986
-0.419536
-0.425627
-0.038993
-0.400859
-0.404922
-0.372916
0.043061
0.049881
0.001903
0.040371
0.014160
-0.008937
-0.028714
-0.102876
-0.021423
0.004465
-0.026753
0.038462
0.101068
0.122247
-0.617802
-0.210094
-0.369074
-0.330061
-0.208220
-0.387208
-0.367411
-0.417611
-0.305038
-0.463568
-0.331907
-0.027878
0.018452
0.007230
0.010884
0.086434
0.067670
-0.406268
-0.378264
-0.378685
0.018743
0.032587
0.034964
-0.342689
-0.333649
-0.380199
-0.338160
0.047300
0.034843
0.103700
0.063013
-0.010608
-0.331358
-0.032590
0.013158
0.001577
-0.009473
-0.544520
-0.488929
-0.494452
-0.546110
-0.392118
-0.441176
-0.420950
-0.410098
-0.354895
-0.375991
-0.381657
-0.372911
-0.114267
-0.012628
-0.005446
-0.001197
0.003119
-0.556758
-0.521161
-0.558735
-0.014599
-0.012307
0.001995
-0.505970
-0.469535
-0.472220
-0.016616
-0.346926
-0.375114
-0.409951
-0.522453
-0.515121
-0.482271
-0.468995
-0.456331
-0.473989
-0.513023
0.122501
0.095305
0.115861
0.116905
0.101606
0.060145
0.085988
0.050781
0.069037
0.049635
-0.417216
-0.402084
-0.385535
-0.403178
-0.402599
-0.396840
-0.005742
-0.029337
-0.012085
-0.003718
0.016929
0.050082
0.008936
-0.057460
0.008315
-0.044026
-0.111768
-0.455568
-0.462691
-0.467332
-0.403513
0.056649
0.078101
0.046433
0.052589
0.049295
0.044901
0.080003
0.119756
0.106099
0.078357
-0.133383
0.411856
-0.527481
-0.522062
-0.526941
-0.253097
-0.353627
-0.355749
-0.316290
0.071959
0.095815
0.122589
0.123336
0.063801
0.080534
0.024103
-0.413657
-0.404959
-0.513188
-0.477033
-0.472354
-0.427081
-0.461048
-0.441102
-0.459719
0.002206
-0.031693
0.021231
-0.439132
-0.438785
-0.417940
-0.008460
0.043178
-0.028493
0.049331
0.100164
0.111546
-0.009349
-0.024013
-0.017612
-0.024915
-0.040332
-0.472693
-0.486504
-0.011038
-0.028136
0.005251
0.021492
0.008377
-0.001430
-0.024834
-0.000061
0.018054
-0.314216
-0.329027
-0.471734
-0.488225
-0.452049
-0.052728
-0.035763
0.111234
0.105788
0.016448
0.076847
0.044059
0.077588
0.033621
-0.019233
-0.005823
0.029703
-0.524635
-0.544036
-0.564828
-0.527587
-0.587130
-0.517469
-0.603305
-0.507832
-0.002733
-0.019355
0.044772
0.164764
-0.553327
-0.545205
-0.537702
-0.520197
0.029003
0.135959
0.108157
0.088691
0.056868
-0.365862
-0.357428
-0.350297
0.047512
-0.339035
-0.354997
-0.376165
0.098980
-0.363284
-0.516483
-0.549127
-0.495492
-0.020893
0.017493
-0.013976
-0.431636
-0.458521
-0.420585
-0.023654
-0.021905
0.008278
0.018434
0.050066
0.008735
0.005484
-0.354854
-0.360708
-0.327340
-0.370564
-0.525209
-0.567413
-0.448055
0.034902
0.039712
0.011083
0.032768
0.028041
0.024074
-0.460622
-0.490525
-0.487305
-0.306324
-0.330901
-0.469214
-0.018813
-0.035963
0.121609
-0.046175
-0.016629
0.042233
0.039798
0.044467
-0.505425
-0.564331
-0.534178
-0.565478
-0.590955
-0.524026
-0.043080
0.039965
-0.011743
-0.024753
0.126723
0.064537
0.082456
-0.052388
0.006066
0.084899
0.048960
0.048666
0.056304
0.053289
-0.428804
-0.433880
-0.359897
0.019862
0.001335
0.012205
0.015667
-0.044932
0.024143
-0.011080
-0.575554
-0.498345
-0.378253
-0.410263
-0.525331
-0.554903
-0.603039
-0.328711
-0.346648
-0.343841
-0.051798
-0.038005
0.006196
-0.353799
-0.349191
-0.354576
-0.319906
-0.321528
0.011145
-0.006794
-0.445625
-0.467560
-0.463519
0.135399
0.060938
-0.365944
-0.455304
-0.036816
0.008201
-0.020182
0.017441
-0.036438
-0.024054
-0.028681
0.028441
0.043478
0.046510
-0.361001
-0.360923
-0.058601
-0.003120
0.000345
-0.414481
-0.403834
-0.404672
0.035808
-0.548320
-0.450836
-0.526867
0.160387
0.049762
0.028665
-0.486029
-0.478788
0.090350
0.051712
-0.454226
-0.440732
-0.454274
-0.394444
-0.350557
-0.007464
-0.043728
-0.000173
-0.001334
-0.033283
-0.450306
-0.442591
-0.498307
-0.506992
-0.436198
0.089935
0.095620
-0.528101
-0.523755
-0.521552
0.019165
0.019571
-0.334752
-0.334370
-0.346883
-0.345880
0.009612
0.017789
0.000419
-0.493474
-0.462717
-0.465740
-0.456459
-0.460809
-0.448460
-0.534322
-0.487557
-0.561825
-0.496935
0.001989
-0.006046
-0.003476
0.000879
-0.021209
-0.005678
0.000323
-0.496922
-0.498387
-0.496721
-0.344915
-0.290253
-0.269091
-0.322495
-0.548699
-0.558964
-0.516391
-0.483171
-0.489055
-0.508390
0.079533
0.145777
-0.537819
0.034589
-0.010019
-0.467507
-0.063926
-0.473171
0.261327
-0.493082
-0.458050
-0.011765
-0.509763
-0.499865
0.035806
0.010702
0.000335
-0.053368
-0.043498
-0.009533
0.002396
-0.023867
0.075134
0.139006
0.094699
0.078539
0.132178
0.121501
-0.430127
-0.433458
-0.429005
-0.423832
0.035953
0.018900
0.038682
-0.048086
-0.008892
-0.309741
-0.338947
0.076227
0.063366
-0.511655
-0.495924
-0.490062
-0.484195
-0.005745
-0.068477
-0.070491
-0.050194
0.037272
0.157760
0.065047
0.144470
0.114849
-0.379502
-0.369259
-0.371541
0.037314
-0.505466
-0.509278
-0.540026
-0.486605
-0.495320
-0.051820
-0.001831
-0.023243
-0.017211
-0.396376
-0.344991
-0.374162
-0.361145
-0.362943
-0.368837
-0.003335
-0.000960
0.064698
0.057807
0.072577
0.032678
-0.320121
-0.345175
-0.356676
-0.368625
-0.334388
-0.501207
-0.302978
0.054175
0.001498
-0.009914
-0.033721
-0.032007
-0.463292
-0.523109
-0.567957
-0.531081
-0.545617
-0.553239
-0.518048
-0.432972
-0.451799
-0.441868
-0.556813
0.412730
0.037266
0.064007
0.021461
0.037436
-0.018033
-0.011894
0.054417
-0.478522
-0.464030
-0.484604
-0.012289
-0.015125
-0.446881
-0.459998
-0.471896
-0.531249
-0.001548
-0.015773
-0.039719
-0.554344
-0.005336
-0.006234
-0.512445
-0.495776
0.057514
0.039345
0.047552
0.024572
0.005167
0.014948
-0.002364
-0.001815
-0.481677
-0.537891
-0.533778
-0.446605
-0.442535
-0.448657
-0.416522
-0.014986
-0.021931
-0.031509
-0.022927
0.101573
0.064902
0.113901
0.013872
-0.001735
0.139162
0.001623
-0.172936
-0.342921
-0.340849
-0.380783
-0.390620
-0.379408
-0.498334
-0.493284
-0.492756
-0.396746
-0.412520
-0.428854
-0.401422
0.114886
0.047093
-0.044854
-0.032995
-0.489545
-0.418415
-0.521073
-0.412233
-0.500468
-0.471272
-0.495055
-0.471563
-0.565418
-0.336070
-0.408915
-0.044042
-0.379087
-0.029556
0.139212
-0.012395
0.153575
0.118274
-0.027874
-0.016793
-0.000866
0.022941
-0.335810
-0.343510
-0.012533
-0.487366
-0.531394
-0.013847
-0.003495
-0.370322
-0.458066
-0.025671
-0.045351
-0.038037
-0.020998
-0.345083
-0.338094
-0.315705
-0.024281
0.007867
-0.506394
-0.009418
0.027270
-0.085738
-0.463918
-0.458147
-0.562794
0.038970
-0.000881
-0.017295
-0.548549
0.039576
0.057418
-0.042768
-0.595427
-0.547037
-0.576473
-0.294552
-0.064482
-0.000906
0.000857
-0.390219
-0.422687
-0.383751
-0.356607
-0.352885
-0.395210
0.009368
-0.005338
0.030771
0.004943
-0.010645
-0.016199
0.032755
-0.112567
-0.024153
-0.346547
-0.347793
-0.386244
-0.342444
-0.455714
-0.355619
-0.352282
-0.346875
-0.054312
0.002357
-0.489929
-0.456420
-0.477325
-0.526953
-0.529910
-0.518708
-0.511879
-0.020042
-0.014129
-0.371195
-0.347881
-0.351475
0.041884
0.049989
0.129021
0.011780
-0.501175
-0.332455
-0.016417
0.014999
-0.011810
-0.467431
0.034372
0.021276
0.084273
0.000763
-0.503046
0.002963
0.013564
0.007616
0.023653
0.010936
-0.314357
-0.368371
-0.368714
-0.358603
-0.005331
-0.002987
-0.000119
-0.006965
0.115695
0.141170
0.125037
0.108866
-0.474483
-0.498065
-0.459073
-0.337114
-0.381314
0.027440
0.020590
0.057370
0.010600
0.019502
-0.014475
0.068738
-0.383820
-0.511002
0.080076
0.062672
0.108013
-0.594390
-0.561784
-0.512026
-0.472015
-0.488308
-0.370734
0.095151
0.113803
0.099842
0.070792
-0.048037
-0.360965
-0.357291
-0.430072
0.018121
0.010149
-0.451934
0.039246
0.045766
-0.413082
-0.401930
-0.410894
-0.470295
-0.477555
-0.025668
-0.438582
-0.439007
-0.423226
-0.443765
0.124961
0.101545
0.135513
0.161580
-0.552809
-0.390489
-0.537913
-0.499811
-0.502170
0.014179
0.059216
0.078960
0.100676
0.093211
0.114381
-0.015257
-0.030601
-0.015214
-0.505310
0.049773
-0.516678
-0.481720
-0.454699
-0.528368
-0.516739
-0.540354
-0.484601
-0.564085
0.012718
-0.019818
-0.535540
0.091780
-0.026440
-0.008243
-0.023014
-0.420396
-0.404775
-0.401922
-0.037257
-0.012900
0.022106
0.020111
0.027163
-0.307019
-0.032016
-0.006552
-0.013475
-0.340418
-0.357394
-0.350321
0.084833
0.077485
0.072588
-0.004722
-0.018132
-0.467701
-0.461232
-0.469956
-0.409523
-0.536085
-0.558049
-0.550299
-0.456936
-0.474913
-0.440284
-0.219722
-0.200771
-0.236777
-0.494773
-0.492507
-0.536735
-0.051439
-0.009367
-0.134014
-0.402790
-0.357553
0.025530
-0.017949
0.141941
0.130603
0.111494
0.126489
-0.365937
-0.359910
-0.017164
-0.010271
-0.013804
0.054278
-0.006026
-0.003803
-0.470050
0.003384
-0.022463
-0.033094
-0.001517
-0.441865
-0.425648
-0.499669
-0.447582
-0.577682
-0.462053
-0.490814
-0.499456
-0.006843
0.003072
0.020115
-0.578817
-0.601463
-0.543737
-0.551575
-0.365829
0.095885
0.001180
-0.390603
-0.344811
-0.138966
-0.385531
0.120442
0.180360
-0.382523
-0.413686
-0.242728
-0.371840
-0.013091
-0.029881
-0.015693
-0.404853
-0.395532
-0.407976
0.074808
0.230983
0.092767
-0.466426
-0.470919
-0.520187
-0.460743
-0.378511
-0.437973
-0.475810
-0.482131
-0.531690
-0.020301
-0.478172
-0.466655
-0.495007
-0.485596
0.006633
0.027114
0.026375
-0.020022
-0.016055
-0.380739
-0.347082
-0.337856
-0.004161
-0.023381
-0.026694
-0.010992
-0.011814
-0.350321
-0.341943
-0.448211
-0.439047
-0.624842
-0.482132
0.098298
0.121936
0.116214
0.055010
-0.352065
-0.361760
-0.093688
-0.109742
-0.028821
0.008448
-0.001767
0.011953
-0.536714
-0.554892
-0.010789
-0.015393
-0.366044
-0.306504
-0.007475
-0.014950
0.020688
-0.022467
-0.388207
-0.373734
-0.011009
-0.478857
-0.483771
-0.489981
0.000930
0.006095
-0.441662
-0.439707
-0.433598
-0.554352
-0.545847
-0.487010
-0.479793
0.014325
0.007671
-0.008968
-0.443557
-0.459524
-0.497066
0.079455
0.072915
0.052415
0.093921
-0.427365
-0.516571
-0.590064
-0.479084
0.108557
0.099936
0.121434
-0.484451
0.100237
-0.426597
0.010025
0.001840
-0.026005
0.027391
0.078744
-0.468544
-0.482239
-0.469009
0.002108
0.005715
0.023136
0.133886
0.128945
0.136704
-0.161292
-0.092050
0.102340
0.109436
0.133602
-0.005482
-0.138113
-0.112211
-0.189760
0.077288
-0.018072
0.067036
0.092884
0.041022
-0.370439
-0.013531
-0.001387
-0.004173
-0.009963
-0.026855
-0.327148
0.094764
-0.571021
-0.572993
-0.561440
-0.438584
-0.019589
-0.551097
-0.545133
-0.557442
-0.536594
-0.505982
0.079844
-0.325477
-0.370022
-0.338085
-0.331315
-0.009749
-0.355563
-0.373762
-0.345589
-0.364320
-0.373706
-0.004028
-0.447628
-0.449074
-0.475543
0.001101
-0.474592
-0.489718
-0.002443
0.036850
0.052847
0.134282
-0.545792
0.163429
0.088586
0.051387
-0.475716
-0.472182
-0.474010
0.014398
0.004845
0.004939
-0.573391
-0.377043
-0.435753
-0.372208
-0.413855
-0.415672
-0.425645
-0.570168
-0.562753
-0.550438
-0.499783
-0.490389
-0.385718
0.036783
-0.364345
-0.494620
0.083952
0.096360
0.065770
-0.412800
-0.406366
-0.018585
-0.027165
-0.044341
-0.026845
-0.033973
0.092559
-0.365246
-0.479509
-0.468847
0.031021
-0.013710
-0.002921
-0.487245
-0.482282
-0.477328
0.028654
0.026599
0.015851
-0.374533
-0.385597
-0.402898
-0.393256
-0.344734
-0.367165
-0.008708
0.000638
0.036020
0.010057
-0.380033
-0.361383
-0.352142
-0.368290
-0.510088
-0.509086
-0.529122
-0.518093
-0.354280
-0.368331
-0.352530
-0.024633
-0.018147
-0.013607
-0.013555
-0.407293
-0.426343
-0.456851
-0.567787
-0.548563
0.125279
-0.008301
-0.022615
0.081034
0.109840
-0.019671
-0.592888
0.085301
-0.394719
-0.409428
-0.401090
-0.391318
-0.448175
-0.476759
-0.447885
-0.428591
-0.115326
-0.003373
-0.114414
-0.477475
-0.012439
-0.009811
-0.006309
-0.157723
-0.372536
-0.577977
-0.377943
0.134050
0.118437
0.130907
-0.341323
-0.397057
-0.012323
-0.461391
-0.015693
-0.003724
-0.003163
0.016572
-0.023901
0.016607
0.000907
-0.032707
-0.025229
-0.373088
-0.381671
0.072402
0.084410
0.145218
-0.492966
-0.587705
-0.568865
0.159677
-0.540586
-0.533715
-0.563350
-0.392733
-0.467791
-0.623043
-0.545582
-0.491964
-0.402844
-0.392918
-0.396411
0.077674
-0.303862
0.013342
-0.010631
-0.357383
-0.394597
-0.363633
-0.394716
-0.401898
-0.415584
-0.333533
-0.369257
-0.489394
-0.529841
-0.519787
-0.479743
-0.501641
-0.489336
0.003257
0.030477
-0.014999
-0.492568
-0.488642
-0.484676
-0.077941
-0.093482
-0.022417
-0.015541
-0.355855
-0.501910
-0.494476
-0.002204
-0.002339
-0.012622
-0.048904
-0.000228
-0.371067
-0.386655
-0.526811
0.023977
0.034294
-0.508834
0.062638
0.078686
0.046999
0.051290
-0.510693
-0.565159
-0.462260
-0.358275
-0.391144
-0.380923
-0.000550
0.007917
-0.275088
-0.157969
-0.381748
-0.315333
-0.195171
-0.158162
-0.412863
-0.383641
-0.018851
-0.020973
-0.015906
0.001374
-0.485901
-0.011311
-0.005639
-0.012904
-0.385554
-0.378561
0.066962
0.133546
0.034813
0.070662
0.097636
0.096321
0.038195
-0.021418
0.021439
-0.004097
0.081615
0.005316
-0.028786
-0.403442
-0.413009
-0.386490
-0.401236
-0.070143
-0.086753
-0.096112
0.079973
-0.043085
-0.103005
-0.167509
-0.186737
0.075914
0.048992
0.035704
-0.383458
-0.368739
0.072571
0.139693
-0.062490
0.032508
0.048285
0.065827
0.006932
-0.000751
0.056457
0.107443
0.119853
-0.030100
-0.002325
0.072921
0.004218
0.171583
0.126925
0.029431
0.128791
0.130502
0.160382
-0.054836
-0.364578
-0.389649
-0.365014
-0.356672
-0.397921
0.049609
0.064889
0.079871
0.046501
0.083019
0.119294
0.143116
0.111208
-0.388847
-0.388843
-0.362064
-0.385677
-0.408055
-0.362424
-0.395417
-0.346335
0.004373
-0.015217
-0.361328
-0.001605
0.148788
0.105167
0.137635
0.074642
0.009132
-0.197756
0.015100
-0.012566
-0.477764
-0.477020
-0.019927
-0.073919
0.018551
-0.023377
-0.492501
-0.483331
-0.477901
-0.499872
-0.402426
-0.412391
-0.399085
-0.386609
-0.383680
-0.350184
-0.026566
-0.008027
-0.383063
-0.361349
-0.369772
-0.354385
0.105193
0.107171
0.114108
0.109956
0.071791
-0.351597
-0.356942
-0.369570
0.148515
0.119858
0.118167
-0.033409
-0.009681
-0.011572
0.005454
-0.175965
-0.184234
-0.075876
-0.109759
-0.221242
-0.278207
-0.386909
-0.378510
-0.018404
0.015184
0.144627
-0.000517
-0.354665
-0.366993
-0.398151
0.065007
-0.475294
-0.362973
-0.007472
0.001031
0.005629
-0.001401
0.000174
0.005897
-0.388087
-0.434248
-0.015644
-0.028487
0.007076
-0.475357
-0.036033
-0.000173
-0.034406
0.012301
0.005824
-0.380160
-0.387069
0.007869
-0.020689
0.004992
-0.025115
-0.463504
-0.418927
-0.451833
-0.466324
-0.040751
-0.013131
-0.005635
-0.027952
0.000887
-0.030824
-0.370475
-0.386499
-0.019071
-0.013739
-0.030003
-0.001816
-0.039331
-0.460354
-0.458509
-0.442562
-0.487003
-0.473473
-0.468121
-0.493519
-0.021569
-0.393100
-0.392187
-0.395904
-0.366145
0.135829
0.053413
0.095953
0.097800
0.008118
0.009197
0.002400
-0.007684
-0.005895
0.005371
-0.017566
-0.317124
-0.352231
-0.467801
-0.226328
0.060240
-0.011838
-0.067638
0.020271
-0.398166
-0.389989
-0.411744
-0.389924
-0.009413
-0.515307
-0.488489
0.057106
-0.013107
0.062850
0.056748
-0.017638
-0.386112
-0.382426
-0.020564
-0.390725
-0.014025
0.000620
-0.019606
0.082679
0.076410
0.075424
-0.367856
-0.376564
-0.195912
-0.485958
-0.408804
-0.373091
0.021126
-0.376992
-0.397573
-0.382953
-0.393408
-0.007151
-0.060260
0.008898
0.068707
0.074766
0.090922
0.070369
0.077950
-0.007099
-0.000317
-0.000525
-0.015872
-0.040467
-0.042430
-0.401292
-0.013441
-0.031330
-0.016305
-0.009105
-0.001342
0.010295
-0.007523
-0.367064
-0.011052
-0.002891
-0.500054
0.071142
0.076213
0.089733
-0.379418
-0.379054
-0.489284
-0.485185
-0.428082
-0.437406
-0.545834
-0.553914
-0.548490
-0.542397
0.083679
0.097963
-0.025991
-0.376765
-0.387795
-0.048913
-0.049411
-0.007094
0.068458
-0.294977
-0.433702
-0.433141
-0.373367
-0.517370
-0.542584
-0.530051
-0.539615
-0.511927
-0.626048