# vtk DataFile Version 2.0
Test
ASCII
DATASET POLYDATA
POINTS 7607 float
0.000000 0.000000 0.000000
1.000000 0.000000 0.000000
1.000000 0.800000 0.000000
1.000000 1.000000 0.000000
0.000000 1.000000 0.000000
0.000000 0.200000 0.000000
0.300000 0.330000 0.000000
0.700000 0.680000 0.000000
0.012987 0.000000 0.000000
0.025974 0.000000 0.000000
0.038961 0.000000 0.000000
0.051948 0.000000 0.000000
0.064935 0.000000 0.000000
0.077922 0.000000 0.000000
0.090909 0.000000 0.000000
0.103896 0.000000 0.000000
0.116883 0.000000 0.000000
0.129870 0.000000 0.000000
0.142857 0.000000 0.000000
0.155844 0.000000 0.000000
0.168831 0.000000 0.000000
0.181818 0.000000 0.000000
0.194805 0.000000 0.000000
0.207792 0.000000 0.000000
0.220779 0.000000 0.000000
0.233766 0.000000 0.000000
0.246753 0.000000 0.000000
0.259740 0.000000 0.000000
0.272727 0.000000 0.000000
0.285714 0.000000 0.000000
0.298701 0.000000 0.000000
0.311688 0.000000 0.000000
0.324675 0.000000 0.000000
0.337662 0.000000 0.000000
0.350649 0.000000 0.000000
0.363636 0.000000 0.000000
0.376623 0.000000 0.000000
0.389610 0.000000 0.000000
0.402597 0.000000 0.000000
0.415584 0.000000 0.000000
0.428571 0.000000 0.000000
0.441558 0.000000 0.000000
0.454545 0.000000 0.000000
0.467532 0.000000 0.000000
0.480519 0.000000 0.000000
0.493506 0.000000 0.000000
0.506494 0.000000 0.000000
0.519481 0.000000 0.000000
0.532468 0.000000 0.000000
0.545455 0.000000 0.000000
0.558442 0.000000 0.000000
0.571429 0.000000 0.000000
0.584416 0.000000 0.000000
0.597403 0.000000 0.000000
0.610390 0.000000 0.000000
0.623377 0.000000 0.000000
0.636364 0.000000 0.000000
0.649351 0.000000 0.000000
0.662338 0.000000 0.000000
0.675325 0.000000 0.000000
0.688312 0.000000 0.000000
0.701299 0.000000 0.000000
0.714286 0.000000 0.000000
0.727273 0.000000 0.000000
0.740260 0.000000 0.000000
0.753247 0.000000 0.000000
0.766234 0.000000 0.000000
0.779221 0.000000 0.000000
0.792208 0.000000 0.000000
0.805195 0.000000 0.000000
0.818182 0.000000 0.000000
0.831169 0.000000 0.000000
0.844156 0.000000 0.000000
0.857143 0.000000 0.000000
0.870130 0.000000 0.000000
0.883117 0.000000 0.000000
0.896104 0.000000 0.000000
0.909091 0.000000 0.000000
0.922078 0.000000 0.000000
0.935065 0.000000 0.000000
0.948052 0.000000 0.000000
0.961039 0.000000 0.000000
0.974026 0.000000 0.000000
0.987013 0.000000 0.000000
1.000000 0.012903 0.000000
1.000000 0.025806 0.000000
1.000000 0.038710 0.000000
1.000000 0.051613 0.000000
1.000000 0.064516 0.000000
1.000000 0.077419 0.000000
1.000000 0.090323 0.000000
1.000000 0.103226 0.000000
1.000000 0.116129 0.000000
1.000000 0.129032 0.000000
1.000000 0.141935 0.000000
1.000000 0.154839 0.000000
1.000000 0.167742 0.000000
1.000000 0.180645 0.000000
1.000000 0.193548 0.000000
1.000000 0.206452 0.000000
1.000000 0.219355 0.000000
1.000000 0.232258 0.000000
1.000000 0.245161 0.000000
1.000000 0.258065 0.000000
1.000000 0.270968 0.000000
1.000000 0.283871 0.000000
1.000000 0.296774 0.000000
1.000000 0.309677 0.000000
1.000000 0.322581 0.000000
1.000000 0.335484 0.000000
1.000000 0.348387 0.000000
1.000000 0.361290 0.000000
1.000000 0.374194 0.000000
1.000000 0.387097 0.000000
1.000000 0.400000 0.000000
1.000000 0.412903 0.000000
1.000000 0.425806 0.000000
1.000000 0.438710 0.000000
1.000000 0.451613 0.000000
1.000000 0.464516 0.000000
1.000000 0.477419 0.000000
1.000000 0.490323 0.000000
1.000000 0.503226 0.000000
1.000000 0.516129 0.000000
1.000000 0.529032 0.000000
1.000000 0.541935 0.000000
1.000000 0.554839 0.000000
1.000000 0.567742 0.000000
1.000000 0.580645 0.000000
1.000000 0.593548 0.000000
1.000000 0.606452 0.000000
1.000000 0.619355 0.000000
1.000000 0.632258 0.000000
1.000000 0.645161 0.000000
1.000000 0.658065 0.000000
1.000000 0.670968 0.000000
1.000000 0.683871 0.000000
1.000000 0.696774 0.000000
1.000000 0.709677 0.000000
1.000000 0.722581 0.000000
1.000000 0.735484 0.000000
1.000000 0.748387 0.000000
1.000000 0.761290 0.000000
1.000000 0.774194 0.000000
1.000000 0.787097 0.000000
1.000000 0.812500 0.000000
1.000000 0.825000 0.000000
1.000000 0.837500 0.000000
1.000000 0.850000 0.000000
1.000000 0.862500 0.000000
1.000000 0.875000 0.000000
1.000000 0.887500 0.000000
1.000000 0.900000 0.000000
1.000000 0.912500 0.000000
1.000000 0.925000 0.000000
1.000000 0.937500 0.000000
1.000000 0.950000 0.000000
1.000000 0.962500 0.000000
1.000000 0.975000 0.000000
1.000000 0.987500 0.000000
0.987013 1.000000 0.000000
0.974026 1.000000 0.000000
0.961039 1.000000 0.000000
0.948052 1.000000 0.000000
0.935065 1.000000 0.000000
0.922078 1.000000 0.000000
0.909091 1.000000 0.000000
0.896104 1.000000 0.000000
0.883117 1.000000 0.000000
0.870130 1.000000 0.000000
0.857143 1.000000 0.000000
0.844156 1.000000 0.000000
0.831169 1.000000 0.000000
0.818182 1.000000 0.000000
0.805195 1.000000 0.000000
0.792208 1.000000 0.000000
0.779221 1.000000 0.000000
0.766234 1.000000 0.000000
0.753247 1.000000 0.000000
0.740260 1.000000 0.000000
0.727273 1.000000 0.000000
0.714286 1.000000 0.000000
0.701299 1.000000 0.000000
0.688312 1.000000 0.000000
0.675325 1.000000 0.000000
0.662338 1.000000 0.000000
0.649351 1.000000 0.000000
0.636364 1.000000 0.000000
0.623377 1.000000 0.000000
0.610390 1.000000 0.000000
0.597403 1.000000 0.000000
0.584416 1.000000 0.000000
0.571429 1.000000 0.000000
0.558442 1.000000 0.000000
0.545455 1.000000 0.000000
0.532468 1.000000 0.000000
0.519481 1.000000 0.000000
0.506494 1.000000 0.000000
0.493506 1.000000 0.000000
0.480519 1.000000 0.000000
0.467532 1.000000 0.000000
0.454545 1.000000 0.000000
0.441558 1.000000 0.000000
0.428571 1.000000 0.000000
0.415584 1.000000 0.000000
0.402597 1.000000 0.000000
0.389610 1.000000 0.000000
0.376623 1.000000 0.000000
0.363636 1.000000 0.000000
0.350649 1.000000 0.000000
0.337662 1.000000 0.000000
0.324675 1.000000 0.000000
0.311688 1.000000 0.000000
0.298701 1.000000 0.000000
0.285714 1.000000 0.000000
0.272727 1.000000 0.000000
0.259740 1.000000 0.000000
0.246753 1.000000 0.000000
0.233766 1.000000 0.000000
0.220779 1.000000 0.000000
0.207792 1.000000 0.000000
0.194805 1.000000 0.000000
0.181818 1.000000 0.000000
0.168831 1.000000 0.000000
0.155844 1.000000 0.000000
0.142857 1.000000 0.000000
0.129870 1.000000 0.000000
0.116883 1.000000 0.000000
0.103896 1.000000 0.000000
0.090909 1.000000 0.000000
0.077922 1.000000 0.000000
0.064935 1.000000 0.000000
0.051948 1.000000 0.000000
0.038961 1.000000 0.000000
0.025974 1.000000 0.000000
0.012987 1.000000 0.000000
0.000000 0.987097 0.000000
0.000000 0.974194 0.000000
0.000000 0.961290 0.000000
0.000000 0.948387 0.000000
0.000000 0.935484 0.000000
0.000000 0.922581 0.000000
0.000000 0.909677 0.000000
0.000000 0.896774 0.000000
0.000000 0.883871 0.000000
0.000000 0.870968 0.000000
0.000000 0.858065 0.000000
0.000000 0.845161 0.000000
0.000000 0.832258 0.000000
0.000000 0.819355 0.000000
0.000000 0.806452 0.000000
0.000000 0.793548 0.000000
0.000000 0.780645 0.000000
0.000000 0.767742 0.000000
0.000000 0.754839 0.000000
0.000000 0.741935 0.000000
0.000000 0.729032 0.000000
0.000000 0.716129 0.000000
0.000000 0.703226 0.000000
0.000000 0.690323 0.000000
0.000000 0.677419 0.000000
0.000000 0.664516 0.000000
0.000000 0.651613 0.000000
0.000000 0.638710 0.000000
0.000000 0.625806 0.000000
0.000000 0.612903 0.000000
0.000000 0.600000 0.000000
0.000000 0.587097 0.000000
0.000000 0.574194 0.000000
0.000000 0.561290 0.000000
0.000000 0.548387 0.000000
0.000000 0.535484 0.000000
0.000000 0.522581 0.000000
0.000000 0.509677 0.000000
0.000000 0.496774 0.000000
0.000000 0.483871 0.000000
0.000000 0.470968 0.000000
0.000000 0.458065 0.000000
0.000000 0.445161 0.000000
0.000000 0.432258 0.000000
0.000000 0.419355 0.000000
0.000000 0.406452 0.000000
0.000000 0.393548 0.000000
0.000000 0.380645 0.000000
0.000000 0.367742 0.000000
0.000000 0.354839 0.000000
0.000000 0.341935 0.000000
0.000000 0.329032 0.000000
0.000000 0.316129 0.000000
0.000000 0.303226 0.000000
0.000000 0.290323 0.000000
0.000000 0.277419 0.000000
0.000000 0.264516 0.000000
0.000000 0.251613 0.000000
0.000000 0.238710 0.000000
0.000000 0.225806 0.000000
0.000000 0.212903 0.000000
0.000000 0.187500 0.000000
0.000000 0.175000 0.000000
0.000000 0.162500 0.000000
0.000000 0.150000 0.000000
0.000000 0.137500 0.000000
0.000000 0.125000 0.000000
0.000000 0.112500 0.000000
0.000000 0.100000 0.000000
0.000000 0.087500 0.000000
0.000000 0.075000 0.000000
0.000000 0.062500 0.000000
0.000000 0.050000 0.000000
0.000000 0.037500 0.000000
0.000000 0.025000 0.000000
0.000000 0.012500 0.000000
0.309756 0.338537 0.000000
0.319512 0.347073 0.000000
0.329268 0.355610 0.000000
0.339024 0.364146 0.000000
0.348780 0.372683 0.000000
0.358537 0.381220 0.000000
0.368293 0.389756 0.000000
0.378049 0.398293 0.000000
0.387805 0.406829 0.000000
0.397561 0.415366 0.000000
0.407317 0.423902 0.000000
0.417073 0.432439 0.000000
0.426829 0.440976 0.000000
0.436585 0.449512 0.000000
0.446341 0.458049 0.000000
0.456098 0.466585 0.000000
0.465854 0.475122 0.000000
0.475610 0.483659 0.000000
0.485366 0.492195 0.000000
0.495122 0.500732 0.000000
0.504878 0.509268 0.000000
0.514634 0.517805 0.000000
0.524390 0.526341 0.000000
0.534146 0.534878 0.000000
0.543902 0.543415 0.000000
0.553659 0.551951 0.000000
0.563415 0.560488 0.000000
0.573171 0.569024 0.000000
0.582927 0.577561 0.000000
0.592683 0.586098 0.000000
0.602439 0.594634 0.000000
0.612195 0.603171 0.000000
0.621951 0.611707 0.000000
0.631707 0.620244 0.000000
0.641463 0.628780 0.000000
0.651220 0.637317 0.000000
0.660976 0.645854 0.000000
0.670732 0.654390 0.000000
0.680488 0.662927 0.000000
0.690244 0.671463 0.000000
0.011538 0.205000 0.000000
0.023077 0.210000 0.000000
0.034615 0.215000 0.000000
0.046154 0.220000 0.000000
0.057692 0.225000 0.000000
0.069231 0.230000 0.000000
0.080769 0.235000 0.000000
0.092308 0.240000 0.000000
0.103846 0.245000 0.000000
0.115385 0.250000 0.000000
0.126923 0.255000 0.000000
0.138462 0.260000 0.000000
0.150000 0.265000 0.000000
0.161538 0.270000 0.000000
0.173077 0.275000 0.000000
[...]
POINT_DATA 7607
SCALARS UX float 1
LOOKUP_TABLE default
0.007043
0.002259
0.015143
-0.541924
-0.641934
-0.296536
-0.056354
-0.319554
-0.002882
0.000170
0.001191
0.001518
0.012571
0.000374
-0.000243
0.011660
0.000343
0.000833
-0.000349
0.000065
0.000249
-0.000111
-0.000210
0.000206
-0.000143
0.000287
0.000126
-0.001609
-0.000232
-0.000210
-0.000855
-0.010387
0.000285
-0.000252
-0.000180
-0.000515
0.000434
0.000318
0.002668
0.000054
0.000477
-0.002315
0.000101
0.004483
0.000275
-0.000185
-0.003125
-0.000015
-0.000440
0.000063
0.000051
-0.003889
-0.000264
-0.001565
-0.000112
-0.000804
0.000166
-0.000067
0.000058
-0.001212
-0.001712
0.000550
-0.000340
-0.000175
0.004363
0.000946
-0.008718
0.000397
0.002805
0.000600
-0.001301
-0.000774
-0.006206
0.000101
0.005606
0.003276
-0.006140
0.000058
-0.000857
0.002079
0.000180
0.001279
-0.000188
-0.012631
-0.000692
0.017091
0.009051
0.017340
0.008593
0.015432
0.012762
0.022898
0.040550
0.045525
0.038327
0.054292
0.034153
0.062942
0.038790
0.036646
0.057175
0.063081
0.057013
0.071589
0.062718
0.072624
0.081545
0.060491
0.077817
0.090336
0.071487
0.103804
0.087620
0.091129
0.095421
0.080837
0.113686
0.087487
0.116620
0.083163
0.108892
0.120963
0.087919
0.101771
0.129483
0.099518
0.124589
0.114572
0.115673
0.123607
0.121130
0.115464
0.141310
0.091831
0.112973
0.118562
0.121818
0.124279
0.161344
0.113228
0.112376
0.116776
0.109513
0.123222
0.062165
-0.130885
-0.015379
-0.177134
-0.253300
-0.449794
-0.375194
-0.490315
-0.431802
-0.507642
-0.490212
-0.534594
-0.502836
-0.499175
-0.544899
-0.514176
-0.511658
-0.528248
-0.531009
-0.545407
-0.538663
-0.541818
-0.532935
-0.546183
-0.544902
-0.545207
-0.542000
-0.546173
-0.543188
-0.540386
-0.549819
-0.546532
-0.549488
-0.558210
-0.553826
-0.558637
-0.556254
-0.556237
-0.557234
-0.560442
-0.565905
-0.559117
-0.569151
-0.565208
-0.568105
-0.572081
-0.568054
-0.577887
-0.575531
-0.580236
-0.580637
-0.580340
-0.577398
-0.581259
-0.582752
-0.580955
-0.581467
-0.584811
-0.592281
-0.581418
-0.584158
-0.594997
-0.587039
-0.594831
-0.589764
-0.600685
-0.603710
-0.607107
-0.610396
-0.609644
-0.608655
-0.617955
-0.609015
-0.621709
-0.626757
-0.610688
-0.633508
-0.624477
-0.626751
-0.621688
-0.633536
-0.639858
-0.633735
-0.640858
-0.644881
-0.639498
-0.640470
-0.643855
-0.648743
-0.648540
-0.647703
-0.649435
-0.653180
-0.654266
-0.654245
-0.641361
-0.648789
-0.635633
-0.644574
-0.645590
-0.652498
-0.650230
-0.647182
-0.674934
-0.655943
-0.659218
-0.654645
-0.658315
-0.668776
-0.663201
-0.659867
-0.652890
-0.666547
-0.666669
-0.662536
-0.660877
-0.673613
-0.657081
-0.663782
-0.677152
-0.669869
-0.669895
-0.644009
-0.631020
-0.650046
-0.666826
-0.669482
-0.680189
-0.664240
-0.681739
-0.676720
-0.695060
-0.675112
-0.686219
-0.677344
-0.685113
-0.688956
-0.686435
-0.693214
-0.707266
-0.689134
-0.700454
-0.692057
-0.710735
-0.682948
-0.683205
-0.669421
-0.652475
-0.615407
-0.639542
-0.594389
-0.566325
-0.604761
-0.398485
-0.181184
-0.408814
-0.210476
-0.009511
-0.089511
-0.057278
-0.028307
-0.028922
-0.026694
-0.013580
-0.017466
-0.020725
-0.005180
-0.008196
0.170528
-0.301432
-0.283725
-0.608335
-1.035133
-0.674135
-0.539027
-0.335063
-0.481121
-0.488451
-0.374838
0.142859
0.167267
-0.011088
-0.087873
-0.037790
0.225093
-0.122368
-0.379768
-0.367081
0.004815
-0.443894
-0.766866
-0.425252
0.019718
-0.432485
-0.258798
-0.102999
-0.183295
0.331994
0.149298
0.011168
-0.119289
0.195607
-0.109029
-0.034039
-0.265659
-0.482980
-0.438792
-0.501067
-0.480421
-0.527581
-0.306384
-0.605389
-0.420485
-0.514583
-0.531473
-0.514309
-0.727280
-0.118758
-0.524550
-0.499266
-0.751518
-0.471294
-0.299734
-0.615223
-0.740650
0.098139
0.004570
-0.539275
-0.002699
-0.447137
-0.225964
-0.351425
-0.160480
-0.038898
-0.210160
-0.172740
0.158595
-0.100458
0.046970
-0.026645
-0.204307
-0.009702
-0.199622
-0.029697
-0.207708
-0.015809
-0.057469
-0.226984
0.094086
-0.123569
-0.101822
0.079521
-0.074839
-0.004079
0.020011
0.040238
-0.175767
-0.545898
-0.564354
-0.571536
-0.547352
0.049550
0.037813
0.035831
-0.474522
-0.753078
-0.358527
-0.607657
-0.587124
-0.575197
-0.009551
0.010612
0.017999
-0.622397
-0.629811
-0.633418
-0.660252
0.045477
0.010048
0.022790
0.016209
-0.107907
0.003432
-0.183475
-0.092730
-0.002143
0.005837
-0.667628
-0.553227
-0.738842
-0.667343
-0.137272
-0.193164
0.015272
0.005568
-0.003869
-0.002486
-0.634348
-0.629290
-0.643912
-0.649377
-0.219612
-0.468792
-0.049568
-0.225532
0.084877
0.065256
0.082025
-0.531197
-0.564230
0.034886
0.045316
0.022149
0.059981
-0.576397
-0.566972
-0.554919
-0.181712
-0.671581
-0.555154
-0.535220
-0.490233
-0.521707
-0.051989
-0.060845
-0.035585
-0.558376
-0.633842
-0.634733
-0.019914
0.015854
0.031372
-0.006239
-0.015654
-0.019251
-0.593546
-0.594733
-0.595430
-0.024559
-0.568604
-0.570546
-0.546528
0.037525
0.039049
0.001417
0.039583
0.005194
-0.012054
-0.021704
-0.147755
-0.045944
-0.037754
-0.024710
0.040284
0.090138
0.125068
-0.655181
-0.352433
-0.519448
-0.422227
-0.337544
-0.603199
-0.587306
-0.587967
-0.531770
-0.633716
-0.523761
-0.018311
0.007960
0.008144
0.010096
0.061602
0.058308
-0.569034
-0.553647
-0.550715
0.018102
0.033944
0.025635
-0.517888
-0.509353
-0.552104
-0.517087
0.039845
0.042689
0.099270
0.056631
-0.005818
-0.502768
-0.039319
-0.006014
-0.001969
-0.014549
-0.701449
-0.661314
-0.591357
-0.589899
-0.567182
-0.604000
-0.590322
-0.578420
-0.534827
-0.542404
-0.550163
-0.541853
-0.351158
-0.009755
-0.008345
-0.001981
0.000937
-0.682633
-0.653887
-0.683920
-0.012750
-0.010091
-0.000347
-0.661087
-0.637498
-0.638845
-0.015603
-0.510217
-0.546426
-0.572612
-0.650502
-0.646208
-0.618324
-0.634648
-0.627970
-0.637642
-0.635195
0.091992
0.073252
0.099259
0.092928
0.071103
0.044562
0.061917
0.038322
0.052162
0.035218
-0.586908
-0.574478
-0.556826
-0.571098
-0.572008
-0.566879
-0.005008
-0.023140
-0.007386
-0.001249
0.018352
0.038986
0.010775
-0.064707
-0.041498
-0.081727
-0.128812
-0.605278
-0.621042
-0.618779
-0.560031
0.036511
0.060681
0.035114
0.035915
0.036840
0.033780
0.054814
0.096763
0.084909
0.047485
-0.171069
0.238340
-0.658429
-0.649294
-0.656567
-0.311194
-0.519067
-0.505839
-0.492139
0.059016
0.104371
0.118265
0.076961
0.033290
0.054685
0.021001
-0.578244
-0.580065
-0.639351
-0.618180
-0.579795
-0.608112
-0.628254
-0.614838
-0.629384
-0.000361
-0.021416
0.011513
-0.535588
-0.607074
-0.586864
-0.004650
0.035284
-0.021111
0.052932
0.094880
0.108369
-0.009277
-0.024378
-0.004005
-0.010533
-0.035681
-0.637345
-0.650517
-0.008635
-0.023494
0.011753
0.020793
0.012896
0.002668
-0.021175
-0.001955
0.015654
-0.498826
-0.498583
-0.637970
-0.652104
-0.624804
-0.046953
-0.025479
0.115305
0.087178
0.015315
0.047968
0.021661
0.049379
0.020862
-0.006695
-0.004436
0.018917
-0.657322
-0.668687
-0.689855
-0.648104
-0.688536
-0.666235
-0.711038
-0.637778
-0.007007
-0.118782
0.040112
0.182249
-0.693375
-0.670616
-0.653432
-0.656244
0.016929
0.136847
0.079051
0.063109
0.041027
-0.541391
-0.535559
-0.525719
0.031648
-0.517718
-0.533063
-0.549185
0.052549
-0.541187
-0.650750
-0.678148
-0.638284
-0.012522
0.017714
-0.012221
-0.602824
-0.619912
-0.592963
-0.023562
-0.007811
0.004898
0.025321
0.038651
0.014414
0.030783
-0.538627
-0.536987
-0.497280
-0.552852
-0.669227
-0.694259
-0.617181
0.027364
0.036472
0.003296
0.022099
0.024101
0.020459
-0.630933
-0.651560
-0.650633
-0.401366
-0.531025
-0.540916
-0.006672
-0.041660
0.099643
-0.025998
-0.015839
0.037236
0.037712
0.033986
-0.648401
-0.696702
-0.661318
-0.684661
-0.689638
-0.659830
-0.025024
0.013693
-0.018292
-0.020035
0.111381
0.058594
-0.009343
-0.255653
0.038373
0.121013
0.036523
0.034741
0.039754
0.037614
-0.593464
-0.593652
-0.537294
0.015259
0.005163
0.009174
0.007471
-0.031568
0.006155
-0.013961
-0.714974
-0.589929
-0.558149
-0.580264
-0.654269
-0.678962
-0.721440
-0.489911
-0.519664
-0.494034
-0.060183
-0.046694
-0.006219
-0.520060
-0.526307
-0.520415
-0.492874
-0.501977
0.009102
-0.001705
-0.616100
-0.637671
-0.633171
0.126106
0.060808
-0.551028
-0.612162
-0.009107
-0.001859
-0.018481
0.013281
-0.030179
-0.042189
-0.010889
0.017620
0.032745
0.032683
-0.528501
-0.542773
-0.051672
0.002557
-0.001456
-0.580724
-0.573934
-0.573495
0.023932
-0.656974
-0.621480
-0.671680
0.152578
0.041356
0.024763
-0.647819
-0.643035
0.074225
0.068453
-0.622450
-0.614201
-0.625852
-0.570779
-0.537543
-0.003862
-0.020862
-0.009093
-0.006602
-0.012930
-0.622583
-0.621837
-0.656216
-0.661774
-0.615159
0.090435
0.085216
-0.667357
-0.655226
-0.652296
0.015581
0.014217
-0.486755
-0.541046
-0.507524
-0.511206
0.009380
0.014314
0.003011
-0.655572
-0.634574
-0.637723
-0.626559
-0.631036
-0.619411
-0.665272
-0.640577
-0.671708
-0.637058
0.001563
-0.002471
-0.001621
0.000950
-0.020139
-0.006087
0.001803
-0.656362
-0.655335
-0.655280
-0.517443
-0.462400
-0.438472
-0.464733
-0.684278
-0.677673
-0.656766
-0.648861
-0.649969
-0.663716
0.063685
0.127843
-0.666171
0.029175
-0.007449
-0.635512
-0.075504
-0.664887
0.412139
-0.653474
-0.629342
-0.022255
-0.664176
-0.660480
0.032586
0.002322
-0.012721
-0.039069
-0.048522
-0.006004
-0.000353
-0.017302
0.051106
0.123521
0.060252
0.048348
0.126417
0.106913
-0.604257
-0.605009
-0.602355
-0.599716
0.027798
0.016316
0.030979
-0.044776
-0.005357
-0.501870
-0.516955
0.054678
0.039479
-0.664818
-0.655621
-0.650555
-0.647522
-0.000830
-0.090232
-0.094701
-0.084144
0.088929
0.170383
0.043714
0.190519
0.117080
-0.544206
-0.541350
-0.541578
0.030270
-0.641520
-0.640912
-0.661975
-0.602357
-0.599905
-0.042872
-0.029790
-0.013141
-0.030675
-0.564905
-0.528688
-0.534361
-0.543131
-0.539913
-0.530014
-0.002315
0.000305
0.080919
0.039786
0.050713
0.012365
-0.512021
-0.518423
-0.546072
-0.544973
-0.515975
-0.661258
-0.486140
0.035119
0.001461
-0.010465
-0.022502
-0.031894
-0.565407
-0.653017
-0.691727
-0.665347
-0.663580
-0.645839
-0.633670
-0.599943
-0.612004
-0.598982
-0.677942
0.197931
-0.005853
0.030905
0.012075
-0.006730
-0.037894
-0.037046
0.025820
-0.640278
-0.638456
-0.651697
-0.011352
-0.013954
-0.607242
-0.628895
-0.641482
-0.654478
-0.035710
-0.017774
-0.018574
-0.684482
-0.001036
-0.002673
-0.647746
-0.641808
0.029581
0.021873
0.028625
0.024455
0.004661
0.011321
-0.001207
-0.003163
-0.640524
-0.680178
-0.675372
-0.608834
-0.603182
-0.614850
-0.594322
-0.011020
-0.012461
-0.041917
-0.023751
0.109012
0.081548
0.114260
0.012656
0.018861
0.108612
0.001552
-0.264441
-0.527350
-0.517862
-0.548170
-0.571526
-0.530609
-0.656437
-0.652640
-0.652421
-0.567294
-0.578426
-0.599058
-0.574251
0.099031
0.050043
-0.034047
-0.025757
-0.645609
-0.627188
-0.423193
-0.703078
-0.659014
-0.635054
-0.653357
-0.616159
-0.578047
-0.521941
-0.244262
-0.038290
-0.545759
-0.015882
0.152644
-0.009492
0.205745
0.143768
-0.023395
-0.013858
-0.004237
0.025378
-0.516462
-0.519773
-0.013441
-0.630518
-0.663089
-0.009837
-0.002755
-0.535510
-0.627904
-0.010715
-0.055226
-0.052161
-0.025814
-0.512483
-0.514836
-0.515682
-0.029684
-0.000270
-0.662005
-0.026476
0.017847
-0.114848
-0.636570
-0.630960
-0.683302
0.034939
0.003607
-0.008809
-0.670054
0.035040
0.047045
-0.048646
-0.715862
-0.672954
-0.695100
-0.485152
-0.061430
-0.003576
0.003739
-0.559610
-0.587626
-0.554930
-0.537119
-0.522052
-0.563485
0.002074
-0.009326
0.026435
-0.000109
0.022921
-0.089196
0.021072
-0.236982
-0.054995
-0.520605
-0.509276
-0.552220
-0.518433
-0.385076
-0.535027
-0.532591
-0.520473
-0.054464
-0.031553
-0.649006
-0.627858
-0.642784
-0.644829
-0.635886
-0.581818
-0.634297
-0.020883
-0.018768
-0.536366
-0.525460
-0.536604
0.075794
0.069713
0.141999
-0.023435
-0.661263
-0.509923
-0.016542
0.015255
-0.009732
-0.635698
0.031316
0.023889
0.037508
0.000530
-0.660061
0.003052
0.013305
0.005320
0.017051
0.009578
-0.499922
-0.540923
-0.541647
-0.534337
-0.004750
-0.007919
-0.000298
-0.003887
0.088482
0.127238
0.103700
0.087939
-0.641661
-0.658229
-0.629532
-0.511762
-0.579537
0.015046
0.005322
0.045952
0.009021
0.018591
-0.014704
0.052522
-0.547258
-0.703837
0.058977
0.046856
0.076171
-0.780464
-0.643282
-0.657202
-0.625956
-0.636910
-0.542289
0.104257
0.113777
0.122554
0.076613
-0.047855
-0.530485
-0.535678
-0.605225
0.020359
0.006851
-0.620875
0.029373
0.039873
-0.581964
-0.572050
-0.579425
-0.637283
-0.643688
-0.028455
-0.615497
-0.610675
-0.594870
-0.615392
0.114207
0.096237
0.113528
0.147786
-0.646499
-0.562650
-0.675778
-0.618837
-0.656529
0.008782
0.038277
0.051842
0.078721
0.072543
0.088478
-0.027238
-0.036295
-0.021706
-0.662966
0.039326
-0.655052
-0.643809
-0.627375
-0.662652
-0.650313
-0.667403
-0.602650
-0.652727
0.010249
-0.018367
-0.654998
0.160747
-0.024172
-0.003744
-0.015639
-0.583654
-0.570354
-0.571137
-0.019141
-0.003362
0.015991
0.013411
0.027636
-0.474871
-0.019132
-0.010491
-0.009511
-0.517030
-0.533602
-0.527643
0.114633
0.098227
0.143821
-0.004596
-0.014337
-0.635202
-0.633166
-0.637539
-0.584808
-0.668633
-0.683910
-0.685738
-0.626960
-0.640808
-0.616003
-0.229216
-0.292323
-0.263603
-0.597747
-0.576794
-0.628277
-0.054047
-0.011089
-0.307706
-0.577406
-0.532380
0.027446
-0.018430
0.164193
0.134985
0.132468
0.145031
-0.545771
-0.539485
-0.013969
0.000742
-0.011630
0.040447
0.001975
-0.006930
-0.637220
-0.000396
-0.004451
-0.032734
-0.001936
-0.615305
-0.602122
-0.595467
-0.620549
-0.697567
-0.631681
-0.653080
-0.657438
-0.003697
0.003163
0.021745
-0.678081
-0.675348
-0.637645
-0.669085
-0.537062
0.040209
0.046267
-0.559309
-0.519638
-0.227544
-0.560671
0.112337
0.202829
-0.552618
-0.590670
-0.330961
-0.596712
-0.011947
-0.025931
-0.013078
-0.570225
-0.563880
-0.572666
0.049837
0.171641
0.068693
-0.633920
-0.555856
-0.583305
-0.580195
-0.534834
-0.590409
-0.625754
-0.623356
-0.652617
-0.009250
-0.625841
-0.635537
-0.655856
-0.650829
0.008169
0.025203
0.018285
-0.028930
-0.010048
-0.554099
-0.522857
-0.513991
-0.004298
-0.012985
-0.020199
-0.010622
-0.017846
-0.524088
-0.520768
-0.550231
-0.553057
-0.702086
-0.612605
0.107235
0.133200
0.123247
0.053768
-0.532133
-0.537912
-0.130479
-0.126725
-0.014214
0.013433
-0.001097
0.005608
-0.674899
-0.677379
-0.007451
-0.011524
-0.542139
-0.483825
-0.011217
-0.013885
0.013035
-0.014902
-0.563960
-0.542691
-0.010539
-0.644156
-0.648675
-0.663872
0.003746
0.005615
-0.603091
-0.604373
-0.605936
-0.665780
-0.652862
-0.650139
-0.645882
0.007507
0.006888
-0.008923
-0.620975
-0.627350
-0.654251
0.104139
0.054336
0.075255
0.103693
-0.598502
-0.690565
-0.572805
-0.628642
0.086074
0.076909
0.091799
-0.649239
0.071871
-0.606245
0.010996
-0.095142
-0.059791
-0.012331
0.073520
-0.637117
-0.644742
-0.637444
0.001033
0.006421
0.020138
0.140483
0.114319
0.050028
-0.137430
-0.062912
0.104943
0.114115
0.131837
0.010855
-0.095878
-0.045681
-0.063404
0.061989
-0.010802
0.060891
0.055251
0.023214
-0.537417
-0.013904
-0.008092
-0.005269
-0.019814
-0.019711
-0.504454
0.045891
-0.681418
-0.679060
-0.669101
-0.640362
-0.027236
-0.676532
-0.671249
-0.675736
-0.642720
-0.640679
0.107717
-0.510991
-0.540624
-0.511654
-0.498838
-0.011036
-0.527722
-0.546282
-0.525503
-0.534977
-0.543841
0.000389
-0.620772
-0.622849
-0.639625
0.001730
-0.641752
-0.651242
-0.002968
0.032611
0.033744
0.086925
-0.674740
0.149638
0.104962
0.033721
-0.641976
-0.637804
-0.640219
0.014304
0.006060
0.004078
-0.698091
-0.551781
-0.620750
-0.542313
-0.580699
-0.588583
-0.597016
-0.691751
-0.688558
-0.676633
-0.624755
-0.585278
-0.551610
0.036086
-0.545757
-0.625505
0.059631
0.069796
0.045974
-0.581457
-0.577349
-0.018206
-0.027783
-0.065516
-0.035460
-0.017459
0.068162
-0.532248
-0.643977
-0.637501
0.026243
-0.014158
-0.004777
-0.650161
-0.648134
-0.642947
0.024438
0.024378
0.017936
-0.551870
-0.552713
-0.568760
-0.565682
-0.522536
-0.535151
-0.014945
-0.005537
0.031392
0.007223
-0.551472
-0.536592
-0.525767
-0.541203
-0.644215
-0.602774
-0.663933
-0.634466
-0.529794
-0.538238
-0.523245
-0.038156
-0.042696
-0.015600
-0.013568
-0.578185
-0.594859
-0.619562
-0.680626
-0.680679
0.131801
-0.012077
-0.031228
0.050862
0.077119
-0.025139
-0.691665
0.002276
-0.563105
-0.575132
-0.571165
-0.559916
-0.614382
-0.637196
-0.623548
-0.605556
-0.037090
-0.012543
-0.050369
-0.642974
-0.009384
-0.027977
-0.004491
-0.071658
-0.539729
-0.754442
-0.545153
0.109039
0.126733
0.103864
-0.528942
-0.561468
-0.017528
-0.629756
-0.009045
-0.003449
-0.000348
0.013720
-0.062903
0.018147
0.009122
-0.035433
-0.035459
-0.542324
-0.541604
0.054196
0.056300
0.113264
-0.611002
-0.720700
-0.696347
0.133322
-0.659056
-0.656802
-0.683036
-0.584412
-0.650138
-0.655542
-0.681954
-0.816216
-0.568045
-0.561907
-0.565238
-0.011606
-0.203864
-0.005980
-0.014427
-0.534503
-0.559752
-0.537900
-0.570017
-0.568198
-0.590983
-0.502202
-0.550877
-0.636816
-0.659346
-0.660933
-0.616165
-0.646550
-0.613937
0.005182
0.021354
-0.016338
-0.653054
-0.649489
-0.646966
-0.165572
-0.241885
-0.019104
-0.014196
-0.531178
-0.645185
-0.639549
-0.001774
-0.003351
-0.011391
-0.039582
-0.004998
-0.542927
-0.552988
-0.656388
0.020732
0.035501
-0.638144
0.049774
0.064517
0.042278
0.041169
-0.643756
-0.694191
-0.620068
-0.529836
-0.568913
-0.560154
-0.003540
0.003826
-0.410539
-0.186790
-0.594115
-0.476261
-0.214283
-0.161114
-0.576336
-0.564899
-0.011713
-0.019863
-0.014170
-0.001518
-0.638521
-0.012031
-0.002329
-0.006830
-0.557197
-0.545507
0.040248
0.114527
0.023624
0.051320
0.082244
0.063267
-0.005524
-0.023188
0.004791
-0.010050
0.061581
-0.006760
-0.020200
-0.571056
-0.575497
-0.555737
-0.567751
-0.067225
-0.119878
-0.141454
0.073964
-0.064378
-0.248894
-0.102839
-0.328668
0.061848
0.039784
0.028540
-0.538457
-0.545930
0.033519
0.110105
-0.062307
0.004030
0.024725
0.003561
0.000284
-0.019958
0.046711
0.071196
0.080183
-0.031271
-0.008700
0.041330
-0.011641
0.142960
0.126523
0.005078
0.114544
0.115519
0.145533
-0.064880
-0.537972
-0.559203
-0.548053
-0.543699
-0.557468
0.040068
0.040971
0.059711
0.026543
0.057412
0.102924
0.136652
0.082588
-0.558624
-0.557782
-0.534608
-0.557021
-0.568818
-0.546677
-0.553884
-0.526020
-0.004026
-0.015680
-0.535995
-0.006554
0.144435
0.078903
0.108560
-0.015971
0.023968
-0.142242
0.001668
-0.017992
-0.642225
-0.642680
-0.022842
-0.054139
0.014398
-0.013122
-0.651986
-0.645996
-0.642827
-0.658442
-0.566652
-0.575300
-0.567924
-0.558877
-0.565932
-0.537457
-0.021461
-0.008895
-0.547951
-0.534024
-0.535993
-0.527237
0.082268
0.089939
0.105329
0.090669
0.057936
-0.522956
-0.529274
-0.527962
0.128757
0.098370
0.104004
-0.035046
-0.033127
-0.013796
-0.159446
-0.166518
-0.373225
0.121967
-0.108731
-0.236011
-0.525471
-0.555598
-0.548960
-0.024470
0.002490
0.137166
-0.001386
-0.531475
-0.542017
-0.567839
0.054281
-0.639997
-0.538542
-0.005436
0.001234
0.003638
-0.001031
-0.010579
-0.000661
-0.552711
-0.598629
-0.020902
-0.031897
-0.001546
-0.643443
-0.020492
-0.001047
-0.028509
0.005694
-0.001449
-0.549374
-0.551085
0.006264
-0.015807
0.003254
-0.015472
-0.631823
-0.589000
-0.624825
-0.628307
-0.030547
-0.011529
-0.018372
-0.040164
0.009207
-0.027001
-0.545671
-0.556199
-0.021236
-0.022591
-0.025439
-0.004597
-0.036470
-0.626400
-0.625565
-0.607749
-0.636480
-0.619487
-0.618719
-0.641748
-0.033667
-0.560604
-0.557640
-0.562690
-0.542313
0.088340
0.023850
0.082164
0.071913
0.005059
0.009736
0.005898
-0.013012
-0.011907
-0.005147
-0.028389
-0.501955
-0.669667
-0.413474
-0.396291
-0.149322
-0.090641
-0.095151
0.014750
-0.564908
-0.563029
-0.579597
-0.559125
-0.008161
-0.654416
-0.644403
0.034419
-0.042717
0.078225
0.023916
-0.017089
-0.555735
-0.552206
-0.018121
-0.086399
-0.009950
0.000324
-0.013495
0.066927
0.062878
0.061188
-0.332928
-0.660539
-0.555149
-0.551636
-0.566016
-0.545104
0.004755
-0.549800
-0.565503
-0.552973
-0.558898
-0.009455
-0.066489
-0.003811
0.047151
0.056859
0.071833
0.050268
0.057012
-0.003968
0.001899
0.002103
-0.009867
-0.078905
-0.045562
-0.564908
-0.021706
-0.035105
-0.015268
-0.007673
-0.002560
0.006060
-0.018828
-0.539128
-0.016675
-0.005878
-0.644887
0.054253
0.052933
0.069056
-0.547400
-0.546577
-0.649358
-0.647672
-0.609281
-0.613016
-0.675413
-0.677304
-0.679254
-0.671755
0.056116
0.079324
-0.021030
-0.546733
-0.559602
-0.073576
-0.040596
-0.016038
0.045605
-0.481493
-0.605612
-0.602227
-0.549864
-0.642883
-0.663001
-0.664856