# vtk DataFile Version 2.0
Test
ASCII
DATASET POLYDATA
POINTS 7607 float
0.000000 0.000000 0.000000
1.000000 0.000000 0.000000
1.000000 0.800000 0.000000
1.000000 1.000000 0.000000
0.000000 1.000000 0.000000
0.000000 0.200000 0.000000
0.300000 0.330000 0.000000
0.700000 0.680000 0.000000
0.012987 0.000000 0.000000
0.025974 0.000000 0.000000
0.038961 0.000000 0.000000
0.051948 0.000000 0.000000
0.064935 0.000000 0.000000
0.077922 0.000000 0.000000
0.090909 0.000000 0.000000
0.103896 0.000000 0.000000
0.116883 0.000000 0.000000
0.129870 0.000000 0.000000
0.142857 0.000000 0.000000
0.155844 0.000000 0.000000
0.168831 0.000000 0.000000
0.181818 0.000000 0.000000
0.194805 0.000000 0.000000
0.207792 0.000000 0.000000
0.220779 0.000000 0.000000
0.233766 0.000000 0.000000
0.246753 0.000000 0.000000
0.259740 0.000000 0.000000
0.272727 0.000000 0.000000
0.285714 0.000000 0.000000
0.298701 0.000000 0.000000
0.311688 0.000000 0.000000
0.324675 0.000000 0.000000
0.337662 0.000000 0.000000
0.350649 0.000000 0.000000
0.363636 0.000000 0.000000
0.376623 0.000000 0.000000
0.389610 0.000000 0.000000
0.402597 0.000000 0.000000
0.415584 0.000000 0.000000
0.428571 0.000000 0.000000
0.441558 0.000000 0.000000
0.454545 0.000000 0.000000
0.467532 0.000000 0.000000
0.480519 0.000000 0.000000
0.493506 0.000000 0.000000
0.506494 0.000000 0.000000
0.519481 0.000000 0.000000
0.532468 0.000000 0.000000
0.545455 0.000000 0.000000
0.558442 0.000000 0.000000
0.571429 0.000000 0.000000
0.584416 0.000000 0.000000
0.597403 0.000000 0.000000
0.610390 0.000000 0.000000
0.623377 0.000000 0.000000
0.636364 0.000000 0.000000
0.649351 0.000000 0.000000
0.662338 0.000000 0.000000
0.675325 0.000000 0.000000
0.688312 0.000000 0.000000
0.701299 0.000000 0.000000
0.714286 0.000000 0.000000
0.727273 0.000000 0.000000
0.740260 0.000000 0.000000
0.753247 0.000000 0.000000
0.766234 0.000000 0.000000
0.779221 0.000000 0.000000
0.792208 0.000000 0.000000
0.805195 0.000000 0.000000
0.818182 0.000000 0.000000
0.831169 0.000000 0.000000
0.844156 0.000000 0.000000
0.857143 0.000000 0.000000
0.870130 0.000000 0.000000
0.883117 0.000000 0.000000
0.896104 0.000000 0.000000
0.909091 0.000000 0.000000
0.922078 0.000000 0.000000
0.935065 0.000000 0.000000
0.948052 0.000000 0.000000
0.961039 0.000000 0.000000
0.974026 0.000000 0.000000
0.987013 0.000000 0.000000
1.000000 0.012903 0.000000
1.000000 0.025806 0.000000
1.000000 0.038710 0.000000
1.000000 0.051613 0.000000
1.000000 0.064516 0.000000
1.000000 0.077419 0.000000
1.000000 0.090323 0.000000
1.000000 0.103226 0.000000
1.000000 0.116129 0.000000
1.000000 0.129032 0.000000
1.000000 0.141935 0.000000
1.000000 0.154839 0.000000
1.000000 0.167742 0.000000
1.000000 0.180645 0.000000
1.000000 0.193548 0.000000
1.000000 0.206452 0.000000
1.000000 0.219355 0.000000
1.000000 0.232258 0.000000
1.000000 0.245161 0.000000
1.000000 0.258065 0.000000
1.000000 0.270968 0.000000
1.000000 0.283871 0.000000
1.000000 0.296774 0.000000
1.000000 0.309677 0.000000
1.000000 0.322581 0.000000
1.000000 0.335484 0.000000
1.000000 0.348387 0.000000
1.000000 0.361290 0.000000
1.000000 0.374194 0.000000
1.000000 0.387097 0.000000
1.000000 0.400000 0.000000
1.000000 0.412903 0.000000
1.000000 0.425806 0.000000
1.000000 0.438710 0.000000
1.000000 0.451613 0.000000
1.000000 0.464516 0.000000
1.000000 0.477419 0.000000
1.000000 0.490323 0.000000
1.000000 0.503226 0.000000
1.000000 0.516129 0.000000
1.000000 0.529032 0.000000
1.000000 0.541935 0.000000
1.000000 0.554839 0.000000
1.000000 0.567742 0.000000
1.000000 0.580645 0.000000
1.000000 0.593548 0.000000
1.000000 0.606452 0.000000
1.000000 0.619355 0.000000
1.000000 0.632258 0.000000
1.000000 0.645161 0.000000
1.000000 0.658065 0.000000
1.000000 0.670968 0.000000
1.000000 0.683871 0.000000
1.000000 0.696774 0.000000
1.000000 0.709677 0.000000
1.000000 0.722581 0.000000
1.000000 0.735484 0.000000
1.000000 0.748387 0.000000
1.000000 0.761290 0.000000
1.000000 0.774194 0.000000
1.000000 0.787097 0.000000
1.000000 0.812500 0.000000
1.000000 0.825000 0.000000
1.000000 0.837500 0.000000
1.000000 0.850000 0.000000
1.000000 0.862500 0.000000
1.000000 0.875000 0.000000
1.000000 0.887500 0.000000
1.000000 0.900000 0.000000
1.000000 0.912500 0.000000
1.000000 0.925000 0.000000
1.000000 0.937500 0.000000
1.000000 0.950000 0.000000
1.000000 0.962500 0.000000
1.000000 0.975000 0.000000
1.000000 0.987500 0.000000
0.987013 1.000000 0.000000
0.974026 1.000000 0.000000
0.961039 1.000000 0.000000
0.948052 1.000000 0.000000
0.935065 1.000000 0.000000
0.922078 1.000000 0.000000
0.909091 1.000000 0.000000
0.896104 1.000000 0.000000
0.883117 1.000000 0.000000
0.870130 1.000000 0.000000
0.857143 1.000000 0.000000
0.844156 1.000000 0.000000
0.831169 1.000000 0.000000
0.818182 1.000000 0.000000
0.805195 1.000000 0.000000
0.792208 1.000000 0.000000
0.779221 1.000000 0.000000
0.766234 1.000000 0.000000
0.753247 1.000000 0.000000
0.740260 1.000000 0.000000
0.727273 1.000000 0.000000
0.714286 1.000000 0.000000
0.701299 1.000000 0.000000
0.688312 1.000000 0.000000
0.675325 1.000000 0.000000
0.662338 1.000000 0.000000
0.649351 1.000000 0.000000
0.636364 1.000000 0.000000
0.623377 1.000000 0.000000
0.610390 1.000000 0.000000
0.597403 1.000000 0.000000
0.584416 1.000000 0.000000
0.571429 1.000000 0.000000
0.558442 1.000000 0.000000
0.545455 1.000000 0.000000
0.532468 1.000000 0.000000
0.519481 1.000000 0.000000
0.506494 1.000000 0.000000
0.493506 1.000000 0.000000
0.480519 1.000000 0.000000
0.467532 1.000000 0.000000
0.454545 1.000000 0.000000
0.441558 1.000000 0.000000
0.428571 1.000000 0.000000
0.415584 1.000000 0.000000
0.402597 1.000000 0.000000
0.389610 1.000000 0.000000
0.376623 1.000000 0.000000
0.363636 1.000000 0.000000
0.350649 1.000000 0.000000
0.337662 1.000000 0.000000
0.324675 1.000000 0.000000
0.311688 1.000000 0.000000
0.298701 1.000000 0.000000
0.285714 1.000000 0.000000
0.272727 1.000000 0.000000
0.259740 1.000000 0.000000
0.246753 1.000000 0.000000
0.233766 1.000000 0.000000
0.220779 1.000000 0.000000
0.207792 1.000000 0.000000
0.194805 1.000000 0.000000
0.181818 1.000000 0.000000
0.168831 1.000000 0.000000
0.155844 1.000000 0.000000
0.142857 1.000000 0.000000
0.129870 1.000000 0.000000
0.116883 1.000000 0.000000
0.103896 1.000000 0.000000
0.090909 1.000000 0.000000
0.077922 1.000000 0.000000
0.064935 1.000000 0.000000
0.051948 1.000000 0.000000
0.038961 1.000000 0.000000
0.025974 1.000000 0.000000
0.012987 1.000000 0.000000
0.000000 0.987097 0.000000
0.000000 0.974194 0.000000
0.000000 0.961290 0.000000
0.000000 0.948387 0.000000
0.000000 0.935484 0.000000
0.000000 0.922581 0.000000
0.000000 0.909677 0.000000
0.000000 0.896774 0.000000
0.000000 0.883871 0.000000
0.000000 0.870968 0.000000
0.000000 0.858065 0.000000
0.000000 0.845161 0.000000
0.000000 0.832258 0.000000
0.000000 0.819355 0.000000
0.000000 0.806452 0.000000
0.000000 0.793548 0.000000
0.000000 0.780645 0.000000
0.000000 0.767742 0.000000
0.000000 0.754839 0.000000
0.000000 0.741935 0.000000
0.000000 0.729032 0.000000
0.000000 0.716129 0.000000
0.000000 0.703226 0.000000
0.000000 0.690323 0.000000
0.000000 0.677419 0.000000
0.000000 0.664516 0.000000
0.000000 0.651613 0.000000
0.000000 0.638710 0.000000
0.000000 0.625806 0.000000
0.000000 0.612903 0.000000
0.000000 0.600000 0.000000
0.000000 0.587097 0.000000
0.000000 0.574194 0.000000
0.000000 0.561290 0.000000
0.000000 0.548387 0.000000
0.000000 0.535484 0.000000
0.000000 0.522581 0.000000
0.000000 0.509677 0.000000
0.000000 0.496774 0.000000
0.000000 0.483871 0.000000
0.000000 0.470968 0.000000
0.000000 0.458065 0.000000
0.000000 0.445161 0.000000
0.000000 0.432258 0.000000
0.000000 0.419355 0.000000
0.000000 0.406452 0.000000
0.000000 0.393548 0.000000
0.000000 0.380645 0.000000
0.000000 0.367742 0.000000
0.000000 0.354839 0.000000
0.000000 0.341935 0.000000
0.000000 0.329032 0.000000
0.000000 0.316129 0.000000
0.000000 0.303226 0.000000
0.000000 0.290323 0.000000
0.000000 0.277419 0.000000
0.000000 0.264516 0.000000
0.000000 0.251613 0.000000
0.000000 0.238710 0.000000
0.000000 0.225806 0.000000
0.000000 0.212903 0.000000
0.000000 0.187500 0.000000
0.000000 0.175000 0.000000
0.000000 0.162500 0.000000
0.000000 0.150000 0.000000
0.000000 0.137500 0.000000
0.000000 0.125000 0.000000
0.000000 0.112500 0.000000
0.000000 0.100000 0.000000
0.000000 0.087500 0.000000
0.000000 0.075000 0.000000
0.000000 0.062500 0.000000
0.000000 0.050000 0.000000
0.000000 0.037500 0.000000
0.000000 0.025000 0.000000
0.000000 0.012500 0.000000
0.309756 0.338537 0.000000
0.319512 0.347073 0.000000
0.329268 0.355610 0.000000
0.339024 0.364146 0.000000
0.348780 0.372683 0.000000
0.358537 0.381220 0.000000
0.368293 0.389756 0.000000
0.378049 0.398293 0.000000
0.387805 0.406829 0.000000
0.397561 0.415366 0.000000
0.407317 0.423902 0.000000
0.417073 0.432439 0.000000
0.426829 0.440976 0.000000
0.436585 0.449512 0.000000
0.446341 0.458049 0.000000
0.456098 0.466585 0.000000
0.465854 0.475122 0.000000
0.475610 0.483659 0.000000
0.485366 0.492195 0.000000
0.495122 0.500732 0.000000
0.504878 0.509268 0.000000
0.514634 0.517805 0.000000
0.524390 0.526341 0.000000
0.534146 0.534878 0.000000
0.543902 0.543415 0.000000
0.553659 0.551951 0.000000
0.563415 0.560488 0.000000
0.573171 0.569024 0.000000
0.582927 0.577561 0.000000
0.592683 0.586098 0.000000
0.602439 0.594634 0.000000
0.612195 0.603171 0.000000
0.621951 0.611707 0.000000
0.631707 0.620244 0.000000
0.641463 0.628780 0.000000
0.651220 0.637317 0.000000
0.660976 0.645854 0.000000
0.670732 0.654390 0.000000
0.680488 0.662927 0.000000
0.690244 0.671463 0.000000
0.011538 0.205000 0.000000
0.023077 0.210000 0.000000
0.034615 0.215000 0.000000
0.046154 0.220000 0.000000
0.057692 0.225000 0.000000
0.069231 0.230000 0.000000
0.080769 0.235000 0.000000
0.092308 0.240000 0.000000
0.103846 0.245000 0.000000
0.115385 0.250000 0.000000
0.126923 0.255000 0.000000
0.138462 0.260000 0.000000
0.150000 0.265000 0.000000
0.161538 0.270000 0.000000
0.173077 0.275000 0.000000
[...]
POINT_DATA 7607
SCALARS UX float 1
LOOKUP_TABLE default
0.007005
0.001855
0.116883
-0.689266
-0.778001
-0.334217
-0.469568
-0.402353
-0.002664
0.000149
0.002274
0.001540
0.012225
0.000360
-0.000254
0.011310
0.000339
0.001265
-0.000343
0.000057
0.000248
-0.000109
-0.000203
0.000195
-0.000152
0.000350
0.000141
-0.001642
-0.000260
-0.000226
-0.000945
-0.010139
0.000310
-0.000274
-0.000199
-0.000516
0.000460
0.000351
0.002557
0.000045
0.000374
-0.002110
0.000153
0.004128
0.000239
-0.000518
-0.002909
-0.000021
-0.000469
0.000078
0.000037
-0.004178
-0.000292
-0.001340
-0.000150
-0.001075
0.000223
-0.000059
0.000093
-0.001465
-0.001997
0.000649
-0.000365
-0.000772
0.003575
0.001169
-0.007277
0.000271
0.002044
0.000844
-0.001381
-0.000504
-0.005542
0.000414
0.005488
0.003326
-0.006472
0.000117
-0.000927
0.002387
0.000077
0.001050
-0.000201
-0.010183
-0.000066
0.013615
0.008941
0.014533
0.007747
0.013436
0.010825
0.020310
0.032950
0.037639
0.032143
0.044643
0.028151
0.051713
0.032556
0.031188
0.047583
0.052416
0.047701
0.059820
0.052629
0.060803
0.068477
0.051627
0.064526
0.076768
0.061984
0.087203
0.075114
0.078200
0.083065
0.071932
0.098272
0.078455
0.102649
0.077004
0.097808
0.107446
0.086188
0.096738
0.120406
0.097429
0.117878
0.113619
0.112518
0.123228
0.124318
0.115705
0.141817
0.108800
0.117666
0.137356
0.130225
0.136048
0.149636
0.124204
0.141320
0.064990
0.162051
0.138950
0.137859
-0.392367
-0.001833
-0.215253
-0.268930
-0.515986
-0.556628
-0.603712
-0.554585
-0.689083
-0.608760
-0.694414
-0.647499
-0.660149
-0.686457
-0.673685
-0.664494
-0.680213
-0.680299
-0.698916
-0.686037
-0.692353
-0.684172
-0.692888
-0.694027
-0.695974
-0.692334
-0.698024
-0.694807
-0.692948
-0.701828
-0.698007
-0.703878
-0.708293
-0.705456
-0.709905
-0.706971
-0.707511
-0.709074
-0.711083
-0.715582
-0.710390
-0.718415
-0.715185
-0.717516
-0.720609
-0.718019
-0.726190
-0.723235
-0.727779
-0.729150
-0.727084
-0.725721
-0.729327
-0.729223
-0.728721
-0.729362
-0.731651
-0.737350
-0.728868
-0.729877
-0.741218
-0.732415
-0.739922
-0.733471
-0.744578
-0.746743
-0.750001
-0.751764
-0.752688
-0.750115
-0.759446
-0.751433
-0.761762
-0.765351
-0.753772
-0.771344
-0.764372
-0.765104
-0.761804
-0.772626
-0.776311
-0.772738
-0.778011
-0.780410
-0.777322
-0.777482
-0.781122
-0.783985
-0.785112
-0.784500
-0.788137
-0.789770
-0.789950
-0.790911
-0.778041
-0.784649
-0.773069
-0.780663
-0.781953
-0.790684
-0.784428
-0.783303
-0.807620
-0.791692
-0.794006
-0.789243
-0.792783
-0.803032
-0.797589
-0.795034
-0.787119
-0.800064
-0.800362
-0.797134
-0.794822
-0.806249
-0.794486
-0.796459
-0.809563
-0.804948
-0.802327
-0.780475
-0.770953
-0.786824
-0.800825
-0.803087
-0.806848
-0.797921
-0.810414
-0.807220
-0.821060
-0.804271
-0.812104
-0.802222
-0.810542
-0.811840
-0.804866
-0.812703
-0.824226
-0.806748
-0.808405
-0.801571
-0.817632
-0.782825
-0.807685
-0.774442
-0.747897
-0.723796
-0.755900
-0.723330
-0.465297
-0.670623
-0.488234
-0.393974
-0.380354
-0.205594
0.003448
-0.114604
-0.049563
-0.042819
-0.020358
-0.032535
-0.009140
-0.024927
-0.019624
-0.008876
-0.008132
-0.219579
-0.270346
-0.220097
-0.561394
-0.654850
-0.702284
-0.708423
-0.488854
-0.474721
-0.705553
-0.652103
-0.235044
0.042033
-0.025460
-0.471680
-0.204344
0.028796
-0.071231
-0.332851
-0.397728
0.014654
-0.237947
-0.763500
-0.759279
-0.631362
-0.466370
-0.330719
-0.334143
0.038209
-0.002463
0.186239
-0.081778
-0.249769
0.227427
-0.030230
-0.029565
-0.614389
-0.507760
-0.604500
-0.559838
-0.509826
-0.605093
-0.392747
-0.581148
-0.338705
-0.650362
-0.723180
-0.541013
-0.804950
0.124334
-0.527769
-0.334463
-0.803665
-0.634682
-0.535138
-1.085021
-0.772492
-0.219725
-0.293427
-0.331477
-0.359937
-0.092582
-0.441891
-0.184905
-0.049115
0.087502
0.128725
-0.036625
0.254873
-0.204018
0.086606
-0.042984
-0.077993
-0.050688
-0.182502
-0.094925
-0.109463
-0.130188
0.060713
-0.261547
0.078235
-0.038501
-0.109148
0.086627
-0.009842
-0.130963
-0.005538
0.089602
-0.264225
-0.701870
-0.716998
-0.718144
-0.702904
0.051121
0.028315
0.036364
-0.544924
-0.810730
-0.442378
-0.698740
-0.741920
-0.522009
-0.008119
0.009378
0.015223
-0.760793
-0.766004
-0.771899
-0.795485
0.037686
0.009353
0.018320
0.014189
-0.154992
0.066123
-0.207308
-0.085849
-0.001069
0.001021
-0.705891
-0.738275
-0.894560
-0.751180
-0.131026
-0.154036
0.013033
0.004960
-0.003294
-0.001715
-0.771234
-0.768518
-0.781227
-0.785617
-0.052768
-0.599196
-0.154185
-0.705484
0.108631
0.095798
0.067174
-0.672195
-0.697515
0.038613
0.037060
0.019427
0.049105
-0.723870
-0.716094
-0.706199
0.286072
-0.937130
-0.708268
-0.674605
-0.671956
-0.688278
-0.022706
-0.076144
-0.037292
-0.689622
-0.769750
-0.772119
-0.017431
0.013877
0.041191
-0.006486
-0.014911
-0.014281
-0.738218
-0.739219
-0.739596
-0.019502
-0.719430
-0.721522
-0.701359
0.031264
0.031698
0.002713
0.033464
0.003323
-0.010118
-0.016792
-0.152629
0.022810
-0.016894
-0.020465
0.059355
0.111065
0.127678
-0.648684
-0.530663
-0.783027
-0.622827
-0.332271
-0.781460
-0.648471
-0.734797
-0.706586
-0.753914
-0.693383
-0.018179
0.010632
0.006936
0.009392
0.049776
0.047136
-0.719160
-0.707968
-0.702278
0.014712
0.027606
0.022844
-0.652484
-0.638637
-0.698901
-0.670335
0.033174
0.060093
0.129753
0.038177
-0.005726
-0.715647
-0.033994
-0.007581
-0.005335
-0.007284
-0.787483
-0.649535
-0.765668
-0.804242
-0.717260
-0.748454
-0.736957
-0.726256
-0.686020
-0.694435
-0.700067
-0.697216
-0.388720
-0.008203
-0.006627
-0.002590
0.000947
-0.810382
-0.783760
-0.810166
-0.009941
-0.008170
-0.001208
-0.798062
-0.773720
-0.775938
-0.013755
-0.679894
-0.689980
-0.711158
-0.775462
-0.778664
-0.756014
-0.773649
-0.767388
-0.776734
-0.773336
0.096497
0.068475
0.101432
0.088566
0.084368
0.047539
0.067455
0.035406
0.044610
0.032264
-0.733307
-0.723991
-0.708555
-0.722814
-0.720257
-0.717471
-0.007720
-0.017427
-0.006034
-0.003073
0.015695
0.031951
0.009654
-0.140741
0.042380
-0.093276
-0.140208
-0.757744
-0.769246
-0.757122
-0.725215
0.033573
0.050831
0.030811
0.034381
0.035648
0.032465
0.049518
0.085710
0.086322
0.069552
-0.054064
0.476353
-0.791612
-0.782254
-0.786999
-0.352904
-0.613493
-0.691218
-0.472648
0.066641
0.117552
0.136851
0.089669
0.019262
0.039777
0.034119
-0.726690
-0.727348
-0.789837
-0.759212
-0.745688
-0.747224
-0.767153
-0.755684
-0.768238
-0.000044
-0.016758
0.008311
-0.727574
-0.751365
-0.733582
-0.003225
0.030328
-0.017465
0.103872
0.092725
0.117197
-0.007907
-0.023175
-0.000637
-0.001876
-0.014111
-0.776897
-0.785360
-0.007225
-0.014885
0.003744
0.018066
0.010806
0.002752
-0.017549
-0.002248
0.013748
-0.652679
-0.667031
-0.776551
-0.786537
-0.767481
-0.045183
-0.035169
0.106307
0.119438
0.013784
0.079267
0.020155
0.035252
0.016268
-0.003447
-0.003133
0.015388
-0.787453
-0.792515
-0.810933
-0.773668
-0.819599
-0.759541
-0.829574
-0.752876
0.055405
-0.079062
0.036664
0.121329
-0.815691
-0.790894
-0.781844
-0.760318
0.068423
0.141566
0.061473
0.067880
0.035970
-0.691818
-0.682308
-0.678418
0.038893
-0.672382
-0.688353
-0.696984
0.126237
-0.683412
-0.783050
-0.811448
-0.773190
-0.010840
0.016143
-0.014490
-0.747548
-0.756967
-0.740990
-0.020800
-0.006830
0.002955
-0.177369
0.031010
0.012062
0.056944
-0.688696
-0.683711
-0.652577
-0.702668
-0.766208
-0.805090
-0.751506
0.022579
0.030583
0.003009
0.018544
0.020725
0.018980
-0.769035
-0.788291
-0.785473
-0.606664
-0.702987
-0.775776
-0.036567
-0.030639
0.124664
0.025777
-0.012004
0.030839
0.031349
0.028634
-0.767225
-0.822286
-0.767349
-0.809902
-0.815338
-0.783393
-0.019828
0.012102
-0.013400
-0.015666
0.094024
0.097303
0.054633
-0.155865
-0.019276
0.046152
0.032636
0.032710
0.035257
0.031813
-0.736651
-0.750580
-0.708196
0.013140
0.007335
0.009162
0.005096
-0.024325
0.001640
-0.010868
-0.821654
-0.732416
-0.711218
-0.738110
-0.780135
-0.802523
-0.838155
-0.612346
-0.659404
-0.622776
-0.063452
-0.041115
-0.017419
-0.677652
-0.666131
-0.682351
-0.636630
-0.684284
0.006954
-0.000406
-0.760611
-0.772881
-0.771325
0.112105
0.081554
-0.711325
-0.749381
-0.021096
-0.008498
-0.017175
0.012020
-0.033503
-0.039506
-0.012564
0.017040
0.026441
0.027223
-0.673748
-0.690483
-0.054887
0.003143
-0.000588
-0.727560
-0.721672
-0.722566
0.020832
-0.795196
-0.761267
-0.773931
0.122936
0.034242
0.021040
-0.785603
-0.779911
0.093826
0.080216
-0.763152
-0.754789
-0.764604
-0.710282
-0.694282
-0.001886
-0.017932
-0.006358
0.000931
-0.015676
-0.761785
-0.760149
-0.790278
-0.794815
-0.752861
0.097474
0.089630
-0.795641
-0.787043
-0.785311
0.013476
0.011889
-0.635939
-0.670340
-0.681676
-0.673083
0.008972
0.012701
0.004171
-0.789275
-0.771328
-0.772735
-0.766728
-0.768997
-0.760410
-0.795145
-0.771050
-0.805844
-0.767279
0.001012
-0.001868
-0.001180
0.000553
-0.019306
-0.009927
-0.001740
-0.792301
-0.790543
-0.789099
-0.658148
-0.618830
-0.557386
-0.626174
-0.783293
-0.785279
-0.786356
-0.784139
-0.786118
-0.798774
0.100331
0.130605
-0.800126
0.024746
-0.005717
-0.774058
-0.134869
-0.354301
-0.103931
-0.789020
-0.767144
-0.019107
-0.800918
-0.795659
0.028953
0.001355
-0.001486
-0.048938
-0.046947
-0.005087
-0.000249
-0.012497
0.064465
0.119827
0.074262
0.067777
0.122688
0.110377
-0.746153
-0.748645
-0.746342
-0.743007
0.023934
0.015255
0.026933
-0.044889
-0.007505
-0.660096
-0.672053
0.057202
0.040216
-0.799708
-0.790074
-0.786514
-0.782783
0.000542
-0.077366
-0.069633
-0.072034
0.031248
0.187946
0.097371
0.162379
0.211491
-0.682629
-0.702158
-0.708931
0.026120
-0.775243
-0.770473
-0.795554
-0.754452
-0.692480
-0.031577
-0.018386
-0.006213
-0.034881
-0.723205
-0.679279
-0.692579
-0.686073
-0.688257
-0.677654
-0.003391
-0.000991
0.107731
0.038311
0.043633
0.015725
-0.687746
-0.698705
-0.636494
-0.729067
-0.668781
-0.797793
-0.644893
0.029577
0.001841
-0.005559
-0.032186
-0.027049
-0.690118
-0.734789
-0.811336
-0.794101
-0.784823
-0.810900
-0.638504
-0.746625
-0.753962
-0.745538
-0.802470
0.291460
-0.076025
0.010180
0.008801
0.026075
-0.047369
-0.040424
0.029904
-0.778840
-0.771514
-0.785099
-0.008904
-0.010857
-0.748612
-0.767713
-0.775561
-0.782160
0.007643
-0.005591
-0.028331
-0.793858
0.000871
-0.003693
-0.779809
-0.778121
0.028903
0.016488
0.025955
0.067767
0.003883
0.009799
-0.000430
-0.004475
-0.776183
-0.811365
-0.808056
-0.755198
-0.749689
-0.756011
-0.736512
-0.007550
-0.007678
-0.047973
-0.014227
0.144618
0.063973
0.130505
0.011233
0.056426
0.167927
0.001125
-0.474560
-0.684485
-0.677708
-0.700087
-0.725040
-0.688404
-0.791858
-0.787911
-0.788572
-0.717782
-0.727959
-0.745163
-0.723406
0.089351
0.068560
-0.026700
-0.016267
-0.783473
-0.546116
-0.727740
-0.633466
-0.792261
-0.773274
-0.787004
-0.703835
-0.742937
-0.665671
-0.594358
-0.027036
-0.705536
-0.015957
0.144187
-0.007678
0.223460
0.153058
-0.019415
-0.009014
-0.005259
0.022419
-0.662681
-0.673825
-0.010311
-0.764114
-0.795700
-0.013386
-0.002433
-0.685345
-0.766751
-0.001250
-0.054070
-0.055572
-0.023118
-0.651497
-0.671141
-0.652531
-0.024307
0.001140
-0.798575
-0.043049
0.015683
-0.103549
-0.771912
-0.768947
-0.800057
0.029937
0.002525
-0.006076
-0.787828
0.029087
0.039022
-0.049984
-0.834740
-0.796778
-0.819041
-0.653278
-0.046889
-0.004032
-0.004018
-0.711046
-0.734000
-0.707959
-0.679367
-0.669392
-0.713943
0.003099
-0.012353
0.022929
0.000274
0.100940
0.027513
0.018209
0.035245
-0.025863
-0.661964
-0.672689
-0.710715
-0.664603
-0.612484
-0.683380
-0.687347
-0.676390
-0.047809
-0.027634
-0.787086
-0.765558
-0.779596
-0.750533
-0.732096
-0.675964
-0.730139
-0.021793
-0.018468
-0.694043
-0.683313
-0.681816
0.075551
0.093170
0.152005
0.002749
-0.793248
-0.661213
-0.016150
0.013044
-0.006950
-0.772504
0.020613
0.027153
0.038701
0.000396
-0.795958
0.002852
0.011378
0.004366
0.014060
0.007998
-0.653917
-0.689108
-0.694148
-0.686925
-0.004659
-0.007319
0.001343
-0.004604
0.099871
0.117998
0.105649
0.096921
-0.777564
-0.794165
-0.767177
-0.703013
-0.773766
0.014570
0.009873
0.038761
0.008239
0.016120
-0.013847
0.038589
-0.696961
-0.826663
0.055241
0.044387
0.067717
-0.830961
-0.865837
-0.789416
-0.761510
-0.773459
-0.693567
0.109435
0.112474
0.138158
0.077616
-0.167034
-0.697372
-0.695427
-0.756372
0.017910
0.006835
-0.768215
0.023963
0.032904
-0.729702
-0.720346
-0.729458
-0.775202
-0.779783
-0.024690
-0.754121
-0.753442
-0.739105
-0.757479
0.110695
0.100309
0.118978
0.136416
-0.767653
-0.712620
-0.799777
-0.741737
-0.754360
0.008034
0.035009
0.040417
0.068994
0.064747
0.077303
-0.012926
-0.036880
-0.020979
-0.798628
0.032966
-0.789403
-0.781776
-0.765638
-0.794598
-0.788710
-0.839403
-0.716477
-0.764799
0.008510
-0.015525
-0.780106
0.173631
-0.018618
-0.006487
-0.011299
-0.730587
-0.719376
-0.719968
-0.039237
-0.007184
0.014236
0.011330
0.023288
-0.609278
-0.026418
-0.007216
-0.006064
-0.666453
-0.678459
-0.682372
0.111091
0.126693
0.132343
-0.004946
-0.010664
-0.772791
-0.770436
-0.774553
-0.516361
-0.800933
-0.813378
-0.813742
-0.767064
-0.778273
-0.756845
-0.144763
-0.498937
-0.215962
-0.701481
-0.708451
-0.668206
-0.051152
-0.008333
-0.283773
-0.724382
-0.682929
0.026908
-0.017667
0.152572
0.160164
0.151322
0.161029
-0.693907
-0.692417
-0.012757
-0.007981
-0.010231
0.032930
0.002122
-0.004635
-0.774732
0.009792
-0.016283
-0.024638
-0.002727
-0.756242
-0.744690
-0.738129
-0.734410
-0.852685
-0.769701
-0.789538
-0.792755
-0.002601
0.003236
0.019275
-0.796981
-0.786633
-0.753737
-0.773465
-0.699536
0.098425
0.045603
-0.707912
-0.674377
-0.280625
-0.706602
0.149050
0.172996
-0.704174
-0.735124
-0.352906
-0.691467
-0.007581
-0.026283
-0.014649
-0.718454
-0.713717
-0.721068
0.053483
0.170816
0.070189
-0.771059
-0.678679
-0.737407
-0.647621
-0.701340
-0.769514
-0.761928
-0.745280
-0.796290
-0.006376
-0.743950
-0.773430
-0.790881
-0.785916
0.007330
0.021304
0.016114
-0.023208
0.005202
-0.706732
-0.683776
-0.657531
-0.004458
-0.008824
-0.015066
-0.013215
-0.014931
-0.666272
-0.666195
-0.668157
-0.770788
-0.840946
-0.735890
0.120221
0.136975
0.128485
0.076364
-0.684788
-0.688420
-0.137040
-0.231269
-0.043449
0.011537
-0.001002
0.010813
-0.780256
-0.788673
-0.007297
-0.008968
-0.688338
-0.635983
-0.012202
-0.012390
0.007814
-0.011200
-0.714677
-0.700406
-0.008618
-0.781051
-0.784649
-0.780086
0.003763
0.005682
-0.747665
-0.749340
-0.746948
-0.778970
-0.767467
-0.785765
-0.782934
0.006063
0.005921
-0.008193
-0.758708
-0.767947
-0.790620
0.092345
0.062088
0.089823
0.124239
-0.740165
-0.762358
-0.714387
-0.662890
0.075281
0.068869
0.082044
-0.785550
0.065657
-0.747448
0.009469
-0.075072
-0.086034
0.048166
0.089217
-0.772565
-0.782750
-0.774523
0.001471
0.005235
0.016604
0.144421
0.113706
0.014125
-0.115042
-0.036782
0.125822
0.129946
0.137848
-0.006703
-0.042768
-0.025075
-0.075276
0.054048
-0.007974
0.049371
0.053123
0.024568
-0.699231
-0.012426
-0.007785
-0.004800
-0.015395
-0.013398
-0.657422
0.044880
-0.794708
-0.787018
-0.780618
-0.646025
-0.025520
-0.779981
-0.790684
-0.786173
-0.747990
-0.780920
0.105708
-0.649762
-0.690969
-0.636328
-0.615841
-0.009906
-0.701470
-0.699943
-0.679337
-0.690511
-0.695703
-0.000921
-0.760873
-0.762914
-0.776160
0.001908
-0.778876
-0.787170
-0.002698
0.027403
0.055344
0.040967
-0.791517
0.173818
0.117706
0.030883
-0.778961
-0.777202
-0.776804
0.011697
0.005683
0.003632
-0.819868
-0.704476
-0.763667
-0.695565
-0.728110
-0.734383
-0.743712
-0.816689
-0.807289
-0.800503
-0.774172
-0.742059
-0.703178
0.069090
-0.696410
-0.732313
0.056333
0.067003
0.045193
-0.731274
-0.726166
-0.014990
-0.029031
-0.048211
-0.038032
-0.027539
0.063481
-0.684270
-0.781857
-0.773946
0.022467
-0.014662
-0.002833
-0.785960
-0.784007
-0.779107
0.020061
0.020527
0.016115
-0.710766
-0.703084
-0.717978
-0.716127
-0.678375
-0.689203
-0.013877
-0.001354
0.026640
0.005950
-0.704793
-0.688273
-0.678593
-0.691358
-0.785574
-0.746693
-0.813686
-0.714862
-0.677142
-0.694379
-0.663752
-0.027118
-0.038478
-0.011133
-0.010936
-0.720631
-0.742948
-0.765102
-0.800759
-0.801844
0.141920
0.009802
-0.041512
0.057897
0.166920
-0.031516
-0.813649
0.097926
-0.712733
-0.722339
-0.720565
-0.713354
-0.756485
-0.774763
-0.760389
-0.749884
-0.037091
-0.019229
-0.053594
-0.780048
0.000585
-0.030528
-0.003476
-0.055938
-0.691771
-0.763568
-0.697116
0.113827
0.118871
0.110697
-0.683891
-0.711791
-0.008856
-0.769025
-0.006270
-0.001281
0.001107
0.011136
-0.057185
0.016411
-0.009147
-0.031427
-0.045889
-0.699621
-0.694920
0.056263
0.061087
0.102263
-0.743329
-0.824523
-0.804460
0.113963
-0.780727
-0.793196
-0.792690
-0.652384
-0.751980
-0.863576
-0.810406
-0.807745
-0.717844
-0.712572
-0.714852
0.022928
-0.328132
-0.005740
-0.014194
-0.685770
-0.708708
-0.691476
-0.730066
-0.722019
-0.739555
-0.651710
-0.708659
-0.769926
-0.798230
-0.795022
-0.753921
-0.774183
-0.757817
0.004504
0.018288
-0.014333
-0.788591
-0.785307
-0.782663
-0.169541
-0.455028
-0.015233
-0.017543
-0.684724
-0.780060
-0.773053
-0.001713
-0.002873
-0.010919
-0.035638
-0.008468
-0.696869
-0.704743
-0.794116
0.017634
0.029634
-0.782621
0.041648
0.053384
0.035776
0.034694
-0.781687
-0.824193
-0.758552
-0.697601
-0.715845
-0.721270
-0.004746
0.002668
-0.550518
-0.534777
-0.888542
-0.598397
-0.214557
-0.286464
-0.723451
-0.709813
-0.013156
-0.020505
-0.012360
-0.000020
-0.771957
-0.009254
-0.000817
-0.002951
-0.708707
-0.699910
0.027038
0.151374
0.021965
0.057182
0.071977
0.078656
0.027336
-0.017307
0.004923
-0.006024
0.050946
-0.006282
-0.015936
-0.720446
-0.722493
-0.706902
-0.717854
-0.133005
-0.169467
-0.147538
0.124389
-0.053802
-0.266459
-0.112132
-0.256164
0.051370
0.033738
0.024278
-0.684529
-0.710936
0.097993
0.084202
-0.066516
0.012965
0.053075
0.097812
0.024971
-0.020875
0.039029
0.055264
0.081986
-0.029525
-0.005390
0.063210
0.023209
0.116841
0.115718
0.035730
0.107398
0.118932
0.131968
-0.060421
-0.692505
-0.709625
-0.691198
-0.682414
-0.710071
0.033706
0.053007
0.047147
0.029387
0.055189
0.102677
0.126345
0.090661
-0.711257
-0.706829
-0.690468
-0.709127
-0.728771
-0.696600
-0.707604
-0.687556
-0.005058
-0.012130
-0.690195
-0.002418
0.123762
0.088502
0.102468
-0.045937
0.011974
-0.009278
0.005907
-0.016077
-0.779846
-0.778795
-0.027829
-0.036226
0.004053
-0.008998
-0.788436
-0.782576
-0.778346
-0.793139
-0.716009
-0.723874
-0.717849
-0.709818
-0.718131
-0.685178
-0.016961
-0.005988
-0.699543
-0.688487
-0.687668
-0.709889
0.087686
0.097315
0.107993
0.096633
0.047253
-0.677156
-0.683985
-0.676444
0.121589
0.106901
0.108579
-0.032176
-0.049134
-0.009665
0.059171
-0.268582
-0.553249
0.150791
-0.034221
-0.430147
-0.591108
-0.706795
-0.700816
-0.017019
0.001075
0.128093
0.001908
-0.688968
-0.696287
-0.717058
0.044644
-0.777263
-0.695160
-0.005372
0.001808
0.002549
-0.000603
-0.007008
0.000285
-0.705122
-0.742751
-0.018635
-0.037793
-0.001597
-0.779718
-0.010706
-0.008402
-0.017712
0.005247
-0.001255
-0.700249
-0.702581
0.003844
-0.012220
0.002717
-0.011358
-0.773376
-0.732739
-0.764160
-0.768317
-0.038675
-0.008787
-0.012676
-0.041661
0.010458
-0.020609
-0.697229
-0.708603
-0.017312
-0.017455
-0.028601
0.005898
-0.029066
-0.764560
-0.763687
-0.751035
-0.773356
-0.756195
-0.756290
-0.783891
-0.024633
-0.712719
-0.709586
-0.714837
-0.697651
0.083819
0.030752
0.070780
0.061672
0.004332
0.008467
0.005263
-0.011244
-0.007750
-0.003068
-0.023041
-0.661687
-0.746117
-0.593328
-0.353439
-0.324736
0.078517
0.132287
0.012442
-0.715768
-0.715124
-0.726808
-0.709256
-0.008193
-0.788888
-0.779624
0.044035
-0.004599
0.060928
0.048304
-0.012544
-0.706691
-0.705508
-0.014344
-0.581157
-0.007951
0.000041
-0.010550
0.055672
0.053142
0.052379
-0.775993
-0.710792
-0.515379
-0.747554
-0.720285
-0.701535
0.003436
-0.702165
-0.713662
-0.705810
-0.710099
-0.005805
-0.071526
-0.004097
0.043791
0.050228
0.060394
0.047143
0.051128
-0.001826
0.003135
0.003006
-0.006662
-0.070356
-0.046368
-0.715489
-0.017048
-0.033037
-0.012358
-0.005831
-0.002281
0.003838
-0.011942
-0.692975
-0.010966
-0.005010
-0.778847
0.055484
0.051510
0.063988
-0.700049
-0.698795
-0.786411
-0.783328
-0.749246
-0.754294
-0.801530
-0.804803
-0.804535
-0.800394
0.066005
0.080417
-0.016451
-0.702731
-0.709338
-0.100393
-0.042121
-0.035991
0.044311
-0.649526
-0.747820
-0.745648
-0.700244
-0.726770
-0.756572
-0.770139
-0.786636
-0.760117