# vtk DataFile Version 2.0
Test
ASCII
DATASET POLYDATA
POINTS 7607 float
0.000000 0.000000 0.000000
1.000000 0.000000 0.000000
1.000000 0.800000 0.000000
1.000000 1.000000 0.000000
0.000000 1.000000 0.000000
0.000000 0.200000 0.000000
0.300000 0.330000 0.000000
0.700000 0.680000 0.000000
0.012987 0.000000 0.000000
0.025974 0.000000 0.000000
0.038961 0.000000 0.000000
0.051948 0.000000 0.000000
0.064935 0.000000 0.000000
0.077922 0.000000 0.000000
0.090909 0.000000 0.000000
0.103896 0.000000 0.000000
0.116883 0.000000 0.000000
0.129870 0.000000 0.000000
0.142857 0.000000 0.000000
0.155844 0.000000 0.000000
0.168831 0.000000 0.000000
0.181818 0.000000 0.000000
0.194805 0.000000 0.000000
0.207792 0.000000 0.000000
0.220779 0.000000 0.000000
0.233766 0.000000 0.000000
0.246753 0.000000 0.000000
0.259740 0.000000 0.000000
0.272727 0.000000 0.000000
0.285714 0.000000 0.000000
0.298701 0.000000 0.000000
0.311688 0.000000 0.000000
0.324675 0.000000 0.000000
0.337662 0.000000 0.000000
0.350649 0.000000 0.000000
0.363636 0.000000 0.000000
0.376623 0.000000 0.000000
0.389610 0.000000 0.000000
0.402597 0.000000 0.000000
0.415584 0.000000 0.000000
0.428571 0.000000 0.000000
0.441558 0.000000 0.000000
0.454545 0.000000 0.000000
0.467532 0.000000 0.000000
0.480519 0.000000 0.000000
0.493506 0.000000 0.000000
0.506494 0.000000 0.000000
0.519481 0.000000 0.000000
0.532468 0.000000 0.000000
0.545455 0.000000 0.000000
0.558442 0.000000 0.000000
0.571429 0.000000 0.000000
0.584416 0.000000 0.000000
0.597403 0.000000 0.000000
0.610390 0.000000 0.000000
0.623377 0.000000 0.000000
0.636364 0.000000 0.000000
0.649351 0.000000 0.000000
0.662338 0.000000 0.000000
0.675325 0.000000 0.000000
0.688312 0.000000 0.000000
0.701299 0.000000 0.000000
0.714286 0.000000 0.000000
0.727273 0.000000 0.000000
0.740260 0.000000 0.000000
0.753247 0.000000 0.000000
0.766234 0.000000 0.000000
0.779221 0.000000 0.000000
0.792208 0.000000 0.000000
0.805195 0.000000 0.000000
0.818182 0.000000 0.000000
0.831169 0.000000 0.000000
0.844156 0.000000 0.000000
0.857143 0.000000 0.000000
0.870130 0.000000 0.000000
0.883117 0.000000 0.000000
0.896104 0.000000 0.000000
0.909091 0.000000 0.000000
0.922078 0.000000 0.000000
0.935065 0.000000 0.000000
0.948052 0.000000 0.000000
0.961039 0.000000 0.000000
0.974026 0.000000 0.000000
0.987013 0.000000 0.000000
1.000000 0.012903 0.000000
1.000000 0.025806 0.000000
1.000000 0.038710 0.000000
1.000000 0.051613 0.000000
1.000000 0.064516 0.000000
1.000000 0.077419 0.000000
1.000000 0.090323 0.000000
1.000000 0.103226 0.000000
1.000000 0.116129 0.000000
1.000000 0.129032 0.000000
1.000000 0.141935 0.000000
1.000000 0.154839 0.000000
1.000000 0.167742 0.000000
1.000000 0.180645 0.000000
1.000000 0.193548 0.000000
1.000000 0.206452 0.000000
1.000000 0.219355 0.000000
1.000000 0.232258 0.000000
1.000000 0.245161 0.000000
1.000000 0.258065 0.000000
1.000000 0.270968 0.000000
1.000000 0.283871 0.000000
1.000000 0.296774 0.000000
1.000000 0.309677 0.000000
1.000000 0.322581 0.000000
1.000000 0.335484 0.000000
1.000000 0.348387 0.000000
1.000000 0.361290 0.000000
1.000000 0.374194 0.000000
1.000000 0.387097 0.000000
1.000000 0.400000 0.000000
1.000000 0.412903 0.000000
1.000000 0.425806 0.000000
1.000000 0.438710 0.000000
1.000000 0.451613 0.000000
1.000000 0.464516 0.000000
1.000000 0.477419 0.000000
1.000000 0.490323 0.000000
1.000000 0.503226 0.000000
1.000000 0.516129 0.000000
1.000000 0.529032 0.000000
1.000000 0.541935 0.000000
1.000000 0.554839 0.000000
1.000000 0.567742 0.000000
1.000000 0.580645 0.000000
1.000000 0.593548 0.000000
1.000000 0.606452 0.000000
1.000000 0.619355 0.000000
1.000000 0.632258 0.000000
1.000000 0.645161 0.000000
1.000000 0.658065 0.000000
1.000000 0.670968 0.000000
1.000000 0.683871 0.000000
1.000000 0.696774 0.000000
1.000000 0.709677 0.000000
1.000000 0.722581 0.000000
1.000000 0.735484 0.000000
1.000000 0.748387 0.000000
1.000000 0.761290 0.000000
1.000000 0.774194 0.000000
1.000000 0.787097 0.000000
1.000000 0.812500 0.000000
1.000000 0.825000 0.000000
1.000000 0.837500 0.000000
1.000000 0.850000 0.000000
1.000000 0.862500 0.000000
1.000000 0.875000 0.000000
1.000000 0.887500 0.000000
1.000000 0.900000 0.000000
1.000000 0.912500 0.000000
1.000000 0.925000 0.000000
1.000000 0.937500 0.000000
1.000000 0.950000 0.000000
1.000000 0.962500 0.000000
1.000000 0.975000 0.000000
1.000000 0.987500 0.000000
0.987013 1.000000 0.000000
0.974026 1.000000 0.000000
0.961039 1.000000 0.000000
0.948052 1.000000 0.000000
0.935065 1.000000 0.000000
0.922078 1.000000 0.000000
0.909091 1.000000 0.000000
0.896104 1.000000 0.000000
0.883117 1.000000 0.000000
0.870130 1.000000 0.000000
0.857143 1.000000 0.000000
0.844156 1.000000 0.000000
0.831169 1.000000 0.000000
0.818182 1.000000 0.000000
0.805195 1.000000 0.000000
0.792208 1.000000 0.000000
0.779221 1.000000 0.000000
0.766234 1.000000 0.000000
0.753247 1.000000 0.000000
0.740260 1.000000 0.000000
0.727273 1.000000 0.000000
0.714286 1.000000 0.000000
0.701299 1.000000 0.000000
0.688312 1.000000 0.000000
0.675325 1.000000 0.000000
0.662338 1.000000 0.000000
0.649351 1.000000 0.000000
0.636364 1.000000 0.000000
0.623377 1.000000 0.000000
0.610390 1.000000 0.000000
0.597403 1.000000 0.000000
0.584416 1.000000 0.000000
0.571429 1.000000 0.000000
0.558442 1.000000 0.000000
0.545455 1.000000 0.000000
0.532468 1.000000 0.000000
0.519481 1.000000 0.000000
0.506494 1.000000 0.000000
0.493506 1.000000 0.000000
0.480519 1.000000 0.000000
0.467532 1.000000 0.000000
0.454545 1.000000 0.000000
0.441558 1.000000 0.000000
0.428571 1.000000 0.000000
0.415584 1.000000 0.000000
0.402597 1.000000 0.000000
0.389610 1.000000 0.000000
0.376623 1.000000 0.000000
0.363636 1.000000 0.000000
0.350649 1.000000 0.000000
0.337662 1.000000 0.000000
0.324675 1.000000 0.000000
0.311688 1.000000 0.000000
0.298701 1.000000 0.000000
0.285714 1.000000 0.000000
0.272727 1.000000 0.000000
0.259740 1.000000 0.000000
0.246753 1.000000 0.000000
0.233766 1.000000 0.000000
0.220779 1.000000 0.000000
0.207792 1.000000 0.000000
0.194805 1.000000 0.000000
0.181818 1.000000 0.000000
0.168831 1.000000 0.000000
0.155844 1.000000 0.000000
0.142857 1.000000 0.000000
0.129870 1.000000 0.000000
0.116883 1.000000 0.000000
0.103896 1.000000 0.000000
0.090909 1.000000 0.000000
0.077922 1.000000 0.000000
0.064935 1.000000 0.000000
0.051948 1.000000 0.000000
0.038961 1.000000 0.000000
0.025974 1.000000 0.000000
0.012987 1.000000 0.000000
0.000000 0.987097 0.000000
0.000000 0.974194 0.000000
0.000000 0.961290 0.000000
0.000000 0.948387 0.000000
0.000000 0.935484 0.000000
0.000000 0.922581 0.000000
0.000000 0.909677 0.000000
0.000000 0.896774 0.000000
0.000000 0.883871 0.000000
0.000000 0.870968 0.000000
0.000000 0.858065 0.000000
0.000000 0.845161 0.000000
0.000000 0.832258 0.000000
0.000000 0.819355 0.000000
0.000000 0.806452 0.000000
0.000000 0.793548 0.000000
0.000000 0.780645 0.000000
0.000000 0.767742 0.000000
0.000000 0.754839 0.000000
0.000000 0.741935 0.000000
0.000000 0.729032 0.000000
0.000000 0.716129 0.000000
0.000000 0.703226 0.000000
0.000000 0.690323 0.000000
0.000000 0.677419 0.000000
0.000000 0.664516 0.000000
0.000000 0.651613 0.000000
0.000000 0.638710 0.000000
0.000000 0.625806 0.000000
0.000000 0.612903 0.000000
0.000000 0.600000 0.000000
0.000000 0.587097 0.000000
0.000000 0.574194 0.000000
0.000000 0.561290 0.000000
0.000000 0.548387 0.000000
0.000000 0.535484 0.000000
0.000000 0.522581 0.000000
0.000000 0.509677 0.000000
0.000000 0.496774 0.000000
0.000000 0.483871 0.000000
0.000000 0.470968 0.000000
0.000000 0.458065 0.000000
0.000000 0.445161 0.000000
0.000000 0.432258 0.000000
0.000000 0.419355 0.000000
0.000000 0.406452 0.000000
0.000000 0.393548 0.000000
0.000000 0.380645 0.000000
0.000000 0.367742 0.000000
0.000000 0.354839 0.000000
0.000000 0.341935 0.000000
0.000000 0.329032 0.000000
0.000000 0.316129 0.000000
0.000000 0.303226 0.000000
0.000000 0.290323 0.000000
0.000000 0.277419 0.000000
0.000000 0.264516 0.000000
0.000000 0.251613 0.000000
0.000000 0.238710 0.000000
0.000000 0.225806 0.000000
0.000000 0.212903 0.000000
0.000000 0.187500 0.000000
0.000000 0.175000 0.000000
0.000000 0.162500 0.000000
0.000000 0.150000 0.000000
0.000000 0.137500 0.000000
0.000000 0.125000 0.000000
0.000000 0.112500 0.000000
0.000000 0.100000 0.000000
0.000000 0.087500 0.000000
0.000000 0.075000 0.000000
0.000000 0.062500 0.000000
0.000000 0.050000 0.000000
0.000000 0.037500 0.000000
0.000000 0.025000 0.000000
0.000000 0.012500 0.000000
0.309756 0.338537 0.000000
0.319512 0.347073 0.000000
0.329268 0.355610 0.000000
0.339024 0.364146 0.000000
0.348780 0.372683 0.000000
0.358537 0.381220 0.000000
0.368293 0.389756 0.000000
0.378049 0.398293 0.000000
0.387805 0.406829 0.000000
0.397561 0.415366 0.000000
0.407317 0.423902 0.000000
0.417073 0.432439 0.000000
0.426829 0.440976 0.000000
0.436585 0.449512 0.000000
0.446341 0.458049 0.000000
0.456098 0.466585 0.000000
0.465854 0.475122 0.000000
0.475610 0.483659 0.000000
0.485366 0.492195 0.000000
0.495122 0.500732 0.000000
0.504878 0.509268 0.000000
0.514634 0.517805 0.000000
0.524390 0.526341 0.000000
0.534146 0.534878 0.000000
0.543902 0.543415 0.000000
0.553659 0.551951 0.000000
0.563415 0.560488 0.000000
0.573171 0.569024 0.000000
0.582927 0.577561 0.000000
0.592683 0.586098 0.000000
0.602439 0.594634 0.000000
0.612195 0.603171 0.000000
0.621951 0.611707 0.000000
0.631707 0.620244 0.000000
0.641463 0.628780 0.000000
0.651220 0.637317 0.000000
0.660976 0.645854 0.000000
0.670732 0.654390 0.000000
0.680488 0.662927 0.000000
0.690244 0.671463 0.000000
0.011538 0.205000 0.000000
0.023077 0.210000 0.000000
0.034615 0.215000 0.000000
0.046154 0.220000 0.000000
0.057692 0.225000 0.000000
0.069231 0.230000 0.000000
0.080769 0.235000 0.000000
0.092308 0.240000 0.000000
0.103846 0.245000 0.000000
0.115385 0.250000 0.000000
0.126923 0.255000 0.000000
0.138462 0.260000 0.000000
0.150000 0.265000 0.000000
0.161538 0.270000 0.000000
0.173077 0.275000 0.000000
[...]
POINT_DATA 7607
SCALARS UX float 1
LOOKUP_TABLE default
0.007030
0.001423
0.133393
-0.482392
-0.506538
-0.409950
0.102336
-0.519460
-0.002933
0.000190
0.002652
0.001527
0.011871
0.000479
-0.000262
0.011029
0.000332
0.001145
-0.000351
0.000039
0.000283
-0.000125
-0.000209
0.000191
-0.000157
0.000290
0.000148
-0.001660
-0.000296
-0.000238
-0.001152
-0.009469
0.000332
-0.000281
-0.000251
-0.000364
0.000441
0.000452
0.001241
-0.000006
-0.000804
-0.001290
0.000308
0.001442
0.000124
-0.001756
-0.001579
-0.000033
-0.000497
-0.000028
0.000015
-0.005799
-0.000309
-0.000415
-0.000226
-0.001521
0.000315
-0.000047
0.000140
-0.001761
-0.002306
0.000774
-0.000396
-0.001711
0.001842
0.001467
-0.003072
0.000054
0.000687
0.001212
-0.001403
-0.000093
-0.003758
0.001056
0.005087
0.003286
-0.006701
0.000225
-0.001020
0.002750
-0.000077
0.000486
-0.000205
-0.005769
0.000537
0.010423
0.006548
0.004955
0.002682
0.004495
0.003102
0.010604
0.018976
0.025101
0.020114
0.032077
0.015142
0.039244
0.023052
0.019812
0.037231
0.037815
0.036998
0.048490
0.042580
0.051697
0.057912
0.043014
0.061275
0.068469
0.059046
0.084326
0.076038
0.078816
0.085448
0.079005
0.101002
0.088553
0.112369
0.096968
0.111752
0.128486
0.114140
0.125875
0.145196
0.133203
0.158493
0.157987
0.155303
0.175598
0.181848
0.181535
0.205934
0.169532
0.197540
0.209855
0.211661
0.224793
0.235471
0.229648
0.235991
0.204810
0.230160
0.243111
0.171367
-0.094501
0.113720
-0.184906
-0.301633
-0.339019
-0.393959
-0.459686
-0.354995
-0.476136
-0.435685
-0.472913
-0.442146
-0.454186
-0.481123
-0.454659
-0.457905
-0.465698
-0.474209
-0.479588
-0.474472
-0.476136
-0.473318
-0.479271
-0.479170
-0.481348
-0.477195
-0.478913
-0.478180
-0.475003
-0.481048
-0.482360
-0.474038
-0.484613
-0.488648
-0.480376
-0.479173
-0.482602
-0.478505
-0.481820
-0.480715
-0.485609
-0.479954
-0.480489
-0.484257
-0.480339
-0.484909
-0.482786
-0.479071
-0.486200
-0.480286
-0.481475
-0.479052
-0.480029
-0.482893
-0.479301
-0.476582
-0.482902
-0.480034
-0.480272
-0.475770
-0.481667
-0.479293
-0.481418
-0.478040
-0.483966
-0.485642
-0.486177
-0.487517
-0.490042
-0.485905
-0.492550
-0.487731
-0.493996
-0.496575
-0.490774
-0.498880
-0.497378
-0.496634
-0.492410
-0.502476
-0.506990
-0.503580
-0.507241
-0.510008
-0.506909
-0.505997
-0.510448
-0.512092
-0.513426
-0.513319
-0.517778
-0.519334
-0.520517
-0.520074
-0.504944
-0.514749
-0.501358
-0.511685
-0.514998
-0.519611
-0.516070
-0.516985
-0.539629
-0.526906
-0.527665
-0.525107
-0.529568
-0.539889
-0.537114
-0.534868
-0.528294
-0.541545
-0.546414
-0.542813
-0.542019
-0.557432
-0.547498
-0.547197
-0.571852
-0.565099
-0.563250
-0.543071
-0.527253
-0.551495
-0.575162
-0.580927
-0.587353
-0.582665
-0.600670
-0.600947
-0.622303
-0.606842
-0.619215
-0.619612
-0.625836
-0.635564
-0.642030
-0.641300
-0.673631
-0.650729
-0.670945
-0.665719
-0.682353
-0.667201
-0.696652
-0.682055
-0.647068
-0.639569
-0.706432
-0.599641
-0.480258
-0.618622
-0.322666
-0.020465
-0.475503
-0.202630
0.036307
-0.051618
-0.064485
-0.025794
-0.027994
-0.020686
-0.010998
-0.012353
-0.023770
-0.000549
-0.007560
-0.027452
-0.056101
-0.134449
-0.295936
-0.500972
-0.146220
-0.090648
-0.348432
-0.110850
-0.103458
0.021139
-0.034393
0.033254
0.004382
-0.017951
-0.010502
0.068971
-0.007974
-0.005365
-0.184764
-0.391632
-0.512867
-0.413508
-0.510371
-0.396191
-0.422097
-0.292664
-0.070424
0.023546
-0.013081
-0.169608
-0.332948
-0.029979
-0.203840
-0.173777
-0.287592
-0.350556
-0.298584
-0.470122
-0.538662
-0.578009
-0.584850
-0.331320
-0.494319
-0.525421
-0.514952
-0.646455
-0.381431
-0.589031
-0.318794
-0.440515
-0.422098
-0.557531
-0.557004
-0.354695
-0.833470
-0.247666
-0.439508
-0.124287
-0.340628
0.012807
-0.594277
-0.485503
-0.206894
-0.380566
0.151164
0.177821
0.094996
0.280644
0.118635
0.147430
0.150518
-0.048289
0.270380
0.111719
0.168925
0.027388
0.036236
0.193983
0.108754
0.022467
0.114817
-0.006215
0.306044
0.055669
0.100548
0.055514
0.193973
-0.021870
-0.469050
-0.475337
-0.474648
-0.471453
0.080271
0.076935
0.089623
-0.702500
-0.496478
-0.469460
-0.667608
-0.633507
-0.460367
-0.006525
0.002026
0.014044
-0.719059
-0.496384
-0.501999
-0.525425
0.027825
-0.002749
0.013833
0.001894
-0.011520
-0.014065
-0.195831
-0.025203
0.002517
0.011739
-0.702324
-0.505485
-0.729018
-0.677706
-0.164160
-0.133472
0.002945
0.000498
-0.001649
0.000631
-0.500281
-0.497927
-0.510944
-0.513093
-0.566353
-0.186692
-0.280688
-0.206509
0.183607
0.169423
0.165614
-0.464889
-0.496631
0.165125
0.025394
0.011448
0.033506
-0.488865
-0.482206
-0.474224
-0.279806
-0.407845
-0.476983
-0.459333
-0.369418
-0.443184
-0.008604
-0.027712
-0.012581
-0.546308
-0.499067
-0.500288
-0.012515
0.000040
0.084064
0.005253
-0.002697
-0.001642
-0.481937
-0.480323
-0.483606
-0.013391
-0.485912
-0.487225
-0.472892
0.017628
0.023061
-0.001645
0.022850
0.005176
0.000306
-0.006275
-0.121989
-0.105101
-0.046811
-0.003943
0.138272
0.190246
0.227208
-1.031028
-0.570524
-0.224184
-0.469519
-0.364295
-0.533625
-0.441583
-0.479580
-0.442507
-0.532686
-0.479837
-0.010548
0.007219
0.004014
0.006802
0.043098
0.026379
-0.480520
-0.473579
-0.476401
0.000201
0.009781
0.021644
-0.464124
-0.448102
-0.491114
-0.463355
0.019033
0.158292
0.216504
0.176307
-0.005097
-0.429765
-0.038151
-0.004500
-0.002535
0.003239
-0.724245
-0.676853
-0.604173
-0.665490
-0.471627
-0.491712
-0.484030
-0.480191
-0.473560
-0.478180
-0.486688
-0.471082
-0.099079
-0.002331
-0.000268
0.001920
0.002260
-0.611002
-0.589543
-0.614844
-0.002513
-0.001794
0.000984
-0.528065
-0.506081
-0.506739
-0.003627
-0.449476
-0.451777
-0.479329
-0.601185
-0.593908
-0.557730
-0.500828
-0.498402
-0.506162
-0.595289
0.141599
0.117133
0.126956
0.135425
0.161871
0.115285
0.145062
0.041194
0.043637
0.031647
-0.482948
-0.479020
-0.473090
-0.481354
-0.480227
-0.476271
-0.001640
-0.005645
-0.002647
-0.000117
0.006675
0.018732
0.006611
-0.131074
0.074582
-0.125486
-0.032292
-0.527302
-0.531998
-0.529991
-0.522860
0.075402
0.074473
0.075525
0.052400
0.043448
0.039617
0.059330
0.132113
0.133457
0.103627
0.446203
0.395896
-0.599320
-0.582663
-0.593644
-0.345229
-0.405522
-0.452987
-0.411756
0.168341
0.204754
0.198213
0.105200
0.102362
0.102390
0.087571
-0.482468
-0.474225
-0.581562
-0.551065
-0.528273
-0.479674
-0.498900
-0.490720
-0.498220
0.002857
-0.009957
0.006829
-0.540329
-0.489002
-0.484061
-0.009759
0.018272
-0.016511
0.174762
0.196352
0.214473
-0.005023
-0.001231
-0.008086
-0.012709
-0.017415
-0.506764
-0.518264
-0.001419
-0.009520
0.001564
0.007859
0.002573
-0.007658
-0.006972
0.001309
-0.000000
-0.436700
-0.450956
-0.507877
-0.515556
-0.493949
-0.035605
-0.012375
0.198593
0.183652
0.002507
0.082795
0.104039
0.058018
0.016464
-0.020937
-0.008785
0.018000
-0.602411
-0.626867
-0.633466
-0.610212
-0.665136
-0.630130
-0.704681
-0.595202
0.055198
-0.012727
0.066824
0.059766
-0.647043
-0.642890
-0.625102
-0.584733
0.154992
0.198360
0.124734
0.113798
0.089863
-0.477207
-0.471498
-0.462743
0.104883
-0.462005
-0.470133
-0.485327
0.082165
-0.477621
-0.566703
-0.589332
-0.556145
-0.005979
0.010005
-0.010891
-0.504162
-0.509704
-0.502190
-0.013725
-0.002163
0.007010
-0.173028
0.025478
0.010871
0.125931
-0.466411
-0.478968
-0.441925
-0.488886
-0.629371
-0.664004
-0.506456
0.015836
0.015249
0.010345
0.018794
0.008681
0.007545
-0.497541
-0.518670
-0.518038
-0.491471
-0.480844
-0.461080
-0.017493
0.027400
0.194351
0.127573
-0.007965
0.012949
0.011845
0.019434
-0.593929
-0.652777
-0.627394
-0.646172
-0.666809
-0.619249
-0.014237
0.014412
-0.001305
-0.008207
0.193141
0.161181
0.048309
-0.050509
0.120668
0.015025
0.039184
0.041285
0.049698
0.033579
-0.500970
-0.501559
-0.465622
0.011298
0.006461
0.009150
0.005867
-0.013378
0.013110
-0.003433
-0.672835
-0.603282
-0.469093
-0.490411
-0.604321
-0.621770
-0.674900
-0.404533
-0.462676
-0.464575
-0.054855
-0.048804
-0.021199
-0.480205
-0.454329
-0.464288
-0.429559
-0.448532
-0.002191
-0.000350
-0.485908
-0.504989
-0.499679
0.180660
0.140207
-0.460683
-0.520523
-0.013357
0.005741
-0.020578
0.010475
-0.009880
-0.034153
-0.008910
0.025480
0.025835
0.036447
-0.473812
-0.474357
-0.038235
-0.002802
-0.001025
-0.481185
-0.478141
-0.482382
0.029270
-0.625103
-0.493832
-0.627742
0.235624
0.017482
0.012754
-0.514524
-0.508466
0.192825
0.159568
-0.498610
-0.489980
-0.497295
-0.477289
-0.389547
-0.003778
-0.015474
0.006291
0.003887
-0.015521
-0.495469
-0.495536
-0.525311
-0.528867
-0.491527
0.166208
0.178081
-0.589065
-0.583467
-0.585124
0.006077
0.008724
-0.452856
-0.470779
-0.443425
-0.454841
0.002777
0.008885
0.001430
-0.521543
-0.501574
-0.499855
-0.497088
-0.500070
-0.493337
-0.593536
-0.568149
-0.602863
-0.568401
-0.000425
-0.001572
-0.002093
-0.001185
-0.002046
-0.006927
-0.003384
-0.529743
-0.525516
-0.525051
-0.456576
-0.385421
-0.394338
-0.481780
-0.630971
-0.650428
-0.580912
-0.516384
-0.518971
-0.531058
0.165219
0.208182
-0.602017
0.015589
-0.009417
-0.509301
-0.071995
-0.497006
0.445698
-0.519596
-0.496279
-0.022605
-0.530566
-0.526112
0.017699
0.004775
-0.013314
-0.031017
-0.038790
-0.002997
0.001959
-0.012018
0.135638
0.169484
0.146742
0.124713
0.162512
0.163258
-0.486007
-0.486234
-0.483653
-0.481038
0.017074
0.008045
0.021317
-0.044745
-0.005245
-0.449400
-0.461704
0.109869
0.097319
-0.535226
-0.526202
-0.521714
-0.520072
0.007873
-0.059886
-0.058980
-0.058684
0.164918
0.274242
0.197754
0.267196
0.240909
-0.491336
-0.470073
-0.474101
0.016945
-0.579318
-0.573377
-0.610152
-0.617558
-0.557548
-0.032089
-0.026192
-0.006888
-0.024574
-0.498734
-0.464374
-0.479428
-0.477540
-0.472887
-0.468242
-0.003378
-0.001146
0.215341
0.065464
0.067164
0.046650
-0.450423
-0.464485
-0.454907
-0.480314
-0.455853
-0.529381
-0.429172
0.055128
0.002614
-0.003878
-0.018492
-0.019231
-0.590238
-0.645675
-0.651582
-0.618119
-0.609547
-0.722769
-0.553170
-0.516746
-0.517866
-0.514041
-0.627654
0.226823
-0.033951
0.045523
0.073379
0.076483
-0.026016
-0.008398
0.047217
-0.514712
-0.506706
-0.520790
-0.014639
-0.006469
-0.520586
-0.497276
-0.507650
-0.626899
0.004605
-0.015990
-0.015095
-0.643974
-0.002408
-0.003303
-0.556268
-0.555642
0.044672
0.043834
0.045644
0.130420
-0.002245
0.006133
0.001193
-0.006532
-0.528572
-0.570709
-0.562755
-0.502787
-0.499860
-0.509802
-0.492219
0.000684
-0.002609
-0.038104
-0.004871
0.250179
0.192081
0.210847
0.005395
0.090801
0.258583
-0.004977
-0.223854
-0.464471
-0.462010
-0.474456
-0.476130
-0.488469
-0.527902
-0.523579
-0.523181
-0.477975
-0.486131
-0.486485
-0.477367
0.198886
0.151020
-0.015366
-0.017945
-0.522047
-0.617315
-0.646952
-0.467030
-0.533896
-0.514149
-0.528061
-0.641788
-0.608722
-0.462685
-0.382740
-0.017633
-0.476201
-0.010184
0.242685
-0.005620
0.324018
0.263441
-0.006614
-0.007910
0.000257
0.013041
-0.460151
-0.467900
-0.000825
-0.556619
-0.585925
-0.006710
-0.002008
-0.473840
-0.495330
0.005900
-0.026523
-0.077438
0.003463
-0.449739
-0.459119
-0.446855
-0.016440
0.005148
-0.530953
-0.026366
0.014410
-0.071589
-0.497962
-0.499066
-0.658248
0.018459
-0.004836
-0.006006
-0.642485
0.018707
0.027911
-0.050442
-0.661705
-0.618608
-0.651534
-0.449917
-0.035875
-0.002701
0.010848
-0.480013
-0.486309
-0.479612
-0.475475
-0.452492
-0.482379
0.008323
-0.011172
0.013024
-0.004577
0.114505
0.060982
0.021214
-0.211298
0.150475
-0.459426
-0.472606
-0.480303
-0.447608
-0.210636
-0.474428
-0.470199
-0.458004
-0.041232
-0.013026
-0.517239
-0.496199
-0.510930
-0.677455
-0.620022
-0.618601
-0.631476
-0.021489
-0.018018
-0.477000
-0.465008
-0.459344
0.139272
0.198415
0.236403
0.101547
-0.532526
-0.460459
-0.015626
0.002463
-0.008642
-0.502594
0.067202
0.066983
0.067969
0.000140
-0.523026
-0.002143
-0.000389
0.002210
0.009390
0.000505
-0.446950
-0.474595
-0.479176
-0.471171
-0.003931
-0.006694
0.002799
-0.004310
0.149030
0.161554
0.161078
0.141440
-0.503565
-0.523322
-0.496803
-0.455741
-0.511682
0.034672
0.025706
0.044047
0.006456
0.008267
-0.010403
0.049701
-0.486510
-0.698424
0.065452
0.052840
0.076116
-0.788032
-0.672752
-0.549466
-0.523042
-0.539141
-0.478174
0.222732
0.213779
0.224264
0.156232
0.138456
-0.478728
-0.478048
-0.500259
0.008760
0.004628
-0.508722
0.013181
0.019827
-0.481816
-0.476693
-0.483314
-0.506678
-0.511058
-0.014654
-0.488610
-0.489362
-0.478845
-0.491351
0.162671
0.149713
0.174853
0.190653
-0.677257
-0.473748
-0.670640
-0.651842
-0.678357
0.039044
0.051242
0.047027
0.074189
0.069746
0.077726
-0.019347
-0.004165
-0.031431
-0.528280
0.023363
-0.550179
-0.511201
-0.493471
-0.595251
-0.585116
-0.613700
-0.566842
-0.651686
0.005581
-0.009915
-0.590728
0.262251
-0.005664
-0.002329
-0.003494
-0.487910
-0.483480
-0.479606
-0.011969
-0.003911
0.008114
0.005616
0.007720
-0.427225
-0.015296
-0.009404
-0.005907
-0.455142
-0.477790
-0.469838
0.210511
0.212614
0.148380
-0.000885
-0.002666
-0.499534
-0.503102
-0.504087
-0.544630
-0.591939
-0.608553
-0.610384
-0.498166
-0.507093
-0.489628
-0.117140
-0.345714
-0.207736
-0.603573
-0.609160
-0.646790
-0.038500
0.001080
-0.251541
-0.500774
-0.469765
0.026933
-0.016586
0.246240
0.254987
0.251507
0.264571
-0.479750
-0.482948
-0.010178
0.004510
-0.003448
0.029261
-0.015731
-0.002268
-0.503569
0.014719
-0.015364
-0.017593
-0.003970
-0.489405
-0.481467
-0.583994
-0.580048
-0.618285
-0.497456
-0.518808
-0.526051
-0.002669
0.002851
0.009642
-0.678943
-0.683237
-0.661900
-0.685294
-0.478949
0.213471
0.157328
-0.475660
-0.452901
-0.072920
-0.483005
0.260996
0.301923
-0.479589
-0.477434
-0.557188
-0.515836
-0.007476
-0.013786
-0.011877
-0.482550
-0.479250
-0.484781
0.119422
0.197079
0.121519
-0.502054
-0.552332
-0.605953
-0.519909
-0.499750
-0.528171
-0.522338
-0.595738
-0.605361
-0.011509
-0.519607
-0.502333
-0.522871
-0.511825
0.002306
0.012265
0.011247
-0.029317
0.002940
-0.476337
-0.467279
-0.448530
-0.000381
-0.006148
-0.006059
-0.010151
-0.012114
-0.465039
-0.460419
-0.589447
-0.623064
-0.707170
-0.586155
0.194466
0.222180
0.232968
0.176934
-0.472707
-0.476032
-0.164145
-0.159947
-0.034105
0.010705
-0.000756
0.005534
-0.680522
-0.665801
0.003078
-0.004699
-0.476671
-0.437996
-0.004722
-0.018369
0.005862
-0.005159
-0.480159
-0.475120
0.001103
-0.507111
-0.514304
-0.597822
-0.000811
0.005531
-0.507080
-0.505205
-0.502172
-0.659151
-0.670448
-0.517687
-0.509347
0.007521
0.002051
0.001383
-0.491429
-0.496410
-0.518641
0.214687
0.186381
0.169145
0.226949
-0.499699
-0.643476
-0.667259
-0.607576
0.084718
0.077701
0.091446
-0.514660
0.076438
-0.483272
0.002718
0.000788
-0.023064
0.035686
0.160514
-0.500192
-0.512310
-0.504454
0.002448
-0.000081
0.008124
0.236997
0.190437
0.058507
-0.079736
-0.013437
0.203090
0.206738
0.222077
0.017622
-0.115791
-0.062524
-0.147063
0.065351
-0.003617
0.088732
0.092374
0.067084
-0.477454
-0.009749
0.002024
-0.001209
-0.004571
-0.008905
-0.451970
0.071365
-0.687731
-0.569402
-0.681559
-0.717816
-0.022266
-0.657375
-0.673216
-0.656347
-0.644875
-0.573689
0.237006
-0.466163
-0.478460
-0.485593
-0.433915
-0.005342
-0.459899
-0.475158
-0.463313
-0.472918
-0.478334
-0.004272
-0.493241
-0.495042
-0.505255
0.002562
-0.509248
-0.518719
-0.001993
0.126772
0.120763
0.144738
-0.626596
0.269853
0.195880
0.118440
-0.506548
-0.503597
-0.505773
0.005766
0.001374
0.002620
-0.658900
-0.471663
-0.635622
-0.479393
-0.482323
-0.481931
-0.484913
-0.637217
-0.640965
-0.629828
-0.581514
-0.640881
-0.483336
0.143563
-0.466587
-0.590061
0.081832
0.088194
0.071770
-0.480883
-0.478356
-0.004827
-0.017590
-0.017751
-0.029876
-0.005796
0.086938
-0.474648
-0.511158
-0.505638
0.014101
-0.008013
-0.000384
-0.514386
-0.514748
-0.511092
0.011641
0.011004
0.006764
-0.473701
-0.478290
-0.479144
-0.481820
-0.465605
-0.473702
-0.016069
0.003419
0.018895
0.004496
-0.473937
-0.473431
-0.469666
-0.473351
-0.601864
-0.559525
-0.582567
-0.598693
-0.475624
-0.475493
-0.462562
-0.010954
-0.032001
-0.010873
-0.006710
-0.484816
-0.497409
-0.508978
-0.649132
-0.635898
0.219141
0.000839
-0.036440
0.161775
0.181107
0.147325
-0.713714
0.045015
-0.482155
-0.480003
-0.476150
-0.484138
-0.504439
-0.510890
-0.495677
-0.492423
-0.050667
0.003293
-0.070269
-0.507389
-0.015415
-0.017255
-0.001784
-0.096429
-0.479472
-0.693940
-0.479372
0.175341
0.170670
0.171207
-0.464519
-0.480295
0.001138
-0.499093
-0.005167
0.000075
-0.001475
0.001117
-0.045118
0.007439
0.007823
-0.036876
-0.029339
-0.469451
-0.470799
0.073223
0.082971
0.128039
-0.572827
-0.687098
-0.662402
0.129589
-0.612437
-0.611198
-0.678163
-0.399194
-0.579832
-0.551414
-0.618235
-0.646523
-0.483081
-0.481342
-0.481189
0.179399
0.052895
0.009925
-0.012309
-0.467813
-0.481710
-0.470682
-0.485314
-0.488227
-0.494228
-0.424305
-0.482185
-0.545554
-0.566194
-0.574565
-0.570215
-0.570446
-0.564962
-0.005295
0.013265
-0.011422
-0.523207
-0.520477
-0.519131
0.017509
0.163374
0.000933
-0.016370
-0.466622
-0.554556
-0.545583
-0.001320
-0.001319
-0.009634
-0.026851
0.001016
-0.469956
-0.474719
-0.567964
0.009658
0.011000
-0.576103
0.030948
0.039997
0.023464
0.027811
-0.540385
-0.593822
-0.519892
-0.479737
-0.468887
-0.473908
-0.001363
0.002886
-0.295835
-0.117437
-0.595323
-0.503422
-0.255235
-0.219216
-0.490604
-0.481062
-0.009667
-0.011500
-0.012212
0.000415
-0.540945
0.005349
0.000849
0.002075
-0.477080
-0.478838
0.165050
0.195193
0.144599
0.172297
0.195846
0.148499
0.156462
-0.005732
0.007004
-0.000597
0.041984
-0.007173
-0.009766
-0.480072
-0.487630
-0.477836
-0.483957
-0.071518
-0.195778
-0.135934
0.206475
-0.027642
-0.217134
-0.137592
-0.224557
0.037447
0.022703
0.015279
-0.477622
-0.475146
0.148630
0.184716
0.058927
0.068888
0.110836
0.208544
0.040150
0.072060
0.029029
0.110939
0.108644
-0.025276
0.006849
0.146306
0.099549
0.194109
0.171303
0.110179
0.170357
0.163007
0.186162
-0.044935
-0.473936
-0.476640
-0.463237
-0.448920
-0.488010
0.026414
0.081841
0.075816
0.068751
0.080508
0.146012
0.162791
0.138669
-0.483047
-0.481282
-0.463000
-0.482040
-0.481844
-0.465528
-0.488273
-0.457611
-0.000129
-0.002498
-0.460086
0.000270
0.164340
0.136174
0.152561
0.127216
-0.048602
-0.240838
0.009714
-0.000319
-0.511572
-0.511776
-0.012723
-0.029784
0.014553
-0.008277
-0.521443
-0.516852
-0.513573
-0.527013
-0.484368
-0.485149
-0.480534
-0.477980
-0.464620
-0.464519
-0.009524
-0.004768
-0.481723
-0.474453
-0.460422
-0.454035
0.140664
0.146385
0.147039
0.146110
0.034946
-0.457658
-0.467648
-0.469961
0.180468
0.167184
0.156359
-0.011920
-0.011382
-0.005492
-0.218125
0.024427
-0.484031
0.234457
-0.128515
-0.062853
-0.144508
-0.478999
-0.475098
-0.003359
0.007841
0.173064
-0.000549
-0.469337
-0.470152
-0.482432
0.032124
-0.507756
-0.466797
-0.004555
0.002193
0.001665
-0.000050
-0.001000
0.000823
-0.474593
-0.499406
-0.005697
-0.024067
-0.000294
-0.508872
-0.004538
-0.012104
-0.006325
0.006171
-0.000392
-0.478508
-0.482113
0.003934
-0.004109
0.000757
-0.007188
-0.508129
-0.487895
-0.502200
-0.503004
-0.028583
-0.017211
-0.014861
-0.018223
-0.001131
-0.009678
-0.469974
-0.481254
-0.006197
-0.006492
0.000317
0.011725
-0.014534
-0.513040
-0.512126
-0.503271
-0.541165
-0.530433
-0.528117
-0.551877
-0.014170
-0.484306
-0.484633
-0.487029
-0.471970
0.155505
0.121956
0.145927
0.144691
0.002443
-0.004003
-0.001615
-0.003676
-0.002137
0.008552
-0.013272
-0.442710
-0.687257
-0.378357
-0.329837
0.157014
-0.110104
-0.128401
0.009534
-0.476823
-0.480711
-0.482487
-0.479098
-0.008217
-0.548349
-0.545681
0.125844
0.076326
0.166268
0.135054
-0.009750
-0.477610
-0.477865
-0.006227
-0.562131
-0.003939
0.001070
-0.005585
0.046542
0.043071
0.043144
-0.553671
-0.454428
-0.451926
-0.550191
-0.482808
-0.466668
0.007750
-0.472074
-0.479806
-0.478328
-0.479616
-0.007534
-0.045084
0.000948
0.058328
0.050107
0.050770
0.062444
0.056534
0.000001
0.002134
0.002437
-0.003209
-0.059584
-0.030477
-0.481062
-0.007975
-0.018784
-0.002378
-0.003667
-0.000163
0.004663
0.003211
-0.472684
-0.003350
-0.001467
-0.556261
0.085313
0.076824
0.088833
-0.478710
-0.480934
-0.512999
-0.511226
-0.482517
-0.486885
-0.615382
-0.608397
-0.616994
-0.608444
0.128910
0.155244
-0.006512
-0.478932
-0.478334
0.127562
-0.031424
0.005977
0.071672
-0.441358
-0.490513
-0.490192
-0.472023
-0.652098
-0.683695
-0.661467
-0.607306
-0.640294
-0.639561
-0.625490
-0.549157
-0.473201