# vtk DataFile Version 2.0
Test
ASCII
DATASET POLYDATA
POINTS 7607 float
0.000000 0.000000 0.000000
1.000000 0.000000 0.000000
1.000000 0.800000 0.000000
1.000000 1.000000 0.000000
0.000000 1.000000 0.000000
0.000000 0.200000 0.000000
0.300000 0.330000 0.000000
0.700000 0.680000 0.000000
0.012987 0.000000 0.000000
0.025974 0.000000 0.000000
0.038961 0.000000 0.000000
0.051948 0.000000 0.000000
0.064935 0.000000 0.000000
0.077922 0.000000 0.000000
0.090909 0.000000 0.000000
0.103896 0.000000 0.000000
0.116883 0.000000 0.000000
0.129870 0.000000 0.000000
0.142857 0.000000 0.000000
0.155844 0.000000 0.000000
0.168831 0.000000 0.000000
0.181818 0.000000 0.000000
0.194805 0.000000 0.000000
0.207792 0.000000 0.000000
0.220779 0.000000 0.000000
0.233766 0.000000 0.000000
0.246753 0.000000 0.000000
0.259740 0.000000 0.000000
0.272727 0.000000 0.000000
0.285714 0.000000 0.000000
0.298701 0.000000 0.000000
0.311688 0.000000 0.000000
0.324675 0.000000 0.000000
0.337662 0.000000 0.000000
0.350649 0.000000 0.000000
0.363636 0.000000 0.000000
0.376623 0.000000 0.000000
0.389610 0.000000 0.000000
0.402597 0.000000 0.000000
0.415584 0.000000 0.000000
0.428571 0.000000 0.000000
0.441558 0.000000 0.000000
0.454545 0.000000 0.000000
0.467532 0.000000 0.000000
0.480519 0.000000 0.000000
0.493506 0.000000 0.000000
0.506494 0.000000 0.000000
0.519481 0.000000 0.000000
0.532468 0.000000 0.000000
0.545455 0.000000 0.000000
0.558442 0.000000 0.000000
0.571429 0.000000 0.000000
0.584416 0.000000 0.000000
0.597403 0.000000 0.000000
0.610390 0.000000 0.000000
0.623377 0.000000 0.000000
0.636364 0.000000 0.000000
0.649351 0.000000 0.000000
0.662338 0.000000 0.000000
0.675325 0.000000 0.000000
0.688312 0.000000 0.000000
0.701299 0.000000 0.000000
0.714286 0.000000 0.000000
0.727273 0.000000 0.000000
0.740260 0.000000 0.000000
0.753247 0.000000 0.000000
0.766234 0.000000 0.000000
0.779221 0.000000 0.000000
0.792208 0.000000 0.000000
0.805195 0.000000 0.000000
0.818182 0.000000 0.000000
0.831169 0.000000 0.000000
0.844156 0.000000 0.000000
0.857143 0.000000 0.000000
0.870130 0.000000 0.000000
0.883117 0.000000 0.000000
0.896104 0.000000 0.000000
0.909091 0.000000 0.000000
0.922078 0.000000 0.000000
0.935065 0.000000 0.000000
0.948052 0.000000 0.000000
0.961039 0.000000 0.000000
0.974026 0.000000 0.000000
0.987013 0.000000 0.000000
1.000000 0.012903 0.000000
1.000000 0.025806 0.000000
1.000000 0.038710 0.000000
1.000000 0.051613 0.000000
1.000000 0.064516 0.000000
1.000000 0.077419 0.000000
1.000000 0.090323 0.000000
1.000000 0.103226 0.000000
1.000000 0.116129 0.000000
1.000000 0.129032 0.000000
1.000000 0.141935 0.000000
1.000000 0.154839 0.000000
1.000000 0.167742 0.000000
1.000000 0.180645 0.000000
1.000000 0.193548 0.000000
1.000000 0.206452 0.000000
1.000000 0.219355 0.000000
1.000000 0.232258 0.000000
1.000000 0.245161 0.000000
1.000000 0.258065 0.000000
1.000000 0.270968 0.000000
1.000000 0.283871 0.000000
1.000000 0.296774 0.000000
1.000000 0.309677 0.000000
1.000000 0.322581 0.000000
1.000000 0.335484 0.000000
1.000000 0.348387 0.000000
1.000000 0.361290 0.000000
1.000000 0.374194 0.000000
1.000000 0.387097 0.000000
1.000000 0.400000 0.000000
1.000000 0.412903 0.000000
1.000000 0.425806 0.000000
1.000000 0.438710 0.000000
1.000000 0.451613 0.000000
1.000000 0.464516 0.000000
1.000000 0.477419 0.000000
1.000000 0.490323 0.000000
1.000000 0.503226 0.000000
1.000000 0.516129 0.000000
1.000000 0.529032 0.000000
1.000000 0.541935 0.000000
1.000000 0.554839 0.000000
1.000000 0.567742 0.000000
1.000000 0.580645 0.000000
1.000000 0.593548 0.000000
1.000000 0.606452 0.000000
1.000000 0.619355 0.000000
1.000000 0.632258 0.000000
1.000000 0.645161 0.000000
1.000000 0.658065 0.000000
1.000000 0.670968 0.000000
1.000000 0.683871 0.000000
1.000000 0.696774 0.000000
1.000000 0.709677 0.000000
1.000000 0.722581 0.000000
1.000000 0.735484 0.000000
1.000000 0.748387 0.000000
1.000000 0.761290 0.000000
1.000000 0.774194 0.000000
1.000000 0.787097 0.000000
1.000000 0.812500 0.000000
1.000000 0.825000 0.000000
1.000000 0.837500 0.000000
1.000000 0.850000 0.000000
1.000000 0.862500 0.000000
1.000000 0.875000 0.000000
1.000000 0.887500 0.000000
1.000000 0.900000 0.000000
1.000000 0.912500 0.000000
1.000000 0.925000 0.000000
1.000000 0.937500 0.000000
1.000000 0.950000 0.000000
1.000000 0.962500 0.000000
1.000000 0.975000 0.000000
1.000000 0.987500 0.000000
0.987013 1.000000 0.000000
0.974026 1.000000 0.000000
0.961039 1.000000 0.000000
0.948052 1.000000 0.000000
0.935065 1.000000 0.000000
0.922078 1.000000 0.000000
0.909091 1.000000 0.000000
0.896104 1.000000 0.000000
0.883117 1.000000 0.000000
0.870130 1.000000 0.000000
0.857143 1.000000 0.000000
0.844156 1.000000 0.000000
0.831169 1.000000 0.000000
0.818182 1.000000 0.000000
0.805195 1.000000 0.000000
0.792208 1.000000 0.000000
0.779221 1.000000 0.000000
0.766234 1.000000 0.000000
0.753247 1.000000 0.000000
0.740260 1.000000 0.000000
0.727273 1.000000 0.000000
0.714286 1.000000 0.000000
0.701299 1.000000 0.000000
0.688312 1.000000 0.000000
0.675325 1.000000 0.000000
0.662338 1.000000 0.000000
0.649351 1.000000 0.000000
0.636364 1.000000 0.000000
0.623377 1.000000 0.000000
0.610390 1.000000 0.000000
0.597403 1.000000 0.000000
0.584416 1.000000 0.000000
0.571429 1.000000 0.000000
0.558442 1.000000 0.000000
0.545455 1.000000 0.000000
0.532468 1.000000 0.000000
0.519481 1.000000 0.000000
0.506494 1.000000 0.000000
0.493506 1.000000 0.000000
0.480519 1.000000 0.000000
0.467532 1.000000 0.000000
0.454545 1.000000 0.000000
0.441558 1.000000 0.000000
0.428571 1.000000 0.000000
0.415584 1.000000 0.000000
0.402597 1.000000 0.000000
0.389610 1.000000 0.000000
0.376623 1.000000 0.000000
0.363636 1.000000 0.000000
0.350649 1.000000 0.000000
0.337662 1.000000 0.000000
0.324675 1.000000 0.000000
0.311688 1.000000 0.000000
0.298701 1.000000 0.000000
0.285714 1.000000 0.000000
0.272727 1.000000 0.000000
0.259740 1.000000 0.000000
0.246753 1.000000 0.000000
0.233766 1.000000 0.000000
0.220779 1.000000 0.000000
0.207792 1.000000 0.000000
0.194805 1.000000 0.000000
0.181818 1.000000 0.000000
0.168831 1.000000 0.000000
0.155844 1.000000 0.000000
0.142857 1.000000 0.000000
0.129870 1.000000 0.000000
0.116883 1.000000 0.000000
0.103896 1.000000 0.000000
0.090909 1.000000 0.000000
0.077922 1.000000 0.000000
0.064935 1.000000 0.000000
0.051948 1.000000 0.000000
0.038961 1.000000 0.000000
0.025974 1.000000 0.000000
0.012987 1.000000 0.000000
0.000000 0.987097 0.000000
0.000000 0.974194 0.000000
0.000000 0.961290 0.000000
0.000000 0.948387 0.000000
0.000000 0.935484 0.000000
0.000000 0.922581 0.000000
0.000000 0.909677 0.000000
0.000000 0.896774 0.000000
0.000000 0.883871 0.000000
0.000000 0.870968 0.000000
0.000000 0.858065 0.000000
0.000000 0.845161 0.000000
0.000000 0.832258 0.000000
0.000000 0.819355 0.000000
0.000000 0.806452 0.000000
0.000000 0.793548 0.000000
0.000000 0.780645 0.000000
0.000000 0.767742 0.000000
0.000000 0.754839 0.000000
0.000000 0.741935 0.000000
0.000000 0.729032 0.000000
0.000000 0.716129 0.000000
0.000000 0.703226 0.000000
0.000000 0.690323 0.000000
0.000000 0.677419 0.000000
0.000000 0.664516 0.000000
0.000000 0.651613 0.000000
0.000000 0.638710 0.000000
0.000000 0.625806 0.000000
0.000000 0.612903 0.000000
0.000000 0.600000 0.000000
0.000000 0.587097 0.000000
0.000000 0.574194 0.000000
0.000000 0.561290 0.000000
0.000000 0.548387 0.000000
0.000000 0.535484 0.000000
0.000000 0.522581 0.000000
0.000000 0.509677 0.000000
0.000000 0.496774 0.000000
0.000000 0.483871 0.000000
0.000000 0.470968 0.000000
0.000000 0.458065 0.000000
0.000000 0.445161 0.000000
0.000000 0.432258 0.000000
0.000000 0.419355 0.000000
0.000000 0.406452 0.000000
0.000000 0.393548 0.000000
0.000000 0.380645 0.000000
0.000000 0.367742 0.000000
0.000000 0.354839 0.000000
0.000000 0.341935 0.000000
0.000000 0.329032 0.000000
0.000000 0.316129 0.000000
0.000000 0.303226 0.000000
0.000000 0.290323 0.000000
0.000000 0.277419 0.000000
0.000000 0.264516 0.000000
0.000000 0.251613 0.000000
0.000000 0.238710 0.000000
0.000000 0.225806 0.000000
0.000000 0.212903 0.000000
0.000000 0.187500 0.000000
0.000000 0.175000 0.000000
0.000000 0.162500 0.000000
0.000000 0.150000 0.000000
0.000000 0.137500 0.000000
0.000000 0.125000 0.000000
0.000000 0.112500 0.000000
0.000000 0.100000 0.000000
0.000000 0.087500 0.000000
0.000000 0.075000 0.000000
0.000000 0.062500 0.000000
0.000000 0.050000 0.000000
0.000000 0.037500 0.000000
0.000000 0.025000 0.000000
0.000000 0.012500 0.000000
0.309756 0.338537 0.000000
0.319512 0.347073 0.000000
0.329268 0.355610 0.000000
0.339024 0.364146 0.000000
0.348780 0.372683 0.000000
0.358537 0.381220 0.000000
0.368293 0.389756 0.000000
0.378049 0.398293 0.000000
0.387805 0.406829 0.000000
0.397561 0.415366 0.000000
0.407317 0.423902 0.000000
0.417073 0.432439 0.000000
0.426829 0.440976 0.000000
0.436585 0.449512 0.000000
0.446341 0.458049 0.000000
0.456098 0.466585 0.000000
0.465854 0.475122 0.000000
0.475610 0.483659 0.000000
0.485366 0.492195 0.000000
0.495122 0.500732 0.000000
0.504878 0.509268 0.000000
0.514634 0.517805 0.000000
0.524390 0.526341 0.000000
0.534146 0.534878 0.000000
0.543902 0.543415 0.000000
0.553659 0.551951 0.000000
0.563415 0.560488 0.000000
0.573171 0.569024 0.000000
0.582927 0.577561 0.000000
0.592683 0.586098 0.000000
0.602439 0.594634 0.000000
0.612195 0.603171 0.000000
0.621951 0.611707 0.000000
0.631707 0.620244 0.000000
0.641463 0.628780 0.000000
0.651220 0.637317 0.000000
0.660976 0.645854 0.000000
0.670732 0.654390 0.000000
0.680488 0.662927 0.000000
0.690244 0.671463 0.000000
0.011538 0.205000 0.000000
0.023077 0.210000 0.000000
0.034615 0.215000 0.000000
0.046154 0.220000 0.000000
0.057692 0.225000 0.000000
0.069231 0.230000 0.000000
0.080769 0.235000 0.000000
0.092308 0.240000 0.000000
0.103846 0.245000 0.000000
0.115385 0.250000 0.000000
0.126923 0.255000 0.000000
0.138462 0.260000 0.000000
0.150000 0.265000 0.000000
0.161538 0.270000 0.000000
0.173077 0.275000 0.000000
[...]
POINT_DATA 7607
SCALARS UX float 1
LOOKUP_TABLE default
0.006118
0.002111
-0.104913
-0.563260
-0.658321
-0.158277
-0.204775
-0.423998
-0.002372
0.000160
0.002203
0.001326
0.010395
0.000377
-0.000215
0.009931
0.000262
0.000865
-0.000298
0.000069
0.000191
-0.000088
-0.000175
0.000181
-0.000101
0.000225
0.000092
-0.001336
-0.000193
-0.000163
-0.000581
-0.007636
0.000210
-0.000191
-0.000164
-0.000387
0.000323
0.000177
0.002092
0.000050
0.000519
-0.001928
0.000099
0.003604
0.000175
-0.000199
-0.002338
-0.000024
-0.000397
0.000159
0.000027
-0.004155
-0.000252
-0.000937
-0.000138
-0.000849
0.000097
-0.000067
0.000075
-0.001058
-0.001614
0.000484
-0.000326
-0.000628
0.003942
0.000925
-0.006635
0.000280
0.002076
0.000622
-0.001168
-0.000529
-0.005382
0.000226
0.005338
0.003126
-0.006561
0.000074
-0.000877
0.002070
0.000143
0.000453
-0.000201
-0.010635
-0.000875
0.014434
0.006582
0.014132
0.011048
0.011933
0.009231
0.019522
0.039213
0.037036
0.027181
0.034858
0.027419
0.053636
0.024940
0.030464
0.049524
0.050437
0.050674
0.062272
0.052710
0.063903
0.071217
0.049586
0.065126
0.079211
0.062648
0.095281
0.082603
0.083980
0.090660
0.080614
0.100046
0.096188
0.117241
0.085598
0.111969
0.117560
0.102885
0.110135
0.135875
0.115823
0.130181
0.135573
0.121603
0.137969
0.145868
0.124430
0.159992
0.116331
0.124169
0.147195
0.136236
0.137016
0.160143
0.111385
0.130611
0.054370
0.112426
0.213506
-0.004814
-0.168212
-0.216554
-0.323517
-0.391462
-0.523170
-0.464947
-0.516622
-0.504447
-0.543344
-0.535716
-0.547114
-0.546244
-0.525228
-0.567195
-0.549964
-0.542005
-0.557316
-0.554375
-0.576560
-0.568500
-0.568777
-0.563517
-0.574994
-0.572943
-0.573070
-0.571431
-0.575098
-0.572210
-0.570234
-0.578097
-0.578847
-0.574608
-0.586190
-0.586029
-0.583734
-0.582403
-0.583855
-0.582865
-0.585982
-0.589628
-0.586414
-0.592919
-0.589452
-0.592155
-0.595467
-0.591650
-0.601164
-0.599428
-0.602831
-0.605657
-0.603649
-0.601634
-0.606498
-0.605732
-0.605968
-0.608481
-0.608588
-0.618852
-0.606494
-0.609800
-0.622000
-0.612298
-0.621314
-0.614699
-0.626842
-0.627971
-0.632473
-0.634492
-0.634199
-0.632731
-0.642037
-0.633926
-0.643482
-0.648029
-0.635832
-0.652058
-0.646324
-0.647086
-0.644305
-0.652327
-0.656273
-0.653109
-0.657910
-0.658289
-0.657449
-0.656851
-0.658982
-0.662923
-0.662877
-0.662039
-0.664760
-0.665846
-0.665844
-0.666095
-0.655629
-0.662330
-0.652796
-0.659119
-0.658216
-0.662680
-0.659593
-0.656971
-0.672662
-0.660731
-0.661397
-0.656454
-0.658786
-0.664908
-0.658765
-0.655468
-0.649837
-0.657924
-0.656229
-0.651738
-0.649997
-0.656303
-0.643765
-0.645782
-0.657456
-0.642746
-0.648333
-0.626599
-0.612139
-0.626330
-0.634471
-0.635654
-0.635879
-0.627424
-0.636377
-0.630858
-0.642587
-0.625244
-0.629673
-0.622708
-0.623913
-0.625834
-0.623244
-0.622051
-0.630457
-0.612486
-0.620936
-0.599556
-0.615479
-0.578974
-0.595396
-0.571440
-0.550118
-0.516626
-0.530382
-0.486702
-0.364496
-0.447735
-0.306774
-0.136396
-0.241235
-0.114283
0.001665
-0.059627
-0.044019
-0.021406
-0.025225
-0.019693
-0.011306
-0.012394
-0.019284
-0.004748
-0.007009
0.106930
-0.031185
-0.220233
-0.456513
-0.449795
-0.328803
-0.443186
-0.090577
-0.171153
-0.349374
0.185627
-0.110525
0.163955
-0.082036
-0.080357
-0.062760
0.125495
-0.360615
-0.534984
-0.259469
-0.257694
-0.154595
-0.540108
-0.172500
-0.228498
-0.335236
-0.365021
-0.022107
-0.638899
-0.236511
-0.227032
-0.363821
-0.279164
-0.248267
-0.248270
-0.251170
-0.568334
-0.345877
-0.515503
-0.591266
-0.263191
-0.449045
-0.202645
-0.469432
-0.201254
-0.338221
-0.318252
-0.429116
-0.572756
0.058688
-0.335601
-0.373198
-0.289889
-0.446759
-0.106601
-0.612975
-0.414311
-0.080233
-0.083300
-0.436871
0.140707
-0.360418
-0.198327
-0.223560
-0.061371
-0.299216
0.057551
-0.254955
0.259789
-0.232803
0.414653
-0.093410
-0.235073
-0.170604
-0.337966
-0.087267
-0.201598
-0.180499
0.031142
-0.222126
0.031209
-0.090819
-0.251138
0.234687
-0.184733
-0.197852
-0.036832
-0.063001
-0.199792
-0.576326
-0.587262
-0.596267
-0.576988
0.055294
0.046812
0.049677
-0.436861
-0.747335
-0.112728
-0.510523
-0.491576
-0.346989
-0.015411
0.006603
0.011086
-0.531807
-0.649878
-0.652319
-0.669885
0.035607
0.011119
0.022157
0.006094
-0.089589
0.012129
-0.093596
-0.061457
0.002595
-0.002293
-0.495391
-0.439308
-0.688136
-0.530870
-0.088650
-0.095778
0.014855
0.001377
-0.007325
-0.006834
-0.651036
-0.649764
-0.658604
-0.663367
-0.358668
-0.603891
-0.190230
-0.329944
0.139431
0.087233
0.103396
-0.571966
-0.590470
0.092652
0.039330
0.012166
0.060459
-0.599724
-0.587161
-0.576615
0.052763
-0.657839
-0.580191
-0.543734
-0.515202
-0.531495
-0.023183
-0.040109
-0.023979
-0.593393
-0.652039
-0.653630
-0.021157
0.021699
0.036784
-0.002969
-0.012382
-0.013028
-0.619853
-0.620495
-0.619538
-0.020139
-0.594306
-0.589941
-0.569538
0.026932
0.037303
0.003638
0.024289
0.004426
-0.009403
-0.016588
-0.077923
-0.029823
-0.039529
-0.017269
0.073919
0.137567
0.156629
-0.660361
-0.186417
-0.313695
-0.496687
-0.440989
-0.579302
-0.564347
-0.615222
-0.587724
-0.630961
-0.559453
-0.017419
0.009153
0.006085
0.005374
0.060336
0.053172
-0.586449
-0.583939
-0.573640
0.023304
0.026337
0.005324
-0.558586
-0.546245
-0.569718
-0.555175
0.038595
0.075524
0.106425
0.072058
-0.005483
-0.576393
-0.027226
-0.003025
-0.009746
-0.006655
-0.595157
-0.491939
-0.551694
-0.551753
-0.593404
-0.629452
-0.613606
-0.600706
-0.563694
-0.573974
-0.578861
-0.570138
-0.492637
-0.007872
-0.005235
-0.002606
0.000336
-0.629859
-0.604134
-0.631262
-0.010491
-0.007987
-0.001745
-0.665768
-0.651202
-0.651074
-0.012735
-0.543896
-0.576459
-0.583959
-0.600256
-0.599959
-0.570652
-0.653697
-0.647486
-0.654967
-0.592391
0.101880
0.086396
0.092128
0.092749
0.095177
0.062297
0.081340
0.032518
0.042255
0.032390
-0.609301
-0.599959
-0.582719
-0.598081
-0.594392
-0.592391
-0.009405
-0.018579
-0.009463
-0.004817
0.010286
0.039477
-0.009603
-0.077605
0.005026
-0.074358
-0.059943
-0.594769
-0.630598
-0.607812
-0.589969
0.043141
0.064882
0.046124
0.032887
0.042996
0.037458
0.054856
0.100723
0.098676
0.086689
-0.171445
0.265124
-0.611914
-0.603397
-0.606361
-0.504129
-0.547816
-0.555859
-0.476822
0.087439
0.124467
0.122490
0.114877
0.051467
0.054179
0.036595
-0.601129
-0.606027
-0.599396
-0.549319
-0.581423
-0.629013
-0.648208
-0.636973
-0.648489
0.000521
-0.015999
0.008515
-0.582675
-0.630117
-0.611523
-0.009430
0.020809
-0.019157
0.124325
0.075597
0.134261
-0.006506
-0.022251
-0.015478
-0.017778
-0.026003
-0.652994
-0.658839
-0.009203
-0.021013
0.000843
0.010811
0.009733
-0.001196
-0.020297
-0.004969
0.009193
-0.534243
-0.520625
-0.655097
-0.662019
-0.643986
-0.031510
-0.018578
0.121134
0.103807
0.007136
0.062897
0.023056
0.063241
0.015894
-0.005221
-0.003395
0.005384
-0.604892
-0.600273
-0.617688
-0.586004
-0.607616
-0.586316
-0.643045
-0.558427
0.011186
-0.039627
0.025629
0.047452
-0.619755
-0.603065
-0.588860
-0.574309
0.093314
0.137799
0.085279
0.077741
0.049704
-0.565289
-0.564269
-0.561820
0.051617
-0.545447
-0.561711
-0.577494
0.059238
-0.569296
-0.608844
-0.644657
-0.608935
-0.009831
0.014375
-0.013579
-0.617613
-0.614920
-0.605985
-0.018964
-0.002938
0.002169
0.052644
0.033365
0.013062
0.078838
-0.562144
-0.564553
-0.538709
-0.577992
-0.572896
-0.609903
-0.616437
0.019644
0.035008
-0.002146
0.015597
0.010802
0.012951
-0.648382
-0.663795
-0.662472
-0.637981
-0.645272
-0.648903
-0.021418
-0.019031
0.106094
0.054724
-0.019052
0.028991
0.025123
0.028117
-0.579436
-0.624332
-0.585808
-0.614611
-0.621412
-0.589017
-0.022122
0.015935
-0.010246
-0.015655
0.118477
0.092182
0.035753
-0.051844
0.021703
0.015623
0.037847
0.032401
0.036448
0.034259
-0.607986
-0.604588
-0.586276
0.004574
0.003558
0.004124
0.004954
-0.024739
0.005592
-0.010908
-0.632385
-0.513579
-0.591354
-0.608496
-0.593909
-0.613877
-0.651203
-0.547971
-0.547898
-0.523916
-0.042877
-0.039430
-0.021271
-0.553668
-0.556567
-0.552194
-0.522905
-0.539702
0.007348
-0.009894
-0.638848
-0.652917
-0.649190
0.108529
0.085670
-0.586658
-0.614500
-0.014960
-0.000273
-0.012712
0.001840
-0.019726
-0.031394
-0.010594
0.011157
0.017276
0.022704
-0.564047
-0.564801
-0.044078
0.003260
-0.002841
-0.603957
-0.597400
-0.597601
0.016227
-0.593403
-0.644239
-0.590724
0.170440
0.037654
0.024003
-0.660565
-0.657721
0.089460
0.132422
-0.642093
-0.635414
-0.644864
-0.585088
-0.542182
-0.008891
-0.026345
-0.008996
-0.006760
-0.021981
-0.642350
-0.632991
-0.659007
-0.660703
-0.627022
0.095743
0.110258
-0.621463
-0.613304
-0.610068
0.017004
0.008880
-0.538802
-0.554266
-0.549505
-0.546843
0.002783
0.009714
-0.000766
-0.666867
-0.651263
-0.653878
-0.647640
-0.650917
-0.643316
-0.614494
-0.595449
-0.629723
-0.578347
0.003144
-0.004062
-0.004058
-0.004747
-0.016863
-0.009144
-0.004225
-0.655416
-0.655920
-0.657733
-0.537254
-0.519193
-0.495560
-0.523704
-0.598950
-0.597484
-0.603001
-0.655438
-0.658587
-0.667673
0.125015
0.157758
-0.614722
0.028224
-0.014825
-0.643331
-0.185476
-0.478848
0.118652
-0.664765
-0.646062
-0.021846
-0.673052
-0.669728
0.034884
-0.005023
-0.002818
-0.037980
-0.036102
-0.005557
0.000446
-0.015268
0.076934
0.141412
0.098877
0.088089
0.117235
0.128895
-0.627522
-0.632027
-0.626380
-0.624987
0.020653
0.009181
0.022494
-0.038942
-0.005694
-0.531317
-0.541283
0.075664
0.059042
-0.662993
-0.656601
-0.654509
-0.650370
0.004937
-0.066698
-0.061438
-0.055494
-0.023905
0.164064
0.127751
0.119410
0.233801
-0.567774
-0.569988
-0.569498
0.022994
-0.596142
-0.595265
-0.620615
-0.491411
-0.458252
-0.032216
-0.018848
-0.006820
-0.021230
-0.587191
-0.556869
-0.569240
-0.563715
-0.573239
-0.562366
-0.003096
-0.001235
0.060270
0.049982
0.062024
0.007803
-0.529668
-0.550782
-0.575316
-0.579611
-0.543803
-0.670173
-0.524204
0.023248
0.001999
-0.004716
-0.023710
-0.020105
-0.488318
-0.512282
-0.627597
-0.607915
-0.589865
-0.556136
-0.511398
-0.607706
-0.611317
-0.607307
-0.612303
0.180912
0.027717
0.010489
0.037356
0.033087
-0.028543
-0.023982
0.011384
-0.646262
-0.643651
-0.652285
-0.018676
-0.020161
-0.604389
-0.647209
-0.656197
-0.579386
-0.014777
-0.023602
-0.030028
-0.606548
-0.006836
-0.008479
-0.610340
-0.618871
0.025394
0.013347
0.024152
0.076786
0.002382
0.008741
-0.001429
-0.004341
-0.628714
-0.655338
-0.654880
-0.624872
-0.617213
-0.623732
-0.607667
-0.011193
-0.014039
-0.032920
-0.015892
0.054822
0.103122
0.124650
0.008176
0.010351
0.034190
0.001867
-0.358963
-0.557513
-0.558295
-0.572754
-0.582292
-0.569324
-0.656916
-0.654780
-0.656537
-0.591864
-0.602526
-0.624609
-0.599480
0.108041
0.083956
-0.025374
-0.016392
-0.651980
-0.482322
-0.374548
-0.548550
-0.654170
-0.638981
-0.651681
-0.416131
-0.552346
-0.549527
-0.355872
-0.029013
-0.577377
-0.020257
0.152224
-0.012432
0.114834
0.134485
-0.017071
-0.010507
-0.004192
0.014598
-0.543343
-0.546799
-0.010267
-0.592745
-0.622562
-0.007628
-0.002195
-0.570273
-0.649207
-0.014207
-0.048345
-0.038455
-0.016536
-0.552126
-0.545998
-0.532564
-0.022112
-0.000724
-0.673926
-0.017848
0.011130
-0.062120
-0.651845
-0.650427
-0.612121
0.029897
0.001977
-0.016204
-0.591218
0.033614
0.037300
-0.040992
-0.648917
-0.609304
-0.632917
-0.520091
-0.045985
-0.005204
0.004996
-0.581181
-0.609527
-0.577726
-0.565792
-0.551923
-0.587312
0.003295
-0.009676
0.009423
0.009171
-0.016237
-0.090647
0.002425
-0.296038
-0.272990
-0.542105
-0.558722
-0.588249
-0.551292
-0.243290
-0.565106
-0.565149
-0.551041
-0.038574
-0.019838
-0.659447
-0.643969
-0.654016
-0.567358
-0.520417
-0.490646
-0.527015
-0.013889
-0.010445
-0.570821
-0.555849
-0.553802
0.142445
-0.019987
0.200093
-0.220005
-0.653738
-0.540134
-0.013971
0.003936
-0.008028
-0.653672
0.037190
0.032390
0.041568
0.000140
-0.670934
0.004491
0.011752
-0.000336
0.021644
0.005442
-0.525792
-0.573517
-0.575794
-0.561277
-0.003952
-0.006749
0.001490
-0.005058
0.124059
0.128787
0.124469
0.121116
-0.658698
-0.668671
-0.649718
-0.631683
-0.591794
0.015678
0.002824
0.017870
0.006429
0.017536
-0.016357
0.028785
-0.576676
-0.606696
0.062646
0.050833
0.082482
-0.615121
-0.567569
-0.633190
-0.611377
-0.617435
-0.572321
0.105587
0.118729
0.129081
0.094425
-0.371727
-0.569073
-0.579271
-0.629043
0.003621
0.010930
-0.637167
0.033029
0.032913
-0.606760
-0.596481
-0.604931
-0.651532
-0.655704
-0.017909
-0.635026
-0.637281
-0.622505
-0.640244
0.119577
0.110607
0.135534
0.153049
-0.548688
-0.588597
-0.555847
-0.509308
-0.577987
0.007921
0.038214
0.039696
0.075874
0.071519
0.083997
-0.019330
-0.025180
-0.015648
-0.669731
0.037859
-0.633203
-0.659768
-0.648936
-0.612150
-0.614984
-0.576143
-0.553372
-0.599358
0.004711
-0.020445
-0.598509
0.132789
-0.019481
-0.007633
-0.014162
-0.605843
-0.594027
-0.595151
-0.021241
-0.011111
0.008796
0.007201
0.019139
-0.526190
-0.016535
-0.008348
-0.005709
-0.553507
-0.555513
-0.555447
0.089000
0.139189
0.088965
-0.004350
-0.011755
-0.653398
-0.649436
-0.654015
-0.495994
-0.627727
-0.635755
-0.643601
-0.645790
-0.655383
-0.636267
-0.231736
-0.419113
-0.435980
-0.562658
-0.473153
-0.535026
-0.035903
-0.008325
-0.178337
-0.603503
-0.559829
0.022894
-0.014912
0.153160
0.146124
0.142213
0.142957
-0.575036
-0.569077
-0.009939
-0.001641
-0.009628
0.023537
-0.000730
-0.012611
-0.655192
-0.006753
-0.016192
-0.025207
-0.002217
-0.640803
-0.627005
-0.552924
-0.529526
-0.637844
-0.651503
-0.665516
-0.667429
-0.000857
0.002547
0.020397
-0.566508
-0.584590
-0.557182
-0.580090
-0.571014
0.131910
0.007910
-0.580760
-0.548038
-0.245265
-0.582672
0.130604
0.170427
-0.578084
-0.615321
-0.204054
-0.398118
-0.008962
-0.023900
-0.011150
-0.592339
-0.587313
-0.595520
0.067946
0.169415
0.090073
-0.653801
-0.510506
-0.565479
-0.450799
-0.550856
-0.615681
-0.614764
-0.547716
-0.587169
-0.011680
-0.606709
-0.653676
-0.667231
-0.664523
0.009667
0.020797
0.017601
-0.024705
-0.001276
-0.580741
-0.550810
-0.550241
-0.003369
-0.012930
-0.012842
-0.013296
-0.011173
-0.558609
-0.551406
-0.414959
-0.501231
-0.632811
-0.484368
0.133049
0.145562
0.120242
0.075313
-0.561733
-0.567246
-0.087500
-0.138289
-0.025080
0.012128
-0.001087
0.003022
-0.578789
-0.573521
-0.011763
-0.008886
-0.567327
-0.517852
-0.010244
-0.013581
0.006452
-0.011570
-0.584636
-0.571236
-0.007932
-0.659843
-0.662986
-0.543099
0.003736
0.004939
-0.610578
-0.611566
-0.619712
-0.570338
-0.545558
-0.662563
-0.661496
0.004052
0.003658
-0.007997
-0.639319
-0.646464
-0.666306
0.084454
0.038673
0.090755
0.108727
-0.604374
-0.537208
-0.498211
-0.483444
0.079361
0.075003
0.091951
-0.661966
0.077554
-0.629784
0.007982
-0.034481
0.046782
0.027401
0.095692
-0.653257
-0.659332
-0.653460
-0.000223
0.006018
0.016115
0.142568
0.133017
0.061434
-0.113347
-0.049407
0.126734
0.138371
0.148315
0.002559
-0.073497
-0.062777
-0.078277
0.017155
-0.010523
0.082429
0.063153
0.020430
-0.574112
-0.010422
-0.005244
-0.005481
-0.011980
-0.014983
-0.534406
0.051090
-0.604635
-0.564682
-0.666612
-0.437491
-0.017711
-0.580857
-0.586204
-0.577422
-0.546855
-0.602855
0.083508
-0.543049
-0.570088
-0.549783
-0.548182
-0.010711
-0.559697
-0.572420
-0.558646
-0.566354
-0.571594
0.002013
-0.640227
-0.641220
-0.653681
0.001616
-0.658378
-0.661354
-0.005251
0.054502
0.058651
0.050451
-0.596130
0.157608
0.100927
0.046656
-0.658333
-0.655861
-0.656178
0.012221
0.003454
0.003077
-0.634564
-0.566026
-0.543865
-0.579744
-0.603562
-0.614338
-0.622898
-0.625750
-0.621501
-0.616804
-0.589306
-0.552320
-0.587889
0.070599
-0.564313
-0.548770
0.069527
0.076853
0.048194
-0.608509
-0.604831
-0.014663
-0.020576
-0.038710
-0.021019
-0.019838
0.068634
-0.565422
-0.658866
-0.650902
0.018734
-0.012652
-0.002766
-0.662291
-0.660275
-0.657285
0.018319
0.020390
0.016586
-0.580367
-0.578893
-0.590580
-0.586997
-0.553339
-0.570040
-0.010748
-0.002808
0.028949
0.002756
-0.571286
-0.565056
-0.557985
-0.571271
-0.579326
-0.588261
-0.622882
-0.530984
-0.554657
-0.566506
-0.559666
-0.026169
-0.022743
-0.011673
-0.011505
-0.587489
-0.615514
-0.638630
-0.604382
-0.614200
0.142410
-0.015397
-0.022520
0.075003
0.157909
0.013875
-0.609218
0.087748
-0.584924
-0.596246
-0.596435
-0.586081
-0.627689
-0.652322
-0.632867
-0.622316
-0.062552
-0.007311
-0.067918
-0.659040
-0.007371
-0.011747
-0.004449
-0.088941
-0.573297
-0.526303
-0.576342
0.129545
0.128699
0.133420
-0.557151
-0.582873
-0.012571
-0.650120
-0.008723
-0.006643
-0.001558
0.012537
-0.044810
0.007054
0.009490
-0.022298
-0.027661
-0.567165
-0.575240
0.063054
0.074658
0.118847
-0.533970
-0.624860
-0.628437
0.123874
-0.587977
-0.592967
-0.606827
-0.426551
-0.656316
-0.666979
-0.581881
-0.523368
-0.593267
-0.587337
-0.588394
0.076056
-0.321445
-0.000516
-0.010772
-0.560557
-0.581961
-0.568600
-0.609194
-0.594382
-0.611141
-0.514416
-0.586261
-0.606475
-0.635369
-0.629050
-0.584042
-0.594110
-0.578482
-0.000657
0.015161
-0.011017
-0.656913
-0.653543
-0.650191
-0.346754
-0.271229
-0.016193
-0.009754
-0.563088
-0.617878
-0.612070
-0.001326
-0.002687
-0.008423
-0.032793
-0.001192
-0.569128
-0.579210
-0.624615
0.008608
0.034116
-0.599270
0.044792
0.054417
0.033531
0.035455
-0.620526
-0.653092
-0.605858
-0.562785
-0.599172
-0.594583
-0.002393
0.005279
-0.496200
-0.410634
-0.573708
-0.503053
-0.349452
-0.489028
-0.588119
-0.583642
-0.011322
-0.015161
-0.011076
-0.001676
-0.618116
-0.013927
-0.010128
-0.012053
-0.579087
-0.576140
0.063800
0.115411
0.060483
0.090925
0.104928
0.083803
0.040977
-0.015954
0.007950
-0.006240
0.049504
-0.000054
-0.015714
-0.595695
-0.595768
-0.578349
-0.591622
-0.044810
-0.114999
-0.103541
0.103637
-0.035824
-0.141914
-0.055669
-0.173864
0.054541
0.035109
0.024045
-0.589134
-0.561089
0.100149
0.076161
0.011892
0.008610
0.067041
0.086964
0.047116
0.042533
0.035317
0.084383
0.086090
-0.022973
-0.004524
0.090733
0.028395
0.145716
0.105384
0.034426
0.124272
0.134763
0.154042
-0.043561
-0.570429
-0.579454
-0.567520
-0.557013
-0.588437
0.034447
0.051380
0.068429
0.026319
0.066341
0.107362
0.135526
0.114790
-0.580312
-0.585894
-0.556283
-0.580612
-0.590649
-0.566093
-0.579466
-0.561210
-0.001899
-0.013247
-0.564257
-0.003506
0.121010
0.109422
0.127352
-0.121667
-0.090245
-0.306576
0.002897
-0.010921
-0.653575
-0.653632
-0.019767
-0.049647
0.006614
-0.012240
-0.656730
-0.653896
-0.651997
-0.660409
-0.585696
-0.597033
-0.595482
-0.584836
-0.573881
-0.556860
-0.017757
-0.007007
-0.579080
-0.566281
-0.566402
-0.567679
0.101649
0.112009
0.117808
0.116926
0.051211
-0.561196
-0.557922
-0.568033
0.139338
0.121411
0.124794
-0.027257
-0.016710
-0.009304
-0.099687
-0.148207
-0.224912
0.013294
-0.044021
-0.159749
-0.393944
-0.578764
-0.577142
-0.016956
0.002941
0.140643
-0.001336
-0.561522
-0.571913
-0.584214
0.039392
-0.656091
-0.563749
-0.004439
0.000822
0.002609
-0.000335
-0.005927
0.001960
-0.571089
-0.609481
-0.015029
-0.024998
-0.000077
-0.658940
-0.020162
-0.005077
-0.022256
0.006429
0.000495
-0.577696
-0.580575
0.003392
-0.014335
0.002087
-0.012255
-0.647709
-0.610740
-0.636774
-0.641179
-0.028489
-0.009281
-0.010669
-0.031738
0.001775
-0.020826
-0.570006
-0.582372
-0.015614
-0.014768
-0.022606
-0.004436
-0.025366
-0.628650
-0.632786
-0.611424
-0.617649
-0.604983
-0.595110
-0.619750
-0.027196
-0.585445
-0.585226
-0.581110
-0.570523
0.094250
0.047635
0.088966
0.089359
0.001647
0.012293
-0.004312
-0.010016
-0.005043
-0.003574
-0.017918
-0.532815
-0.559151
-0.273532
-0.214363
0.088201
-0.092889
-0.178225
0.011063
-0.584956
-0.582174
-0.601524
-0.581136
-0.008886
-0.631648
-0.627878
0.062529
0.012692
0.068476
0.042360
-0.012963
-0.578239
-0.578442
-0.013937
-0.360040
-0.007971
0.000788
-0.012320
0.063345
0.049249
0.053223
-0.555484
-0.560013
-0.633877
-0.677484
-0.586145
-0.579403
0.005538
-0.574109
-0.585993
-0.582580
-0.578754
-0.004801
-0.046993
0.000335
0.045230
0.052709
0.065582
0.050905
0.057944
-0.007977
-0.001555
-0.003475
-0.012369
-0.044409
-0.044154
-0.581434
-0.014691
-0.026131
-0.010124
-0.006258
-0.002542
0.003577
-0.008629
-0.567575
-0.009281
-0.005197
-0.614697
0.062959
0.064423
0.070057
-0.577509
-0.578791
-0.664089
-0.661422
-0.632500
-0.635687
-0.617875
-0.623979
-0.622708
-0.617540
0.070146
0.100414
-0.016809
-0.569029
-0.585602
-0.144957
-0.035693
-0.015018
0.053945
-0.534390
-0.618596
-0.623396
-0.579752
-0.550440
-0.576943
-0.578275