# vtk DataFile Version 2.0
Test
ASCII
DATASET POLYDATA
POINTS 7607 float
0.000000 0.000000 0.000000
1.000000 0.000000 0.000000
1.000000 0.800000 0.000000
1.000000 1.000000 0.000000
0.000000 1.000000 0.000000
0.000000 0.200000 0.000000
0.300000 0.330000 0.000000
0.700000 0.680000 0.000000
0.012987 0.000000 0.000000
0.025974 0.000000 0.000000
0.038961 0.000000 0.000000
0.051948 0.000000 0.000000
0.064935 0.000000 0.000000
0.077922 0.000000 0.000000
0.090909 0.000000 0.000000
0.103896 0.000000 0.000000
0.116883 0.000000 0.000000
0.129870 0.000000 0.000000
0.142857 0.000000 0.000000
0.155844 0.000000 0.000000
0.168831 0.000000 0.000000
0.181818 0.000000 0.000000
0.194805 0.000000 0.000000
0.207792 0.000000 0.000000
0.220779 0.000000 0.000000
0.233766 0.000000 0.000000
0.246753 0.000000 0.000000
0.259740 0.000000 0.000000
0.272727 0.000000 0.000000
0.285714 0.000000 0.000000
0.298701 0.000000 0.000000
0.311688 0.000000 0.000000
0.324675 0.000000 0.000000
0.337662 0.000000 0.000000
0.350649 0.000000 0.000000
0.363636 0.000000 0.000000
0.376623 0.000000 0.000000
0.389610 0.000000 0.000000
0.402597 0.000000 0.000000
0.415584 0.000000 0.000000
0.428571 0.000000 0.000000
0.441558 0.000000 0.000000
0.454545 0.000000 0.000000
0.467532 0.000000 0.000000
0.480519 0.000000 0.000000
0.493506 0.000000 0.000000
0.506494 0.000000 0.000000
0.519481 0.000000 0.000000
0.532468 0.000000 0.000000
0.545455 0.000000 0.000000
0.558442 0.000000 0.000000
0.571429 0.000000 0.000000
0.584416 0.000000 0.000000
0.597403 0.000000 0.000000
0.610390 0.000000 0.000000
0.623377 0.000000 0.000000
0.636364 0.000000 0.000000
0.649351 0.000000 0.000000
0.662338 0.000000 0.000000
0.675325 0.000000 0.000000
0.688312 0.000000 0.000000
0.701299 0.000000 0.000000
0.714286 0.000000 0.000000
0.727273 0.000000 0.000000
0.740260 0.000000 0.000000
0.753247 0.000000 0.000000
0.766234 0.000000 0.000000
0.779221 0.000000 0.000000
0.792208 0.000000 0.000000
0.805195 0.000000 0.000000
0.818182 0.000000 0.000000
0.831169 0.000000 0.000000
0.844156 0.000000 0.000000
0.857143 0.000000 0.000000
0.870130 0.000000 0.000000
0.883117 0.000000 0.000000
0.896104 0.000000 0.000000
0.909091 0.000000 0.000000
0.922078 0.000000 0.000000
0.935065 0.000000 0.000000
0.948052 0.000000 0.000000
0.961039 0.000000 0.000000
0.974026 0.000000 0.000000
0.987013 0.000000 0.000000
1.000000 0.012903 0.000000
1.000000 0.025806 0.000000
1.000000 0.038710 0.000000
1.000000 0.051613 0.000000
1.000000 0.064516 0.000000
1.000000 0.077419 0.000000
1.000000 0.090323 0.000000
1.000000 0.103226 0.000000
1.000000 0.116129 0.000000
1.000000 0.129032 0.000000
1.000000 0.141935 0.000000
1.000000 0.154839 0.000000
1.000000 0.167742 0.000000
1.000000 0.180645 0.000000
1.000000 0.193548 0.000000
1.000000 0.206452 0.000000
1.000000 0.219355 0.000000
1.000000 0.232258 0.000000
1.000000 0.245161 0.000000
1.000000 0.258065 0.000000
1.000000 0.270968 0.000000
1.000000 0.283871 0.000000
1.000000 0.296774 0.000000
1.000000 0.309677 0.000000
1.000000 0.322581 0.000000
1.000000 0.335484 0.000000
1.000000 0.348387 0.000000
1.000000 0.361290 0.000000
1.000000 0.374194 0.000000
1.000000 0.387097 0.000000
1.000000 0.400000 0.000000
1.000000 0.412903 0.000000
1.000000 0.425806 0.000000
1.000000 0.438710 0.000000
1.000000 0.451613 0.000000
1.000000 0.464516 0.000000
1.000000 0.477419 0.000000
1.000000 0.490323 0.000000
1.000000 0.503226 0.000000
1.000000 0.516129 0.000000
1.000000 0.529032 0.000000
1.000000 0.541935 0.000000
1.000000 0.554839 0.000000
1.000000 0.567742 0.000000
1.000000 0.580645 0.000000
1.000000 0.593548 0.000000
1.000000 0.606452 0.000000
1.000000 0.619355 0.000000
1.000000 0.632258 0.000000
1.000000 0.645161 0.000000
1.000000 0.658065 0.000000
1.000000 0.670968 0.000000
1.000000 0.683871 0.000000
1.000000 0.696774 0.000000
1.000000 0.709677 0.000000
1.000000 0.722581 0.000000
1.000000 0.735484 0.000000
1.000000 0.748387 0.000000
1.000000 0.761290 0.000000
1.000000 0.774194 0.000000
1.000000 0.787097 0.000000
1.000000 0.812500 0.000000
1.000000 0.825000 0.000000
1.000000 0.837500 0.000000
1.000000 0.850000 0.000000
1.000000 0.862500 0.000000
1.000000 0.875000 0.000000
1.000000 0.887500 0.000000
1.000000 0.900000 0.000000
1.000000 0.912500 0.000000
1.000000 0.925000 0.000000
1.000000 0.937500 0.000000
1.000000 0.950000 0.000000
1.000000 0.962500 0.000000
1.000000 0.975000 0.000000
1.000000 0.987500 0.000000
0.987013 1.000000 0.000000
0.974026 1.000000 0.000000
0.961039 1.000000 0.000000
0.948052 1.000000 0.000000
0.935065 1.000000 0.000000
0.922078 1.000000 0.000000
0.909091 1.000000 0.000000
0.896104 1.000000 0.000000
0.883117 1.000000 0.000000
0.870130 1.000000 0.000000
0.857143 1.000000 0.000000
0.844156 1.000000 0.000000
0.831169 1.000000 0.000000
0.818182 1.000000 0.000000
0.805195 1.000000 0.000000
0.792208 1.000000 0.000000
0.779221 1.000000 0.000000
0.766234 1.000000 0.000000
0.753247 1.000000 0.000000
0.740260 1.000000 0.000000
0.727273 1.000000 0.000000
0.714286 1.000000 0.000000
0.701299 1.000000 0.000000
0.688312 1.000000 0.000000
0.675325 1.000000 0.000000
0.662338 1.000000 0.000000
0.649351 1.000000 0.000000
0.636364 1.000000 0.000000
0.623377 1.000000 0.000000
0.610390 1.000000 0.000000
0.597403 1.000000 0.000000
0.584416 1.000000 0.000000
0.571429 1.000000 0.000000
0.558442 1.000000 0.000000
0.545455 1.000000 0.000000
0.532468 1.000000 0.000000
0.519481 1.000000 0.000000
0.506494 1.000000 0.000000
0.493506 1.000000 0.000000
0.480519 1.000000 0.000000
0.467532 1.000000 0.000000
0.454545 1.000000 0.000000
0.441558 1.000000 0.000000
0.428571 1.000000 0.000000
0.415584 1.000000 0.000000
0.402597 1.000000 0.000000
0.389610 1.000000 0.000000
0.376623 1.000000 0.000000
0.363636 1.000000 0.000000
0.350649 1.000000 0.000000
0.337662 1.000000 0.000000
0.324675 1.000000 0.000000
0.311688 1.000000 0.000000
0.298701 1.000000 0.000000
0.285714 1.000000 0.000000
0.272727 1.000000 0.000000
0.259740 1.000000 0.000000
0.246753 1.000000 0.000000
0.233766 1.000000 0.000000
0.220779 1.000000 0.000000
0.207792 1.000000 0.000000
0.194805 1.000000 0.000000
0.181818 1.000000 0.000000
0.168831 1.000000 0.000000
0.155844 1.000000 0.000000
0.142857 1.000000 0.000000
0.129870 1.000000 0.000000
0.116883 1.000000 0.000000
0.103896 1.000000 0.000000
0.090909 1.000000 0.000000
0.077922 1.000000 0.000000
0.064935 1.000000 0.000000
0.051948 1.000000 0.000000
0.038961 1.000000 0.000000
0.025974 1.000000 0.000000
0.012987 1.000000 0.000000
0.000000 0.987097 0.000000
0.000000 0.974194 0.000000
0.000000 0.961290 0.000000
0.000000 0.948387 0.000000
0.000000 0.935484 0.000000
0.000000 0.922581 0.000000
0.000000 0.909677 0.000000
0.000000 0.896774 0.000000
0.000000 0.883871 0.000000
0.000000 0.870968 0.000000
0.000000 0.858065 0.000000
0.000000 0.845161 0.000000
0.000000 0.832258 0.000000
0.000000 0.819355 0.000000
0.000000 0.806452 0.000000
0.000000 0.793548 0.000000
0.000000 0.780645 0.000000
0.000000 0.767742 0.000000
0.000000 0.754839 0.000000
0.000000 0.741935 0.000000
0.000000 0.729032 0.000000
0.000000 0.716129 0.000000
0.000000 0.703226 0.000000
0.000000 0.690323 0.000000
0.000000 0.677419 0.000000
0.000000 0.664516 0.000000
0.000000 0.651613 0.000000
0.000000 0.638710 0.000000
0.000000 0.625806 0.000000
0.000000 0.612903 0.000000
0.000000 0.600000 0.000000
0.000000 0.587097 0.000000
0.000000 0.574194 0.000000
0.000000 0.561290 0.000000
0.000000 0.548387 0.000000
0.000000 0.535484 0.000000
0.000000 0.522581 0.000000
0.000000 0.509677 0.000000
0.000000 0.496774 0.000000
0.000000 0.483871 0.000000
0.000000 0.470968 0.000000
0.000000 0.458065 0.000000
0.000000 0.445161 0.000000
0.000000 0.432258 0.000000
0.000000 0.419355 0.000000
0.000000 0.406452 0.000000
0.000000 0.393548 0.000000
0.000000 0.380645 0.000000
0.000000 0.367742 0.000000
0.000000 0.354839 0.000000
0.000000 0.341935 0.000000
0.000000 0.329032 0.000000
0.000000 0.316129 0.000000
0.000000 0.303226 0.000000
0.000000 0.290323 0.000000
0.000000 0.277419 0.000000
0.000000 0.264516 0.000000
0.000000 0.251613 0.000000
0.000000 0.238710 0.000000
0.000000 0.225806 0.000000
0.000000 0.212903 0.000000
0.000000 0.187500 0.000000
0.000000 0.175000 0.000000
0.000000 0.162500 0.000000
0.000000 0.150000 0.000000
0.000000 0.137500 0.000000
0.000000 0.125000 0.000000
0.000000 0.112500 0.000000
0.000000 0.100000 0.000000
0.000000 0.087500 0.000000
0.000000 0.075000 0.000000
0.000000 0.062500 0.000000
0.000000 0.050000 0.000000
0.000000 0.037500 0.000000
0.000000 0.025000 0.000000
0.000000 0.012500 0.000000
0.309756 0.338537 0.000000
0.319512 0.347073 0.000000
0.329268 0.355610 0.000000
0.339024 0.364146 0.000000
0.348780 0.372683 0.000000
0.358537 0.381220 0.000000
0.368293 0.389756 0.000000
0.378049 0.398293 0.000000
0.387805 0.406829 0.000000
0.397561 0.415366 0.000000
0.407317 0.423902 0.000000
0.417073 0.432439 0.000000
0.426829 0.440976 0.000000
0.436585 0.449512 0.000000
0.446341 0.458049 0.000000
0.456098 0.466585 0.000000
0.465854 0.475122 0.000000
0.475610 0.483659 0.000000
0.485366 0.492195 0.000000
0.495122 0.500732 0.000000
0.504878 0.509268 0.000000
0.514634 0.517805 0.000000
0.524390 0.526341 0.000000
0.534146 0.534878 0.000000
0.543902 0.543415 0.000000
0.553659 0.551951 0.000000
0.563415 0.560488 0.000000
0.573171 0.569024 0.000000
0.582927 0.577561 0.000000
0.592683 0.586098 0.000000
0.602439 0.594634 0.000000
0.612195 0.603171 0.000000
0.621951 0.611707 0.000000
0.631707 0.620244 0.000000
0.641463 0.628780 0.000000
0.651220 0.637317 0.000000
0.660976 0.645854 0.000000
0.670732 0.654390 0.000000
0.680488 0.662927 0.000000
0.690244 0.671463 0.000000
0.011538 0.205000 0.000000
0.023077 0.210000 0.000000
0.034615 0.215000 0.000000
0.046154 0.220000 0.000000
0.057692 0.225000 0.000000
0.069231 0.230000 0.000000
0.080769 0.235000 0.000000
0.092308 0.240000 0.000000
0.103846 0.245000 0.000000
0.115385 0.250000 0.000000
0.126923 0.255000 0.000000
0.138462 0.260000 0.000000
0.150000 0.265000 0.000000
0.161538 0.270000 0.000000
0.173077 0.275000 0.000000
[...]
POINT_DATA 7607
SCALARS UX float 1
LOOKUP_TABLE default
0.006004
0.002013
0.013946
-0.162168
-0.265260
-0.113988
-0.118050
-0.024265
-0.001766
0.000058
-0.000036
0.001342
0.011768
0.000043
-0.000192
0.010290
0.000288
0.000705
-0.000278
0.000121
0.000104
-0.000053
-0.000162
0.000198
-0.000093
0.000295
0.000065
-0.001085
-0.000100
-0.000127
-0.000438
-0.007632
0.000159
-0.000152
-0.000094
-0.000332
0.000252
0.000166
0.002052
0.000062
0.000860
-0.001839
0.000007
0.003882
0.000145
0.000044
-0.002655
-0.000034
-0.000267
0.000039
0.000055
-0.003757
-0.000208
-0.001171
-0.000084
-0.000244
-0.000040
-0.000064
0.000022
-0.000702
-0.001128
0.000334
-0.000238
-0.000423
0.004457
0.000615
-0.007173
0.000247
0.001983
0.000322
-0.000915
-0.000442
-0.005482
-0.000246
0.004890
0.002710
-0.006177
-0.000015
-0.000752
0.001692
0.000163
-0.000175
-0.000169
-0.009575
-0.001065
0.013988
0.005725
0.014164
0.010353
0.011520
0.009171
0.018273
0.037792
0.035539
0.026728
0.033816
0.026966
0.051887
0.024521
0.029806
0.048119
0.048733
0.049207
0.060352
0.050902
0.061810
0.068870
0.047648
0.062454
0.076288
0.059720
0.092013
0.079353
0.080413
0.086959
0.077132
0.096275
0.092376
0.113249
0.081754
0.107549
0.113305
0.098362
0.105196
0.130742
0.110151
0.123252
0.128696
0.113022
0.128194
0.134354
0.112490
0.141331
0.101528
0.110665
0.113054
0.116046
0.105925
0.122146
0.093500
0.086465
0.085611
0.079814
0.102576
0.049418
-0.006156
-0.002031
-0.062728
-0.070541
-0.138792
-0.074631
-0.111807
-0.115942
-0.113983
-0.123953
-0.139152
-0.137421
-0.123262
-0.155659
-0.142903
-0.133239
-0.151918
-0.152946
-0.168493
-0.164224
-0.164411
-0.159901
-0.171528
-0.168929
-0.170466
-0.169503
-0.171890
-0.168466
-0.166430
-0.175057
-0.176719
-0.169054
-0.182437
-0.183205
-0.179847
-0.178428
-0.180673
-0.178486
-0.181811
-0.184687
-0.183348
-0.187089
-0.184095
-0.187582
-0.189362
-0.186186
-0.194579
-0.193160
-0.196326
-0.197954
-0.196894
-0.194409
-0.199161
-0.198340
-0.198813
-0.200121
-0.201320
-0.210545
-0.198675
-0.203105
-0.212852
-0.204576
-0.213570
-0.208138
-0.218498
-0.221773
-0.224763
-0.229126
-0.229802
-0.227443
-0.237583
-0.226530
-0.243296
-0.246770
-0.231609
-0.255978
-0.244754
-0.247013
-0.243582
-0.254361
-0.264115
-0.254540
-0.263769
-0.265726
-0.262038
-0.265195
-0.267483
-0.272327
-0.273398
-0.271821
-0.275492
-0.278847
-0.279096
-0.278574
-0.265162
-0.270923
-0.259863
-0.267999
-0.269978
-0.278447
-0.273648
-0.270683
-0.298292
-0.281732
-0.282909
-0.278525
-0.282505
-0.293025
-0.286705
-0.285415
-0.275381
-0.291370
-0.292113
-0.286599
-0.287342
-0.297787
-0.283716
-0.291925
-0.299182
-0.297488
-0.294930
-0.272463
-0.262370
-0.280322
-0.294613
-0.295059
-0.299219
-0.289538
-0.303061
-0.297239
-0.312170
-0.292752
-0.301144
-0.293116
-0.296078
-0.298205
-0.295355
-0.295214
-0.313869
-0.285623
-0.294744
-0.287566
-0.276321
-0.278466
-0.277627
-0.252387
-0.247611
-0.213441
-0.253366
-0.194407
-0.181424
-0.195847
-0.162918
-0.083909
-0.116762
-0.083000
-0.007311
-0.060930
-0.042883
-0.040893
-0.026491
-0.027695
-0.022953
-0.019895
-0.020661
-0.009469
-0.007501
-0.043334
-0.120385
-0.160525
-0.258355
-0.246111
-0.215698
-0.229548
-0.170860
-0.183353
-0.187755
-0.190943
-0.031415
0.118088
-0.001921
-0.131932
-0.125806
0.084849
-0.082218
-0.226730
-0.255440
-0.234739
-0.213492
-0.351240
-0.033389
-0.133937
-0.146169
-0.108755
-0.082048
-0.063164
-0.010047
0.115597
0.013131
-0.046992
0.119633
0.076147
0.146213
-0.091852
-0.016008
-0.172679
-0.163369
-0.147189
-0.202580
-0.104861
-0.178143
-0.149697
-0.213092
-0.218040
-0.142317
-0.175585
-0.094759
-0.188392
-0.123625
-0.202894
-0.174495
-0.121045
-0.291999
-0.171552
-0.105108
-0.121815
-0.253760
-0.074515
-0.154432
-0.166946
-0.173108
-0.147017
0.031679
0.097998
-0.017592
0.182607
-0.024396
0.130968
0.032403
-0.051712
0.039265
-0.031158
0.058551
-0.003521
0.018727
0.032791
-0.037895
0.020367
0.033501
0.012938
0.031757
0.000243
0.004123
0.028565
0.046140
-0.027369
-0.172902
-0.184620
-0.187274
-0.179957
0.046220
0.041637
0.039400
-0.256599
-0.216745
-0.185080
-0.230398
-0.206024
-0.146168
-0.013715
0.006951
0.010452
-0.255599
-0.252494
-0.255835
-0.286401
0.034333
0.011749
0.021978
0.007911
-0.070207
-0.024015
-0.091105
-0.071036
-0.005385
-0.005625
-0.190354
-0.175823
-0.337388
-0.249918
-0.104818
-0.060495
0.014710
0.002025
-0.006583
-0.006718
-0.255497
-0.253061
-0.268195
-0.275514
-0.056929
-0.127442
-0.005978
-0.028539
0.092073
0.071910
0.088591
-0.150732
-0.174653
0.080102
0.038576
0.012156
0.058638
-0.191789
-0.182735
-0.174383
-0.087296
-0.218630
-0.176748
-0.136993
-0.117269
-0.129545
-0.041287
-0.059916
-0.034032
-0.169818
-0.256251
-0.258525
-0.020253
0.020770
0.037905
-0.008893
-0.016151
-0.019021
-0.212398
-0.211396
-0.213125
-0.022885
-0.189118
-0.186690
-0.166059
0.026605
0.036236
0.004175
0.023861
0.001848
-0.013769
-0.018690
-0.073627
-0.038440
-0.030542
-0.022401
0.055846
0.106441
0.120793
-0.262014
-0.147421
-0.183329
-0.120614
-0.107511
-0.150368
-0.115712
-0.208020
-0.173396
-0.242134
-0.169458
-0.020354
0.010405
0.007334
0.005518
0.058021
0.051435
-0.180665
-0.178911
-0.171087
0.023478
0.025848
0.006261
-0.144378
-0.131319
-0.165145
-0.141091
0.037726
0.053242
0.082281
0.063731
-0.005527
-0.169202
-0.025914
-0.004290
-0.009579
-0.006478
-0.289187
-0.253479
-0.238936
-0.262667
-0.186629
-0.220734
-0.207828
-0.194843
-0.159030
-0.172507
-0.177837
-0.166553
-0.081517
-0.010013
-0.007343
-0.005450
-0.000714
-0.301302
-0.272942
-0.300062
-0.012286
-0.010528
-0.003919
-0.284506
-0.262401
-0.263343
-0.016851
-0.137591
-0.160761
-0.175935
-0.268159
-0.259716
-0.237202
-0.256547
-0.252943
-0.258214
-0.258188
0.093298
0.075823
0.083892
0.083852
0.082823
0.049240
0.073728
0.030659
0.041113
0.032210
-0.204132
-0.193408
-0.176682
-0.193987
-0.189928
-0.187465
-0.010012
-0.021930
-0.014380
-0.008019
0.010878
0.038329
-0.007993
-0.044071
-0.027552
-0.045091
-0.068084
-0.233754
-0.255373
-0.245752
-0.229437
0.033252
0.062467
0.038636
0.031112
0.040126
0.035253
0.052329
0.089195
0.091614
0.078810
-0.003535
0.178508
-0.277144
-0.260944
-0.268877
-0.109599
-0.130533
-0.134185
-0.081728
0.071571
0.099479
0.106098
0.090958
0.040997
0.054251
0.022577
-0.194478
-0.198813
-0.272684
-0.243715
-0.217159
-0.228182
-0.249704
-0.236840
-0.250543
-0.001099
-0.015831
0.006605
-0.221797
-0.223735
-0.203751
-0.006659
0.021336
-0.017683
0.084560
0.073426
0.109077
-0.005903
-0.020019
-0.019164
-0.026079
-0.028095
-0.261594
-0.273775
-0.010305
-0.022808
-0.005016
0.010930
0.009865
-0.000518
-0.019442
-0.004496
0.011320
-0.124641
-0.118847
-0.262341
-0.274928
-0.250406
-0.029579
-0.039449
0.097799
0.092685
0.008919
0.059492
0.024074
0.054953
0.016010
-0.003030
-0.001387
0.005566
-0.272732
-0.277163
-0.298483
-0.251159
-0.286365
-0.257847
-0.325696
-0.230649
0.013845
-0.037558
0.029079
0.073148
-0.305739
-0.281017
-0.263846
-0.259691
0.064553
0.128462
0.083127
0.062872
0.041572
-0.160964
-0.157296
-0.155729
0.033667
-0.133442
-0.154854
-0.175192
0.069397
-0.165976
-0.264492
-0.310366
-0.264896
-0.014298
0.016190
-0.015681
-0.228487
-0.236667
-0.219559
-0.018858
-0.006764
0.002941
0.053653
0.035180
0.005654
0.051394
-0.150891
-0.159881
-0.127122
-0.173802
-0.231943
-0.288595
-0.235818
0.019171
0.033752
-0.001598
0.015193
0.012565
0.015000
-0.253350
-0.275287
-0.278700
-0.132340
-0.148397
-0.241016
-0.027849
-0.056144
0.090642
0.027199
-0.016611
0.028736
0.025160
0.027080
-0.249917
-0.307565
-0.255891
-0.294869
-0.307200
-0.258240
-0.021593
0.013068
-0.013768
-0.017031
0.103895
0.070621
0.050625
0.044479
0.008700
-0.005412
0.037241
0.031211
0.033906
0.035306
-0.215275
-0.221428
-0.180468
0.007307
0.008104
0.006774
0.002942
-0.027175
-0.001155
-0.014275
-0.304724
-0.199902
-0.184970
-0.208283
-0.269940
-0.286708
-0.327031
-0.133781
-0.140515
-0.123558
-0.047830
-0.030404
-0.015397
-0.143486
-0.146142
-0.149638
-0.115513
-0.133443
0.008113
-0.009205
-0.229442
-0.262666
-0.252302
0.102803
0.067088
-0.177689
-0.214788
-0.029634
0.002518
-0.025122
0.005398
-0.025819
-0.036914
-0.016877
0.014548
0.023898
0.025832
-0.151793
-0.167581
-0.051434
0.004474
-0.006768
-0.197228
-0.190879
-0.190883
0.019987
-0.263972
-0.242304
-0.269483
0.143630
0.036513
0.023337
-0.271545
-0.269637
0.081457
0.087481
-0.243484
-0.234534
-0.246549
-0.184757
-0.141728
-0.007692
-0.027414
-0.009439
-0.005682
-0.025801
-0.245950
-0.242270
-0.278712
-0.288646
-0.234591
0.076355
0.099535
-0.287110
-0.265208
-0.268197
0.016717
0.008536
-0.132307
-0.146793
-0.129707
-0.140731
0.005111
0.012138
0.002815
-0.284355
-0.255685
-0.259579
-0.247688
-0.255159
-0.244579
-0.281914
-0.260492
-0.288603
-0.252538
0.002791
-0.004078
-0.003390
-0.003819
-0.027403
-0.015367
-0.009559
-0.275701
-0.280903
-0.281618
-0.135959
-0.100996
-0.105130
-0.123114
-0.270587
-0.279158
-0.264345
-0.273102
-0.273025
-0.287597
0.099472
0.139621
-0.294862
0.026503
-0.012688
-0.260828
-0.009755
-0.169075
0.126651
-0.279850
-0.251726
-0.023029
-0.289989
-0.285544
0.032649
-0.004365
-0.000832
-0.044332
-0.039572
-0.005468
-0.000994
-0.013050
0.066588
0.133023
0.083333
0.075192
0.106292
0.115443
-0.221712
-0.221693
-0.223862
-0.220420
0.020834
0.010622
0.022519
-0.043720
-0.004588
-0.126977
-0.138451
0.067229
0.041513
-0.288776
-0.279390
-0.274677
-0.271409
-0.015908
-0.073544
-0.053503
-0.039604
0.068574
0.104848
0.057188
0.119373
0.085183
-0.163286
-0.159168
-0.163622
0.023022
-0.259374
-0.254837
-0.278295
-0.196476
-0.202948
-0.042836
-0.009678
-0.022881
-0.015225
-0.183113
-0.147339
-0.161971
-0.165095
-0.161590
-0.159764
-0.001019
0.001695
0.066050
0.042228
0.052966
0.012927
-0.122696
-0.141225
-0.155699
-0.165843
-0.140242
-0.286656
-0.112054
0.026779
0.002194
-0.014538
-0.031921
-0.026004
-0.203187
-0.216419
-0.296006
-0.276647
-0.264921
-0.270568
-0.194262
-0.229461
-0.239870
-0.229271
-0.287648
0.172860
0.043262
0.023577
0.036870
0.022626
-0.024488
-0.026355
0.019918
-0.259960
-0.256466
-0.271967
-0.015717
-0.018741
-0.233748
-0.249995
-0.265057
-0.255090
-0.010418
-0.015554
-0.037943
-0.286201
-0.006946
-0.011124
-0.266852
-0.270733
0.028819
0.023115
0.026022
0.047660
0.004573
0.008881
-0.001938
-0.003047
-0.262443
-0.306171
-0.301851
-0.233350
-0.225926
-0.235367
-0.212843
-0.010359
-0.012401
-0.032878
-0.024063
0.064678
0.075321
0.080620
0.008524
0.044419
0.065710
0.002660
-0.032865
-0.143500
-0.144396
-0.169012
-0.176357
-0.164770
-0.280184
-0.276301
-0.276340
-0.187047
-0.195386
-0.219411
-0.193837
0.102275
0.054963
-0.035508
-0.029883
-0.273916
-0.199108
-0.190705
-0.152218
-0.281154
-0.260097
-0.275358
-0.176644
-0.214495
-0.142699
-0.165518
-0.032744
-0.173261
-0.023933
0.108646
-0.018161
0.108597
0.104084
-0.021447
-0.010522
-0.007896
0.014402
-0.134447
-0.140215
-0.013732
-0.250480
-0.282151
-0.012442
-0.001614
-0.167276
-0.251122
-0.040466
-0.048351
-0.036742
-0.024991
-0.136457
-0.139074
-0.125632
-0.019878
-0.001452
-0.290408
-0.020439
0.010478
-0.068093
-0.256559
-0.253475
-0.279728
0.029357
0.002724
-0.015215
-0.274600
0.032144
0.036495
-0.041676
-0.330012
-0.280652
-0.305752
-0.103929
-0.054112
-0.007602
-0.007081
-0.176410
-0.201696
-0.172985
-0.154945
-0.142787
-0.182962
-0.001679
-0.012249
0.010684
0.009734
0.026965
0.017123
0.002793
-0.032290
-0.002098
-0.140368
-0.149457
-0.177024
-0.140792
-0.145307
-0.158830
-0.157724
-0.145658
-0.046216
-0.013524
-0.273976
-0.250224
-0.264841
-0.240293
-0.204376
-0.220159
-0.218140
-0.018240
-0.012380
-0.166598
-0.146889
-0.147412
0.092346
0.055820
0.105778
0.042049
-0.275364
-0.126513
-0.014691
0.005115
-0.006450
-0.258702
0.033998
0.027115
0.034924
0.000120
-0.285225
0.005385
0.012549
0.001329
0.020120
0.006070
-0.128766
-0.160454
-0.164935
-0.156617
-0.004423
-0.009607
-0.002233
-0.006911
0.115751
0.123663
0.115602
0.113269
-0.264121
-0.283934
-0.252103
-0.199035
-0.205960
0.016944
0.010358
0.029737
0.004534
0.016386
-0.014026
0.035679
-0.174111
-0.205346
0.058828
0.047623
0.079139
-0.287230
-0.249288
-0.280148
-0.248693
-0.258553
-0.170086
0.090612
0.100893
0.087304
0.083738
-0.005803
-0.179146
-0.185562
-0.227110
0.004302
0.010529
-0.237264
0.032147
0.031743
-0.200567
-0.189762
-0.198230
-0.259631
-0.267352
-0.021581
-0.234470
-0.228414
-0.214277
-0.236353
0.109947
0.101444
0.124297
0.143440
-0.257076
-0.181939
-0.232753
-0.212412
-0.253820
0.013445
0.034222
0.037403
0.072223
0.067900
0.081178
-0.018383
-0.028464
-0.019318
-0.286783
0.035493
-0.283490
-0.268559
-0.250566
-0.283066
-0.264799
-0.275586
-0.226068
-0.299550
0.004438
-0.018958
-0.274416
0.057330
-0.022883
-0.012157
-0.016921
-0.198536
-0.189099
-0.189059
-0.040935
-0.020555
0.008892
0.007670
0.019486
-0.104595
-0.026654
-0.008742
-0.012619
-0.140410
-0.151175
-0.149259
0.078916
0.073013
0.039489
-0.007435
-0.013643
-0.257991
-0.255665
-0.258396
-0.155700
-0.293370
-0.303833
-0.305713
-0.249648
-0.265769
-0.237903
-0.060030
-0.070370
-0.100178
-0.206936
-0.202811
-0.227661
-0.044999
-0.014298
-0.106879
-0.201803
-0.153669
0.025709
-0.017641
0.127550
0.109551
0.089420
0.100353
-0.168165
-0.165494
-0.006798
-0.000299
-0.011537
0.022870
0.001512
-0.010266
-0.258905
0.005320
-0.016880
-0.032962
-0.001517
-0.230263
-0.219187
-0.232867
-0.223983
-0.326485
-0.252606
-0.279652
-0.284274
-0.001335
0.002312
0.019199
-0.271147
-0.264044
-0.244844
-0.266189
-0.158835
0.106767
0.024273
-0.178339
-0.146036
-0.031500
-0.175910
0.101358
0.131461
-0.176145
-0.206915
-0.118646
-0.163582
-0.010077
-0.023006
-0.013246
-0.186777
-0.182485
-0.190321
0.056161
0.159407
0.077171
-0.258584
-0.212686
-0.237604
-0.256558
-0.185000
-0.238909
-0.251109
-0.232371
-0.271920
-0.011244
-0.231788
-0.258011
-0.280532
-0.275315
0.009017
0.020124
0.016537
-0.022700
-0.018695
-0.176495
-0.143879
-0.134702
-0.005606
-0.012540
-0.013321
-0.014001
-0.014338
-0.144538
-0.139456
-0.176811
-0.208757
-0.278643
-0.189188
0.095511
0.109837
0.105784
0.062443
-0.157146
-0.165563
-0.069530
-0.071219
-0.048792
0.013039
-0.000357
-0.000687
-0.258257
-0.259385
-0.020303
-0.009576
-0.161388
-0.111067
-0.014525
-0.021342
0.004181
-0.013664
-0.180660
-0.168668
-0.013009
-0.268630
-0.272298
-0.264797
0.003468
0.004087
-0.225838
-0.226520
-0.229404
-0.247339
-0.251046
-0.274028
-0.268916
0.004191
0.003770
-0.010092
-0.242498
-0.250011
-0.276007
0.075156
0.060541
0.068565
0.081634
-0.218968
-0.232236
-0.226857
-0.202138
0.075409
0.071195
0.088129
-0.273217
0.073493
-0.229106
0.007889
0.025411
0.018358
0.030051
0.078660
-0.260553
-0.265367
-0.260671
0.000058
0.005243
0.016320
0.117062
0.117137
0.042692
-0.091416
-0.061613
0.095897
0.110234
0.122787
-0.008974
-0.081870
-0.067773
-0.125960
0.018650
-0.011602
0.057968
0.056580
0.017573
-0.169430
-0.015929
-0.009661
-0.007814
-0.017124
-0.015643
-0.124617
0.058159
-0.270836
-0.262020
-0.272257
-0.160646
-0.018233
-0.264187
-0.239862
-0.268873
-0.240556
-0.261763
0.067345
-0.131953
-0.163526
-0.142192
-0.129091
-0.012937
-0.147938
-0.168581
-0.153390
-0.161151
-0.167037
0.001135
-0.241366
-0.244204
-0.263612
0.001367
-0.263643
-0.276019
-0.004702
0.055925
0.049092
0.066687
-0.274721
0.127462
0.076453
0.044462
-0.267032
-0.262313
-0.262307
0.011809
0.003031
0.002820
-0.307811
-0.167898
-0.186085
-0.168300
-0.197839
-0.206308
-0.215448
-0.298853
-0.294695
-0.291107
-0.248239
-0.211156
-0.171441
0.057561
-0.159446
-0.239089
0.061538
0.068987
0.042070
-0.201667
-0.198767
-0.018829
-0.026432
-0.043593
-0.031020
-0.022747
0.063392
-0.161834
-0.268328
-0.258805
0.017676
-0.012441
-0.004896
-0.275003
-0.271999
-0.266963
0.018080
0.019778
0.015203
-0.180269
-0.173828
-0.186524
-0.181436
-0.146230
-0.162593
-0.010695
-0.004408
0.027254
0.003334
-0.167847
-0.161063
-0.153064
-0.165795
-0.264979
-0.261338
-0.263091
-0.232409
-0.156356
-0.162100
-0.155752
-0.030503
-0.037733
-0.008930
-0.010564
-0.197207
-0.218926
-0.244193
-0.284655
-0.284892
0.120771
-0.029424
-0.037391
0.080685
0.100179
0.014409
-0.291413
0.146535
-0.180856
-0.190989
-0.190466
-0.179602
-0.235368
-0.260934
-0.239525
-0.226731
-0.070305
-0.018094
-0.077536
-0.267658
-0.026817
-0.038766
-0.004598
-0.083435
-0.169315
-0.287035
-0.172372
0.117291
0.118298
0.124793
-0.149389
-0.180400
-0.016316
-0.250380
-0.005880
-0.005554
0.001540
0.012824
-0.022780
0.009987
0.004802
-0.042277
-0.031921
-0.167509
-0.168921
0.059107
0.070315
0.114397
-0.222716
-0.310791
-0.282135
0.119914
-0.264431
-0.268430
-0.292672
-0.208390
-0.234095
-0.321912
-0.281113
-0.344950
-0.188452
-0.183122
-0.183078
0.078259
-0.096122
-0.005744
-0.014599
-0.158268
-0.178565
-0.166654
-0.205810
-0.199556
-0.213419
-0.114938
-0.163900
-0.260350
-0.298111
-0.282482
-0.238467
-0.253972
-0.249057
0.001354
0.015218
-0.011440
-0.277419
-0.272708
-0.271697
-0.034258
-0.008237
-0.020405
-0.011719
-0.156444
-0.270350
-0.263217
-0.001228
-0.003189
-0.008614
-0.039623
-0.012691
-0.165532
-0.170756
-0.283800
0.009206
0.033394
-0.262722
0.043472
0.052734
0.032752
0.034569
-0.275214
-0.314389
-0.252301
-0.168349
-0.187826
-0.187788
-0.003081
0.004351
-0.106598
-0.069642
-0.126869
-0.101370
-0.042219
-0.107160
-0.182947
-0.171889
-0.015834
-0.019486
-0.007762
-0.002635
-0.265156
-0.012356
-0.007957
-0.010307
-0.173752
-0.172708
0.067878
0.107805
0.046386
0.072432
0.079651
0.075135
0.035117
-0.019411
0.003627
-0.007909
0.048029
-0.003919
-0.016084
-0.189609
-0.190561
-0.174675
-0.186863
-0.058702
-0.072123
-0.062518
0.080716
-0.033794
-0.101752
-0.067422
-0.106252
0.052882
0.034452
0.023692
-0.180913
-0.156992
0.082949
0.098241
0.023303
0.021857
0.050174
0.062251
0.063412
0.034186
0.034614
0.068360
0.064515
-0.028900
-0.010471
0.075531
0.010019
0.138285
0.098360
0.022201
0.107426
0.125169
0.142358
-0.056823
-0.165228
-0.174653
-0.157900
-0.140788
-0.184924
0.033683
0.048901
0.058404
0.026584
0.057578
0.097770
0.128004
0.108549
-0.176200
-0.178707
-0.153637
-0.178453
-0.186570
-0.156860
-0.177813
-0.155729
-0.002252
-0.015745
-0.157644
-0.004193
0.113787
0.099332
0.119814
0.031488
0.031632
-0.050542
-0.000523
-0.019087
-0.266743
-0.266939
-0.025193
-0.058646
-0.002325
-0.025765
-0.276110
-0.269054
-0.265709
-0.281630
-0.181895
-0.191208
-0.190520
-0.180938
-0.162605
-0.148692
-0.018728
-0.007280
-0.175829
-0.163667
-0.160353
-0.160026
0.091943
0.103153
0.109409
0.108247
0.049596
-0.146762
-0.148747
-0.159463
0.129738
0.110398
0.115110
-0.034401
-0.032045
-0.014072
-0.034058
-0.093379
-0.108759
-0.062203
-0.076664
-0.140099
-0.102107
-0.174229
-0.173822
-0.022984
-0.001104
0.130534
-0.008778
-0.158412
-0.167129
-0.181895
0.038193
-0.263043
-0.162158
-0.004331
0.000237
0.002552
-0.000655
-0.008220
0.000780
-0.169040
-0.206834
-0.022699
-0.033827
-0.001020
-0.268176
-0.028940
-0.015555
-0.026526
0.006678
0.002345
-0.173736
-0.177769
0.000798
-0.015035
0.002540
-0.012663
-0.256670
-0.207977
-0.246086
-0.250167
-0.037922
-0.012153
-0.011025
-0.036073
-0.019240
-0.024351
-0.167746
-0.177916
-0.022191
-0.018618
-0.025045
-0.015749
-0.039714
-0.248260
-0.247915
-0.227701
-0.258184
-0.238926
-0.238632
-0.267220
-0.037525
-0.179367
-0.180497
-0.178900
-0.165388
0.105143
0.045519
0.069260
0.074092
0.002354
0.012797
-0.003425
-0.012096
-0.009184
-0.009503
-0.019467
-0.126776
-0.121103
-0.154646
-0.119547
0.003217
-0.011091
-0.077155
0.011111
-0.178589
-0.173797
-0.196001
-0.176927
-0.008235
-0.279116
-0.267199
0.051268
0.016020
0.044134
0.058765
-0.013163
-0.174342
-0.175612
-0.017099
-0.282389
-0.008339
-0.000272
-0.013247
0.061382
0.047499
0.051451
-0.189762
-0.184254
-0.191113
-0.243661
-0.184530
-0.174702
0.001231
-0.172334
-0.181362
-0.177218
-0.175599
-0.019182
-0.062598
-0.003952
0.042669
0.049765
0.063343
0.047930
0.053648
-0.006141
0.001620
-0.001506
-0.011190
-0.051909
-0.047005
-0.180444
-0.022917
-0.036719
-0.012823
-0.006853
-0.003967
0.002218
-0.023384
-0.165206
-0.014248
-0.005820
-0.262688
0.054680
0.056397
0.066001
-0.175150
-0.174303
-0.273840
-0.268664
-0.231849
-0.235879
-0.292740
-0.293615
-0.293126
-0.289297
0.059238
0.082810
-0.019513
-0.167960
-0.179750
0.020032
-0.035145
-0.016828
0.046866
-0.106072
-0.221673
-0.223376
-0.172458
-0.255364
-0.247473
-0.280244
-0.266013