# vtk DataFile Version 2.0
Test
ASCII
DATASET POLYDATA
POINTS 7607 float
0.000000 0.000000 0.000000
1.000000 0.000000 0.000000
1.000000 0.800000 0.000000
1.000000 1.000000 0.000000
0.000000 1.000000 0.000000
0.000000 0.200000 0.000000
0.300000 0.330000 0.000000
0.700000 0.680000 0.000000
0.012987 0.000000 0.000000
0.025974 0.000000 0.000000
0.038961 0.000000 0.000000
0.051948 0.000000 0.000000
0.064935 0.000000 0.000000
0.077922 0.000000 0.000000
0.090909 0.000000 0.000000
0.103896 0.000000 0.000000
0.116883 0.000000 0.000000
0.129870 0.000000 0.000000
0.142857 0.000000 0.000000
0.155844 0.000000 0.000000
0.168831 0.000000 0.000000
0.181818 0.000000 0.000000
0.194805 0.000000 0.000000
0.207792 0.000000 0.000000
0.220779 0.000000 0.000000
0.233766 0.000000 0.000000
0.246753 0.000000 0.000000
0.259740 0.000000 0.000000
0.272727 0.000000 0.000000
0.285714 0.000000 0.000000
0.298701 0.000000 0.000000
0.311688 0.000000 0.000000
0.324675 0.000000 0.000000
0.337662 0.000000 0.000000
0.350649 0.000000 0.000000
0.363636 0.000000 0.000000
0.376623 0.000000 0.000000
0.389610 0.000000 0.000000
0.402597 0.000000 0.000000
0.415584 0.000000 0.000000
0.428571 0.000000 0.000000
0.441558 0.000000 0.000000
0.454545 0.000000 0.000000
0.467532 0.000000 0.000000
0.480519 0.000000 0.000000
0.493506 0.000000 0.000000
0.506494 0.000000 0.000000
0.519481 0.000000 0.000000
0.532468 0.000000 0.000000
0.545455 0.000000 0.000000
0.558442 0.000000 0.000000
0.571429 0.000000 0.000000
0.584416 0.000000 0.000000
0.597403 0.000000 0.000000
0.610390 0.000000 0.000000
0.623377 0.000000 0.000000
0.636364 0.000000 0.000000
0.649351 0.000000 0.000000
0.662338 0.000000 0.000000
0.675325 0.000000 0.000000
0.688312 0.000000 0.000000
0.701299 0.000000 0.000000
0.714286 0.000000 0.000000
0.727273 0.000000 0.000000
0.740260 0.000000 0.000000
0.753247 0.000000 0.000000
0.766234 0.000000 0.000000
0.779221 0.000000 0.000000
0.792208 0.000000 0.000000
0.805195 0.000000 0.000000
0.818182 0.000000 0.000000
0.831169 0.000000 0.000000
0.844156 0.000000 0.000000
0.857143 0.000000 0.000000
0.870130 0.000000 0.000000
0.883117 0.000000 0.000000
0.896104 0.000000 0.000000
0.909091 0.000000 0.000000
0.922078 0.000000 0.000000
0.935065 0.000000 0.000000
0.948052 0.000000 0.000000
0.961039 0.000000 0.000000
0.974026 0.000000 0.000000
0.987013 0.000000 0.000000
1.000000 0.012903 0.000000
1.000000 0.025806 0.000000
1.000000 0.038710 0.000000
1.000000 0.051613 0.000000
1.000000 0.064516 0.000000
1.000000 0.077419 0.000000
1.000000 0.090323 0.000000
1.000000 0.103226 0.000000
1.000000 0.116129 0.000000
1.000000 0.129032 0.000000
1.000000 0.141935 0.000000
1.000000 0.154839 0.000000
1.000000 0.167742 0.000000
1.000000 0.180645 0.000000
1.000000 0.193548 0.000000
1.000000 0.206452 0.000000
1.000000 0.219355 0.000000
1.000000 0.232258 0.000000
1.000000 0.245161 0.000000
1.000000 0.258065 0.000000
1.000000 0.270968 0.000000
1.000000 0.283871 0.000000
1.000000 0.296774 0.000000
1.000000 0.309677 0.000000
1.000000 0.322581 0.000000
1.000000 0.335484 0.000000
1.000000 0.348387 0.000000
1.000000 0.361290 0.000000
1.000000 0.374194 0.000000
1.000000 0.387097 0.000000
1.000000 0.400000 0.000000
1.000000 0.412903 0.000000
1.000000 0.425806 0.000000
1.000000 0.438710 0.000000
1.000000 0.451613 0.000000
1.000000 0.464516 0.000000
1.000000 0.477419 0.000000
1.000000 0.490323 0.000000
1.000000 0.503226 0.000000
1.000000 0.516129 0.000000
1.000000 0.529032 0.000000
1.000000 0.541935 0.000000
1.000000 0.554839 0.000000
1.000000 0.567742 0.000000
1.000000 0.580645 0.000000
1.000000 0.593548 0.000000
1.000000 0.606452 0.000000
1.000000 0.619355 0.000000
1.000000 0.632258 0.000000
1.000000 0.645161 0.000000
1.000000 0.658065 0.000000
1.000000 0.670968 0.000000
1.000000 0.683871 0.000000
1.000000 0.696774 0.000000
1.000000 0.709677 0.000000
1.000000 0.722581 0.000000
1.000000 0.735484 0.000000
1.000000 0.748387 0.000000
1.000000 0.761290 0.000000
1.000000 0.774194 0.000000
1.000000 0.787097 0.000000
1.000000 0.812500 0.000000
1.000000 0.825000 0.000000
1.000000 0.837500 0.000000
1.000000 0.850000 0.000000
1.000000 0.862500 0.000000
1.000000 0.875000 0.000000
1.000000 0.887500 0.000000
1.000000 0.900000 0.000000
1.000000 0.912500 0.000000
1.000000 0.925000 0.000000
1.000000 0.937500 0.000000
1.000000 0.950000 0.000000
1.000000 0.962500 0.000000
1.000000 0.975000 0.000000
1.000000 0.987500 0.000000
0.987013 1.000000 0.000000
0.974026 1.000000 0.000000
0.961039 1.000000 0.000000
0.948052 1.000000 0.000000
0.935065 1.000000 0.000000
0.922078 1.000000 0.000000
0.909091 1.000000 0.000000
0.896104 1.000000 0.000000
0.883117 1.000000 0.000000
0.870130 1.000000 0.000000
0.857143 1.000000 0.000000
0.844156 1.000000 0.000000
0.831169 1.000000 0.000000
0.818182 1.000000 0.000000
0.805195 1.000000 0.000000
0.792208 1.000000 0.000000
0.779221 1.000000 0.000000
0.766234 1.000000 0.000000
0.753247 1.000000 0.000000
0.740260 1.000000 0.000000
0.727273 1.000000 0.000000
0.714286 1.000000 0.000000
0.701299 1.000000 0.000000
0.688312 1.000000 0.000000
0.675325 1.000000 0.000000
0.662338 1.000000 0.000000
0.649351 1.000000 0.000000
0.636364 1.000000 0.000000
0.623377 1.000000 0.000000
0.610390 1.000000 0.000000
0.597403 1.000000 0.000000
0.584416 1.000000 0.000000
0.571429 1.000000 0.000000
0.558442 1.000000 0.000000
0.545455 1.000000 0.000000
0.532468 1.000000 0.000000
0.519481 1.000000 0.000000
0.506494 1.000000 0.000000
0.493506 1.000000 0.000000
0.480519 1.000000 0.000000
0.467532 1.000000 0.000000
0.454545 1.000000 0.000000
0.441558 1.000000 0.000000
0.428571 1.000000 0.000000
0.415584 1.000000 0.000000
0.402597 1.000000 0.000000
0.389610 1.000000 0.000000
0.376623 1.000000 0.000000
0.363636 1.000000 0.000000
0.350649 1.000000 0.000000
0.337662 1.000000 0.000000
0.324675 1.000000 0.000000
0.311688 1.000000 0.000000
0.298701 1.000000 0.000000
0.285714 1.000000 0.000000
0.272727 1.000000 0.000000
0.259740 1.000000 0.000000
0.246753 1.000000 0.000000
0.233766 1.000000 0.000000
0.220779 1.000000 0.000000
0.207792 1.000000 0.000000
0.194805 1.000000 0.000000
0.181818 1.000000 0.000000
0.168831 1.000000 0.000000
0.155844 1.000000 0.000000
0.142857 1.000000 0.000000
0.129870 1.000000 0.000000
0.116883 1.000000 0.000000
0.103896 1.000000 0.000000
0.090909 1.000000 0.000000
0.077922 1.000000 0.000000
0.064935 1.000000 0.000000
0.051948 1.000000 0.000000
0.038961 1.000000 0.000000
0.025974 1.000000 0.000000
0.012987 1.000000 0.000000
0.000000 0.987097 0.000000
0.000000 0.974194 0.000000
0.000000 0.961290 0.000000
0.000000 0.948387 0.000000
0.000000 0.935484 0.000000
0.000000 0.922581 0.000000
0.000000 0.909677 0.000000
0.000000 0.896774 0.000000
0.000000 0.883871 0.000000
0.000000 0.870968 0.000000
0.000000 0.858065 0.000000
0.000000 0.845161 0.000000
0.000000 0.832258 0.000000
0.000000 0.819355 0.000000
0.000000 0.806452 0.000000
0.000000 0.793548 0.000000
0.000000 0.780645 0.000000
0.000000 0.767742 0.000000
0.000000 0.754839 0.000000
0.000000 0.741935 0.000000
0.000000 0.729032 0.000000
0.000000 0.716129 0.000000
0.000000 0.703226 0.000000
0.000000 0.690323 0.000000
0.000000 0.677419 0.000000
0.000000 0.664516 0.000000
0.000000 0.651613 0.000000
0.000000 0.638710 0.000000
0.000000 0.625806 0.000000
0.000000 0.612903 0.000000
0.000000 0.600000 0.000000
0.000000 0.587097 0.000000
0.000000 0.574194 0.000000
0.000000 0.561290 0.000000
0.000000 0.548387 0.000000
0.000000 0.535484 0.000000
0.000000 0.522581 0.000000
0.000000 0.509677 0.000000
0.000000 0.496774 0.000000
0.000000 0.483871 0.000000
0.000000 0.470968 0.000000
0.000000 0.458065 0.000000
0.000000 0.445161 0.000000
0.000000 0.432258 0.000000
0.000000 0.419355 0.000000
0.000000 0.406452 0.000000
0.000000 0.393548 0.000000
0.000000 0.380645 0.000000
0.000000 0.367742 0.000000
0.000000 0.354839 0.000000
0.000000 0.341935 0.000000
0.000000 0.329032 0.000000
0.000000 0.316129 0.000000
0.000000 0.303226 0.000000
0.000000 0.290323 0.000000
0.000000 0.277419 0.000000
0.000000 0.264516 0.000000
0.000000 0.251613 0.000000
0.000000 0.238710 0.000000
0.000000 0.225806 0.000000
0.000000 0.212903 0.000000
0.000000 0.187500 0.000000
0.000000 0.175000 0.000000
0.000000 0.162500 0.000000
0.000000 0.150000 0.000000
0.000000 0.137500 0.000000
0.000000 0.125000 0.000000
0.000000 0.112500 0.000000
0.000000 0.100000 0.000000
0.000000 0.087500 0.000000
0.000000 0.075000 0.000000
0.000000 0.062500 0.000000
0.000000 0.050000 0.000000
0.000000 0.037500 0.000000
0.000000 0.025000 0.000000
0.000000 0.012500 0.000000
0.309756 0.338537 0.000000
0.319512 0.347073 0.000000
0.329268 0.355610 0.000000
0.339024 0.364146 0.000000
0.348780 0.372683 0.000000
0.358537 0.381220 0.000000
0.368293 0.389756 0.000000
0.378049 0.398293 0.000000
0.387805 0.406829 0.000000
0.397561 0.415366 0.000000
0.407317 0.423902 0.000000
0.417073 0.432439 0.000000
0.426829 0.440976 0.000000
0.436585 0.449512 0.000000
0.446341 0.458049 0.000000
0.456098 0.466585 0.000000
0.465854 0.475122 0.000000
0.475610 0.483659 0.000000
0.485366 0.492195 0.000000
0.495122 0.500732 0.000000
0.504878 0.509268 0.000000
0.514634 0.517805 0.000000
0.524390 0.526341 0.000000
0.534146 0.534878 0.000000
0.543902 0.543415 0.000000
0.553659 0.551951 0.000000
0.563415 0.560488 0.000000
0.573171 0.569024 0.000000
0.582927 0.577561 0.000000
0.592683 0.586098 0.000000
0.602439 0.594634 0.000000
0.612195 0.603171 0.000000
0.621951 0.611707 0.000000
0.631707 0.620244 0.000000
0.641463 0.628780 0.000000
0.651220 0.637317 0.000000
0.660976 0.645854 0.000000
0.670732 0.654390 0.000000
0.680488 0.662927 0.000000
0.690244 0.671463 0.000000
0.011538 0.205000 0.000000
0.023077 0.210000 0.000000
0.034615 0.215000 0.000000
0.046154 0.220000 0.000000
0.057692 0.225000 0.000000
0.069231 0.230000 0.000000
0.080769 0.235000 0.000000
0.092308 0.240000 0.000000
0.103846 0.245000 0.000000
0.115385 0.250000 0.000000
0.126923 0.255000 0.000000
0.138462 0.260000 0.000000
0.150000 0.265000 0.000000
0.161538 0.270000 0.000000
0.173077 0.275000 0.000000
[...]
POINT_DATA 7607
SCALARS UX float 1
LOOKUP_TABLE default
0.006120
0.001818
0.077198
-0.486405
-0.568389
-0.216744
-0.202784
-0.341180
-0.002277
0.000144
0.002401
0.001340
0.010434
0.000347
-0.000218
0.009979
0.000268
0.001045
-0.000297
0.000068
0.000189
-0.000086
-0.000173
0.000178
-0.000104
0.000259
0.000098
-0.001369
-0.000197
-0.000169
-0.000578
-0.008172
0.000218
-0.000201
-0.000162
-0.000432
0.000342
0.000165
0.002411
0.000060
0.000862
-0.002026
0.000086
0.004221
0.000178
-0.000115
-0.002599
-0.000022
-0.000416
0.000190
0.000030
-0.004316
-0.000264
-0.001109
-0.000141
-0.000872
0.000111
-0.000064
0.000080
-0.001162
-0.001735
0.000525
-0.000327
-0.000855
0.003724
0.001013
-0.006171
0.000230
0.001728
0.000723
-0.001198
-0.000402
-0.004837
0.000453
0.004945
0.003017
-0.006554
0.000111
-0.000874
0.002109
0.000085
0.000329
-0.000204
-0.008794
-0.000469
0.013341
0.004055
0.009514
0.008282
0.008181
0.006227
0.014575
0.028634
0.028785
0.020507
0.026774
0.019096
0.041295
0.017567
0.020753
0.036615
0.037245
0.036565
0.046793
0.037420
0.046988
0.053276
0.032767
0.047741
0.058314
0.044234
0.072557
0.060647
0.061573
0.068655
0.058602
0.076601
0.072631
0.095148
0.060879
0.088995
0.093854
0.078081
0.083116
0.113827
0.091141
0.105583
0.113892
0.096550
0.116940
0.130549
0.109334
0.144301
0.108596
0.122101
0.146970
0.139801
0.144398
0.161477
0.132449
0.142324
0.101762
0.227225
0.127872
0.109018
-0.140448
-0.071658
-0.252171
-0.247344
-0.426058
-0.393005
-0.399430
-0.404534
-0.463973
-0.431373
-0.472077
-0.447391
-0.451489
-0.478472
-0.459600
-0.454130
-0.472495
-0.472489
-0.491037
-0.481522
-0.483804
-0.480532
-0.487774
-0.489317
-0.490369
-0.487763
-0.491202
-0.489010
-0.485465
-0.493645
-0.495864
-0.486027
-0.499935
-0.504089
-0.495969
-0.494953
-0.497747
-0.495193
-0.497953
-0.499745
-0.501133
-0.502158
-0.499207
-0.503485
-0.502832
-0.502137
-0.508382
-0.505947
-0.510540
-0.510931
-0.509893
-0.507374
-0.511665
-0.511858
-0.511172
-0.512838
-0.514522
-0.522776
-0.511510
-0.515541
-0.525627
-0.517232
-0.525164
-0.519256
-0.531465
-0.532518
-0.537401
-0.539335
-0.539918
-0.537795
-0.548088
-0.538439
-0.550983
-0.556411
-0.540410
-0.561831
-0.553386
-0.555386
-0.551518
-0.561045
-0.567767
-0.562480
-0.567515
-0.570152
-0.568023
-0.568328
-0.569882
-0.576155
-0.575423
-0.575103
-0.576327
-0.580907
-0.579611
-0.580235
-0.567357
-0.574496
-0.562549
-0.570783
-0.571501
-0.577777
-0.574744
-0.571631
-0.596358
-0.579024
-0.582070
-0.575867
-0.579718
-0.589709
-0.583678
-0.580595
-0.571798
-0.584489
-0.584515
-0.581206
-0.577994
-0.589379
-0.576541
-0.578114
-0.592255
-0.584787
-0.583691
-0.557180
-0.549957
-0.565159
-0.579274
-0.581983
-0.584973
-0.573305
-0.587297
-0.584160
-0.599370
-0.578643
-0.589359
-0.581316
-0.586086
-0.589897
-0.583553
-0.593084
-0.599858
-0.589233
-0.585443
-0.573387
-0.587660
-0.573339
-0.579986
-0.533505
-0.527483
-0.494074
-0.518190
-0.452562
-0.369378
-0.446633
-0.306719
-0.123699
-0.231916
-0.063718
-0.004264
-0.054948
-0.033195
-0.038591
-0.017979
-0.024341
-0.011920
-0.027244
-0.014246
-0.009569
-0.007132
0.084738
-0.075085
-0.234834
-0.332836
-0.679863
-0.753948
-0.444785
-0.293721
-0.333109
-0.347081
-0.300102
-0.098498
0.149638
-0.023404
-0.352868
-0.238224
0.140060
-0.145815
-0.464557
-0.608074
-0.354491
-0.529394
-0.716835
-0.608769
-0.394492
-0.388556
-0.291751
-0.214737
-0.073484
-0.055393
0.104414
-0.209667
-0.120174
0.017535
0.045762
-0.050062
-0.326555
-0.055199
-0.528226
-0.277822
-0.420186
-0.431222
-0.168242
-0.390301
-0.326154
-0.458191
-0.472925
-0.329320
-0.357144
-0.159902
-0.419426
-0.227260
-0.345865
-0.398425
-0.280237
-0.592604
-0.407208
-0.101171
-0.050024
-0.538543
-0.058267
-0.371853
-0.494454
-0.154097
-0.316356
0.263286
0.198426
-0.347980
0.337216
-0.394325
0.569529
-0.105428
-0.145953
0.000112
-0.115135
0.110244
-0.222687
-0.123879
0.133599
-0.285205
0.098903
-0.101629
-0.109373
0.041273
-0.072377
-0.104434
0.093573
0.126132
-0.178281
-0.486970
-0.506173
-0.503535
-0.493982
0.035888
0.038835
0.043757
-0.435283
-0.667792
-0.219387
-0.486613
-0.443551
-0.277634
-0.011997
0.004805
0.010301
-0.578569
-0.557064
-0.561772
-0.586242
0.027121
0.005726
0.015845
0.002198
-0.072325
-0.008653
-0.138425
-0.103502
-0.003121
-0.001066
-0.481296
-0.394272
-0.698834
-0.536229
-0.123312
-0.066880
0.011434
0.001403
-0.006864
-0.005646
-0.561955
-0.559464
-0.570663
-0.575598
-0.237937
-0.523709
-0.115959
-0.193549
0.138084
0.093372
0.077094
-0.465045
-0.495802
0.115257
0.028904
0.007131
0.045812
-0.509423
-0.497059
-0.489615
0.137616
-0.648981
-0.493850
-0.457893
-0.431623
-0.427829
-0.037380
-0.068755
-0.024125
-0.486306
-0.562394
-0.564576
-0.016645
0.014569
0.029089
-0.002644
-0.013123
-0.016958
-0.524798
-0.524021
-0.525646
-0.022218
-0.506431
-0.502332
-0.485838
0.019366
0.028202
-0.000347
0.017284
0.004822
-0.010755
-0.017368
-0.092570
-0.039522
-0.008963
-0.019537
0.064883
0.143312
0.163695
-0.580565
-0.196624
-0.413723
-0.412197
-0.234345
-0.592997
-0.524585
-0.519341
-0.492597
-0.552178
-0.503885
-0.016877
0.010057
0.006569
0.003902
0.049905
0.039902
-0.497015
-0.496114
-0.487483
0.014431
0.017435
0.004928
-0.467531
-0.447214
-0.495950
-0.454312
0.028280
0.101839
0.102651
0.129595
-0.008038
-0.478445
-0.026889
0.008992
0.003502
-0.001618
-0.545814
-0.513489
-0.508883
-0.562240
-0.500107
-0.534110
-0.519038
-0.507152
-0.481320
-0.490634
-0.496019
-0.485540
-0.342554
-0.007846
-0.005910
-0.002723
0.001366
-0.586985
-0.554365
-0.587416
-0.011492
-0.007265
-0.001176
-0.586592
-0.562978
-0.564714
-0.014690
-0.441370
-0.481679
-0.502977
-0.552284
-0.551725
-0.521620
-0.564713
-0.555295
-0.568249
-0.544720
0.080799
0.067556
0.064179
0.073156
0.092387
0.059349
0.074955
0.021494
0.030637
0.016868
-0.518334
-0.507225
-0.490896
-0.508271
-0.505095
-0.501548
-0.012635
-0.017086
-0.009486
-0.004600
0.007171
0.029158
-0.007246
-0.042129
-0.014781
-0.040634
-0.090573
-0.541851
-0.581348
-0.539679
-0.492085
0.031079
0.047226
0.030220
0.020887
0.024131
0.019689
0.037228
0.081593
0.083078
0.065982
0.068023
0.323127
-0.557610
-0.549415
-0.554473
-0.320670
-0.466143
-0.446076
-0.419670
0.101305
0.125778
0.120910
0.059411
0.031610
0.049420
0.027520
-0.507911
-0.509992
-0.568593
-0.522656
-0.516806
-0.535090
-0.558480
-0.543432
-0.557789
0.001131
-0.017172
0.009660
-0.502672
-0.533925
-0.516900
-0.008912
0.018124
-0.017862
0.105285
0.106570
0.100325
-0.006150
-0.020756
-0.014773
-0.025390
-0.032545
-0.566048
-0.573364
-0.007726
-0.021838
-0.000000
0.008035
0.006601
-0.003988
-0.016911
-0.004458
0.005881
-0.442174
-0.456315
-0.563890
-0.577244
-0.553168
-0.042093
-0.030499
0.107807
0.109456
0.004790
0.043056
0.013846
0.037162
0.013884
-0.007905
-0.005492
0.006748
-0.563487
-0.547734
-0.578695
-0.549130
-0.601448
-0.519077
-0.616544
-0.513331
-0.022968
-0.080194
0.028246
0.119355
-0.583052
-0.543188
-0.560764
-0.545575
0.096538
0.128910
0.057206
0.063540
0.034836
-0.485668
-0.478095
-0.475151
0.053985
-0.455329
-0.479141
-0.494566
0.070833
-0.485460
-0.553990
-0.592271
-0.550981
-0.014870
0.012488
-0.010279
-0.536642
-0.542618
-0.526792
-0.017387
-0.015139
0.007536
-0.097604
0.023030
0.006745
0.086410
-0.475920
-0.482963
-0.446871
-0.487683
-0.540219
-0.579222
-0.539389
0.016920
0.026446
-0.000534
0.011192
0.004904
0.007973
-0.558932
-0.577878
-0.574876
-0.572837
-0.496787
-0.408195
-0.028042
-0.033032
0.096724
0.103120
-0.015212
0.021320
0.018438
0.019741
-0.536571
-0.593771
-0.532184
-0.582095
-0.597299
-0.549799
-0.024354
0.018281
-0.011353
-0.018109
0.108258
0.093819
0.001648
-0.076838
0.061332
0.041094
0.021635
0.019200
0.022916
0.018785
-0.525191
-0.538743
-0.501941
0.003705
0.004010
0.001604
0.004513
-0.025395
0.003125
-0.013081
-0.589743
-0.489796
-0.506110
-0.522534
-0.555574
-0.578306
-0.620013
-0.429194
-0.462812
-0.468117
-0.048050
-0.033678
0.001662
-0.475808
-0.476386
-0.475226
-0.431478
-0.461134
0.003764
-0.007037
-0.547164
-0.564417
-0.560680
0.103785
0.074196
-0.499545
-0.512459
-0.036559
0.010637
-0.021401
0.000484
-0.028792
-0.025142
-0.022310
0.005532
0.011119
0.013430
-0.477374
-0.480347
-0.047323
-0.003761
0.001476
-0.509807
-0.503643
-0.505332
0.008459
-0.558068
-0.551240
-0.544715
0.165616
0.028740
0.019456
-0.574686
-0.570856
0.094862
0.120505
-0.551043
-0.543312
-0.552994
-0.518227
-0.433895
-0.007313
-0.027873
-0.009012
-0.003359
-0.027048
-0.550189
-0.542768
-0.579144
-0.584499
-0.537973
0.106012
0.099007
-0.567538
-0.565075
-0.560382
0.012457
0.008046
-0.441407
-0.469974
-0.457079
-0.461751
0.003368
0.008781
0.001004
-0.581183
-0.560102
-0.564615
-0.554316
-0.557895
-0.548748
-0.565856
-0.541301
-0.582514
-0.530997
0.001509
-0.003724
-0.003340
-0.003863
-0.022923
-0.008461
-0.004395
-0.576828
-0.577644
-0.576908
-0.465468
-0.419763
-0.407479
-0.414080
-0.542828
-0.596126
-0.554821
-0.572324
-0.573726
-0.587616
0.107325
0.141385
-0.571207
0.022193
-0.013045
-0.558090
-0.069871
-0.505804
0.291538
-0.578819
-0.556690
-0.013492
-0.589722
-0.585026
0.027616
-0.002750
0.002632
-0.047599
-0.032619
-0.006305
0.001279
-0.015523
0.063970
0.116391
0.080658
0.077635
0.099472
0.111411
-0.532391
-0.536110
-0.533249
-0.529896
0.012957
0.003504
0.015685
-0.042243
-0.007639
-0.457075
-0.460049
0.061501
0.042657
-0.587177
-0.576531
-0.573220
-0.568203
-0.005069
-0.061398
-0.058436
-0.048017
0.107947
0.191206
0.072605
0.198635
0.184678
-0.489224
-0.484273
-0.475154
0.014390
-0.545538
-0.543818
-0.568050
-0.447911
-0.481277
-0.037832
-0.001603
-0.023984
-0.015674
-0.506819
-0.461880
-0.484595
-0.479946
-0.481649
-0.483537
-0.003388
-0.001513
0.136400
0.039012
0.040097
0.002582
-0.446633
-0.455433
-0.478485
-0.501985
-0.463147
-0.585063
-0.438179
0.012999
0.002155
-0.009410
-0.020369
-0.031994
-0.460130
-0.456215
-0.586680
-0.565843
-0.557496
-0.590359
-0.425684
-0.535732
-0.544340
-0.534369
-0.577446
0.138750
-0.050250
0.002599
0.019861
0.014687
-0.014752
-0.011329
0.014184
-0.565399
-0.557623
-0.570527
-0.017025
-0.016048
-0.539242
-0.556457
-0.566939
-0.553659
-0.005431
-0.017398
-0.047916
-0.569232
-0.003725
-0.009838
-0.558751
-0.557005
0.012344
0.013405
0.007632
0.080213
0.002948
0.008723
-0.001272
-0.004749
-0.558866
-0.593300
-0.589920
-0.542668
-0.536036
-0.543462
-0.522730
-0.007171
-0.008676
-0.025330
-0.016650
0.138961
0.092673
0.095946
0.007116
0.079393
0.068770
0.001103
-0.237828
-0.481843
-0.474819
-0.485568
-0.498338
-0.488724
-0.578687
-0.574490
-0.575430
-0.501959
-0.510880
-0.531200
-0.507162
0.118708
0.084047
-0.029828
-0.027279
-0.571071
-0.373006
-0.426105
-0.285491
-0.576875
-0.557499
-0.574095
-0.424147
-0.489121
-0.464595
-0.431673
-0.032364
-0.490762
-0.022190
0.175315
-0.014782
0.230970
0.158461
-0.018708
-0.009959
-0.005974
0.008528
-0.454208
-0.464626
-0.011747
-0.536435
-0.568736
-0.011802
-0.002210
-0.487347
-0.557241
0.001564
-0.038405
-0.034509
-0.023163
-0.465417
-0.467728
-0.452652
-0.016868
0.007804
-0.587745
-0.038779
0.010861
-0.080564
-0.562107
-0.558966
-0.579255
0.019303
-0.000600
-0.012523
-0.550451
0.026401
0.028056
-0.034969
-0.611845
-0.573458
-0.596658
-0.436445
-0.040835
-0.001575
-0.000608
-0.492589
-0.515222
-0.489651
-0.473193
-0.455337
-0.499886
-0.003485
-0.004776
0.006662
0.003516
-0.083501
-0.053643
0.003046
-0.061914
-0.043334
-0.457004
-0.477635
-0.502272
-0.453821
-0.286425
-0.480693
-0.477273
-0.466795
-0.034656
-0.004801
-0.577112
-0.553949
-0.567794
-0.541657
-0.449642
-0.492889
-0.501093
-0.017309
-0.006937
-0.487463
-0.472562
-0.468385
0.158437
0.079908
0.187356
0.000638
-0.577148
-0.452232
-0.014023
0.001641
-0.008472
-0.563801
0.025605
0.031739
0.013551
0.000116
-0.586578
0.001416
0.007805
-0.000387
0.017575
0.004007
-0.445129
-0.483516
-0.488150
-0.478524
-0.004099
-0.006404
0.001620
-0.007595
0.105019
0.109129
0.100604
0.100476
-0.569406
-0.583600
-0.559409
-0.520043
-0.513627
0.010521
0.001028
0.010740
0.005854
0.013535
-0.013778
0.014366
-0.496886
-0.473269
0.040996
0.031356
0.057765
-0.614380
-0.572164
-0.570339
-0.542789
-0.552358
-0.487585
0.122249
0.137188
0.158525
0.090023
-0.114796
-0.483765
-0.489072
-0.545756
0.002551
0.007802
-0.555195
0.023825
0.024953
-0.513187
-0.503975
-0.513028
-0.564593
-0.568794
-0.019478
-0.541369
-0.540976
-0.526963
-0.546035
0.098379
0.089080
0.116305
0.134912
-0.549060
-0.495598
-0.537187
-0.471924
-0.505750
0.005551
0.019586
0.012196
0.055663
0.049747
0.061065
-0.013147
-0.022691
-0.015057
-0.588587
0.029973
-0.571434
-0.572453
-0.556695
-0.563535
-0.556461
-0.550425
-0.518780
-0.555763
0.004225
-0.016289
-0.544866
0.013661
-0.021465
-0.008673
-0.013081
-0.512884
-0.504512
-0.503225
-0.033295
-0.015403
0.006433
0.004895
0.013859
-0.423307
-0.029232
-0.009025
-0.010759
-0.460963
-0.475465
-0.474983
0.155641
0.121877
0.055118
-0.003786
-0.010770
-0.563395
-0.558571
-0.564502
-0.336394
-0.577702
-0.588548
-0.595653
-0.555788
-0.568918
-0.544098
-0.235988
-0.361359
-0.293343
-0.403435
-0.475613
-0.497795
-0.040007
-0.011742
-0.110874
-0.518661
-0.474236
0.022876
-0.015028
0.150107
0.159358
0.152624
0.177048
-0.489960
-0.484254
-0.010442
-0.003896
-0.011157
0.021026
-0.005282
-0.010374
-0.566339
0.003283
-0.022756
-0.032614
-0.002460
-0.543675
-0.531178
-0.524646
-0.505599
-0.593614
-0.560180
-0.579607
-0.582615
-0.001228
0.002506
0.016044
-0.579467
-0.594085
-0.530689
-0.546704
-0.483766
0.313331
-0.008481
-0.493658
-0.461597
-0.241977
-0.503582
0.172445
0.179931
-0.492143
-0.519448
-0.175656
-0.244031
-0.011588
-0.019097
-0.012759
-0.501303
-0.497951
-0.505686
0.058304
0.133493
0.075835
-0.562084
-0.480314
-0.533265
-0.431898
-0.473854
-0.559808
-0.562010
-0.539410
-0.553571
-0.010806
-0.544267
-0.563123
-0.581214
-0.577426
0.006630
0.016379
0.015350
-0.019880
-0.014075
-0.492965
-0.470312
-0.449576
-0.002275
-0.011390
-0.011637
-0.005553
-0.013842
-0.463358
-0.460267
-0.438839
-0.413341
-0.589532
-0.429374
0.142519
0.149144
0.142914
0.109069
-0.478148
-0.483830
-0.069312
-0.045120
-0.040775
0.006398
-0.001093
0.004945
-0.540949
-0.562875
-0.020191
-0.008943
-0.479680
-0.427867
-0.005608
-0.018017
0.006273
-0.009086
-0.497324
-0.488033
-0.011794
-0.570874
-0.574746
-0.511648
0.002498
0.004832
-0.533747
-0.532907
-0.536830
-0.541753
-0.554553
-0.576324
-0.572808
0.004469
0.003132
-0.009868
-0.547378
-0.557303
-0.581518
0.054622
0.082260
0.101056
0.130169
-0.527339
-0.558331
-0.518634
-0.459305
0.057709
0.053448
0.067125
-0.575182
0.053887
-0.534198
0.005551
0.038041
-0.140087
-0.018444
0.097536
-0.564434
-0.573094
-0.563564
-0.000006
0.003721
0.012529
0.146608
0.108465
0.066808
-0.126110
-0.084706
0.130620
0.146805
0.148607
0.001394
-0.095821
-0.074837
-0.109304
0.081850
-0.008221
0.047319
0.048343
0.029124
-0.492025
-0.012936
-0.007059
-0.006153
-0.014317
-0.015656
-0.447408
0.028644
-0.567451
-0.505744
-0.579239
-0.360706
-0.010944
-0.559489
-0.544764
-0.568456
-0.536409
-0.553106
0.129137
-0.454670
-0.485864
-0.467731
-0.442794
-0.007095
-0.455138
-0.486328
-0.471507
-0.481234
-0.487156
-0.005858
-0.548530
-0.549581
-0.566946
0.001554
-0.569883
-0.577498
-0.004177
0.061865
0.074629
-0.011167
-0.560257
0.175862
0.115344
0.033065
-0.569438
-0.567538
-0.567625
0.009541
0.002571
0.002757
-0.597435
-0.488045
-0.384813
-0.494924
-0.512562
-0.518166
-0.526222
-0.597278
-0.583831
-0.575329
-0.538363
-0.434800
-0.494998
0.079572
-0.476665
-0.528460
0.048344
0.052742
0.033283
-0.514588
-0.510754
-0.015427
-0.019940
-0.033665
-0.029873
-0.019309
0.050437
-0.483051
-0.571267
-0.563670
0.014623
-0.004079
-0.004276
-0.576324
-0.572788
-0.569213
0.014198
0.015567
0.011398
-0.499426
-0.488902
-0.501202
-0.498022
-0.471440
-0.482936
-0.002798
-0.000455
0.022943
0.001862
-0.484759
-0.481682
-0.471471
-0.486242
-0.549296
-0.528030
-0.559867
-0.496411
-0.482383
-0.483139
-0.483449
-0.025062
-0.026745
-0.004582
-0.009349
-0.503726
-0.530357
-0.555428
-0.581899
-0.567483
0.144175
-0.017110
-0.030836
0.095031
0.184347
-0.003763
-0.600722
0.148104
-0.497064
-0.504798
-0.504150
-0.496816
-0.544408
-0.567561
-0.545124
-0.533481
-0.067066
-0.014131
-0.084495
-0.571046
-0.005765
-0.018792
-0.003735
-0.107452
-0.490571
-0.677874
-0.492000
0.109866
0.105595
0.118879
-0.471826
-0.498497
-0.016007
-0.558510
-0.006711
-0.007487
0.001395
0.009723
-0.016870
0.011175
0.005113
-0.038461
-0.021441
-0.482082
-0.489401
0.035427
0.047426
0.094694
-0.516079
-0.600386
-0.570717
0.103444
-0.563092
-0.567732
-0.555743
-0.449467
-0.527314
-0.603814
-0.581334
-0.598379
-0.504691
-0.498709
-0.497446
0.087303
-0.176855
-0.004030
-0.010595
-0.477935
-0.495805
-0.485553
-0.517994
-0.507336
-0.529155
-0.427903
-0.500629
-0.547453
-0.582294
-0.574201
-0.528357
-0.547017
-0.530951
-0.002987
0.011738
-0.010154
-0.575236
-0.572207
-0.568790
-0.104075
-0.366733
-0.020864
-0.008874
-0.477658
-0.556492
-0.552416
-0.001400
-0.002687
-0.009010
-0.034965
-0.008167
-0.486774
-0.491139
-0.574819
0.006191
0.024742
-0.552438
0.032518
0.040516
0.022791
0.025534
-0.561062
-0.600538
-0.538631
-0.480553
-0.508024
-0.508234
-0.001263
0.005517
-0.395783
-0.239668
-0.623449
-0.442936
-0.111414
-0.279309
-0.497423
-0.497501
-0.013912
-0.016592
-0.010711
0.001582
-0.555283
-0.012782
-0.011786
-0.009559
-0.492101
-0.491036
0.077815
0.105667
0.069217
0.088261
0.093562
0.080276
0.061833
-0.018473
0.007863
-0.007331
0.037918
0.001436
-0.016303
-0.503575
-0.506398
-0.490388
-0.502778
-0.058289
-0.072940
-0.068364
0.167210
-0.026749
-0.094890
-0.121318
-0.109137
0.040580
0.024108
0.015741
-0.497946
-0.481547
0.122520
0.106805
-0.028102
0.039972
0.028021
0.100857
0.089345
0.025965
0.025103
0.052131
0.042929
-0.022527
-0.008411
0.081372
0.042891
0.108499
0.086867
0.042160
0.106987
0.112878
0.122124
-0.053251
-0.482842
-0.495902
-0.473125
-0.470649
-0.501943
0.025177
0.052336
0.040608
0.017359
0.046046
0.080872
0.107917
0.095079
-0.495492
-0.502495
-0.481571
-0.498964
-0.496156
-0.473610
-0.491090
-0.480280
0.001896
-0.015458
-0.478712
-0.002744
0.097972
0.083712
0.106072
0.076900
0.002636
-0.139864
0.002871
-0.017628
-0.567883
-0.567767
-0.023538
-0.061006
0.011818
-0.015840
-0.576179
-0.570426
-0.566862
-0.580748
-0.497668
-0.506689
-0.506043
-0.497543
-0.490631
-0.480404
-0.017662
-0.004693
-0.494215
-0.484777
-0.477577
-0.481970
0.083120
0.096995
0.088626
0.097180
0.040073
-0.460191
-0.474814
-0.477008
0.119216
0.103723
0.100611
-0.027424
-0.028349
-0.012355
-0.004647
-0.122543
-0.117857
-0.043037
-0.103842
-0.147224
-0.138835
-0.493255
-0.490797
-0.022271
0.004530
0.115906
-0.009684
-0.479067
-0.482866
-0.498501
0.027944
-0.566846
-0.473962
-0.004683
0.001508
0.002416
0.000790
-0.005323
0.005065
-0.483707
-0.525454
-0.017017
-0.030151
0.003954
-0.569887
-0.031863
-0.007603
-0.027095
0.006809
0.005085
-0.492056
-0.496040
0.004583
-0.014166
0.003303
-0.009405
-0.560384
-0.522541
-0.551169
-0.558160
-0.039589
-0.010924
-0.005622
-0.024938
-0.016315
-0.022535
-0.484925
-0.499308
-0.018846
-0.016288
-0.019009
-0.007156
-0.042070
-0.553038
-0.554382
-0.532988
-0.551830
-0.538126
-0.534040
-0.561003
-0.025779
-0.499487
-0.498907
-0.496035
-0.488793
0.057149
0.044940
0.073854
0.087679
0.001358
0.008956
-0.004626
-0.010543
-0.006914
-0.007136
-0.014373
-0.447239
-0.193269
-0.331551
-0.094146
0.127064
-0.109405
-0.124445
0.009783
-0.497240
-0.494937
-0.509170
-0.492827
-0.008601
-0.568941
-0.559320
0.056422
-0.002283
0.088092
0.069543
-0.011640
-0.491692
-0.492831
-0.016740
-0.162190
-0.008030
0.001680
-0.011084
0.046226
0.034543
0.037074
-0.532902
-0.523115
-0.392901
-0.545159
-0.502193
-0.486592
0.007254
-0.487690
-0.496181
-0.497760
-0.490735
-0.014538
-0.058364
-0.000267
0.029846
0.034493
0.049011
0.033368
0.035510
-0.007556
0.000983
-0.000759
-0.010033
-0.035327
-0.037813
-0.494020
-0.017718
-0.032875
-0.010741
-0.007065
-0.002952
0.004193
-0.019378
-0.482985
-0.010376
-0.003908
-0.552443
0.046515
0.041518
0.049819
-0.494227
-0.494812
-0.578467
-0.574989
-0.536122
-0.540948
-0.564495
-0.585744
-0.579526
-0.572787
0.057338
0.094575
-0.019910
-0.482943
-0.498795
-0.027800
-0.033406
-0.013530
0.037492
-0.429326
-0.529911
-0.534764
-0.492845
-0.550026
-0.508131
-0.534887
-0.558583