# vtk DataFile Version 2.0
Test
ASCII
DATASET POLYDATA
POINTS 7607 float
0.000000 0.000000 0.000000
1.000000 0.000000 0.000000
1.000000 0.800000 0.000000
1.000000 1.000000 0.000000
0.000000 1.000000 0.000000
0.000000 0.200000 0.000000
0.300000 0.330000 0.000000
0.700000 0.680000 0.000000
0.012987 0.000000 0.000000
0.025974 0.000000 0.000000
0.038961 0.000000 0.000000
0.051948 0.000000 0.000000
0.064935 0.000000 0.000000
0.077922 0.000000 0.000000
0.090909 0.000000 0.000000
0.103896 0.000000 0.000000
0.116883 0.000000 0.000000
0.129870 0.000000 0.000000
0.142857 0.000000 0.000000
0.155844 0.000000 0.000000
0.168831 0.000000 0.000000
0.181818 0.000000 0.000000
0.194805 0.000000 0.000000
0.207792 0.000000 0.000000
0.220779 0.000000 0.000000
0.233766 0.000000 0.000000
0.246753 0.000000 0.000000
0.259740 0.000000 0.000000
0.272727 0.000000 0.000000
0.285714 0.000000 0.000000
0.298701 0.000000 0.000000
0.311688 0.000000 0.000000
0.324675 0.000000 0.000000
0.337662 0.000000 0.000000
0.350649 0.000000 0.000000
0.363636 0.000000 0.000000
0.376623 0.000000 0.000000
0.389610 0.000000 0.000000
0.402597 0.000000 0.000000
0.415584 0.000000 0.000000
0.428571 0.000000 0.000000
0.441558 0.000000 0.000000
0.454545 0.000000 0.000000
0.467532 0.000000 0.000000
0.480519 0.000000 0.000000
0.493506 0.000000 0.000000
0.506494 0.000000 0.000000
0.519481 0.000000 0.000000
0.532468 0.000000 0.000000
0.545455 0.000000 0.000000
0.558442 0.000000 0.000000
0.571429 0.000000 0.000000
0.584416 0.000000 0.000000
0.597403 0.000000 0.000000
0.610390 0.000000 0.000000
0.623377 0.000000 0.000000
0.636364 0.000000 0.000000
0.649351 0.000000 0.000000
0.662338 0.000000 0.000000
0.675325 0.000000 0.000000
0.688312 0.000000 0.000000
0.701299 0.000000 0.000000
0.714286 0.000000 0.000000
0.727273 0.000000 0.000000
0.740260 0.000000 0.000000
0.753247 0.000000 0.000000
0.766234 0.000000 0.000000
0.779221 0.000000 0.000000
0.792208 0.000000 0.000000
0.805195 0.000000 0.000000
0.818182 0.000000 0.000000
0.831169 0.000000 0.000000
0.844156 0.000000 0.000000
0.857143 0.000000 0.000000
0.870130 0.000000 0.000000
0.883117 0.000000 0.000000
0.896104 0.000000 0.000000
0.909091 0.000000 0.000000
0.922078 0.000000 0.000000
0.935065 0.000000 0.000000
0.948052 0.000000 0.000000
0.961039 0.000000 0.000000
0.974026 0.000000 0.000000
0.987013 0.000000 0.000000
1.000000 0.012903 0.000000
1.000000 0.025806 0.000000
1.000000 0.038710 0.000000
1.000000 0.051613 0.000000
1.000000 0.064516 0.000000
1.000000 0.077419 0.000000
1.000000 0.090323 0.000000
1.000000 0.103226 0.000000
1.000000 0.116129 0.000000
1.000000 0.129032 0.000000
1.000000 0.141935 0.000000
1.000000 0.154839 0.000000
1.000000 0.167742 0.000000
1.000000 0.180645 0.000000
1.000000 0.193548 0.000000
1.000000 0.206452 0.000000
1.000000 0.219355 0.000000
1.000000 0.232258 0.000000
1.000000 0.245161 0.000000
1.000000 0.258065 0.000000
1.000000 0.270968 0.000000
1.000000 0.283871 0.000000
1.000000 0.296774 0.000000
1.000000 0.309677 0.000000
1.000000 0.322581 0.000000
1.000000 0.335484 0.000000
1.000000 0.348387 0.000000
1.000000 0.361290 0.000000
1.000000 0.374194 0.000000
1.000000 0.387097 0.000000
1.000000 0.400000 0.000000
1.000000 0.412903 0.000000
1.000000 0.425806 0.000000
1.000000 0.438710 0.000000
1.000000 0.451613 0.000000
1.000000 0.464516 0.000000
1.000000 0.477419 0.000000
1.000000 0.490323 0.000000
1.000000 0.503226 0.000000
1.000000 0.516129 0.000000
1.000000 0.529032 0.000000
1.000000 0.541935 0.000000
1.000000 0.554839 0.000000
1.000000 0.567742 0.000000
1.000000 0.580645 0.000000
1.000000 0.593548 0.000000
1.000000 0.606452 0.000000
1.000000 0.619355 0.000000
1.000000 0.632258 0.000000
1.000000 0.645161 0.000000
1.000000 0.658065 0.000000
1.000000 0.670968 0.000000
1.000000 0.683871 0.000000
1.000000 0.696774 0.000000
1.000000 0.709677 0.000000
1.000000 0.722581 0.000000
1.000000 0.735484 0.000000
1.000000 0.748387 0.000000
1.000000 0.761290 0.000000
1.000000 0.774194 0.000000
1.000000 0.787097 0.000000
1.000000 0.812500 0.000000
1.000000 0.825000 0.000000
1.000000 0.837500 0.000000
1.000000 0.850000 0.000000
1.000000 0.862500 0.000000
1.000000 0.875000 0.000000
1.000000 0.887500 0.000000
1.000000 0.900000 0.000000
1.000000 0.912500 0.000000
1.000000 0.925000 0.000000
1.000000 0.937500 0.000000
1.000000 0.950000 0.000000
1.000000 0.962500 0.000000
1.000000 0.975000 0.000000
1.000000 0.987500 0.000000
0.987013 1.000000 0.000000
0.974026 1.000000 0.000000
0.961039 1.000000 0.000000
0.948052 1.000000 0.000000
0.935065 1.000000 0.000000
0.922078 1.000000 0.000000
0.909091 1.000000 0.000000
0.896104 1.000000 0.000000
0.883117 1.000000 0.000000
0.870130 1.000000 0.000000
0.857143 1.000000 0.000000
0.844156 1.000000 0.000000
0.831169 1.000000 0.000000
0.818182 1.000000 0.000000
0.805195 1.000000 0.000000
0.792208 1.000000 0.000000
0.779221 1.000000 0.000000
0.766234 1.000000 0.000000
0.753247 1.000000 0.000000
0.740260 1.000000 0.000000
0.727273 1.000000 0.000000
0.714286 1.000000 0.000000
0.701299 1.000000 0.000000
0.688312 1.000000 0.000000
0.675325 1.000000 0.000000
0.662338 1.000000 0.000000
0.649351 1.000000 0.000000
0.636364 1.000000 0.000000
0.623377 1.000000 0.000000
0.610390 1.000000 0.000000
0.597403 1.000000 0.000000
0.584416 1.000000 0.000000
0.571429 1.000000 0.000000
0.558442 1.000000 0.000000
0.545455 1.000000 0.000000
0.532468 1.000000 0.000000
0.519481 1.000000 0.000000
0.506494 1.000000 0.000000
0.493506 1.000000 0.000000
0.480519 1.000000 0.000000
0.467532 1.000000 0.000000
0.454545 1.000000 0.000000
0.441558 1.000000 0.000000
0.428571 1.000000 0.000000
0.415584 1.000000 0.000000
0.402597 1.000000 0.000000
0.389610 1.000000 0.000000
0.376623 1.000000 0.000000
0.363636 1.000000 0.000000
0.350649 1.000000 0.000000
0.337662 1.000000 0.000000
0.324675 1.000000 0.000000
0.311688 1.000000 0.000000
0.298701 1.000000 0.000000
0.285714 1.000000 0.000000
0.272727 1.000000 0.000000
0.259740 1.000000 0.000000
0.246753 1.000000 0.000000
0.233766 1.000000 0.000000
0.220779 1.000000 0.000000
0.207792 1.000000 0.000000
0.194805 1.000000 0.000000
0.181818 1.000000 0.000000
0.168831 1.000000 0.000000
0.155844 1.000000 0.000000
0.142857 1.000000 0.000000
0.129870 1.000000 0.000000
0.116883 1.000000 0.000000
0.103896 1.000000 0.000000
0.090909 1.000000 0.000000
0.077922 1.000000 0.000000
0.064935 1.000000 0.000000
0.051948 1.000000 0.000000
0.038961 1.000000 0.000000
0.025974 1.000000 0.000000
0.012987 1.000000 0.000000
0.000000 0.987097 0.000000
0.000000 0.974194 0.000000
0.000000 0.961290 0.000000
0.000000 0.948387 0.000000
0.000000 0.935484 0.000000
0.000000 0.922581 0.000000
0.000000 0.909677 0.000000
0.000000 0.896774 0.000000
0.000000 0.883871 0.000000
0.000000 0.870968 0.000000
0.000000 0.858065 0.000000
0.000000 0.845161 0.000000
0.000000 0.832258 0.000000
0.000000 0.819355 0.000000
0.000000 0.806452 0.000000
0.000000 0.793548 0.000000
0.000000 0.780645 0.000000
0.000000 0.767742 0.000000
0.000000 0.754839 0.000000
0.000000 0.741935 0.000000
0.000000 0.729032 0.000000
0.000000 0.716129 0.000000
0.000000 0.703226 0.000000
0.000000 0.690323 0.000000
0.000000 0.677419 0.000000
0.000000 0.664516 0.000000
0.000000 0.651613 0.000000
0.000000 0.638710 0.000000
0.000000 0.625806 0.000000
0.000000 0.612903 0.000000
0.000000 0.600000 0.000000
0.000000 0.587097 0.000000
0.000000 0.574194 0.000000
0.000000 0.561290 0.000000
0.000000 0.548387 0.000000
0.000000 0.535484 0.000000
0.000000 0.522581 0.000000
0.000000 0.509677 0.000000
0.000000 0.496774 0.000000
0.000000 0.483871 0.000000
0.000000 0.470968 0.000000
0.000000 0.458065 0.000000
0.000000 0.445161 0.000000
0.000000 0.432258 0.000000
0.000000 0.419355 0.000000
0.000000 0.406452 0.000000
0.000000 0.393548 0.000000
0.000000 0.380645 0.000000
0.000000 0.367742 0.000000
0.000000 0.354839 0.000000
0.000000 0.341935 0.000000
0.000000 0.329032 0.000000
0.000000 0.316129 0.000000
0.000000 0.303226 0.000000
0.000000 0.290323 0.000000
0.000000 0.277419 0.000000
0.000000 0.264516 0.000000
0.000000 0.251613 0.000000
0.000000 0.238710 0.000000
0.000000 0.225806 0.000000
0.000000 0.212903 0.000000
0.000000 0.187500 0.000000
0.000000 0.175000 0.000000
0.000000 0.162500 0.000000
0.000000 0.150000 0.000000
0.000000 0.137500 0.000000
0.000000 0.125000 0.000000
0.000000 0.112500 0.000000
0.000000 0.100000 0.000000
0.000000 0.087500 0.000000
0.000000 0.075000 0.000000
0.000000 0.062500 0.000000
0.000000 0.050000 0.000000
0.000000 0.037500 0.000000
0.000000 0.025000 0.000000
0.000000 0.012500 0.000000
0.309756 0.338537 0.000000
0.319512 0.347073 0.000000
0.329268 0.355610 0.000000
0.339024 0.364146 0.000000
0.348780 0.372683 0.000000
0.358537 0.381220 0.000000
0.368293 0.389756 0.000000
0.378049 0.398293 0.000000
0.387805 0.406829 0.000000
0.397561 0.415366 0.000000
0.407317 0.423902 0.000000
0.417073 0.432439 0.000000
0.426829 0.440976 0.000000
0.436585 0.449512 0.000000
0.446341 0.458049 0.000000
0.456098 0.466585 0.000000
0.465854 0.475122 0.000000
0.475610 0.483659 0.000000
0.485366 0.492195 0.000000
0.495122 0.500732 0.000000
0.504878 0.509268 0.000000
0.514634 0.517805 0.000000
0.524390 0.526341 0.000000
0.534146 0.534878 0.000000
0.543902 0.543415 0.000000
0.553659 0.551951 0.000000
0.563415 0.560488 0.000000
0.573171 0.569024 0.000000
0.582927 0.577561 0.000000
0.592683 0.586098 0.000000
0.602439 0.594634 0.000000
0.612195 0.603171 0.000000
0.621951 0.611707 0.000000
0.631707 0.620244 0.000000
0.641463 0.628780 0.000000
0.651220 0.637317 0.000000
0.660976 0.645854 0.000000
0.670732 0.654390 0.000000
0.680488 0.662927 0.000000
0.690244 0.671463 0.000000
0.011538 0.205000 0.000000
0.023077 0.210000 0.000000
0.034615 0.215000 0.000000
0.046154 0.220000 0.000000
0.057692 0.225000 0.000000
0.069231 0.230000 0.000000
0.080769 0.235000 0.000000
0.092308 0.240000 0.000000
0.103846 0.245000 0.000000
0.115385 0.250000 0.000000
0.126923 0.255000 0.000000
0.138462 0.260000 0.000000
0.150000 0.265000 0.000000
0.161538 0.270000 0.000000
0.173077 0.275000 0.000000
[...]
POINT_DATA 7607
SCALARS UX float 1
LOOKUP_TABLE default
0.006168
0.001964
-0.153995
-0.742014
-0.851295
-0.235732
-0.011635
-0.503025
-0.002366
0.000153
0.002375
0.001347
0.010485
0.000371
-0.000223
0.010071
0.000273
0.001021
-0.000303
0.000063
0.000202
-0.000090
-0.000179
0.000179
-0.000110
0.000269
0.000104
-0.001419
-0.000206
-0.000178
-0.000630
-0.008617
0.000232
-0.000212
-0.000166
-0.000452
0.000362
0.000196
0.002478
0.000059
0.000659
-0.002216
0.000083
0.004460
0.000235
-0.000026
-0.002992
-0.000030
-0.000410
0.000123
0.000038
-0.003134
-0.000259
-0.001336
-0.000117
-0.000761
0.000108
-0.000069
0.000059
-0.001096
-0.001649
0.000504
-0.000329
-0.000501
0.003761
0.000940
-0.007241
0.000314
0.002254
0.000627
-0.001211
-0.000588
-0.005592
0.000209
0.005296
0.003107
-0.006208
0.000079
-0.000845
0.002050
0.000147
0.000881
-0.000202
-0.011448
-0.000640
0.014470
0.009392
0.019438
0.009003
0.021198
0.009898
0.023692
0.043064
0.042923
0.029830
0.045336
0.031732
0.052319
0.031031
0.034409
0.049669
0.055115
0.048630
0.062644
0.053033
0.062299
0.068947
0.047159
0.062984
0.075193
0.058501
0.087660
0.073964
0.073839
0.080921
0.067206
0.090058
0.075761
0.103417
0.068063
0.092359
0.101672
0.078291
0.087008
0.117444
0.088220
0.106261
0.106693
0.094700
0.106146
0.115797
0.091611
0.128616
0.078816
0.086819
0.113976
0.094317
0.099102
0.120267
0.054934
0.088416
-0.007947
0.050345
0.124817
-0.049508
-0.284926
-0.256862
-0.454705
-0.486390
-0.656740
-0.587801
-0.694315
-0.662377
-0.725676
-0.699589
-0.727694
-0.720720
-0.699066
-0.748531
-0.729282
-0.721195
-0.735970
-0.736172
-0.755518
-0.747874
-0.750252
-0.742309
-0.758240
-0.752313
-0.751113
-0.750363
-0.752562
-0.749972
-0.746918
-0.756196
-0.754885
-0.750068
-0.763228
-0.763705
-0.760990
-0.758647
-0.760330
-0.760003
-0.762514
-0.766014
-0.761935
-0.772195
-0.766189
-0.769069
-0.774366
-0.766423
-0.781016
-0.780281
-0.779749
-0.788132
-0.782774
-0.782560
-0.788110
-0.785008
-0.787839
-0.793169
-0.788221
-0.805269
-0.786032
-0.794232
-0.811064
-0.794512
-0.807942
-0.798715
-0.813973
-0.815708
-0.821659
-0.824215
-0.821529
-0.822404
-0.833394
-0.821396
-0.835105
-0.839912
-0.823316
-0.845162
-0.836260
-0.838597
-0.834790
-0.843839
-0.847477
-0.844842
-0.846278
-0.850091
-0.849704
-0.848480
-0.849936
-0.854494
-0.854266
-0.853146
-0.855820
-0.855214
-0.855724
-0.857251
-0.847980
-0.853767
-0.845205
-0.849943
-0.848993
-0.851619
-0.849330
-0.845904
-0.858884
-0.846919
-0.848836
-0.843417
-0.844187
-0.846896
-0.841909
-0.838328
-0.833055
-0.837662
-0.834074
-0.828465
-0.826847
-0.828263
-0.816694
-0.817179
-0.823424
-0.808053
-0.810623
-0.790605
-0.774164
-0.784889
-0.787369
-0.787264
-0.781624
-0.770079
-0.774977
-0.767322
-0.771271
-0.755450
-0.753015
-0.744359
-0.741528
-0.739479
-0.733376
-0.727322
-0.737649
-0.715064
-0.725489
-0.696355
-0.724098
-0.676560
-0.691338
-0.668968
-0.639423
-0.628571
-0.633099
-0.565675
-0.456446
-0.612783
-0.327753
-0.154754
-0.314363
-0.104482
0.010127
-0.070551
-0.044365
-0.022540
-0.017488
-0.028473
0.000245
-0.022983
-0.013942
-0.001568
-0.007278
0.174117
-0.016868
-0.165192
-0.231184
-0.082832
-0.124651
-0.200713
-0.263462
-0.234518
-0.283559
-0.321898
-0.352508
-0.098374
-0.199310
-0.357791
-0.406040
-0.256033
-0.392574
-0.441292
-0.249189
-0.243960
-0.349800
-0.595772
-0.367417
-0.407459
-0.413470
-0.480915
-0.517123
-0.530699
-0.579257
-0.308043
-0.482110
-0.422034
-0.276183
-0.393227
-0.319832
-0.625854
-0.344150
-0.650082
-0.654595
-0.418171
-0.649380
-0.238957
-0.515813
-0.208424
-0.455376
-0.811647
-0.493952
-0.657998
-0.123292
-0.560341
-0.297659
-0.518749
-0.502324
-0.430765
-0.482695
-0.477668
-0.191579
-0.054584
-0.567328
-0.100661
-0.234456
-0.595928
-0.091799
-0.378941
-0.411614
-0.140427
-0.253900
0.272603
-0.391050
0.634227
-0.175486
-0.218683
-0.266484
-0.410581
-0.039330
-0.199855
-0.247201
-0.078206
-0.297859
-0.060289
-0.152718
-0.279843
0.175458
-0.249056
-0.264018
-0.092878
-0.093174
-0.327992
-0.759446
-0.770771
-0.775106
-0.761162
0.011385
0.014175
0.018460
-0.638500
-0.624370
-0.592008
-0.623777
-0.571514
-0.409291
-0.016480
0.011661
0.010471
-0.660610
-0.842978
-0.843476
-0.857464
0.035987
0.015056
0.020153
0.008791
-0.095255
0.010949
-0.126419
-0.058978
-0.006666
0.005560
-0.642757
-0.556978
-0.754997
-0.607969
-0.058494
-0.108148
0.015560
0.002163
-0.005283
-0.005865
-0.843035
-0.841524
-0.849728
-0.853969
-0.485255
-0.791720
-0.258123
-0.446707
0.101933
0.052228
0.060978
-0.755410
-0.771962
0.031836
0.039183
0.021090
0.061948
-0.780487
-0.762572
-0.752281
0.068636
-0.738652
-0.757780
-0.716081
-0.695750
-0.703747
-0.026510
-0.048681
-0.028152
-0.748898
-0.846179
-0.845363
-0.022139
0.022536
0.004819
-0.005913
-0.016533
-0.017530
-0.803798
-0.807820
-0.804440
-0.020487
-0.772482
-0.765187
-0.746002
0.031649
0.034922
0.004094
0.033919
0.001621
-0.013884
-0.021097
-0.080348
-0.016376
-0.006782
-0.027343
0.020088
0.091593
0.137770
-0.712345
-0.438018
-0.336530
-0.659490
-0.585528
-0.737004
-0.695908
-0.799365
-0.779848
-0.789482
-0.754622
-0.015236
0.007351
0.004553
0.007998
0.051427
0.058753
-0.762297
-0.761390
-0.750601
0.021814
0.034714
0.008685
-0.738290
-0.716259
-0.756949
-0.727444
0.036146
0.034541
0.055857
0.048940
-0.005031
-0.776517
-0.027610
-0.012152
0.002227
-0.004218
-0.663072
-0.644035
-0.689032
-0.712397
-0.777811
-0.809538
-0.797008
-0.782145
-0.744109
-0.751915
-0.754713
-0.744977
-0.662117
-0.011152
-0.008484
-0.006532
-0.000260
-0.758574
-0.735876
-0.757100
-0.013326
-0.011023
-0.003024
-0.853439
-0.842861
-0.842117
-0.017317
-0.717036
-0.750826
-0.769000
-0.731113
-0.726070
-0.707839
-0.846405
-0.839228
-0.846090
-0.730247
0.054310
0.059139
0.044705
0.058928
0.055298
0.020510
0.041967
0.026580
0.038327
0.018294
-0.795181
-0.780572
-0.757919
-0.780704
-0.773099
-0.772125
-0.011755
-0.020597
-0.011545
-0.006542
0.013588
0.037600
-0.001288
-0.083004
0.016530
-0.071296
-0.060160
-0.759230
-0.788496
-0.785722
-0.751437
0.000142
0.029072
0.019867
0.017953
0.025586
0.023251
0.036091
0.074494
0.072327
0.049725
-0.033915
0.020653
-0.740756
-0.736476
-0.739357
-0.667093
-0.718078
-0.729489
-0.614579
0.042783
0.091489
0.089027
0.063276
-0.002113
0.018497
-0.003894
-0.779167
-0.790717
-0.736694
-0.695193
-0.755901
-0.823469
-0.839169
-0.826762
-0.840583
-0.001564
-0.018005
0.007542
-0.729750
-0.818244
-0.791570
-0.006063
0.028895
-0.022028
0.059914
0.045107
0.083292
-0.009946
-0.018160
-0.011937
-0.015056
-0.020762
-0.846179
-0.846014
-0.008634
-0.018799
-0.001850
0.014181
0.015441
0.003549
-0.021003
-0.006599
0.011041
-0.706738
-0.685572
-0.845025
-0.854856
-0.839773
-0.031583
-0.022119
0.082423
0.060145
0.011286
0.022492
-0.010026
-0.022688
0.011505
0.000081
-0.006299
0.006983
-0.724855
-0.719678
-0.742032
-0.701896
-0.724988
-0.657311
-0.763197
-0.656695
-0.029557
-0.098263
0.009331
0.042455
-0.737402
-0.710672
-0.712334
-0.687036
0.047002
0.107381
0.042594
0.030396
0.012313
-0.747454
-0.742716
-0.734685
0.009354
-0.727344
-0.742268
-0.752208
0.014934
-0.748224
-0.758758
-0.789723
-0.757089
-0.009265
0.008360
-0.010398
-0.796270
-0.796478
-0.784016
-0.019100
-0.006643
0.005169
-0.070267
0.031976
0.010430
0.040683
-0.739431
-0.742411
-0.712087
-0.760540
-0.647887
-0.716776
-0.802852
0.020480
0.038611
-0.004786
0.012363
0.014184
0.014861
-0.841092
-0.854320
-0.849046
-0.767950
-0.778338
-0.808196
-0.016424
-0.010676
0.067038
0.012198
-0.019674
0.030768
0.031268
0.026762
-0.701440
-0.742905
-0.685501
-0.730739
-0.731660
-0.695637
-0.021253
0.010368
-0.017750
-0.018434
0.078737
0.051348
0.025174
0.043147
-0.117649
-0.132171
0.026185
0.018303
0.023188
0.022764
-0.792038
-0.785569
-0.769655
0.006310
0.008365
0.003071
0.005763
-0.027540
-0.004078
-0.013826
-0.717667
-0.645419
-0.773455
-0.792798
-0.712153
-0.723699
-0.759580
-0.725469
-0.723265
-0.683973
-0.045784
-0.036252
-0.008767
-0.726755
-0.731669
-0.726737
-0.698863
-0.703675
0.004108
-0.005075
-0.832491
-0.846908
-0.843316
0.076233
0.046390
-0.775137
-0.787868
-0.011856
-0.006397
-0.013471
0.002947
-0.018117
-0.036517
-0.011606
0.004876
0.019324
0.013243
-0.739707
-0.746262
-0.036745
-0.002805
-0.002154
-0.783060
-0.776690
-0.775004
0.009161
-0.701354
-0.834849
-0.688987
0.132083
0.042176
0.026097
-0.850441
-0.850489
0.051506
0.075978
-0.830043
-0.826516
-0.836104
-0.771764
-0.734778
-0.005466
-0.027417
-0.011481
-0.002997
-0.017039
-0.832103
-0.823378
-0.847613
-0.848076
-0.815526
0.056222
0.065506
-0.761026
-0.752158
-0.745343
0.018676
0.009436
-0.710317
-0.737170
-0.716441
-0.716161
0.006885
0.011448
0.003705
-0.856383
-0.841774
-0.847484
-0.838547
-0.841658
-0.834625
-0.754918
-0.745201
-0.760195
-0.704273
0.003747
-0.000088
-0.001657
-0.002281
-0.029788
-0.002117
-0.003546
-0.840317
-0.842127
-0.844472
-0.698821
-0.673060
-0.659216
-0.688551
-0.675631
-0.725199
-0.738284
-0.846822
-0.847038
-0.854266
0.085255
0.121075
-0.764370
0.027886
-0.008384
-0.830978
-0.279219
-0.669446
0.128164
-0.853323
-0.839263
-0.021982
-0.860420
-0.859965
0.038617
-0.005255
-0.008022
-0.030825
-0.032382
-0.005885
-0.001497
-0.016214
0.036439
0.109178
0.059071
0.053811
0.091628
0.096936
-0.813735
-0.820462
-0.815919
-0.815755
0.016590
0.009758
0.023926
-0.035681
-0.001832
-0.706947
-0.718925
0.047372
0.015174
-0.847274
-0.842675
-0.841919
-0.837334
0.005961
-0.047619
-0.057585
-0.054473
-0.070696
0.118080
0.051609
0.061149
0.190128
-0.746666
-0.746959
-0.753055
0.022365
-0.719005
-0.727021
-0.746322
-0.568098
-0.542712
-0.028230
-0.021960
-0.012884
-0.017009
-0.771162
-0.733912
-0.749302
-0.747711
-0.751558
-0.730595
-0.003471
-0.001571
0.004258
0.020767
0.032848
-0.015479
-0.709133
-0.732144
-0.757782
-0.762573
-0.721126
-0.859953
-0.695031
0.000539
0.001549
-0.007737
-0.014838
-0.020143
-0.560570
-0.635932
-0.739743
-0.725196
-0.694978
-0.649508
-0.560551
-0.782242
-0.787448
-0.775234
-0.728353
-0.025459
-0.092994
-0.020615
0.006618
-0.006370
-0.022083
-0.014992
-0.011121
-0.834564
-0.833507
-0.839908
-0.023440
-0.019913
-0.776055
-0.839022
-0.848286
-0.692773
0.001895
-0.007957
-0.035251
-0.715484
-0.000101
-0.008593
-0.764809
-0.770360
0.008254
-0.002816
0.006699
0.032432
0.005091
0.009602
-0.001182
-0.004036
-0.802716
-0.819198
-0.822996
-0.811107
-0.802551
-0.803726
-0.791668
-0.008518
-0.012044
-0.023117
-0.017104
0.013811
0.052544
0.057957
0.007960
-0.030838
-0.011247
0.002138
-0.395838
-0.736287
-0.735469
-0.744882
-0.754571
-0.748072
-0.843262
-0.841286
-0.843655
-0.771787
-0.778768
-0.814806
-0.783208
0.071867
0.036669
-0.021020
-0.021054
-0.837650
-0.525817
-0.473124
-0.619244
-0.836218
-0.824810
-0.834760
-0.537754
-0.652076
-0.722844
-0.471731
-0.021190
-0.757219
-0.023473
0.106582
-0.012547
0.078109
0.096399
-0.020845
-0.010580
-0.007583
0.019311
-0.723778
-0.724581
-0.015732
-0.740689
-0.762475
-0.010995
-0.002506
-0.746641
-0.843255
-0.012653
-0.024640
-0.037771
-0.012062
-0.726588
-0.721111
-0.707234
-0.016706
-0.004038
-0.859983
-0.031043
0.015829
-0.047426
-0.847270
-0.844970
-0.720294
0.032807
0.003115
-0.010885
-0.695608
0.039680
0.037667
-0.033557
-0.758517
-0.725774
-0.744600
-0.694188
-0.038396
-0.000839
0.003803
-0.757479
-0.788189
-0.751957
-0.747205
-0.730352
-0.763631
-0.009326
-0.007013
0.017004
0.000374
-0.080431
-0.128598
0.006571
-0.320651
-0.411281
-0.711016
-0.741156
-0.776253
-0.728099
-0.327593
-0.743467
-0.745073
-0.727165
-0.024120
-0.014777
-0.849913
-0.836192
-0.843973
-0.638438
-0.636680
-0.579102
-0.629366
-0.015543
-0.005587
-0.751169
-0.733823
-0.729257
0.063039
-0.078613
0.134359
-0.324898
-0.838574
-0.721647
-0.014218
0.008493
-0.008427
-0.845470
-0.008230
-0.003336
0.003874
0.000252
-0.859891
0.003951
0.014045
-0.000470
0.018871
0.007260
-0.707172
-0.748684
-0.756606
-0.735840
-0.004301
-0.003589
0.001395
-0.005476
0.094453
0.102216
0.093371
0.090110
-0.851188
-0.858482
-0.843358
-0.818475
-0.751505
0.001723
-0.013426
0.014923
0.007343
0.019596
-0.017671
0.025023
-0.752592
-0.610285
0.043843
0.032692
0.060655
-0.659041
-0.751019
-0.797433
-0.778940
-0.785271
-0.753166
0.068935
0.060767
0.095522
0.043073
-0.380923
-0.729737
-0.748065
-0.826642
0.011932
0.007899
-0.826664
0.026809
0.037128
-0.788828
-0.777154
-0.785248
-0.843120
-0.845610
-0.017539
-0.823577
-0.827493
-0.810862
-0.830783
0.087470
0.078941
0.104596
0.123653
-0.626169
-0.765824
-0.685549
-0.628008
-0.662691
-0.004886
0.017619
0.020771
0.065231
0.057507
0.072160
-0.014764
-0.019207
-0.018444
-0.860397
0.038309
-0.793844
-0.850740
-0.842173
-0.759459
-0.747350
-0.694580
-0.666078
-0.724147
0.007566
-0.023126
-0.708362
0.129902
-0.021847
-0.011414
-0.020008
-0.782598
-0.771488
-0.773778
-0.022151
-0.019280
0.009442
0.005269
0.024819
-0.700744
-0.015814
-0.012947
-0.004173
-0.730564
-0.729676
-0.734333
0.041104
0.092595
0.078956
-0.008299
-0.014150
-0.846622
-0.840355
-0.845942
-0.389176
-0.767959
-0.767395
-0.786508
-0.836971
-0.848302
-0.828799
-0.357773
-0.538073
-0.555776
-0.612668
-0.589282
-0.590581
-0.032427
-0.010109
-0.205110
-0.781369
-0.739582
0.022782
-0.015223
0.109162
0.103345
0.101995
0.104425
-0.759335
-0.752270
-0.011287
0.000136
-0.012666
0.026776
0.002549
-0.015570
-0.848719
-0.001471
-0.003906
-0.026322
-0.002107
-0.830819
-0.818632
-0.708880
-0.696651
-0.771384
-0.845819
-0.855136
-0.857620
-0.000292
0.002803
0.026308
-0.681533
-0.699880
-0.641527
-0.655120
-0.754170
0.009944
-0.039418
-0.758835
-0.723625
-0.301066
-0.755874
0.074002
0.141133
-0.754583
-0.802650
-0.290750
-0.586527
-0.011769
-0.021063
-0.009916
-0.768394
-0.766024
-0.772085
0.049425
0.114851
0.051315
-0.844366
-0.658448
-0.693220
-0.640226
-0.716408
-0.797586
-0.803013
-0.700972
-0.720309
-0.005436
-0.769540
-0.846623
-0.856852
-0.853884
0.011558
0.024676
0.016176
-0.023211
0.007885
-0.759461
-0.725742
-0.729700
-0.005822
-0.012122
-0.015733
-0.010347
-0.013367
-0.736304
-0.731660
-0.582314
-0.516182
-0.737767
-0.597608
0.084491
0.109433
0.079409
0.020697
-0.743787
-0.748103
-0.076400
-0.113830
-0.044874
0.007808
-0.001285
-0.000467
-0.670972
-0.672091
-0.016017
-0.010331
-0.744682
-0.690192
-0.006156
-0.013318
0.005882
-0.013817
-0.764028
-0.747397
-0.010499
-0.852208
-0.855079
-0.687705
0.005481
0.005073
-0.788324
-0.792781
-0.805066
-0.670148
-0.668765
-0.851843
-0.852641
0.001838
0.003998
-0.008352
-0.832255
-0.839174
-0.856701
0.039725
-0.029776
0.060074
0.059166
-0.787197
-0.676578
-0.638646
-0.633270
0.066928
0.059642
0.074112
-0.853214
0.057605
-0.820667
0.010976
-0.049281
-0.028335
-0.000582
0.053149
-0.846030
-0.852265
-0.846218
0.001340
0.004820
0.015326
0.108672
0.092738
0.039446
-0.060486
-0.046287
0.092958
0.095933
0.111471
-0.002076
-0.110826
-0.053990
-0.118269
-0.004259
-0.010830
0.045086
0.023550
-0.031723
-0.751888
-0.009379
-0.012622
-0.005597
-0.014962
-0.015704
-0.710715
0.024065
-0.700619
-0.676359
-0.704775
-0.539038
-0.012016
-0.684411
-0.668721
-0.682538
-0.644451
-0.735513
0.051225
-0.726114
-0.747272
-0.733125
-0.716279
-0.007652
-0.738440
-0.751630
-0.740728
-0.743307
-0.751170
-0.002341
-0.831448
-0.831228
-0.846265
0.001412
-0.849812
-0.852060
-0.004409
0.025220
0.019534
-0.020590
-0.702264
0.094133
0.059133
-0.003451
-0.851433
-0.848456
-0.847199
0.015356
0.007072
0.003336
-0.751320
-0.739546
-0.525147
-0.758256
-0.786744
-0.797947
-0.809264
-0.737984
-0.731864
-0.730543
-0.675801
-0.641786
-0.761530
0.025358
-0.747358
-0.717364
0.040275
0.043925
0.023153
-0.791029
-0.787967
-0.012744
-0.019664
-0.029676
-0.024819
-0.022735
0.046674
-0.741231
-0.848963
-0.842368
0.022119
-0.009337
-0.004233
-0.853695
-0.851532
-0.848058
0.020879
0.024839
0.022441
-0.761331
-0.756768
-0.769357
-0.763142
-0.730427
-0.748048
-0.008360
-0.005789
0.033003
0.003227
-0.748840
-0.742521
-0.736909
-0.747725
-0.714214
-0.730116
-0.695635
-0.644460
-0.729027
-0.746145
-0.733134
-0.021903
-0.020852
-0.010218
-0.011000
-0.763995
-0.798765
-0.825480
-0.714706
-0.718068
0.100451
-0.003963
-0.030840
0.007680
0.129180
-0.023907
-0.710705
-0.105797
-0.761839
-0.773636
-0.776247
-0.761817
-0.812962
-0.837091
-0.825058
-0.812707
-0.060450
-0.013717
-0.071750
-0.852050
-0.010106
-0.019034
-0.005379
-0.069457
-0.749649
-0.743722
-0.753745
0.099247
0.099929
0.098299
-0.740767
-0.757957
-0.013600
-0.842701
-0.006425
-0.007705
0.002557
0.013563
-0.046882
0.016949
-0.001552
-0.020752
-0.030969
-0.745719
-0.746104
0.035349
0.044933
0.101843
-0.654054
-0.734466
-0.713655
0.115035
-0.707796
-0.715547
-0.701386
-0.547903
-0.794432
-0.679702
-0.689305
-0.740028
-0.770457
-0.764564
-0.765233
0.021685
-0.418214
-0.011792
-0.011446
-0.738718
-0.759292
-0.745547
-0.792117
-0.766608
-0.801944
-0.673349
-0.763637
-0.765713
-0.788868
-0.783552
-0.723500
-0.730594
-0.722914
0.003849
0.011887
-0.010454
-0.844051
-0.840668
-0.837346
-0.452389
-0.377767
-0.021139
-0.008543
-0.739891
-0.770399
-0.769672
-0.001561
-0.003708
-0.009607
-0.020843
-0.010924
-0.746118
-0.753293
-0.777224
0.011794
0.039218
-0.738294
0.043489
0.055726
0.037564
0.038208
-0.779815
-0.805387
-0.773675
-0.739739
-0.786520
-0.773003
-0.002848
0.004016
-0.640527
-0.562150
-0.729754
-0.660854
-0.422946
-0.625920
-0.761928
-0.758951
-0.010283
-0.013303
-0.012625
-0.001394
-0.781999
-0.015242
-0.012316
-0.009286
-0.756675
-0.754290
0.040427
0.064184
-0.001492
0.049186
0.013470
0.057714
0.018628
-0.020808
0.004700
-0.009370
0.047052
0.000587
-0.017585
-0.775615
-0.770099
-0.753593
-0.769213
-0.059673
-0.115267
-0.056730
0.040514
-0.033102
-0.269220
-0.060743
-0.207060
0.054365
0.032781
0.024908
-0.774022
-0.735753
0.086521
0.034133
-0.082550
-0.032832
-0.012846
-0.003227
-0.043247
0.003831
0.036808
0.036261
0.031822
-0.019031
-0.009365
0.042547
-0.011497
0.107778
0.079348
-0.002859
0.089624
0.106401
0.114406
-0.037237
-0.748998
-0.754604
-0.750779
-0.714381
-0.765566
0.037523
0.021841
0.038121
-0.003108
0.035553
0.079142
0.110637
0.084058
-0.758848
-0.761921
-0.738860
-0.760949
-0.757400
-0.743848
-0.754800
-0.742857
-0.001206
-0.016782
-0.737260
-0.003983
0.096970
0.077916
0.096884
-0.111850
-0.201664
-0.354626
-0.003118
-0.019259
-0.843161
-0.843989
-0.017263
-0.065664
0.012218
-0.019049
-0.845028
-0.841465
-0.839402
-0.848149
-0.760709
-0.770326
-0.778868
-0.765635
-0.754618
-0.740147
-0.018054
-0.008109
-0.755814
-0.743988
-0.738561
-0.748869
0.072365
0.082165
0.086915
0.087071
0.048973
-0.738798
-0.732936
-0.741628
0.107968
0.087167
0.093079
-0.027092
-0.023276
-0.011587
0.071005
-0.151318
-0.288370
0.091373
0.074001
-0.366976
-0.289571
-0.755466
-0.756754
-0.022817
0.000046
0.112206
-0.010481
-0.742184
-0.750360
-0.761683
0.041403
-0.844815
-0.744174
-0.005272
0.001311
0.002823
-0.000319
-0.008602
0.001857
-0.745207
-0.792988
-0.015506
-0.020908
-0.000640
-0.850365
-0.039566
0.002469
-0.037427
0.004526
0.001248
-0.754762
-0.757519
0.001903
-0.015955
0.003076
-0.012201
-0.836912
-0.794202
-0.828135
-0.829597
-0.025735
-0.011594
-0.012240
-0.020481
-0.011632
-0.021612
-0.747690
-0.759068
-0.013720
-0.018863
-0.024232
-0.025209
-0.029750
-0.815641
-0.820833
-0.791227
-0.782011
-0.763737
-0.763514
-0.786729
-0.021015
-0.764307
-0.761956
-0.756671
-0.752748
0.043091
0.011938
0.018874
0.038837
0.004647
0.013102
0.000297
-0.010856
-0.010115
-0.011762
-0.024536
-0.708096
-0.670038
-0.408667
-0.230230
0.029863
0.020262
-0.138284
0.011475
-0.760831
-0.758520
-0.780246
-0.756979
-0.008274
-0.794378
-0.794764
0.021742
-0.029064
0.014024
-0.008152
-0.012032
-0.753148
-0.756546
-0.015630
-0.628724
-0.009359
0.000362
-0.012827
0.060698
0.049161
0.049968
-0.769965
-0.786931
-0.690723
-0.781624
-0.756591
-0.763657
0.002171
-0.756844
-0.761025
-0.761347
-0.753144
-0.015234
-0.050949
-0.002513
0.029194
0.042022
0.062234
0.033284
0.038288
-0.007793
0.003352
0.001493
-0.010680
-0.035546
-0.023526
-0.752084
-0.017345
-0.025514
-0.017059
-0.005663
-0.003218
0.001188
-0.021367
-0.747192
-0.012234
-0.006170
-0.767327
0.035253
0.033987
0.049665
-0.753992
-0.756795
-0.854828
-0.853339
-0.824811
-0.827643
-0.748601
-0.745199
-0.748256
-0.743438
0.028632
0.062695
-0.020424
-0.744531
-0.765093
-0.240200
-0.026055
-0.011618
0.026487
-0.689560
-0.811791
-0.808375