# vtk DataFile Version 2.0
Test
ASCII
DATASET POLYDATA
POINTS 7607 float
0.000000 0.000000 0.000000
1.000000 0.000000 0.000000
1.000000 0.800000 0.000000
1.000000 1.000000 0.000000
0.000000 1.000000 0.000000
0.000000 0.200000 0.000000
0.300000 0.330000 0.000000
0.700000 0.680000 0.000000
0.012987 0.000000 0.000000
0.025974 0.000000 0.000000
0.038961 0.000000 0.000000
0.051948 0.000000 0.000000
0.064935 0.000000 0.000000
0.077922 0.000000 0.000000
0.090909 0.000000 0.000000
0.103896 0.000000 0.000000
0.116883 0.000000 0.000000
0.129870 0.000000 0.000000
0.142857 0.000000 0.000000
0.155844 0.000000 0.000000
0.168831 0.000000 0.000000
0.181818 0.000000 0.000000
0.194805 0.000000 0.000000
0.207792 0.000000 0.000000
0.220779 0.000000 0.000000
0.233766 0.000000 0.000000
0.246753 0.000000 0.000000
0.259740 0.000000 0.000000
0.272727 0.000000 0.000000
0.285714 0.000000 0.000000
0.298701 0.000000 0.000000
0.311688 0.000000 0.000000
0.324675 0.000000 0.000000
0.337662 0.000000 0.000000
0.350649 0.000000 0.000000
0.363636 0.000000 0.000000
0.376623 0.000000 0.000000
0.389610 0.000000 0.000000
0.402597 0.000000 0.000000
0.415584 0.000000 0.000000
0.428571 0.000000 0.000000
0.441558 0.000000 0.000000
0.454545 0.000000 0.000000
0.467532 0.000000 0.000000
0.480519 0.000000 0.000000
0.493506 0.000000 0.000000
0.506494 0.000000 0.000000
0.519481 0.000000 0.000000
0.532468 0.000000 0.000000
0.545455 0.000000 0.000000
0.558442 0.000000 0.000000
0.571429 0.000000 0.000000
0.584416 0.000000 0.000000
0.597403 0.000000 0.000000
0.610390 0.000000 0.000000
0.623377 0.000000 0.000000
0.636364 0.000000 0.000000
0.649351 0.000000 0.000000
0.662338 0.000000 0.000000
0.675325 0.000000 0.000000
0.688312 0.000000 0.000000
0.701299 0.000000 0.000000
0.714286 0.000000 0.000000
0.727273 0.000000 0.000000
0.740260 0.000000 0.000000
0.753247 0.000000 0.000000
0.766234 0.000000 0.000000
0.779221 0.000000 0.000000
0.792208 0.000000 0.000000
0.805195 0.000000 0.000000
0.818182 0.000000 0.000000
0.831169 0.000000 0.000000
0.844156 0.000000 0.000000
0.857143 0.000000 0.000000
0.870130 0.000000 0.000000
0.883117 0.000000 0.000000
0.896104 0.000000 0.000000
0.909091 0.000000 0.000000
0.922078 0.000000 0.000000
0.935065 0.000000 0.000000
0.948052 0.000000 0.000000
0.961039 0.000000 0.000000
0.974026 0.000000 0.000000
0.987013 0.000000 0.000000
1.000000 0.012903 0.000000
1.000000 0.025806 0.000000
1.000000 0.038710 0.000000
1.000000 0.051613 0.000000
1.000000 0.064516 0.000000
1.000000 0.077419 0.000000
1.000000 0.090323 0.000000
1.000000 0.103226 0.000000
1.000000 0.116129 0.000000
1.000000 0.129032 0.000000
1.000000 0.141935 0.000000
1.000000 0.154839 0.000000
1.000000 0.167742 0.000000
1.000000 0.180645 0.000000
1.000000 0.193548 0.000000
1.000000 0.206452 0.000000
1.000000 0.219355 0.000000
1.000000 0.232258 0.000000
1.000000 0.245161 0.000000
1.000000 0.258065 0.000000
1.000000 0.270968 0.000000
1.000000 0.283871 0.000000
1.000000 0.296774 0.000000
1.000000 0.309677 0.000000
1.000000 0.322581 0.000000
1.000000 0.335484 0.000000
1.000000 0.348387 0.000000
1.000000 0.361290 0.000000
1.000000 0.374194 0.000000
1.000000 0.387097 0.000000
1.000000 0.400000 0.000000
1.000000 0.412903 0.000000
1.000000 0.425806 0.000000
1.000000 0.438710 0.000000
1.000000 0.451613 0.000000
1.000000 0.464516 0.000000
1.000000 0.477419 0.000000
1.000000 0.490323 0.000000
1.000000 0.503226 0.000000
1.000000 0.516129 0.000000
1.000000 0.529032 0.000000
1.000000 0.541935 0.000000
1.000000 0.554839 0.000000
1.000000 0.567742 0.000000
1.000000 0.580645 0.000000
1.000000 0.593548 0.000000
1.000000 0.606452 0.000000
1.000000 0.619355 0.000000
1.000000 0.632258 0.000000
1.000000 0.645161 0.000000
1.000000 0.658065 0.000000
1.000000 0.670968 0.000000
1.000000 0.683871 0.000000
1.000000 0.696774 0.000000
1.000000 0.709677 0.000000
1.000000 0.722581 0.000000
1.000000 0.735484 0.000000
1.000000 0.748387 0.000000
1.000000 0.761290 0.000000
1.000000 0.774194 0.000000
1.000000 0.787097 0.000000
1.000000 0.812500 0.000000
1.000000 0.825000 0.000000
1.000000 0.837500 0.000000
1.000000 0.850000 0.000000
1.000000 0.862500 0.000000
1.000000 0.875000 0.000000
1.000000 0.887500 0.000000
1.000000 0.900000 0.000000
1.000000 0.912500 0.000000
1.000000 0.925000 0.000000
1.000000 0.937500 0.000000
1.000000 0.950000 0.000000
1.000000 0.962500 0.000000
1.000000 0.975000 0.000000
1.000000 0.987500 0.000000
0.987013 1.000000 0.000000
0.974026 1.000000 0.000000
0.961039 1.000000 0.000000
0.948052 1.000000 0.000000
0.935065 1.000000 0.000000
0.922078 1.000000 0.000000
0.909091 1.000000 0.000000
0.896104 1.000000 0.000000
0.883117 1.000000 0.000000
0.870130 1.000000 0.000000
0.857143 1.000000 0.000000
0.844156 1.000000 0.000000
0.831169 1.000000 0.000000
0.818182 1.000000 0.000000
0.805195 1.000000 0.000000
0.792208 1.000000 0.000000
0.779221 1.000000 0.000000
0.766234 1.000000 0.000000
0.753247 1.000000 0.000000
0.740260 1.000000 0.000000
0.727273 1.000000 0.000000
0.714286 1.000000 0.000000
0.701299 1.000000 0.000000
0.688312 1.000000 0.000000
0.675325 1.000000 0.000000
0.662338 1.000000 0.000000
0.649351 1.000000 0.000000
0.636364 1.000000 0.000000
0.623377 1.000000 0.000000
0.610390 1.000000 0.000000
0.597403 1.000000 0.000000
0.584416 1.000000 0.000000
0.571429 1.000000 0.000000
0.558442 1.000000 0.000000
0.545455 1.000000 0.000000
0.532468 1.000000 0.000000
0.519481 1.000000 0.000000
0.506494 1.000000 0.000000
0.493506 1.000000 0.000000
0.480519 1.000000 0.000000
0.467532 1.000000 0.000000
0.454545 1.000000 0.000000
0.441558 1.000000 0.000000
0.428571 1.000000 0.000000
0.415584 1.000000 0.000000
0.402597 1.000000 0.000000
0.389610 1.000000 0.000000
0.376623 1.000000 0.000000
0.363636 1.000000 0.000000
0.350649 1.000000 0.000000
0.337662 1.000000 0.000000
0.324675 1.000000 0.000000
0.311688 1.000000 0.000000
0.298701 1.000000 0.000000
0.285714 1.000000 0.000000
0.272727 1.000000 0.000000
0.259740 1.000000 0.000000
0.246753 1.000000 0.000000
0.233766 1.000000 0.000000
0.220779 1.000000 0.000000
0.207792 1.000000 0.000000
0.194805 1.000000 0.000000
0.181818 1.000000 0.000000
0.168831 1.000000 0.000000
0.155844 1.000000 0.000000
0.142857 1.000000 0.000000
0.129870 1.000000 0.000000
0.116883 1.000000 0.000000
0.103896 1.000000 0.000000
0.090909 1.000000 0.000000
0.077922 1.000000 0.000000
0.064935 1.000000 0.000000
0.051948 1.000000 0.000000
0.038961 1.000000 0.000000
0.025974 1.000000 0.000000
0.012987 1.000000 0.000000
0.000000 0.987097 0.000000
0.000000 0.974194 0.000000
0.000000 0.961290 0.000000
0.000000 0.948387 0.000000
0.000000 0.935484 0.000000
0.000000 0.922581 0.000000
0.000000 0.909677 0.000000
0.000000 0.896774 0.000000
0.000000 0.883871 0.000000
0.000000 0.870968 0.000000
0.000000 0.858065 0.000000
0.000000 0.845161 0.000000
0.000000 0.832258 0.000000
0.000000 0.819355 0.000000
0.000000 0.806452 0.000000
0.000000 0.793548 0.000000
0.000000 0.780645 0.000000
0.000000 0.767742 0.000000
0.000000 0.754839 0.000000
0.000000 0.741935 0.000000
0.000000 0.729032 0.000000
0.000000 0.716129 0.000000
0.000000 0.703226 0.000000
0.000000 0.690323 0.000000
0.000000 0.677419 0.000000
0.000000 0.664516 0.000000
0.000000 0.651613 0.000000
0.000000 0.638710 0.000000
0.000000 0.625806 0.000000
0.000000 0.612903 0.000000
0.000000 0.600000 0.000000
0.000000 0.587097 0.000000
0.000000 0.574194 0.000000
0.000000 0.561290 0.000000
0.000000 0.548387 0.000000
0.000000 0.535484 0.000000
0.000000 0.522581 0.000000
0.000000 0.509677 0.000000
0.000000 0.496774 0.000000
0.000000 0.483871 0.000000
0.000000 0.470968 0.000000
0.000000 0.458065 0.000000
0.000000 0.445161 0.000000
0.000000 0.432258 0.000000
0.000000 0.419355 0.000000
0.000000 0.406452 0.000000
0.000000 0.393548 0.000000
0.000000 0.380645 0.000000
0.000000 0.367742 0.000000
0.000000 0.354839 0.000000
0.000000 0.341935 0.000000
0.000000 0.329032 0.000000
0.000000 0.316129 0.000000
0.000000 0.303226 0.000000
0.000000 0.290323 0.000000
0.000000 0.277419 0.000000
0.000000 0.264516 0.000000
0.000000 0.251613 0.000000
0.000000 0.238710 0.000000
0.000000 0.225806 0.000000
0.000000 0.212903 0.000000
0.000000 0.187500 0.000000
0.000000 0.175000 0.000000
0.000000 0.162500 0.000000
0.000000 0.150000 0.000000
0.000000 0.137500 0.000000
0.000000 0.125000 0.000000
0.000000 0.112500 0.000000
0.000000 0.100000 0.000000
0.000000 0.087500 0.000000
0.000000 0.075000 0.000000
0.000000 0.062500 0.000000
0.000000 0.050000 0.000000
0.000000 0.037500 0.000000
0.000000 0.025000 0.000000
0.000000 0.012500 0.000000
0.309756 0.338537 0.000000
0.319512 0.347073 0.000000
0.329268 0.355610 0.000000
0.339024 0.364146 0.000000
0.348780 0.372683 0.000000
0.358537 0.381220 0.000000
0.368293 0.389756 0.000000
0.378049 0.398293 0.000000
0.387805 0.406829 0.000000
0.397561 0.415366 0.000000
0.407317 0.423902 0.000000
0.417073 0.432439 0.000000
0.426829 0.440976 0.000000
0.436585 0.449512 0.000000
0.446341 0.458049 0.000000
0.456098 0.466585 0.000000
0.465854 0.475122 0.000000
0.475610 0.483659 0.000000
0.485366 0.492195 0.000000
0.495122 0.500732 0.000000
0.504878 0.509268 0.000000
0.514634 0.517805 0.000000
0.524390 0.526341 0.000000
0.534146 0.534878 0.000000
0.543902 0.543415 0.000000
0.553659 0.551951 0.000000
0.563415 0.560488 0.000000
0.573171 0.569024 0.000000
0.582927 0.577561 0.000000
0.592683 0.586098 0.000000
0.602439 0.594634 0.000000
0.612195 0.603171 0.000000
0.621951 0.611707 0.000000
0.631707 0.620244 0.000000
0.641463 0.628780 0.000000
0.651220 0.637317 0.000000
0.660976 0.645854 0.000000
0.670732 0.654390 0.000000
0.680488 0.662927 0.000000
0.690244 0.671463 0.000000
0.011538 0.205000 0.000000
0.023077 0.210000 0.000000
0.034615 0.215000 0.000000
0.046154 0.220000 0.000000
0.057692 0.225000 0.000000
0.069231 0.230000 0.000000
0.080769 0.235000 0.000000
0.092308 0.240000 0.000000
0.103846 0.245000 0.000000
0.115385 0.250000 0.000000
0.126923 0.255000 0.000000
0.138462 0.260000 0.000000
0.150000 0.265000 0.000000
0.161538 0.270000 0.000000
0.173077 0.275000 0.000000
[...]
POINT_DATA 7607
SCALARS UX float 1
LOOKUP_TABLE default
0.006046
0.002258
-0.079368
-0.516805
-0.603795
-0.180969
-0.246305
-0.322532
-0.002182
0.000138
0.002485
0.001327
0.010288
0.000330
-0.000213
0.009814
0.000257
0.001017
-0.000287
0.000072
0.000174
-0.000081
-0.000165
0.000175
-0.000096
0.000239
0.000091
-0.001298
-0.000190
-0.000158
-0.000554
-0.007203
0.000205
-0.000185
-0.000164
-0.000369
0.000312
0.000174
0.001983
0.000047
0.000372
-0.001951
0.000099
0.003448
0.000185
-0.000167
-0.002405
-0.000029
-0.000385
0.000129
0.000025
-0.003863
-0.000245
-0.000851
-0.000135
-0.000821
0.000087
-0.000068
0.000073
-0.001003
-0.001544
0.000460
-0.000322
-0.000417
0.004379
0.000860
-0.007512
0.000328
0.002393
0.000541
-0.001164
-0.000630
-0.005826
0.000051
0.005482
0.003164
-0.006492
0.000044
-0.000861
0.002003
0.000184
0.000592
-0.000198
-0.011884
-0.001099
0.016118
0.009548
0.017534
0.009557
0.019544
0.010617
0.023293
0.042836
0.045757
0.035230
0.049646
0.034084
0.063041
0.036805
0.040663
0.059738
0.064876
0.060110
0.076348
0.067084
0.077290
0.086228
0.064989
0.082299
0.097326
0.080376
0.112127
0.101087
0.101462
0.109343
0.097123
0.121087
0.112005
0.135381
0.106597
0.127295
0.138461
0.120315
0.128938
0.157073
0.132263
0.150602
0.153659
0.138198
0.155441
0.163993
0.139137
0.175529
0.131989
0.138093
0.160176
0.147361
0.145970
0.166146
0.121165
0.135626
0.059656
0.117500
0.214842
0.017606
-0.149005
-0.162903
-0.297523
-0.334362
-0.489359
-0.384134
-0.481794
-0.449658
-0.502656
-0.481100
-0.499317
-0.501067
-0.475036
-0.521004
-0.505437
-0.496043
-0.513221
-0.508889
-0.531790
-0.525611
-0.524605
-0.517824
-0.530395
-0.529009
-0.527955
-0.526653
-0.530233
-0.527433
-0.525031
-0.533053
-0.534404
-0.527863
-0.540712
-0.541887
-0.537742
-0.536154
-0.538031
-0.536500
-0.539669
-0.542301
-0.540819
-0.545686
-0.542471
-0.545224
-0.548175
-0.544409
-0.553632
-0.551975
-0.555126
-0.557149
-0.555758
-0.553602
-0.557763
-0.557556
-0.557827
-0.558381
-0.560398
-0.567596
-0.557693
-0.560030
-0.570208
-0.562095
-0.568924
-0.565460
-0.575088
-0.577181
-0.579413
-0.581548
-0.583285
-0.580692
-0.588146
-0.582459
-0.590612
-0.594164
-0.583655
-0.598426
-0.593584
-0.593555
-0.590932
-0.599368
-0.603191
-0.599485
-0.604026
-0.604291
-0.603326
-0.602995
-0.604854
-0.609052
-0.608768
-0.608495
-0.610463
-0.612391
-0.611742
-0.612993
-0.601486
-0.608367
-0.598676
-0.604496
-0.604519
-0.608819
-0.606086
-0.603100
-0.620544
-0.607888
-0.608397
-0.603927
-0.606431
-0.612820
-0.607481
-0.604333
-0.596728
-0.605410
-0.605033
-0.601780
-0.598682
-0.605168
-0.596769
-0.596839
-0.603231
-0.601889
-0.596975
-0.575698
-0.569212
-0.580363
-0.590702
-0.592671
-0.594617
-0.584198
-0.595739
-0.591638
-0.604295
-0.585604
-0.595729
-0.585812
-0.589952
-0.593190
-0.585886
-0.598609
-0.595314
-0.590863
-0.593715
-0.571940
-0.596329
-0.568819
-0.584682
-0.533960
-0.547453
-0.515750
-0.488021
-0.514914
-0.272966
-0.473665
-0.330983
-0.099693
-0.239139
-0.086070
-0.001421
-0.038904
-0.053577
-0.027649
-0.014164
-0.030495
-0.009412
-0.019893
-0.017540
-0.005003
-0.006980
0.071777
-0.126740
-0.147021
-0.316906
-0.490174
-0.582370
-0.389682
-0.205836
-0.111667
-0.185599
0.135178
-0.039505
0.150302
-0.021963
-0.018003
0.052356
0.207710
-0.183608
-0.311337
-0.089620
-0.164984
-0.187891
-0.438443
-0.184433
-0.199830
-0.299709
-0.331619
-0.197397
-0.532412
-0.341314
-0.222948
-0.253658
-0.257395
-0.056210
-0.180067
-0.098576
-0.275720
-0.294347
-0.423146
-0.472802
-0.359769
-0.500585
-0.139668
-0.462503
-0.204425
-0.568025
-0.488891
-0.310752
-0.438497
0.000222
-0.359353
-0.221380
-0.295127
-0.419648
-0.118543
-0.778793
-0.588100
-0.018036
-0.166542
-0.546217
0.025684
-0.240221
-0.449175
-0.152742
-0.216709
-0.101089
0.082723
-0.041310
0.225351
-0.242562
0.406625
-0.087863
-0.191734
-0.127642
-0.195266
-0.013683
-0.134671
-0.171970
-0.015489
-0.211402
-0.004316
-0.104162
-0.190607
0.172156
-0.155555
-0.161534
-0.019394
-0.020889
-0.190857
-0.533523
-0.546860
-0.549884
-0.533310
0.072660
0.075463
0.062980
-0.509030
-0.609761
-0.397439
-0.539208
-0.453590
-0.257623
-0.016203
0.010537
0.013659
-0.556614
-0.595336
-0.597332
-0.617288
0.043232
0.015554
0.026637
0.011963
-0.099208
0.003641
-0.129554
-0.098337
0.000460
-0.004431
-0.521108
-0.444982
-0.703126
-0.552232
-0.080205
-0.050044
0.015251
0.002274
-0.004670
-0.004686
-0.597143
-0.596854
-0.604732
-0.608625
-0.364359
-0.502769
-0.196095
-0.274573
0.144195
0.102636
0.108921
-0.528988
-0.542867
0.103168
0.046634
0.023571
0.068017
-0.553398
-0.540151
-0.530459
0.074531
-0.566511
-0.533638
-0.499191
-0.476075
-0.470210
-0.032927
-0.061576
-0.021367
-0.539944
-0.598555
-0.599166
-0.023853
0.021702
0.048205
-0.002032
-0.012688
-0.011256
-0.569400
-0.568258
-0.570182
-0.017920
-0.548387
-0.543428
-0.522322
0.036020
0.041962
0.005781
0.036756
0.003508
-0.008935
-0.016200
-0.084191
-0.018436
-0.012128
-0.015570
0.074264
0.149336
0.184416
-0.411425
-0.429783
-0.417700
-0.447739
-0.365338
-0.526021
-0.496420
-0.566741
-0.529755
-0.579332
-0.509541
-0.016637
0.010335
0.004764
0.007788
0.063702
0.062730
-0.540455
-0.537795
-0.524696
0.023291
0.036113
0.014863
-0.513298
-0.495199
-0.527032
-0.511056
0.042102
0.084845
0.127080
0.091591
-0.006469
-0.550528
-0.024323
0.009185
-0.009377
-0.003856
-0.567807
-0.464468
-0.537794
-0.540468
-0.544769
-0.579414
-0.564788
-0.553414
-0.519595
-0.530059
-0.533985
-0.523564
-0.365749
-0.008404
-0.004689
-0.002759
-0.000820
-0.593800
-0.565908
-0.593682
-0.009556
-0.009811
-0.003027
-0.613478
-0.597048
-0.597700
-0.011454
-0.486288
-0.520954
-0.532239
-0.557958
-0.559800
-0.527633
-0.598249
-0.594452
-0.602525
-0.554951
0.116932
0.102102
0.107435
0.110516
0.108721
0.078817
0.098126
0.043377
0.053099
0.044734
-0.559225
-0.552034
-0.538109
-0.551042
-0.548218
-0.545446
-0.004702
-0.020488
-0.012677
-0.006196
0.014034
0.043298
0.000980
-0.043334
-0.002603
-0.053397
-0.053261
-0.548798
-0.579074
-0.568350
-0.525278
0.055752
0.100206
0.062426
0.043124
0.056720
0.052621
0.064951
0.116872
0.116788
0.102409
-0.001356
0.048230
-0.564195
-0.563798
-0.565451
-0.461645
-0.501301
-0.503912
-0.417579
0.096468
0.144866
0.138923
0.128499
0.058136
0.077014
0.052877
-0.554955
-0.556273
-0.550108
-0.516671
-0.542715
-0.574992
-0.594887
-0.584403
-0.594462
0.000003
-0.015033
0.007535
-0.540929
-0.580325
-0.563444
-0.007454
0.028466
-0.021378
0.115878
0.107944
0.134992
-0.008738
-0.016724
-0.025923
-0.022909
-0.023725
-0.598879
-0.604955
-0.010337
-0.018589
-0.004503
0.014951
0.014194
0.000217
-0.021818
-0.004772
0.012474
-0.486836
-0.468655
-0.601143
-0.607699
-0.589582
-0.040383
-0.030433
0.134605
0.121149
0.011507
0.093843
0.029680
0.073132
0.015588
-0.003712
-0.004889
0.010995
-0.567719
-0.558240
-0.585536
-0.550850
-0.601581
-0.532063
-0.603014
-0.550839
0.053855
-0.014696
0.055025
0.067196
-0.589072
-0.542923
-0.559817
-0.547303
0.097442
0.158644
0.104320
0.089892
0.071309
-0.520405
-0.519361
-0.516876
0.062864
-0.503153
-0.517751
-0.530363
0.092990
-0.524615
-0.566050
-0.599342
-0.565942
-0.014149
0.012045
-0.009224
-0.571117
-0.562238
-0.560321
-0.017018
-0.012054
0.004490
0.025721
0.046087
0.006254
0.081094
-0.517570
-0.519506
-0.490020
-0.537876
-0.552622
-0.573396
-0.567493
0.024140
0.038649
-0.002145
0.019272
0.021688
0.019015
-0.594455
-0.609888
-0.609612
-0.501757
-0.461402
-0.594054
-0.025955
-0.011661
0.126956
0.060169
-0.017887
0.033546
0.033411
0.033546
-0.550615
-0.585955
-0.547792
-0.582561
-0.592833
-0.551093
-0.020190
0.015584
-0.008261
-0.014256
0.133515
0.103777
0.044455
0.050061
0.061887
0.057056
0.054536
0.043880
0.045743
0.051231
-0.561362
-0.571313
-0.544095
0.010323
0.001618
0.007293
0.004995
-0.024272
0.006031
-0.008502
-0.587126
-0.515713
-0.547318
-0.567110
-0.560754
-0.583803
-0.617419
-0.499200
-0.503100
-0.481036
-0.047649
-0.030699
-0.002898
-0.507434
-0.507650
-0.506891
-0.470990
-0.491442
0.006226
-0.005265
-0.584047
-0.598452
-0.594980
0.127990
0.097676
-0.547282
-0.566604
-0.033577
0.005565
-0.016659
0.008122
-0.026221
-0.020177
-0.020511
0.021013
0.024581
0.035781
-0.515108
-0.521256
-0.044543
-0.003539
0.000942
-0.555460
-0.549454
-0.549780
0.027725
-0.578985
-0.590769
-0.551490
0.174141
0.045420
0.025453
-0.607509
-0.603930
0.113885
0.116779
-0.590034
-0.581967
-0.591227
-0.557612
-0.497035
-0.006774
-0.030048
-0.001499
-0.004671
-0.027490
-0.590763
-0.581495
-0.604708
-0.607306
-0.575072
0.110543
0.122150
-0.579289
-0.567362
-0.569769
0.017535
0.010826
-0.490097
-0.511108
-0.499258
-0.501833
0.003257
0.010012
-0.003108
-0.613593
-0.597111
-0.598548
-0.593828
-0.596835
-0.590730
-0.577169
-0.552621
-0.589412
-0.539595
0.003320
-0.001751
-0.003201
-0.002761
-0.014569
-0.011327
-0.006696
-0.604856
-0.603107
-0.602990
-0.491457
-0.462534
-0.447697
-0.478418
-0.547619
-0.592488
-0.558253
-0.602375
-0.605073
-0.614624
0.133813
0.171713
-0.588231
0.031213
-0.010510
-0.591555
-0.179075
-0.481424
0.143166
-0.610400
-0.592801
-0.011424
-0.619441
-0.616391
0.038038
-0.003307
0.000631
-0.043834
-0.035788
-0.004673
-0.000336
-0.014098
0.091198
0.158482
0.109710
0.104128
0.134522
0.145391
-0.574909
-0.579944
-0.574507
-0.573595
0.025902
0.016239
0.030958
-0.037820
-0.005100
-0.484493
-0.494164
0.093392
0.078235
-0.611456
-0.603713
-0.601352
-0.597305
-0.002107
-0.050197
-0.051423
-0.045717
-0.005249
0.168478
0.127125
0.127744
0.239879
-0.519180
-0.524058
-0.522636
0.031305
-0.546289
-0.550864
-0.578329
-0.407183
-0.467862
-0.027139
-0.012652
-0.012372
-0.022112
-0.544752
-0.508835
-0.521656
-0.521253
-0.527712
-0.515716
-0.003381
-0.001570
0.068196
0.065193
0.086559
0.030230
-0.479154
-0.503911
-0.532033
-0.535851
-0.499819
-0.616814
-0.474062
0.045239
0.001797
-0.004481
-0.012705
-0.029410
-0.431179
-0.487704
-0.587398
-0.572601
-0.569377
-0.531036
-0.462798
-0.559414
-0.567708
-0.563703
-0.581588
0.107338
0.020116
0.044285
0.059668
0.035889
-0.021767
-0.013317
0.043858
-0.592248
-0.587881
-0.598854
-0.017384
-0.020537
-0.561829
-0.592021
-0.601655
-0.565100
-0.007025
-0.025492
-0.038333
-0.568881
-0.010738
-0.009282
-0.569632
-0.574789
0.045702
0.040027
0.047025
0.081798
0.001336
0.008653
-0.000970
-0.003913
-0.577952
-0.606923
-0.605340
-0.576365
-0.564959
-0.574045
-0.559425
-0.011875
-0.018121
-0.025057
-0.011201
0.072864
0.110716
0.134498
0.009966
0.033448
0.032460
0.001199
-0.258039
-0.512714
-0.512867
-0.527256
-0.534114
-0.524282
-0.605073
-0.601903
-0.603828
-0.545707
-0.555509
-0.573531
-0.550930
0.124308
0.087602
-0.026044
-0.019679
-0.599339
-0.436278
-0.420400
-0.301683
-0.604070
-0.586751
-0.597909
-0.430435
-0.567100
-0.503300
-0.497626
-0.033815
-0.532998
-0.022290
0.158357
-0.012495
0.098211
0.138669
-0.016370
-0.009811
-0.003374
0.024278
-0.497318
-0.498811
-0.009201
-0.550686
-0.577934
-0.011563
-0.001966
-0.523861
-0.594473
0.005495
-0.036666
-0.028009
-0.018143
-0.503810
-0.497904
-0.484530
-0.020215
0.009341
-0.619498
-0.029368
0.018528
-0.084513
-0.597688
-0.596189
-0.579936
0.040309
0.001640
-0.011937
-0.561179
0.038489
0.045599
-0.033645
-0.615950
-0.577413
-0.599534
-0.472106
-0.040557
-0.001676
-0.003521
-0.535059
-0.561468
-0.531262
-0.520684
-0.505842
-0.540805
-0.000366
-0.003364
0.020016
0.004662
-0.008332
-0.040316
0.011070
-0.200446
-0.240634
-0.494475
-0.513306
-0.544232
-0.504699
-0.355943
-0.521178
-0.520346
-0.504116
-0.028681
-0.011113
-0.606674
-0.590111
-0.600482
-0.530904
-0.503730
-0.526044
-0.527532
-0.017420
-0.009815
-0.525086
-0.510798
-0.507185
0.126484
0.012329
0.182466
-0.161760
-0.601064
-0.490381
-0.013761
0.009925
-0.008790
-0.599538
0.072117
0.050162
0.054783
0.000184
-0.617387
0.003766
0.013184
0.000667
0.019522
0.007801
-0.482639
-0.522781
-0.532014
-0.512688
-0.003927
-0.005351
0.001880
-0.004799
0.143226
0.148198
0.140366
0.136420
-0.603925
-0.614668
-0.595915
-0.582635
-0.550287
0.031236
0.022342
0.036160
0.006875
0.019091
-0.016875
0.042302
-0.531538
-0.410296
0.075814
0.065523
0.095703
-0.621002
-0.553661
-0.585011
-0.562989
-0.570378
-0.527458
0.114165
0.131097
0.124982
0.131046
-0.228772
-0.523708
-0.543263
-0.580734
0.012470
0.010813
-0.578468
0.030219
0.040933
-0.558762
-0.549311
-0.556172
-0.598270
-0.602140
-0.017163
-0.583043
-0.582777
-0.572764
-0.586834
0.135637
0.127293
0.153074
0.171642
-0.543090
-0.542656
-0.549435
-0.478532
-0.509813
0.029661
0.058665
0.056269
0.091715
0.086944
0.101158
-0.011204
-0.023702
-0.014002
-0.617114
0.039834
-0.586475
-0.606631
-0.593947
-0.577359
-0.565396
-0.561432
-0.514057
-0.559315
0.008440
-0.023884
-0.570027
0.111873
-0.017182
-0.008542
-0.015897
-0.558250
-0.547371
-0.547335
-0.030407
-0.012884
0.013570
0.010042
0.025553
-0.476345
-0.026049
-0.004643
-0.008154
-0.507448
-0.505317
-0.508824
0.091536
0.122851
0.062720
-0.006101
-0.012725
-0.597855
-0.596929
-0.599118
-0.318830
-0.585472
-0.595254
-0.600970
-0.592860
-0.602020
-0.583736
-0.274197
-0.393373
-0.376434
-0.439872
-0.503157
-0.523436
-0.034441
-0.009858
-0.157358
-0.562063
-0.511844
0.022721
-0.014711
0.168917
0.156438
0.138166
0.146045
-0.532529
-0.528300
-0.010053
-0.004972
-0.008637
0.031669
0.001293
-0.011789
-0.601594
-0.007431
-0.017753
-0.025461
-0.001974
-0.585664
-0.574492
-0.522661
-0.480545
-0.588429
-0.597687
-0.611477
-0.615409
-0.002299
0.002602
0.025657
-0.573945
-0.602094
-0.532310
-0.545494
-0.525552
0.147726
0.005280
-0.535080
-0.501295
-0.209116
-0.536020
0.139554
0.181759
-0.531219
-0.563027
-0.201000
-0.336463
-0.008960
-0.017797
-0.013700
-0.545250
-0.540777
-0.548680
0.090712
0.171316
0.102355
-0.598893
-0.483933
-0.531295
-0.478182
-0.493379
-0.569455
-0.580218
-0.517508
-0.545885
-0.008032
-0.572912
-0.599705
-0.613112
-0.609185
0.011102
0.024880
0.018181
-0.019847
-0.014087
-0.534461
-0.503639
-0.506033
-0.005634
-0.012883
-0.016247
-0.007832
-0.010370
-0.512763
-0.505833
-0.483374
-0.529833
-0.593782
-0.443021
0.136225
0.155382
0.129527
0.082727
-0.518806
-0.521936
-0.037268
-0.053729
-0.054949
0.006709
-0.000961
0.005706
-0.548272
-0.555256
-0.012173
-0.008848
-0.521498
-0.466419
-0.005520
-0.014313
0.006606
-0.014956
-0.538652
-0.525760
-0.009136
-0.605682
-0.609030
-0.513982
0.003927
0.004971
-0.561809
-0.560244
-0.574223
-0.552516
-0.558196
-0.609783
-0.605944
0.004132
0.004165
-0.006031
-0.585669
-0.592297
-0.611944
0.071919
0.051284
0.095716
0.109726
-0.558033
-0.523811
-0.502728
-0.430748
0.099830
0.091434
0.108554
-0.607434
0.092835
-0.577253
0.010176
0.012062
0.078264
0.079528
0.106975
-0.599438
-0.606580
-0.599218
0.000669
0.004844
0.017215
0.152862
0.148336
0.039661
-0.115990
-0.070440
0.138257
0.147772
0.158599
0.001883
-0.086397
-0.062600
-0.095164
0.023169
-0.012515
0.093045
0.088850
0.044597
-0.530919
-0.010894
-0.005372
-0.004842
-0.009931
-0.013188
-0.486942
0.070236
-0.581464
-0.585246
-0.526835
-0.366911
-0.011441
-0.551595
-0.548146
-0.570271
-0.540535
-0.554129
0.113406
-0.498536
-0.525261
-0.507514
-0.495024
-0.007327
-0.518811
-0.527134
-0.514170
-0.520974
-0.527738
-0.003146
-0.586039
-0.587960
-0.600281
0.001639
-0.603996
-0.608607
-0.004508
0.092938
0.082366
0.071867
-0.566966
0.171672
0.102880
0.053001
-0.603937
-0.602026
-0.602638
0.015567
0.005797
0.003316
-0.590813
-0.520034
-0.431164
-0.536838
-0.554420
-0.565954
-0.573559
-0.598636
-0.587290
-0.580001
-0.555862
-0.482982
-0.539127
0.084298
-0.521751
-0.503338
0.086718
0.094736
0.063792
-0.559306
-0.557392
-0.010696
-0.019681
-0.031374
-0.027122
-0.018153
0.084682
-0.520415
-0.605046
-0.597829
0.023973
-0.008471
-0.000880
-0.608553
-0.606116
-0.603362
0.022744
0.025967
0.021004
-0.536028
-0.534097
-0.543560
-0.538864
-0.508324
-0.524050
-0.005220
0.000513
0.033074
0.004277
-0.522212
-0.519432
-0.513168
-0.526034
-0.530253
-0.555213
-0.580211
-0.514702
-0.511291
-0.520816
-0.514887
-0.018855
-0.024147
-0.008983
-0.006919
-0.539672
-0.566523
-0.589667
-0.583983
-0.574162
0.158768
-0.010380
-0.026958
0.098043
0.144244
-0.012451
-0.607222
0.129979
-0.537926
-0.549437
-0.550366
-0.538594
-0.577097
-0.597603
-0.577078
-0.571599
-0.064816
-0.005981
-0.073226
-0.605294
-0.020729
-0.022185
-0.005556
-0.073034
-0.528472
-0.637503
-0.531263
0.145810
0.142120
0.152004
-0.511716
-0.536817
-0.008976
-0.596334
-0.010718
-0.005273
-0.004924
0.013856
-0.030552
0.005741
-0.000826
-0.024262
-0.025185
-0.519822
-0.525817
0.079010
0.089545
0.136694
-0.507539
-0.608114
-0.570402
0.146518
-0.564870
-0.568677
-0.565571
-0.414062
-0.603076
-0.524586
-0.577186
-0.359058
-0.546245
-0.540980
-0.541693
0.208416
-0.389808
-0.001619
-0.007854
-0.515616
-0.536399
-0.523963
-0.565702
-0.548567
-0.565417
-0.454849
-0.539520
-0.563794
-0.592642
-0.584572
-0.541377
-0.546229
-0.545182
0.002784
0.018391
-0.009667
-0.603965
-0.600330
-0.597045
-0.214539
-0.269500
-0.016146
-0.010045
-0.517400
-0.571898
-0.567292
-0.001271
-0.002304
-0.007951
-0.030716
-0.009718
-0.522148
-0.533295
-0.584468
0.015453
0.039793
-0.555618
0.052936
0.065960
0.045124
0.046130
-0.576902
-0.612092
-0.557116
-0.522497
-0.548955
-0.546628
-0.001246
0.004359
-0.441519
-0.361665
-0.513022
-0.453590
-0.276765
-0.435628
-0.542167
-0.539968
-0.012266
-0.013844
-0.011691
-0.000572
-0.570003
-0.008481
-0.005364
-0.013088
-0.532638
-0.530531
0.068174
0.160431
0.068978
0.096875
0.106766
0.112761
0.052869
-0.014117
0.008767
-0.005239
0.059351
-0.000720
-0.015188
-0.549023
-0.548253
-0.531804
-0.545354
-0.050285
-0.090924
-0.070642
0.086930
-0.036111
-0.092154
-0.103653
-0.167129
0.064287
0.042479
0.032003
-0.545709
-0.512752
0.102743
0.107968
0.032215
0.037206
0.066052
0.068256
0.066809
0.043752
0.046274
0.095598
0.078502
-0.017906
-0.007505
0.105635
0.037462
0.156760
0.120543
0.054738
0.138905
0.152457
0.167350
-0.043492
-0.525426
-0.533512
-0.520916
-0.500416
-0.543228
0.045672
0.074584
0.089825
0.046817
0.083140
0.122948
0.153347
0.133019
-0.534786
-0.539759
-0.507888
-0.534593
-0.542447
-0.518488
-0.528297
-0.515441
0.000454
-0.010339
-0.515649
-0.001572
0.141661
0.124586
0.143808
-0.066356
-0.075352
-0.243903
0.005465
-0.012934
-0.600235
-0.600007
-0.023275
-0.041532
0.000533
-0.012775
-0.604010
-0.601466
-0.598759
-0.607609
-0.539437
-0.547909
-0.551382
-0.540742
-0.526658
-0.509071
-0.015597
-0.004258
-0.533797
-0.522406
-0.522266
-0.519067
0.119872
0.130060
0.134934
0.133238
0.059087
-0.515927
-0.511326
-0.523084
0.156399
0.137675
0.140118
-0.020566
-0.022938
-0.008484
0.009648
-0.138368
-0.185106
-0.031917
-0.057094
-0.157007
-0.215655
-0.532677
-0.531930
-0.013955
0.003512
0.157115
0.002902
-0.516726
-0.525713
-0.537461
0.051184
-0.602915
-0.518261
-0.004504
0.000511
0.002377
-0.001780
-0.002894
0.003070
-0.525712
-0.564593
-0.016371
-0.026805
0.003574
-0.603866
-0.010817
-0.009704
-0.018832
0.007428
0.002485
-0.532350
-0.535007
0.001947
-0.014690
0.000866
-0.014717
-0.596483
-0.560896
-0.584720
-0.588261
-0.032490
-0.009071
-0.009700
-0.034162
-0.012106
-0.018240
-0.524003
-0.536757
-0.015122
-0.012851
-0.019253
-0.000460
-0.029197
-0.577380
-0.582165
-0.561772
-0.572888
-0.559024
-0.547775
-0.570135
-0.020476
-0.540099
-0.539054
-0.534891
-0.525695
0.114341
0.066836
0.095109
0.100631
0.003221
0.012090
0.002131
-0.008003
-0.005317
-0.001463
-0.013193
-0.489181
-0.334285
-0.361200
-0.174712
0.292034
-0.226721
-0.161704
0.013689
-0.537456
-0.531930
-0.555178
-0.534407
-0.008935
-0.584812
-0.577912
0.073921
0.034183
0.068952
0.070584
-0.011932
-0.532223
-0.533065
-0.013382
-0.320068
-0.007926
-0.000499
-0.013727
0.075313
0.064445
0.066082
-0.601696
-0.501481
-0.468448
-0.594329
-0.537703
-0.535334
0.006785
-0.532288
-0.538945
-0.537301
-0.532025
-0.008367
-0.044122
-0.000421
0.057355
0.071549
0.076998
0.063651
0.074962
-0.006768
-0.003585
-0.004927
-0.013767
-0.032579
-0.038237
-0.534783
-0.013280
-0.025461
-0.010800
-0.005246
-0.002135
0.003322
-0.007181
-0.522033
-0.006734
-0.002914
-0.565974
0.078487
0.082962
0.087442
-0.532581
-0.533762
-0.610169
-0.606723
-0.579228
-0.582886
-0.581460
-0.590343
-0.586270
-0.581997
0.083595
0.113007
-0.015918
-0.522757
-0.539741
-0.146986
-0.031556
-0.016248
0.070573
-0.498710
-0.565615
-0.571451
-0.534512
-0.521062
-0.522645
-0.550749
-0.545945