# vtk DataFile Version 2.0
Test
ASCII
DATASET POLYDATA
POINTS 7607 float
0.000000 0.000000 0.000000
1.000000 0.000000 0.000000
1.000000 0.800000 0.000000
1.000000 1.000000 0.000000
0.000000 1.000000 0.000000
0.000000 0.200000 0.000000
0.300000 0.330000 0.000000
0.700000 0.680000 0.000000
0.012987 0.000000 0.000000
0.025974 0.000000 0.000000
0.038961 0.000000 0.000000
0.051948 0.000000 0.000000
0.064935 0.000000 0.000000
0.077922 0.000000 0.000000
0.090909 0.000000 0.000000
0.103896 0.000000 0.000000
0.116883 0.000000 0.000000
0.129870 0.000000 0.000000
0.142857 0.000000 0.000000
0.155844 0.000000 0.000000
0.168831 0.000000 0.000000
0.181818 0.000000 0.000000
0.194805 0.000000 0.000000
0.207792 0.000000 0.000000
0.220779 0.000000 0.000000
0.233766 0.000000 0.000000
0.246753 0.000000 0.000000
0.259740 0.000000 0.000000
0.272727 0.000000 0.000000
0.285714 0.000000 0.000000
0.298701 0.000000 0.000000
0.311688 0.000000 0.000000
0.324675 0.000000 0.000000
0.337662 0.000000 0.000000
0.350649 0.000000 0.000000
0.363636 0.000000 0.000000
0.376623 0.000000 0.000000
0.389610 0.000000 0.000000
0.402597 0.000000 0.000000
0.415584 0.000000 0.000000
0.428571 0.000000 0.000000
0.441558 0.000000 0.000000
0.454545 0.000000 0.000000
0.467532 0.000000 0.000000
0.480519 0.000000 0.000000
0.493506 0.000000 0.000000
0.506494 0.000000 0.000000
0.519481 0.000000 0.000000
0.532468 0.000000 0.000000
0.545455 0.000000 0.000000
0.558442 0.000000 0.000000
0.571429 0.000000 0.000000
0.584416 0.000000 0.000000
0.597403 0.000000 0.000000
0.610390 0.000000 0.000000
0.623377 0.000000 0.000000
0.636364 0.000000 0.000000
0.649351 0.000000 0.000000
0.662338 0.000000 0.000000
0.675325 0.000000 0.000000
0.688312 0.000000 0.000000
0.701299 0.000000 0.000000
0.714286 0.000000 0.000000
0.727273 0.000000 0.000000
0.740260 0.000000 0.000000
0.753247 0.000000 0.000000
0.766234 0.000000 0.000000
0.779221 0.000000 0.000000
0.792208 0.000000 0.000000
0.805195 0.000000 0.000000
0.818182 0.000000 0.000000
0.831169 0.000000 0.000000
0.844156 0.000000 0.000000
0.857143 0.000000 0.000000
0.870130 0.000000 0.000000
0.883117 0.000000 0.000000
0.896104 0.000000 0.000000
0.909091 0.000000 0.000000
0.922078 0.000000 0.000000
0.935065 0.000000 0.000000
0.948052 0.000000 0.000000
0.961039 0.000000 0.000000
0.974026 0.000000 0.000000
0.987013 0.000000 0.000000
1.000000 0.012903 0.000000
1.000000 0.025806 0.000000
1.000000 0.038710 0.000000
1.000000 0.051613 0.000000
1.000000 0.064516 0.000000
1.000000 0.077419 0.000000
1.000000 0.090323 0.000000
1.000000 0.103226 0.000000
1.000000 0.116129 0.000000
1.000000 0.129032 0.000000
1.000000 0.141935 0.000000
1.000000 0.154839 0.000000
1.000000 0.167742 0.000000
1.000000 0.180645 0.000000
1.000000 0.193548 0.000000
1.000000 0.206452 0.000000
1.000000 0.219355 0.000000
1.000000 0.232258 0.000000
1.000000 0.245161 0.000000
1.000000 0.258065 0.000000
1.000000 0.270968 0.000000
1.000000 0.283871 0.000000
1.000000 0.296774 0.000000
1.000000 0.309677 0.000000
1.000000 0.322581 0.000000
1.000000 0.335484 0.000000
1.000000 0.348387 0.000000
1.000000 0.361290 0.000000
1.000000 0.374194 0.000000
1.000000 0.387097 0.000000
1.000000 0.400000 0.000000
1.000000 0.412903 0.000000
1.000000 0.425806 0.000000
1.000000 0.438710 0.000000
1.000000 0.451613 0.000000
1.000000 0.464516 0.000000
1.000000 0.477419 0.000000
1.000000 0.490323 0.000000
1.000000 0.503226 0.000000
1.000000 0.516129 0.000000
1.000000 0.529032 0.000000
1.000000 0.541935 0.000000
1.000000 0.554839 0.000000
1.000000 0.567742 0.000000
1.000000 0.580645 0.000000
1.000000 0.593548 0.000000
1.000000 0.606452 0.000000
1.000000 0.619355 0.000000
1.000000 0.632258 0.000000
1.000000 0.645161 0.000000
1.000000 0.658065 0.000000
1.000000 0.670968 0.000000
1.000000 0.683871 0.000000
1.000000 0.696774 0.000000
1.000000 0.709677 0.000000
1.000000 0.722581 0.000000
1.000000 0.735484 0.000000
1.000000 0.748387 0.000000
1.000000 0.761290 0.000000
1.000000 0.774194 0.000000
1.000000 0.787097 0.000000
1.000000 0.812500 0.000000
1.000000 0.825000 0.000000
1.000000 0.837500 0.000000
1.000000 0.850000 0.000000
1.000000 0.862500 0.000000
1.000000 0.875000 0.000000
1.000000 0.887500 0.000000
1.000000 0.900000 0.000000
1.000000 0.912500 0.000000
1.000000 0.925000 0.000000
1.000000 0.937500 0.000000
1.000000 0.950000 0.000000
1.000000 0.962500 0.000000
1.000000 0.975000 0.000000
1.000000 0.987500 0.000000
0.987013 1.000000 0.000000
0.974026 1.000000 0.000000
0.961039 1.000000 0.000000
0.948052 1.000000 0.000000
0.935065 1.000000 0.000000
0.922078 1.000000 0.000000
0.909091 1.000000 0.000000
0.896104 1.000000 0.000000
0.883117 1.000000 0.000000
0.870130 1.000000 0.000000
0.857143 1.000000 0.000000
0.844156 1.000000 0.000000
0.831169 1.000000 0.000000
0.818182 1.000000 0.000000
0.805195 1.000000 0.000000
0.792208 1.000000 0.000000
0.779221 1.000000 0.000000
0.766234 1.000000 0.000000
0.753247 1.000000 0.000000
0.740260 1.000000 0.000000
0.727273 1.000000 0.000000
0.714286 1.000000 0.000000
0.701299 1.000000 0.000000
0.688312 1.000000 0.000000
0.675325 1.000000 0.000000
0.662338 1.000000 0.000000
0.649351 1.000000 0.000000
0.636364 1.000000 0.000000
0.623377 1.000000 0.000000
0.610390 1.000000 0.000000
0.597403 1.000000 0.000000
0.584416 1.000000 0.000000
0.571429 1.000000 0.000000
0.558442 1.000000 0.000000
0.545455 1.000000 0.000000
0.532468 1.000000 0.000000
0.519481 1.000000 0.000000
0.506494 1.000000 0.000000
0.493506 1.000000 0.000000
0.480519 1.000000 0.000000
0.467532 1.000000 0.000000
0.454545 1.000000 0.000000
0.441558 1.000000 0.000000
0.428571 1.000000 0.000000
0.415584 1.000000 0.000000
0.402597 1.000000 0.000000
0.389610 1.000000 0.000000
0.376623 1.000000 0.000000
0.363636 1.000000 0.000000
0.350649 1.000000 0.000000
0.337662 1.000000 0.000000
0.324675 1.000000 0.000000
0.311688 1.000000 0.000000
0.298701 1.000000 0.000000
0.285714 1.000000 0.000000
0.272727 1.000000 0.000000
0.259740 1.000000 0.000000
0.246753 1.000000 0.000000
0.233766 1.000000 0.000000
0.220779 1.000000 0.000000
0.207792 1.000000 0.000000
0.194805 1.000000 0.000000
0.181818 1.000000 0.000000
0.168831 1.000000 0.000000
0.155844 1.000000 0.000000
0.142857 1.000000 0.000000
0.129870 1.000000 0.000000
0.116883 1.000000 0.000000
0.103896 1.000000 0.000000
0.090909 1.000000 0.000000
0.077922 1.000000 0.000000
0.064935 1.000000 0.000000
0.051948 1.000000 0.000000
0.038961 1.000000 0.000000
0.025974 1.000000 0.000000
0.012987 1.000000 0.000000
0.000000 0.987097 0.000000
0.000000 0.974194 0.000000
0.000000 0.961290 0.000000
0.000000 0.948387 0.000000
0.000000 0.935484 0.000000
0.000000 0.922581 0.000000
0.000000 0.909677 0.000000
0.000000 0.896774 0.000000
0.000000 0.883871 0.000000
0.000000 0.870968 0.000000
0.000000 0.858065 0.000000
0.000000 0.845161 0.000000
0.000000 0.832258 0.000000
0.000000 0.819355 0.000000
0.000000 0.806452 0.000000
0.000000 0.793548 0.000000
0.000000 0.780645 0.000000
0.000000 0.767742 0.000000
0.000000 0.754839 0.000000
0.000000 0.741935 0.000000
0.000000 0.729032 0.000000
0.000000 0.716129 0.000000
0.000000 0.703226 0.000000
0.000000 0.690323 0.000000
0.000000 0.677419 0.000000
0.000000 0.664516 0.000000
0.000000 0.651613 0.000000
0.000000 0.638710 0.000000
0.000000 0.625806 0.000000
0.000000 0.612903 0.000000
0.000000 0.600000 0.000000
0.000000 0.587097 0.000000
0.000000 0.574194 0.000000
0.000000 0.561290 0.000000
0.000000 0.548387 0.000000
0.000000 0.535484 0.000000
0.000000 0.522581 0.000000
0.000000 0.509677 0.000000
0.000000 0.496774 0.000000
0.000000 0.483871 0.000000
0.000000 0.470968 0.000000
0.000000 0.458065 0.000000
0.000000 0.445161 0.000000
0.000000 0.432258 0.000000
0.000000 0.419355 0.000000
0.000000 0.406452 0.000000
0.000000 0.393548 0.000000
0.000000 0.380645 0.000000
0.000000 0.367742 0.000000
0.000000 0.354839 0.000000
0.000000 0.341935 0.000000
0.000000 0.329032 0.000000
0.000000 0.316129 0.000000
0.000000 0.303226 0.000000
0.000000 0.290323 0.000000
0.000000 0.277419 0.000000
0.000000 0.264516 0.000000
0.000000 0.251613 0.000000
0.000000 0.238710 0.000000
0.000000 0.225806 0.000000
0.000000 0.212903 0.000000
0.000000 0.187500 0.000000
0.000000 0.175000 0.000000
0.000000 0.162500 0.000000
0.000000 0.150000 0.000000
0.000000 0.137500 0.000000
0.000000 0.125000 0.000000
0.000000 0.112500 0.000000
0.000000 0.100000 0.000000
0.000000 0.087500 0.000000
0.000000 0.075000 0.000000
0.000000 0.062500 0.000000
0.000000 0.050000 0.000000
0.000000 0.037500 0.000000
0.000000 0.025000 0.000000
0.000000 0.012500 0.000000
0.309756 0.338537 0.000000
0.319512 0.347073 0.000000
0.329268 0.355610 0.000000
0.339024 0.364146 0.000000
0.348780 0.372683 0.000000
0.358537 0.381220 0.000000
0.368293 0.389756 0.000000
0.378049 0.398293 0.000000
0.387805 0.406829 0.000000
0.397561 0.415366 0.000000
0.407317 0.423902 0.000000
0.417073 0.432439 0.000000
0.426829 0.440976 0.000000
0.436585 0.449512 0.000000
0.446341 0.458049 0.000000
0.456098 0.466585 0.000000
0.465854 0.475122 0.000000
0.475610 0.483659 0.000000
0.485366 0.492195 0.000000
0.495122 0.500732 0.000000
0.504878 0.509268 0.000000
0.514634 0.517805 0.000000
0.524390 0.526341 0.000000
0.534146 0.534878 0.000000
0.543902 0.543415 0.000000
0.553659 0.551951 0.000000
0.563415 0.560488 0.000000
0.573171 0.569024 0.000000
0.582927 0.577561 0.000000
0.592683 0.586098 0.000000
0.602439 0.594634 0.000000
0.612195 0.603171 0.000000
0.621951 0.611707 0.000000
0.631707 0.620244 0.000000
0.641463 0.628780 0.000000
0.651220 0.637317 0.000000
0.660976 0.645854 0.000000
0.670732 0.654390 0.000000
0.680488 0.662927 0.000000
0.690244 0.671463 0.000000
0.011538 0.205000 0.000000
0.023077 0.210000 0.000000
0.034615 0.215000 0.000000
0.046154 0.220000 0.000000
0.057692 0.225000 0.000000
0.069231 0.230000 0.000000
0.080769 0.235000 0.000000
0.092308 0.240000 0.000000
0.103846 0.245000 0.000000
0.115385 0.250000 0.000000
0.126923 0.255000 0.000000
0.138462 0.260000 0.000000
0.150000 0.265000 0.000000
0.161538 0.270000 0.000000
0.173077 0.275000 0.000000
[...]
POINT_DATA 7607
SCALARS UX float 1
LOOKUP_TABLE default
0.006028
0.002154
-0.055981
-0.335871
-0.432306
-0.128818
-0.137450
-0.228906
-0.001955
0.000102
0.001557
0.001336
0.010884
0.000204
-0.000206
0.010144
0.000265
0.000855
-0.000282
0.000097
0.000136
-0.000065
-0.000163
0.000186
-0.000090
0.000275
0.000076
-0.001206
-0.000140
-0.000141
-0.000470
-0.007931
0.000176
-0.000168
-0.000132
-0.000347
0.000274
0.000151
0.002032
0.000056
0.000682
-0.001945
0.000054
0.003717
0.000154
-0.000124
-0.002461
-0.000032
-0.000325
0.000079
0.000042
-0.003698
-0.000235
-0.001144
-0.000109
-0.000512
0.000012
-0.000069
0.000046
-0.000869
-0.001394
0.000408
-0.000286
-0.000537
0.004292
0.000780
-0.007156
0.000269
0.002081
0.000475
-0.001057
-0.000501
-0.005554
-0.000055
0.005266
0.003010
-0.006493
0.000021
-0.000840
0.001929
0.000173
0.000134
-0.000194
-0.010804
-0.001110
0.014844
0.006254
0.014535
0.010996
0.012123
0.009827
0.019545
0.039921
0.037875
0.028517
0.035943
0.028799
0.055385
0.026433
0.032074
0.051551
0.052368
0.052990
0.064567
0.055148
0.066428
0.073922
0.052387
0.067659
0.082166
0.065482
0.098065
0.085561
0.086618
0.093148
0.082846
0.102227
0.098484
0.118867
0.087283
0.112891
0.118578
0.103069
0.110018
0.134968
0.114095
0.127206
0.131723
0.116526
0.131121
0.138573
0.114863
0.146994
0.101499
0.112404
0.122254
0.117671
0.111820
0.127198
0.088045
0.087182
0.053542
0.072839
0.113661
0.005659
-0.114368
-0.102532
-0.185217
-0.216906
-0.330131
-0.238498
-0.293491
-0.291093
-0.310508
-0.303158
-0.321409
-0.321693
-0.292957
-0.339363
-0.322797
-0.311156
-0.329992
-0.326379
-0.349546
-0.340987
-0.343742
-0.338090
-0.352065
-0.347938
-0.348865
-0.347551
-0.350723
-0.348164
-0.345567
-0.353432
-0.355858
-0.347199
-0.361747
-0.362920
-0.358136
-0.357177
-0.359121
-0.357006
-0.360459
-0.363842
-0.361682
-0.366349
-0.363537
-0.366364
-0.368826
-0.365845
-0.374307
-0.372263
-0.376304
-0.377834
-0.376612
-0.374174
-0.378709
-0.378484
-0.378680
-0.379864
-0.381120
-0.390290
-0.379410
-0.380962
-0.393928
-0.384323
-0.392605
-0.386103
-0.397705
-0.399404
-0.403114
-0.404896
-0.405530
-0.403696
-0.412174
-0.404891
-0.415396
-0.418129
-0.407116
-0.424267
-0.418164
-0.418712
-0.415282
-0.426201
-0.429727
-0.424789
-0.432082
-0.433099
-0.429754
-0.430368
-0.433930
-0.438184
-0.438031
-0.437407
-0.438910
-0.441761
-0.441840
-0.443155
-0.430032
-0.436823
-0.425651
-0.434031
-0.433040
-0.440285
-0.435983
-0.433563
-0.456378
-0.441690
-0.441913
-0.437952
-0.441301
-0.449017
-0.444637
-0.440625
-0.433292
-0.443753
-0.445304
-0.439976
-0.438574
-0.448826
-0.436952
-0.436130
-0.455550
-0.440403
-0.443906
-0.423749
-0.404823
-0.424841
-0.437395
-0.441716
-0.439308
-0.433831
-0.441936
-0.438954
-0.452375
-0.434479
-0.441973
-0.430749
-0.439186
-0.438075
-0.433416
-0.438622
-0.445564
-0.429420
-0.435731
-0.403251
-0.440274
-0.391257
-0.402224
-0.370814
-0.368667
-0.334054
-0.314076
-0.303822
-0.220082
-0.285583
-0.240170
-0.069601
-0.153312
-0.075128
0.003733
-0.064919
-0.035643
-0.026782
-0.019235
-0.023599
-0.012976
-0.020857
-0.017616
-0.008107
-0.007230
0.103878
-0.137316
-0.132612
-0.318704
-0.373708
-0.347060
-0.368649
-0.086430
-0.106031
-0.266734
0.018903
-0.324712
0.189500
0.022620
0.095784
0.026852
0.075171
-0.111762
-0.130233
-0.099108
-0.050808
-0.068874
-0.324920
-0.162056
-0.162219
-0.242199
-0.199702
-0.064555
-0.442584
-0.171483
-0.161991
-0.228581
-0.202970
-0.120289
-0.129424
-0.066305
-0.269576
-0.222986
-0.253684
-0.276672
-0.144951
-0.328209
-0.059962
-0.242956
-0.200170
-0.288925
-0.237688
-0.230665
-0.197289
-0.062751
-0.260773
-0.222022
-0.279521
-0.240230
-0.169922
-0.382494
-0.334111
-0.082954
-0.073581
-0.372113
-0.042342
-0.229172
-0.242741
-0.103676
-0.088363
-0.175285
0.058700
-0.066694
0.161694
-0.120699
0.215756
-0.062708
-0.167306
-0.040197
-0.144087
0.005562
-0.111407
-0.081719
-0.040788
-0.130157
-0.025479
-0.041291
-0.095215
0.040805
-0.105330
-0.112431
-0.029556
-0.026016
-0.132508
-0.349516
-0.359279
-0.368764
-0.350830
0.058477
0.047221
0.039738
-0.454252
-0.362338
-0.054059
-0.345141
-0.271967
-0.181221
-0.014770
0.007247
0.011078
-0.328124
-0.419726
-0.424730
-0.447406
0.036666
0.012233
0.024004
0.008217
-0.101343
-0.025076
-0.078345
-0.080190
-0.000655
-0.008649
-0.265695
-0.287830
-0.507554
-0.411011
-0.083432
-0.055882
0.015360
0.002027
-0.006979
-0.006877
-0.424632
-0.421027
-0.433451
-0.438134
-0.206448
-0.314155
-0.123833
-0.169410
0.104986
0.069056
0.092085
-0.350170
-0.365913
0.076170
0.041307
0.013208
0.062161
-0.372397
-0.361527
-0.351601
0.003984
-0.308198
-0.354790
-0.318886
-0.292591
-0.304643
-0.038945
-0.063153
-0.029100
-0.351679
-0.425209
-0.424944
-0.020960
0.021688
0.033678
-0.006269
-0.014724
-0.015609
-0.391850
-0.391565
-0.391557
-0.019541
-0.367804
-0.364716
-0.344233
0.028429
0.038575
0.004664
0.025526
0.002651
-0.011660
-0.017884
-0.076773
-0.008025
-0.019021
-0.020448
0.049477
0.109092
0.137897
-0.345689
-0.141164
-0.209868
-0.297450
-0.246683
-0.332956
-0.309541
-0.387770
-0.345954
-0.413728
-0.334155
-0.017803
0.010949
0.005424
0.006013
0.061400
0.054479
-0.361469
-0.358433
-0.346758
0.025879
0.028961
0.005517
-0.326369
-0.315282
-0.343325
-0.328189
0.039967
0.047659
0.084121
0.054158
-0.005920
-0.349305
-0.026198
0.003210
-0.000749
-0.005249
-0.433725
-0.370401
-0.368203
-0.372327
-0.365641
-0.401697
-0.385892
-0.373614
-0.340172
-0.351359
-0.352479
-0.343811
-0.218706
-0.009583
-0.006409
-0.004726
-0.000686
-0.438369
-0.413929
-0.439942
-0.011236
-0.009969
-0.003270
-0.447263
-0.424894
-0.426316
-0.014496
-0.314356
-0.341281
-0.357136
-0.411590
-0.404522
-0.377238
-0.425791
-0.420124
-0.429754
-0.400374
0.099185
0.081719
0.090123
0.089679
0.084761
0.054670
0.076776
0.033874
0.044405
0.035079
-0.382179
-0.372659
-0.355568
-0.371853
-0.368405
-0.365641
-0.008265
-0.020238
-0.012085
-0.006560
0.011332
0.040726
-0.008382
-0.049371
-0.027729
-0.042794
-0.064062
-0.385836
-0.412169
-0.408588
-0.371347
0.041092
0.068718
0.045658
0.033685
0.044863
0.039570
0.056558
0.095910
0.094984
0.083260
-0.051996
0.126964
-0.420421
-0.407858
-0.415141
-0.288075
-0.316284
-0.325612
-0.268165
0.066637
0.110285
0.108016
0.113157
0.044565
0.054847
0.025502
-0.373880
-0.378107
-0.410927
-0.353263
-0.385177
-0.397312
-0.421797
-0.409368
-0.419613
-0.000927
-0.015501
0.006786
-0.365287
-0.402346
-0.384063
-0.007721
0.021658
-0.018372
0.089057
0.068921
0.109359
-0.006146
-0.019321
-0.017298
-0.018492
-0.021470
-0.427540
-0.435513
-0.009521
-0.019982
-0.002245
0.011574
0.010343
-0.000528
-0.020354
-0.004557
0.011241
-0.308462
-0.299139
-0.428406
-0.437726
-0.416356
-0.033332
-0.021822
0.104853
0.086824
0.008634
0.064263
0.019329
0.072178
0.016776
-0.003415
-0.001972
0.005749
-0.409996
-0.404318
-0.436415
-0.403448
-0.443157
-0.368471
-0.461502
-0.357980
0.032194
-0.026555
0.036051
0.048134
-0.435107
-0.414267
-0.397653
-0.394983
0.065448
0.129954
0.084150
0.072126
0.046700
-0.342268
-0.337312
-0.335251
0.037361
-0.319128
-0.336099
-0.351519
0.064664
-0.344051
-0.410276
-0.447919
-0.410804
-0.013515
0.009437
-0.012009
-0.398364
-0.402953
-0.385232
-0.017789
-0.014155
0.006797
0.068287
0.036075
0.006072
0.053418
-0.335038
-0.340191
-0.309149
-0.355817
-0.389349
-0.415439
-0.400226
0.020374
0.035825
-0.001800
0.016557
0.013716
0.015616
-0.420791
-0.439650
-0.438300
-0.393142
-0.389816
-0.431818
-0.024582
-0.039045
0.090926
0.021240
-0.017736
0.030528
0.026659
0.029216
-0.388215
-0.442660
-0.391723
-0.429915
-0.437590
-0.409505
-0.021330
0.013566
-0.011605
-0.016332
0.109548
0.071477
0.025547
-0.049094
0.038760
0.047798
0.040046
0.034136
0.037750
0.037091
-0.386964
-0.389413
-0.355884
0.006963
0.005942
0.005959
0.004196
-0.025752
0.001488
-0.011509
-0.434833
-0.352975
-0.362448
-0.385353
-0.403676
-0.425932
-0.469556
-0.320697
-0.325195
-0.297048
-0.041127
-0.030685
-0.014107
-0.326270
-0.327586
-0.325339
-0.295930
-0.315726
0.008718
-0.009954
-0.409967
-0.424933
-0.422861
0.101943
0.069764
-0.354417
-0.391389
-0.020757
0.004542
-0.020443
0.004298
-0.019820
-0.033035
-0.015987
0.014372
0.022819
0.026515
-0.337564
-0.341613
-0.045363
-0.000483
-0.005862
-0.376998
-0.370446
-0.370805
0.019873
-0.394919
-0.416020
-0.393747
0.149861
0.038770
0.024504
-0.437281
-0.431255
0.078541
0.089352
-0.415715
-0.406972
-0.418036
-0.360301
-0.315214
-0.008518
-0.027606
-0.005485
-0.004204
-0.022651
-0.416121
-0.411153
-0.438364
-0.440227
-0.403984
0.076425
0.096508
-0.426306
-0.418103
-0.416301
0.017411
0.008986
-0.311381
-0.330637
-0.319745
-0.320502
0.004100
0.011288
0.000925
-0.443020
-0.424789
-0.426114
-0.419290
-0.422323
-0.413988
-0.421832
-0.394281
-0.439926
-0.389604
0.003121
-0.004334
-0.003824
-0.004355
-0.021255
-0.011111
-0.006380
-0.439195
-0.437662
-0.437239
-0.316762
-0.288180
-0.280336
-0.301153
-0.412806
-0.405760
-0.406869
-0.434151
-0.435993
-0.448191
0.107928
0.145595
-0.426358
0.028188
-0.013729
-0.422518
-0.104912
-0.341157
0.110203
-0.440293
-0.418606
-0.020772
-0.450268
-0.448379
0.034412
-0.004476
0.000125
-0.039721
-0.033515
-0.005284
-0.000935
-0.013776
0.068208
0.136664
0.086914
0.079518
0.111855
0.122203
-0.398891
-0.404105
-0.398205
-0.396988
0.022882
0.011324
0.024095
-0.036303
-0.008650
-0.296874
-0.314112
0.072795
0.055699
-0.446749
-0.438119
-0.434617
-0.430840
-0.009996
-0.055684
-0.059220
-0.041496
0.028168
0.102472
0.054156
0.108682
0.120436
-0.341985
-0.340822
-0.342192
0.025440
-0.397907
-0.397245
-0.430352
-0.305380
-0.250160
-0.031221
-0.008215
-0.018173
-0.015575
-0.362070
-0.330524
-0.340802
-0.341618
-0.347751
-0.337169
-0.002528
-0.000387
0.042865
0.048467
0.059983
0.013837
-0.301008
-0.321986
-0.338780
-0.347293
-0.319016
-0.447550
-0.296222
0.027845
0.002078
-0.009696
-0.025706
-0.025193
-0.274027
-0.333346
-0.439999
-0.419399
-0.408568
-0.341340
-0.347630
-0.393150
-0.400755
-0.395467
-0.426339
0.091703
0.042383
0.020118
0.028937
0.037636
-0.020910
-0.026720
0.023024
-0.421590
-0.420818
-0.434200
-0.016498
-0.019930
-0.394975
-0.418901
-0.429213
-0.400405
-0.008316
-0.017345
-0.029757
-0.427214
-0.006356
-0.009301
-0.411390
-0.421280
0.029748
0.019448
0.027100
0.049749
0.003550
0.008968
-0.001723
-0.003777
-0.418205
-0.452686
-0.447714
-0.406203
-0.399444
-0.403358
-0.386160
-0.011087
-0.014202
-0.027081
-0.020928
0.038521
0.062442
0.063969
0.008807
-0.001046
0.016255
0.002606
-0.173513
-0.326885
-0.329978
-0.346225
-0.352023
-0.339944
-0.439585
-0.435407
-0.436878
-0.365391
-0.376247
-0.397248
-0.371874
0.098950
0.057706
-0.031133
-0.023050
-0.431601
-0.275652
-0.237652
-0.286303
-0.440748
-0.419858
-0.433601
-0.279693
-0.348035
-0.323940
-0.156181
-0.029123
-0.350095
-0.021153
0.115811
-0.012860
0.112701
0.097217
-0.018935
-0.010643
-0.006100
0.015813
-0.313316
-0.316203
-0.011916
-0.393787
-0.426631
-0.007993
-0.001797
-0.344217
-0.419783
-0.026808
-0.042434
-0.029188
-0.025711
-0.321177
-0.319117
-0.303316
-0.019148
0.003700
-0.450787
-0.017518
0.011013
-0.062424
-0.425205
-0.422740
-0.426796
0.031788
0.002545
-0.016130
-0.403171
0.033813
0.038978
-0.032583
-0.460364
-0.422676
-0.449177
-0.282663
-0.048658
-0.005427
-0.002558
-0.355236
-0.381986
-0.351691
-0.341622
-0.326949
-0.361582
0.001251
-0.008459
0.011315
0.010062
-0.025003
-0.059700
0.003391
-0.183428
-0.089495
-0.316590
-0.331112
-0.358906
-0.325783
-0.181884
-0.340344
-0.337213
-0.325699
-0.041044
-0.015322
-0.436727
-0.417463
-0.430185
-0.349638
-0.353366
-0.315205
-0.333056
-0.014567
-0.010642
-0.344855
-0.329491
-0.327536
0.109085
-0.009572
0.130088
-0.053885
-0.437538
-0.315465
-0.014136
0.005223
-0.007092
-0.426450
0.040564
0.026826
0.046591
0.000085
-0.447302
0.005571
0.012913
0.000955
0.021432
0.006228
-0.299016
-0.345126
-0.349486
-0.334244
-0.004163
-0.006529
0.000285
-0.004519
0.118891
0.126437
0.119484
0.116436
-0.432589
-0.446058
-0.420956
-0.406243
-0.378377
0.018395
0.007116
0.026456
0.005569
0.017437
-0.015501
0.037442
-0.353502
-0.379318
0.064618
0.052689
0.085581
-0.457150
-0.346330
-0.426382
-0.404482
-0.410090
-0.347124
0.087815
0.102544
0.083732
0.069566
-0.146304
-0.353810
-0.361890
-0.401293
0.004562
0.011385
-0.409362
0.034381
0.033751
-0.379577
-0.369291
-0.377564
-0.426737
-0.430858
-0.019325
-0.406257
-0.408598
-0.393848
-0.410205
0.113545
0.103935
0.128653
0.148044
-0.344209
-0.362177
-0.368960
-0.334196
-0.371278
0.009930
0.039512
0.044658
0.078684
0.073976
0.086839
-0.016398
-0.024324
-0.016123
-0.448470
0.038026
-0.426243
-0.433649
-0.419474
-0.423043
-0.421445
-0.393348
-0.379930
-0.411854
0.004867
-0.020137
-0.413218
0.044738
-0.020048
-0.009408
-0.016281
-0.379146
-0.368084
-0.368386
-0.034157
-0.015588
0.009708
0.008206
0.020392
-0.297496
-0.022303
-0.010612
-0.011436
-0.323642
-0.329191
-0.330897
0.065060
0.077858
-0.002414
-0.006707
-0.013391
-0.425368
-0.422948
-0.427222
-0.270012
-0.435126
-0.445179
-0.446677
-0.418311
-0.429672
-0.408847
-0.174791
-0.239418
-0.249505
-0.291410
-0.287164
-0.320166
-0.035796
-0.014301
-0.101112
-0.375855
-0.334248
0.023908
-0.015909
0.136295
0.112801
0.093572
0.096438
-0.348444
-0.342890
-0.012526
-0.003079
-0.010396
0.024271
0.001542
-0.011393
-0.427306
-0.000616
-0.014777
-0.024737
-0.001874
-0.410889
-0.397057
-0.372283
-0.343148
-0.455747
-0.423038
-0.441965
-0.445564
-0.001090
0.002470
0.020340
-0.390672
-0.413669
-0.357054
-0.376030
-0.344265
0.119884
-0.025417
-0.353585
-0.324362
-0.177296
-0.352570
0.099562
0.140810
-0.351335
-0.387298
-0.100040
-0.208542
-0.009918
-0.021150
-0.011689
-0.366440
-0.361348
-0.369677
0.061229
0.165248
0.083137
-0.425677
-0.348519
-0.377596
-0.345819
-0.333484
-0.405662
-0.414155
-0.366638
-0.396499
-0.011967
-0.405554
-0.426234
-0.443381
-0.439281
0.009677
0.021139
0.017544
-0.019434
-0.009117
-0.354770
-0.321019
-0.329603
-0.005201
-0.013280
-0.013730
-0.012784
-0.012111
-0.330697
-0.324713
-0.248252
-0.295286
-0.423554
-0.303812
0.095731
0.116957
0.105998
0.054851
-0.336078
-0.343732
-0.063765
-0.065179
-0.034691
0.008411
-0.000722
0.000329
-0.378294
-0.384146
-0.017194
-0.009291
-0.342083
-0.290968
-0.006260
-0.014139
0.005156
-0.013762
-0.356704
-0.345459
-0.011646
-0.433768
-0.438296
-0.379949
0.003723
0.004589
-0.393276
-0.389945
-0.400860
-0.375947
-0.375666
-0.438885
-0.434302
0.004265
0.003895
-0.010032
-0.411045
-0.418014
-0.441715
0.052711
0.035193
0.063473
0.074263
-0.387138
-0.366822
-0.372280
-0.289073
0.081273
0.077230
0.094520
-0.436540
0.079906
-0.401746
0.008266
-0.005911
0.025057
0.022965
0.081738
-0.426394
-0.433192
-0.426970
-0.000193
0.006064
0.017106
0.120737
0.121350
0.071297
-0.095686
-0.061797
0.099573
0.112807
0.130186
-0.002445
-0.078352
-0.065468
-0.088294
0.035579
-0.011882
0.073827
0.068816
0.023576
-0.347798
-0.010357
-0.007681
-0.006705
-0.014443
-0.014606
-0.306219
0.052372
-0.410762
-0.404258
-0.453483
-0.284902
-0.014342
-0.396901
-0.384991
-0.387126
-0.360486
-0.399393
0.048289
-0.320240
-0.344868
-0.318453
-0.312224
-0.008961
-0.333239
-0.345218
-0.332011
-0.340220
-0.347792
-0.003049
-0.412460
-0.415086
-0.427938
0.001502
-0.431195
-0.437771
-0.005092
0.049324
0.048492
0.064126
-0.410439
0.142907
0.075471
0.036350
-0.432890
-0.429112
-0.430381
0.012434
0.003278
0.003028
-0.437825
-0.341171
-0.316973
-0.350763
-0.376526
-0.386623
-0.394811
-0.448238
-0.434781
-0.427126
-0.392346
-0.246682
-0.354099
0.050495
-0.337845
-0.362558
0.069651
0.078076
0.046747
-0.381199
-0.378248
-0.015612
-0.023564
-0.039707
-0.025436
-0.023193
0.068268
-0.341505
-0.433239
-0.425343
0.018985
-0.009173
-0.003390
-0.436890
-0.436313
-0.432006
0.019162
0.020909
0.016466
-0.356400
-0.351190
-0.363354
-0.359563
-0.328541
-0.344088
-0.006222
-0.003363
0.028698
0.003529
-0.344569
-0.340043
-0.332244
-0.345983
-0.387823
-0.396662
-0.418529
-0.343854
-0.333433
-0.341062
-0.336475
-0.029465
-0.025318
-0.007510
-0.009321
-0.369425
-0.391432
-0.417918
-0.425892
-0.421649
0.124702
-0.025062
-0.031085
0.052721
0.098071
-0.006647
-0.401453
0.154966
-0.359224
-0.370014
-0.369408
-0.359202
-0.407126
-0.431220
-0.407846
-0.399802
-0.061383
-0.008053
-0.069129
-0.432736
-0.012695
-0.017159
-0.004629
-0.085459
-0.348220
-0.469073
-0.351981
0.121857
0.119507
0.128344
-0.330475
-0.355702
-0.014691
-0.421294
-0.007510
-0.005799
-0.000387
0.013164
-0.019152
0.008038
0.003056
-0.034423
-0.028145
-0.342364
-0.345734
0.064362
0.075894
0.119527
-0.364033
-0.440920
-0.431057
0.125312
-0.409752
-0.405520
-0.416521
-0.281853
-0.393243
-0.504372
-0.401822
-0.346849
-0.367544
-0.361750
-0.362335
0.063352
-0.290311
-0.004022
-0.010503
-0.335797
-0.355402
-0.343022
-0.384748
-0.374948
-0.386431
-0.287835
-0.351571
-0.405104
-0.438629
-0.430552
-0.391416
-0.398380
-0.386857
0.001384
0.016411
-0.010228
-0.437162
-0.433321
-0.430072
-0.168062
-0.121811
-0.020097
-0.009061
-0.337801
-0.414368
-0.409037
-0.001209
-0.002983
-0.008788
-0.035402
-0.009518
-0.343425
-0.351814
-0.425961
0.009647
0.035262
-0.400637
0.046849
0.056488
0.035460
0.036963
-0.419097
-0.460629
-0.393973
-0.339219
-0.370120
-0.365786
-0.002778
0.004205
-0.279269
-0.219763
-0.319626
-0.284770
-0.172121
-0.286863
-0.364503
-0.354649
-0.012945
-0.016982
-0.011966
-0.001738
-0.411554
-0.011813
-0.007251
-0.010909
-0.353182
-0.350606
0.066962
0.109181
0.036721
0.081844
0.058062
0.087878
0.036006
-0.017653
0.006278
-0.007815
0.051575
-0.000977
-0.015938
-0.369108
-0.370201
-0.352636
-0.366045
-0.058738
-0.062927
-0.064192
0.065797
-0.024570
-0.094571
-0.062372
-0.134318
0.056584
0.036972
0.026328
-0.362035
-0.334043
0.065495
0.097172
0.014750
0.007064
0.043730
0.061336
0.019419
0.024345
0.037071
0.080012
0.082086
-0.022949
-0.009896
0.078758
0.007199
0.140978
0.101496
0.026654
0.113228
0.128457
0.147967
-0.047245
-0.344934
-0.353682
-0.339623
-0.323141
-0.362763
0.036168
0.050767
0.068204
0.027488
0.065859
0.102634
0.130930
0.111893
-0.353357
-0.357005
-0.330603
-0.354054
-0.365264
-0.337062
-0.356687
-0.329653
-0.001380
-0.014701
-0.335126
-0.003444
0.118279
0.104643
0.124378
-0.062725
-0.025325
-0.191733
0.000431
-0.014770
-0.430318
-0.429665
-0.021344
-0.049536
0.001282
-0.016697
-0.436606
-0.432450
-0.429110
-0.441264
-0.360283
-0.370955
-0.370769
-0.359403
-0.341128
-0.325455
-0.015613
-0.005771
-0.354080
-0.342195
-0.337362
-0.334230
0.096500
0.106049
0.113336
0.111994
0.052621
-0.331690
-0.329018
-0.346030
0.133878
0.114482
0.118415
-0.031564
-0.022659
-0.011836
-0.037024
-0.092484
-0.069200
-0.046117
-0.057994
-0.215773
-0.128178
-0.352759
-0.351105
-0.018521
0.000457
0.134981
-0.002829
-0.335799
-0.345673
-0.358343
0.041717
-0.431651
-0.338126
-0.004359
0.000313
0.002628
-0.000850
-0.006553
0.001854
-0.348234
-0.383985
-0.020405
-0.029166
-0.000758
-0.430907
-0.020192
-0.007906
-0.024425
0.005253
0.002211
-0.352450
-0.355483
0.001182
-0.014751
0.001978
-0.013303
-0.426397
-0.384201
-0.416368
-0.420374
-0.032839
-0.011654
-0.009846
-0.034918
-0.005989
-0.022087
-0.345016
-0.355515
-0.019314
-0.016414
-0.017667
-0.011297
-0.028108
-0.412734
-0.413432
-0.394824
-0.410445
-0.399402
-0.389406
-0.417451
-0.032753
-0.359271
-0.359572
-0.357639
-0.341336
0.095533
0.047373
0.075424
0.079192
0.002280
0.013222
-0.003565
-0.011023
-0.007663
-0.006465
-0.016640
-0.305220
-0.146995
-0.237200
-0.102786
0.103651
-0.081503
-0.100206
0.011533
-0.355356
-0.351471
-0.374960
-0.355405
-0.008815
-0.429846
-0.422506
0.046883
0.003594
0.054587
0.036150
-0.011801
-0.352603
-0.353064
-0.015234
-0.259506
-0.008316
-0.000258
-0.013153
0.065971
0.051702
0.055854
-0.344993
-0.331533
-0.421554
-0.448931
-0.361329
-0.351493
0.002804
-0.347885
-0.359741
-0.356074
-0.353070
-0.012738
-0.053578
-0.002751
0.046235
0.055258
0.068000
0.051970
0.060897
-0.007056
-0.000219
-0.002700
-0.012148
-0.048589
-0.042066
-0.358636
-0.018238
-0.031148
-0.012308
-0.006003
-0.003162
0.002161
-0.014055
-0.342948
-0.010668
-0.004468
-0.413585
0.060772
0.064621
0.070930
-0.352595
-0.353627
-0.438151
-0.434861
-0.403470
-0.406877
-0.425552
-0.434435
-0.434264
-0.426285
0.064252
0.085394
-0.017970
-0.343865
-0.358363
-0.047778
-0.035978
-0.011015
0.053614
-0.305197
-0.392776
-0.398666
-0.351005
-0.373219
-0.405273