# vtk DataFile Version 2.0
Test
ASCII
DATASET POLYDATA
POINTS 7607 float
0.000000 0.000000 0.000000
1.000000 0.000000 0.000000
1.000000 0.800000 0.000000
1.000000 1.000000 0.000000
0.000000 1.000000 0.000000
0.000000 0.200000 0.000000
0.300000 0.330000 0.000000
0.700000 0.680000 0.000000
0.012987 0.000000 0.000000
0.025974 0.000000 0.000000
0.038961 0.000000 0.000000
0.051948 0.000000 0.000000
0.064935 0.000000 0.000000
0.077922 0.000000 0.000000
0.090909 0.000000 0.000000
0.103896 0.000000 0.000000
0.116883 0.000000 0.000000
0.129870 0.000000 0.000000
0.142857 0.000000 0.000000
0.155844 0.000000 0.000000
0.168831 0.000000 0.000000
0.181818 0.000000 0.000000
0.194805 0.000000 0.000000
0.207792 0.000000 0.000000
0.220779 0.000000 0.000000
0.233766 0.000000 0.000000
0.246753 0.000000 0.000000
0.259740 0.000000 0.000000
0.272727 0.000000 0.000000
0.285714 0.000000 0.000000
0.298701 0.000000 0.000000
0.311688 0.000000 0.000000
0.324675 0.000000 0.000000
0.337662 0.000000 0.000000
0.350649 0.000000 0.000000
0.363636 0.000000 0.000000
0.376623 0.000000 0.000000
0.389610 0.000000 0.000000
0.402597 0.000000 0.000000
0.415584 0.000000 0.000000
0.428571 0.000000 0.000000
0.441558 0.000000 0.000000
0.454545 0.000000 0.000000
0.467532 0.000000 0.000000
0.480519 0.000000 0.000000
0.493506 0.000000 0.000000
0.506494 0.000000 0.000000
0.519481 0.000000 0.000000
0.532468 0.000000 0.000000
0.545455 0.000000 0.000000
0.558442 0.000000 0.000000
0.571429 0.000000 0.000000
0.584416 0.000000 0.000000
0.597403 0.000000 0.000000
0.610390 0.000000 0.000000
0.623377 0.000000 0.000000
0.636364 0.000000 0.000000
0.649351 0.000000 0.000000
0.662338 0.000000 0.000000
0.675325 0.000000 0.000000
0.688312 0.000000 0.000000
0.701299 0.000000 0.000000
0.714286 0.000000 0.000000
0.727273 0.000000 0.000000
0.740260 0.000000 0.000000
0.753247 0.000000 0.000000
0.766234 0.000000 0.000000
0.779221 0.000000 0.000000
0.792208 0.000000 0.000000
0.805195 0.000000 0.000000
0.818182 0.000000 0.000000
0.831169 0.000000 0.000000
0.844156 0.000000 0.000000
0.857143 0.000000 0.000000
0.870130 0.000000 0.000000
0.883117 0.000000 0.000000
0.896104 0.000000 0.000000
0.909091 0.000000 0.000000
0.922078 0.000000 0.000000
0.935065 0.000000 0.000000
0.948052 0.000000 0.000000
0.961039 0.000000 0.000000
0.974026 0.000000 0.000000
0.987013 0.000000 0.000000
1.000000 0.012903 0.000000
1.000000 0.025806 0.000000
1.000000 0.038710 0.000000
1.000000 0.051613 0.000000
1.000000 0.064516 0.000000
1.000000 0.077419 0.000000
1.000000 0.090323 0.000000
1.000000 0.103226 0.000000
1.000000 0.116129 0.000000
1.000000 0.129032 0.000000
1.000000 0.141935 0.000000
1.000000 0.154839 0.000000
1.000000 0.167742 0.000000
1.000000 0.180645 0.000000
1.000000 0.193548 0.000000
1.000000 0.206452 0.000000
1.000000 0.219355 0.000000
1.000000 0.232258 0.000000
1.000000 0.245161 0.000000
1.000000 0.258065 0.000000
1.000000 0.270968 0.000000
1.000000 0.283871 0.000000
1.000000 0.296774 0.000000
1.000000 0.309677 0.000000
1.000000 0.322581 0.000000
1.000000 0.335484 0.000000
1.000000 0.348387 0.000000
1.000000 0.361290 0.000000
1.000000 0.374194 0.000000
1.000000 0.387097 0.000000
1.000000 0.400000 0.000000
1.000000 0.412903 0.000000
1.000000 0.425806 0.000000
1.000000 0.438710 0.000000
1.000000 0.451613 0.000000
1.000000 0.464516 0.000000
1.000000 0.477419 0.000000
1.000000 0.490323 0.000000
1.000000 0.503226 0.000000
1.000000 0.516129 0.000000
1.000000 0.529032 0.000000
1.000000 0.541935 0.000000
1.000000 0.554839 0.000000
1.000000 0.567742 0.000000
1.000000 0.580645 0.000000
1.000000 0.593548 0.000000
1.000000 0.606452 0.000000
1.000000 0.619355 0.000000
1.000000 0.632258 0.000000
1.000000 0.645161 0.000000
1.000000 0.658065 0.000000
1.000000 0.670968 0.000000
1.000000 0.683871 0.000000
1.000000 0.696774 0.000000
1.000000 0.709677 0.000000
1.000000 0.722581 0.000000
1.000000 0.735484 0.000000
1.000000 0.748387 0.000000
1.000000 0.761290 0.000000
1.000000 0.774194 0.000000
1.000000 0.787097 0.000000
1.000000 0.812500 0.000000
1.000000 0.825000 0.000000
1.000000 0.837500 0.000000
1.000000 0.850000 0.000000
1.000000 0.862500 0.000000
1.000000 0.875000 0.000000
1.000000 0.887500 0.000000
1.000000 0.900000 0.000000
1.000000 0.912500 0.000000
1.000000 0.925000 0.000000
1.000000 0.937500 0.000000
1.000000 0.950000 0.000000
1.000000 0.962500 0.000000
1.000000 0.975000 0.000000
1.000000 0.987500 0.000000
0.987013 1.000000 0.000000
0.974026 1.000000 0.000000
0.961039 1.000000 0.000000
0.948052 1.000000 0.000000
0.935065 1.000000 0.000000
0.922078 1.000000 0.000000
0.909091 1.000000 0.000000
0.896104 1.000000 0.000000
0.883117 1.000000 0.000000
0.870130 1.000000 0.000000
0.857143 1.000000 0.000000
0.844156 1.000000 0.000000
0.831169 1.000000 0.000000
0.818182 1.000000 0.000000
0.805195 1.000000 0.000000
0.792208 1.000000 0.000000
0.779221 1.000000 0.000000
0.766234 1.000000 0.000000
0.753247 1.000000 0.000000
0.740260 1.000000 0.000000
0.727273 1.000000 0.000000
0.714286 1.000000 0.000000
0.701299 1.000000 0.000000
0.688312 1.000000 0.000000
0.675325 1.000000 0.000000
0.662338 1.000000 0.000000
0.649351 1.000000 0.000000
0.636364 1.000000 0.000000
0.623377 1.000000 0.000000
0.610390 1.000000 0.000000
0.597403 1.000000 0.000000
0.584416 1.000000 0.000000
0.571429 1.000000 0.000000
0.558442 1.000000 0.000000
0.545455 1.000000 0.000000
0.532468 1.000000 0.000000
0.519481 1.000000 0.000000
0.506494 1.000000 0.000000
0.493506 1.000000 0.000000
0.480519 1.000000 0.000000
0.467532 1.000000 0.000000
0.454545 1.000000 0.000000
0.441558 1.000000 0.000000
0.428571 1.000000 0.000000
0.415584 1.000000 0.000000
0.402597 1.000000 0.000000
0.389610 1.000000 0.000000
0.376623 1.000000 0.000000
0.363636 1.000000 0.000000
0.350649 1.000000 0.000000
0.337662 1.000000 0.000000
0.324675 1.000000 0.000000
0.311688 1.000000 0.000000
0.298701 1.000000 0.000000
0.285714 1.000000 0.000000
0.272727 1.000000 0.000000
0.259740 1.000000 0.000000
0.246753 1.000000 0.000000
0.233766 1.000000 0.000000
0.220779 1.000000 0.000000
0.207792 1.000000 0.000000
0.194805 1.000000 0.000000
0.181818 1.000000 0.000000
0.168831 1.000000 0.000000
0.155844 1.000000 0.000000
0.142857 1.000000 0.000000
0.129870 1.000000 0.000000
0.116883 1.000000 0.000000
0.103896 1.000000 0.000000
0.090909 1.000000 0.000000
0.077922 1.000000 0.000000
0.064935 1.000000 0.000000
0.051948 1.000000 0.000000
0.038961 1.000000 0.000000
0.025974 1.000000 0.000000
0.012987 1.000000 0.000000
0.000000 0.987097 0.000000
0.000000 0.974194 0.000000
0.000000 0.961290 0.000000
0.000000 0.948387 0.000000
0.000000 0.935484 0.000000
0.000000 0.922581 0.000000
0.000000 0.909677 0.000000
0.000000 0.896774 0.000000
0.000000 0.883871 0.000000
0.000000 0.870968 0.000000
0.000000 0.858065 0.000000
0.000000 0.845161 0.000000
0.000000 0.832258 0.000000
0.000000 0.819355 0.000000
0.000000 0.806452 0.000000
0.000000 0.793548 0.000000
0.000000 0.780645 0.000000
0.000000 0.767742 0.000000
0.000000 0.754839 0.000000
0.000000 0.741935 0.000000
0.000000 0.729032 0.000000
0.000000 0.716129 0.000000
0.000000 0.703226 0.000000
0.000000 0.690323 0.000000
0.000000 0.677419 0.000000
0.000000 0.664516 0.000000
0.000000 0.651613 0.000000
0.000000 0.638710 0.000000
0.000000 0.625806 0.000000
0.000000 0.612903 0.000000
0.000000 0.600000 0.000000
0.000000 0.587097 0.000000
0.000000 0.574194 0.000000
0.000000 0.561290 0.000000
0.000000 0.548387 0.000000
0.000000 0.535484 0.000000
0.000000 0.522581 0.000000
0.000000 0.509677 0.000000
0.000000 0.496774 0.000000
0.000000 0.483871 0.000000
0.000000 0.470968 0.000000
0.000000 0.458065 0.000000
0.000000 0.445161 0.000000
0.000000 0.432258 0.000000
0.000000 0.419355 0.000000
0.000000 0.406452 0.000000
0.000000 0.393548 0.000000
0.000000 0.380645 0.000000
0.000000 0.367742 0.000000
0.000000 0.354839 0.000000
0.000000 0.341935 0.000000
0.000000 0.329032 0.000000
0.000000 0.316129 0.000000
0.000000 0.303226 0.000000
0.000000 0.290323 0.000000
0.000000 0.277419 0.000000
0.000000 0.264516 0.000000
0.000000 0.251613 0.000000
0.000000 0.238710 0.000000
0.000000 0.225806 0.000000
0.000000 0.212903 0.000000
0.000000 0.187500 0.000000
0.000000 0.175000 0.000000
0.000000 0.162500 0.000000
0.000000 0.150000 0.000000
0.000000 0.137500 0.000000
0.000000 0.125000 0.000000
0.000000 0.112500 0.000000
0.000000 0.100000 0.000000
0.000000 0.087500 0.000000
0.000000 0.075000 0.000000
0.000000 0.062500 0.000000
0.000000 0.050000 0.000000
0.000000 0.037500 0.000000
0.000000 0.025000 0.000000
0.000000 0.012500 0.000000
0.309756 0.338537 0.000000
0.319512 0.347073 0.000000
0.329268 0.355610 0.000000
0.339024 0.364146 0.000000
0.348780 0.372683 0.000000
0.358537 0.381220 0.000000
0.368293 0.389756 0.000000
0.378049 0.398293 0.000000
0.387805 0.406829 0.000000
0.397561 0.415366 0.000000
0.407317 0.423902 0.000000
0.417073 0.432439 0.000000
0.426829 0.440976 0.000000
0.436585 0.449512 0.000000
0.446341 0.458049 0.000000
0.456098 0.466585 0.000000
0.465854 0.475122 0.000000
0.475610 0.483659 0.000000
0.485366 0.492195 0.000000
0.495122 0.500732 0.000000
0.504878 0.509268 0.000000
0.514634 0.517805 0.000000
0.524390 0.526341 0.000000
0.534146 0.534878 0.000000
0.543902 0.543415 0.000000
0.553659 0.551951 0.000000
0.563415 0.560488 0.000000
0.573171 0.569024 0.000000
0.582927 0.577561 0.000000
0.592683 0.586098 0.000000
0.602439 0.594634 0.000000
0.612195 0.603171 0.000000
0.621951 0.611707 0.000000
0.631707 0.620244 0.000000
0.641463 0.628780 0.000000
0.651220 0.637317 0.000000
0.660976 0.645854 0.000000
0.670732 0.654390 0.000000
0.680488 0.662927 0.000000
0.690244 0.671463 0.000000
0.011538 0.205000 0.000000
0.023077 0.210000 0.000000
0.034615 0.215000 0.000000
0.046154 0.220000 0.000000
0.057692 0.225000 0.000000
0.069231 0.230000 0.000000
0.080769 0.235000 0.000000
0.092308 0.240000 0.000000
0.103846 0.245000 0.000000
0.115385 0.250000 0.000000
0.126923 0.255000 0.000000
0.138462 0.260000 0.000000
0.150000 0.265000 0.000000
0.161538 0.270000 0.000000
0.173077 0.275000 0.000000
[...]
POINT_DATA 7607
SCALARS UX float 1
LOOKUP_TABLE default
0.007191
0.002074
0.028620
-1.093664
-1.208032
-0.182698
-0.490540
-0.538896
-0.003017
0.000198
0.002188
0.001554
0.012333
0.000476
-0.000265
0.011368
0.000341
0.001072
-0.000365
0.000048
0.000283
-0.000121
-0.000223
0.000205
-0.000163
0.000351
0.000148
-0.001729
-0.000281
-0.000245
-0.001017
-0.010558
0.000330
-0.000295
-0.000210
-0.000551
0.000488
0.000332
0.002712
0.000046
0.000225
-0.002359
0.000163
0.004290
0.000297
-0.000428
-0.003012
-0.000012
-0.000474
0.000032
0.000051
-0.004413
-0.000292
-0.001473
-0.000139
-0.001029
0.000243
-0.000064
0.000076
-0.001482
-0.001973
0.000663
-0.000375
-0.000546
0.003755
0.001147
-0.007845
0.000329
0.002447
0.000802
-0.001416
-0.000653
-0.006099
0.000285
0.005774
0.003446
-0.006405
0.000098
-0.000919
0.002371
0.000115
0.001422
-0.000190
-0.011846
-0.000395
0.014883
0.009570
0.018860
0.009862
0.020541
0.012945
0.023179
0.044671
0.045162
0.034509
0.046929
0.034259
0.055980
0.034668
0.036970
0.053006
0.058478
0.052500
0.066052
0.056794
0.065251
0.073393
0.051483
0.065414
0.080089
0.060205
0.091980
0.078131
0.075723
0.085151
0.067296
0.091471
0.079667
0.107218
0.066320
0.094759
0.109941
0.069919
0.092292
0.128491
0.087677
0.109552
0.109452
0.105402
0.108401
0.116820
0.092954
0.133929
0.077157
0.088478
0.118400
0.096851
0.103887
0.117988
0.067613
0.093533
0.006175
0.080392
0.183288
0.003969
-0.386008
-0.150521
-0.505131
-0.359297
-0.839210
-0.768894
-0.915680
-1.017420
-1.151946
-0.975693
-1.111352
-1.051076
-1.061707
-1.100903
-1.086536
-1.077185
-1.093271
-1.092358
-1.111149
-1.104167
-1.107420
-1.098548
-1.113364
-1.109266
-1.111183
-1.105935
-1.112118
-1.110221
-1.107447
-1.115396
-1.119129
-1.109178
-1.124037
-1.129103
-1.120721
-1.119537
-1.121685
-1.118806
-1.123963
-1.125919
-1.125412
-1.129256
-1.125370
-1.129167
-1.132287
-1.124581
-1.139221
-1.137004
-1.138947
-1.143116
-1.140221
-1.138519
-1.142926
-1.142763
-1.142309
-1.144548
-1.145612
-1.155557
-1.142299
-1.145943
-1.160389
-1.147595
-1.158819
-1.150387
-1.164152
-1.168338
-1.171482
-1.175970
-1.173513
-1.173893
-1.184562
-1.172436
-1.189108
-1.190805
-1.177582
-1.198794
-1.190240
-1.192590
-1.186901
-1.198369
-1.207773
-1.199818
-1.206513
-1.208437
-1.206009
-1.205466
-1.209781
-1.212751
-1.214037
-1.212090
-1.215491
-1.216338
-1.218862
-1.216909
-1.205420
-1.213473
-1.201047
-1.209387
-1.208714
-1.214364
-1.211454
-1.208403
-1.230025
-1.212588
-1.216715
-1.209925
-1.212319
-1.219369
-1.213334
-1.210109
-1.201647
-1.212959
-1.208435
-1.204380
-1.202425
-1.207054
-1.192958
-1.197362
-1.203108
-1.195247
-1.192857
-1.167251
-1.152352
-1.167629
-1.175428
-1.177213
-1.174231
-1.159733
-1.167471
-1.159294
-1.166981
-1.146103
-1.146897
-1.137465
-1.133888
-1.126121
-1.119522
-1.111005
-1.112060
-1.090450
-1.069883
-1.045750
-1.047716
-0.997727
-0.963036
-0.960827
-0.862349
-0.823652
-0.853086
-0.688759
-0.615422
-0.860101
-0.507641
-0.198011
-0.428138
-0.122234
-0.004474
-0.076313
-0.063373
-0.024179
-0.017465
-0.031682
-0.008285
-0.023734
-0.016410
-0.004514
-0.008489
-0.326453
-0.265887
-0.407799
-0.560992
-0.093367
-0.368650
-0.431850
-0.644431
-0.466248
-0.409352
-0.518626
-0.646139
-0.386358
-0.408487
-0.671961
-0.724947
-0.587635
-0.521144
-0.625273
-0.397350
-0.424488
-0.516804
-0.705423
-0.504577
-0.536355
-0.471774
-0.603840
-0.603555
-0.612778
-0.559783
-0.421483
-0.541053
-0.556757
-0.503453
-0.454175
-0.326863
-0.534656
-0.568996
-0.645538
-0.561471
-0.370712
-0.879411
-0.203649
-0.458734
-0.470913
-0.587725
-0.900377
-0.468594
-0.886874
-0.341885
-0.684801
-0.780749
-0.755131
-0.703471
-0.782981
-0.901578
-0.861881
-0.596445
-0.108069
-1.045324
-0.115864
-0.929777
-0.509547
-0.661835
-0.404973
-0.220370
-0.040743
-0.218859
-0.038011
-0.437387
-0.039208
-0.184018
-0.334757
-0.293952
-0.377656
-0.064335
-0.179070
-0.116409
-0.133517
-0.418729
-0.156713
-0.196019
-0.246584
0.042754
-0.153121
-0.266130
-0.104336
-0.006680
-0.266796
-1.110614
-1.120508
-1.142504
-1.108956
0.022488
0.011227
0.001038
-0.979949
-0.781009
-1.025103
-0.706772
-0.756485
-0.624853
-0.014601
0.012914
0.012152
-0.821920
-1.196556
-1.199137
-1.224120
0.039510
0.018633
0.024549
0.015165
-0.286899
0.010807
-0.250284
-0.122492
-0.005046
0.007432
-0.869326
-0.814516
-1.069862
-0.943753
-0.082970
-0.130705
0.018555
0.004049
-0.006883
-0.005749
-1.198181
-1.197438
-1.208027
-1.214663
-0.607363
-0.839950
-0.494228
-0.770564
0.088527
0.030292
0.025236
-1.104029
-1.128984
0.002270
0.043494
0.024353
0.063870
-1.135237
-1.120270
-1.114468
0.384148
-1.080073
-1.115008
-1.075407
-1.008737
-1.024581
-0.048218
-0.080473
-0.040175
-1.076535
-1.200994
-1.202684
-0.021530
0.021776
-0.000081
-0.009287
-0.022789
-0.021721
-1.155320
-1.158500
-1.156389
-0.022089
-1.128079
-1.123460
-1.103830
0.034971
0.039167
0.005948
0.036472
0.001861
-0.017237
-0.023986
-0.119364
0.026860
-0.031414
-0.029204
0.002360
0.102711
0.124887
-1.086268
-0.639857
-1.030233
-0.804750
-0.666904
-1.338951
-1.057139
-1.151333
-1.125718
-1.153393
-1.108710
-0.018149
0.007839
0.005585
0.008811
0.056603
0.063516
-1.125442
-1.116459
-1.101819
0.026090
0.038978
0.009688
-1.123059
-1.029445
-1.130841
-1.096812
0.041678
0.031900
0.066246
-0.004033
-0.005165
-1.113956
-0.035029
0.002837
0.014646
-0.027000
-1.104449
-0.965031
-1.038079
-1.088409
-1.129428
-1.165162
-1.152324
-1.138238
-1.101194
-1.110245
-1.111389
-1.104416
-0.549046
-0.012161
-0.009531
-0.005756
-0.001862
-1.156250
-1.128193
-1.150345
-0.014702
-0.013582
-0.005287
-1.221280
-1.200463
-1.202845
-0.020156
-1.062495
-1.096453
-1.112592
-1.120680
-1.126243
-1.083017
-1.199507
-1.195266
-1.202321
-1.103989
0.051296
0.049043
0.048720
0.048708
0.035942
0.007201
0.022109
0.027433
0.038599
0.020126
-1.146839
-1.132405
-1.113132
-1.135079
-1.131351
-1.125797
-0.012253
-0.028187
-0.015327
-0.008151
0.015850
0.043757
-0.001799
-0.076419
-0.010714
-0.087658
-0.107256
-1.131972
-1.138186
-1.139934
-1.132626
-0.002294
0.036693
0.012570
0.015732
0.025461
0.021782
0.035430
0.061786
0.055789
0.048783
0.022914
-0.221141
-1.140662
-1.117982
-1.124650
-0.966209
-1.052744
-1.056514
-0.867093
0.025748
0.099341
0.087064
0.059203
0.000216
0.019807
-0.023335
-1.138008
-1.142755
-1.112513
-1.079668
-1.122294
-1.173954
-1.192500
-1.180668
-1.194942
-0.001492
-0.020320
0.008033
-1.089531
-1.171129
-1.149290
-0.004032
0.030080
-0.021430
0.066258
0.028662
0.083915
-0.009383
-0.035046
-0.017776
-0.013616
-0.020104
-1.205167
-1.209824
-0.011617
-0.030295
0.000151
0.016620
0.016819
0.005703
-0.024924
-0.007138
0.015255
-1.109188
-1.001505
-1.203489
-1.214295
-1.192257
-0.056779
-0.024405
0.053685
0.064647
0.013677
0.029641
-0.006559
-0.039796
0.013426
0.003236
-0.002684
0.007209
-1.097042
-1.114369
-1.140309
-1.084540
-1.086212
-1.018973
-1.098547
-0.964929
-0.046190
-0.132841
-0.011998
0.083472
-1.136425
-1.109433
-1.086002
-1.074146
0.053648
0.112252
0.035051
0.029537
0.000280
-1.105576
-1.102698
-1.095407
-0.007799
-1.088709
-1.103078
-1.104849
0.049500
-1.095518
-1.153655
-1.178040
-1.137582
-0.013767
0.012875
-0.010894
-1.148481
-1.157760
-1.138201
-0.022553
-0.007887
0.001179
-0.082481
0.029774
0.016131
0.012871
-1.088924
-1.105076
-1.073945
-1.128839
-1.055101
-1.066251
-1.157177
0.023446
0.041004
-0.003012
0.013571
0.019804
0.018006
-1.196504
-1.216405
-1.213791
-0.843354
-1.107664
-1.170576
-0.036213
-0.072238
0.059015
0.001973
-0.017492
0.035204
0.034518
0.031079
-1.055494
-1.133753
-1.066213
-1.132720
-1.123730
-1.078595
-0.025909
0.011861
-0.019288
-0.021777
0.050096
0.066508
0.050204
0.079978
-0.166950
-0.156290
0.024635
0.017696
0.023186
0.021879
-1.139923
-1.142433
-1.120342
0.006090
0.003443
0.000927
0.005823
-0.034747
-0.000429
-0.015419
-1.099811
-0.988561
-1.136030
-1.140543
-1.099341
-1.112505
-1.148747
-1.057342
-1.086081
-1.003668
-0.051037
-0.050974
0.000111
-1.083138
-1.077965
-1.094495
-1.036011
-1.046280
0.007194
-0.004531
-1.182446
-1.199679
-1.196698
0.052558
0.030288
-1.127364
-1.125526
-0.011034
-0.010650
-0.003846
0.000022
-0.038637
-0.029012
-0.022347
0.002391
0.022286
0.013185
-1.099354
-1.098227
-0.053226
-0.001942
-0.005326
-1.142357
-1.133356
-1.132195
0.009521
-1.038188
-1.188192
-1.054838
0.111024
0.046085
0.028184
-1.213662
-1.209985
0.029164
0.082265
-1.185121
-1.178880
-1.190829
-1.134587
-1.084458
-0.005194
-0.028103
-0.018091
-0.009666
-0.022403
-1.187938
-1.182440
-1.210799
-1.216441
-1.174582
0.037580
0.061630
-1.149949
-1.139400
-1.134952
0.019815
0.010659
-1.058611
-1.095221
-1.067323
-1.083668
0.005648
0.012397
-0.000739
-1.220829
-1.197170
-1.201158
-1.192250
-1.198811
-1.187312
-1.144544
-1.113419
-1.158056
-1.075157
0.004683
-0.001799
-0.001452
-0.002507
-0.028792
-0.013013
-0.006258
-1.209533
-1.209284
-1.211020
-1.069275
-0.970918
-0.970765
-1.043431
-1.071475
-1.051609
-1.118858
-1.207752
-1.210530
-1.222915
0.094285
0.127614
-1.149358
0.030435
-0.007440
-1.194681
-0.175360
-1.053784
0.471156
-1.217580
-1.195180
-0.012221
-1.226388
-1.222528
0.037939
-0.004096
-0.010506
-0.048855
-0.046904
-0.006293
-0.001503
-0.019647
0.018959
0.103753
0.043036
0.046787
0.071768
0.094484
-1.166631
-1.168533
-1.167370
-1.165038
0.020308
0.012473
0.025262
-0.040981
-0.003819
-1.077300
-1.077424
0.035081
0.005936
-1.218304
-1.210186
-1.207938
-1.202700
-0.004812
-0.063652
-0.086546
-0.079727
-0.022363
0.131208
0.021490
0.109803
0.171648
-1.109461
-1.109087
-1.117616
0.026765
-1.119672
-1.110121
-1.134465
-0.834644
-0.662200
-0.033523
-0.006908
-0.025508
-0.030520
-1.144265
-1.091601
-1.115168
-1.098042
-1.106142
-1.094708
-0.003519
-0.001134
0.014014
0.017560
0.029882
-0.015888
-1.057474
-1.096206
-1.110246
-1.127205
-1.072990
-1.224116
-1.037145
0.004850
0.001441
-0.007471
-0.030950
-0.026236
-0.761592
-0.890813
-1.127814
-1.111585
-1.078044
-0.860286
-0.748927
-1.148166
-1.152814
-1.137640
-1.109483
-0.030889
-0.057433
-0.004594
-0.000365
-0.022513
-0.030593
-0.026926
-0.010735
-1.191467
-1.197012
-1.210435
-0.018906
-0.019986
-1.144847
-1.191867
-1.206071
-1.065688
-0.021701
-0.021621
-0.026588
-1.099011
-0.005502
-0.010284
-1.156619
-1.147247
0.010748
-0.002762
0.008556
0.025449
0.005307
0.010817
-0.001216
-0.004304
-1.180225
-1.207872
-1.202997
-1.158537
-1.150396
-1.167421
-1.144812
-0.015125
-0.020074
-0.024663
-0.022238
0.016578
0.025103
0.100041
0.010755
0.032177
-0.035728
0.004546
-0.499237
-1.091707
-1.110335
-1.098433
-1.116225
-1.122140
-1.212230
-1.207249
-1.210137
-1.123693
-1.136146
-1.164430
-1.134520
0.053416
0.018721
-0.050931
-0.031529
-1.203253
-0.632970
-0.776243
-0.577853
-1.209178
-1.187776
-1.205122
-0.819033
-0.793948
-1.086127
-0.502513
-0.040085
-1.115062
-0.022192
0.106438
-0.016708
0.143918
0.108527
-0.025832
-0.014665
-0.008461
0.022123
-1.075842
-1.081054
-0.016922
-1.118073
-1.153231
-0.013477
-0.003285
-1.110422
-1.196717
-0.019113
-0.049483
-0.052245
-0.031978
-1.078620
-1.081579
-1.062322
-0.021007
0.000063
-1.225829
-0.042423
0.015967
-0.079652
-1.201164
-1.198237
-1.099192
0.035754
0.004047
-0.010446
-1.064717
0.040170
0.041266
-0.043662
-1.145846
-1.116788
-1.130575
-1.045124
-0.057372
-0.000074
-0.003022
-1.112708
-1.144469
-1.107884
-1.100226
-1.068358
-1.125032
-0.001559
-0.011629
0.019928
0.005750
0.019688
-0.085728
0.005882
-0.301107
-0.449937
-1.050613
-1.118138
-1.148244
-1.084669
-0.496566
-1.099832
-1.096740
-1.087617
-0.052520
-0.008906
-1.212535
-1.192445
-1.204178
-0.852248
-0.867176
-0.756635
-0.892296
-0.020681
-0.018467
-1.114735
-1.086018
-1.076660
0.107617
0.023168
0.089960
-0.155941
-1.206098
-1.080668
-0.016739
0.010731
-0.007304
-1.200603
-0.012757
-0.007224
0.017035
0.000441
-1.224556
0.007167
0.016952
0.000806
0.019878
0.009240
-1.065128
-1.101493
-1.117172
-1.088324
-0.005142
-0.008032
0.000806
-0.006712
0.085746
0.096006
0.088006
0.088288
-1.207378
-1.221350
-1.196099
-1.175963
-1.125516
0.000715
-0.016750
0.011754
0.009201
0.019764
-0.018187
0.022005
-1.116878
-0.814635
0.041197
0.032370
0.064942
-0.977591
-0.851782
-1.179900
-1.147389
-1.156634
-1.106579
0.067064
0.070066
0.085397
0.060033
-0.236002
-1.077801
-1.090692
-1.179941
0.011289
0.009798
-1.184524
0.033704
0.041691
-1.141316
-1.131845
-1.139186
-1.200735
-1.205875
-0.026599
-1.181119
-1.174832
-1.158059
-1.180968
0.081443
0.074552
0.111205
0.126030
-0.865727
-1.119319
-0.928046
-0.854616
-0.927836
-0.011216
0.017013
0.027308
0.064935
0.057931
0.076239
-0.018063
-0.025049
-0.030017
-1.226186
0.040574
-1.182112
-1.210478
-1.193980
-1.136381
-1.146386
-1.116889
-1.011745
-1.150529
0.008908
-0.022629
-1.122848
0.028628
-0.029278
-0.011564
-0.021138
-1.143124
-1.129347
-1.129455
-0.022531
-0.016072
0.012147
0.008908
0.027557
-1.082816
-0.026609
-0.007503
-0.007297
-1.090134
-1.079373
-1.091057
0.073847
0.083955
-0.021458
-0.009488
-0.018305
-1.200991
-1.197968
-1.201507
-0.589344
-1.155736
-1.162270
-1.169651
-1.192714
-1.206658
-1.181596
-0.200458
-0.573655
-0.658077
-0.837337
-0.766942
-0.829648
-0.042838
-0.021977
-0.270987
-1.134090
-1.094046
0.026679
-0.018068
0.127027
0.116281
0.093623
0.124986
-1.114120
-1.109681
-0.011690
-0.000870
-0.013106
0.027069
0.007201
-0.013743
-1.203166
-0.002263
-0.015709
-0.034467
-0.002702
-1.180151
-1.166525
-1.044519
-1.082448
-1.166614
-1.200253
-1.217614
-1.221988
-0.000193
0.003159
0.025890
-0.951648
-0.938764
-0.900348
-0.935421
-1.136260
0.165083
-0.016964
-1.105331
-1.060627
-0.385058
-1.105527
0.074383
0.130698
-1.116193
-1.153788
-0.307194
-0.607801
-0.010022
-0.026042
-0.014851
-1.128018
-1.121584
-1.133654
0.029182
0.113113
0.045381
-1.198753
-0.945525
-0.981106
-1.034063
-1.085800
-1.165470
-1.136888
-1.028843
-1.114425
-0.005734
-1.117289
-1.202616
-1.219428
-1.215086
0.011549
0.025555
0.017665
-0.023923
-0.002468
-1.115017
-1.074713
-1.046806
-0.007901
-0.013757
-0.019639
-0.008579
-0.012481
-1.091527
-1.088798
-0.729886
-0.698520
-1.010675
-0.822211
0.080334
0.113025
0.085202
-0.001138
-1.101129
-1.103455
-0.130952
-0.072032
-0.051134
0.010166
-0.001630
-0.009182
-0.971473
-0.992856
-0.025735
-0.012412
-1.098548
-1.044832
-0.009707
-0.016508
0.005663
-0.017585
-1.114508
-1.109182
-0.011447
-1.211254
-1.213584
-1.135124
0.006049
0.005787
-1.146824
-1.150698
-1.154080
-0.946863
-0.917039
-1.212322
-1.209850
0.002617
0.005243
-0.011796
-1.185309
-1.192977
-1.217472
-0.022688
-0.081325
0.020281
0.070648
-1.138013
-0.875907
-0.829566
-0.867790
0.063905
0.058924
0.073609
-1.213782
0.057219
-1.172920
0.012119
-0.016747
0.060380
-0.052658
0.053436
-1.201297
-1.211827
-1.203093
0.000855
0.007301
0.018714
0.108291
0.084176
0.079656
-0.146801
-0.054161
0.088821
0.104920
0.110866
0.007479
-0.157819
-0.081312
-0.156661
-0.023622
-0.014320
0.052240
0.019726
-0.035626
-1.127692
-0.013841
-0.011611
-0.009666
-0.020834
-0.019405
-1.057287
0.036294
-0.999234
-0.980100
-1.016757
-0.888805
-0.019153
-0.991475
-0.985916
-0.998816
-0.929068
-1.118060
0.024634
-1.074755
-1.106548
-1.133857
-1.104996
-0.010114
-1.092617
-1.105310
-1.097547
-1.104115
-1.111729
0.000569
-1.184074
-1.187187
-1.204366
0.001552
-1.206945
-1.214814
-0.004128
0.004367
-0.001847
0.018731
-1.088207
0.177454
0.063313
-0.036855
-1.208565
-1.205613
-1.204016
0.016180
0.007824
0.003849
-1.125959
-1.090374
-0.856935
-1.138269
-1.140872
-1.150354
-1.162736
-1.135607
-1.114256
-1.116937
-1.088843
-0.776204
-1.126890
0.018646
-1.117814
-1.024609
0.039584
0.045759
0.018512
-1.143712
-1.136962
-0.022058
-0.021255
-0.037161
-0.035282
-0.027376
0.043283
-1.105907
-1.208114
-1.200616
0.023326
-0.011986
-0.004552
-1.215443
-1.209982
-1.206989
0.024349
0.025237
0.021864
-1.109312
-1.109253
-1.128809
-1.119938
-1.093039
-1.111145
-0.009100
-0.007518
0.034703
0.005165
-1.093049
-1.102480
-1.093785
-1.108372
-1.102494
-1.079957
-1.126474
-0.906684
-1.094015
-1.100662
-1.097820
-0.036406
-0.032848
-0.010183
-0.014133
-1.112952
-1.157029
-1.176721
-1.092558
-1.110129
0.097182
-0.058695
-0.045047
-0.016510
-0.028417
-0.103900
-0.999705
-0.003433
-1.117008
-1.135279
-1.129887
-1.117901
-1.167276
-1.194643
-1.177662
-1.167223
-0.077529
-0.011899
-0.075847
-1.209506
-0.036525
-0.035320
-0.004714
-0.119084
-1.114504
-1.069510
-1.113899
0.096593
0.107577
0.096240
-1.098275
-1.111304
-0.023718
-1.198150
-0.010489
-0.010187
-0.001873
0.014982
-0.051257
0.015718
-0.009062
-0.031951
-0.033279
-1.099017
-1.099458
0.031002
0.042310
0.098031
-1.004841
-1.151952
-1.106039
0.112154
-1.076812
-1.093379
-1.096143
-0.967532
-1.059988
-1.010807
-1.092665
-1.077423
-1.130609
-1.124690
-1.124118
-0.044887
-0.291450
-0.014236
-0.016760
-1.093185
-1.115725
-1.102461
-1.148479
-1.115912
-1.159777
-0.977253
-1.162918
-1.142861
-1.174338
-1.165787
-1.101073
-1.105723
-1.098421
0.006728
0.015924
-0.015437
-1.210139
-1.205425
-1.204224
-0.383884
-0.562895
-0.027783
-0.011185
-1.106890
-1.146704
-1.149587
-0.002076
-0.003956
-0.011723
-0.037509
-0.014214
-1.103410
-1.115057
-1.161807
0.014748
0.042635
-1.119225
0.047187
0.059103
0.040332
0.041281
-1.161457
-1.211701
-1.141024
-1.085204
-1.145045
-1.119741
-0.005014
0.002290
-0.886982
-0.861426
-1.157962
-1.035385
-0.302279
-1.086107
-1.130010
-1.120949
-0.012792
-0.019709
-0.012772
-0.004064
-1.154865
-0.024364
-0.009902
-0.012366
-1.111095
-1.113103
-0.029291
0.115282
-0.037878
0.009777
-0.008396
0.036877
-0.016875
-0.024983
0.005641
-0.012556
0.052413
-0.004127
-0.022688
-1.127843
-1.134409
-1.114318
-1.128033
-0.066813
-0.116371
-0.111104
0.071348
-0.038477
-0.075261
-0.086455
-0.306600
0.058422
0.037447
0.029073
-1.133337
-1.089551
-0.041151
0.047957
-0.099862
-0.073366
-0.064637
-0.104148
-0.007910
-0.020292
0.041081
0.033953
0.036915
-0.030301
-0.014245
0.038769
-0.048762
0.105964
0.048982
-0.040467
0.077213
0.098676
0.130579
-0.067164
-1.108267
-1.114411
-1.090722
-1.049029
-1.130805
0.039656
0.016210
0.039763
-0.003550
0.037868
0.072883
0.124027
0.074087
-1.114305
-1.121323
-1.100287
-1.114606
-1.121732
-1.090853
-1.116085
-1.090531
-0.001897
-0.019146
-1.090636
-0.007150
0.093252
0.076701
0.090325
-0.125995
-0.229383
-0.282522
-0.007317
-0.023925
-1.204458
-1.204885
-0.024889
-0.071978
0.009698
-0.022502
-1.211243
-1.204828
-1.202075
-1.215012
-1.117819
-1.133345
-1.136839
-1.122775
-1.113928
-1.086104
-0.020155
-0.007772
-1.117799
-1.105144
-1.096319
-1.108814
0.063331
0.083788
0.079727
0.077912
0.052550
-1.091512
-1.096072
-1.097373
0.108306
0.077978
0.089306
-0.049176
-0.022673
-0.017303
-0.169533
-0.190102
-0.232237
0.101230
0.006524
-0.205070
-0.291024
-1.111569
-1.112176
-0.027978
-0.002155
0.124301
-0.009499
-1.096645
-1.107345
-1.113486
0.046038
-1.204607
-1.094681
-0.005944
0.001477
0.002798
-0.001033
-0.014000
-0.000055
-1.107238
-1.153067
-0.024727
-0.035283
-0.001205
-1.209949
-0.033675
-0.014777
-0.036695
0.005693
-0.001616
-1.113280
-1.118329
0.003902
-0.021637
0.002748
-0.014176
-1.197312
-1.138302
-1.183472
-1.180895
-0.034343
-0.017336
-0.011772
-0.034402
0.005238
-0.026233
-1.102879
-1.118398
-0.023514
-0.026137
-0.027834
-0.008971
-0.046972
-1.169821
-1.172748
-1.150400
-1.151897
-1.129159
-1.127184
-1.161810
-0.042943
-1.128038
-1.122640
-1.119622
-1.105885
0.035358
-0.007572
0.017664
0.019060
0.005002
0.014575
0.002654
-0.017026
-0.013111
-0.010668
-0.027756
-1.062593
-0.482089
-0.639494
-0.347357
-0.191157
0.013949
-0.160868
0.011955
-1.117410
-1.112873
-1.135800
-1.114557
-0.008462
-1.176719
-1.176462
-0.013793
-0.065089
-0.000380
-0.046044
-0.018561
-1.110167
-1.114654
-0.019376
-1.440568
-0.010393
0.000646
-0.017626
0.064594
0.053055
0.053748
-1.198613
-1.094884
-1.064280
-1.170215
-1.120404
-1.116539
-0.001099
-1.106659
-1.119355
-1.118366
-1.109304
-0.023981
-0.085971
-0.007438
0.027152
0.044419
0.065509
0.029964
0.040509
-0.010940
-0.001290
-0.001857
-0.014972
-0.062065
-0.051819
-1.114342
-0.024373
-0.042412
-0.017714
-0.008275
-0.004358
0.002873
-0.022507
-1.104802
-0.016303
-0.007898
-1.145835
0.032215
0.032196
0.045115
-1.113031
-1.117736
-1.213695
-1.211171
-1.176206
-1.180045
-1.133375
-1.145519
-1.138820
-1.136457
0.010303
0.048552
-0.022314
-1.104579
-1.120840
-0.226634
-0.036989
-0.010122
0.025402