# vtk DataFile Version 2.0
Test
ASCII
DATASET POLYDATA
POINTS 7607 float
0.000000 0.000000 0.000000
1.000000 0.000000 0.000000
1.000000 0.800000 0.000000
1.000000 1.000000 0.000000
0.000000 1.000000 0.000000
0.000000 0.200000 0.000000
0.300000 0.330000 0.000000
0.700000 0.680000 0.000000
0.012987 0.000000 0.000000
0.025974 0.000000 0.000000
0.038961 0.000000 0.000000
0.051948 0.000000 0.000000
0.064935 0.000000 0.000000
0.077922 0.000000 0.000000
0.090909 0.000000 0.000000
0.103896 0.000000 0.000000
0.116883 0.000000 0.000000
0.129870 0.000000 0.000000
0.142857 0.000000 0.000000
0.155844 0.000000 0.000000
0.168831 0.000000 0.000000
0.181818 0.000000 0.000000
0.194805 0.000000 0.000000
0.207792 0.000000 0.000000
0.220779 0.000000 0.000000
0.233766 0.000000 0.000000
0.246753 0.000000 0.000000
0.259740 0.000000 0.000000
0.272727 0.000000 0.000000
0.285714 0.000000 0.000000
0.298701 0.000000 0.000000
0.311688 0.000000 0.000000
0.324675 0.000000 0.000000
0.337662 0.000000 0.000000
0.350649 0.000000 0.000000
0.363636 0.000000 0.000000
0.376623 0.000000 0.000000
0.389610 0.000000 0.000000
0.402597 0.000000 0.000000
0.415584 0.000000 0.000000
0.428571 0.000000 0.000000
0.441558 0.000000 0.000000
0.454545 0.000000 0.000000
0.467532 0.000000 0.000000
0.480519 0.000000 0.000000
0.493506 0.000000 0.000000
0.506494 0.000000 0.000000
0.519481 0.000000 0.000000
0.532468 0.000000 0.000000
0.545455 0.000000 0.000000
0.558442 0.000000 0.000000
0.571429 0.000000 0.000000
0.584416 0.000000 0.000000
0.597403 0.000000 0.000000
0.610390 0.000000 0.000000
0.623377 0.000000 0.000000
0.636364 0.000000 0.000000
0.649351 0.000000 0.000000
0.662338 0.000000 0.000000
0.675325 0.000000 0.000000
0.688312 0.000000 0.000000
0.701299 0.000000 0.000000
0.714286 0.000000 0.000000
0.727273 0.000000 0.000000
0.740260 0.000000 0.000000
0.753247 0.000000 0.000000
0.766234 0.000000 0.000000
0.779221 0.000000 0.000000
0.792208 0.000000 0.000000
0.805195 0.000000 0.000000
0.818182 0.000000 0.000000
0.831169 0.000000 0.000000
0.844156 0.000000 0.000000
0.857143 0.000000 0.000000
0.870130 0.000000 0.000000
0.883117 0.000000 0.000000
0.896104 0.000000 0.000000
0.909091 0.000000 0.000000
0.922078 0.000000 0.000000
0.935065 0.000000 0.000000
0.948052 0.000000 0.000000
0.961039 0.000000 0.000000
0.974026 0.000000 0.000000
0.987013 0.000000 0.000000
1.000000 0.012903 0.000000
1.000000 0.025806 0.000000
1.000000 0.038710 0.000000
1.000000 0.051613 0.000000
1.000000 0.064516 0.000000
1.000000 0.077419 0.000000
1.000000 0.090323 0.000000
1.000000 0.103226 0.000000
1.000000 0.116129 0.000000
1.000000 0.129032 0.000000
1.000000 0.141935 0.000000
1.000000 0.154839 0.000000
1.000000 0.167742 0.000000
1.000000 0.180645 0.000000
1.000000 0.193548 0.000000
1.000000 0.206452 0.000000
1.000000 0.219355 0.000000
1.000000 0.232258 0.000000
1.000000 0.245161 0.000000
1.000000 0.258065 0.000000
1.000000 0.270968 0.000000
1.000000 0.283871 0.000000
1.000000 0.296774 0.000000
1.000000 0.309677 0.000000
1.000000 0.322581 0.000000
1.000000 0.335484 0.000000
1.000000 0.348387 0.000000
1.000000 0.361290 0.000000
1.000000 0.374194 0.000000
1.000000 0.387097 0.000000
1.000000 0.400000 0.000000
1.000000 0.412903 0.000000
1.000000 0.425806 0.000000
1.000000 0.438710 0.000000
1.000000 0.451613 0.000000
1.000000 0.464516 0.000000
1.000000 0.477419 0.000000
1.000000 0.490323 0.000000
1.000000 0.503226 0.000000
1.000000 0.516129 0.000000
1.000000 0.529032 0.000000
1.000000 0.541935 0.000000
1.000000 0.554839 0.000000
1.000000 0.567742 0.000000
1.000000 0.580645 0.000000
1.000000 0.593548 0.000000
1.000000 0.606452 0.000000
1.000000 0.619355 0.000000
1.000000 0.632258 0.000000
1.000000 0.645161 0.000000
1.000000 0.658065 0.000000
1.000000 0.670968 0.000000
1.000000 0.683871 0.000000
1.000000 0.696774 0.000000
1.000000 0.709677 0.000000
1.000000 0.722581 0.000000
1.000000 0.735484 0.000000
1.000000 0.748387 0.000000
1.000000 0.761290 0.000000
1.000000 0.774194 0.000000
1.000000 0.787097 0.000000
1.000000 0.812500 0.000000
1.000000 0.825000 0.000000
1.000000 0.837500 0.000000
1.000000 0.850000 0.000000
1.000000 0.862500 0.000000
1.000000 0.875000 0.000000
1.000000 0.887500 0.000000
1.000000 0.900000 0.000000
1.000000 0.912500 0.000000
1.000000 0.925000 0.000000
1.000000 0.937500 0.000000
1.000000 0.950000 0.000000
1.000000 0.962500 0.000000
1.000000 0.975000 0.000000
1.000000 0.987500 0.000000
0.987013 1.000000 0.000000
0.974026 1.000000 0.000000
0.961039 1.000000 0.000000
0.948052 1.000000 0.000000
0.935065 1.000000 0.000000
0.922078 1.000000 0.000000
0.909091 1.000000 0.000000
0.896104 1.000000 0.000000
0.883117 1.000000 0.000000
0.870130 1.000000 0.000000
0.857143 1.000000 0.000000
0.844156 1.000000 0.000000
0.831169 1.000000 0.000000
0.818182 1.000000 0.000000
0.805195 1.000000 0.000000
0.792208 1.000000 0.000000
0.779221 1.000000 0.000000
0.766234 1.000000 0.000000
0.753247 1.000000 0.000000
0.740260 1.000000 0.000000
0.727273 1.000000 0.000000
0.714286 1.000000 0.000000
0.701299 1.000000 0.000000
0.688312 1.000000 0.000000
0.675325 1.000000 0.000000
0.662338 1.000000 0.000000
0.649351 1.000000 0.000000
0.636364 1.000000 0.000000
0.623377 1.000000 0.000000
0.610390 1.000000 0.000000
0.597403 1.000000 0.000000
0.584416 1.000000 0.000000
0.571429 1.000000 0.000000
0.558442 1.000000 0.000000
0.545455 1.000000 0.000000
0.532468 1.000000 0.000000
0.519481 1.000000 0.000000
0.506494 1.000000 0.000000
0.493506 1.000000 0.000000
0.480519 1.000000 0.000000
0.467532 1.000000 0.000000
0.454545 1.000000 0.000000
0.441558 1.000000 0.000000
0.428571 1.000000 0.000000
0.415584 1.000000 0.000000
0.402597 1.000000 0.000000
0.389610 1.000000 0.000000
0.376623 1.000000 0.000000
0.363636 1.000000 0.000000
0.350649 1.000000 0.000000
0.337662 1.000000 0.000000
0.324675 1.000000 0.000000
0.311688 1.000000 0.000000
0.298701 1.000000 0.000000
0.285714 1.000000 0.000000
0.272727 1.000000 0.000000
0.259740 1.000000 0.000000
0.246753 1.000000 0.000000
0.233766 1.000000 0.000000
0.220779 1.000000 0.000000
0.207792 1.000000 0.000000
0.194805 1.000000 0.000000
0.181818 1.000000 0.000000
0.168831 1.000000 0.000000
0.155844 1.000000 0.000000
0.142857 1.000000 0.000000
0.129870 1.000000 0.000000
0.116883 1.000000 0.000000
0.103896 1.000000 0.000000
0.090909 1.000000 0.000000
0.077922 1.000000 0.000000
0.064935 1.000000 0.000000
0.051948 1.000000 0.000000
0.038961 1.000000 0.000000
0.025974 1.000000 0.000000
0.012987 1.000000 0.000000
0.000000 0.987097 0.000000
0.000000 0.974194 0.000000
0.000000 0.961290 0.000000
0.000000 0.948387 0.000000
0.000000 0.935484 0.000000
0.000000 0.922581 0.000000
0.000000 0.909677 0.000000
0.000000 0.896774 0.000000
0.000000 0.883871 0.000000
0.000000 0.870968 0.000000
0.000000 0.858065 0.000000
0.000000 0.845161 0.000000
0.000000 0.832258 0.000000
0.000000 0.819355 0.000000
0.000000 0.806452 0.000000
0.000000 0.793548 0.000000
0.000000 0.780645 0.000000
0.000000 0.767742 0.000000
0.000000 0.754839 0.000000
0.000000 0.741935 0.000000
0.000000 0.729032 0.000000
0.000000 0.716129 0.000000
0.000000 0.703226 0.000000
0.000000 0.690323 0.000000
0.000000 0.677419 0.000000
0.000000 0.664516 0.000000
0.000000 0.651613 0.000000
0.000000 0.638710 0.000000
0.000000 0.625806 0.000000
0.000000 0.612903 0.000000
0.000000 0.600000 0.000000
0.000000 0.587097 0.000000
0.000000 0.574194 0.000000
0.000000 0.561290 0.000000
0.000000 0.548387 0.000000
0.000000 0.535484 0.000000
0.000000 0.522581 0.000000
0.000000 0.509677 0.000000
0.000000 0.496774 0.000000
0.000000 0.483871 0.000000
0.000000 0.470968 0.000000
0.000000 0.458065 0.000000
0.000000 0.445161 0.000000
0.000000 0.432258 0.000000
0.000000 0.419355 0.000000
0.000000 0.406452 0.000000
0.000000 0.393548 0.000000
0.000000 0.380645 0.000000
0.000000 0.367742 0.000000
0.000000 0.354839 0.000000
0.000000 0.341935 0.000000
0.000000 0.329032 0.000000
0.000000 0.316129 0.000000
0.000000 0.303226 0.000000
0.000000 0.290323 0.000000
0.000000 0.277419 0.000000
0.000000 0.264516 0.000000
0.000000 0.251613 0.000000
0.000000 0.238710 0.000000
0.000000 0.225806 0.000000
0.000000 0.212903 0.000000
0.000000 0.187500 0.000000
0.000000 0.175000 0.000000
0.000000 0.162500 0.000000
0.000000 0.150000 0.000000
0.000000 0.137500 0.000000
0.000000 0.125000 0.000000
0.000000 0.112500 0.000000
0.000000 0.100000 0.000000
0.000000 0.087500 0.000000
0.000000 0.075000 0.000000
0.000000 0.062500 0.000000
0.000000 0.050000 0.000000
0.000000 0.037500 0.000000
0.000000 0.025000 0.000000
0.000000 0.012500 0.000000
0.309756 0.338537 0.000000
0.319512 0.347073 0.000000
0.329268 0.355610 0.000000
0.339024 0.364146 0.000000
0.348780 0.372683 0.000000
0.358537 0.381220 0.000000
0.368293 0.389756 0.000000
0.378049 0.398293 0.000000
0.387805 0.406829 0.000000
0.397561 0.415366 0.000000
0.407317 0.423902 0.000000
0.417073 0.432439 0.000000
0.426829 0.440976 0.000000
0.436585 0.449512 0.000000
0.446341 0.458049 0.000000
0.456098 0.466585 0.000000
0.465854 0.475122 0.000000
0.475610 0.483659 0.000000
0.485366 0.492195 0.000000
0.495122 0.500732 0.000000
0.504878 0.509268 0.000000
0.514634 0.517805 0.000000
0.524390 0.526341 0.000000
0.534146 0.534878 0.000000
0.543902 0.543415 0.000000
0.553659 0.551951 0.000000
0.563415 0.560488 0.000000
0.573171 0.569024 0.000000
0.582927 0.577561 0.000000
0.592683 0.586098 0.000000
0.602439 0.594634 0.000000
0.612195 0.603171 0.000000
0.621951 0.611707 0.000000
0.631707 0.620244 0.000000
0.641463 0.628780 0.000000
0.651220 0.637317 0.000000
0.660976 0.645854 0.000000
0.670732 0.654390 0.000000
0.680488 0.662927 0.000000
0.690244 0.671463 0.000000
0.011538 0.205000 0.000000
0.023077 0.210000 0.000000
0.034615 0.215000 0.000000
0.046154 0.220000 0.000000
0.057692 0.225000 0.000000
0.069231 0.230000 0.000000
0.080769 0.235000 0.000000
0.092308 0.240000 0.000000
0.103846 0.245000 0.000000
0.115385 0.250000 0.000000
0.126923 0.255000 0.000000
0.138462 0.260000 0.000000
0.150000 0.265000 0.000000
0.161538 0.270000 0.000000
0.173077 0.275000 0.000000
[...]
POINT_DATA 7607
SCALARS UX float 1
LOOKUP_TABLE default
0.006140
0.002318
-0.070559
-0.350140
-0.461954
-0.127429
-0.068476
-0.246264
-0.002024
0.000104
0.001083
0.001355
0.011281
0.000192
-0.000206
0.010378
0.000275
0.000739
-0.000290
0.000103
0.000136
-0.000065
-0.000169
0.000195
-0.000092
0.000279
0.000074
-0.001213
-0.000131
-0.000141
-0.000447
-0.008237
0.000174
-0.000168
-0.000120
-0.000378
0.000281
0.000127
0.002293
0.000067
0.000851
-0.002143
0.000022
0.004168
0.000190
0.000175
-0.002643
-0.000024
-0.000310
0.000096
0.000053
-0.003355
-0.000229
-0.001444
-0.000083
-0.000360
-0.000011
-0.000073
0.000027
-0.000788
-0.001295
0.000376
-0.000276
-0.000362
0.004553
0.000706
-0.007596
0.000300
0.002326
0.000390
-0.001027
-0.000586
-0.005911
-0.000249
0.005490
0.003090
-0.006551
-0.000010
-0.000822
0.001875
0.000225
0.000376
-0.000191
-0.012638
-0.001378
0.015396
0.009246
0.017411
0.009012
0.019211
0.010159
0.022254
0.040943
0.042852
0.032959
0.046133
0.031481
0.057670
0.033156
0.036281
0.053508
0.058000
0.052852
0.067529
0.058055
0.067301
0.075168
0.054016
0.069991
0.083169
0.066531
0.095611
0.083914
0.083565
0.090256
0.077384
0.099691
0.089792
0.110684
0.081847
0.103124
0.110391
0.091451
0.098731
0.125030
0.098655
0.114529
0.115954
0.099536
0.113115
0.120472
0.095298
0.126232
0.081380
0.090779
0.098429
0.092927
0.086547
0.104331
0.059749
0.054491
0.039973
0.046201
0.089739
-0.019238
-0.127918
-0.116844
-0.204387
-0.234774
-0.338010
-0.244975
-0.307582
-0.300642
-0.322197
-0.315529
-0.334943
-0.332745
-0.307039
-0.353433
-0.337651
-0.328047
-0.346459
-0.341334
-0.363190
-0.359794
-0.357173
-0.352783
-0.366406
-0.362128
-0.362430
-0.362024
-0.364263
-0.361996
-0.359033
-0.367092
-0.369853
-0.360062
-0.375204
-0.376611
-0.371396
-0.370758
-0.372032
-0.370593
-0.373805
-0.376823
-0.374646
-0.381025
-0.376753
-0.379916
-0.383243
-0.378120
-0.389151
-0.388743
-0.390069
-0.394800
-0.391980
-0.390243
-0.395901
-0.393927
-0.395629
-0.398748
-0.397064
-0.411612
-0.394721
-0.401155
-0.415242
-0.401942
-0.413674
-0.406146
-0.419587
-0.423059
-0.427184
-0.431664
-0.427606
-0.428468
-0.440081
-0.428397
-0.442889
-0.446337
-0.430737
-0.454225
-0.444713
-0.447173
-0.442508
-0.454039
-0.459957
-0.453196
-0.461934
-0.463813
-0.459411
-0.461489
-0.463983
-0.468738
-0.468877
-0.468346
-0.471153
-0.473686
-0.473140
-0.473347
-0.464174
-0.466046
-0.456320
-0.465246
-0.463711
-0.470695
-0.466632
-0.464280
-0.487790
-0.470756
-0.473406
-0.467997
-0.470884
-0.479211
-0.473648
-0.470636
-0.462369
-0.473269
-0.472178
-0.468032
-0.465346
-0.473178
-0.460113
-0.463514
-0.470652
-0.464991
-0.462323
-0.439888
-0.429037
-0.442958
-0.453401
-0.455202
-0.455113
-0.444999
-0.454307
-0.449530
-0.459968
-0.441839
-0.446882
-0.437211
-0.437885
-0.439654
-0.431967
-0.435693
-0.438522
-0.420635
-0.425045
-0.406582
-0.420504
-0.389816
-0.400747
-0.362783
-0.364888
-0.311826
-0.360234
-0.318911
-0.218252
-0.297235
-0.200264
-0.083376
-0.145848
-0.099028
-0.000619
-0.048297
-0.039438
-0.027936
-0.022352
-0.021659
-0.015048
-0.022226
-0.013901
-0.007296
-0.007484
0.019637
-0.080807
-0.191910
-0.135226
-0.073870
-0.233143
-0.232928
-0.190707
-0.145633
-0.138087
-0.155118
-0.283460
-0.119353
-0.193917
-0.199830
-0.175632
-0.193324
-0.145311
-0.183430
-0.105605
-0.100519
-0.121945
-0.261385
-0.144772
-0.083350
-0.221786
-0.207776
-0.167600
-0.213207
-0.217268
-0.066504
-0.172731
-0.208999
-0.058310
-0.119940
0.007390
-0.230029
-0.197048
-0.318721
-0.284854
-0.193089
-0.270382
-0.129826
-0.250703
-0.170057
-0.219984
-0.336352
-0.221563
-0.301821
-0.061620
-0.215145
-0.162024
-0.265131
-0.274652
-0.106009
-0.396601
-0.270361
-0.110040
-0.114397
-0.376426
-0.056381
-0.181008
-0.249354
-0.150572
-0.220032
-0.151052
0.029133
-0.044263
0.111092
-0.131084
0.150122
-0.059033
-0.176797
-0.057055
-0.153940
-0.038911
-0.104536
-0.094250
-0.055702
-0.146786
-0.066521
-0.059524
-0.108639
-0.020630
-0.137349
-0.123895
-0.047767
-0.043349
-0.150254
-0.365921
-0.379606
-0.384124
-0.367211
0.036927
0.032199
0.027027
-0.309446
-0.457693
-0.297522
-0.329502
-0.278145
-0.194354
-0.015379
0.010852
0.012566
-0.385044
-0.451017
-0.454186
-0.478273
0.039205
0.015194
0.024028
0.011858
-0.078778
-0.008874
-0.063982
-0.067731
-0.002261
-0.004858
-0.285599
-0.309671
-0.431903
-0.380760
-0.108397
-0.060254
0.015654
0.002622
-0.004738
-0.005190
-0.454784
-0.451188
-0.463470
-0.469017
-0.207131
-0.338137
-0.116420
-0.174496
0.079926
0.046555
0.071936
-0.363552
-0.378580
0.049200
0.042534
0.021515
0.062354
-0.387077
-0.372779
-0.364768
-0.023876
-0.343604
-0.368657
-0.333083
-0.313520
-0.319296
-0.034340
-0.055761
-0.033994
-0.365659
-0.455023
-0.457174
-0.022230
0.021325
0.021174
-0.007271
-0.016717
-0.017329
-0.410574
-0.413230
-0.412819
-0.023341
-0.381935
-0.375481
-0.357900
0.033276
0.038813
0.004857
0.033998
0.002051
-0.014076
-0.021119
-0.069078
-0.033348
-0.022573
-0.025530
0.035383
0.081918
0.105078
-0.454783
-0.102570
-0.203768
-0.309471
-0.269017
-0.344861
-0.314613
-0.406324
-0.383681
-0.422760
-0.357296
-0.020072
0.011134
0.005972
0.007538
0.059258
0.059508
-0.373271
-0.372549
-0.360400
0.022496
0.034616
0.013105
-0.339109
-0.329339
-0.359796
-0.341649
0.039263
0.022942
0.055875
0.032811
-0.006124
-0.374516
-0.029668
-0.003775
0.011581
-0.016425
-0.385258
-0.333732
-0.362888
-0.430089
-0.382157
-0.418796
-0.405414
-0.389740
-0.354503
-0.364756
-0.367457
-0.357078
-0.235379
-0.011225
-0.007688
-0.005586
-0.001239
-0.447505
-0.421290
-0.446340
-0.013189
-0.012403
-0.004525
-0.479138
-0.454869
-0.457228
-0.018089
-0.331538
-0.353688
-0.364930
-0.415151
-0.411686
-0.389664
-0.456113
-0.448222
-0.459594
-0.405173
0.078647
0.068368
0.071464
0.072652
0.065420
0.034852
0.056344
0.032740
0.043622
0.028895
-0.402300
-0.389695
-0.368404
-0.387464
-0.382990
-0.381618
-0.010496
-0.025249
-0.015631
-0.009151
0.013597
0.040420
0.000993
-0.051618
-0.026389
-0.030967
-0.073001
-0.405102
-0.431044
-0.424083
-0.394150
0.021965
0.054944
0.031035
0.027194
0.036682
0.032445
0.047010
0.083750
0.082401
0.065322
-0.048064
0.055939
-0.424681
-0.414903
-0.417895
-0.299562
-0.329642
-0.342418
-0.278416
0.046595
0.080166
0.089433
0.081317
0.023606
0.039454
0.005914
-0.388352
-0.397257
-0.440954
-0.398473
-0.386922
-0.429431
-0.448279
-0.434750
-0.450119
-0.001156
-0.017841
0.008174
-0.375806
-0.425043
-0.401136
-0.005126
0.028341
-0.020939
0.060747
0.045683
0.086255
-0.009027
-0.029696
-0.020649
-0.021605
-0.025004
-0.459234
-0.465754
-0.012589
-0.024010
-0.006224
0.014418
0.014356
0.001096
-0.022680
-0.005968
0.013797
-0.321161
-0.311710
-0.458758
-0.469671
-0.447282
-0.040937
-0.020730
0.077800
0.069338
0.012505
0.048846
0.005747
0.027714
0.014688
-0.001767
-0.004341
0.009421
-0.418810
-0.410697
-0.430255
-0.401032
-0.419271
-0.377455
-0.440624
-0.359546
-0.001276
-0.029171
0.017775
0.034424
-0.433136
-0.402331
-0.409759
-0.397113
0.047244
0.108447
0.069593
0.050748
0.030536
-0.354530
-0.351850
-0.351338
0.019208
-0.333136
-0.350080
-0.366496
0.061702
-0.359420
-0.427774
-0.461026
-0.422220
-0.013686
0.012455
-0.014116
-0.416539
-0.424030
-0.409160
-0.019105
-0.010986
0.004912
0.011543
0.035052
0.010400
0.030683
-0.348925
-0.353623
-0.323108
-0.372850
-0.387203
-0.418232
-0.426498
0.022615
0.037757
-0.002400
0.016469
0.018746
0.017215
-0.451632
-0.470763
-0.467839
-0.358505
-0.325002
-0.433941
-0.021861
-0.036079
0.071218
-0.000889
-0.016767
0.032780
0.032369
0.030931
-0.378639
-0.439079
-0.395723
-0.435394
-0.453435
-0.385728
-0.024092
0.014567
-0.013650
-0.018183
0.081400
0.054068
0.046004
0.083280
-0.041886
-0.045933
0.035060
0.027352
0.031546
0.031599
-0.405158
-0.406157
-0.373949
0.007585
0.004856
0.004136
0.005207
-0.030740
0.000262
-0.013056
-0.432057
-0.335462
-0.381197
-0.402288
-0.404615
-0.426442
-0.465357
-0.335249
-0.338747
-0.308669
-0.041494
-0.036532
0.001053
-0.341959
-0.340449
-0.340920
-0.307402
-0.323913
0.006424
-0.005272
-0.440857
-0.454802
-0.453796
0.080462
0.049196
-0.374113
-0.398497
-0.019669
0.005108
-0.015449
0.003529
-0.027593
-0.024760
-0.018675
0.009303
0.021761
0.021316
-0.349418
-0.356888
-0.049681
0.000463
-0.004964
-0.391908
-0.385744
-0.385313
0.016106
-0.399458
-0.442220
-0.399780
0.121706
0.043970
0.025192
-0.468283
-0.462767
0.058974
0.063891
-0.442113
-0.433891
-0.445897
-0.381428
-0.328310
-0.006117
-0.032661
-0.012103
-0.009404
-0.024753
-0.442286
-0.436828
-0.470028
-0.473474
-0.428418
0.056964
0.078201
-0.438160
-0.431631
-0.427105
0.017893
0.010227
-0.325944
-0.344032
-0.334096
-0.334366
0.005688
0.011783
0.000238
-0.473509
-0.454361
-0.458640
-0.446843
-0.451211
-0.439946
-0.434110
-0.403966
-0.446823
-0.389305
0.003163
-0.001703
-0.002515
-0.002471
-0.028586
-0.011899
-0.008446
-0.469089
-0.469283
-0.467491
-0.328018
-0.301386
-0.292105
-0.311140
-0.405928
-0.400734
-0.415187
-0.464965
-0.466579
-0.479172
0.086693
0.126026
-0.437292
0.029105
-0.008871
-0.451505
-0.115049
-0.376822
0.101346
-0.471583
-0.449533
-0.018758
-0.482501
-0.479569
0.036962
-0.003634
-0.007616
-0.032544
-0.042019
-0.005486
-0.001119
-0.016648
0.046941
0.117371
0.069441
0.062715
0.094500
0.103422
-0.421159
-0.425499
-0.422503
-0.420245
0.021630
0.013252
0.026966
-0.038600
-0.003681
-0.312966
-0.327919
0.059746
0.031444
-0.477290
-0.468400
-0.465588
-0.460406
-0.014040
-0.071975
-0.061835
-0.042913
0.022194
0.073955
0.012385
0.095161
0.074458
-0.353765
-0.355682
-0.353966
0.027052
-0.411423
-0.410861
-0.432011
-0.317781
-0.293161
-0.037741
-0.018408
-0.013924
-0.018608
-0.375466
-0.342405
-0.354116
-0.355989
-0.362806
-0.352200
-0.002145
0.000167
0.013719
0.036353
0.048996
0.000971
-0.315954
-0.335775
-0.355799
-0.365101
-0.334950
-0.480398
-0.310393
0.020438
0.001736
-0.009848
-0.025504
-0.024016
-0.286629
-0.317362
-0.437447
-0.408826
-0.411722
-0.383565
-0.302652
-0.415766
-0.422099
-0.410777
-0.427320
0.078848
-0.001530
0.014346
0.021858
0.009692
-0.027692
-0.022965
0.012466
-0.457156
-0.448516
-0.462532
-0.016580
-0.019820
-0.415033
-0.449276
-0.459873
-0.389777
-0.016705
-0.025394
-0.029648
-0.419798
-0.007646
-0.012417
-0.430977
-0.437523
0.023611
0.015724
0.019246
0.027669
0.004504
0.009395
-0.001396
-0.003311
-0.444526
-0.473762
-0.471973
-0.418423
-0.411702
-0.432751
-0.411908
-0.013155
-0.018291
-0.030772
-0.019393
-0.002506
0.041123
0.049349
0.010415
-0.030595
0.006468
0.001953
-0.179156
-0.343149
-0.345909
-0.357631
-0.365794
-0.354836
-0.470275
-0.466159
-0.467578
-0.380724
-0.388494
-0.420159
-0.391158
0.079034
0.032590
-0.030249
-0.023385
-0.461609
-0.308972
-0.253019
-0.249122
-0.467303
-0.448248
-0.464133
-0.244969
-0.300176
-0.337949
-0.255341
-0.035308
-0.364041
-0.025689
0.086940
-0.018285
0.081477
0.076520
-0.022354
-0.012244
-0.007557
0.021561
-0.329396
-0.331190
-0.014892
-0.407640
-0.435495
-0.010890
-0.002015
-0.359045
-0.450406
-0.029115
-0.042328
-0.035927
-0.016768
-0.336070
-0.333626
-0.317825
-0.021859
-0.001081
-0.480086
-0.025598
0.016270
-0.064755
-0.456867
-0.452342
-0.419924
0.035117
0.002733
-0.011251
-0.402971
0.037561
0.041570
-0.030053
-0.459124
-0.427076
-0.445166
-0.296945
-0.048443
-0.005858
0.002179
-0.367067
-0.396745
-0.364005
-0.353867
-0.340701
-0.375026
-0.004454
-0.010186
0.019140
0.003814
-0.059721
-0.066876
0.009571
-0.161960
-0.130961
-0.331425
-0.346691
-0.370919
-0.337502
-0.163934
-0.354739
-0.352518
-0.338960
-0.036671
-0.021353
-0.468480
-0.447008
-0.460960
-0.366681
-0.305556
-0.304786
-0.334009
-0.016530
-0.010051
-0.358818
-0.343513
-0.340962
0.083325
-0.017579
0.096091
-0.039882
-0.469283
-0.324146
-0.014621
0.009615
-0.008366
-0.456368
0.022898
0.017445
0.024959
0.000105
-0.479336
0.005112
0.013754
0.000624
0.018854
0.008321
-0.314312
-0.357707
-0.362704
-0.347168
-0.004409
-0.006325
-0.000613
-0.004485
0.102294
0.111834
0.101676
0.097766
-0.462499
-0.477950
-0.450283
-0.418482
-0.392147
0.009648
0.002263
0.022161
0.006252
0.018554
-0.016102
0.031068
-0.367657
-0.341189
0.054612
0.043964
0.076457
-0.386326
-0.408814
-0.450840
-0.423786
-0.434691
-0.361173
0.064580
0.069746
0.059348
0.045863
-0.143431
-0.361986
-0.373702
-0.427028
0.011677
0.010131
-0.431509
0.028586
0.039204
-0.396373
-0.384977
-0.394164
-0.456883
-0.460929
-0.021003
-0.432460
-0.433096
-0.414456
-0.436288
0.095827
0.086140
0.111591
0.128405
-0.363092
-0.374667
-0.364202
-0.319424
-0.363985
0.006718
0.027977
0.032272
0.074440
0.068271
0.082891
-0.018041
-0.025199
-0.020467
-0.481175
0.038472
-0.447906
-0.465315
-0.449079
-0.431419
-0.426495
-0.401274
-0.359221
-0.421834
0.007894
-0.022799
-0.408211
0.010833
-0.025275
-0.012700
-0.021121
-0.392423
-0.381900
-0.383142
-0.030469
-0.020975
0.012740
0.008909
0.025122
-0.310251
-0.021920
-0.011429
-0.010072
-0.338349
-0.341022
-0.342594
0.039005
0.051777
-0.039270
-0.009026
-0.016071
-0.456868
-0.452222
-0.458054
-0.175319
-0.447067
-0.456832
-0.460778
-0.447036
-0.461152
-0.436663
-0.200796
-0.250457
-0.268087
-0.324947
-0.308622
-0.314072
-0.039746
-0.013723
-0.118754
-0.396152
-0.345545
0.024579
-0.016688
0.107736
0.082970
0.070462
0.076899
-0.365835
-0.361488
-0.011632
0.001451
-0.012112
0.029579
0.002478
-0.012164
-0.458477
0.001282
-0.025166
-0.036324
-0.001591
-0.435503
-0.423297
-0.373133
-0.352764
-0.470423
-0.453768
-0.472725
-0.478138
-0.001811
0.002571
0.025061
-0.384392
-0.397955
-0.353025
-0.385066
-0.356770
0.104893
-0.044513
-0.366827
-0.339511
-0.156404
-0.368226
0.060897
0.113248
-0.364818
-0.409158
-0.139934
-0.243238
-0.010537
-0.023891
-0.012716
-0.379443
-0.375095
-0.382723
0.052396
0.137811
0.066061
-0.455698
-0.352213
-0.367385
-0.337017
-0.352709
-0.426888
-0.426901
-0.366965
-0.407431
-0.007300
-0.418887
-0.456878
-0.474889
-0.469257
0.010497
0.024118
0.017110
-0.020893
-0.012631
-0.369302
-0.333403
-0.340888
-0.007466
-0.012900
-0.017822
-0.012205
-0.013612
-0.344390
-0.339439
-0.268970
-0.329427
-0.413566
-0.294671
0.076608
0.091020
0.071756
0.024846
-0.351819
-0.358655
-0.080832
-0.078865
-0.032712
0.009922
-0.000805
0.001123
-0.374325
-0.379529
-0.015746
-0.010788
-0.353931
-0.300666
-0.009168
-0.018084
0.005217
-0.016655
-0.371438
-0.359820
-0.012019
-0.464873
-0.467903
-0.384444
0.004170
0.004638
-0.414685
-0.416194
-0.421457
-0.371840
-0.369240
-0.468749
-0.464916
0.003648
0.004309
-0.009851
-0.440167
-0.448198
-0.474501
0.043372
0.013790
0.037149
0.051489
-0.408880
-0.335305
-0.290687
-0.294256
0.077770
0.071068
0.086751
-0.468052
0.072307
-0.425669
0.010093
-0.011314
0.003170
0.025415
0.058152
-0.456716
-0.465317
-0.458022
0.001143
0.004501
0.017069
0.096847
0.101037
0.071967
-0.092645
-0.060356
0.077680
0.085539
0.104172
-0.003207
-0.092134
-0.084087
-0.121173
0.004640
-0.013333
0.047591
0.046174
0.008472
-0.361894
-0.014190
-0.009959
-0.007507
-0.016011
-0.016832
-0.321272
0.044275
-0.402620
-0.417540
-0.402745
-0.197571
-0.015213
-0.378892
-0.371489
-0.385389
-0.350853
-0.414619
0.023246
-0.334533
-0.358230
-0.332240
-0.325429
-0.010604
-0.347918
-0.359225
-0.347359
-0.354299
-0.361092
-0.000238
-0.440673
-0.442378
-0.459349
0.001358
-0.461912
-0.469615
-0.004354
0.038434
0.036184
0.059976
-0.408380
0.113937
0.055263
0.013963
-0.464664
-0.459480
-0.460326
0.015401
0.005634
0.003345
-0.436824
-0.352661
-0.350915
-0.366487
-0.393807
-0.406332
-0.416005
-0.441025
-0.432333
-0.428570
-0.393387
-0.338355
-0.368845
0.028014
-0.351361
-0.382234
0.056477
0.063436
0.035551
-0.397681
-0.395362
-0.017698
-0.024169
-0.041499
-0.031156
-0.026911
0.059434
-0.355450
-0.463666
-0.456407
0.022376
-0.013195
-0.003777
-0.469461
-0.467996
-0.462456
0.021773
0.025273
0.019854
-0.371722
-0.366316
-0.377759
-0.373650
-0.342556
-0.357400
-0.009394
-0.004559
0.031835
0.004337
-0.357273
-0.354771
-0.346698
-0.359315
-0.398507
-0.409941
-0.432598
-0.334390
-0.348037
-0.353678
-0.352479
-0.029518
-0.029821
-0.010736
-0.010930
-0.385126
-0.413188
-0.440065
-0.419429
-0.420689
0.099669
-0.017159
-0.022757
0.032047
0.087992
-0.026570
-0.409267
0.085427
-0.371588
-0.384022
-0.385284
-0.371980
-0.429426
-0.458549
-0.435534
-0.420062
-0.065883
-0.013756
-0.074196
-0.463657
-0.026794
-0.016224
-0.005605
-0.094169
-0.362460
-0.356134
-0.366081
0.103728
0.101825
0.109118
-0.344043
-0.370230
-0.014828
-0.451603
-0.009113
-0.007968
-0.001256
0.014163
-0.027993
0.013267
0.007425
-0.036427
-0.027733
-0.356390
-0.360579
0.052799
0.062937
0.110474
-0.355222
-0.434802
-0.414570
0.121475
-0.414744
-0.407504
-0.420848
-0.339109
-0.435289
-0.406832
-0.411795
-0.408442
-0.381313
-0.375436
-0.375290
0.052598
-0.262630
-0.004228
-0.012851
-0.349576
-0.369353
-0.357554
-0.402375
-0.386372
-0.408898
-0.297243
-0.366611
-0.421049
-0.447567
-0.448980
-0.397002
-0.414354
-0.396188
0.003659
0.016626
-0.011742
-0.467435
-0.464028
-0.460748
-0.193454
-0.132314
-0.020715
-0.010824
-0.351232
-0.431275
-0.430186
-0.001332
-0.003257
-0.009268
-0.036160
-0.009689
-0.356741
-0.365133
-0.444632
0.014395
0.038313
-0.415707
0.047142
0.059324
0.039772
0.041388
-0.441084
-0.478844
-0.417087
-0.353866
-0.388707
-0.377760
-0.002709
0.004836
-0.293209
-0.226097
-0.330935
-0.295955
-0.183617
-0.292931
-0.375504
-0.365820
-0.014357
-0.016822
-0.011827
-0.002242
-0.430899
-0.018398
-0.009560
-0.011997
-0.365831
-0.364514
0.047782
0.079739
0.019816
0.062368
0.038179
0.065289
0.014995
-0.020142
0.006712
-0.008533
0.053355
-0.001779
-0.018907
-0.383647
-0.382236
-0.365161
-0.379141
-0.047703
-0.082458
-0.051347
0.032944
-0.028131
-0.142170
-0.064570
-0.145949
0.057870
0.037484
0.028275
-0.377775
-0.344993
0.043679
0.071308
-0.002031
-0.005687
0.009856
0.052604
-0.005640
0.008260
0.041429
0.057366
0.046198
-0.024532
-0.010384
0.058077
-0.008591
0.122562
0.081113
0.006317
0.095336
0.111257
0.127196
-0.045299
-0.358903
-0.366277
-0.353102
-0.332164
-0.376828
0.040880
0.039259
0.054623
0.016546
0.051728
0.087106
0.115956
0.095372
-0.367415
-0.370230
-0.345928
-0.367711
-0.376401
-0.348608
-0.367365
-0.347400
-0.001777
-0.016857
-0.349633
-0.003863
0.106012
0.087237
0.107387
-0.061723
-0.026568
-0.214930
-0.000966
-0.018885
-0.460486
-0.459818
-0.022333
-0.062080
-0.000120
-0.025494
-0.468193
-0.461407
-0.458177
-0.472884
-0.371438
-0.384059
-0.384727
-0.374268
-0.353993
-0.339447
-0.018279
-0.007757
-0.368014
-0.356749
-0.356939
-0.349885
0.081628
0.089331
0.096538
0.094725
0.054274
-0.345730
-0.342733
-0.360250
0.116532
0.095834
0.100621
-0.034294
-0.033075
-0.013028
-0.040029
-0.107608
-0.152143
-0.012781
-0.030772
-0.172556
-0.180013
-0.365767
-0.365589
-0.021228
-0.000158
0.118094
-0.008548
-0.350409
-0.360519
-0.370244
0.045011
-0.460491
-0.354066
-0.004447
0.000435
0.002738
-0.001395
-0.007295
0.001788
-0.359739
-0.396032
-0.020779
-0.029447
-0.000655
-0.463583
-0.038613
-0.008896
-0.032905
0.005994
0.001537
-0.366061
-0.369098
0.002656
-0.018525
0.002158
-0.014061
-0.452519
-0.404473
-0.440601
-0.445331
-0.030712
-0.014747
-0.011278
-0.031797
-0.008053
-0.024188
-0.358608
-0.368589
-0.019652
-0.018402
-0.026891
-0.022216
-0.041228
-0.435521
-0.437133
-0.417370
-0.431921
-0.414535
-0.411216
-0.439493
-0.029816
-0.372423
-0.372854
-0.369119
-0.357122
0.082919
0.029459
0.049743
0.053429
0.003656
0.012631
0.001946
-0.011686
-0.008270
-0.009316
-0.021197
-0.323439
-0.249792
-0.216484
-0.100894
0.029338
-0.014651
-0.119192
0.013343
-0.370117
-0.362598
-0.390153
-0.367391
-0.009051
-0.451169
-0.441568
0.026928
-0.008067
0.020804
0.020787
-0.013126
-0.365446
-0.366477
-0.016980
-0.339841
-0.009281
-0.000293
-0.015689
0.065713
0.055420
0.056443
-0.400997
-0.378858
-0.397154
-0.419407
-0.374946
-0.368888
0.002904
-0.362504
-0.373332
-0.370185
-0.365674
-0.018891
-0.056813
-0.002839
0.040134
0.052012
0.067349
0.043612
0.051144
-0.008096
-0.000532
-0.002149
-0.013861
-0.043296
-0.038676
-0.370312
-0.019508
-0.031504
-0.015471
-0.006326
-0.003682
0.002746
-0.015520
-0.356714
-0.012202
-0.005988
-0.422748
0.047769
0.049669
0.062491
-0.366512
-0.367877
-0.470031
-0.468454
-0.429857
-0.433189
-0.433869
-0.440032
-0.436882
-0.435296
0.044098
0.067108
-0.020497
-0.356670
-0.372358
-0.081111
-0.037963
-0.013273
0.041888
-0.305542
-0.417369
-0.422423
-0.366676