# vtk DataFile Version 2.0
Test
ASCII
DATASET POLYDATA
POINTS 7607 float
0.000000 0.000000 0.000000
1.000000 0.000000 0.000000
1.000000 0.800000 0.000000
1.000000 1.000000 0.000000
0.000000 1.000000 0.000000
0.000000 0.200000 0.000000
0.300000 0.330000 0.000000
0.700000 0.680000 0.000000
0.012987 0.000000 0.000000
0.025974 0.000000 0.000000
0.038961 0.000000 0.000000
0.051948 0.000000 0.000000
0.064935 0.000000 0.000000
0.077922 0.000000 0.000000
0.090909 0.000000 0.000000
0.103896 0.000000 0.000000
0.116883 0.000000 0.000000
0.129870 0.000000 0.000000
0.142857 0.000000 0.000000
0.155844 0.000000 0.000000
0.168831 0.000000 0.000000
0.181818 0.000000 0.000000
0.194805 0.000000 0.000000
0.207792 0.000000 0.000000
0.220779 0.000000 0.000000
0.233766 0.000000 0.000000
0.246753 0.000000 0.000000
0.259740 0.000000 0.000000
0.272727 0.000000 0.000000
0.285714 0.000000 0.000000
0.298701 0.000000 0.000000
0.311688 0.000000 0.000000
0.324675 0.000000 0.000000
0.337662 0.000000 0.000000
0.350649 0.000000 0.000000
0.363636 0.000000 0.000000
0.376623 0.000000 0.000000
0.389610 0.000000 0.000000
0.402597 0.000000 0.000000
0.415584 0.000000 0.000000
0.428571 0.000000 0.000000
0.441558 0.000000 0.000000
0.454545 0.000000 0.000000
0.467532 0.000000 0.000000
0.480519 0.000000 0.000000
0.493506 0.000000 0.000000
0.506494 0.000000 0.000000
0.519481 0.000000 0.000000
0.532468 0.000000 0.000000
0.545455 0.000000 0.000000
0.558442 0.000000 0.000000
0.571429 0.000000 0.000000
0.584416 0.000000 0.000000
0.597403 0.000000 0.000000
0.610390 0.000000 0.000000
0.623377 0.000000 0.000000
0.636364 0.000000 0.000000
0.649351 0.000000 0.000000
0.662338 0.000000 0.000000
0.675325 0.000000 0.000000
0.688312 0.000000 0.000000
0.701299 0.000000 0.000000
0.714286 0.000000 0.000000
0.727273 0.000000 0.000000
0.740260 0.000000 0.000000
0.753247 0.000000 0.000000
0.766234 0.000000 0.000000
0.779221 0.000000 0.000000
0.792208 0.000000 0.000000
0.805195 0.000000 0.000000
0.818182 0.000000 0.000000
0.831169 0.000000 0.000000
0.844156 0.000000 0.000000
0.857143 0.000000 0.000000
0.870130 0.000000 0.000000
0.883117 0.000000 0.000000
0.896104 0.000000 0.000000
0.909091 0.000000 0.000000
0.922078 0.000000 0.000000
0.935065 0.000000 0.000000
0.948052 0.000000 0.000000
0.961039 0.000000 0.000000
0.974026 0.000000 0.000000
0.987013 0.000000 0.000000
1.000000 0.012903 0.000000
1.000000 0.025806 0.000000
1.000000 0.038710 0.000000
1.000000 0.051613 0.000000
1.000000 0.064516 0.000000
1.000000 0.077419 0.000000
1.000000 0.090323 0.000000
1.000000 0.103226 0.000000
1.000000 0.116129 0.000000
1.000000 0.129032 0.000000
1.000000 0.141935 0.000000
1.000000 0.154839 0.000000
1.000000 0.167742 0.000000
1.000000 0.180645 0.000000
1.000000 0.193548 0.000000
1.000000 0.206452 0.000000
1.000000 0.219355 0.000000
1.000000 0.232258 0.000000
1.000000 0.245161 0.000000
1.000000 0.258065 0.000000
1.000000 0.270968 0.000000
1.000000 0.283871 0.000000
1.000000 0.296774 0.000000
1.000000 0.309677 0.000000
1.000000 0.322581 0.000000
1.000000 0.335484 0.000000
1.000000 0.348387 0.000000
1.000000 0.361290 0.000000
1.000000 0.374194 0.000000
1.000000 0.387097 0.000000
1.000000 0.400000 0.000000
1.000000 0.412903 0.000000
1.000000 0.425806 0.000000
1.000000 0.438710 0.000000
1.000000 0.451613 0.000000
1.000000 0.464516 0.000000
1.000000 0.477419 0.000000
1.000000 0.490323 0.000000
1.000000 0.503226 0.000000
1.000000 0.516129 0.000000
1.000000 0.529032 0.000000
1.000000 0.541935 0.000000
1.000000 0.554839 0.000000
1.000000 0.567742 0.000000
1.000000 0.580645 0.000000
1.000000 0.593548 0.000000
1.000000 0.606452 0.000000
1.000000 0.619355 0.000000
1.000000 0.632258 0.000000
1.000000 0.645161 0.000000
1.000000 0.658065 0.000000
1.000000 0.670968 0.000000
1.000000 0.683871 0.000000
1.000000 0.696774 0.000000
1.000000 0.709677 0.000000
1.000000 0.722581 0.000000
1.000000 0.735484 0.000000
1.000000 0.748387 0.000000
1.000000 0.761290 0.000000
1.000000 0.774194 0.000000
1.000000 0.787097 0.000000
1.000000 0.812500 0.000000
1.000000 0.825000 0.000000
1.000000 0.837500 0.000000
1.000000 0.850000 0.000000
1.000000 0.862500 0.000000
1.000000 0.875000 0.000000
1.000000 0.887500 0.000000
1.000000 0.900000 0.000000
1.000000 0.912500 0.000000
1.000000 0.925000 0.000000
1.000000 0.937500 0.000000
1.000000 0.950000 0.000000
1.000000 0.962500 0.000000
1.000000 0.975000 0.000000
1.000000 0.987500 0.000000
0.987013 1.000000 0.000000
0.974026 1.000000 0.000000
0.961039 1.000000 0.000000
0.948052 1.000000 0.000000
0.935065 1.000000 0.000000
0.922078 1.000000 0.000000
0.909091 1.000000 0.000000
0.896104 1.000000 0.000000
0.883117 1.000000 0.000000
0.870130 1.000000 0.000000
0.857143 1.000000 0.000000
0.844156 1.000000 0.000000
0.831169 1.000000 0.000000
0.818182 1.000000 0.000000
0.805195 1.000000 0.000000
0.792208 1.000000 0.000000
0.779221 1.000000 0.000000
0.766234 1.000000 0.000000
0.753247 1.000000 0.000000
0.740260 1.000000 0.000000
0.727273 1.000000 0.000000
0.714286 1.000000 0.000000
0.701299 1.000000 0.000000
0.688312 1.000000 0.000000
0.675325 1.000000 0.000000
0.662338 1.000000 0.000000
0.649351 1.000000 0.000000
0.636364 1.000000 0.000000
0.623377 1.000000 0.000000
0.610390 1.000000 0.000000
0.597403 1.000000 0.000000
0.584416 1.000000 0.000000
0.571429 1.000000 0.000000
0.558442 1.000000 0.000000
0.545455 1.000000 0.000000
0.532468 1.000000 0.000000
0.519481 1.000000 0.000000
0.506494 1.000000 0.000000
0.493506 1.000000 0.000000
0.480519 1.000000 0.000000
0.467532 1.000000 0.000000
0.454545 1.000000 0.000000
0.441558 1.000000 0.000000
0.428571 1.000000 0.000000
0.415584 1.000000 0.000000
0.402597 1.000000 0.000000
0.389610 1.000000 0.000000
0.376623 1.000000 0.000000
0.363636 1.000000 0.000000
0.350649 1.000000 0.000000
0.337662 1.000000 0.000000
0.324675 1.000000 0.000000
0.311688 1.000000 0.000000
0.298701 1.000000 0.000000
0.285714 1.000000 0.000000
0.272727 1.000000 0.000000
0.259740 1.000000 0.000000
0.246753 1.000000 0.000000
0.233766 1.000000 0.000000
0.220779 1.000000 0.000000
0.207792 1.000000 0.000000
0.194805 1.000000 0.000000
0.181818 1.000000 0.000000
0.168831 1.000000 0.000000
0.155844 1.000000 0.000000
0.142857 1.000000 0.000000
0.129870 1.000000 0.000000
0.116883 1.000000 0.000000
0.103896 1.000000 0.000000
0.090909 1.000000 0.000000
0.077922 1.000000 0.000000
0.064935 1.000000 0.000000
0.051948 1.000000 0.000000
0.038961 1.000000 0.000000
0.025974 1.000000 0.000000
0.012987 1.000000 0.000000
0.000000 0.987097 0.000000
0.000000 0.974194 0.000000
0.000000 0.961290 0.000000
0.000000 0.948387 0.000000
0.000000 0.935484 0.000000
0.000000 0.922581 0.000000
0.000000 0.909677 0.000000
0.000000 0.896774 0.000000
0.000000 0.883871 0.000000
0.000000 0.870968 0.000000
0.000000 0.858065 0.000000
0.000000 0.845161 0.000000
0.000000 0.832258 0.000000
0.000000 0.819355 0.000000
0.000000 0.806452 0.000000
0.000000 0.793548 0.000000
0.000000 0.780645 0.000000
0.000000 0.767742 0.000000
0.000000 0.754839 0.000000
0.000000 0.741935 0.000000
0.000000 0.729032 0.000000
0.000000 0.716129 0.000000
0.000000 0.703226 0.000000
0.000000 0.690323 0.000000
0.000000 0.677419 0.000000
0.000000 0.664516 0.000000
0.000000 0.651613 0.000000
0.000000 0.638710 0.000000
0.000000 0.625806 0.000000
0.000000 0.612903 0.000000
0.000000 0.600000 0.000000
0.000000 0.587097 0.000000
0.000000 0.574194 0.000000
0.000000 0.561290 0.000000
0.000000 0.548387 0.000000
0.000000 0.535484 0.000000
0.000000 0.522581 0.000000
0.000000 0.509677 0.000000
0.000000 0.496774 0.000000
0.000000 0.483871 0.000000
0.000000 0.470968 0.000000
0.000000 0.458065 0.000000
0.000000 0.445161 0.000000
0.000000 0.432258 0.000000
0.000000 0.419355 0.000000
0.000000 0.406452 0.000000
0.000000 0.393548 0.000000
0.000000 0.380645 0.000000
0.000000 0.367742 0.000000
0.000000 0.354839 0.000000
0.000000 0.341935 0.000000
0.000000 0.329032 0.000000
0.000000 0.316129 0.000000
0.000000 0.303226 0.000000
0.000000 0.290323 0.000000
0.000000 0.277419 0.000000
0.000000 0.264516 0.000000
0.000000 0.251613 0.000000
0.000000 0.238710 0.000000
0.000000 0.225806 0.000000
0.000000 0.212903 0.000000
0.000000 0.187500 0.000000
0.000000 0.175000 0.000000
0.000000 0.162500 0.000000
0.000000 0.150000 0.000000
0.000000 0.137500 0.000000
0.000000 0.125000 0.000000
0.000000 0.112500 0.000000
0.000000 0.100000 0.000000
0.000000 0.087500 0.000000
0.000000 0.075000 0.000000
0.000000 0.062500 0.000000
0.000000 0.050000 0.000000
0.000000 0.037500 0.000000
0.000000 0.025000 0.000000
0.000000 0.012500 0.000000
0.309756 0.338537 0.000000
0.319512 0.347073 0.000000
0.329268 0.355610 0.000000
0.339024 0.364146 0.000000
0.348780 0.372683 0.000000
0.358537 0.381220 0.000000
0.368293 0.389756 0.000000
0.378049 0.398293 0.000000
0.387805 0.406829 0.000000
0.397561 0.415366 0.000000
0.407317 0.423902 0.000000
0.417073 0.432439 0.000000
0.426829 0.440976 0.000000
0.436585 0.449512 0.000000
0.446341 0.458049 0.000000
0.456098 0.466585 0.000000
0.465854 0.475122 0.000000
0.475610 0.483659 0.000000
0.485366 0.492195 0.000000
0.495122 0.500732 0.000000
0.504878 0.509268 0.000000
0.514634 0.517805 0.000000
0.524390 0.526341 0.000000
0.534146 0.534878 0.000000
0.543902 0.543415 0.000000
0.553659 0.551951 0.000000
0.563415 0.560488 0.000000
0.573171 0.569024 0.000000
0.582927 0.577561 0.000000
0.592683 0.586098 0.000000
0.602439 0.594634 0.000000
0.612195 0.603171 0.000000
0.621951 0.611707 0.000000
0.631707 0.620244 0.000000
0.641463 0.628780 0.000000
0.651220 0.637317 0.000000
0.660976 0.645854 0.000000
0.670732 0.654390 0.000000
0.680488 0.662927 0.000000
0.690244 0.671463 0.000000
0.011538 0.205000 0.000000
0.023077 0.210000 0.000000
0.034615 0.215000 0.000000
0.046154 0.220000 0.000000
0.057692 0.225000 0.000000
0.069231 0.230000 0.000000
0.080769 0.235000 0.000000
0.092308 0.240000 0.000000
0.103846 0.245000 0.000000
0.115385 0.250000 0.000000
0.126923 0.255000 0.000000
0.138462 0.260000 0.000000
0.150000 0.265000 0.000000
0.161538 0.270000 0.000000
0.173077 0.275000 0.000000
[...]
POINT_DATA 7607
SCALARS UX float 1
LOOKUP_TABLE default
0.006132
0.002361
-0.012344
-0.220225
-0.325330
-0.106135
-0.009450
-0.162538
-0.001856
0.000073
0.000812
0.001367
0.011555
0.000107
-0.000199
0.010464
0.000282
0.000783
-0.000279
0.000112
0.000116
-0.000060
-0.000159
0.000193
-0.000087
0.000269
0.000069
-0.001135
-0.000120
-0.000130
-0.000443
-0.007725
0.000163
-0.000154
-0.000117
-0.000320
0.000254
0.000147
0.001914
0.000056
0.000545
-0.001952
0.000035
0.003621
0.000171
0.000014
-0.002630
-0.000038
-0.000290
0.000030
0.000049
-0.003363
-0.000215
-0.001126
-0.000091
-0.000349
-0.000022
-0.000070
0.000029
-0.000705
-0.001167
0.000339
-0.000264
-0.000234
0.004720
0.000620
-0.007921
0.000315
0.002453
0.000299
-0.000978
-0.000617
-0.006187
-0.000421
0.005545
0.003060
-0.006549
-0.000038
-0.000791
0.001788
0.000247
0.000407
-0.000183
-0.013217
-0.001527
0.016939
0.009376
0.019655
0.009644
0.021321
0.011101
0.024263
0.045977
0.047584
0.036514
0.051769
0.035731
0.064488
0.037733
0.041772
0.061073
0.066780
0.061373
0.078197
0.068255
0.078784
0.087788
0.065452
0.083043
0.098882
0.080422
0.113422
0.101690
0.101530
0.109018
0.096159
0.119766
0.110859
0.133183
0.104473
0.123747
0.134621
0.115499
0.123339
0.150328
0.123840
0.140841
0.142365
0.126937
0.141322
0.147614
0.124731
0.153154
0.112758
0.121247
0.125104
0.124904
0.115827
0.131259
0.095765
0.090639
0.077920
0.077172
0.116578
0.028204
-0.045779
-0.044602
-0.115923
-0.130231
-0.210674
-0.140489
-0.182723
-0.179605
-0.193404
-0.187838
-0.206168
-0.202866
-0.178607
-0.222140
-0.207003
-0.195790
-0.214607
-0.210095
-0.233188
-0.225717
-0.226483
-0.222816
-0.233770
-0.231590
-0.232875
-0.231215
-0.234847
-0.231390
-0.229770
-0.237629
-0.239391
-0.233038
-0.246004
-0.245989
-0.243563
-0.242067
-0.243562
-0.242972
-0.245145
-0.248319
-0.245596
-0.252769
-0.247825
-0.251411
-0.254993
-0.248855
-0.259948
-0.259249
-0.260626
-0.264426
-0.262337
-0.259680
-0.265244
-0.263481
-0.265001
-0.266784
-0.266629
-0.277953
-0.264695
-0.268546
-0.282358
-0.270080
-0.280443
-0.272837
-0.285086
-0.288774
-0.292114
-0.294814
-0.293366
-0.293301
-0.303172
-0.292842
-0.306536
-0.309196
-0.295743
-0.317424
-0.308757
-0.310345
-0.305624
-0.319234
-0.323481
-0.316837
-0.325670
-0.327243
-0.322525
-0.325000
-0.326923
-0.332106
-0.331982
-0.331845
-0.334163
-0.337301
-0.336562
-0.337963
-0.326105
-0.329903
-0.319664
-0.328900
-0.327365
-0.335328
-0.330347
-0.328430
-0.351421
-0.336238
-0.337548
-0.333293
-0.335637
-0.344002
-0.339470
-0.336665
-0.327337
-0.340179
-0.339601
-0.334890
-0.333874
-0.341006
-0.329211
-0.334782
-0.342220
-0.337893
-0.335332
-0.311502
-0.298126
-0.318234
-0.329648
-0.332743
-0.335794
-0.326108
-0.337451
-0.333262
-0.349304
-0.329398
-0.337921
-0.327794
-0.335628
-0.335335
-0.333186
-0.338453
-0.341542
-0.331186
-0.340122
-0.319182
-0.333224
-0.327801
-0.319803
-0.297247
-0.289273
-0.253929
-0.262535
-0.241092
-0.156108
-0.221234
-0.194085
-0.075839
-0.123171
-0.073473
0.003224
-0.059946
-0.043116
-0.031075
-0.019548
-0.025623
-0.012910
-0.026061
-0.015510
-0.009789
-0.007450
0.065883
-0.169701
-0.102994
-0.241753
-0.355145
-0.361506
-0.249715
-0.246924
-0.210727
-0.114808
-0.202956
-0.114041
0.208995
0.068724
-0.083434
-0.111558
0.108556
-0.046601
-0.148207
-0.092211
-0.022902
-0.019630
-0.248097
-0.100470
-0.093523
-0.171883
-0.119512
-0.015898
-0.319188
-0.078347
-0.101133
-0.146724
-0.141678
-0.042931
-0.106385
-0.050382
-0.165759
-0.134475
-0.192446
-0.187597
-0.166079
-0.219064
-0.068876
-0.162085
-0.203223
-0.255625
-0.277333
-0.136141
-0.181859
-0.100266
-0.206935
-0.128123
-0.240118
-0.200639
-0.141025
-0.325593
-0.242511
-0.125573
-0.143608
-0.278416
-0.168067
-0.140851
-0.301015
-0.109669
-0.308910
-0.108501
0.072949
0.002751
0.146280
-0.038524
0.168961
0.007559
-0.096818
0.022598
-0.070566
0.019641
-0.037538
-0.030785
0.008077
-0.067461
-0.011114
0.000802
-0.032662
0.021240
-0.053959
-0.038078
0.003727
0.020334
-0.067607
-0.235327
-0.247991
-0.254142
-0.240075
0.068092
0.055104
0.050780
-0.104738
-0.477417
-0.067714
-0.246104
-0.224209
-0.134620
-0.017102
0.011416
0.013019
-0.273295
-0.315188
-0.318063
-0.342433
0.043666
0.016903
0.026553
0.012896
-0.054375
-0.023687
-0.093721
-0.052736
-0.003544
-0.014528
-0.229317
-0.215663
-0.398883
-0.301146
-0.074028
-0.049806
0.016111
0.002054
-0.004511
-0.005166
-0.318252
-0.314496
-0.327411
-0.332980
-0.119178
-0.208632
-0.042568
-0.083322
0.106850
0.082732
0.106862
-0.232844
-0.247289
0.084495
0.047576
0.024851
0.070236
-0.259154
-0.245831
-0.236031
-0.000457
-0.219712
-0.240568
-0.205762
-0.178536
-0.190617
-0.037491
-0.061590
-0.019115
-0.238951
-0.317494
-0.318204
-0.024227
0.023781
0.044128
-0.006515
-0.014783
-0.015678
-0.277562
-0.279320
-0.279420
-0.020968
-0.253672
-0.248471
-0.227277
0.036899
0.043094
0.005810
0.038368
0.001589
-0.012554
-0.019330
-0.073401
-0.006390
-0.019912
-0.022296
0.062980
0.118970
0.139634
-0.307785
-0.206626
-0.255735
-0.192543
-0.156815
-0.215019
-0.189422
-0.273828
-0.241321
-0.302599
-0.224985
-0.018883
0.009499
0.006300
0.007860
0.064920
0.066327
-0.244566
-0.245604
-0.233000
0.024754
0.038565
0.014261
-0.211886
-0.201814
-0.225643
-0.210300
0.043309
0.058080
0.092973
0.066181
-0.006062
-0.242590
-0.026367
0.001574
-0.005078
-0.006492
-0.318653
-0.270548
-0.262828
-0.276456
-0.252942
-0.286048
-0.273388
-0.260389
-0.222179
-0.235337
-0.238965
-0.229038
-0.094912
-0.010772
-0.006812
-0.005284
-0.001473
-0.337312
-0.308913
-0.333499
-0.012087
-0.012712
-0.004327
-0.342600
-0.319874
-0.321819
-0.015083
-0.203108
-0.227430
-0.232879
-0.310001
-0.303432
-0.266486
-0.319379
-0.311806
-0.321446
-0.295764
0.110176
0.094858
0.099736
0.100848
0.097926
0.067826
0.088784
0.041167
0.052592
0.037758
-0.269804
-0.259566
-0.241583
-0.258524
-0.253337
-0.252285
-0.006706
-0.023083
-0.014922
-0.008534
0.014497
0.045366
0.000222
-0.041634
-0.021618
-0.031139
-0.063731
-0.288310
-0.312912
-0.301968
-0.263483
0.050166
0.078654
0.054075
0.038261
0.049740
0.044635
0.059580
0.107994
0.106969
0.095078
-0.027415
0.172654
-0.313368
-0.298486
-0.301645
-0.186632
-0.200901
-0.209408
-0.155588
0.079957
0.112688
0.114650
0.121761
0.057742
0.066643
0.036521
-0.260367
-0.265471
-0.316821
-0.294108
-0.256016
-0.291078
-0.311581
-0.300029
-0.313400
-0.001466
-0.016452
0.007054
-0.249283
-0.292307
-0.270835
-0.006441
0.029220
-0.022057
0.093916
0.082597
0.118562
-0.009488
-0.019554
-0.018833
-0.026017
-0.026391
-0.321568
-0.330584
-0.011217
-0.019420
-0.006953
0.014992
0.015879
0.000674
-0.023445
-0.005869
0.013619
-0.195226
-0.183565
-0.321196
-0.333221
-0.314473
-0.025993
-0.031180
0.112139
0.103477
0.012428
0.073759
0.032169
0.077344
0.015628
-0.002919
-0.004873
0.010314
-0.310531
-0.299776
-0.328474
-0.298859
-0.330821
-0.292217
-0.365023
-0.262858
0.062481
-0.010924
0.031375
0.038027
-0.327359
-0.307242
-0.300072
-0.291835
0.072960
0.138553
0.100248
0.081108
0.058529
-0.224112
-0.221109
-0.220366
0.046654
-0.200681
-0.216834
-0.237501
0.080181
-0.227421
-0.303575
-0.341266
-0.302260
-0.014712
0.013005
-0.007529
-0.293210
-0.292866
-0.283409
-0.022093
-0.010258
0.007474
0.081804
0.039950
0.003632
0.059262
-0.217421
-0.223163
-0.195382
-0.239560
-0.273978
-0.329673
-0.296274
0.024495
0.040853
-0.003255
0.018796
0.021276
0.019217
-0.315584
-0.333867
-0.332146
-0.258093
-0.290127
-0.315306
-0.026633
-0.026441
0.106711
0.032979
-0.018932
0.035533
0.035051
0.034127
-0.293386
-0.336422
-0.288940
-0.325665
-0.333256
-0.305195
-0.022150
0.014018
-0.011490
-0.016714
0.121762
0.079096
0.042895
-0.029768
0.039395
0.063242
0.045219
0.037920
0.042861
0.040740
-0.276668
-0.278358
-0.245524
0.009588
0.004064
0.005795
0.004887
-0.027476
0.000434
-0.010990
-0.339825
-0.249967
-0.249256
-0.273909
-0.304750
-0.321614
-0.369863
-0.206774
-0.209857
-0.187299
-0.039424
-0.026154
-0.016269
-0.210099
-0.212025
-0.211300
-0.182000
-0.195572
0.006430
-0.006047
-0.303684
-0.318366
-0.316921
0.116551
0.082069
-0.239861
-0.281943
-0.020084
-0.000658
-0.018674
0.006064
-0.021888
-0.034867
-0.013901
0.016732
0.026251
0.029356
-0.220829
-0.225400
-0.039225
-0.001648
-0.003451
-0.262384
-0.256067
-0.255506
0.023285
-0.303079
-0.305685
-0.307201
0.154782
0.047566
0.026681
-0.332011
-0.325325
0.098466
0.090054
-0.305220
-0.298270
-0.310183
-0.243857
-0.199147
-0.006963
-0.032431
-0.005522
-0.004139
-0.025379
-0.306848
-0.306038
-0.333335
-0.337399
-0.297508
0.086915
0.110393
-0.323643
-0.300703
-0.306937
0.019092
0.010717
-0.198203
-0.213064
-0.205156
-0.205220
0.004716
0.011343
-0.001128
-0.337559
-0.317884
-0.321525
-0.310606
-0.315677
-0.304296
-0.313912
-0.294082
-0.326907
-0.275070
0.003419
-0.001385
-0.003285
-0.002729
-0.024361
-0.010513
-0.007301
-0.334091
-0.334068
-0.333143
-0.203145
-0.175627
-0.170813
-0.190300
-0.300113
-0.328048
-0.298630
-0.328611
-0.330544
-0.342845
0.111518
0.152056
-0.319292
0.031565
-0.010037
-0.316772
-0.046060
-0.254735
0.131975
-0.334760
-0.314165
-0.020183
-0.346830
-0.344560
0.039503
-0.003931
-0.002764
-0.040939
-0.027180
-0.004843
-0.001648
-0.016216
0.081506
0.147627
0.098627
0.091358
0.122566
0.131224
-0.287463
-0.290961
-0.286992
-0.286120
0.025167
0.015652
0.030829
-0.036717
-0.005430
-0.183241
-0.198418
0.086213
0.065292
-0.342269
-0.333260
-0.330215
-0.325559
-0.009614
-0.057026
-0.045572
-0.037392
0.057513
0.107483
0.059357
0.122332
0.102746
-0.225286
-0.223376
-0.226418
0.031224
-0.290794
-0.290298
-0.328196
-0.242341
-0.208153
-0.033298
-0.009790
-0.019454
-0.017678
-0.242754
-0.214575
-0.223762
-0.222960
-0.231067
-0.224250
-0.001785
0.000681
0.056769
0.055978
0.069294
0.021545
-0.188137
-0.203444
-0.221606
-0.231565
-0.206061
-0.344493
-0.183233
0.035475
0.001579
-0.008396
-0.017640
-0.026002
-0.226097
-0.263978
-0.330953
-0.313895
-0.308161
-0.291997
-0.244548
-0.289475
-0.298844
-0.290602
-0.323914
0.135963
0.055721
0.030421
0.037363
0.047010
-0.015481
-0.012386
0.032671
-0.318120
-0.317830
-0.332435
-0.018701
-0.021766
-0.290897
-0.312587
-0.323683
-0.297066
-0.005443
-0.018190
-0.030549
-0.321388
-0.009292
-0.011387
-0.305617
-0.311555
0.038046
0.027818
0.034173
0.054906
0.003164
0.008926
-0.001424
-0.002972
-0.312539
-0.347243
-0.342430
-0.293606
-0.284979
-0.297343
-0.280827
-0.012722
-0.019180
-0.022668
-0.019300
0.046236
0.076801
0.085384
0.010702
0.021121
0.055526
0.001381
-0.086471
-0.209064
-0.214012
-0.232017
-0.234650
-0.221937
-0.335285
-0.331052
-0.332634
-0.251049
-0.258448
-0.289202
-0.261100
0.114914
0.061550
-0.027510
-0.025965
-0.324236
-0.189665
-0.248729
-0.108107
-0.334286
-0.314659
-0.327761
-0.231871
-0.266267
-0.208363
-0.212602
-0.032143
-0.233497
-0.025734
0.116694
-0.014646
0.105551
0.106907
-0.019754
-0.010868
-0.006715
0.024898
-0.197777
-0.201354
-0.013145
-0.283972
-0.321093
-0.014010
-0.001578
-0.227843
-0.313281
-0.030031
-0.038025
-0.031462
-0.020790
-0.207155
-0.205702
-0.187973
-0.015185
0.000701
-0.345781
-0.022562
0.017536
-0.042166
-0.318405
-0.316192
-0.330374
0.041223
0.003109
-0.012548
-0.306791
0.041020
0.046346
-0.029030
-0.354352
-0.320968
-0.341609
-0.169710
-0.041922
-0.006665
-0.004496
-0.239448
-0.268849
-0.235230
-0.223419
-0.207822
-0.246725
-0.002697
-0.008089
0.020740
0.003954
0.002977
-0.014518
0.010423
-0.073024
-0.055613
-0.207081
-0.213388
-0.238417
-0.209518
-0.180383
-0.223116
-0.222054
-0.210306
-0.035799
-0.006977
-0.331190
-0.312147
-0.324232
-0.277932
-0.258721
-0.247622
-0.265532
-0.014733
-0.008672
-0.228240
-0.214092
-0.213218
0.095327
0.038986
0.123075
0.016277
-0.332203
-0.195848
-0.014636
0.010292
-0.009298
-0.320048
0.048443
0.036084
0.055402
0.000105
-0.341453
0.005060
0.014137
0.000468
0.019950
0.008646
-0.184637
-0.229689
-0.231784
-0.218087
-0.004267
-0.006051
-0.000841
-0.000041
0.130617
0.138411
0.128628
0.125596
-0.325296
-0.340998
-0.313609
-0.296272
-0.269496
0.021244
0.013222
0.032437
0.006250
0.019997
-0.016919
0.043939
-0.237487
-0.222817
0.070728
0.058111
0.093406
-0.374758
-0.250331
-0.319855
-0.293285
-0.304168
-0.231127
0.097749
0.107718
0.088747
0.084331
-0.058566
-0.246426
-0.250917
-0.292549
0.012284
0.010810
-0.303911
0.031179
0.043257
-0.265648
-0.257325
-0.261954
-0.320014
-0.325347
-0.017307
-0.297359
-0.297876
-0.280308
-0.299857
0.124173
0.115503
0.138833
0.156790
-0.282532
-0.246217
-0.278689
-0.242784
-0.288954
0.017721
0.045205
0.050416
0.090755
0.085380
0.101134
-0.014069
-0.021054
-0.018964
-0.343701
0.041587
-0.320627
-0.327779
-0.312267
-0.314200
-0.305752
-0.289388
-0.270429
-0.319225
0.008463
-0.024964
-0.295543
0.057339
-0.021561
-0.012185
-0.019422
-0.263032
-0.253595
-0.254292
-0.038458
-0.018636
0.013473
0.009328
0.027226
-0.181896
-0.024765
-0.012563
-0.010282
-0.207360
-0.214229
-0.213212
0.076258
0.082314
0.023800
-0.008427
-0.015268
-0.319772
-0.316339
-0.320294
-0.164180
-0.327219
-0.340680
-0.341456
-0.311821
-0.324326
-0.300646
-0.111519
-0.140082
-0.158772
-0.214880
-0.256289
-0.259420
-0.031691
-0.012359
-0.096006
-0.261611
-0.217298
0.025405
-0.017044
0.138516
0.115139
0.097807
0.105142
-0.231546
-0.226938
-0.012452
-0.005053
-0.011094
0.031769
0.002377
-0.013267
-0.322270
0.000843
-0.022443
-0.027772
-0.001389
-0.300292
-0.286953
-0.283785
-0.256776
-0.343081
-0.316858
-0.335745
-0.341522
-0.002222
0.002534
0.027201
-0.313303
-0.321685
-0.288924
-0.322871
-0.223744
0.112164
0.008549
-0.240259
-0.207347
-0.067845
-0.239708
0.100333
0.137724
-0.236799
-0.275549
-0.135079
-0.166080
-0.011640
-0.020064
-0.010600
-0.251144
-0.246691
-0.254241
0.074283
0.174937
0.094665
-0.319929
-0.244800
-0.258477
-0.228692
-0.227467
-0.304461
-0.313009
-0.263386
-0.296837
-0.007972
-0.303896
-0.319792
-0.338798
-0.334338
0.011786
0.026186
0.017807
-0.018762
-0.009742
-0.241000
-0.204184
-0.208214
-0.007551
-0.013411
-0.017916
-0.011520
-0.014747
-0.215317
-0.207839
-0.204827
-0.224259
-0.324477
-0.204254
0.103396
0.119568
0.111157
0.063682
-0.218897
-0.226740
-0.047600
-0.063787
-0.057269
0.007267
-0.000420
-0.000561
-0.309097
-0.302374
-0.018874
-0.010116
-0.224089
-0.176854
-0.005359
-0.016329
0.005493
-0.017126
-0.244209
-0.230251
-0.011777
-0.327788
-0.330996
-0.263203
0.004237
0.004494
-0.285270
-0.285760
-0.297477
-0.289807
-0.289508
-0.332179
-0.328135
0.003693
0.004110
-0.010293
-0.304487
-0.313147
-0.335919
0.075274
0.055181
0.072607
0.083750
-0.282080
-0.274554
-0.259379
-0.237485
0.097177
0.088911
0.107397
-0.331803
0.090255
-0.292621
0.010958
0.020949
0.030923
0.028709
0.090428
-0.320918
-0.326952
-0.320882
0.000621
0.005085
0.018143
0.125982
0.133872
0.053930
-0.096182
-0.062225
0.106422
0.118072
0.134581
-0.005985
-0.106372
-0.073893
-0.123748
0.055397
-0.013953
0.076864
0.080564
0.034500
-0.227735
-0.011640
-0.009149
-0.006691
-0.012974
-0.014804
-0.189511
0.065288
-0.315444
-0.256098
-0.309885
-0.282754
-0.012251
-0.304130
-0.295770
-0.318794
-0.275874
-0.289422
0.067023
-0.201659
-0.228399
-0.203775
-0.200303
-0.007300
-0.215190
-0.232023
-0.215810
-0.224715
-0.230592
-0.004456
-0.305099
-0.307770
-0.322113
0.001533
-0.325781
-0.332884
-0.004781
0.060421
0.056790
0.081612
-0.308386
0.136504
0.086573
0.053716
-0.327864
-0.322277
-0.323409
0.016433
0.005823
0.003398
-0.337152
-0.226079
-0.206723
-0.232995
-0.262678
-0.275139
-0.284817
-0.340141
-0.331587
-0.326930
-0.277661
-0.252919
-0.239754
0.064342
-0.222238
-0.290387
0.077887
0.086024
0.054736
-0.269248
-0.264968
-0.014727
-0.021269
-0.031696
-0.020342
-0.023164
0.079416
-0.224501
-0.327241
-0.318611
0.024400
-0.006814
-0.003871
-0.332537
-0.329894
-0.326043
0.023643
0.027760
0.022014
-0.245528
-0.236635
-0.249295
-0.244812
-0.210105
-0.227603
-0.005402
-0.002525
0.034315
0.004510
-0.231628
-0.224283
-0.215691
-0.230090
-0.305064
-0.271923
-0.312160
-0.270439
-0.217890
-0.224577
-0.221673
-0.022327
-0.021032
-0.008170
-0.009774
-0.258311
-0.285037
-0.308795
-0.328691
-0.320167
0.130043
-0.022984
-0.034143
0.071397
0.122251
0.017731
-0.355799
0.170207
-0.245534
-0.255846
-0.254133
-0.244836
-0.298692
-0.317915
-0.300938
-0.292635
-0.061163
-0.014430
-0.073473
-0.326837
-0.024551
-0.029021
-0.006097
-0.080231
-0.232477
-0.309774
-0.235863
0.131793
0.128508
0.137915
-0.212511
-0.242276
-0.014233
-0.315018
-0.010357
-0.006571
-0.003169
0.014804
-0.019386
0.009683
0.002886
-0.036016
-0.025425
-0.229298
-0.231502
0.075308
0.085202
0.133115
-0.259921
-0.347827
-0.332276
0.143825
-0.305984
-0.309929
-0.317706
-0.206769
-0.295050
-0.396288
-0.306955
-0.375067
-0.252399
-0.246629
-0.247610
0.058311
-0.172762
-0.005128
-0.009201
-0.220103
-0.241602
-0.228776
-0.273381
-0.266267
-0.278360
-0.179417
-0.230469
-0.298325
-0.325289
-0.329999
-0.278517
-0.291743
-0.285991
0.003779
0.017832
-0.009093
-0.332335
-0.328538
-0.325868
-0.077291
-0.056852
-0.019285
-0.008611
-0.220233
-0.308518
-0.301874
-0.001178
-0.002940
-0.008621
-0.031890
-0.011416
-0.227313
-0.235670
-0.321930
0.015539
0.042344
-0.301614
0.053904
0.067461
0.046218
0.047234
-0.306444
-0.353543
-0.289503
-0.228994
-0.256070
-0.250630
-0.002299
0.004662
-0.174696
-0.125817
-0.201672
-0.173810
-0.089592
-0.176218
-0.247198
-0.234304
-0.013307
-0.014338
-0.010368
-0.000078
-0.306331
-0.013566
-0.006206
-0.011834
-0.237024
-0.235710
0.077790
0.128116
0.056512
0.084124
0.080216
0.095101
0.054291
-0.017666
0.006724
-0.007739
0.060164
-0.001170
-0.016544
-0.255101
-0.253956
-0.237439
-0.250448
-0.046568
-0.055011
-0.059228
0.074271
-0.036813
-0.086084
-0.065378
-0.101561
0.065857
0.042994
0.032427
-0.241325
-0.216005
0.089883
0.112575
0.045021
0.014176
0.054915
0.087431
0.031340
0.034880
0.047110
0.093064
0.094068
-0.019785
-0.010137
0.091503
0.019815
0.155238
0.112189
0.038564
0.124499
0.139954
0.158011
-0.046501
-0.228400
-0.237487
-0.223950
-0.207427
-0.247993
0.046249
0.059620
0.076862
0.037369
0.073540
0.115352
0.142494
0.121821
-0.238843
-0.240537
-0.215487
-0.239997
-0.248636
-0.218433
-0.241155
-0.215859
-0.000661
-0.014081
-0.221401
-0.003667
0.131830
0.114896
0.135671
0.007157
0.014756
-0.109978
0.000530
-0.016914
-0.324994
-0.323740
-0.022600
-0.051807
-0.000943
-0.024008
-0.332230
-0.326425
-0.323533
-0.337000
-0.244637
-0.255156
-0.255915
-0.245051
-0.222000
-0.208969
-0.016515
-0.005962
-0.239112
-0.226795
-0.227413
-0.215344
0.109411
0.117196
0.123885
0.122783
0.060211
-0.214847
-0.213227
-0.230387
0.145061
0.125284
0.129196
-0.028745
-0.018185
-0.010234
-0.011012
-0.092598
-0.098110
-0.041531
-0.076843
-0.146309
-0.086441
-0.237536
-0.236591
-0.019358
0.002145
0.144915
-0.005640
-0.220415
-0.230061
-0.244273
0.052498
-0.324134
-0.226219
-0.004490
0.000131
0.002681
-0.001868
-0.005311
0.002762
-0.231219
-0.268677
-0.018244
-0.026957
0.001258
-0.326281
-0.026181
-0.010113
-0.026721
0.005755
0.002881
-0.237004
-0.240442
0.000903
-0.016533
0.001004
-0.015309
-0.317756
-0.277019
-0.309613
-0.307888
-0.032368
-0.013836
-0.009514
-0.025112
-0.014905
-0.022648
-0.230186
-0.240375
-0.017420
-0.016003
-0.017032
-0.019156
-0.038861
-0.305072
-0.308053
-0.288060
-0.304583
-0.284336
-0.284355
-0.313355
-0.029604
-0.242053
-0.244325
-0.241759
-0.226833
0.114128
0.060221
0.087985
0.089805
0.003467
0.013157
0.002091
-0.010271
-0.007620
-0.009086
-0.016136
-0.191186
-0.103256
-0.184556
-0.117259
-0.080865
0.063279
0.000566
0.014226
-0.241007
-0.233920
-0.260816
-0.240487
-0.009130
-0.318049
-0.317009
0.063962
0.025763
0.053220
0.054903
-0.012300
-0.237903
-0.238174
-0.015927
0.148083
-0.008845
-0.001050
-0.014922
0.076848
0.065238
0.066883
-0.243817
-0.238440
-0.340090
-0.339863
-0.248176
-0.238074
0.004413
-0.236810
-0.246228
-0.240043
-0.239132
-0.013754
-0.054151
-0.000946
0.052629
0.065082
0.078176
0.058117
0.066727
-0.007991
-0.001947
-0.003229
-0.013890
-0.042156
-0.037417
-0.243878
-0.016653
-0.029401
-0.014809
-0.005314
-0.002945
0.002072
-0.016973
-0.227534
-0.010026
-0.004159
-0.301648
0.069174
0.071931
0.082693
-0.237564
-0.237945
-0.332205
-0.329661
-0.295415
-0.298575
-0.327684
-0.330724
-0.330894
-0.325434
0.076717
0.097588
-0.020002
-0.230401
-0.243769
-0.009211
-0.033368
-0.014232
0.061945
-0.175942
-0.291285
-0.286909
-0.235992
-0.279483
-0.269121
-0.310904