# vtk DataFile Version 2.0
Test
ASCII
DATASET POLYDATA
POINTS 5816 float
0.000000 0.000000 0.000000
2.000000 0.000000 0.000000
2.000000 4.000000 0.000000
0.000000 4.000000 0.000000
0.000000 0.500000 0.000000
1.500000 2.000000 0.000000
2.000000 2.500000 0.000000
0.285714 0.000000 0.000000
0.571429 0.000000 0.000000
0.857143 0.000000 0.000000
1.142857 0.000000 0.000000
1.428571 0.000000 0.000000
1.714286 0.000000 0.000000
2.000000 0.275040 0.000000
2.000000 0.520628 0.000000
2.000000 0.739917 0.000000
2.000000 0.935725 0.000000
2.000000 1.110565 0.000000
2.000000 1.266683 0.000000
2.000000 1.406084 0.000000
2.000000 1.530557 0.000000
2.000000 1.641701 0.000000
2.000000 1.740944 0.000000
2.000000 1.829560 0.000000
2.000000 1.908686 0.000000
2.000000 1.979340 0.000000
2.000000 2.042428 0.000000
2.000000 2.098760 0.000000
2.000000 2.149060 0.000000
2.000000 2.193974 0.000000
2.000000 2.234078 0.000000
2.000000 2.269888 0.000000
2.000000 2.301863 0.000000
2.000000 2.330415 0.000000
2.000000 2.355908 0.000000
2.000000 2.378673 0.000000
2.000000 2.398999 0.000000
2.000000 2.417149 0.000000
2.000000 2.433355 0.000000
2.000000 2.447826 0.000000
2.000000 2.460747 0.000000
2.000000 2.472285 0.000000
2.000000 2.482587 0.000000
2.000000 2.491786 0.000000
2.000000 2.508637 0.000000
2.000000 2.519089 0.000000
2.000000 2.531737 0.000000
2.000000 2.547044 0.000000
2.000000 2.565568 0.000000
2.000000 2.587985 0.000000
2.000000 2.615113 0.000000
2.000000 2.647942 0.000000
2.000000 2.687670 0.000000
2.000000 2.735749 0.000000
2.000000 2.793931 0.000000
2.000000 2.864341 0.000000
2.000000 2.949549 0.000000
2.000000 3.052664 0.000000
2.000000 3.177450 0.000000
2.000000 3.328462 0.000000
2.000000 3.511210 0.000000
2.000000 3.732366 0.000000
1.714286 4.000000 0.000000
1.428571 4.000000 0.000000
1.142857 4.000000 0.000000
0.857143 4.000000 0.000000
0.571429 4.000000 0.000000
0.285714 4.000000 0.000000
0.000000 3.715673 0.000000
0.000000 3.453827 0.000000
0.000000 3.212685 0.000000
0.000000 2.990611 0.000000
0.000000 2.786096 0.000000
0.000000 2.597752 0.000000
0.000000 2.424300 0.000000
0.000000 2.264564 0.000000
0.000000 2.117457 0.000000
0.000000 1.981983 0.000000
0.000000 1.857220 0.000000
0.000000 1.742322 0.000000
0.000000 1.636510 0.000000
0.000000 1.539064 0.000000
0.000000 1.449323 0.000000
0.000000 1.366678 0.000000
0.000000 1.290567 0.000000
0.000000 1.220475 0.000000
0.000000 1.155925 0.000000
0.000000 1.096479 0.000000
0.000000 1.041733 0.000000
0.000000 0.991316 0.000000
0.000000 0.944886 0.000000
0.000000 0.902126 0.000000
0.000000 0.862748 0.000000
0.000000 0.826483 0.000000
0.000000 0.793086 0.000000
0.000000 0.762330 0.000000
0.000000 0.734005 0.000000
0.000000 0.707920 0.000000
0.000000 0.683898 0.000000
0.000000 0.661775 0.000000
0.000000 0.641402 0.000000
0.000000 0.622639 0.000000
0.000000 0.605360 0.000000
0.000000 0.589447 0.000000
0.000000 0.574792 0.000000
0.000000 0.561296 0.000000
0.000000 0.548868 0.000000
0.000000 0.537421 0.000000
0.000000 0.526881 0.000000
0.000000 0.517173 0.000000
0.000000 0.508233 0.000000
0.000000 0.491468 0.000000
0.000000 0.479827 0.000000
0.000000 0.463944 0.000000
0.000000 0.442273 0.000000
0.000000 0.412707 0.000000
0.000000 0.372368 0.000000
0.000000 0.317330 0.000000
0.000000 0.242238 0.000000
0.000000 0.139785 0.000000
0.005639 0.505639 0.000000
0.011278 0.511278 0.000000
0.016917 0.516917 0.000000
0.022556 0.522556 0.000000
0.028195 0.528195 0.000000
0.033835 0.533835 0.000000
0.039474 0.539474 0.000000
0.045113 0.545113 0.000000
0.050752 0.550752 0.000000
0.056391 0.556391 0.000000
0.062030 0.562030 0.000000
0.067669 0.567669 0.000000
0.073308 0.573308 0.000000
0.078947 0.578947 0.000000
0.084586 0.584586 0.000000
0.090226 0.590226 0.000000
0.095865 0.595865 0.000000
0.101504 0.601504 0.000000
0.107143 0.607143 0.000000
0.112782 0.612782 0.000000
0.118421 0.618421 0.000000
0.124060 0.624060 0.000000
0.129699 0.629699 0.000000
0.135338 0.635338 0.000000
0.140977 0.640977 0.000000
0.146617 0.646617 0.000000
0.152256 0.652256 0.000000
0.157895 0.657895 0.000000
0.163534 0.663534 0.000000
0.169173 0.669173 0.000000
0.174812 0.674812 0.000000
0.180451 0.680451 0.000000
0.186090 0.686090 0.000000
0.191729 0.691729 0.000000
0.197368 0.697368 0.000000
0.203008 0.703008 0.000000
0.208647 0.708647 0.000000
0.214286 0.714286 0.000000
0.219925 0.719925 0.000000
0.225564 0.725564 0.000000
0.231203 0.731203 0.000000
0.236842 0.736842 0.000000
0.242481 0.742481 0.000000
0.248120 0.748120 0.000000
0.253759 0.753759 0.000000
0.259398 0.759398 0.000000
0.265038 0.765038 0.000000
0.270677 0.770677 0.000000
0.276316 0.776316 0.000000
0.281955 0.781955 0.000000
0.287594 0.787594 0.000000
0.293233 0.793233 0.000000
0.298872 0.798872 0.000000
0.304511 0.804511 0.000000
0.310150 0.810150 0.000000
0.315789 0.815789 0.000000
0.321429 0.821429 0.000000
0.327068 0.827068 0.000000
0.332707 0.832707 0.000000
0.338346 0.838346 0.000000
0.343985 0.843985 0.000000
0.349624 0.849624 0.000000
0.355263 0.855263 0.000000
0.360902 0.860902 0.000000
0.366541 0.866541 0.000000
0.372180 0.872180 0.000000
0.377820 0.877820 0.000000
0.383459 0.883459 0.000000
0.389098 0.889098 0.000000
0.394737 0.894737 0.000000
0.400376 0.900376 0.000000
0.406015 0.906015 0.000000
0.411654 0.911654 0.000000
0.417293 0.917293 0.000000
0.422932 0.922932 0.000000
0.428571 0.928571 0.000000
0.434211 0.934211 0.000000
0.439850 0.939850 0.000000
0.445489 0.945489 0.000000
0.451128 0.951128 0.000000
0.456767 0.956767 0.000000
0.462406 0.962406 0.000000
0.468045 0.968045 0.000000
0.473684 0.973684 0.000000
0.479323 0.979323 0.000000
0.484962 0.984962 0.000000
0.490602 0.990602 0.000000
0.496241 0.996241 0.000000
0.501880 1.001880 0.000000
0.507519 1.007519 0.000000
0.513158 1.013158 0.000000
0.518797 1.018797 0.000000
0.524436 1.024436 0.000000
0.530075 1.030075 0.000000
0.535714 1.035714 0.000000
0.541353 1.041353 0.000000
0.546992 1.046992 0.000000
0.552632 1.052632 0.000000
0.558271 1.058271 0.000000
0.563910 1.063910 0.000000
0.569549 1.069549 0.000000
0.575188 1.075188 0.000000
0.580827 1.080827 0.000000
0.586466 1.086466 0.000000
0.592105 1.092105 0.000000
0.597744 1.097744 0.000000
0.603383 1.103383 0.000000
0.609023 1.109023 0.000000
0.614662 1.114662 0.000000
0.620301 1.120301 0.000000
0.625940 1.125940 0.000000
0.631579 1.131579 0.000000
0.637218 1.137218 0.000000
0.642857 1.142857 0.000000
0.648496 1.148496 0.000000
0.654135 1.154135 0.000000
0.659774 1.159774 0.000000
0.665414 1.165414 0.000000
0.671053 1.171053 0.000000
0.676692 1.176692 0.000000
0.682331 1.182331 0.000000
0.687970 1.187970 0.000000
0.693609 1.193609 0.000000
0.699248 1.199248 0.000000
0.704887 1.204887 0.000000
0.710526 1.210526 0.000000
0.716165 1.216165 0.000000
0.721805 1.221805 0.000000
0.727444 1.227444 0.000000
0.733083 1.233083 0.000000
0.738722 1.238722 0.000000
0.744361 1.244361 0.000000
0.750000 1.250000 0.000000
0.755639 1.255639 0.000000
0.761278 1.261278 0.000000
0.766917 1.266917 0.000000
0.772556 1.272556 0.000000
0.778195 1.278195 0.000000
0.783835 1.283835 0.000000
0.789474 1.289474 0.000000
0.795113 1.295113 0.000000
0.800752 1.300752 0.000000
0.806391 1.306391 0.000000
0.812030 1.312030 0.000000
0.817669 1.317669 0.000000
0.823308 1.323308 0.000000
0.828947 1.328947 0.000000
0.834586 1.334586 0.000000
0.840226 1.340226 0.000000
0.845865 1.345865 0.000000
0.851504 1.351504 0.000000
0.857143 1.357143 0.000000
0.862782 1.362782 0.000000
0.868421 1.368421 0.000000
0.874060 1.374060 0.000000
0.879699 1.379699 0.000000
0.885338 1.385338 0.000000
0.890977 1.390977 0.000000
0.896617 1.396617 0.000000
0.902256 1.402256 0.000000
0.907895 1.407895 0.000000
0.913534 1.413534 0.000000
0.919173 1.419173 0.000000
0.924812 1.424812 0.000000
0.930451 1.430451 0.000000
0.936090 1.436090 0.000000
0.941729 1.441729 0.000000
0.947368 1.447368 0.000000
0.953008 1.453008 0.000000
0.958647 1.458647 0.000000
0.964286 1.464286 0.000000
0.969925 1.469925 0.000000
0.975564 1.475564 0.000000
0.981203 1.481203 0.000000
0.986842 1.486842 0.000000
0.992481 1.492481 0.000000
0.998120 1.498120 0.000000
1.003759 1.503759 0.000000
1.009398 1.509398 0.000000
1.015038 1.515038 0.000000
1.020677 1.520677 0.000000
1.026316 1.526316 0.000000
1.031955 1.531955 0.000000
1.037594 1.537594 0.000000
1.043233 1.543233 0.000000
1.048872 1.548872 0.000000
1.054511 1.554511 0.000000
1.060150 1.560150 0.000000
1.065789 1.565789 0.000000
1.071429 1.571429 0.000000
1.077068 1.577068 0.000000
1.082707 1.582707 0.000000
1.088346 1.588346 0.000000
1.093985 1.593985 0.000000
1.099624 1.599624 0.000000
1.105263 1.605263 0.000000
1.110902 1.610902 0.000000
1.116541 1.616541 0.000000
1.122180 1.622180 0.000000
1.127820 1.627820 0.000000
1.133459 1.633459 0.000000
1.139098 1.639098 0.000000
1.144737 1.644737 0.000000
1.150376 1.650376 0.000000
1.156015 1.656015 0.000000
1.161654 1.661654 0.000000
1.167293 1.667293 0.000000
1.172932 1.672932 0.000000
1.178571 1.678571 0.000000
1.184211 1.684211 0.000000
1.189850 1.689850 0.000000
1.195489 1.695489 0.000000
1.201128 1.701128 0.000000
1.206767 1.706767 0.000000
1.212406 1.712406 0.000000
1.218045 1.718045 0.000000
1.223684 1.723684 0.000000
1.229323 1.729323 0.000000
1.234962 1.734962 0.000000
1.240602 1.740602 0.000000
1.246241 1.746241 0.000000
1.251880 1.751880 0.000000
1.257519 1.757519 0.000000
1.263158 1.763158 0.000000
1.268797 1.768797 0.000000
1.274436 1.774436 0.000000
1.280075 1.780075 0.000000
1.285714 1.785714 0.000000
1.291353 1.791353 0.000000
1.296992 1.796992 0.000000
1.302632 1.802632 0.000000
1.308271 1.808271 0.000000
1.313910 1.813910 0.000000
1.319549 1.819549 0.000000
1.325188 1.825188 0.000000
1.330827 1.830827 0.000000
1.336466 1.836466 0.000000
1.342105 1.842105 0.000000
1.347744 1.847744 0.000000
1.353383 1.853383 0.000000
1.359023 1.859023 0.000000
1.364662 1.864662 0.000000
1.370301 1.870301 0.000000
1.375940 1.875940 0.000000
1.381579 1.881579 0.000000
1.387218 1.887218 0.000000
1.392857 1.892857 0.000000
[...]
POINT_DATA 5816
SCALARS UX float 1
LOOKUP_TABLE default
-0.025427
0.040028
-0.009060
-0.072255
-0.051774
0.026472
0.008896
-0.018326
-0.009925
-0.000612
0.009284
0.019607
0.029892
0.049814
0.058589
0.066164
0.072544
0.077653
0.081137
0.083533
0.083987
0.082688
0.079534
0.074262
0.067677
0.060297
0.052812
0.045861
0.039607
0.034315
0.029819
0.026127
0.023040
0.020482
0.018362
0.016579
0.015091
0.013834
0.012767
0.011856
0.011079
0.010409
0.009830
0.009330
0.008452
0.007930
0.007316
0.006608
0.005785
0.004867
0.003824
0.002702
0.001462
0.000148
-0.001220
-0.002592
-0.003930
-0.005242
-0.006287
-0.007315
-0.008201
-0.008787
-0.019730
-0.029685
-0.038826
-0.047388
-0.055562
-0.063895
-0.071537
-0.070037
-0.067755
-0.065356
-0.063341
-0.061921
-0.061445
-0.062081
-0.063741
-0.066259
-0.069586
-0.073364
-0.077424
-0.081611
-0.085808
-0.089955
-0.093921
-0.097690
-0.101260
-0.104623
-0.107761
-0.110681
-0.113385
-0.115892
-0.118091
-0.120023
-0.121711
-0.123184
-0.124466
-0.125604
-0.126653
-0.127629
-0.128325
-0.128691
-0.128712
-0.128272
-0.127966
-0.126598
-0.123293
-0.121246
-0.115213
-0.105592
-0.082757
-0.032358
-0.017755
-0.015073
-0.013804
-0.013588
-0.014343
-0.015945
-0.018239
-0.021477
-0.050942
-0.050031
-0.046112
-0.045882
-0.045949
-0.049109
-0.046884
-0.045849
-0.052979
-0.052031
-0.050706
-0.051467
-0.052552
-0.051966
-0.052152
-0.050549
-0.051255
-0.051180
-0.051637
-0.049446
-0.048513
-0.049480
-0.044051
-0.043842
-0.043402
-0.058682
-0.056979
-0.058500
-0.057318
-0.056831
-0.057021
-0.056567
-0.057843
-0.057731
-0.057563
-0.058087
-0.057126
-0.055643
-0.054901
-0.055020
-0.054534
-0.053708
-0.053157
-0.053541
-0.053872
-0.054019
-0.052834
-0.052425
-0.051368
-0.052193
-0.049711
-0.049730
-0.048871
-0.047562
-0.047542
-0.045183
-0.044471
-0.042340
-0.039892
-0.037691
-0.038239
-0.038097
-0.036881
-0.034847
-0.036883
-0.035631
-0.032713
-0.031688
-0.021507
-0.022875
-0.022510
-0.016074
-0.017275
-0.026104
-0.027122
-0.034534
-0.034455
-0.020804
-0.025505
-0.039294
-0.039658
-0.038842
-0.037100
-0.037343
-0.031253
-0.028338
-0.030705
-0.029878
-0.043401
-0.042769
-0.041291
-0.042083
-0.041685
-0.041325
-0.040905
-0.040419
-0.039345
-0.038349
-0.031786
-0.031362
-0.029810
-0.030585
-0.029969
-0.027824
-0.027234
-0.026136
-0.025436
-0.025136
-0.032187
-0.031769
-0.031829
-0.031137
-0.030328
-0.029292
-0.028726
-0.026921
-0.027664
-0.025709
-0.023793
-0.023845
-0.024137
-0.023520
-0.023195
-0.022646
-0.021447
-0.022917
-0.022078
-0.021762
-0.021113
-0.021093
-0.020951
-0.019087
-0.019253
-0.019034
-0.018335
-0.018011
-0.017959
-0.016519
-0.015231
-0.014493
-0.014141
-0.013775
-0.013263
-0.012418
-0.010893
-0.010796
-0.009272
-0.014970
-0.012691
-0.012173
-0.011377
-0.010201
-0.009052
-0.008607
-0.007194
-0.007268
-0.007828
-0.006026
-0.005420
-0.004098
-0.003452
-0.002498
-0.001832
-0.001330
-0.000635
-0.000403
0.000060
0.001021
0.002335
0.002723
0.003927
0.005068
0.005329
0.006221
0.006184
0.006941
0.007163
0.003277
0.003445
0.004254
0.005411
0.007876
0.006824
0.008992
0.009546
0.009648
0.010787
0.010955
0.011179
0.011118
0.012005
0.011648
0.010639
0.011469
0.011360
0.012295
0.014181
0.013718
0.014815
0.015032
0.015150
0.015865
0.016573
0.016912
0.017316
0.017918
0.010948
0.011995
0.009062
0.007787
0.008876
0.010744
0.010904
0.010640
0.011179
0.011104
0.011525
0.011547
0.012356
0.013892
0.013470
0.015821
0.015678
0.015868
0.016812
0.020281
0.021427
0.021316
0.022069
0.023132
0.023838
0.023566
0.024849
0.024192
0.024875
0.026187
0.025994
0.026674
0.027702
0.028829
0.028286
0.017402
0.017854
0.018117
0.019341
0.019284
0.020089
0.020100
0.020789
0.020861
0.021794
0.021920
0.022963
0.022204
0.023096
0.023863
0.023587
0.023144
0.023487
0.023662
0.022573
0.023990
0.024961
0.025190
0.025295
0.025550
0.025266
0.024786
0.024323
0.023835
0.023300
0.022840
0.022389
0.021987
0.021607
0.021241
0.020908
0.020602
0.020303
0.019996
0.019716
0.019441
0.019179
0.018932
0.018682
0.018443
0.018208
0.017935
0.017675
0.017424
0.017182
0.016947
0.016718
0.016501
0.016284
0.016074
0.015866
0.015660
0.015458
0.015258
0.015059
0.014859
0.014661
0.014467
0.014272
0.014077
0.013886
0.013701
0.013512
0.013323
0.013138
0.012955
0.012773
0.012590
0.012412
0.012236
0.012059
0.011891
0.011721
0.011555
0.011392
0.011233
0.011078
0.010923
0.010775
0.010629
0.010487
0.010352
0.010223
0.010096
0.009975
0.009860
0.009750
0.009646
0.009548
0.009455
0.009369
0.009290
0.009216
0.009149
0.009087
0.009034
0.008986
0.008945
0.008911
0.008883
0.008863
0.008847
0.008839
0.008838
0.008844
0.008854
0.008872
-0.007273
-0.007994
-0.009196
-0.005299
-0.027693
-0.027855
-0.029039
-0.029148
-0.017130
-0.015992
-0.014599
-0.035179
-0.037496
-0.035854
-0.038052
-0.032649
-0.030802
-0.030812
0.008703
0.009400
0.008628
0.009335
-0.056821
-0.055416
-0.056210
-0.055907
-0.033171
0.008194
0.009089
0.007665
0.008031
-0.050796
-0.050236
-0.049155
-0.049336
-0.040793
-0.040855
-0.042043
-0.041774
-0.045456
-0.043506
-0.043680
0.001318
0.000349
0.002496
0.001273
-0.044804
-0.030927
-0.032081
-0.031039
-0.032031
-0.012684
-0.014311
-0.013371
-0.011874
-0.011100
-0.012252
-0.011311
-0.084348
-0.083677
-0.084992
-0.083687
-0.013579
-0.039986
-0.042086
-0.090543
-0.090169
-0.089686
-0.091060
-0.089644
-0.086368
-0.089979
-0.041282
-0.023466
-0.025126
-0.026265
-0.111671
-0.111654
-0.110718
-0.110615
0.004444
0.002926
0.003662
0.002140
-0.042029
-0.044566
-0.045914
-0.039423
-0.110666
-0.109795
-0.107376
-0.106399
-0.105794
-0.105342
-0.114033
-0.114448
-0.113410
-0.115067
-0.102788
-0.101067
-0.102459
-0.101288
-0.124312
-0.124207
-0.125212
-0.123431
-0.000716
0.001655
0.000255
-0.037610
-0.083061
-0.033600
-0.045623
-0.043543
-0.046205
-0.043055
-0.090693
-0.092250
-0.048817
-0.048930
-0.049997
-0.092821
-0.072509
-0.072299
-0.071620
-0.044214
-0.041527
-0.040863
-0.038362
-0.042650
-0.041236
-0.044811
-0.039359
-0.044745
-0.043058
-0.045364
-0.043368
-0.053180
-0.051738
-0.050490
-0.048655
-0.073368
-0.057329
-0.056301
-0.056590
0.006994
0.007616
0.007659
0.006792
-0.056242
-0.012463
-0.013466
-0.013858
0.008268
0.008323
-0.031541
-0.031533
-0.029100
-0.033569
-0.044551
-0.049703
-0.048094
-0.013398
-0.109189
-0.107575
-0.109966
-0.107639
-0.025259
-0.026097
-0.023353
-0.024755
-0.070179
-0.080860
-0.012002
-0.036842
-0.038176
-0.027024
-0.022933
-0.021005
-0.043931
-0.044699
-0.043380
-0.021084
-0.088689
-0.089367
-0.074572
0.003259
0.002827
0.004255
0.005003
-0.093676
-0.023521
-0.010640
-0.015609
-0.002495
-0.003878
-0.002241
-0.022546
-0.023949
-0.023742
-0.017736
-0.019795
-0.019706
-0.025033
-0.037118
-0.027871
-0.023682
-0.058605
-0.057610
-0.059837
-0.057032
-0.015912
-0.013833
-0.012333
-0.018265
-0.020741
0.001117
0.001498
0.002527
0.004153
0.005043
0.006479
-0.053765
-0.052553
-0.063852
-0.074393
-0.064319
-0.067796
0.008788
0.007707
0.009029
0.008215
0.007869
0.008596
0.008349
0.006655
-0.040922
-0.039337
-0.042542
-0.008149
-0.009866
-0.010630
-0.103239
-0.100196
-0.098379
-0.087521
-0.100383
-0.095837
-0.094309
-0.086041
-0.005774
-0.006655
-0.004989
0.010564
0.009853
-0.040010
-0.005115
0.007538
0.006475
0.006996
-0.051059
-0.059868
-0.067242
-0.067845
-0.030825
-0.030497
-0.028421
0.005779
0.007756
0.005594
-0.004176
-0.004967
-0.028224
-0.003544
-0.042782
-0.048751
-0.040384
0.006362
0.007213
0.005558
0.006125
0.007998
0.007784
0.006954
-0.047600
-0.054454
-0.052814
0.005259
0.007367
0.007726
0.004554
-0.036225
-0.034876
-0.034701
-0.052449
-0.056111
-0.065253
-0.054902
-0.001510
0.000344
-0.001104
-0.064068
0.003734
-0.033479
-0.032466
0.007539
0.008869
0.009133
0.007360
-0.036046
-0.033564
-0.034432
-0.000000
0.001660
0.001186
-0.028982
0.015766
0.017086
0.020211
0.003087
0.013553
-0.058114
-0.058289
-0.059194
-0.058703
-0.027003
-0.022729
-0.028304
-0.009799
-0.011172
-0.010163
-0.010225
-0.054665
-0.055686
-0.054612
-0.055601
-0.017946
-0.053837
-0.054439
-0.031831
-0.032346
-0.021011
-0.037107
-0.036672
-0.053344
0.002414
0.000473
0.001213
0.007597
0.005010
-0.000380
-0.075925
-0.076354
-0.077172
-0.001799
-0.003779
0.004627
-0.001970
-0.070058
-0.071129
-0.070552
-0.070573
0.005718
0.007047
0.005750
-0.040670
-0.042272
-0.040543
-0.021508
-0.020257
-0.020443
-0.041899
-0.019279
-0.079126
-0.080192
-0.079214
-0.080470
0.008315
-0.104805
-0.104609
-0.103141
-0.103093
-0.091190
-0.093928
-0.106688
-0.107318
-0.106339
-0.027631
-0.029327
-0.107639
-0.015680
-0.011097
-0.012231
0.008891
0.009724
0.010926
0.006801
-0.058047
-0.057102
-0.058070
-0.012387
-0.026018
-0.029500
-0.028197
-0.031226
0.007008
0.005479
0.009204
0.008747
0.010219
-0.047289
-0.047523
0.003560
-0.059601
-0.058090
-0.059030
-0.058979
-0.072873
-0.085819
-0.093854
-0.098920
-0.094012
-0.094218
-0.095187
0.016692
0.013423
0.014991
0.007027
0.008454
0.007988
-0.012505
-0.013256
-0.011011
-0.068769
-0.069311
-0.067985
-0.068143
-0.012121
-0.060145
-0.061292
-0.061265
-0.039082
-0.018233
-0.018054
-0.016967
-0.002346
-0.000478
-0.001079
-0.073153
-0.074266
-0.073722
-0.001280
-0.001943
-0.000669
-0.060836
-0.060051
-0.051371
-0.050555
-0.032278
-0.037418
-0.036448
-0.077570
-0.076604
-0.076596
-0.077288
-0.094762
-0.088115
-0.090865
-0.073787
-0.018825
-0.020213
-0.019801
-0.021309
0.005209
0.004375
0.003684
0.018731
0.018689
-0.052473
-0.053041
-0.048447
-0.023538
-0.097919
-0.071567
-0.073257
0.010901
0.009436
0.010486
0.010506
-0.105777
-0.105730
-0.104298
-0.105962
-0.107164
0.016938
0.017829
0.013750
-0.070960
-0.046047
-0.046121
-0.047213
-0.096870
-0.101486
-0.090230
-0.086146
-0.083119
-0.046877
-0.035461
-0.034881
-0.037079
-0.035387
-0.054995
-0.054012
-0.055469
0.018231
0.013978
-0.112763
-0.114161
-0.113792
-0.062864
-0.061615
-0.062862
-0.061614
-0.053250
-0.053288
-0.052456
0.010083
0.009689
-0.123305
-0.122527
-0.105213
-0.103186
-0.106091
0.004561
0.002639
0.006780
-0.037739
-0.031254
-0.030970
0.002933
0.004004
0.005238
-0.043059
-0.042339
-0.041676
0.004876
-0.030534
-0.031056
-0.039977
-0.080678
-0.080837
-0.069590
0.010375
0.009860
-0.055440
-0.054568
-0.056335
-0.054797
-0.055929
-0.054481
0.010282
-0.052158
-0.051566
-0.053183
-0.053203
-0.051404
-0.034642
-0.031366
-0.051876
-0.104193
-0.104389
-0.083835
-0.092205
-0.087146
-0.091471
-0.054218
-0.092655
-0.046320
-0.045207
-0.045085
-0.045853
-0.045494
-0.047412
0.009257
0.009192
0.008287
0.008526
-0.101736
-0.100401
-0.100832
0.019893
0.021557
0.018033
-0.100755
-0.092432
0.016844
0.015950
0.015706
-0.068591
-0.084971
0.014591
-0.033604
0.004942
0.002971
-0.090332
-0.091217
-0.090493
-0.091693
-0.089031
-0.089179
-0.074694
-0.077311
-0.073970
-0.077434
-0.111000
-0.111634
-0.112093
0.004427
0.003023
0.006606
-0.071473
-0.074537
-0.069637
-0.011882
-0.015982
-0.035876
-0.018382
-0.015390
-0.023261
0.012274
-0.087170
-0.100739
-0.038268
-0.036703
0.010766
0.013278
0.012158
-0.040866
-0.043263
-0.033239
-0.033084
-0.094626
-0.075761
0.006547
0.004560
0.006179
0.011087
0.011065
-0.006843
-0.007868
-0.004844
0.003770
0.009056
0.010756
-0.057516
-0.057859
-0.060281
-0.066931
-0.057368
-0.005386
-0.081034
-0.080396
-0.079783
-0.067545
-0.070500
-0.072097
-0.073851
-0.027690
-0.026554
-0.028768
-0.079463
-0.041481
-0.057221
-0.055165
-0.063644
-0.086592
-0.088484
-0.087825
-0.087202
0.010698
0.009618
0.009819
-0.010926
-0.009362
-0.010576
0.010663
-0.009273
-0.011095
-0.012733
-0.031168
-0.036297
-0.034597
0.014768
0.012683
0.015077
0.007943
-0.079592
-0.077234
-0.083235
-0.080043
-0.080318
-0.071233
-0.068685
0.011290
-0.019417
-0.019628
-0.117276
-0.118353
-0.113680
-0.066840
-0.068046
-0.037418
-0.038547
-0.037277
-0.038462
0.002349
0.000650
0.000717
-0.001012
-0.017963
-0.087012
0.012498
0.011334
0.011452
-0.117553
-0.118782
-0.115779
-0.074122
-0.070712
-0.072979
-0.076362
-0.077541
0.004710
0.005588
0.006269
-0.085949
-0.087887
-0.090568
-0.090936
-0.023013
-0.021886
-0.022703
-0.021211
-0.005187
-0.006858
-0.005617
-0.006055
-0.017536
-0.010682
-0.015792
0.010041
0.011595
-0.003885
-0.084903
-0.085043
-0.067247
-0.067218
-0.065867
-0.065165
0.001549
0.003489
0.002924
0.005004
-0.000513
0.000164
-0.040013
-0.001857
-0.025301
-0.025398
-0.026807
-0.025450
-0.024634
-0.027084
-0.025852
-0.024063
-0.026179
-0.097008
-0.096737
-0.097767
-0.024129
-0.097188
-0.096012
-0.095783
-0.077085
-0.072435
-0.056332
-0.054883
-0.061516
-0.040011
-0.072164
-0.073354
-0.074300
-0.071944
-0.062478
-0.051167
-0.052048
-0.005814
0.003083
0.001056
-0.050490
-0.051982
-0.050644
-0.051792
0.008287
0.009112
0.007658
0.009192
-0.036037
-0.021455
-0.027001
-0.002743
-0.001010
-0.017567
-0.011384
-0.009115
-0.023514
-0.022269
-0.022354
-0.022919
-0.037452
-0.033395
-0.035871
-0.027694
-0.065720
-0.067673
-0.067714
-0.069229
-0.066748
-0.068228
-0.058110
0.013656
0.013613
-0.008895
-0.008247
-0.009745
-0.007340
-0.015431
-0.016040
-0.016867
-0.014806
-0.013903
-0.015400
0.006869
-0.085905
-0.086768
-0.085450
-0.062473
-0.055747
-0.059777
-0.051422
-0.068944
-0.063765
-0.069144
-0.061471
-0.068434
-0.071986
-0.005095
-0.001859
-0.004711
0.009321
0.007863
0.000072
-0.000451
-0.002010
-0.000144
-0.002137
-0.052801
-0.052826
-0.051810
-0.053783
-0.086311
-0.066462
-0.068042
-0.042958
-0.042961
-0.051670
-0.014905
-0.014001
-0.013784
-0.014889
-0.015223
-0.024746
-0.069579
-0.068246
-0.044065
-0.042662
-0.016714
-0.013998
-0.020946
-0.019241
-0.093661
-0.094036
-0.041678
-0.032697
-0.045633
-0.022635
-0.023093
-0.024180
-0.043983
-0.031881
-0.027754
-0.028808
-0.030853
-0.032251
-0.030528
-0.053407
-0.053595
-0.049984
-0.070408
-0.033580
-0.049660
-0.037646
-0.039009
-0.047806
-0.012632
-0.014444
-0.063308
-0.064548
-0.063354
-0.064169
-0.047768
-0.045406
-0.058262
-0.051921
-0.069074
-0.055765
-0.062071
-0.059673
-0.017760
-0.019010
-0.019779
-0.019416
-0.018347
-0.020521
-0.019623
-0.016805
-0.021732
-0.069948
-0.070557
-0.069019
-0.069429
-0.068655
-0.069456
-0.038267
-0.043676
-0.030713
-0.046128
-0.046140
-0.048160
-0.063222
-0.062089
-0.061852
-0.060505
-0.009160
-0.007308
-0.014830
-0.070041
-0.070847
-0.123624
-0.117964
-0.010071
-0.004721
-0.000369
-0.081538
-0.082352
-0.083099
-0.094960
-0.080230
-0.079242
-0.076433
-0.010713
-0.011692
-0.012959
-0.061304
-0.053339
-0.042916
-0.042506
-0.043807
-0.049352
-0.031357
-0.029935
-0.022940
-0.033061
-0.046755
-0.046136
-0.047012
-0.045157
-0.045040
-0.007352
-0.008461
-0.005763
-0.006892
-0.005170
-0.003281
-0.014403
-0.012568
-0.014360
-0.012437
-0.012862
-0.010050
-0.015915
0.002515
0.003698
0.007909
0.007060
0.007392
0.008608
0.009198
-0.008724
-0.010936
0.006275
0.004613
-0.063084
-0.062289
-0.063719
-0.012323
-0.009320
-0.057973
-0.058384
-0.039834
-0.024195
0.016802
0.007879
0.006818
0.005603
-0.007076
-0.007660
-0.008671
-0.008800
0.004104
-0.056701
0.001883
-0.069366
-0.064995
-0.080496
-0.057447
-0.041787
-0.076791
-0.079792
-0.112131
-0.120127
-0.107377
-0.020822
-0.021726
-0.020503
-0.077081
-0.070902
-0.000673
-0.000358
-0.021417
-0.021159
-0.038859
-0.037721
-0.048815
-0.053598
-0.055858
-0.002365
-0.000351
-0.000044
-0.118781
-0.118553
-0.119617
-0.003093
0.000673
-0.006216
-0.005347
-0.038467
-0.035498
-0.046525
-0.085814
-0.045087
0.004160
0.012005
0.010827
-0.017542
-0.016681
-0.004072
-0.003950
-0.016017
-0.017466
-0.016331
0.015365
-0.041686
-0.039749
-0.040560
0.014383
-0.040669
-0.039657
-0.041037
-0.005759
-0.044634
-0.032769
-0.032306
-0.031515
-0.103650
-0.078459
-0.108079
-0.033306
-0.031592
-0.057267
-0.069946
-0.120394
-0.119358
-0.124005
-0.033454
-0.085148
-0.127946
-0.127579
-0.126704
-0.051611
-0.044593
-0.050006
0.010352
0.010395
-0.127498
-0.115473
-0.047448
-0.048246
-0.004313
-0.006639
-0.004379
-0.020039
-0.035119
-0.034677
-0.044800
-0.031137
-0.033024
-0.033861
0.011728
0.012914
0.012624
-0.038633
-0.038499
-0.048059
-0.049629
-0.049552
-0.051121
-0.018537
-0.008966
-0.022453
-0.039711
-0.127104
-0.127796
-0.126879
-0.086884
-0.086450
-0.089504
-0.080017
-0.089635
-0.091420
-0.092483
-0.083132
-0.081897
-0.082629
-0.085047
-0.036507
0.005414
-0.002983
-0.006650
-0.033508
-0.009059
0.010540
0.010209
0.012952
-0.050348
-0.051235
0.009126
0.011288
0.011662
-0.074315
-0.074578
-0.047075
-0.003282
-0.040361
-0.006296
-0.125906
-0.125867
-0.125843
0.004688
0.003234
0.007062
0.006436
-0.002924
0.016757
0.005520
-0.057488
0.007749
0.007791
0.008290
0.008265
0.008417
0.010076
0.009599
0.011272
-0.025111
0.007557
0.008734
0.005183
-0.074413
-0.069245
-0.066418
0.003819
0.002133
0.014976
-0.102973
-0.103174
-0.079967
-0.112867
0.013583
-0.035695
-0.002194
-0.000723
-0.001297
0.010147
0.008916
0.008638
0.007153
-0.019097
-0.020785
-0.090233
-0.091263
-0.045473
-0.091047
0.011382
0.011439
0.012721
-0.092141
-0.118874
-0.123665
0.005789
0.015559
-0.123308
-0.122254
-0.026308
-0.027761
-0.026911
-0.028716
-0.004123
-0.007817
-0.004432
-0.005468
0.012409
0.008267
-0.054090
-0.126165
-0.122046
-0.091564
-0.088104
-0.090929
-0.088558
-0.087652
-0.081331
-0.084581
-0.075964
-0.085217
-0.078676
-0.121393
-0.047714
-0.048465
-0.048101
-0.120895
-0.119261
-0.120153
-0.118497
-0.118014
-0.074954
-0.076369
-0.074590
-0.077392
-0.109578
-0.107922
-0.108734
-0.109032
-0.090938
-0.102582
-0.103867
-0.101191
-0.052251
-0.050994
-0.049340
-0.117318
-0.117424
-0.117144
-0.125033
-0.125096
-0.124254
-0.107917
-0.108929
-0.106815
-0.105983
-0.107836
-0.120971
-0.119536
-0.120610
-0.113973
-0.112836
-0.115629
-0.114187
0.017096
-0.112742
-0.112510
-0.033357
-0.036098
-0.097999
-0.097186
-0.107456
-0.108482
-0.096322
-0.112511
-0.102133
-0.055841
-0.120297
-0.119215
-0.056874
-0.084534
-0.084460
-0.085957
-0.086603
-0.085347
-0.107867
-0.109686
-0.105847
-0.026839
-0.024879
-0.025101
0.016877
-0.080076
-0.079182
-0.080667
-0.078966
-0.022968
-0.025303
-0.027530
-0.115403
-0.116435
-0.115088
-0.118391
-0.119767
-0.116319
-0.102019
-0.075772
-0.083392
0.017176
-0.107142
-0.105540
-0.122747
-0.104578
-0.118046
-0.118786
-0.121630
-0.113398
-0.115379
-0.109569
-0.111191
-0.110059
-0.112023
-0.034015
-0.033318
-0.039319
-0.093849
-0.094680
-0.040933
-0.093292
-0.092600
-0.094046
-0.091777
-0.093127
-0.091807
-0.120919
-0.119603
-0.114653
-0.022260
-0.101574
0.012222
0.009914
-0.093937
-0.095285
-0.094725
-0.113073
-0.113830
-0.114794
-0.111842
-0.083640
-0.083442
-0.082946
-0.064925
-0.063273
-0.065525
-0.063753
-0.062009
-0.096982
-0.097011
-0.098244
0.008624
0.008434
-0.116660
-0.115817
0.008610
-0.039835
-0.046342
-0.064771
-0.063639
-0.067196
-0.066895
-0.062341
-0.026600
-0.028798
-0.023307
-0.066120
-0.064006
0.000175
-0.002005
0.000020
-0.001472
-0.089440
-0.088416
-0.101623
-0.104499
-0.104784
-0.103047
-0.104059
-0.102356
-0.021980
-0.118698
-0.117469
-0.118273
-0.117500
-0.118487
-0.066800
-0.068792
-0.068943
-0.066602
-0.068105
-0.084493
-0.107840
-0.095917
-0.095993
-0.023695
-0.021609
-0.022928
-0.022609
-0.090468
-0.089547
-0.088651
-0.090654
-0.090011
0.010717
-0.041049
-0.039841
-0.043003
-0.040470
0.008284
0.008404
0.007539
-0.088114
-0.098494
-0.099594
-0.099130
-0.099204
-0.100438
-0.120043
-0.119148
-0.119551
0.008326
-0.111910
-0.112003
-0.103959
-0.104942
-0.116850
-0.121509
-0.123960
-0.103330
-0.086905
-0.086184
-0.088120
-0.089318
-0.088596
-0.086829
-0.037340
-0.036547
-0.111895
-0.110461
-0.110553
-0.106741
-0.105237
0.008879
0.008837
-0.036036
-0.036630
-0.035387
-0.034550
-0.091778
-0.090118
-0.093897
-0.093279
-0.095257
-0.067406
-0.064172
-0.063530
-0.067202
-0.096904
-0.099863
-0.098158
-0.098524
-0.100952
-0.049509
-0.050418
-0.053942
-0.053807
-0.009234
-0.008979
-0.010923
-0.013825
-0.004672
-0.110770
-0.109867
-0.108479
-0.108668
-0.109723
-0.110438
-0.112998
-0.116885
-0.115191
-0.115048
-0.114261
-0.111568
-0.048217
-0.050334
-0.037277
-0.068311
-0.067187
-0.068667
-0.067265
-0.110238
-0.111766
-0.112758
-0.112934
-0.018347
-0.099503
-0.100425
-0.078391
-0.084051
-0.097869
-0.105952
-0.111322
-0.101249
-0.088392
-0.081561
-0.105398
-0.112117
0.017528
0.017428
0.015922
-0.109450
-0.108325
-0.052628
-0.107365
-0.112965
-0.117088
-0.109037
-0.110449
-0.107823
-0.106215
-0.072112
-0.073300
-0.071586
-0.070454
-0.099222
-0.099482
-0.003084
-0.004846
-0.006069