# vtk DataFile Version 2.0
Test
ASCII
DATASET POLYDATA
POINTS 5816 float
0.000000 0.000000 0.000000
2.000000 0.000000 0.000000
2.000000 4.000000 0.000000
0.000000 4.000000 0.000000
0.000000 0.500000 0.000000
1.500000 2.000000 0.000000
2.000000 2.500000 0.000000
0.285714 0.000000 0.000000
0.571429 0.000000 0.000000
0.857143 0.000000 0.000000
1.142857 0.000000 0.000000
1.428571 0.000000 0.000000
1.714286 0.000000 0.000000
2.000000 0.275040 0.000000
2.000000 0.520628 0.000000
2.000000 0.739917 0.000000
2.000000 0.935725 0.000000
2.000000 1.110565 0.000000
2.000000 1.266683 0.000000
2.000000 1.406084 0.000000
2.000000 1.530557 0.000000
2.000000 1.641701 0.000000
2.000000 1.740944 0.000000
2.000000 1.829560 0.000000
2.000000 1.908686 0.000000
2.000000 1.979340 0.000000
2.000000 2.042428 0.000000
2.000000 2.098760 0.000000
2.000000 2.149060 0.000000
2.000000 2.193974 0.000000
2.000000 2.234078 0.000000
2.000000 2.269888 0.000000
2.000000 2.301863 0.000000
2.000000 2.330415 0.000000
2.000000 2.355908 0.000000
2.000000 2.378673 0.000000
2.000000 2.398999 0.000000
2.000000 2.417149 0.000000
2.000000 2.433355 0.000000
2.000000 2.447826 0.000000
2.000000 2.460747 0.000000
2.000000 2.472285 0.000000
2.000000 2.482587 0.000000
2.000000 2.491786 0.000000
2.000000 2.508637 0.000000
2.000000 2.519089 0.000000
2.000000 2.531737 0.000000
2.000000 2.547044 0.000000
2.000000 2.565568 0.000000
2.000000 2.587985 0.000000
2.000000 2.615113 0.000000
2.000000 2.647942 0.000000
2.000000 2.687670 0.000000
2.000000 2.735749 0.000000
2.000000 2.793931 0.000000
2.000000 2.864341 0.000000
2.000000 2.949549 0.000000
2.000000 3.052664 0.000000
2.000000 3.177450 0.000000
2.000000 3.328462 0.000000
2.000000 3.511210 0.000000
2.000000 3.732366 0.000000
1.714286 4.000000 0.000000
1.428571 4.000000 0.000000
1.142857 4.000000 0.000000
0.857143 4.000000 0.000000
0.571429 4.000000 0.000000
0.285714 4.000000 0.000000
0.000000 3.715673 0.000000
0.000000 3.453827 0.000000
0.000000 3.212685 0.000000
0.000000 2.990611 0.000000
0.000000 2.786096 0.000000
0.000000 2.597752 0.000000
0.000000 2.424300 0.000000
0.000000 2.264564 0.000000
0.000000 2.117457 0.000000
0.000000 1.981983 0.000000
0.000000 1.857220 0.000000
0.000000 1.742322 0.000000
0.000000 1.636510 0.000000
0.000000 1.539064 0.000000
0.000000 1.449323 0.000000
0.000000 1.366678 0.000000
0.000000 1.290567 0.000000
0.000000 1.220475 0.000000
0.000000 1.155925 0.000000
0.000000 1.096479 0.000000
0.000000 1.041733 0.000000
0.000000 0.991316 0.000000
0.000000 0.944886 0.000000
0.000000 0.902126 0.000000
0.000000 0.862748 0.000000
0.000000 0.826483 0.000000
0.000000 0.793086 0.000000
0.000000 0.762330 0.000000
0.000000 0.734005 0.000000
0.000000 0.707920 0.000000
0.000000 0.683898 0.000000
0.000000 0.661775 0.000000
0.000000 0.641402 0.000000
0.000000 0.622639 0.000000
0.000000 0.605360 0.000000
0.000000 0.589447 0.000000
0.000000 0.574792 0.000000
0.000000 0.561296 0.000000
0.000000 0.548868 0.000000
0.000000 0.537421 0.000000
0.000000 0.526881 0.000000
0.000000 0.517173 0.000000
0.000000 0.508233 0.000000
0.000000 0.491468 0.000000
0.000000 0.479827 0.000000
0.000000 0.463944 0.000000
0.000000 0.442273 0.000000
0.000000 0.412707 0.000000
0.000000 0.372368 0.000000
0.000000 0.317330 0.000000
0.000000 0.242238 0.000000
0.000000 0.139785 0.000000
0.005639 0.505639 0.000000
0.011278 0.511278 0.000000
0.016917 0.516917 0.000000
0.022556 0.522556 0.000000
0.028195 0.528195 0.000000
0.033835 0.533835 0.000000
0.039474 0.539474 0.000000
0.045113 0.545113 0.000000
0.050752 0.550752 0.000000
0.056391 0.556391 0.000000
0.062030 0.562030 0.000000
0.067669 0.567669 0.000000
0.073308 0.573308 0.000000
0.078947 0.578947 0.000000
0.084586 0.584586 0.000000
0.090226 0.590226 0.000000
0.095865 0.595865 0.000000
0.101504 0.601504 0.000000
0.107143 0.607143 0.000000
0.112782 0.612782 0.000000
0.118421 0.618421 0.000000
0.124060 0.624060 0.000000
0.129699 0.629699 0.000000
0.135338 0.635338 0.000000
0.140977 0.640977 0.000000
0.146617 0.646617 0.000000
0.152256 0.652256 0.000000
0.157895 0.657895 0.000000
0.163534 0.663534 0.000000
0.169173 0.669173 0.000000
0.174812 0.674812 0.000000
0.180451 0.680451 0.000000
0.186090 0.686090 0.000000
0.191729 0.691729 0.000000
0.197368 0.697368 0.000000
0.203008 0.703008 0.000000
0.208647 0.708647 0.000000
0.214286 0.714286 0.000000
0.219925 0.719925 0.000000
0.225564 0.725564 0.000000
0.231203 0.731203 0.000000
0.236842 0.736842 0.000000
0.242481 0.742481 0.000000
0.248120 0.748120 0.000000
0.253759 0.753759 0.000000
0.259398 0.759398 0.000000
0.265038 0.765038 0.000000
0.270677 0.770677 0.000000
0.276316 0.776316 0.000000
0.281955 0.781955 0.000000
0.287594 0.787594 0.000000
0.293233 0.793233 0.000000
0.298872 0.798872 0.000000
0.304511 0.804511 0.000000
0.310150 0.810150 0.000000
0.315789 0.815789 0.000000
0.321429 0.821429 0.000000
0.327068 0.827068 0.000000
0.332707 0.832707 0.000000
0.338346 0.838346 0.000000
0.343985 0.843985 0.000000
0.349624 0.849624 0.000000
0.355263 0.855263 0.000000
0.360902 0.860902 0.000000
0.366541 0.866541 0.000000
0.372180 0.872180 0.000000
0.377820 0.877820 0.000000
0.383459 0.883459 0.000000
0.389098 0.889098 0.000000
0.394737 0.894737 0.000000
0.400376 0.900376 0.000000
0.406015 0.906015 0.000000
0.411654 0.911654 0.000000
0.417293 0.917293 0.000000
0.422932 0.922932 0.000000
0.428571 0.928571 0.000000
0.434211 0.934211 0.000000
0.439850 0.939850 0.000000
0.445489 0.945489 0.000000
0.451128 0.951128 0.000000
0.456767 0.956767 0.000000
0.462406 0.962406 0.000000
0.468045 0.968045 0.000000
0.473684 0.973684 0.000000
0.479323 0.979323 0.000000
0.484962 0.984962 0.000000
0.490602 0.990602 0.000000
0.496241 0.996241 0.000000
0.501880 1.001880 0.000000
0.507519 1.007519 0.000000
0.513158 1.013158 0.000000
0.518797 1.018797 0.000000
0.524436 1.024436 0.000000
0.530075 1.030075 0.000000
0.535714 1.035714 0.000000
0.541353 1.041353 0.000000
0.546992 1.046992 0.000000
0.552632 1.052632 0.000000
0.558271 1.058271 0.000000
0.563910 1.063910 0.000000
0.569549 1.069549 0.000000
0.575188 1.075188 0.000000
0.580827 1.080827 0.000000
0.586466 1.086466 0.000000
0.592105 1.092105 0.000000
0.597744 1.097744 0.000000
0.603383 1.103383 0.000000
0.609023 1.109023 0.000000
0.614662 1.114662 0.000000
0.620301 1.120301 0.000000
0.625940 1.125940 0.000000
0.631579 1.131579 0.000000
0.637218 1.137218 0.000000
0.642857 1.142857 0.000000
0.648496 1.148496 0.000000
0.654135 1.154135 0.000000
0.659774 1.159774 0.000000
0.665414 1.165414 0.000000
0.671053 1.171053 0.000000
0.676692 1.176692 0.000000
0.682331 1.182331 0.000000
0.687970 1.187970 0.000000
0.693609 1.193609 0.000000
0.699248 1.199248 0.000000
0.704887 1.204887 0.000000
0.710526 1.210526 0.000000
0.716165 1.216165 0.000000
0.721805 1.221805 0.000000
0.727444 1.227444 0.000000
0.733083 1.233083 0.000000
0.738722 1.238722 0.000000
0.744361 1.244361 0.000000
0.750000 1.250000 0.000000
0.755639 1.255639 0.000000
0.761278 1.261278 0.000000
0.766917 1.266917 0.000000
0.772556 1.272556 0.000000
0.778195 1.278195 0.000000
0.783835 1.283835 0.000000
0.789474 1.289474 0.000000
0.795113 1.295113 0.000000
0.800752 1.300752 0.000000
0.806391 1.306391 0.000000
0.812030 1.312030 0.000000
0.817669 1.317669 0.000000
0.823308 1.323308 0.000000
0.828947 1.328947 0.000000
0.834586 1.334586 0.000000
0.840226 1.340226 0.000000
0.845865 1.345865 0.000000
0.851504 1.351504 0.000000
0.857143 1.357143 0.000000
0.862782 1.362782 0.000000
0.868421 1.368421 0.000000
0.874060 1.374060 0.000000
0.879699 1.379699 0.000000
0.885338 1.385338 0.000000
0.890977 1.390977 0.000000
0.896617 1.396617 0.000000
0.902256 1.402256 0.000000
0.907895 1.407895 0.000000
0.913534 1.413534 0.000000
0.919173 1.419173 0.000000
0.924812 1.424812 0.000000
0.930451 1.430451 0.000000
0.936090 1.436090 0.000000
0.941729 1.441729 0.000000
0.947368 1.447368 0.000000
0.953008 1.453008 0.000000
0.958647 1.458647 0.000000
0.964286 1.464286 0.000000
0.969925 1.469925 0.000000
0.975564 1.475564 0.000000
0.981203 1.481203 0.000000
0.986842 1.486842 0.000000
0.992481 1.492481 0.000000
0.998120 1.498120 0.000000
1.003759 1.503759 0.000000
1.009398 1.509398 0.000000
1.015038 1.515038 0.000000
1.020677 1.520677 0.000000
1.026316 1.526316 0.000000
1.031955 1.531955 0.000000
1.037594 1.537594 0.000000
1.043233 1.543233 0.000000
1.048872 1.548872 0.000000
1.054511 1.554511 0.000000
1.060150 1.560150 0.000000
1.065789 1.565789 0.000000
1.071429 1.571429 0.000000
1.077068 1.577068 0.000000
1.082707 1.582707 0.000000
1.088346 1.588346 0.000000
1.093985 1.593985 0.000000
1.099624 1.599624 0.000000
1.105263 1.605263 0.000000
1.110902 1.610902 0.000000
1.116541 1.616541 0.000000
1.122180 1.622180 0.000000
1.127820 1.627820 0.000000
1.133459 1.633459 0.000000
1.139098 1.639098 0.000000
1.144737 1.644737 0.000000
1.150376 1.650376 0.000000
1.156015 1.656015 0.000000
1.161654 1.661654 0.000000
1.167293 1.667293 0.000000
1.172932 1.672932 0.000000
1.178571 1.678571 0.000000
1.184211 1.684211 0.000000
1.189850 1.689850 0.000000
1.195489 1.695489 0.000000
1.201128 1.701128 0.000000
1.206767 1.706767 0.000000
1.212406 1.712406 0.000000
1.218045 1.718045 0.000000
1.223684 1.723684 0.000000
1.229323 1.729323 0.000000
1.234962 1.734962 0.000000
1.240602 1.740602 0.000000
1.246241 1.746241 0.000000
1.251880 1.751880 0.000000
1.257519 1.757519 0.000000
1.263158 1.763158 0.000000
1.268797 1.768797 0.000000
1.274436 1.774436 0.000000
1.280075 1.780075 0.000000
1.285714 1.785714 0.000000
1.291353 1.791353 0.000000
1.296992 1.796992 0.000000
1.302632 1.802632 0.000000
1.308271 1.808271 0.000000
1.313910 1.813910 0.000000
1.319549 1.819549 0.000000
1.325188 1.825188 0.000000
1.330827 1.830827 0.000000
1.336466 1.836466 0.000000
1.342105 1.842105 0.000000
1.347744 1.847744 0.000000
1.353383 1.853383 0.000000
1.359023 1.859023 0.000000
1.364662 1.864662 0.000000
1.370301 1.870301 0.000000
1.375940 1.875940 0.000000
1.381579 1.881579 0.000000
1.387218 1.887218 0.000000
1.392857 1.892857 0.000000
[...]
POINT_DATA 5816
SCALARS UX float 1
LOOKUP_TABLE default
-0.025397
0.027321
-0.010330
-0.061179
-0.033338
0.017094
0.003808
-0.019647
-0.012854
-0.005321
0.002644
0.010928
0.019181
0.035253
0.042363
0.048514
0.053711
0.057902
0.060808
0.062848
0.063348
0.062446
0.060054
0.055948
0.050765
0.044918
0.038963
0.033418
0.028417
0.024180
0.020578
0.017618
0.015143
0.013091
0.011391
0.009962
0.008769
0.007761
0.006906
0.006177
0.005555
0.005019
0.004555
0.004155
0.003453
0.003035
0.002544
0.001979
0.001322
0.000589
-0.000242
-0.001135
-0.002121
-0.003165
-0.004247
-0.005329
-0.006379
-0.007404
-0.008210
-0.009001
-0.009680
-0.010123
-0.018889
-0.026878
-0.034219
-0.041101
-0.047690
-0.054418
-0.060617
-0.059438
-0.057652
-0.055787
-0.054247
-0.053197
-0.052918
-0.053541
-0.054990
-0.057127
-0.059909
-0.063045
-0.066399
-0.069848
-0.073300
-0.076703
-0.079953
-0.083031
-0.085929
-0.088630
-0.091116
-0.093384
-0.095449
-0.097335
-0.098970
-0.100413
-0.101695
-0.102842
-0.103868
-0.104781
-0.105607
-0.106328
-0.106826
-0.107174
-0.107455
-0.107657
-0.107851
-0.107468
-0.104894
-0.102835
-0.095687
-0.089137
-0.055215
-0.023498
-0.019797
-0.017498
-0.016163
-0.015940
-0.016443
-0.017723
-0.019560
-0.022188
-0.045636
-0.043627
-0.040046
-0.040675
-0.040715
-0.039917
-0.040505
-0.046481
-0.047596
-0.044930
-0.046294
-0.045150
-0.045657
-0.044698
-0.044972
-0.043815
-0.044047
-0.044372
-0.043768
-0.042211
-0.041198
-0.042720
-0.044298
-0.043390
-0.052736
-0.053389
-0.052788
-0.054465
-0.053004
-0.052759
-0.052075
-0.052766
-0.051457
-0.050487
-0.047762
-0.047093
-0.047003
-0.045656
-0.044083
-0.043963
-0.044228
-0.042938
-0.042485
-0.041551
-0.041686
-0.045662
-0.044943
-0.044672
-0.043600
-0.043198
-0.046193
-0.044584
-0.043288
-0.043626
-0.042460
-0.041458
-0.040450
-0.039406
-0.038081
-0.036789
-0.037408
-0.036063
-0.034498
-0.034681
-0.033552
-0.033048
-0.031094
-0.029893
-0.028894
-0.027584
-0.026518
-0.026242
-0.025130
-0.024229
-0.025619
-0.025342
-0.036321
-0.037334
-0.035872
-0.035973
-0.036810
-0.036790
-0.036906
-0.036554
-0.036860
-0.036597
-0.036773
-0.037950
-0.037755
-0.037483
-0.036336
-0.036898
-0.036630
-0.036233
-0.035504
-0.035202
-0.034631
-0.033824
-0.032430
-0.031497
-0.030659
-0.031334
-0.031131
-0.029571
-0.029243
-0.028484
-0.028154
-0.028399
-0.028780
-0.028612
-0.028606
-0.028189
-0.027696
-0.027220
-0.026227
-0.026633
-0.025711
-0.025548
-0.024362
-0.024326
-0.023977
-0.024340
-0.024031
-0.023194
-0.022422
-0.023364
-0.021855
-0.021532
-0.021563
-0.020983
-0.020883
-0.019015
-0.019870
-0.019494
-0.018823
-0.018961
-0.019016
-0.018244
-0.017358
-0.016755
-0.015468
-0.015755
-0.014929
-0.014711
-0.012463
-0.012431
-0.013487
-0.012807
-0.012228
-0.011956
-0.011708
-0.010748
-0.010026
-0.009527
-0.009582
-0.008740
-0.009787
-0.007625
-0.008112
-0.007121
-0.006374
-0.006286
-0.005958
-0.005585
-0.004824
-0.005216
-0.004253
-0.004180
-0.003475
-0.003148
-0.002673
-0.001844
-0.001096
-0.001800
-0.001116
-0.000676
-0.000699
-0.000734
-0.002024
-0.000366
0.000111
0.000929
0.001883
0.002369
0.003364
0.004768
0.004592
0.005235
0.005672
0.005196
0.006210
0.005514
0.005558
0.005793
0.005750
0.005887
0.006122
0.006091
0.006942
0.007885
0.006643
0.005994
0.006473
0.005550
0.005990
0.005694
0.006054
0.005605
0.005957
0.002110
0.002537
0.003664
0.004129
0.004079
0.003942
0.003378
0.005333
0.005474
0.005720
0.006302
0.007138
0.006558
0.007985
0.008338
0.008268
0.008842
0.008529
0.010097
0.009907
0.009740
0.011374
0.010814
0.011450
0.009864
0.010793
0.011347
0.011229
0.011078
0.012028
0.012239
0.013217
0.009129
0.009675
0.010375
0.010064
0.009982
0.010666
0.011152
0.012463
0.012502
0.012516
0.013344
0.013785
0.013735
0.013825
0.015102
0.011606
0.011908
0.012784
0.013599
0.014483
0.014666
0.015325
0.015703
0.016098
0.016828
0.016629
0.016283
0.015938
0.015581
0.015217
0.014891
0.014538
0.014231
0.013930
0.013637
0.013371
0.013126
0.012886
0.012638
0.012413
0.012192
0.011982
0.011783
0.011583
0.011391
0.011203
0.010983
0.010775
0.010574
0.010381
0.010193
0.010011
0.009838
0.009665
0.009498
0.009332
0.009169
0.009008
0.008849
0.008691
0.008532
0.008374
0.008220
0.008066
0.007911
0.007759
0.007611
0.007462
0.007311
0.007165
0.007019
0.006874
0.006729
0.006588
0.006447
0.006307
0.006173
0.006038
0.005906
0.005777
0.005650
0.005527
0.005403
0.005285
0.005170
0.005057
0.004950
0.004847
0.004746
0.004650
0.004559
0.004471
0.004389
0.004311
0.004238
0.004169
0.004107
0.004048
0.003996
0.003947
0.003905
0.003868
0.003836
0.003810
0.003788
0.003773
0.003761
0.003756
0.003757
0.003762
0.003772
0.003788
-0.009734
-0.010135
-0.011191
-0.008040
-0.026209
-0.026297
-0.027285
-0.027335
-0.017200
-0.016290
-0.015130
-0.032001
-0.033933
-0.032612
-0.034354
-0.030092
-0.028598
-0.028564
0.003627
0.004186
0.003567
0.004133
-0.049986
-0.048808
-0.049403
-0.049277
-0.030549
0.003197
0.003919
0.002774
0.003071
-0.045003
-0.044551
-0.043694
-0.043835
-0.036907
-0.036939
-0.037941
-0.037693
-0.040820
-0.039221
-0.039501
-0.002366
-0.003150
-0.001425
-0.002415
-0.040348
-0.028878
-0.029819
-0.029005
-0.029825
-0.013699
-0.015097
-0.014353
-0.012957
-0.012273
-0.013257
-0.012446
-0.072163
-0.071616
-0.072676
-0.071614
-0.014422
-0.036242
-0.038179
-0.077177
-0.076891
-0.076520
-0.077538
-0.076899
-0.074696
-0.077461
-0.037612
-0.022236
-0.023552
-0.024503
-0.093844
-0.093701
-0.093116
-0.092977
0.000246
-0.000969
-0.000384
-0.001593
-0.037095
-0.039061
-0.040211
-0.034963
-0.093135
-0.092411
-0.090716
-0.089959
-0.089531
-0.089163
-0.095624
-0.095877
-0.095076
-0.096404
-0.087197
-0.085823
-0.086932
-0.086006
-0.103733
-0.103649
-0.104460
-0.103014
-0.003895
-0.001994
-0.003108
-0.034973
-0.071757
-0.030541
-0.040762
-0.039038
-0.041188
-0.038916
-0.078028
-0.079221
-0.043385
-0.043453
-0.044331
-0.079592
-0.062551
-0.062353
-0.061858
-0.039295
-0.037128
-0.036514
-0.034517
-0.037467
-0.036299
-0.039164
-0.034822
-0.039977
-0.038583
-0.040453
-0.038865
-0.046826
-0.045672
-0.044628
-0.043156
-0.063219
-0.050303
-0.049480
-0.049726
0.002279
0.002777
0.002813
0.002115
-0.049387
-0.013915
-0.014634
-0.014993
0.003297
0.003339
-0.028934
-0.028969
-0.026956
-0.030621
-0.039182
-0.043299
-0.042099
-0.014159
-0.092193
-0.090950
-0.092806
-0.090993
-0.023889
-0.024623
-0.022357
-0.023558
-0.058666
-0.067796
-0.013481
-0.033225
-0.034930
-0.025651
-0.021961
-0.020404
-0.039410
-0.040060
-0.038983
-0.020508
-0.074760
-0.074768
-0.068097
-0.000723
-0.001075
0.000074
0.000671
-0.078712
-0.024242
-0.012928
-0.016839
-0.005321
-0.006452
-0.005143
-0.022319
-0.023393
-0.023306
-0.017644
-0.019306
-0.019253
-0.024272
-0.033732
-0.024959
-0.021729
-0.051304
-0.050477
-0.052296
-0.050026
-0.016190
-0.014496
-0.013283
-0.018101
-0.020113
-0.002578
-0.002280
-0.001450
-0.000111
0.000624
0.001734
-0.047433
-0.046204
-0.055833
-0.065023
-0.055049
-0.059654
0.003692
0.002823
0.003884
0.003233
0.002970
0.003554
0.003357
0.001909
-0.036717
-0.035372
-0.038012
-0.009903
-0.011292
-0.011899
-0.087173
-0.084934
-0.083793
-0.075013
-0.085089
-0.081585
-0.080342
-0.070834
-0.007754
-0.008366
-0.007075
0.005103
0.004530
-0.035539
-0.007073
0.002695
0.001842
0.002257
-0.045604
-0.053756
-0.058325
-0.059551
-0.028249
-0.028040
-0.026315
0.001229
0.002823
0.001086
-0.006527
-0.007216
-0.026194
-0.006157
-0.038182
-0.042963
-0.035990
0.001731
0.002417
0.001088
0.001546
0.003066
0.002895
0.002228
-0.042216
-0.047504
-0.046072
0.000956
0.002657
0.002819
0.000567
-0.033129
-0.032039
-0.031878
-0.046006
-0.049450
-0.056780
-0.048658
-0.004657
-0.003166
-0.004323
-0.055844
-0.000414
-0.030637
-0.029771
0.002611
0.003678
0.003896
0.002462
-0.033185
-0.030927
-0.031929
-0.003387
-0.002055
-0.002430
-0.027787
0.009126
0.010151
0.012697
-0.000905
0.007365
-0.051038
-0.051148
-0.051889
-0.051472
-0.025986
-0.022447
-0.027052
-0.011163
-0.012374
-0.011521
-0.011529
-0.048212
-0.049022
-0.048180
-0.048948
-0.018335
-0.047533
-0.048013
-0.030263
-0.030678
-0.020634
-0.034076
-0.033740
-0.047110
-0.001479
-0.003039
-0.002438
0.002596
0.000586
-0.003414
-0.065305
-0.065659
-0.066330
-0.005527
-0.007313
-0.001001
-0.006284
-0.060636
-0.061473
-0.061015
-0.061033
0.001088
0.002153
0.001117
-0.036699
-0.038036
-0.036618
-0.021111
-0.020099
-0.020200
-0.037695
-0.019255
-0.067951
-0.068819
-0.068051
-0.069031
0.003331
-0.088686
-0.088478
-0.087406
-0.087273
-0.077052
-0.079490
-0.090088
-0.090529
-0.089734
-0.025642
-0.027323
-0.090823
-0.015851
-0.012186
-0.013073
0.003690
0.004357
0.005330
0.001953
-0.050910
-0.050144
-0.050926
-0.013238
-0.024155
-0.026910
-0.025899
-0.028316
0.002171
0.000945
0.004014
0.003648
0.004828
-0.042130
-0.042292
-0.000546
-0.052161
-0.050933
-0.051684
-0.051664
-0.059455
-0.069630
-0.078138
-0.084716
-0.080123
-0.080229
-0.081157
0.009837
0.007236
0.008487
0.002273
0.003420
0.003047
-0.013430
-0.014034
-0.012246
-0.059548
-0.059995
-0.058916
-0.059048
-0.013134
-0.052630
-0.053548
-0.053540
-0.035393
-0.018351
-0.018257
-0.017324
-0.005281
-0.003783
-0.004259
-0.063063
-0.063948
-0.063521
-0.004435
-0.004945
-0.003917
-0.053165
-0.052539
-0.045449
-0.044769
-0.030509
-0.034255
-0.033656
-0.066706
-0.065946
-0.065889
-0.066520
-0.080686
-0.073545
-0.076223
-0.062232
-0.019151
-0.020212
-0.019864
-0.021078
0.000752
0.000085
-0.000477
0.011605
0.011575
-0.046152
-0.046612
-0.042741
-0.022238
-0.083446
-0.061720
-0.063108
0.005337
0.004157
0.005000
0.005022
-0.089343
-0.089361
-0.088173
-0.089590
-0.090509
0.010091
0.010778
0.007581
-0.061306
-0.041322
-0.041362
-0.042204
-0.082409
-0.085966
-0.076202
-0.072545
-0.069654
-0.041934
-0.032402
-0.031887
-0.033697
-0.032272
-0.048450
-0.047648
-0.048844
0.011193
0.007746
-0.094351
-0.095561
-0.095170
-0.054796
-0.053784
-0.054782
-0.053771
-0.047022
-0.047045
-0.046363
0.004731
0.004416
-0.102932
-0.102272
-0.089107
-0.087501
-0.089799
0.000263
-0.001417
0.001708
-0.034491
-0.030461
-0.030233
-0.001012
-0.000158
0.000838
-0.038933
-0.038406
-0.037801
0.000238
-0.028496
-0.028884
-0.036495
-0.068807
-0.069203
-0.058578
0.004898
0.004486
-0.048788
-0.048067
-0.049503
-0.048242
-0.049201
-0.048019
0.004819
-0.046113
-0.045627
-0.046949
-0.046957
-0.045494
-0.032143
-0.029649
-0.045871
-0.088296
-0.088456
-0.072719
-0.078595
-0.074632
-0.077943
-0.047792
-0.079301
-0.041449
-0.040575
-0.040439
-0.041011
-0.040685
-0.042262
0.004073
0.004022
0.003295
0.003488
-0.086367
-0.085293
-0.085643
0.012389
0.013715
0.010913
-0.085252
-0.077483
0.010103
0.009382
0.009183
-0.056174
-0.071879
0.008284
-0.031008
0.000604
-0.000976
-0.076945
-0.077604
-0.077000
-0.077913
-0.076024
-0.076143
-0.064363
-0.066508
-0.063986
-0.066674
-0.093429
-0.093866
-0.094248
0.000195
-0.000931
0.001938
-0.062218
-0.064206
-0.060715
-0.012920
-0.016232
-0.032959
-0.018910
-0.016201
-0.022802
0.006468
-0.073044
-0.085444
-0.034940
-0.033577
0.005122
0.007140
0.006249
-0.037252
-0.039188
-0.030731
-0.030586
-0.080199
-0.063462
0.002252
0.000602
0.001957
0.005527
0.005510
-0.008811
-0.009643
-0.007219
-0.000174
0.004060
0.005236
-0.050548
-0.050859
-0.052534
-0.058379
-0.050383
-0.007663
-0.069469
-0.068958
-0.068461
-0.059018
-0.061168
-0.062595
-0.063785
-0.026242
-0.025312
-0.027100
-0.068202
-0.037490
-0.050607
-0.048838
-0.055463
-0.074110
-0.075562
-0.075109
-0.074493
0.005203
0.004336
0.004495
-0.012702
-0.011588
-0.012428
0.005190
-0.011418
-0.012940
-0.014161
-0.029065
-0.033228
-0.031833
0.008318
0.006647
0.008559
0.003017
-0.068662
-0.066819
-0.071538
-0.068908
-0.069273
-0.062210
-0.060711
0.005688
-0.018369
-0.017616
-0.098295
-0.098989
-0.095311
-0.057999
-0.058971
-0.034062
-0.034998
-0.033958
-0.034908
-0.001558
-0.002914
-0.002836
-0.004234
-0.018398
-0.074512
0.006647
0.005710
0.005807
-0.097922
-0.099270
-0.096653
-0.063925
-0.061411
-0.062904
-0.065728
-0.066678
0.000384
0.001086
0.001638
-0.073616
-0.075102
-0.077474
-0.077509
-0.022449
-0.021487
-0.022130
-0.020908
-0.007492
-0.008818
-0.007828
-0.008187
-0.018308
-0.012448
-0.016535
0.004688
0.005931
-0.008661
-0.072669
-0.073027
-0.058335
-0.058333
-0.057218
-0.056674
-0.002231
-0.000686
-0.001143
0.000516
-0.003875
-0.003317
-0.036198
-0.004933
-0.024278
-0.024417
-0.025577
-0.024276
-0.023551
-0.025577
-0.024510
-0.023223
-0.024941
-0.082723
-0.082480
-0.083271
-0.023222
-0.082849
-0.082008
-0.081826
-0.066208
-0.062522
-0.049220
-0.048062
-0.053860
-0.036251
-0.062337
-0.063214
-0.063974
-0.062045
-0.055107
-0.045588
-0.045938
-0.010077
-0.002686
-0.004339
-0.044947
-0.046099
-0.045101
-0.045932
0.003183
0.003849
0.002680
0.003918
-0.032622
-0.021613
-0.025277
-0.005583
-0.004175
-0.018023
-0.013168
-0.011535
-0.022953
-0.021942
-0.021944
-0.022549
-0.034111
-0.031098
-0.032488
-0.026984
-0.057301
-0.058778
-0.058835
-0.059952
-0.057967
-0.059171
-0.050722
0.007565
0.007533
-0.010422
-0.009914
-0.011139
-0.009162
-0.016024
-0.016581
-0.017290
-0.015754
-0.015085
-0.016267
0.002152
-0.073444
-0.074147
-0.073106
-0.054412
-0.049029
-0.052256
-0.045676
-0.059809
-0.055595
-0.059677
-0.053301
-0.059423
-0.062134
-0.007504
-0.004637
-0.006713
0.004111
0.002942
-0.002835
-0.003760
-0.004969
-0.003466
-0.005040
-0.046686
-0.046740
-0.045902
-0.047511
-0.073794
-0.059487
-0.060160
-0.038516
-0.038939
-0.045683
-0.015712
-0.015013
-0.014771
-0.015765
-0.017122
-0.023967
-0.060176
-0.059136
-0.039718
-0.038574
-0.018177
-0.016204
-0.020864
-0.019460
-0.079681
-0.080014
-0.037569
-0.030103
-0.041182
-0.022034
-0.022386
-0.023383
-0.039713
-0.029608
-0.026260
-0.027005
-0.028763
-0.029902
-0.028652
-0.047131
-0.047400
-0.044469
-0.062030
-0.030972
-0.044074
-0.034670
-0.035865
-0.042694
-0.013400
-0.016376
-0.055157
-0.056140
-0.055197
-0.055839
-0.042226
-0.040332
-0.051061
-0.045694
-0.060595
-0.049298
-0.055015
-0.052189
-0.018061
-0.019082
-0.019756
-0.019315
-0.018393
-0.020213
-0.019414
-0.017137
-0.021250
-0.060544
-0.061024
-0.059764
-0.060119
-0.059507
-0.060178
-0.035006
-0.039600
-0.028528
-0.041321
-0.041461
-0.042974
-0.055025
-0.054114
-0.054027
-0.052937
-0.010892
-0.009416
-0.014983
-0.060576
-0.061238
-0.104365
-0.100301
-0.011774
-0.007637
-0.004098
-0.069910
-0.070541
-0.071165
-0.080840
-0.068868
-0.068003
-0.065725
-0.012442
-0.013132
-0.014160
-0.053901
-0.047099
-0.038655
-0.038284
-0.039371
-0.044212
-0.029195
-0.028051
-0.022434
-0.030555
-0.041352
-0.041340
-0.042021
-0.040626
-0.040485
-0.009317
-0.010213
-0.008056
-0.008967
-0.007570
-0.006063
-0.015576
-0.014199
-0.015500
-0.014006
-0.014467
-0.012490
-0.016741
-0.001152
-0.000320
0.002956
0.002277
0.002536
0.003521
0.003993
-0.010320
-0.012141
0.001574
0.000241
-0.054981
-0.054363
-0.055475
-0.014189
-0.011965
-0.050860
-0.051194
-0.036250
-0.022857
0.010067
0.002813
0.001965
0.000998
-0.008777
-0.009303
-0.010191
-0.010287
-0.000182
-0.049825
-0.001894
-0.061284
-0.059059
-0.070083
-0.050395
-0.039498
-0.066001
-0.068492
-0.094990
-0.100966
-0.091604
-0.020632
-0.021389
-0.020416
-0.066368
-0.061403
-0.004014
-0.003766
-0.020602
-0.020372
-0.035089
-0.034187
-0.042270
-0.046111
-0.047949
-0.005150
-0.003491
-0.003450
-0.099081
-0.098907
-0.099790
-0.005577
-0.005010
-0.010038
-0.009157
-0.034243
-0.031835
-0.041665
-0.073854
-0.040595
-0.000190
0.004917
0.003810
-0.018054
-0.017292
-0.006626
-0.006536
-0.016710
-0.017876
-0.016900
0.008905
-0.037580
-0.036016
-0.036675
0.008113
-0.036876
-0.035982
-0.037135
-0.007907
-0.040034
-0.030271
-0.029929
-0.029220
-0.088021
-0.069146
-0.091394
-0.030767
-0.029388
-0.050595
-0.061117
-0.100803
-0.099808
-0.103539
-0.030805
-0.074146
-0.106647
-0.106566
-0.105636
-0.044555
-0.038910
-0.044370
0.004941
0.004978
-0.106122
-0.096750
-0.042452
-0.043006
-0.006886
-0.008728
-0.006915
-0.018751
-0.032152
-0.031818
-0.040050
-0.028780
-0.030370
-0.031182
0.006021
0.006975
0.006744
-0.035101
-0.034975
-0.042851
-0.044122
-0.044090
-0.045333
-0.019229
-0.011698
-0.021889
-0.036050
-0.105875
-0.106358
-0.105625
-0.074190
-0.074137
-0.076455
-0.069195
-0.076610
-0.077990
-0.078881
-0.071159
-0.070162
-0.070752
-0.072947
-0.032602
-0.000608
-0.005585
-0.009441
-0.030211
-0.012166
0.004941
0.004672
0.006869
-0.044627
-0.045353
0.003849
0.005571
0.005848
-0.063983
-0.064207
-0.042175
-0.005609
-0.036567
-0.008243
-0.104978
-0.104954
-0.105198
-0.000016
-0.001191
0.002339
0.001838
-0.007806
0.010029
0.001074
-0.050450
0.002889
0.002921
0.003322
0.003300
0.003346
0.004679
0.004300
0.005645
-0.024264
0.001884
0.002803
0.000281
-0.063950
-0.059969
-0.057422
-0.000771
-0.001951
0.008588
-0.086536
-0.085099
-0.070082
-0.094612
0.007464
-0.032438
-0.005188
-0.003998
-0.004527
0.004675
0.003684
0.003455
0.002265
-0.018813
-0.020180
-0.076934
-0.077726
-0.040631
-0.077571
0.005669
0.005721
0.006752
-0.078414
-0.099518
-0.103590
0.001287
0.009222
-0.102939
-0.102131
-0.025170
-0.026328
-0.025643
-0.027152
-0.006599
-0.009561
-0.006857
-0.007697
0.006473
0.003297
-0.047621
-0.105202
-0.101920
-0.078095
-0.075260
-0.077571
-0.075638
-0.074606
-0.069664
-0.072316
-0.065079
-0.072688
-0.067496
-0.101311
-0.042583
-0.043161
-0.042879
-0.100976
-0.099709
-0.100450
-0.099169
-0.098850
-0.064527
-0.065674
-0.064232
-0.066505
-0.092190
-0.090769
-0.091506
-0.091822
-0.077586
-0.087101
-0.088020
-0.086043
-0.046151
-0.045106
-0.043764
-0.097887
-0.097880
-0.097667
-0.104306
-0.104347
-0.103680
-0.091191
-0.091955
-0.090340
-0.089694
-0.091108
-0.100958
-0.099824
-0.100711
-0.095807
-0.094988
-0.097089
-0.096032
0.010280
-0.094663
-0.094403
-0.030063
-0.032238
-0.083827
-0.083021
-0.090482
-0.090847
-0.082138
-0.093276
-0.086279
-0.049084
-0.100595
-0.099862
-0.049954
-0.072298
-0.072240
-0.073455
-0.073980
-0.072959
-0.091162
-0.092561
-0.089598
-0.025706
-0.024015
-0.024163
0.010095
-0.068686
-0.067959
-0.069163
-0.067789
-0.021810
-0.023666
-0.025482
-0.096582
-0.097287
-0.096253
-0.098988
-0.100062
-0.097316
-0.086857
-0.064761
-0.067700
0.010350
-0.090295
-0.088967
-0.102460
-0.088297
-0.098883
-0.099444
-0.101702
-0.095297
-0.096671
-0.092419
-0.093655
-0.092826
-0.094300
-0.030427
-0.029829
-0.034659
-0.079853
-0.080594
-0.035923
-0.079434
-0.078886
-0.080082
-0.078195
-0.079269
-0.078202
-0.101225
-0.100042
-0.096154
-0.021833
-0.085629
0.005516
0.003880
-0.080007
-0.081126
-0.080646
-0.095066
-0.095664
-0.096347
-0.094187
-0.071572
-0.071412
-0.071010
-0.056436
-0.055100
-0.056914
-0.055473
-0.054066
-0.082620
-0.082604
-0.083610
0.003573
0.003419
-0.097706
-0.097142
0.003559
-0.035248
-0.040432
-0.056198
-0.055247
-0.058166
-0.057887
-0.054148
-0.024676
-0.026459
-0.022049
-0.057383
-0.055664
-0.003193
-0.004943
-0.003325
-0.004508
-0.076062
-0.075725
-0.085307
-0.088016
-0.088769
-0.087405
-0.088206
-0.086861
-0.021091
-0.099110
-0.098144
-0.098826
-0.098017
-0.098866
-0.057923
-0.059530
-0.059659
-0.057752
-0.058986
-0.072043
-0.091374
-0.081744
-0.081754
-0.022723
-0.020992
-0.022049
-0.021868
-0.077115
-0.076369
-0.075645
-0.077258
-0.076745
0.005232
-0.036885
-0.035862
-0.038503
-0.036447
0.003303
0.003398
0.002704
-0.075207
-0.083765
-0.084590
-0.084183
-0.084344
-0.085272
-0.100163
-0.099410
-0.099782
0.003347
-0.093229
-0.093544
-0.087708
-0.088432
-0.098163
-0.101735
-0.103460
-0.086375
-0.074241
-0.073665
-0.075241
-0.076210
-0.075608
-0.074171
-0.033965
-0.033337
-0.093640
-0.092380
-0.092474
-0.089283
-0.087901
0.003772
0.003740
-0.032953
-0.033443
-0.032428
-0.031766
-0.078157
-0.076841
-0.080004
-0.079499
-0.081108
-0.058381
-0.055758
-0.055212
-0.058195
-0.082454
-0.084847
-0.083475
-0.083760
-0.085717
-0.043065
-0.043725
-0.046600
-0.046557
-0.010797
-0.010606
-0.012156
-0.015143
-0.007429
-0.093312
-0.092579
-0.091506
-0.091696
-0.092512
-0.093035
-0.094570
-0.098019
-0.096114
-0.095865
-0.095280
-0.092721
-0.042498
-0.044284
-0.033975
-0.059159
-0.058254
-0.059454
-0.058323
-0.092183
-0.093559
-0.094479
-0.094557
-0.018119
-0.084580
-0.085299
-0.071399
-0.073688
-0.083812
-0.089678
-0.093820
-0.085670
-0.076595
-0.071875
-0.088023
-0.093094
0.010646
0.010567
0.009347
-0.092199
-0.091306
-0.046095
-0.090207
-0.094890
-0.098263
-0.091778
-0.092605
-0.090531
-0.089490
-0.062234
-0.063189