# vtk DataFile Version 2.0
Test
ASCII
DATASET POLYDATA
POINTS 5816 float
0.000000 0.000000 0.000000
2.000000 0.000000 0.000000
2.000000 4.000000 0.000000
0.000000 4.000000 0.000000
0.000000 0.500000 0.000000
1.500000 2.000000 0.000000
2.000000 2.500000 0.000000
0.285714 0.000000 0.000000
0.571429 0.000000 0.000000
0.857143 0.000000 0.000000
1.142857 0.000000 0.000000
1.428571 0.000000 0.000000
1.714286 0.000000 0.000000
2.000000 0.275040 0.000000
2.000000 0.520628 0.000000
2.000000 0.739917 0.000000
2.000000 0.935725 0.000000
2.000000 1.110565 0.000000
2.000000 1.266683 0.000000
2.000000 1.406084 0.000000
2.000000 1.530557 0.000000
2.000000 1.641701 0.000000
2.000000 1.740944 0.000000
2.000000 1.829560 0.000000
2.000000 1.908686 0.000000
2.000000 1.979340 0.000000
2.000000 2.042428 0.000000
2.000000 2.098760 0.000000
2.000000 2.149060 0.000000
2.000000 2.193974 0.000000
2.000000 2.234078 0.000000
2.000000 2.269888 0.000000
2.000000 2.301863 0.000000
2.000000 2.330415 0.000000
2.000000 2.355908 0.000000
2.000000 2.378673 0.000000
2.000000 2.398999 0.000000
2.000000 2.417149 0.000000
2.000000 2.433355 0.000000
2.000000 2.447826 0.000000
2.000000 2.460747 0.000000
2.000000 2.472285 0.000000
2.000000 2.482587 0.000000
2.000000 2.491786 0.000000
2.000000 2.508637 0.000000
2.000000 2.519089 0.000000
2.000000 2.531737 0.000000
2.000000 2.547044 0.000000
2.000000 2.565568 0.000000
2.000000 2.587985 0.000000
2.000000 2.615113 0.000000
2.000000 2.647942 0.000000
2.000000 2.687670 0.000000
2.000000 2.735749 0.000000
2.000000 2.793931 0.000000
2.000000 2.864341 0.000000
2.000000 2.949549 0.000000
2.000000 3.052664 0.000000
2.000000 3.177450 0.000000
2.000000 3.328462 0.000000
2.000000 3.511210 0.000000
2.000000 3.732366 0.000000
1.714286 4.000000 0.000000
1.428571 4.000000 0.000000
1.142857 4.000000 0.000000
0.857143 4.000000 0.000000
0.571429 4.000000 0.000000
0.285714 4.000000 0.000000
0.000000 3.715673 0.000000
0.000000 3.453827 0.000000
0.000000 3.212685 0.000000
0.000000 2.990611 0.000000
0.000000 2.786096 0.000000
0.000000 2.597752 0.000000
0.000000 2.424300 0.000000
0.000000 2.264564 0.000000
0.000000 2.117457 0.000000
0.000000 1.981983 0.000000
0.000000 1.857220 0.000000
0.000000 1.742322 0.000000
0.000000 1.636510 0.000000
0.000000 1.539064 0.000000
0.000000 1.449323 0.000000
0.000000 1.366678 0.000000
0.000000 1.290567 0.000000
0.000000 1.220475 0.000000
0.000000 1.155925 0.000000
0.000000 1.096479 0.000000
0.000000 1.041733 0.000000
0.000000 0.991316 0.000000
0.000000 0.944886 0.000000
0.000000 0.902126 0.000000
0.000000 0.862748 0.000000
0.000000 0.826483 0.000000
0.000000 0.793086 0.000000
0.000000 0.762330 0.000000
0.000000 0.734005 0.000000
0.000000 0.707920 0.000000
0.000000 0.683898 0.000000
0.000000 0.661775 0.000000
0.000000 0.641402 0.000000
0.000000 0.622639 0.000000
0.000000 0.605360 0.000000
0.000000 0.589447 0.000000
0.000000 0.574792 0.000000
0.000000 0.561296 0.000000
0.000000 0.548868 0.000000
0.000000 0.537421 0.000000
0.000000 0.526881 0.000000
0.000000 0.517173 0.000000
0.000000 0.508233 0.000000
0.000000 0.491468 0.000000
0.000000 0.479827 0.000000
0.000000 0.463944 0.000000
0.000000 0.442273 0.000000
0.000000 0.412707 0.000000
0.000000 0.372368 0.000000
0.000000 0.317330 0.000000
0.000000 0.242238 0.000000
0.000000 0.139785 0.000000
0.005639 0.505639 0.000000
0.011278 0.511278 0.000000
0.016917 0.516917 0.000000
0.022556 0.522556 0.000000
0.028195 0.528195 0.000000
0.033835 0.533835 0.000000
0.039474 0.539474 0.000000
0.045113 0.545113 0.000000
0.050752 0.550752 0.000000
0.056391 0.556391 0.000000
0.062030 0.562030 0.000000
0.067669 0.567669 0.000000
0.073308 0.573308 0.000000
0.078947 0.578947 0.000000
0.084586 0.584586 0.000000
0.090226 0.590226 0.000000
0.095865 0.595865 0.000000
0.101504 0.601504 0.000000
0.107143 0.607143 0.000000
0.112782 0.612782 0.000000
0.118421 0.618421 0.000000
0.124060 0.624060 0.000000
0.129699 0.629699 0.000000
0.135338 0.635338 0.000000
0.140977 0.640977 0.000000
0.146617 0.646617 0.000000
0.152256 0.652256 0.000000
0.157895 0.657895 0.000000
0.163534 0.663534 0.000000
0.169173 0.669173 0.000000
0.174812 0.674812 0.000000
0.180451 0.680451 0.000000
0.186090 0.686090 0.000000
0.191729 0.691729 0.000000
0.197368 0.697368 0.000000
0.203008 0.703008 0.000000
0.208647 0.708647 0.000000
0.214286 0.714286 0.000000
0.219925 0.719925 0.000000
0.225564 0.725564 0.000000
0.231203 0.731203 0.000000
0.236842 0.736842 0.000000
0.242481 0.742481 0.000000
0.248120 0.748120 0.000000
0.253759 0.753759 0.000000
0.259398 0.759398 0.000000
0.265038 0.765038 0.000000
0.270677 0.770677 0.000000
0.276316 0.776316 0.000000
0.281955 0.781955 0.000000
0.287594 0.787594 0.000000
0.293233 0.793233 0.000000
0.298872 0.798872 0.000000
0.304511 0.804511 0.000000
0.310150 0.810150 0.000000
0.315789 0.815789 0.000000
0.321429 0.821429 0.000000
0.327068 0.827068 0.000000
0.332707 0.832707 0.000000
0.338346 0.838346 0.000000
0.343985 0.843985 0.000000
0.349624 0.849624 0.000000
0.355263 0.855263 0.000000
0.360902 0.860902 0.000000
0.366541 0.866541 0.000000
0.372180 0.872180 0.000000
0.377820 0.877820 0.000000
0.383459 0.883459 0.000000
0.389098 0.889098 0.000000
0.394737 0.894737 0.000000
0.400376 0.900376 0.000000
0.406015 0.906015 0.000000
0.411654 0.911654 0.000000
0.417293 0.917293 0.000000
0.422932 0.922932 0.000000
0.428571 0.928571 0.000000
0.434211 0.934211 0.000000
0.439850 0.939850 0.000000
0.445489 0.945489 0.000000
0.451128 0.951128 0.000000
0.456767 0.956767 0.000000
0.462406 0.962406 0.000000
0.468045 0.968045 0.000000
0.473684 0.973684 0.000000
0.479323 0.979323 0.000000
0.484962 0.984962 0.000000
0.490602 0.990602 0.000000
0.496241 0.996241 0.000000
0.501880 1.001880 0.000000
0.507519 1.007519 0.000000
0.513158 1.013158 0.000000
0.518797 1.018797 0.000000
0.524436 1.024436 0.000000
0.530075 1.030075 0.000000
0.535714 1.035714 0.000000
0.541353 1.041353 0.000000
0.546992 1.046992 0.000000
0.552632 1.052632 0.000000
0.558271 1.058271 0.000000
0.563910 1.063910 0.000000
0.569549 1.069549 0.000000
0.575188 1.075188 0.000000
0.580827 1.080827 0.000000
0.586466 1.086466 0.000000
0.592105 1.092105 0.000000
0.597744 1.097744 0.000000
0.603383 1.103383 0.000000
0.609023 1.109023 0.000000
0.614662 1.114662 0.000000
0.620301 1.120301 0.000000
0.625940 1.125940 0.000000
0.631579 1.131579 0.000000
0.637218 1.137218 0.000000
0.642857 1.142857 0.000000
0.648496 1.148496 0.000000
0.654135 1.154135 0.000000
0.659774 1.159774 0.000000
0.665414 1.165414 0.000000
0.671053 1.171053 0.000000
0.676692 1.176692 0.000000
0.682331 1.182331 0.000000
0.687970 1.187970 0.000000
0.693609 1.193609 0.000000
0.699248 1.199248 0.000000
0.704887 1.204887 0.000000
0.710526 1.210526 0.000000
0.716165 1.216165 0.000000
0.721805 1.221805 0.000000
0.727444 1.227444 0.000000
0.733083 1.233083 0.000000
0.738722 1.238722 0.000000
0.744361 1.244361 0.000000
0.750000 1.250000 0.000000
0.755639 1.255639 0.000000
0.761278 1.261278 0.000000
0.766917 1.266917 0.000000
0.772556 1.272556 0.000000
0.778195 1.278195 0.000000
0.783835 1.283835 0.000000
0.789474 1.289474 0.000000
0.795113 1.295113 0.000000
0.800752 1.300752 0.000000
0.806391 1.306391 0.000000
0.812030 1.312030 0.000000
0.817669 1.317669 0.000000
0.823308 1.323308 0.000000
0.828947 1.328947 0.000000
0.834586 1.334586 0.000000
0.840226 1.340226 0.000000
0.845865 1.345865 0.000000
0.851504 1.351504 0.000000
0.857143 1.357143 0.000000
0.862782 1.362782 0.000000
0.868421 1.368421 0.000000
0.874060 1.374060 0.000000
0.879699 1.379699 0.000000
0.885338 1.385338 0.000000
0.890977 1.390977 0.000000
0.896617 1.396617 0.000000
0.902256 1.402256 0.000000
0.907895 1.407895 0.000000
0.913534 1.413534 0.000000
0.919173 1.419173 0.000000
0.924812 1.424812 0.000000
0.930451 1.430451 0.000000
0.936090 1.436090 0.000000
0.941729 1.441729 0.000000
0.947368 1.447368 0.000000
0.953008 1.453008 0.000000
0.958647 1.458647 0.000000
0.964286 1.464286 0.000000
0.969925 1.469925 0.000000
0.975564 1.475564 0.000000
0.981203 1.481203 0.000000
0.986842 1.486842 0.000000
0.992481 1.492481 0.000000
0.998120 1.498120 0.000000
1.003759 1.503759 0.000000
1.009398 1.509398 0.000000
1.015038 1.515038 0.000000
1.020677 1.520677 0.000000
1.026316 1.526316 0.000000
1.031955 1.531955 0.000000
1.037594 1.537594 0.000000
1.043233 1.543233 0.000000
1.048872 1.548872 0.000000
1.054511 1.554511 0.000000
1.060150 1.560150 0.000000
1.065789 1.565789 0.000000
1.071429 1.571429 0.000000
1.077068 1.577068 0.000000
1.082707 1.582707 0.000000
1.088346 1.588346 0.000000
1.093985 1.593985 0.000000
1.099624 1.599624 0.000000
1.105263 1.605263 0.000000
1.110902 1.610902 0.000000
1.116541 1.616541 0.000000
1.122180 1.622180 0.000000
1.127820 1.627820 0.000000
1.133459 1.633459 0.000000
1.139098 1.639098 0.000000
1.144737 1.644737 0.000000
1.150376 1.650376 0.000000
1.156015 1.656015 0.000000
1.161654 1.661654 0.000000
1.167293 1.667293 0.000000
1.172932 1.672932 0.000000
1.178571 1.678571 0.000000
1.184211 1.684211 0.000000
1.189850 1.689850 0.000000
1.195489 1.695489 0.000000
1.201128 1.701128 0.000000
1.206767 1.706767 0.000000
1.212406 1.712406 0.000000
1.218045 1.718045 0.000000
1.223684 1.723684 0.000000
1.229323 1.729323 0.000000
1.234962 1.734962 0.000000
1.240602 1.740602 0.000000
1.246241 1.746241 0.000000
1.251880 1.751880 0.000000
1.257519 1.757519 0.000000
1.263158 1.763158 0.000000
1.268797 1.768797 0.000000
1.274436 1.774436 0.000000
1.280075 1.780075 0.000000
1.285714 1.785714 0.000000
1.291353 1.791353 0.000000
1.296992 1.796992 0.000000
1.302632 1.802632 0.000000
1.308271 1.808271 0.000000
1.313910 1.813910 0.000000
1.319549 1.819549 0.000000
1.325188 1.825188 0.000000
1.330827 1.830827 0.000000
1.336466 1.836466 0.000000
1.342105 1.842105 0.000000
1.347744 1.847744 0.000000
1.353383 1.853383 0.000000
1.359023 1.859023 0.000000
1.364662 1.864662 0.000000
1.370301 1.870301 0.000000
1.375940 1.875940 0.000000
1.381579 1.881579 0.000000
1.387218 1.887218 0.000000
1.392857 1.892857 0.000000
[...]
POINT_DATA 5816
SCALARS UX float 1
LOOKUP_TABLE default
-0.059742
0.035627
-0.032741
-0.124716
-0.076703
0.017130
-0.007271
-0.049376
-0.036987
-0.023329
-0.008918
0.006042
0.020942
0.049842
0.062548
0.073493
0.082711
0.090111
0.095197
0.098732
0.099508
0.097785
0.093416
0.086014
0.076716
0.066255
0.055612
0.045703
0.036767
0.029196
0.022756
0.017461
0.013033
0.009362
0.006318
0.003759
0.001623
-0.000183
-0.001715
-0.003022
-0.004138
-0.005099
-0.005931
-0.006648
-0.007908
-0.008657
-0.009538
-0.010553
-0.011732
-0.013047
-0.014541
-0.016145
-0.017918
-0.019794
-0.021743
-0.023692
-0.025586
-0.027437
-0.028897
-0.030329
-0.031559
-0.032366
-0.048212
-0.062658
-0.075940
-0.088397
-0.100321
-0.112491
-0.123701
-0.121579
-0.118358
-0.114991
-0.112200
-0.110286
-0.109750
-0.110833
-0.113400
-0.117205
-0.122174
-0.127785
-0.133795
-0.139983
-0.146181
-0.152294
-0.158132
-0.163649
-0.168827
-0.173631
-0.178034
-0.182053
-0.185727
-0.189106
-0.192067
-0.194685
-0.197005
-0.199068
-0.200941
-0.202631
-0.204162
-0.205461
-0.206293
-0.206742
-0.206892
-0.206806
-0.206880
-0.206471
-0.202821
-0.201089
-0.185734
-0.144956
-0.082330
-0.058506
-0.047008
-0.043753
-0.042282
-0.042120
-0.043340
-0.045743
-0.049187
-0.053944
-0.100057
-0.097466
-0.097399
-0.098115
-0.094949
-0.096640
-0.095818
-0.096585
-0.094855
-0.092085
-0.089937
-0.094334
-0.093656
-0.093180
-0.092875
-0.092312
-0.091874
-0.087863
-0.087615
-0.085839
-0.084696
-0.083411
-0.081607
-0.077058
-0.076040
-0.108647
-0.108151
-0.104592
-0.106515
-0.107004
-0.105447
-0.104954
-0.103690
-0.104599
-0.100964
-0.096784
-0.096093
-0.094972
-0.094385
-0.094093
-0.093385
-0.090935
-0.089120
-0.089130
-0.091597
-0.089224
-0.087690
-0.088224
-0.087108
-0.086609
-0.087403
-0.086500
-0.083735
-0.083154
-0.082336
-0.079319
-0.077887
-0.076012
-0.073865
-0.071587
-0.070787
-0.069907
-0.070234
-0.068818
-0.066201
-0.065608
-0.065375
-0.061245
-0.060694
-0.059992
-0.058532
-0.058469
-0.056069
-0.069995
-0.067188
-0.066803
-0.066605
-0.064944
-0.063536
-0.063013
-0.063703
-0.063100
-0.061972
-0.061722
-0.061494
-0.058871
-0.089480
-0.088803
-0.087397
-0.086425
-0.083827
-0.083924
-0.082359
-0.082063
-0.080461
-0.080043
-0.078817
-0.076729
-0.068449
-0.067456
-0.064620
-0.066155
-0.062625
-0.059806
-0.056801
-0.056892
-0.054895
-0.075942
-0.074863
-0.072884
-0.072850
-0.069567
-0.068125
-0.066342
-0.064142
-0.063621
-0.061787
-0.062050
-0.059954
-0.059973
-0.059478
-0.059272
-0.059562
-0.058955
-0.057113
-0.057088
-0.055591
-0.054936
-0.054007
-0.052716
-0.051220
-0.050787
-0.049681
-0.049655
-0.048538
-0.048367
-0.048690
-0.046752
-0.045311
-0.045327
-0.045187
-0.042970
-0.042199
-0.042085
-0.039949
-0.040182
-0.039311
-0.039714
-0.036770
-0.035899
-0.035308
-0.033499
-0.031974
-0.030901
-0.031194
-0.029307
-0.031354
-0.029362
-0.028992
-0.027025
-0.025663
-0.025110
-0.024926
-0.023966
-0.021667
-0.021542
-0.020709
-0.020630
-0.019131
-0.018082
-0.016479
-0.015206
-0.014216
-0.012730
-0.021140
-0.019877
-0.019621
-0.018568
-0.019848
-0.018789
-0.016388
-0.015984
-0.015112
-0.014363
-0.012293
-0.010462
-0.010728
-0.009846
-0.007364
-0.006804
-0.007543
-0.008925
-0.008407
-0.007894
-0.008016
-0.006575
-0.005608
-0.004799
-0.003810
-0.003895
-0.003008
-0.003454
-0.004095
-0.004316
-0.003891
-0.003683
-0.002450
-0.003377
-0.002392
-0.005838
-0.006490
-0.004303
-0.005155
-0.004387
-0.003812
-0.004484
-0.004354
-0.002615
-0.001490
-0.001864
-0.000451
-0.002270
-0.000306
0.001462
0.002373
0.002474
0.003392
0.004789
0.005561
0.006605
0.008699
0.009183
0.010704
0.006910
0.008165
0.008552
0.008643
0.010498
0.013187
0.012548
0.011828
0.003513
0.004798
0.006180
0.005908
0.006245
0.007039
0.006935
0.007251
0.007819
0.008923
0.008421
0.009551
0.009213
0.009813
0.011646
0.012361
0.012753
0.012941
0.013403
0.014399
0.014277
0.015200
0.015517
0.015896
0.016325
0.016006
0.015361
0.014702
0.013991
0.013278
0.012636
0.011981
0.011398
0.010842
0.010303
0.009814
0.009366
0.008927
0.008476
0.008067
0.007666
0.007285
0.006925
0.006563
0.006217
0.005878
0.005494
0.005113
0.004751
0.004403
0.004065
0.003738
0.003427
0.003117
0.002817
0.002521
0.002229
0.001941
0.001657
0.001374
0.001091
0.000809
0.000535
0.000259
-0.000017
-0.000287
-0.000550
-0.000816
-0.001084
-0.001345
-0.001604
-0.001862
-0.002120
-0.002371
-0.002620
-0.002869
-0.003106
-0.003346
-0.003580
-0.003811
-0.004035
-0.004253
-0.004473
-0.004681
-0.004886
-0.005086
-0.005276
-0.005458
-0.005636
-0.005806
-0.005967
-0.006122
-0.006268
-0.006405
-0.006534
-0.006655
-0.006765
-0.006868
-0.006960
-0.007045
-0.007118
-0.007183
-0.007239
-0.007283
-0.007320
-0.007346
-0.007364
-0.007372
-0.007369
-0.007358
-0.007338
-0.007309
-0.031136
-0.032442
-0.033927
-0.028668
-0.061214
-0.061412
-0.063184
-0.063299
-0.045309
-0.043677
-0.041589
-0.071867
-0.075321
-0.072934
-0.076095
-0.068334
-0.065634
-0.065605
-0.007648
-0.006643
-0.007752
-0.006741
-0.104347
-0.102323
-0.103384
-0.103140
-0.069133
-0.008451
-0.007153
-0.009206
-0.008671
-0.095203
-0.094415
-0.092842
-0.093129
-0.080537
-0.080606
-0.082399
-0.081967
-0.087548
-0.084650
-0.085018
-0.018468
-0.019881
-0.016779
-0.018563
-0.086769
-0.066016
-0.067664
-0.066221
-0.067595
-0.038986
-0.041381
-0.040021
-0.037765
-0.036589
-0.038291
-0.036861
-0.143615
-0.142581
-0.144581
-0.142616
-0.040272
-0.079240
-0.082968
-0.152854
-0.152314
-0.151593
-0.153593
-0.153438
-0.149084
-0.154107
-0.081606
-0.054389
-0.056762
-0.058474
-0.182627
-0.182442
-0.181311
-0.181125
-0.013667
-0.015851
-0.014804
-0.016971
-0.081213
-0.084768
-0.086842
-0.077362
-0.181271
-0.179931
-0.176906
-0.175548
-0.174888
-0.174162
-0.185730
-0.186097
-0.184726
-0.187125
-0.170989
-0.168582
-0.170521
-0.168927
-0.200692
-0.200527
-0.202050
-0.199327
-0.021123
-0.017700
-0.019701
-0.076924
-0.144281
-0.068339
-0.087827
-0.084639
-0.088533
-0.084173
-0.155064
-0.157223
-0.092256
-0.092376
-0.093954
-0.157722
-0.126810
-0.126478
-0.125558
-0.085026
-0.081115
-0.080045
-0.076433
-0.081880
-0.079755
-0.084938
-0.077093
-0.086140
-0.083638
-0.087006
-0.084136
-0.098454
-0.096374
-0.094509
-0.091856
-0.128044
-0.104819
-0.103272
-0.103683
-0.010023
-0.009129
-0.009062
-0.010321
-0.103231
-0.038785
-0.040217
-0.040763
-0.008199
-0.008126
-0.066399
-0.066441
-0.062836
-0.069418
-0.084973
-0.092416
-0.090226
-0.039842
-0.179829
-0.177636
-0.180953
-0.177680
-0.057290
-0.058579
-0.054526
-0.056645
-0.120031
-0.136421
-0.038121
-0.075026
-0.077516
-0.062235
-0.053844
-0.051041
-0.085089
-0.086256
-0.084312
-0.051204
-0.148449
-0.147664
-0.141937
-0.015427
-0.016066
-0.013997
-0.012927
-0.155806
-0.054986
-0.037608
-0.046200
-0.023648
-0.025710
-0.023202
-0.053766
-0.055823
-0.055596
-0.046113
-0.049107
-0.049009
-0.057472
-0.074506
-0.059427
-0.053815
-0.106471
-0.104995
-0.108257
-0.104177
-0.043495
-0.040445
-0.038260
-0.046934
-0.050549
-0.018877
-0.018343
-0.016845
-0.014464
-0.013117
-0.011143
-0.100392
-0.098204
-0.114184
-0.131931
-0.109219
-0.120105
-0.007535
-0.009095
-0.007193
-0.008356
-0.008796
-0.007748
-0.008100
-0.010797
-0.080335
-0.077941
-0.082677
-0.032136
-0.034652
-0.035766
-0.169697
-0.164781
-0.164132
-0.148477
-0.166114
-0.160334
-0.158677
-0.140344
-0.028889
-0.030231
-0.027803
-0.005030
-0.006062
-0.078392
-0.027992
-0.009312
-0.010844
-0.010102
-0.097618
-0.110804
-0.119371
-0.120495
-0.065209
-0.064810
-0.061720
-0.012005
-0.009142
-0.012258
-0.026525
-0.027614
-0.061488
-0.025484
-0.083156
-0.091884
-0.079606
-0.011076
-0.009839
-0.012225
-0.011398
-0.008644
-0.008946
-0.010146
-0.090535
-0.100648
-0.098353
-0.012308
-0.009156
-0.009019
-0.012866
-0.073748
-0.071756
-0.071439
-0.097789
-0.103746
-0.117490
-0.101264
-0.022603
-0.019918
-0.021994
-0.115798
-0.014953
-0.069400
-0.067864
-0.009532
-0.007615
-0.007225
-0.009801
-0.073664
-0.069526
-0.071317
-0.020275
-0.017881
-0.018550
-0.063632
0.002265
0.004257
0.008746
-0.015813
-0.000873
-0.106150
-0.106342
-0.107620
-0.106893
-0.060227
-0.053632
-0.061889
-0.034739
-0.036769
-0.035324
-0.035327
-0.100825
-0.102342
-0.100788
-0.102238
-0.047614
-0.099577
-0.100472
-0.067048
-0.067898
-0.049520
-0.075054
-0.074369
-0.098847
-0.016871
-0.019673
-0.018589
-0.009688
-0.013610
-0.021002
-0.131716
-0.132318
-0.133510
-0.023114
-0.025884
-0.012373
-0.023548
-0.123417
-0.124881
-0.124101
-0.124082
-0.012284
-0.010358
-0.012229
-0.080217
-0.082617
-0.080058
-0.052103
-0.050285
-0.050497
-0.082016
-0.048792
-0.136058
-0.137556
-0.136061
-0.137936
-0.008143
-0.173170
-0.172689
-0.170827
-0.170381
-0.152845
-0.156955
-0.175629
-0.176359
-0.174915
-0.061116
-0.063449
-0.176935
-0.042692
-0.036068
-0.037669
-0.007592
-0.006394
-0.004648
-0.010721
-0.105823
-0.104399
-0.105816
-0.037974
-0.057771
-0.062746
-0.060939
-0.065318
-0.010323
-0.012527
-0.006980
-0.007634
-0.005521
-0.089997
-0.090291
-0.015185
-0.108020
-0.105809
-0.107154
-0.107138
-0.123375
-0.145255
-0.156489
-0.164356
-0.158303
-0.158583
-0.160287
0.003607
-0.001140
0.001131
-0.010089
-0.008032
-0.008698
-0.038406
-0.039510
-0.036281
-0.121323
-0.122152
-0.120177
-0.120435
-0.037899
-0.108893
-0.110511
-0.110500
-0.077863
-0.047196
-0.046983
-0.045328
-0.023692
-0.020997
-0.021848
-0.127729
-0.129341
-0.128536
-0.022176
-0.023075
-0.021221
-0.109819
-0.108711
-0.095958
-0.094739
-0.067747
-0.075637
-0.074532
-0.134141
-0.132792
-0.132739
-0.133766
-0.159422
-0.146172
-0.151126
-0.124429
-0.048411
-0.050370
-0.049757
-0.051931
-0.012869
-0.014066
-0.015079
0.006640
0.006579
-0.097564
-0.098400
-0.091023
-0.052861
-0.163499
-0.125412
-0.127926
-0.004639
-0.006755
-0.005243
-0.005203
-0.174257
-0.174332
-0.172076
-0.174820
-0.176452
0.005156
0.006177
0.000053
-0.124546
-0.088449
-0.088558
-0.090098
-0.162296
-0.167741
-0.150285
-0.144430
-0.134778
-0.089614
-0.072486
-0.071588
-0.074840
-0.072298
-0.101288
-0.099839
-0.102000
0.006645
0.000192
-0.183192
-0.185407
-0.184543
-0.112746
-0.110926
-0.112718
-0.110900
-0.098730
-0.098790
-0.097597
-0.005673
-0.006237
-0.199166
-0.197897
-0.174384
-0.171562
-0.175648
-0.012676
-0.015654
-0.009405
-0.076572
-0.066484
-0.066040
-0.015985
-0.014458
-0.012665
-0.084240
-0.083354
-0.082169
-0.012370
-0.065370
-0.066091
-0.079883
-0.138435
-0.139745
-0.114782
-0.005427
-0.006167
-0.101927
-0.100640
-0.103225
-0.100959
-0.102661
-0.100525
-0.005568
-0.097163
-0.096291
-0.098636
-0.098653
-0.096095
-0.071658
-0.066944
-0.096717
-0.172649
-0.173012
-0.141119
-0.155736
-0.149591
-0.155260
-0.100138
-0.157576
-0.088748
-0.087167
-0.086926
-0.087971
-0.087389
-0.090233
-0.006844
-0.006932
-0.008238
-0.007888
-0.169586
-0.167761
-0.168329
0.008239
0.010663
0.005548
-0.166646
-0.153091
0.003911
0.002618
0.002262
-0.115301
-0.144153
0.000650
-0.069973
-0.013077
-0.015913
-0.152504
-0.153805
-0.152738
-0.154469
-0.150717
-0.150906
-0.129469
-0.133237
-0.128212
-0.133466
-0.181818
-0.182632
-0.183320
-0.013807
-0.015826
-0.010685
-0.124994
-0.129546
-0.122591
-0.037595
-0.043571
-0.073381
-0.049086
-0.044421
-0.055487
-0.002594
-0.144793
-0.166758
-0.077311
-0.074295
-0.004980
-0.001323
-0.002948
-0.081338
-0.084651
-0.069351
-0.069074
-0.161307
-0.127755
-0.009733
-0.012646
-0.010042
-0.004267
-0.004294
-0.029987
-0.031492
-0.027121
-0.013809
-0.006477
-0.004427
-0.105314
-0.106784
-0.109484
-0.119252
-0.105036
-0.027929
-0.138910
-0.137995
-0.137196
-0.120065
-0.124189
-0.126482
-0.128901
-0.061246
-0.059554
-0.062832
-0.136719
-0.081576
-0.105445
-0.102713
-0.114641
-0.147090
-0.149821
-0.148997
-0.147915
-0.004862
-0.006415
-0.006132
-0.036622
-0.034448
-0.036103
-0.004865
-0.034216
-0.036865
-0.039112
-0.066267
-0.073938
-0.071422
0.000834
-0.002206
0.001274
-0.008741
-0.136521
-0.133177
-0.142108
-0.137332
-0.137952
-0.124520
-0.122254
-0.003981
-0.047767
-0.046348
-0.190692
-0.192441
-0.186458
-0.118523
-0.120352
-0.075437
-0.077123
-0.075239
-0.076973
-0.017071
-0.019518
-0.019362
-0.021890
-0.047030
-0.147900
-0.002276
-0.003955
-0.003780
-0.189490
-0.192187
-0.187350
-0.128977
-0.123990
-0.127414
-0.132183
-0.133737
-0.013512
-0.012254
-0.011261
-0.146849
-0.149391
-0.153705
-0.153461
-0.054379
-0.052725
-0.053882
-0.051716
-0.027692
-0.030215
-0.028367
-0.028991
-0.046516
-0.036739
-0.043218
-0.005770
-0.003546
-0.027921
-0.144534
-0.145041
-0.119288
-0.119357
-0.117372
-0.116515
-0.018290
-0.015502
-0.016319
-0.013322
-0.021255
-0.020249
-0.079293
-0.023163
-0.057696
-0.057876
-0.059974
-0.057818
-0.056564
-0.060188
-0.058316
-0.055848
-0.058948
-0.163348
-0.162839
-0.164296
-0.055899
-0.163642
-0.162085
-0.161901
-0.133122
-0.126413
-0.103218
-0.100563
-0.110975
-0.079361
-0.126448
-0.128100
-0.129388
-0.126108
-0.112311
-0.097107
-0.097572
-0.031319
-0.017685
-0.021119
-0.094679
-0.096994
-0.095119
-0.096541
-0.008504
-0.007302
-0.009405
-0.007178
-0.072125
-0.053545
-0.061622
-0.023991
-0.021273
-0.046379
-0.037176
-0.034078
-0.055150
-0.053363
-0.053446
-0.054320
-0.075565
-0.069506
-0.073063
-0.060990
-0.117528
-0.120141
-0.120404
-0.122295
-0.118960
-0.120835
-0.105522
-0.000642
-0.000698
-0.033324
-0.032316
-0.034559
-0.030999
-0.043024
-0.043962
-0.045218
-0.042225
-0.040905
-0.043280
-0.010296
-0.146047
-0.147330
-0.145447
-0.112493
-0.103419
-0.108742
-0.097550
-0.122097
-0.114746
-0.121939
-0.111478
-0.121182
-0.126026
-0.028016
-0.023359
-0.027452
-0.006799
-0.008893
-0.020538
-0.021002
-0.023137
-0.020415
-0.023198
-0.098019
-0.098070
-0.096509
-0.099515
-0.146692
-0.125320
-0.127676
-0.083924
-0.084699
-0.096844
-0.042296
-0.040980
-0.040652
-0.042285
-0.044558
-0.057777
-0.122533
-0.120880
-0.085636
-0.083516
-0.043913
-0.041247
-0.051473
-0.048954
-0.157644
-0.158219
-0.082937
-0.071371
-0.089382
-0.053746
-0.054393
-0.056063
-0.085632
-0.067156
-0.061221
-0.062348
-0.065554
-0.067668
-0.065340
-0.099506
-0.099973
-0.094745
-0.130649
-0.069714
-0.094600
-0.077598
-0.080251
-0.092012
-0.039550
-0.044123
-0.113409
-0.115183
-0.113498
-0.114626
-0.090281
-0.086859
-0.106760
-0.098083
-0.121805
-0.102612
-0.112012
-0.108756
-0.046595
-0.048447
-0.049642
-0.048937
-0.047317
-0.050556
-0.049171
-0.045047
-0.052381
-0.123245
-0.124063
-0.121759
-0.122436
-0.121388
-0.122664
-0.077243
-0.084983
-0.066803
-0.088543
-0.088444
-0.091413
-0.113349
-0.111795
-0.111453
-0.109629
-0.033982
-0.031290
-0.041145
-0.123190
-0.124415
-0.200618
-0.193914
-0.035291
-0.027503
-0.021268
-0.139327
-0.140575
-0.141711
-0.159710
-0.137402
-0.135903
-0.131808
-0.036216
-0.037630
-0.039475
-0.111423
-0.099684
-0.083699
-0.083042
-0.085001
-0.095804
-0.066528
-0.064443
-0.055234
-0.068995
-0.088734
-0.088539
-0.089781
-0.087236
-0.087003
-0.030983
-0.032610
-0.028720
-0.030375
-0.027832
-0.025124
-0.042012
-0.039462
-0.041864
-0.038827
-0.039958
-0.036151
-0.044103
-0.016014
-0.014668
-0.008896
-0.010110
-0.009652
-0.007878
-0.007035
-0.032991
-0.036258
-0.011396
-0.013793
-0.113152
-0.111981
-0.113965
-0.039044
-0.034892
-0.105839
-0.106381
-0.079280
-0.055503
0.003850
-0.009170
-0.010702
-0.012458
-0.030801
-0.031614
-0.033147
-0.033280
-0.014598
-0.103824
-0.017647
-0.121196
-0.115439
-0.140183
-0.104835
-0.083346
-0.132376
-0.136901
-0.186074
-0.194662
-0.180498
-0.051204
-0.052526
-0.050798
-0.133045
-0.124249
-0.021475
-0.021037
-0.051444
-0.051029
-0.077380
-0.075742
-0.090520
-0.097466
-0.100797
-0.023799
-0.020907
-0.020187
-0.192328
-0.192201
-0.193612
-0.025059
-0.019390
-0.030584
-0.029174
-0.076060
-0.071712
-0.089109
-0.148269
-0.087089
-0.013819
-0.003965
-0.005457
-0.046468
-0.045143
-0.026033
-0.025904
-0.044081
-0.046229
-0.044460
0.001764
-0.081784
-0.078947
-0.080140
0.000347
-0.080420
-0.078895
-0.080934
-0.028660
-0.086203
-0.068588
-0.067941
-0.066723
-0.173205
-0.139421
-0.180445
-0.069405
-0.066938
-0.104577
-0.123158
-0.194448
-0.193185
-0.199823
-0.069572
-0.148894
-0.205609
-0.205138
-0.203714
-0.094666
-0.084450
-0.094047
-0.005308
-0.005239
-0.204845
-0.188266
-0.090227
-0.091186
-0.026685
-0.030008
-0.026726
-0.050147
-0.072011
-0.071382
-0.085919
-0.066026
-0.068856
-0.070200
-0.003402
-0.001694
-0.002105
-0.077296
-0.077072
-0.091149
-0.093483
-0.093286
-0.095575
-0.049630
-0.035408
-0.052979
-0.078975
-0.204608
-0.205402
-0.204050
-0.147646
-0.147467
-0.151531
-0.138193
-0.152098
-0.154350
-0.156070
-0.141905
-0.140144
-0.141225
-0.146330
-0.073094
-0.017684
-0.022109
-0.030752
-0.068777
-0.034335
-0.005321
-0.005797
-0.001804
-0.094585
-0.095863
-0.007326
-0.004214
-0.003692
-0.129436
-0.129830
-0.089718
-0.025281
-0.079918
-0.029575
-0.202987
-0.202854
-0.202626
-0.009503
-0.012439
-0.009910
-0.010807
-0.024146
0.003772
-0.012224
-0.105017
-0.008922
-0.008867
-0.008145
-0.008187
-0.008208
-0.005816
-0.006495
-0.004083
-0.057504
-0.009318
-0.007283
-0.012429
-0.128923
-0.121611
-0.117459
-0.014662
-0.016844
0.001195
-0.170331
-0.166987
-0.137561
-0.184366
-0.000816
-0.072650
-0.023200
-0.020883
-0.021905
-0.005819
-0.007601
-0.008013
-0.010158
-0.048200
-0.050659
-0.152394
-0.153914
-0.087300
-0.153614
-0.004031
-0.003940
-0.002086
-0.155233
-0.192286
-0.199255
-0.011847
0.003722
-0.199214
-0.197646
-0.059377
-0.061507
-0.060341
-0.063004
-0.025987
-0.031330
-0.026455
-0.027973
-0.002568
-0.008197
-0.100470
-0.203427
-0.197205
-0.154742
-0.149644
-0.153808
-0.150304
-0.148861
-0.139439
-0.144332
-0.131087
-0.145526
-0.135688
-0.196049
-0.090842
-0.091897
-0.091355
-0.195685
-0.193406
-0.194743
-0.192407
-0.191832
-0.130252
-0.132304
-0.129732
-0.133774
-0.179612
-0.176973
-0.178260
-0.178747
-0.153811
-0.170420
-0.172071
-0.168207
-0.097216
-0.095347
-0.092936
-0.190428
-0.190479
-0.189887
-0.201776
-0.201856
-0.200615
-0.177956
-0.179260
-0.176424
-0.175264
-0.177713
-0.195639
-0.193679
-0.195216
-0.186275
-0.184843
-0.188631
-0.186744
0.004262
-0.184067
-0.183614
-0.068501
-0.072428
-0.165171
-0.163829
-0.175835
-0.176307
-0.163113
-0.179955
-0.165384
-0.102475
-0.194960
-0.193478
-0.104039
-0.143997
-0.143941
-0.146106
-0.147035
-0.145162
-0.177942
-0.180445
-0.175206
-0.060425
-0.057500
-0.057745
0.003941
-0.137615
-0.136348
-0.138462
-0.136051
-0.053619
-0.056964
-0.060243
-0.187382
-0.188902
-0.186691
-0.192097
-0.194062
-0.188875
-0.173968
-0.135895
-0.140617
0.004379
-0.175843
-0.173479
-0.198343
-0.172300
-0.192481
-0.193134
-0.196971
-0.185955
-0.188221
-0.180037
-0.182292
-0.180861
-0.183496
-0.069083
-0.067996
-0.076746
-0.157910
-0.159260
-0.079028
-0.157119
-0.156117
-0.158314
-0.154833
-0.156815
-0.154832
-0.195926
-0.193881
-0.188217
-0.053921
-0.166397
-0.004011
-0.007312
-0.158177
-0.160231
-0.159351
-0.184848
-0.185977
-0.187180
-0.183333
-0.142679
-0.142427
-0.141740
-0.115693
-0.113289
-0.116556
-0.113966
-0.111434
-0.163046
-0.162985
-0.164842
-0.007722
-0.008000
-0.189685
-0.188677
-0.007751
-0.077873
-0.087240
-0.115341
-0.113653
-0.118888
-0.118416
-0.111706
-0.058776
-0.062005
-0.054033
-0.117407
-0.114316
-0.019870
-0.023021
-0.020114
-0.022233
-0.146378
-0.145406
-0.165958
-0.172258
-0.173703
-0.171348
-0.172713
-0.170416
-0.052318
-0.192431
-0.190578
-0.191844
-0.190540
-0.192073
-0.118385
-0.121279
-0.121513
-0.118082
-0.120298
-0.145635
-0.180967
-0.161401
-0.161410
-0.055123
-0.052036
-0.053947
-0.053565
-0.152800
-0.151406
-0.150109
-0.153046
-0.152073
-0.004790
-0.080607
-0.078785
-0.083509
-0.079803
-0.008202
-0.008034
-0.009278
-0.149278
-0.165215
-0.166602
-0.165883
-0.166194
-0.167749
-0.194282
-0.193048
-0.193642
-0.008103
-0.182456
-0.182635
-0.171472
-0.171754
-0.191080
-0.196897
-0.199965
-0.169187
-0.147637
-0.146637
-0.149480
-0.151226
-0.150091
-0.147470
-0.075287
-0.074135
-0.181945
-0.179767
-0.179836
-0.173864
-0.172124
-0.007375
-0.007429
-0.073394
-0.074295
-0.072417
-0.071200
-0.154732
-0.152332
-0.158170
-0.157255
-0.160159
-0.119231
-0.114510
-0.113548
-0.118917
-0.162564
-0.166832
-0.164394
-0.164902
-0.168386
-0.092004
-0.093195
-0.098393
-0.098310
-0.033751
-0.033401
-0.036207
-0.039280
-0.025995
-0.181628
-0.180212
-0.178209
-0.178639
-0.180152
-0.181086
-0.183364
-0.189827
-0.187352
-0.186749
-0.185100
-0.181162
-0.090820
-0.094002
-0.075260
-0.120609
-0.118975
-0.121144
-0.119098
-0.179698
-0.181976