# vtk DataFile Version 2.0
Test
ASCII
DATASET POLYDATA
POINTS 5816 float
0.000000 0.000000 0.000000
2.000000 0.000000 0.000000
2.000000 4.000000 0.000000
0.000000 4.000000 0.000000
0.000000 0.500000 0.000000
1.500000 2.000000 0.000000
2.000000 2.500000 0.000000
0.285714 0.000000 0.000000
0.571429 0.000000 0.000000
0.857143 0.000000 0.000000
1.142857 0.000000 0.000000
1.428571 0.000000 0.000000
1.714286 0.000000 0.000000
2.000000 0.275040 0.000000
2.000000 0.520628 0.000000
2.000000 0.739917 0.000000
2.000000 0.935725 0.000000
2.000000 1.110565 0.000000
2.000000 1.266683 0.000000
2.000000 1.406084 0.000000
2.000000 1.530557 0.000000
2.000000 1.641701 0.000000
2.000000 1.740944 0.000000
2.000000 1.829560 0.000000
2.000000 1.908686 0.000000
2.000000 1.979340 0.000000
2.000000 2.042428 0.000000
2.000000 2.098760 0.000000
2.000000 2.149060 0.000000
2.000000 2.193974 0.000000
2.000000 2.234078 0.000000
2.000000 2.269888 0.000000
2.000000 2.301863 0.000000
2.000000 2.330415 0.000000
2.000000 2.355908 0.000000
2.000000 2.378673 0.000000
2.000000 2.398999 0.000000
2.000000 2.417149 0.000000
2.000000 2.433355 0.000000
2.000000 2.447826 0.000000
2.000000 2.460747 0.000000
2.000000 2.472285 0.000000
2.000000 2.482587 0.000000
2.000000 2.491786 0.000000
2.000000 2.508637 0.000000
2.000000 2.519089 0.000000
2.000000 2.531737 0.000000
2.000000 2.547044 0.000000
2.000000 2.565568 0.000000
2.000000 2.587985 0.000000
2.000000 2.615113 0.000000
2.000000 2.647942 0.000000
2.000000 2.687670 0.000000
2.000000 2.735749 0.000000
2.000000 2.793931 0.000000
2.000000 2.864341 0.000000
2.000000 2.949549 0.000000
2.000000 3.052664 0.000000
2.000000 3.177450 0.000000
2.000000 3.328462 0.000000
2.000000 3.511210 0.000000
2.000000 3.732366 0.000000
1.714286 4.000000 0.000000
1.428571 4.000000 0.000000
1.142857 4.000000 0.000000
0.857143 4.000000 0.000000
0.571429 4.000000 0.000000
0.285714 4.000000 0.000000
0.000000 3.715673 0.000000
0.000000 3.453827 0.000000
0.000000 3.212685 0.000000
0.000000 2.990611 0.000000
0.000000 2.786096 0.000000
0.000000 2.597752 0.000000
0.000000 2.424300 0.000000
0.000000 2.264564 0.000000
0.000000 2.117457 0.000000
0.000000 1.981983 0.000000
0.000000 1.857220 0.000000
0.000000 1.742322 0.000000
0.000000 1.636510 0.000000
0.000000 1.539064 0.000000
0.000000 1.449323 0.000000
0.000000 1.366678 0.000000
0.000000 1.290567 0.000000
0.000000 1.220475 0.000000
0.000000 1.155925 0.000000
0.000000 1.096479 0.000000
0.000000 1.041733 0.000000
0.000000 0.991316 0.000000
0.000000 0.944886 0.000000
0.000000 0.902126 0.000000
0.000000 0.862748 0.000000
0.000000 0.826483 0.000000
0.000000 0.793086 0.000000
0.000000 0.762330 0.000000
0.000000 0.734005 0.000000
0.000000 0.707920 0.000000
0.000000 0.683898 0.000000
0.000000 0.661775 0.000000
0.000000 0.641402 0.000000
0.000000 0.622639 0.000000
0.000000 0.605360 0.000000
0.000000 0.589447 0.000000
0.000000 0.574792 0.000000
0.000000 0.561296 0.000000
0.000000 0.548868 0.000000
0.000000 0.537421 0.000000
0.000000 0.526881 0.000000
0.000000 0.517173 0.000000
0.000000 0.508233 0.000000
0.000000 0.491468 0.000000
0.000000 0.479827 0.000000
0.000000 0.463944 0.000000
0.000000 0.442273 0.000000
0.000000 0.412707 0.000000
0.000000 0.372368 0.000000
0.000000 0.317330 0.000000
0.000000 0.242238 0.000000
0.000000 0.139785 0.000000
0.005639 0.505639 0.000000
0.011278 0.511278 0.000000
0.016917 0.516917 0.000000
0.022556 0.522556 0.000000
0.028195 0.528195 0.000000
0.033835 0.533835 0.000000
0.039474 0.539474 0.000000
0.045113 0.545113 0.000000
0.050752 0.550752 0.000000
0.056391 0.556391 0.000000
0.062030 0.562030 0.000000
0.067669 0.567669 0.000000
0.073308 0.573308 0.000000
0.078947 0.578947 0.000000
0.084586 0.584586 0.000000
0.090226 0.590226 0.000000
0.095865 0.595865 0.000000
0.101504 0.601504 0.000000
0.107143 0.607143 0.000000
0.112782 0.612782 0.000000
0.118421 0.618421 0.000000
0.124060 0.624060 0.000000
0.129699 0.629699 0.000000
0.135338 0.635338 0.000000
0.140977 0.640977 0.000000
0.146617 0.646617 0.000000
0.152256 0.652256 0.000000
0.157895 0.657895 0.000000
0.163534 0.663534 0.000000
0.169173 0.669173 0.000000
0.174812 0.674812 0.000000
0.180451 0.680451 0.000000
0.186090 0.686090 0.000000
0.191729 0.691729 0.000000
0.197368 0.697368 0.000000
0.203008 0.703008 0.000000
0.208647 0.708647 0.000000
0.214286 0.714286 0.000000
0.219925 0.719925 0.000000
0.225564 0.725564 0.000000
0.231203 0.731203 0.000000
0.236842 0.736842 0.000000
0.242481 0.742481 0.000000
0.248120 0.748120 0.000000
0.253759 0.753759 0.000000
0.259398 0.759398 0.000000
0.265038 0.765038 0.000000
0.270677 0.770677 0.000000
0.276316 0.776316 0.000000
0.281955 0.781955 0.000000
0.287594 0.787594 0.000000
0.293233 0.793233 0.000000
0.298872 0.798872 0.000000
0.304511 0.804511 0.000000
0.310150 0.810150 0.000000
0.315789 0.815789 0.000000
0.321429 0.821429 0.000000
0.327068 0.827068 0.000000
0.332707 0.832707 0.000000
0.338346 0.838346 0.000000
0.343985 0.843985 0.000000
0.349624 0.849624 0.000000
0.355263 0.855263 0.000000
0.360902 0.860902 0.000000
0.366541 0.866541 0.000000
0.372180 0.872180 0.000000
0.377820 0.877820 0.000000
0.383459 0.883459 0.000000
0.389098 0.889098 0.000000
0.394737 0.894737 0.000000
0.400376 0.900376 0.000000
0.406015 0.906015 0.000000
0.411654 0.911654 0.000000
0.417293 0.917293 0.000000
0.422932 0.922932 0.000000
0.428571 0.928571 0.000000
0.434211 0.934211 0.000000
0.439850 0.939850 0.000000
0.445489 0.945489 0.000000
0.451128 0.951128 0.000000
0.456767 0.956767 0.000000
0.462406 0.962406 0.000000
0.468045 0.968045 0.000000
0.473684 0.973684 0.000000
0.479323 0.979323 0.000000
0.484962 0.984962 0.000000
0.490602 0.990602 0.000000
0.496241 0.996241 0.000000
0.501880 1.001880 0.000000
0.507519 1.007519 0.000000
0.513158 1.013158 0.000000
0.518797 1.018797 0.000000
0.524436 1.024436 0.000000
0.530075 1.030075 0.000000
0.535714 1.035714 0.000000
0.541353 1.041353 0.000000
0.546992 1.046992 0.000000
0.552632 1.052632 0.000000
0.558271 1.058271 0.000000
0.563910 1.063910 0.000000
0.569549 1.069549 0.000000
0.575188 1.075188 0.000000
0.580827 1.080827 0.000000
0.586466 1.086466 0.000000
0.592105 1.092105 0.000000
0.597744 1.097744 0.000000
0.603383 1.103383 0.000000
0.609023 1.109023 0.000000
0.614662 1.114662 0.000000
0.620301 1.120301 0.000000
0.625940 1.125940 0.000000
0.631579 1.131579 0.000000
0.637218 1.137218 0.000000
0.642857 1.142857 0.000000
0.648496 1.148496 0.000000
0.654135 1.154135 0.000000
0.659774 1.159774 0.000000
0.665414 1.165414 0.000000
0.671053 1.171053 0.000000
0.676692 1.176692 0.000000
0.682331 1.182331 0.000000
0.687970 1.187970 0.000000
0.693609 1.193609 0.000000
0.699248 1.199248 0.000000
0.704887 1.204887 0.000000
0.710526 1.210526 0.000000
0.716165 1.216165 0.000000
0.721805 1.221805 0.000000
0.727444 1.227444 0.000000
0.733083 1.233083 0.000000
0.738722 1.238722 0.000000
0.744361 1.244361 0.000000
0.750000 1.250000 0.000000
0.755639 1.255639 0.000000
0.761278 1.261278 0.000000
0.766917 1.266917 0.000000
0.772556 1.272556 0.000000
0.778195 1.278195 0.000000
0.783835 1.283835 0.000000
0.789474 1.289474 0.000000
0.795113 1.295113 0.000000
0.800752 1.300752 0.000000
0.806391 1.306391 0.000000
0.812030 1.312030 0.000000
0.817669 1.317669 0.000000
0.823308 1.323308 0.000000
0.828947 1.328947 0.000000
0.834586 1.334586 0.000000
0.840226 1.340226 0.000000
0.845865 1.345865 0.000000
0.851504 1.351504 0.000000
0.857143 1.357143 0.000000
0.862782 1.362782 0.000000
0.868421 1.368421 0.000000
0.874060 1.374060 0.000000
0.879699 1.379699 0.000000
0.885338 1.385338 0.000000
0.890977 1.390977 0.000000
0.896617 1.396617 0.000000
0.902256 1.402256 0.000000
0.907895 1.407895 0.000000
0.913534 1.413534 0.000000
0.919173 1.419173 0.000000
0.924812 1.424812 0.000000
0.930451 1.430451 0.000000
0.936090 1.436090 0.000000
0.941729 1.441729 0.000000
0.947368 1.447368 0.000000
0.953008 1.453008 0.000000
0.958647 1.458647 0.000000
0.964286 1.464286 0.000000
0.969925 1.469925 0.000000
0.975564 1.475564 0.000000
0.981203 1.481203 0.000000
0.986842 1.486842 0.000000
0.992481 1.492481 0.000000
0.998120 1.498120 0.000000
1.003759 1.503759 0.000000
1.009398 1.509398 0.000000
1.015038 1.515038 0.000000
1.020677 1.520677 0.000000
1.026316 1.526316 0.000000
1.031955 1.531955 0.000000
1.037594 1.537594 0.000000
1.043233 1.543233 0.000000
1.048872 1.548872 0.000000
1.054511 1.554511 0.000000
1.060150 1.560150 0.000000
1.065789 1.565789 0.000000
1.071429 1.571429 0.000000
1.077068 1.577068 0.000000
1.082707 1.582707 0.000000
1.088346 1.588346 0.000000
1.093985 1.593985 0.000000
1.099624 1.599624 0.000000
1.105263 1.605263 0.000000
1.110902 1.610902 0.000000
1.116541 1.616541 0.000000
1.122180 1.622180 0.000000
1.127820 1.627820 0.000000
1.133459 1.633459 0.000000
1.139098 1.639098 0.000000
1.144737 1.644737 0.000000
1.150376 1.650376 0.000000
1.156015 1.656015 0.000000
1.161654 1.661654 0.000000
1.167293 1.667293 0.000000
1.172932 1.672932 0.000000
1.178571 1.678571 0.000000
1.184211 1.684211 0.000000
1.189850 1.689850 0.000000
1.195489 1.695489 0.000000
1.201128 1.701128 0.000000
1.206767 1.706767 0.000000
1.212406 1.712406 0.000000
1.218045 1.718045 0.000000
1.223684 1.723684 0.000000
1.229323 1.729323 0.000000
1.234962 1.734962 0.000000
1.240602 1.740602 0.000000
1.246241 1.746241 0.000000
1.251880 1.751880 0.000000
1.257519 1.757519 0.000000
1.263158 1.763158 0.000000
1.268797 1.768797 0.000000
1.274436 1.774436 0.000000
1.280075 1.780075 0.000000
1.285714 1.785714 0.000000
1.291353 1.791353 0.000000
1.296992 1.796992 0.000000
1.302632 1.802632 0.000000
1.308271 1.808271 0.000000
1.313910 1.813910 0.000000
1.319549 1.819549 0.000000
1.325188 1.825188 0.000000
1.330827 1.830827 0.000000
1.336466 1.836466 0.000000
1.342105 1.842105 0.000000
1.347744 1.847744 0.000000
1.353383 1.853383 0.000000
1.359023 1.859023 0.000000
1.364662 1.864662 0.000000
1.370301 1.870301 0.000000
1.375940 1.875940 0.000000
1.381579 1.881579 0.000000
1.387218 1.887218 0.000000
1.392857 1.892857 0.000000
[...]
POINT_DATA 5816
SCALARS UX float 1
LOOKUP_TABLE default
-0.070339
0.038519
-0.037049
-0.142349
-0.094704
0.020799
-0.008564
-0.058312
-0.044322
-0.028848
-0.012467
0.004612
0.021669
0.054860
0.069559
0.082321
0.093137
0.101886
0.107979
0.112269
0.113356
0.111536
0.106634
0.098201
0.087557
0.075554
0.063334
0.051962
0.041713
0.033039
0.025666
0.019613
0.014554
0.010363
0.006892
0.003976
0.001544
-0.000512
-0.002254
-0.003740
-0.005007
-0.006099
-0.007043
-0.007857
-0.009286
-0.010135
-0.011133
-0.012283
-0.013618
-0.015106
-0.016793
-0.018604
-0.020601
-0.022712
-0.024898
-0.027079
-0.029190
-0.031245
-0.032849
-0.034422
-0.035767
-0.036642
-0.054706
-0.071206
-0.086390
-0.100648
-0.114325
-0.128298
-0.141216
-0.138838
-0.135238
-0.131490
-0.128416
-0.126353
-0.125871
-0.127241
-0.130307
-0.134783
-0.140584
-0.147112
-0.154090
-0.161263
-0.168438
-0.175501
-0.182235
-0.188594
-0.194557
-0.200093
-0.205177
-0.209830
-0.214096
-0.218037
-0.221506
-0.224598
-0.227361
-0.229841
-0.232052
-0.233955
-0.235535
-0.236665
-0.237210
-0.237398
-0.237362
-0.237102
-0.236667
-0.232833
-0.225461
-0.222009
-0.237022
-0.201351
-0.151611
-0.072977
-0.063984
-0.056635
-0.052702
-0.051635
-0.052348
-0.054837
-0.058411
-0.063776
-0.089081
-0.084225
-0.096452
-0.103016
-0.100920
-0.098766
-0.097296
-0.099337
-0.097763
-0.103606
-0.104034
-0.102435
-0.105269
-0.105168
-0.106797
-0.105909
-0.106772
-0.106637
-0.104807
-0.103838
-0.103345
-0.104291
-0.102743
-0.104467
-0.109269
-0.111034
-0.109910
-0.109249
-0.111843
-0.109936
-0.113913
-0.113249
-0.113523
-0.113864
-0.113714
-0.110561
-0.112262
-0.111881
-0.109494
-0.109903
-0.109360
-0.107810
-0.107961
-0.108423
-0.107578
-0.107930
-0.105725
-0.105781
-0.106241
-0.105168
-0.102854
-0.100253
-0.097461
-0.097284
-0.095632
-0.091163
-0.091065
-0.088147
-0.086574
-0.084383
-0.083459
-0.081449
-0.082540
-0.080733
-0.079106
-0.078874
-0.080465
-0.074652
-0.074533
-0.074585
-0.072886
-0.074279
-0.071105
-0.071851
-0.069227
-0.069730
-0.069465
-0.067900
-0.067072
-0.067074
-0.066385
-0.066210
-0.065082
-0.064396
-0.087759
-0.085580
-0.094873
-0.093114
-0.092709
-0.091847
-0.089304
-0.089742
-0.089393
-0.087071
-0.085595
-0.083382
-0.081175
-0.082974
-0.079468
-0.077117
-0.079766
-0.076918
-0.075379
-0.076664
-0.076633
-0.075087
-0.074327
-0.076705
-0.076552
-0.076941
-0.075850
-0.075866
-0.074733
-0.073882
-0.071604
-0.070424
-0.070645
-0.070450
-0.068879
-0.069408
-0.067095
-0.068324
-0.066833
-0.066214
-0.066609
-0.066020
-0.065131
-0.064206
-0.063197
-0.061595
-0.061324
-0.060927
-0.058150
-0.057172
-0.056536
-0.055689
-0.056136
-0.053992
-0.052548
-0.052747
-0.052116
-0.050330
-0.049505
-0.049611
-0.047217
-0.047550
-0.046653
-0.047636
-0.040966
-0.040481
-0.040073
-0.038218
-0.036759
-0.035808
-0.036603
-0.033712
-0.035960
-0.032560
-0.033309
-0.031278
-0.030373
-0.028192
-0.028221
-0.027869
-0.026715
-0.026803
-0.026099
-0.027321
-0.024888
-0.024368
-0.021969
-0.020554
-0.020586
-0.018585
-0.019329
-0.016528
-0.017647
-0.015794
-0.016207
-0.015154
-0.012787
-0.012877
-0.011162
-0.010133
-0.007672
-0.006027
-0.003719
-0.003227
-0.001196
-0.014524
-0.012778
-0.012558
-0.012481
-0.012473
-0.011476
-0.010397
-0.008110
-0.007730
-0.005947
-0.004331
-0.002815
-0.009410
-0.007858
-0.011598
-0.010075
-0.009375
-0.008873
-0.006400
-0.010857
-0.019025
-0.017195
-0.015118
-0.012789
-0.012625
-0.012127
-0.013224
-0.010548
-0.010507
-0.008667
-0.007760
-0.007289
-0.006840
-0.004969
-0.002999
-0.002111
-0.001810
0.001202
0.002370
0.004876
0.006337
0.007265
0.008380
0.008271
0.010244
0.008688
0.010873
0.009010
0.009077
0.010222
0.007447
0.009860
0.008965
0.010288
0.010723
0.013000
0.005060
0.005142
0.004579
0.006873
0.006890
0.006881
0.007969
0.010298
0.011481
0.010173
0.012473
0.013920
0.013867
0.014173
0.014347
0.011876
0.015002
0.017134
0.017919
0.018493
0.017990
0.017506
0.016591
0.015901
0.015163
0.014350
0.013642
0.012910
0.012267
0.011654
0.011060
0.010525
0.010039
0.009558
0.009062
0.008610
0.008168
0.007747
0.007349
0.006948
0.006564
0.006188
0.005759
0.005333
0.004927
0.004537
0.004158
0.003791
0.003442
0.003095
0.002758
0.002424
0.002096
0.001772
0.001452
0.001133
0.000814
0.000496
0.000186
-0.000125
-0.000436
-0.000742
-0.001038
-0.001339
-0.001643
-0.001937
-0.002230
-0.002522
-0.002813
-0.003097
-0.003379
-0.003662
-0.003929
-0.004201
-0.004465
-0.004726
-0.004979
-0.005226
-0.005474
-0.005709
-0.005940
-0.006166
-0.006380
-0.006585
-0.006785
-0.006976
-0.007157
-0.007331
-0.007494
-0.007647
-0.007792
-0.007926
-0.008048
-0.008162
-0.008264
-0.008357
-0.008437
-0.008507
-0.008567
-0.008614
-0.008652
-0.008678
-0.008695
-0.008700
-0.008693
-0.008675
-0.008649
-0.008611
-0.036728
-0.037656
-0.039838
-0.033270
-0.070901
-0.071072
-0.073125
-0.073216
-0.052300
-0.050472
-0.048058
-0.082774
-0.086780
-0.084062
-0.087635
-0.078894
-0.075808
-0.075728
-0.009082
-0.007935
-0.009197
-0.008050
-0.120066
-0.117624
-0.118817
-0.118709
-0.079847
-0.010037
-0.008552
-0.010893
-0.010278
-0.109773
-0.108865
-0.107080
-0.107396
-0.093059
-0.093123
-0.095205
-0.094680
-0.101127
-0.097933
-0.098393
-0.021495
-0.023107
-0.019580
-0.021616
-0.100032
-0.076399
-0.078329
-0.076637
-0.078316
-0.045257
-0.048054
-0.046533
-0.043790
-0.042408
-0.044385
-0.042722
-0.165602
-0.164490
-0.166754
-0.164555
-0.046717
-0.092054
-0.095486
-0.176207
-0.175567
-0.174799
-0.177006
-0.176107
-0.171053
-0.176866
-0.094516
-0.062474
-0.065139
-0.067144
-0.210388
-0.210067
-0.208821
-0.208518
-0.015822
-0.018303
-0.017128
-0.019562
-0.092953
-0.096908
-0.099377
-0.088499
-0.208887
-0.207333
-0.203848
-0.202281
-0.201523
-0.200676
-0.214220
-0.214742
-0.213009
-0.215932
-0.197009
-0.194234
-0.196487
-0.194605
-0.231894
-0.231684
-0.233366
-0.230366
-0.024324
-0.020426
-0.022682
-0.087624
-0.165726
-0.079060
-0.101345
-0.097716
-0.102129
-0.097267
-0.177996
-0.180631
-0.106395
-0.106517
-0.108333
-0.181267
-0.145986
-0.145714
-0.144455
-0.097814
-0.093341
-0.092039
-0.087933
-0.093517
-0.091030
-0.096943
-0.088042
-0.099315
-0.096430
-0.100284
-0.097027
-0.113435
-0.111057
-0.108896
-0.105866
-0.147474
-0.120654
-0.118967
-0.119448
-0.011710
-0.010695
-0.010613
-0.012057
-0.118824
-0.045466
-0.046987
-0.047683
-0.009648
-0.009569
-0.076395
-0.076490
-0.072325
-0.079894
-0.097330
-0.105808
-0.103423
-0.046095
-0.207275
-0.204730
-0.208570
-0.204785
-0.066047
-0.067575
-0.062909
-0.065389
-0.133652
-0.150128
-0.044627
-0.086632
-0.088860
-0.070404
-0.062073
-0.058889
-0.098196
-0.099549
-0.097328
-0.059115
-0.171446
-0.170916
-0.149016
-0.017884
-0.018628
-0.016264
-0.015055
-0.179326
-0.063571
-0.046755
-0.055088
-0.028007
-0.030245
-0.027533
-0.062848
-0.065065
-0.064939
-0.053122
-0.056522
-0.056443
-0.066933
-0.085574
-0.068549
-0.062964
-0.122676
-0.120975
-0.124727
-0.120041
-0.050202
-0.046717
-0.044263
-0.054113
-0.058231
-0.022014
-0.021416
-0.019708
-0.017168
-0.015709
-0.013347
-0.115137
-0.113005
-0.132300
-0.149332
-0.126974
-0.137181
-0.008959
-0.010738
-0.008572
-0.009892
-0.010349
-0.009155
-0.009551
-0.013055
-0.092524
-0.089724
-0.095189
-0.037336
-0.040160
-0.041461
-0.195083
-0.189788
-0.185858
-0.166188
-0.191469
-0.183656
-0.180400
-0.161172
-0.033405
-0.034902
-0.032141
-0.006131
-0.007312
-0.089824
-0.032259
-0.010968
-0.012713
-0.011874
-0.110868
-0.126410
-0.138066
-0.139206
-0.074913
-0.074524
-0.070943
-0.014127
-0.010857
-0.014407
-0.030612
-0.031966
-0.070726
-0.029479
-0.095938
-0.105751
-0.091311
-0.013021
-0.011605
-0.014324
-0.013376
-0.010203
-0.010542
-0.011913
-0.104446
-0.116001
-0.113402
-0.015387
-0.011944
-0.011313
-0.016582
-0.085369
-0.083120
-0.082749
-0.112690
-0.121021
-0.134496
-0.119231
-0.026216
-0.023161
-0.025516
-0.132032
-0.017482
-0.079969
-0.078166
-0.011355
-0.009177
-0.008725
-0.011669
-0.085269
-0.080579
-0.082752
-0.023506
-0.020783
-0.021536
-0.074138
0.001996
0.004106
0.009447
-0.018423
-0.001731
-0.122237
-0.122408
-0.123961
-0.123058
-0.070380
-0.063421
-0.072396
-0.040249
-0.042637
-0.040951
-0.040938
-0.116283
-0.117963
-0.116196
-0.117823
-0.055364
-0.114911
-0.115892
-0.078039
-0.078738
-0.059288
-0.087119
-0.086354
-0.114064
-0.019672
-0.022859
-0.021618
-0.012288
-0.016186
-0.024484
-0.151716
-0.152438
-0.153830
-0.027733
-0.030927
-0.016287
-0.028166
-0.142007
-0.143696
-0.142747
-0.142807
-0.014565
-0.012376
-0.014494
-0.092579
-0.095353
-0.092424
-0.060319
-0.058219
-0.058445
-0.094628
-0.056488
-0.157060
-0.158850
-0.157257
-0.159227
-0.009596
-0.199547
-0.199031
-0.196732
-0.196375
-0.174319
-0.180749
-0.202257
-0.203053
-0.201250
-0.069970
-0.073538
-0.203794
-0.048792
-0.041264
-0.043041
-0.009161
-0.007804
-0.005808
-0.012795
-0.121871
-0.120287
-0.121897
-0.043474
-0.066027
-0.071638
-0.069645
-0.074627
-0.012273
-0.014773
-0.008350
-0.009093
-0.006688
-0.103800
-0.104115
-0.017736
-0.124446
-0.121908
-0.123458
-0.123420
-0.134436
-0.155981
-0.176443
-0.189866
-0.182109
-0.182482
-0.184449
0.003411
-0.001958
0.000618
-0.011879
-0.009536
-0.010290
-0.044133
-0.045397
-0.041735
-0.139734
-0.140665
-0.138431
-0.138718
-0.043583
-0.125437
-0.127320
-0.127320
-0.089878
-0.054654
-0.054426
-0.052547
-0.027406
-0.024343
-0.025302
-0.147072
-0.148949
-0.148012
-0.025692
-0.026687
-0.024572
-0.126521
-0.125234
-0.110632
-0.109223
-0.078140
-0.087487
-0.086112
-0.154597
-0.153038
-0.152955
-0.154177
-0.183504
-0.166840
-0.171314
-0.141598
-0.056212
-0.058449
-0.057857
-0.060287
-0.015135
-0.016493
-0.017654
0.006945
0.006891
-0.112168
-0.113237
-0.104989
-0.063242
-0.185294
-0.144666
-0.147355
-0.005748
-0.008162
-0.006442
-0.006387
-0.200640
-0.200855
-0.198223
-0.201443
-0.203276
0.003988
0.005587
-0.001377
-0.143418
-0.102165
-0.102264
-0.103995
-0.184865
-0.192629
-0.172917
-0.166484
-0.153400
-0.103444
-0.083676
-0.082595
-0.086342
-0.083378
-0.116794
-0.115159
-0.117595
0.006370
-0.000994
-0.211360
-0.214045
-0.213271
-0.129898
-0.127800
-0.129865
-0.127770
-0.113886
-0.113930
-0.112538
-0.006838
-0.007479
-0.230214
-0.228766
-0.200966
-0.197707
-0.202424
-0.016005
-0.019081
-0.012066
-0.088287
-0.077177
-0.076294
-0.018591
-0.016863
-0.014813
-0.097343
-0.096276
-0.095028
-0.015401
-0.075617
-0.076413
-0.092320
-0.159263
-0.161257
-0.130455
-0.006676
-0.007513
-0.117492
-0.116012
-0.118961
-0.116368
-0.118337
-0.115916
-0.006842
-0.112032
-0.111026
-0.113732
-0.113740
-0.110791
-0.083118
-0.077875
-0.111510
-0.198856
-0.199290
-0.161223
-0.176986
-0.171249
-0.178437
-0.115451
-0.181091
-0.102441
-0.100653
-0.100360
-0.101517
-0.100826
-0.104092
-0.008161
-0.008259
-0.009749
-0.009345
-0.195289
-0.193179
-0.193876
0.008746
0.011392
0.005642
-0.192293
-0.173977
0.003952
0.002479
0.002065
-0.128917
-0.167956
0.000229
-0.081317
-0.015273
-0.018499
-0.175717
-0.177204
-0.175947
-0.177921
-0.173706
-0.173988
-0.149807
-0.154137
-0.148679
-0.154307
-0.209547
-0.210459
-0.211301
-0.016096
-0.018391
-0.012553
-0.145380
-0.149396
-0.142181
-0.043460
-0.050252
-0.085064
-0.057064
-0.052418
-0.064374
-0.003367
-0.165316
-0.191898
-0.089351
-0.086140
-0.006294
-0.002154
-0.003985
-0.093868
-0.097822
-0.080444
-0.080108
-0.180227
-0.144216
-0.013379
-0.016520
-0.013874
-0.005255
-0.005284
-0.034423
-0.036157
-0.031188
-0.017587
-0.009213
-0.006357
-0.121290
-0.122727
-0.125570
-0.137232
-0.120822
-0.032128
-0.160247
-0.159191
-0.158194
-0.138888
-0.143332
-0.146040
-0.148627
-0.070987
-0.069041
-0.072765
-0.157647
-0.094273
-0.120996
-0.119711
-0.131440
-0.169705
-0.172777
-0.171817
-0.170491
-0.005954
-0.007723
-0.007405
-0.043009
-0.040422
-0.042340
-0.005930
-0.040153
-0.043339
-0.045926
-0.077030
-0.085647
-0.082822
0.000273
-0.003165
0.000769
-0.010327
-0.157896
-0.153939
-0.164180
-0.158458
-0.159092
-0.143882
-0.140401
-0.004932
-0.050263
-0.049602
-0.220758
-0.222561
-0.215386
-0.136567
-0.138586
-0.087155
-0.089095
-0.086956
-0.088892
-0.020126
-0.022906
-0.022803
-0.025634
-0.054738
-0.170504
-0.003006
-0.004923
-0.004720
-0.219353
-0.222375
-0.216905
-0.148832
-0.143722
-0.147040
-0.152464
-0.154430
-0.015824
-0.014396
-0.013259
-0.168933
-0.171789
-0.176761
-0.176389
-0.063094
-0.061098
-0.062430
-0.059890
-0.032418
-0.035196
-0.033111
-0.033869
-0.054907
-0.043221
-0.051106
-0.006968
-0.004437
-0.035326
-0.166550
-0.167401
-0.137319
-0.137352
-0.135099
-0.134157
-0.021419
-0.018250
-0.019159
-0.015754
-0.024790
-0.023690
-0.091568
-0.027000
-0.066888
-0.067181
-0.069609
-0.066881
-0.065382
-0.069568
-0.067359
-0.064698
-0.068261
-0.187940
-0.187401
-0.189095
-0.064699
-0.188227
-0.186411
-0.186101
-0.153228
-0.145908
-0.119265
-0.115955
-0.128061
-0.091705
-0.145350
-0.147417
-0.148940
-0.145186
-0.130477
-0.108978
-0.111177
-0.039078
-0.024382
-0.027602
-0.109357
-0.111827
-0.109548
-0.111556
-0.010230
-0.008857
-0.011245
-0.008709
-0.084340
-0.061898
-0.069062
-0.028342
-0.025450
-0.054122
-0.043783
-0.040082
-0.064143
-0.062093
-0.062065
-0.063322
-0.087357
-0.080334
-0.084212
-0.070550
-0.135223
-0.138216
-0.138350
-0.140538
-0.136429
-0.138935
-0.121662
-0.001164
-0.001224
-0.038640
-0.037525
-0.040075
-0.035990
-0.049929
-0.051030
-0.052447
-0.049231
-0.047832
-0.050208
-0.012102
-0.168472
-0.169889
-0.167777
-0.129754
-0.119157
-0.125356
-0.112143
-0.139975
-0.131879
-0.140731
-0.129221
-0.139072
-0.145082
-0.032745
-0.026910
-0.031522
-0.008137
-0.010521
-0.023357
-0.024716
-0.027259
-0.024210
-0.027451
-0.113202
-0.113274
-0.111613
-0.114840
-0.169102
-0.138862
-0.141131
-0.096900
-0.097461
-0.111708
-0.049234
-0.047793
-0.047343
-0.049296
-0.052275
-0.064037
-0.141261
-0.138847
-0.098931
-0.096585
-0.052722
-0.048537
-0.059936
-0.057107
-0.181468
-0.182182
-0.096111
-0.082474
-0.103037
-0.062233
-0.062965
-0.065029
-0.098916
-0.078161
-0.071529
-0.072906
-0.076430
-0.078700
-0.076033
-0.114229
-0.114977
-0.108898
-0.139598
-0.080907
-0.108856
-0.089180
-0.092242
-0.106294
-0.046653
-0.050926
-0.130661
-0.132710
-0.130764
-0.132066
-0.103889
-0.099981
-0.122454
-0.111345
-0.140542
-0.115997
-0.128589
-0.125808
-0.053992
-0.056105
-0.057497
-0.056639
-0.054764
-0.058490
-0.056867
-0.052197
-0.060617
-0.141627
-0.142717
-0.140202
-0.140947
-0.139720
-0.141084
-0.088773
-0.098129
-0.075910
-0.102133
-0.102029
-0.105367
-0.130575
-0.128766
-0.128389
-0.126244
-0.039445
-0.036330
-0.046680
-0.141861
-0.143228
-0.226404
-0.216029
-0.041164
-0.031926
-0.025179
-0.160910
-0.162276
-0.163466
-0.183893
-0.158714
-0.157005
-0.152426
-0.042429
-0.043930
-0.046064
-0.128693
-0.115945
-0.096680
-0.095895
-0.098149
-0.109336
-0.077361
-0.075086
-0.063926
-0.080071
-0.102066
-0.102224
-0.103624
-0.100762
-0.100481
-0.035712
-0.037570
-0.033154
-0.035042
-0.032135
-0.029066
-0.048682
-0.045797
-0.048583
-0.045586
-0.046356
-0.041280
-0.051111
-0.019870
-0.017938
-0.010563
-0.011942
-0.011430
-0.009397
-0.008438
-0.038319
-0.042039
-0.013503
-0.016223
-0.130355
-0.129026
-0.131303
-0.045537
-0.039803
-0.121784
-0.122469
-0.091806
-0.063798
0.003874
-0.011050
-0.012781
-0.014787
-0.035599
-0.036577
-0.038393
-0.038538
-0.017250
-0.119630
-0.020896
-0.135663
-0.128349
-0.160903
-0.120799
-0.097943
-0.152528
-0.157545
-0.211121
-0.220100
-0.203070
-0.059315
-0.060904
-0.058870
-0.152504
-0.143972
-0.024968
-0.024481
-0.059156
-0.058639
-0.089187
-0.087336
-0.103119
-0.111060
-0.114910
-0.027320
-0.023854
-0.023265
-0.222025
-0.221723
-0.223517
-0.028982
-0.023590
-0.034505
-0.032204
-0.087084
-0.082089
-0.102871
-0.178556
-0.100657
-0.015923
-0.003731
-0.006273
-0.053905
-0.052303
-0.030540
-0.030312
-0.051172
-0.053563
-0.051616
0.001487
-0.094426
-0.091218
-0.092570
-0.000125
-0.093029
-0.091153
-0.093543
-0.033311
-0.099509
-0.079284
-0.078576
-0.077102
-0.201826
-0.165075
-0.204637
-0.080316
-0.077451
-0.118389
-0.141718
-0.223627
-0.221598
-0.229500
-0.080385
-0.177173
-0.236033
-0.235408
-0.233908
-0.107933
-0.096236
-0.108455
-0.006433
-0.006352
-0.235296
-0.214762
-0.104120
-0.105538
-0.031012
-0.034828
-0.031134
-0.058490
-0.083174
-0.082495
-0.099448
-0.076158
-0.079460
-0.081179
-0.004302
-0.002352
-0.002817
-0.089349
-0.089066
-0.104953
-0.107674
-0.107681
-0.110371
-0.056888
-0.042498
-0.062392
-0.091276
-0.235604
-0.236099
-0.234633
-0.169468
-0.169704
-0.174326
-0.158359
-0.174672
-0.177504
-0.179472
-0.163708
-0.161671
-0.162901
-0.166739
-0.083597
-0.017081
-0.025816
-0.036685
-0.078699
-0.040646
-0.006690
-0.007227
-0.002707
-0.109051
-0.110516
-0.008984
-0.005417
-0.004836
-0.149050
-0.149445
-0.103436
-0.029191
-0.092354
-0.034249
-0.234093
-0.233717
-0.232511
-0.014088
-0.016064
-0.011564
-0.012581
-0.029000
0.003773
-0.014289
-0.120935
-0.010444
-0.010386
-0.009560
-0.009614
-0.009806
-0.007080
-0.007848
-0.005097
-0.066870
-0.011869
-0.009573
-0.015442
-0.148700
-0.141413
-0.135443
-0.017814
-0.020336
0.000827
-0.199542
-0.200285
-0.171262
-0.212937
-0.001459
-0.083596
-0.027436
-0.024959
-0.025958
-0.007187
-0.009209
-0.009684
-0.012116
-0.055607
-0.058398
-0.175706
-0.177404
-0.100696
-0.177089
-0.005158
-0.005044
-0.002942
-0.178895
-0.220532
-0.229181
-0.013865
0.001555
-0.230230
-0.228528
-0.069079
-0.071338
-0.069993
-0.072884
-0.029790
-0.035878
-0.030351
-0.032104
-0.003557
-0.009641
-0.115269
-0.234716
-0.228034
-0.178349
-0.172478
-0.177270
-0.173247
-0.171345
-0.160112
-0.166038
-0.150011
-0.167366
-0.155825
-0.226659
-0.104790
-0.105995
-0.105400
-0.225917
-0.223186
-0.224728
-0.221986
-0.221272
-0.150088
-0.152461
-0.149469
-0.154185
-0.206816
-0.203780
-0.205430
-0.206026
-0.177284
-0.196167
-0.198193
-0.193596
-0.112064
-0.109905
-0.107142
-0.219597
-0.219653
-0.219041
-0.233038
-0.233046
-0.231782
-0.205106
-0.206620
-0.203323
-0.201967
-0.204816
-0.225943
-0.223527
-0.225389
-0.214785
-0.213093
-0.217509
-0.215293
0.004247
-0.212154
-0.211572
-0.078335
-0.082774
-0.195549
-0.194186
-0.206280
-0.205769
-0.190132
-0.209061
-0.195161
-0.118097
-0.225449
-0.223911
-0.119890
-0.166096
-0.166015
-0.168517
-0.169586
-0.167441
-0.205090
-0.207996
-0.201917
-0.069905
-0.066799
-0.067245
0.003866
-0.158671
-0.157179
-0.159657
-0.156827
-0.061547
-0.065313
-0.069095
-0.216341
-0.218022
-0.215672
-0.221662
-0.223985
-0.217995
-0.207832
-0.154690
-0.162795
0.004395
-0.202446
-0.199394
-0.229108
-0.198140
-0.222344
-0.223314
-0.227604
-0.215847
-0.217666
-0.207521
-0.210150
-0.208485
-0.211559
-0.078680
-0.077366
-0.087395
-0.181884
-0.183443
-0.089946
-0.181055
-0.179931
-0.182419
-0.178473
-0.180693
-0.178472
-0.225262
-0.222155
-0.215867
-0.063008
-0.192616
-0.005708
-0.008256
-0.182278
-0.184599
-0.183575
-0.213147
-0.214459
-0.215891
-0.211362
-0.164583
-0.164279
-0.163469
-0.133287
-0.130520
-0.134276
-0.131295
-0.128383
-0.187697
-0.187673
-0.189785
-0.009137
-0.009457
-0.218842
-0.217620
-0.009178
-0.089009
-0.099642
-0.132864
-0.130898
-0.136955
-0.136388
-0.128621
-0.067310
-0.071032
-0.061936
-0.135253
-0.131697
-0.022935
-0.026524
-0.023233
-0.025608
-0.182821
-0.177051
-0.196367
-0.201013
-0.200152
-0.197407
-0.198978
-0.196299
-0.060209
-0.222035
-0.219901
-0.221365
-0.219766
-0.221580
-0.136380
-0.139722
-0.139981
-0.136034
-0.138578
-0.171296
-0.206879
-0.185783
-0.185856
-0.063673
-0.060115
-0.062283
-0.061912
-0.176172
-0.174585
-0.173102
-0.176451
-0.175342
-0.005848
-0.092898
-0.090770
-0.096249
-0.092009
-0.009675
-0.009489
-0.010903
-0.172151
-0.190096
-0.191718
-0.190840
-0.191298
-0.193068
-0.224295
-0.222751
-0.223486
-0.009524
-0.210870
-0.210610
-0.198999
-0.199629
-0.220511
-0.227254
-0.230043
-0.198409
-0.170243
-0.169075
-0.172348
-0.174356
-0.173069
-0.170065
-0.086926
-0.085640
-0.209767
-0.206996
-0.207245
-0.200432
-0.197864
-0.008758
-0.008816
-0.084905
-0.085953
-0.083839
-0.082425
-0.178354
-0.175634
-0.182292
-0.181241
-0.184579
-0.137367
-0.131919
-0.130803
-0.137000
-0.187341
-0.192252
-0.189438
-0.190035
-0.194046
-0.105227
-0.106479
-0.112491
-0.112492
-0.039091
-0.038641
-0.041842
-0.050171
-0.036684
-0.209365
-0.207716
-0.205348
-0.205877
-0.207649
-0.208730
-0.213336
-0.220072
-0.215881
-0.215301
-0.214311
-0.209420
-0.104426
-0.108146
-0.087032
-0.138930
-0.137053
-0.139537
-0.137194
-0.206878