# vtk DataFile Version 2.0
Test
ASCII
DATASET POLYDATA
POINTS 5816 float
0.000000 0.000000 0.000000
2.000000 0.000000 0.000000
2.000000 4.000000 0.000000
0.000000 4.000000 0.000000
0.000000 0.500000 0.000000
1.500000 2.000000 0.000000
2.000000 2.500000 0.000000
0.285714 0.000000 0.000000
0.571429 0.000000 0.000000
0.857143 0.000000 0.000000
1.142857 0.000000 0.000000
1.428571 0.000000 0.000000
1.714286 0.000000 0.000000
2.000000 0.275040 0.000000
2.000000 0.520628 0.000000
2.000000 0.739917 0.000000
2.000000 0.935725 0.000000
2.000000 1.110565 0.000000
2.000000 1.266683 0.000000
2.000000 1.406084 0.000000
2.000000 1.530557 0.000000
2.000000 1.641701 0.000000
2.000000 1.740944 0.000000
2.000000 1.829560 0.000000
2.000000 1.908686 0.000000
2.000000 1.979340 0.000000
2.000000 2.042428 0.000000
2.000000 2.098760 0.000000
2.000000 2.149060 0.000000
2.000000 2.193974 0.000000
2.000000 2.234078 0.000000
2.000000 2.269888 0.000000
2.000000 2.301863 0.000000
2.000000 2.330415 0.000000
2.000000 2.355908 0.000000
2.000000 2.378673 0.000000
2.000000 2.398999 0.000000
2.000000 2.417149 0.000000
2.000000 2.433355 0.000000
2.000000 2.447826 0.000000
2.000000 2.460747 0.000000
2.000000 2.472285 0.000000
2.000000 2.482587 0.000000
2.000000 2.491786 0.000000
2.000000 2.508637 0.000000
2.000000 2.519089 0.000000
2.000000 2.531737 0.000000
2.000000 2.547044 0.000000
2.000000 2.565568 0.000000
2.000000 2.587985 0.000000
2.000000 2.615113 0.000000
2.000000 2.647942 0.000000
2.000000 2.687670 0.000000
2.000000 2.735749 0.000000
2.000000 2.793931 0.000000
2.000000 2.864341 0.000000
2.000000 2.949549 0.000000
2.000000 3.052664 0.000000
2.000000 3.177450 0.000000
2.000000 3.328462 0.000000
2.000000 3.511210 0.000000
2.000000 3.732366 0.000000
1.714286 4.000000 0.000000
1.428571 4.000000 0.000000
1.142857 4.000000 0.000000
0.857143 4.000000 0.000000
0.571429 4.000000 0.000000
0.285714 4.000000 0.000000
0.000000 3.715673 0.000000
0.000000 3.453827 0.000000
0.000000 3.212685 0.000000
0.000000 2.990611 0.000000
0.000000 2.786096 0.000000
0.000000 2.597752 0.000000
0.000000 2.424300 0.000000
0.000000 2.264564 0.000000
0.000000 2.117457 0.000000
0.000000 1.981983 0.000000
0.000000 1.857220 0.000000
0.000000 1.742322 0.000000
0.000000 1.636510 0.000000
0.000000 1.539064 0.000000
0.000000 1.449323 0.000000
0.000000 1.366678 0.000000
0.000000 1.290567 0.000000
0.000000 1.220475 0.000000
0.000000 1.155925 0.000000
0.000000 1.096479 0.000000
0.000000 1.041733 0.000000
0.000000 0.991316 0.000000
0.000000 0.944886 0.000000
0.000000 0.902126 0.000000
0.000000 0.862748 0.000000
0.000000 0.826483 0.000000
0.000000 0.793086 0.000000
0.000000 0.762330 0.000000
0.000000 0.734005 0.000000
0.000000 0.707920 0.000000
0.000000 0.683898 0.000000
0.000000 0.661775 0.000000
0.000000 0.641402 0.000000
0.000000 0.622639 0.000000
0.000000 0.605360 0.000000
0.000000 0.589447 0.000000
0.000000 0.574792 0.000000
0.000000 0.561296 0.000000
0.000000 0.548868 0.000000
0.000000 0.537421 0.000000
0.000000 0.526881 0.000000
0.000000 0.517173 0.000000
0.000000 0.508233 0.000000
0.000000 0.491468 0.000000
0.000000 0.479827 0.000000
0.000000 0.463944 0.000000
0.000000 0.442273 0.000000
0.000000 0.412707 0.000000
0.000000 0.372368 0.000000
0.000000 0.317330 0.000000
0.000000 0.242238 0.000000
0.000000 0.139785 0.000000
0.005639 0.505639 0.000000
0.011278 0.511278 0.000000
0.016917 0.516917 0.000000
0.022556 0.522556 0.000000
0.028195 0.528195 0.000000
0.033835 0.533835 0.000000
0.039474 0.539474 0.000000
0.045113 0.545113 0.000000
0.050752 0.550752 0.000000
0.056391 0.556391 0.000000
0.062030 0.562030 0.000000
0.067669 0.567669 0.000000
0.073308 0.573308 0.000000
0.078947 0.578947 0.000000
0.084586 0.584586 0.000000
0.090226 0.590226 0.000000
0.095865 0.595865 0.000000
0.101504 0.601504 0.000000
0.107143 0.607143 0.000000
0.112782 0.612782 0.000000
0.118421 0.618421 0.000000
0.124060 0.624060 0.000000
0.129699 0.629699 0.000000
0.135338 0.635338 0.000000
0.140977 0.640977 0.000000
0.146617 0.646617 0.000000
0.152256 0.652256 0.000000
0.157895 0.657895 0.000000
0.163534 0.663534 0.000000
0.169173 0.669173 0.000000
0.174812 0.674812 0.000000
0.180451 0.680451 0.000000
0.186090 0.686090 0.000000
0.191729 0.691729 0.000000
0.197368 0.697368 0.000000
0.203008 0.703008 0.000000
0.208647 0.708647 0.000000
0.214286 0.714286 0.000000
0.219925 0.719925 0.000000
0.225564 0.725564 0.000000
0.231203 0.731203 0.000000
0.236842 0.736842 0.000000
0.242481 0.742481 0.000000
0.248120 0.748120 0.000000
0.253759 0.753759 0.000000
0.259398 0.759398 0.000000
0.265038 0.765038 0.000000
0.270677 0.770677 0.000000
0.276316 0.776316 0.000000
0.281955 0.781955 0.000000
0.287594 0.787594 0.000000
0.293233 0.793233 0.000000
0.298872 0.798872 0.000000
0.304511 0.804511 0.000000
0.310150 0.810150 0.000000
0.315789 0.815789 0.000000
0.321429 0.821429 0.000000
0.327068 0.827068 0.000000
0.332707 0.832707 0.000000
0.338346 0.838346 0.000000
0.343985 0.843985 0.000000
0.349624 0.849624 0.000000
0.355263 0.855263 0.000000
0.360902 0.860902 0.000000
0.366541 0.866541 0.000000
0.372180 0.872180 0.000000
0.377820 0.877820 0.000000
0.383459 0.883459 0.000000
0.389098 0.889098 0.000000
0.394737 0.894737 0.000000
0.400376 0.900376 0.000000
0.406015 0.906015 0.000000
0.411654 0.911654 0.000000
0.417293 0.917293 0.000000
0.422932 0.922932 0.000000
0.428571 0.928571 0.000000
0.434211 0.934211 0.000000
0.439850 0.939850 0.000000
0.445489 0.945489 0.000000
0.451128 0.951128 0.000000
0.456767 0.956767 0.000000
0.462406 0.962406 0.000000
0.468045 0.968045 0.000000
0.473684 0.973684 0.000000
0.479323 0.979323 0.000000
0.484962 0.984962 0.000000
0.490602 0.990602 0.000000
0.496241 0.996241 0.000000
0.501880 1.001880 0.000000
0.507519 1.007519 0.000000
0.513158 1.013158 0.000000
0.518797 1.018797 0.000000
0.524436 1.024436 0.000000
0.530075 1.030075 0.000000
0.535714 1.035714 0.000000
0.541353 1.041353 0.000000
0.546992 1.046992 0.000000
0.552632 1.052632 0.000000
0.558271 1.058271 0.000000
0.563910 1.063910 0.000000
0.569549 1.069549 0.000000
0.575188 1.075188 0.000000
0.580827 1.080827 0.000000
0.586466 1.086466 0.000000
0.592105 1.092105 0.000000
0.597744 1.097744 0.000000
0.603383 1.103383 0.000000
0.609023 1.109023 0.000000
0.614662 1.114662 0.000000
0.620301 1.120301 0.000000
0.625940 1.125940 0.000000
0.631579 1.131579 0.000000
0.637218 1.137218 0.000000
0.642857 1.142857 0.000000
0.648496 1.148496 0.000000
0.654135 1.154135 0.000000
0.659774 1.159774 0.000000
0.665414 1.165414 0.000000
0.671053 1.171053 0.000000
0.676692 1.176692 0.000000
0.682331 1.182331 0.000000
0.687970 1.187970 0.000000
0.693609 1.193609 0.000000
0.699248 1.199248 0.000000
0.704887 1.204887 0.000000
0.710526 1.210526 0.000000
0.716165 1.216165 0.000000
0.721805 1.221805 0.000000
0.727444 1.227444 0.000000
0.733083 1.233083 0.000000
0.738722 1.238722 0.000000
0.744361 1.244361 0.000000
0.750000 1.250000 0.000000
0.755639 1.255639 0.000000
0.761278 1.261278 0.000000
0.766917 1.266917 0.000000
0.772556 1.272556 0.000000
0.778195 1.278195 0.000000
0.783835 1.283835 0.000000
0.789474 1.289474 0.000000
0.795113 1.295113 0.000000
0.800752 1.300752 0.000000
0.806391 1.306391 0.000000
0.812030 1.312030 0.000000
0.817669 1.317669 0.000000
0.823308 1.323308 0.000000
0.828947 1.328947 0.000000
0.834586 1.334586 0.000000
0.840226 1.340226 0.000000
0.845865 1.345865 0.000000
0.851504 1.351504 0.000000
0.857143 1.357143 0.000000
0.862782 1.362782 0.000000
0.868421 1.368421 0.000000
0.874060 1.374060 0.000000
0.879699 1.379699 0.000000
0.885338 1.385338 0.000000
0.890977 1.390977 0.000000
0.896617 1.396617 0.000000
0.902256 1.402256 0.000000
0.907895 1.407895 0.000000
0.913534 1.413534 0.000000
0.919173 1.419173 0.000000
0.924812 1.424812 0.000000
0.930451 1.430451 0.000000
0.936090 1.436090 0.000000
0.941729 1.441729 0.000000
0.947368 1.447368 0.000000
0.953008 1.453008 0.000000
0.958647 1.458647 0.000000
0.964286 1.464286 0.000000
0.969925 1.469925 0.000000
0.975564 1.475564 0.000000
0.981203 1.481203 0.000000
0.986842 1.486842 0.000000
0.992481 1.492481 0.000000
0.998120 1.498120 0.000000
1.003759 1.503759 0.000000
1.009398 1.509398 0.000000
1.015038 1.515038 0.000000
1.020677 1.520677 0.000000
1.026316 1.526316 0.000000
1.031955 1.531955 0.000000
1.037594 1.537594 0.000000
1.043233 1.543233 0.000000
1.048872 1.548872 0.000000
1.054511 1.554511 0.000000
1.060150 1.560150 0.000000
1.065789 1.565789 0.000000
1.071429 1.571429 0.000000
1.077068 1.577068 0.000000
1.082707 1.582707 0.000000
1.088346 1.588346 0.000000
1.093985 1.593985 0.000000
1.099624 1.599624 0.000000
1.105263 1.605263 0.000000
1.110902 1.610902 0.000000
1.116541 1.616541 0.000000
1.122180 1.622180 0.000000
1.127820 1.627820 0.000000
1.133459 1.633459 0.000000
1.139098 1.639098 0.000000
1.144737 1.644737 0.000000
1.150376 1.650376 0.000000
1.156015 1.656015 0.000000
1.161654 1.661654 0.000000
1.167293 1.667293 0.000000
1.172932 1.672932 0.000000
1.178571 1.678571 0.000000
1.184211 1.684211 0.000000
1.189850 1.689850 0.000000
1.195489 1.695489 0.000000
1.201128 1.701128 0.000000
1.206767 1.706767 0.000000
1.212406 1.712406 0.000000
1.218045 1.718045 0.000000
1.223684 1.723684 0.000000
1.229323 1.729323 0.000000
1.234962 1.734962 0.000000
1.240602 1.740602 0.000000
1.246241 1.746241 0.000000
1.251880 1.751880 0.000000
1.257519 1.757519 0.000000
1.263158 1.763158 0.000000
1.268797 1.768797 0.000000
1.274436 1.774436 0.000000
1.280075 1.780075 0.000000
1.285714 1.785714 0.000000
1.291353 1.791353 0.000000
1.296992 1.796992 0.000000
1.302632 1.802632 0.000000
1.308271 1.808271 0.000000
1.313910 1.813910 0.000000
1.319549 1.819549 0.000000
1.325188 1.825188 0.000000
1.330827 1.830827 0.000000
1.336466 1.836466 0.000000
1.342105 1.842105 0.000000
1.347744 1.847744 0.000000
1.353383 1.853383 0.000000
1.359023 1.859023 0.000000
1.364662 1.864662 0.000000
1.370301 1.870301 0.000000
1.375940 1.875940 0.000000
1.381579 1.881579 0.000000
1.387218 1.887218 0.000000
1.392857 1.892857 0.000000
[...]
POINT_DATA 5816
SCALARS UX float 1
LOOKUP_TABLE default
-0.053000
0.077247
-0.013721
-0.139562
-0.054862
0.054605
0.020533
-0.038679
-0.021735
-0.003159
0.016419
0.036796
0.057146
0.096864
0.114466
0.129721
0.142650
0.153123
0.160449
0.165645
0.167020
0.164893
0.159017
0.148840
0.135981
0.121490
0.106761
0.093077
0.080764
0.070355
0.061515
0.054262
0.048203
0.043186
0.039031
0.035540
0.032629
0.030170
0.028085
0.026307
0.024790
0.023483
0.022353
0.021379
0.019668
0.018652
0.017457
0.016081
0.014482
0.012701
0.010679
0.008510
0.006115
0.003583
0.000958
-0.001662
-0.004203
-0.006681
-0.008623
-0.010528
-0.012160
-0.013226
-0.034837
-0.054568
-0.072723
-0.089768
-0.106108
-0.122792
-0.138200
-0.135345
-0.131020
-0.126509
-0.122793
-0.120278
-0.119646
-0.121220
-0.124820
-0.130107
-0.136981
-0.144725
-0.153008
-0.161519
-0.170027
-0.178392
-0.186363
-0.193880
-0.200926
-0.207464
-0.213461
-0.218940
-0.223964
-0.228613
-0.232733
-0.236437
-0.239751
-0.242711
-0.245243
-0.247314
-0.248956
-0.250216
-0.250960
-0.251426
-0.251949
-0.252201
-0.252395
-0.250999
-0.240382
-0.238720
-0.220691
-0.218358
-0.171320
-0.042386
-0.035307
-0.031930
-0.029927
-0.029601
-0.031074
-0.034164
-0.038725
-0.045127
-0.075038
-0.059190
-0.115569
-0.102106
-0.097349
-0.103651
-0.099616
-0.097724
-0.099179
-0.091745
-0.110224
-0.110350
-0.109490
-0.111101
-0.109003
-0.117846
-0.132747
-0.133155
-0.133047
-0.131721
-0.128049
-0.128176
-0.126089
-0.105331
-0.112111
-0.112774
-0.111620
-0.116196
-0.113482
-0.112129
-0.114392
-0.114884
-0.116458
-0.117462
-0.108076
-0.109285
-0.111980
-0.107699
-0.105820
-0.101878
-0.099273
-0.102005
-0.100018
-0.100485
-0.097805
-0.098974
-0.099226
-0.098621
-0.095733
-0.093632
-0.096185
-0.091429
-0.087006
-0.087352
-0.085875
-0.081299
-0.080116
-0.077191
-0.075747
-0.074023
-0.073415
-0.071104
-0.071779
-0.071384
-0.069466
-0.070470
-0.070135
-0.066940
-0.066402
-0.068591
-0.064517
-0.065574
-0.063462
-0.064339
-0.064753
-0.064753
-0.066321
-0.064846
-0.063819
-0.067968
-0.068118
-0.067891
-0.067786
-0.066199
-0.067703
-0.065615
-0.069456
-0.067359
-0.068336
-0.067256
-0.064943
-0.065903
-0.064530
-0.063671
-0.063054
-0.060538
-0.057985
-0.059999
-0.055507
-0.053158
-0.056852
-0.054245
-0.052973
-0.054096
-0.053202
-0.050824
-0.052583
-0.051478
-0.054866
-0.053319
-0.055474
-0.054758
-0.053258
-0.052298
-0.049977
-0.049004
-0.049893
-0.049559
-0.047112
-0.046325
-0.045924
-0.046802
-0.046508
-0.046489
-0.044197
-0.045294
-0.043971
-0.045136
-0.044241
-0.041367
-0.040945
-0.037739
-0.038848
-0.038280
-0.036854
-0.036282
-0.036225
-0.032910
-0.030157
-0.029095
-0.027298
-0.026496
-0.025216
-0.020964
-0.019453
-0.018780
-0.019495
-0.017542
-0.015863
-0.015310
-0.015120
-0.012757
-0.011035
-0.009794
-0.010483
-0.008088
-0.010885
-0.008161
-0.007657
-0.005181
-0.003384
-0.004193
-0.001184
-0.002253
-0.000120
0.000109
-0.000008
0.002103
0.003702
0.003877
0.005503
0.007528
0.007806
0.008663
0.006462
0.007254
0.007588
0.010048
0.009260
0.009959
0.011809
0.011380
0.011734
0.013152
0.014722
0.016934
0.016738
0.020030
0.019573
0.023240
0.021611
0.021914
0.019988
0.021759
0.022280
0.024169
0.025006
0.027426
0.030253
0.032120
0.016700
0.020520
0.018905
0.021668
0.022386
0.022559
0.023627
0.022352
0.018295
0.022296
0.021285
0.022148
0.024115
0.024504
0.024396
0.023745
0.026231
0.027209
0.029267
0.031846
0.030591
0.034142
0.034046
0.034615
0.033869
0.035242
0.035855
0.036025
0.038086
0.039111
0.038797
0.039972
0.038127
0.040995
0.038761
0.038335
0.037635
0.038249
0.040035
0.039951
0.039579
0.039023
0.039936
0.039427
0.041163
0.040619
0.041640
0.042011
0.042951
0.043422
0.044660
0.046165
0.046783
0.047057
0.047525
0.046498
0.048084
0.048247
0.048816
0.049327
0.050282
0.049429
0.052387
0.052940
0.053116
0.053181
0.052439
0.051393
0.050397
0.049387
0.048299
0.047359
0.046432
0.045645
0.044885
0.044161
0.043507
0.042912
0.042327
0.041730
0.041188
0.040658
0.040151
0.039673
0.039192
0.038730
0.038278
0.037775
0.037264
0.036778
0.036310
0.035855
0.035413
0.034994
0.034577
0.034172
0.033771
0.033376
0.032986
0.032602
0.032218
0.031834
0.031452
0.031079
0.030704
0.030329
0.029962
0.029605
0.029242
0.028877
0.028523
0.028170
0.027819
0.027468
0.027126
0.026786
0.026446
0.026124
0.025797
0.025479
0.025166
0.024860
0.024563
0.024265
0.023982
0.023703
0.023432
0.023174
0.022928
0.022686
0.022457
0.022239
0.022030
0.021833
0.021649
0.021474
0.021313
0.021166
0.021029
0.020906
0.020793
0.020696
0.020612
0.020539
0.020482
0.020435
0.020404
0.020382
0.020376
0.020383
0.020403
0.020433
0.020478
-0.012604
-0.014008
-0.016460
-0.008578
-0.053408
-0.053674
-0.056092
-0.056250
-0.031777
-0.029592
-0.026748
-0.067945
-0.072670
-0.069403
-0.073733
-0.063115
-0.059437
-0.059395
0.019942
0.021313
0.019803
0.021177
-0.112401
-0.109604
-0.111080
-0.110716
-0.064205
0.018831
0.020602
0.017803
0.018535
-0.099849
-0.098741
-0.096585
-0.096962
-0.079589
-0.079702
-0.082131
-0.081573
-0.089378
-0.085526
-0.086008
0.005190
0.003271
0.007487
0.005063
-0.088098
-0.059941
-0.062238
-0.060188
-0.062180
-0.023209
-0.026471
-0.024631
-0.021559
-0.019998
-0.022297
-0.020401
-0.166384
-0.165230
-0.167834
-0.165377
-0.024971
-0.078427
-0.082752
-0.179006
-0.178204
-0.177288
-0.179973
-0.179261
-0.174376
-0.180353
-0.081384
-0.043956
-0.047149
-0.049532
-0.219653
-0.219185
-0.217918
-0.217546
0.011847
0.008878
0.010288
0.007368
-0.080432
-0.085195
-0.088114
-0.075125
-0.217978
-0.216202
-0.212138
-0.210310
-0.209359
-0.208419
-0.223983
-0.224560
-0.222518
-0.226003
-0.203829
-0.200520
-0.203208
-0.200939
-0.244932
-0.244797
-0.246561
-0.243302
0.001684
0.006345
0.003641
-0.074203
-0.167959
-0.063412
-0.089350
-0.084897
-0.090463
-0.084304
-0.181719
-0.184365
-0.095820
-0.096007
-0.098176
-0.185338
-0.142895
-0.142447
-0.141070
-0.085971
-0.080608
-0.079119
-0.074181
-0.081163
-0.078200
-0.085276
-0.074614
-0.087465
-0.084036
-0.088674
-0.084700
-0.104441
-0.101567
-0.099007
-0.095342
-0.144673
-0.113140
-0.111065
-0.111624
0.016774
0.017988
0.018085
0.016360
-0.110970
-0.023057
-0.024957
-0.025645
0.019243
0.019338
-0.060449
-0.060520
-0.055591
-0.064584
-0.085634
-0.095777
-0.092879
-0.024418
-0.215941
-0.212943
-0.217457
-0.213020
-0.048054
-0.049816
-0.044297
-0.047182
-0.132100
-0.152694
-0.022178
-0.073240
-0.074711
-0.055263
-0.043361
-0.039560
-0.085934
-0.087519
-0.084836
-0.039786
-0.175158
-0.171893
-0.147217
0.009396
0.008511
0.011335
0.012784
-0.181165
-0.044197
-0.021039
-0.028987
-0.003075
-0.005825
-0.002653
-0.043188
-0.045988
-0.045697
-0.032781
-0.036836
-0.036733
-0.048311
-0.072408
-0.051993
-0.045696
-0.115460
-0.113433
-0.117919
-0.112301
-0.029297
-0.025152
-0.022244
-0.033948
-0.038848
0.004635
0.005357
0.007398
0.010308
0.012004
0.014915
-0.102533
-0.099997
-0.124940
-0.145030
-0.113378
-0.126552
0.020093
0.017967
0.020557
0.018975
0.018411
0.019838
0.019363
0.015182
-0.079545
-0.076260
-0.082759
-0.014004
-0.017349
-0.018936
-0.202083
-0.194989
-0.190307
-0.171779
-0.197268
-0.187526
-0.183711
-0.163029
-0.009430
-0.011149
-0.007840
0.023497
0.022089
-0.076657
-0.008087
0.017682
0.015596
0.016601
-0.097634
-0.125089
-0.133189
-0.134977
-0.058767
-0.058259
-0.054020
0.013982
0.017882
0.013639
-0.006287
-0.007884
-0.053730
-0.005100
-0.082891
-0.095218
-0.077882
0.015256
0.016943
0.013694
0.014823
0.018594
0.018187
0.016549
-0.093358
-0.106354
-0.102847
0.012160
0.016244
0.017124
0.010752
-0.070112
-0.067312
-0.067094
-0.102812
-0.113131
-0.130247
-0.110812
-0.000427
0.003223
0.000400
-0.127099
0.009971
-0.064573
-0.062471
0.017340
0.019945
0.020477
0.016973
-0.070145
-0.064586
-0.066738
0.002734
0.005990
0.005083
-0.056680
0.033422
0.036010
0.042502
0.008806
0.028790
-0.114888
-0.115171
-0.116918
-0.115944
-0.052354
-0.043343
-0.054659
-0.017418
-0.020167
-0.018155
-0.018264
-0.107731
-0.109793
-0.107655
-0.109651
-0.033923
-0.106037
-0.107242
-0.061165
-0.062373
-0.038931
-0.071974
-0.070982
-0.105007
0.007362
0.003552
0.005025
0.017148
0.012094
0.001385
-0.149918
-0.150816
-0.152453
-0.001470
-0.005335
0.012586
-0.001484
-0.138138
-0.140236
-0.139061
-0.139168
0.013572
0.016196
0.013656
-0.079289
-0.082552
-0.079046
-0.040909
-0.038418
-0.038740
-0.081764
-0.036414
-0.156129
-0.158325
-0.156295
-0.158916
0.019308
-0.207151
-0.206512
-0.203959
-0.203396
-0.179392
-0.183753
-0.210412
-0.211344
-0.209353
-0.051841
-0.055020
-0.212158
-0.027603
-0.018595
-0.020737
0.019973
0.021600
0.023976
0.015694
-0.114528
-0.112598
-0.114531
-0.021222
-0.048223
-0.054966
-0.052563
-0.058541
0.016262
0.013269
0.020840
0.019949
0.022828
-0.092713
-0.093144
0.009656
-0.117560
-0.114528
-0.116382
-0.116341
-0.134474
-0.161894
-0.184287
-0.195369
-0.186254
-0.186675
-0.189016
0.035248
0.028723
0.031843
0.016608
0.019410
0.018505
-0.021917
-0.023433
-0.019035
-0.135694
-0.136737
-0.134157
-0.134452
-0.021254
-0.118714
-0.120965
-0.120920
-0.076075
-0.034285
-0.033960
-0.031766
-0.001911
0.001751
0.000596
-0.144246
-0.146531
-0.145440
0.000149
-0.001070
0.001451
-0.120031
-0.118490
-0.100947
-0.099275
-0.061154
-0.072235
-0.070794
-0.153261
-0.151220
-0.151215
-0.152867
-0.187876
-0.170310
-0.175942
-0.140920
-0.035722
-0.038475
-0.037778
-0.040673
0.012804
0.011176
0.009799
0.039233
0.039157
-0.103014
-0.104250
-0.093961
-0.041062
-0.189879
-0.141034
-0.144514
0.024008
0.021126
0.023183
0.023241
-0.208555
-0.208705
-0.205652
-0.209361
-0.211533
0.036229
0.038278
0.029167
-0.139677
-0.090572
-0.090673
-0.092827
-0.189463
-0.199128
-0.173259
-0.164530
-0.153749
-0.092133
-0.068769
-0.067551
-0.071986
-0.068527
-0.108345
-0.106351
-0.109328
0.039100
0.029749
-0.220591
-0.223705
-0.222722
-0.124085
-0.121570
-0.124049
-0.121542
-0.104807
-0.104872
-0.103194
0.022630
0.021863
-0.243072
-0.241529
-0.208501
-0.204646
-0.210215
0.010516
0.006714
0.014773
-0.073754
-0.060351
-0.059867
0.008582
0.010655
0.013100
-0.084454
-0.083236
-0.081484
0.011115
-0.059074
-0.060062
-0.078292
-0.164968
-0.164400
-0.127260
0.022923
0.021919
-0.109201
-0.107420
-0.110983
-0.107860
-0.110224
-0.107282
0.022729
-0.102584
-0.101382
-0.104645
-0.104671
-0.101072
-0.066988
-0.059978
-0.101986
-0.206301
-0.206733
-0.165331
-0.179362
-0.174960
-0.182061
-0.106731
-0.184629
-0.090922
-0.088693
-0.088387
-0.089878
-0.089103
-0.093012
0.021041
0.020922
0.019141
0.019622
-0.201712
-0.199108
-0.200020
0.041757
0.045025
0.037968
-0.199288
-0.180132
0.035622
0.033865
0.033377
-0.123827
-0.170496
0.031186
-0.064710
0.012544
0.008686
-0.178394
-0.180216
-0.178680
-0.181126
-0.175920
-0.176258
-0.147252
-0.152430
-0.145595
-0.152805
-0.218720
-0.219740
-0.220696
0.011555
0.008810
0.015799
-0.141086
-0.146977
-0.137385
-0.021259
-0.029359
-0.069382
-0.036360
-0.029701
-0.045213
0.026816
-0.168925
-0.197926
-0.074922
-0.071309
0.023496
0.028467
0.026260
-0.080491
-0.085199
-0.063812
-0.063637
-0.183480
-0.145602
0.014670
0.010749
0.013993
0.024540
0.024504
-0.010386
-0.012450
-0.006509
0.009103
0.019448
0.022943
-0.113718
-0.116297
-0.119861
-0.132137
-0.113371
-0.007624
-0.160166
-0.158853
-0.157694
-0.134454
-0.138650
-0.142945
-0.145382
-0.053463
-0.051139
-0.055614
-0.157001
-0.081002
-0.114825
-0.110694
-0.125760
-0.171010
-0.174840
-0.173554
-0.172105
0.023722
0.021605
0.021989
-0.020231
-0.016971
-0.019352
0.023727
-0.016672
-0.020391
-0.023401
-0.059386
-0.070193
-0.066645
0.031411
0.027265
0.032021
0.018453
-0.154984
-0.150305
-0.163795
-0.156495
-0.156704
-0.135215
-0.131432
0.024929
-0.035342
-0.033598
-0.232119
-0.234185
-0.225599
-0.131931
-0.134241
-0.072739
-0.075009
-0.072450
-0.074837
0.006783
0.003474
0.003552
0.000145
-0.033775
-0.171898
0.027249
0.024958
0.025198
-0.230944
-0.234412
-0.227989
-0.146252
-0.139752
-0.144062
-0.150637
-0.152904
0.011934
0.013645
0.014998
-0.171571
-0.174204
-0.180156
-0.179522
-0.044010
-0.041737
-0.043336
-0.040356
-0.008364
-0.011634
-0.009217
-0.010035
-0.033233
-0.019173
-0.028832
0.022491
0.025522
-0.008164
-0.167195
-0.167831
-0.132686
-0.132638
-0.130051
-0.128718
0.005319
0.009125
0.008052
0.012140
0.001264
0.002553
-0.077978
-0.001434
-0.048579
-0.048827
-0.051744
-0.048761
-0.047058
-0.052004
-0.049454
-0.046046
-0.050303
-0.192928
-0.192378
-0.194252
-0.046128
-0.193128
-0.191199
-0.190679
-0.152253
-0.143003
-0.110945
-0.107361
-0.121884
-0.077978
-0.142440
-0.144718
-0.146492
-0.141906
-0.121338
-0.092461
-0.096291
-0.012812
0.006129
0.001889
-0.099432
-0.102392
-0.099675
-0.102006
0.018724
0.020356
0.017505
0.020529
-0.068429
-0.043362
-0.054588
-0.003659
-0.000308
-0.033211
-0.020718
-0.016368
-0.045065
-0.042628
-0.042737
-0.043931
-0.072689
-0.064494
-0.069282
-0.053108
-0.129863
-0.133541
-0.133615
-0.136435
-0.131663
-0.134648
-0.114371
0.029469
0.029394
-0.015631
-0.014352
-0.017310
-0.012574
-0.028691
-0.029935
-0.031593
-0.027528
-0.025719
-0.028838
0.016333
-0.169565
-0.171361
-0.168611
-0.123577
-0.110890
-0.118400
-0.102543
-0.136416
-0.126697
-0.136065
-0.122070
-0.135264
-0.141798
-0.007946
-0.001333
-0.007204
0.021088
0.018236
0.002378
0.001142
-0.001994
0.001675
-0.002313
-0.103925
-0.104046
-0.101944
-0.105972
-0.170416
-0.142057
-0.143682
-0.084203
-0.085219
-0.101857
-0.027710
-0.025966
-0.025518
-0.027670
-0.033266
-0.046945
-0.137091
-0.134378
-0.086465
-0.083477
-0.030626
-0.025922
-0.040068
-0.036639
-0.185431
-0.186280
-0.083053
-0.067051
-0.092140
-0.043164
-0.044060
-0.046329
-0.086489
-0.061427
-0.052586
-0.055126
-0.059558
-0.062471
-0.059240
-0.105677
-0.106280
-0.099066
-0.138959
-0.064967
-0.098368
-0.075101
-0.078319
-0.092021
-0.024051
-0.029840
-0.125013
-0.127485
-0.125150
-0.126691
-0.093199
-0.088502
-0.111726
-0.097875
-0.133427
-0.101849
-0.118169
-0.118462
-0.033400
-0.035911
-0.037513
-0.036646
-0.034474
-0.038849
-0.036997
-0.031410
-0.041314
-0.137725
-0.139061
-0.136149
-0.136929
-0.135412
-0.136950
-0.074857
-0.085216
-0.061013
-0.090271
-0.090334
-0.094480
-0.125046
-0.122958
-0.122372
-0.119990
-0.016219
-0.012489
-0.025221
-0.138191
-0.139740
-0.243540
-0.231429
-0.018145
-0.007249
0.001625
-0.160858
-0.162655
-0.163916
-0.188323
-0.158075
-0.156316
-0.150918
-0.019512
-0.021388
-0.023947
-0.121724
-0.106753
-0.083923
-0.083065
-0.085740
-0.098961
-0.060115
-0.056992
-0.042980
-0.063747
-0.091059
-0.090623
-0.092357
-0.088797
-0.088436
-0.011819
-0.014036
-0.008742
-0.010997
-0.007536
-0.003855
-0.026994
-0.023517
-0.026857
-0.022866
-0.024243
-0.018413
-0.029851
0.006746
0.009146
0.018220
0.016566
0.017189
0.019608
0.020757
-0.015279
-0.019631
0.014803
0.011547
-0.124709
-0.123008
-0.125770
-0.022720
-0.016671
-0.114500
-0.115265
-0.077444
-0.045521
0.035528
0.017776
0.015704
0.013281
-0.011999
-0.013169
-0.015164
-0.015428
0.010287
-0.111815
0.005770
-0.134054
-0.125891
-0.163433
-0.113196
-0.086416
-0.151104
-0.156541
-0.227608
-0.237698
-0.219699
-0.039632
-0.041461
-0.039050
-0.151189
-0.140348
0.001096
0.001681
-0.039986
-0.039374
-0.075482
-0.073231
-0.092711
-0.102205
-0.106796
-0.002732
0.001291
0.001874
-0.233677
-0.233206
-0.235367
-0.004046
0.004100
-0.010156
-0.008364
-0.073410
-0.067448
-0.091478
-0.174006
-0.088727
0.010068
0.024120
0.022053
-0.033107
-0.031325
-0.006222
-0.005975
-0.029977
-0.032850
-0.030546
0.032686
-0.081377
-0.077436
-0.079092
0.030770
-0.079395
-0.077350
-0.080124
-0.009481
-0.087418
-0.063471
-0.062598
-0.060923
-0.211353
-0.160824
-0.220875
-0.064629
-0.061228
-0.105454
-0.134647
-0.236312
-0.234056
-0.242468
-0.064804
-0.173643
-0.249961
-0.249733
-0.247362
-0.098448
-0.084466
-0.098264
0.023123
0.023218
-0.248858
-0.228413
-0.093454
-0.094891
-0.006266
-0.010892
-0.006479
-0.038837
-0.068118
-0.067266
-0.087330
-0.059970
-0.063827
-0.065679
0.025708
0.028040
0.027480
-0.075145
-0.074900
-0.094279
-0.097529
-0.097291
-0.100499
-0.035820
-0.019320
-0.042463
-0.077442
-0.248873
-0.249674
-0.247944
-0.171938
-0.171156
-0.176941
-0.160626
-0.177189
-0.180773
-0.183053
-0.164379
-0.161918
-0.163409
-0.167580
-0.069269
0.006263
0.000138
-0.011411
-0.063402
-0.016800
0.023002
0.022373
0.027812
-0.098954
-0.100732
0.020144
0.024433
0.025203
-0.146641
-0.147173
-0.092337
-0.004413
-0.078731
-0.010492
-0.247013
-0.246531
-0.246507
0.015318
0.012665
0.016944
0.015727
-0.002385
0.035407
0.013713
-0.113428
0.018285
0.018356
0.019342
0.019279
0.019150
0.022408
0.021485
0.024773
-0.048318
0.015934
0.017597
0.011610
-0.146834
-0.137013
-0.130351
0.009166
0.005827
0.031902
-0.203233
-0.200081
-0.160876
-0.222823
0.029170
-0.069176
-0.002606
0.000225
-0.000868
0.022366
0.019949
0.019389
0.016479
-0.035695
-0.039021
-0.178435
-0.180478
-0.089014
-0.180134
0.024792
0.024917
0.027432
-0.182306
-0.234347
-0.242769
0.014223
0.033415
-0.243007
-0.241133
-0.051045
-0.053784
-0.052145
-0.055576
-0.004873
-0.012152
-0.005535
-0.007623
0.026635
0.019251
-0.102424
-0.247868
-0.240664
-0.181752
-0.174801
-0.180477
-0.175709
-0.173041
-0.158287
-0.166328
-0.144215
-0.168609
-0.153398
-0.239210
-0.093810
-0.095267
-0.094535
-0.238107
-0.234796
-0.236632
-0.233342
-0.232471
-0.148128
-0.150931
-0.147356
-0.153018
-0.215661
-0.212080
-0.213987
-0.214628
-0.180487
-0.203240
-0.205588
-0.200411
-0.102696
-0.100128
-0.096799
-0.230748
-0.230758
-0.230325
-0.246073
-0.245927
-0.244699
-0.213447
-0.215255
-0.211376
-0.209805
-0.213180
-0.238198
-0.235236
-0.237490
-0.224770
-0.222777
-0.227989
-0.225373
0.036020
-0.221626
-0.220903
-0.062974
-0.068297
-0.196260
-0.194778
-0.212412
-0.213848
-0.193462
-0.218157
-0.204722
-0.109950
-0.237503
-0.235682
-0.112104
-0.167188
-0.167100
-0.170029
-0.171235
-0.168741
-0.213401
-0.216801
-0.209646
-0.051861
-0.048284
-0.048864
0.035582
-0.158321
-0.156550
-0.159529
-0.156095
-0.042854
-0.047366
-0.051882
-0.226470
-0.228563
-0.225674
-0.232952
-0.235778
-0.228485
-0.203496
-0.151440
-0.165108
0.036185
-0.210602
-0.207312
-0.241897
-0.205768
-0.232999
-0.234918
-0.239153
-0.225043
-0.228354
-0.216332
-0.219361
-0.217401
-0.220988
-0.063456
-0.061910
-0.073898
-0.185920
-0.187772
-0.076968
-0.184930
-0.183600
-0.186546
-0.181862
-0.184495
-0.181846
-0.238133
-0.235401
-0.227605
-0.043698
-0.197677
0.026532
0.021316
-0.186378
-0.189114
-0.187921
-0.222833
-0.224379
-0.226048
-0.220750
-0.165409
-0.165047
-0.164086
-0.128126
-0.124832
-0.129297
-0.125757
-0.122284
-0.192727
-0.192701
-0.195097
0.019863
0.019481
-0.229547
-0.228114
0.019817
-0.075754
-0.088487
-0.127711
-0.125385
-0.132593
-0.131934
-0.122690
-0.049761
-0.054215
-0.043318
-0.130466
-0.126243
0.003356
-0.000934
0.003006
0.000155
-0.173152
-0.175252
-0.198913
-0.206627
-0.207603
-0.204309
-0.206222
-0.202967
-0.041224
-0.233430
-0.230821
-0.232598
-0.230715
-0.232909
-0.131819
-0.135808
-0.136092
-0.131422
-0.134414
-0.168071
-0.216519
-0.190552
-0.190618
-0.045105
-0.040908
-0.043509
-0.042972
-0.179091
-0.177178
-0.175453
-0.179398
-0.178049
0.023827
-0.079904
-0.077414
-0.083878
-0.078787
0.019217
0.019441
0.017749
-0.174267
-0.195115
-0.197078
-0.195926
-0.196699
-0.198807
-0.236243
-0.234374
-0.235222
0.019388
-0.220236
-0.220538
-0.206498
-0.206828
-0.229966
-0.238326
-0.242770
-0.202771
-0.172122
-0.170750
-0.174624
-0.176996
-0.175453
-0.171894
-0.072567
-0.070990
-0.218718
-0.215651
-0.215663
-0.207692
-0.205086
0.020323
0.020252
-0.069963
-0.071078
-0.068675
-0.067080
-0.181681
-0.178483
-0.186412
-0.185163
-0.189122
-0.133046
-0.126545
-0.125236
-0.132630
-0.192385
-0.198195
-0.194856
-0.195575
-0.200318
-0.095122
-0.096654
-0.103816
-0.103784
-0.016023
-0.015438
-0.019292
-0.026972
-0.009842
-0.218479
-0.216605
-0.213897
-0.214474
-0.216506
-0.217763
-0.222891
-0.231292
-0.226483
-0.226124
-0.224387
-0.219250
-0.093906
-0.098306
-0.072400
-0.134816
-0.132585
-0.135512
-0.132744
-0.215138
-0.218530
-0.220921
-0.221096
-0.033885
-0.197366
-0.199025
-0.164688
-0.169975
-0.192861
-0.209813
-0.219889
-0.199839
-0.172471
-0.160198
-0.205267
-0.218041
0.036905
0.036717
0.033746
-0.215589
-0.213254
-0.102805
-0.212196
-0.223360
-0.231761
-0.214717
-0.216429
-0.212088
-0.209980
-0.142317
-0.144650
-0.141236
-0.139034
-0.196941
-0.197441
-0.002768
-0.006176
-0.008648
-0.183692
-0.211153