# vtk DataFile Version 2.0
Test
ASCII
DATASET POLYDATA
POINTS 5816 float
0.000000 0.000000 0.000000
2.000000 0.000000 0.000000
2.000000 4.000000 0.000000
0.000000 4.000000 0.000000
0.000000 0.500000 0.000000
1.500000 2.000000 0.000000
2.000000 2.500000 0.000000
0.285714 0.000000 0.000000
0.571429 0.000000 0.000000
0.857143 0.000000 0.000000
1.142857 0.000000 0.000000
1.428571 0.000000 0.000000
1.714286 0.000000 0.000000
2.000000 0.275040 0.000000
2.000000 0.520628 0.000000
2.000000 0.739917 0.000000
2.000000 0.935725 0.000000
2.000000 1.110565 0.000000
2.000000 1.266683 0.000000
2.000000 1.406084 0.000000
2.000000 1.530557 0.000000
2.000000 1.641701 0.000000
2.000000 1.740944 0.000000
2.000000 1.829560 0.000000
2.000000 1.908686 0.000000
2.000000 1.979340 0.000000
2.000000 2.042428 0.000000
2.000000 2.098760 0.000000
2.000000 2.149060 0.000000
2.000000 2.193974 0.000000
2.000000 2.234078 0.000000
2.000000 2.269888 0.000000
2.000000 2.301863 0.000000
2.000000 2.330415 0.000000
2.000000 2.355908 0.000000
2.000000 2.378673 0.000000
2.000000 2.398999 0.000000
2.000000 2.417149 0.000000
2.000000 2.433355 0.000000
2.000000 2.447826 0.000000
2.000000 2.460747 0.000000
2.000000 2.472285 0.000000
2.000000 2.482587 0.000000
2.000000 2.491786 0.000000
2.000000 2.508637 0.000000
2.000000 2.519089 0.000000
2.000000 2.531737 0.000000
2.000000 2.547044 0.000000
2.000000 2.565568 0.000000
2.000000 2.587985 0.000000
2.000000 2.615113 0.000000
2.000000 2.647942 0.000000
2.000000 2.687670 0.000000
2.000000 2.735749 0.000000
2.000000 2.793931 0.000000
2.000000 2.864341 0.000000
2.000000 2.949549 0.000000
2.000000 3.052664 0.000000
2.000000 3.177450 0.000000
2.000000 3.328462 0.000000
2.000000 3.511210 0.000000
2.000000 3.732366 0.000000
1.714286 4.000000 0.000000
1.428571 4.000000 0.000000
1.142857 4.000000 0.000000
0.857143 4.000000 0.000000
0.571429 4.000000 0.000000
0.285714 4.000000 0.000000
0.000000 3.715673 0.000000
0.000000 3.453827 0.000000
0.000000 3.212685 0.000000
0.000000 2.990611 0.000000
0.000000 2.786096 0.000000
0.000000 2.597752 0.000000
0.000000 2.424300 0.000000
0.000000 2.264564 0.000000
0.000000 2.117457 0.000000
0.000000 1.981983 0.000000
0.000000 1.857220 0.000000
0.000000 1.742322 0.000000
0.000000 1.636510 0.000000
0.000000 1.539064 0.000000
0.000000 1.449323 0.000000
0.000000 1.366678 0.000000
0.000000 1.290567 0.000000
0.000000 1.220475 0.000000
0.000000 1.155925 0.000000
0.000000 1.096479 0.000000
0.000000 1.041733 0.000000
0.000000 0.991316 0.000000
0.000000 0.944886 0.000000
0.000000 0.902126 0.000000
0.000000 0.862748 0.000000
0.000000 0.826483 0.000000
0.000000 0.793086 0.000000
0.000000 0.762330 0.000000
0.000000 0.734005 0.000000
0.000000 0.707920 0.000000
0.000000 0.683898 0.000000
0.000000 0.661775 0.000000
0.000000 0.641402 0.000000
0.000000 0.622639 0.000000
0.000000 0.605360 0.000000
0.000000 0.589447 0.000000
0.000000 0.574792 0.000000
0.000000 0.561296 0.000000
0.000000 0.548868 0.000000
0.000000 0.537421 0.000000
0.000000 0.526881 0.000000
0.000000 0.517173 0.000000
0.000000 0.508233 0.000000
0.000000 0.491468 0.000000
0.000000 0.479827 0.000000
0.000000 0.463944 0.000000
0.000000 0.442273 0.000000
0.000000 0.412707 0.000000
0.000000 0.372368 0.000000
0.000000 0.317330 0.000000
0.000000 0.242238 0.000000
0.000000 0.139785 0.000000
0.005639 0.505639 0.000000
0.011278 0.511278 0.000000
0.016917 0.516917 0.000000
0.022556 0.522556 0.000000
0.028195 0.528195 0.000000
0.033835 0.533835 0.000000
0.039474 0.539474 0.000000
0.045113 0.545113 0.000000
0.050752 0.550752 0.000000
0.056391 0.556391 0.000000
0.062030 0.562030 0.000000
0.067669 0.567669 0.000000
0.073308 0.573308 0.000000
0.078947 0.578947 0.000000
0.084586 0.584586 0.000000
0.090226 0.590226 0.000000
0.095865 0.595865 0.000000
0.101504 0.601504 0.000000
0.107143 0.607143 0.000000
0.112782 0.612782 0.000000
0.118421 0.618421 0.000000
0.124060 0.624060 0.000000
0.129699 0.629699 0.000000
0.135338 0.635338 0.000000
0.140977 0.640977 0.000000
0.146617 0.646617 0.000000
0.152256 0.652256 0.000000
0.157895 0.657895 0.000000
0.163534 0.663534 0.000000
0.169173 0.669173 0.000000
0.174812 0.674812 0.000000
0.180451 0.680451 0.000000
0.186090 0.686090 0.000000
0.191729 0.691729 0.000000
0.197368 0.697368 0.000000
0.203008 0.703008 0.000000
0.208647 0.708647 0.000000
0.214286 0.714286 0.000000
0.219925 0.719925 0.000000
0.225564 0.725564 0.000000
0.231203 0.731203 0.000000
0.236842 0.736842 0.000000
0.242481 0.742481 0.000000
0.248120 0.748120 0.000000
0.253759 0.753759 0.000000
0.259398 0.759398 0.000000
0.265038 0.765038 0.000000
0.270677 0.770677 0.000000
0.276316 0.776316 0.000000
0.281955 0.781955 0.000000
0.287594 0.787594 0.000000
0.293233 0.793233 0.000000
0.298872 0.798872 0.000000
0.304511 0.804511 0.000000
0.310150 0.810150 0.000000
0.315789 0.815789 0.000000
0.321429 0.821429 0.000000
0.327068 0.827068 0.000000
0.332707 0.832707 0.000000
0.338346 0.838346 0.000000
0.343985 0.843985 0.000000
0.349624 0.849624 0.000000
0.355263 0.855263 0.000000
0.360902 0.860902 0.000000
0.366541 0.866541 0.000000
0.372180 0.872180 0.000000
0.377820 0.877820 0.000000
0.383459 0.883459 0.000000
0.389098 0.889098 0.000000
0.394737 0.894737 0.000000
0.400376 0.900376 0.000000
0.406015 0.906015 0.000000
0.411654 0.911654 0.000000
0.417293 0.917293 0.000000
0.422932 0.922932 0.000000
0.428571 0.928571 0.000000
0.434211 0.934211 0.000000
0.439850 0.939850 0.000000
0.445489 0.945489 0.000000
0.451128 0.951128 0.000000
0.456767 0.956767 0.000000
0.462406 0.962406 0.000000
0.468045 0.968045 0.000000
0.473684 0.973684 0.000000
0.479323 0.979323 0.000000
0.484962 0.984962 0.000000
0.490602 0.990602 0.000000
0.496241 0.996241 0.000000
0.501880 1.001880 0.000000
0.507519 1.007519 0.000000
0.513158 1.013158 0.000000
0.518797 1.018797 0.000000
0.524436 1.024436 0.000000
0.530075 1.030075 0.000000
0.535714 1.035714 0.000000
0.541353 1.041353 0.000000
0.546992 1.046992 0.000000
0.552632 1.052632 0.000000
0.558271 1.058271 0.000000
0.563910 1.063910 0.000000
0.569549 1.069549 0.000000
0.575188 1.075188 0.000000
0.580827 1.080827 0.000000
0.586466 1.086466 0.000000
0.592105 1.092105 0.000000
0.597744 1.097744 0.000000
0.603383 1.103383 0.000000
0.609023 1.109023 0.000000
0.614662 1.114662 0.000000
0.620301 1.120301 0.000000
0.625940 1.125940 0.000000
0.631579 1.131579 0.000000
0.637218 1.137218 0.000000
0.642857 1.142857 0.000000
0.648496 1.148496 0.000000
0.654135 1.154135 0.000000
0.659774 1.159774 0.000000
0.665414 1.165414 0.000000
0.671053 1.171053 0.000000
0.676692 1.176692 0.000000
0.682331 1.182331 0.000000
0.687970 1.187970 0.000000
0.693609 1.193609 0.000000
0.699248 1.199248 0.000000
0.704887 1.204887 0.000000
0.710526 1.210526 0.000000
0.716165 1.216165 0.000000
0.721805 1.221805 0.000000
0.727444 1.227444 0.000000
0.733083 1.233083 0.000000
0.738722 1.238722 0.000000
0.744361 1.244361 0.000000
0.750000 1.250000 0.000000
0.755639 1.255639 0.000000
0.761278 1.261278 0.000000
0.766917 1.266917 0.000000
0.772556 1.272556 0.000000
0.778195 1.278195 0.000000
0.783835 1.283835 0.000000
0.789474 1.289474 0.000000
0.795113 1.295113 0.000000
0.800752 1.300752 0.000000
0.806391 1.306391 0.000000
0.812030 1.312030 0.000000
0.817669 1.317669 0.000000
0.823308 1.323308 0.000000
0.828947 1.328947 0.000000
0.834586 1.334586 0.000000
0.840226 1.340226 0.000000
0.845865 1.345865 0.000000
0.851504 1.351504 0.000000
0.857143 1.357143 0.000000
0.862782 1.362782 0.000000
0.868421 1.368421 0.000000
0.874060 1.374060 0.000000
0.879699 1.379699 0.000000
0.885338 1.385338 0.000000
0.890977 1.390977 0.000000
0.896617 1.396617 0.000000
0.902256 1.402256 0.000000
0.907895 1.407895 0.000000
0.913534 1.413534 0.000000
0.919173 1.419173 0.000000
0.924812 1.424812 0.000000
0.930451 1.430451 0.000000
0.936090 1.436090 0.000000
0.941729 1.441729 0.000000
0.947368 1.447368 0.000000
0.953008 1.453008 0.000000
0.958647 1.458647 0.000000
0.964286 1.464286 0.000000
0.969925 1.469925 0.000000
0.975564 1.475564 0.000000
0.981203 1.481203 0.000000
0.986842 1.486842 0.000000
0.992481 1.492481 0.000000
0.998120 1.498120 0.000000
1.003759 1.503759 0.000000
1.009398 1.509398 0.000000
1.015038 1.515038 0.000000
1.020677 1.520677 0.000000
1.026316 1.526316 0.000000
1.031955 1.531955 0.000000
1.037594 1.537594 0.000000
1.043233 1.543233 0.000000
1.048872 1.548872 0.000000
1.054511 1.554511 0.000000
1.060150 1.560150 0.000000
1.065789 1.565789 0.000000
1.071429 1.571429 0.000000
1.077068 1.577068 0.000000
1.082707 1.582707 0.000000
1.088346 1.588346 0.000000
1.093985 1.593985 0.000000
1.099624 1.599624 0.000000
1.105263 1.605263 0.000000
1.110902 1.610902 0.000000
1.116541 1.616541 0.000000
1.122180 1.622180 0.000000
1.127820 1.627820 0.000000
1.133459 1.633459 0.000000
1.139098 1.639098 0.000000
1.144737 1.644737 0.000000
1.150376 1.650376 0.000000
1.156015 1.656015 0.000000
1.161654 1.661654 0.000000
1.167293 1.667293 0.000000
1.172932 1.672932 0.000000
1.178571 1.678571 0.000000
1.184211 1.684211 0.000000
1.189850 1.689850 0.000000
1.195489 1.695489 0.000000
1.201128 1.701128 0.000000
1.206767 1.706767 0.000000
1.212406 1.712406 0.000000
1.218045 1.718045 0.000000
1.223684 1.723684 0.000000
1.229323 1.729323 0.000000
1.234962 1.734962 0.000000
1.240602 1.740602 0.000000
1.246241 1.746241 0.000000
1.251880 1.751880 0.000000
1.257519 1.757519 0.000000
1.263158 1.763158 0.000000
1.268797 1.768797 0.000000
1.274436 1.774436 0.000000
1.280075 1.780075 0.000000
1.285714 1.785714 0.000000
1.291353 1.791353 0.000000
1.296992 1.796992 0.000000
1.302632 1.802632 0.000000
1.308271 1.808271 0.000000
1.313910 1.813910 0.000000
1.319549 1.819549 0.000000
1.325188 1.825188 0.000000
1.330827 1.830827 0.000000
1.336466 1.836466 0.000000
1.342105 1.842105 0.000000
1.347744 1.847744 0.000000
1.353383 1.853383 0.000000
1.359023 1.859023 0.000000
1.364662 1.864662 0.000000
1.370301 1.870301 0.000000
1.375940 1.875940 0.000000
1.381579 1.881579 0.000000
1.387218 1.887218 0.000000
1.392857 1.892857 0.000000
[...]
POINT_DATA 5816
SCALARS UX float 1
LOOKUP_TABLE default
-0.055200
0.064427
-0.024821
-0.140228
-0.107644
0.040838
0.007932
-0.042168
-0.026831
-0.009794
0.008281
0.027121
0.045902
0.082189
0.098142
0.111956
0.123621
0.132991
0.139409
0.143840
0.144736
0.142441
0.136771
0.127236
0.115292
0.101876
0.088244
0.075566
0.064144
0.054472
0.046249
0.039491
0.033841
0.029156
0.025273
0.022008
0.019282
0.016978
0.015023
0.013355
0.011932
0.010704
0.009643
0.008728
0.007119
0.006162
0.005037
0.003741
0.002235
0.000554
-0.001355
-0.003408
-0.005677
-0.008081
-0.010580
-0.013085
-0.015523
-0.017912
-0.019807
-0.021670
-0.023273
-0.024328
-0.044302
-0.062475
-0.079158
-0.094785
-0.109713
-0.124941
-0.138921
-0.136190
-0.132040
-0.127688
-0.124052
-0.121518
-0.120725
-0.121982
-0.125126
-0.129849
-0.136068
-0.143123
-0.150709
-0.158545
-0.166412
-0.174180
-0.181599
-0.188607
-0.195176
-0.201259
-0.206823
-0.211891
-0.216514
-0.220755
-0.224449
-0.227693
-0.230548
-0.233072
-0.235364
-0.237457
-0.239410
-0.241151
-0.242446
-0.243500
-0.244327
-0.244279
-0.241251
-0.236050
-0.227406
-0.233956
-0.222857
-0.167675
-0.133128
-0.056557
-0.044265
-0.038615
-0.035116
-0.034179
-0.035190
-0.038067
-0.042111
-0.048014
-0.122210
-0.115819
-0.114396
-0.100624
-0.078725
-0.075414
-0.101887
-0.106073
-0.102636
-0.100821
-0.096884
-0.099352
-0.101097
-0.099085
-0.099738
-0.098203
-0.098986
-0.097309
-0.095535
-0.094355
-0.095816
-0.093702
-0.099042
-0.104779
-0.105899
-0.105453
-0.106986
-0.108841
-0.111191
-0.109121
-0.110761
-0.108209
-0.121262
-0.118963
-0.116421
-0.122787
-0.101744
-0.099296
-0.098523
-0.100235
-0.100839
-0.097234
-0.098288
-0.097123
-0.095351
-0.096651
-0.096162
-0.095919
-0.093468
-0.095569
-0.093687
-0.081444
-0.080020
-0.082199
-0.082671
-0.077937
-0.077791
-0.074385
-0.073278
-0.069627
-0.070481
-0.068851
-0.067299
-0.067100
-0.065821
-0.065087
-0.061574
-0.060995
-0.059514
-0.059960
-0.060778
-0.063002
-0.060823
-0.062655
-0.060458
-0.061036
-0.063213
-0.064027
-0.061650
-0.065868
-0.065830
-0.066649
-0.066410
-0.068181
-0.070804
-0.068082
-0.071246
-0.068342
-0.069903
-0.070111
-0.068361
-0.069825
-0.070094
-0.068148
-0.067360
-0.065562
-0.063439
-0.066258
-0.062935
-0.060665
-0.063989
-0.061866
-0.061960
-0.062714
-0.060536
-0.060185
-0.059230
-0.058147
-0.071556
-0.069806
-0.071714
-0.070555
-0.069151
-0.068490
-0.067136
-0.067289
-0.066389
-0.066100
-0.065245
-0.064220
-0.063378
-0.064972
-0.064407
-0.061936
-0.067021
-0.065184
-0.060150
-0.057065
-0.046874
-0.044335
-0.043331
-0.040509
-0.041590
-0.040185
-0.038872
-0.038959
-0.039220
-0.036935
-0.034256
-0.034113
-0.031886
-0.033241
-0.030980
-0.029783
-0.029035
-0.027630
-0.027640
-0.027738
-0.026620
-0.025411
-0.024746
-0.022554
-0.020828
-0.019717
-0.020254
-0.017354
-0.020771
-0.016180
-0.016900
-0.014754
-0.013843
-0.011645
-0.011897
-0.011436
-0.010207
-0.010454
-0.010076
-0.009873
-0.006578
-0.006190
-0.004762
-0.004005
-0.004218
-0.002760
-0.004296
-0.002726
-0.003904
-0.002095
-0.003947
-0.002033
-0.001283
-0.000169
0.002248
0.002361
0.005461
0.007692
0.009118
0.008868
0.010172
0.011030
0.010965
0.009068
0.008705
0.009730
0.008151
0.009748
0.007721
0.009198
0.010217
0.010541
0.009574
0.009758
0.010381
0.010598
0.010677
0.010681
0.014141
0.013476
0.009995
0.012310
0.011467
0.013010
0.014327
0.014292
0.013893
0.013487
0.013714
0.016113
0.017236
0.018151
0.020637
0.019660
0.022021
0.023436
0.024767
0.023930
0.026233
0.027655
0.027820
0.028690
0.030595
0.029675
0.031543
0.032951
0.031970
0.033841
0.034254
0.036095
0.037697
0.039756
0.031575
0.034096
0.034403
0.036797
0.041081
0.032081
0.028456
0.028054
0.030726
0.029763
0.030967
0.032170
0.033575
0.033218
0.034387
0.038353
0.033550
0.035286
0.036197
0.036916
0.038278
0.037610
0.038609
0.038664
0.038755
0.038752
0.038484
0.037211
0.036332
0.035424
0.034522
0.033694
0.032851
0.032116
0.031406
0.030720
0.030098
0.029527
0.028969
0.028396
0.027874
0.027364
0.026877
0.026418
0.025956
0.025512
0.025080
0.024591
0.024104
0.023639
0.023191
0.022756
0.022334
0.021933
0.021533
0.021146
0.020763
0.020385
0.020012
0.019645
0.019278
0.018912
0.018546
0.018190
0.017833
0.017475
0.017124
0.016783
0.016438
0.016089
0.015751
0.015414
0.015079
0.014744
0.014418
0.014093
0.013769
0.013461
0.013149
0.012844
0.012544
0.012252
0.011967
0.011681
0.011409
0.011142
0.010881
0.010632
0.010394
0.010161
0.009939
0.009727
0.009524
0.009332
0.009151
0.008980
0.008820
0.008674
0.008537
0.008413
0.008299
0.008200
0.008111
0.008034
0.007971
0.007918
0.007880
0.007850
0.007834
0.007831
0.007840
0.007858
0.007890
-0.021565
-0.022480
-0.025084
-0.017544
-0.059526
-0.059774
-0.061945
-0.062112
-0.039718
-0.037645
-0.035046
-0.072983
-0.077286
-0.074284
-0.078274
-0.068454
-0.065071
-0.065062
0.007612
0.008886
0.007472
0.008769
-0.113466
-0.110779
-0.112111
-0.111961
-0.069426
0.006688
0.008328
0.005718
0.006389
-0.102148
-0.101161
-0.099212
-0.099562
-0.083596
-0.083712
-0.085978
-0.085453
-0.092864
-0.089487
-0.089672
-0.005919
-0.007697
-0.003759
-0.006005
-0.091780
-0.065339
-0.067396
-0.065515
-0.067271
-0.031516
-0.034631
-0.032874
-0.029994
-0.028572
-0.030711
-0.028979
-0.164313
-0.163060
-0.165431
-0.163012
-0.033208
-0.083225
-0.087265
-0.175768
-0.175162
-0.174254
-0.176673
-0.176348
-0.172311
-0.177360
-0.085556
-0.051258
-0.054280
-0.056390
-0.212542
-0.212220
-0.210894
-0.210643
-0.000219
-0.002997
-0.001648
-0.004435
-0.085119
-0.089710
-0.092206
-0.080340
-0.210861
-0.209165
-0.205665
-0.204062
-0.203211
-0.202390
-0.216658
-0.217310
-0.215353
-0.218539
-0.198158
-0.195104
-0.197523
-0.195581
-0.234997
-0.234808
-0.236700
-0.233312
-0.009656
-0.005319
-0.007882
-0.079519
-0.166397
-0.069584
-0.093051
-0.089141
-0.093910
-0.088498
-0.178423
-0.181082
-0.098473
-0.098625
-0.100604
-0.181818
-0.141469
-0.140868
-0.139868
-0.089499
-0.084592
-0.083293
-0.078747
-0.086189
-0.083599
-0.090120
-0.080185
-0.090805
-0.087667
-0.091902
-0.088281
-0.106281
-0.103662
-0.101324
-0.097988
-0.142972
-0.114084
-0.112200
-0.112734
0.004454
0.005594
0.005670
0.004087
-0.112049
-0.031626
-0.033334
-0.034143
0.006791
0.006892
-0.066199
-0.066224
-0.061727
-0.069956
-0.089761
-0.099149
-0.096276
-0.032837
-0.209157
-0.206400
-0.210553
-0.206473
-0.054732
-0.056320
-0.051250
-0.053883
-0.136685
-0.161415
-0.030607
-0.077205
-0.079682
-0.060257
-0.050426
-0.046895
-0.089449
-0.090916
-0.088454
-0.047077
-0.171537
-0.171206
-0.150610
-0.002375
-0.003163
-0.000550
0.000822
-0.179983
-0.049908
-0.028740
-0.035565
-0.012713
-0.015376
-0.012342
-0.050289
-0.052856
-0.052593
-0.040783
-0.044559
-0.044414
-0.054918
-0.075934
-0.057699
-0.050201
-0.116367
-0.114507
-0.118624
-0.113471
-0.037455
-0.033624
-0.030868
-0.041784
-0.046334
-0.006303
-0.005603
-0.003718
-0.000640
0.001040
0.003600
-0.108790
-0.106803
-0.127275
-0.149981
-0.122917
-0.137213
0.007768
0.005789
0.008211
0.006717
0.006067
0.007399
0.006944
0.003990
-0.083577
-0.080603
-0.086523
-0.023173
-0.026333
-0.027735
-0.196609
-0.190073
-0.187032
-0.167395
-0.193011
-0.186373
-0.183306
-0.164231
-0.018917
-0.020309
-0.017469
0.011032
0.009730
-0.081478
-0.017484
0.005474
0.003526
0.004482
-0.103965
-0.121462
-0.133507
-0.136100
-0.064789
-0.064240
-0.060397
0.002264
0.005888
0.001924
-0.016140
-0.017544
-0.060072
-0.015029
-0.086497
-0.097342
-0.081524
0.003332
0.004888
0.001857
0.002895
0.006314
0.005920
0.004402
-0.096181
-0.108367
-0.105385
0.001808
0.005748
0.006091
0.000909
-0.074981
-0.072426
-0.072160
-0.104896
-0.113430
-0.128781
-0.111530
-0.011110
-0.007710
-0.010363
-0.126411
-0.001486
-0.069879
-0.067980
0.005488
0.007928
0.008413
0.005158
-0.074791
-0.069530
-0.071917
-0.008327
-0.005284
-0.006153
-0.062218
0.020693
0.023228
0.029060
-0.002669
0.016592
-0.115848
-0.116041
-0.117745
-0.116753
-0.057603
-0.049818
-0.060143
-0.026129
-0.028653
-0.026741
-0.026945
-0.109216
-0.111087
-0.109128
-0.110937
-0.041020
-0.107677
-0.108782
-0.066595
-0.067844
-0.048663
-0.077056
-0.076322
-0.106745
-0.003907
-0.007465
-0.006108
0.005323
0.000517
-0.009217
-0.148078
-0.148937
-0.150541
-0.011521
-0.015690
-0.002450
-0.013648
-0.137688
-0.139449
-0.138469
-0.138513
0.002125
0.004562
0.002181
-0.083324
-0.086334
-0.083104
-0.048086
-0.045781
-0.046086
-0.085598
-0.043945
-0.154708
-0.156699
-0.155062
-0.157323
0.006882
-0.201268
-0.200800
-0.198342
-0.198036
-0.177217
-0.181652
-0.204151
-0.204910
-0.203155
-0.058036
-0.061922
-0.205657
-0.037002
-0.028633
-0.030699
0.007969
0.009500
0.011707
0.004113
-0.115428
-0.113671
-0.115461
-0.030991
-0.055869
-0.062208
-0.059839
-0.065358
0.004511
0.001705
0.008539
0.007700
0.010398
-0.095634
-0.096008
-0.001803
-0.118293
-0.115485
-0.117210
-0.117151
-0.139544
-0.164449
-0.179409
-0.188176
-0.182368
-0.182663
-0.184787
0.022342
0.016305
0.019221
0.004546
0.007161
0.006304
-0.031222
-0.032595
-0.028493
-0.135115
-0.136145
-0.133712
-0.134022
-0.030520
-0.119380
-0.121483
-0.121491
-0.080364
-0.041973
-0.041692
-0.039642
-0.012627
-0.009204
-0.010304
-0.142714
-0.144758
-0.143849
-0.010676
-0.011887
-0.009552
-0.120594
-0.119159
-0.103120
-0.101594
-0.067255
-0.077595
-0.075972
-0.151579
-0.149874
-0.149695
-0.151213
-0.183678
-0.173021
-0.178320
-0.139448
-0.043275
-0.045802
-0.045022
-0.047821
0.001215
-0.000315
-0.001582
0.026073
0.025992
-0.104753
-0.105828
-0.096626
-0.052300
-0.187027
-0.139395
-0.142681
0.011656
0.008969
0.010896
0.010931
-0.202557
-0.202687
-0.200081
-0.203236
-0.205124
0.024368
0.025614
0.017498
-0.138320
-0.093815
-0.093889
-0.095871
-0.187726
-0.194635
-0.175635
-0.170862
-0.164661
-0.095211
-0.073641
-0.072550
-0.076616
-0.073461
-0.109797
-0.107984
-0.110680
0.026233
0.017727
-0.213975
-0.216695
-0.215964
-0.124348
-0.122014
-0.124299
-0.121978
-0.106580
-0.106652
-0.105125
0.010142
0.009418
-0.233115
-0.231531
-0.202307
-0.198727
-0.203861
0.000173
-0.003933
0.003744
-0.078893
-0.066345
-0.065360
-0.002955
-0.000992
0.001268
-0.088316
-0.087159
-0.085727
-0.000211
-0.064637
-0.065571
-0.082785
-0.162556
-0.164060
-0.132653
0.010694
0.009748
-0.110600
-0.108991
-0.112238
-0.109400
-0.111512
-0.108843
0.010522
-0.104597
-0.103521
-0.106463
-0.106494
-0.103244
-0.072617
-0.066602
-0.104065
-0.200520
-0.200921
-0.166974
-0.178785
-0.171395
-0.178580
-0.108356
-0.181474
-0.094080
-0.092063
-0.091757
-0.093083
-0.092350
-0.095932
0.008623
0.008503
0.006847
0.007283
-0.196509
-0.194198
-0.194871
0.028459
0.031412
0.024889
-0.192684
-0.177203
0.022581
0.020937
0.020492
-0.134991
-0.167280
0.018441
-0.070125
0.000723
-0.002888
-0.175465
-0.176898
-0.175642
-0.177588
-0.173279
-0.173427
-0.147009
-0.151659
-0.145785
-0.152110
-0.211573
-0.212569
-0.213470
-0.000222
-0.002795
0.003773
-0.141257
-0.146645
-0.137768
-0.030038
-0.037570
-0.074551
-0.043674
-0.038552
-0.051657
0.014168
-0.170153
-0.193854
-0.080054
-0.076722
0.011401
0.016028
0.013962
-0.084668
-0.088934
-0.069224
-0.069047
-0.179714
-0.152666
0.004813
0.000982
0.004146
0.011988
0.011948
-0.020859
-0.022733
-0.017201
-0.000827
0.009029
0.011742
-0.114805
-0.117434
-0.120466
-0.133187
-0.114304
-0.018193
-0.157991
-0.156846
-0.155629
-0.134158
-0.139324
-0.142272
-0.145118
-0.059560
-0.057478
-0.061488
-0.155116
-0.084899
-0.115773
-0.112553
-0.126556
-0.168989
-0.172138
-0.171127
-0.169761
0.011280
0.009301
0.009669
-0.028757
-0.026003
-0.028060
0.011208
-0.025609
-0.029296
-0.032190
-0.065119
-0.075169
-0.071887
0.018786
0.014937
0.019357
0.006219
-0.156471
-0.152140
-0.163293
-0.157248
-0.157764
-0.139709
-0.136130
0.012360
-0.038191
-0.037082
-0.222420
-0.224114
-0.215780
-0.131681
-0.133850
-0.077270
-0.079377
-0.077000
-0.079217
-0.003961
-0.007085
-0.006923
-0.010112
-0.041519
-0.169900
0.014579
0.012445
0.012661
-0.221561
-0.224034
-0.217934
-0.145774
-0.139684
-0.143637
-0.149775
-0.151966
0.000305
0.001914
0.003163
-0.169329
-0.172337
-0.177158
-0.177045
-0.050964
-0.048838
-0.050333
-0.047566
-0.017773
-0.020849
-0.018613
-0.019339
-0.041594
-0.029209
-0.037616
0.010072
0.012920
-0.017684
-0.165713
-0.166440
-0.132473
-0.132529
-0.130002
-0.128943
-0.005489
-0.001941
-0.002987
0.000820
-0.009262
-0.007992
-0.082120
-0.011698
-0.055161
-0.055402
-0.058012
-0.055310
-0.053751
-0.058274
-0.055953
-0.052833
-0.056721
-0.188622
-0.187955
-0.189808
-0.052903
-0.189037
-0.187061
-0.186810
-0.151599
-0.143486
-0.113237
-0.110601
-0.122952
-0.082135
-0.140970
-0.143043
-0.145166
-0.140123
-0.125052
-0.099840
-0.103534
-0.022885
-0.004241
-0.009038
-0.101664
-0.104299
-0.101917
-0.103995
0.006850
0.008367
0.005699
0.008519
-0.073057
-0.048925
-0.058774
-0.013389
-0.010124
-0.040721
-0.029857
-0.025966
-0.051981
-0.049699
-0.049777
-0.050963
-0.076975
-0.069039
-0.073452
-0.058332
-0.130337
-0.133567
-0.133887
-0.136200
-0.132043
-0.134230
-0.116327
0.016706
0.016626
-0.024547
-0.023377
-0.026103
-0.021749
-0.036741
-0.037938
-0.039509
-0.035861
-0.034261
-0.037020
0.004252
-0.167394
-0.169005
-0.166768
-0.123950
-0.112629
-0.119058
-0.104750
-0.134535
-0.124972
-0.134633
-0.122902
-0.134591
-0.141124
-0.017553
-0.011488
-0.016470
0.008750
0.006078
-0.007945
-0.009017
-0.011834
-0.008376
-0.012027
-0.105748
-0.105856
-0.103978
-0.107608
-0.168290
-0.132588
-0.134592
-0.087784
-0.088458
-0.103984
-0.035896
-0.034251
-0.033748
-0.035951
-0.038295
-0.054896
-0.135563
-0.133198
-0.090090
-0.087443
-0.040316
-0.031932
-0.047253
-0.043988
-0.181458
-0.182162
-0.085357
-0.070617
-0.095164
-0.050174
-0.051000
-0.053110
-0.090108
-0.066680
-0.058850
-0.060458
-0.064486
-0.067294
-0.064094
-0.107021
-0.107795
-0.101056
-0.136943
-0.070005
-0.100472
-0.078319
-0.080454
-0.100894
-0.031308
-0.036960
-0.125216
-0.127508
-0.125353
-0.126759
-0.096065
-0.091767
-0.116354
-0.104930
-0.137142
-0.108811
-0.122797
-0.119396
-0.041193
-0.043486
-0.044931
-0.044152
-0.042133
-0.046188
-0.044473
-0.039285
-0.048464
-0.136929
-0.138268
-0.135638
-0.136484
-0.135148
-0.136730
-0.079152
-0.089159
-0.065840
-0.093777
-0.093452
-0.097223
-0.125225
-0.123256
-0.122804
-0.120514
-0.024721
-0.021292
-0.035370
-0.137413
-0.138916
-0.228715
-0.217368
-0.026554
-0.016233
-0.009546
-0.159292
-0.160719
-0.162065
-0.184009
-0.157003
-0.155209
-0.150342
-0.028112
-0.029807
-0.032253
-0.122966
-0.107287
-0.087646
-0.086832
-0.089311
-0.102333
-0.065784
-0.062890
-0.050966
-0.069053
-0.094147
-0.093830
-0.095401
-0.092190
-0.091853
-0.021801
-0.023834
-0.018897
-0.020966
-0.017807
-0.014350
-0.035350
-0.032147
-0.035208
-0.031701
-0.032770
-0.027939
-0.037994
-0.003067
-0.001139
0.006168
0.004612
0.005222
0.007450
0.008531
-0.024244
-0.028303
0.003164
0.000114
-0.124937
-0.123424
-0.125898
-0.031816
-0.026651
-0.115355
-0.116096
-0.082264
-0.052621
0.022505
0.006102
0.004149
0.001931
-0.021155
-0.022243
-0.024018
-0.024300
-0.000789
-0.112937
-0.004744
-0.144740
-0.141214
-0.161972
-0.114278
-0.095588
-0.150815
-0.156151
-0.211806
-0.222051
-0.201037
-0.046874
-0.048570
-0.046317
-0.151257
-0.140829
-0.009588
-0.009013
-0.047521
-0.047030
-0.079844
-0.077773
-0.097396
-0.106125
-0.110258
-0.012971
-0.009433
-0.008749
-0.224642
-0.224273
-0.226239
-0.014133
-0.006779
-0.020803
-0.019474
-0.078624
-0.073192
-0.094710
-0.166915
-0.092140
-0.001337
0.012582
0.010891
-0.040897
-0.039326
-0.015819
-0.015655
-0.038069
-0.040705
-0.038576
0.019859
-0.085262
-0.081633
-0.083154
0.018064
-0.083401
-0.081366
-0.084036
-0.018927
-0.090841
-0.068690
-0.067839
-0.066398
-0.202874
-0.160609
-0.207138
-0.069628
-0.066538
-0.110470
-0.137703
-0.228341
-0.226298
-0.235135
-0.069947
-0.170827
-0.242484
-0.242469
-0.240146
-0.102510
-0.089699
-0.100715
0.010638
0.010716
-0.241040
-0.222555
-0.095817
-0.097396
-0.016188
-0.020430
-0.016275
-0.046871
-0.073012
-0.072188
-0.090751
-0.065621
-0.069129
-0.070673
0.013169
0.015342
0.014810
-0.079546
-0.079287
-0.096702
-0.099699
-0.099620
-0.102571
-0.044529
-0.028369
-0.048502
-0.081558
-0.240158
-0.241422
-0.239684
-0.170385
-0.170062
-0.174776
-0.159371
-0.174912
-0.177887
-0.179617
-0.161868
-0.159563
-0.160874
-0.167582
-0.075009
0.001950
-0.010872
-0.020966
-0.069545
-0.026193
0.010999
0.010380
0.015431
-0.101362
-0.102935
0.008452
0.012412
0.013079
-0.144830
-0.145447
-0.094930
-0.014191
-0.082782
-0.019883
-0.238037
-0.238076
-0.238920
0.000553
-0.001942
0.004575
0.003429
-0.014129
0.022409
0.001778
-0.114388
0.005834
0.005911
0.006824
0.006779
0.007100
0.010142
0.009267
0.012336
-0.054951
0.005054
0.006587
0.000364
-0.146646
-0.137731
-0.132176
-0.001841
-0.005070
0.019141
-0.200161
-0.199148
-0.154015
-0.215290
0.016581
-0.074011
-0.012483
-0.009745
-0.010961
0.010265
0.008004
0.007491
0.004765
-0.043348
-0.046446
-0.175151
-0.177008
-0.092246
-0.176572
0.012535
0.012641
0.014997
-0.178533
-0.225718
-0.234976
0.002273
0.022455
-0.233168
-0.231254
-0.057140
-0.059713
-0.058191
-0.061278
-0.015889
-0.022640
-0.016453
-0.018346
0.014494
0.006788
-0.109053
-0.238488
-0.230640
-0.177471
-0.170983
-0.176252
-0.171872
-0.170364
-0.158729
-0.165526
-0.148842
-0.165368
-0.155746
-0.229249
-0.096740
-0.098036
-0.097381
-0.228891
-0.226100
-0.227756
-0.224880
-0.224169
-0.146395
-0.149017
-0.145691
-0.150947
-0.208795
-0.205589
-0.207053
-0.207724
-0.176339
-0.197894
-0.199856
-0.195323
-0.104704
-0.102362
-0.099332
-0.221900
-0.222098
-0.221556
-0.236364
-0.236505
-0.234898
-0.206853
-0.208478
-0.204975
-0.203578
-0.206593
-0.228811
-0.226381
-0.228299
-0.217254
-0.215440
-0.220184
-0.217809
0.023058
-0.214409
-0.213805
-0.069256
-0.074248
-0.186789
-0.183958
-0.202515
-0.203514
-0.181467
-0.211787
-0.192972
-0.111311
-0.227737
-0.225964
-0.113244
-0.164426
-0.164246
-0.167079
-0.168339
-0.165985
-0.206821
-0.209941
-0.203388
-0.057784
-0.054666
-0.055043
0.022657
-0.156054
-0.154330
-0.157132
-0.153957
-0.050328
-0.054585
-0.058672
-0.219041
-0.220786
-0.218369
-0.224506
-0.226884
-0.220739
-0.190440
-0.146886
-0.155622
0.023202
-0.204198
-0.201223
-0.232147
-0.200105
-0.224118
-0.224448
-0.230305
-0.216703
-0.217483
-0.209435
-0.212240
-0.210468
-0.213766
-0.070408
-0.069121
-0.080073
-0.181766
-0.183423
-0.083008
-0.180743
-0.179456
-0.182208
-0.177890
-0.180401
-0.177936
-0.229042
-0.225645
-0.218375
-0.050162
-0.192530
0.012857
0.008352
-0.182009
-0.184605
-0.183517
-0.215472
-0.216892
-0.218427
-0.213565
-0.162768
-0.162363
-0.161406
-0.128053
-0.125008
-0.129120
-0.125837
-0.122644
-0.188197
-0.188102
-0.190476
0.007454
0.007107
-0.221571
-0.220276
0.007432
-0.081070
-0.092927
-0.127528
-0.125391
-0.131996
-0.131383
-0.122931
-0.056939
-0.060961
-0.050930
-0.130162
-0.126263
-0.008019
-0.012009
-0.008300
-0.011035
-0.166210
-0.167642
-0.191559
-0.200129
-0.201594
-0.198649
-0.200404
-0.197508
-0.048584
-0.224838
-0.222703
-0.224188
-0.222552
-0.224348
-0.131379
-0.135025
-0.135310
-0.130995
-0.133786
-0.167386
-0.207072
-0.186139
-0.186121
-0.051963
-0.048096
-0.050505
-0.049994
-0.175459
-0.173783
-0.172084
-0.175821
-0.174676
0.011310
-0.083889
-0.081621
-0.087520
-0.082862
0.006829
0.007050
0.005465
-0.171155
-0.191134
-0.192901
-0.192066
-0.192277
-0.194328
-0.227086
-0.225455
-0.226285
0.006893
-0.211331
-0.212250
-0.198672
-0.199856
-0.222704
-0.230478
-0.234488
-0.194098
-0.168782
-0.167432
-0.171060
-0.173298
-0.171948
-0.168651
-0.077126
-0.075654
-0.212106
-0.209495
-0.209229
-0.202581
-0.200825
0.007928
0.007850
-0.074650
-0.075766
-0.073407
-0.071868
-0.177875
-0.174793
-0.181845
-0.180728
-0.184322
-0.132446
-0.126490
-0.125272
-0.132045
-0.187402
-0.192801
-0.189755
-0.190325
-0.194733
-0.098750
-0.100375
-0.106830
-0.106620
-0.025181
-0.024728
-0.028285
-0.035885
-0.018491
-0.211385
-0.209602
-0.207187
-0.207723
-0.209560
-0.210696
-0.212347
-0.220551
-0.217837
-0.217704
-0.216356
-0.211305
-0.096778
-0.100737
-0.076989
-0.134181
-0.132144
-0.134860
-0.132320
-0.208573
-0.211779
-0.213920
-0.214227
-0.041888
-0.192678
-0.194304
-0.150501
-0.158427
-0.190487
-0.203557
-0.212788
-0.193633
-0.169986
-0.158543
-0.199744
-0.212043
0.023839
0.023652
0.020883
-0.208637
-0.206569
-0.104879
-0.204564
-0.214279
-0.221645
-0.208074
-0.209780
-0.205498
-0.202985
-0.141097