# vtk DataFile Version 2.0
Test
ASCII
DATASET POLYDATA
POINTS 20431 float
0.000000 0.000000 0.000000
2.000000 0.000000 0.000000
2.000000 4.000000 0.000000
0.000000 4.000000 0.000000
0.000000 0.500000 0.000000
1.500000 2.000000 0.000000
2.000000 2.500000 0.000000
0.400000 0.000000 0.000000
0.800000 0.000000 0.000000
1.200000 0.000000 0.000000
1.600000 0.000000 0.000000
2.000000 0.362557 0.000000
2.000000 0.672798 0.000000
2.000000 0.938272 0.000000
2.000000 1.165439 0.000000
2.000000 1.359826 0.000000
2.000000 1.526163 0.000000
2.000000 1.668499 0.000000
2.000000 1.790295 0.000000
2.000000 1.894517 0.000000
2.000000 1.983700 0.000000
2.000000 2.060013 0.000000
2.000000 2.125315 0.000000
2.000000 2.181194 0.000000
2.000000 2.229010 0.000000
2.000000 2.269926 0.000000
2.000000 2.304938 0.000000
2.000000 2.334898 0.000000
2.000000 2.360534 0.000000
2.000000 2.382472 0.000000
2.000000 2.401244 0.000000
2.000000 2.417307 0.000000
2.000000 2.431052 0.000000
2.000000 2.442814 0.000000
2.000000 2.452878 0.000000
2.000000 2.461491 0.000000
2.000000 2.468860 0.000000
2.000000 2.475167 0.000000
2.000000 2.480563 0.000000
2.000000 2.485180 0.000000
2.000000 2.489132 0.000000
2.000000 2.492513 0.000000
2.000000 2.495406 0.000000
2.000000 2.497882 0.000000
2.000000 2.502286 0.000000
2.000000 2.505266 0.000000
2.000000 2.509150 0.000000
2.000000 2.514212 0.000000
2.000000 2.520809 0.000000
2.000000 2.529407 0.000000
2.000000 2.540613 0.000000
2.000000 2.555218 0.000000
2.000000 2.574253 0.000000
2.000000 2.599061 0.000000
2.000000 2.631395 0.000000
2.000000 2.673536 0.000000
2.000000 2.728460 0.000000
2.000000 2.800043 0.000000
2.000000 2.893339 0.000000
2.000000 3.014933 0.000000
2.000000 3.173410 0.000000
2.000000 3.379956 0.000000
2.000000 3.649152 0.000000
1.600000 4.000000 0.000000
1.200000 4.000000 0.000000
0.800000 4.000000 0.000000
0.400000 4.000000 0.000000
0.000000 3.624996 0.000000
0.000000 3.289970 0.000000
0.000000 2.990661 0.000000
0.000000 2.723261 0.000000
0.000000 2.484368 0.000000
0.000000 2.270943 0.000000
0.000000 2.080271 0.000000
0.000000 1.909926 0.000000
0.000000 1.757741 0.000000
0.000000 1.621780 0.000000
0.000000 1.500314 0.000000
0.000000 1.391797 0.000000
0.000000 1.294849 0.000000
0.000000 1.208237 0.000000
0.000000 1.130858 0.000000
0.000000 1.061728 0.000000
0.000000 0.999968 0.000000
0.000000 0.944792 0.000000
0.000000 0.895499 0.000000
0.000000 0.851460 0.000000
0.000000 0.812117 0.000000
0.000000 0.776968 0.000000
0.000000 0.745565 0.000000
0.000000 0.717511 0.000000
0.000000 0.692448 0.000000
0.000000 0.670056 0.000000
0.000000 0.650052 0.000000
0.000000 0.632180 0.000000
0.000000 0.616213 0.000000
0.000000 0.601949 0.000000
0.000000 0.589205 0.000000
0.000000 0.577820 0.000000
0.000000 0.567649 0.000000
0.000000 0.558562 0.000000
0.000000 0.550444 0.000000
0.000000 0.543191 0.000000
0.000000 0.536712 0.000000
0.000000 0.530923 0.000000
0.000000 0.525751 0.000000
0.000000 0.521131 0.000000
0.000000 0.517003 0.000000
0.000000 0.513315 0.000000
0.000000 0.510021 0.000000
0.000000 0.507078 0.000000
0.000000 0.504448 0.000000
0.000000 0.502099 0.000000
0.000000 0.497804 0.000000
0.000000 0.494785 0.000000
0.000000 0.490633 0.000000
0.000000 0.484924 0.000000
0.000000 0.477074 0.000000
0.000000 0.466279 0.000000
0.000000 0.451436 0.000000
0.000000 0.431025 0.000000
0.000000 0.402959 0.000000
0.000000 0.364366 0.000000
0.000000 0.311297 0.000000
0.000000 0.238324 0.000000
0.000000 0.137980 0.000000
0.001414 0.501414 0.000000
0.002828 0.502828 0.000000
0.004241 0.504241 0.000000
0.005655 0.505655 0.000000
0.007069 0.507069 0.000000
0.008483 0.508483 0.000000
0.009896 0.509896 0.000000
0.011310 0.511310 0.000000
0.012724 0.512724 0.000000
0.014138 0.514138 0.000000
0.015551 0.515551 0.000000
0.016965 0.516965 0.000000
0.018379 0.518379 0.000000
0.019793 0.519793 0.000000
0.021206 0.521206 0.000000
0.022620 0.522620 0.000000
0.024034 0.524034 0.000000
0.025448 0.525448 0.000000
0.026861 0.526861 0.000000
0.028275 0.528275 0.000000
0.029689 0.529689 0.000000
0.031103 0.531103 0.000000
0.032516 0.532516 0.000000
0.033930 0.533930 0.000000
0.035344 0.535344 0.000000
0.036758 0.536758 0.000000
0.038172 0.538172 0.000000
0.039585 0.539585 0.000000
0.040999 0.540999 0.000000
0.042413 0.542413 0.000000
0.043827 0.543827 0.000000
0.045240 0.545240 0.000000
0.046654 0.546654 0.000000
0.048068 0.548068 0.000000
0.049482 0.549482 0.000000
0.050895 0.550895 0.000000
0.052309 0.552309 0.000000
0.053723 0.553723 0.000000
0.055137 0.555137 0.000000
0.056550 0.556550 0.000000
0.057964 0.557964 0.000000
0.059378 0.559378 0.000000
0.060792 0.560792 0.000000
0.062205 0.562205 0.000000
0.063619 0.563619 0.000000
0.065033 0.565033 0.000000
0.066447 0.566447 0.000000
0.067861 0.567861 0.000000
0.069274 0.569274 0.000000
0.070688 0.570688 0.000000
0.072102 0.572102 0.000000
0.073516 0.573516 0.000000
0.074929 0.574929 0.000000
0.076343 0.576343 0.000000
0.077757 0.577757 0.000000
0.079171 0.579171 0.000000
0.080584 0.580584 0.000000
0.081998 0.581998 0.000000
0.083412 0.583412 0.000000
0.084826 0.584826 0.000000
0.086239 0.586239 0.000000
0.087653 0.587653 0.000000
0.089067 0.589067 0.000000
0.090481 0.590481 0.000000
0.091894 0.591894 0.000000
0.093308 0.593308 0.000000
0.094722 0.594722 0.000000
0.096136 0.596136 0.000000
0.097549 0.597549 0.000000
0.098963 0.598963 0.000000
0.100377 0.600377 0.000000
0.101791 0.601791 0.000000
0.103205 0.603205 0.000000
0.104618 0.604618 0.000000
0.106032 0.606032 0.000000
0.107446 0.607446 0.000000
0.108860 0.608860 0.000000
0.110273 0.610273 0.000000
0.111687 0.611687 0.000000
0.113101 0.613101 0.000000
0.114515 0.614515 0.000000
0.115928 0.615928 0.000000
0.117342 0.617342 0.000000
0.118756 0.618756 0.000000
0.120170 0.620170 0.000000
0.121583 0.621583 0.000000
0.122997 0.622997 0.000000
0.124411 0.624411 0.000000
0.125825 0.625825 0.000000
0.127238 0.627238 0.000000
0.128652 0.628652 0.000000
0.130066 0.630066 0.000000
0.131480 0.631480 0.000000
0.132893 0.632893 0.000000
0.134307 0.634307 0.000000
0.135721 0.635721 0.000000
0.137135 0.637135 0.000000
0.138549 0.638549 0.000000
0.139962 0.639962 0.000000
0.141376 0.641376 0.000000
0.142790 0.642790 0.000000
0.144204 0.644204 0.000000
0.145617 0.645617 0.000000
0.147031 0.647031 0.000000
0.148445 0.648445 0.000000
0.149859 0.649859 0.000000
0.151272 0.651272 0.000000
0.152686 0.652686 0.000000
0.154100 0.654100 0.000000
0.155514 0.655514 0.000000
0.156927 0.656927 0.000000
0.158341 0.658341 0.000000
0.159755 0.659755 0.000000
0.161169 0.661169 0.000000
0.162582 0.662582 0.000000
0.163996 0.663996 0.000000
0.165410 0.665410 0.000000
0.166824 0.666824 0.000000
0.168238 0.668238 0.000000
0.169651 0.669651 0.000000
0.171065 0.671065 0.000000
0.172479 0.672479 0.000000
0.173893 0.673893 0.000000
0.175306 0.675306 0.000000
0.176720 0.676720 0.000000
0.178134 0.678134 0.000000
0.179548 0.679548 0.000000
0.180961 0.680961 0.000000
0.182375 0.682375 0.000000
0.183789 0.683789 0.000000
0.185203 0.685203 0.000000
0.186616 0.686616 0.000000
0.188030 0.688030 0.000000
0.189444 0.689444 0.000000
0.190858 0.690858 0.000000
0.192271 0.692271 0.000000
0.193685 0.693685 0.000000
0.195099 0.695099 0.000000
0.196513 0.696513 0.000000
0.197926 0.697926 0.000000
0.199340 0.699340 0.000000
0.200754 0.700754 0.000000
0.202168 0.702168 0.000000
0.203582 0.703582 0.000000
0.204995 0.704995 0.000000
0.206409 0.706409 0.000000
0.207823 0.707823 0.000000
0.209237 0.709237 0.000000
0.210650 0.710650 0.000000
0.212064 0.712064 0.000000
0.213478 0.713478 0.000000
0.214892 0.714892 0.000000
0.216305 0.716305 0.000000
0.217719 0.717719 0.000000
0.219133 0.719133 0.000000
0.220547 0.720547 0.000000
0.221960 0.721960 0.000000
0.223374 0.723374 0.000000
0.224788 0.724788 0.000000
0.226202 0.726202 0.000000
0.227615 0.727615 0.000000
0.229029 0.729029 0.000000
0.230443 0.730443 0.000000
0.231857 0.731857 0.000000
0.233270 0.733270 0.000000
0.234684 0.734684 0.000000
0.236098 0.736098 0.000000
0.237512 0.737512 0.000000
0.238926 0.738926 0.000000
0.240339 0.740339 0.000000
0.241753 0.741753 0.000000
0.243167 0.743167 0.000000
0.244581 0.744581 0.000000
0.245994 0.745994 0.000000
0.247408 0.747408 0.000000
0.248822 0.748822 0.000000
0.250236 0.750236 0.000000
0.251649 0.751649 0.000000
0.253063 0.753063 0.000000
0.254477 0.754477 0.000000
0.255891 0.755891 0.000000
0.257304 0.757304 0.000000
0.258718 0.758718 0.000000
0.260132 0.760132 0.000000
0.261546 0.761546 0.000000
0.262959 0.762959 0.000000
0.264373 0.764373 0.000000
0.265787 0.765787 0.000000
0.267201 0.767201 0.000000
0.268615 0.768615 0.000000
0.270028 0.770028 0.000000
0.271442 0.771442 0.000000
0.272856 0.772856 0.000000
0.274270 0.774270 0.000000
0.275683 0.775683 0.000000
0.277097 0.777097 0.000000
0.278511 0.778511 0.000000
0.279925 0.779925 0.000000
0.281338 0.781338 0.000000
0.282752 0.782752 0.000000
0.284166 0.784166 0.000000
0.285580 0.785580 0.000000
0.286993 0.786993 0.000000
0.288407 0.788407 0.000000
0.289821 0.789821 0.000000
0.291235 0.791235 0.000000
0.292648 0.792648 0.000000
0.294062 0.794062 0.000000
0.295476 0.795476 0.000000
0.296890 0.796890 0.000000
0.298303 0.798303 0.000000
0.299717 0.799717 0.000000
0.301131 0.801131 0.000000
0.302545 0.802545 0.000000
0.303959 0.803959 0.000000
0.305372 0.805372 0.000000
0.306786 0.806786 0.000000
0.308200 0.808200 0.000000
0.309614 0.809614 0.000000
0.311027 0.811027 0.000000
0.312441 0.812441 0.000000
0.313855 0.813855 0.000000
0.315269 0.815269 0.000000
0.316682 0.816682 0.000000
0.318096 0.818096 0.000000
0.319510 0.819510 0.000000
0.320924 0.820924 0.000000
0.322337 0.822337 0.000000
0.323751 0.823751 0.000000
0.325165 0.825165 0.000000
0.326579 0.826579 0.000000
0.327992 0.827992 0.000000
0.329406 0.829406 0.000000
0.330820 0.830820 0.000000
0.332234 0.832234 0.000000
0.333648 0.833648 0.000000
0.335061 0.835061 0.000000
0.336475 0.836475 0.000000
0.337889 0.837889 0.000000
0.339303 0.839303 0.000000
0.340716 0.840716 0.000000
[...]
POINT_DATA 20431
SCALARS UX float 1
LOOKUP_TABLE default
-0.000000
0.000000
0.017554
-0.018310
-0.014319
0.008840
0.017674
-0.000000
-0.000000
0.000000
-0.000000
0.011972
0.015675
0.017117
0.017642
0.017831
0.017885
0.017879
0.017857
0.017832
0.017807
0.017786
0.017767
0.017752
0.017739
0.017728
0.017719
0.017712
0.017705
0.017700
0.017696
0.017692
0.017689
0.017686
0.017684
0.017682
0.017681
0.017679
0.017678
0.017677
0.017676
0.017676
0.017675
0.017675
0.017674
0.017673
0.017672
0.017671
0.017670
0.017668
0.017666
0.017663
0.017659
0.017655
0.017649
0.017642
0.017633
0.017623
0.017610
0.017597
0.017583
0.017569
0.017559
0.010375
0.003199
-0.003973
-0.011142
-0.018310
-0.018310
-0.018313
-0.018322
-0.018338
-0.018358
-0.018380
-0.018397
-0.018401
-0.018387
-0.018355
-0.018300
-0.018217
-0.018110
-0.017981
-0.017832
-0.017667
-0.017488
-0.017301
-0.017109
-0.016915
-0.016721
-0.016533
-0.016347
-0.016170
-0.016001
-0.015840
-0.015689
-0.015549
-0.015418
-0.015296
-0.015184
-0.015081
-0.014987
-0.014901
-0.014822
-0.014751
-0.014686
-0.014627
-0.014573
-0.014525
-0.014481
-0.014442
-0.014406
-0.014374
-0.014345
-0.014292
-0.014254
-0.014201
-0.014128
-0.014025
-0.013881
-0.013671
-0.013370
-0.012926
-0.012233
-0.011161
-0.009467
-0.006472
-0.014314
-0.014309
-0.014304
-0.014298
-0.014293
-0.014287
-0.014281
-0.014276
-0.014270
-0.014264
-0.014258
-0.014251
-0.014245
-0.014239
-0.014232
-0.014226
-0.014219
-0.014212
-0.014205
-0.014198
-0.014191
-0.014184
-0.014177
-0.014170
-0.014162
-0.014155
-0.014147
-0.014140
-0.014132
-0.014124
-0.014116
-0.014108
-0.014100
-0.014092
-0.014084
-0.014076
-0.014068
-0.014059
-0.014051
-0.014042
-0.014034
-0.014025
-0.014016
-0.014008
-0.013999
-0.013990
-0.013981
-0.013972
-0.013963
-0.013953
-0.013944
-0.013935
-0.013925
-0.013916
-0.013906
-0.013897
-0.013887
-0.013878
-0.013868
-0.013858
-0.013848
-0.013838
-0.013828
-0.013818
-0.013808
-0.013798
-0.013788
-0.013778
-0.013768
-0.013757
-0.013747
-0.013736
-0.013726
-0.013715
-0.013705
-0.013694
-0.013683
-0.013672
-0.013662
-0.013651
-0.013640
-0.013629
-0.013618
-0.013607
-0.013595
-0.013584
-0.013573
-0.013562
-0.013550
-0.013539
-0.013527
-0.013516
-0.013504
-0.013493
-0.013481
-0.013469
-0.013457
-0.013445
-0.013434
-0.013422
-0.013410
-0.013398
-0.013385
-0.013373
-0.013361
-0.013349
-0.013336
-0.013324
-0.013312
-0.013299
-0.013287
-0.013274
-0.013261
-0.013249
-0.013236
-0.013223
-0.013210
-0.013197
-0.013185
-0.013171
-0.013158
-0.013145
-0.013132
-0.013119
-0.013106
-0.013092
-0.013079
-0.013066
-0.013052
-0.013039
-0.013025
-0.013012
-0.012998
-0.012984
-0.012970
-0.012957
-0.012943
-0.012929
-0.012915
-0.012901
-0.012887
-0.012873
-0.012859
-0.012844
-0.012830
-0.012816
-0.012802
-0.012787
-0.012773
-0.012758
-0.012744
-0.012729
-0.012714
-0.012700
-0.012685
-0.012670
-0.012655
-0.012641
-0.012626
-0.012611
-0.012596
-0.012581
-0.012565
-0.012550
-0.012535
-0.012520
-0.012505
-0.012489
-0.012474
-0.012458
-0.012443
-0.012427
-0.012412
-0.012396
-0.012381
-0.012365
-0.012349
-0.012333
-0.012318
-0.012302
-0.012286
-0.012270
-0.012254
-0.012238
-0.012222
-0.012206
-0.012190
-0.012173
-0.012157
-0.012141
-0.012124
-0.012108
-0.012092
-0.012075
-0.012059
-0.012042
-0.012026
-0.012009
-0.011992
-0.011976
-0.011959
-0.011942
-0.011925
-0.011909
-0.011892
-0.011875
-0.011858
-0.011841
-0.011824
-0.011807
-0.011790
-0.011772
-0.011755
-0.011738
-0.011721
-0.011703
-0.011686
-0.011669
-0.011651
-0.011634
-0.011616
-0.011599
-0.011581
-0.011564
-0.011546
-0.011528
-0.011510
-0.011493
-0.011475
-0.011457
-0.011439
-0.011421
-0.011403
-0.011385
-0.011367
-0.011349
-0.011331
-0.011313
-0.011295
-0.011277
-0.011259
-0.011240
-0.011222
-0.011204
-0.011185
-0.011167
-0.011148
-0.011130
-0.011111
-0.011093
-0.011074
-0.011056
-0.011037
-0.011018
-0.011000
-0.010981
-0.010962
-0.010943
-0.010924
-0.010906
-0.010887
-0.010868
-0.010849
-0.010830
-0.010811
-0.010792
-0.010772
-0.010753
-0.010734
-0.010715
-0.010696
-0.010676
-0.010657
-0.010638
-0.010618
-0.010599
-0.010579
-0.010560
-0.010540
-0.010521
-0.010501
-0.010482
-0.010462
-0.010442
-0.010423
-0.010403
-0.010383
-0.010363
-0.010344
-0.010324
-0.010304
-0.010284
-0.010264
-0.010244
-0.010224
-0.010204
-0.010184
-0.010164
-0.010144
-0.010123
-0.010103
-0.010083
-0.010063
-0.010042
-0.010022
-0.010002
-0.009981
-0.009961
-0.009941
-0.009920
-0.009900
-0.009879
-0.009859
-0.009838
-0.009817
-0.009797
-0.009776
-0.009755
-0.009735
-0.009714
-0.009693
-0.009672
-0.009652
-0.009631
-0.009610
-0.009589
-0.009568
-0.009547
-0.009526
-0.009505
-0.009484
-0.009463
-0.009442
-0.009421
-0.009400
-0.009378
-0.009357
-0.009336
-0.009315
-0.009293
-0.009272
-0.009251
-0.009229
-0.009208
-0.009187
-0.009165
-0.009144
-0.009122
-0.009101
-0.009079
-0.009057
-0.009036
-0.009014
-0.008993
-0.008971
-0.008949
-0.008928
-0.008906
-0.008884
-0.008862
-0.008840
-0.008819
-0.008797
-0.008775
-0.008753
-0.008731
-0.008709
-0.008687
-0.008665
-0.008643
-0.008621
-0.008599
-0.008576
-0.008554
-0.008532
-0.008510
-0.008488
-0.008465
-0.008443
-0.008421
-0.008399
-0.008376
-0.008354
-0.008332
-0.008309
-0.008287
-0.008264
-0.008242
-0.008219
-0.008197
-0.008174
-0.008152
-0.008129
-0.008106
-0.008084
-0.008061
-0.008038
-0.008016
-0.007993
-0.007970
-0.007947
-0.007925
-0.007902
-0.007879
-0.007856
-0.007833
-0.007810
-0.007787
-0.007764
-0.007741
-0.007718
-0.007695
-0.007672
-0.007649
-0.007626
-0.007603
-0.007580
-0.007557
-0.007534
-0.007510
-0.007487
-0.007464
-0.007441
-0.007417
-0.007394
-0.007371
-0.007347
-0.007324
-0.007301
-0.007277
-0.007254
-0.007230
-0.007207
-0.007183
-0.007160
-0.007136
-0.007113
-0.007089
-0.007066
-0.007042
-0.007018
-0.006995
-0.006971
-0.006948
-0.006924
-0.006900
-0.006876
-0.006853
-0.006829
-0.006805
-0.006781
-0.006757
-0.006734
-0.006710
-0.006686
-0.006662
-0.006638
-0.006614
-0.006590
-0.006566
-0.006542
-0.006518
-0.006494
-0.006470
-0.006446
-0.006422
-0.006398
-0.006374
-0.006349
-0.006325
-0.006301
-0.006277
-0.006253
-0.006228
-0.006204
-0.006180
-0.006156
-0.006131
-0.006107
-0.006083
-0.006058
-0.006034
-0.006010
-0.005985
-0.005961
-0.005936
-0.005912
-0.005888
-0.005863
-0.005839
-0.005814
-0.005790
-0.005765
-0.005741
-0.005716
-0.005691
-0.005667
-0.005642
-0.005618
-0.005593
-0.005568
-0.005544
-0.005519
-0.005494
-0.005469
-0.005445
-0.005420
-0.005395
-0.005370
-0.005346
-0.005321
-0.005296
-0.005271
-0.005246
-0.005222
-0.005197
-0.005172
-0.005147
-0.005122
-0.005097
-0.005072
-0.005047
-0.005022
-0.004997
-0.004972
-0.004947
-0.004922
-0.004897
-0.004872
-0.004847
-0.004822
-0.004797
-0.004772
-0.004747
-0.004722
-0.004696
-0.004671
-0.004646
-0.004621
-0.004596
-0.004571
-0.004545
-0.004520
-0.004495
-0.004470
-0.004444
-0.004419
-0.004394
-0.004369
-0.004343
-0.004318
-0.004293
-0.004267
-0.004242
-0.004217
-0.004191
-0.004166
-0.004140
-0.004115
-0.004090
-0.004064
-0.004039
-0.004013
-0.003988
-0.003963
-0.003937
-0.003912
-0.003886
-0.003861
-0.003835
-0.003810
-0.003784
-0.003758
-0.003733
-0.003707
-0.003682
-0.003656
-0.003631
-0.003605
-0.003580
-0.003554
-0.003528
-0.003503
-0.003477
-0.003451
-0.003426
-0.003400
-0.003374
-0.003349
-0.003323
-0.003297
-0.003272
-0.003246
-0.003220
-0.003195
-0.003169
-0.003143
-0.003117
-0.003092
-0.003066
-0.003040
-0.003014
-0.002988
-0.002963
-0.002937
-0.002911
-0.002885
-0.002859
-0.002834
-0.002808
-0.002782
-0.002756
-0.002730
-0.002704
-0.002679
-0.002653
-0.002627
-0.002601
-0.002575
-0.002549
-0.002523
-0.002497
-0.002471
-0.002446
-0.002420
-0.002394
-0.002368
-0.002342
-0.002316
-0.002290
-0.002264
-0.002238
-0.002212
-0.002186
-0.002160
-0.002134
-0.002108
-0.002082
-0.002056
-0.002030
-0.002004
-0.001978
-0.001952
-0.001926
-0.001900
-0.001874
-0.001848
-0.001822
-0.001796
-0.001770
-0.001744
-0.001718
-0.001692
-0.001666
-0.001640
-0.001614
-0.001588
-0.001561
-0.001535
-0.001509
-0.001483
-0.001457
-0.001431
-0.001405
-0.001379
-0.001353
-0.001327
-0.001301
-0.001274
-0.001248
-0.001222
-0.001196
-0.001170
-0.001144
-0.001118
-0.001092
-0.001065
-0.001039
-0.001013
-0.000987
-0.000961
-0.000935
-0.000909
-0.000882
-0.000856
-0.000830
-0.000804
-0.000778
-0.000752
-0.000726
-0.000699
-0.000673
-0.000647
-0.000621
-0.000595
-0.000569
-0.000542
-0.000516
-0.000490
-0.000464
-0.000438
-0.000412
-0.000385
-0.000359
-0.000333
-0.000307
-0.000281
-0.000254
-0.000228
-0.000202
-0.000176
-0.000150
-0.000124
-0.000097
-0.000071
-0.000045
-0.000019
0.000007
0.000034
0.000060
0.000086
0.000112
0.000138
0.000165
0.000191
0.000217
0.000243
0.000269
0.000295
0.000322
0.000348
0.000374
0.000400
0.000426
0.000453
0.000479
0.000505
0.000531
0.000557
0.000584
0.000610
0.000636
0.000662
0.000688
0.000714
0.000741
0.000767
0.000793
0.000819
0.000845
0.000872
0.000898
0.000924
0.000950
0.000976
0.001002
0.001029
0.001055
0.001081
0.001107
0.001133
0.001159
0.001186
0.001212
0.001238
0.001264
0.001290
0.001316
0.001342
0.001369
0.001395
0.001421
0.001447
0.001473
0.001499
0.001525
0.001552
0.001578
0.001604
0.001630
0.001656
0.001682
0.001708
0.001735
0.001761
0.001787
0.001813
0.001839
0.001865
0.001891
0.001917
0.001943
0.001970
0.001996
0.002022
0.002048
0.002074
0.002100
0.002126
0.002152
0.002178
0.002204
0.002230
0.002257
0.002283
0.002309
0.002335
0.002361
0.002387
0.002413
0.002439
0.002465
0.002491
0.002517
0.002543
0.002569
0.002595
0.002621
0.002647
0.002673
0.002699
0.002725
0.002751
0.002777
0.002803
0.002829
0.002855
0.002881
0.002907
0.002934
0.002959
0.002985
0.003011
0.003037
0.003063
0.003089
0.003115
0.003141
0.003167
0.003193
0.003219
0.003245
0.003271
0.003297
0.003323
0.003349
0.003375
0.003401
0.003427
0.003453
0.003479
0.003505
0.003531
0.003557
0.003582
0.003608
0.003634
0.003660
0.003686
0.003712
0.003738
0.003764
0.003790
0.003816
0.003841
0.003867
0.003893
0.003919
0.003945
0.003971
0.003997
0.004022
0.004048
0.004074
0.004100
0.004126
0.004152
0.004178
0.004203
0.004229
0.004255
0.004281
0.004307
0.004332
0.004358
0.004384
0.004410
0.004436
0.004461
0.004487
0.004513
0.004539
0.004565
0.004590
0.004616
0.004642
0.004668
0.004693
0.004719
0.004745
0.004771
0.004796
0.004822
0.004848
0.004874
0.004899
0.004925
0.004951
0.004976
0.005002
0.005028
0.005053
0.005079
0.005105
0.005131
0.005156
0.005182
0.005208
0.005233
0.005259
0.005285
0.005310
0.005336
0.005362
0.005387
0.005413
0.005438
0.005464
0.005490
0.005515
0.005541
0.005567
0.005592
0.005618
0.005643
0.005669
0.005695
0.005720
0.005746
0.005771
0.005797
0.005823
0.005848
0.005874
0.005899
0.005925
0.005950
0.005976
0.006002
0.006027
0.006053
0.006078
0.006104
0.006129
0.006155
0.006180
0.006206
0.006231
0.006257
0.006282
0.006308
0.006333
0.006359
0.006384
0.006410
0.006435
0.006461
0.006486
0.006512
0.006537
0.006563
0.006588
0.006614
0.006639
0.006665
0.006690
0.006715
0.006741
0.006766
0.006792
0.006817
0.006843
0.006868
0.006893
0.006919
0.006944
0.006970
0.006995
0.007020
0.007046
0.007071
0.007097
0.007122
0.007147
0.007173
0.007198
0.007223
0.007249
0.007274
0.007300
0.007325
0.007350
0.007376
0.007401
0.007426
0.007452
0.007477
0.007502
0.007528
0.007553
0.007578
0.007604
0.007629
0.007654
0.007680
0.007705
0.007730
0.007755
0.007781
0.007806
0.007831
0.007857
0.007882
0.007907
0.007932
0.007958
0.007983
0.008008
0.008033
0.008059
0.008084
0.008109
0.008134
0.008160
0.008185
0.008210
0.008235
0.008261
0.008286
0.008311
0.008336
0.008362
0.008387
0.008412
0.008437
0.008462
0.008488
0.008513
0.008538
0.008563
0.008588
0.008614
0.008639
0.008664
0.008689
0.008714
0.008740
0.008765
0.008790
0.008815
0.008865
0.008890
0.008916
0.008941
0.008966
0.008991
0.009016
0.009041
0.009066
0.009091
0.009117
0.009142
0.009167
0.009192
0.009217
0.009242
0.009267
0.009292
0.009317
0.009342
0.009368
0.009393
0.009418
0.009443
0.009468
0.009493
0.009518
0.009543
0.009568
0.009593
0.009618
0.009643
0.009668
0.009693
0.009718
0.009744
0.009769
0.009794
0.009819
0.009844
0.009869
0.009894
0.009919
0.009944
0.009969
0.009994
0.010019
0.010044
0.010069
0.010094
0.010119
0.010144
0.010169
0.010194
0.010219
0.010244
0.010269
0.010294
0.010319
0.010344
0.010369
0.010394
0.010419
0.010444
0.010469
0.010494
0.010519
0.010544
0.010569
0.010594
0.010619
0.010644
0.010669
0.010694
0.010719
0.010744
0.010769
0.010794
0.010819
0.010844
0.010869
0.010894
0.010919
0.010944
0.010969
0.010994
0.011018
0.011043
0.011068
0.011093
0.011118
0.011143
0.011168
0.011193
0.011218
0.011243
0.011268
0.011293
0.011318
0.011343
0.011368
0.011393
0.011418
0.011443
0.011467
0.011492
0.011517
0.011542
0.011567
0.011592
0.011617
0.011642
0.011667
0.011692
0.011717
0.011742
0.011767
0.011792
0.011816
0.011841
0.011866
0.011891
0.011916
0.011941
0.011966
0.011991
0.012016
0.012041
0.012066
0.012090
0.012115
0.012140
0.012165
0.012190
0.012215
0.012240
0.012265
0.012290
0.012315
0.012340
0.012364
0.012389
0.012414
0.012439
0.012464
0.012489
0.012514
0.012539
0.012564
0.012589
0.012613
0.012638
0.012663
0.012688
0.012713
0.012738
0.012763
0.012788
0.012813
0.012837
0.012862
0.012887
0.012912
0.012937
0.012962
0.012987
0.013012
0.013037
0.013062
0.013086
0.013111
0.013136
0.013161
0.013186
0.013211
0.013236
0.013261
0.013286
0.013310
0.013335
0.013360
0.013385
0.013410
0.013435
0.013460
0.013485
0.013510
0.013534
0.013559
0.013584
0.013609
0.013634
0.013659
0.013684
0.013709
0.013734
0.013758
0.013783
0.013808
0.013833
0.013858
0.013883
0.013908
0.013933
0.013958
0.013982
0.014007
0.014032
0.014057
0.014082
0.014107
0.014132
0.014157
0.014182
0.014206
0.014231
0.014256
0.014281
0.014306
0.014331
0.014356
0.014381
0.014406
0.014431
0.014455
0.014480
0.014505
0.014530
0.014555
0.014580
0.014605
0.014630
0.014655
0.014680
0.014704
0.014729
0.014754
0.014779
0.014804
0.014829
0.014854
0.014879
0.014904
0.014929
0.014954
0.014978
0.015003
0.015028
0.015053
0.015078
0.015103
0.015128
0.015153
0.015178
0.015203
0.015228
0.015253
0.015277
0.015302
0.015327
0.015352
0.015377
0.015402
0.015427
0.015452
0.015477
0.015502
0.015527
0.015552
0.015577
0.015601
0.015626
0.015651
0.015676
0.015701
0.015726
0.015751
0.015776
0.015801
0.015826
0.015851
0.015876
0.015901
0.015926
0.015951
0.015976
0.016000
0.016025
0.016050
0.016075
0.016100
0.016125
0.016150
0.016175
0.016200
0.016225
0.016250
0.016275
0.016300
0.016325
0.016350
0.016375
0.016400
0.016425
0.016450
0.016475
0.016500
0.016525
0.016549
0.016574
0.016599
0.016624
0.016649
0.016674
0.016699
0.016724
0.016749
0.016774
0.016799
0.016824
0.016849
0.016874
0.016899
0.016924
0.016949
0.016974
0.016999
0.017024
0.017049
0.017074
0.017099
0.017124
0.017149
0.017174
0.017199
0.017224
0.017249
0.017274
0.017299
0.017324
0.017349
0.017374
0.017399
0.017424
0.017449
0.017474
0.017499
0.017524
0.017549
0.017574
0.017599
0.017624
0.017649
0.012577
0.012590
0.012551
0.011247
0.011265
0.011283
-0.009091
-0.009078
-0.009116
-0.009132
-0.004786
0.014290
0.014335
0.014345
0.014372
0.012071
0.012031
0.012044
-0.004881
-0.004855
-0.004886
-0.004841
-0.013203
-0.013222
-0.013175
-0.013181
-0.005045
-0.005025
-0.005007
0.004933
0.004893
0.004915
0.004929
-0.008265
-0.008481
-0.009990
-0.010293
0.003486
0.003447
0.003462
0.003459
-0.003847
-0.003929
-0.003859
-0.003862
0.009159
0.009083
0.009006
0.009256
-0.013263
-0.013247
-0.013202
0.004287
0.004283
0.004329
0.004350
0.000214
-0.000814
-0.000568
-0.001420
0.002112
0.002168
0.002190
-0.007054
-0.006722
-0.007068
-0.001164
-0.001139
-0.001202
-0.001174
0.011124
0.011257
0.011244
0.011381
-0.000291
-0.000200
-0.000238
-0.000109
0.003740
0.003780
0.003709
0.003798
0.003485
0.003513
0.003464
0.003537
-0.001896
-0.001903
-0.001937
-0.001957
0.012483
0.012466
0.012419
-0.005246
-0.005319
-0.005268
0.002115
0.012402
0.012356
0.012355
0.012424
0.005714
0.005759
0.005739
-0.000087
-0.000078
-0.000115
0.005756
0.003447
0.003321
0.003275
-0.000047
0.006601
0.006573
0.006513
0.010374
0.010418
0.010367
0.010438
0.006396
0.006421
0.006376
0.006437
0.006497
-0.011399
-0.011450
-0.011424
0.014702
0.014660
0.014730
-0.011473
-0.007964
-0.007998
-0.008030
-0.007933
-0.006417
-0.006387
-0.006493
-0.006420
-0.003590
-0.003667
-0.003612
0.001883
0.001926
0.001871
0.001910
-0.003679
0.005741
0.005774
0.005715
-0.006093
-0.006153
-0.006096
-0.006661
-0.006742
-0.006805
0.005773
0.011432
0.011444
0.011389
-0.010172
-0.010155
-0.010134
0.012246
0.012294
0.012297
0.012255
0.007208
0.007141
0.007168
0.007070
0.000224
-0.000126
0.000233
0.000144
0.005417
0.005561
0.005181
0.005780
-0.009612
-0.009584
-0.009668
-0.009528
0.016637
0.016604
-0.013856
-0.013740
-0.013673
-0.013544
-0.008983
-0.008748
-0.008210
-0.009667
0.017190
0.017203
0.017262
-0.010362
-0.009538
-0.010416
-0.010475
-0.010257
0.011866
0.011857
0.011796
0.004648
0.004624
0.004680
0.004662
0.000338
0.000234
0.000309
-0.013412
-0.013406
-0.013481
-0.013419
0.017213
0.017114
0.017243
0.017083
0.014730
0.014774
0.014821
0.011780
0.007095
0.007045
0.006994
0.006955
-0.001579
-0.001550
-0.001516
-0.001601
-0.002844
-0.003009
-0.003463
0.015038
0.015025
0.014896
0.014948
-0.003809
-0.003713
-0.004174
-0.003978
0.006969
0.006974
0.006929
0.004047
0.004186
0.005351
0.002944
-0.011866
-0.011928
-0.011735
-0.012142
0.015875
0.015912
0.003611
0.003606
0.003632
0.007014
0.000451
0.000634
0.000759
0.000860
-0.006469
-0.006534
-0.006506
-0.006501
-0.006273
-0.007236
-0.006928
-0.006305
-0.001452
-0.001377
-0.001506
-0.001489
-0.007787
-0.007544
-0.007362
-0.007170
0.015644
0.015731
0.015787
0.015640
-0.007157
-0.007146
-0.007124
-0.014828
-0.015458
-0.014850
-0.014913
-0.012600
-0.012635
-0.012642
-0.002324
-0.002333
-0.004873
-0.004880
-0.005187
-0.004595
0.006529
0.006138
0.006192
0.005759
0.000914
0.002509
0.002299
0.002043
0.008551
0.008584
0.008341
0.008341
0.013947
0.013623
0.013731
0.013923
-0.005984
-0.005961
-0.006156
-0.006192
-0.005073
-0.005052
-0.005022
-0.005119
0.009544
0.009694
0.009580
0.009674
0.009405
0.009389
0.009571
-0.001183
-0.001138
-0.001127
-0.001181
0.016488
0.016304
0.016473
0.012412
-0.003137
-0.003483
-0.003308
-0.003287
0.013739
0.013752
0.013671
0.013701
0.002653
0.002702
0.002665
0.002722
0.006531
0.006607
-0.001786
-0.001655
-0.001543
-0.001449
-0.000470
-0.000465
-0.000033
-0.000914
-0.000181
-0.000154
-0.000134
0.015326
0.015274
0.015269
-0.009185
-0.009213
-0.009079
-0.009069
-0.000122
-0.007821
-0.007316
-0.007695
0.013981
0.014046
0.014152
0.014215
0.013074
0.013046
0.013041
0.012997
0.006199
0.006062
0.006027
0.006329
0.005348
0.005302
0.005281
0.005355
0.005321
0.005378
0.006842
0.006640
0.006772
-0.000942
-0.000981
-0.000934
0.003888
0.003367
0.004603
-0.000953
0.008898
0.009001
0.008685
0.007562
0.007619
0.007616
0.007579
0.011318
0.011327
0.011259
-0.007871
-0.006992
0.011376
0.010742
0.010725
0.010696
0.010682
-0.006195
-0.006170
-0.006206
0.013800
0.003716
0.003735
0.003620
0.003601
-0.011268
-0.010908
-0.011040
-0.010742
0.004525
0.004519
0.004479
0.004565
-0.007462
-0.007327
-0.007667
-0.007271
-0.009056
-0.009246
-0.008512
-0.009736
0.009651
0.009630
0.009695
-0.007821
-0.007754
-0.007928
0.004975
0.004963
0.004785
0.004668
0.012067
0.010001
0.009951
0.009999
0.007501
0.007751
0.007541
0.007713
-0.001886
-0.002091
-0.002136
0.009950
0.010557
0.010638
0.010558
0.005313
0.005432
0.005490
0.005610
0.006577
0.006146
-0.003740
-0.003876
-0.003689
-0.003997
-0.010375
-0.010869
-0.010869
-0.010099
-0.007850
-0.007969
0.003251
0.003227
0.003415
0.010602
-0.002294
-0.001876
-0.001714
-0.002403
0.005231
0.005746
0.007847
0.007876
0.007856
-0.007781
-0.007669
-0.007634
0.007904
-0.006262
-0.006252
-0.006222
0.011090
0.011039
0.011069
0.011018
-0.004142
-0.004123
-0.004106
-0.007323
-0.008470
0.001980
0.001969
0.001944
0.011790
0.011780
0.011751
0.011736
0.007883
0.007913
0.007934
0.002864
0.002706
0.002663
0.002435
0.007631
0.007592
0.007608
0.007567
0.006658
0.006677
0.006639
0.010527
0.010562
0.010582
0.007626
0.007576
0.007865
0.010598
-0.009504
-0.009505
-0.009464
0.007377
0.005671
0.005553
0.005726
0.007873
-0.010112
-0.010095
-0.010122
0.003970
0.003112
0.003460
-0.009544
0.009899
0.009901
0.009956
0.014190
0.014210
0.014164
0.014190