# vtk DataFile Version 2.0
Test
ASCII
DATASET POLYDATA
POINTS 20431 float
0.000000 0.000000 0.000000
2.000000 0.000000 0.000000
2.000000 4.000000 0.000000
0.000000 4.000000 0.000000
0.000000 0.500000 0.000000
1.500000 2.000000 0.000000
2.000000 2.500000 0.000000
0.400000 0.000000 0.000000
0.800000 0.000000 0.000000
1.200000 0.000000 0.000000
1.600000 0.000000 0.000000
2.000000 0.362557 0.000000
2.000000 0.672798 0.000000
2.000000 0.938272 0.000000
2.000000 1.165439 0.000000
2.000000 1.359826 0.000000
2.000000 1.526163 0.000000
2.000000 1.668499 0.000000
2.000000 1.790295 0.000000
2.000000 1.894517 0.000000
2.000000 1.983700 0.000000
2.000000 2.060013 0.000000
2.000000 2.125315 0.000000
2.000000 2.181194 0.000000
2.000000 2.229010 0.000000
2.000000 2.269926 0.000000
2.000000 2.304938 0.000000
2.000000 2.334898 0.000000
2.000000 2.360534 0.000000
2.000000 2.382472 0.000000
2.000000 2.401244 0.000000
2.000000 2.417307 0.000000
2.000000 2.431052 0.000000
2.000000 2.442814 0.000000
2.000000 2.452878 0.000000
2.000000 2.461491 0.000000
2.000000 2.468860 0.000000
2.000000 2.475167 0.000000
2.000000 2.480563 0.000000
2.000000 2.485180 0.000000
2.000000 2.489132 0.000000
2.000000 2.492513 0.000000
2.000000 2.495406 0.000000
2.000000 2.497882 0.000000
2.000000 2.502286 0.000000
2.000000 2.505266 0.000000
2.000000 2.509150 0.000000
2.000000 2.514212 0.000000
2.000000 2.520809 0.000000
2.000000 2.529407 0.000000
2.000000 2.540613 0.000000
2.000000 2.555218 0.000000
2.000000 2.574253 0.000000
2.000000 2.599061 0.000000
2.000000 2.631395 0.000000
2.000000 2.673536 0.000000
2.000000 2.728460 0.000000
2.000000 2.800043 0.000000
2.000000 2.893339 0.000000
2.000000 3.014933 0.000000
2.000000 3.173410 0.000000
2.000000 3.379956 0.000000
2.000000 3.649152 0.000000
1.600000 4.000000 0.000000
1.200000 4.000000 0.000000
0.800000 4.000000 0.000000
0.400000 4.000000 0.000000
0.000000 3.624996 0.000000
0.000000 3.289970 0.000000
0.000000 2.990661 0.000000
0.000000 2.723261 0.000000
0.000000 2.484368 0.000000
0.000000 2.270943 0.000000
0.000000 2.080271 0.000000
0.000000 1.909926 0.000000
0.000000 1.757741 0.000000
0.000000 1.621780 0.000000
0.000000 1.500314 0.000000
0.000000 1.391797 0.000000
0.000000 1.294849 0.000000
0.000000 1.208237 0.000000
0.000000 1.130858 0.000000
0.000000 1.061728 0.000000
0.000000 0.999968 0.000000
0.000000 0.944792 0.000000
0.000000 0.895499 0.000000
0.000000 0.851460 0.000000
0.000000 0.812117 0.000000
0.000000 0.776968 0.000000
0.000000 0.745565 0.000000
0.000000 0.717511 0.000000
0.000000 0.692448 0.000000
0.000000 0.670056 0.000000
0.000000 0.650052 0.000000
0.000000 0.632180 0.000000
0.000000 0.616213 0.000000
0.000000 0.601949 0.000000
0.000000 0.589205 0.000000
0.000000 0.577820 0.000000
0.000000 0.567649 0.000000
0.000000 0.558562 0.000000
0.000000 0.550444 0.000000
0.000000 0.543191 0.000000
0.000000 0.536712 0.000000
0.000000 0.530923 0.000000
0.000000 0.525751 0.000000
0.000000 0.521131 0.000000
0.000000 0.517003 0.000000
0.000000 0.513315 0.000000
0.000000 0.510021 0.000000
0.000000 0.507078 0.000000
0.000000 0.504448 0.000000
0.000000 0.502099 0.000000
0.000000 0.497804 0.000000
0.000000 0.494785 0.000000
0.000000 0.490633 0.000000
0.000000 0.484924 0.000000
0.000000 0.477074 0.000000
0.000000 0.466279 0.000000
0.000000 0.451436 0.000000
0.000000 0.431025 0.000000
0.000000 0.402959 0.000000
0.000000 0.364366 0.000000
0.000000 0.311297 0.000000
0.000000 0.238324 0.000000
0.000000 0.137980 0.000000
0.001414 0.501414 0.000000
0.002828 0.502828 0.000000
0.004241 0.504241 0.000000
0.005655 0.505655 0.000000
0.007069 0.507069 0.000000
0.008483 0.508483 0.000000
0.009896 0.509896 0.000000
0.011310 0.511310 0.000000
0.012724 0.512724 0.000000
0.014138 0.514138 0.000000
0.015551 0.515551 0.000000
0.016965 0.516965 0.000000
0.018379 0.518379 0.000000
0.019793 0.519793 0.000000
0.021206 0.521206 0.000000
0.022620 0.522620 0.000000
0.024034 0.524034 0.000000
0.025448 0.525448 0.000000
0.026861 0.526861 0.000000
0.028275 0.528275 0.000000
0.029689 0.529689 0.000000
0.031103 0.531103 0.000000
0.032516 0.532516 0.000000
0.033930 0.533930 0.000000
0.035344 0.535344 0.000000
0.036758 0.536758 0.000000
0.038172 0.538172 0.000000
0.039585 0.539585 0.000000
0.040999 0.540999 0.000000
0.042413 0.542413 0.000000
0.043827 0.543827 0.000000
0.045240 0.545240 0.000000
0.046654 0.546654 0.000000
0.048068 0.548068 0.000000
0.049482 0.549482 0.000000
0.050895 0.550895 0.000000
0.052309 0.552309 0.000000
0.053723 0.553723 0.000000
0.055137 0.555137 0.000000
0.056550 0.556550 0.000000
0.057964 0.557964 0.000000
0.059378 0.559378 0.000000
0.060792 0.560792 0.000000
0.062205 0.562205 0.000000
0.063619 0.563619 0.000000
0.065033 0.565033 0.000000
0.066447 0.566447 0.000000
0.067861 0.567861 0.000000
0.069274 0.569274 0.000000
0.070688 0.570688 0.000000
0.072102 0.572102 0.000000
0.073516 0.573516 0.000000
0.074929 0.574929 0.000000
0.076343 0.576343 0.000000
0.077757 0.577757 0.000000
0.079171 0.579171 0.000000
0.080584 0.580584 0.000000
0.081998 0.581998 0.000000
0.083412 0.583412 0.000000
0.084826 0.584826 0.000000
0.086239 0.586239 0.000000
0.087653 0.587653 0.000000
0.089067 0.589067 0.000000
0.090481 0.590481 0.000000
0.091894 0.591894 0.000000
0.093308 0.593308 0.000000
0.094722 0.594722 0.000000
0.096136 0.596136 0.000000
0.097549 0.597549 0.000000
0.098963 0.598963 0.000000
0.100377 0.600377 0.000000
0.101791 0.601791 0.000000
0.103205 0.603205 0.000000
0.104618 0.604618 0.000000
0.106032 0.606032 0.000000
0.107446 0.607446 0.000000
0.108860 0.608860 0.000000
0.110273 0.610273 0.000000
0.111687 0.611687 0.000000
0.113101 0.613101 0.000000
0.114515 0.614515 0.000000
0.115928 0.615928 0.000000
0.117342 0.617342 0.000000
0.118756 0.618756 0.000000
0.120170 0.620170 0.000000
0.121583 0.621583 0.000000
0.122997 0.622997 0.000000
0.124411 0.624411 0.000000
0.125825 0.625825 0.000000
0.127238 0.627238 0.000000
0.128652 0.628652 0.000000
0.130066 0.630066 0.000000
0.131480 0.631480 0.000000
0.132893 0.632893 0.000000
0.134307 0.634307 0.000000
0.135721 0.635721 0.000000
0.137135 0.637135 0.000000
0.138549 0.638549 0.000000
0.139962 0.639962 0.000000
0.141376 0.641376 0.000000
0.142790 0.642790 0.000000
0.144204 0.644204 0.000000
0.145617 0.645617 0.000000
0.147031 0.647031 0.000000
0.148445 0.648445 0.000000
0.149859 0.649859 0.000000
0.151272 0.651272 0.000000
0.152686 0.652686 0.000000
0.154100 0.654100 0.000000
0.155514 0.655514 0.000000
0.156927 0.656927 0.000000
0.158341 0.658341 0.000000
0.159755 0.659755 0.000000
0.161169 0.661169 0.000000
0.162582 0.662582 0.000000
0.163996 0.663996 0.000000
0.165410 0.665410 0.000000
0.166824 0.666824 0.000000
0.168238 0.668238 0.000000
0.169651 0.669651 0.000000
0.171065 0.671065 0.000000
0.172479 0.672479 0.000000
0.173893 0.673893 0.000000
0.175306 0.675306 0.000000
0.176720 0.676720 0.000000
0.178134 0.678134 0.000000
0.179548 0.679548 0.000000
0.180961 0.680961 0.000000
0.182375 0.682375 0.000000
0.183789 0.683789 0.000000
0.185203 0.685203 0.000000
0.186616 0.686616 0.000000
0.188030 0.688030 0.000000
0.189444 0.689444 0.000000
0.190858 0.690858 0.000000
0.192271 0.692271 0.000000
0.193685 0.693685 0.000000
0.195099 0.695099 0.000000
0.196513 0.696513 0.000000
0.197926 0.697926 0.000000
0.199340 0.699340 0.000000
0.200754 0.700754 0.000000
0.202168 0.702168 0.000000
0.203582 0.703582 0.000000
0.204995 0.704995 0.000000
0.206409 0.706409 0.000000
0.207823 0.707823 0.000000
0.209237 0.709237 0.000000
0.210650 0.710650 0.000000
0.212064 0.712064 0.000000
0.213478 0.713478 0.000000
0.214892 0.714892 0.000000
0.216305 0.716305 0.000000
0.217719 0.717719 0.000000
0.219133 0.719133 0.000000
0.220547 0.720547 0.000000
0.221960 0.721960 0.000000
0.223374 0.723374 0.000000
0.224788 0.724788 0.000000
0.226202 0.726202 0.000000
0.227615 0.727615 0.000000
0.229029 0.729029 0.000000
0.230443 0.730443 0.000000
0.231857 0.731857 0.000000
0.233270 0.733270 0.000000
0.234684 0.734684 0.000000
0.236098 0.736098 0.000000
0.237512 0.737512 0.000000
0.238926 0.738926 0.000000
0.240339 0.740339 0.000000
0.241753 0.741753 0.000000
0.243167 0.743167 0.000000
0.244581 0.744581 0.000000
0.245994 0.745994 0.000000
0.247408 0.747408 0.000000
0.248822 0.748822 0.000000
0.250236 0.750236 0.000000
0.251649 0.751649 0.000000
0.253063 0.753063 0.000000
0.254477 0.754477 0.000000
0.255891 0.755891 0.000000
0.257304 0.757304 0.000000
0.258718 0.758718 0.000000
0.260132 0.760132 0.000000
0.261546 0.761546 0.000000
0.262959 0.762959 0.000000
0.264373 0.764373 0.000000
0.265787 0.765787 0.000000
0.267201 0.767201 0.000000
0.268615 0.768615 0.000000
0.270028 0.770028 0.000000
0.271442 0.771442 0.000000
0.272856 0.772856 0.000000
0.274270 0.774270 0.000000
0.275683 0.775683 0.000000
0.277097 0.777097 0.000000
0.278511 0.778511 0.000000
0.279925 0.779925 0.000000
0.281338 0.781338 0.000000
0.282752 0.782752 0.000000
0.284166 0.784166 0.000000
0.285580 0.785580 0.000000
0.286993 0.786993 0.000000
0.288407 0.788407 0.000000
0.289821 0.789821 0.000000
0.291235 0.791235 0.000000
0.292648 0.792648 0.000000
0.294062 0.794062 0.000000
0.295476 0.795476 0.000000
0.296890 0.796890 0.000000
0.298303 0.798303 0.000000
0.299717 0.799717 0.000000
0.301131 0.801131 0.000000
0.302545 0.802545 0.000000
0.303959 0.803959 0.000000
0.305372 0.805372 0.000000
0.306786 0.806786 0.000000
0.308200 0.808200 0.000000
0.309614 0.809614 0.000000
0.311027 0.811027 0.000000
0.312441 0.812441 0.000000
0.313855 0.813855 0.000000
0.315269 0.815269 0.000000
0.316682 0.816682 0.000000
0.318096 0.818096 0.000000
0.319510 0.819510 0.000000
0.320924 0.820924 0.000000
0.322337 0.822337 0.000000
0.323751 0.823751 0.000000
0.325165 0.825165 0.000000
0.326579 0.826579 0.000000
0.327992 0.827992 0.000000
0.329406 0.829406 0.000000
0.330820 0.830820 0.000000
0.332234 0.832234 0.000000
0.333648 0.833648 0.000000
0.335061 0.835061 0.000000
0.336475 0.836475 0.000000
0.337889 0.837889 0.000000
0.339303 0.839303 0.000000
0.340716 0.840716 0.000000
[...]
POINT_DATA 20431
SCALARS UX float 1
LOOKUP_TABLE default
-0.000000
0.000000
0.098411
-0.102648
-0.080275
0.049559
0.099083
-0.000000
-0.000000
0.000000
-0.000000
0.067115
0.087876
0.095956
0.098904
0.099964
0.100265
0.100231
0.100110
0.099968
0.099828
0.099708
0.099604
0.099517
0.099445
0.099384
0.099334
0.099292
0.099257
0.099228
0.099204
0.099183
0.099166
0.099151
0.099139
0.099128
0.099120
0.099112
0.099106
0.099100
0.099095
0.099091
0.099088
0.099085
0.099080
0.099077
0.099072
0.099066
0.099059
0.099049
0.099037
0.099020
0.099000
0.098974
0.098941
0.098900
0.098850
0.098793
0.098723
0.098648
0.098572
0.098493
0.098436
0.058165
0.017935
-0.022272
-0.062463
-0.102646
-0.102646
-0.102665
-0.102716
-0.102805
-0.102917
-0.103039
-0.103135
-0.103157
-0.103080
-0.102901
-0.102591
-0.102128
-0.101528
-0.100802
-0.099968
-0.099042
-0.098040
-0.096993
-0.095915
-0.094827
-0.093741
-0.092684
-0.091641
-0.090647
-0.089701
-0.088799
-0.087956
-0.087166
-0.086432
-0.085753
-0.085124
-0.084547
-0.084019
-0.083535
-0.083095
-0.082693
-0.082328
-0.081998
-0.081698
-0.081427
-0.081182
-0.080961
-0.080761
-0.080582
-0.080420
-0.080122
-0.079909
-0.079614
-0.079204
-0.078627
-0.077819
-0.076641
-0.074954
-0.072462
-0.068576
-0.062570
-0.053073
-0.036281
-0.080246
-0.080217
-0.080187
-0.080157
-0.080126
-0.080095
-0.080063
-0.080030
-0.079997
-0.079963
-0.079929
-0.079894
-0.079859
-0.079823
-0.079786
-0.079750
-0.079712
-0.079674
-0.079636
-0.079597
-0.079557
-0.079517
-0.079477
-0.079436
-0.079395
-0.079353
-0.079311
-0.079268
-0.079225
-0.079181
-0.079137
-0.079092
-0.079048
-0.079002
-0.078957
-0.078910
-0.078864
-0.078817
-0.078770
-0.078722
-0.078674
-0.078625
-0.078576
-0.078527
-0.078478
-0.078428
-0.078377
-0.078327
-0.078275
-0.078224
-0.078172
-0.078120
-0.078067
-0.078014
-0.077961
-0.077907
-0.077853
-0.077799
-0.077744
-0.077689
-0.077634
-0.077579
-0.077523
-0.077467
-0.077410
-0.077354
-0.077297
-0.077239
-0.077182
-0.077124
-0.077066
-0.077007
-0.076948
-0.076889
-0.076829
-0.076770
-0.076709
-0.076649
-0.076588
-0.076527
-0.076465
-0.076404
-0.076341
-0.076279
-0.076216
-0.076153
-0.076090
-0.076027
-0.075963
-0.075899
-0.075835
-0.075770
-0.075705
-0.075640
-0.075574
-0.075508
-0.075442
-0.075376
-0.075309
-0.075242
-0.075175
-0.075107
-0.075039
-0.074971
-0.074903
-0.074834
-0.074765
-0.074696
-0.074626
-0.074556
-0.074486
-0.074415
-0.074344
-0.074273
-0.074202
-0.074130
-0.074058
-0.073986
-0.073913
-0.073840
-0.073767
-0.073693
-0.073620
-0.073546
-0.073471
-0.073397
-0.073322
-0.073247
-0.073171
-0.073096
-0.073020
-0.072943
-0.072867
-0.072790
-0.072713
-0.072636
-0.072558
-0.072480
-0.072402
-0.072323
-0.072245
-0.072165
-0.072086
-0.072007
-0.071927
-0.071847
-0.071766
-0.071685
-0.071605
-0.071523
-0.071442
-0.071360
-0.071278
-0.071196
-0.071113
-0.071030
-0.070947
-0.070864
-0.070780
-0.070696
-0.070612
-0.070527
-0.070443
-0.070358
-0.070272
-0.070187
-0.070101
-0.070015
-0.069929
-0.069843
-0.069756
-0.069669
-0.069582
-0.069494
-0.069406
-0.069318
-0.069230
-0.069142
-0.069053
-0.068964
-0.068875
-0.068786
-0.068696
-0.068606
-0.068516
-0.068426
-0.068335
-0.068244
-0.068153
-0.068062
-0.067971
-0.067879
-0.067787
-0.067695
-0.067602
-0.067510
-0.067417
-0.067324
-0.067231
-0.067137
-0.067043
-0.066949
-0.066855
-0.066761
-0.066666
-0.066571
-0.066476
-0.066381
-0.066285
-0.066189
-0.066093
-0.065997
-0.065901
-0.065804
-0.065707
-0.065610
-0.065513
-0.065415
-0.065318
-0.065220
-0.065122
-0.065023
-0.064925
-0.064826
-0.064727
-0.064628
-0.064528
-0.064429
-0.064329
-0.064229
-0.064129
-0.064029
-0.063928
-0.063827
-0.063726
-0.063625
-0.063523
-0.063422
-0.063320
-0.063218
-0.063116
-0.063013
-0.062911
-0.062808
-0.062705
-0.062602
-0.062499
-0.062395
-0.062291
-0.062187
-0.062083
-0.061979
-0.061874
-0.061769
-0.061665
-0.061559
-0.061454
-0.061349
-0.061243
-0.061137
-0.061031
-0.060925
-0.060818
-0.060712
-0.060605
-0.060498
-0.060391
-0.060283
-0.060176
-0.060068
-0.059960
-0.059852
-0.059744
-0.059635
-0.059526
-0.059418
-0.059309
-0.059199
-0.059090
-0.058981
-0.058871
-0.058761
-0.058651
-0.058540
-0.058430
-0.058319
-0.058209
-0.058098
-0.057986
-0.057875
-0.057764
-0.057652
-0.057540
-0.057428
-0.057316
-0.057203
-0.057091
-0.056978
-0.056865
-0.056752
-0.056639
-0.056526
-0.056412
-0.056298
-0.056185
-0.056070
-0.055956
-0.055842
-0.055727
-0.055613
-0.055498
-0.055383
-0.055268
-0.055152
-0.055037
-0.054921
-0.054805
-0.054689
-0.054573
-0.054457
-0.054341
-0.054224
-0.054107
-0.053990
-0.053873
-0.053756
-0.053639
-0.053521
-0.053404
-0.053286
-0.053168
-0.053050
-0.052931
-0.052813
-0.052694
-0.052576
-0.052457
-0.052338
-0.052219
-0.052099
-0.051980
-0.051860
-0.051740
-0.051620
-0.051500
-0.051380
-0.051260
-0.051139
-0.051019
-0.050898
-0.050777
-0.050656
-0.050535
-0.050413
-0.050292
-0.050170
-0.050048
-0.049926
-0.049804
-0.049682
-0.049560
-0.049437
-0.049314
-0.049192
-0.049069
-0.048946
-0.048822
-0.048699
-0.048576
-0.048452
-0.048328
-0.048204
-0.048080
-0.047956
-0.047832
-0.047707
-0.047583
-0.047458
-0.047333
-0.047208
-0.047083
-0.046958
-0.046832
-0.046707
-0.046581
-0.046456
-0.046330
-0.046204
-0.046077
-0.045951
-0.045825
-0.045698
-0.045572
-0.045445
-0.045318
-0.045191
-0.045064
-0.044936
-0.044809
-0.044681
-0.044554
-0.044426
-0.044298
-0.044170
-0.044041
-0.043913
-0.043785
-0.043656
-0.043527
-0.043399
-0.043270
-0.043141
-0.043011
-0.042882
-0.042753
-0.042623
-0.042493
-0.042364
-0.042234
-0.042104
-0.041973
-0.041843
-0.041713
-0.041582
-0.041452
-0.041321
-0.041190
-0.041059
-0.040928
-0.040797
-0.040665
-0.040534
-0.040402
-0.040271
-0.040139
-0.040007
-0.039875
-0.039743
-0.039611
-0.039479
-0.039346
-0.039214
-0.039081
-0.038948
-0.038815
-0.038682
-0.038549
-0.038416
-0.038283
-0.038149
-0.038016
-0.037882
-0.037748
-0.037615
-0.037481
-0.037347
-0.037213
-0.037078
-0.036944
-0.036810
-0.036675
-0.036540
-0.036406
-0.036271
-0.036136
-0.036001
-0.035866
-0.035731
-0.035595
-0.035460
-0.035324
-0.035189
-0.035053
-0.034917
-0.034781
-0.034645
-0.034509
-0.034373
-0.034237
-0.034100
-0.033964
-0.033827
-0.033691
-0.033554
-0.033417
-0.033280
-0.033143
-0.033006
-0.032869
-0.032732
-0.032594
-0.032457
-0.032319
-0.032182
-0.032044
-0.031906
-0.031768
-0.031630
-0.031492
-0.031354
-0.031216
-0.031078
-0.030939
-0.030801
-0.030662
-0.030523
-0.030385
-0.030246
-0.030107
-0.029968
-0.029829
-0.029690
-0.029551
-0.029411
-0.029272
-0.029133
-0.028993
-0.028854
-0.028714
-0.028574
-0.028434
-0.028294
-0.028154
-0.028014
-0.027874
-0.027734
-0.027594
-0.027453
-0.027313
-0.027173
-0.027032
-0.026891
-0.026751
-0.026610
-0.026469
-0.026328
-0.026187
-0.026046
-0.025905
-0.025764
-0.025623
-0.025481
-0.025340
-0.025199
-0.025057
-0.024915
-0.024774
-0.024632
-0.024490
-0.024349
-0.024207
-0.024065
-0.023923
-0.023781
-0.023639
-0.023496
-0.023354
-0.023212
-0.023069
-0.022927
-0.022785
-0.022642
-0.022499
-0.022357
-0.022214
-0.022071
-0.021928
-0.021786
-0.021643
-0.021500
-0.021357
-0.021213
-0.021070
-0.020927
-0.020784
-0.020641
-0.020497
-0.020354
-0.020210
-0.020067
-0.019923
-0.019780
-0.019636
-0.019492
-0.019349
-0.019205
-0.019061
-0.018917
-0.018773
-0.018629
-0.018485
-0.018341
-0.018197
-0.018053
-0.017909
-0.017764
-0.017620
-0.017476
-0.017331
-0.017187
-0.017043
-0.016898
-0.016754
-0.016609
-0.016464
-0.016320
-0.016175
-0.016030
-0.015886
-0.015741
-0.015596
-0.015451
-0.015306
-0.015161
-0.015016
-0.014871
-0.014726
-0.014581
-0.014436
-0.014291
-0.014146
-0.014000
-0.013855
-0.013710
-0.013564
-0.013419
-0.013274
-0.013128
-0.012983
-0.012837
-0.012692
-0.012546
-0.012401
-0.012255
-0.012110
-0.011964
-0.011818
-0.011673
-0.011527
-0.011381
-0.011235
-0.011090
-0.010944
-0.010798
-0.010652
-0.010506
-0.010360
-0.010214
-0.010068
-0.009922
-0.009776
-0.009630
-0.009484
-0.009338
-0.009192
-0.009046
-0.008900
-0.008753
-0.008607
-0.008461
-0.008315
-0.008169
-0.008022
-0.007876
-0.007730
-0.007583
-0.007437
-0.007291
-0.007144
-0.006998
-0.006852
-0.006705
-0.006559
-0.006412
-0.006266
-0.006119
-0.005973
-0.005826
-0.005680
-0.005533
-0.005387
-0.005240
-0.005094
-0.004947
-0.004801
-0.004654
-0.004507
-0.004361
-0.004214
-0.004067
-0.003921
-0.003774
-0.003627
-0.003481
-0.003334
-0.003187
-0.003041
-0.002894
-0.002747
-0.002600
-0.002454
-0.002307
-0.002160
-0.002014
-0.001867
-0.001720
-0.001573
-0.001426
-0.001280
-0.001133
-0.000986
-0.000839
-0.000693
-0.000546
-0.000399
-0.000252
-0.000105
0.000042
0.000188
0.000335
0.000482
0.000629
0.000776
0.000922
0.001069
0.001216
0.001363
0.001510
0.001656
0.001803
0.001950
0.002097
0.002244
0.002391
0.002537
0.002684
0.002831
0.002978
0.003125
0.003271
0.003418
0.003565
0.003712
0.003858
0.004005
0.004152
0.004299
0.004446
0.004592
0.004739
0.004886
0.005033
0.005179
0.005326
0.005473
0.005619
0.005766
0.005913
0.006060
0.006206
0.006353
0.006500
0.006646
0.006793
0.006940
0.007086
0.007233
0.007379
0.007526
0.007673
0.007819
0.007966
0.008112
0.008259
0.008405
0.008552
0.008699
0.008845
0.008992
0.009138
0.009285
0.009431
0.009577
0.009724
0.009870
0.010017
0.010163
0.010310
0.010456
0.010602
0.010749
0.010895
0.011041
0.011188
0.011334
0.011480
0.011627
0.011773
0.011919
0.012065
0.012212
0.012358
0.012504
0.012650
0.012796
0.012942
0.013089
0.013235
0.013381
0.013527
0.013673
0.013819
0.013965
0.014111
0.014257
0.014403
0.014549
0.014695
0.014841
0.014987
0.015133
0.015279
0.015425
0.015571
0.015716
0.015862
0.016008
0.016154
0.016300
0.016445
0.016591
0.016737
0.016883
0.017028
0.017174
0.017320
0.017465
0.017611
0.017756
0.017902
0.018048
0.018193
0.018339
0.018484
0.018630
0.018775
0.018921
0.019066
0.019211
0.019357
0.019502
0.019647
0.019793
0.019938
0.020083
0.020229
0.020374
0.020519
0.020664
0.020810
0.020955
0.021100
0.021245
0.021390
0.021535
0.021680
0.021825
0.021970
0.022115
0.022260
0.022405
0.022550
0.022695
0.022840
0.022985
0.023130
0.023275
0.023419
0.023564
0.023709
0.023854
0.023998
0.024143
0.024288
0.024433
0.024577
0.024722
0.024866
0.025011
0.025156
0.025300
0.025445
0.025589
0.025734
0.025878
0.026022
0.026167
0.026311
0.026456
0.026600
0.026744
0.026888
0.027033
0.027177
0.027321
0.027465
0.027610
0.027754
0.027898
0.028042
0.028186
0.028330
0.028474
0.028618
0.028762
0.028906
0.029050
0.029194
0.029338
0.029482
0.029626
0.029770
0.029913
0.030057
0.030201
0.030345
0.030488
0.030632
0.030776
0.030920
0.031063
0.031207
0.031350
0.031494
0.031638
0.031781
0.031925
0.032068
0.032212
0.032355
0.032498
0.032642
0.032785
0.032929
0.033072
0.033215
0.033358
0.033502
0.033645
0.033788
0.033931
0.034075
0.034218
0.034361
0.034504
0.034647
0.034790
0.034933
0.035076
0.035219
0.035362
0.035505
0.035648
0.035791
0.035934
0.036077
0.036220
0.036362
0.036505
0.036648
0.036791
0.036934
0.037076
0.037219
0.037362
0.037504
0.037647
0.037790
0.037932
0.038075
0.038217
0.038360
0.038502
0.038645
0.038787
0.038930
0.039072
0.039215
0.039357
0.039499
0.039642
0.039784
0.039926
0.040069
0.040211
0.040353
0.040495
0.040638
0.040780
0.040922
0.041064
0.041206
0.041348
0.041490
0.041632
0.041774
0.041916
0.042058
0.042200
0.042342
0.042484
0.042626
0.042768
0.042910
0.043052
0.043194
0.043336
0.043477
0.043619
0.043761
0.043903
0.044044
0.044186
0.044328
0.044470
0.044611
0.044753
0.044894
0.045036
0.045178
0.045319
0.045461
0.045602
0.045744
0.045885
0.046027
0.046168
0.046310
0.046451
0.046593
0.046734
0.046875
0.047017
0.047158
0.047300
0.047441
0.047582
0.047723
0.047865
0.048006
0.048147
0.048288
0.048430
0.048571
0.048712
0.048853
0.048994
0.049135
0.049276
0.049418
0.049700
0.049840
0.049981
0.050122
0.050263
0.050404
0.050545
0.050686
0.050826
0.050967
0.051108
0.051249
0.051389
0.051530
0.051671
0.051812
0.051952
0.052093
0.052234
0.052374
0.052515
0.052656
0.052796
0.052937
0.053077
0.053218
0.053358
0.053499
0.053639
0.053780
0.053921
0.054061
0.054201
0.054342
0.054482
0.054623
0.054763
0.054904
0.055044
0.055184
0.055325
0.055465
0.055606
0.055746
0.055886
0.056027
0.056167
0.056307
0.056447
0.056588
0.056728
0.056868
0.057008
0.057149
0.057289
0.057429
0.057569
0.057709
0.057850
0.057990
0.058130
0.058270
0.058410
0.058550
0.058690
0.058830
0.058971
0.059111
0.059251
0.059391
0.059531
0.059671
0.059811
0.059951
0.060091
0.060231
0.060371
0.060511
0.060651
0.060791
0.060931
0.061071
0.061211
0.061351
0.061491
0.061630
0.061770
0.061910
0.062050
0.062190
0.062330
0.062470
0.062610
0.062749
0.062889
0.063029
0.063169
0.063309
0.063449
0.063588
0.063728
0.063868
0.064008
0.064148
0.064287
0.064427
0.064567
0.064707
0.064846
0.064986
0.065126
0.065266
0.065405
0.065545
0.065685
0.065825
0.065964
0.066104
0.066244
0.066383
0.066523
0.066663
0.066802
0.066942
0.067082
0.067221
0.067361
0.067501
0.067640
0.067780
0.067920
0.068059
0.068199
0.068339
0.068478
0.068618
0.068757
0.068897
0.069037
0.069176
0.069316
0.069455
0.069595
0.069735
0.069874
0.070014
0.070153
0.070293
0.070433
0.070572
0.070712
0.070851
0.070991
0.071130
0.071270
0.071410
0.071549
0.071689
0.071828
0.071968
0.072107
0.072247
0.072386
0.072526
0.072665
0.072805
0.072945
0.073084
0.073224
0.073363
0.073503
0.073642
0.073782
0.073921
0.074061
0.074200
0.074340
0.074479
0.074619
0.074758
0.074898
0.075038
0.075177
0.075317
0.075456
0.075596
0.075735
0.075875
0.076014
0.076154
0.076293
0.076433
0.076572
0.076712
0.076851
0.076991
0.077130
0.077270
0.077410
0.077549
0.077689
0.077828
0.077968
0.078107
0.078247
0.078386
0.078526
0.078665
0.078805
0.078945
0.079084
0.079224
0.079363
0.079503
0.079642
0.079782
0.079921
0.080061
0.080201
0.080340
0.080480
0.080619
0.080759
0.080898
0.081038
0.081178
0.081317
0.081457
0.081596
0.081736
0.081876
0.082015
0.082155
0.082294
0.082434
0.082574
0.082713
0.082853
0.082993
0.083132
0.083272
0.083411
0.083551
0.083691
0.083830
0.083970
0.084110
0.084249
0.084389
0.084529
0.084668
0.084808
0.084948
0.085087
0.085227
0.085367
0.085506
0.085646
0.085786
0.085926
0.086065
0.086205
0.086345
0.086484
0.086624
0.086764
0.086904
0.087043
0.087183
0.087323
0.087463
0.087602
0.087742
0.087882
0.088022
0.088161
0.088301
0.088441
0.088581
0.088721
0.088860
0.089000
0.089140
0.089280
0.089420
0.089560
0.089699
0.089839
0.089979
0.090119
0.090259
0.090399
0.090539
0.090679
0.090818
0.090958
0.091098
0.091238
0.091378
0.091518
0.091658
0.091798
0.091938
0.092078
0.092218
0.092358
0.092498
0.092637
0.092777
0.092917
0.093057
0.093197
0.093337
0.093477
0.093617
0.093757
0.093897
0.094037
0.094177
0.094318
0.094458
0.094598
0.094738
0.094878
0.095018
0.095158
0.095298
0.095438
0.095578
0.095718
0.095858
0.095998
0.096139
0.096279
0.096419
0.096559
0.096699
0.096839
0.096979
0.097120
0.097260
0.097400
0.097540
0.097680
0.097821
0.097961
0.098101
0.098241
0.098381
0.098522
0.098662
0.098802
0.098942
0.070510
0.070578
0.070362
0.063049
0.063153
0.063252
-0.050964
-0.050890
-0.051105
-0.051196
-0.026832
0.080112
0.080364
0.080417
0.080570
0.067672
0.067447
0.067518
-0.027364
-0.027216
-0.027394
-0.027136
-0.074016
-0.074121
-0.073862
-0.073895
-0.028281
-0.028173
-0.028068
0.027653
0.027431
0.027556
0.027631
-0.046331
-0.047544
-0.056006
-0.057702
0.019543
0.019322
0.019409
0.019389
-0.021565
-0.022027
-0.021632
-0.021652
0.051344
0.050922
0.050490
0.051890
-0.074351
-0.074265
-0.074009
0.024036
0.024009
0.024269
0.024387
0.001202
-0.004562
-0.003183
-0.007961
0.011838
0.012154
0.012278
-0.039543
-0.037682
-0.039623
-0.006528
-0.006385
-0.006736
-0.006580
0.062363
0.063109
0.063034
0.063803
-0.001630
-0.001123
-0.001333
-0.000609
0.020966
0.021189
0.020792
0.021294
0.019537
0.019696
0.019417
0.019826
-0.010629
-0.010666
-0.010859
-0.010973
0.069981
0.069886
0.069624
-0.029407
-0.029818
-0.029534
0.011857
0.069529
0.069271
0.069263
0.069651
0.032035
0.032288
0.032172
-0.000489
-0.000435
-0.000647
0.032270
0.019325
0.018615
0.018361
-0.000265
0.037004
0.036847
0.036511
0.058157
0.058406
0.058117
0.058517
0.035856
0.035997
0.035745
0.036086
0.036423
-0.063901
-0.064190
-0.064041
0.082421
0.082184
0.082576
-0.064318
-0.044648
-0.044837
-0.045018
-0.044474
-0.035974
-0.035808
-0.036398
-0.035989
-0.020127
-0.020559
-0.020248
0.010554
0.010797
0.010489
0.010707
-0.020627
0.032187
0.032371
0.032038
-0.034156
-0.034494
-0.034176
-0.037342
-0.037797
-0.038151
0.032365
0.064090
0.064153
0.063846
-0.057025
-0.056931
-0.056812
0.068653
0.068919
0.068936
0.068700
0.040408
0.040032
0.040184
0.039633
0.001256
-0.000706
0.001308
0.000810
0.030369
0.031177
0.029043
0.032404
-0.053887
-0.053729
-0.054200
-0.053416
0.093269
0.093085
-0.077680
-0.077026
-0.076651
-0.075928
-0.050358
-0.049043
-0.046027
-0.054192
0.096367
0.096438
0.096773
-0.058090
-0.053469
-0.058394
-0.058723
-0.057501
0.066519
0.066470
0.066131
0.026057
0.025922
0.026238
0.026136
0.001896
0.001311
0.001731
-0.075186
-0.075155
-0.075574
-0.075228
0.096498
0.095944
0.096665
0.095769
0.082578
0.082825
0.083087
0.066038
0.039774
0.039496
0.039209
0.038990
-0.008852
-0.008690
-0.008501
-0.008977
-0.015946
-0.016868
-0.019414
0.084304
0.084230
0.083508
0.083802
-0.021353
-0.020815
-0.023402
-0.022300
0.039069
0.039099
0.038844
0.022687
0.023466
0.030000
0.016501
-0.066522
-0.066868
-0.065785
-0.068070
0.088993
0.089201
0.020243
0.020214
0.020360
0.039318
0.002526
0.003556
0.004257
0.004821
-0.036268
-0.036628
-0.036472
-0.036443
-0.035165
-0.040565
-0.038839
-0.035347
-0.008139
-0.007722
-0.008442
-0.008348
-0.043655
-0.042290
-0.041274
-0.040198
0.087703
0.088189
0.088502
0.087680
-0.040125
-0.040064
-0.039937
-0.083126
-0.086661
-0.083252
-0.083603
-0.070635
-0.070834
-0.070869
-0.013028
-0.013078
-0.027317
-0.027356
-0.029078
-0.025757
0.036601
0.034412
0.034712
0.032284
0.005123
0.014065
0.012888
0.011453
0.047938
0.048120
0.046759
0.046760
0.078186
0.076369
0.076976
0.078052
-0.033548
-0.033418
-0.034510
-0.034713
-0.028442
-0.028322
-0.028153
-0.028700
0.053502
0.054342
0.053705
0.054231
0.052725
0.052634
0.053654
-0.006632
-0.006377
-0.006319
-0.006619
0.092432
0.091402
0.092350
0.069583
-0.017585
-0.019529
-0.018546
-0.018426
0.077021
0.077094
0.076638
0.076810
0.014872
0.015145
0.014941
0.015262
0.036613
0.037040
-0.010014
-0.009279
-0.008651
-0.008122
-0.002636
-0.002608
-0.000186
-0.005124
-0.001014
-0.000862
-0.000751
0.085921
0.085627
0.085597
-0.051493
-0.051649
-0.050896
-0.050839
-0.000685
-0.043844
-0.041017
-0.043140
0.078376
0.078741
0.079338
0.079691
0.073291
0.073137
0.073109
0.072863
0.034750
0.033983
0.033785
0.035482
0.029982
0.029725
0.029606
0.030018
0.029827
0.030149
0.038357
0.037223
0.037962
-0.005279
-0.005502
-0.005236
0.021799
0.018876
0.025804
-0.005342
0.049884
0.050461
0.048689
0.042391
0.042715
0.042698
0.042487
0.063447
0.063501
0.063118
-0.044123
-0.039197
0.063773
0.060222
0.060124
0.059963
0.059886
-0.034728
-0.034590
-0.034789
0.077364
0.020835
0.020941
0.020293
0.020189
-0.063167
-0.061152
-0.061890
-0.060220
0.025369
0.025333
0.025110
0.025589
-0.041832
-0.041075
-0.042983
-0.040761
-0.050768
-0.051831
-0.047718
-0.054579
0.054106
0.053984
0.054352
-0.043847
-0.043471
-0.044443
0.027888
0.027822
0.026825
0.026168
0.067649
0.056064
0.055788
0.056056
0.042051
0.043450
0.042274
0.043242
-0.010575
-0.011722
-0.011975
0.055781
0.059181
0.059638
0.059189
0.029783
0.030453
0.030779
0.031452
0.036869
0.034455
-0.020965
-0.021727
-0.020680
-0.022408
-0.058164
-0.060932
-0.060935
-0.056613
-0.044010
-0.044676
0.018226
0.018088
0.019146
0.059433
-0.012860
-0.010519
-0.009606
-0.013471
0.029323
0.032210
0.043993
0.044155
0.044042
-0.043620
-0.042994
-0.042795
0.044309
-0.035108
-0.035047
-0.034882
0.062174
0.061886
0.062055
0.061766
-0.023221
-0.023116
-0.023016
-0.041051
-0.047485
0.011100
0.011037
0.010897
0.066095
0.066041
0.065879
0.065793
0.044193
0.044363
0.044480
0.016056
0.015168
0.014931
0.013649
0.042781
0.042559
0.042653
0.042421
0.037323
0.037433
0.037220
0.059016
0.059213
0.059324
0.042754
0.042473
0.044093
0.059415
-0.053279
-0.053284
-0.053055
0.041358
0.031791
0.031131
0.032099
0.044138
-0.056688
-0.056596
-0.056742
0.022257
0.017444
0.019399
-0.053507
0.055495
0.055506
0.055816
0.079550
0.079661
0.079406
0.079551