# vtk DataFile Version 2.0
Test
ASCII
DATASET POLYDATA
POINTS 20431 float
0.000000 0.000000 0.000000
2.000000 0.000000 0.000000
2.000000 4.000000 0.000000
0.000000 4.000000 0.000000
0.000000 0.500000 0.000000
1.500000 2.000000 0.000000
2.000000 2.500000 0.000000
0.400000 0.000000 0.000000
0.800000 0.000000 0.000000
1.200000 0.000000 0.000000
1.600000 0.000000 0.000000
2.000000 0.362557 0.000000
2.000000 0.672798 0.000000
2.000000 0.938272 0.000000
2.000000 1.165439 0.000000
2.000000 1.359826 0.000000
2.000000 1.526163 0.000000
2.000000 1.668499 0.000000
2.000000 1.790295 0.000000
2.000000 1.894517 0.000000
2.000000 1.983700 0.000000
2.000000 2.060013 0.000000
2.000000 2.125315 0.000000
2.000000 2.181194 0.000000
2.000000 2.229010 0.000000
2.000000 2.269926 0.000000
2.000000 2.304938 0.000000
2.000000 2.334898 0.000000
2.000000 2.360534 0.000000
2.000000 2.382472 0.000000
2.000000 2.401244 0.000000
2.000000 2.417307 0.000000
2.000000 2.431052 0.000000
2.000000 2.442814 0.000000
2.000000 2.452878 0.000000
2.000000 2.461491 0.000000
2.000000 2.468860 0.000000
2.000000 2.475167 0.000000
2.000000 2.480563 0.000000
2.000000 2.485180 0.000000
2.000000 2.489132 0.000000
2.000000 2.492513 0.000000
2.000000 2.495406 0.000000
2.000000 2.497882 0.000000
2.000000 2.502286 0.000000
2.000000 2.505266 0.000000
2.000000 2.509150 0.000000
2.000000 2.514212 0.000000
2.000000 2.520809 0.000000
2.000000 2.529407 0.000000
2.000000 2.540613 0.000000
2.000000 2.555218 0.000000
2.000000 2.574253 0.000000
2.000000 2.599061 0.000000
2.000000 2.631395 0.000000
2.000000 2.673536 0.000000
2.000000 2.728460 0.000000
2.000000 2.800043 0.000000
2.000000 2.893339 0.000000
2.000000 3.014933 0.000000
2.000000 3.173410 0.000000
2.000000 3.379956 0.000000
2.000000 3.649152 0.000000
1.600000 4.000000 0.000000
1.200000 4.000000 0.000000
0.800000 4.000000 0.000000
0.400000 4.000000 0.000000
0.000000 3.624996 0.000000
0.000000 3.289970 0.000000
0.000000 2.990661 0.000000
0.000000 2.723261 0.000000
0.000000 2.484368 0.000000
0.000000 2.270943 0.000000
0.000000 2.080271 0.000000
0.000000 1.909926 0.000000
0.000000 1.757741 0.000000
0.000000 1.621780 0.000000
0.000000 1.500314 0.000000
0.000000 1.391797 0.000000
0.000000 1.294849 0.000000
0.000000 1.208237 0.000000
0.000000 1.130858 0.000000
0.000000 1.061728 0.000000
0.000000 0.999968 0.000000
0.000000 0.944792 0.000000
0.000000 0.895499 0.000000
0.000000 0.851460 0.000000
0.000000 0.812117 0.000000
0.000000 0.776968 0.000000
0.000000 0.745565 0.000000
0.000000 0.717511 0.000000
0.000000 0.692448 0.000000
0.000000 0.670056 0.000000
0.000000 0.650052 0.000000
0.000000 0.632180 0.000000
0.000000 0.616213 0.000000
0.000000 0.601949 0.000000
0.000000 0.589205 0.000000
0.000000 0.577820 0.000000
0.000000 0.567649 0.000000
0.000000 0.558562 0.000000
0.000000 0.550444 0.000000
0.000000 0.543191 0.000000
0.000000 0.536712 0.000000
0.000000 0.530923 0.000000
0.000000 0.525751 0.000000
0.000000 0.521131 0.000000
0.000000 0.517003 0.000000
0.000000 0.513315 0.000000
0.000000 0.510021 0.000000
0.000000 0.507078 0.000000
0.000000 0.504448 0.000000
0.000000 0.502099 0.000000
0.000000 0.497804 0.000000
0.000000 0.494785 0.000000
0.000000 0.490633 0.000000
0.000000 0.484924 0.000000
0.000000 0.477074 0.000000
0.000000 0.466279 0.000000
0.000000 0.451436 0.000000
0.000000 0.431025 0.000000
0.000000 0.402959 0.000000
0.000000 0.364366 0.000000
0.000000 0.311297 0.000000
0.000000 0.238324 0.000000
0.000000 0.137980 0.000000
0.001414 0.501414 0.000000
0.002828 0.502828 0.000000
0.004241 0.504241 0.000000
0.005655 0.505655 0.000000
0.007069 0.507069 0.000000
0.008483 0.508483 0.000000
0.009896 0.509896 0.000000
0.011310 0.511310 0.000000
0.012724 0.512724 0.000000
0.014138 0.514138 0.000000
0.015551 0.515551 0.000000
0.016965 0.516965 0.000000
0.018379 0.518379 0.000000
0.019793 0.519793 0.000000
0.021206 0.521206 0.000000
0.022620 0.522620 0.000000
0.024034 0.524034 0.000000
0.025448 0.525448 0.000000
0.026861 0.526861 0.000000
0.028275 0.528275 0.000000
0.029689 0.529689 0.000000
0.031103 0.531103 0.000000
0.032516 0.532516 0.000000
0.033930 0.533930 0.000000
0.035344 0.535344 0.000000
0.036758 0.536758 0.000000
0.038172 0.538172 0.000000
0.039585 0.539585 0.000000
0.040999 0.540999 0.000000
0.042413 0.542413 0.000000
0.043827 0.543827 0.000000
0.045240 0.545240 0.000000
0.046654 0.546654 0.000000
0.048068 0.548068 0.000000
0.049482 0.549482 0.000000
0.050895 0.550895 0.000000
0.052309 0.552309 0.000000
0.053723 0.553723 0.000000
0.055137 0.555137 0.000000
0.056550 0.556550 0.000000
0.057964 0.557964 0.000000
0.059378 0.559378 0.000000
0.060792 0.560792 0.000000
0.062205 0.562205 0.000000
0.063619 0.563619 0.000000
0.065033 0.565033 0.000000
0.066447 0.566447 0.000000
0.067861 0.567861 0.000000
0.069274 0.569274 0.000000
0.070688 0.570688 0.000000
0.072102 0.572102 0.000000
0.073516 0.573516 0.000000
0.074929 0.574929 0.000000
0.076343 0.576343 0.000000
0.077757 0.577757 0.000000
0.079171 0.579171 0.000000
0.080584 0.580584 0.000000
0.081998 0.581998 0.000000
0.083412 0.583412 0.000000
0.084826 0.584826 0.000000
0.086239 0.586239 0.000000
0.087653 0.587653 0.000000
0.089067 0.589067 0.000000
0.090481 0.590481 0.000000
0.091894 0.591894 0.000000
0.093308 0.593308 0.000000
0.094722 0.594722 0.000000
0.096136 0.596136 0.000000
0.097549 0.597549 0.000000
0.098963 0.598963 0.000000
0.100377 0.600377 0.000000
0.101791 0.601791 0.000000
0.103205 0.603205 0.000000
0.104618 0.604618 0.000000
0.106032 0.606032 0.000000
0.107446 0.607446 0.000000
0.108860 0.608860 0.000000
0.110273 0.610273 0.000000
0.111687 0.611687 0.000000
0.113101 0.613101 0.000000
0.114515 0.614515 0.000000
0.115928 0.615928 0.000000
0.117342 0.617342 0.000000
0.118756 0.618756 0.000000
0.120170 0.620170 0.000000
0.121583 0.621583 0.000000
0.122997 0.622997 0.000000
0.124411 0.624411 0.000000
0.125825 0.625825 0.000000
0.127238 0.627238 0.000000
0.128652 0.628652 0.000000
0.130066 0.630066 0.000000
0.131480 0.631480 0.000000
0.132893 0.632893 0.000000
0.134307 0.634307 0.000000
0.135721 0.635721 0.000000
0.137135 0.637135 0.000000
0.138549 0.638549 0.000000
0.139962 0.639962 0.000000
0.141376 0.641376 0.000000
0.142790 0.642790 0.000000
0.144204 0.644204 0.000000
0.145617 0.645617 0.000000
0.147031 0.647031 0.000000
0.148445 0.648445 0.000000
0.149859 0.649859 0.000000
0.151272 0.651272 0.000000
0.152686 0.652686 0.000000
0.154100 0.654100 0.000000
0.155514 0.655514 0.000000
0.156927 0.656927 0.000000
0.158341 0.658341 0.000000
0.159755 0.659755 0.000000
0.161169 0.661169 0.000000
0.162582 0.662582 0.000000
0.163996 0.663996 0.000000
0.165410 0.665410 0.000000
0.166824 0.666824 0.000000
0.168238 0.668238 0.000000
0.169651 0.669651 0.000000
0.171065 0.671065 0.000000
0.172479 0.672479 0.000000
0.173893 0.673893 0.000000
0.175306 0.675306 0.000000
0.176720 0.676720 0.000000
0.178134 0.678134 0.000000
0.179548 0.679548 0.000000
0.180961 0.680961 0.000000
0.182375 0.682375 0.000000
0.183789 0.683789 0.000000
0.185203 0.685203 0.000000
0.186616 0.686616 0.000000
0.188030 0.688030 0.000000
0.189444 0.689444 0.000000
0.190858 0.690858 0.000000
0.192271 0.692271 0.000000
0.193685 0.693685 0.000000
0.195099 0.695099 0.000000
0.196513 0.696513 0.000000
0.197926 0.697926 0.000000
0.199340 0.699340 0.000000
0.200754 0.700754 0.000000
0.202168 0.702168 0.000000
0.203582 0.703582 0.000000
0.204995 0.704995 0.000000
0.206409 0.706409 0.000000
0.207823 0.707823 0.000000
0.209237 0.709237 0.000000
0.210650 0.710650 0.000000
0.212064 0.712064 0.000000
0.213478 0.713478 0.000000
0.214892 0.714892 0.000000
0.216305 0.716305 0.000000
0.217719 0.717719 0.000000
0.219133 0.719133 0.000000
0.220547 0.720547 0.000000
0.221960 0.721960 0.000000
0.223374 0.723374 0.000000
0.224788 0.724788 0.000000
0.226202 0.726202 0.000000
0.227615 0.727615 0.000000
0.229029 0.729029 0.000000
0.230443 0.730443 0.000000
0.231857 0.731857 0.000000
0.233270 0.733270 0.000000
0.234684 0.734684 0.000000
0.236098 0.736098 0.000000
0.237512 0.737512 0.000000
0.238926 0.738926 0.000000
0.240339 0.740339 0.000000
0.241753 0.741753 0.000000
0.243167 0.743167 0.000000
0.244581 0.744581 0.000000
0.245994 0.745994 0.000000
0.247408 0.747408 0.000000
0.248822 0.748822 0.000000
0.250236 0.750236 0.000000
0.251649 0.751649 0.000000
0.253063 0.753063 0.000000
0.254477 0.754477 0.000000
0.255891 0.755891 0.000000
0.257304 0.757304 0.000000
0.258718 0.758718 0.000000
0.260132 0.760132 0.000000
0.261546 0.761546 0.000000
0.262959 0.762959 0.000000
0.264373 0.764373 0.000000
0.265787 0.765787 0.000000
0.267201 0.767201 0.000000
0.268615 0.768615 0.000000
0.270028 0.770028 0.000000
0.271442 0.771442 0.000000
0.272856 0.772856 0.000000
0.274270 0.774270 0.000000
0.275683 0.775683 0.000000
0.277097 0.777097 0.000000
0.278511 0.778511 0.000000
0.279925 0.779925 0.000000
0.281338 0.781338 0.000000
0.282752 0.782752 0.000000
0.284166 0.784166 0.000000
0.285580 0.785580 0.000000
0.286993 0.786993 0.000000
0.288407 0.788407 0.000000
0.289821 0.789821 0.000000
0.291235 0.791235 0.000000
0.292648 0.792648 0.000000
0.294062 0.794062 0.000000
0.295476 0.795476 0.000000
0.296890 0.796890 0.000000
0.298303 0.798303 0.000000
0.299717 0.799717 0.000000
0.301131 0.801131 0.000000
0.302545 0.802545 0.000000
0.303959 0.803959 0.000000
0.305372 0.805372 0.000000
0.306786 0.806786 0.000000
0.308200 0.808200 0.000000
0.309614 0.809614 0.000000
0.311027 0.811027 0.000000
0.312441 0.812441 0.000000
0.313855 0.813855 0.000000
0.315269 0.815269 0.000000
0.316682 0.816682 0.000000
0.318096 0.818096 0.000000
0.319510 0.819510 0.000000
0.320924 0.820924 0.000000
0.322337 0.822337 0.000000
0.323751 0.823751 0.000000
0.325165 0.825165 0.000000
0.326579 0.826579 0.000000
0.327992 0.827992 0.000000
0.329406 0.829406 0.000000
0.330820 0.830820 0.000000
0.332234 0.832234 0.000000
0.333648 0.833648 0.000000
0.335061 0.835061 0.000000
0.336475 0.836475 0.000000
0.337889 0.837889 0.000000
0.339303 0.839303 0.000000
0.340716 0.840716 0.000000
[...]
POINT_DATA 20431
SCALARS UX float 1
LOOKUP_TABLE default
-0.000000
0.000000
0.064366
-0.067138
-0.052504
0.032414
0.064805
-0.000000
-0.000000
0.000000
-0.000000
0.043897
0.057476
0.062761
0.064688
0.065382
0.065579
0.065556
0.065477
0.065385
0.065293
0.065215
0.065147
0.065090
0.065042
0.065003
0.064970
0.064942
0.064920
0.064901
0.064885
0.064871
0.064860
0.064850
0.064842
0.064835
0.064830
0.064825
0.064820
0.064817
0.064814
0.064811
0.064809
0.064807
0.064804
0.064801
0.064799
0.064795
0.064790
0.064783
0.064775
0.064765
0.064751
0.064734
0.064713
0.064686
0.064654
0.064616
0.064570
0.064521
0.064471
0.064420
0.064382
0.038043
0.011731
-0.014567
-0.040854
-0.067136
-0.067136
-0.067148
-0.067182
-0.067240
-0.067314
-0.067393
-0.067456
-0.067470
-0.067420
-0.067303
-0.067100
-0.066797
-0.066405
-0.065930
-0.065385
-0.064779
-0.064123
-0.063439
-0.062733
-0.062022
-0.061311
-0.060620
-0.059938
-0.059288
-0.058670
-0.058080
-0.057528
-0.057011
-0.056531
-0.056087
-0.055675
-0.055298
-0.054953
-0.054637
-0.054348
-0.054086
-0.053847
-0.053631
-0.053435
-0.053258
-0.053098
-0.052953
-0.052822
-0.052705
-0.052599
-0.052404
-0.052265
-0.052072
-0.051804
-0.051426
-0.050898
-0.050128
-0.049024
-0.047394
-0.044853
-0.040924
-0.034713
-0.023730
-0.052485
-0.052466
-0.052447
-0.052427
-0.052407
-0.052386
-0.052365
-0.052344
-0.052322
-0.052300
-0.052278
-0.052255
-0.052232
-0.052208
-0.052185
-0.052161
-0.052136
-0.052111
-0.052086
-0.052060
-0.052035
-0.052009
-0.051982
-0.051955
-0.051928
-0.051901
-0.051873
-0.051845
-0.051817
-0.051789
-0.051760
-0.051731
-0.051701
-0.051672
-0.051642
-0.051612
-0.051581
-0.051551
-0.051520
-0.051488
-0.051457
-0.051425
-0.051393
-0.051361
-0.051329
-0.051296
-0.051263
-0.051230
-0.051196
-0.051163
-0.051129
-0.051094
-0.051060
-0.051025
-0.050990
-0.050955
-0.050920
-0.050885
-0.050849
-0.050813
-0.050777
-0.050741
-0.050704
-0.050667
-0.050631
-0.050594
-0.050556
-0.050519
-0.050481
-0.050443
-0.050405
-0.050367
-0.050328
-0.050289
-0.050251
-0.050211
-0.050172
-0.050132
-0.050093
-0.050053
-0.050012
-0.049972
-0.049931
-0.049891
-0.049850
-0.049808
-0.049767
-0.049726
-0.049684
-0.049642
-0.049600
-0.049558
-0.049515
-0.049473
-0.049430
-0.049387
-0.049343
-0.049300
-0.049256
-0.049212
-0.049168
-0.049124
-0.049080
-0.049035
-0.048990
-0.048945
-0.048900
-0.048855
-0.048809
-0.048764
-0.048718
-0.048672
-0.048625
-0.048579
-0.048532
-0.048485
-0.048438
-0.048391
-0.048343
-0.048295
-0.048248
-0.048200
-0.048151
-0.048103
-0.048054
-0.048005
-0.047957
-0.047907
-0.047858
-0.047808
-0.047759
-0.047709
-0.047659
-0.047609
-0.047558
-0.047508
-0.047457
-0.047406
-0.047355
-0.047303
-0.047252
-0.047200
-0.047148
-0.047096
-0.047044
-0.046992
-0.046939
-0.046886
-0.046833
-0.046780
-0.046727
-0.046673
-0.046620
-0.046566
-0.046512
-0.046457
-0.046403
-0.046349
-0.046294
-0.046239
-0.046184
-0.046129
-0.046073
-0.046018
-0.045962
-0.045906
-0.045850
-0.045794
-0.045737
-0.045681
-0.045624
-0.045567
-0.045510
-0.045453
-0.045396
-0.045338
-0.045280
-0.045222
-0.045164
-0.045106
-0.045048
-0.044989
-0.044931
-0.044872
-0.044813
-0.044754
-0.044695
-0.044635
-0.044576
-0.044516
-0.044456
-0.044396
-0.044336
-0.044276
-0.044216
-0.044155
-0.044094
-0.044033
-0.043972
-0.043911
-0.043850
-0.043788
-0.043727
-0.043665
-0.043603
-0.043541
-0.043479
-0.043416
-0.043354
-0.043291
-0.043229
-0.043166
-0.043103
-0.043039
-0.042976
-0.042913
-0.042849
-0.042785
-0.042721
-0.042657
-0.042593
-0.042529
-0.042464
-0.042400
-0.042335
-0.042270
-0.042205
-0.042140
-0.042075
-0.042009
-0.041944
-0.041878
-0.041812
-0.041746
-0.041680
-0.041614
-0.041548
-0.041481
-0.041415
-0.041348
-0.041281
-0.041214
-0.041147
-0.041080
-0.041013
-0.040945
-0.040877
-0.040810
-0.040742
-0.040674
-0.040606
-0.040537
-0.040469
-0.040401
-0.040332
-0.040263
-0.040194
-0.040125
-0.040056
-0.039987
-0.039918
-0.039848
-0.039778
-0.039709
-0.039639
-0.039569
-0.039499
-0.039429
-0.039358
-0.039288
-0.039217
-0.039146
-0.039076
-0.039005
-0.038934
-0.038862
-0.038791
-0.038720
-0.038648
-0.038576
-0.038505
-0.038433
-0.038361
-0.038289
-0.038216
-0.038144
-0.038072
-0.037999
-0.037926
-0.037853
-0.037780
-0.037707
-0.037634
-0.037561
-0.037488
-0.037414
-0.037341
-0.037267
-0.037193
-0.037119
-0.037045
-0.036971
-0.036897
-0.036822
-0.036748
-0.036673
-0.036598
-0.036524
-0.036449
-0.036374
-0.036299
-0.036223
-0.036148
-0.036073
-0.035997
-0.035921
-0.035846
-0.035770
-0.035694
-0.035618
-0.035542
-0.035465
-0.035389
-0.035313
-0.035236
-0.035159
-0.035083
-0.035006
-0.034929
-0.034852
-0.034775
-0.034697
-0.034620
-0.034543
-0.034465
-0.034387
-0.034310
-0.034232
-0.034154
-0.034076
-0.033998
-0.033919
-0.033841
-0.033763
-0.033684
-0.033605
-0.033527
-0.033448
-0.033369
-0.033290
-0.033211
-0.033132
-0.033052
-0.032973
-0.032893
-0.032814
-0.032734
-0.032654
-0.032575
-0.032495
-0.032415
-0.032335
-0.032254
-0.032174
-0.032094
-0.032013
-0.031932
-0.031852
-0.031771
-0.031690
-0.031609
-0.031528
-0.031447
-0.031366
-0.031285
-0.031203
-0.031122
-0.031040
-0.030958
-0.030877
-0.030795
-0.030713
-0.030631
-0.030549
-0.030467
-0.030384
-0.030302
-0.030220
-0.030137
-0.030055
-0.029972
-0.029889
-0.029806
-0.029723
-0.029640
-0.029557
-0.029474
-0.029391
-0.029307
-0.029224
-0.029140
-0.029057
-0.028973
-0.028889
-0.028805
-0.028722
-0.028638
-0.028553
-0.028469
-0.028385
-0.028301
-0.028216
-0.028132
-0.028047
-0.027963
-0.027878
-0.027793
-0.027708
-0.027623
-0.027538
-0.027453
-0.027368
-0.027282
-0.027197
-0.027112
-0.027026
-0.026941
-0.026855
-0.026769
-0.026683
-0.026597
-0.026511
-0.026425
-0.026339
-0.026253
-0.026167
-0.026081
-0.025994
-0.025908
-0.025821
-0.025734
-0.025648
-0.025561
-0.025474
-0.025387
-0.025300
-0.025213
-0.025126
-0.025039
-0.024952
-0.024864
-0.024777
-0.024690
-0.024602
-0.024514
-0.024427
-0.024339
-0.024251
-0.024163
-0.024075
-0.023987
-0.023899
-0.023811
-0.023723
-0.023635
-0.023547
-0.023458
-0.023370
-0.023281
-0.023193
-0.023104
-0.023015
-0.022927
-0.022838
-0.022749
-0.022660
-0.022571
-0.022482
-0.022393
-0.022303
-0.022214
-0.022125
-0.022036
-0.021946
-0.021857
-0.021767
-0.021677
-0.021588
-0.021498
-0.021408
-0.021318
-0.021229
-0.021139
-0.021049
-0.020958
-0.020868
-0.020778
-0.020688
-0.020598
-0.020507
-0.020417
-0.020326
-0.020236
-0.020145
-0.020055
-0.019964
-0.019873
-0.019783
-0.019692
-0.019601
-0.019510
-0.019419
-0.019328
-0.019237
-0.019146
-0.019054
-0.018963
-0.018872
-0.018780
-0.018689
-0.018598
-0.018506
-0.018415
-0.018323
-0.018231
-0.018140
-0.018048
-0.017956
-0.017864
-0.017772
-0.017680
-0.017588
-0.017496
-0.017404
-0.017312
-0.017220
-0.017128
-0.017036
-0.016943
-0.016851
-0.016759
-0.016666
-0.016574
-0.016481
-0.016389
-0.016296
-0.016203
-0.016111
-0.016018
-0.015925
-0.015832
-0.015740
-0.015647
-0.015554
-0.015461
-0.015368
-0.015275
-0.015182
-0.015089
-0.014996
-0.014902
-0.014809
-0.014716
-0.014623
-0.014529
-0.014436
-0.014342
-0.014249
-0.014155
-0.014062
-0.013968
-0.013875
-0.013781
-0.013687
-0.013594
-0.013500
-0.013406
-0.013313
-0.013219
-0.013125
-0.013031
-0.012937
-0.012843
-0.012749
-0.012655
-0.012561
-0.012467
-0.012373
-0.012279
-0.012185
-0.012090
-0.011996
-0.011902
-0.011808
-0.011713
-0.011619
-0.011525
-0.011430
-0.011336
-0.011241
-0.011147
-0.011052
-0.010958
-0.010863
-0.010769
-0.010674
-0.010579
-0.010485
-0.010390
-0.010295
-0.010201
-0.010106
-0.010011
-0.009916
-0.009821
-0.009727
-0.009632
-0.009537
-0.009442
-0.009347
-0.009252
-0.009157
-0.009062
-0.008967
-0.008872
-0.008777
-0.008682
-0.008587
-0.008492
-0.008396
-0.008301
-0.008206
-0.008111
-0.008016
-0.007920
-0.007825
-0.007730
-0.007635
-0.007539
-0.007444
-0.007349
-0.007253
-0.007158
-0.007062
-0.006967
-0.006872
-0.006776
-0.006681
-0.006585
-0.006490
-0.006394
-0.006299
-0.006203
-0.006108
-0.006012
-0.005916
-0.005821
-0.005725
-0.005630
-0.005534
-0.005438
-0.005343
-0.005247
-0.005151
-0.005056
-0.004960
-0.004864
-0.004769
-0.004673
-0.004577
-0.004481
-0.004386
-0.004290
-0.004194
-0.004098
-0.004002
-0.003907
-0.003811
-0.003715
-0.003619
-0.003523
-0.003427
-0.003332
-0.003236
-0.003140
-0.003044
-0.002948
-0.002852
-0.002756
-0.002660
-0.002564
-0.002468
-0.002373
-0.002277
-0.002181
-0.002085
-0.001989
-0.001893
-0.001797
-0.001701
-0.001605
-0.001509
-0.001413
-0.001317
-0.001221
-0.001125
-0.001029
-0.000933
-0.000837
-0.000741
-0.000645
-0.000549
-0.000453
-0.000357
-0.000261
-0.000165
-0.000069
0.000027
0.000123
0.000219
0.000315
0.000411
0.000507
0.000603
0.000699
0.000795
0.000891
0.000987
0.001083
0.001179
0.001275
0.001371
0.001468
0.001564
0.001660
0.001756
0.001852
0.001948
0.002044
0.002140
0.002236
0.002332
0.002428
0.002524
0.002620
0.002716
0.002812
0.002908
0.003004
0.003100
0.003196
0.003292
0.003388
0.003483
0.003579
0.003675
0.003771
0.003867
0.003963
0.004059
0.004155
0.004251
0.004347
0.004443
0.004539
0.004635
0.004731
0.004827
0.004922
0.005018
0.005114
0.005210
0.005306
0.005402
0.005498
0.005593
0.005689
0.005785
0.005881
0.005977
0.006073
0.006168
0.006264
0.006360
0.006456
0.006552
0.006647
0.006743
0.006839
0.006935
0.007030
0.007126
0.007222
0.007317
0.007413
0.007509
0.007604
0.007700
0.007796
0.007891
0.007987
0.008083
0.008178
0.008274
0.008369
0.008465
0.008561
0.008656
0.008752
0.008847
0.008943
0.009038
0.009134
0.009229
0.009325
0.009420
0.009516
0.009611
0.009707
0.009802
0.009898
0.009993
0.010089
0.010184
0.010279
0.010375
0.010470
0.010565
0.010661
0.010756
0.010851
0.010947
0.011042
0.011137
0.011233
0.011328
0.011423
0.011518
0.011614
0.011709
0.011804
0.011899
0.011994
0.012090
0.012185
0.012280
0.012375
0.012470
0.012565
0.012660
0.012755
0.012850
0.012946
0.013041
0.013136
0.013231
0.013326
0.013421
0.013516
0.013611
0.013706
0.013800
0.013895
0.013990
0.014085
0.014180
0.014275
0.014370
0.014465
0.014559
0.014654
0.014749
0.014844
0.014939
0.015033
0.015128
0.015223
0.015318
0.015412
0.015507
0.015602
0.015696
0.015791
0.015886
0.015980
0.016075
0.016169
0.016264
0.016359
0.016453
0.016548
0.016642
0.016737
0.016831
0.016926
0.017020
0.017114
0.017209
0.017303
0.017398
0.017492
0.017587
0.017681
0.017775
0.017870
0.017964
0.018058
0.018152
0.018247
0.018341
0.018435
0.018529
0.018624
0.018718
0.018812
0.018906
0.019000
0.019095
0.019189
0.019283
0.019377
0.019471
0.019565
0.019659
0.019753
0.019847
0.019941
0.020035
0.020129
0.020223
0.020317
0.020411
0.020505
0.020599
0.020693
0.020787
0.020880
0.020974
0.021068
0.021162
0.021256
0.021349
0.021443
0.021537
0.021631
0.021725
0.021818
0.021912
0.022006
0.022099
0.022193
0.022287
0.022380
0.022474
0.022567
0.022661
0.022755
0.022848
0.022942
0.023035
0.023129
0.023222
0.023316
0.023409
0.023503
0.023596
0.023690
0.023783
0.023876
0.023970
0.024063
0.024157
0.024250
0.024343
0.024437
0.024530
0.024623
0.024716
0.024810
0.024903
0.024996
0.025089
0.025183
0.025276
0.025369
0.025462
0.025555
0.025648
0.025742
0.025835
0.025928
0.026021
0.026114
0.026207
0.026300
0.026393
0.026486
0.026579
0.026672
0.026765
0.026858
0.026951
0.027044
0.027137
0.027230
0.027323
0.027416
0.027508
0.027601
0.027694
0.027787
0.027880
0.027973
0.028065
0.028158
0.028251
0.028344
0.028437
0.028529
0.028622
0.028715
0.028807
0.028900
0.028993
0.029086
0.029178
0.029271
0.029363
0.029456
0.029549
0.029641
0.029734
0.029826
0.029919
0.030012
0.030104
0.030197
0.030289
0.030382
0.030474
0.030567
0.030659
0.030752
0.030844
0.030936
0.031029
0.031121
0.031214
0.031306
0.031398
0.031491
0.031583
0.031676
0.031768
0.031860
0.031953
0.032045
0.032137
0.032229
0.032322
0.032506
0.032598
0.032691
0.032783
0.032875
0.032967
0.033059
0.033151
0.033243
0.033335
0.033427
0.033519
0.033612
0.033704
0.033796
0.033888
0.033980
0.034072
0.034164
0.034256
0.034348
0.034440
0.034532
0.034623
0.034715
0.034807
0.034899
0.034991
0.035083
0.035175
0.035267
0.035359
0.035451
0.035543
0.035634
0.035726
0.035818
0.035910
0.036002
0.036094
0.036185
0.036277
0.036369
0.036461
0.036553
0.036644
0.036736
0.036828
0.036920
0.037011
0.037103
0.037195
0.037287
0.037378
0.037470
0.037562
0.037653
0.037745
0.037837
0.037928
0.038020
0.038112
0.038203
0.038295
0.038387
0.038478
0.038570
0.038662
0.038753
0.038845
0.038936
0.039028
0.039120
0.039211
0.039303
0.039394
0.039486
0.039577
0.039669
0.039760
0.039852
0.039944
0.040035
0.040127
0.040218
0.040310
0.040401
0.040493
0.040584
0.040676
0.040767
0.040859
0.040950
0.041042
0.041133
0.041224
0.041316
0.041407
0.041499
0.041590
0.041682
0.041773
0.041865
0.041956
0.042047
0.042139
0.042230
0.042322
0.042413
0.042505
0.042596
0.042687
0.042779
0.042870
0.042961
0.043053
0.043144
0.043236
0.043327
0.043418
0.043510
0.043601
0.043692
0.043784
0.043875
0.043966
0.044058
0.044149
0.044240
0.044332
0.044423
0.044514
0.044606
0.044697
0.044788
0.044880
0.044971
0.045062
0.045154
0.045245
0.045336
0.045428
0.045519
0.045610
0.045702
0.045793
0.045884
0.045975
0.046067
0.046158
0.046249
0.046341
0.046432
0.046523
0.046614
0.046706
0.046797
0.046888
0.046980
0.047071
0.047162
0.047253
0.047345
0.047436
0.047527
0.047618
0.047710
0.047801
0.047892
0.047983
0.048075
0.048166
0.048257
0.048349
0.048440
0.048531
0.048622
0.048714
0.048805
0.048896
0.048987
0.049079
0.049170
0.049261
0.049352
0.049444
0.049535
0.049626
0.049717
0.049809
0.049900
0.049991
0.050082
0.050174
0.050265
0.050356
0.050448
0.050539
0.050630
0.050721
0.050813
0.050904
0.050995
0.051086
0.051178
0.051269
0.051360
0.051451
0.051543
0.051634
0.051725
0.051817
0.051908
0.051999
0.052090
0.052182
0.052273
0.052364
0.052456
0.052547
0.052638
0.052729
0.052821
0.052912
0.053003
0.053095
0.053186
0.053277
0.053368
0.053460
0.053551
0.053642
0.053734
0.053825
0.053916
0.054008
0.054099
0.054190
0.054282
0.054373
0.054464
0.054556
0.054647
0.054738
0.054830
0.054921
0.055012
0.055104
0.055195
0.055286
0.055378
0.055469
0.055560
0.055652
0.055743
0.055834
0.055926
0.056017
0.056109
0.056200
0.056291
0.056383
0.056474
0.056565
0.056657
0.056748
0.056840
0.056931
0.057022
0.057114
0.057205
0.057297
0.057388
0.057480
0.057571
0.057662
0.057754
0.057845
0.057937
0.058028
0.058120
0.058211
0.058302
0.058394
0.058485
0.058577
0.058668
0.058760
0.058851
0.058943
0.059034
0.059126
0.059217
0.059309
0.059400
0.059492
0.059583
0.059675
0.059766
0.059858
0.059949
0.060041
0.060132
0.060224
0.060315
0.060407
0.060498
0.060590
0.060681
0.060773
0.060865
0.060956
0.061048
0.061139
0.061231
0.061322
0.061414
0.061506
0.061597
0.061689
0.061780
0.061872
0.061964
0.062055
0.062147
0.062238
0.062330
0.062422
0.062513
0.062605
0.062697
0.062788
0.062880
0.062972
0.063063
0.063155
0.063246
0.063338
0.063430
0.063522
0.063613
0.063705
0.063797
0.063888
0.063980
0.064072
0.064163
0.064255
0.064347
0.064439
0.064530
0.064622
0.064714
0.046117
0.046162
0.046021
0.041238
0.041306
0.041370
-0.033333
-0.033285
-0.033426
-0.033485
-0.017550
0.052397
0.052562
0.052597
0.052697
0.044261
0.044114
0.044160
-0.017897
-0.017801
-0.017917
-0.017749
-0.048411
-0.048479
-0.048310
-0.048332
-0.018497
-0.018427
-0.018358
0.018087
0.017941
0.018023
0.018072
-0.030303
-0.031096
-0.036631
-0.037740
0.012782
0.012638
0.012694
0.012681
-0.014104
-0.014407
-0.014148
-0.014162
0.033582
0.033306
0.033023
0.033939
-0.048629
-0.048573
-0.048406
0.015721
0.015703
0.015873
0.015951
0.000786
-0.002984
-0.002082
-0.005207
0.007743
0.007949
0.008030
-0.025863
-0.024646
-0.025916
-0.004270
-0.004176
-0.004406
-0.004303
0.040789
0.041277
0.041228
0.041731
-0.001066
-0.000735
-0.000872
-0.000398
0.013713
0.013859
0.013599
0.013928
0.012778
0.012882
0.012700
0.012967
-0.006952
-0.006976
-0.007102
-0.007177
0.045771
0.045709
0.045538
-0.019234
-0.019503
-0.019317
0.007755
0.045475
0.045307
0.045302
0.045555
0.020953
0.021118
0.021042
-0.000320
-0.000284
-0.000423
0.021106
0.012640
0.012175
0.012009
-0.000173
0.024203
0.024100
0.023880
0.038038
0.038201
0.038012
0.038274
0.023451
0.023544
0.023379
0.023602
0.023823
-0.041794
-0.041984
-0.041886
0.053908
0.053753
0.054009
-0.042068
-0.029202
-0.029326
-0.029444
-0.029089
-0.023529
-0.023420
-0.023806
-0.023539
-0.013164
-0.013447
-0.013243
0.006903
0.007062
0.006860
0.007003
-0.013491
0.021052
0.021172
0.020954
-0.022340
-0.022561
-0.022353
-0.024424
-0.024721
-0.024953
0.021169
0.041918
0.041960
0.041759
-0.037298
-0.037236
-0.037158
0.044902
0.045076
0.045088
0.044933
0.026429
0.026183
0.026282
0.025922
0.000821
-0.000462
0.000855
0.000530
0.019863
0.020391
0.018996
0.021194
-0.035245
-0.035142
-0.035450
-0.034937
0.061003
0.060883
-0.050807
-0.050379
-0.050134
-0.049661
-0.032937
-0.032077
-0.030104
-0.035444
0.063029
0.063076
0.063295
-0.037994
-0.034971
-0.038193
-0.038408
-0.037609
0.043507
0.043475
0.043253
0.017042
0.016954
0.017161
0.017094
0.001240
0.000858
0.001132
-0.049176
-0.049156
-0.049429
-0.049203
0.063115
0.062752
0.063224
0.062638
0.054011
0.054172
0.054344
0.043192
0.026014
0.025832
0.025645
0.025502
-0.005790
-0.005684
-0.005560
-0.005871
-0.010430
-0.011033
-0.012698
0.055139
0.055091
0.054619
0.054811
-0.013966
-0.013614
-0.015306
-0.014585
0.025554
0.025573
0.025406
0.014839
0.015348
0.019622
0.010793
-0.043509
-0.043735
-0.043027
-0.044522
0.058206
0.058342
0.013240
0.013221
0.013316
0.025716
0.001652
0.002326
0.002784
0.003153
-0.023721
-0.023957
-0.023854
-0.023836
-0.023000
-0.026532
-0.025403
-0.023119
-0.005324
-0.005050
-0.005522
-0.005460
-0.028553
-0.027660
-0.026995
-0.026291
0.057362
0.057681
0.057885
0.057347
-0.026244
-0.026204
-0.026121
-0.054369
-0.056681
-0.054451
-0.054681
-0.046199
-0.046329
-0.046352
-0.008521
-0.008554
-0.017867
-0.017892
-0.019019
-0.016847
0.023939
0.022507
0.022704
0.021115
0.003351
0.009199
0.008430
0.007491
0.031354
0.031473
0.030583
0.030584
0.051138
0.049950
0.050347
0.051050
-0.021942
-0.021857
-0.022571
-0.022704
-0.018602
-0.018524
-0.018414
-0.018771
0.034993
0.035543
0.035126
0.035470
0.034485
0.034425
0.035093
-0.004338
-0.004171
-0.004133
-0.004329
0.060456
0.059782
0.060402
0.045511
-0.011502
-0.012773
-0.012130
-0.012051
0.050376
0.050424
0.050126
0.050238
0.009727
0.009906
0.009773
0.009982
0.023947
0.024226
-0.006549
-0.006069
-0.005659
-0.005312
-0.001724
-0.001706
-0.000122
-0.003351
-0.000663
-0.000564
-0.000491
0.056197
0.056004
0.055985
-0.033679
-0.033781
-0.033289
-0.033252
-0.000448
-0.028676
-0.026827
-0.028216
0.051262
0.051501
0.051891
0.052122
0.047936
0.047835
0.047817
0.047656
0.022728
0.022227
0.022097
0.023207
0.019610
0.019442
0.019364
0.019634
0.019509
0.019719
0.025088
0.024346
0.024829
-0.003453
-0.003599
-0.003425
0.014258
0.012346
0.016877
-0.003494
0.032627
0.033004
0.031845
0.027726
0.027938
0.027927
0.027789
0.041498
0.041533
0.041283
-0.028859
-0.025637
0.041711
0.039388
0.039325
0.039219
0.039169
-0.022714
-0.022624
-0.022754
0.050600
0.013627
0.013697
0.013273
0.013205
-0.041315
-0.039997
-0.040479
-0.039387
0.016592
0.016569
0.016423
0.016737
-0.027361
-0.026865
-0.028113
-0.026660
-0.033205
-0.033901
-0.031210
-0.035697
0.035388
0.035309
0.035549
-0.028679
-0.028432
-0.029068
0.018240
0.018197
0.017545
0.017115
0.044246
0.036669
0.036488
0.036664
0.027503
0.028419
0.027650
0.028282
-0.006917
-0.007667
-0.007833
0.036484
0.038708
0.039006
0.038713
0.019480
0.019918
0.020131
0.020571
0.024114
0.022536
-0.013712
-0.014211
-0.013526
-0.014656
-0.038042
-0.039853
-0.039855
-0.037028
-0.028785
-0.029221
0.011921
0.011831
0.012522
0.038872
-0.008411
-0.006880
-0.006283
-0.008811
0.019179
0.021067
0.028774
0.028880
0.028806
-0.028530
-0.028120
-0.027990
0.028981
-0.022962
-0.022922
-0.022815
0.040665
0.040476
0.040587
0.040399
-0.015188
-0.015119
-0.015054
-0.026849
-0.031058
0.007260
0.007219
0.007127
0.043230
0.043195
0.043088
0.043032
0.028904
0.029016
0.029092
0.010502
0.009921
0.009766
0.008927
0.027981
0.027836
0.027898
0.027745
0.024412
0.024483
0.024344
0.038600
0.038728
0.038801
0.027964
0.027780
0.028839
0.038861
-0.034847
-0.034851
-0.034701
0.027050
0.020793
0.020361
0.020994
0.028869
-0.037077
-0.037017
-0.037112
0.014557
0.011409
0.012688
-0.034996
0.036297
0.036304
0.036507
0.052030
0.052103
0.051936
0.052030