# vtk DataFile Version 2.0
Test
ASCII
DATASET POLYDATA
POINTS 20431 float
0.000000 0.000000 0.000000
2.000000 0.000000 0.000000
2.000000 4.000000 0.000000
0.000000 4.000000 0.000000
0.000000 0.500000 0.000000
1.500000 2.000000 0.000000
2.000000 2.500000 0.000000
0.400000 0.000000 0.000000
0.800000 0.000000 0.000000
1.200000 0.000000 0.000000
1.600000 0.000000 0.000000
2.000000 0.362557 0.000000
2.000000 0.672798 0.000000
2.000000 0.938272 0.000000
2.000000 1.165439 0.000000
2.000000 1.359826 0.000000
2.000000 1.526163 0.000000
2.000000 1.668499 0.000000
2.000000 1.790295 0.000000
2.000000 1.894517 0.000000
2.000000 1.983700 0.000000
2.000000 2.060013 0.000000
2.000000 2.125315 0.000000
2.000000 2.181194 0.000000
2.000000 2.229010 0.000000
2.000000 2.269926 0.000000
2.000000 2.304938 0.000000
2.000000 2.334898 0.000000
2.000000 2.360534 0.000000
2.000000 2.382472 0.000000
2.000000 2.401244 0.000000
2.000000 2.417307 0.000000
2.000000 2.431052 0.000000
2.000000 2.442814 0.000000
2.000000 2.452878 0.000000
2.000000 2.461491 0.000000
2.000000 2.468860 0.000000
2.000000 2.475167 0.000000
2.000000 2.480563 0.000000
2.000000 2.485180 0.000000
2.000000 2.489132 0.000000
2.000000 2.492513 0.000000
2.000000 2.495406 0.000000
2.000000 2.497882 0.000000
2.000000 2.502286 0.000000
2.000000 2.505266 0.000000
2.000000 2.509150 0.000000
2.000000 2.514212 0.000000
2.000000 2.520809 0.000000
2.000000 2.529407 0.000000
2.000000 2.540613 0.000000
2.000000 2.555218 0.000000
2.000000 2.574253 0.000000
2.000000 2.599061 0.000000
2.000000 2.631395 0.000000
2.000000 2.673536 0.000000
2.000000 2.728460 0.000000
2.000000 2.800043 0.000000
2.000000 2.893339 0.000000
2.000000 3.014933 0.000000
2.000000 3.173410 0.000000
2.000000 3.379956 0.000000
2.000000 3.649152 0.000000
1.600000 4.000000 0.000000
1.200000 4.000000 0.000000
0.800000 4.000000 0.000000
0.400000 4.000000 0.000000
0.000000 3.624996 0.000000
0.000000 3.289970 0.000000
0.000000 2.990661 0.000000
0.000000 2.723261 0.000000
0.000000 2.484368 0.000000
0.000000 2.270943 0.000000
0.000000 2.080271 0.000000
0.000000 1.909926 0.000000
0.000000 1.757741 0.000000
0.000000 1.621780 0.000000
0.000000 1.500314 0.000000
0.000000 1.391797 0.000000
0.000000 1.294849 0.000000
0.000000 1.208237 0.000000
0.000000 1.130858 0.000000
0.000000 1.061728 0.000000
0.000000 0.999968 0.000000
0.000000 0.944792 0.000000
0.000000 0.895499 0.000000
0.000000 0.851460 0.000000
0.000000 0.812117 0.000000
0.000000 0.776968 0.000000
0.000000 0.745565 0.000000
0.000000 0.717511 0.000000
0.000000 0.692448 0.000000
0.000000 0.670056 0.000000
0.000000 0.650052 0.000000
0.000000 0.632180 0.000000
0.000000 0.616213 0.000000
0.000000 0.601949 0.000000
0.000000 0.589205 0.000000
0.000000 0.577820 0.000000
0.000000 0.567649 0.000000
0.000000 0.558562 0.000000
0.000000 0.550444 0.000000
0.000000 0.543191 0.000000
0.000000 0.536712 0.000000
0.000000 0.530923 0.000000
0.000000 0.525751 0.000000
0.000000 0.521131 0.000000
0.000000 0.517003 0.000000
0.000000 0.513315 0.000000
0.000000 0.510021 0.000000
0.000000 0.507078 0.000000
0.000000 0.504448 0.000000
0.000000 0.502099 0.000000
0.000000 0.497804 0.000000
0.000000 0.494785 0.000000
0.000000 0.490633 0.000000
0.000000 0.484924 0.000000
0.000000 0.477074 0.000000
0.000000 0.466279 0.000000
0.000000 0.451436 0.000000
0.000000 0.431025 0.000000
0.000000 0.402959 0.000000
0.000000 0.364366 0.000000
0.000000 0.311297 0.000000
0.000000 0.238324 0.000000
0.000000 0.137980 0.000000
0.001414 0.501414 0.000000
0.002828 0.502828 0.000000
0.004241 0.504241 0.000000
0.005655 0.505655 0.000000
0.007069 0.507069 0.000000
0.008483 0.508483 0.000000
0.009896 0.509896 0.000000
0.011310 0.511310 0.000000
0.012724 0.512724 0.000000
0.014138 0.514138 0.000000
0.015551 0.515551 0.000000
0.016965 0.516965 0.000000
0.018379 0.518379 0.000000
0.019793 0.519793 0.000000
0.021206 0.521206 0.000000
0.022620 0.522620 0.000000
0.024034 0.524034 0.000000
0.025448 0.525448 0.000000
0.026861 0.526861 0.000000
0.028275 0.528275 0.000000
0.029689 0.529689 0.000000
0.031103 0.531103 0.000000
0.032516 0.532516 0.000000
0.033930 0.533930 0.000000
0.035344 0.535344 0.000000
0.036758 0.536758 0.000000
0.038172 0.538172 0.000000
0.039585 0.539585 0.000000
0.040999 0.540999 0.000000
0.042413 0.542413 0.000000
0.043827 0.543827 0.000000
0.045240 0.545240 0.000000
0.046654 0.546654 0.000000
0.048068 0.548068 0.000000
0.049482 0.549482 0.000000
0.050895 0.550895 0.000000
0.052309 0.552309 0.000000
0.053723 0.553723 0.000000
0.055137 0.555137 0.000000
0.056550 0.556550 0.000000
0.057964 0.557964 0.000000
0.059378 0.559378 0.000000
0.060792 0.560792 0.000000
0.062205 0.562205 0.000000
0.063619 0.563619 0.000000
0.065033 0.565033 0.000000
0.066447 0.566447 0.000000
0.067861 0.567861 0.000000
0.069274 0.569274 0.000000
0.070688 0.570688 0.000000
0.072102 0.572102 0.000000
0.073516 0.573516 0.000000
0.074929 0.574929 0.000000
0.076343 0.576343 0.000000
0.077757 0.577757 0.000000
0.079171 0.579171 0.000000
0.080584 0.580584 0.000000
0.081998 0.581998 0.000000
0.083412 0.583412 0.000000
0.084826 0.584826 0.000000
0.086239 0.586239 0.000000
0.087653 0.587653 0.000000
0.089067 0.589067 0.000000
0.090481 0.590481 0.000000
0.091894 0.591894 0.000000
0.093308 0.593308 0.000000
0.094722 0.594722 0.000000
0.096136 0.596136 0.000000
0.097549 0.597549 0.000000
0.098963 0.598963 0.000000
0.100377 0.600377 0.000000
0.101791 0.601791 0.000000
0.103205 0.603205 0.000000
0.104618 0.604618 0.000000
0.106032 0.606032 0.000000
0.107446 0.607446 0.000000
0.108860 0.608860 0.000000
0.110273 0.610273 0.000000
0.111687 0.611687 0.000000
0.113101 0.613101 0.000000
0.114515 0.614515 0.000000
0.115928 0.615928 0.000000
0.117342 0.617342 0.000000
0.118756 0.618756 0.000000
0.120170 0.620170 0.000000
0.121583 0.621583 0.000000
0.122997 0.622997 0.000000
0.124411 0.624411 0.000000
0.125825 0.625825 0.000000
0.127238 0.627238 0.000000
0.128652 0.628652 0.000000
0.130066 0.630066 0.000000
0.131480 0.631480 0.000000
0.132893 0.632893 0.000000
0.134307 0.634307 0.000000
0.135721 0.635721 0.000000
0.137135 0.637135 0.000000
0.138549 0.638549 0.000000
0.139962 0.639962 0.000000
0.141376 0.641376 0.000000
0.142790 0.642790 0.000000
0.144204 0.644204 0.000000
0.145617 0.645617 0.000000
0.147031 0.647031 0.000000
0.148445 0.648445 0.000000
0.149859 0.649859 0.000000
0.151272 0.651272 0.000000
0.152686 0.652686 0.000000
0.154100 0.654100 0.000000
0.155514 0.655514 0.000000
0.156927 0.656927 0.000000
0.158341 0.658341 0.000000
0.159755 0.659755 0.000000
0.161169 0.661169 0.000000
0.162582 0.662582 0.000000
0.163996 0.663996 0.000000
0.165410 0.665410 0.000000
0.166824 0.666824 0.000000
0.168238 0.668238 0.000000
0.169651 0.669651 0.000000
0.171065 0.671065 0.000000
0.172479 0.672479 0.000000
0.173893 0.673893 0.000000
0.175306 0.675306 0.000000
0.176720 0.676720 0.000000
0.178134 0.678134 0.000000
0.179548 0.679548 0.000000
0.180961 0.680961 0.000000
0.182375 0.682375 0.000000
0.183789 0.683789 0.000000
0.185203 0.685203 0.000000
0.186616 0.686616 0.000000
0.188030 0.688030 0.000000
0.189444 0.689444 0.000000
0.190858 0.690858 0.000000
0.192271 0.692271 0.000000
0.193685 0.693685 0.000000
0.195099 0.695099 0.000000
0.196513 0.696513 0.000000
0.197926 0.697926 0.000000
0.199340 0.699340 0.000000
0.200754 0.700754 0.000000
0.202168 0.702168 0.000000
0.203582 0.703582 0.000000
0.204995 0.704995 0.000000
0.206409 0.706409 0.000000
0.207823 0.707823 0.000000
0.209237 0.709237 0.000000
0.210650 0.710650 0.000000
0.212064 0.712064 0.000000
0.213478 0.713478 0.000000
0.214892 0.714892 0.000000
0.216305 0.716305 0.000000
0.217719 0.717719 0.000000
0.219133 0.719133 0.000000
0.220547 0.720547 0.000000
0.221960 0.721960 0.000000
0.223374 0.723374 0.000000
0.224788 0.724788 0.000000
0.226202 0.726202 0.000000
0.227615 0.727615 0.000000
0.229029 0.729029 0.000000
0.230443 0.730443 0.000000
0.231857 0.731857 0.000000
0.233270 0.733270 0.000000
0.234684 0.734684 0.000000
0.236098 0.736098 0.000000
0.237512 0.737512 0.000000
0.238926 0.738926 0.000000
0.240339 0.740339 0.000000
0.241753 0.741753 0.000000
0.243167 0.743167 0.000000
0.244581 0.744581 0.000000
0.245994 0.745994 0.000000
0.247408 0.747408 0.000000
0.248822 0.748822 0.000000
0.250236 0.750236 0.000000
0.251649 0.751649 0.000000
0.253063 0.753063 0.000000
0.254477 0.754477 0.000000
0.255891 0.755891 0.000000
0.257304 0.757304 0.000000
0.258718 0.758718 0.000000
0.260132 0.760132 0.000000
0.261546 0.761546 0.000000
0.262959 0.762959 0.000000
0.264373 0.764373 0.000000
0.265787 0.765787 0.000000
0.267201 0.767201 0.000000
0.268615 0.768615 0.000000
0.270028 0.770028 0.000000
0.271442 0.771442 0.000000
0.272856 0.772856 0.000000
0.274270 0.774270 0.000000
0.275683 0.775683 0.000000
0.277097 0.777097 0.000000
0.278511 0.778511 0.000000
0.279925 0.779925 0.000000
0.281338 0.781338 0.000000
0.282752 0.782752 0.000000
0.284166 0.784166 0.000000
0.285580 0.785580 0.000000
0.286993 0.786993 0.000000
0.288407 0.788407 0.000000
0.289821 0.789821 0.000000
0.291235 0.791235 0.000000
0.292648 0.792648 0.000000
0.294062 0.794062 0.000000
0.295476 0.795476 0.000000
0.296890 0.796890 0.000000
0.298303 0.798303 0.000000
0.299717 0.799717 0.000000
0.301131 0.801131 0.000000
0.302545 0.802545 0.000000
0.303959 0.803959 0.000000
0.305372 0.805372 0.000000
0.306786 0.806786 0.000000
0.308200 0.808200 0.000000
0.309614 0.809614 0.000000
0.311027 0.811027 0.000000
0.312441 0.812441 0.000000
0.313855 0.813855 0.000000
0.315269 0.815269 0.000000
0.316682 0.816682 0.000000
0.318096 0.818096 0.000000
0.319510 0.819510 0.000000
0.320924 0.820924 0.000000
0.322337 0.822337 0.000000
0.323751 0.823751 0.000000
0.325165 0.825165 0.000000
0.326579 0.826579 0.000000
0.327992 0.827992 0.000000
0.329406 0.829406 0.000000
0.330820 0.830820 0.000000
0.332234 0.832234 0.000000
0.333648 0.833648 0.000000
0.335061 0.835061 0.000000
0.336475 0.836475 0.000000
0.337889 0.837889 0.000000
0.339303 0.839303 0.000000
0.340716 0.840716 0.000000
[...]
POINT_DATA 20431
SCALARS UX float 1
LOOKUP_TABLE default
-0.000000
0.000000
-0.003007
-0.009931
-0.004382
-0.000743
-0.001378
-0.000000
-0.000000
0.000000
-0.000000
0.002588
0.003478
0.003913
0.004118
0.004182
0.004096
0.003838
0.003400
0.002825
0.002165
0.001536
0.000980
0.000520
0.000147
-0.000147
-0.000381
-0.000567
-0.000716
-0.000837
-0.000935
-0.001015
-0.001081
-0.001135
-0.001180
-0.001218
-0.001250
-0.001277
-0.001299
-0.001318
-0.001334
-0.001348
-0.001359
-0.001369
-0.001387
-0.001398
-0.001413
-0.001432
-0.001457
-0.001489
-0.001528
-0.001579
-0.001642
-0.001719
-0.001811
-0.001922
-0.002051
-0.002194
-0.002354
-0.002521
-0.002678
-0.002843
-0.002955
-0.004582
-0.006048
-0.007387
-0.008662
-0.009818
-0.009589
-0.009281
-0.008983
-0.008765
-0.008654
-0.008662
-0.008758
-0.008923
-0.009111
-0.009306
-0.009489
-0.009652
-0.009791
-0.009904
-0.009993
-0.010061
-0.010110
-0.010143
-0.010162
-0.010170
-0.010168
-0.010160
-0.010145
-0.010126
-0.010100
-0.010068
-0.010033
-0.009998
-0.009968
-0.009945
-0.009924
-0.009899
-0.009872
-0.009841
-0.009774
-0.009717
-0.009636
-0.009580
-0.009410
-0.009194
-0.008788
-0.008480
-0.008409
-0.007174
-0.005798
-0.003138
-0.002967
-0.002818
-0.002716
-0.002626
-0.002555
-0.002473
-0.002387
-0.002294
-0.002172
-0.001987
-0.001696
-0.001166
-0.005065
-0.005683
-0.005337
-0.005105
-0.004588
-0.004044
-0.003976
-0.004003
-0.003949
-0.003930
-0.003914
-0.004313
-0.004242
-0.003575
-0.004010
-0.004544
-0.005306
-0.003482
-0.005253
-0.005204
-0.005178
-0.005150
-0.005264
-0.005326
-0.005353
-0.005334
-0.005373
-0.005326
-0.005282
-0.005327
-0.005325
-0.005419
-0.005470
-0.005448
-0.005406
-0.005322
-0.005295
-0.005280
-0.005257
-0.005242
-0.005242
-0.005198
-0.005276
-0.005236
-0.005045
-0.005220
-0.005075
-0.005174
-0.005169
-0.005202
-0.005165
-0.005230
-0.005181
-0.005176
-0.005182
-0.005213
-0.005257
-0.005216
-0.005191
-0.005267
-0.005189
-0.005226
-0.005222
-0.005211
-0.005178
-0.005171
-0.005177
-0.005191
-0.005240
-0.005250
-0.005236
-0.005248
-0.005310
-0.005277
-0.005265
-0.005330
-0.005316
-0.005290
-0.005325
-0.005305
-0.005268
-0.005225
-0.005216
-0.005252
-0.005186
-0.005160
-0.005215
-0.005206
-0.005182
-0.005150
-0.005173
-0.005154
-0.005149
-0.005211
-0.005258
-0.005200
-0.005102
-0.005495
-0.005476
-0.005511
-0.005557
-0.005533
-0.005524
-0.005775
-0.005543
-0.005384
-0.005578
-0.005545
-0.005524
-0.005640
-0.005601
-0.005571
-0.005509
-0.005593
-0.005592
-0.005641
-0.005563
-0.005428
-0.005485
-0.005480
-0.005487
-0.005500
-0.005414
-0.005500
-0.005519
-0.005493
-0.005493
-0.005498
-0.005598
-0.005524
-0.005445
-0.005787
-0.005922
-0.005806
-0.005857
-0.005846
-0.005794
-0.005843
-0.005851
-0.005825
-0.005910
-0.005723
-0.005744
-0.005806
-0.005701
-0.005750
-0.005695
-0.005778
-0.005803
-0.005683
-0.005052
-0.005064
-0.005534
-0.005618
-0.005519
-0.005622
-0.005461
-0.005432
-0.005476
-0.005607
-0.005700
-0.005658
-0.005576
-0.004909
-0.004941
-0.004942
-0.004886
-0.006009
-0.005075
-0.004953
-0.004853
-0.004932
-0.004732
-0.004811
-0.005544
-0.005572
-0.005773
-0.005728
-0.005756
-0.005758
-0.005387
-0.005303
-0.005633
-0.005898
-0.005853
-0.005917
-0.005915
-0.005850
-0.005810
-0.005188
-0.005165
-0.005343
-0.006455
-0.006397
-0.006386
-0.006381
-0.006451
-0.006326
-0.006272
-0.006363
-0.006291
-0.006275
-0.006372
-0.006338
-0.006230
-0.006152
-0.006116
-0.005813
-0.005909
-0.005929
-0.005868
-0.005662
-0.005729
-0.005819
-0.005738
-0.005709
-0.005682
-0.005684
-0.005668
-0.005670
-0.005414
-0.005630
-0.005569
-0.005561
-0.005533
-0.005502
-0.005521
-0.005535
-0.005517
-0.005486
-0.005507
-0.005460
-0.005462
-0.005435
-0.005461
-0.005365
-0.005451
-0.005396
-0.005382
-0.005383
-0.005339
-0.005288
-0.005342
-0.005293
-0.005319
-0.005136
-0.005229
-0.005225
-0.005159
-0.005249
-0.005249
-0.005234
-0.005349
-0.005338
-0.005433
-0.005326
-0.005021
-0.005025
-0.004968
-0.004996
-0.004995
-0.005035
-0.004966
-0.004841
-0.004552
-0.004603
-0.004552
-0.004744
-0.004732
-0.004632
-0.004886
-0.005097
-0.005098
-0.005047
-0.004998
-0.005050
-0.005026
-0.005055
-0.005037
-0.004902
-0.004867
-0.004904
-0.004873
-0.004833
-0.004764
-0.004797
-0.004724
-0.004781
-0.004774
-0.004755
-0.004746
-0.004767
-0.004630
-0.004570
-0.004633
-0.004585
-0.004592
-0.004557
-0.004514
-0.004504
-0.004477
-0.004499
-0.004494
-0.004479
-0.004492
-0.004490
-0.004496
-0.004415
-0.004570
-0.004337
-0.004375
-0.004434
-0.004449
-0.004471
-0.004538
-0.004644
-0.004513
-0.004454
-0.004555
-0.004568
-0.004563
-0.004425
-0.004645
-0.005281
-0.005222
-0.005210
-0.005247
-0.004748
-0.004476
-0.004437
-0.004365
-0.004445
-0.004449
-0.004448
-0.004345
-0.004457
-0.004482
-0.004417
-0.004376
-0.004506
-0.004608
-0.004545
-0.004403
-0.004415
-0.004543
-0.004615
-0.004550
-0.004532
-0.004529
-0.004620
-0.004627
-0.004691
-0.004704
-0.004675
-0.004464
-0.004613
-0.004936
-0.004529
-0.004611
-0.004490
-0.004611
-0.004533
-0.004506
-0.004513
-0.004505
-0.004523
-0.004635
-0.004581
-0.004509
-0.004398
-0.004474
-0.004425
-0.004493
-0.004499
-0.004536
-0.004477
-0.004461
-0.004492
-0.004543
-0.004511
-0.004478
-0.004067
-0.004051
-0.004505
-0.004503
-0.004644
-0.004474
-0.004600
-0.004628
-0.004514
-0.004145
-0.004122
-0.004108
-0.004106
-0.004041
-0.004037
-0.003886
-0.003976
-0.003942
-0.003934
-0.003905
-0.003913
-0.003948
-0.003930
-0.003893
-0.003892
-0.003874
-0.003855
-0.003878
-0.003909
-0.003924
-0.003890
-0.003899
-0.003856
-0.003875
-0.003884
-0.003879
-0.003894
-0.003866
-0.003878
-0.003851
-0.003874
-0.003913
-0.003903
-0.003912
-0.003907
-0.004024
-0.003976
-0.003978
-0.004028
-0.004137
-0.004090
-0.004154
-0.004146
-0.004136
-0.004126
-0.004219
-0.004241
-0.004220
-0.004253
-0.004264
-0.004320
-0.004445
-0.004431
-0.004235
-0.004223
-0.004336
-0.004275
-0.004353
-0.004293
-0.004204
-0.004189
-0.004312
-0.004282
-0.004222
-0.004232
-0.004188
-0.004235
-0.004284
-0.004190
-0.004216
-0.004254
-0.004168
-0.004111
-0.004155
-0.004100
-0.004080
-0.004069
-0.004082
-0.004066
-0.004070
-0.003914
-0.004032
-0.004021
-0.003988
-0.004043
-0.004049
-0.004005
-0.004018
-0.004098
-0.004115
-0.004079
-0.004078
-0.003981
-0.003997
-0.003884
-0.004050
-0.003990
-0.003835
-0.003973
-0.003847
-0.003757
-0.003747
-0.003693
-0.003669
-0.003588
-0.004090
-0.004035
-0.003967
-0.004029
-0.003965
-0.003941
-0.003976
-0.003949
-0.003872
-0.003937
-0.003923
-0.003934
-0.003945
-0.003962
-0.003880
-0.003908
-0.003910
-0.003901
-0.003909
-0.003883
-0.003941
-0.003904
-0.003853
-0.003822
-0.003886
-0.003853
-0.003814
-0.003734
-0.003729
-0.003733
-0.003742
-0.003719
-0.003732
-0.003685
-0.003659
-0.003759
-0.003783
-0.003773
-0.003795
-0.003796
-0.003770
-0.003727
-0.003791
-0.003711
-0.003687
-0.003688
-0.003827
-0.003663
-0.003589
-0.003599
-0.003564
-0.003495
-0.003443
-0.003432
-0.003455
-0.003401
-0.003366
-0.003280
-0.003242
-0.003225
-0.003195
-0.003000
-0.002691
-0.003460
-0.003167
-0.003097
-0.003065
-0.003085
-0.003133
-0.003143
-0.003125
-0.003134
-0.003270
-0.003242
-0.003210
-0.003182
-0.003203
-0.003198
-0.003171
-0.003547
-0.003545
-0.003570
-0.003570
-0.003575
-0.003553
-0.003581
-0.003521
-0.003491
-0.003476
-0.003434
-0.003507
-0.003894
-0.003882
-0.003774
-0.003802
-0.003826
-0.003777
-0.003729
-0.003773
-0.003743
-0.003745
-0.003693
-0.003743
-0.003754
-0.003716
-0.003717
-0.003711
-0.003657
-0.003637
-0.003597
-0.003595
-0.003594
-0.003561
-0.003518
-0.003494
-0.003426
-0.003405
-0.003426
-0.003452
-0.003405
-0.003396
-0.003393
-0.003263
-0.002628
-0.003001
-0.002992
-0.002865
-0.002913
-0.002886
-0.002929
-0.002932
-0.002945
-0.002898
-0.002398
-0.002316
-0.002300
-0.002360
-0.002332
-0.002253
-0.002335
-0.002405
-0.002371
-0.002400
-0.002362
-0.002398
-0.002426
-0.002395
-0.002421
-0.002375
-0.002413
-0.002421
-0.002347
-0.002450
-0.002430
-0.002510
-0.002479
-0.002515
-0.002433
-0.003045
-0.003065
-0.003035
-0.002965
-0.003001
-0.002998
-0.002956
-0.002916
-0.002930
-0.003033
-0.002946
-0.002812
-0.002892
-0.002873
-0.002865
-0.002787
-0.003184
-0.003189
-0.003133
-0.003160
-0.003144
-0.003160
-0.002789
-0.002812
-0.002745
-0.002734
-0.002686
-0.002634
-0.002636
-0.002618
-0.002636
-0.002592
-0.002550
-0.002585
-0.002537
-0.002508
-0.002606
-0.002545
-0.002453
-0.002508
-0.002508
-0.002470
-0.002452
-0.002405
-0.002428
-0.002371
-0.002443
-0.002323
-0.002315
-0.002371
-0.002321
-0.002301
-0.002341
-0.002277
-0.002252
-0.002228
-0.002170
-0.003068
-0.003003
-0.002917
-0.002901
-0.002889
-0.002882
-0.002822
-0.002921
-0.002915
-0.002927
-0.002849
-0.002825
-0.002856
-0.002817
-0.002916
-0.002710
-0.002695
-0.002723
-0.002730
-0.002737
-0.002631
-0.002592
-0.002764
-0.002043
-0.002014
-0.002031
-0.002781
-0.002679
-0.002640
-0.002680
-0.002681
-0.002613
-0.002600
-0.002603
-0.002541
-0.002503
-0.002511
-0.002506
-0.002490
-0.002481
-0.002442
-0.002429
-0.002372
-0.002365
-0.002375
-0.002380
-0.002319
-0.002347
-0.002335
-0.002352
-0.002333
-0.002292
-0.002237
-0.002054
-0.002345
-0.002302
-0.002268
-0.002175
-0.002236
-0.002211
-0.002192
-0.002176
-0.002145
-0.002108
-0.002083
-0.002095
-0.002067
-0.002096
-0.001954
-0.001985
-0.001966
-0.001968
-0.001973
-0.002007
-0.001836
-0.001783
-0.001798
-0.001740
-0.001965
-0.001944
-0.001929
-0.001894
-0.001953
-0.001890
-0.001839
-0.001672
-0.001790
-0.001751
-0.001679
-0.002177
-0.002084
-0.002045
-0.002072
-0.002044
-0.002035
-0.002038
-0.001956
-0.002044
-0.002123
-0.002082
-0.002067
-0.002093
-0.001773
-0.001691
-0.001717
-0.001665
-0.001710
-0.001726
-0.001736
-0.001695
-0.001678
-0.001711
-0.001692
-0.001671
-0.001648
-0.001653
-0.001644
-0.001811
-0.001826
-0.001812
-0.001811
-0.001755
-0.001775
-0.001725
-0.001708
-0.002175
-0.002170
-0.002216
-0.002220
-0.002062
-0.002063
-0.002114
-0.002104
-0.001831
-0.001819
-0.001787
-0.001831
-0.001784
-0.001799
-0.001745
-0.001755
-0.001737
-0.002042
-0.001991
-0.001999
-0.001994
-0.001994
-0.001898
-0.001871
-0.001803
-0.001811
-0.001836
-0.001811
-0.001826
-0.001805
-0.001800
-0.001845
-0.001941
-0.001776
-0.001726
-0.001674
-0.001349
-0.001761
-0.001699
-0.001645
-0.001626
-0.001582
-0.001575
-0.001693
-0.001551
-0.001636
-0.001567
-0.001627
-0.001598
-0.001570
-0.001612
-0.001643
-0.001601
-0.001650
-0.001661
-0.001627
-0.001647
-0.001627
-0.001609
-0.001624
-0.001633
-0.001615
-0.001636
-0.001620
-0.001569
-0.001566
-0.001540
-0.001515
-0.001498
-0.001444
-0.001434
-0.001444
-0.001472
-0.001466
-0.001453
-0.001441
-0.001415
-0.001466
-0.001527
-0.001492
-0.001488
-0.001446
-0.001500
-0.001449
-0.001466
-0.001468
-0.001439
-0.001479
-0.001521
-0.001516
-0.001496
-0.001475
-0.001503
-0.001585
-0.001629
-0.001517
-0.001491
-0.001519
-0.001369
-0.001421
-0.001417
-0.001417
-0.001380
-0.001335
-0.001315
-0.001298
-0.001305
-0.001278
-0.001288
-0.001254
-0.001236
-0.001349
-0.001259
-0.001212
-0.001217
-0.001262
-0.001068
-0.001171
-0.001152
-0.001151
-0.001127
-0.001146
-0.001151
-0.001110
-0.001109
-0.001058
-0.001166
-0.001049
-0.000925
-0.000881
-0.001166
-0.001153
-0.001206
-0.001151
-0.001191
-0.001185
-0.001169
-0.001156
-0.001171
-0.001158
-0.001083
-0.001127
-0.001113
-0.001150
-0.001088
-0.001015
-0.001022
-0.001022
-0.001030
-0.001027
-0.001023
-0.000994
-0.000999
-0.000913
-0.000920
-0.001108
-0.001063
-0.001055
-0.001038
-0.000974
-0.001014
-0.000995
-0.001001
-0.000965
-0.000952
-0.000931
-0.000572
-0.000592
-0.000594
-0.001292
-0.001213
-0.001169
-0.001156
-0.001194
-0.001225
-0.001184
-0.001157
-0.001181
-0.001182
-0.001169
-0.001142
-0.001100
-0.001058
-0.001085
-0.001106
-0.001119
-0.001075
-0.001068
-0.001076
-0.001070
-0.001043
-0.001017
-0.001025
-0.001042
-0.001036
-0.001031
-0.001045
-0.001020
-0.000988
-0.000993
-0.001030
-0.000961
-0.000955
-0.000970
-0.000959
-0.000932
-0.000962
-0.000924
-0.000859
-0.000845
-0.000909
-0.000889
-0.000883
-0.000883
-0.000857
-0.000841
-0.000834
-0.000824
-0.000796
-0.000793
-0.000776
-0.000755
-0.000738
-0.000697
-0.000738
-0.000742
-0.000751
-0.000759
-0.000769
-0.000780
-0.000791
-0.000803
-0.000814
-0.000826
-0.000836
-0.000847
-0.000857
-0.000867
-0.000877
-0.000886
-0.000896
-0.000904
-0.000912
-0.000920
-0.000927
-0.000935
-0.000942
-0.000949
-0.000955
-0.000962
-0.000968
-0.000974
-0.000980
-0.000985
-0.000991
-0.000996
-0.001002
-0.001006
-0.001011
-0.001016
-0.001021
-0.001025
-0.001030
-0.001034
-0.001038
-0.001042
-0.001046
-0.001050
-0.001055
-0.001060
-0.001064
-0.001069
-0.001073
-0.001077
-0.001081
-0.001085
-0.001088
-0.001092
-0.001095
-0.001098
-0.001102
-0.001105
-0.001108
-0.001111
-0.001114
-0.001116
-0.001119
-0.001122
-0.001125
-0.001127
-0.001130
-0.001132
-0.001135
-0.001137
-0.001140
-0.001142
-0.001144
-0.001147
-0.001149
-0.001151
-0.001153
-0.001155
-0.001158
-0.001160
-0.001162
-0.001164
-0.001166
-0.001168
-0.001170
-0.001172
-0.001174
-0.001176
-0.001178
-0.001180
-0.001182
-0.001184
-0.001186
-0.001187
-0.001189
-0.001191
-0.001193
-0.001195
-0.001197
-0.001199
-0.001200
-0.001202
-0.001204
-0.001206
-0.001208
-0.001209
-0.001211
-0.001213
-0.001215
-0.001217
-0.001218
-0.001220
-0.001222
-0.001224
-0.001225
-0.001227
-0.001229
-0.001231
-0.001233
-0.001234
-0.001236
-0.001238
-0.001240
-0.001241
-0.001243
-0.001245
-0.001246
-0.001248
-0.001250
-0.001252
-0.001253
-0.001255
-0.001257
-0.001259
-0.001260
-0.001262
-0.001264
-0.001265
-0.001267
-0.001269
-0.001271
-0.001272
-0.001274
-0.001276
-0.001277
-0.001279
-0.001281
-0.001283
-0.001284
-0.001286
-0.001288
-0.001290
-0.001291
-0.001293
-0.001295
-0.001296
-0.001298
-0.001300
-0.001301
-0.001303
-0.001305
-0.001307
-0.001308
-0.001310
-0.001312
-0.001313
-0.001315
-0.001317
-0.001318
-0.001320
-0.001322
-0.001323
-0.001325
-0.001327
-0.001328
-0.001330
-0.001332
-0.001333
-0.001335
-0.001337
-0.001338
-0.001340
-0.001341
-0.001343
-0.001345
-0.001346
-0.001348
-0.001349
-0.001351
-0.001353
-0.001354
-0.001356
-0.001357
-0.001359
-0.001360
-0.001362
-0.001363
-0.001365
-0.001366
-0.001368
-0.001369
-0.001371
-0.001372
-0.001374
-0.001375
-0.001377
-0.001378
-0.001380
-0.001381
-0.001382
-0.001384
-0.001385
-0.001387
-0.001388
-0.001389
-0.001391
-0.001392
-0.001393
-0.001394
-0.001396
-0.001397
-0.001398
-0.001400
-0.001401
-0.001402
-0.001403
-0.001404
-0.001406
-0.001407
-0.001408
-0.001409
-0.001410
-0.001411
-0.001412
-0.001413
-0.001414
-0.001415
-0.001416
-0.001417
-0.001418
-0.001419
-0.001420
-0.001421
-0.001422
-0.001423
-0.001424
-0.001425
-0.001426
-0.001426
-0.001427
-0.001428
-0.001429
-0.001429
-0.001430
-0.001431
-0.001432
-0.001432
-0.001433
-0.001433
-0.001434
-0.001435
-0.001435
-0.001436
-0.001436
-0.001437
-0.001437
-0.001438
-0.001438
-0.001438
-0.001439
-0.001439
-0.001439
-0.001440
-0.001440
-0.001440
-0.001440
-0.001441
-0.001441
-0.001441
-0.001441
-0.001441
-0.001441
-0.001441
-0.001441
-0.001441
-0.001441
-0.001441
-0.001441
-0.001441
-0.001441
-0.001441
-0.001441
-0.001440
-0.001440
-0.001440
-0.001440
-0.001439
-0.001439
-0.001439
-0.001438
-0.001438
-0.001437
-0.001437
-0.001436
-0.001436
-0.001435
-0.001435
-0.001434
-0.001434
-0.001433
-0.001432
-0.001432
-0.001431
-0.001430
-0.001429
-0.001428
-0.001428
-0.001427
-0.001426
-0.001425
-0.001424
-0.001423
-0.001422
-0.001421
-0.001420
-0.001419
-0.001418
-0.001417
-0.001415
-0.001414
-0.001413
-0.001412
-0.001410
-0.001409
-0.001408
-0.001406
-0.001405
-0.001404
-0.001402
-0.001401
-0.001399
-0.001398
-0.001396
-0.001395
-0.001393
-0.001391
-0.001390
-0.001388
-0.001386
-0.001385
-0.001383
-0.001381
-0.001379
-0.001308
-0.001321
-0.001333
-0.001229
-0.001210
-0.001218
-0.007790
-0.007865
-0.007958
-0.008067
-0.005316
-0.001445
-0.001417
-0.001434
-0.001414
-0.001353
-0.001374
-0.001355
-0.005264
-0.005031
-0.006044
-0.005205
-0.007850
-0.007961
-0.006947
-0.006756
-0.005709
-0.004908
-0.005253
-0.003696
-0.003808
-0.003692
-0.003759
-0.006642
-0.006643
-0.006991
-0.007013
-0.003020
-0.003492
-0.002863
-0.003787
-0.006881
-0.006928
-0.006868
-0.006910
-0.001947
-0.002035
-0.002004
-0.001951
-0.008519
-0.008194
-0.007072
-0.004180
-0.004146
-0.004120
-0.004033
-0.004662
-0.004910
-0.004872
-0.005075
-0.005023
-0.004979
-0.004983
-0.007604
-0.007521
-0.007560
-0.005868
-0.005889
-0.005967
-0.005985
-0.001905
-0.001832
-0.001896
-0.001804
-0.005842
-0.005809
-0.005825
-0.005778
-0.004292
-0.004301
-0.004376
-0.004165
-0.004109
-0.004176
-0.004288
-0.003901
-0.006086
-0.006159
-0.006169
-0.006226
-0.001374
-0.001401
-0.001397
-0.007150
-0.007212
-0.007101
-0.005003
-0.001451
-0.001489
-0.001459
-0.001460
-0.003141
-0.002904
-0.003172
-0.005548
-0.005588
-0.005619
-0.002655
-0.004508
-0.004522
-0.004558
-0.005500
-0.003060
-0.003116
-0.003158
-0.001530
-0.001532
-0.001575
-0.001547
-0.002040
-0.001980
-0.002612
-0.002147
-0.003175
-0.008227
-0.008577
-0.008261
-0.001486
-0.001483
-0.001461
-0.008566
-0.007692
-0.007875
-0.007856
-0.007712
-0.007584
-0.007593
-0.007660
-0.007634
-0.006731
-0.006788
-0.006685
-0.005079
-0.005064
-0.005099
-0.005089
-0.006758
-0.003295
-0.003265
-0.003450
-0.007279
-0.007367
-0.007181
-0.007746
-0.007769
-0.007790
-0.003374
-0.001529
-0.001551
-0.001564
-0.007249
-0.005939
-0.005921
-0.001388
-0.001356
-0.001374
-0.001362
-0.002695
-0.002724
-0.002726
-0.002765
-0.005367
-0.005477
-0.005417
-0.005479
-0.003301
-0.003201
-0.003328
-0.003165
-0.008451
-0.008463
-0.008517
-0.008385
-0.001447
-0.001448
-0.009658
-0.009634
-0.009617
-0.009584
-0.007234
-0.007293
-0.007130
-0.007470
-0.001464
-0.001443
-0.001436
-0.007495
-0.007255
-0.008746
-0.008774
-0.008722
-0.001535
-0.001577
-0.001575
-0.003894
-0.003882
-0.003753
-0.003708
-0.005637
-0.005663
-0.005651
-0.009173
-0.009198
-0.009321
-0.009267
-0.001500
-0.001505
-0.001464
-0.001549
-0.001498
-0.001462
-0.001468
-0.001610
-0.002733
-0.002740
-0.002782
-0.002774
-0.005887
-0.005686
-0.005667
-0.005854
-0.006260
-0.006210
-0.006333
-0.001509
-0.001545
-0.001567
-0.001599
-0.006686
-0.006627
-0.006731
-0.006631
-0.002358
-0.002543
-0.002702
-0.004668
-0.004451
-0.004284
-0.004707
-0.009130
-0.009154
-0.009112
-0.009184
-0.001460
-0.001458
-0.003580
-0.003000
-0.002794
-0.002219
-0.005405
-0.005399
-0.005332
-0.005350
-0.007316
-0.007457
-0.007290
-0.007485
-0.006844
-0.006961
-0.007020
-0.006745
-0.006205
-0.006183
-0.006222
-0.006216
-0.007752
-0.007766
-0.007689
-0.007696
-0.001562
-0.001511
-0.001521
-0.001527
-0.006268
-0.005251
-0.005253
-0.009581
-0.009684
-0.009635
-0.009550
-0.006644
-0.007558
-0.007146
-0.004590
-0.004250
-0.007081
-0.007034
-0.007101
-0.007020
-0.002775
-0.002922
-0.002900
-0.003050
-0.004782
-0.004436
-0.004640
-0.004419
-0.002244
-0.002302
-0.002344
-0.002418
-0.001790
-0.001922
-0.001802
-0.001890
-0.007529
-0.007503
-0.007548
-0.007535
-0.006985
-0.006796
-0.006827
-0.006984
-0.001908
-0.001850
-0.001950
-0.001811
-0.002004
-0.001938
-0.001818
-0.005831
-0.005585
-0.005692
-0.005688
-0.001599
-0.001635
-0.001558
-0.001426
-0.006403
-0.006452
-0.006478
-0.006375
-0.001402
-0.001419
-0.001436
-0.001457
-0.004683
-0.004607
-0.004721
-0.004637
-0.003120
-0.002963
-0.006241
-0.006223
-0.006185
-0.006182
-0.005228
-0.005305
-0.005189
-0.005355
-0.004860
-0.004194
-0.004608
-0.001462
-0.001494
-0.001472
-0.008449
-0.008459
-0.008422
-0.008416
-0.003758
-0.007649
-0.007561
-0.007571
-0.001700
-0.001616
-0.001629
-0.001570
-0.001337
-0.001339
-0.001360
-0.001361
-0.003140
-0.003151
-0.003201
-0.003072
-0.003659
-0.003744
-0.003731
-0.003719
-0.003622
-0.003511
-0.002696
-0.002779
-0.002763
-0.005554
-0.005615
-0.005181
-0.004210
-0.004146
-0.003889
-0.005014
-0.002387
-0.002413
-0.002501
-0.002492
-0.002461
-0.002456
-0.002488
-0.001518
-0.001544
-0.001559
-0.006988
-0.006818
-0.001510
-0.001248
-0.001279
-0.001274
-0.001305
-0.005528
-0.005547
-0.006178
-0.001692
-0.004435
-0.004428
-0.004473
-0.004469
-0.008874
-0.008822
-0.008817
-0.008770
-0.003463
-0.003684
-0.003735
-0.003212
-0.007888
-0.007841
-0.007904
-0.007857
-0.007764
-0.007893
-0.007724
-0.007878
-0.001253
-0.001219
-0.001178
-0.008068
-0.008049
-0.008107
-0.003763
-0.003705
-0.003789
-0.003773
-0.001373
-0.001215
-0.001219