# vtk DataFile Version 2.0
Test
ASCII
DATASET POLYDATA
POINTS 20431 float
0.000000 0.000000 0.000000
2.000000 0.000000 0.000000
2.000000 4.000000 0.000000
0.000000 4.000000 0.000000
0.000000 0.500000 0.000000
1.500000 2.000000 0.000000
2.000000 2.500000 0.000000
0.400000 0.000000 0.000000
0.800000 0.000000 0.000000
1.200000 0.000000 0.000000
1.600000 0.000000 0.000000
2.000000 0.362557 0.000000
2.000000 0.672798 0.000000
2.000000 0.938272 0.000000
2.000000 1.165439 0.000000
2.000000 1.359826 0.000000
2.000000 1.526163 0.000000
2.000000 1.668499 0.000000
2.000000 1.790295 0.000000
2.000000 1.894517 0.000000
2.000000 1.983700 0.000000
2.000000 2.060013 0.000000
2.000000 2.125315 0.000000
2.000000 2.181194 0.000000
2.000000 2.229010 0.000000
2.000000 2.269926 0.000000
2.000000 2.304938 0.000000
2.000000 2.334898 0.000000
2.000000 2.360534 0.000000
2.000000 2.382472 0.000000
2.000000 2.401244 0.000000
2.000000 2.417307 0.000000
2.000000 2.431052 0.000000
2.000000 2.442814 0.000000
2.000000 2.452878 0.000000
2.000000 2.461491 0.000000
2.000000 2.468860 0.000000
2.000000 2.475167 0.000000
2.000000 2.480563 0.000000
2.000000 2.485180 0.000000
2.000000 2.489132 0.000000
2.000000 2.492513 0.000000
2.000000 2.495406 0.000000
2.000000 2.497882 0.000000
2.000000 2.502286 0.000000
2.000000 2.505266 0.000000
2.000000 2.509150 0.000000
2.000000 2.514212 0.000000
2.000000 2.520809 0.000000
2.000000 2.529407 0.000000
2.000000 2.540613 0.000000
2.000000 2.555218 0.000000
2.000000 2.574253 0.000000
2.000000 2.599061 0.000000
2.000000 2.631395 0.000000
2.000000 2.673536 0.000000
2.000000 2.728460 0.000000
2.000000 2.800043 0.000000
2.000000 2.893339 0.000000
2.000000 3.014933 0.000000
2.000000 3.173410 0.000000
2.000000 3.379956 0.000000
2.000000 3.649152 0.000000
1.600000 4.000000 0.000000
1.200000 4.000000 0.000000
0.800000 4.000000 0.000000
0.400000 4.000000 0.000000
0.000000 3.624996 0.000000
0.000000 3.289970 0.000000
0.000000 2.990661 0.000000
0.000000 2.723261 0.000000
0.000000 2.484368 0.000000
0.000000 2.270943 0.000000
0.000000 2.080271 0.000000
0.000000 1.909926 0.000000
0.000000 1.757741 0.000000
0.000000 1.621780 0.000000
0.000000 1.500314 0.000000
0.000000 1.391797 0.000000
0.000000 1.294849 0.000000
0.000000 1.208237 0.000000
0.000000 1.130858 0.000000
0.000000 1.061728 0.000000
0.000000 0.999968 0.000000
0.000000 0.944792 0.000000
0.000000 0.895499 0.000000
0.000000 0.851460 0.000000
0.000000 0.812117 0.000000
0.000000 0.776968 0.000000
0.000000 0.745565 0.000000
0.000000 0.717511 0.000000
0.000000 0.692448 0.000000
0.000000 0.670056 0.000000
0.000000 0.650052 0.000000
0.000000 0.632180 0.000000
0.000000 0.616213 0.000000
0.000000 0.601949 0.000000
0.000000 0.589205 0.000000
0.000000 0.577820 0.000000
0.000000 0.567649 0.000000
0.000000 0.558562 0.000000
0.000000 0.550444 0.000000
0.000000 0.543191 0.000000
0.000000 0.536712 0.000000
0.000000 0.530923 0.000000
0.000000 0.525751 0.000000
0.000000 0.521131 0.000000
0.000000 0.517003 0.000000
0.000000 0.513315 0.000000
0.000000 0.510021 0.000000
0.000000 0.507078 0.000000
0.000000 0.504448 0.000000
0.000000 0.502099 0.000000
0.000000 0.497804 0.000000
0.000000 0.494785 0.000000
0.000000 0.490633 0.000000
0.000000 0.484924 0.000000
0.000000 0.477074 0.000000
0.000000 0.466279 0.000000
0.000000 0.451436 0.000000
0.000000 0.431025 0.000000
0.000000 0.402959 0.000000
0.000000 0.364366 0.000000
0.000000 0.311297 0.000000
0.000000 0.238324 0.000000
0.000000 0.137980 0.000000
0.001414 0.501414 0.000000
0.002828 0.502828 0.000000
0.004241 0.504241 0.000000
0.005655 0.505655 0.000000
0.007069 0.507069 0.000000
0.008483 0.508483 0.000000
0.009896 0.509896 0.000000
0.011310 0.511310 0.000000
0.012724 0.512724 0.000000
0.014138 0.514138 0.000000
0.015551 0.515551 0.000000
0.016965 0.516965 0.000000
0.018379 0.518379 0.000000
0.019793 0.519793 0.000000
0.021206 0.521206 0.000000
0.022620 0.522620 0.000000
0.024034 0.524034 0.000000
0.025448 0.525448 0.000000
0.026861 0.526861 0.000000
0.028275 0.528275 0.000000
0.029689 0.529689 0.000000
0.031103 0.531103 0.000000
0.032516 0.532516 0.000000
0.033930 0.533930 0.000000
0.035344 0.535344 0.000000
0.036758 0.536758 0.000000
0.038172 0.538172 0.000000
0.039585 0.539585 0.000000
0.040999 0.540999 0.000000
0.042413 0.542413 0.000000
0.043827 0.543827 0.000000
0.045240 0.545240 0.000000
0.046654 0.546654 0.000000
0.048068 0.548068 0.000000
0.049482 0.549482 0.000000
0.050895 0.550895 0.000000
0.052309 0.552309 0.000000
0.053723 0.553723 0.000000
0.055137 0.555137 0.000000
0.056550 0.556550 0.000000
0.057964 0.557964 0.000000
0.059378 0.559378 0.000000
0.060792 0.560792 0.000000
0.062205 0.562205 0.000000
0.063619 0.563619 0.000000
0.065033 0.565033 0.000000
0.066447 0.566447 0.000000
0.067861 0.567861 0.000000
0.069274 0.569274 0.000000
0.070688 0.570688 0.000000
0.072102 0.572102 0.000000
0.073516 0.573516 0.000000
0.074929 0.574929 0.000000
0.076343 0.576343 0.000000
0.077757 0.577757 0.000000
0.079171 0.579171 0.000000
0.080584 0.580584 0.000000
0.081998 0.581998 0.000000
0.083412 0.583412 0.000000
0.084826 0.584826 0.000000
0.086239 0.586239 0.000000
0.087653 0.587653 0.000000
0.089067 0.589067 0.000000
0.090481 0.590481 0.000000
0.091894 0.591894 0.000000
0.093308 0.593308 0.000000
0.094722 0.594722 0.000000
0.096136 0.596136 0.000000
0.097549 0.597549 0.000000
0.098963 0.598963 0.000000
0.100377 0.600377 0.000000
0.101791 0.601791 0.000000
0.103205 0.603205 0.000000
0.104618 0.604618 0.000000
0.106032 0.606032 0.000000
0.107446 0.607446 0.000000
0.108860 0.608860 0.000000
0.110273 0.610273 0.000000
0.111687 0.611687 0.000000
0.113101 0.613101 0.000000
0.114515 0.614515 0.000000
0.115928 0.615928 0.000000
0.117342 0.617342 0.000000
0.118756 0.618756 0.000000
0.120170 0.620170 0.000000
0.121583 0.621583 0.000000
0.122997 0.622997 0.000000
0.124411 0.624411 0.000000
0.125825 0.625825 0.000000
0.127238 0.627238 0.000000
0.128652 0.628652 0.000000
0.130066 0.630066 0.000000
0.131480 0.631480 0.000000
0.132893 0.632893 0.000000
0.134307 0.634307 0.000000
0.135721 0.635721 0.000000
0.137135 0.637135 0.000000
0.138549 0.638549 0.000000
0.139962 0.639962 0.000000
0.141376 0.641376 0.000000
0.142790 0.642790 0.000000
0.144204 0.644204 0.000000
0.145617 0.645617 0.000000
0.147031 0.647031 0.000000
0.148445 0.648445 0.000000
0.149859 0.649859 0.000000
0.151272 0.651272 0.000000
0.152686 0.652686 0.000000
0.154100 0.654100 0.000000
0.155514 0.655514 0.000000
0.156927 0.656927 0.000000
0.158341 0.658341 0.000000
0.159755 0.659755 0.000000
0.161169 0.661169 0.000000
0.162582 0.662582 0.000000
0.163996 0.663996 0.000000
0.165410 0.665410 0.000000
0.166824 0.666824 0.000000
0.168238 0.668238 0.000000
0.169651 0.669651 0.000000
0.171065 0.671065 0.000000
0.172479 0.672479 0.000000
0.173893 0.673893 0.000000
0.175306 0.675306 0.000000
0.176720 0.676720 0.000000
0.178134 0.678134 0.000000
0.179548 0.679548 0.000000
0.180961 0.680961 0.000000
0.182375 0.682375 0.000000
0.183789 0.683789 0.000000
0.185203 0.685203 0.000000
0.186616 0.686616 0.000000
0.188030 0.688030 0.000000
0.189444 0.689444 0.000000
0.190858 0.690858 0.000000
0.192271 0.692271 0.000000
0.193685 0.693685 0.000000
0.195099 0.695099 0.000000
0.196513 0.696513 0.000000
0.197926 0.697926 0.000000
0.199340 0.699340 0.000000
0.200754 0.700754 0.000000
0.202168 0.702168 0.000000
0.203582 0.703582 0.000000
0.204995 0.704995 0.000000
0.206409 0.706409 0.000000
0.207823 0.707823 0.000000
0.209237 0.709237 0.000000
0.210650 0.710650 0.000000
0.212064 0.712064 0.000000
0.213478 0.713478 0.000000
0.214892 0.714892 0.000000
0.216305 0.716305 0.000000
0.217719 0.717719 0.000000
0.219133 0.719133 0.000000
0.220547 0.720547 0.000000
0.221960 0.721960 0.000000
0.223374 0.723374 0.000000
0.224788 0.724788 0.000000
0.226202 0.726202 0.000000
0.227615 0.727615 0.000000
0.229029 0.729029 0.000000
0.230443 0.730443 0.000000
0.231857 0.731857 0.000000
0.233270 0.733270 0.000000
0.234684 0.734684 0.000000
0.236098 0.736098 0.000000
0.237512 0.737512 0.000000
0.238926 0.738926 0.000000
0.240339 0.740339 0.000000
0.241753 0.741753 0.000000
0.243167 0.743167 0.000000
0.244581 0.744581 0.000000
0.245994 0.745994 0.000000
0.247408 0.747408 0.000000
0.248822 0.748822 0.000000
0.250236 0.750236 0.000000
0.251649 0.751649 0.000000
0.253063 0.753063 0.000000
0.254477 0.754477 0.000000
0.255891 0.755891 0.000000
0.257304 0.757304 0.000000
0.258718 0.758718 0.000000
0.260132 0.760132 0.000000
0.261546 0.761546 0.000000
0.262959 0.762959 0.000000
0.264373 0.764373 0.000000
0.265787 0.765787 0.000000
0.267201 0.767201 0.000000
0.268615 0.768615 0.000000
0.270028 0.770028 0.000000
0.271442 0.771442 0.000000
0.272856 0.772856 0.000000
0.274270 0.774270 0.000000
0.275683 0.775683 0.000000
0.277097 0.777097 0.000000
0.278511 0.778511 0.000000
0.279925 0.779925 0.000000
0.281338 0.781338 0.000000
0.282752 0.782752 0.000000
0.284166 0.784166 0.000000
0.285580 0.785580 0.000000
0.286993 0.786993 0.000000
0.288407 0.788407 0.000000
0.289821 0.789821 0.000000
0.291235 0.791235 0.000000
0.292648 0.792648 0.000000
0.294062 0.794062 0.000000
0.295476 0.795476 0.000000
0.296890 0.796890 0.000000
0.298303 0.798303 0.000000
0.299717 0.799717 0.000000
0.301131 0.801131 0.000000
0.302545 0.802545 0.000000
0.303959 0.803959 0.000000
0.305372 0.805372 0.000000
0.306786 0.806786 0.000000
0.308200 0.808200 0.000000
0.309614 0.809614 0.000000
0.311027 0.811027 0.000000
0.312441 0.812441 0.000000
0.313855 0.813855 0.000000
0.315269 0.815269 0.000000
0.316682 0.816682 0.000000
0.318096 0.818096 0.000000
0.319510 0.819510 0.000000
0.320924 0.820924 0.000000
0.322337 0.822337 0.000000
0.323751 0.823751 0.000000
0.325165 0.825165 0.000000
0.326579 0.826579 0.000000
0.327992 0.827992 0.000000
0.329406 0.829406 0.000000
0.330820 0.830820 0.000000
0.332234 0.832234 0.000000
0.333648 0.833648 0.000000
0.335061 0.835061 0.000000
0.336475 0.836475 0.000000
0.337889 0.837889 0.000000
0.339303 0.839303 0.000000
0.340716 0.840716 0.000000
[...]
POINT_DATA 20431
SCALARS UX float 1
LOOKUP_TABLE default
-0.000000
0.000000
-0.002714
-0.008713
-0.002761
-0.000695
-0.001278
-0.000000
-0.000000
0.000000
-0.000000
0.002243
0.003011
0.003384
0.003559
0.003613
0.003536
0.003310
0.002923
0.002416
0.001835
0.001281
0.000793
0.000388
0.000061
-0.000198
-0.000403
-0.000567
-0.000697
-0.000803
-0.000889
-0.000959
-0.001017
-0.001065
-0.001105
-0.001138
-0.001166
-0.001190
-0.001209
-0.001226
-0.001240
-0.001252
-0.001262
-0.001271
-0.001286
-0.001296
-0.001309
-0.001326
-0.001348
-0.001376
-0.001411
-0.001455
-0.001511
-0.001578
-0.001659
-0.001756
-0.001870
-0.001997
-0.002138
-0.002284
-0.002423
-0.002569
-0.002668
-0.004081
-0.005353
-0.006513
-0.007616
-0.008613
-0.008411
-0.008140
-0.007877
-0.007683
-0.007583
-0.007587
-0.007667
-0.007807
-0.007965
-0.008130
-0.008285
-0.008422
-0.008539
-0.008634
-0.008710
-0.008769
-0.008813
-0.008845
-0.008868
-0.008882
-0.008890
-0.008893
-0.008891
-0.008885
-0.008874
-0.008856
-0.008832
-0.008802
-0.008763
-0.008713
-0.008623
-0.008419
-0.008028
-0.007310
-0.006746
-0.007313
-0.007664
-0.007865
-0.007931
-0.007899
-0.008060
-0.007991
-0.007913
-0.007926
-0.005016
-0.002672
-0.002590
-0.002457
-0.002378
-0.002286
-0.002216
-0.002143
-0.002067
-0.001983
-0.001880
-0.001722
-0.001469
-0.001011
-0.003024
-0.003308
-0.003169
-0.002963
-0.002890
-0.002851
-0.002899
-0.002859
-0.002892
-0.003346
-0.003427
-0.004984
-0.004357
-0.012364
-0.005669
-0.003722
-0.003500
-0.003401
-0.003531
-0.003704
-0.003861
-0.003968
-0.003747
-0.003893
-0.003577
-0.003567
-0.003579
-0.003663
-0.003649
-0.003601
-0.003538
-0.003592
-0.003894
-0.003902
-0.003875
-0.003980
-0.003942
-0.004615
-0.004571
-0.004579
-0.004633
-0.004607
-0.004658
-0.004631
-0.004634
-0.004660
-0.004672
-0.004674
-0.004755
-0.004667
-0.004599
-0.004601
-0.004702
-0.004776
-0.004104
-0.004642
-0.004770
-0.004788
-0.004739
-0.004687
-0.004664
-0.004657
-0.004703
-0.004690
-0.004638
-0.004676
-0.004654
-0.004647
-0.004855
-0.004807
-0.004791
-0.004799
-0.004917
-0.004929
-0.004906
-0.004944
-0.004935
-0.004879
-0.004952
-0.004995
-0.004970
-0.004982
-0.004935
-0.004991
-0.004943
-0.004933
-0.004885
-0.004854
-0.004923
-0.004865
-0.004817
-0.004818
-0.004931
-0.004995
-0.005009
-0.004979
-0.004501
-0.004309
-0.004256
-0.004453
-0.004356
-0.005243
-0.005240
-0.005261
-0.005219
-0.005068
-0.005090
-0.005044
-0.004872
-0.004789
-0.004727
-0.004887
-0.004927
-0.004869
-0.004852
-0.004810
-0.004893
-0.004853
-0.004832
-0.004722
-0.004785
-0.004751
-0.004863
-0.004809
-0.004756
-0.004742
-0.004757
-0.004708
-0.004698
-0.004753
-0.004741
-0.004761
-0.004884
-0.004792
-0.004854
-0.004873
-0.004872
-0.004877
-0.004838
-0.004767
-0.004786
-0.004828
-0.004890
-0.004906
-0.004758
-0.004740
-0.004734
-0.004806
-0.004774
-0.004830
-0.004773
-0.004732
-0.004646
-0.004815
-0.004856
-0.004777
-0.004775
-0.004810
-0.004741
-0.004884
-0.004816
-0.004847
-0.004709
-0.004761
-0.004867
-0.004692
-0.004693
0.001404
-0.004053
-0.005046
-0.004951
-0.004861
-0.004977
-0.004838
-0.004730
-0.005332
-0.005285
-0.005269
-0.005303
-0.003381
-0.003860
-0.003510
-0.005558
-0.005616
-0.005613
-0.004351
-0.004405
-0.004355
-0.004305
-0.004701
-0.004679
-0.004441
-0.004419
-0.004394
-0.004982
-0.004938
-0.004953
-0.004784
-0.004896
-0.004946
-0.004959
-0.005006
-0.004977
-0.004954
-0.004905
-0.004942
-0.004904
-0.004872
-0.004830
-0.004852
-0.004885
-0.004839
-0.004851
-0.004858
-0.004869
-0.004818
-0.004786
-0.004781
-0.004739
-0.004657
-0.004815
-0.004737
-0.004703
-0.004625
-0.004657
-0.004642
-0.004565
-0.004605
-0.004621
-0.004607
-0.004770
-0.004778
-0.004796
-0.004732
-0.004671
-0.004704
-0.004701
-0.004832
-0.004870
-0.004856
-0.004797
-0.004738
-0.004786
-0.004798
-0.004795
-0.004746
-0.004619
-0.004779
-0.004730
-0.004864
-0.004948
-0.004954
-0.005232
-0.005234
-0.004192
-0.004102
-0.004092
-0.003922
-0.004104
-0.004102
-0.004100
-0.004113
-0.004082
-0.004043
-0.004130
-0.004105
-0.004030
-0.004050
-0.004058
-0.004199
-0.004099
-0.004018
-0.003995
-0.004062
-0.004084
-0.004025
-0.004019
-0.004025
-0.003914
-0.003851
-0.003718
-0.004384
-0.004491
-0.004532
-0.004395
-0.004305
-0.004431
-0.004473
-0.004423
-0.004419
-0.004532
-0.004452
-0.004464
-0.004348
-0.004297
-0.004376
-0.004315
-0.004235
-0.004256
-0.004237
-0.004204
-0.004103
-0.003972
-0.004120
-0.004148
-0.004135
-0.004156
-0.003805
-0.005010
-0.004331
-0.004053
-0.004033
-0.004016
-0.004071
-0.004044
-0.003977
-0.004102
-0.004040
-0.004013
-0.004057
-0.004076
-0.004101
-0.004100
-0.004143
-0.004121
-0.004180
-0.004157
-0.004117
-0.004093
-0.004014
-0.004070
-0.004097
-0.004122
-0.004030
-0.004038
-0.004056
-0.004078
-0.003976
-0.003959
-0.003946
-0.003947
-0.003941
-0.004020
-0.004159
-0.003920
-0.003984
-0.003920
-0.003872
-0.003882
-0.004120
-0.004102
-0.004103
-0.004078
-0.004146
-0.003249
-0.003857
-0.004739
-0.004065
-0.004086
-0.004011
-0.004093
-0.004027
-0.004022
-0.004042
-0.004042
-0.004042
-0.004071
-0.004078
-0.004099
-0.004243
-0.004206
-0.004030
-0.004141
-0.004205
-0.004059
-0.004153
-0.004091
-0.004125
-0.004088
-0.004044
-0.004015
-0.004003
-0.004000
-0.003970
-0.004015
-0.003951
-0.003865
-0.004002
-0.003995
-0.003973
-0.004075
-0.004037
-0.004018
-0.004010
-0.004064
-0.004053
-0.004027
-0.003986
-0.004052
-0.004013
-0.003835
-0.003829
-0.003836
-0.003820
-0.003844
-0.003808
-0.003827
-0.003821
-0.003784
-0.003708
-0.003746
-0.003800
-0.003745
-0.003728
-0.003722
-0.003686
-0.003673
-0.003789
-0.003908
-0.003823
-0.003787
-0.003762
-0.003734
-0.004397
-0.004266
-0.003614
-0.003680
-0.003709
-0.003742
-0.003674
-0.003611
-0.003595
-0.003644
-0.003530
-0.003525
-0.003504
-0.003546
-0.003538
-0.003572
-0.003540
-0.003684
-0.003667
-0.003677
-0.003722
-0.003690
-0.003691
-0.003667
-0.003904
-0.003955
-0.003934
-0.003971
-0.004221
-0.004185
-0.004109
-0.004049
-0.002931
-0.002933
-0.003041
-0.003498
-0.003541
-0.003492
-0.003519
-0.003512
-0.003516
-0.003500
-0.003479
-0.003489
-0.003455
-0.003488
-0.003476
-0.003448
-0.003398
-0.003454
-0.003354
-0.003398
-0.003412
-0.003420
-0.003369
-0.003373
-0.003432
-0.003475
-0.003522
-0.004212
-0.003613
-0.003456
-0.003358
-0.003296
-0.003255
-0.003265
-0.003260
-0.003194
-0.003181
-0.003128
-0.003098
-0.003139
-0.003132
-0.003097
-0.003500
-0.003458
-0.003468
-0.003564
-0.003503
-0.003502
-0.003477
-0.003503
-0.003477
-0.003468
-0.003486
-0.003488
-0.003501
-0.003438
-0.003350
-0.003315
-0.003338
-0.003324
-0.003372
-0.003385
-0.003321
-0.003310
-0.003291
-0.003320
-0.003293
-0.003291
-0.003245
-0.003209
-0.003183
-0.003152
-0.003123
-0.003129
-0.003002
-0.003130
-0.003358
-0.003364
-0.003370
-0.003297
-0.003350
-0.003106
-0.003060
-0.003093
-0.003089
-0.003075
-0.003103
-0.003095
-0.003071
-0.003044
-0.003062
-0.003089
-0.003034
-0.003039
-0.003037
-0.003061
-0.003028
-0.003056
-0.003054
-0.003024
-0.003025
-0.002978
-0.003014
-0.003016
-0.002986
-0.003062
-0.003059
-0.003021
-0.003023
-0.003073
-0.003094
-0.003102
-0.003090
-0.003018
-0.003093
-0.003058
-0.003053
-0.003044
-0.003010
-0.003049
-0.003050
-0.003115
-0.003090
-0.002932
-0.003056
-0.003084
-0.003101
-0.003060
-0.003089
-0.003041
-0.002994
-0.002977
-0.003027
-0.002897
-0.003250
-0.003303
-0.003300
-0.003301
-0.003297
-0.003270
-0.003256
-0.003244
-0.003371
-0.003337
-0.003363
-0.003675
-0.003659
-0.003656
-0.003673
-0.003641
-0.003632
-0.003609
-0.003574
-0.003597
-0.003570
-0.003585
-0.003590
-0.003543
-0.002591
-0.002527
-0.002497
-0.002530
-0.002562
-0.002575
-0.002673
-0.002618
-0.002333
-0.002330
-0.002337
-0.002326
-0.003022
-0.003038
-0.003035
-0.002994
-0.002531
-0.002504
-0.002499
-0.002510
-0.002487
-0.002127
-0.002098
-0.002129
-0.002217
-0.002180
-0.002109
-0.002253
-0.002183
-0.002135
-0.002109
-0.002177
-0.002189
-0.002159
-0.002152
-0.002191
-0.002158
-0.002177
-0.002171
-0.002247
-0.003135
-0.003060
-0.003063
-0.003071
-0.003053
-0.003055
-0.003004
-0.003012
-0.003048
-0.003046
-0.002974
-0.003083
-0.002941
-0.003025
-0.002596
-0.002566
-0.002611
-0.002588
-0.002514
-0.002537
-0.002595
-0.002621
-0.002549
-0.002584
-0.002448
-0.002400
-0.002382
-0.002443
-0.002411
-0.002324
-0.002296
-0.002282
-0.002346
-0.002403
-0.002458
-0.002463
-0.002477
-0.002383
-0.002414
-0.002369
-0.002393
-0.002449
-0.002425
-0.002409
-0.002361
-0.002416
-0.002340
-0.002345
-0.002355
-0.002347
-0.002320
-0.002325
-0.002318
-0.002343
-0.002272
-0.002300
-0.002383
-0.002440
-0.002337
-0.002331
-0.002319
-0.002348
-0.002348
-0.002127
-0.002207
-0.002194
-0.002120
-0.002180
-0.002088
-0.002128
-0.002111
-0.002272
-0.002261
-0.002285
-0.002318
-0.002298
-0.002317
-0.002319
-0.002292
-0.002248
-0.001970
-0.001954
-0.002323
-0.002334
-0.002321
-0.002293
-0.002367
-0.002349
-0.002370
-0.002375
-0.002291
-0.002325
-0.002303
-0.002306
-0.002365
-0.002291
-0.002203
-0.002418
-0.002481
-0.001564
-0.001541
-0.001541
-0.001561
-0.001525
-0.001812
-0.001774
-0.001757
-0.001761
-0.001731
-0.001729
-0.001695
-0.001711
-0.001780
-0.001727
-0.001713
-0.001735
-0.001793
-0.001739
-0.001686
-0.001686
-0.001679
-0.001658
-0.001659
-0.001678
-0.001680
-0.001734
-0.001625
-0.001656
-0.001595
-0.001636
-0.001585
-0.001550
-0.001527
-0.001467
-0.001497
-0.001521
-0.001515
-0.001517
-0.001449
-0.001803
-0.001767
-0.001806
-0.001760
-0.001818
-0.001772
-0.001452
-0.001393
-0.001418
-0.001423
-0.001410
-0.001371
-0.001361
-0.001369
-0.001371
-0.001383
-0.001430
-0.002196
-0.002158
-0.002140
-0.002095
-0.002090
-0.002092
-0.002094
-0.002057
-0.002066
-0.001976
-0.002002
-0.001986
-0.001952
-0.001955
-0.001926
-0.001929
-0.001910
-0.001882
-0.001854
-0.001888
-0.001887
-0.001810
-0.001754
-0.001798
-0.001761
-0.001763
-0.001773
-0.001740
-0.001810
-0.001794
-0.001755
-0.001798
-0.001728
-0.001794
-0.001751
-0.001743
-0.001755
-0.001760
-0.001760
-0.001764
-0.001715
-0.001699
-0.001584
-0.001598
-0.001578
-0.001468
-0.001459
-0.001487
-0.001462
-0.001463
-0.001427
-0.001329
-0.001396
-0.001357
-0.001399
-0.001379
-0.001391
-0.001297
-0.001237
-0.001334
-0.001349
-0.001338
-0.001340
-0.001345
-0.001468
-0.001440
-0.001477
-0.001466
-0.001474
-0.001470
-0.001398
-0.001376
-0.001373
-0.001389
-0.001534
-0.001488
-0.001430
-0.001424
-0.001432
-0.001450
-0.001460
-0.001441
-0.001384
-0.001407
-0.001369
-0.001413
-0.001388
-0.001397
-0.001388
-0.001410
-0.001388
-0.001361
-0.001372
-0.001405
-0.001417
-0.001374
-0.001322
-0.001140
-0.001097
-0.001082
-0.001098
-0.001078
-0.001103
-0.001093
-0.001139
-0.000867
-0.001185
-0.001203
-0.001144
-0.001178
-0.001192
-0.001142
-0.001125
-0.001140
-0.001114
-0.001094
-0.001129
-0.001094
-0.001122
-0.001395
-0.001381
-0.001347
-0.000992
-0.001093
-0.001152
-0.000953
-0.001018
-0.000934
-0.000992
-0.000988
-0.000962
-0.000933
-0.000934
-0.000900
-0.000906
-0.000926
-0.001080
-0.001056
-0.001049
-0.001017
-0.000989
-0.001078
-0.001054
-0.001066
-0.001070
-0.001056
-0.001043
-0.001006
-0.001022
-0.000991
-0.001039
-0.001030
-0.000997
-0.000971
-0.000982
-0.001002
-0.000985
-0.000977
-0.000962
-0.001035
-0.001037
-0.000937
-0.000947
-0.000967
-0.000948
-0.000956
-0.000954
-0.000947
-0.000977
-0.000954
-0.000938
-0.000953
-0.000930
-0.000922
-0.000924
-0.000947
-0.000935
-0.000946
-0.000852
-0.000845
-0.000859
-0.000852
-0.000812
-0.000813
-0.000840
-0.000837
-0.000885
-0.000887
-0.000824
-0.000772
-0.000820
-0.000800
-0.000819
-0.000886
-0.000866
-0.001089
-0.001058
-0.001142
-0.001101
-0.001052
-0.001012
-0.001042
-0.001033
-0.001062
-0.001040
-0.001069
-0.001059
-0.001044
-0.001033
-0.001017
-0.000991
-0.000971
-0.000986
-0.001040
-0.001025
-0.001023
-0.001018
-0.000982
-0.000942
-0.001000
-0.001001
-0.000996
-0.000993
-0.001006
-0.000980
-0.001078
-0.000898
-0.001001
-0.000971
-0.000941
-0.000953
-0.000940
-0.000916
-0.000882
-0.000906
-0.000908
-0.000902
-0.000873
-0.000843
-0.000880
-0.000984
-0.000904
-0.000927
-0.000899
-0.000872
-0.000882
-0.000870
-0.000831
-0.000745
-0.000766
-0.000743
-0.000686
-0.000709
-0.000715
-0.000723
-0.000731
-0.000740
-0.000749
-0.000759
-0.000769
-0.000779
-0.000788
-0.000797
-0.000805
-0.000814
-0.000823
-0.000830
-0.000838
-0.000845
-0.000852
-0.000859
-0.000866
-0.000872
-0.000878
-0.000884
-0.000890
-0.000896
-0.000901
-0.000906
-0.000911
-0.000916
-0.000921
-0.000926
-0.000930
-0.000935
-0.000939
-0.000943
-0.000947
-0.000951
-0.000955
-0.000959
-0.000963
-0.000966
-0.000970
-0.000973
-0.000978
-0.000982
-0.000986
-0.000990
-0.000993
-0.000997
-0.001000
-0.001004
-0.001007
-0.001010
-0.001013
-0.001016
-0.001019
-0.001022
-0.001024
-0.001027
-0.001030
-0.001032
-0.001035
-0.001037
-0.001039
-0.001042
-0.001044
-0.001046
-0.001048
-0.001051
-0.001053
-0.001055
-0.001057
-0.001059
-0.001061
-0.001063
-0.001065
-0.001067
-0.001069
-0.001071
-0.001073
-0.001075
-0.001076
-0.001078
-0.001080
-0.001082
-0.001084
-0.001085
-0.001087
-0.001089
-0.001091
-0.001092
-0.001094
-0.001096
-0.001097
-0.001099
-0.001101
-0.001103
-0.001104
-0.001106
-0.001108
-0.001109
-0.001111
-0.001112
-0.001114
-0.001116
-0.001117
-0.001119
-0.001121
-0.001122
-0.001124
-0.001126
-0.001127
-0.001129
-0.001130
-0.001132
-0.001134
-0.001135
-0.001137
-0.001138
-0.001140
-0.001142
-0.001143
-0.001145
-0.001146
-0.001148
-0.001149
-0.001151
-0.001153
-0.001154
-0.001156
-0.001157
-0.001159
-0.001160
-0.001162
-0.001164
-0.001165
-0.001167
-0.001168
-0.001170
-0.001171
-0.001173
-0.001175
-0.001176
-0.001178
-0.001179
-0.001181
-0.001182
-0.001184
-0.001186
-0.001187
-0.001189
-0.001190
-0.001192
-0.001193
-0.001195
-0.001197
-0.001198
-0.001200
-0.001201
-0.001203
-0.001204
-0.001206
-0.001207
-0.001209
-0.001210
-0.001212
-0.001214
-0.001215
-0.001217
-0.001218
-0.001220
-0.001221
-0.001223
-0.001224
-0.001226
-0.001227
-0.001229
-0.001230
-0.001232
-0.001233
-0.001235
-0.001236
-0.001238
-0.001239
-0.001241
-0.001242
-0.001243
-0.001245
-0.001246
-0.001248
-0.001249
-0.001251
-0.001252
-0.001253
-0.001255
-0.001256
-0.001258
-0.001259
-0.001260
-0.001262
-0.001263
-0.001265
-0.001266
-0.001267
-0.001269
-0.001270
-0.001271
-0.001272
-0.001274
-0.001275
-0.001276
-0.001278
-0.001279
-0.001280
-0.001281
-0.001283
-0.001284
-0.001285
-0.001286
-0.001287
-0.001288
-0.001290
-0.001291
-0.001292
-0.001293
-0.001294
-0.001295
-0.001296
-0.001297
-0.001298
-0.001299
-0.001300
-0.001301
-0.001302
-0.001303
-0.001304
-0.001305
-0.001306
-0.001307
-0.001308
-0.001309
-0.001310
-0.001311
-0.001311
-0.001312
-0.001313
-0.001314
-0.001315
-0.001315
-0.001316
-0.001317
-0.001318
-0.001318
-0.001319
-0.001320
-0.001320
-0.001321
-0.001322
-0.001322
-0.001323
-0.001323
-0.001324
-0.001324
-0.001325
-0.001325
-0.001326
-0.001326
-0.001326
-0.001327
-0.001327
-0.001328
-0.001328
-0.001328
-0.001328
-0.001329
-0.001329
-0.001329
-0.001329
-0.001329
-0.001330
-0.001330
-0.001330
-0.001330
-0.001330
-0.001330
-0.001330
-0.001330
-0.001330
-0.001330
-0.001330
-0.001330
-0.001330
-0.001330
-0.001329
-0.001329
-0.001329
-0.001329
-0.001328
-0.001328
-0.001328
-0.001328
-0.001327
-0.001327
-0.001326
-0.001326
-0.001326
-0.001325
-0.001325
-0.001324
-0.001324
-0.001323
-0.001322
-0.001322
-0.001321
-0.001320
-0.001320
-0.001319
-0.001318
-0.001318
-0.001317
-0.001316
-0.001315
-0.001314
-0.001313
-0.001313
-0.001312
-0.001311
-0.001310
-0.001309
-0.001308
-0.001307
-0.001306
-0.001305
-0.001303
-0.001302
-0.001301
-0.001300
-0.001299
-0.001298
-0.001296
-0.001295
-0.001294
-0.001292
-0.001291
-0.001290
-0.001288
-0.001287
-0.001286
-0.001284
-0.001283
-0.001281
-0.001280
-0.001205
-0.001216
-0.001227
-0.001132
-0.001116
-0.001123
-0.006782
-0.006836
-0.006902
-0.007007
-0.004701
-0.001329
-0.001305
-0.001320
-0.001302
-0.001243
-0.001261
-0.001245
-0.004496
-0.004288
-0.005319
-0.004593
-0.007069
-0.007017
-0.006183
-0.005975
-0.005178
-0.004136
-0.004660
-0.003303
-0.003385
-0.003295
-0.003346
-0.005836
-0.005839
-0.006139
-0.006160
-0.002717
-0.003122
-0.002532
-0.003402
-0.006003
-0.006046
-0.005987
-0.006035
-0.001757
-0.001834
-0.001807
-0.001761
-0.007434
-0.007167
-0.006338
-0.003714
-0.003684
-0.003665
-0.003604
-0.004117
-0.004334
-0.004299
-0.004475
-0.004432
-0.004390
-0.004391
-0.006654
-0.006583
-0.006617
-0.005089
-0.005139
-0.005191
-0.005233
-0.001725
-0.001662
-0.001718
-0.001637
-0.005130
-0.005101
-0.005116
-0.005075
-0.003789
-0.003782
-0.003858
-0.003657
-0.003654
-0.003700
-0.003795
-0.003423
-0.005351
-0.005417
-0.005421
-0.005472
-0.001262
-0.001286
-0.001282
-0.006266
-0.006319
-0.006228
-0.004419
-0.001330
-0.001363
-0.001336
-0.001338
-0.002817
-0.002622
-0.002859
-0.004880
-0.004906
-0.004941
-0.002353
-0.003994
-0.004002
-0.004031
-0.004851
-0.002723
-0.002771
-0.002801
-0.001394
-0.001396
-0.001433
-0.001410
-0.001821
-0.001759
-0.002364
-0.001981
-0.002819
-0.007250
-0.007514
-0.007297
-0.001366
-0.001364
-0.001344
-0.007463
-0.006733
-0.006887
-0.006855
-0.006742
-0.006614
-0.006621
-0.006681
-0.006660
-0.005886
-0.005948
-0.005870
-0.004491
-0.004482
-0.004509
-0.004502
-0.005931
-0.002953
-0.002926
-0.003075
-0.006378
-0.006431
-0.006290
-0.006760
-0.006783
-0.006800
-0.003007
-0.001396
-0.001415
-0.001427
-0.006144
-0.005353
-0.005357
-0.001274
-0.001246
-0.001262
-0.001251
-0.002410
-0.002435
-0.002437
-0.002471
-0.004726
-0.004820
-0.004769
-0.004822
-0.002934
-0.002848
-0.002958
-0.002816
-0.007345
-0.007374
-0.007415
-0.007296
-0.001337
-0.001337
-0.008447
-0.008429
-0.008411
-0.008384
-0.006345
-0.006395
-0.006254
-0.006548
-0.001353
-0.001335
-0.001328
-0.006570
-0.006364
-0.007628
-0.007650
-0.007605
-0.001403
-0.001439
-0.001438
-0.003473
-0.003466
-0.003360
-0.003327
-0.004959
-0.004981
-0.004970
-0.008062
-0.008086
-0.008183
-0.008153
-0.001384
-0.001389
-0.001353
-0.001427
-0.001377
-0.001345
-0.001351
-0.001468
-0.002443
-0.002449
-0.002485
-0.002478
-0.005153
-0.004925
-0.004920
-0.005100
-0.005498
-0.005455
-0.005562
-0.001387
-0.001419
-0.001438
-0.001466
-0.005866
-0.005815
-0.005905
-0.005820
-0.002076
-0.002268
-0.002418
-0.004138
-0.003947
-0.003802
-0.004169
-0.007965
-0.007987
-0.007950
-0.008013
-0.001346
-0.001345
-0.003180
-0.002571
-0.002370
-0.001998
-0.004759
-0.004755
-0.004697
-0.004713
-0.006380
-0.006512
-0.006358
-0.006537
-0.006006
-0.006108
-0.006158
-0.005921
-0.005432
-0.005418
-0.005451
-0.005449
-0.006781
-0.006792
-0.006727
-0.006732
-0.001435
-0.001390
-0.001399
-0.001404
-0.005519
-0.004609
-0.004576
-0.008356
-0.008445
-0.008405
-0.008329
-0.005682
-0.006412
-0.006097
-0.004092
-0.003837
-0.006204
-0.006165
-0.006223
-0.006152
-0.002477
-0.002605
-0.002586
-0.002716
-0.004229
-0.003928
-0.004108
-0.003912
-0.002015
-0.002067
-0.002103
-0.002168
-0.001631
-0.001747
-0.001642
-0.001719
-0.006586
-0.006563
-0.006603
-0.006592
-0.006126
-0.005985
-0.006021
-0.006127
-0.001724
-0.001673
-0.001760
-0.001639
-0.001808
-0.001749
-0.001644
-0.005062
-0.004841
-0.004917
-0.004934
-0.001470
-0.001501
-0.001434
-0.001308
-0.005621
-0.005664
-0.005687
-0.005598
-0.001290
-0.001305
-0.001320
-0.001339
-0.004155
-0.004088
-0.004179
-0.004107
-0.002764
-0.002640
-0.005478
-0.005462
-0.005432
-0.005428
-0.004604
-0.004670
-0.004570
-0.004714
-0.004372
-0.003618
-0.004056
-0.001347
-0.001374
-0.001355
-0.007361
-0.007368
-0.007334
-0.007326
-0.003102
-0.006695
-0.006619
-0.006629
-0.001553
-0.001479
-0.001491
-0.001439
-0.001231
-0.001233
-0.001252
-0.001252
-0.002796
-0.002805
-0.002848
-0.002737
-0.003250
-0.003321
-0.003311
-0.003280
-0.003226
-0.003144
-0.002408
-0.002480
-0.002467
-0.004823
-0.004846
-0.004430
-0.003733
-0.003675
-0.003452
-0.004362
-0.002143
-0.002166
-0.002242
-0.002228
-0.002201
-0.002197
-0.002224
-0.001386
-0.001409
-0.001422
-0.006132
-0.005985
-0.001379
-0.001148
-0.001175
-0.001171
-0.001197
-0.004890
-0.004901
-0.005386
-0.001545
-0.003943
-0.003936
-0.003969
-0.003965
-0.007742
-0.007696
-0.007692
-0.007650
-0.002948
-0.003298
-0.003318
-0.002842
-0.006891
-0.006852
-0.006907
-0.006864
-0.006797
-0.006906
-0.006761
-0.006895
-0.001150
-0.001121
-0.001085
-0.007020
-0.007007
-0.007059
-0.003340
-0.003288
-0.003361
-0.003346
-0.001261
-0.001118
-0.001121
-0.001084