# vtk DataFile Version 2.0
Test
ASCII
DATASET POLYDATA
POINTS 20431 float
0.000000 0.000000 0.000000
2.000000 0.000000 0.000000
2.000000 4.000000 0.000000
0.000000 4.000000 0.000000
0.000000 0.500000 0.000000
1.500000 2.000000 0.000000
2.000000 2.500000 0.000000
0.400000 0.000000 0.000000
0.800000 0.000000 0.000000
1.200000 0.000000 0.000000
1.600000 0.000000 0.000000
2.000000 0.362557 0.000000
2.000000 0.672798 0.000000
2.000000 0.938272 0.000000
2.000000 1.165439 0.000000
2.000000 1.359826 0.000000
2.000000 1.526163 0.000000
2.000000 1.668499 0.000000
2.000000 1.790295 0.000000
2.000000 1.894517 0.000000
2.000000 1.983700 0.000000
2.000000 2.060013 0.000000
2.000000 2.125315 0.000000
2.000000 2.181194 0.000000
2.000000 2.229010 0.000000
2.000000 2.269926 0.000000
2.000000 2.304938 0.000000
2.000000 2.334898 0.000000
2.000000 2.360534 0.000000
2.000000 2.382472 0.000000
2.000000 2.401244 0.000000
2.000000 2.417307 0.000000
2.000000 2.431052 0.000000
2.000000 2.442814 0.000000
2.000000 2.452878 0.000000
2.000000 2.461491 0.000000
2.000000 2.468860 0.000000
2.000000 2.475167 0.000000
2.000000 2.480563 0.000000
2.000000 2.485180 0.000000
2.000000 2.489132 0.000000
2.000000 2.492513 0.000000
2.000000 2.495406 0.000000
2.000000 2.497882 0.000000
2.000000 2.502286 0.000000
2.000000 2.505266 0.000000
2.000000 2.509150 0.000000
2.000000 2.514212 0.000000
2.000000 2.520809 0.000000
2.000000 2.529407 0.000000
2.000000 2.540613 0.000000
2.000000 2.555218 0.000000
2.000000 2.574253 0.000000
2.000000 2.599061 0.000000
2.000000 2.631395 0.000000
2.000000 2.673536 0.000000
2.000000 2.728460 0.000000
2.000000 2.800043 0.000000
2.000000 2.893339 0.000000
2.000000 3.014933 0.000000
2.000000 3.173410 0.000000
2.000000 3.379956 0.000000
2.000000 3.649152 0.000000
1.600000 4.000000 0.000000
1.200000 4.000000 0.000000
0.800000 4.000000 0.000000
0.400000 4.000000 0.000000
0.000000 3.624996 0.000000
0.000000 3.289970 0.000000
0.000000 2.990661 0.000000
0.000000 2.723261 0.000000
0.000000 2.484368 0.000000
0.000000 2.270943 0.000000
0.000000 2.080271 0.000000
0.000000 1.909926 0.000000
0.000000 1.757741 0.000000
0.000000 1.621780 0.000000
0.000000 1.500314 0.000000
0.000000 1.391797 0.000000
0.000000 1.294849 0.000000
0.000000 1.208237 0.000000
0.000000 1.130858 0.000000
0.000000 1.061728 0.000000
0.000000 0.999968 0.000000
0.000000 0.944792 0.000000
0.000000 0.895499 0.000000
0.000000 0.851460 0.000000
0.000000 0.812117 0.000000
0.000000 0.776968 0.000000
0.000000 0.745565 0.000000
0.000000 0.717511 0.000000
0.000000 0.692448 0.000000
0.000000 0.670056 0.000000
0.000000 0.650052 0.000000
0.000000 0.632180 0.000000
0.000000 0.616213 0.000000
0.000000 0.601949 0.000000
0.000000 0.589205 0.000000
0.000000 0.577820 0.000000
0.000000 0.567649 0.000000
0.000000 0.558562 0.000000
0.000000 0.550444 0.000000
0.000000 0.543191 0.000000
0.000000 0.536712 0.000000
0.000000 0.530923 0.000000
0.000000 0.525751 0.000000
0.000000 0.521131 0.000000
0.000000 0.517003 0.000000
0.000000 0.513315 0.000000
0.000000 0.510021 0.000000
0.000000 0.507078 0.000000
0.000000 0.504448 0.000000
0.000000 0.502099 0.000000
0.000000 0.497804 0.000000
0.000000 0.494785 0.000000
0.000000 0.490633 0.000000
0.000000 0.484924 0.000000
0.000000 0.477074 0.000000
0.000000 0.466279 0.000000
0.000000 0.451436 0.000000
0.000000 0.431025 0.000000
0.000000 0.402959 0.000000
0.000000 0.364366 0.000000
0.000000 0.311297 0.000000
0.000000 0.238324 0.000000
0.000000 0.137980 0.000000
0.001414 0.501414 0.000000
0.002828 0.502828 0.000000
0.004241 0.504241 0.000000
0.005655 0.505655 0.000000
0.007069 0.507069 0.000000
0.008483 0.508483 0.000000
0.009896 0.509896 0.000000
0.011310 0.511310 0.000000
0.012724 0.512724 0.000000
0.014138 0.514138 0.000000
0.015551 0.515551 0.000000
0.016965 0.516965 0.000000
0.018379 0.518379 0.000000
0.019793 0.519793 0.000000
0.021206 0.521206 0.000000
0.022620 0.522620 0.000000
0.024034 0.524034 0.000000
0.025448 0.525448 0.000000
0.026861 0.526861 0.000000
0.028275 0.528275 0.000000
0.029689 0.529689 0.000000
0.031103 0.531103 0.000000
0.032516 0.532516 0.000000
0.033930 0.533930 0.000000
0.035344 0.535344 0.000000
0.036758 0.536758 0.000000
0.038172 0.538172 0.000000
0.039585 0.539585 0.000000
0.040999 0.540999 0.000000
0.042413 0.542413 0.000000
0.043827 0.543827 0.000000
0.045240 0.545240 0.000000
0.046654 0.546654 0.000000
0.048068 0.548068 0.000000
0.049482 0.549482 0.000000
0.050895 0.550895 0.000000
0.052309 0.552309 0.000000
0.053723 0.553723 0.000000
0.055137 0.555137 0.000000
0.056550 0.556550 0.000000
0.057964 0.557964 0.000000
0.059378 0.559378 0.000000
0.060792 0.560792 0.000000
0.062205 0.562205 0.000000
0.063619 0.563619 0.000000
0.065033 0.565033 0.000000
0.066447 0.566447 0.000000
0.067861 0.567861 0.000000
0.069274 0.569274 0.000000
0.070688 0.570688 0.000000
0.072102 0.572102 0.000000
0.073516 0.573516 0.000000
0.074929 0.574929 0.000000
0.076343 0.576343 0.000000
0.077757 0.577757 0.000000
0.079171 0.579171 0.000000
0.080584 0.580584 0.000000
0.081998 0.581998 0.000000
0.083412 0.583412 0.000000
0.084826 0.584826 0.000000
0.086239 0.586239 0.000000
0.087653 0.587653 0.000000
0.089067 0.589067 0.000000
0.090481 0.590481 0.000000
0.091894 0.591894 0.000000
0.093308 0.593308 0.000000
0.094722 0.594722 0.000000
0.096136 0.596136 0.000000
0.097549 0.597549 0.000000
0.098963 0.598963 0.000000
0.100377 0.600377 0.000000
0.101791 0.601791 0.000000
0.103205 0.603205 0.000000
0.104618 0.604618 0.000000
0.106032 0.606032 0.000000
0.107446 0.607446 0.000000
0.108860 0.608860 0.000000
0.110273 0.610273 0.000000
0.111687 0.611687 0.000000
0.113101 0.613101 0.000000
0.114515 0.614515 0.000000
0.115928 0.615928 0.000000
0.117342 0.617342 0.000000
0.118756 0.618756 0.000000
0.120170 0.620170 0.000000
0.121583 0.621583 0.000000
0.122997 0.622997 0.000000
0.124411 0.624411 0.000000
0.125825 0.625825 0.000000
0.127238 0.627238 0.000000
0.128652 0.628652 0.000000
0.130066 0.630066 0.000000
0.131480 0.631480 0.000000
0.132893 0.632893 0.000000
0.134307 0.634307 0.000000
0.135721 0.635721 0.000000
0.137135 0.637135 0.000000
0.138549 0.638549 0.000000
0.139962 0.639962 0.000000
0.141376 0.641376 0.000000
0.142790 0.642790 0.000000
0.144204 0.644204 0.000000
0.145617 0.645617 0.000000
0.147031 0.647031 0.000000
0.148445 0.648445 0.000000
0.149859 0.649859 0.000000
0.151272 0.651272 0.000000
0.152686 0.652686 0.000000
0.154100 0.654100 0.000000
0.155514 0.655514 0.000000
0.156927 0.656927 0.000000
0.158341 0.658341 0.000000
0.159755 0.659755 0.000000
0.161169 0.661169 0.000000
0.162582 0.662582 0.000000
0.163996 0.663996 0.000000
0.165410 0.665410 0.000000
0.166824 0.666824 0.000000
0.168238 0.668238 0.000000
0.169651 0.669651 0.000000
0.171065 0.671065 0.000000
0.172479 0.672479 0.000000
0.173893 0.673893 0.000000
0.175306 0.675306 0.000000
0.176720 0.676720 0.000000
0.178134 0.678134 0.000000
0.179548 0.679548 0.000000
0.180961 0.680961 0.000000
0.182375 0.682375 0.000000
0.183789 0.683789 0.000000
0.185203 0.685203 0.000000
0.186616 0.686616 0.000000
0.188030 0.688030 0.000000
0.189444 0.689444 0.000000
0.190858 0.690858 0.000000
0.192271 0.692271 0.000000
0.193685 0.693685 0.000000
0.195099 0.695099 0.000000
0.196513 0.696513 0.000000
0.197926 0.697926 0.000000
0.199340 0.699340 0.000000
0.200754 0.700754 0.000000
0.202168 0.702168 0.000000
0.203582 0.703582 0.000000
0.204995 0.704995 0.000000
0.206409 0.706409 0.000000
0.207823 0.707823 0.000000
0.209237 0.709237 0.000000
0.210650 0.710650 0.000000
0.212064 0.712064 0.000000
0.213478 0.713478 0.000000
0.214892 0.714892 0.000000
0.216305 0.716305 0.000000
0.217719 0.717719 0.000000
0.219133 0.719133 0.000000
0.220547 0.720547 0.000000
0.221960 0.721960 0.000000
0.223374 0.723374 0.000000
0.224788 0.724788 0.000000
0.226202 0.726202 0.000000
0.227615 0.727615 0.000000
0.229029 0.729029 0.000000
0.230443 0.730443 0.000000
0.231857 0.731857 0.000000
0.233270 0.733270 0.000000
0.234684 0.734684 0.000000
0.236098 0.736098 0.000000
0.237512 0.737512 0.000000
0.238926 0.738926 0.000000
0.240339 0.740339 0.000000
0.241753 0.741753 0.000000
0.243167 0.743167 0.000000
0.244581 0.744581 0.000000
0.245994 0.745994 0.000000
0.247408 0.747408 0.000000
0.248822 0.748822 0.000000
0.250236 0.750236 0.000000
0.251649 0.751649 0.000000
0.253063 0.753063 0.000000
0.254477 0.754477 0.000000
0.255891 0.755891 0.000000
0.257304 0.757304 0.000000
0.258718 0.758718 0.000000
0.260132 0.760132 0.000000
0.261546 0.761546 0.000000
0.262959 0.762959 0.000000
0.264373 0.764373 0.000000
0.265787 0.765787 0.000000
0.267201 0.767201 0.000000
0.268615 0.768615 0.000000
0.270028 0.770028 0.000000
0.271442 0.771442 0.000000
0.272856 0.772856 0.000000
0.274270 0.774270 0.000000
0.275683 0.775683 0.000000
0.277097 0.777097 0.000000
0.278511 0.778511 0.000000
0.279925 0.779925 0.000000
0.281338 0.781338 0.000000
0.282752 0.782752 0.000000
0.284166 0.784166 0.000000
0.285580 0.785580 0.000000
0.286993 0.786993 0.000000
0.288407 0.788407 0.000000
0.289821 0.789821 0.000000
0.291235 0.791235 0.000000
0.292648 0.792648 0.000000
0.294062 0.794062 0.000000
0.295476 0.795476 0.000000
0.296890 0.796890 0.000000
0.298303 0.798303 0.000000
0.299717 0.799717 0.000000
0.301131 0.801131 0.000000
0.302545 0.802545 0.000000
0.303959 0.803959 0.000000
0.305372 0.805372 0.000000
0.306786 0.806786 0.000000
0.308200 0.808200 0.000000
0.309614 0.809614 0.000000
0.311027 0.811027 0.000000
0.312441 0.812441 0.000000
0.313855 0.813855 0.000000
0.315269 0.815269 0.000000
0.316682 0.816682 0.000000
0.318096 0.818096 0.000000
0.319510 0.819510 0.000000
0.320924 0.820924 0.000000
0.322337 0.822337 0.000000
0.323751 0.823751 0.000000
0.325165 0.825165 0.000000
0.326579 0.826579 0.000000
0.327992 0.827992 0.000000
0.329406 0.829406 0.000000
0.330820 0.830820 0.000000
0.332234 0.832234 0.000000
0.333648 0.833648 0.000000
0.335061 0.835061 0.000000
0.336475 0.836475 0.000000
0.337889 0.837889 0.000000
0.339303 0.839303 0.000000
0.340716 0.840716 0.000000
[...]
POINT_DATA 20431
SCALARS UX float 1
LOOKUP_TABLE default
-0.000000
0.000000
-0.015431
-0.024435
-0.004982
-0.006394
-0.010762
-0.000000
-0.000000
0.000000
-0.000000
0.003767
0.005144
0.005893
0.006277
0.006376
0.006097
0.005317
0.003991
0.002244
0.000222
-0.001728
-0.003468
-0.004914
-0.006084
-0.007004
-0.007731
-0.008307
-0.008765
-0.009133
-0.009431
-0.009673
-0.009872
-0.010037
-0.010173
-0.010287
-0.010382
-0.010462
-0.010529
-0.010586
-0.010633
-0.010674
-0.010708
-0.010738
-0.010789
-0.010824
-0.010868
-0.010925
-0.010998
-0.011092
-0.011209
-0.011358
-0.011545
-0.011768
-0.012036
-0.012357
-0.012729
-0.013141
-0.013596
-0.014067
-0.014508
-0.014971
-0.015286
-0.017778
-0.019810
-0.021477
-0.022963
-0.024108
-0.023446
-0.022557
-0.021691
-0.021048
-0.020702
-0.020689
-0.020927
-0.021375
-0.021908
-0.022491
-0.023079
-0.023656
-0.024217
-0.024750
-0.025255
-0.025688
-0.025975
-0.026063
-0.025978
-0.025783
-0.025515
-0.025212
-0.024872
-0.024526
-0.024168
-0.023759
-0.023326
-0.022992
-0.022812
-0.023664
-0.024571
-0.025544
-0.026531
-0.026945
-0.027720
-0.026496
-0.024942
-0.024849
-0.024654
-0.024871
-0.025018
-0.023813
-0.026873
-0.018763
-0.007946
-0.004967
-0.004959
-0.004848
-0.004558
-0.004041
-0.003662
-0.003368
-0.003132
-0.002920
-0.002722
-0.002441
-0.002070
-0.001430
-0.004960
-0.004954
-0.005007
-0.004975
-0.004947
-0.004895
-0.004791
-0.004513
-0.006922
-0.007411
-0.006003
-0.008449
-0.014549
-0.013272
-0.012255
-0.014610
-0.018366
-0.024103
-0.027368
-0.024055
-0.019717
-0.019439
-0.018825
-0.035616
-0.015475
-0.031409
-0.035175
-0.124495
-0.022175
-0.018138
-0.048281
-0.057865
-0.046887
-0.046654
-0.036205
-0.030984
0.002661
0.003391
0.004220
0.005445
0.005555
0.005529
0.002498
-0.017344
-0.016713
-0.016197
-0.023368
-0.010771
-0.011453
-0.011225
-0.009248
-0.008485
-0.007610
-0.004510
-0.004850
-0.004967
-0.004388
-0.003825
-0.005007
-0.008827
-0.011676
-0.009818
-0.007671
-0.007567
-0.007377
-0.007213
-0.008151
-0.008210
-0.011387
-0.004943
-0.004202
-0.004049
-0.004429
-0.009218
-0.009306
-0.009132
-0.013565
-0.013226
-0.013136
-0.015115
-0.013072
-0.012745
-0.013306
-0.008100
-0.006177
-0.005370
-0.006607
-0.006563
-0.006451
-0.006371
-0.006292
0.001153
-0.005446
-0.005951
-0.006198
-0.006224
-0.012993
-0.012831
-0.012759
-0.012756
-0.012992
-0.013279
-0.013146
-0.013078
-0.012938
-0.012939
-0.012931
-0.012921
-0.013870
-0.017423
-0.016001
-0.014458
-0.012382
-0.010113
-0.013984
-0.014481
-0.013911
-0.013385
-0.013164
-0.013155
-0.011625
-0.011753
-0.011810
-0.012149
-0.012197
-0.012101
-0.013499
-0.013274
-0.012913
-0.012346
-0.012669
-0.013149
-0.013734
-0.013556
-0.013460
-0.011258
-0.011222
-0.010867
-0.010438
-0.010974
-0.011050
-0.011020
-0.011522
-0.011943
-0.011937
-0.011596
-0.011553
-0.011763
-0.011154
-0.010970
-0.011492
-0.015448
-0.015519
-0.015801
-0.006123
-0.005798
-0.006756
-0.007270
-0.005931
-0.005129
-0.005683
-0.005600
-0.005401
-0.006671
-0.004704
-0.004133
-0.005016
-0.005175
-0.005515
-0.000898
0.013093
0.049245
0.076313
0.051494
0.063384
0.023683
0.254417
0.101692
0.010737
-0.011750
-0.027938
-0.028085
-0.025705
-0.024428
-0.024681
-0.022206
-0.022515
-0.018150
-0.018233
-0.017923
-0.017601
-0.015920
-0.013667
-0.013668
-0.013740
-0.014131
-0.013769
-0.014630
-0.016080
-0.016184
-0.016171
-0.016354
-0.016321
-0.016321
-0.014063
-0.011896
-0.012149
-0.011843
-0.011946
-0.019228
-0.018550
-0.019285
-0.018281
-0.016136
-0.019983
-0.020689
-0.020671
-0.020328
-0.020299
-0.020398
-0.020322
-0.015328
-0.012311
-0.011779
-0.012888
-0.014365
-0.014128
-0.012204
-0.011363
-0.010550
-0.010925
-0.014088
-0.012315
-0.012401
-0.012198
-0.011036
-0.011750
-0.011211
-0.009652
-0.012285
-0.012400
-0.012526
-0.010311
-0.010263
-0.013804
-0.013717
-0.013635
-0.013574
-0.013682
-0.013769
-0.009252
-0.008785
-0.008040
-0.009932
-0.009483
-0.026876
-0.018746
-0.009445
-0.009658
-0.009367
-0.009299
-0.009758
-0.009619
-0.009377
-0.009169
-0.011275
-0.011470
-0.011349
-0.011080
-0.011127
-0.011122
-0.011338
-0.011370
-0.011185
-0.011261
-0.011423
-0.011030
-0.010631
-0.011383
-0.009504
-0.010122
-0.010597
-0.010861
-0.011042
-0.007552
-0.007528
-0.007389
-0.007265
-0.007083
-0.007178
-0.007597
-0.007439
-0.006849
-0.007399
-0.007477
-0.007258
-0.009877
-0.010388
-0.010507
-0.010540
-0.010458
-0.010559
-0.010512
-0.010409
-0.010498
-0.010483
-0.010424
-0.010414
-0.010328
-0.009628
-0.010041
-0.010058
-0.010021
-0.010025
-0.010062
-0.010176
-0.010055
-0.010029
-0.009641
-0.009029
-0.009059
-0.010343
-0.011396
-0.011578
-0.010892
-0.009821
-0.011715
-0.011669
-0.011552
-0.011221
-0.011351
-0.011565
-0.011288
-0.011236
-0.011247
-0.011073
-0.010785
-0.011313
-0.011630
-0.011741
-0.011596
-0.011571
-0.011280
-0.011452
-0.010856
-0.010946
-0.011183
-0.011268
-0.011467
-0.011809
-0.011726
-0.011691
-0.011539
-0.011291
-0.011964
-0.011956
-0.013095
-0.012246
-0.012953
-0.010746
-0.012975
-0.011660
-0.011701
-0.011841
-0.012111
-0.012108
-0.012107
-0.012086
-0.011749
-0.011745
-0.011674
-0.011643
-0.011551
-0.011395
-0.011463
-0.011352
-0.011411
-0.011498
-0.011415
-0.011339
-0.011300
-0.011212
-0.011100
-0.011085
-0.011292
-0.008533
-0.010631
-0.010961
-0.011061
-0.010933
-0.010911
-0.010926
-0.010863
-0.010812
-0.010785
-0.010747
-0.010624
-0.010609
-0.010610
-0.010512
-0.010603
-0.010526
-0.010526
-0.010499
-0.010384
-0.010253
-0.010178
-0.010197
-0.010278
-0.010279
-0.010548
-0.010739
-0.009555
-0.009690
-0.009730
-0.009690
-0.009805
-0.008651
-0.009070
-0.008736
-0.008943
-0.008773
-0.007880
-0.004935
-0.008513
-0.008501
-0.008799
-0.007943
-0.009522
-0.009259
-0.009393
-0.009448
-0.009276
-0.008844
-0.008828
-0.008320
-0.008269
-0.010663
-0.010513
-0.010321
-0.010282
-0.010405
-0.010485
-0.010267
-0.010337
-0.010494
-0.010362
-0.010173
-0.009907
-0.009951
-0.010022
-0.010004
-0.010723
-0.010727
-0.010807
-0.010777
-0.010713
-0.010682
-0.010765
-0.011539
-0.011222
-0.012501
-0.012455
-0.012499
-0.012417
-0.012509
-0.012595
-0.012491
-0.012442
-0.012406
-0.012370
-0.006721
-0.008320
-0.011548
-0.012997
-0.014735
-0.010576
-0.007184
-0.007894
-0.008074
-0.007284
-0.007270
-0.007615
-0.008377
-0.009745
-0.010146
-0.009913
-0.010165
-0.010777
-0.008892
-0.007459
-0.011764
-0.008952
-0.008562
-0.008644
-0.008653
-0.008617
-0.009024
-0.009458
-0.011173
-0.009923
-0.009593
-0.009636
-0.009675
-0.009850
-0.009888
-0.008526
-0.008498
-0.009735
-0.009544
-0.009351
-0.009240
-0.009592
-0.010636
-0.010877
-0.008549
-0.007326
-0.007367
-0.007379
-0.006060
-0.005873
-0.005725
-0.008046
-0.008098
-0.008018
-0.007913
-0.007717
-0.007771
-0.007854
-0.007925
-0.007802
-0.013302
-0.013446
-0.013399
-0.013317
-0.009450
-0.009204
-0.009369
-0.009304
-0.009169
-0.009152
-0.009051
-0.009082
-0.008588
-0.012936
-0.013026
-0.012467
-0.010175
-0.008465
-0.009943
-0.013473
-0.015206
-0.010702
-0.011994
-0.012756
-0.011964
-0.011218
-0.010138
-0.009967
-0.009835
-0.010666
-0.009980
-0.010033
-0.010182
-0.009883
-0.009929
-0.010031
-0.009919
-0.009913
-0.009859
-0.009553
-0.009543
-0.009593
-0.009585
-0.008942
-0.009232
-0.009492
-0.009503
-0.009530
-0.009450
-0.009387
-0.009299
-0.009154
-0.009416
-0.009280
-0.009231
-0.009195
-0.007867
-0.009565
-0.009280
-0.009011
-0.009015
-0.009023
-0.009047
-0.009032
-0.008982
-0.009073
-0.009292
-0.009211
-0.008513
-0.009638
-0.009584
-0.009673
-0.009589
-0.009571
-0.009521
-0.009576
-0.009595
-0.009658
-0.009611
-0.009549
-0.009015
-0.008222
-0.008742
-0.008948
-0.009202
-0.008842
-0.008847
-0.008884
-0.008984
-0.008899
-0.008829
-0.008548
-0.008543
-0.008450
-0.008351
-0.008384
-0.008426
-0.008293
-0.009515
-0.005494
-0.007733
-0.008182
-0.008173
-0.008008
-0.007866
-0.007736
-0.008158
-0.008164
-0.008116
-0.007866
-0.007740
-0.007783
-0.007715
-0.007924
-0.006736
-0.006809
-0.006968
-0.008518
-0.009007
-0.007550
-0.007176
-0.006902
-0.009668
-0.009622
-0.009725
-0.009678
-0.009774
-0.009807
-0.009737
-0.009721
-0.010053
-0.009614
-0.009243
-0.010289
-0.010490
-0.010697
-0.010090
-0.009543
-0.009992
-0.010884
-0.007910
-0.008769
-0.009360
-0.009930
-0.010016
-0.009896
-0.009837
-0.011000
-0.009979
-0.009819
-0.009650
-0.009527
-0.009532
-0.009495
-0.007501
-0.007397
-0.006903
-0.007489
-0.007509
-0.007769
-0.007896
-0.008357
-0.009679
-0.009362
-0.009180
-0.009039
-0.008978
-0.009027
-0.007877
-0.008724
-0.006687
-0.005475
-0.006075
-0.006222
-0.006518
-0.006942
-0.007023
-0.006793
-0.007159
-0.007325
-0.007480
-0.007601
-0.007512
-0.007382
-0.007277
-0.007302
-0.006439
-0.006354
-0.006528
-0.006224
-0.006245
-0.005928
-0.006781
-0.006866
-0.006824
-0.006798
-0.006857
-0.006734
-0.006543
-0.005525
-0.005600
-0.005574
-0.005461
-0.006429
-0.005242
-0.005247
-0.005236
-0.005253
-0.008537
-0.008486
-0.008513
-0.008785
-0.008815
-0.008763
-0.008800
-0.006289
-0.006228
-0.006289
-0.006506
-0.007436
-0.007431
-0.007189
-0.005223
-0.005429
-0.005434
-0.006725
-0.007806
-0.007326
-0.007275
-0.007451
-0.007492
-0.006371
-0.006156
-0.007323
-0.006639
-0.011460
-0.008393
-0.007589
-0.008096
-0.007889
-0.008313
-0.008220
-0.008082
-0.007762
-0.007519
-0.006496
-0.005963
-0.005602
-0.005538
-0.006013
-0.006073
-0.006149
-0.006635
-0.004360
-0.005109
-0.005537
-0.006174
-0.006945
-0.008295
-0.007082
-0.006962
-0.007076
-0.007212
-0.007192
-0.006870
-0.005738
-0.006813
-0.006293
-0.006296
-0.006333
-0.006327
-0.006128
-0.006333
-0.006313
-0.006357
-0.006387
-0.006344
-0.006324
-0.006313
-0.006230
-0.006139
-0.006078
-0.006115
-0.006096
-0.006160
-0.006394
-0.005968
-0.006168
-0.006181
-0.006185
-0.006158
-0.006029
-0.005951
-0.006000
-0.005735
-0.005429
-0.005382
-0.005974
-0.001438
-0.006117
-0.006120
-0.005543
-0.005319
-0.006237
-0.007516
-0.008675
-0.005225
-0.004045
-0.005749
-0.008872
-0.006085
-0.008884
-0.008702
-0.008489
-0.008432
-0.009088
-0.008696
-0.008535
-0.008864
-0.009082
-0.005732
-0.006031
-0.006151
-0.008263
-0.008377
-0.008103
-0.008468
-0.006877
-0.006256
-0.005678
-0.006018
-0.005789
-0.005092
-0.005111
-0.004619
-0.004093
-0.004112
-0.006120
-0.005590
-0.005471
-0.005629
-0.005683
-0.004338
-0.003104
-0.003864
-0.004448
-0.004836
-0.004532
-0.005207
-0.005159
-0.004918
-0.004431
-0.004296
-0.004800
-0.005849
-0.005930
-0.006096
-0.005278
-0.005873
-0.004016
-0.004224
-0.004555
-0.006747
-0.006591
-0.006415
-0.007474
-0.010800
-0.010836
-0.010602
-0.010564
-0.010571
-0.010722
-0.010808
-0.010698
-0.010534
-0.010355
-0.012510
-0.002027
-0.002487
-0.002601
-0.007883
-0.007950
-0.006433
-0.007341
-0.007711
-0.007767
-0.007719
-0.008183
-0.007869
-0.007139
-0.007602
-0.007884
-0.007807
-0.007535
-0.007505
-0.008479
-0.009102
-0.008521
-0.008523
-0.004061
-0.004056
-0.004704
-0.005189
-0.004237
-0.004206
-0.004938
-0.005698
-0.004606
-0.004314
-0.004428
-0.005417
-0.004577
-0.003680
-0.006525
-0.007017
-0.008348
-0.009638
-0.009596
-0.009548
-0.009679
-0.008236
-0.008065
-0.008299
-0.009128
-0.008899
-0.009106
-0.006527
-0.006549
-0.007501
-0.008083
-0.006440
-0.006401
-0.006431
-0.006378
-0.006281
-0.006781
-0.006788
-0.006814
-0.006798
-0.006725
-0.006813
-0.006430
-0.006463
-0.006570
-0.006994
-0.007707
-0.007251
-0.007192
-0.007653
-0.007224
-0.007393
-0.007272
-0.007221
-0.007350
-0.005616
-0.005660
-0.005732
-0.005743
-0.008827
-0.008518
-0.008396
-0.008315
-0.005429
-0.005775
-0.006067
-0.005810
-0.005756
-0.005686
-0.005773
-0.005787
-0.005770
-0.006813
-0.007057
-0.007196
-0.007184
-0.007247
-0.007068
-0.007121
-0.007050
-0.007022
-0.006493
-0.006575
-0.006490
-0.006535
-0.006634
-0.006653
-0.007050
-0.006546
-0.006530
-0.006397
-0.006374
-0.006438
-0.004978
-0.004890
-0.004755
-0.004643
-0.004680
-0.004772
-0.004730
-0.004664
-0.005512
-0.007366
-0.005959
-0.007334
-0.007219
-0.006955
-0.006838
-0.006366
-0.006481
-0.006557
-0.006472
-0.006445
-0.006873
-0.006881
-0.006842
-0.006764
-0.006800
-0.006802
-0.006757
-0.006745
-0.006721
-0.006682
-0.006639
-0.006636
-0.006643
-0.006615
-0.006587
-0.006538
-0.006472
-0.006342
-0.006364
-0.006383
-0.006395
-0.006405
-0.006419
-0.006434
-0.006452
-0.006471
-0.006490
-0.006510
-0.006528
-0.006545
-0.006565
-0.006586
-0.006608
-0.006630
-0.006650
-0.006670
-0.006692
-0.006714
-0.006735
-0.006757
-0.006778
-0.006799
-0.006820
-0.006841
-0.006862
-0.006882
-0.006902
-0.006922
-0.006943
-0.006963
-0.006982
-0.007002
-0.007021
-0.007040
-0.007059
-0.007078
-0.007096
-0.007115
-0.007133
-0.007151
-0.007170
-0.007187
-0.007205
-0.007223
-0.007241
-0.007258
-0.007275
-0.007293
-0.007310
-0.007327
-0.007344
-0.007361
-0.007378
-0.007395
-0.007412
-0.007428
-0.007445
-0.007461
-0.007478
-0.007494
-0.007510
-0.007527
-0.007543
-0.007559
-0.007575
-0.007591
-0.007607
-0.007623
-0.007638
-0.007654
-0.007670
-0.007685
-0.007701
-0.007716
-0.007732
-0.007747
-0.007762
-0.007778
-0.007793
-0.007808
-0.007823
-0.007838
-0.007853
-0.007868
-0.007883
-0.007897
-0.007912
-0.007927
-0.007942
-0.007956
-0.007971
-0.007986
-0.008000
-0.008015
-0.008029
-0.008044
-0.008058
-0.008073
-0.008087
-0.008102
-0.008116
-0.008130
-0.008145
-0.008159
-0.008173
-0.008188
-0.008202
-0.008216
-0.008230
-0.008244
-0.008258
-0.008272
-0.008287
-0.008301
-0.008315
-0.008329
-0.008343
-0.008357
-0.008371
-0.008385
-0.008399
-0.008413
-0.008427
-0.008441
-0.008455
-0.008468
-0.008482
-0.008496
-0.008510
-0.008524
-0.008538
-0.008552
-0.008565
-0.008579
-0.008593
-0.008607
-0.008621
-0.008634
-0.008648
-0.008662
-0.008676
-0.008690
-0.008703
-0.008717
-0.008731
-0.008745
-0.008758
-0.008772
-0.008786
-0.008799
-0.008813
-0.008827
-0.008840
-0.008854
-0.008868
-0.008881
-0.008895
-0.008909
-0.008922
-0.008936
-0.008950
-0.008963
-0.008977
-0.008990
-0.009004
-0.009017
-0.009031
-0.009044
-0.009058
-0.009071
-0.009085
-0.009099
-0.009113
-0.009128
-0.009142
-0.009156
-0.009170
-0.009185
-0.009199
-0.009213
-0.009227
-0.009241
-0.009255
-0.009269
-0.009283
-0.009297
-0.009311
-0.009325
-0.009338
-0.009352
-0.009366
-0.009380
-0.009393
-0.009407
-0.009421
-0.009434
-0.009448
-0.009461
-0.009474
-0.009488
-0.009501
-0.009514
-0.009528
-0.009541
-0.009554
-0.009567
-0.009580
-0.009593
-0.009606
-0.009619
-0.009632
-0.009645
-0.009657
-0.009670
-0.009683
-0.009695
-0.009708
-0.009721
-0.009733
-0.009745
-0.009758
-0.009770
-0.009782
-0.009795
-0.009807
-0.009819
-0.009831
-0.009843
-0.009855
-0.009867
-0.009879
-0.009890
-0.009902
-0.009914
-0.009925
-0.009937
-0.009949
-0.009960
-0.009971
-0.009983
-0.009994
-0.010005
-0.010016
-0.010027
-0.010038
-0.010049
-0.010060
-0.010071
-0.010082
-0.010093
-0.010103
-0.010114
-0.010124
-0.010135
-0.010145
-0.010155
-0.010166
-0.010176
-0.010186
-0.010196
-0.010206
-0.010215
-0.010225
-0.010235
-0.010245
-0.010254
-0.010264
-0.010273
-0.010282
-0.010292
-0.010301
-0.010310
-0.010319
-0.010328
-0.010336
-0.010345
-0.010354
-0.010362
-0.010371
-0.010379
-0.010388
-0.010396
-0.010404
-0.010412
-0.010420
-0.010428
-0.010436
-0.010444
-0.010452
-0.010459
-0.010467
-0.010474
-0.010482
-0.010489
-0.010496
-0.010503
-0.010510
-0.010517
-0.010524
-0.010531
-0.010537
-0.010544
-0.010550
-0.010557
-0.010563
-0.010569
-0.010576
-0.010582
-0.010588
-0.010593
-0.010599
-0.010605
-0.010611
-0.010616
-0.010622
-0.010627
-0.010632
-0.010637
-0.010643
-0.010648
-0.010653
-0.010657
-0.010662
-0.010667
-0.010672
-0.010676
-0.010681
-0.010685
-0.010689
-0.010693
-0.010697
-0.010701
-0.010705
-0.010709
-0.010713
-0.010717
-0.010720
-0.010724
-0.010727
-0.010731
-0.010734
-0.010737
-0.010740
-0.010743
-0.010746
-0.010749
-0.010752
-0.010755
-0.010757
-0.010760
-0.008821
-0.008865
-0.008890
-0.008117
-0.008066
-0.008097
-0.017772
-0.018457
-0.018808
-0.019770
-0.015186
-0.009844
-0.009776
-0.009832
-0.009778
-0.008789
-0.008839
-0.008786
-0.014761
-0.013370
-0.016212
-0.015050
-0.015607
-0.015442
-0.013833
-0.013415
-0.016426
-0.013158
-0.016075
-0.011591
-0.011941
-0.011429
-0.011894
-0.017947
-0.017906
-0.018422
-0.018415
-0.010152
-0.010657
-0.009576
-0.011284
-0.018903
-0.019115
-0.018844
-0.019051
-0.009595
-0.009837
-0.009724
-0.009636
-0.017396
-0.016375
-0.014616
-0.013085
-0.012920
-0.012774
-0.012323
-0.014971
-0.015350
-0.015305
-0.015613
-0.015312
-0.015112
-0.015126
-0.020792
-0.020660
-0.020702
-0.016125
-0.015794
-0.016505
-0.016447
-0.010150
-0.009975
-0.010166
-0.009931
-0.017061
-0.016972
-0.017079
-0.016858
-0.012732
-0.012648
-0.013153
-0.012041
-0.012165
-0.012378
-0.012881
-0.011303
-0.016960
-0.016949
-0.017371
-0.017510
-0.008992
-0.009070
-0.009041
-0.018970
-0.019291
-0.018902
-0.015218
-0.009204
-0.009303
-0.009210
-0.009236
-0.010695
-0.010084
-0.010834
-0.015382
-0.015449
-0.015745
-0.009585
-0.014356
-0.014459
-0.014461
-0.015131
-0.011004
-0.011201
-0.011284
-0.008734
-0.008755
-0.008868
-0.008810
-0.008196
-0.008095
-0.009467
-0.008452
-0.011416
-0.020598
-0.021659
-0.020852
-0.010113
-0.010090
-0.010046
-0.021641
-0.019566
-0.020375
-0.020273
-0.019575
-0.020289
-0.020226
-0.020569
-0.020405
-0.018310
-0.018672
-0.018270
-0.015330
-0.015336
-0.015456
-0.015457
-0.018478
-0.011332
-0.011331
-0.011579
-0.019636
-0.019869
-0.019802
-0.020894
-0.021000
-0.021031
-0.011419
-0.009107
-0.009180
-0.009201
-0.016285
-0.014074
-0.013989
-0.008956
-0.008873
-0.008929
-0.008878
-0.010935
-0.011022
-0.010953
-0.011095
-0.016394
-0.016601
-0.016472
-0.016581
-0.012585
-0.012420
-0.012684
-0.012303
-0.021966
-0.022078
-0.022283
-0.021753
-0.010639
-0.010630
-0.024884
-0.024582
-0.024754
-0.024467
-0.019344
-0.019576
-0.019274
-0.019808
-0.010868
-0.010809
-0.010806
-0.019675
-0.019247
-0.023126
-0.023154
-0.023028
-0.009278
-0.009403
-0.009377
-0.011868
-0.011818
-0.011354
-0.011306
-0.016703
-0.016802
-0.016698
-0.020979
-0.021175
-0.021810
-0.021473
-0.010982
-0.010967
-0.010883
-0.011088
-0.010159
-0.010063
-0.010099
-0.009476
-0.011097
-0.011170
-0.011210
-0.011272
-0.016298
-0.015634
-0.015597
-0.016110
-0.018156
-0.018025
-0.018250
-0.010297
-0.010402
-0.010426
-0.010539
-0.019025
-0.018902
-0.019101
-0.018890
-0.010000
-0.009997
-0.010362
-0.016050
-0.015462
-0.015334
-0.015826
-0.023942
-0.024010
-0.023871
-0.024108
-0.010427
-0.010435
-0.011122
-0.009664
-0.009533
-0.009824
-0.016426
-0.016380
-0.016283
-0.016273
-0.019162
-0.019782
-0.019124
-0.019867
-0.019005
-0.019077
-0.019321
-0.018731
-0.017714
-0.017651
-0.017816
-0.017823
-0.021034
-0.021090
-0.020941
-0.020967
-0.010660
-0.010534
-0.010582
-0.010553
-0.015835
-0.014030
-0.013904
-0.025028
-0.025226
-0.025321
-0.024840
-0.007036
-0.008575
-0.007462
-0.014038
-0.011607
-0.019848
-0.019735
-0.019885
-0.019706
-0.011591
-0.011910
-0.011864
-0.012178
-0.015456
-0.014935
-0.015446
-0.014772
-0.010327
-0.010504
-0.010576
-0.010791
-0.010781
-0.011073
-0.010745
-0.011076
-0.020603
-0.020583
-0.020672
-0.020667
-0.018549
-0.017927
-0.017995
-0.018685
-0.009596
-0.009471
-0.009736
-0.009346
-0.009843
-0.009636
-0.009331
-0.015969
-0.015126
-0.015610
-0.015486
-0.011046
-0.011095
-0.010919
-0.009128
-0.018440
-0.018523
-0.018595
-0.018367
-0.009519
-0.009578
-0.009602
-0.009678
-0.014135
-0.013757
-0.014212
-0.013784
-0.011140
-0.010832
-0.018063
-0.017992
-0.017956
-0.017870
-0.016099
-0.016263
-0.016055
-0.016324
-0.012861
-0.011250
-0.012268
-0.010252
-0.010329
-0.010260
-0.022515
-0.022530
-0.022400
-0.022341
-0.010116
-0.020786
-0.020669
-0.020624
-0.010521
-0.010286
-0.010363
-0.010204
-0.009078
-0.009075
-0.009139
-0.009126
-0.012051
-0.012151
-0.012209
-0.011914
-0.012007
-0.012332
-0.012103
-0.012355
-0.011599
-0.011554
-0.011352
-0.011540
-0.011448
-0.013862
-0.014623
-0.013300
-0.014684
-0.014371
-0.013986
-0.013995
-0.010845
-0.010955
-0.011122
-0.010397
-0.010264
-0.010296
-0.010344
-0.009034
-0.009119
-0.009140
-0.018976
-0.018749
-0.009031
-0.007997
-0.008088
-0.008062
-0.008150
-0.016888
-0.017197
-0.018109
-0.010434
-0.014020
-0.014084
-0.014145
-0.014233
-0.023424
-0.023319
-0.023304
-0.023212
-0.011213
-0.011340
-0.011326
-0.011160
-0.021371
-0.021261
-0.021404
-0.021294
-0.020807
-0.021113
-0.020832
-0.020944
-0.007684
-0.007580
-0.007478
-0.021542
-0.021523
-0.021719
-0.013227
-0.013187
-0.013335
-0.013364
-0.008849
-0.007658
-0.007660
-0.007544
-0.010647