# vtk DataFile Version 2.0
Test
ASCII
DATASET POLYDATA
POINTS 20431 float
0.000000 0.000000 0.000000
2.000000 0.000000 0.000000
2.000000 4.000000 0.000000
0.000000 4.000000 0.000000
0.000000 0.500000 0.000000
1.500000 2.000000 0.000000
2.000000 2.500000 0.000000
0.400000 0.000000 0.000000
0.800000 0.000000 0.000000
1.200000 0.000000 0.000000
1.600000 0.000000 0.000000
2.000000 0.362557 0.000000
2.000000 0.672798 0.000000
2.000000 0.938272 0.000000
2.000000 1.165439 0.000000
2.000000 1.359826 0.000000
2.000000 1.526163 0.000000
2.000000 1.668499 0.000000
2.000000 1.790295 0.000000
2.000000 1.894517 0.000000
2.000000 1.983700 0.000000
2.000000 2.060013 0.000000
2.000000 2.125315 0.000000
2.000000 2.181194 0.000000
2.000000 2.229010 0.000000
2.000000 2.269926 0.000000
2.000000 2.304938 0.000000
2.000000 2.334898 0.000000
2.000000 2.360534 0.000000
2.000000 2.382472 0.000000
2.000000 2.401244 0.000000
2.000000 2.417307 0.000000
2.000000 2.431052 0.000000
2.000000 2.442814 0.000000
2.000000 2.452878 0.000000
2.000000 2.461491 0.000000
2.000000 2.468860 0.000000
2.000000 2.475167 0.000000
2.000000 2.480563 0.000000
2.000000 2.485180 0.000000
2.000000 2.489132 0.000000
2.000000 2.492513 0.000000
2.000000 2.495406 0.000000
2.000000 2.497882 0.000000
2.000000 2.502286 0.000000
2.000000 2.505266 0.000000
2.000000 2.509150 0.000000
2.000000 2.514212 0.000000
2.000000 2.520809 0.000000
2.000000 2.529407 0.000000
2.000000 2.540613 0.000000
2.000000 2.555218 0.000000
2.000000 2.574253 0.000000
2.000000 2.599061 0.000000
2.000000 2.631395 0.000000
2.000000 2.673536 0.000000
2.000000 2.728460 0.000000
2.000000 2.800043 0.000000
2.000000 2.893339 0.000000
2.000000 3.014933 0.000000
2.000000 3.173410 0.000000
2.000000 3.379956 0.000000
2.000000 3.649152 0.000000
1.600000 4.000000 0.000000
1.200000 4.000000 0.000000
0.800000 4.000000 0.000000
0.400000 4.000000 0.000000
0.000000 3.624996 0.000000
0.000000 3.289970 0.000000
0.000000 2.990661 0.000000
0.000000 2.723261 0.000000
0.000000 2.484368 0.000000
0.000000 2.270943 0.000000
0.000000 2.080271 0.000000
0.000000 1.909926 0.000000
0.000000 1.757741 0.000000
0.000000 1.621780 0.000000
0.000000 1.500314 0.000000
0.000000 1.391797 0.000000
0.000000 1.294849 0.000000
0.000000 1.208237 0.000000
0.000000 1.130858 0.000000
0.000000 1.061728 0.000000
0.000000 0.999968 0.000000
0.000000 0.944792 0.000000
0.000000 0.895499 0.000000
0.000000 0.851460 0.000000
0.000000 0.812117 0.000000
0.000000 0.776968 0.000000
0.000000 0.745565 0.000000
0.000000 0.717511 0.000000
0.000000 0.692448 0.000000
0.000000 0.670056 0.000000
0.000000 0.650052 0.000000
0.000000 0.632180 0.000000
0.000000 0.616213 0.000000
0.000000 0.601949 0.000000
0.000000 0.589205 0.000000
0.000000 0.577820 0.000000
0.000000 0.567649 0.000000
0.000000 0.558562 0.000000
0.000000 0.550444 0.000000
0.000000 0.543191 0.000000
0.000000 0.536712 0.000000
0.000000 0.530923 0.000000
0.000000 0.525751 0.000000
0.000000 0.521131 0.000000
0.000000 0.517003 0.000000
0.000000 0.513315 0.000000
0.000000 0.510021 0.000000
0.000000 0.507078 0.000000
0.000000 0.504448 0.000000
0.000000 0.502099 0.000000
0.000000 0.497804 0.000000
0.000000 0.494785 0.000000
0.000000 0.490633 0.000000
0.000000 0.484924 0.000000
0.000000 0.477074 0.000000
0.000000 0.466279 0.000000
0.000000 0.451436 0.000000
0.000000 0.431025 0.000000
0.000000 0.402959 0.000000
0.000000 0.364366 0.000000
0.000000 0.311297 0.000000
0.000000 0.238324 0.000000
0.000000 0.137980 0.000000
0.001414 0.501414 0.000000
0.002828 0.502828 0.000000
0.004241 0.504241 0.000000
0.005655 0.505655 0.000000
0.007069 0.507069 0.000000
0.008483 0.508483 0.000000
0.009896 0.509896 0.000000
0.011310 0.511310 0.000000
0.012724 0.512724 0.000000
0.014138 0.514138 0.000000
0.015551 0.515551 0.000000
0.016965 0.516965 0.000000
0.018379 0.518379 0.000000
0.019793 0.519793 0.000000
0.021206 0.521206 0.000000
0.022620 0.522620 0.000000
0.024034 0.524034 0.000000
0.025448 0.525448 0.000000
0.026861 0.526861 0.000000
0.028275 0.528275 0.000000
0.029689 0.529689 0.000000
0.031103 0.531103 0.000000
0.032516 0.532516 0.000000
0.033930 0.533930 0.000000
0.035344 0.535344 0.000000
0.036758 0.536758 0.000000
0.038172 0.538172 0.000000
0.039585 0.539585 0.000000
0.040999 0.540999 0.000000
0.042413 0.542413 0.000000
0.043827 0.543827 0.000000
0.045240 0.545240 0.000000
0.046654 0.546654 0.000000
0.048068 0.548068 0.000000
0.049482 0.549482 0.000000
0.050895 0.550895 0.000000
0.052309 0.552309 0.000000
0.053723 0.553723 0.000000
0.055137 0.555137 0.000000
0.056550 0.556550 0.000000
0.057964 0.557964 0.000000
0.059378 0.559378 0.000000
0.060792 0.560792 0.000000
0.062205 0.562205 0.000000
0.063619 0.563619 0.000000
0.065033 0.565033 0.000000
0.066447 0.566447 0.000000
0.067861 0.567861 0.000000
0.069274 0.569274 0.000000
0.070688 0.570688 0.000000
0.072102 0.572102 0.000000
0.073516 0.573516 0.000000
0.074929 0.574929 0.000000
0.076343 0.576343 0.000000
0.077757 0.577757 0.000000
0.079171 0.579171 0.000000
0.080584 0.580584 0.000000
0.081998 0.581998 0.000000
0.083412 0.583412 0.000000
0.084826 0.584826 0.000000
0.086239 0.586239 0.000000
0.087653 0.587653 0.000000
0.089067 0.589067 0.000000
0.090481 0.590481 0.000000
0.091894 0.591894 0.000000
0.093308 0.593308 0.000000
0.094722 0.594722 0.000000
0.096136 0.596136 0.000000
0.097549 0.597549 0.000000
0.098963 0.598963 0.000000
0.100377 0.600377 0.000000
0.101791 0.601791 0.000000
0.103205 0.603205 0.000000
0.104618 0.604618 0.000000
0.106032 0.606032 0.000000
0.107446 0.607446 0.000000
0.108860 0.608860 0.000000
0.110273 0.610273 0.000000
0.111687 0.611687 0.000000
0.113101 0.613101 0.000000
0.114515 0.614515 0.000000
0.115928 0.615928 0.000000
0.117342 0.617342 0.000000
0.118756 0.618756 0.000000
0.120170 0.620170 0.000000
0.121583 0.621583 0.000000
0.122997 0.622997 0.000000
0.124411 0.624411 0.000000
0.125825 0.625825 0.000000
0.127238 0.627238 0.000000
0.128652 0.628652 0.000000
0.130066 0.630066 0.000000
0.131480 0.631480 0.000000
0.132893 0.632893 0.000000
0.134307 0.634307 0.000000
0.135721 0.635721 0.000000
0.137135 0.637135 0.000000
0.138549 0.638549 0.000000
0.139962 0.639962 0.000000
0.141376 0.641376 0.000000
0.142790 0.642790 0.000000
0.144204 0.644204 0.000000
0.145617 0.645617 0.000000
0.147031 0.647031 0.000000
0.148445 0.648445 0.000000
0.149859 0.649859 0.000000
0.151272 0.651272 0.000000
0.152686 0.652686 0.000000
0.154100 0.654100 0.000000
0.155514 0.655514 0.000000
0.156927 0.656927 0.000000
0.158341 0.658341 0.000000
0.159755 0.659755 0.000000
0.161169 0.661169 0.000000
0.162582 0.662582 0.000000
0.163996 0.663996 0.000000
0.165410 0.665410 0.000000
0.166824 0.666824 0.000000
0.168238 0.668238 0.000000
0.169651 0.669651 0.000000
0.171065 0.671065 0.000000
0.172479 0.672479 0.000000
0.173893 0.673893 0.000000
0.175306 0.675306 0.000000
0.176720 0.676720 0.000000
0.178134 0.678134 0.000000
0.179548 0.679548 0.000000
0.180961 0.680961 0.000000
0.182375 0.682375 0.000000
0.183789 0.683789 0.000000
0.185203 0.685203 0.000000
0.186616 0.686616 0.000000
0.188030 0.688030 0.000000
0.189444 0.689444 0.000000
0.190858 0.690858 0.000000
0.192271 0.692271 0.000000
0.193685 0.693685 0.000000
0.195099 0.695099 0.000000
0.196513 0.696513 0.000000
0.197926 0.697926 0.000000
0.199340 0.699340 0.000000
0.200754 0.700754 0.000000
0.202168 0.702168 0.000000
0.203582 0.703582 0.000000
0.204995 0.704995 0.000000
0.206409 0.706409 0.000000
0.207823 0.707823 0.000000
0.209237 0.709237 0.000000
0.210650 0.710650 0.000000
0.212064 0.712064 0.000000
0.213478 0.713478 0.000000
0.214892 0.714892 0.000000
0.216305 0.716305 0.000000
0.217719 0.717719 0.000000
0.219133 0.719133 0.000000
0.220547 0.720547 0.000000
0.221960 0.721960 0.000000
0.223374 0.723374 0.000000
0.224788 0.724788 0.000000
0.226202 0.726202 0.000000
0.227615 0.727615 0.000000
0.229029 0.729029 0.000000
0.230443 0.730443 0.000000
0.231857 0.731857 0.000000
0.233270 0.733270 0.000000
0.234684 0.734684 0.000000
0.236098 0.736098 0.000000
0.237512 0.737512 0.000000
0.238926 0.738926 0.000000
0.240339 0.740339 0.000000
0.241753 0.741753 0.000000
0.243167 0.743167 0.000000
0.244581 0.744581 0.000000
0.245994 0.745994 0.000000
0.247408 0.747408 0.000000
0.248822 0.748822 0.000000
0.250236 0.750236 0.000000
0.251649 0.751649 0.000000
0.253063 0.753063 0.000000
0.254477 0.754477 0.000000
0.255891 0.755891 0.000000
0.257304 0.757304 0.000000
0.258718 0.758718 0.000000
0.260132 0.760132 0.000000
0.261546 0.761546 0.000000
0.262959 0.762959 0.000000
0.264373 0.764373 0.000000
0.265787 0.765787 0.000000
0.267201 0.767201 0.000000
0.268615 0.768615 0.000000
0.270028 0.770028 0.000000
0.271442 0.771442 0.000000
0.272856 0.772856 0.000000
0.274270 0.774270 0.000000
0.275683 0.775683 0.000000
0.277097 0.777097 0.000000
0.278511 0.778511 0.000000
0.279925 0.779925 0.000000
0.281338 0.781338 0.000000
0.282752 0.782752 0.000000
0.284166 0.784166 0.000000
0.285580 0.785580 0.000000
0.286993 0.786993 0.000000
0.288407 0.788407 0.000000
0.289821 0.789821 0.000000
0.291235 0.791235 0.000000
0.292648 0.792648 0.000000
0.294062 0.794062 0.000000
0.295476 0.795476 0.000000
0.296890 0.796890 0.000000
0.298303 0.798303 0.000000
0.299717 0.799717 0.000000
0.301131 0.801131 0.000000
0.302545 0.802545 0.000000
0.303959 0.803959 0.000000
0.305372 0.805372 0.000000
0.306786 0.806786 0.000000
0.308200 0.808200 0.000000
0.309614 0.809614 0.000000
0.311027 0.811027 0.000000
0.312441 0.812441 0.000000
0.313855 0.813855 0.000000
0.315269 0.815269 0.000000
0.316682 0.816682 0.000000
0.318096 0.818096 0.000000
0.319510 0.819510 0.000000
0.320924 0.820924 0.000000
0.322337 0.822337 0.000000
0.323751 0.823751 0.000000
0.325165 0.825165 0.000000
0.326579 0.826579 0.000000
0.327992 0.827992 0.000000
0.329406 0.829406 0.000000
0.330820 0.830820 0.000000
0.332234 0.832234 0.000000
0.333648 0.833648 0.000000
0.335061 0.835061 0.000000
0.336475 0.836475 0.000000
0.337889 0.837889 0.000000
0.339303 0.839303 0.000000
0.340716 0.840716 0.000000
[...]
POINT_DATA 20431
SCALARS UX float 1
LOOKUP_TABLE default
-0.000000
0.000000
0.095219
-0.099319
-0.077671
0.047951
0.095869
-0.000000
-0.000000
0.000000
-0.000000
0.064939
0.085026
0.092844
0.095696
0.096722
0.097014
0.096980
0.096863
0.096726
0.096590
0.096474
0.096374
0.096290
0.096219
0.096161
0.096112
0.096072
0.096038
0.096010
0.095986
0.095967
0.095950
0.095936
0.095924
0.095913
0.095905
0.095898
0.095891
0.095886
0.095882
0.095878
0.095874
0.095872
0.095867
0.095863
0.095859
0.095853
0.095846
0.095837
0.095825
0.095809
0.095789
0.095764
0.095732
0.095693
0.095644
0.095589
0.095521
0.095449
0.095375
0.095298
0.095244
0.056278
0.017354
-0.021550
-0.060437
-0.099317
-0.099317
-0.099335
-0.099384
-0.099471
-0.099579
-0.099697
-0.099790
-0.099811
-0.099737
-0.099563
-0.099264
-0.098816
-0.098235
-0.097532
-0.096726
-0.095829
-0.094860
-0.093847
-0.092804
-0.091751
-0.090700
-0.089678
-0.088669
-0.087708
-0.086792
-0.085919
-0.085103
-0.084339
-0.083629
-0.082971
-0.082363
-0.081805
-0.081294
-0.080826
-0.080400
-0.080011
-0.079658
-0.079338
-0.079048
-0.078786
-0.078549
-0.078335
-0.078142
-0.077968
-0.077812
-0.077523
-0.077317
-0.077032
-0.076635
-0.076077
-0.075295
-0.074156
-0.072523
-0.070112
-0.066352
-0.060541
-0.051352
-0.035105
-0.077644
-0.077615
-0.077587
-0.077557
-0.077527
-0.077497
-0.077466
-0.077435
-0.077402
-0.077370
-0.077337
-0.077303
-0.077269
-0.077234
-0.077199
-0.077163
-0.077127
-0.077090
-0.077053
-0.077015
-0.076977
-0.076938
-0.076899
-0.076860
-0.076820
-0.076779
-0.076738
-0.076697
-0.076655
-0.076613
-0.076570
-0.076527
-0.076484
-0.076440
-0.076396
-0.076351
-0.076306
-0.076261
-0.076215
-0.076169
-0.076122
-0.076075
-0.076028
-0.075980
-0.075932
-0.075884
-0.075835
-0.075786
-0.075737
-0.075687
-0.075637
-0.075586
-0.075535
-0.075484
-0.075432
-0.075380
-0.075328
-0.075276
-0.075223
-0.075170
-0.075116
-0.075063
-0.075009
-0.074954
-0.074900
-0.074845
-0.074790
-0.074734
-0.074679
-0.074623
-0.074566
-0.074510
-0.074452
-0.074395
-0.074338
-0.074280
-0.074221
-0.074163
-0.074104
-0.074045
-0.073985
-0.073926
-0.073866
-0.073805
-0.073745
-0.073684
-0.073622
-0.073561
-0.073499
-0.073437
-0.073375
-0.073313
-0.073250
-0.073187
-0.073123
-0.073059
-0.072995
-0.072931
-0.072867
-0.072802
-0.072737
-0.072671
-0.072606
-0.072540
-0.072473
-0.072407
-0.072340
-0.072273
-0.072206
-0.072138
-0.072070
-0.072002
-0.071933
-0.071864
-0.071795
-0.071726
-0.071656
-0.071586
-0.071516
-0.071445
-0.071375
-0.071303
-0.071232
-0.071160
-0.071089
-0.071016
-0.070944
-0.070871
-0.070798
-0.070725
-0.070651
-0.070578
-0.070504
-0.070429
-0.070355
-0.070280
-0.070205
-0.070129
-0.070054
-0.069978
-0.069901
-0.069825
-0.069748
-0.069671
-0.069594
-0.069516
-0.069439
-0.069361
-0.069282
-0.069204
-0.069125
-0.069046
-0.068966
-0.068887
-0.068807
-0.068726
-0.068646
-0.068565
-0.068484
-0.068403
-0.068322
-0.068240
-0.068158
-0.068076
-0.067993
-0.067911
-0.067828
-0.067745
-0.067661
-0.067577
-0.067494
-0.067409
-0.067325
-0.067240
-0.067155
-0.067070
-0.066985
-0.066899
-0.066813
-0.066727
-0.066641
-0.066555
-0.066468
-0.066381
-0.066294
-0.066206
-0.066119
-0.066031
-0.065943
-0.065855
-0.065766
-0.065677
-0.065588
-0.065499
-0.065410
-0.065320
-0.065230
-0.065140
-0.065050
-0.064960
-0.064869
-0.064778
-0.064687
-0.064595
-0.064504
-0.064412
-0.064320
-0.064228
-0.064135
-0.064043
-0.063950
-0.063857
-0.063763
-0.063670
-0.063576
-0.063482
-0.063388
-0.063294
-0.063199
-0.063105
-0.063010
-0.062914
-0.062819
-0.062724
-0.062628
-0.062532
-0.062436
-0.062339
-0.062243
-0.062146
-0.062049
-0.061952
-0.061855
-0.061757
-0.061659
-0.061561
-0.061463
-0.061365
-0.061266
-0.061168
-0.061069
-0.060970
-0.060871
-0.060771
-0.060671
-0.060572
-0.060472
-0.060371
-0.060271
-0.060170
-0.060070
-0.059969
-0.059867
-0.059766
-0.059665
-0.059563
-0.059461
-0.059359
-0.059257
-0.059154
-0.059052
-0.058949
-0.058846
-0.058743
-0.058639
-0.058536
-0.058432
-0.058328
-0.058224
-0.058120
-0.058015
-0.057911
-0.057806
-0.057701
-0.057596
-0.057491
-0.057385
-0.057279
-0.057174
-0.057068
-0.056961
-0.056855
-0.056749
-0.056642
-0.056535
-0.056428
-0.056321
-0.056213
-0.056106
-0.055998
-0.055890
-0.055782
-0.055674
-0.055565
-0.055457
-0.055348
-0.055239
-0.055130
-0.055021
-0.054912
-0.054802
-0.054692
-0.054583
-0.054473
-0.054362
-0.054252
-0.054141
-0.054031
-0.053920
-0.053809
-0.053698
-0.053587
-0.053475
-0.053364
-0.053252
-0.053140
-0.053028
-0.052916
-0.052803
-0.052691
-0.052578
-0.052465
-0.052352
-0.052239
-0.052126
-0.052013
-0.051899
-0.051785
-0.051672
-0.051558
-0.051443
-0.051329
-0.051215
-0.051100
-0.050985
-0.050870
-0.050755
-0.050640
-0.050525
-0.050409
-0.050294
-0.050178
-0.050062
-0.049946
-0.049830
-0.049714
-0.049597
-0.049481
-0.049364
-0.049247
-0.049130
-0.049013
-0.048896
-0.048778
-0.048661
-0.048543
-0.048425
-0.048307
-0.048189
-0.048071
-0.047952
-0.047834
-0.047715
-0.047596
-0.047477
-0.047358
-0.047239
-0.047120
-0.047000
-0.046881
-0.046761
-0.046641
-0.046521
-0.046401
-0.046280
-0.046160
-0.046040
-0.045919
-0.045798
-0.045677
-0.045556
-0.045435
-0.045314
-0.045192
-0.045071
-0.044949
-0.044827
-0.044705
-0.044583
-0.044461
-0.044339
-0.044216
-0.044094
-0.043971
-0.043848
-0.043725
-0.043602
-0.043479
-0.043356
-0.043232
-0.043109
-0.042985
-0.042861
-0.042737
-0.042613
-0.042489
-0.042365
-0.042240
-0.042116
-0.041991
-0.041866
-0.041741
-0.041616
-0.041491
-0.041366
-0.041241
-0.041115
-0.040990
-0.040864
-0.040738
-0.040612
-0.040486
-0.040360
-0.040234
-0.040107
-0.039981
-0.039854
-0.039727
-0.039601
-0.039474
-0.039347
-0.039219
-0.039092
-0.038965
-0.038837
-0.038710
-0.038582
-0.038454
-0.038326
-0.038198
-0.038070
-0.037942
-0.037813
-0.037685
-0.037556
-0.037428
-0.037299
-0.037170
-0.037041
-0.036912
-0.036783
-0.036654
-0.036524
-0.036395
-0.036265
-0.036135
-0.036006
-0.035876
-0.035746
-0.035616
-0.035486
-0.035355
-0.035225
-0.035094
-0.034964
-0.034833
-0.034703
-0.034572
-0.034441
-0.034310
-0.034179
-0.034047
-0.033916
-0.033785
-0.033653
-0.033522
-0.033390
-0.033258
-0.033126
-0.032994
-0.032862
-0.032730
-0.032598
-0.032466
-0.032333
-0.032201
-0.032068
-0.031936
-0.031803
-0.031670
-0.031537
-0.031404
-0.031271
-0.031138
-0.031005
-0.030871
-0.030738
-0.030604
-0.030471
-0.030337
-0.030203
-0.030070
-0.029936
-0.029802
-0.029668
-0.029534
-0.029399
-0.029265
-0.029131
-0.028996
-0.028862
-0.028727
-0.028592
-0.028458
-0.028323
-0.028188
-0.028053
-0.027918
-0.027783
-0.027647
-0.027512
-0.027377
-0.027241
-0.027106
-0.026970
-0.026835
-0.026699
-0.026563
-0.026427
-0.026291
-0.026155
-0.026019
-0.025883
-0.025747
-0.025611
-0.025474
-0.025338
-0.025201
-0.025065
-0.024928
-0.024792
-0.024655
-0.024518
-0.024381
-0.024244
-0.024107
-0.023970
-0.023833
-0.023696
-0.023559
-0.023422
-0.023284
-0.023147
-0.023009
-0.022872
-0.022734
-0.022597
-0.022459
-0.022321
-0.022183
-0.022046
-0.021908
-0.021770
-0.021632
-0.021494
-0.021355
-0.021217
-0.021079
-0.020941
-0.020802
-0.020664
-0.020525
-0.020387
-0.020248
-0.020110
-0.019971
-0.019832
-0.019694
-0.019555
-0.019416
-0.019277
-0.019138
-0.018999
-0.018860
-0.018721
-0.018582
-0.018443
-0.018304
-0.018164
-0.018025
-0.017886
-0.017746
-0.017607
-0.017467
-0.017328
-0.017188
-0.017049
-0.016909
-0.016769
-0.016630
-0.016490
-0.016350
-0.016210
-0.016070
-0.015930
-0.015790
-0.015650
-0.015510
-0.015370
-0.015230
-0.015090
-0.014950
-0.014810
-0.014669
-0.014529
-0.014389
-0.014249
-0.014108
-0.013968
-0.013827
-0.013687
-0.013546
-0.013406
-0.013265
-0.013125
-0.012984
-0.012843
-0.012703
-0.012562
-0.012421
-0.012280
-0.012139
-0.011999
-0.011858
-0.011717
-0.011576
-0.011435
-0.011294
-0.011153
-0.011012
-0.010871
-0.010730
-0.010589
-0.010448
-0.010307
-0.010165
-0.010024
-0.009883
-0.009742
-0.009600
-0.009459
-0.009318
-0.009177
-0.009035
-0.008894
-0.008752
-0.008611
-0.008470
-0.008328
-0.008187
-0.008045
-0.007904
-0.007762
-0.007621
-0.007479
-0.007337
-0.007196
-0.007054
-0.006913
-0.006771
-0.006629
-0.006488
-0.006346
-0.006204
-0.006063
-0.005921
-0.005779
-0.005637
-0.005496
-0.005354
-0.005212
-0.005070
-0.004928
-0.004787
-0.004645
-0.004503
-0.004361
-0.004219
-0.004077
-0.003935
-0.003794
-0.003652
-0.003510
-0.003368
-0.003226
-0.003084
-0.002942
-0.002800
-0.002658
-0.002516
-0.002374
-0.002232
-0.002090
-0.001948
-0.001806
-0.001664
-0.001522
-0.001380
-0.001238
-0.001096
-0.000954
-0.000812
-0.000670
-0.000528
-0.000386
-0.000244
-0.000102
0.000040
0.000182
0.000324
0.000466
0.000608
0.000750
0.000892
0.001035
0.001177
0.001319
0.001461
0.001603
0.001745
0.001887
0.002029
0.002171
0.002313
0.002455
0.002597
0.002739
0.002881
0.003023
0.003165
0.003307
0.003449
0.003591
0.003733
0.003875
0.004017
0.004159
0.004301
0.004443
0.004585
0.004727
0.004869
0.005011
0.005153
0.005295
0.005437
0.005579
0.005721
0.005863
0.006005
0.006147
0.006289
0.006431
0.006573
0.006714
0.006856
0.006998
0.007140
0.007282
0.007424
0.007566
0.007707
0.007849
0.007991
0.008133
0.008275
0.008416
0.008558
0.008700
0.008842
0.008983
0.009125
0.009267
0.009409
0.009550
0.009692
0.009834
0.009975
0.010117
0.010258
0.010400
0.010542
0.010683
0.010825
0.010966
0.011108
0.011249
0.011391
0.011533
0.011674
0.011815
0.011957
0.012098
0.012240
0.012381
0.012523
0.012664
0.012805
0.012947
0.013088
0.013230
0.013371
0.013512
0.013653
0.013795
0.013936
0.014077
0.014218
0.014360
0.014501
0.014642
0.014783
0.014924
0.015066
0.015207
0.015348
0.015489
0.015630
0.015771
0.015912
0.016053
0.016194
0.016335
0.016476
0.016617
0.016758
0.016899
0.017040
0.017181
0.017321
0.017462
0.017603
0.017744
0.017885
0.018025
0.018166
0.018307
0.018448
0.018588
0.018729
0.018870
0.019010
0.019151
0.019291
0.019432
0.019573
0.019713
0.019854
0.019994
0.020135
0.020275
0.020416
0.020556
0.020696
0.020837
0.020977
0.021117
0.021258
0.021398
0.021538
0.021679
0.021819
0.021959
0.022099
0.022239
0.022380
0.022520
0.022660
0.022800
0.022940
0.023080
0.023220
0.023360
0.023500
0.023640
0.023780
0.023920
0.024060
0.024200
0.024340
0.024480
0.024619
0.024759
0.024899
0.025039
0.025178
0.025318
0.025458
0.025598
0.025737
0.025877
0.026016
0.026156
0.026296
0.026435
0.026575
0.026714
0.026854
0.026993
0.027133
0.027272
0.027411
0.027551
0.027690
0.027829
0.027969
0.028108
0.028247
0.028386
0.028526
0.028665
0.028804
0.028943
0.029082
0.029221
0.029361
0.029500
0.029639
0.029778
0.029917
0.030056
0.030195
0.030334
0.030473
0.030611
0.030750
0.030889
0.031028
0.031167
0.031306
0.031444
0.031583
0.031722
0.031861
0.031999
0.032138
0.032277
0.032415
0.032554
0.032692
0.032831
0.032969
0.033108
0.033246
0.033385
0.033523
0.033662
0.033800
0.033939
0.034077
0.034215
0.034354
0.034492
0.034630
0.034768
0.034907
0.035045
0.035183
0.035321
0.035459
0.035598
0.035736
0.035874
0.036012
0.036150
0.036288
0.036426
0.036564
0.036702
0.036840
0.036978
0.037116
0.037254
0.037391
0.037529
0.037667
0.037805
0.037943
0.038081
0.038218
0.038356
0.038494
0.038631
0.038769
0.038907
0.039044
0.039182
0.039320
0.039457
0.039595
0.039732
0.039870
0.040007
0.040145
0.040282
0.040420
0.040557
0.040694
0.040832
0.040969
0.041106
0.041244
0.041381
0.041518
0.041656
0.041793
0.041930
0.042067
0.042205
0.042342
0.042479
0.042616
0.042753
0.042890
0.043027
0.043164
0.043301
0.043438
0.043575
0.043712
0.043849
0.043986
0.044123
0.044260
0.044397
0.044534
0.044671
0.044808
0.044945
0.045082
0.045218
0.045355
0.045492
0.045629
0.045765
0.045902
0.046039
0.046176
0.046312
0.046449
0.046586
0.046722
0.046859
0.046995
0.047132
0.047269
0.047405
0.047542
0.047678
0.047815
0.048088
0.048224
0.048360
0.048497
0.048633
0.048769
0.048906
0.049042
0.049178
0.049314
0.049450
0.049587
0.049723
0.049859
0.049995
0.050131
0.050267
0.050404
0.050540
0.050676
0.050812
0.050948
0.051084
0.051220
0.051356
0.051492
0.051628
0.051764
0.051900
0.052036
0.052172
0.052308
0.052444
0.052579
0.052715
0.052851
0.052987
0.053123
0.053259
0.053395
0.053530
0.053666
0.053802
0.053938
0.054074
0.054209
0.054345
0.054481
0.054617
0.054752
0.054888
0.055024
0.055159
0.055295
0.055431
0.055566
0.055702
0.055838
0.055973
0.056109
0.056245
0.056380
0.056516
0.056651
0.056787
0.056922
0.057058
0.057194
0.057329
0.057465
0.057600
0.057736
0.057871
0.058007
0.058142
0.058277
0.058413
0.058548
0.058684
0.058819
0.058955
0.059090
0.059225
0.059361
0.059496
0.059632
0.059767
0.059902
0.060038
0.060173
0.060308
0.060444
0.060579
0.060714
0.060850
0.060985
0.061120
0.061256
0.061391
0.061526
0.061661
0.061797
0.061932
0.062067
0.062202
0.062338
0.062473
0.062608
0.062743
0.062879
0.063014
0.063149
0.063284
0.063419
0.063555
0.063690
0.063825
0.063960
0.064095
0.064230
0.064366
0.064501
0.064636
0.064771
0.064906
0.065041
0.065176
0.065312
0.065447
0.065582
0.065717
0.065852
0.065987
0.066122
0.066257
0.066392
0.066527
0.066663
0.066798
0.066933
0.067068
0.067203
0.067338
0.067473
0.067608
0.067743
0.067878
0.068013
0.068148
0.068283
0.068418
0.068553
0.068688
0.068823
0.068959
0.069094
0.069229
0.069364
0.069499
0.069634
0.069769
0.069904
0.070039
0.070174
0.070309
0.070444
0.070579
0.070714
0.070849
0.070984
0.071119
0.071254
0.071389
0.071524
0.071659
0.071794
0.071929
0.072064
0.072199
0.072334
0.072469
0.072604
0.072739
0.072874
0.073009
0.073144
0.073279
0.073414
0.073549
0.073684
0.073819
0.073954
0.074089
0.074224
0.074359
0.074494
0.074629
0.074764
0.074899
0.075034
0.075169
0.075304
0.075439
0.075574
0.075709
0.075844
0.075979
0.076114
0.076249
0.076384
0.076519
0.076654
0.076789
0.076924
0.077059
0.077194
0.077329
0.077464
0.077599
0.077735
0.077870
0.078005
0.078140
0.078275
0.078410
0.078545
0.078680
0.078815
0.078950
0.079085
0.079220
0.079355
0.079490
0.079625
0.079761
0.079896
0.080031
0.080166
0.080301
0.080436
0.080571
0.080706
0.080841
0.080976
0.081112
0.081247
0.081382
0.081517
0.081652
0.081787
0.081922
0.082057
0.082193
0.082328
0.082463
0.082598
0.082733
0.082868
0.083004
0.083139
0.083274
0.083409
0.083544
0.083680
0.083815
0.083950
0.084085
0.084220
0.084356
0.084491
0.084626
0.084761
0.084896
0.085032
0.085167
0.085302
0.085437
0.085573
0.085708
0.085843
0.085979
0.086114
0.086249
0.086384
0.086520
0.086655
0.086790
0.086926
0.087061
0.087196
0.087332
0.087467
0.087602
0.087738
0.087873
0.088008
0.088144
0.088279
0.088414
0.088550
0.088685
0.088821
0.088956
0.089091
0.089227
0.089362
0.089498
0.089633
0.089768
0.089904
0.090039
0.090175
0.090310
0.090446
0.090581
0.090717
0.090852
0.090988
0.091123
0.091259
0.091394
0.091530
0.091665
0.091801
0.091936
0.092072
0.092207
0.092343
0.092478
0.092614
0.092749
0.092885
0.093021
0.093156
0.093292
0.093427
0.093563
0.093699
0.093834
0.093970
0.094105
0.094241
0.094377
0.094512
0.094648
0.094784
0.094919
0.095055
0.095191
0.095326
0.095462
0.095598
0.095734
0.068223
0.068289
0.068080
0.061005
0.061105
0.061201
-0.049311
-0.049239
-0.049448
-0.049535
-0.025962
0.077513
0.077758
0.077809
0.077957
0.065477
0.065259
0.065328
-0.026476
-0.026334
-0.026506
-0.026256
-0.071616
-0.071717
-0.071467
-0.071499
-0.027364
-0.027259
-0.027158
0.026756
0.026541
0.026663
0.026734
-0.044829
-0.046002
-0.054190
-0.055831
0.018909
0.018696
0.018779
0.018760
-0.020865
-0.021313
-0.020930
-0.020950
0.049679
0.049270
0.048852
0.050207
-0.071939
-0.071856
-0.071608
0.023256
0.023231
0.023482
0.023596
0.001163
-0.004414
-0.003079
-0.007703
0.011454
0.011759
0.011879
-0.038261
-0.036460
-0.038338
-0.006316
-0.006178
-0.006518
-0.006366
0.060340
0.061062
0.060990
0.061734
-0.001577
-0.001087
-0.001290
-0.000589
0.020286
0.020502
0.020118
0.020604
0.018903
0.019057
0.018787
0.019183
-0.010285
-0.010320
-0.010507
-0.010617
0.067711
0.067619
0.067366
-0.028454
-0.028851
-0.028576
0.011473
0.067274
0.067024
0.067016
0.067392
0.030996
0.031241
0.031128
-0.000473
-0.000421
-0.000626
0.031223
0.018698
0.018012
0.017766
-0.000256
0.035804
0.035652
0.035327
0.056271
0.056512
0.056232
0.056620
0.034693
0.034829
0.034586
0.034915
0.035242
-0.061828
-0.062108
-0.061964
0.079747
0.079519
0.079898
-0.062232
-0.043200
-0.043383
-0.043558
-0.043032
-0.034808
-0.034646
-0.035217
-0.034822
-0.019475
-0.019892
-0.019591
0.010211
0.010447
0.010149
0.010360
-0.019958
0.031143
0.031321
0.030999
-0.033048
-0.033376
-0.033068
-0.036131
-0.036571
-0.036913
0.031315
0.062011
0.062073
0.061776
-0.055176
-0.055085
-0.054969
0.066426
0.066683
0.066701
0.066472
0.039098
0.038734
0.038880
0.038348
0.001215
-0.000683
0.001265
0.000784
0.029384
0.030166
0.028101
0.031353
-0.052139
-0.051986
-0.052442
-0.051683
0.090244
0.090066
-0.075161
-0.074528
-0.074165
-0.073466
-0.048725
-0.047452
-0.044534
-0.052434
0.093241
0.093311
0.093634
-0.056206
-0.051734
-0.056500
-0.056818
-0.055636
0.064361
0.064314
0.063986
0.025212
0.025081
0.025387
0.025288
0.001835
0.001269
0.001675
-0.072748
-0.072718
-0.073123
-0.072788
0.093368
0.092832
0.093530
0.092663
0.079900
0.080139
0.080392
0.063896
0.038484
0.038215
0.037938
0.037726
-0.008565
-0.008408
-0.008225
-0.008686
-0.015429
-0.016321
-0.018785
0.081570
0.081498
0.080800
0.081084
-0.020660
-0.020140
-0.022643
-0.021577
0.037802
0.037831
0.037584
0.021952
0.022705
0.029027
0.015966
-0.064365
-0.064699
-0.063652
-0.065863
0.086107
0.086308
0.019586
0.019559
0.019700
0.038043
0.002444
0.003441
0.004119
0.004665
-0.035092
-0.035440
-0.035289
-0.035261
-0.034025
-0.039249
-0.037579
-0.034201
-0.007875
-0.007471
-0.008169
-0.008078
-0.042239
-0.040918
-0.039935
-0.038894
0.084858
0.085329
0.085632
0.084836
-0.038824
-0.038764
-0.038642
-0.080430
-0.083851
-0.080552
-0.080891
-0.068344
-0.068537
-0.068571
-0.012605
-0.012654
-0.026431
-0.026469
-0.028135
-0.024922
0.035414
0.033296
0.033586
0.031237
0.004957
0.013609
0.012470
0.011082
0.046384
0.046560
0.045242
0.045244
0.075650
0.073892
0.074480
0.075521
-0.032460
-0.032334
-0.033390
-0.033587
-0.027519
-0.027403
-0.027240
-0.027769
0.051766
0.052580
0.051964
0.052472
0.051015
0.050927
0.051914
-0.006417
-0.006170
-0.006114
-0.006404
0.089435
0.088437
0.089355
0.067326
-0.017015
-0.018895
-0.017944
-0.017828
0.074523
0.074594
0.074153
0.074319
0.014390
0.014654
0.014457
0.014767
0.035425
0.035838
-0.009689
-0.008978
-0.008371
-0.007858
-0.002550
-0.002523
-0.000180
-0.004958
-0.000981
-0.000835
-0.000726
0.083134
0.082850
0.082820
-0.049823
-0.049973
-0.049246
-0.049191
-0.000663
-0.042422
-0.039686
-0.041741
0.075834
0.076187
0.076765
0.077106
0.070914
0.070765
0.070738
0.070500
0.033623
0.032881
0.032690
0.034331
0.029009
0.028761
0.028646
0.029045
0.028860
0.029171
0.037113
0.036015
0.036731
-0.005108
-0.005324
-0.005066
0.021092
0.018264
0.024967
-0.005169
0.048267
0.048824
0.047110
0.041016
0.041330
0.041314
0.041109
0.061389
0.061441
0.061071
-0.042692
-0.037925
0.061705
0.058269
0.058174
0.058018
0.057944
-0.033602
-0.033468
-0.033660
0.074855
0.020159
0.020262
0.019635
0.019534
-0.061119
-0.059169
-0.059882
-0.058266
0.024546
0.024512
0.024295
0.024760
-0.040476
-0.039743
-0.041588
-0.039439
-0.049121
-0.050150
-0.046171
-0.052808
0.052351
0.052233
0.052589
-0.042425
-0.042061
-0.043002
0.026983
0.026919
0.025955
0.025319
0.065455
0.054245
0.053978
0.054238
0.040687
0.042041
0.040903
0.041839
-0.010232
-0.011342
-0.011587
0.053972
0.057262
0.057703
0.057269
0.028817
0.029465
0.029781
0.030431
0.035673
0.033338
-0.020285
-0.021022
-0.020009
-0.021682
-0.056278
-0.058955
-0.058959
-0.054777
-0.042583
-0.043227
0.017635
0.017502
0.018525
0.057505
-0.012443
-0.010178
-0.009295
-0.013034
0.028372
0.031165
0.042567
0.042723
0.042613
-0.042205
-0.041600
-0.041407
0.042872
-0.033969
-0.033910
-0.033750
0.060158
0.059878
0.060042
0.059763
-0.022468
-0.022366
-0.022270
-0.039719
-0.045945
0.010740
0.010680
0.010543
0.063952
0.063899
0.063742
0.063659
0.042759
0.042924
0.043037
0.015535
0.014676
0.014447
0.013206
0.041393
0.041179
0.041270
0.041045
0.036113
0.036219
0.036013
0.057102
0.057292
0.057400
0.041368
0.041096
0.042663
0.057488
-0.051551
-0.051556
-0.051335
0.040017
0.030760
0.030121
0.031058
0.042707
-0.054849
-0.054760
-0.054902
0.021535
0.016878
0.018770
-0.051772
0.053695
0.053706
0.054006
0.076970
0.077077
0.076830
0.076971