# vtk DataFile Version 2.0
Test
ASCII
DATASET POLYDATA
POINTS 20431 float
0.000000 0.000000 0.000000
2.000000 0.000000 0.000000
2.000000 4.000000 0.000000
0.000000 4.000000 0.000000
0.000000 0.500000 0.000000
1.500000 2.000000 0.000000
2.000000 2.500000 0.000000
0.400000 0.000000 0.000000
0.800000 0.000000 0.000000
1.200000 0.000000 0.000000
1.600000 0.000000 0.000000
2.000000 0.362557 0.000000
2.000000 0.672798 0.000000
2.000000 0.938272 0.000000
2.000000 1.165439 0.000000
2.000000 1.359826 0.000000
2.000000 1.526163 0.000000
2.000000 1.668499 0.000000
2.000000 1.790295 0.000000
2.000000 1.894517 0.000000
2.000000 1.983700 0.000000
2.000000 2.060013 0.000000
2.000000 2.125315 0.000000
2.000000 2.181194 0.000000
2.000000 2.229010 0.000000
2.000000 2.269926 0.000000
2.000000 2.304938 0.000000
2.000000 2.334898 0.000000
2.000000 2.360534 0.000000
2.000000 2.382472 0.000000
2.000000 2.401244 0.000000
2.000000 2.417307 0.000000
2.000000 2.431052 0.000000
2.000000 2.442814 0.000000
2.000000 2.452878 0.000000
2.000000 2.461491 0.000000
2.000000 2.468860 0.000000
2.000000 2.475167 0.000000
2.000000 2.480563 0.000000
2.000000 2.485180 0.000000
2.000000 2.489132 0.000000
2.000000 2.492513 0.000000
2.000000 2.495406 0.000000
2.000000 2.497882 0.000000
2.000000 2.502286 0.000000
2.000000 2.505266 0.000000
2.000000 2.509150 0.000000
2.000000 2.514212 0.000000
2.000000 2.520809 0.000000
2.000000 2.529407 0.000000
2.000000 2.540613 0.000000
2.000000 2.555218 0.000000
2.000000 2.574253 0.000000
2.000000 2.599061 0.000000
2.000000 2.631395 0.000000
2.000000 2.673536 0.000000
2.000000 2.728460 0.000000
2.000000 2.800043 0.000000
2.000000 2.893339 0.000000
2.000000 3.014933 0.000000
2.000000 3.173410 0.000000
2.000000 3.379956 0.000000
2.000000 3.649152 0.000000
1.600000 4.000000 0.000000
1.200000 4.000000 0.000000
0.800000 4.000000 0.000000
0.400000 4.000000 0.000000
0.000000 3.624996 0.000000
0.000000 3.289970 0.000000
0.000000 2.990661 0.000000
0.000000 2.723261 0.000000
0.000000 2.484368 0.000000
0.000000 2.270943 0.000000
0.000000 2.080271 0.000000
0.000000 1.909926 0.000000
0.000000 1.757741 0.000000
0.000000 1.621780 0.000000
0.000000 1.500314 0.000000
0.000000 1.391797 0.000000
0.000000 1.294849 0.000000
0.000000 1.208237 0.000000
0.000000 1.130858 0.000000
0.000000 1.061728 0.000000
0.000000 0.999968 0.000000
0.000000 0.944792 0.000000
0.000000 0.895499 0.000000
0.000000 0.851460 0.000000
0.000000 0.812117 0.000000
0.000000 0.776968 0.000000
0.000000 0.745565 0.000000
0.000000 0.717511 0.000000
0.000000 0.692448 0.000000
0.000000 0.670056 0.000000
0.000000 0.650052 0.000000
0.000000 0.632180 0.000000
0.000000 0.616213 0.000000
0.000000 0.601949 0.000000
0.000000 0.589205 0.000000
0.000000 0.577820 0.000000
0.000000 0.567649 0.000000
0.000000 0.558562 0.000000
0.000000 0.550444 0.000000
0.000000 0.543191 0.000000
0.000000 0.536712 0.000000
0.000000 0.530923 0.000000
0.000000 0.525751 0.000000
0.000000 0.521131 0.000000
0.000000 0.517003 0.000000
0.000000 0.513315 0.000000
0.000000 0.510021 0.000000
0.000000 0.507078 0.000000
0.000000 0.504448 0.000000
0.000000 0.502099 0.000000
0.000000 0.497804 0.000000
0.000000 0.494785 0.000000
0.000000 0.490633 0.000000
0.000000 0.484924 0.000000
0.000000 0.477074 0.000000
0.000000 0.466279 0.000000
0.000000 0.451436 0.000000
0.000000 0.431025 0.000000
0.000000 0.402959 0.000000
0.000000 0.364366 0.000000
0.000000 0.311297 0.000000
0.000000 0.238324 0.000000
0.000000 0.137980 0.000000
0.001414 0.501414 0.000000
0.002828 0.502828 0.000000
0.004241 0.504241 0.000000
0.005655 0.505655 0.000000
0.007069 0.507069 0.000000
0.008483 0.508483 0.000000
0.009896 0.509896 0.000000
0.011310 0.511310 0.000000
0.012724 0.512724 0.000000
0.014138 0.514138 0.000000
0.015551 0.515551 0.000000
0.016965 0.516965 0.000000
0.018379 0.518379 0.000000
0.019793 0.519793 0.000000
0.021206 0.521206 0.000000
0.022620 0.522620 0.000000
0.024034 0.524034 0.000000
0.025448 0.525448 0.000000
0.026861 0.526861 0.000000
0.028275 0.528275 0.000000
0.029689 0.529689 0.000000
0.031103 0.531103 0.000000
0.032516 0.532516 0.000000
0.033930 0.533930 0.000000
0.035344 0.535344 0.000000
0.036758 0.536758 0.000000
0.038172 0.538172 0.000000
0.039585 0.539585 0.000000
0.040999 0.540999 0.000000
0.042413 0.542413 0.000000
0.043827 0.543827 0.000000
0.045240 0.545240 0.000000
0.046654 0.546654 0.000000
0.048068 0.548068 0.000000
0.049482 0.549482 0.000000
0.050895 0.550895 0.000000
0.052309 0.552309 0.000000
0.053723 0.553723 0.000000
0.055137 0.555137 0.000000
0.056550 0.556550 0.000000
0.057964 0.557964 0.000000
0.059378 0.559378 0.000000
0.060792 0.560792 0.000000
0.062205 0.562205 0.000000
0.063619 0.563619 0.000000
0.065033 0.565033 0.000000
0.066447 0.566447 0.000000
0.067861 0.567861 0.000000
0.069274 0.569274 0.000000
0.070688 0.570688 0.000000
0.072102 0.572102 0.000000
0.073516 0.573516 0.000000
0.074929 0.574929 0.000000
0.076343 0.576343 0.000000
0.077757 0.577757 0.000000
0.079171 0.579171 0.000000
0.080584 0.580584 0.000000
0.081998 0.581998 0.000000
0.083412 0.583412 0.000000
0.084826 0.584826 0.000000
0.086239 0.586239 0.000000
0.087653 0.587653 0.000000
0.089067 0.589067 0.000000
0.090481 0.590481 0.000000
0.091894 0.591894 0.000000
0.093308 0.593308 0.000000
0.094722 0.594722 0.000000
0.096136 0.596136 0.000000
0.097549 0.597549 0.000000
0.098963 0.598963 0.000000
0.100377 0.600377 0.000000
0.101791 0.601791 0.000000
0.103205 0.603205 0.000000
0.104618 0.604618 0.000000
0.106032 0.606032 0.000000
0.107446 0.607446 0.000000
0.108860 0.608860 0.000000
0.110273 0.610273 0.000000
0.111687 0.611687 0.000000
0.113101 0.613101 0.000000
0.114515 0.614515 0.000000
0.115928 0.615928 0.000000
0.117342 0.617342 0.000000
0.118756 0.618756 0.000000
0.120170 0.620170 0.000000
0.121583 0.621583 0.000000
0.122997 0.622997 0.000000
0.124411 0.624411 0.000000
0.125825 0.625825 0.000000
0.127238 0.627238 0.000000
0.128652 0.628652 0.000000
0.130066 0.630066 0.000000
0.131480 0.631480 0.000000
0.132893 0.632893 0.000000
0.134307 0.634307 0.000000
0.135721 0.635721 0.000000
0.137135 0.637135 0.000000
0.138549 0.638549 0.000000
0.139962 0.639962 0.000000
0.141376 0.641376 0.000000
0.142790 0.642790 0.000000
0.144204 0.644204 0.000000
0.145617 0.645617 0.000000
0.147031 0.647031 0.000000
0.148445 0.648445 0.000000
0.149859 0.649859 0.000000
0.151272 0.651272 0.000000
0.152686 0.652686 0.000000
0.154100 0.654100 0.000000
0.155514 0.655514 0.000000
0.156927 0.656927 0.000000
0.158341 0.658341 0.000000
0.159755 0.659755 0.000000
0.161169 0.661169 0.000000
0.162582 0.662582 0.000000
0.163996 0.663996 0.000000
0.165410 0.665410 0.000000
0.166824 0.666824 0.000000
0.168238 0.668238 0.000000
0.169651 0.669651 0.000000
0.171065 0.671065 0.000000
0.172479 0.672479 0.000000
0.173893 0.673893 0.000000
0.175306 0.675306 0.000000
0.176720 0.676720 0.000000
0.178134 0.678134 0.000000
0.179548 0.679548 0.000000
0.180961 0.680961 0.000000
0.182375 0.682375 0.000000
0.183789 0.683789 0.000000
0.185203 0.685203 0.000000
0.186616 0.686616 0.000000
0.188030 0.688030 0.000000
0.189444 0.689444 0.000000
0.190858 0.690858 0.000000
0.192271 0.692271 0.000000
0.193685 0.693685 0.000000
0.195099 0.695099 0.000000
0.196513 0.696513 0.000000
0.197926 0.697926 0.000000
0.199340 0.699340 0.000000
0.200754 0.700754 0.000000
0.202168 0.702168 0.000000
0.203582 0.703582 0.000000
0.204995 0.704995 0.000000
0.206409 0.706409 0.000000
0.207823 0.707823 0.000000
0.209237 0.709237 0.000000
0.210650 0.710650 0.000000
0.212064 0.712064 0.000000
0.213478 0.713478 0.000000
0.214892 0.714892 0.000000
0.216305 0.716305 0.000000
0.217719 0.717719 0.000000
0.219133 0.719133 0.000000
0.220547 0.720547 0.000000
0.221960 0.721960 0.000000
0.223374 0.723374 0.000000
0.224788 0.724788 0.000000
0.226202 0.726202 0.000000
0.227615 0.727615 0.000000
0.229029 0.729029 0.000000
0.230443 0.730443 0.000000
0.231857 0.731857 0.000000
0.233270 0.733270 0.000000
0.234684 0.734684 0.000000
0.236098 0.736098 0.000000
0.237512 0.737512 0.000000
0.238926 0.738926 0.000000
0.240339 0.740339 0.000000
0.241753 0.741753 0.000000
0.243167 0.743167 0.000000
0.244581 0.744581 0.000000
0.245994 0.745994 0.000000
0.247408 0.747408 0.000000
0.248822 0.748822 0.000000
0.250236 0.750236 0.000000
0.251649 0.751649 0.000000
0.253063 0.753063 0.000000
0.254477 0.754477 0.000000
0.255891 0.755891 0.000000
0.257304 0.757304 0.000000
0.258718 0.758718 0.000000
0.260132 0.760132 0.000000
0.261546 0.761546 0.000000
0.262959 0.762959 0.000000
0.264373 0.764373 0.000000
0.265787 0.765787 0.000000
0.267201 0.767201 0.000000
0.268615 0.768615 0.000000
0.270028 0.770028 0.000000
0.271442 0.771442 0.000000
0.272856 0.772856 0.000000
0.274270 0.774270 0.000000
0.275683 0.775683 0.000000
0.277097 0.777097 0.000000
0.278511 0.778511 0.000000
0.279925 0.779925 0.000000
0.281338 0.781338 0.000000
0.282752 0.782752 0.000000
0.284166 0.784166 0.000000
0.285580 0.785580 0.000000
0.286993 0.786993 0.000000
0.288407 0.788407 0.000000
0.289821 0.789821 0.000000
0.291235 0.791235 0.000000
0.292648 0.792648 0.000000
0.294062 0.794062 0.000000
0.295476 0.795476 0.000000
0.296890 0.796890 0.000000
0.298303 0.798303 0.000000
0.299717 0.799717 0.000000
0.301131 0.801131 0.000000
0.302545 0.802545 0.000000
0.303959 0.803959 0.000000
0.305372 0.805372 0.000000
0.306786 0.806786 0.000000
0.308200 0.808200 0.000000
0.309614 0.809614 0.000000
0.311027 0.811027 0.000000
0.312441 0.812441 0.000000
0.313855 0.813855 0.000000
0.315269 0.815269 0.000000
0.316682 0.816682 0.000000
0.318096 0.818096 0.000000
0.319510 0.819510 0.000000
0.320924 0.820924 0.000000
0.322337 0.822337 0.000000
0.323751 0.823751 0.000000
0.325165 0.825165 0.000000
0.326579 0.826579 0.000000
0.327992 0.827992 0.000000
0.329406 0.829406 0.000000
0.330820 0.830820 0.000000
0.332234 0.832234 0.000000
0.333648 0.833648 0.000000
0.335061 0.835061 0.000000
0.336475 0.836475 0.000000
0.337889 0.837889 0.000000
0.339303 0.839303 0.000000
0.340716 0.840716 0.000000
[...]
POINT_DATA 20431
SCALARS UX float 1
LOOKUP_TABLE default
-0.000000
0.000000
-0.022131
-0.034582
-0.007315
-0.005016
-0.012754
-0.000000
-0.000000
0.000000
-0.000000
0.005714
0.008142
0.009777
0.010876
0.011526
0.011599
0.010898
0.009318
0.007051
0.004216
0.001395
-0.001178
-0.003355
-0.005147
-0.006576
-0.007718
-0.008635
-0.009377
-0.009981
-0.010475
-0.010881
-0.011217
-0.011497
-0.011730
-0.011926
-0.012090
-0.012229
-0.012345
-0.012444
-0.012528
-0.012599
-0.012659
-0.012710
-0.012801
-0.012862
-0.012940
-0.013041
-0.013171
-0.013337
-0.013547
-0.013815
-0.014152
-0.014561
-0.015061
-0.015665
-0.016377
-0.017184
-0.018105
-0.019077
-0.020032
-0.021063
-0.021792
-0.025658
-0.028642
-0.030951
-0.032828
-0.033956
-0.032696
-0.030956
-0.029127
-0.027573
-0.026393
-0.025642
-0.025204
-0.025002
-0.024916
-0.024925
-0.025011
-0.025206
-0.025503
-0.025876
-0.026307
-0.026741
-0.027171
-0.027582
-0.027952
-0.028249
-0.028403
-0.028386
-0.028067
-0.027501
-0.026687
-0.025626
-0.024364
-0.022780
-0.020797
-0.018607
-0.017035
-0.016174
-0.015957
-0.016197
-0.016569
-0.014193
-0.013153
-0.014313
-0.013115
-0.011847
-0.013750
-0.011321
-0.009649
-0.007995
-0.008421
-0.007065
-0.005847
-0.005350
-0.004984
-0.004704
-0.004431
-0.004147
-0.003857
-0.003590
-0.003290
-0.002925
-0.002440
-0.001675
-0.007461
-0.005694
-0.007488
-0.008147
-0.009085
-0.011579
-0.010523
-0.011573
-0.012633
-0.013757
-0.004141
-0.005840
-0.009534
-0.008725
-0.007556
-0.006315
-0.007969
-0.009610
-0.010999
-0.018968
-0.018137
-0.013098
-0.014135
-0.013690
-0.013210
-0.014437
-0.016283
-0.018898
-0.015942
-0.012955
-0.010013
-0.004689
-0.003859
-0.003718
-0.006713
-0.009496
-0.012041
-0.009054
-0.010179
0.008278
-0.010408
-0.018190
-0.023552
-0.029437
-0.011932
0.005358
0.006822
-0.018386
-0.018201
-0.015467
-0.009772
-0.010625
-0.012955
-0.018510
-0.016027
-0.016023
-0.017677
-0.021431
-0.028553
0.005309
0.021138
0.023424
0.027020
0.010804
-0.004289
-0.005394
-0.008189
-0.009946
-0.006510
-0.006962
-0.008827
-0.008344
-0.005842
-0.002854
-0.005096
-0.008056
-0.008757
-0.008771
-0.008960
-0.009305
-0.009705
-0.010058
-0.010229
-0.010446
-0.011652
-0.010364
-0.010373
-0.009120
-0.011929
-0.012450
-0.013397
-0.015146
-0.019125
-0.013637
-0.011367
-0.006719
-0.008497
-0.010307
-0.011007
-0.011662
-0.010929
-0.010641
-0.010373
-0.010645
-0.006991
-0.002426
-0.004960
-0.003736
-0.002117
-0.003647
-0.014174
-0.022377
-0.023451
-0.020549
-0.007360
-0.141932
0.034901
0.046333
0.038209
-0.112928
-0.066582
-0.036753
-0.026863
-0.024469
-0.021990
-0.015119
-0.009363
-0.007893
-0.007569
-0.008315
-0.008692
-0.004692
-0.004747
-0.005980
-0.008564
-0.010218
-0.012462
-0.018681
-0.014180
-0.011055
-0.014536
-0.007265
-0.016452
-0.012047
-0.010111
-0.009948
-0.010500
-0.013823
-0.014858
-0.016561
-0.019085
-0.017595
-0.016077
-0.011884
-0.012556
-0.014869
-0.016261
-0.025255
-0.019310
-0.016734
-0.017167
-0.012384
-0.012380
-0.013927
-0.016232
-0.015771
-0.015062
-0.014192
-0.015739
-0.017392
-0.018989
-0.036357
-0.013540
-0.015741
-0.012996
-0.008714
-0.012597
-0.014593
-0.014323
-0.016130
0.001645
-0.012786
-0.014582
-0.016189
-0.018747
-0.014237
-0.010147
-0.013283
-0.014706
-0.012518
-0.007422
-0.001328
-0.007596
-0.007299
-0.011476
-0.015405
-0.012319
-0.013912
-0.015685
-0.016676
-0.015940
-0.018632
-0.021103
-0.022055
-0.012576
-0.008985
-0.011970
-0.014783
-0.017431
-0.018487
-0.016257
-0.012811
-0.014147
-0.015965
-0.015112
-0.014900
-0.017899
-0.017048
-0.016063
-0.017424
-0.019348
-0.007876
-0.008508
-0.010431
-0.015910
-0.017268
-0.021812
-0.017627
-0.018338
-0.008460
-0.011678
-0.011753
-0.012076
-0.012603
-0.013848
-0.014417
-0.015442
-0.016565
-0.017455
-0.011459
-0.011645
-0.011854
-0.012919
-0.011899
-0.010089
-0.010429
-0.013595
-0.013917
-0.014776
-0.016552
-0.013570
-0.009908
-0.014220
-0.016820
-0.010132
-0.013044
-0.016268
-0.012032
-0.011235
-0.010527
-0.009597
-0.010723
-0.013094
-0.012177
-0.012023
-0.013738
-0.013041
-0.012055
-0.010524
-0.011704
-0.011278
-0.007682
-0.006472
-0.006175
-0.016039
-0.010959
-0.013630
-0.011612
-0.009432
-0.015335
-0.013858
-0.002344
-0.018203
-0.015803
-0.002161
-0.000742
-0.002335
-0.003004
-0.014267
0.039101
0.004516
-0.025608
-0.295206
0.113510
-0.009351
-0.012454
-0.015447
-0.024024
-0.011310
-0.010477
-0.012860
-0.014905
-0.011064
-0.013552
-0.011858
-0.010784
-0.009633
-0.009444
-0.024303
-0.010834
-0.012526
-0.010809
-0.014988
-0.015311
-0.015460
-0.012823
-0.012691
-0.012903
-0.009843
-0.007723
-0.005745
-0.008513
-0.010604
-0.012905
-0.015470
-0.016113
-0.020930
-0.017973
-0.015853
-0.016298
-0.010347
-0.007773
-0.007332
-0.005400
-0.004148
-0.004596
-0.004885
-0.005029
-0.008896
-0.013318
-0.014701
-0.015673
-0.014281
-0.011575
-0.015139
-0.013315
-0.008397
-0.004864
-0.007915
-0.008720
-0.007935
-0.008625
-0.006035
-0.012497
-0.013094
-0.012443
-0.011499
-0.010834
-0.010256
-0.009542
-0.010233
-0.010062
-0.010067
-0.011138
-0.011213
-0.010930
-0.011441
-0.012742
-0.012793
-0.017861
-0.013670
-0.011374
-0.010496
-0.009224
-0.012673
-0.013744
-0.013205
-0.011392
-0.012355
-0.011283
-0.009728
-0.009251
-0.008993
-0.008725
-0.010322
-0.009751
-0.010318
-0.010571
-0.009705
-0.013729
-0.012155
-0.011317
-0.010413
-0.010800
-0.010151
-0.009860
-0.009433
-0.012425
-0.011502
-0.010087
-0.011505
-0.010987
-0.011356
-0.010794
-0.010795
-0.010990
-0.010876
-0.010251
-0.010190
-0.010398
-0.010122
-0.010451
-0.010849
-0.010601
-0.011032
-0.011168
-0.010931
-0.010199
-0.009407
-0.010092
-0.009922
-0.009783
-0.009899
-0.011257
-0.012115
-0.010848
-0.009765
-0.008738
-0.009093
-0.009828
-0.009614
-0.009068
-0.009546
-0.009663
-0.009294
-0.009109
-0.009549
-0.011096
-0.010812
-0.011326
-0.012396
-0.011082
-0.010697
-0.011316
-0.012719
-0.011783
-0.010374
-0.012485
-0.013834
-0.015641
-0.011734
-0.010952
-0.012652
-0.018233
-0.018891
-0.020329
-0.010117
-0.009039
-0.016738
-0.015885
-0.019858
-0.022468
-0.012481
-0.013699
-0.011374
-0.015583
-0.011180
-0.010329
-0.009340
-0.008463
-0.006628
-0.014639
-0.014087
-0.015034
-0.016010
-0.014307
-0.009924
-0.011639
-0.011664
-0.011572
-0.010877
-0.010657
-0.009251
-0.011398
-0.010732
-0.007810
-0.016571
-0.017072
-0.013752
-0.015265
-0.014912
-0.014755
-0.014213
-0.013423
-0.016280
-0.014687
-0.012066
-0.012923
-0.011385
-0.009657
-0.008702
-0.008164
-0.010624
-0.010988
-0.011994
-0.011705
-0.009587
-0.008535
-0.007997
-0.007711
-0.005406
-0.007572
-0.008119
-0.007911
-0.007572
-0.007068
-0.006524
-0.014498
-0.012797
-0.010974
-0.010165
-0.009304
-0.006842
-0.004358
-0.006552
-0.008567
-0.008961
-0.008801
-0.008404
-0.005019
-0.005237
-0.005730
-0.006055
-0.006434
-0.005622
-0.005517
0.001559
0.022237
0.009823
0.005499
-0.002452
0.014490
0.009457
0.004953
0.005956
0.005645
-0.003549
0.001179
0.005895
0.001537
-0.004817
-0.011338
-0.011380
-0.012316
-0.011653
-0.011089
-0.010583
-0.010451
-0.011405
-0.010459
-0.010669
-0.011311
-0.010868
-0.011824
-0.011496
-0.011739
-0.011287
-0.008816
-0.007411
-0.007854
-0.008426
-0.007390
-0.004510
-0.013128
-0.014088
-0.014570
-0.012416
-0.011061
-0.010911
-0.014784
-0.018942
-0.003807
-0.009063
-0.009675
-0.009799
-0.010408
-0.002895
-0.006767
-0.008445
-0.008776
-0.006751
-0.006174
-0.007670
-0.009156
-0.008399
-0.007705
-0.008523
-0.007987
-0.007280
-0.006471
-0.006101
-0.007849
-0.007215
-0.006428
-0.008044
-0.009040
-0.008584
-0.008034
-0.007314
-0.006839
-0.006442
-0.005584
-0.003035
-0.003924
-0.008767
-0.008476
-0.007879
-0.007012
-0.006312
-0.005831
-0.004916
-0.005583
-0.006733
-0.008110
-0.007526
-0.006542
-0.006331
-0.006210
-0.004124
-0.005411
-0.004657
-0.003817
-0.003147
-0.003315
-0.003779
-0.001487
-0.001720
-0.001049
-0.002188
-0.002170
-0.001500
-0.001712
-0.003437
-0.003015
-0.002341
-0.005863
-0.004249
-0.005417
-0.009062
-0.006815
-0.006607
-0.005897
-0.005602
-0.006193
-0.005696
-0.007249
-0.006272
-0.005162
-0.004882
-0.004468
-0.005213
-0.007202
-0.006071
-0.006438
-0.005673
-0.004487
-0.003735
-0.002364
-0.005235
-0.016229
-0.012873
-0.012213
-0.011260
-0.011144
-0.011329
-0.011317
-0.014900
-0.011692
-0.008317
-0.006212
-0.005770
-0.004597
-0.004953
-0.008514
-0.009714
-0.008959
-0.008683
-0.008103
-0.007420
-0.006701
-0.005957
-0.005379
-0.005569
-0.005707
-0.005531
-0.004847
-0.006301
-0.007617
-0.007145
-0.008631
-0.008592
-0.008412
-0.011310
-0.010397
-0.010223
-0.010142
-0.009665
-0.009336
-0.008905
-0.008154
-0.008105
-0.007828
-0.005037
-0.004674
-0.003927
-0.002964
-0.002768
-0.012954
-0.013481
-0.013905
-0.014698
-0.013955
-0.014142
-0.014283
-0.014632
-0.014486
-0.012764
-0.012130
-0.011527
-0.012874
-0.012914
-0.012353
-0.010572
-0.011911
-0.011989
-0.009892
-0.011413
-0.005525
-0.004341
-0.005375
-0.003801
-0.003146
-0.002050
-0.003797
-0.005994
-0.005268
-0.004977
-0.003539
-0.003558
-0.003871
-0.003017
-0.003046
-0.006054
-0.005732
-0.006323
-0.005530
-0.005166
-0.004700
-0.004572
-0.004832
-0.004514
-0.004335
-0.003751
-0.003116
-0.002260
-0.003181
-0.004299
-0.003329
-0.002270
-0.001644
-0.002775
-0.003694
-0.003095
-0.002456
-0.001495
-0.002660
-0.002449
-0.003514
-0.002636
-0.001513
-0.000458
-0.008155
-0.007564
-0.007011
-0.006369
-0.005649
-0.004916
-0.004532
-0.004690
-0.004555
-0.004732
-0.004277
-0.003533
-0.002891
-0.003477
-0.005588
-0.005245
-0.004169
-0.003579
-0.004048
-0.005092
-0.006249
-0.006860
-0.006241
-0.004965
-0.002069
-0.001098
-0.001641
-0.002108
-0.002269
-0.002173
-0.002084
-0.001615
-0.008445
-0.008426
-0.008390
-0.008094
-0.006887
-0.006800
-0.006683
-0.006461
-0.006047
-0.005567
-0.005239
-0.005083
-0.004723
-0.004229
-0.003328
-0.004200
-0.001856
-0.004863
-0.004608
-0.002908
-0.002979
-0.003340
-0.003353
-0.002248
0.000223
-0.001135
-0.001362
-0.011655
-0.009741
-0.008313
-0.007401
-0.009117
-0.010433
-0.010349
-0.010142
-0.009500
-0.009370
-0.010805
-0.008688
-0.008163
-0.007674
-0.007285
-0.007073
-0.006308
-0.005944
-0.004162
-0.005347
-0.006436
-0.004632
-0.003896
-0.004995
-0.005793
-0.006315
-0.011138
-0.010896
-0.010877
-0.010425
-0.009684
-0.009054
-0.009340
-0.008746
-0.008120
-0.009796
-0.010453
-0.010228
-0.009977
-0.010156
-0.009871
-0.009530
-0.009663
-0.008846
-0.008444
-0.007571
0.000233
-0.006805
-0.006723
-0.006795
-0.006361
-0.006021
-0.005674
-0.005249
-0.010215
-0.009252
-0.008248
-0.008150
-0.008172
-0.008492
-0.008540
-0.008364
-0.008173
-0.007847
-0.007775
-0.007677
-0.006963
-0.007041
-0.007572
-0.006151
-0.006503
0.000531
-0.004166
-0.003757
-0.004297
-0.004768
-0.007972
-0.007875
-0.007762
-0.007378
-0.007414
-0.004336
-0.004571
-0.006359
-0.005490
-0.005249
-0.006313
-0.007400
-0.007765
-0.008291
-0.008519
-0.007719
-0.006090
-0.005415
-0.007613
-0.008251
-0.009543
-0.007002
-0.007484
-0.008805
-0.007993
0.001523
0.001269
0.001849
0.002552
-0.000298
0.000063
0.000957
0.001308
0.001920
0.002457
-0.005234
-0.003769
-0.004560
0.000173
-0.002193
-0.003577
-0.003376
-0.002995
-0.002192
-0.002520
-0.002370
-0.002265
-0.003462
-0.003276
-0.004320
-0.003726
-0.003564
-0.004141
-0.003141
-0.002721
-0.002770
-0.003667
-0.003036
-0.003229
-0.003950
-0.002687
-0.002847
-0.001442
-0.001325
-0.002179
-0.002364
-0.003307
-0.002923
-0.003728
-0.002164
-0.000627
-0.001788
-0.001689
-0.002122
-0.002987
-0.004481
-0.004206
-0.003854
-0.001270
-0.004806
-0.004625
-0.004731
-0.005752
-0.005371
-0.005393
-0.005219
-0.004755
-0.004638
-0.005057
-0.005172
-0.005477
-0.005467
-0.005343
-0.005321
-0.005211
-0.005225
-0.004853
-0.005086
-0.004687
-0.003886
-0.005220
-0.005451
-0.005457
-0.005122
-0.004710
-0.005805
-0.005889
-0.005844
-0.005740
-0.005539
-0.005504
-0.006693
-0.004584
-0.005108
-0.004924
-0.005517
-0.005414
-0.005386
-0.005461
-0.005996
-0.006492
-0.006198
-0.005805
-0.005911
-0.005958
-0.005915
-0.005753
-0.005810
-0.006020
-0.006200
-0.006712
-0.006167
-0.005816
-0.005400
-0.004694
-0.004694
-0.005069
-0.004901
-0.004794
-0.004872
-0.005371
-0.005460
-0.005341
-0.005171
-0.004878
-0.004932
-0.004910
-0.004923
-0.004922
-0.004936
-0.004946
-0.004971
-0.004988
-0.005011
-0.005041
-0.005083
-0.005125
-0.005171
-0.005208
-0.005248
-0.005283
-0.005328
-0.005365
-0.005400
-0.005442
-0.005483
-0.005524
-0.005563
-0.005601
-0.005645
-0.005687
-0.005728
-0.005768
-0.005801
-0.005839
-0.005877
-0.005915
-0.005953
-0.005989
-0.006026
-0.006063
-0.006099
-0.006135
-0.006170
-0.006206
-0.006240
-0.006274
-0.006308
-0.006341
-0.006375
-0.006408
-0.006442
-0.006474
-0.006507
-0.006540
-0.006572
-0.006603
-0.006635
-0.006667
-0.006699
-0.006730
-0.006761
-0.006792
-0.006823
-0.006853
-0.006884
-0.006914
-0.006944
-0.006974
-0.007004
-0.007033
-0.007063
-0.007092
-0.007121
-0.007150
-0.007178
-0.007207
-0.007235
-0.007264
-0.007292
-0.007320
-0.007348
-0.007376
-0.007404
-0.007432
-0.007459
-0.007487
-0.007514
-0.007541
-0.007568
-0.007595
-0.007622
-0.007649
-0.007676
-0.007702
-0.007729
-0.007756
-0.007782
-0.007808
-0.007834
-0.007861
-0.007887
-0.007913
-0.007939
-0.007965
-0.007991
-0.008016
-0.008042
-0.008068
-0.008094
-0.008119
-0.008145
-0.008170
-0.008196
-0.008221
-0.008246
-0.008272
-0.008297
-0.008322
-0.008347
-0.008372
-0.008397
-0.008422
-0.008448
-0.008472
-0.008497
-0.008522
-0.008547
-0.008572
-0.008596
-0.008621
-0.008646
-0.008671
-0.008695
-0.008720
-0.008744
-0.008769
-0.008793
-0.008818
-0.008842
-0.008867
-0.008891
-0.008916
-0.008940
-0.008964
-0.008989
-0.009013
-0.009037
-0.009062
-0.009086
-0.009110
-0.009135
-0.009159
-0.009182
-0.009206
-0.009230
-0.009255
-0.009278
-0.009302
-0.009325
-0.009349
-0.009372
-0.009396
-0.009419
-0.009443
-0.009466
-0.009489
-0.009513
-0.009536
-0.009559
-0.009582
-0.009605
-0.009628
-0.009652
-0.009675
-0.009698
-0.009721
-0.009743
-0.009766
-0.009789
-0.009812
-0.009835
-0.009858
-0.009881
-0.009903
-0.009926
-0.009949
-0.009971
-0.009994
-0.010016
-0.010039
-0.010062
-0.010084
-0.010107
-0.010129
-0.010152
-0.010174
-0.010196
-0.010219
-0.010241
-0.010263
-0.010286
-0.010308
-0.010330
-0.010352
-0.010374
-0.010397
-0.010419
-0.010441
-0.010463
-0.010485
-0.010506
-0.010528
-0.010550
-0.010572
-0.010594
-0.010615
-0.010637
-0.010659
-0.010680
-0.010702
-0.010723
-0.010745
-0.010766
-0.010787
-0.010808
-0.010830
-0.010851
-0.010872
-0.010893
-0.010914
-0.010935
-0.010955
-0.010976
-0.010997
-0.011017
-0.011038
-0.011058
-0.011079
-0.011099
-0.011119
-0.011140
-0.011160
-0.011180
-0.011200
-0.011220
-0.011239
-0.011259
-0.011279
-0.011298
-0.011318
-0.011337
-0.011356
-0.011376
-0.011395
-0.011414
-0.011433
-0.011451
-0.011470
-0.011489
-0.011507
-0.011526
-0.011544
-0.011562
-0.011581
-0.011599
-0.011617
-0.011634
-0.011652
-0.011670
-0.011687
-0.011705
-0.011722
-0.011739
-0.011756
-0.011773
-0.011790
-0.011807
-0.011823
-0.011840
-0.011856
-0.011873
-0.011889
-0.011905
-0.011921
-0.011937
-0.011952
-0.011968
-0.011983
-0.011999
-0.012014
-0.012029
-0.012044
-0.012059
-0.012074
-0.012088
-0.012103
-0.012117
-0.012132
-0.012146
-0.012160
-0.012174
-0.012187
-0.012201
-0.012215
-0.012228
-0.012241
-0.012254
-0.012267
-0.012280
-0.012293
-0.012306
-0.012318
-0.012331
-0.012343
-0.012355
-0.012367
-0.012379
-0.012391
-0.012403
-0.012414
-0.012426
-0.012437
-0.012448
-0.012459
-0.012470
-0.012481
-0.012491
-0.012502
-0.012512
-0.012523
-0.012533
-0.012543
-0.012553
-0.012562
-0.012572
-0.012582
-0.012591
-0.012600
-0.012610
-0.012619
-0.012627
-0.012636
-0.012645
-0.012653
-0.012662
-0.012670
-0.012678
-0.012686
-0.012694
-0.012702
-0.012710
-0.012717
-0.012725
-0.012732
-0.012740
-0.012747
-0.009281
-0.009351
-0.009387
-0.008017
-0.007940
-0.007992
-0.022959
-0.023059
-0.023114
-0.023240
-0.009925
-0.010984
-0.010877
-0.010967
-0.010881
-0.009179
-0.009254
-0.009172
-0.009043
-0.005016
-0.012297
-0.009293
-0.022950
-0.028022
-0.028181
-0.029294
-0.010275
-0.006791
-0.008096
-0.011869
-0.012335
-0.011917
-0.012093
-0.021998
-0.022283
-0.022662
-0.023051
-0.010439
-0.011361
-0.010506
-0.011533
-0.020072
-0.020496
-0.019850
-0.020494
-0.010025
-0.010438
-0.010220
-0.010119
-0.031988
-0.038112
-0.032986
-0.014188
-0.013897
-0.013752
-0.013304
-0.018033
-0.018734
-0.018453
-0.018942
-0.016461
-0.016005
-0.016058
-0.022965
-0.022889
-0.022946
-0.017387
-0.016627
-0.017870
-0.017207
-0.011283
-0.011008
-0.011323
-0.010949
-0.018942
-0.018773
-0.018867
-0.018544
-0.014070
-0.014063
-0.014558
-0.013472
-0.013734
-0.013965
-0.014140
-0.012525
-0.017203
-0.018031
-0.017939
-0.018506
-0.009542
-0.009664
-0.009613
-0.018780
-0.019823
-0.018915
-0.016029
-0.009871
-0.010025
-0.009876
-0.009925
-0.010335
-0.009203
-0.010540
-0.017481
-0.017557
-0.017631
-0.008230
-0.016042
-0.016242
-0.016219
-0.017272
-0.010452
-0.011031
-0.011198
-0.008843
-0.008885
-0.009058
-0.008979
-0.006358
-0.005663
-0.007913
-0.005876
-0.011489
-0.022710
-0.022886
-0.022534
-0.011442
-0.011404
-0.011334
-0.022819
-0.022497
-0.022662
-0.022652
-0.022496
-0.022378
-0.022143
-0.022445
-0.022375
-0.020457
-0.020382
-0.019386
-0.016387
-0.016403
-0.016634
-0.016731
-0.019610
-0.010753
-0.010741
-0.011349
-0.020149
-0.021013
-0.019854
-0.022652
-0.022693
-0.022743
-0.010873
-0.009613
-0.009732
-0.009759
-0.017265
-0.011277
-0.015683
-0.009462
-0.009336
-0.009425
-0.009339
-0.011540
-0.011718
-0.011586
-0.011861
-0.018757
-0.018991
-0.018797
-0.018882
-0.014186
-0.014019
-0.014386
-0.013813
-0.023642
-0.023676
-0.023752
-0.023557
-0.012444
-0.012427
-0.026373
-0.026177
-0.026123
-0.025880
-0.022468
-0.022543
-0.022343
-0.022732
-0.012891
-0.012788
-0.012788
-0.022778
-0.022513
-0.024075
-0.024205
-0.024071
-0.009938
-0.010137
-0.010089
-0.012471
-0.012174
-0.011547
-0.011441
-0.018590
-0.018753
-0.018576
-0.024413
-0.021404
-0.023875
-0.021824
-0.013092
-0.013056
-0.012921
-0.013266
-0.011521
-0.011365
-0.011426
-0.010249
-0.011858
-0.011995
-0.012073
-0.012187
-0.016912
-0.016585
-0.016995
-0.016313
-0.020835
-0.020756
-0.021028
-0.011764
-0.011939
-0.011971
-0.012163
-0.021645
-0.021568
-0.021786
-0.021614
-0.005928
-0.007434
-0.009154
-0.021273
-0.020173
-0.020022
-0.020755
-0.025241
-0.025225
-0.025204
-0.025282
-0.012031
-0.012047
-0.011029
-0.009079
-0.008172
-0.004938
-0.018691
-0.018587
-0.018473
-0.018410
-0.020489
-0.021348
-0.021221
-0.021091
-0.021983
-0.022131
-0.022250
-0.021797
-0.019688
-0.019898
-0.019919
-0.020059
-0.023056
-0.023063
-0.023023
-0.023020
-0.012410
-0.012201
-0.012286
-0.012228
-0.020690
-0.018924
-0.018005
-0.025792
-0.025976
-0.026056
-0.025607
-0.017914
-0.018150
-0.019938
-0.009400
-0.007422
-0.022484
-0.022413
-0.022506
-0.022429
-0.012874
-0.013412
-0.013287
-0.013795
-0.019762
-0.018969
-0.019953
-0.018546
-0.011218
-0.011548
-0.011634
-0.012031
-0.012509
-0.012981
-0.012438
-0.013003
-0.022587
-0.022565
-0.022701
-0.022729
-0.020219
-0.018930
-0.017403
-0.017158
-0.010112
-0.009928
-0.010361
-0.009708
-0.010515
-0.010148
-0.009659
-0.017015
-0.015100
-0.016495
-0.016399
-0.013137
-0.013206
-0.012914
-0.009751
-0.021125
-0.021263
-0.021280
-0.021101
-0.010440
-0.010536
-0.010571
-0.010693
-0.014523
-0.014460
-0.014733
-0.014348
-0.010549
-0.009368
-0.020500
-0.020409
-0.020359
-0.020273
-0.018753
-0.018865
-0.018610
-0.019022
-0.014936
-0.013087
-0.014931
-0.011705
-0.011832
-0.011717
-0.023371
-0.023434
-0.023375
-0.023403
-0.009196
-0.023009
-0.022957
-0.022954
-0.012079
-0.011694
-0.011827
-0.011569
-0.009725
-0.009718
-0.009820
-0.009795
-0.013325
-0.013515
-0.013542
-0.013165
-0.012196
-0.012573
-0.012248
-0.012583
-0.011589
-0.011625
-0.012402
-0.012703
-0.012523
-0.016394
-0.016382
-0.014579
-0.018674
-0.017986
-0.017432
-0.013350
-0.012206
-0.012414
-0.012672
-0.010602
-0.010356
-0.010422
-0.010493
-0.009481
-0.009618
-0.009644
-0.022146
-0.021901
-0.009483
-0.007749
-0.007887
-0.007840
-0.007976
-0.018255
-0.016311
-0.018112
-0.011926
-0.015481
-0.015596
-0.015666
-0.015823
-0.024284
-0.024199
-0.024107
-0.024012
-0.011236
-0.011801
-0.012125
-0.010027
-0.022960
-0.022990
-0.023002
-0.022932
-0.023028
-0.023084
-0.023024
-0.023078
-0.006973
-0.006805
-0.006677
-0.022600
-0.022554
-0.022646
-0.014624
-0.014661
-0.014835
-0.014951
-0.009274
-0.007051
-0.007038
-0.006877
-0.011401
-0.011035
-0.011568