# vtk DataFile Version 2.0
Test
ASCII
DATASET POLYDATA
POINTS 20431 float
0.000000 0.000000 0.000000
2.000000 0.000000 0.000000
2.000000 4.000000 0.000000
0.000000 4.000000 0.000000
0.000000 0.500000 0.000000
1.500000 2.000000 0.000000
2.000000 2.500000 0.000000
0.400000 0.000000 0.000000
0.800000 0.000000 0.000000
1.200000 0.000000 0.000000
1.600000 0.000000 0.000000
2.000000 0.362557 0.000000
2.000000 0.672798 0.000000
2.000000 0.938272 0.000000
2.000000 1.165439 0.000000
2.000000 1.359826 0.000000
2.000000 1.526163 0.000000
2.000000 1.668499 0.000000
2.000000 1.790295 0.000000
2.000000 1.894517 0.000000
2.000000 1.983700 0.000000
2.000000 2.060013 0.000000
2.000000 2.125315 0.000000
2.000000 2.181194 0.000000
2.000000 2.229010 0.000000
2.000000 2.269926 0.000000
2.000000 2.304938 0.000000
2.000000 2.334898 0.000000
2.000000 2.360534 0.000000
2.000000 2.382472 0.000000
2.000000 2.401244 0.000000
2.000000 2.417307 0.000000
2.000000 2.431052 0.000000
2.000000 2.442814 0.000000
2.000000 2.452878 0.000000
2.000000 2.461491 0.000000
2.000000 2.468860 0.000000
2.000000 2.475167 0.000000
2.000000 2.480563 0.000000
2.000000 2.485180 0.000000
2.000000 2.489132 0.000000
2.000000 2.492513 0.000000
2.000000 2.495406 0.000000
2.000000 2.497882 0.000000
2.000000 2.502286 0.000000
2.000000 2.505266 0.000000
2.000000 2.509150 0.000000
2.000000 2.514212 0.000000
2.000000 2.520809 0.000000
2.000000 2.529407 0.000000
2.000000 2.540613 0.000000
2.000000 2.555218 0.000000
2.000000 2.574253 0.000000
2.000000 2.599061 0.000000
2.000000 2.631395 0.000000
2.000000 2.673536 0.000000
2.000000 2.728460 0.000000
2.000000 2.800043 0.000000
2.000000 2.893339 0.000000
2.000000 3.014933 0.000000
2.000000 3.173410 0.000000
2.000000 3.379956 0.000000
2.000000 3.649152 0.000000
1.600000 4.000000 0.000000
1.200000 4.000000 0.000000
0.800000 4.000000 0.000000
0.400000 4.000000 0.000000
0.000000 3.624996 0.000000
0.000000 3.289970 0.000000
0.000000 2.990661 0.000000
0.000000 2.723261 0.000000
0.000000 2.484368 0.000000
0.000000 2.270943 0.000000
0.000000 2.080271 0.000000
0.000000 1.909926 0.000000
0.000000 1.757741 0.000000
0.000000 1.621780 0.000000
0.000000 1.500314 0.000000
0.000000 1.391797 0.000000
0.000000 1.294849 0.000000
0.000000 1.208237 0.000000
0.000000 1.130858 0.000000
0.000000 1.061728 0.000000
0.000000 0.999968 0.000000
0.000000 0.944792 0.000000
0.000000 0.895499 0.000000
0.000000 0.851460 0.000000
0.000000 0.812117 0.000000
0.000000 0.776968 0.000000
0.000000 0.745565 0.000000
0.000000 0.717511 0.000000
0.000000 0.692448 0.000000
0.000000 0.670056 0.000000
0.000000 0.650052 0.000000
0.000000 0.632180 0.000000
0.000000 0.616213 0.000000
0.000000 0.601949 0.000000
0.000000 0.589205 0.000000
0.000000 0.577820 0.000000
0.000000 0.567649 0.000000
0.000000 0.558562 0.000000
0.000000 0.550444 0.000000
0.000000 0.543191 0.000000
0.000000 0.536712 0.000000
0.000000 0.530923 0.000000
0.000000 0.525751 0.000000
0.000000 0.521131 0.000000
0.000000 0.517003 0.000000
0.000000 0.513315 0.000000
0.000000 0.510021 0.000000
0.000000 0.507078 0.000000
0.000000 0.504448 0.000000
0.000000 0.502099 0.000000
0.000000 0.497804 0.000000
0.000000 0.494785 0.000000
0.000000 0.490633 0.000000
0.000000 0.484924 0.000000
0.000000 0.477074 0.000000
0.000000 0.466279 0.000000
0.000000 0.451436 0.000000
0.000000 0.431025 0.000000
0.000000 0.402959 0.000000
0.000000 0.364366 0.000000
0.000000 0.311297 0.000000
0.000000 0.238324 0.000000
0.000000 0.137980 0.000000
0.001414 0.501414 0.000000
0.002828 0.502828 0.000000
0.004241 0.504241 0.000000
0.005655 0.505655 0.000000
0.007069 0.507069 0.000000
0.008483 0.508483 0.000000
0.009896 0.509896 0.000000
0.011310 0.511310 0.000000
0.012724 0.512724 0.000000
0.014138 0.514138 0.000000
0.015551 0.515551 0.000000
0.016965 0.516965 0.000000
0.018379 0.518379 0.000000
0.019793 0.519793 0.000000
0.021206 0.521206 0.000000
0.022620 0.522620 0.000000
0.024034 0.524034 0.000000
0.025448 0.525448 0.000000
0.026861 0.526861 0.000000
0.028275 0.528275 0.000000
0.029689 0.529689 0.000000
0.031103 0.531103 0.000000
0.032516 0.532516 0.000000
0.033930 0.533930 0.000000
0.035344 0.535344 0.000000
0.036758 0.536758 0.000000
0.038172 0.538172 0.000000
0.039585 0.539585 0.000000
0.040999 0.540999 0.000000
0.042413 0.542413 0.000000
0.043827 0.543827 0.000000
0.045240 0.545240 0.000000
0.046654 0.546654 0.000000
0.048068 0.548068 0.000000
0.049482 0.549482 0.000000
0.050895 0.550895 0.000000
0.052309 0.552309 0.000000
0.053723 0.553723 0.000000
0.055137 0.555137 0.000000
0.056550 0.556550 0.000000
0.057964 0.557964 0.000000
0.059378 0.559378 0.000000
0.060792 0.560792 0.000000
0.062205 0.562205 0.000000
0.063619 0.563619 0.000000
0.065033 0.565033 0.000000
0.066447 0.566447 0.000000
0.067861 0.567861 0.000000
0.069274 0.569274 0.000000
0.070688 0.570688 0.000000
0.072102 0.572102 0.000000
0.073516 0.573516 0.000000
0.074929 0.574929 0.000000
0.076343 0.576343 0.000000
0.077757 0.577757 0.000000
0.079171 0.579171 0.000000
0.080584 0.580584 0.000000
0.081998 0.581998 0.000000
0.083412 0.583412 0.000000
0.084826 0.584826 0.000000
0.086239 0.586239 0.000000
0.087653 0.587653 0.000000
0.089067 0.589067 0.000000
0.090481 0.590481 0.000000
0.091894 0.591894 0.000000
0.093308 0.593308 0.000000
0.094722 0.594722 0.000000
0.096136 0.596136 0.000000
0.097549 0.597549 0.000000
0.098963 0.598963 0.000000
0.100377 0.600377 0.000000
0.101791 0.601791 0.000000
0.103205 0.603205 0.000000
0.104618 0.604618 0.000000
0.106032 0.606032 0.000000
0.107446 0.607446 0.000000
0.108860 0.608860 0.000000
0.110273 0.610273 0.000000
0.111687 0.611687 0.000000
0.113101 0.613101 0.000000
0.114515 0.614515 0.000000
0.115928 0.615928 0.000000
0.117342 0.617342 0.000000
0.118756 0.618756 0.000000
0.120170 0.620170 0.000000
0.121583 0.621583 0.000000
0.122997 0.622997 0.000000
0.124411 0.624411 0.000000
0.125825 0.625825 0.000000
0.127238 0.627238 0.000000
0.128652 0.628652 0.000000
0.130066 0.630066 0.000000
0.131480 0.631480 0.000000
0.132893 0.632893 0.000000
0.134307 0.634307 0.000000
0.135721 0.635721 0.000000
0.137135 0.637135 0.000000
0.138549 0.638549 0.000000
0.139962 0.639962 0.000000
0.141376 0.641376 0.000000
0.142790 0.642790 0.000000
0.144204 0.644204 0.000000
0.145617 0.645617 0.000000
0.147031 0.647031 0.000000
0.148445 0.648445 0.000000
0.149859 0.649859 0.000000
0.151272 0.651272 0.000000
0.152686 0.652686 0.000000
0.154100 0.654100 0.000000
0.155514 0.655514 0.000000
0.156927 0.656927 0.000000
0.158341 0.658341 0.000000
0.159755 0.659755 0.000000
0.161169 0.661169 0.000000
0.162582 0.662582 0.000000
0.163996 0.663996 0.000000
0.165410 0.665410 0.000000
0.166824 0.666824 0.000000
0.168238 0.668238 0.000000
0.169651 0.669651 0.000000
0.171065 0.671065 0.000000
0.172479 0.672479 0.000000
0.173893 0.673893 0.000000
0.175306 0.675306 0.000000
0.176720 0.676720 0.000000
0.178134 0.678134 0.000000
0.179548 0.679548 0.000000
0.180961 0.680961 0.000000
0.182375 0.682375 0.000000
0.183789 0.683789 0.000000
0.185203 0.685203 0.000000
0.186616 0.686616 0.000000
0.188030 0.688030 0.000000
0.189444 0.689444 0.000000
0.190858 0.690858 0.000000
0.192271 0.692271 0.000000
0.193685 0.693685 0.000000
0.195099 0.695099 0.000000
0.196513 0.696513 0.000000
0.197926 0.697926 0.000000
0.199340 0.699340 0.000000
0.200754 0.700754 0.000000
0.202168 0.702168 0.000000
0.203582 0.703582 0.000000
0.204995 0.704995 0.000000
0.206409 0.706409 0.000000
0.207823 0.707823 0.000000
0.209237 0.709237 0.000000
0.210650 0.710650 0.000000
0.212064 0.712064 0.000000
0.213478 0.713478 0.000000
0.214892 0.714892 0.000000
0.216305 0.716305 0.000000
0.217719 0.717719 0.000000
0.219133 0.719133 0.000000
0.220547 0.720547 0.000000
0.221960 0.721960 0.000000
0.223374 0.723374 0.000000
0.224788 0.724788 0.000000
0.226202 0.726202 0.000000
0.227615 0.727615 0.000000
0.229029 0.729029 0.000000
0.230443 0.730443 0.000000
0.231857 0.731857 0.000000
0.233270 0.733270 0.000000
0.234684 0.734684 0.000000
0.236098 0.736098 0.000000
0.237512 0.737512 0.000000
0.238926 0.738926 0.000000
0.240339 0.740339 0.000000
0.241753 0.741753 0.000000
0.243167 0.743167 0.000000
0.244581 0.744581 0.000000
0.245994 0.745994 0.000000
0.247408 0.747408 0.000000
0.248822 0.748822 0.000000
0.250236 0.750236 0.000000
0.251649 0.751649 0.000000
0.253063 0.753063 0.000000
0.254477 0.754477 0.000000
0.255891 0.755891 0.000000
0.257304 0.757304 0.000000
0.258718 0.758718 0.000000
0.260132 0.760132 0.000000
0.261546 0.761546 0.000000
0.262959 0.762959 0.000000
0.264373 0.764373 0.000000
0.265787 0.765787 0.000000
0.267201 0.767201 0.000000
0.268615 0.768615 0.000000
0.270028 0.770028 0.000000
0.271442 0.771442 0.000000
0.272856 0.772856 0.000000
0.274270 0.774270 0.000000
0.275683 0.775683 0.000000
0.277097 0.777097 0.000000
0.278511 0.778511 0.000000
0.279925 0.779925 0.000000
0.281338 0.781338 0.000000
0.282752 0.782752 0.000000
0.284166 0.784166 0.000000
0.285580 0.785580 0.000000
0.286993 0.786993 0.000000
0.288407 0.788407 0.000000
0.289821 0.789821 0.000000
0.291235 0.791235 0.000000
0.292648 0.792648 0.000000
0.294062 0.794062 0.000000
0.295476 0.795476 0.000000
0.296890 0.796890 0.000000
0.298303 0.798303 0.000000
0.299717 0.799717 0.000000
0.301131 0.801131 0.000000
0.302545 0.802545 0.000000
0.303959 0.803959 0.000000
0.305372 0.805372 0.000000
0.306786 0.806786 0.000000
0.308200 0.808200 0.000000
0.309614 0.809614 0.000000
0.311027 0.811027 0.000000
0.312441 0.812441 0.000000
0.313855 0.813855 0.000000
0.315269 0.815269 0.000000
0.316682 0.816682 0.000000
0.318096 0.818096 0.000000
0.319510 0.819510 0.000000
0.320924 0.820924 0.000000
0.322337 0.822337 0.000000
0.323751 0.823751 0.000000
0.325165 0.825165 0.000000
0.326579 0.826579 0.000000
0.327992 0.827992 0.000000
0.329406 0.829406 0.000000
0.330820 0.830820 0.000000
0.332234 0.832234 0.000000
0.333648 0.833648 0.000000
0.335061 0.835061 0.000000
0.336475 0.836475 0.000000
0.337889 0.837889 0.000000
0.339303 0.839303 0.000000
0.340716 0.840716 0.000000
[...]
POINT_DATA 20431
SCALARS UX float 1
LOOKUP_TABLE default
-0.000000
0.000000
-0.002063
-0.006961
-0.002096
-0.000496
-0.000924
-0.000000
-0.000000
0.000000
-0.000000
0.001826
0.002454
0.002765
0.002917
0.002972
0.002922
0.002748
0.002444
0.002040
0.001575
0.001131
0.000739
0.000414
0.000151
-0.000057
-0.000222
-0.000354
-0.000459
-0.000544
-0.000612
-0.000669
-0.000715
-0.000754
-0.000785
-0.000812
-0.000834
-0.000853
-0.000869
-0.000882
-0.000894
-0.000903
-0.000911
-0.000918
-0.000930
-0.000939
-0.000949
-0.000963
-0.000980
-0.001002
-0.001030
-0.001066
-0.001110
-0.001164
-0.001228
-0.001306
-0.001396
-0.001497
-0.001609
-0.001725
-0.001834
-0.001949
-0.002027
-0.003176
-0.004212
-0.005159
-0.006062
-0.006882
-0.006722
-0.006507
-0.006299
-0.006148
-0.006073
-0.006082
-0.006153
-0.006273
-0.006408
-0.006547
-0.006675
-0.006788
-0.006883
-0.006958
-0.007018
-0.007062
-0.007094
-0.007115
-0.007127
-0.007132
-0.007130
-0.007124
-0.007113
-0.007100
-0.007082
-0.007060
-0.007036
-0.007008
-0.006976
-0.006940
-0.006900
-0.006865
-0.006830
-0.006779
-0.006671
-0.006568
-0.006459
-0.006309
-0.006311
-0.006271
-0.006073
-0.005748
-0.005162
-0.004498
-0.003004
-0.002053
-0.002018
-0.001959
-0.001911
-0.001850
-0.001801
-0.001747
-0.001689
-0.001625
-0.001539
-0.001409
-0.001202
-0.000826
-0.002190
-0.002235
-0.002238
-0.002149
-0.002229
-0.002215
-0.002217
-0.002242
-0.002261
-0.002276
-0.002527
-0.002600
-0.002750
-0.002581
-0.002641
-0.002818
-0.003671
-0.002731
-0.003612
-0.003753
-0.003701
-0.003395
-0.003358
-0.003729
-0.003494
-0.003542
-0.003599
-0.003552
-0.003556
-0.003689
-0.003762
-0.003532
-0.003595
-0.003604
-0.003641
-0.003307
-0.003807
-0.003738
-0.003794
-0.003745
-0.003757
-0.003835
-0.003793
-0.003848
-0.003770
-0.003771
-0.003784
-0.003818
-0.003744
-0.003772
-0.003798
-0.003779
-0.003746
-0.003728
-0.003686
-0.003770
-0.003736
-0.003733
-0.003706
-0.003665
-0.003589
-0.003660
-0.003660
-0.003572
-0.003582
-0.003616
-0.003612
-0.003602
-0.003594
-0.003513
-0.003441
-0.003403
-0.003422
-0.003401
-0.003588
-0.003449
-0.003415
-0.004241
-0.004198
-0.004157
-0.004173
-0.004191
-0.004141
-0.004168
-0.004126
-0.004103
-0.004075
-0.004130
-0.004115
-0.003458
-0.003469
-0.003480
-0.003425
-0.003484
-0.003433
-0.003388
-0.003505
-0.003889
-0.003800
-0.003902
-0.003880
-0.003852
-0.003831
-0.003844
-0.003795
-0.003793
-0.003782
-0.003724
-0.003724
-0.003734
-0.003662
-0.003635
-0.003647
-0.003635
-0.003637
-0.003720
-0.003719
-0.003665
-0.003641
-0.003825
-0.003806
-0.003865
-0.003956
-0.003910
-0.003917
-0.003884
-0.003920
-0.003881
-0.003841
-0.003886
-0.003900
-0.003885
-0.003930
-0.003918
-0.003920
-0.003692
-0.003693
-0.003665
-0.003652
-0.003603
-0.003570
-0.003645
-0.003618
-0.003623
-0.003605
-0.003627
-0.003666
-0.004024
-0.004583
-0.004459
-0.004411
-0.003586
-0.003702
-0.003690
-0.003698
-0.003757
-0.003732
-0.003693
-0.003705
-0.003689
-0.003636
-0.003774
-0.003743
-0.003674
-0.003690
-0.003706
-0.003694
-0.003662
-0.003688
-0.003669
-0.003690
-0.003761
-0.004437
-0.004269
-0.004164
-0.004367
-0.004215
-0.004260
-0.004228
-0.004222
-0.004205
-0.004216
-0.004212
-0.004151
-0.004162
-0.004119
-0.004106
-0.004106
-0.004138
-0.004181
-0.004151
-0.004117
-0.004107
-0.004092
-0.004098
-0.004056
-0.004033
-0.003987
-0.004265
-0.004202
-0.004081
-0.004182
-0.004148
-0.004131
-0.004118
-0.004098
-0.004113
-0.004117
-0.004104
-0.004073
-0.004066
-0.004067
-0.004103
-0.004162
-0.004089
-0.004038
-0.004046
-0.004086
-0.004041
-0.003972
-0.004047
-0.003962
-0.003903
-0.003954
-0.003937
-0.003961
-0.003557
-0.003912
-0.003828
-0.003912
-0.003856
-0.003549
-0.003655
-0.003579
-0.003636
-0.003709
-0.003693
-0.003666
-0.003162
-0.003628
-0.003603
-0.003610
-0.003617
-0.003609
-0.003606
-0.003481
-0.003581
-0.003588
-0.003492
-0.003515
-0.003525
-0.003409
-0.003477
-0.003254
-0.002100
-0.003602
-0.003326
-0.003251
-0.003240
-0.003981
-0.003979
-0.003959
-0.003982
-0.003970
-0.003940
-0.003223
-0.003273
-0.003217
-0.003317
-0.003303
-0.003228
-0.003166
-0.003220
-0.003247
-0.003240
-0.003284
-0.003273
-0.003276
-0.003283
-0.003293
-0.003255
-0.003252
-0.003301
-0.003234
-0.003256
-0.003332
-0.003210
-0.003188
-0.003209
-0.003202
-0.003191
-0.003171
-0.003158
-0.003141
-0.003160
-0.003142
-0.003079
-0.003086
-0.003076
-0.003093
-0.003079
-0.003194
-0.003427
-0.003428
-0.003443
-0.003423
-0.003381
-0.003424
-0.003419
-0.003342
-0.003356
-0.003386
-0.003361
-0.003329
-0.003343
-0.003295
-0.003265
-0.003327
-0.003279
-0.003313
-0.003307
-0.003231
-0.003269
-0.003683
-0.003674
-0.004240
-0.004112
-0.004180
-0.004044
-0.004114
-0.004145
-0.004077
-0.004024
-0.003983
-0.004007
-0.004007
-0.004001
-0.003717
-0.003652
-0.003708
-0.003617
-0.003584
-0.003659
-0.003727
-0.003780
-0.003750
-0.003139
-0.003185
-0.003193
-0.003201
-0.002907
-0.003098
-0.003062
-0.003409
-0.003334
-0.003312
-0.003371
-0.003308
-0.003340
-0.003232
-0.003120
-0.003108
-0.003090
-0.003068
-0.003072
-0.003080
-0.003182
-0.003459
-0.003416
-0.003428
-0.003411
-0.003383
-0.003356
-0.003340
-0.003377
-0.003323
-0.003312
-0.003316
-0.003293
-0.003282
-0.003236
-0.003215
-0.003215
-0.003170
-0.003069
-0.003004
-0.003008
-0.003045
-0.003044
-0.003092
-0.003032
-0.003033
-0.003012
-0.003024
-0.003008
-0.003009
-0.003018
-0.002982
-0.002997
-0.002967
-0.002969
-0.002956
-0.002969
-0.002950
-0.002974
-0.002953
-0.002953
-0.002912
-0.002932
-0.002941
-0.002968
-0.002912
-0.002933
-0.002934
-0.002949
-0.002943
-0.002941
-0.002942
-0.002878
-0.002921
-0.002926
-0.002927
-0.002914
-0.002878
-0.002841
-0.002945
-0.002922
-0.002258
-0.002942
-0.002986
-0.003007
-0.002995
-0.003088
-0.003057
-0.003057
-0.003032
-0.003675
-0.003674
-0.003661
-0.002907
-0.002889
-0.002909
-0.002930
-0.002918
-0.002911
-0.002909
-0.002885
-0.002917
-0.002886
-0.002876
-0.002771
-0.002966
-0.002801
-0.002850
-0.002816
-0.002802
-0.002857
-0.002874
-0.002874
-0.002850
-0.002943
-0.003007
-0.002925
-0.002834
-0.002766
-0.002846
-0.002828
-0.002792
-0.002760
-0.002757
-0.002819
-0.002839
-0.002756
-0.002681
-0.002697
-0.002732
-0.002748
-0.002766
-0.002815
-0.002772
-0.002771
-0.002767
-0.002806
-0.002811
-0.002799
-0.002743
-0.002718
-0.002749
-0.002749
-0.002715
-0.002451
-0.002442
-0.002344
-0.002356
-0.002507
-0.002601
-0.002591
-0.002540
-0.002574
-0.002593
-0.002624
-0.002620
-0.002617
-0.002587
-0.002618
-0.002621
-0.002597
-0.002607
-0.002606
-0.002635
-0.002544
-0.002570
-0.002881
-0.002906
-0.002858
-0.002854
-0.002903
-0.002865
-0.002861
-0.002831
-0.002856
-0.002826
-0.002806
-0.002806
-0.002742
-0.002766
-0.002755
-0.002730
-0.002745
-0.002708
-0.002731
-0.002923
-0.002897
-0.002923
-0.002907
-0.002882
-0.002896
-0.002890
-0.002422
-0.002390
-0.002379
-0.002370
-0.002435
-0.002383
-0.002358
-0.002357
-0.002360
-0.002481
-0.002436
-0.002428
-0.002439
-0.002398
-0.002404
-0.002409
-0.002435
-0.002423
-0.002406
-0.002402
-0.002408
-0.001899
-0.001864
-0.001881
-0.001883
-0.001886
-0.001886
-0.001874
-0.001826
-0.002274
-0.002254
-0.002257
-0.002264
-0.002277
-0.002228
-0.002242
-0.002246
-0.002278
-0.002606
-0.002555
-0.002605
-0.002543
-0.002569
-0.002521
-0.002998
-0.002962
-0.003020
-0.002771
-0.002729
-0.002696
-0.002719
-0.002723
-0.002732
-0.002724
-0.002701
-0.002714
-0.002705
-0.002686
-0.002618
-0.002589
-0.002535
-0.002546
-0.002544
-0.002499
-0.002546
-0.002462
-0.002469
-0.002447
-0.002461
-0.002451
-0.002449
-0.002430
-0.002508
-0.002432
-0.002362
-0.001938
-0.001866
-0.001860
-0.001763
-0.002147
-0.002223
-0.002233
-0.002228
-0.002204
-0.002179
-0.002189
-0.002022
-0.002062
-0.002124
-0.002147
-0.002057
-0.002104
-0.002078
-0.002009
-0.002003
-0.001968
-0.001947
-0.001968
-0.001852
-0.001910
-0.001863
-0.001872
-0.001874
-0.001842
-0.001880
-0.001846
-0.001916
-0.001868
-0.001888
-0.001871
-0.001903
-0.001875
-0.001885
-0.001891
-0.001825
-0.001836
-0.001856
-0.001841
-0.001886
-0.001861
-0.001897
-0.001878
-0.001827
-0.001803
-0.001805
-0.002364
-0.002483
-0.002267
-0.002189
-0.002240
-0.001831
-0.001851
-0.001875
-0.001851
-0.002131
-0.002177
-0.002055
-0.002370
-0.002401
-0.002163
-0.001402
0.004506
-0.004015
-0.002375
-0.003806
-0.001633
-0.001816
-0.002053
-0.001972
-0.001979
-0.001982
-0.001955
-0.002128
-0.002105
-0.002115
-0.002092
-0.002172
-0.002142
-0.002059
-0.002041
-0.002010
-0.002031
-0.001909
-0.002105
-0.001882
-0.001890
-0.001870
-0.001850
-0.001912
-0.001777
-0.001802
-0.001805
-0.001780
-0.001852
-0.001677
-0.001714
-0.001770
-0.001753
-0.001773
-0.001342
-0.001328
-0.001287
-0.001272
-0.001231
-0.001203
-0.001146
-0.001301
-0.001250
-0.001504
-0.001471
-0.001460
-0.001467
-0.001448
-0.001459
-0.001471
-0.001481
-0.001478
-0.001461
-0.001490
-0.001488
-0.001493
-0.001504
-0.001495
-0.001441
-0.001415
-0.001437
-0.001438
-0.001457
-0.001424
-0.001430
-0.001385
-0.001362
-0.001346
-0.001347
-0.001302
-0.001272
-0.001252
-0.001244
-0.001212
-0.002100
-0.002131
-0.001313
-0.001973
-0.002655
-0.001394
-0.001461
-0.001422
-0.001342
-0.001467
-0.001464
-0.001417
-0.001473
-0.001481
-0.001121
-0.001103
-0.001069
-0.001080
-0.001080
-0.001221
-0.001168
-0.001121
-0.001163
-0.001144
-0.001144
-0.001114
-0.001083
-0.001096
-0.001058
-0.001085
-0.001070
-0.001086
-0.001080
-0.001091
-0.001061
-0.001062
-0.001426
-0.001459
-0.001381
-0.001367
-0.001336
-0.001337
-0.001330
-0.001429
-0.001372
-0.001362
-0.001351
-0.001349
-0.001336
-0.001306
-0.001285
-0.001282
-0.001333
-0.001288
-0.001288
-0.001270
-0.001264
-0.001287
-0.001286
-0.001599
-0.001584
-0.001518
-0.001518
-0.001482
-0.001497
-0.001498
-0.001519
-0.001519
-0.001473
-0.001489
-0.001510
-0.001495
-0.001519
-0.001538
-0.001542
-0.001528
-0.001562
-0.001523
-0.001538
-0.001553
-0.001560
-0.001575
-0.001588
-0.001548
-0.001566
-0.001571
-0.001587
-0.001532
-0.001545
-0.001547
-0.001539
-0.001530
-0.001476
-0.001458
-0.000824
-0.000826
-0.000830
-0.000775
-0.000635
-0.000746
-0.000776
-0.000780
-0.000722
-0.001377
-0.001399
-0.001329
-0.001274
-0.001263
-0.001278
-0.001316
-0.001316
-0.001298
-0.001268
-0.001283
-0.001275
-0.001245
-0.001271
-0.001251
-0.001177
-0.001099
-0.001195
-0.001186
-0.001154
-0.001148
-0.001134
-0.001133
-0.001131
-0.001134
-0.001142
-0.001148
-0.001098
-0.001115
-0.001084
-0.001066
-0.001141
-0.001130
-0.001106
-0.001118
-0.001103
-0.001110
-0.001087
-0.001094
-0.001090
-0.001073
-0.001089
-0.001067
-0.001068
-0.001024
-0.001021
-0.001063
-0.000983
-0.000954
-0.000980
-0.000971
-0.000967
-0.000968
-0.001009
-0.000989
-0.000960
-0.000928
-0.000910
-0.000949
-0.000907
-0.000885
-0.000910
-0.000924
-0.000905
-0.000889
-0.001212
-0.001312
-0.001299
-0.001327
-0.001302
-0.001368
-0.001222
-0.001224
-0.001283
-0.001237
-0.001222
-0.001034
-0.000960
-0.000942
-0.000920
-0.000948
-0.000912
-0.000894
-0.000934
-0.000868
-0.000819
-0.000805
-0.000847
-0.000799
-0.000819
-0.000829
-0.000822
-0.000815
-0.000805
-0.000802
-0.000800
-0.000790
-0.000777
-0.000787
-0.000791
-0.000783
-0.000737
-0.000736
-0.000940
-0.000941
-0.000980
-0.000900
-0.000917
-0.000942
-0.000941
-0.000900
-0.000913
-0.000900
-0.000907
-0.000895
-0.000893
-0.000867
-0.000905
-0.000883
-0.000889
-0.000885
-0.000855
-0.000822
-0.000840
-0.000833
-0.000838
-0.000829
-0.000817
-0.000810
-0.000819
-0.000785
-0.000759
-0.000763
-0.000806
-0.000814
-0.000776
-0.000781
-0.000833
-0.000820
-0.000784
-0.000766
-0.000803
-0.000809
-0.000805
-0.000812
-0.000790
-0.000803
-0.000775
-0.000780
-0.000829
-0.000826
-0.000806
-0.000805
-0.000818
-0.000796
-0.000778
-0.000787
-0.000825
-0.000795
-0.000753
-0.000762
-0.000774
-0.000763
-0.000743
-0.000754
-0.000728
-0.000712
-0.000712
-0.000701
-0.000715
-0.000723
-0.000707
-0.000715
-0.000684
-0.000670
-0.000661
-0.000637
-0.000630
-0.000674
-0.000654
-0.000633
-0.000619
-0.000618
-0.000593
-0.000627
-0.000637
-0.000607
-0.000685
-0.000675
-0.000656
-0.000636
-0.000655
-0.000623
-0.000660
-0.000568
-0.000628
-0.000570
-0.000510
-0.000533
-0.000516
-0.000479
-0.000499
-0.000502
-0.000509
-0.000514
-0.000520
-0.000527
-0.000534
-0.000541
-0.000548
-0.000555
-0.000562
-0.000568
-0.000575
-0.000582
-0.000588
-0.000594
-0.000600
-0.000605
-0.000610
-0.000616
-0.000621
-0.000626
-0.000630
-0.000635
-0.000639
-0.000643
-0.000648
-0.000652
-0.000656
-0.000659
-0.000663
-0.000667
-0.000670
-0.000673
-0.000677
-0.000680
-0.000683
-0.000686
-0.000689
-0.000692
-0.000695
-0.000698
-0.000700
-0.000704
-0.000707
-0.000710
-0.000713
-0.000716
-0.000719
-0.000722
-0.000724
-0.000727
-0.000729
-0.000732
-0.000734
-0.000736
-0.000738
-0.000740
-0.000743
-0.000745
-0.000747
-0.000748
-0.000750
-0.000752
-0.000754
-0.000756
-0.000758
-0.000759
-0.000761
-0.000763
-0.000764
-0.000766
-0.000767
-0.000769
-0.000770
-0.000772
-0.000773
-0.000775
-0.000776
-0.000778
-0.000779
-0.000781
-0.000782
-0.000783
-0.000785
-0.000786
-0.000788
-0.000789
-0.000790
-0.000792
-0.000793
-0.000794
-0.000795
-0.000797
-0.000798
-0.000799
-0.000801
-0.000802
-0.000803
-0.000804
-0.000806
-0.000807
-0.000808
-0.000809
-0.000811
-0.000812
-0.000813
-0.000814
-0.000816
-0.000817
-0.000818
-0.000819
-0.000820
-0.000822
-0.000823
-0.000824
-0.000825
-0.000827
-0.000828
-0.000829
-0.000830
-0.000831
-0.000833
-0.000834
-0.000835
-0.000836
-0.000837
-0.000839
-0.000840
-0.000841
-0.000842
-0.000843
-0.000845
-0.000846
-0.000847
-0.000848
-0.000849
-0.000850
-0.000852
-0.000853
-0.000854
-0.000855
-0.000856
-0.000858
-0.000859
-0.000860
-0.000861
-0.000862
-0.000864
-0.000865
-0.000866
-0.000867
-0.000868
-0.000869
-0.000871
-0.000872
-0.000873
-0.000874
-0.000875
-0.000877
-0.000878
-0.000879
-0.000880
-0.000881
-0.000882
-0.000884
-0.000885
-0.000886
-0.000887
-0.000888
-0.000889
-0.000891
-0.000892
-0.000893
-0.000894
-0.000895
-0.000896
-0.000897
-0.000899
-0.000900
-0.000901
-0.000902
-0.000903
-0.000904
-0.000905
-0.000906
-0.000907
-0.000909
-0.000910
-0.000911
-0.000912
-0.000913
-0.000914
-0.000915
-0.000916
-0.000917
-0.000918
-0.000919
-0.000920
-0.000921
-0.000922
-0.000923
-0.000924
-0.000925
-0.000926
-0.000927
-0.000928
-0.000929
-0.000930
-0.000931
-0.000932
-0.000933
-0.000934
-0.000935
-0.000936
-0.000937
-0.000938
-0.000939
-0.000940
-0.000940
-0.000941
-0.000942
-0.000943
-0.000944
-0.000945
-0.000945
-0.000946
-0.000947
-0.000948
-0.000949
-0.000949
-0.000950
-0.000951
-0.000952
-0.000952
-0.000953
-0.000954
-0.000954
-0.000955
-0.000956
-0.000956
-0.000957
-0.000958
-0.000958
-0.000959
-0.000959
-0.000960
-0.000961
-0.000961
-0.000962
-0.000962
-0.000963
-0.000963
-0.000964
-0.000964
-0.000965
-0.000965
-0.000965
-0.000966
-0.000966
-0.000967
-0.000967
-0.000967
-0.000968
-0.000968
-0.000968
-0.000969
-0.000969
-0.000969
-0.000969
-0.000969
-0.000970
-0.000970
-0.000970
-0.000970
-0.000970
-0.000970
-0.000970
-0.000970
-0.000971
-0.000971
-0.000971
-0.000971
-0.000971
-0.000971
-0.000970
-0.000970
-0.000970
-0.000970
-0.000970
-0.000970
-0.000970
-0.000970
-0.000969
-0.000969
-0.000969
-0.000969
-0.000968
-0.000968
-0.000968
-0.000967
-0.000967
-0.000967
-0.000966
-0.000966
-0.000966
-0.000965
-0.000965
-0.000964
-0.000964
-0.000963
-0.000963
-0.000962
-0.000961
-0.000961
-0.000960
-0.000960
-0.000959
-0.000958
-0.000958
-0.000957
-0.000956
-0.000955
-0.000955
-0.000954
-0.000953
-0.000952
-0.000951
-0.000950
-0.000950
-0.000949
-0.000948
-0.000947
-0.000946
-0.000945
-0.000944
-0.000943
-0.000942
-0.000941
-0.000940
-0.000939
-0.000937
-0.000936
-0.000935
-0.000934
-0.000933
-0.000932
-0.000930
-0.000929
-0.000928
-0.000927
-0.000925
-0.000879
-0.000888
-0.000897
-0.000824
-0.000811
-0.000817
-0.005428
-0.005468
-0.005535
-0.005609
-0.003681
-0.000974
-0.000955
-0.000967
-0.000952
-0.000911
-0.000926
-0.000913
-0.003635
-0.003456
-0.004221
-0.003668
-0.005636
-0.005547
-0.004855
-0.004659
-0.004040
-0.003448
-0.003602
-0.002593
-0.002669
-0.002583
-0.002641
-0.004650
-0.004651
-0.004898
-0.004912
-0.002217
-0.002485
-0.002023
-0.002691
-0.004829
-0.004864
-0.004818
-0.004852
-0.001335
-0.001396
-0.001375
-0.001337
-0.005956
-0.005711
-0.004859
-0.002947
-0.002923
-0.002908
-0.002860
-0.003255
-0.003429
-0.003403
-0.003546
-0.003521
-0.003487
-0.003489
-0.005347
-0.005288
-0.005315
-0.003867
-0.003553
-0.003952
-0.003708
-0.001301
-0.001250
-0.001295
-0.001230
-0.004084
-0.004063
-0.004076
-0.004043
-0.002998
-0.003012
-0.003057
-0.002927
-0.002911
-0.002931
-0.003030
-0.002718
-0.004308
-0.004351
-0.004365
-0.004400
-0.000925
-0.000945
-0.000942
-0.005035
-0.005081
-0.005007
-0.003509
-0.000980
-0.001007
-0.000985
-0.000986
-0.002235
-0.002079
-0.002265
-0.003867
-0.003891
-0.003917
-0.001916
-0.003163
-0.003171
-0.003194
-0.003828
-0.002148
-0.002188
-0.002208
-0.001039
-0.001039
-0.001070
-0.001051
-0.001427
-0.001348
-0.001829
-0.001503
-0.002223
-0.005768
-0.005975
-0.005823
-0.001003
-0.001001
-0.000985
-0.006005
-0.005361
-0.005501
-0.005477
-0.005377
-0.005322
-0.005329
-0.005376
-0.005362
-0.004722
-0.004777
-0.004715
-0.003558
-0.003552
-0.003576
-0.003571
-0.004762
-0.002325
-0.002289
-0.002416
-0.005171
-0.005195
-0.005075
-0.005440
-0.005459
-0.005470
-0.002354
-0.001036
-0.001052
-0.001061
-0.004956
-0.004269
-0.004262
-0.000936
-0.000913
-0.000926
-0.000917
-0.001877
-0.001896
-0.001898
-0.001926
-0.003762
-0.003838
-0.003797
-0.003840
-0.002300
-0.002228
-0.002318
-0.002204
-0.005907
-0.005911
-0.005954
-0.005852
-0.000974
-0.000975
-0.006764
-0.006745
-0.006734
-0.006709
-0.005072
-0.005115
-0.004997
-0.005242
-0.000986
-0.000971
-0.000965
-0.005259
-0.005087
-0.006124
-0.006141
-0.006105
-0.001040
-0.001069
-0.001068
-0.002738
-0.002724
-0.002617
-0.002572
-0.003949
-0.003968
-0.003958
-0.006426
-0.006441
-0.006529
-0.006503
-0.001011
-0.001015
-0.000985
-0.001045
-0.001011
-0.000986
-0.000990
-0.001093
-0.001903
-0.001907
-0.001937
-0.001930
-0.004139
-0.003953
-0.003945
-0.004133
-0.004356
-0.004328
-0.004413
-0.001019
-0.001044
-0.001060
-0.001082
-0.004679
-0.004631
-0.004711
-0.004633
-0.001672
-0.001799
-0.001915
-0.003247
-0.003095
-0.002977
-0.003276
-0.006397
-0.006412
-0.006384
-0.006434
-0.000984
-0.000983
-0.002553
-0.001908
-0.001700
-0.001602
-0.003789
-0.003786
-0.003739
-0.003751
-0.005146
-0.005240
-0.005137
-0.005258
-0.004790
-0.004876
-0.004918
-0.004720
-0.004170
-0.004109
-0.004198
-0.004184
-0.005451
-0.005462
-0.005407
-0.005413
-0.001056
-0.001020
-0.001026
-0.001031
-0.004531
-0.004090
-0.004076
-0.006720
-0.006794
-0.006757
-0.006701
-0.004499
-0.005029
-0.004879
-0.003294
-0.002949
-0.004975
-0.004939
-0.004988
-0.004932
-0.001922
-0.002025
-0.002012
-0.002117
-0.003332
-0.003087
-0.003230
-0.003077
-0.001543
-0.001584
-0.001614
-0.001666
-0.001217
-0.001311
-0.001226
-0.001288
-0.005297
-0.005278
-0.005310
-0.005300
-0.004932
-0.004792
-0.004827
-0.004938
-0.001306
-0.001265
-0.001336
-0.001238
-0.001374
-0.001327
-0.001243
-0.004031
-0.003894
-0.003679
-0.004167
-0.001081
-0.001106
-0.001052
-0.000962
-0.004453
-0.004494
-0.004511
-0.004437
-0.000944
-0.000957
-0.000969
-0.000983
-0.003274
-0.003222
-0.003300
-0.003245
-0.002177
-0.002079
-0.004289
-0.004267
-0.004263
-0.004245
-0.003660
-0.003715
-0.003633
-0.003749
-0.003378
-0.002727
-0.003146
-0.000986
-0.001008
-0.000992
-0.005916
-0.005919
-0.005894
-0.005886
-0.002337
-0.005377
-0.005315
-0.005322
-0.001154
-0.001095
-0.001104
-0.001063
-0.000899
-0.000900
-0.000916
-0.000916
-0.002191
-0.002197
-0.002234
-0.002142
-0.002564
-0.002621
-0.002614
-0.002589
-0.002539
-0.002469
-0.001870
-0.001929
-0.001919
-0.003698
-0.003515
-0.003423
-0.002927
-0.002883
-0.002701
-0.003018
-0.001644
-0.001662
-0.001724
-0.001731
-0.001710
-0.001706
-0.001729
-0.001029
-0.001047
-0.001058
-0.004896
-0.004773
-0.001023
-0.000839
-0.000861
-0.000857
-0.000879
-0.004078
-0.004095
-0.004437
-0.001149
-0.003120
-0.003112
-0.003143
-0.003139
-0.006221
-0.006181
-0.006180
-0.006146
-0.002291
-0.002566
-0.002616
-0.002192
-0.005545
-0.005513
-0.005557
-0.005523
-0.005457
-0.005550
-0.005429
-0.005538
-0.000845
-0.000821
-0.000792
-0.005641
-0.005632
-0.005675
-0.002631
-0.002589
-0.002649
-0.002636
-0.000926
-0.000817
-0.000820
-0.000789