# vtk DataFile Version 2.0
Test
ASCII
DATASET POLYDATA
POINTS 20431 float
0.000000 0.000000 0.000000
2.000000 0.000000 0.000000
2.000000 4.000000 0.000000
0.000000 4.000000 0.000000
0.000000 0.500000 0.000000
1.500000 2.000000 0.000000
2.000000 2.500000 0.000000
0.400000 0.000000 0.000000
0.800000 0.000000 0.000000
1.200000 0.000000 0.000000
1.600000 0.000000 0.000000
2.000000 0.362557 0.000000
2.000000 0.672798 0.000000
2.000000 0.938272 0.000000
2.000000 1.165439 0.000000
2.000000 1.359826 0.000000
2.000000 1.526163 0.000000
2.000000 1.668499 0.000000
2.000000 1.790295 0.000000
2.000000 1.894517 0.000000
2.000000 1.983700 0.000000
2.000000 2.060013 0.000000
2.000000 2.125315 0.000000
2.000000 2.181194 0.000000
2.000000 2.229010 0.000000
2.000000 2.269926 0.000000
2.000000 2.304938 0.000000
2.000000 2.334898 0.000000
2.000000 2.360534 0.000000
2.000000 2.382472 0.000000
2.000000 2.401244 0.000000
2.000000 2.417307 0.000000
2.000000 2.431052 0.000000
2.000000 2.442814 0.000000
2.000000 2.452878 0.000000
2.000000 2.461491 0.000000
2.000000 2.468860 0.000000
2.000000 2.475167 0.000000
2.000000 2.480563 0.000000
2.000000 2.485180 0.000000
2.000000 2.489132 0.000000
2.000000 2.492513 0.000000
2.000000 2.495406 0.000000
2.000000 2.497882 0.000000
2.000000 2.502286 0.000000
2.000000 2.505266 0.000000
2.000000 2.509150 0.000000
2.000000 2.514212 0.000000
2.000000 2.520809 0.000000
2.000000 2.529407 0.000000
2.000000 2.540613 0.000000
2.000000 2.555218 0.000000
2.000000 2.574253 0.000000
2.000000 2.599061 0.000000
2.000000 2.631395 0.000000
2.000000 2.673536 0.000000
2.000000 2.728460 0.000000
2.000000 2.800043 0.000000
2.000000 2.893339 0.000000
2.000000 3.014933 0.000000
2.000000 3.173410 0.000000
2.000000 3.379956 0.000000
2.000000 3.649152 0.000000
1.600000 4.000000 0.000000
1.200000 4.000000 0.000000
0.800000 4.000000 0.000000
0.400000 4.000000 0.000000
0.000000 3.624996 0.000000
0.000000 3.289970 0.000000
0.000000 2.990661 0.000000
0.000000 2.723261 0.000000
0.000000 2.484368 0.000000
0.000000 2.270943 0.000000
0.000000 2.080271 0.000000
0.000000 1.909926 0.000000
0.000000 1.757741 0.000000
0.000000 1.621780 0.000000
0.000000 1.500314 0.000000
0.000000 1.391797 0.000000
0.000000 1.294849 0.000000
0.000000 1.208237 0.000000
0.000000 1.130858 0.000000
0.000000 1.061728 0.000000
0.000000 0.999968 0.000000
0.000000 0.944792 0.000000
0.000000 0.895499 0.000000
0.000000 0.851460 0.000000
0.000000 0.812117 0.000000
0.000000 0.776968 0.000000
0.000000 0.745565 0.000000
0.000000 0.717511 0.000000
0.000000 0.692448 0.000000
0.000000 0.670056 0.000000
0.000000 0.650052 0.000000
0.000000 0.632180 0.000000
0.000000 0.616213 0.000000
0.000000 0.601949 0.000000
0.000000 0.589205 0.000000
0.000000 0.577820 0.000000
0.000000 0.567649 0.000000
0.000000 0.558562 0.000000
0.000000 0.550444 0.000000
0.000000 0.543191 0.000000
0.000000 0.536712 0.000000
0.000000 0.530923 0.000000
0.000000 0.525751 0.000000
0.000000 0.521131 0.000000
0.000000 0.517003 0.000000
0.000000 0.513315 0.000000
0.000000 0.510021 0.000000
0.000000 0.507078 0.000000
0.000000 0.504448 0.000000
0.000000 0.502099 0.000000
0.000000 0.497804 0.000000
0.000000 0.494785 0.000000
0.000000 0.490633 0.000000
0.000000 0.484924 0.000000
0.000000 0.477074 0.000000
0.000000 0.466279 0.000000
0.000000 0.451436 0.000000
0.000000 0.431025 0.000000
0.000000 0.402959 0.000000
0.000000 0.364366 0.000000
0.000000 0.311297 0.000000
0.000000 0.238324 0.000000
0.000000 0.137980 0.000000
0.001414 0.501414 0.000000
0.002828 0.502828 0.000000
0.004241 0.504241 0.000000
0.005655 0.505655 0.000000
0.007069 0.507069 0.000000
0.008483 0.508483 0.000000
0.009896 0.509896 0.000000
0.011310 0.511310 0.000000
0.012724 0.512724 0.000000
0.014138 0.514138 0.000000
0.015551 0.515551 0.000000
0.016965 0.516965 0.000000
0.018379 0.518379 0.000000
0.019793 0.519793 0.000000
0.021206 0.521206 0.000000
0.022620 0.522620 0.000000
0.024034 0.524034 0.000000
0.025448 0.525448 0.000000
0.026861 0.526861 0.000000
0.028275 0.528275 0.000000
0.029689 0.529689 0.000000
0.031103 0.531103 0.000000
0.032516 0.532516 0.000000
0.033930 0.533930 0.000000
0.035344 0.535344 0.000000
0.036758 0.536758 0.000000
0.038172 0.538172 0.000000
0.039585 0.539585 0.000000
0.040999 0.540999 0.000000
0.042413 0.542413 0.000000
0.043827 0.543827 0.000000
0.045240 0.545240 0.000000
0.046654 0.546654 0.000000
0.048068 0.548068 0.000000
0.049482 0.549482 0.000000
0.050895 0.550895 0.000000
0.052309 0.552309 0.000000
0.053723 0.553723 0.000000
0.055137 0.555137 0.000000
0.056550 0.556550 0.000000
0.057964 0.557964 0.000000
0.059378 0.559378 0.000000
0.060792 0.560792 0.000000
0.062205 0.562205 0.000000
0.063619 0.563619 0.000000
0.065033 0.565033 0.000000
0.066447 0.566447 0.000000
0.067861 0.567861 0.000000
0.069274 0.569274 0.000000
0.070688 0.570688 0.000000
0.072102 0.572102 0.000000
0.073516 0.573516 0.000000
0.074929 0.574929 0.000000
0.076343 0.576343 0.000000
0.077757 0.577757 0.000000
0.079171 0.579171 0.000000
0.080584 0.580584 0.000000
0.081998 0.581998 0.000000
0.083412 0.583412 0.000000
0.084826 0.584826 0.000000
0.086239 0.586239 0.000000
0.087653 0.587653 0.000000
0.089067 0.589067 0.000000
0.090481 0.590481 0.000000
0.091894 0.591894 0.000000
0.093308 0.593308 0.000000
0.094722 0.594722 0.000000
0.096136 0.596136 0.000000
0.097549 0.597549 0.000000
0.098963 0.598963 0.000000
0.100377 0.600377 0.000000
0.101791 0.601791 0.000000
0.103205 0.603205 0.000000
0.104618 0.604618 0.000000
0.106032 0.606032 0.000000
0.107446 0.607446 0.000000
0.108860 0.608860 0.000000
0.110273 0.610273 0.000000
0.111687 0.611687 0.000000
0.113101 0.613101 0.000000
0.114515 0.614515 0.000000
0.115928 0.615928 0.000000
0.117342 0.617342 0.000000
0.118756 0.618756 0.000000
0.120170 0.620170 0.000000
0.121583 0.621583 0.000000
0.122997 0.622997 0.000000
0.124411 0.624411 0.000000
0.125825 0.625825 0.000000
0.127238 0.627238 0.000000
0.128652 0.628652 0.000000
0.130066 0.630066 0.000000
0.131480 0.631480 0.000000
0.132893 0.632893 0.000000
0.134307 0.634307 0.000000
0.135721 0.635721 0.000000
0.137135 0.637135 0.000000
0.138549 0.638549 0.000000
0.139962 0.639962 0.000000
0.141376 0.641376 0.000000
0.142790 0.642790 0.000000
0.144204 0.644204 0.000000
0.145617 0.645617 0.000000
0.147031 0.647031 0.000000
0.148445 0.648445 0.000000
0.149859 0.649859 0.000000
0.151272 0.651272 0.000000
0.152686 0.652686 0.000000
0.154100 0.654100 0.000000
0.155514 0.655514 0.000000
0.156927 0.656927 0.000000
0.158341 0.658341 0.000000
0.159755 0.659755 0.000000
0.161169 0.661169 0.000000
0.162582 0.662582 0.000000
0.163996 0.663996 0.000000
0.165410 0.665410 0.000000
0.166824 0.666824 0.000000
0.168238 0.668238 0.000000
0.169651 0.669651 0.000000
0.171065 0.671065 0.000000
0.172479 0.672479 0.000000
0.173893 0.673893 0.000000
0.175306 0.675306 0.000000
0.176720 0.676720 0.000000
0.178134 0.678134 0.000000
0.179548 0.679548 0.000000
0.180961 0.680961 0.000000
0.182375 0.682375 0.000000
0.183789 0.683789 0.000000
0.185203 0.685203 0.000000
0.186616 0.686616 0.000000
0.188030 0.688030 0.000000
0.189444 0.689444 0.000000
0.190858 0.690858 0.000000
0.192271 0.692271 0.000000
0.193685 0.693685 0.000000
0.195099 0.695099 0.000000
0.196513 0.696513 0.000000
0.197926 0.697926 0.000000
0.199340 0.699340 0.000000
0.200754 0.700754 0.000000
0.202168 0.702168 0.000000
0.203582 0.703582 0.000000
0.204995 0.704995 0.000000
0.206409 0.706409 0.000000
0.207823 0.707823 0.000000
0.209237 0.709237 0.000000
0.210650 0.710650 0.000000
0.212064 0.712064 0.000000
0.213478 0.713478 0.000000
0.214892 0.714892 0.000000
0.216305 0.716305 0.000000
0.217719 0.717719 0.000000
0.219133 0.719133 0.000000
0.220547 0.720547 0.000000
0.221960 0.721960 0.000000
0.223374 0.723374 0.000000
0.224788 0.724788 0.000000
0.226202 0.726202 0.000000
0.227615 0.727615 0.000000
0.229029 0.729029 0.000000
0.230443 0.730443 0.000000
0.231857 0.731857 0.000000
0.233270 0.733270 0.000000
0.234684 0.734684 0.000000
0.236098 0.736098 0.000000
0.237512 0.737512 0.000000
0.238926 0.738926 0.000000
0.240339 0.740339 0.000000
0.241753 0.741753 0.000000
0.243167 0.743167 0.000000
0.244581 0.744581 0.000000
0.245994 0.745994 0.000000
0.247408 0.747408 0.000000
0.248822 0.748822 0.000000
0.250236 0.750236 0.000000
0.251649 0.751649 0.000000
0.253063 0.753063 0.000000
0.254477 0.754477 0.000000
0.255891 0.755891 0.000000
0.257304 0.757304 0.000000
0.258718 0.758718 0.000000
0.260132 0.760132 0.000000
0.261546 0.761546 0.000000
0.262959 0.762959 0.000000
0.264373 0.764373 0.000000
0.265787 0.765787 0.000000
0.267201 0.767201 0.000000
0.268615 0.768615 0.000000
0.270028 0.770028 0.000000
0.271442 0.771442 0.000000
0.272856 0.772856 0.000000
0.274270 0.774270 0.000000
0.275683 0.775683 0.000000
0.277097 0.777097 0.000000
0.278511 0.778511 0.000000
0.279925 0.779925 0.000000
0.281338 0.781338 0.000000
0.282752 0.782752 0.000000
0.284166 0.784166 0.000000
0.285580 0.785580 0.000000
0.286993 0.786993 0.000000
0.288407 0.788407 0.000000
0.289821 0.789821 0.000000
0.291235 0.791235 0.000000
0.292648 0.792648 0.000000
0.294062 0.794062 0.000000
0.295476 0.795476 0.000000
0.296890 0.796890 0.000000
0.298303 0.798303 0.000000
0.299717 0.799717 0.000000
0.301131 0.801131 0.000000
0.302545 0.802545 0.000000
0.303959 0.803959 0.000000
0.305372 0.805372 0.000000
0.306786 0.806786 0.000000
0.308200 0.808200 0.000000
0.309614 0.809614 0.000000
0.311027 0.811027 0.000000
0.312441 0.812441 0.000000
0.313855 0.813855 0.000000
0.315269 0.815269 0.000000
0.316682 0.816682 0.000000
0.318096 0.818096 0.000000
0.319510 0.819510 0.000000
0.320924 0.820924 0.000000
0.322337 0.822337 0.000000
0.323751 0.823751 0.000000
0.325165 0.825165 0.000000
0.326579 0.826579 0.000000
0.327992 0.827992 0.000000
0.329406 0.829406 0.000000
0.330820 0.830820 0.000000
0.332234 0.832234 0.000000
0.333648 0.833648 0.000000
0.335061 0.835061 0.000000
0.336475 0.836475 0.000000
0.337889 0.837889 0.000000
0.339303 0.839303 0.000000
0.340716 0.840716 0.000000
[...]
POINT_DATA 20431
SCALARS UX float 1
LOOKUP_TABLE default
-0.000000
0.000000
0.042024
-0.043834
-0.034279
0.021163
0.042311
-0.000000
-0.000000
0.000000
-0.000000
0.028660
0.037526
0.040976
0.042235
0.042687
0.042816
0.042801
0.042750
0.042689
0.042629
0.042578
0.042534
0.042497
0.042466
0.042440
0.042418
0.042400
0.042386
0.042373
0.042363
0.042354
0.042347
0.042340
0.042335
0.042331
0.042327
0.042323
0.042321
0.042318
0.042316
0.042315
0.042313
0.042312
0.042310
0.042308
0.042306
0.042304
0.042301
0.042297
0.042291
0.042284
0.042276
0.042265
0.042250
0.042233
0.042212
0.042187
0.042157
0.042126
0.042093
0.042059
0.042035
0.024838
0.007659
-0.009511
-0.026673
-0.043833
-0.043833
-0.043841
-0.043862
-0.043901
-0.043949
-0.044000
-0.044041
-0.044051
-0.044018
-0.043941
-0.043809
-0.043611
-0.043355
-0.043045
-0.042689
-0.042293
-0.041866
-0.041419
-0.040958
-0.040494
-0.040030
-0.039578
-0.039133
-0.038709
-0.038305
-0.037920
-0.037560
-0.037222
-0.036909
-0.036619
-0.036350
-0.036104
-0.035878
-0.035672
-0.035484
-0.035312
-0.035156
-0.035015
-0.034887
-0.034772
-0.034667
-0.034572
-0.034487
-0.034411
-0.034342
-0.034214
-0.034123
-0.033997
-0.033822
-0.033576
-0.033231
-0.032728
-0.032007
-0.030943
-0.029284
-0.026719
-0.022664
-0.015493
-0.034267
-0.034255
-0.034242
-0.034229
-0.034216
-0.034203
-0.034189
-0.034175
-0.034161
-0.034146
-0.034132
-0.034117
-0.034102
-0.034087
-0.034071
-0.034055
-0.034039
-0.034023
-0.034007
-0.033990
-0.033973
-0.033956
-0.033939
-0.033921
-0.033904
-0.033886
-0.033868
-0.033850
-0.033831
-0.033812
-0.033794
-0.033775
-0.033755
-0.033736
-0.033717
-0.033697
-0.033677
-0.033657
-0.033637
-0.033616
-0.033596
-0.033575
-0.033554
-0.033533
-0.033512
-0.033491
-0.033469
-0.033448
-0.033426
-0.033404
-0.033381
-0.033359
-0.033337
-0.033314
-0.033291
-0.033268
-0.033245
-0.033222
-0.033199
-0.033175
-0.033152
-0.033128
-0.033104
-0.033080
-0.033056
-0.033032
-0.033008
-0.032983
-0.032959
-0.032934
-0.032909
-0.032884
-0.032859
-0.032834
-0.032808
-0.032783
-0.032757
-0.032731
-0.032705
-0.032679
-0.032653
-0.032626
-0.032600
-0.032573
-0.032547
-0.032520
-0.032493
-0.032465
-0.032438
-0.032411
-0.032383
-0.032356
-0.032328
-0.032300
-0.032272
-0.032244
-0.032216
-0.032188
-0.032159
-0.032130
-0.032102
-0.032073
-0.032044
-0.032015
-0.031985
-0.031956
-0.031927
-0.031897
-0.031867
-0.031837
-0.031807
-0.031777
-0.031747
-0.031717
-0.031686
-0.031656
-0.031625
-0.031594
-0.031563
-0.031532
-0.031500
-0.031469
-0.031438
-0.031406
-0.031374
-0.031342
-0.031310
-0.031278
-0.031246
-0.031214
-0.031181
-0.031149
-0.031116
-0.031083
-0.031050
-0.031017
-0.030984
-0.030951
-0.030917
-0.030884
-0.030850
-0.030817
-0.030783
-0.030749
-0.030715
-0.030680
-0.030646
-0.030612
-0.030577
-0.030542
-0.030508
-0.030473
-0.030438
-0.030402
-0.030367
-0.030332
-0.030296
-0.030261
-0.030225
-0.030189
-0.030153
-0.030117
-0.030081
-0.030045
-0.030008
-0.029972
-0.029935
-0.029898
-0.029862
-0.029825
-0.029788
-0.029750
-0.029713
-0.029676
-0.029638
-0.029601
-0.029563
-0.029525
-0.029488
-0.029450
-0.029411
-0.029373
-0.029335
-0.029297
-0.029258
-0.029220
-0.029181
-0.029142
-0.029103
-0.029064
-0.029025
-0.028986
-0.028947
-0.028908
-0.028868
-0.028829
-0.028789
-0.028749
-0.028709
-0.028669
-0.028629
-0.028589
-0.028549
-0.028509
-0.028468
-0.028428
-0.028387
-0.028346
-0.028306
-0.028265
-0.028224
-0.028183
-0.028141
-0.028100
-0.028059
-0.028017
-0.027976
-0.027934
-0.027892
-0.027851
-0.027809
-0.027767
-0.027725
-0.027682
-0.027640
-0.027598
-0.027555
-0.027513
-0.027470
-0.027428
-0.027385
-0.027342
-0.027299
-0.027256
-0.027213
-0.027170
-0.027126
-0.027083
-0.027039
-0.026996
-0.026952
-0.026908
-0.026865
-0.026821
-0.026777
-0.026733
-0.026689
-0.026644
-0.026600
-0.026556
-0.026511
-0.026467
-0.026422
-0.026377
-0.026332
-0.026288
-0.026243
-0.026198
-0.026152
-0.026107
-0.026062
-0.026016
-0.025971
-0.025926
-0.025880
-0.025834
-0.025788
-0.025743
-0.025697
-0.025651
-0.025605
-0.025558
-0.025512
-0.025466
-0.025419
-0.025373
-0.025326
-0.025280
-0.025233
-0.025186
-0.025139
-0.025092
-0.025045
-0.024998
-0.024951
-0.024904
-0.024857
-0.024809
-0.024762
-0.024714
-0.024667
-0.024619
-0.024571
-0.024523
-0.024475
-0.024427
-0.024379
-0.024331
-0.024283
-0.024235
-0.024186
-0.024138
-0.024090
-0.024041
-0.023992
-0.023944
-0.023895
-0.023846
-0.023797
-0.023748
-0.023699
-0.023650
-0.023601
-0.023552
-0.023502
-0.023453
-0.023403
-0.023354
-0.023304
-0.023255
-0.023205
-0.023155
-0.023105
-0.023055
-0.023005
-0.022955
-0.022905
-0.022855
-0.022805
-0.022754
-0.022704
-0.022654
-0.022603
-0.022553
-0.022502
-0.022451
-0.022400
-0.022350
-0.022299
-0.022248
-0.022197
-0.022146
-0.022095
-0.022043
-0.021992
-0.021941
-0.021889
-0.021838
-0.021786
-0.021735
-0.021683
-0.021631
-0.021580
-0.021528
-0.021476
-0.021424
-0.021372
-0.021320
-0.021268
-0.021216
-0.021163
-0.021111
-0.021059
-0.021006
-0.020954
-0.020901
-0.020848
-0.020796
-0.020743
-0.020690
-0.020637
-0.020585
-0.020532
-0.020479
-0.020425
-0.020372
-0.020319
-0.020266
-0.020213
-0.020159
-0.020106
-0.020052
-0.019999
-0.019945
-0.019891
-0.019838
-0.019784
-0.019730
-0.019676
-0.019622
-0.019568
-0.019514
-0.019460
-0.019406
-0.019352
-0.019298
-0.019243
-0.019189
-0.019135
-0.019080
-0.019026
-0.018971
-0.018916
-0.018862
-0.018807
-0.018752
-0.018697
-0.018642
-0.018587
-0.018532
-0.018477
-0.018422
-0.018367
-0.018312
-0.018257
-0.018201
-0.018146
-0.018090
-0.018035
-0.017979
-0.017924
-0.017868
-0.017812
-0.017757
-0.017701
-0.017645
-0.017589
-0.017533
-0.017477
-0.017421
-0.017365
-0.017309
-0.017253
-0.017197
-0.017140
-0.017084
-0.017028
-0.016971
-0.016915
-0.016858
-0.016802
-0.016745
-0.016689
-0.016632
-0.016575
-0.016518
-0.016462
-0.016405
-0.016348
-0.016291
-0.016234
-0.016177
-0.016120
-0.016062
-0.016005
-0.015948
-0.015891
-0.015833
-0.015776
-0.015719
-0.015661
-0.015604
-0.015546
-0.015489
-0.015431
-0.015373
-0.015316
-0.015258
-0.015200
-0.015142
-0.015084
-0.015027
-0.014969
-0.014911
-0.014853
-0.014794
-0.014736
-0.014678
-0.014620
-0.014562
-0.014503
-0.014445
-0.014387
-0.014328
-0.014270
-0.014212
-0.014153
-0.014095
-0.014036
-0.013977
-0.013919
-0.013860
-0.013801
-0.013742
-0.013684
-0.013625
-0.013566
-0.013507
-0.013448
-0.013389
-0.013330
-0.013271
-0.013212
-0.013153
-0.013094
-0.013034
-0.012975
-0.012916
-0.012857
-0.012797
-0.012738
-0.012678
-0.012619
-0.012559
-0.012500
-0.012440
-0.012381
-0.012321
-0.012262
-0.012202
-0.012142
-0.012082
-0.012023
-0.011963
-0.011903
-0.011843
-0.011783
-0.011723
-0.011663
-0.011603
-0.011543
-0.011483
-0.011423
-0.011363
-0.011303
-0.011243
-0.011183
-0.011122
-0.011062
-0.011002
-0.010942
-0.010881
-0.010821
-0.010760
-0.010700
-0.010640
-0.010579
-0.010519
-0.010458
-0.010398
-0.010337
-0.010276
-0.010216
-0.010155
-0.010094
-0.010034
-0.009973
-0.009912
-0.009851
-0.009790
-0.009730
-0.009669
-0.009608
-0.009547
-0.009486
-0.009425
-0.009364
-0.009303
-0.009242
-0.009181
-0.009120
-0.009059
-0.008998
-0.008936
-0.008875
-0.008814
-0.008753
-0.008692
-0.008630
-0.008569
-0.008508
-0.008446
-0.008385
-0.008324
-0.008262
-0.008201
-0.008140
-0.008078
-0.008017
-0.007955
-0.007894
-0.007832
-0.007771
-0.007709
-0.007647
-0.007586
-0.007524
-0.007463
-0.007401
-0.007339
-0.007278
-0.007216
-0.007154
-0.007092
-0.007031
-0.006969
-0.006907
-0.006845
-0.006784
-0.006722
-0.006660
-0.006598
-0.006536
-0.006474
-0.006412
-0.006350
-0.006288
-0.006226
-0.006165
-0.006103
-0.006041
-0.005979
-0.005916
-0.005854
-0.005792
-0.005730
-0.005668
-0.005606
-0.005544
-0.005482
-0.005420
-0.005358
-0.005295
-0.005233
-0.005171
-0.005109
-0.005047
-0.004985
-0.004922
-0.004860
-0.004798
-0.004736
-0.004673
-0.004611
-0.004549
-0.004486
-0.004424
-0.004362
-0.004299
-0.004237
-0.004175
-0.004112
-0.004050
-0.003988
-0.003925
-0.003863
-0.003800
-0.003738
-0.003676
-0.003613
-0.003551
-0.003488
-0.003426
-0.003363
-0.003301
-0.003238
-0.003176
-0.003113
-0.003051
-0.002988
-0.002926
-0.002863
-0.002801
-0.002738
-0.002676
-0.002613
-0.002551
-0.002488
-0.002425
-0.002363
-0.002300
-0.002238
-0.002175
-0.002113
-0.002050
-0.001987
-0.001925
-0.001862
-0.001800
-0.001737
-0.001674
-0.001612
-0.001549
-0.001486
-0.001424
-0.001361
-0.001298
-0.001236
-0.001173
-0.001110
-0.001048
-0.000985
-0.000922
-0.000860
-0.000797
-0.000734
-0.000672
-0.000609
-0.000546
-0.000484
-0.000421
-0.000358
-0.000296
-0.000233
-0.000170
-0.000108
-0.000045
0.000018
0.000080
0.000143
0.000206
0.000268
0.000331
0.000394
0.000457
0.000519
0.000582
0.000645
0.000707
0.000770
0.000833
0.000895
0.000958
0.001021
0.001084
0.001146
0.001209
0.001272
0.001334
0.001397
0.001460
0.001522
0.001585
0.001648
0.001710
0.001773
0.001836
0.001898
0.001961
0.002024
0.002086
0.002149
0.002212
0.002274
0.002337
0.002400
0.002462
0.002525
0.002588
0.002650
0.002713
0.002775
0.002838
0.002901
0.002963
0.003026
0.003089
0.003151
0.003214
0.003276
0.003339
0.003402
0.003464
0.003527
0.003589
0.003652
0.003715
0.003777
0.003840
0.003902
0.003965
0.004027
0.004090
0.004152
0.004215
0.004277
0.004340
0.004402
0.004465
0.004527
0.004590
0.004652
0.004715
0.004777
0.004840
0.004902
0.004965
0.005027
0.005090
0.005152
0.005215
0.005277
0.005340
0.005402
0.005464
0.005527
0.005589
0.005652
0.005714
0.005776
0.005839
0.005901
0.005963
0.006026
0.006088
0.006151
0.006213
0.006275
0.006338
0.006400
0.006462
0.006524
0.006587
0.006649
0.006711
0.006774
0.006836
0.006898
0.006960
0.007023
0.007085
0.007147
0.007209
0.007272
0.007334
0.007396
0.007458
0.007520
0.007582
0.007645
0.007707
0.007769
0.007831
0.007893
0.007955
0.008017
0.008080
0.008142
0.008204
0.008266
0.008328
0.008390
0.008452
0.008514
0.008576
0.008638
0.008700
0.008762
0.008824
0.008886
0.008948
0.009010
0.009072
0.009134
0.009196
0.009258
0.009320
0.009382
0.009444
0.009506
0.009568
0.009630
0.009691
0.009753
0.009815
0.009877
0.009939
0.010001
0.010063
0.010124
0.010186
0.010248
0.010310
0.010372
0.010433
0.010495
0.010557
0.010619
0.010680
0.010742
0.010804
0.010866
0.010927
0.010989
0.011051
0.011112
0.011174
0.011236
0.011297
0.011359
0.011420
0.011482
0.011544
0.011605
0.011667
0.011728
0.011790
0.011852
0.011913
0.011975
0.012036
0.012098
0.012159
0.012221
0.012282
0.012344
0.012405
0.012467
0.012528
0.012590
0.012651
0.012712
0.012774
0.012835
0.012897
0.012958
0.013019
0.013081
0.013142
0.013203
0.013265
0.013326
0.013387
0.013449
0.013510
0.013571
0.013633
0.013694
0.013755
0.013816
0.013878
0.013939
0.014000
0.014061
0.014123
0.014184
0.014245
0.014306
0.014367
0.014428
0.014490
0.014551
0.014612
0.014673
0.014734
0.014795
0.014856
0.014917
0.014978
0.015040
0.015101
0.015162
0.015223
0.015284
0.015345
0.015406
0.015467
0.015528
0.015589
0.015650
0.015711
0.015772
0.015833
0.015894
0.015954
0.016015
0.016076
0.016137
0.016198
0.016259
0.016320
0.016381
0.016442
0.016502
0.016563
0.016624
0.016685
0.016746
0.016806
0.016867
0.016928
0.016989
0.017050
0.017110
0.017171
0.017232
0.017293
0.017353
0.017414
0.017475
0.017535
0.017596
0.017657
0.017717
0.017778
0.017839
0.017899
0.017960
0.018021
0.018081
0.018142
0.018203
0.018263
0.018324
0.018384
0.018445
0.018505
0.018566
0.018627
0.018687
0.018748
0.018808
0.018869
0.018929
0.018990
0.019050
0.019111
0.019171
0.019232
0.019292
0.019353
0.019413
0.019473
0.019534
0.019594
0.019655
0.019715
0.019776
0.019836
0.019896
0.019957
0.020017
0.020077
0.020138
0.020198
0.020259
0.020319
0.020379
0.020440
0.020500
0.020560
0.020620
0.020681
0.020741
0.020801
0.020862
0.020922
0.020982
0.021042
0.021103
0.021223
0.021283
0.021343
0.021404
0.021464
0.021524
0.021584
0.021644
0.021704
0.021764
0.021824
0.021885
0.021945
0.022005
0.022065
0.022125
0.022185
0.022245
0.022305
0.022365
0.022425
0.022485
0.022545
0.022605
0.022665
0.022725
0.022785
0.022846
0.022906
0.022966
0.023026
0.023086
0.023145
0.023205
0.023265
0.023325
0.023385
0.023445
0.023505
0.023565
0.023625
0.023685
0.023745
0.023805
0.023865
0.023925
0.023985
0.024045
0.024105
0.024164
0.024224
0.024284
0.024344
0.024404
0.024464
0.024524
0.024584
0.024643
0.024703
0.024763
0.024823
0.024883
0.024943
0.025003
0.025062
0.025122
0.025182
0.025242
0.025302
0.025361
0.025421
0.025481
0.025541
0.025601
0.025660
0.025720
0.025780
0.025840
0.025900
0.025959
0.026019
0.026079
0.026139
0.026198
0.026258
0.026318
0.026378
0.026437
0.026497
0.026557
0.026617
0.026676
0.026736
0.026796
0.026855
0.026915
0.026975
0.027035
0.027094
0.027154
0.027214
0.027273
0.027333
0.027393
0.027452
0.027512
0.027572
0.027632
0.027691
0.027751
0.027811
0.027870
0.027930
0.027990
0.028049
0.028109
0.028169
0.028228
0.028288
0.028348
0.028407
0.028467
0.028526
0.028586
0.028646
0.028705
0.028765
0.028825
0.028884
0.028944
0.029004
0.029063
0.029123
0.029182
0.029242
0.029302
0.029361
0.029421
0.029481
0.029540
0.029600
0.029659
0.029719
0.029779
0.029838
0.029898
0.029957
0.030017
0.030077
0.030136
0.030196
0.030255
0.030315
0.030375
0.030434
0.030494
0.030553
0.030613
0.030673
0.030732
0.030792
0.030851
0.030911
0.030971
0.031030
0.031090
0.031149
0.031209
0.031268
0.031328
0.031388
0.031447
0.031507
0.031566
0.031626
0.031686
0.031745
0.031805
0.031864
0.031924
0.031983
0.032043
0.032103
0.032162
0.032222
0.032281
0.032341
0.032401
0.032460
0.032520
0.032579
0.032639
0.032698
0.032758
0.032818
0.032877
0.032937
0.032996
0.033056
0.033116
0.033175
0.033235
0.033294
0.033354
0.033414
0.033473
0.033533
0.033592
0.033652
0.033711
0.033771
0.033831
0.033890
0.033950
0.034009
0.034069
0.034129
0.034188
0.034248
0.034307
0.034367
0.034427
0.034486
0.034546
0.034605
0.034665
0.034725
0.034784
0.034844
0.034904
0.034963
0.035023
0.035082
0.035142
0.035202
0.035261
0.035321
0.035380
0.035440
0.035500
0.035559
0.035619
0.035679
0.035738
0.035798
0.035857
0.035917
0.035977
0.036036
0.036096
0.036156
0.036215
0.036275
0.036335
0.036394
0.036454
0.036514
0.036573
0.036633
0.036693
0.036752
0.036812
0.036872
0.036931
0.036991
0.037051
0.037110
0.037170
0.037230
0.037289
0.037349
0.037409
0.037468
0.037528
0.037588
0.037647
0.037707
0.037767
0.037826
0.037886
0.037946
0.038006
0.038065
0.038125
0.038185
0.038244
0.038304
0.038364
0.038424
0.038483
0.038543
0.038603
0.038662
0.038722
0.038782
0.038842
0.038901
0.038961
0.039021
0.039081
0.039140
0.039200
0.039260
0.039320
0.039379
0.039439
0.039499
0.039559
0.039618
0.039678
0.039738
0.039798
0.039858
0.039917
0.039977
0.040037
0.040097
0.040157
0.040216
0.040276
0.040336
0.040396
0.040456
0.040515
0.040575
0.040635
0.040695
0.040755
0.040814
0.040874
0.040934
0.040994
0.041054
0.041114
0.041173
0.041233
0.041293
0.041353
0.041413
0.041473
0.041533
0.041592
0.041652
0.041712
0.041772
0.041832
0.041892
0.041952
0.042012
0.042071
0.042131
0.042191
0.042251
0.030110
0.030139
0.030047
0.026924
0.026968
0.027010
-0.021763
-0.021731
-0.021823
-0.021862
-0.011458
0.034210
0.034318
0.034340
0.034406
0.028898
0.028802
0.028832
-0.011685
-0.011622
-0.011698
-0.011588
-0.031607
-0.031652
-0.031541
-0.031555
-0.012077
-0.012031
-0.011986
0.011809
0.011714
0.011767
0.011799
-0.019785
-0.020303
-0.023916
-0.024640
0.008345
0.008251
0.008288
0.008280
-0.009209
-0.009406
-0.009237
-0.009246
0.021925
0.021745
0.021561
0.022158
-0.031750
-0.031713
-0.031604
0.010264
0.010253
0.010363
0.010414
0.000513
-0.001948
-0.001359
-0.003400
0.005055
0.005190
0.005243
-0.016886
-0.016091
-0.016920
-0.002788
-0.002727
-0.002876
-0.002810
0.026631
0.026949
0.026917
0.027246
-0.000696
-0.000480
-0.000569
-0.000260
0.008953
0.009048
0.008879
0.009093
0.008343
0.008411
0.008292
0.008466
-0.004539
-0.004555
-0.004637
-0.004686
0.029884
0.029843
0.029731
-0.012558
-0.012733
-0.012612
0.005063
0.029691
0.029580
0.029577
0.029743
0.013680
0.013788
0.013738
-0.000209
-0.000186
-0.000276
0.013780
0.008252
0.007949
0.007841
-0.000113
0.015802
0.015735
0.015591
0.024835
0.024941
0.024818
0.024989
0.015311
0.015371
0.015264
0.015410
0.015554
-0.027287
-0.027411
-0.027347
0.035196
0.035095
0.035262
-0.027466
-0.019066
-0.019146
-0.019224
-0.018992
-0.015362
-0.015291
-0.015543
-0.015368
-0.008595
-0.008779
-0.008646
0.004507
0.004611
0.004479
0.004572
-0.008808
0.013745
0.013823
0.013681
-0.014586
-0.014730
-0.014594
-0.015946
-0.016140
-0.016291
0.013821
0.027368
0.027395
0.027264
-0.024351
-0.024311
-0.024260
0.029316
0.029430
0.029438
0.029337
0.017255
0.017095
0.017159
0.016925
0.000536
-0.000301
0.000558
0.000346
0.012968
0.013313
0.012402
0.013837
-0.023011
-0.022944
-0.023145
-0.022810
0.039829
0.039750
-0.033172
-0.032892
-0.032732
-0.032423
-0.021504
-0.020943
-0.019655
-0.023141
0.041151
0.041182
0.041325
-0.024806
-0.022833
-0.024936
-0.025076
-0.024554
0.028405
0.028384
0.028240
0.011127
0.011069
0.011204
0.011161
0.000810
0.000560
0.000739
-0.032106
-0.032093
-0.032272
-0.032124
0.041207
0.040971
0.041278
0.040896
0.035263
0.035369
0.035480
0.028200
0.016985
0.016866
0.016743
0.016650
-0.003780
-0.003711
-0.003630
-0.003833
-0.006809
-0.007203
-0.008291
0.036000
0.035968
0.035660
0.035786
-0.009118
-0.008889
-0.009993
-0.009523
0.016684
0.016696
0.016587
0.009688
0.010021
0.012811
0.007047
-0.028407
-0.028554
-0.028092
-0.029068
0.038003
0.038091
0.008644
0.008632
0.008694
0.016790
0.001079
0.001519
0.001818
0.002059
-0.015487
-0.015641
-0.015574
-0.015562
-0.015017
-0.017322
-0.016585
-0.015094
-0.003476
-0.003297
-0.003605
-0.003565
-0.018642
-0.018059
-0.017625
-0.017165
0.037451
0.037659
0.037793
0.037442
-0.017135
-0.017108
-0.017054
-0.035497
-0.037007
-0.035551
-0.035701
-0.030163
-0.030248
-0.030263
-0.005563
-0.005585
-0.011665
-0.011682
-0.012417
-0.010999
0.015630
0.014695
0.014823
0.013786
0.002188
0.006006
0.005504
0.004891
0.020471
0.020549
0.019967
0.019968
0.033387
0.032612
0.032871
0.033330
-0.014326
-0.014270
-0.014737
-0.014823
-0.012145
-0.012094
-0.012022
-0.012256
0.022847
0.023206
0.022934
0.023158
0.022515
0.022476
0.022912
-0.002832
-0.002723
-0.002698
-0.002826
0.039471
0.039031
0.039436
0.029714
-0.007509
-0.008339
-0.007920
-0.007868
0.032890
0.032921
0.032727
0.032800
0.006351
0.006467
0.006380
0.006517
0.015635
0.015817
-0.004276
-0.003962
-0.003694
-0.003468
-0.001126
-0.001114
-0.000079
-0.002188
-0.000433
-0.000368
-0.000321
0.036691
0.036565
0.036552
-0.021989
-0.022055
-0.021734
-0.021710
-0.000292
-0.018723
-0.017515
-0.018422
0.033469
0.033624
0.033879
0.034030
0.031297
0.031231
0.031219
0.031114
0.014839
0.014512
0.014427
0.015152
0.012803
0.012693
0.012643
0.012819
0.012737
0.012874
0.016380
0.015895
0.016211
-0.002254
-0.002350
-0.002236
0.009309
0.008060
0.011019
-0.002281
0.021302
0.021548
0.020792
0.018102
0.018240
0.018233
0.018143
0.027093
0.027116
0.026953
-0.018842
-0.016738
0.027233
0.025716
0.025675
0.025606
0.025573
-0.014830
-0.014771
-0.014856
0.033037
0.008897
0.008942
0.008666
0.008621
-0.026974
-0.026114
-0.026429
-0.025715
0.010833
0.010818
0.010723
0.010927
-0.017864
-0.017540
-0.018355
-0.017406
-0.021679
-0.022133
-0.020377
-0.023307
0.023105
0.023053
0.023210
-0.018724
-0.018563
-0.018978
0.011909
0.011881
0.011455
0.011174
0.028888
0.023941
0.023823
0.023937
0.017957
0.018554
0.018052
0.018465
-0.004516
-0.005006
-0.005114
0.023820
0.025272
0.025467
0.025275
0.012718
0.013004
0.013144
0.013431
0.015744
0.014713
-0.008953
-0.009278
-0.008831
-0.009569
-0.024838
-0.026019
-0.026021
-0.024175
-0.018793
-0.019078
0.007783
0.007724
0.008176
0.025379
-0.005492
-0.004492
-0.004102
-0.005752
0.012522
0.013754
0.018786
0.018855
0.018807
-0.018627
-0.018360
-0.018274
0.018921
-0.014992
-0.014966
-0.014895
0.026550
0.026427
0.026499
0.026376
-0.009916
-0.009871
-0.009829
-0.017530
-0.020278
0.004740
0.004713
0.004653
0.028225
0.028201
0.028132
0.028095
0.018872
0.018944
0.018994
0.006856
0.006477
0.006376
0.005829
0.018269
0.018174
0.018214
0.018115
0.015938
0.015985
0.015894
0.025202
0.025285
0.025333
0.018257
0.018137
0.018829
0.025372
-0.022751
-0.022754
-0.022656
0.017661
0.013575
0.013294
0.013707
0.018848
-0.024207
-0.024168
-0.024230
0.009504
0.007449
0.008284
-0.022849
0.023698
0.023702
0.023835
0.033970
0.034017
0.033908
0.033970