# vtk DataFile Version 2.0
Test
ASCII
DATASET POLYDATA
POINTS 20431 float
0.000000 0.000000 0.000000
2.000000 0.000000 0.000000
2.000000 4.000000 0.000000
0.000000 4.000000 0.000000
0.000000 0.500000 0.000000
1.500000 2.000000 0.000000
2.000000 2.500000 0.000000
0.400000 0.000000 0.000000
0.800000 0.000000 0.000000
1.200000 0.000000 0.000000
1.600000 0.000000 0.000000
2.000000 0.362557 0.000000
2.000000 0.672798 0.000000
2.000000 0.938272 0.000000
2.000000 1.165439 0.000000
2.000000 1.359826 0.000000
2.000000 1.526163 0.000000
2.000000 1.668499 0.000000
2.000000 1.790295 0.000000
2.000000 1.894517 0.000000
2.000000 1.983700 0.000000
2.000000 2.060013 0.000000
2.000000 2.125315 0.000000
2.000000 2.181194 0.000000
2.000000 2.229010 0.000000
2.000000 2.269926 0.000000
2.000000 2.304938 0.000000
2.000000 2.334898 0.000000
2.000000 2.360534 0.000000
2.000000 2.382472 0.000000
2.000000 2.401244 0.000000
2.000000 2.417307 0.000000
2.000000 2.431052 0.000000
2.000000 2.442814 0.000000
2.000000 2.452878 0.000000
2.000000 2.461491 0.000000
2.000000 2.468860 0.000000
2.000000 2.475167 0.000000
2.000000 2.480563 0.000000
2.000000 2.485180 0.000000
2.000000 2.489132 0.000000
2.000000 2.492513 0.000000
2.000000 2.495406 0.000000
2.000000 2.497882 0.000000
2.000000 2.502286 0.000000
2.000000 2.505266 0.000000
2.000000 2.509150 0.000000
2.000000 2.514212 0.000000
2.000000 2.520809 0.000000
2.000000 2.529407 0.000000
2.000000 2.540613 0.000000
2.000000 2.555218 0.000000
2.000000 2.574253 0.000000
2.000000 2.599061 0.000000
2.000000 2.631395 0.000000
2.000000 2.673536 0.000000
2.000000 2.728460 0.000000
2.000000 2.800043 0.000000
2.000000 2.893339 0.000000
2.000000 3.014933 0.000000
2.000000 3.173410 0.000000
2.000000 3.379956 0.000000
2.000000 3.649152 0.000000
1.600000 4.000000 0.000000
1.200000 4.000000 0.000000
0.800000 4.000000 0.000000
0.400000 4.000000 0.000000
0.000000 3.624996 0.000000
0.000000 3.289970 0.000000
0.000000 2.990661 0.000000
0.000000 2.723261 0.000000
0.000000 2.484368 0.000000
0.000000 2.270943 0.000000
0.000000 2.080271 0.000000
0.000000 1.909926 0.000000
0.000000 1.757741 0.000000
0.000000 1.621780 0.000000
0.000000 1.500314 0.000000
0.000000 1.391797 0.000000
0.000000 1.294849 0.000000
0.000000 1.208237 0.000000
0.000000 1.130858 0.000000
0.000000 1.061728 0.000000
0.000000 0.999968 0.000000
0.000000 0.944792 0.000000
0.000000 0.895499 0.000000
0.000000 0.851460 0.000000
0.000000 0.812117 0.000000
0.000000 0.776968 0.000000
0.000000 0.745565 0.000000
0.000000 0.717511 0.000000
0.000000 0.692448 0.000000
0.000000 0.670056 0.000000
0.000000 0.650052 0.000000
0.000000 0.632180 0.000000
0.000000 0.616213 0.000000
0.000000 0.601949 0.000000
0.000000 0.589205 0.000000
0.000000 0.577820 0.000000
0.000000 0.567649 0.000000
0.000000 0.558562 0.000000
0.000000 0.550444 0.000000
0.000000 0.543191 0.000000
0.000000 0.536712 0.000000
0.000000 0.530923 0.000000
0.000000 0.525751 0.000000
0.000000 0.521131 0.000000
0.000000 0.517003 0.000000
0.000000 0.513315 0.000000
0.000000 0.510021 0.000000
0.000000 0.507078 0.000000
0.000000 0.504448 0.000000
0.000000 0.502099 0.000000
0.000000 0.497804 0.000000
0.000000 0.494785 0.000000
0.000000 0.490633 0.000000
0.000000 0.484924 0.000000
0.000000 0.477074 0.000000
0.000000 0.466279 0.000000
0.000000 0.451436 0.000000
0.000000 0.431025 0.000000
0.000000 0.402959 0.000000
0.000000 0.364366 0.000000
0.000000 0.311297 0.000000
0.000000 0.238324 0.000000
0.000000 0.137980 0.000000
0.001414 0.501414 0.000000
0.002828 0.502828 0.000000
0.004241 0.504241 0.000000
0.005655 0.505655 0.000000
0.007069 0.507069 0.000000
0.008483 0.508483 0.000000
0.009896 0.509896 0.000000
0.011310 0.511310 0.000000
0.012724 0.512724 0.000000
0.014138 0.514138 0.000000
0.015551 0.515551 0.000000
0.016965 0.516965 0.000000
0.018379 0.518379 0.000000
0.019793 0.519793 0.000000
0.021206 0.521206 0.000000
0.022620 0.522620 0.000000
0.024034 0.524034 0.000000
0.025448 0.525448 0.000000
0.026861 0.526861 0.000000
0.028275 0.528275 0.000000
0.029689 0.529689 0.000000
0.031103 0.531103 0.000000
0.032516 0.532516 0.000000
0.033930 0.533930 0.000000
0.035344 0.535344 0.000000
0.036758 0.536758 0.000000
0.038172 0.538172 0.000000
0.039585 0.539585 0.000000
0.040999 0.540999 0.000000
0.042413 0.542413 0.000000
0.043827 0.543827 0.000000
0.045240 0.545240 0.000000
0.046654 0.546654 0.000000
0.048068 0.548068 0.000000
0.049482 0.549482 0.000000
0.050895 0.550895 0.000000
0.052309 0.552309 0.000000
0.053723 0.553723 0.000000
0.055137 0.555137 0.000000
0.056550 0.556550 0.000000
0.057964 0.557964 0.000000
0.059378 0.559378 0.000000
0.060792 0.560792 0.000000
0.062205 0.562205 0.000000
0.063619 0.563619 0.000000
0.065033 0.565033 0.000000
0.066447 0.566447 0.000000
0.067861 0.567861 0.000000
0.069274 0.569274 0.000000
0.070688 0.570688 0.000000
0.072102 0.572102 0.000000
0.073516 0.573516 0.000000
0.074929 0.574929 0.000000
0.076343 0.576343 0.000000
0.077757 0.577757 0.000000
0.079171 0.579171 0.000000
0.080584 0.580584 0.000000
0.081998 0.581998 0.000000
0.083412 0.583412 0.000000
0.084826 0.584826 0.000000
0.086239 0.586239 0.000000
0.087653 0.587653 0.000000
0.089067 0.589067 0.000000
0.090481 0.590481 0.000000
0.091894 0.591894 0.000000
0.093308 0.593308 0.000000
0.094722 0.594722 0.000000
0.096136 0.596136 0.000000
0.097549 0.597549 0.000000
0.098963 0.598963 0.000000
0.100377 0.600377 0.000000
0.101791 0.601791 0.000000
0.103205 0.603205 0.000000
0.104618 0.604618 0.000000
0.106032 0.606032 0.000000
0.107446 0.607446 0.000000
0.108860 0.608860 0.000000
0.110273 0.610273 0.000000
0.111687 0.611687 0.000000
0.113101 0.613101 0.000000
0.114515 0.614515 0.000000
0.115928 0.615928 0.000000
0.117342 0.617342 0.000000
0.118756 0.618756 0.000000
0.120170 0.620170 0.000000
0.121583 0.621583 0.000000
0.122997 0.622997 0.000000
0.124411 0.624411 0.000000
0.125825 0.625825 0.000000
0.127238 0.627238 0.000000
0.128652 0.628652 0.000000
0.130066 0.630066 0.000000
0.131480 0.631480 0.000000
0.132893 0.632893 0.000000
0.134307 0.634307 0.000000
0.135721 0.635721 0.000000
0.137135 0.637135 0.000000
0.138549 0.638549 0.000000
0.139962 0.639962 0.000000
0.141376 0.641376 0.000000
0.142790 0.642790 0.000000
0.144204 0.644204 0.000000
0.145617 0.645617 0.000000
0.147031 0.647031 0.000000
0.148445 0.648445 0.000000
0.149859 0.649859 0.000000
0.151272 0.651272 0.000000
0.152686 0.652686 0.000000
0.154100 0.654100 0.000000
0.155514 0.655514 0.000000
0.156927 0.656927 0.000000
0.158341 0.658341 0.000000
0.159755 0.659755 0.000000
0.161169 0.661169 0.000000
0.162582 0.662582 0.000000
0.163996 0.663996 0.000000
0.165410 0.665410 0.000000
0.166824 0.666824 0.000000
0.168238 0.668238 0.000000
0.169651 0.669651 0.000000
0.171065 0.671065 0.000000
0.172479 0.672479 0.000000
0.173893 0.673893 0.000000
0.175306 0.675306 0.000000
0.176720 0.676720 0.000000
0.178134 0.678134 0.000000
0.179548 0.679548 0.000000
0.180961 0.680961 0.000000
0.182375 0.682375 0.000000
0.183789 0.683789 0.000000
0.185203 0.685203 0.000000
0.186616 0.686616 0.000000
0.188030 0.688030 0.000000
0.189444 0.689444 0.000000
0.190858 0.690858 0.000000
0.192271 0.692271 0.000000
0.193685 0.693685 0.000000
0.195099 0.695099 0.000000
0.196513 0.696513 0.000000
0.197926 0.697926 0.000000
0.199340 0.699340 0.000000
0.200754 0.700754 0.000000
0.202168 0.702168 0.000000
0.203582 0.703582 0.000000
0.204995 0.704995 0.000000
0.206409 0.706409 0.000000
0.207823 0.707823 0.000000
0.209237 0.709237 0.000000
0.210650 0.710650 0.000000
0.212064 0.712064 0.000000
0.213478 0.713478 0.000000
0.214892 0.714892 0.000000
0.216305 0.716305 0.000000
0.217719 0.717719 0.000000
0.219133 0.719133 0.000000
0.220547 0.720547 0.000000
0.221960 0.721960 0.000000
0.223374 0.723374 0.000000
0.224788 0.724788 0.000000
0.226202 0.726202 0.000000
0.227615 0.727615 0.000000
0.229029 0.729029 0.000000
0.230443 0.730443 0.000000
0.231857 0.731857 0.000000
0.233270 0.733270 0.000000
0.234684 0.734684 0.000000
0.236098 0.736098 0.000000
0.237512 0.737512 0.000000
0.238926 0.738926 0.000000
0.240339 0.740339 0.000000
0.241753 0.741753 0.000000
0.243167 0.743167 0.000000
0.244581 0.744581 0.000000
0.245994 0.745994 0.000000
0.247408 0.747408 0.000000
0.248822 0.748822 0.000000
0.250236 0.750236 0.000000
0.251649 0.751649 0.000000
0.253063 0.753063 0.000000
0.254477 0.754477 0.000000
0.255891 0.755891 0.000000
0.257304 0.757304 0.000000
0.258718 0.758718 0.000000
0.260132 0.760132 0.000000
0.261546 0.761546 0.000000
0.262959 0.762959 0.000000
0.264373 0.764373 0.000000
0.265787 0.765787 0.000000
0.267201 0.767201 0.000000
0.268615 0.768615 0.000000
0.270028 0.770028 0.000000
0.271442 0.771442 0.000000
0.272856 0.772856 0.000000
0.274270 0.774270 0.000000
0.275683 0.775683 0.000000
0.277097 0.777097 0.000000
0.278511 0.778511 0.000000
0.279925 0.779925 0.000000
0.281338 0.781338 0.000000
0.282752 0.782752 0.000000
0.284166 0.784166 0.000000
0.285580 0.785580 0.000000
0.286993 0.786993 0.000000
0.288407 0.788407 0.000000
0.289821 0.789821 0.000000
0.291235 0.791235 0.000000
0.292648 0.792648 0.000000
0.294062 0.794062 0.000000
0.295476 0.795476 0.000000
0.296890 0.796890 0.000000
0.298303 0.798303 0.000000
0.299717 0.799717 0.000000
0.301131 0.801131 0.000000
0.302545 0.802545 0.000000
0.303959 0.803959 0.000000
0.305372 0.805372 0.000000
0.306786 0.806786 0.000000
0.308200 0.808200 0.000000
0.309614 0.809614 0.000000
0.311027 0.811027 0.000000
0.312441 0.812441 0.000000
0.313855 0.813855 0.000000
0.315269 0.815269 0.000000
0.316682 0.816682 0.000000
0.318096 0.818096 0.000000
0.319510 0.819510 0.000000
0.320924 0.820924 0.000000
0.322337 0.822337 0.000000
0.323751 0.823751 0.000000
0.325165 0.825165 0.000000
0.326579 0.826579 0.000000
0.327992 0.827992 0.000000
0.329406 0.829406 0.000000
0.330820 0.830820 0.000000
0.332234 0.832234 0.000000
0.333648 0.833648 0.000000
0.335061 0.835061 0.000000
0.336475 0.836475 0.000000
0.337889 0.837889 0.000000
0.339303 0.839303 0.000000
0.340716 0.840716 0.000000
[...]
POINT_DATA 20431
SCALARS UX float 1
LOOKUP_TABLE default
-0.000000
0.000000
-0.001671
-0.005330
-0.001730
-0.000449
-0.000791
-0.000000
-0.000000
0.000000
-0.000000
0.001369
0.001840
0.002070
0.002180
0.002215
0.002170
0.002031
0.001794
0.001482
0.001124
0.000783
0.000483
0.000234
0.000032
-0.000127
-0.000253
-0.000354
-0.000434
-0.000499
-0.000552
-0.000595
-0.000631
-0.000660
-0.000685
-0.000705
-0.000722
-0.000737
-0.000749
-0.000759
-0.000768
-0.000775
-0.000781
-0.000786
-0.000796
-0.000802
-0.000810
-0.000820
-0.000834
-0.000851
-0.000872
-0.000900
-0.000934
-0.000975
-0.001025
-0.001084
-0.001154
-0.001232
-0.001318
-0.001408
-0.001493
-0.001582
-0.001643
-0.002505
-0.003281
-0.003988
-0.004661
-0.005269
-0.005145
-0.004979
-0.004817
-0.004699
-0.004639
-0.004643
-0.004694
-0.004783
-0.004883
-0.004988
-0.005085
-0.005170
-0.005242
-0.005299
-0.005343
-0.005375
-0.005398
-0.005414
-0.005424
-0.005429
-0.005431
-0.005431
-0.005428
-0.005424
-0.005418
-0.005409
-0.005400
-0.005390
-0.005380
-0.005370
-0.005358
-0.005346
-0.005335
-0.005329
-0.005314
-0.005284
-0.005269
-0.005249
-0.005234
-0.005161
-0.005066
-0.004861
-0.005065
-0.003934
-0.002906
-0.001693
-0.001545
-0.001467
-0.001421
-0.001373
-0.001334
-0.001294
-0.001252
-0.001205
-0.001144
-0.001049
-0.000896
-0.000616
-0.001721
-0.001928
-0.001900
-0.001822
-0.001838
-0.001886
-0.001856
-0.001743
-0.001870
-0.002026
-0.002000
-0.001961
-0.001933
-0.002008
-0.002003
-0.003354
-0.003336
-0.003293
-0.003247
-0.003234
-0.003232
-0.003270
-0.003266
-0.003251
-0.003216
-0.003257
-0.003305
-0.003240
-0.003275
-0.003269
-0.003134
-0.003107
-0.003125
-0.003125
-0.003091
-0.003042
-0.003036
-0.003004
-0.003002
-0.003016
-0.003033
-0.003017
-0.003067
-0.003045
-0.003080
-0.003106
-0.003065
-0.003059
-0.003100
-0.003089
-0.003089
-0.003052
-0.002840
-0.002829
-0.002817
-0.002784
-0.002795
-0.002762
-0.002796
-0.002828
-0.002810
-0.002766
-0.002802
-0.002770
-0.002776
-0.002798
-0.002834
-0.002791
-0.002800
-0.002838
-0.002839
-0.002817
-0.002907
-0.002924
-0.002918
-0.002901
-0.002765
-0.002732
-0.002764
-0.002754
-0.002739
-0.002699
-0.002662
-0.002698
-0.002720
-0.002735
-0.002709
-0.002663
-0.002675
-0.002673
-0.002662
-0.002662
-0.002657
-0.002620
-0.002834
-0.002892
-0.002919
-0.002903
-0.003168
-0.003270
-0.003151
-0.003107
-0.003105
-0.003110
-0.003157
-0.003097
-0.003080
-0.002968
-0.002914
-0.002510
-0.002496
-0.002450
-0.003072
-0.003080
-0.003076
-0.003035
-0.003037
-0.003019
-0.003021
-0.003012
-0.003000
-0.002981
-0.002938
-0.002956
-0.002933
-0.002887
-0.002919
-0.002850
-0.002812
-0.002849
-0.002842
-0.002867
-0.002875
-0.002751
-0.002814
-0.002862
-0.002835
-0.002865
-0.002884
-0.002786
-0.002740
-0.002775
-0.002786
-0.002852
-0.002866
-0.002775
-0.002821
-0.002855
-0.002707
-0.002867
-0.002863
-0.002922
-0.002870
-0.002893
-0.002938
-0.002874
-0.002858
-0.002815
-0.002759
-0.002818
-0.002834
-0.002801
-0.003208
-0.002783
-0.002787
-0.002786
-0.002761
-0.002756
-0.002773
-0.002752
-0.002747
-0.003067
-0.003091
-0.003071
-0.003009
-0.003073
-0.003088
-0.003092
-0.003087
-0.003121
-0.003139
-0.003164
-0.003154
-0.003153
-0.003172
-0.003163
-0.003141
-0.003167
-0.002489
-0.003099
-0.003114
-0.003118
-0.003082
-0.003394
-0.003378
-0.003354
-0.003343
-0.003144
-0.003224
-0.003210
-0.003225
-0.003259
-0.003236
-0.003200
-0.003205
-0.003202
-0.003231
-0.003202
-0.003174
-0.003196
-0.003174
-0.003148
-0.003092
-0.003119
-0.003156
-0.003133
-0.003133
-0.003018
-0.003068
-0.003146
-0.003118
-0.002957
-0.002948
-0.002933
-0.002911
-0.002660
-0.003050
-0.003065
-0.002978
-0.002970
-0.002961
-0.002946
-0.002923
-0.002932
-0.002987
-0.002951
-0.002926
-0.002605
-0.002783
-0.002673
-0.002663
-0.002658
-0.002662
-0.002629
-0.002639
-0.002649
-0.002619
-0.002606
-0.002616
-0.002693
-0.002643
-0.002604
-0.002668
-0.002644
-0.002621
-0.002541
-0.002645
-0.002648
-0.002629
-0.002732
-0.002731
-0.002730
-0.002753
-0.002687
-0.002649
-0.002662
-0.002665
-0.002657
-0.002664
-0.002667
-0.002628
-0.002610
-0.002613
-0.002596
-0.002551
-0.002575
-0.002565
-0.002574
-0.002576
-0.002509
-0.002534
-0.002493
-0.002513
-0.002499
-0.002553
-0.002554
-0.002532
-0.002510
-0.002487
-0.002514
-0.002478
-0.002504
-0.002475
-0.002486
-0.002505
-0.002490
-0.002494
-0.002479
-0.002457
-0.002454
-0.002469
-0.002470
-0.002462
-0.002217
-0.002211
-0.002211
-0.002213
-0.002208
-0.002305
-0.002762
-0.002679
-0.002712
-0.002703
-0.002699
-0.002699
-0.002657
-0.002745
-0.002628
-0.002678
-0.002657
-0.002586
-0.002611
-0.002854
-0.003009
-0.002758
-0.002776
-0.002712
-0.002712
-0.002692
-0.002695
-0.002662
-0.002696
-0.002694
-0.002681
-0.002660
-0.002632
-0.002624
-0.002205
-0.002174
-0.002188
-0.002157
-0.002108
-0.002189
-0.002160
-0.002155
-0.002135
-0.002150
-0.002128
-0.002159
-0.002180
-0.002360
-0.002828
-0.002827
-0.002821
-0.002772
-0.002783
-0.002845
-0.002789
-0.002775
-0.002553
-0.002545
-0.002123
-0.002124
-0.002131
-0.002127
-0.002144
-0.002067
-0.002045
-0.002403
-0.002366
-0.002368
-0.002376
-0.002429
-0.002424
-0.002476
-0.002390
-0.002394
-0.002403
-0.002331
-0.002322
-0.002314
-0.002312
-0.002298
-0.002283
-0.002288
-0.002252
-0.002269
-0.002268
-0.002271
-0.002278
-0.002269
-0.002480
-0.002456
-0.002442
-0.002459
-0.002448
-0.002354
-0.002352
-0.002313
-0.002305
-0.002331
-0.002070
-0.002064
-0.002055
-0.002058
-0.002055
-0.002066
-0.002041
-0.002021
-0.002228
-0.002188
-0.002201
-0.002209
-0.002181
-0.002173
-0.002156
-0.002185
-0.002210
-0.002207
-0.002222
-0.002224
-0.002211
-0.002218
-0.002185
-0.002229
-0.002226
-0.002230
-0.002187
-0.002156
-0.002234
-0.002186
-0.002199
-0.002209
-0.002240
-0.002248
-0.002250
-0.002241
-0.002270
-0.002275
-0.002281
-0.002296
-0.002271
-0.002288
-0.002244
-0.002221
-0.002172
-0.002185
-0.002199
-0.002207
-0.002224
-0.002128
-0.002162
-0.002171
-0.002159
-0.002161
-0.002202
-0.002184
-0.002198
-0.002212
-0.002181
-0.002230
-0.001762
-0.001751
-0.001732
-0.001738
-0.001720
-0.001718
-0.001713
-0.001711
-0.001705
-0.001982
-0.001938
-0.001898
-0.001928
-0.001922
-0.001959
-0.001935
-0.001904
-0.001910
-0.001902
-0.001917
-0.002669
-0.002706
-0.002698
-0.002662
-0.002676
-0.002641
-0.002614
-0.002597
-0.002636
-0.001566
-0.001545
-0.002246
-0.002273
-0.002279
-0.002275
-0.002287
-0.002303
-0.002548
-0.002349
-0.002260
-0.002232
-0.002219
-0.002253
-0.002193
-0.002191
-0.002202
-0.002209
-0.002206
-0.002192
-0.002143
-0.002115
-0.002150
-0.002143
-0.002115
-0.002110
-0.002124
-0.002099
-0.002088
-0.002118
-0.002088
-0.002099
-0.002091
-0.002068
-0.002048
-0.002051
-0.002028
-0.002012
-0.002023
-0.002023
-0.001990
-0.002034
-0.002054
-0.002046
-0.002011
-0.002031
-0.001998
-0.001972
-0.001951
-0.002013
-0.001983
-0.001935
-0.001933
-0.001955
-0.001942
-0.001925
-0.001920
-0.001926
-0.001928
-0.001905
-0.001902
-0.001888
-0.001913
-0.001866
-0.001842
-0.001797
-0.001821
-0.001810
-0.001782
-0.001747
-0.001795
-0.001792
-0.001764
-0.001801
-0.001798
-0.001802
-0.001819
-0.001840
-0.001817
-0.001800
-0.001768
-0.001764
-0.001821
-0.001785
-0.001847
-0.001826
-0.002097
-0.002011
-0.002113
-0.002168
-0.002093
-0.002073
-0.002077
-0.002147
-0.002105
-0.002090
-0.002081
-0.002062
-0.002012
-0.001990
-0.002007
-0.001998
-0.001993
-0.001989
-0.001989
-0.002001
-0.002027
-0.002003
-0.001961
-0.001947
-0.001770
-0.001764
-0.001799
-0.001806
-0.001762
-0.001736
-0.001722
-0.001716
-0.001749
-0.001751
-0.001700
-0.001653
-0.001638
-0.001648
-0.001649
-0.001626
-0.001605
-0.001631
-0.001600
-0.001608
-0.001639
-0.001626
-0.001672
-0.001643
-0.001488
-0.001539
-0.001634
-0.001674
-0.001585
-0.001650
-0.001519
-0.001512
-0.001530
-0.001506
-0.001494
-0.001493
-0.001507
-0.001454
-0.001484
-0.001648
-0.001299
-0.001214
-0.001507
-0.001438
-0.001432
-0.001158
-0.001185
-0.001175
-0.001237
-0.001228
-0.001228
-0.001226
-0.001197
-0.001187
-0.001514
-0.001508
-0.001509
-0.001504
-0.001531
-0.001497
-0.001494
-0.001491
-0.001548
-0.001560
-0.001510
-0.001476
-0.001516
-0.001521
-0.001614
-0.001577
-0.001595
-0.001621
-0.001574
-0.001531
-0.001536
-0.001536
-0.001529
-0.001562
-0.001588
-0.001498
-0.001245
-0.001207
0.002054
-0.002108
-0.001178
-0.001185
-0.001182
-0.001220
-0.001226
-0.001222
-0.001847
-0.001818
-0.001850
-0.001786
-0.001661
-0.001645
-0.001625
-0.001649
-0.001645
-0.001616
-0.001613
-0.001670
-0.001569
-0.001340
-0.001315
-0.001298
-0.001319
-0.001322
-0.001312
-0.001312
-0.001259
-0.001268
-0.001804
-0.001802
-0.001791
-0.001790
-0.001805
-0.001783
-0.001620
-0.001642
-0.001698
-0.001685
-0.001652
-0.001411
-0.001491
-0.001430
-0.001427
-0.001415
-0.001430
-0.001420
-0.001423
-0.001429
-0.001439
-0.001434
-0.001393
-0.001367
-0.001369
-0.001493
-0.001479
-0.001529
-0.001525
-0.001501
-0.001531
-0.001514
-0.001484
-0.001493
-0.001481
-0.001466
-0.001136
-0.001152
-0.001127
-0.001099
-0.001130
-0.001119
-0.001113
-0.001098
-0.001098
-0.001264
-0.001274
-0.001204
-0.001190
-0.001158
-0.001182
-0.001196
-0.001204
-0.001215
-0.001231
-0.001218
-0.001174
-0.001203
-0.001211
-0.001070
-0.001056
-0.000896
-0.000865
-0.000862
-0.000877
-0.000870
-0.000848
-0.000876
-0.000849
-0.001064
-0.001083
-0.001105
-0.001130
-0.001097
-0.001065
-0.001057
-0.001067
-0.001063
-0.001060
-0.001037
-0.001030
-0.001070
-0.001072
-0.001020
-0.001061
-0.001083
-0.001053
-0.001085
-0.001078
-0.001128
-0.001082
-0.001109
-0.001093
-0.001088
-0.001044
-0.001064
-0.001080
-0.001083
-0.001070
-0.001067
-0.001072
-0.001034
-0.001048
-0.001017
-0.001042
-0.001024
-0.001026
-0.001016
-0.000997
-0.000999
-0.000993
-0.000969
-0.000961
-0.000957
-0.000923
-0.000901
-0.000898
-0.000898
-0.000877
-0.000883
-0.000862
-0.000998
-0.000973
-0.000963
-0.000984
-0.000932
-0.000975
-0.001093
-0.001051
-0.001060
-0.001051
-0.001051
-0.001046
-0.001040
-0.001029
-0.001020
-0.001010
-0.001010
-0.001016
-0.000990
-0.000988
-0.000983
-0.001009
-0.000988
-0.001002
-0.001006
-0.000989
-0.000983
-0.000958
-0.000960
-0.000960
-0.000952
-0.000985
-0.001012
-0.001016
-0.001016
-0.000985
-0.001039
-0.001004
-0.000992
-0.000996
-0.001023
-0.001004
-0.001025
-0.001023
-0.001014
-0.000994
-0.000948
-0.000967
-0.000978
-0.000949
-0.001000
-0.000989
-0.000946
-0.000955
-0.000972
-0.000972
-0.000967
-0.000983
-0.000987
-0.000969
-0.000983
-0.000922
-0.000974
-0.000958
-0.000955
-0.000945
-0.000934
-0.000925
-0.000924
-0.000913
-0.000917
-0.000896
-0.000854
-0.000850
-0.000845
-0.000850
-0.000880
-0.000983
-0.000879
-0.000766
-0.000646
-0.001797
-0.000550
-0.000733
-0.000767
-0.000777
-0.000769
-0.000774
-0.000766
-0.000777
-0.000772
-0.000773
-0.000967
-0.001050
-0.001062
-0.001049
-0.001026
-0.001004
-0.001211
-0.001304
-0.000738
-0.000723
-0.000661
-0.000653
-0.000664
-0.000660
-0.000636
-0.000595
-0.000617
-0.000611
-0.000606
-0.000466
-0.000460
-0.000686
-0.000700
-0.000665
-0.000573
-0.000631
-0.000673
-0.000664
-0.000646
-0.000634
-0.000633
-0.000660
-0.000641
-0.000573
-0.000578
-0.000584
-0.000581
-0.000585
-0.000769
-0.000795
-0.000805
-0.000554
-0.000919
-0.000932
-0.000974
-0.000948
-0.000962
-0.000951
-0.000942
-0.000948
-0.000947
-0.000941
-0.000902
-0.000757
-0.000755
-0.000739
-0.000719
-0.000723
-0.000722
-0.000714
-0.000690
-0.000485
-0.000490
-0.000481
-0.000545
-0.000529
-0.000519
-0.000493
-0.000718
-0.000712
-0.000726
-0.000724
-0.000718
-0.000698
-0.000447
-0.000427
-0.000385
-0.000317
-0.000322
-0.000318
-0.000670
-0.000639
-0.000648
-0.000655
-0.000649
-0.000370
-0.000346
-0.000604
-0.000580
-0.000581
-0.000564
-0.000565
-0.000553
-0.000500
-0.000490
-0.000478
-0.000502
-0.000498
-0.000491
-0.000482
-0.000502
-0.000491
-0.000486
-0.000494
-0.000465
-0.000453
-0.000484
-0.000494
-0.000469
-0.000409
-0.000463
-0.000486
-0.000442
-0.000450
-0.000439
-0.000430
-0.000425
-0.000434
-0.000442
-0.000451
-0.000430
-0.000416
-0.000412
-0.000412
-0.000402
-0.000414
-0.000403
-0.000389
-0.000498
-0.000493
-0.000499
-0.000488
-0.000521
-0.000476
-0.000455
-0.000447
-0.000448
-0.000450
-0.000454
-0.000458
-0.000463
-0.000468
-0.000473
-0.000479
-0.000484
-0.000490
-0.000495
-0.000500
-0.000505
-0.000510
-0.000515
-0.000519
-0.000523
-0.000527
-0.000531
-0.000535
-0.000539
-0.000543
-0.000546
-0.000550
-0.000553
-0.000556
-0.000560
-0.000563
-0.000566
-0.000568
-0.000571
-0.000574
-0.000577
-0.000579
-0.000582
-0.000584
-0.000586
-0.000589
-0.000591
-0.000593
-0.000595
-0.000598
-0.000600
-0.000602
-0.000605
-0.000607
-0.000610
-0.000612
-0.000614
-0.000616
-0.000618
-0.000620
-0.000622
-0.000624
-0.000626
-0.000627
-0.000629
-0.000631
-0.000632
-0.000634
-0.000635
-0.000637
-0.000638
-0.000640
-0.000641
-0.000643
-0.000644
-0.000646
-0.000647
-0.000648
-0.000649
-0.000651
-0.000652
-0.000653
-0.000654
-0.000656
-0.000657
-0.000658
-0.000659
-0.000660
-0.000662
-0.000663
-0.000664
-0.000665
-0.000666
-0.000667
-0.000668
-0.000669
-0.000670
-0.000671
-0.000673
-0.000674
-0.000675
-0.000676
-0.000677
-0.000678
-0.000679
-0.000680
-0.000681
-0.000682
-0.000683
-0.000684
-0.000685
-0.000686
-0.000687
-0.000688
-0.000689
-0.000690
-0.000691
-0.000692
-0.000693
-0.000694
-0.000695
-0.000696
-0.000697
-0.000698
-0.000699
-0.000700
-0.000701
-0.000702
-0.000703
-0.000704
-0.000705
-0.000706
-0.000707
-0.000708
-0.000709
-0.000710
-0.000711
-0.000712
-0.000713
-0.000714
-0.000715
-0.000716
-0.000717
-0.000718
-0.000719
-0.000720
-0.000721
-0.000722
-0.000723
-0.000724
-0.000725
-0.000726
-0.000727
-0.000728
-0.000729
-0.000730
-0.000731
-0.000732
-0.000733
-0.000734
-0.000735
-0.000735
-0.000736
-0.000737
-0.000738
-0.000739
-0.000740
-0.000741
-0.000742
-0.000743
-0.000744
-0.000745
-0.000746
-0.000747
-0.000748
-0.000749
-0.000750
-0.000751
-0.000752
-0.000753
-0.000754
-0.000755
-0.000756
-0.000757
-0.000758
-0.000759
-0.000759
-0.000760
-0.000761
-0.000762
-0.000763
-0.000764
-0.000765
-0.000766
-0.000767
-0.000768
-0.000769
-0.000770
-0.000770
-0.000771
-0.000772
-0.000773
-0.000774
-0.000775
-0.000776
-0.000777
-0.000777
-0.000778
-0.000779
-0.000780
-0.000781
-0.000782
-0.000783
-0.000783
-0.000784
-0.000785
-0.000786
-0.000787
-0.000787
-0.000788
-0.000789
-0.000790
-0.000791
-0.000791
-0.000792
-0.000793
-0.000794
-0.000794
-0.000795
-0.000796
-0.000796
-0.000797
-0.000798
-0.000799
-0.000799
-0.000800
-0.000801
-0.000801
-0.000802
-0.000803
-0.000803
-0.000804
-0.000804
-0.000805
-0.000806
-0.000806
-0.000807
-0.000807
-0.000808
-0.000809
-0.000809
-0.000810
-0.000810
-0.000811
-0.000811
-0.000812
-0.000812
-0.000813
-0.000813
-0.000814
-0.000814
-0.000814
-0.000815
-0.000815
-0.000816
-0.000816
-0.000816
-0.000817
-0.000817
-0.000817
-0.000818
-0.000818
-0.000818
-0.000819
-0.000819
-0.000819
-0.000819
-0.000820
-0.000820
-0.000820
-0.000820
-0.000821
-0.000821
-0.000821
-0.000821
-0.000821
-0.000821
-0.000821
-0.000821
-0.000822
-0.000822
-0.000822
-0.000822
-0.000822
-0.000822
-0.000822
-0.000822
-0.000822
-0.000822
-0.000822
-0.000822
-0.000821
-0.000821
-0.000821
-0.000821
-0.000821
-0.000821
-0.000821
-0.000820
-0.000820
-0.000820
-0.000820
-0.000820
-0.000819
-0.000819
-0.000819
-0.000818
-0.000818
-0.000818
-0.000817
-0.000817
-0.000817
-0.000816
-0.000816
-0.000815
-0.000815
-0.000815
-0.000814
-0.000814
-0.000813
-0.000813
-0.000812
-0.000812
-0.000811
-0.000811
-0.000810
-0.000809
-0.000809
-0.000808
-0.000807
-0.000807
-0.000806
-0.000805
-0.000805
-0.000804
-0.000803
-0.000803
-0.000802
-0.000801
-0.000800
-0.000800
-0.000799
-0.000798
-0.000797
-0.000796
-0.000795
-0.000795
-0.000794
-0.000793
-0.000792
-0.000742
-0.000749
-0.000756
-0.000697
-0.000687
-0.000691
-0.004155
-0.004195
-0.004248
-0.004313
-0.002948
-0.000820
-0.000805
-0.000814
-0.000803
-0.000766
-0.000777
-0.000767
-0.002796
-0.002670
-0.003369
-0.002825
-0.004286
-0.004331
-0.003842
-0.003790
-0.003176
-0.002641
-0.002791
-0.002024
-0.002077
-0.002022
-0.002037
-0.003573
-0.003574
-0.003758
-0.003770
-0.001560
-0.001864
-0.001510
-0.002029
-0.003696
-0.003724
-0.003689
-0.003714
-0.001080
-0.001127
-0.001110
-0.001082
-0.004582
-0.004392
-0.003939
-0.002273
-0.002254
-0.002242
-0.002201
-0.002524
-0.002656
-0.002636
-0.002743
-0.002724
-0.002701
-0.002701
-0.004088
-0.004044
-0.004065
-0.003190
-0.003193
-0.003239
-0.003242
-0.001061
-0.001022
-0.001057
-0.001007
-0.003153
-0.003136
-0.003144
-0.003121
-0.002327
-0.002328
-0.002372
-0.002262
-0.002232
-0.002266
-0.002333
-0.002084
-0.003323
-0.003350
-0.003360
-0.003384
-0.000778
-0.000792
-0.000790
-0.003855
-0.003892
-0.003837
-0.002714
-0.000819
-0.000839
-0.000823
-0.000824
-0.001748
-0.001616
-0.001760
-0.002996
-0.003017
-0.003033
-0.001463
-0.002451
-0.002457
-0.002475
-0.002971
-0.001677
-0.001705
-0.001727
-0.000858
-0.000859
-0.000882
-0.000867
-0.001232
-0.001196
-0.001515
-0.001244
-0.001736
-0.004398
-0.004582
-0.004428
-0.000843
-0.000842
-0.000830
-0.004573
-0.004130
-0.004231
-0.004211
-0.004136
-0.004080
-0.004085
-0.004119
-0.004108
-0.003626
-0.003669
-0.003621
-0.002754
-0.002746
-0.002765
-0.002760
-0.003647
-0.001789
-0.001786
-0.001866
-0.003957
-0.003992
-0.003913
-0.004165
-0.004178
-0.004187
-0.001847
-0.000859
-0.000871
-0.000878
-0.003770
-0.003162
-0.003159
-0.000785
-0.000768
-0.000777
-0.000771
-0.001480
-0.001495
-0.001496
-0.001517
-0.002902
-0.002959
-0.002928
-0.002961
-0.001800
-0.001747
-0.001815
-0.001728
-0.004512
-0.004528
-0.004553
-0.004484
-0.000826
-0.000827
-0.005164
-0.005151
-0.005143
-0.005126
-0.003889
-0.003921
-0.003834
-0.004015
-0.000837
-0.000825
-0.000821
-0.004028
-0.003900
-0.004684
-0.004697
-0.004670
-0.000864
-0.000886
-0.000885
-0.002120
-0.002104
-0.002045
-0.002010
-0.003044
-0.003057
-0.003051
-0.004953
-0.004965
-0.005022
-0.004999
-0.000856
-0.000859
-0.000836
-0.000882
-0.000850
-0.000830
-0.000834
-0.000904
-0.001500
-0.001503
-0.001526
-0.001521
-0.003216
-0.003100
-0.003114
-0.003195
-0.003374
-0.003346
-0.003412
-0.000856
-0.000876
-0.000887
-0.000904
-0.003603
-0.003571
-0.003626
-0.003573
-0.001335
-0.001422
-0.001501
-0.002537
-0.002420
-0.002332
-0.002556
-0.004885
-0.004897
-0.004875
-0.004915
-0.000831
-0.000831
-0.001886
-0.001552
-0.001472
-0.001280
-0.002922
-0.002919
-0.002884
-0.002893
-0.003948
-0.004022
-0.003937
-0.004036
-0.003683
-0.003745
-0.003777
-0.003630
-0.003352
-0.003338
-0.003360
-0.003355
-0.004167
-0.004175
-0.004134
-0.004138
-0.000886
-0.000859
-0.000864
-0.000867
-0.003313
-0.002831
-0.002784
-0.005124
-0.005178
-0.005151
-0.005110
-0.003562
-0.003917
-0.003745
-0.002500
-0.002286
-0.003813
-0.003788
-0.003823
-0.003782
-0.001520
-0.001598
-0.001587
-0.001666
-0.002592
-0.002408
-0.002518
-0.002398
-0.001238
-0.001269
-0.001291
-0.001332
-0.001005
-0.001076
-0.001012
-0.001059
-0.004050
-0.004035
-0.004060
-0.004052
-0.003773
-0.003681
-0.003702
-0.003784
-0.001060
-0.001029
-0.001082
-0.001008
-0.001111
-0.001075
-0.001011
-0.003175
-0.003078
-0.003121
-0.003122
-0.000908
-0.000927
-0.000886
-0.000805
-0.003450
-0.003476
-0.003491
-0.003435
-0.000795
-0.000805
-0.000814
-0.000825
-0.002530
-0.002489
-0.002550
-0.002503
-0.001711
-0.001637
-0.003367
-0.003358
-0.003338
-0.003337
-0.002826
-0.002867
-0.002806
-0.002893
-0.002719
-0.002367
-0.002540
-0.000832
-0.000848
-0.000837
-0.004527
-0.004531
-0.004511
-0.004507
-0.002134
-0.004112
-0.004065
-0.004071
-0.000957
-0.000912
-0.000919
-0.000888
-0.000759
-0.000760
-0.000772
-0.000772
-0.001716
-0.001721
-0.001748
-0.001680
-0.001993
-0.002038
-0.002028
-0.002018
-0.001970
-0.001926
-0.001478
-0.001522
-0.001514
-0.003005
-0.003024
-0.002843
-0.002289
-0.002253
-0.002117
-0.002771
-0.001316
-0.001331
-0.001377
-0.001371
-0.001354
-0.001351
-0.001370
-0.000853
-0.000867
-0.000875
-0.003759
-0.003669
-0.000849
-0.000707
-0.000723
-0.000721
-0.000737
-0.003167
-0.003172
-0.003448
-0.000952
-0.002417
-0.002412
-0.002434
-0.002432
-0.004755
-0.004727
-0.004725
-0.004700
-0.001830
-0.002014
-0.002051
-0.001743
-0.004240
-0.004215
-0.004248
-0.004224
-0.004173
-0.004242
-0.004152
-0.004234
-0.000708
-0.000690
-0.000668
-0.004323
-0.004315
-0.004347
-0.002047
-0.002016
-0.002061
-0.002052
-0.000777
-0.000688
-0.000691
-0.000667