# vtk DataFile Version 2.0
Test
ASCII
DATASET POLYDATA
POINTS 20431 float
0.000000 0.000000 0.000000
2.000000 0.000000 0.000000
2.000000 4.000000 0.000000
0.000000 4.000000 0.000000
0.000000 0.500000 0.000000
1.500000 2.000000 0.000000
2.000000 2.500000 0.000000
0.400000 0.000000 0.000000
0.800000 0.000000 0.000000
1.200000 0.000000 0.000000
1.600000 0.000000 0.000000
2.000000 0.362557 0.000000
2.000000 0.672798 0.000000
2.000000 0.938272 0.000000
2.000000 1.165439 0.000000
2.000000 1.359826 0.000000
2.000000 1.526163 0.000000
2.000000 1.668499 0.000000
2.000000 1.790295 0.000000
2.000000 1.894517 0.000000
2.000000 1.983700 0.000000
2.000000 2.060013 0.000000
2.000000 2.125315 0.000000
2.000000 2.181194 0.000000
2.000000 2.229010 0.000000
2.000000 2.269926 0.000000
2.000000 2.304938 0.000000
2.000000 2.334898 0.000000
2.000000 2.360534 0.000000
2.000000 2.382472 0.000000
2.000000 2.401244 0.000000
2.000000 2.417307 0.000000
2.000000 2.431052 0.000000
2.000000 2.442814 0.000000
2.000000 2.452878 0.000000
2.000000 2.461491 0.000000
2.000000 2.468860 0.000000
2.000000 2.475167 0.000000
2.000000 2.480563 0.000000
2.000000 2.485180 0.000000
2.000000 2.489132 0.000000
2.000000 2.492513 0.000000
2.000000 2.495406 0.000000
2.000000 2.497882 0.000000
2.000000 2.502286 0.000000
2.000000 2.505266 0.000000
2.000000 2.509150 0.000000
2.000000 2.514212 0.000000
2.000000 2.520809 0.000000
2.000000 2.529407 0.000000
2.000000 2.540613 0.000000
2.000000 2.555218 0.000000
2.000000 2.574253 0.000000
2.000000 2.599061 0.000000
2.000000 2.631395 0.000000
2.000000 2.673536 0.000000
2.000000 2.728460 0.000000
2.000000 2.800043 0.000000
2.000000 2.893339 0.000000
2.000000 3.014933 0.000000
2.000000 3.173410 0.000000
2.000000 3.379956 0.000000
2.000000 3.649152 0.000000
1.600000 4.000000 0.000000
1.200000 4.000000 0.000000
0.800000 4.000000 0.000000
0.400000 4.000000 0.000000
0.000000 3.624996 0.000000
0.000000 3.289970 0.000000
0.000000 2.990661 0.000000
0.000000 2.723261 0.000000
0.000000 2.484368 0.000000
0.000000 2.270943 0.000000
0.000000 2.080271 0.000000
0.000000 1.909926 0.000000
0.000000 1.757741 0.000000
0.000000 1.621780 0.000000
0.000000 1.500314 0.000000
0.000000 1.391797 0.000000
0.000000 1.294849 0.000000
0.000000 1.208237 0.000000
0.000000 1.130858 0.000000
0.000000 1.061728 0.000000
0.000000 0.999968 0.000000
0.000000 0.944792 0.000000
0.000000 0.895499 0.000000
0.000000 0.851460 0.000000
0.000000 0.812117 0.000000
0.000000 0.776968 0.000000
0.000000 0.745565 0.000000
0.000000 0.717511 0.000000
0.000000 0.692448 0.000000
0.000000 0.670056 0.000000
0.000000 0.650052 0.000000
0.000000 0.632180 0.000000
0.000000 0.616213 0.000000
0.000000 0.601949 0.000000
0.000000 0.589205 0.000000
0.000000 0.577820 0.000000
0.000000 0.567649 0.000000
0.000000 0.558562 0.000000
0.000000 0.550444 0.000000
0.000000 0.543191 0.000000
0.000000 0.536712 0.000000
0.000000 0.530923 0.000000
0.000000 0.525751 0.000000
0.000000 0.521131 0.000000
0.000000 0.517003 0.000000
0.000000 0.513315 0.000000
0.000000 0.510021 0.000000
0.000000 0.507078 0.000000
0.000000 0.504448 0.000000
0.000000 0.502099 0.000000
0.000000 0.497804 0.000000
0.000000 0.494785 0.000000
0.000000 0.490633 0.000000
0.000000 0.484924 0.000000
0.000000 0.477074 0.000000
0.000000 0.466279 0.000000
0.000000 0.451436 0.000000
0.000000 0.431025 0.000000
0.000000 0.402959 0.000000
0.000000 0.364366 0.000000
0.000000 0.311297 0.000000
0.000000 0.238324 0.000000
0.000000 0.137980 0.000000
0.001414 0.501414 0.000000
0.002828 0.502828 0.000000
0.004241 0.504241 0.000000
0.005655 0.505655 0.000000
0.007069 0.507069 0.000000
0.008483 0.508483 0.000000
0.009896 0.509896 0.000000
0.011310 0.511310 0.000000
0.012724 0.512724 0.000000
0.014138 0.514138 0.000000
0.015551 0.515551 0.000000
0.016965 0.516965 0.000000
0.018379 0.518379 0.000000
0.019793 0.519793 0.000000
0.021206 0.521206 0.000000
0.022620 0.522620 0.000000
0.024034 0.524034 0.000000
0.025448 0.525448 0.000000
0.026861 0.526861 0.000000
0.028275 0.528275 0.000000
0.029689 0.529689 0.000000
0.031103 0.531103 0.000000
0.032516 0.532516 0.000000
0.033930 0.533930 0.000000
0.035344 0.535344 0.000000
0.036758 0.536758 0.000000
0.038172 0.538172 0.000000
0.039585 0.539585 0.000000
0.040999 0.540999 0.000000
0.042413 0.542413 0.000000
0.043827 0.543827 0.000000
0.045240 0.545240 0.000000
0.046654 0.546654 0.000000
0.048068 0.548068 0.000000
0.049482 0.549482 0.000000
0.050895 0.550895 0.000000
0.052309 0.552309 0.000000
0.053723 0.553723 0.000000
0.055137 0.555137 0.000000
0.056550 0.556550 0.000000
0.057964 0.557964 0.000000
0.059378 0.559378 0.000000
0.060792 0.560792 0.000000
0.062205 0.562205 0.000000
0.063619 0.563619 0.000000
0.065033 0.565033 0.000000
0.066447 0.566447 0.000000
0.067861 0.567861 0.000000
0.069274 0.569274 0.000000
0.070688 0.570688 0.000000
0.072102 0.572102 0.000000
0.073516 0.573516 0.000000
0.074929 0.574929 0.000000
0.076343 0.576343 0.000000
0.077757 0.577757 0.000000
0.079171 0.579171 0.000000
0.080584 0.580584 0.000000
0.081998 0.581998 0.000000
0.083412 0.583412 0.000000
0.084826 0.584826 0.000000
0.086239 0.586239 0.000000
0.087653 0.587653 0.000000
0.089067 0.589067 0.000000
0.090481 0.590481 0.000000
0.091894 0.591894 0.000000
0.093308 0.593308 0.000000
0.094722 0.594722 0.000000
0.096136 0.596136 0.000000
0.097549 0.597549 0.000000
0.098963 0.598963 0.000000
0.100377 0.600377 0.000000
0.101791 0.601791 0.000000
0.103205 0.603205 0.000000
0.104618 0.604618 0.000000
0.106032 0.606032 0.000000
0.107446 0.607446 0.000000
0.108860 0.608860 0.000000
0.110273 0.610273 0.000000
0.111687 0.611687 0.000000
0.113101 0.613101 0.000000
0.114515 0.614515 0.000000
0.115928 0.615928 0.000000
0.117342 0.617342 0.000000
0.118756 0.618756 0.000000
0.120170 0.620170 0.000000
0.121583 0.621583 0.000000
0.122997 0.622997 0.000000
0.124411 0.624411 0.000000
0.125825 0.625825 0.000000
0.127238 0.627238 0.000000
0.128652 0.628652 0.000000
0.130066 0.630066 0.000000
0.131480 0.631480 0.000000
0.132893 0.632893 0.000000
0.134307 0.634307 0.000000
0.135721 0.635721 0.000000
0.137135 0.637135 0.000000
0.138549 0.638549 0.000000
0.139962 0.639962 0.000000
0.141376 0.641376 0.000000
0.142790 0.642790 0.000000
0.144204 0.644204 0.000000
0.145617 0.645617 0.000000
0.147031 0.647031 0.000000
0.148445 0.648445 0.000000
0.149859 0.649859 0.000000
0.151272 0.651272 0.000000
0.152686 0.652686 0.000000
0.154100 0.654100 0.000000
0.155514 0.655514 0.000000
0.156927 0.656927 0.000000
0.158341 0.658341 0.000000
0.159755 0.659755 0.000000
0.161169 0.661169 0.000000
0.162582 0.662582 0.000000
0.163996 0.663996 0.000000
0.165410 0.665410 0.000000
0.166824 0.666824 0.000000
0.168238 0.668238 0.000000
0.169651 0.669651 0.000000
0.171065 0.671065 0.000000
0.172479 0.672479 0.000000
0.173893 0.673893 0.000000
0.175306 0.675306 0.000000
0.176720 0.676720 0.000000
0.178134 0.678134 0.000000
0.179548 0.679548 0.000000
0.180961 0.680961 0.000000
0.182375 0.682375 0.000000
0.183789 0.683789 0.000000
0.185203 0.685203 0.000000
0.186616 0.686616 0.000000
0.188030 0.688030 0.000000
0.189444 0.689444 0.000000
0.190858 0.690858 0.000000
0.192271 0.692271 0.000000
0.193685 0.693685 0.000000
0.195099 0.695099 0.000000
0.196513 0.696513 0.000000
0.197926 0.697926 0.000000
0.199340 0.699340 0.000000
0.200754 0.700754 0.000000
0.202168 0.702168 0.000000
0.203582 0.703582 0.000000
0.204995 0.704995 0.000000
0.206409 0.706409 0.000000
0.207823 0.707823 0.000000
0.209237 0.709237 0.000000
0.210650 0.710650 0.000000
0.212064 0.712064 0.000000
0.213478 0.713478 0.000000
0.214892 0.714892 0.000000
0.216305 0.716305 0.000000
0.217719 0.717719 0.000000
0.219133 0.719133 0.000000
0.220547 0.720547 0.000000
0.221960 0.721960 0.000000
0.223374 0.723374 0.000000
0.224788 0.724788 0.000000
0.226202 0.726202 0.000000
0.227615 0.727615 0.000000
0.229029 0.729029 0.000000
0.230443 0.730443 0.000000
0.231857 0.731857 0.000000
0.233270 0.733270 0.000000
0.234684 0.734684 0.000000
0.236098 0.736098 0.000000
0.237512 0.737512 0.000000
0.238926 0.738926 0.000000
0.240339 0.740339 0.000000
0.241753 0.741753 0.000000
0.243167 0.743167 0.000000
0.244581 0.744581 0.000000
0.245994 0.745994 0.000000
0.247408 0.747408 0.000000
0.248822 0.748822 0.000000
0.250236 0.750236 0.000000
0.251649 0.751649 0.000000
0.253063 0.753063 0.000000
0.254477 0.754477 0.000000
0.255891 0.755891 0.000000
0.257304 0.757304 0.000000
0.258718 0.758718 0.000000
0.260132 0.760132 0.000000
0.261546 0.761546 0.000000
0.262959 0.762959 0.000000
0.264373 0.764373 0.000000
0.265787 0.765787 0.000000
0.267201 0.767201 0.000000
0.268615 0.768615 0.000000
0.270028 0.770028 0.000000
0.271442 0.771442 0.000000
0.272856 0.772856 0.000000
0.274270 0.774270 0.000000
0.275683 0.775683 0.000000
0.277097 0.777097 0.000000
0.278511 0.778511 0.000000
0.279925 0.779925 0.000000
0.281338 0.781338 0.000000
0.282752 0.782752 0.000000
0.284166 0.784166 0.000000
0.285580 0.785580 0.000000
0.286993 0.786993 0.000000
0.288407 0.788407 0.000000
0.289821 0.789821 0.000000
0.291235 0.791235 0.000000
0.292648 0.792648 0.000000
0.294062 0.794062 0.000000
0.295476 0.795476 0.000000
0.296890 0.796890 0.000000
0.298303 0.798303 0.000000
0.299717 0.799717 0.000000
0.301131 0.801131 0.000000
0.302545 0.802545 0.000000
0.303959 0.803959 0.000000
0.305372 0.805372 0.000000
0.306786 0.806786 0.000000
0.308200 0.808200 0.000000
0.309614 0.809614 0.000000
0.311027 0.811027 0.000000
0.312441 0.812441 0.000000
0.313855 0.813855 0.000000
0.315269 0.815269 0.000000
0.316682 0.816682 0.000000
0.318096 0.818096 0.000000
0.319510 0.819510 0.000000
0.320924 0.820924 0.000000
0.322337 0.822337 0.000000
0.323751 0.823751 0.000000
0.325165 0.825165 0.000000
0.326579 0.826579 0.000000
0.327992 0.827992 0.000000
0.329406 0.829406 0.000000
0.330820 0.830820 0.000000
0.332234 0.832234 0.000000
0.333648 0.833648 0.000000
0.335061 0.835061 0.000000
0.336475 0.836475 0.000000
0.337889 0.837889 0.000000
0.339303 0.839303 0.000000
0.340716 0.840716 0.000000
[...]
POINT_DATA 20431
SCALARS UX float 1
LOOKUP_TABLE default
-0.000000
0.000000
0.066494
-0.069357
-0.054240
0.033486
0.066948
-0.000000
-0.000000
0.000000
-0.000000
0.045348
0.059376
0.064835
0.066827
0.067543
0.067747
0.067724
0.067642
0.067546
0.067451
0.067370
0.067300
0.067242
0.067192
0.067151
0.067118
0.067089
0.067066
0.067046
0.067030
0.067016
0.067004
0.066994
0.066986
0.066979
0.066973
0.066968
0.066963
0.066960
0.066956
0.066954
0.066951
0.066949
0.066946
0.066944
0.066941
0.066937
0.066932
0.066925
0.066917
0.066906
0.066892
0.066874
0.066852
0.066824
0.066791
0.066752
0.066704
0.066654
0.066602
0.066549
0.066511
0.039301
0.012119
-0.015049
-0.042205
-0.069355
-0.069356
-0.069368
-0.069403
-0.069463
-0.069539
-0.069621
-0.069686
-0.069701
-0.069649
-0.069527
-0.069318
-0.069005
-0.068600
-0.068109
-0.067546
-0.066920
-0.066243
-0.065536
-0.064807
-0.064072
-0.063338
-0.062624
-0.061920
-0.061248
-0.060609
-0.060000
-0.059430
-0.058896
-0.058400
-0.057941
-0.057516
-0.057126
-0.056769
-0.056443
-0.056145
-0.055874
-0.055627
-0.055404
-0.055201
-0.055018
-0.054853
-0.054703
-0.054569
-0.054447
-0.054338
-0.054136
-0.053993
-0.053793
-0.053516
-0.053126
-0.052580
-0.051785
-0.050645
-0.048961
-0.046335
-0.042277
-0.035860
-0.024514
-0.054220
-0.054201
-0.054181
-0.054160
-0.054139
-0.054118
-0.054096
-0.054074
-0.054052
-0.054029
-0.054006
-0.053983
-0.053959
-0.053934
-0.053910
-0.053885
-0.053859
-0.053834
-0.053808
-0.053781
-0.053755
-0.053728
-0.053701
-0.053673
-0.053645
-0.053617
-0.053588
-0.053559
-0.053530
-0.053501
-0.053471
-0.053441
-0.053411
-0.053380
-0.053349
-0.053318
-0.053286
-0.053255
-0.053223
-0.053191
-0.053158
-0.053125
-0.053092
-0.053059
-0.053025
-0.052992
-0.052958
-0.052923
-0.052889
-0.052854
-0.052819
-0.052784
-0.052748
-0.052712
-0.052676
-0.052640
-0.052603
-0.052567
-0.052530
-0.052493
-0.052455
-0.052418
-0.052380
-0.052342
-0.052304
-0.052266
-0.052228
-0.052189
-0.052150
-0.052111
-0.052071
-0.052032
-0.051992
-0.051952
-0.051912
-0.051871
-0.051831
-0.051790
-0.051749
-0.051707
-0.051666
-0.051624
-0.051582
-0.051540
-0.051498
-0.051455
-0.051412
-0.051369
-0.051326
-0.051283
-0.051240
-0.051196
-0.051152
-0.051108
-0.051064
-0.051019
-0.050974
-0.050930
-0.050885
-0.050839
-0.050794
-0.050748
-0.050702
-0.050656
-0.050610
-0.050563
-0.050517
-0.050470
-0.050423
-0.050376
-0.050328
-0.050281
-0.050233
-0.050185
-0.050136
-0.050088
-0.050039
-0.049990
-0.049941
-0.049892
-0.049843
-0.049793
-0.049743
-0.049693
-0.049643
-0.049592
-0.049542
-0.049491
-0.049440
-0.049389
-0.049338
-0.049286
-0.049234
-0.049182
-0.049130
-0.049078
-0.049026
-0.048973
-0.048920
-0.048867
-0.048814
-0.048760
-0.048707
-0.048653
-0.048599
-0.048545
-0.048491
-0.048436
-0.048381
-0.048327
-0.048271
-0.048216
-0.048161
-0.048105
-0.048049
-0.047993
-0.047937
-0.047881
-0.047824
-0.047768
-0.047711
-0.047654
-0.047596
-0.047539
-0.047481
-0.047424
-0.047366
-0.047308
-0.047249
-0.047191
-0.047132
-0.047074
-0.047015
-0.046956
-0.046896
-0.046837
-0.046777
-0.046717
-0.046657
-0.046597
-0.046537
-0.046477
-0.046416
-0.046355
-0.046295
-0.046234
-0.046172
-0.046111
-0.046050
-0.045988
-0.045926
-0.045864
-0.045802
-0.045740
-0.045677
-0.045615
-0.045552
-0.045489
-0.045426
-0.045363
-0.045299
-0.045236
-0.045172
-0.045108
-0.045045
-0.044980
-0.044916
-0.044852
-0.044787
-0.044722
-0.044658
-0.044593
-0.044527
-0.044462
-0.044397
-0.044331
-0.044265
-0.044200
-0.044134
-0.044067
-0.044001
-0.043935
-0.043868
-0.043801
-0.043734
-0.043667
-0.043600
-0.043533
-0.043466
-0.043398
-0.043330
-0.043263
-0.043195
-0.043126
-0.043058
-0.042990
-0.042921
-0.042853
-0.042784
-0.042715
-0.042646
-0.042577
-0.042507
-0.042438
-0.042368
-0.042299
-0.042229
-0.042159
-0.042089
-0.042018
-0.041948
-0.041878
-0.041807
-0.041736
-0.041665
-0.041594
-0.041523
-0.041452
-0.041380
-0.041309
-0.041237
-0.041165
-0.041093
-0.041021
-0.040949
-0.040877
-0.040804
-0.040732
-0.040659
-0.040586
-0.040514
-0.040440
-0.040367
-0.040294
-0.040221
-0.040147
-0.040073
-0.040000
-0.039926
-0.039852
-0.039778
-0.039703
-0.039629
-0.039554
-0.039480
-0.039405
-0.039330
-0.039255
-0.039180
-0.039105
-0.039029
-0.038954
-0.038878
-0.038803
-0.038727
-0.038651
-0.038575
-0.038499
-0.038422
-0.038346
-0.038270
-0.038193
-0.038116
-0.038039
-0.037963
-0.037885
-0.037808
-0.037731
-0.037654
-0.037576
-0.037498
-0.037421
-0.037343
-0.037265
-0.037187
-0.037109
-0.037031
-0.036952
-0.036874
-0.036795
-0.036717
-0.036638
-0.036559
-0.036480
-0.036401
-0.036322
-0.036242
-0.036163
-0.036083
-0.036004
-0.035924
-0.035844
-0.035764
-0.035684
-0.035604
-0.035524
-0.035444
-0.035363
-0.035283
-0.035202
-0.035121
-0.035041
-0.034960
-0.034879
-0.034797
-0.034716
-0.034635
-0.034554
-0.034472
-0.034390
-0.034309
-0.034227
-0.034145
-0.034063
-0.033981
-0.033899
-0.033816
-0.033734
-0.033651
-0.033569
-0.033486
-0.033403
-0.033321
-0.033238
-0.033155
-0.033071
-0.032988
-0.032905
-0.032821
-0.032738
-0.032654
-0.032570
-0.032487
-0.032403
-0.032319
-0.032235
-0.032151
-0.032066
-0.031982
-0.031897
-0.031813
-0.031728
-0.031644
-0.031559
-0.031474
-0.031389
-0.031304
-0.031219
-0.031133
-0.031048
-0.030963
-0.030877
-0.030792
-0.030706
-0.030620
-0.030534
-0.030448
-0.030362
-0.030276
-0.030190
-0.030104
-0.030017
-0.029931
-0.029844
-0.029758
-0.029671
-0.029584
-0.029497
-0.029410
-0.029323
-0.029236
-0.029149
-0.029062
-0.028974
-0.028887
-0.028799
-0.028712
-0.028624
-0.028536
-0.028448
-0.028360
-0.028272
-0.028184
-0.028096
-0.028008
-0.027920
-0.027831
-0.027743
-0.027654
-0.027565
-0.027477
-0.027388
-0.027299
-0.027210
-0.027121
-0.027032
-0.026943
-0.026853
-0.026764
-0.026675
-0.026585
-0.026496
-0.026406
-0.026316
-0.026227
-0.026137
-0.026047
-0.025957
-0.025867
-0.025777
-0.025686
-0.025596
-0.025506
-0.025415
-0.025325
-0.025234
-0.025144
-0.025053
-0.024962
-0.024871
-0.024780
-0.024689
-0.024598
-0.024507
-0.024416
-0.024325
-0.024234
-0.024142
-0.024051
-0.023959
-0.023868
-0.023776
-0.023684
-0.023593
-0.023501
-0.023409
-0.023317
-0.023225
-0.023133
-0.023041
-0.022949
-0.022856
-0.022764
-0.022672
-0.022579
-0.022487
-0.022394
-0.022301
-0.022209
-0.022116
-0.022023
-0.021930
-0.021837
-0.021744
-0.021651
-0.021558
-0.021465
-0.021372
-0.021279
-0.021185
-0.021092
-0.020998
-0.020905
-0.020811
-0.020718
-0.020624
-0.020530
-0.020436
-0.020343
-0.020249
-0.020155
-0.020061
-0.019967
-0.019873
-0.019778
-0.019684
-0.019590
-0.019496
-0.019401
-0.019307
-0.019212
-0.019118
-0.019023
-0.018929
-0.018834
-0.018739
-0.018644
-0.018550
-0.018455
-0.018360
-0.018265
-0.018170
-0.018075
-0.017980
-0.017885
-0.017789
-0.017694
-0.017599
-0.017503
-0.017408
-0.017313
-0.017217
-0.017122
-0.017026
-0.016930
-0.016835
-0.016739
-0.016643
-0.016548
-0.016452
-0.016356
-0.016260
-0.016164
-0.016068
-0.015972
-0.015876
-0.015780
-0.015684
-0.015587
-0.015491
-0.015395
-0.015299
-0.015202
-0.015106
-0.015009
-0.014913
-0.014817
-0.014720
-0.014623
-0.014527
-0.014430
-0.014333
-0.014237
-0.014140
-0.014043
-0.013946
-0.013850
-0.013753
-0.013656
-0.013559
-0.013462
-0.013365
-0.013268
-0.013171
-0.013073
-0.012976
-0.012879
-0.012782
-0.012685
-0.012587
-0.012490
-0.012393
-0.012295
-0.012198
-0.012100
-0.012003
-0.011906
-0.011808
-0.011710
-0.011613
-0.011515
-0.011418
-0.011320
-0.011222
-0.011125
-0.011027
-0.010929
-0.010831
-0.010733
-0.010636
-0.010538
-0.010440
-0.010342
-0.010244
-0.010146
-0.010048
-0.009950
-0.009852
-0.009754
-0.009656
-0.009558
-0.009460
-0.009362
-0.009263
-0.009165
-0.009067
-0.008969
-0.008871
-0.008772
-0.008674
-0.008576
-0.008477
-0.008379
-0.008281
-0.008182
-0.008084
-0.007985
-0.007887
-0.007788
-0.007690
-0.007591
-0.007493
-0.007394
-0.007296
-0.007197
-0.007099
-0.007000
-0.006901
-0.006803
-0.006704
-0.006606
-0.006507
-0.006408
-0.006309
-0.006211
-0.006112
-0.006013
-0.005914
-0.005816
-0.005717
-0.005618
-0.005519
-0.005420
-0.005322
-0.005223
-0.005124
-0.005025
-0.004926
-0.004827
-0.004728
-0.004629
-0.004531
-0.004432
-0.004333
-0.004234
-0.004135
-0.004036
-0.003937
-0.003838
-0.003739
-0.003640
-0.003541
-0.003442
-0.003343
-0.003244
-0.003145
-0.003045
-0.002946
-0.002847
-0.002748
-0.002649
-0.002550
-0.002451
-0.002352
-0.002253
-0.002154
-0.002054
-0.001955
-0.001856
-0.001757
-0.001658
-0.001559
-0.001460
-0.001360
-0.001261
-0.001162
-0.001063
-0.000964
-0.000865
-0.000765
-0.000666
-0.000567
-0.000468
-0.000369
-0.000270
-0.000170
-0.000071
0.000028
0.000127
0.000226
0.000326
0.000425
0.000524
0.000623
0.000722
0.000822
0.000921
0.001020
0.001119
0.001218
0.001318
0.001417
0.001516
0.001615
0.001714
0.001814
0.001913
0.002012
0.002111
0.002210
0.002310
0.002409
0.002508
0.002607
0.002706
0.002805
0.002905
0.003004
0.003103
0.003202
0.003301
0.003400
0.003500
0.003599
0.003698
0.003797
0.003896
0.003995
0.004094
0.004193
0.004293
0.004392
0.004491
0.004590
0.004689
0.004788
0.004887
0.004986
0.005085
0.005184
0.005283
0.005382
0.005481
0.005580
0.005679
0.005778
0.005877
0.005976
0.006075
0.006174
0.006273
0.006372
0.006471
0.006570
0.006669
0.006768
0.006867
0.006966
0.007065
0.007164
0.007263
0.007362
0.007460
0.007559
0.007658
0.007757
0.007856
0.007955
0.008053
0.008152
0.008251
0.008350
0.008449
0.008547
0.008646
0.008745
0.008844
0.008942
0.009041
0.009140
0.009239
0.009337
0.009436
0.009535
0.009633
0.009732
0.009830
0.009929
0.010028
0.010126
0.010225
0.010324
0.010422
0.010521
0.010619
0.010718
0.010816
0.010915
0.011013
0.011112
0.011210
0.011309
0.011407
0.011506
0.011604
0.011702
0.011801
0.011899
0.011998
0.012096
0.012194
0.012293
0.012391
0.012489
0.012588
0.012686
0.012784
0.012882
0.012981
0.013079
0.013177
0.013275
0.013374
0.013472
0.013570
0.013668
0.013766
0.013864
0.013962
0.014060
0.014159
0.014257
0.014355
0.014453
0.014551
0.014649
0.014747
0.014845
0.014943
0.015041
0.015139
0.015237
0.015335
0.015432
0.015530
0.015628
0.015726
0.015824
0.015922
0.016020
0.016117
0.016215
0.016313
0.016411
0.016508
0.016606
0.016704
0.016802
0.016899
0.016997
0.017095
0.017192
0.017290
0.017388
0.017485
0.017583
0.017680
0.017778
0.017875
0.017973
0.018070
0.018168
0.018265
0.018363
0.018460
0.018558
0.018655
0.018753
0.018850
0.018947
0.019045
0.019142
0.019239
0.019337
0.019434
0.019531
0.019628
0.019726
0.019823
0.019920
0.020017
0.020115
0.020212
0.020309
0.020406
0.020503
0.020600
0.020697
0.020795
0.020892
0.020989
0.021086
0.021183
0.021280
0.021377
0.021474
0.021571
0.021668
0.021765
0.021861
0.021958
0.022055
0.022152
0.022249
0.022346
0.022443
0.022540
0.022636
0.022733
0.022830
0.022927
0.023023
0.023120
0.023217
0.023313
0.023410
0.023507
0.023604
0.023700
0.023797
0.023893
0.023990
0.024087
0.024183
0.024280
0.024376
0.024473
0.024569
0.024666
0.024762
0.024859
0.024955
0.025052
0.025148
0.025244
0.025341
0.025437
0.025534
0.025630
0.025726
0.025823
0.025919
0.026015
0.026111
0.026208
0.026304
0.026400
0.026496
0.026593
0.026689
0.026785
0.026881
0.026977
0.027073
0.027169
0.027266
0.027362
0.027458
0.027554
0.027650
0.027746
0.027842
0.027938
0.028034
0.028130
0.028226
0.028322
0.028418
0.028514
0.028610
0.028706
0.028802
0.028897
0.028993
0.029089
0.029185
0.029281
0.029377
0.029472
0.029568
0.029664
0.029760
0.029856
0.029951
0.030047
0.030143
0.030238
0.030334
0.030430
0.030525
0.030621
0.030717
0.030812
0.030908
0.031004
0.031099
0.031195
0.031290
0.031386
0.031482
0.031577
0.031673
0.031768
0.031864
0.031959
0.032055
0.032150
0.032246
0.032341
0.032436
0.032532
0.032627
0.032723
0.032818
0.032913
0.033009
0.033104
0.033200
0.033295
0.033390
0.033581
0.033676
0.033771
0.033866
0.033962
0.034057
0.034152
0.034247
0.034342
0.034437
0.034532
0.034628
0.034723
0.034818
0.034913
0.035008
0.035103
0.035198
0.035293
0.035388
0.035483
0.035578
0.035673
0.035768
0.035863
0.035958
0.036053
0.036148
0.036243
0.036338
0.036433
0.036528
0.036623
0.036718
0.036812
0.036907
0.037002
0.037097
0.037192
0.037287
0.037382
0.037476
0.037571
0.037666
0.037761
0.037856
0.037951
0.038045
0.038140
0.038235
0.038330
0.038424
0.038519
0.038614
0.038709
0.038803
0.038898
0.038993
0.039088
0.039182
0.039277
0.039372
0.039466
0.039561
0.039656
0.039750
0.039845
0.039940
0.040034
0.040129
0.040224
0.040318
0.040413
0.040507
0.040602
0.040697
0.040791
0.040886
0.040980
0.041075
0.041169
0.041264
0.041359
0.041453
0.041548
0.041642
0.041737
0.041831
0.041926
0.042020
0.042115
0.042209
0.042304
0.042398
0.042493
0.042587
0.042682
0.042776
0.042871
0.042965
0.043060
0.043154
0.043249
0.043343
0.043437
0.043532
0.043626
0.043721
0.043815
0.043910
0.044004
0.044098
0.044193
0.044287
0.044382
0.044476
0.044570
0.044665
0.044759
0.044854
0.044948
0.045042
0.045137
0.045231
0.045326
0.045420
0.045514
0.045609
0.045703
0.045797
0.045892
0.045986
0.046080
0.046175
0.046269
0.046363
0.046458
0.046552
0.046646
0.046741
0.046835
0.046929
0.047024
0.047118
0.047212
0.047307
0.047401
0.047495
0.047590
0.047684
0.047778
0.047873
0.047967
0.048061
0.048155
0.048250
0.048344
0.048438
0.048533
0.048627
0.048721
0.048815
0.048910
0.049004
0.049098
0.049193
0.049287
0.049381
0.049475
0.049570
0.049664
0.049758
0.049853
0.049947
0.050041
0.050135
0.050230
0.050324
0.050418
0.050512
0.050607
0.050701
0.050795
0.050890
0.050984
0.051078
0.051172
0.051267
0.051361
0.051455
0.051550
0.051644
0.051738
0.051832
0.051927
0.052021
0.052115
0.052209
0.052304
0.052398
0.052492
0.052587
0.052681
0.052775
0.052869
0.052964
0.053058
0.053152
0.053247
0.053341
0.053435
0.053530
0.053624
0.053718
0.053812
0.053907
0.054001
0.054095
0.054190
0.054284
0.054378
0.054473
0.054567
0.054661
0.054755
0.054850
0.054944
0.055038
0.055133
0.055227
0.055321
0.055416
0.055510
0.055604
0.055699
0.055793
0.055887
0.055982
0.056076
0.056170
0.056265
0.056359
0.056453
0.056548
0.056642
0.056737
0.056831
0.056925
0.057020
0.057114
0.057208
0.057303
0.057397
0.057491
0.057586
0.057680
0.057775
0.057869
0.057963
0.058058
0.058152
0.058247
0.058341
0.058435
0.058530
0.058624
0.058719
0.058813
0.058908
0.059002
0.059096
0.059191
0.059285
0.059380
0.059474
0.059569
0.059663
0.059757
0.059852
0.059946
0.060041
0.060135
0.060230
0.060324
0.060419
0.060513
0.060608
0.060702
0.060797
0.060891
0.060986
0.061080
0.061175
0.061269
0.061364
0.061458
0.061553
0.061647
0.061742
0.061836
0.061931
0.062026
0.062120
0.062215
0.062309
0.062404
0.062498
0.062593
0.062687
0.062782
0.062877
0.062971
0.063066
0.063160
0.063255
0.063350
0.063444
0.063539
0.063633
0.063728
0.063823
0.063917
0.064012
0.064107
0.064201
0.064296
0.064391
0.064485
0.064580
0.064675
0.064769
0.064864
0.064959
0.065053
0.065148
0.065243
0.065337
0.065432
0.065527
0.065621
0.065716
0.065811
0.065906
0.066000
0.066095
0.066190
0.066284
0.066379
0.066474
0.066569
0.066663
0.066758
0.066853
0.047642
0.047688
0.047542
0.042601
0.042671
0.042738
-0.034435
-0.034385
-0.034531
-0.034592
-0.018130
0.054129
0.054300
0.054336
0.054439
0.045724
0.045572
0.045620
-0.018489
-0.018390
-0.018509
-0.018335
-0.050011
-0.050082
-0.049907
-0.049929
-0.019109
-0.019036
-0.018965
0.018685
0.018534
0.018619
0.018669
-0.031305
-0.032124
-0.037842
-0.038988
0.013205
0.013056
0.013114
0.013101
-0.014571
-0.014883
-0.014616
-0.014630
0.034692
0.034407
0.034115
0.035061
-0.050237
-0.050179
-0.050006
0.016240
0.016222
0.016398
0.016478
0.000812
-0.003083
-0.002150
-0.005379
0.007999
0.008212
0.008296
-0.026718
-0.025461
-0.026772
-0.004411
-0.004314
-0.004551
-0.004446
0.042137
0.042641
0.042591
0.043110
-0.001101
-0.000759
-0.000901
-0.000411
0.014166
0.014317
0.014049
0.014388
0.013200
0.013308
0.013119
0.013396
-0.007182
-0.007207
-0.007337
-0.007414
0.047285
0.047220
0.047043
-0.019870
-0.020148
-0.019955
0.008012
0.046979
0.046804
0.046799
0.047061
0.021645
0.021816
0.021738
-0.000330
-0.000294
-0.000437
0.021804
0.013058
0.012578
0.012406
-0.000179
0.025003
0.024896
0.024670
0.039295
0.039464
0.039268
0.039539
0.024227
0.024322
0.024152
0.024382
0.024610
-0.043176
-0.043372
-0.043271
0.055690
0.055530
0.055795
-0.043458
-0.030168
-0.030295
-0.030418
-0.030050
-0.024307
-0.024194
-0.024593
-0.024317
-0.013600
-0.013891
-0.013681
0.007131
0.007295
0.007087
0.007235
-0.013937
0.021748
0.021872
0.021647
-0.023078
-0.023307
-0.023092
-0.025231
-0.025539
-0.025778
0.021868
0.043304
0.043347
0.043139
-0.038531
-0.038467
-0.038387
0.046387
0.046567
0.046579
0.046419
0.027303
0.027049
0.027151
0.026779
0.000848
-0.000477
0.000884
0.000547
0.020519
0.021066
0.019624
0.021895
-0.036410
-0.036303
-0.036622
-0.036092
0.063020
0.062895
-0.052487
-0.052044
-0.051792
-0.051303
-0.034026
-0.033137
-0.031099
-0.036616
0.065113
0.065161
0.065387
-0.039250
-0.036127
-0.039455
-0.039677
-0.038852
0.044945
0.044912
0.044683
0.017606
0.017515
0.017728
0.017659
0.001281
0.000886
0.001170
-0.050801
-0.050780
-0.051063
-0.050829
0.065201
0.064827
0.065314
0.064709
0.055796
0.055963
0.056140
0.044620
0.026874
0.026686
0.026493
0.026345
-0.005981
-0.005872
-0.005744
-0.006066
-0.010774
-0.011397
-0.013118
0.056962
0.056912
0.056424
0.056623
-0.014427
-0.014064
-0.015812
-0.015068
0.026398
0.026418
0.026246
0.015329
0.015855
0.020270
0.011150
-0.044947
-0.045181
-0.044449
-0.045994
0.060131
0.060271
0.013677
0.013658
0.013757
0.026566
0.001707
0.002403
0.002876
0.003258
-0.024505
-0.024749
-0.024643
-0.024624
-0.023760
-0.027409
-0.026242
-0.023883
-0.005500
-0.005217
-0.005704
-0.005641
-0.029497
-0.028574
-0.027888
-0.027161
0.059259
0.059587
0.059799
0.059243
-0.027112
-0.027070
-0.026985
-0.056166
-0.058555
-0.056251
-0.056488
-0.047726
-0.047861
-0.047885
-0.008803
-0.008837
-0.018458
-0.018484
-0.019647
-0.017404
0.024731
0.023251
0.023454
0.021814
0.003461
0.009503
0.008708
0.007739
0.032391
0.032514
0.031594
0.031595
0.052828
0.051601
0.052011
0.052738
-0.022668
-0.022580
-0.023317
-0.023455
-0.019217
-0.019136
-0.019022
-0.019392
0.036150
0.036718
0.036287
0.036643
0.035625
0.035563
0.036253
-0.004481
-0.004309
-0.004269
-0.004472
0.062454
0.061758
0.062398
0.047015
-0.011882
-0.013195
-0.012531
-0.012450
0.052041
0.052090
0.051783
0.051899
0.010049
0.010233
0.010096
0.010312
0.024738
0.025027
-0.006766
-0.006269
-0.005846
-0.005488
-0.001781
-0.001762
-0.000126
-0.003462
-0.000685
-0.000583
-0.000507
0.058055
0.057856
0.057836
-0.034793
-0.034898
-0.034390
-0.034351
-0.000463
-0.029624
-0.027714
-0.029149
0.052957
0.053203
0.053607
0.053845
0.049521
0.049417
0.049398
0.049232
0.023480
0.022962
0.022828
0.023974
0.020258
0.020084
0.020004
0.020283
0.020154
0.020371
0.025917
0.025150
0.025650
-0.003567
-0.003718
-0.003538
0.014729
0.012754
0.017435
-0.003610
0.033706
0.034095
0.032898
0.028643
0.028861
0.028850
0.028708
0.042869
0.042906
0.042647
-0.029813
-0.026484
0.043090
0.040690
0.040625
0.040516
0.040464
-0.023465
-0.023372
-0.023506
0.052273
0.014078
0.014149
0.013712
0.013641
-0.042681
-0.041319
-0.041817
-0.040689
0.017141
0.017117
0.016966
0.017290
-0.028265
-0.027753
-0.029042
-0.027542
-0.034303
-0.035021
-0.032242
-0.036877
0.036558
0.036476
0.036724
-0.029627
-0.029372
-0.030029
0.018843
0.018798
0.018125
0.017681
0.045708
0.037881
0.037694
0.037876
0.028413
0.029358
0.028564
0.029217
-0.007145
-0.007920
-0.008091
0.037690
0.039987
0.040296
0.039993
0.020124
0.020576
0.020797
0.021251
0.024911
0.023281
-0.014165
-0.014680
-0.013973
-0.015141
-0.039300
-0.041170
-0.041172
-0.038252
-0.029736
-0.030187
0.012315
0.012222
0.012936
0.040157
-0.008689
-0.007108
-0.006491
-0.009102
0.019813
0.021763
0.029725
0.029835
0.029758
-0.029473
-0.029050
-0.028915
0.029939
-0.023721
-0.023680
-0.023569
0.042009
0.041815
0.041929
0.041734
-0.015690
-0.015619
-0.015552
-0.027737
-0.032085
0.007500
0.007458
0.007363
0.044659
0.044623
0.044513
0.044455
0.029860
0.029975
0.030054
0.010849
0.010249
0.010088
0.009222
0.028906
0.028756
0.028820
0.028663
0.025218
0.025292
0.025149
0.039876
0.040009
0.040084
0.028888
0.028698
0.029793
0.040145
-0.035999
-0.036003
-0.035848
0.027945
0.021480
0.021035
0.021689
0.029823
-0.038302
-0.038240
-0.038339
0.015039
0.011786
0.013107
-0.036153
0.037497
0.037504
0.037714
0.053750
0.053825
0.053652
0.053751