# vtk DataFile Version 2.0
Test
ASCII
DATASET POLYDATA
POINTS 20431 float
0.000000 0.000000 0.000000
2.000000 0.000000 0.000000
2.000000 4.000000 0.000000
0.000000 4.000000 0.000000
0.000000 0.500000 0.000000
1.500000 2.000000 0.000000
2.000000 2.500000 0.000000
0.400000 0.000000 0.000000
0.800000 0.000000 0.000000
1.200000 0.000000 0.000000
1.600000 0.000000 0.000000
2.000000 0.362557 0.000000
2.000000 0.672798 0.000000
2.000000 0.938272 0.000000
2.000000 1.165439 0.000000
2.000000 1.359826 0.000000
2.000000 1.526163 0.000000
2.000000 1.668499 0.000000
2.000000 1.790295 0.000000
2.000000 1.894517 0.000000
2.000000 1.983700 0.000000
2.000000 2.060013 0.000000
2.000000 2.125315 0.000000
2.000000 2.181194 0.000000
2.000000 2.229010 0.000000
2.000000 2.269926 0.000000
2.000000 2.304938 0.000000
2.000000 2.334898 0.000000
2.000000 2.360534 0.000000
2.000000 2.382472 0.000000
2.000000 2.401244 0.000000
2.000000 2.417307 0.000000
2.000000 2.431052 0.000000
2.000000 2.442814 0.000000
2.000000 2.452878 0.000000
2.000000 2.461491 0.000000
2.000000 2.468860 0.000000
2.000000 2.475167 0.000000
2.000000 2.480563 0.000000
2.000000 2.485180 0.000000
2.000000 2.489132 0.000000
2.000000 2.492513 0.000000
2.000000 2.495406 0.000000
2.000000 2.497882 0.000000
2.000000 2.502286 0.000000
2.000000 2.505266 0.000000
2.000000 2.509150 0.000000
2.000000 2.514212 0.000000
2.000000 2.520809 0.000000
2.000000 2.529407 0.000000
2.000000 2.540613 0.000000
2.000000 2.555218 0.000000
2.000000 2.574253 0.000000
2.000000 2.599061 0.000000
2.000000 2.631395 0.000000
2.000000 2.673536 0.000000
2.000000 2.728460 0.000000
2.000000 2.800043 0.000000
2.000000 2.893339 0.000000
2.000000 3.014933 0.000000
2.000000 3.173410 0.000000
2.000000 3.379956 0.000000
2.000000 3.649152 0.000000
1.600000 4.000000 0.000000
1.200000 4.000000 0.000000
0.800000 4.000000 0.000000
0.400000 4.000000 0.000000
0.000000 3.624996 0.000000
0.000000 3.289970 0.000000
0.000000 2.990661 0.000000
0.000000 2.723261 0.000000
0.000000 2.484368 0.000000
0.000000 2.270943 0.000000
0.000000 2.080271 0.000000
0.000000 1.909926 0.000000
0.000000 1.757741 0.000000
0.000000 1.621780 0.000000
0.000000 1.500314 0.000000
0.000000 1.391797 0.000000
0.000000 1.294849 0.000000
0.000000 1.208237 0.000000
0.000000 1.130858 0.000000
0.000000 1.061728 0.000000
0.000000 0.999968 0.000000
0.000000 0.944792 0.000000
0.000000 0.895499 0.000000
0.000000 0.851460 0.000000
0.000000 0.812117 0.000000
0.000000 0.776968 0.000000
0.000000 0.745565 0.000000
0.000000 0.717511 0.000000
0.000000 0.692448 0.000000
0.000000 0.670056 0.000000
0.000000 0.650052 0.000000
0.000000 0.632180 0.000000
0.000000 0.616213 0.000000
0.000000 0.601949 0.000000
0.000000 0.589205 0.000000
0.000000 0.577820 0.000000
0.000000 0.567649 0.000000
0.000000 0.558562 0.000000
0.000000 0.550444 0.000000
0.000000 0.543191 0.000000
0.000000 0.536712 0.000000
0.000000 0.530923 0.000000
0.000000 0.525751 0.000000
0.000000 0.521131 0.000000
0.000000 0.517003 0.000000
0.000000 0.513315 0.000000
0.000000 0.510021 0.000000
0.000000 0.507078 0.000000
0.000000 0.504448 0.000000
0.000000 0.502099 0.000000
0.000000 0.497804 0.000000
0.000000 0.494785 0.000000
0.000000 0.490633 0.000000
0.000000 0.484924 0.000000
0.000000 0.477074 0.000000
0.000000 0.466279 0.000000
0.000000 0.451436 0.000000
0.000000 0.431025 0.000000
0.000000 0.402959 0.000000
0.000000 0.364366 0.000000
0.000000 0.311297 0.000000
0.000000 0.238324 0.000000
0.000000 0.137980 0.000000
0.001414 0.501414 0.000000
0.002828 0.502828 0.000000
0.004241 0.504241 0.000000
0.005655 0.505655 0.000000
0.007069 0.507069 0.000000
0.008483 0.508483 0.000000
0.009896 0.509896 0.000000
0.011310 0.511310 0.000000
0.012724 0.512724 0.000000
0.014138 0.514138 0.000000
0.015551 0.515551 0.000000
0.016965 0.516965 0.000000
0.018379 0.518379 0.000000
0.019793 0.519793 0.000000
0.021206 0.521206 0.000000
0.022620 0.522620 0.000000
0.024034 0.524034 0.000000
0.025448 0.525448 0.000000
0.026861 0.526861 0.000000
0.028275 0.528275 0.000000
0.029689 0.529689 0.000000
0.031103 0.531103 0.000000
0.032516 0.532516 0.000000
0.033930 0.533930 0.000000
0.035344 0.535344 0.000000
0.036758 0.536758 0.000000
0.038172 0.538172 0.000000
0.039585 0.539585 0.000000
0.040999 0.540999 0.000000
0.042413 0.542413 0.000000
0.043827 0.543827 0.000000
0.045240 0.545240 0.000000
0.046654 0.546654 0.000000
0.048068 0.548068 0.000000
0.049482 0.549482 0.000000
0.050895 0.550895 0.000000
0.052309 0.552309 0.000000
0.053723 0.553723 0.000000
0.055137 0.555137 0.000000
0.056550 0.556550 0.000000
0.057964 0.557964 0.000000
0.059378 0.559378 0.000000
0.060792 0.560792 0.000000
0.062205 0.562205 0.000000
0.063619 0.563619 0.000000
0.065033 0.565033 0.000000
0.066447 0.566447 0.000000
0.067861 0.567861 0.000000
0.069274 0.569274 0.000000
0.070688 0.570688 0.000000
0.072102 0.572102 0.000000
0.073516 0.573516 0.000000
0.074929 0.574929 0.000000
0.076343 0.576343 0.000000
0.077757 0.577757 0.000000
0.079171 0.579171 0.000000
0.080584 0.580584 0.000000
0.081998 0.581998 0.000000
0.083412 0.583412 0.000000
0.084826 0.584826 0.000000
0.086239 0.586239 0.000000
0.087653 0.587653 0.000000
0.089067 0.589067 0.000000
0.090481 0.590481 0.000000
0.091894 0.591894 0.000000
0.093308 0.593308 0.000000
0.094722 0.594722 0.000000
0.096136 0.596136 0.000000
0.097549 0.597549 0.000000
0.098963 0.598963 0.000000
0.100377 0.600377 0.000000
0.101791 0.601791 0.000000
0.103205 0.603205 0.000000
0.104618 0.604618 0.000000
0.106032 0.606032 0.000000
0.107446 0.607446 0.000000
0.108860 0.608860 0.000000
0.110273 0.610273 0.000000
0.111687 0.611687 0.000000
0.113101 0.613101 0.000000
0.114515 0.614515 0.000000
0.115928 0.615928 0.000000
0.117342 0.617342 0.000000
0.118756 0.618756 0.000000
0.120170 0.620170 0.000000
0.121583 0.621583 0.000000
0.122997 0.622997 0.000000
0.124411 0.624411 0.000000
0.125825 0.625825 0.000000
0.127238 0.627238 0.000000
0.128652 0.628652 0.000000
0.130066 0.630066 0.000000
0.131480 0.631480 0.000000
0.132893 0.632893 0.000000
0.134307 0.634307 0.000000
0.135721 0.635721 0.000000
0.137135 0.637135 0.000000
0.138549 0.638549 0.000000
0.139962 0.639962 0.000000
0.141376 0.641376 0.000000
0.142790 0.642790 0.000000
0.144204 0.644204 0.000000
0.145617 0.645617 0.000000
0.147031 0.647031 0.000000
0.148445 0.648445 0.000000
0.149859 0.649859 0.000000
0.151272 0.651272 0.000000
0.152686 0.652686 0.000000
0.154100 0.654100 0.000000
0.155514 0.655514 0.000000
0.156927 0.656927 0.000000
0.158341 0.658341 0.000000
0.159755 0.659755 0.000000
0.161169 0.661169 0.000000
0.162582 0.662582 0.000000
0.163996 0.663996 0.000000
0.165410 0.665410 0.000000
0.166824 0.666824 0.000000
0.168238 0.668238 0.000000
0.169651 0.669651 0.000000
0.171065 0.671065 0.000000
0.172479 0.672479 0.000000
0.173893 0.673893 0.000000
0.175306 0.675306 0.000000
0.176720 0.676720 0.000000
0.178134 0.678134 0.000000
0.179548 0.679548 0.000000
0.180961 0.680961 0.000000
0.182375 0.682375 0.000000
0.183789 0.683789 0.000000
0.185203 0.685203 0.000000
0.186616 0.686616 0.000000
0.188030 0.688030 0.000000
0.189444 0.689444 0.000000
0.190858 0.690858 0.000000
0.192271 0.692271 0.000000
0.193685 0.693685 0.000000
0.195099 0.695099 0.000000
0.196513 0.696513 0.000000
0.197926 0.697926 0.000000
0.199340 0.699340 0.000000
0.200754 0.700754 0.000000
0.202168 0.702168 0.000000
0.203582 0.703582 0.000000
0.204995 0.704995 0.000000
0.206409 0.706409 0.000000
0.207823 0.707823 0.000000
0.209237 0.709237 0.000000
0.210650 0.710650 0.000000
0.212064 0.712064 0.000000
0.213478 0.713478 0.000000
0.214892 0.714892 0.000000
0.216305 0.716305 0.000000
0.217719 0.717719 0.000000
0.219133 0.719133 0.000000
0.220547 0.720547 0.000000
0.221960 0.721960 0.000000
0.223374 0.723374 0.000000
0.224788 0.724788 0.000000
0.226202 0.726202 0.000000
0.227615 0.727615 0.000000
0.229029 0.729029 0.000000
0.230443 0.730443 0.000000
0.231857 0.731857 0.000000
0.233270 0.733270 0.000000
0.234684 0.734684 0.000000
0.236098 0.736098 0.000000
0.237512 0.737512 0.000000
0.238926 0.738926 0.000000
0.240339 0.740339 0.000000
0.241753 0.741753 0.000000
0.243167 0.743167 0.000000
0.244581 0.744581 0.000000
0.245994 0.745994 0.000000
0.247408 0.747408 0.000000
0.248822 0.748822 0.000000
0.250236 0.750236 0.000000
0.251649 0.751649 0.000000
0.253063 0.753063 0.000000
0.254477 0.754477 0.000000
0.255891 0.755891 0.000000
0.257304 0.757304 0.000000
0.258718 0.758718 0.000000
0.260132 0.760132 0.000000
0.261546 0.761546 0.000000
0.262959 0.762959 0.000000
0.264373 0.764373 0.000000
0.265787 0.765787 0.000000
0.267201 0.767201 0.000000
0.268615 0.768615 0.000000
0.270028 0.770028 0.000000
0.271442 0.771442 0.000000
0.272856 0.772856 0.000000
0.274270 0.774270 0.000000
0.275683 0.775683 0.000000
0.277097 0.777097 0.000000
0.278511 0.778511 0.000000
0.279925 0.779925 0.000000
0.281338 0.781338 0.000000
0.282752 0.782752 0.000000
0.284166 0.784166 0.000000
0.285580 0.785580 0.000000
0.286993 0.786993 0.000000
0.288407 0.788407 0.000000
0.289821 0.789821 0.000000
0.291235 0.791235 0.000000
0.292648 0.792648 0.000000
0.294062 0.794062 0.000000
0.295476 0.795476 0.000000
0.296890 0.796890 0.000000
0.298303 0.798303 0.000000
0.299717 0.799717 0.000000
0.301131 0.801131 0.000000
0.302545 0.802545 0.000000
0.303959 0.803959 0.000000
0.305372 0.805372 0.000000
0.306786 0.806786 0.000000
0.308200 0.808200 0.000000
0.309614 0.809614 0.000000
0.311027 0.811027 0.000000
0.312441 0.812441 0.000000
0.313855 0.813855 0.000000
0.315269 0.815269 0.000000
0.316682 0.816682 0.000000
0.318096 0.818096 0.000000
0.319510 0.819510 0.000000
0.320924 0.820924 0.000000
0.322337 0.822337 0.000000
0.323751 0.823751 0.000000
0.325165 0.825165 0.000000
0.326579 0.826579 0.000000
0.327992 0.827992 0.000000
0.329406 0.829406 0.000000
0.330820 0.830820 0.000000
0.332234 0.832234 0.000000
0.333648 0.833648 0.000000
0.335061 0.835061 0.000000
0.336475 0.836475 0.000000
0.337889 0.837889 0.000000
0.339303 0.839303 0.000000
0.340716 0.840716 0.000000
[...]
POINT_DATA 20431
SCALARS UX float 1
LOOKUP_TABLE default
-0.000000
0.000000
-0.002564
-0.008082
-0.002542
-0.000717
-0.001230
-0.000000
-0.000000
0.000000
-0.000000
0.002065
0.002771
0.003109
0.003262
0.003302
0.003224
0.003011
0.002653
0.002185
0.001650
0.001139
0.000688
0.000313
0.000011
-0.000229
-0.000419
-0.000570
-0.000692
-0.000790
-0.000869
-0.000934
-0.000988
-0.001032
-0.001069
-0.001100
-0.001126
-0.001148
-0.001166
-0.001181
-0.001194
-0.001206
-0.001215
-0.001223
-0.001237
-0.001247
-0.001259
-0.001274
-0.001295
-0.001320
-0.001353
-0.001394
-0.001446
-0.001508
-0.001583
-0.001673
-0.001779
-0.001896
-0.002027
-0.002163
-0.002293
-0.002428
-0.002521
-0.003823
-0.004993
-0.006060
-0.007074
-0.007989
-0.007802
-0.007549
-0.007304
-0.007123
-0.007028
-0.007029
-0.007101
-0.007228
-0.007373
-0.007524
-0.007667
-0.007795
-0.007904
-0.007994
-0.008065
-0.008121
-0.008162
-0.008192
-0.008214
-0.008230
-0.008241
-0.008248
-0.008250
-0.008248
-0.008241
-0.008227
-0.008210
-0.008187
-0.008156
-0.008116
-0.008066
-0.008017
-0.007975
-0.007944
-0.007905
-0.007855
-0.007829
-0.007786
-0.007734
-0.007668
-0.007553
-0.007456
-0.007312
-0.005327
-0.004509
-0.002530
-0.002395
-0.002304
-0.002171
-0.002078
-0.002014
-0.001954
-0.001889
-0.001818
-0.001724
-0.001580
-0.001350
-0.000929
-0.002534
-0.002509
-0.003144
-0.002785
-0.002521
-0.002560
-0.002887
-0.002883
-0.002733
-0.002668
-0.002784
-0.003042
-0.003133
-0.003136
-0.003128
-0.003013
-0.003426
-0.003147
-0.003134
-0.003437
-0.003798
-0.004304
-0.004303
-0.004207
-0.003581
-0.003540
-0.003534
-0.003566
-0.003463
-0.003490
-0.004498
-0.004482
-0.004491
-0.004497
-0.004441
-0.004434
-0.004419
-0.004429
-0.004677
-0.004673
-0.004670
-0.004690
-0.004739
-0.004642
-0.004752
-0.004671
-0.004751
-0.004780
-0.004748
-0.004747
-0.004819
-0.003654
-0.003635
-0.003565
-0.003603
-0.003608
-0.003602
-0.003565
-0.004963
-0.004892
-0.003960
-0.003992
-0.003976
-0.003964
-0.003964
-0.003980
-0.003971
-0.003960
-0.003931
-0.003930
-0.003872
-0.003881
-0.003859
-0.003465
-0.003840
-0.003904
-0.003893
-0.004078
-0.004514
-0.004663
-0.004614
-0.004527
-0.004496
-0.004507
-0.004435
-0.004471
-0.004508
-0.004461
-0.004417
-0.004664
-0.004778
-0.004709
-0.004531
-0.004462
-0.004690
-0.004732
-0.004482
-0.004738
-0.004680
-0.004661
-0.004687
-0.004668
-0.004734
-0.004610
-0.004692
-0.004669
-0.004694
-0.004703
-0.004766
-0.004608
-0.005082
-0.005363
-0.005107
-0.005162
-0.005211
-0.005197
-0.005133
-0.004711
-0.004716
-0.004570
-0.004322
-0.004284
-0.004266
-0.004262
-0.004192
-0.004192
-0.004272
-0.004166
-0.004076
-0.004151
-0.004649
-0.004648
-0.004675
-0.004239
-0.004553
-0.004499
-0.004139
-0.004205
-0.004129
-0.004081
-0.004090
-0.004117
-0.004123
-0.004079
-0.004078
-0.003582
-0.003567
-0.003596
-0.003580
-0.004851
-0.004768
-0.004710
-0.004662
-0.005342
-0.005273
-0.005235
-0.005215
-0.005184
-0.005238
-0.005245
-0.005230
-0.004440
-0.003993
-0.004229
-0.004246
-0.004975
-0.003941
-0.003968
-0.003728
-0.003944
-0.003946
-0.003880
-0.003874
-0.003953
-0.003906
-0.003900
-0.004097
-0.004204
-0.004590
-0.004582
-0.004592
-0.004582
-0.004579
-0.004551
-0.004710
-0.004688
-0.004732
-0.004681
-0.004716
-0.004760
-0.004781
-0.004775
-0.004778
-0.004804
-0.004841
-0.004830
-0.004881
-0.004862
-0.004870
-0.004823
-0.004844
-0.004859
-0.004465
-0.004463
-0.004539
-0.004572
-0.004552
-0.004538
-0.004519
-0.004555
-0.004562
-0.004562
-0.004552
-0.004523
-0.004449
-0.004402
-0.004349
-0.004450
-0.004452
-0.004474
-0.004396
-0.004225
-0.004282
-0.004197
-0.004196
-0.004177
-0.004487
-0.004434
-0.004411
-0.004432
-0.004282
-0.004299
-0.004311
-0.004256
-0.004209
-0.004227
-0.004223
-0.004174
-0.004199
-0.004161
-0.004124
-0.004155
-0.004096
-0.004102
-0.004154
-0.004084
-0.004054
-0.004027
-0.004035
-0.004131
-0.004097
-0.004064
-0.003871
-0.003810
-0.003836
-0.004361
-0.004369
-0.004235
-0.004267
-0.004283
-0.004323
-0.004321
-0.004296
-0.003776
-0.003836
-0.003714
-0.003515
-0.003828
-0.003880
-0.004226
-0.004206
-0.004164
-0.004216
-0.004217
-0.004178
-0.004191
-0.004188
-0.004180
-0.004149
-0.004114
-0.004048
-0.004528
-0.004652
-0.004610
-0.004557
-0.004395
-0.004566
-0.004487
-0.004428
-0.004405
-0.004398
-0.004395
-0.004297
-0.004147
-0.003923
-0.003663
-0.003393
-0.003499
-0.003585
-0.003618
-0.003650
-0.003656
-0.003643
-0.003597
-0.003616
-0.003614
-0.003575
-0.003439
-0.003424
-0.003346
-0.003362
-0.003325
-0.003345
-0.003274
-0.003327
-0.003764
-0.003807
-0.003862
-0.003842
-0.003793
-0.003667
-0.003812
-0.003571
-0.003938
-0.003885
-0.003951
-0.003886
-0.003911
-0.003947
-0.003923
-0.003907
-0.003938
-0.003864
-0.003883
-0.003880
-0.003889
-0.003885
-0.003912
-0.003826
-0.003799
-0.003827
-0.003808
-0.003851
-0.003807
-0.003867
-0.003648
-0.003245
-0.002985
-0.003041
-0.003072
-0.003052
-0.003070
-0.003092
-0.003953
-0.003977
-0.003804
-0.003773
-0.003745
-0.003718
-0.003707
-0.003757
-0.003682
-0.003677
-0.003678
-0.003680
-0.003711
-0.003796
-0.003783
-0.003730
-0.003761
-0.003778
-0.003720
-0.003477
-0.003492
-0.003796
-0.003765
-0.003756
-0.003695
-0.003733
-0.003694
-0.003660
-0.003630
-0.003622
-0.003564
-0.003641
-0.003683
-0.003644
-0.003637
-0.003609
-0.003349
-0.003261
-0.003496
-0.003490
-0.003539
-0.003505
-0.003506
-0.003513
-0.003546
-0.003523
-0.003477
-0.003453
-0.003426
-0.003419
-0.003435
-0.003437
-0.003415
-0.003429
-0.003379
-0.003466
-0.003443
-0.003500
-0.003299
-0.003285
-0.003302
-0.003281
-0.003249
-0.003245
-0.003199
-0.003183
-0.003183
-0.003198
-0.003188
-0.003258
-0.003237
-0.003166
-0.003111
-0.003161
-0.003166
-0.003152
-0.003088
-0.003099
-0.003026
-0.003062
-0.003058
-0.003118
-0.003092
-0.003548
-0.003513
-0.003492
-0.003487
-0.003455
-0.003501
-0.003467
-0.003456
-0.003400
-0.003314
-0.003335
-0.003384
-0.003308
-0.003346
-0.002931
-0.003045
-0.003356
-0.003290
-0.003279
-0.003319
-0.003322
-0.003369
-0.003368
-0.003308
-0.003354
-0.003387
-0.003287
-0.003239
-0.003270
-0.003209
-0.003253
-0.003220
-0.003225
-0.003214
-0.003061
-0.003111
-0.003058
-0.002993
-0.002997
-0.003054
-0.003026
-0.002995
-0.003041
-0.003096
-0.003112
-0.003033
-0.002705
-0.003062
-0.003085
-0.003118
-0.003140
-0.003084
-0.003127
-0.003083
-0.002868
-0.002988
-0.003068
-0.003054
-0.002972
-0.003015
-0.003029
-0.003054
-0.003056
-0.003055
-0.003094
-0.003100
-0.003063
-0.003086
-0.003099
-0.003095
-0.003075
-0.003090
-0.003093
-0.003115
-0.003118
-0.003081
-0.003039
-0.003056
-0.003038
-0.003027
-0.003047
-0.002982
-0.002989
-0.002982
-0.002956
-0.002910
-0.003113
-0.003124
-0.003098
-0.003113
-0.003080
-0.003053
-0.003058
-0.003170
-0.003090
-0.003030
-0.002996
-0.002961
-0.003074
-0.003164
-0.003138
-0.003086
-0.003072
-0.003099
-0.003062
-0.003036
-0.003016
-0.002898
-0.002909
-0.002965
-0.002960
-0.002976
-0.002977
-0.003000
-0.002960
-0.002943
-0.002967
-0.002874
-0.002882
-0.002903
-0.002850
-0.002383
-0.002367
-0.002384
-0.002367
-0.002372
-0.002357
-0.002316
-0.002189
-0.002158
-0.002820
-0.002750
-0.002762
-0.002734
-0.002685
-0.002764
-0.002822
-0.003071
-0.003085
-0.002976
-0.003216
-0.003060
-0.003142
-0.003157
-0.003132
-0.003065
-0.002550
-0.002571
-0.002519
-0.002535
-0.002529
-0.002421
-0.002447
-0.002439
-0.002430
-0.002989
-0.002945
-0.002964
-0.002915
-0.002916
-0.002923
-0.002938
-0.002876
-0.002860
-0.002853
-0.002844
-0.002779
-0.002730
-0.002757
-0.002722
-0.002695
-0.002661
-0.002659
-0.002552
-0.002484
-0.002483
-0.002611
-0.002589
-0.002548
-0.002520
-0.002446
-0.002399
-0.002459
-0.002478
-0.002410
-0.002400
-0.002409
-0.002347
-0.002368
-0.002243
-0.002280
-0.002279
-0.002257
-0.002187
-0.002197
-0.002173
-0.002202
-0.002224
-0.002199
-0.002167
-0.002155
-0.002141
-0.002115
-0.002195
-0.002170
-0.002142
-0.002124
-0.002177
-0.002139
-0.002123
-0.002168
-0.002171
-0.002155
-0.002141
-0.002091
-0.002148
-0.002121
-0.002672
-0.002629
-0.002928
-0.002916
-0.002023
-0.002022
-0.002001
-0.002396
-0.002374
-0.002418
-0.002431
-0.002336
-0.002378
-0.002350
-0.002266
-0.002322
-0.002293
-0.002527
-0.002499
-0.002503
-0.002485
-0.002258
-0.002253
-0.002191
-0.002158
-0.002175
-0.002169
-0.002158
-0.002133
-0.002147
-0.002115
-0.002103
-0.002145
-0.002085
-0.002089
-0.002070
-0.002064
-0.002070
-0.002098
-0.002092
-0.002026
-0.002045
-0.002321
-0.002286
-0.002169
-0.002231
-0.002205
-0.002196
-0.002119
-0.002134
-0.002106
-0.002063
-0.001991
-0.001975
-0.001966
-0.001922
-0.001937
-0.001917
-0.001918
-0.002066
-0.002392
-0.002388
-0.002385
-0.002401
-0.002360
-0.002289
-0.002270
-0.002241
-0.002228
-0.002233
-0.002229
-0.002299
-0.002186
-0.002144
-0.002155
-0.002177
-0.002446
-0.002441
-0.002419
-0.002383
-0.002370
-0.002391
-0.002346
-0.002391
-0.002391
-0.002381
-0.002413
-0.002404
-0.002435
-0.002389
-0.002387
-0.002295
-0.002300
-0.002278
-0.002262
-0.002228
-0.002118
-0.002136
-0.002111
-0.002092
-0.002013
-0.002006
-0.002007
-0.002046
-0.002013
-0.001991
-0.001589
-0.002162
-0.002250
-0.002168
-0.002097
-0.002054
-0.002017
-0.002050
-0.001966
-0.001932
-0.002015
-0.001976
-0.001744
-0.001735
-0.001709
-0.001693
-0.001662
-0.001679
-0.001692
-0.001727
-0.001671
-0.001633
-0.001670
-0.001662
-0.001634
-0.001196
-0.001448
-0.001634
-0.001577
-0.001475
-0.001565
-0.001555
-0.001524
-0.001558
-0.001625
-0.001577
-0.001581
-0.001580
-0.001609
-0.001588
-0.001564
-0.001606
-0.001630
-0.001642
-0.001671
-0.001687
-0.001720
-0.001709
-0.001675
-0.001640
-0.001644
-0.001635
-0.001588
-0.001578
-0.001594
-0.001581
-0.001562
-0.001612
-0.001792
-0.001928
-0.002151
-0.002168
-0.002178
-0.002168
-0.001606
-0.001487
-0.001530
-0.001508
-0.001499
-0.001488
-0.001508
-0.001536
-0.001523
-0.001507
-0.001490
-0.001523
-0.001515
-0.001649
-0.001653
-0.001707
-0.001774
-0.001998
-0.001964
-0.001958
-0.001950
-0.001967
-0.001959
-0.001574
-0.001580
-0.001573
-0.001557
-0.001541
-0.001492
-0.001496
-0.001515
-0.001572
-0.001514
-0.001542
-0.001540
-0.001522
-0.001503
-0.001471
-0.001433
-0.001692
-0.001670
-0.001670
-0.001713
-0.001692
-0.001722
-0.001682
-0.001697
-0.001663
-0.001692
-0.001633
-0.001577
-0.001528
-0.001627
-0.001529
-0.001586
-0.001600
-0.001546
-0.001576
-0.001591
-0.001577
-0.001527
-0.001484
-0.001505
-0.001487
-0.001503
-0.001539
-0.001543
-0.001536
-0.001484
-0.001512
-0.001445
-0.001432
-0.001436
-0.001455
-0.001419
-0.001395
-0.001381
-0.001373
-0.001347
-0.001300
-0.001308
-0.001302
-0.001276
-0.001203
-0.001166
-0.001224
-0.001211
-0.001137
-0.001115
-0.001117
-0.001189
-0.001564
-0.001488
-0.001432
-0.001502
-0.001411
-0.001395
-0.001394
-0.001433
-0.001425
-0.001396
-0.001444
-0.001433
-0.001445
-0.001446
-0.001450
-0.001467
-0.001461
-0.001251
-0.001345
-0.001419
-0.001358
-0.001386
-0.001416
-0.001384
-0.001369
-0.001331
-0.001285
-0.000925
-0.000874
-0.000867
-0.000807
-0.000815
-0.000808
-0.000796
-0.000817
-0.000806
-0.000808
-0.000768
-0.000761
-0.000756
-0.000767
-0.000747
-0.000833
-0.000713
-0.000681
-0.000693
-0.000724
-0.000708
-0.000682
-0.001146
-0.001151
-0.001048
-0.001045
-0.001043
-0.001108
-0.001053
-0.001025
-0.001084
-0.001192
-0.001043
-0.001058
-0.001097
-0.001117
-0.001097
-0.001092
-0.000943
-0.000987
-0.001050
-0.001061
-0.001060
-0.001046
-0.001044
-0.001010
-0.001010
-0.001017
-0.000997
-0.001003
-0.001073
-0.001035
-0.001026
-0.001031
-0.001046
-0.001036
-0.001037
-0.001014
-0.001043
-0.001013
-0.001005
-0.000995
-0.000982
-0.000967
-0.001033
-0.001041
-0.001000
-0.001000
-0.001033
-0.001049
-0.001038
-0.001022
-0.001011
-0.001063
-0.001066
-0.001060
-0.001061
-0.001077
-0.001065
-0.001055
-0.001053
-0.001042
-0.001055
-0.001059
-0.001058
-0.001026
-0.001034
-0.001026
-0.001037
-0.001024
-0.001009
-0.001029
-0.001015
-0.000993
-0.001044
-0.001031
-0.001012
-0.000898
-0.000692
-0.000883
-0.000868
-0.000904
-0.000997
-0.000946
-0.000913
-0.000920
-0.000889
-0.000874
-0.000866
-0.000870
-0.000870
-0.000846
-0.000883
-0.000818
-0.000791
-0.000778
-0.000773
-0.000772
-0.000744
-0.000712
-0.000711
-0.000712
-0.000720
-0.000727
-0.000735
-0.000743
-0.000752
-0.000760
-0.000767
-0.000775
-0.000783
-0.000790
-0.000797
-0.000805
-0.000812
-0.000819
-0.000825
-0.000831
-0.000838
-0.000844
-0.000849
-0.000855
-0.000860
-0.000865
-0.000871
-0.000876
-0.000880
-0.000885
-0.000889
-0.000894
-0.000898
-0.000902
-0.000906
-0.000910
-0.000914
-0.000917
-0.000921
-0.000925
-0.000928
-0.000931
-0.000935
-0.000938
-0.000941
-0.000945
-0.000949
-0.000953
-0.000956
-0.000960
-0.000963
-0.000966
-0.000969
-0.000972
-0.000975
-0.000978
-0.000981
-0.000983
-0.000986
-0.000988
-0.000991
-0.000993
-0.000995
-0.000998
-0.001000
-0.001002
-0.001004
-0.001006
-0.001009
-0.001011
-0.001013
-0.001015
-0.001016
-0.001018
-0.001020
-0.001022
-0.001024
-0.001026
-0.001028
-0.001030
-0.001031
-0.001033
-0.001035
-0.001037
-0.001038
-0.001040
-0.001042
-0.001043
-0.001045
-0.001047
-0.001048
-0.001050
-0.001051
-0.001053
-0.001055
-0.001056
-0.001058
-0.001059
-0.001061
-0.001063
-0.001064
-0.001066
-0.001067
-0.001069
-0.001070
-0.001072
-0.001073
-0.001075
-0.001077
-0.001078
-0.001080
-0.001081
-0.001083
-0.001084
-0.001086
-0.001087
-0.001089
-0.001090
-0.001092
-0.001093
-0.001095
-0.001096
-0.001098
-0.001099
-0.001101
-0.001102
-0.001104
-0.001105
-0.001106
-0.001108
-0.001109
-0.001111
-0.001112
-0.001114
-0.001115
-0.001117
-0.001118
-0.001120
-0.001121
-0.001123
-0.001124
-0.001126
-0.001127
-0.001129
-0.001130
-0.001132
-0.001133
-0.001134
-0.001136
-0.001137
-0.001139
-0.001140
-0.001142
-0.001143
-0.001145
-0.001146
-0.001148
-0.001149
-0.001151
-0.001152
-0.001154
-0.001155
-0.001156
-0.001158
-0.001159
-0.001161
-0.001162
-0.001164
-0.001165
-0.001167
-0.001168
-0.001169
-0.001171
-0.001172
-0.001174
-0.001175
-0.001177
-0.001178
-0.001179
-0.001181
-0.001182
-0.001184
-0.001185
-0.001186
-0.001188
-0.001189
-0.001191
-0.001192
-0.001193
-0.001195
-0.001196
-0.001197
-0.001199
-0.001200
-0.001201
-0.001203
-0.001204
-0.001205
-0.001207
-0.001208
-0.001209
-0.001211
-0.001212
-0.001213
-0.001214
-0.001216
-0.001217
-0.001218
-0.001219
-0.001221
-0.001222
-0.001223
-0.001224
-0.001225
-0.001227
-0.001228
-0.001229
-0.001230
-0.001231
-0.001232
-0.001233
-0.001235
-0.001236
-0.001237
-0.001238
-0.001239
-0.001240
-0.001241
-0.001242
-0.001243
-0.001244
-0.001245
-0.001246
-0.001247
-0.001248
-0.001249
-0.001250
-0.001251
-0.001252
-0.001253
-0.001253
-0.001254
-0.001255
-0.001256
-0.001257
-0.001258
-0.001258
-0.001259
-0.001260
-0.001261
-0.001261
-0.001262
-0.001263
-0.001263
-0.001264
-0.001265
-0.001265
-0.001266
-0.001267
-0.001267
-0.001268
-0.001268
-0.001269
-0.001269
-0.001270
-0.001270
-0.001271
-0.001271
-0.001272
-0.001272
-0.001272
-0.001273
-0.001273
-0.001273
-0.001274
-0.001274
-0.001274
-0.001275
-0.001275
-0.001275
-0.001275
-0.001275
-0.001275
-0.001276
-0.001276
-0.001276
-0.001276
-0.001276
-0.001276
-0.001276
-0.001276
-0.001276
-0.001276
-0.001276
-0.001276
-0.001275
-0.001275
-0.001275
-0.001275
-0.001275
-0.001274
-0.001274
-0.001274
-0.001274
-0.001273
-0.001273
-0.001273
-0.001272
-0.001272
-0.001271
-0.001271
-0.001271
-0.001270
-0.001269
-0.001269
-0.001268
-0.001268
-0.001267
-0.001267
-0.001266
-0.001265
-0.001265
-0.001264
-0.001263
-0.001262
-0.001262
-0.001261
-0.001260
-0.001259
-0.001258
-0.001257
-0.001256
-0.001256
-0.001255
-0.001254
-0.001253
-0.001252
-0.001251
-0.001250
-0.001248
-0.001247
-0.001246
-0.001245
-0.001244
-0.001243
-0.001242
-0.001240
-0.001239
-0.001238
-0.001236
-0.001235
-0.001234
-0.001232
-0.001231
-0.001157
-0.001167
-0.001177
-0.001088
-0.001073
-0.001080
-0.006267
-0.006352
-0.006402
-0.006505
-0.004201
-0.001273
-0.001251
-0.001265
-0.001248
-0.001192
-0.001209
-0.001194
-0.004287
-0.004103
-0.005003
-0.004327
-0.006723
-0.006583
-0.005664
-0.005486
-0.004759
-0.004065
-0.004307
-0.003062
-0.003160
-0.003068
-0.003116
-0.005420
-0.005423
-0.005698
-0.005718
-0.002411
-0.002893
-0.002354
-0.003132
-0.005547
-0.005582
-0.005529
-0.005573
-0.001665
-0.001736
-0.001710
-0.001669
-0.006979
-0.006716
-0.006093
-0.003458
-0.003427
-0.003413
-0.003352
-0.003836
-0.004037
-0.004004
-0.004168
-0.004114
-0.004074
-0.004074
-0.006163
-0.006095
-0.006128
-0.004745
-0.004769
-0.004836
-0.004853
-0.001637
-0.001579
-0.001631
-0.001556
-0.004764
-0.004738
-0.004752
-0.004713
-0.003548
-0.003548
-0.003613
-0.003450
-0.003416
-0.003438
-0.003554
-0.003254
-0.004970
-0.005021
-0.005037
-0.005079
-0.001210
-0.001232
-0.001228
-0.005791
-0.005841
-0.005750
-0.004101
-0.001273
-0.001303
-0.001278
-0.001280
-0.002654
-0.002436
-0.002653
-0.004507
-0.004539
-0.004569
-0.002195
-0.003717
-0.003727
-0.003755
-0.004464
-0.002549
-0.002593
-0.002619
-0.001331
-0.001332
-0.001367
-0.001345
-0.001699
-0.001714
-0.002203
-0.001830
-0.002636
-0.006689
-0.006938
-0.006727
-0.001308
-0.001306
-0.001288
-0.006913
-0.006223
-0.006373
-0.006349
-0.006237
-0.006137
-0.006147
-0.006198
-0.006186
-0.005377
-0.005460
-0.005378
-0.004171
-0.004161
-0.004188
-0.004181
-0.005440
-0.002776
-0.002760
-0.002876
-0.005979
-0.006039
-0.005916
-0.006274
-0.006297
-0.006309
-0.002821
-0.001333
-0.001351
-0.001361
-0.005752
-0.004793
-0.004802
-0.001221
-0.001195
-0.001209
-0.001199
-0.002254
-0.002277
-0.002279
-0.002311
-0.004397
-0.004484
-0.004437
-0.004486
-0.002738
-0.002658
-0.002760
-0.002629
-0.006841
-0.006849
-0.006894
-0.006785
-0.001283
-0.001283
-0.007830
-0.007815
-0.007796
-0.007771
-0.005882
-0.005927
-0.005799
-0.006069
-0.001299
-0.001282
-0.001276
-0.006090
-0.005901
-0.007076
-0.007098
-0.007057
-0.001339
-0.001373
-0.001372
-0.003236
-0.003219
-0.003115
-0.003070
-0.004602
-0.004624
-0.004612
-0.007553
-0.007562
-0.007644
-0.007606
-0.001328
-0.001332
-0.001298
-0.001367
-0.001318
-0.001289
-0.001294
-0.001399
-0.002284
-0.002289
-0.002323
-0.002316
-0.004785
-0.004624
-0.004634
-0.004742
-0.005102
-0.005064
-0.005161
-0.001328
-0.001357
-0.001375
-0.001400
-0.005438
-0.005392
-0.005474
-0.005396
-0.002005
-0.002140
-0.002279
-0.003864
-0.003686
-0.003554
-0.003891
-0.007395
-0.007417
-0.007383
-0.007439
-0.001291
-0.001290
-0.002912
-0.002444
-0.002248
-0.001896
-0.004427
-0.004423
-0.004369
-0.004383
-0.005931
-0.006050
-0.005924
-0.006061
-0.005569
-0.005664
-0.005708
-0.005493
-0.005040
-0.005023
-0.005056
-0.005051
-0.006284
-0.006296
-0.006233
-0.006239
-0.001373
-0.001331
-0.001340
-0.001344
-0.004967
-0.004247
-0.004223
-0.007744
-0.007824
-0.007789
-0.007719
-0.005833
-0.006269
-0.006074
-0.004021
-0.003835
-0.005741
-0.005707
-0.005760
-0.005694
-0.002317
-0.002436
-0.002417
-0.002538
-0.003943
-0.003665
-0.003833
-0.003649
-0.001902
-0.001950
-0.001982
-0.002043
-0.001553
-0.001660
-0.001562
-0.001634
-0.006099
-0.006076
-0.006115
-0.006104
-0.005671
-0.005525
-0.005549
-0.005679
-0.001635
-0.001588
-0.001668
-0.001556
-0.001712
-0.001658
-0.001561
-0.004735
-0.004535
-0.004603
-0.004626
-0.001406
-0.001435
-0.001372
-0.001252
-0.005214
-0.005254
-0.005274
-0.005193
-0.001236
-0.001251
-0.001264
-0.001282
-0.003837
-0.003771
-0.003860
-0.003790
-0.002583
-0.002479
-0.005078
-0.005063
-0.005034
-0.005030
-0.004287
-0.004348
-0.004255
-0.004388
-0.004006
-0.003569
-0.003844
-0.001291
-0.001316
-0.001298
-0.006827
-0.006834
-0.006803
-0.006796
-0.003172
-0.006202
-0.006130
-0.006140
-0.001480
-0.001412
-0.001423
-0.001375
-0.001182
-0.001183
-0.001201
-0.001201
-0.002612
-0.002619
-0.002660
-0.002557
-0.003030
-0.003089
-0.003090
-0.003048
-0.003012
-0.002927
-0.002251
-0.002318
-0.002305
-0.004492
-0.004526
-0.004265
-0.003487
-0.003431
-0.003226
-0.004103
-0.002021
-0.002042
-0.002112
-0.002087
-0.002061
-0.002057
-0.002084
-0.001324
-0.001345
-0.001357
-0.005688
-0.005552
-0.001317
-0.001103
-0.001128
-0.001124
-0.001148
-0.004825
-0.004843
-0.005197
-0.001473
-0.003662
-0.003656
-0.003690
-0.003687
-0.007179
-0.007137
-0.007132
-0.007094
-0.002753
-0.003047
-0.003110
-0.002589
-0.006393
-0.006357
-0.006406
-0.006369
-0.006297
-0.006399
-0.006263
-0.006388
-0.001105
-0.001078
-0.001045
-0.006510
-0.006497
-0.006546
-0.003117
-0.003068
-0.003137
-0.003122
-0.001208
-0.001075
-0.001078