# vtk DataFile Version 2.0
Test
ASCII
DATASET POLYDATA
POINTS 20431 float
0.000000 0.000000 0.000000
2.000000 0.000000 0.000000
2.000000 4.000000 0.000000
0.000000 4.000000 0.000000
0.000000 0.500000 0.000000
1.500000 2.000000 0.000000
2.000000 2.500000 0.000000
0.400000 0.000000 0.000000
0.800000 0.000000 0.000000
1.200000 0.000000 0.000000
1.600000 0.000000 0.000000
2.000000 0.362557 0.000000
2.000000 0.672798 0.000000
2.000000 0.938272 0.000000
2.000000 1.165439 0.000000
2.000000 1.359826 0.000000
2.000000 1.526163 0.000000
2.000000 1.668499 0.000000
2.000000 1.790295 0.000000
2.000000 1.894517 0.000000
2.000000 1.983700 0.000000
2.000000 2.060013 0.000000
2.000000 2.125315 0.000000
2.000000 2.181194 0.000000
2.000000 2.229010 0.000000
2.000000 2.269926 0.000000
2.000000 2.304938 0.000000
2.000000 2.334898 0.000000
2.000000 2.360534 0.000000
2.000000 2.382472 0.000000
2.000000 2.401244 0.000000
2.000000 2.417307 0.000000
2.000000 2.431052 0.000000
2.000000 2.442814 0.000000
2.000000 2.452878 0.000000
2.000000 2.461491 0.000000
2.000000 2.468860 0.000000
2.000000 2.475167 0.000000
2.000000 2.480563 0.000000
2.000000 2.485180 0.000000
2.000000 2.489132 0.000000
2.000000 2.492513 0.000000
2.000000 2.495406 0.000000
2.000000 2.497882 0.000000
2.000000 2.502286 0.000000
2.000000 2.505266 0.000000
2.000000 2.509150 0.000000
2.000000 2.514212 0.000000
2.000000 2.520809 0.000000
2.000000 2.529407 0.000000
2.000000 2.540613 0.000000
2.000000 2.555218 0.000000
2.000000 2.574253 0.000000
2.000000 2.599061 0.000000
2.000000 2.631395 0.000000
2.000000 2.673536 0.000000
2.000000 2.728460 0.000000
2.000000 2.800043 0.000000
2.000000 2.893339 0.000000
2.000000 3.014933 0.000000
2.000000 3.173410 0.000000
2.000000 3.379956 0.000000
2.000000 3.649152 0.000000
1.600000 4.000000 0.000000
1.200000 4.000000 0.000000
0.800000 4.000000 0.000000
0.400000 4.000000 0.000000
0.000000 3.624996 0.000000
0.000000 3.289970 0.000000
0.000000 2.990661 0.000000
0.000000 2.723261 0.000000
0.000000 2.484368 0.000000
0.000000 2.270943 0.000000
0.000000 2.080271 0.000000
0.000000 1.909926 0.000000
0.000000 1.757741 0.000000
0.000000 1.621780 0.000000
0.000000 1.500314 0.000000
0.000000 1.391797 0.000000
0.000000 1.294849 0.000000
0.000000 1.208237 0.000000
0.000000 1.130858 0.000000
0.000000 1.061728 0.000000
0.000000 0.999968 0.000000
0.000000 0.944792 0.000000
0.000000 0.895499 0.000000
0.000000 0.851460 0.000000
0.000000 0.812117 0.000000
0.000000 0.776968 0.000000
0.000000 0.745565 0.000000
0.000000 0.717511 0.000000
0.000000 0.692448 0.000000
0.000000 0.670056 0.000000
0.000000 0.650052 0.000000
0.000000 0.632180 0.000000
0.000000 0.616213 0.000000
0.000000 0.601949 0.000000
0.000000 0.589205 0.000000
0.000000 0.577820 0.000000
0.000000 0.567649 0.000000
0.000000 0.558562 0.000000
0.000000 0.550444 0.000000
0.000000 0.543191 0.000000
0.000000 0.536712 0.000000
0.000000 0.530923 0.000000
0.000000 0.525751 0.000000
0.000000 0.521131 0.000000
0.000000 0.517003 0.000000
0.000000 0.513315 0.000000
0.000000 0.510021 0.000000
0.000000 0.507078 0.000000
0.000000 0.504448 0.000000
0.000000 0.502099 0.000000
0.000000 0.497804 0.000000
0.000000 0.494785 0.000000
0.000000 0.490633 0.000000
0.000000 0.484924 0.000000
0.000000 0.477074 0.000000
0.000000 0.466279 0.000000
0.000000 0.451436 0.000000
0.000000 0.431025 0.000000
0.000000 0.402959 0.000000
0.000000 0.364366 0.000000
0.000000 0.311297 0.000000
0.000000 0.238324 0.000000
0.000000 0.137980 0.000000
0.001414 0.501414 0.000000
0.002828 0.502828 0.000000
0.004241 0.504241 0.000000
0.005655 0.505655 0.000000
0.007069 0.507069 0.000000
0.008483 0.508483 0.000000
0.009896 0.509896 0.000000
0.011310 0.511310 0.000000
0.012724 0.512724 0.000000
0.014138 0.514138 0.000000
0.015551 0.515551 0.000000
0.016965 0.516965 0.000000
0.018379 0.518379 0.000000
0.019793 0.519793 0.000000
0.021206 0.521206 0.000000
0.022620 0.522620 0.000000
0.024034 0.524034 0.000000
0.025448 0.525448 0.000000
0.026861 0.526861 0.000000
0.028275 0.528275 0.000000
0.029689 0.529689 0.000000
0.031103 0.531103 0.000000
0.032516 0.532516 0.000000
0.033930 0.533930 0.000000
0.035344 0.535344 0.000000
0.036758 0.536758 0.000000
0.038172 0.538172 0.000000
0.039585 0.539585 0.000000
0.040999 0.540999 0.000000
0.042413 0.542413 0.000000
0.043827 0.543827 0.000000
0.045240 0.545240 0.000000
0.046654 0.546654 0.000000
0.048068 0.548068 0.000000
0.049482 0.549482 0.000000
0.050895 0.550895 0.000000
0.052309 0.552309 0.000000
0.053723 0.553723 0.000000
0.055137 0.555137 0.000000
0.056550 0.556550 0.000000
0.057964 0.557964 0.000000
0.059378 0.559378 0.000000
0.060792 0.560792 0.000000
0.062205 0.562205 0.000000
0.063619 0.563619 0.000000
0.065033 0.565033 0.000000
0.066447 0.566447 0.000000
0.067861 0.567861 0.000000
0.069274 0.569274 0.000000
0.070688 0.570688 0.000000
0.072102 0.572102 0.000000
0.073516 0.573516 0.000000
0.074929 0.574929 0.000000
0.076343 0.576343 0.000000
0.077757 0.577757 0.000000
0.079171 0.579171 0.000000
0.080584 0.580584 0.000000
0.081998 0.581998 0.000000
0.083412 0.583412 0.000000
0.084826 0.584826 0.000000
0.086239 0.586239 0.000000
0.087653 0.587653 0.000000
0.089067 0.589067 0.000000
0.090481 0.590481 0.000000
0.091894 0.591894 0.000000
0.093308 0.593308 0.000000
0.094722 0.594722 0.000000
0.096136 0.596136 0.000000
0.097549 0.597549 0.000000
0.098963 0.598963 0.000000
0.100377 0.600377 0.000000
0.101791 0.601791 0.000000
0.103205 0.603205 0.000000
0.104618 0.604618 0.000000
0.106032 0.606032 0.000000
0.107446 0.607446 0.000000
0.108860 0.608860 0.000000
0.110273 0.610273 0.000000
0.111687 0.611687 0.000000
0.113101 0.613101 0.000000
0.114515 0.614515 0.000000
0.115928 0.615928 0.000000
0.117342 0.617342 0.000000
0.118756 0.618756 0.000000
0.120170 0.620170 0.000000
0.121583 0.621583 0.000000
0.122997 0.622997 0.000000
0.124411 0.624411 0.000000
0.125825 0.625825 0.000000
0.127238 0.627238 0.000000
0.128652 0.628652 0.000000
0.130066 0.630066 0.000000
0.131480 0.631480 0.000000
0.132893 0.632893 0.000000
0.134307 0.634307 0.000000
0.135721 0.635721 0.000000
0.137135 0.637135 0.000000
0.138549 0.638549 0.000000
0.139962 0.639962 0.000000
0.141376 0.641376 0.000000
0.142790 0.642790 0.000000
0.144204 0.644204 0.000000
0.145617 0.645617 0.000000
0.147031 0.647031 0.000000
0.148445 0.648445 0.000000
0.149859 0.649859 0.000000
0.151272 0.651272 0.000000
0.152686 0.652686 0.000000
0.154100 0.654100 0.000000
0.155514 0.655514 0.000000
0.156927 0.656927 0.000000
0.158341 0.658341 0.000000
0.159755 0.659755 0.000000
0.161169 0.661169 0.000000
0.162582 0.662582 0.000000
0.163996 0.663996 0.000000
0.165410 0.665410 0.000000
0.166824 0.666824 0.000000
0.168238 0.668238 0.000000
0.169651 0.669651 0.000000
0.171065 0.671065 0.000000
0.172479 0.672479 0.000000
0.173893 0.673893 0.000000
0.175306 0.675306 0.000000
0.176720 0.676720 0.000000
0.178134 0.678134 0.000000
0.179548 0.679548 0.000000
0.180961 0.680961 0.000000
0.182375 0.682375 0.000000
0.183789 0.683789 0.000000
0.185203 0.685203 0.000000
0.186616 0.686616 0.000000
0.188030 0.688030 0.000000
0.189444 0.689444 0.000000
0.190858 0.690858 0.000000
0.192271 0.692271 0.000000
0.193685 0.693685 0.000000
0.195099 0.695099 0.000000
0.196513 0.696513 0.000000
0.197926 0.697926 0.000000
0.199340 0.699340 0.000000
0.200754 0.700754 0.000000
0.202168 0.702168 0.000000
0.203582 0.703582 0.000000
0.204995 0.704995 0.000000
0.206409 0.706409 0.000000
0.207823 0.707823 0.000000
0.209237 0.709237 0.000000
0.210650 0.710650 0.000000
0.212064 0.712064 0.000000
0.213478 0.713478 0.000000
0.214892 0.714892 0.000000
0.216305 0.716305 0.000000
0.217719 0.717719 0.000000
0.219133 0.719133 0.000000
0.220547 0.720547 0.000000
0.221960 0.721960 0.000000
0.223374 0.723374 0.000000
0.224788 0.724788 0.000000
0.226202 0.726202 0.000000
0.227615 0.727615 0.000000
0.229029 0.729029 0.000000
0.230443 0.730443 0.000000
0.231857 0.731857 0.000000
0.233270 0.733270 0.000000
0.234684 0.734684 0.000000
0.236098 0.736098 0.000000
0.237512 0.737512 0.000000
0.238926 0.738926 0.000000
0.240339 0.740339 0.000000
0.241753 0.741753 0.000000
0.243167 0.743167 0.000000
0.244581 0.744581 0.000000
0.245994 0.745994 0.000000
0.247408 0.747408 0.000000
0.248822 0.748822 0.000000
0.250236 0.750236 0.000000
0.251649 0.751649 0.000000
0.253063 0.753063 0.000000
0.254477 0.754477 0.000000
0.255891 0.755891 0.000000
0.257304 0.757304 0.000000
0.258718 0.758718 0.000000
0.260132 0.760132 0.000000
0.261546 0.761546 0.000000
0.262959 0.762959 0.000000
0.264373 0.764373 0.000000
0.265787 0.765787 0.000000
0.267201 0.767201 0.000000
0.268615 0.768615 0.000000
0.270028 0.770028 0.000000
0.271442 0.771442 0.000000
0.272856 0.772856 0.000000
0.274270 0.774270 0.000000
0.275683 0.775683 0.000000
0.277097 0.777097 0.000000
0.278511 0.778511 0.000000
0.279925 0.779925 0.000000
0.281338 0.781338 0.000000
0.282752 0.782752 0.000000
0.284166 0.784166 0.000000
0.285580 0.785580 0.000000
0.286993 0.786993 0.000000
0.288407 0.788407 0.000000
0.289821 0.789821 0.000000
0.291235 0.791235 0.000000
0.292648 0.792648 0.000000
0.294062 0.794062 0.000000
0.295476 0.795476 0.000000
0.296890 0.796890 0.000000
0.298303 0.798303 0.000000
0.299717 0.799717 0.000000
0.301131 0.801131 0.000000
0.302545 0.802545 0.000000
0.303959 0.803959 0.000000
0.305372 0.805372 0.000000
0.306786 0.806786 0.000000
0.308200 0.808200 0.000000
0.309614 0.809614 0.000000
0.311027 0.811027 0.000000
0.312441 0.812441 0.000000
0.313855 0.813855 0.000000
0.315269 0.815269 0.000000
0.316682 0.816682 0.000000
0.318096 0.818096 0.000000
0.319510 0.819510 0.000000
0.320924 0.820924 0.000000
0.322337 0.822337 0.000000
0.323751 0.823751 0.000000
0.325165 0.825165 0.000000
0.326579 0.826579 0.000000
0.327992 0.827992 0.000000
0.329406 0.829406 0.000000
0.330820 0.830820 0.000000
0.332234 0.832234 0.000000
0.333648 0.833648 0.000000
0.335061 0.835061 0.000000
0.336475 0.836475 0.000000
0.337889 0.837889 0.000000
0.339303 0.839303 0.000000
0.340716 0.840716 0.000000
[...]
POINT_DATA 20431
SCALARS UX float 1
LOOKUP_TABLE default
-0.000000
0.000000
0.047344
-0.049382
-0.038619
0.023842
0.047667
-0.000000
-0.000000
0.000000
-0.000000
0.032288
0.042276
0.046163
0.047581
0.048091
0.048236
0.048219
0.048161
0.048093
0.048025
0.047968
0.047918
0.047876
0.047841
0.047812
0.047788
0.047768
0.047751
0.047737
0.047725
0.047715
0.047707
0.047700
0.047694
0.047689
0.047685
0.047681
0.047678
0.047675
0.047673
0.047671
0.047669
0.047668
0.047666
0.047664
0.047662
0.047659
0.047655
0.047651
0.047645
0.047637
0.047627
0.047615
0.047599
0.047579
0.047555
0.047527
0.047494
0.047458
0.047421
0.047383
0.047356
0.027982
0.008628
-0.010715
-0.030050
-0.049381
-0.049381
-0.049390
-0.049415
-0.049458
-0.049512
-0.049570
-0.049616
-0.049627
-0.049590
-0.049504
-0.049355
-0.049132
-0.048843
-0.048494
-0.048093
-0.047647
-0.047165
-0.046661
-0.046143
-0.045619
-0.045097
-0.044588
-0.044087
-0.043609
-0.043154
-0.042720
-0.042314
-0.041934
-0.041581
-0.041254
-0.040951
-0.040674
-0.040420
-0.040187
-0.039975
-0.039782
-0.039607
-0.039448
-0.039303
-0.039173
-0.039055
-0.038949
-0.038853
-0.038766
-0.038689
-0.038545
-0.038443
-0.038301
-0.038104
-0.037826
-0.037437
-0.036871
-0.036059
-0.034860
-0.032991
-0.030101
-0.025533
-0.017454
-0.038605
-0.038591
-0.038577
-0.038562
-0.038547
-0.038532
-0.038517
-0.038501
-0.038485
-0.038469
-0.038452
-0.038436
-0.038419
-0.038401
-0.038384
-0.038366
-0.038348
-0.038330
-0.038311
-0.038292
-0.038273
-0.038254
-0.038235
-0.038215
-0.038195
-0.038175
-0.038155
-0.038134
-0.038113
-0.038092
-0.038071
-0.038050
-0.038028
-0.038007
-0.037985
-0.037962
-0.037940
-0.037917
-0.037895
-0.037872
-0.037849
-0.037825
-0.037802
-0.037778
-0.037754
-0.037730
-0.037706
-0.037681
-0.037657
-0.037632
-0.037607
-0.037582
-0.037557
-0.037531
-0.037505
-0.037480
-0.037454
-0.037428
-0.037401
-0.037375
-0.037348
-0.037322
-0.037295
-0.037268
-0.037241
-0.037213
-0.037186
-0.037158
-0.037131
-0.037103
-0.037075
-0.037047
-0.037018
-0.036990
-0.036961
-0.036932
-0.036903
-0.036874
-0.036845
-0.036816
-0.036786
-0.036756
-0.036726
-0.036696
-0.036666
-0.036636
-0.036606
-0.036575
-0.036544
-0.036514
-0.036483
-0.036452
-0.036420
-0.036389
-0.036357
-0.036326
-0.036294
-0.036262
-0.036230
-0.036198
-0.036165
-0.036133
-0.036100
-0.036067
-0.036034
-0.036001
-0.035968
-0.035935
-0.035901
-0.035867
-0.035834
-0.035800
-0.035766
-0.035731
-0.035697
-0.035663
-0.035628
-0.035593
-0.035558
-0.035523
-0.035488
-0.035453
-0.035417
-0.035381
-0.035346
-0.035310
-0.035274
-0.035238
-0.035201
-0.035165
-0.035128
-0.035092
-0.035055
-0.035018
-0.034981
-0.034944
-0.034906
-0.034869
-0.034831
-0.034793
-0.034755
-0.034717
-0.034679
-0.034641
-0.034603
-0.034564
-0.034525
-0.034487
-0.034448
-0.034408
-0.034369
-0.034330
-0.034290
-0.034251
-0.034211
-0.034171
-0.034131
-0.034091
-0.034051
-0.034011
-0.033970
-0.033929
-0.033889
-0.033848
-0.033807
-0.033766
-0.033724
-0.033683
-0.033642
-0.033600
-0.033558
-0.033516
-0.033474
-0.033432
-0.033390
-0.033348
-0.033305
-0.033263
-0.033220
-0.033177
-0.033134
-0.033091
-0.033048
-0.033005
-0.032962
-0.032918
-0.032875
-0.032831
-0.032787
-0.032743
-0.032699
-0.032655
-0.032611
-0.032567
-0.032522
-0.032478
-0.032433
-0.032388
-0.032343
-0.032298
-0.032253
-0.032208
-0.032163
-0.032117
-0.032072
-0.032026
-0.031980
-0.031934
-0.031888
-0.031842
-0.031796
-0.031750
-0.031704
-0.031657
-0.031610
-0.031564
-0.031517
-0.031470
-0.031423
-0.031376
-0.031329
-0.031281
-0.031234
-0.031187
-0.031139
-0.031091
-0.031043
-0.030996
-0.030948
-0.030899
-0.030851
-0.030803
-0.030755
-0.030706
-0.030657
-0.030609
-0.030560
-0.030511
-0.030462
-0.030413
-0.030364
-0.030315
-0.030265
-0.030216
-0.030166
-0.030117
-0.030067
-0.030017
-0.029967
-0.029917
-0.029867
-0.029817
-0.029767
-0.029716
-0.029666
-0.029615
-0.029564
-0.029514
-0.029463
-0.029412
-0.029361
-0.029310
-0.029259
-0.029207
-0.029156
-0.029104
-0.029053
-0.029001
-0.028949
-0.028898
-0.028846
-0.028794
-0.028742
-0.028689
-0.028637
-0.028585
-0.028532
-0.028480
-0.028427
-0.028374
-0.028322
-0.028269
-0.028216
-0.028163
-0.028110
-0.028056
-0.028003
-0.027950
-0.027896
-0.027843
-0.027789
-0.027735
-0.027681
-0.027627
-0.027574
-0.027519
-0.027465
-0.027411
-0.027357
-0.027302
-0.027248
-0.027193
-0.027139
-0.027084
-0.027029
-0.026974
-0.026920
-0.026864
-0.026809
-0.026754
-0.026699
-0.026644
-0.026588
-0.026533
-0.026477
-0.026422
-0.026366
-0.026310
-0.026254
-0.026198
-0.026142
-0.026086
-0.026030
-0.025974
-0.025917
-0.025861
-0.025805
-0.025748
-0.025691
-0.025635
-0.025578
-0.025521
-0.025464
-0.025407
-0.025350
-0.025293
-0.025236
-0.025179
-0.025121
-0.025064
-0.025006
-0.024949
-0.024891
-0.024834
-0.024776
-0.024718
-0.024660
-0.024602
-0.024544
-0.024486
-0.024428
-0.024370
-0.024311
-0.024253
-0.024194
-0.024136
-0.024077
-0.024019
-0.023960
-0.023901
-0.023842
-0.023783
-0.023724
-0.023665
-0.023606
-0.023547
-0.023488
-0.023428
-0.023369
-0.023309
-0.023250
-0.023190
-0.023130
-0.023071
-0.023011
-0.022951
-0.022891
-0.022831
-0.022771
-0.022711
-0.022651
-0.022591
-0.022530
-0.022470
-0.022409
-0.022349
-0.022288
-0.022228
-0.022167
-0.022106
-0.022045
-0.021985
-0.021924
-0.021863
-0.021802
-0.021740
-0.021679
-0.021618
-0.021557
-0.021495
-0.021434
-0.021372
-0.021311
-0.021249
-0.021188
-0.021126
-0.021064
-0.021002
-0.020940
-0.020878
-0.020816
-0.020754
-0.020692
-0.020630
-0.020567
-0.020505
-0.020443
-0.020380
-0.020318
-0.020255
-0.020193
-0.020130
-0.020067
-0.020004
-0.019942
-0.019879
-0.019816
-0.019753
-0.019690
-0.019627
-0.019563
-0.019500
-0.019437
-0.019374
-0.019310
-0.019247
-0.019183
-0.019120
-0.019056
-0.018992
-0.018929
-0.018865
-0.018801
-0.018737
-0.018673
-0.018609
-0.018545
-0.018481
-0.018417
-0.018353
-0.018289
-0.018224
-0.018160
-0.018096
-0.018031
-0.017967
-0.017902
-0.017838
-0.017773
-0.017708
-0.017644
-0.017579
-0.017514
-0.017449
-0.017384
-0.017319
-0.017254
-0.017189
-0.017124
-0.017059
-0.016994
-0.016929
-0.016863
-0.016798
-0.016733
-0.016667
-0.016602
-0.016536
-0.016471
-0.016405
-0.016339
-0.016274
-0.016208
-0.016142
-0.016076
-0.016010
-0.015945
-0.015879
-0.015813
-0.015747
-0.015680
-0.015614
-0.015548
-0.015482
-0.015416
-0.015349
-0.015283
-0.015217
-0.015150
-0.015084
-0.015017
-0.014951
-0.014884
-0.014818
-0.014751
-0.014684
-0.014618
-0.014551
-0.014484
-0.014417
-0.014350
-0.014283
-0.014216
-0.014149
-0.014082
-0.014015
-0.013948
-0.013881
-0.013814
-0.013746
-0.013679
-0.013612
-0.013545
-0.013477
-0.013410
-0.013342
-0.013275
-0.013207
-0.013140
-0.013072
-0.013005
-0.012937
-0.012869
-0.012802
-0.012734
-0.012666
-0.012598
-0.012530
-0.012462
-0.012395
-0.012327
-0.012259
-0.012191
-0.012123
-0.012054
-0.011986
-0.011918
-0.011850
-0.011782
-0.011714
-0.011645
-0.011577
-0.011509
-0.011440
-0.011372
-0.011304
-0.011235
-0.011167
-0.011098
-0.011030
-0.010961
-0.010893
-0.010824
-0.010755
-0.010687
-0.010618
-0.010549
-0.010481
-0.010412
-0.010343
-0.010274
-0.010205
-0.010137
-0.010068
-0.009999
-0.009930
-0.009861
-0.009792
-0.009723
-0.009654
-0.009585
-0.009516
-0.009447
-0.009377
-0.009308
-0.009239
-0.009170
-0.009101
-0.009031
-0.008962
-0.008893
-0.008824
-0.008754
-0.008685
-0.008616
-0.008546
-0.008477
-0.008407
-0.008338
-0.008268
-0.008199
-0.008129
-0.008060
-0.007990
-0.007921
-0.007851
-0.007782
-0.007712
-0.007642
-0.007573
-0.007503
-0.007433
-0.007363
-0.007294
-0.007224
-0.007154
-0.007084
-0.007015
-0.006945
-0.006875
-0.006805
-0.006735
-0.006665
-0.006596
-0.006526
-0.006456
-0.006386
-0.006316
-0.006246
-0.006176
-0.006106
-0.006036
-0.005966
-0.005896
-0.005826
-0.005756
-0.005686
-0.005615
-0.005545
-0.005475
-0.005405
-0.005335
-0.005265
-0.005195
-0.005124
-0.005054
-0.004984
-0.004914
-0.004844
-0.004773
-0.004703
-0.004633
-0.004563
-0.004492
-0.004422
-0.004352
-0.004281
-0.004211
-0.004141
-0.004070
-0.004000
-0.003930
-0.003859
-0.003789
-0.003719
-0.003648
-0.003578
-0.003507
-0.003437
-0.003367
-0.003296
-0.003226
-0.003155
-0.003085
-0.003014
-0.002944
-0.002873
-0.002803
-0.002732
-0.002662
-0.002591
-0.002521
-0.002450
-0.002380
-0.002309
-0.002239
-0.002168
-0.002098
-0.002027
-0.001957
-0.001886
-0.001816
-0.001745
-0.001675
-0.001604
-0.001533
-0.001463
-0.001392
-0.001322
-0.001251
-0.001180
-0.001110
-0.001039
-0.000969
-0.000898
-0.000827
-0.000757
-0.000686
-0.000616
-0.000545
-0.000474
-0.000404
-0.000333
-0.000263
-0.000192
-0.000121
-0.000051
0.000020
0.000091
0.000161
0.000232
0.000302
0.000373
0.000444
0.000514
0.000585
0.000656
0.000726
0.000797
0.000868
0.000938
0.001009
0.001079
0.001150
0.001221
0.001291
0.001362
0.001433
0.001503
0.001574
0.001644
0.001715
0.001786
0.001856
0.001927
0.001997
0.002068
0.002139
0.002209
0.002280
0.002350
0.002421
0.002492
0.002562
0.002633
0.002703
0.002774
0.002845
0.002915
0.002986
0.003056
0.003127
0.003197
0.003268
0.003338
0.003409
0.003480
0.003550
0.003621
0.003691
0.003762
0.003832
0.003903
0.003973
0.004044
0.004114
0.004185
0.004255
0.004326
0.004396
0.004467
0.004537
0.004608
0.004678
0.004748
0.004819
0.004889
0.004960
0.005030
0.005101
0.005171
0.005241
0.005312
0.005382
0.005453
0.005523
0.005593
0.005664
0.005734
0.005804
0.005875
0.005945
0.006015
0.006086
0.006156
0.006226
0.006297
0.006367
0.006437
0.006508
0.006578
0.006648
0.006718
0.006789
0.006859
0.006929
0.006999
0.007070
0.007140
0.007210
0.007280
0.007350
0.007421
0.007491
0.007561
0.007631
0.007701
0.007771
0.007841
0.007912
0.007982
0.008052
0.008122
0.008192
0.008262
0.008332
0.008402
0.008472
0.008542
0.008612
0.008682
0.008752
0.008822
0.008892
0.008962
0.009032
0.009102
0.009172
0.009242
0.009312
0.009382
0.009452
0.009522
0.009592
0.009662
0.009732
0.009801
0.009871
0.009941
0.010011
0.010081
0.010151
0.010221
0.010290
0.010360
0.010430
0.010500
0.010570
0.010639
0.010709
0.010779
0.010848
0.010918
0.010988
0.011058
0.011127
0.011197
0.011267
0.011336
0.011406
0.011476
0.011545
0.011615
0.011684
0.011754
0.011824
0.011893
0.011963
0.012032
0.012102
0.012171
0.012241
0.012310
0.012380
0.012449
0.012519
0.012588
0.012658
0.012727
0.012797
0.012866
0.012936
0.013005
0.013074
0.013144
0.013213
0.013282
0.013352
0.013421
0.013490
0.013560
0.013629
0.013698
0.013768
0.013837
0.013906
0.013975
0.014045
0.014114
0.014183
0.014252
0.014322
0.014391
0.014460
0.014529
0.014598
0.014667
0.014737
0.014806
0.014875
0.014944
0.015013
0.015082
0.015151
0.015220
0.015289
0.015358
0.015427
0.015496
0.015565
0.015634
0.015703
0.015772
0.015841
0.015910
0.015979
0.016048
0.016117
0.016186
0.016255
0.016324
0.016393
0.016462
0.016530
0.016599
0.016668
0.016737
0.016806
0.016875
0.016943
0.017012
0.017081
0.017150
0.017218
0.017287
0.017356
0.017425
0.017493
0.017562
0.017631
0.017699
0.017768
0.017837
0.017905
0.017974
0.018043
0.018111
0.018180
0.018248
0.018317
0.018386
0.018454
0.018523
0.018591
0.018660
0.018728
0.018797
0.018865
0.018934
0.019002
0.019071
0.019139
0.019208
0.019276
0.019345
0.019413
0.019482
0.019550
0.019618
0.019687
0.019755
0.019823
0.019892
0.019960
0.020029
0.020097
0.020165
0.020234
0.020302
0.020370
0.020438
0.020507
0.020575
0.020643
0.020711
0.020780
0.020848
0.020916
0.020984
0.021053
0.021121
0.021189
0.021257
0.021325
0.021393
0.021462
0.021530
0.021598
0.021666
0.021734
0.021802
0.021870
0.021938
0.022007
0.022075
0.022143
0.022211
0.022279
0.022347
0.022415
0.022483
0.022551
0.022619
0.022687
0.022755
0.022823
0.022891
0.022959
0.023027
0.023095
0.023163
0.023231
0.023299
0.023366
0.023434
0.023502
0.023570
0.023638
0.023706
0.023774
0.023910
0.023977
0.024045
0.024113
0.024181
0.024248
0.024316
0.024384
0.024452
0.024519
0.024587
0.024655
0.024723
0.024790
0.024858
0.024926
0.024993
0.025061
0.025129
0.025196
0.025264
0.025332
0.025399
0.025467
0.025535
0.025602
0.025670
0.025737
0.025805
0.025873
0.025940
0.026008
0.026075
0.026143
0.026210
0.026278
0.026346
0.026413
0.026481
0.026548
0.026616
0.026683
0.026751
0.026818
0.026886
0.026953
0.027021
0.027088
0.027156
0.027223
0.027291
0.027358
0.027426
0.027493
0.027561
0.027628
0.027695
0.027763
0.027830
0.027898
0.027965
0.028033
0.028100
0.028167
0.028235
0.028302
0.028370
0.028437
0.028504
0.028572
0.028639
0.028707
0.028774
0.028841
0.028909
0.028976
0.029043
0.029111
0.029178
0.029245
0.029313
0.029380
0.029447
0.029515
0.029582
0.029649
0.029717
0.029784
0.029851
0.029918
0.029986
0.030053
0.030120
0.030188
0.030255
0.030322
0.030389
0.030457
0.030524
0.030591
0.030658
0.030726
0.030793
0.030860
0.030927
0.030995
0.031062
0.031129
0.031196
0.031264
0.031331
0.031398
0.031465
0.031533
0.031600
0.031667
0.031734
0.031801
0.031869
0.031936
0.032003
0.032070
0.032137
0.032205
0.032272
0.032339
0.032406
0.032473
0.032541
0.032608
0.032675
0.032742
0.032809
0.032876
0.032944
0.033011
0.033078
0.033145
0.033212
0.033279
0.033347
0.033414
0.033481
0.033548
0.033615
0.033682
0.033749
0.033817
0.033884
0.033951
0.034018
0.034085
0.034152
0.034220
0.034287
0.034354
0.034421
0.034488
0.034555
0.034622
0.034689
0.034757
0.034824
0.034891
0.034958
0.035025
0.035092
0.035159
0.035226
0.035294
0.035361
0.035428
0.035495
0.035562
0.035629
0.035696
0.035764
0.035831
0.035898
0.035965
0.036032
0.036099
0.036166
0.036233
0.036301
0.036368
0.036435
0.036502
0.036569
0.036636
0.036703
0.036770
0.036838
0.036905
0.036972
0.037039
0.037106
0.037173
0.037240
0.037307
0.037375
0.037442
0.037509
0.037576
0.037643
0.037710
0.037777
0.037844
0.037912
0.037979
0.038046
0.038113
0.038180
0.038247
0.038314
0.038382
0.038449
0.038516
0.038583
0.038650
0.038717
0.038784
0.038852
0.038919
0.038986
0.039053
0.039120
0.039187
0.039255
0.039322
0.039389
0.039456
0.039523
0.039590
0.039657
0.039725
0.039792
0.039859
0.039926
0.039993
0.040061
0.040128
0.040195
0.040262
0.040329
0.040396
0.040464
0.040531
0.040598
0.040665
0.040732
0.040800
0.040867
0.040934
0.041001
0.041068
0.041136
0.041203
0.041270
0.041337
0.041404
0.041472
0.041539
0.041606
0.041673
0.041740
0.041808
0.041875
0.041942
0.042009
0.042077
0.042144
0.042211
0.042278
0.042346
0.042413
0.042480
0.042547
0.042615
0.042682
0.042749
0.042816
0.042884
0.042951
0.043018
0.043085
0.043153
0.043220
0.043287
0.043355
0.043422
0.043489
0.043556
0.043624
0.043691
0.043758
0.043826
0.043893
0.043960
0.044028
0.044095
0.044162
0.044230
0.044297
0.044364
0.044431
0.044499
0.044566
0.044633
0.044701
0.044768
0.044836
0.044903
0.044970
0.045038
0.045105
0.045172
0.045240
0.045307
0.045374
0.045442
0.045509
0.045577
0.045644
0.045711
0.045779
0.045846
0.045913
0.045981
0.046048
0.046116
0.046183
0.046250
0.046318
0.046385
0.046453
0.046520
0.046588
0.046655
0.046722
0.046790
0.046857
0.046925
0.046992
0.047060
0.047127
0.047195
0.047262
0.047329
0.047397
0.047464
0.047532
0.047599
0.033921
0.033954
0.033850
0.030332
0.030382
0.030429
-0.024518
-0.024482
-0.024586
-0.024629
-0.012909
0.038540
0.038662
0.038687
0.038761
0.032556
0.032447
0.032482
-0.013164
-0.013093
-0.013179
-0.013055
-0.035608
-0.035658
-0.035534
-0.035550
-0.013606
-0.013553
-0.013503
0.013303
0.013196
0.013257
0.013293
-0.022289
-0.022873
-0.026944
-0.027759
0.009402
0.009296
0.009337
0.009328
-0.010374
-0.010597
-0.010407
-0.010416
0.024701
0.024497
0.024290
0.024963
-0.035769
-0.035727
-0.035604
0.011563
0.011550
0.011675
0.011732
0.000578
-0.002195
-0.001531
-0.003830
0.005695
0.005847
0.005907
-0.019024
-0.018128
-0.019062
-0.003141
-0.003072
-0.003241
-0.003165
0.030002
0.030360
0.030324
0.030694
-0.000784
-0.000540
-0.000641
-0.000293
0.010087
0.010194
0.010003
0.010244
0.009399
0.009475
0.009341
0.009538
-0.005114
-0.005131
-0.005224
-0.005279
0.033667
0.033621
0.033495
-0.014147
-0.014345
-0.014208
0.005704
0.033449
0.033325
0.033321
0.033508
0.015412
0.015533
0.015477
-0.000235
-0.000209
-0.000311
0.015524
0.009297
0.008956
0.008833
-0.000127
0.017802
0.017726
0.017565
0.027978
0.028098
0.027959
0.028152
0.017249
0.017317
0.017196
0.017360
0.017523
-0.030741
-0.030881
-0.030809
0.039651
0.039537
0.039726
-0.030942
-0.021479
-0.021570
-0.021657
-0.021396
-0.017307
-0.017226
-0.017510
-0.017314
-0.009683
-0.009891
-0.009741
0.005077
0.005194
0.005046
0.005151
-0.009923
0.015485
0.015573
0.015413
-0.016432
-0.016595
-0.016442
-0.017964
-0.018183
-0.018354
0.015570
0.030832
0.030863
0.030715
-0.027434
-0.027389
-0.027331
0.033027
0.033155
0.033164
0.033050
0.019440
0.019259
0.019332
0.019067
0.000604
-0.000339
0.000629
0.000390
0.014610
0.014999
0.013972
0.015589
-0.025924
-0.025848
-0.026075
-0.025697
0.044870
0.044781
-0.037370
-0.037056
-0.036876
-0.036528
-0.024226
-0.023594
-0.022143
-0.026071
0.046360
0.046395
0.046556
-0.027946
-0.025723
-0.028092
-0.028250
-0.027662
0.032001
0.031977
0.031814
0.012535
0.012470
0.012622
0.012573
0.000912
0.000631
0.000833
-0.036171
-0.036156
-0.036357
-0.036191
0.046423
0.046157
0.046504
0.046073
0.039727
0.039846
0.039972
0.031770
0.019134
0.019001
0.018863
0.018757
-0.004259
-0.004181
-0.004090
-0.004319
-0.007671
-0.008115
-0.009340
0.040557
0.040521
0.040174
0.040316
-0.010272
-0.010014
-0.011258
-0.010728
0.018796
0.018810
0.018687
0.010915
0.011289
0.014433
0.007939
-0.032003
-0.032169
-0.031648
-0.032747
0.042813
0.042913
0.009738
0.009725
0.009795
0.018915
0.001215
0.001711
0.002048
0.002319
-0.017448
-0.017621
-0.017546
-0.017532
-0.016917
-0.019515
-0.018685
-0.017005
-0.003916
-0.003715
-0.004062
-0.004016
-0.021002
-0.020345
-0.019856
-0.019338
0.042192
0.042426
0.042577
0.042181
-0.019304
-0.019274
-0.019213
-0.039990
-0.041691
-0.040051
-0.040220
-0.033981
-0.034077
-0.034094
-0.006267
-0.006292
-0.013142
-0.013161
-0.013989
-0.012391
0.017608
0.016555
0.016699
0.015531
0.002464
0.006766
0.006200
0.005510
0.023062
0.023150
0.022495
0.022495
0.037614
0.036740
0.037032
0.037549
-0.016139
-0.016077
-0.016602
-0.016700
-0.013683
-0.013625
-0.013544
-0.013807
0.025739
0.026143
0.025837
0.026090
0.025365
0.025321
0.025812
-0.003191
-0.003068
-0.003040
-0.003184
0.044467
0.043972
0.044428
0.033475
-0.008460
-0.009395
-0.008922
-0.008864
0.037053
0.037088
0.036869
0.036952
0.007155
0.007286
0.007188
0.007342
0.017614
0.017819
-0.004817
-0.004464
-0.004162
-0.003907
-0.001268
-0.001255
-0.000090
-0.002465
-0.000488
-0.000415
-0.000361
0.041335
0.041193
0.041179
-0.024772
-0.024847
-0.024485
-0.024458
-0.000329
-0.021093
-0.019732
-0.020754
0.037705
0.037881
0.038168
0.038338
0.035259
0.035185
0.035171
0.035053
0.016717
0.016349
0.016253
0.017070
0.014424
0.014300
0.014243
0.014441
0.014349
0.014504
0.018453
0.017907
0.018263
-0.002540
-0.002647
-0.002519
0.010487
0.009081
0.012414
-0.002570
0.023998
0.024276
0.023423
0.020393
0.020549
0.020541
0.020440
0.030523
0.030549
0.030365
-0.021227
-0.018857
0.030680
0.028972
0.028925
0.028847
0.028810
-0.016707
-0.016641
-0.016736
0.037218
0.010023
0.010074
0.009763
0.009713
-0.030389
-0.029419
-0.029774
-0.028970
0.012204
0.012187
0.012080
0.012311
-0.020125
-0.019760
-0.020678
-0.019610
-0.024423
-0.024935
-0.022956
-0.026257
0.026029
0.025971
0.026148
-0.021094
-0.020913
-0.021381
0.013416
0.013384
0.012905
0.012589
0.032544
0.026971
0.026838
0.026968
0.020230
0.020903
0.020337
0.020803
-0.005088
-0.005639
-0.005761
0.026835
0.028471
0.028690
0.028475
0.014328
0.014650
0.014807
0.015131
0.017737
0.016576
-0.010086
-0.010452
-0.009949
-0.010780
-0.027982
-0.029313
-0.029315
-0.027236
-0.021172
-0.021493
0.008768
0.008702
0.009211
0.028592
-0.006187
-0.005061
-0.004621
-0.006481
0.014107
0.015496
0.021164
0.021242
0.021188
-0.020985
-0.020684
-0.020588
0.021316
-0.016890
-0.016860
-0.016781
0.029911
0.029772
0.029853
0.029715
-0.011171
-0.011121
-0.011073
-0.019749
-0.022844
0.005340
0.005310
0.005242
0.031797
0.031771
0.031693
0.031652
0.021260
0.021342
0.021399
0.007724
0.007297
0.007183
0.006566
0.020581
0.020474
0.020520
0.020408
0.017956
0.018008
0.017906
0.028392
0.028486
0.028540
0.020568
0.020433
0.021212
0.028584
-0.025631
-0.025634
-0.025524
0.019897
0.015294
0.014977
0.015442
0.021234
-0.027271
-0.027227
-0.027297
0.010708
0.008392
0.009332
-0.025741
0.026698
0.026703
0.026852
0.038270
0.038323
0.038201
0.038270