# vtk DataFile Version 2.0
Test
ASCII
DATASET POLYDATA
POINTS 20431 float
0.000000 0.000000 0.000000
2.000000 0.000000 0.000000
2.000000 4.000000 0.000000
0.000000 4.000000 0.000000
0.000000 0.500000 0.000000
1.500000 2.000000 0.000000
2.000000 2.500000 0.000000
0.400000 0.000000 0.000000
0.800000 0.000000 0.000000
1.200000 0.000000 0.000000
1.600000 0.000000 0.000000
2.000000 0.362557 0.000000
2.000000 0.672798 0.000000
2.000000 0.938272 0.000000
2.000000 1.165439 0.000000
2.000000 1.359826 0.000000
2.000000 1.526163 0.000000
2.000000 1.668499 0.000000
2.000000 1.790295 0.000000
2.000000 1.894517 0.000000
2.000000 1.983700 0.000000
2.000000 2.060013 0.000000
2.000000 2.125315 0.000000
2.000000 2.181194 0.000000
2.000000 2.229010 0.000000
2.000000 2.269926 0.000000
2.000000 2.304938 0.000000
2.000000 2.334898 0.000000
2.000000 2.360534 0.000000
2.000000 2.382472 0.000000
2.000000 2.401244 0.000000
2.000000 2.417307 0.000000
2.000000 2.431052 0.000000
2.000000 2.442814 0.000000
2.000000 2.452878 0.000000
2.000000 2.461491 0.000000
2.000000 2.468860 0.000000
2.000000 2.475167 0.000000
2.000000 2.480563 0.000000
2.000000 2.485180 0.000000
2.000000 2.489132 0.000000
2.000000 2.492513 0.000000
2.000000 2.495406 0.000000
2.000000 2.497882 0.000000
2.000000 2.502286 0.000000
2.000000 2.505266 0.000000
2.000000 2.509150 0.000000
2.000000 2.514212 0.000000
2.000000 2.520809 0.000000
2.000000 2.529407 0.000000
2.000000 2.540613 0.000000
2.000000 2.555218 0.000000
2.000000 2.574253 0.000000
2.000000 2.599061 0.000000
2.000000 2.631395 0.000000
2.000000 2.673536 0.000000
2.000000 2.728460 0.000000
2.000000 2.800043 0.000000
2.000000 2.893339 0.000000
2.000000 3.014933 0.000000
2.000000 3.173410 0.000000
2.000000 3.379956 0.000000
2.000000 3.649152 0.000000
1.600000 4.000000 0.000000
1.200000 4.000000 0.000000
0.800000 4.000000 0.000000
0.400000 4.000000 0.000000
0.000000 3.624996 0.000000
0.000000 3.289970 0.000000
0.000000 2.990661 0.000000
0.000000 2.723261 0.000000
0.000000 2.484368 0.000000
0.000000 2.270943 0.000000
0.000000 2.080271 0.000000
0.000000 1.909926 0.000000
0.000000 1.757741 0.000000
0.000000 1.621780 0.000000
0.000000 1.500314 0.000000
0.000000 1.391797 0.000000
0.000000 1.294849 0.000000
0.000000 1.208237 0.000000
0.000000 1.130858 0.000000
0.000000 1.061728 0.000000
0.000000 0.999968 0.000000
0.000000 0.944792 0.000000
0.000000 0.895499 0.000000
0.000000 0.851460 0.000000
0.000000 0.812117 0.000000
0.000000 0.776968 0.000000
0.000000 0.745565 0.000000
0.000000 0.717511 0.000000
0.000000 0.692448 0.000000
0.000000 0.670056 0.000000
0.000000 0.650052 0.000000
0.000000 0.632180 0.000000
0.000000 0.616213 0.000000
0.000000 0.601949 0.000000
0.000000 0.589205 0.000000
0.000000 0.577820 0.000000
0.000000 0.567649 0.000000
0.000000 0.558562 0.000000
0.000000 0.550444 0.000000
0.000000 0.543191 0.000000
0.000000 0.536712 0.000000
0.000000 0.530923 0.000000
0.000000 0.525751 0.000000
0.000000 0.521131 0.000000
0.000000 0.517003 0.000000
0.000000 0.513315 0.000000
0.000000 0.510021 0.000000
0.000000 0.507078 0.000000
0.000000 0.504448 0.000000
0.000000 0.502099 0.000000
0.000000 0.497804 0.000000
0.000000 0.494785 0.000000
0.000000 0.490633 0.000000
0.000000 0.484924 0.000000
0.000000 0.477074 0.000000
0.000000 0.466279 0.000000
0.000000 0.451436 0.000000
0.000000 0.431025 0.000000
0.000000 0.402959 0.000000
0.000000 0.364366 0.000000
0.000000 0.311297 0.000000
0.000000 0.238324 0.000000
0.000000 0.137980 0.000000
0.001414 0.501414 0.000000
0.002828 0.502828 0.000000
0.004241 0.504241 0.000000
0.005655 0.505655 0.000000
0.007069 0.507069 0.000000
0.008483 0.508483 0.000000
0.009896 0.509896 0.000000
0.011310 0.511310 0.000000
0.012724 0.512724 0.000000
0.014138 0.514138 0.000000
0.015551 0.515551 0.000000
0.016965 0.516965 0.000000
0.018379 0.518379 0.000000
0.019793 0.519793 0.000000
0.021206 0.521206 0.000000
0.022620 0.522620 0.000000
0.024034 0.524034 0.000000
0.025448 0.525448 0.000000
0.026861 0.526861 0.000000
0.028275 0.528275 0.000000
0.029689 0.529689 0.000000
0.031103 0.531103 0.000000
0.032516 0.532516 0.000000
0.033930 0.533930 0.000000
0.035344 0.535344 0.000000
0.036758 0.536758 0.000000
0.038172 0.538172 0.000000
0.039585 0.539585 0.000000
0.040999 0.540999 0.000000
0.042413 0.542413 0.000000
0.043827 0.543827 0.000000
0.045240 0.545240 0.000000
0.046654 0.546654 0.000000
0.048068 0.548068 0.000000
0.049482 0.549482 0.000000
0.050895 0.550895 0.000000
0.052309 0.552309 0.000000
0.053723 0.553723 0.000000
0.055137 0.555137 0.000000
0.056550 0.556550 0.000000
0.057964 0.557964 0.000000
0.059378 0.559378 0.000000
0.060792 0.560792 0.000000
0.062205 0.562205 0.000000
0.063619 0.563619 0.000000
0.065033 0.565033 0.000000
0.066447 0.566447 0.000000
0.067861 0.567861 0.000000
0.069274 0.569274 0.000000
0.070688 0.570688 0.000000
0.072102 0.572102 0.000000
0.073516 0.573516 0.000000
0.074929 0.574929 0.000000
0.076343 0.576343 0.000000
0.077757 0.577757 0.000000
0.079171 0.579171 0.000000
0.080584 0.580584 0.000000
0.081998 0.581998 0.000000
0.083412 0.583412 0.000000
0.084826 0.584826 0.000000
0.086239 0.586239 0.000000
0.087653 0.587653 0.000000
0.089067 0.589067 0.000000
0.090481 0.590481 0.000000
0.091894 0.591894 0.000000
0.093308 0.593308 0.000000
0.094722 0.594722 0.000000
0.096136 0.596136 0.000000
0.097549 0.597549 0.000000
0.098963 0.598963 0.000000
0.100377 0.600377 0.000000
0.101791 0.601791 0.000000
0.103205 0.603205 0.000000
0.104618 0.604618 0.000000
0.106032 0.606032 0.000000
0.107446 0.607446 0.000000
0.108860 0.608860 0.000000
0.110273 0.610273 0.000000
0.111687 0.611687 0.000000
0.113101 0.613101 0.000000
0.114515 0.614515 0.000000
0.115928 0.615928 0.000000
0.117342 0.617342 0.000000
0.118756 0.618756 0.000000
0.120170 0.620170 0.000000
0.121583 0.621583 0.000000
0.122997 0.622997 0.000000
0.124411 0.624411 0.000000
0.125825 0.625825 0.000000
0.127238 0.627238 0.000000
0.128652 0.628652 0.000000
0.130066 0.630066 0.000000
0.131480 0.631480 0.000000
0.132893 0.632893 0.000000
0.134307 0.634307 0.000000
0.135721 0.635721 0.000000
0.137135 0.637135 0.000000
0.138549 0.638549 0.000000
0.139962 0.639962 0.000000
0.141376 0.641376 0.000000
0.142790 0.642790 0.000000
0.144204 0.644204 0.000000
0.145617 0.645617 0.000000
0.147031 0.647031 0.000000
0.148445 0.648445 0.000000
0.149859 0.649859 0.000000
0.151272 0.651272 0.000000
0.152686 0.652686 0.000000
0.154100 0.654100 0.000000
0.155514 0.655514 0.000000
0.156927 0.656927 0.000000
0.158341 0.658341 0.000000
0.159755 0.659755 0.000000
0.161169 0.661169 0.000000
0.162582 0.662582 0.000000
0.163996 0.663996 0.000000
0.165410 0.665410 0.000000
0.166824 0.666824 0.000000
0.168238 0.668238 0.000000
0.169651 0.669651 0.000000
0.171065 0.671065 0.000000
0.172479 0.672479 0.000000
0.173893 0.673893 0.000000
0.175306 0.675306 0.000000
0.176720 0.676720 0.000000
0.178134 0.678134 0.000000
0.179548 0.679548 0.000000
0.180961 0.680961 0.000000
0.182375 0.682375 0.000000
0.183789 0.683789 0.000000
0.185203 0.685203 0.000000
0.186616 0.686616 0.000000
0.188030 0.688030 0.000000
0.189444 0.689444 0.000000
0.190858 0.690858 0.000000
0.192271 0.692271 0.000000
0.193685 0.693685 0.000000
0.195099 0.695099 0.000000
0.196513 0.696513 0.000000
0.197926 0.697926 0.000000
0.199340 0.699340 0.000000
0.200754 0.700754 0.000000
0.202168 0.702168 0.000000
0.203582 0.703582 0.000000
0.204995 0.704995 0.000000
0.206409 0.706409 0.000000
0.207823 0.707823 0.000000
0.209237 0.709237 0.000000
0.210650 0.710650 0.000000
0.212064 0.712064 0.000000
0.213478 0.713478 0.000000
0.214892 0.714892 0.000000
0.216305 0.716305 0.000000
0.217719 0.717719 0.000000
0.219133 0.719133 0.000000
0.220547 0.720547 0.000000
0.221960 0.721960 0.000000
0.223374 0.723374 0.000000
0.224788 0.724788 0.000000
0.226202 0.726202 0.000000
0.227615 0.727615 0.000000
0.229029 0.729029 0.000000
0.230443 0.730443 0.000000
0.231857 0.731857 0.000000
0.233270 0.733270 0.000000
0.234684 0.734684 0.000000
0.236098 0.736098 0.000000
0.237512 0.737512 0.000000
0.238926 0.738926 0.000000
0.240339 0.740339 0.000000
0.241753 0.741753 0.000000
0.243167 0.743167 0.000000
0.244581 0.744581 0.000000
0.245994 0.745994 0.000000
0.247408 0.747408 0.000000
0.248822 0.748822 0.000000
0.250236 0.750236 0.000000
0.251649 0.751649 0.000000
0.253063 0.753063 0.000000
0.254477 0.754477 0.000000
0.255891 0.755891 0.000000
0.257304 0.757304 0.000000
0.258718 0.758718 0.000000
0.260132 0.760132 0.000000
0.261546 0.761546 0.000000
0.262959 0.762959 0.000000
0.264373 0.764373 0.000000
0.265787 0.765787 0.000000
0.267201 0.767201 0.000000
0.268615 0.768615 0.000000
0.270028 0.770028 0.000000
0.271442 0.771442 0.000000
0.272856 0.772856 0.000000
0.274270 0.774270 0.000000
0.275683 0.775683 0.000000
0.277097 0.777097 0.000000
0.278511 0.778511 0.000000
0.279925 0.779925 0.000000
0.281338 0.781338 0.000000
0.282752 0.782752 0.000000
0.284166 0.784166 0.000000
0.285580 0.785580 0.000000
0.286993 0.786993 0.000000
0.288407 0.788407 0.000000
0.289821 0.789821 0.000000
0.291235 0.791235 0.000000
0.292648 0.792648 0.000000
0.294062 0.794062 0.000000
0.295476 0.795476 0.000000
0.296890 0.796890 0.000000
0.298303 0.798303 0.000000
0.299717 0.799717 0.000000
0.301131 0.801131 0.000000
0.302545 0.802545 0.000000
0.303959 0.803959 0.000000
0.305372 0.805372 0.000000
0.306786 0.806786 0.000000
0.308200 0.808200 0.000000
0.309614 0.809614 0.000000
0.311027 0.811027 0.000000
0.312441 0.812441 0.000000
0.313855 0.813855 0.000000
0.315269 0.815269 0.000000
0.316682 0.816682 0.000000
0.318096 0.818096 0.000000
0.319510 0.819510 0.000000
0.320924 0.820924 0.000000
0.322337 0.822337 0.000000
0.323751 0.823751 0.000000
0.325165 0.825165 0.000000
0.326579 0.826579 0.000000
0.327992 0.827992 0.000000
0.329406 0.829406 0.000000
0.330820 0.830820 0.000000
0.332234 0.832234 0.000000
0.333648 0.833648 0.000000
0.335061 0.835061 0.000000
0.336475 0.836475 0.000000
0.337889 0.837889 0.000000
0.339303 0.839303 0.000000
0.340716 0.840716 0.000000
[...]
POINT_DATA 20431
SCALARS UX float 1
LOOKUP_TABLE default
-0.000000
0.000000
0.146286
-0.152585
-0.119327
0.073668
0.147285
-0.000000
-0.000000
0.000000
-0.000000
0.099766
0.130627
0.142638
0.147019
0.148595
0.149043
0.148992
0.148812
0.148601
0.148393
0.148215
0.148060
0.147931
0.147823
0.147733
0.147659
0.147597
0.147545
0.147501
0.147465
0.147435
0.147409
0.147387
0.147369
0.147353
0.147340
0.147329
0.147319
0.147311
0.147304
0.147298
0.147293
0.147289
0.147281
0.147276
0.147269
0.147261
0.147250
0.147235
0.147217
0.147192
0.147162
0.147124
0.147074
0.147014
0.146940
0.146854
0.146750
0.146639
0.146525
0.146408
0.146324
0.086461
0.026661
-0.033107
-0.092850
-0.152582
-0.152582
-0.152610
-0.152686
-0.152819
-0.152985
-0.153166
-0.153309
-0.153341
-0.153227
-0.152960
-0.152500
-0.151812
-0.150920
-0.149840
-0.148601
-0.147224
-0.145735
-0.144179
-0.142576
-0.140959
-0.139344
-0.137773
-0.136223
-0.134746
-0.133340
-0.131999
-0.130745
-0.129571
-0.128480
-0.127470
-0.126535
-0.125678
-0.124892
-0.124174
-0.123519
-0.122922
-0.122380
-0.121888
-0.121443
-0.121040
-0.120676
-0.120347
-0.120051
-0.119784
-0.119543
-0.119100
-0.118784
-0.118345
-0.117736
-0.116877
-0.115677
-0.113926
-0.111418
-0.107714
-0.101938
-0.093009
-0.078893
-0.053932
-0.119285
-0.119242
-0.119198
-0.119152
-0.119106
-0.119060
-0.119012
-0.118964
-0.118914
-0.118864
-0.118813
-0.118762
-0.118709
-0.118656
-0.118602
-0.118547
-0.118491
-0.118434
-0.118377
-0.118319
-0.118261
-0.118201
-0.118141
-0.118081
-0.118019
-0.117957
-0.117894
-0.117831
-0.117766
-0.117701
-0.117636
-0.117570
-0.117503
-0.117436
-0.117368
-0.117299
-0.117230
-0.117160
-0.117090
-0.117019
-0.116948
-0.116875
-0.116803
-0.116730
-0.116656
-0.116582
-0.116507
-0.116431
-0.116355
-0.116279
-0.116201
-0.116124
-0.116045
-0.115967
-0.115887
-0.115808
-0.115727
-0.115647
-0.115566
-0.115484
-0.115402
-0.115320
-0.115237
-0.115153
-0.115070
-0.114985
-0.114901
-0.114815
-0.114730
-0.114644
-0.114557
-0.114470
-0.114382
-0.114294
-0.114206
-0.114117
-0.114027
-0.113937
-0.113847
-0.113756
-0.113665
-0.113573
-0.113481
-0.113388
-0.113295
-0.113201
-0.113107
-0.113013
-0.112918
-0.112823
-0.112727
-0.112631
-0.112535
-0.112438
-0.112340
-0.112242
-0.112144
-0.112045
-0.111946
-0.111846
-0.111746
-0.111646
-0.111545
-0.111444
-0.111342
-0.111240
-0.111137
-0.111034
-0.110930
-0.110826
-0.110722
-0.110617
-0.110512
-0.110406
-0.110300
-0.110193
-0.110086
-0.109979
-0.109871
-0.109762
-0.109654
-0.109544
-0.109435
-0.109325
-0.109214
-0.109103
-0.108992
-0.108880
-0.108768
-0.108656
-0.108543
-0.108429
-0.108316
-0.108201
-0.108087
-0.107972
-0.107856
-0.107740
-0.107624
-0.107508
-0.107391
-0.107273
-0.107155
-0.107037
-0.106918
-0.106799
-0.106679
-0.106559
-0.106439
-0.106318
-0.106197
-0.106076
-0.105954
-0.105831
-0.105708
-0.105585
-0.105462
-0.105338
-0.105213
-0.105089
-0.104964
-0.104838
-0.104712
-0.104586
-0.104459
-0.104332
-0.104205
-0.104077
-0.103949
-0.103820
-0.103691
-0.103562
-0.103432
-0.103302
-0.103172
-0.103041
-0.102910
-0.102778
-0.102646
-0.102514
-0.102382
-0.102249
-0.102116
-0.101982
-0.101848
-0.101714
-0.101579
-0.101444
-0.101309
-0.101173
-0.101037
-0.100901
-0.100764
-0.100627
-0.100490
-0.100352
-0.100214
-0.100076
-0.099937
-0.099798
-0.099659
-0.099519
-0.099379
-0.099239
-0.099098
-0.098957
-0.098815
-0.098674
-0.098532
-0.098389
-0.098247
-0.098104
-0.097960
-0.097817
-0.097673
-0.097529
-0.097384
-0.097239
-0.097094
-0.096948
-0.096802
-0.096656
-0.096510
-0.096363
-0.096216
-0.096068
-0.095921
-0.095773
-0.095624
-0.095476
-0.095327
-0.095178
-0.095028
-0.094878
-0.094728
-0.094578
-0.094427
-0.094276
-0.094124
-0.093973
-0.093821
-0.093669
-0.093516
-0.093363
-0.093210
-0.093057
-0.092903
-0.092749
-0.092595
-0.092441
-0.092286
-0.092131
-0.091975
-0.091819
-0.091663
-0.091507
-0.091351
-0.091194
-0.091037
-0.090879
-0.090722
-0.090564
-0.090406
-0.090247
-0.090088
-0.089929
-0.089770
-0.089610
-0.089450
-0.089290
-0.089130
-0.088969
-0.088808
-0.088647
-0.088485
-0.088324
-0.088161
-0.087999
-0.087837
-0.087674
-0.087511
-0.087347
-0.087184
-0.087020
-0.086855
-0.086691
-0.086526
-0.086361
-0.086196
-0.086030
-0.085865
-0.085699
-0.085532
-0.085366
-0.085199
-0.085032
-0.084865
-0.084697
-0.084529
-0.084361
-0.084193
-0.084025
-0.083856
-0.083687
-0.083517
-0.083348
-0.083178
-0.083008
-0.082838
-0.082667
-0.082497
-0.082326
-0.082154
-0.081983
-0.081811
-0.081639
-0.081467
-0.081295
-0.081122
-0.080950
-0.080776
-0.080603
-0.080430
-0.080256
-0.080082
-0.079908
-0.079733
-0.079559
-0.079384
-0.079209
-0.079033
-0.078858
-0.078682
-0.078506
-0.078329
-0.078153
-0.077976
-0.077799
-0.077622
-0.077445
-0.077267
-0.077089
-0.076911
-0.076733
-0.076554
-0.076376
-0.076197
-0.076018
-0.075838
-0.075659
-0.075479
-0.075299
-0.075119
-0.074938
-0.074758
-0.074577
-0.074396
-0.074215
-0.074033
-0.073851
-0.073670
-0.073487
-0.073305
-0.073123
-0.072940
-0.072757
-0.072574
-0.072390
-0.072207
-0.072023
-0.071839
-0.071655
-0.071471
-0.071286
-0.071101
-0.070916
-0.070731
-0.070546
-0.070360
-0.070174
-0.069988
-0.069802
-0.069616
-0.069429
-0.069243
-0.069056
-0.068868
-0.068681
-0.068494
-0.068306
-0.068118
-0.067930
-0.067741
-0.067553
-0.067364
-0.067175
-0.066986
-0.066797
-0.066608
-0.066418
-0.066228
-0.066038
-0.065848
-0.065658
-0.065467
-0.065276
-0.065085
-0.064894
-0.064703
-0.064511
-0.064320
-0.064128
-0.063936
-0.063744
-0.063551
-0.063359
-0.063166
-0.062973
-0.062780
-0.062586
-0.062393
-0.062199
-0.062005
-0.061811
-0.061617
-0.061423
-0.061228
-0.061034
-0.060839
-0.060644
-0.060449
-0.060253
-0.060058
-0.059862
-0.059666
-0.059470
-0.059274
-0.059078
-0.058881
-0.058684
-0.058487
-0.058290
-0.058093
-0.057896
-0.057698
-0.057501
-0.057303
-0.057105
-0.056907
-0.056708
-0.056510
-0.056311
-0.056113
-0.055914
-0.055715
-0.055515
-0.055316
-0.055116
-0.054917
-0.054717
-0.054517
-0.054317
-0.054116
-0.053916
-0.053715
-0.053515
-0.053314
-0.053113
-0.052912
-0.052710
-0.052509
-0.052307
-0.052106
-0.051904
-0.051702
-0.051500
-0.051297
-0.051095
-0.050892
-0.050690
-0.050487
-0.050284
-0.050081
-0.049877
-0.049674
-0.049471
-0.049267
-0.049063
-0.048859
-0.048655
-0.048451
-0.048247
-0.048042
-0.047838
-0.047633
-0.047428
-0.047223
-0.047018
-0.046813
-0.046607
-0.046402
-0.046196
-0.045991
-0.045785
-0.045579
-0.045373
-0.045167
-0.044960
-0.044754
-0.044547
-0.044340
-0.044134
-0.043927
-0.043720
-0.043513
-0.043305
-0.043098
-0.042890
-0.042683
-0.042475
-0.042267
-0.042059
-0.041851
-0.041643
-0.041435
-0.041226
-0.041018
-0.040809
-0.040600
-0.040392
-0.040183
-0.039974
-0.039765
-0.039555
-0.039346
-0.039137
-0.038927
-0.038717
-0.038508
-0.038298
-0.038088
-0.037878
-0.037668
-0.037457
-0.037247
-0.037037
-0.036826
-0.036615
-0.036405
-0.036194
-0.035983
-0.035772
-0.035561
-0.035350
-0.035138
-0.034927
-0.034716
-0.034504
-0.034292
-0.034081
-0.033869
-0.033657
-0.033445
-0.033233
-0.033021
-0.032809
-0.032596
-0.032384
-0.032171
-0.031959
-0.031746
-0.031534
-0.031321
-0.031108
-0.030895
-0.030682
-0.030469
-0.030256
-0.030042
-0.029829
-0.029616
-0.029402
-0.029189
-0.028975
-0.028762
-0.028548
-0.028334
-0.028120
-0.027906
-0.027692
-0.027478
-0.027264
-0.027050
-0.026835
-0.026621
-0.026407
-0.026192
-0.025978
-0.025763
-0.025548
-0.025334
-0.025119
-0.024904
-0.024689
-0.024474
-0.024259
-0.024044
-0.023829
-0.023614
-0.023398
-0.023183
-0.022968
-0.022752
-0.022537
-0.022321
-0.022106
-0.021890
-0.021674
-0.021459
-0.021243
-0.021027
-0.020811
-0.020595
-0.020379
-0.020163
-0.019947
-0.019731
-0.019515
-0.019299
-0.019083
-0.018866
-0.018650
-0.018434
-0.018217
-0.018001
-0.017784
-0.017568
-0.017351
-0.017135
-0.016918
-0.016701
-0.016484
-0.016268
-0.016051
-0.015834
-0.015617
-0.015400
-0.015183
-0.014966
-0.014749
-0.014532
-0.014315
-0.014098
-0.013881
-0.013664
-0.013446
-0.013229
-0.013012
-0.012795
-0.012577
-0.012360
-0.012142
-0.011925
-0.011708
-0.011490
-0.011273
-0.011055
-0.010838
-0.010620
-0.010402
-0.010185
-0.009967
-0.009749
-0.009532
-0.009314
-0.009096
-0.008879
-0.008661
-0.008443
-0.008225
-0.008007
-0.007790
-0.007572
-0.007354
-0.007136
-0.006918
-0.006700
-0.006482
-0.006264
-0.006046
-0.005828
-0.005610
-0.005392
-0.005174
-0.004956
-0.004738
-0.004520
-0.004302
-0.004084
-0.003866
-0.003647
-0.003429
-0.003211
-0.002993
-0.002775
-0.002557
-0.002339
-0.002120
-0.001902
-0.001684
-0.001466
-0.001248
-0.001029
-0.000811
-0.000593
-0.000375
-0.000157
0.000062
0.000280
0.000498
0.000716
0.000935
0.001153
0.001371
0.001589
0.001808
0.002026
0.002244
0.002462
0.002681
0.002899
0.003117
0.003335
0.003553
0.003772
0.003990
0.004208
0.004426
0.004645
0.004863
0.005081
0.005299
0.005517
0.005736
0.005954
0.006172
0.006390
0.006608
0.006826
0.007045
0.007263
0.007481
0.007699
0.007917
0.008135
0.008353
0.008571
0.008789
0.009007
0.009225
0.009444
0.009662
0.009880
0.010098
0.010316
0.010534
0.010751
0.010969
0.011187
0.011405
0.011623
0.011841
0.012059
0.012277
0.012495
0.012712
0.012930
0.013148
0.013366
0.013584
0.013801
0.014019
0.014237
0.014454
0.014672
0.014890
0.015107
0.015325
0.015543
0.015760
0.015978
0.016195
0.016413
0.016630
0.016848
0.017065
0.017283
0.017500
0.017718
0.017935
0.018152
0.018370
0.018587
0.018804
0.019022
0.019239
0.019456
0.019673
0.019890
0.020108
0.020325
0.020542
0.020759
0.020976
0.021193
0.021410
0.021627
0.021844
0.022061
0.022278
0.022495
0.022712
0.022929
0.023145
0.023362
0.023579
0.023796
0.024012
0.024229
0.024446
0.024662
0.024879
0.025096
0.025312
0.025529
0.025745
0.025962
0.026178
0.026395
0.026611
0.026827
0.027044
0.027260
0.027476
0.027693
0.027909
0.028125
0.028341
0.028557
0.028774
0.028990
0.029206
0.029422
0.029638
0.029854
0.030070
0.030286
0.030501
0.030717
0.030933
0.031149
0.031365
0.031580
0.031796
0.032012
0.032227
0.032443
0.032659
0.032874
0.033090
0.033305
0.033521
0.033736
0.033951
0.034167
0.034382
0.034597
0.034813
0.035028
0.035243
0.035458
0.035673
0.035888
0.036104
0.036319
0.036534
0.036749
0.036964
0.037178
0.037393
0.037608
0.037823
0.038038
0.038253
0.038467
0.038682
0.038897
0.039111
0.039326
0.039540
0.039755
0.039969
0.040184
0.040398
0.040613
0.040827
0.041041
0.041256
0.041470
0.041684
0.041898
0.042112
0.042326
0.042541
0.042755
0.042969
0.043183
0.043397
0.043611
0.043824
0.044038
0.044252
0.044466
0.044680
0.044893
0.045107
0.045321
0.045534
0.045748
0.045961
0.046175
0.046388
0.046602
0.046815
0.047029
0.047242
0.047455
0.047669
0.047882
0.048095
0.048308
0.048522
0.048735
0.048948
0.049161
0.049374
0.049587
0.049800
0.050013
0.050226
0.050439
0.050651
0.050864
0.051077
0.051290
0.051502
0.051715
0.051928
0.052140
0.052353
0.052565
0.052778
0.052990
0.053203
0.053415
0.053628
0.053840
0.054052
0.054265
0.054477
0.054689
0.054901
0.055113
0.055326
0.055538
0.055750
0.055962
0.056174
0.056386
0.056598
0.056810
0.057021
0.057233
0.057445
0.057657
0.057869
0.058080
0.058292
0.058504
0.058715
0.058927
0.059138
0.059350
0.059561
0.059773
0.059984
0.060196
0.060407
0.060618
0.060830
0.061041
0.061252
0.061464
0.061675
0.061886
0.062097
0.062308
0.062519
0.062730
0.062941
0.063152
0.063363
0.063574
0.063785
0.063996
0.064207
0.064418
0.064629
0.064839
0.065050
0.065261
0.065471
0.065682
0.065893
0.066103
0.066314
0.066525
0.066735
0.066946
0.067156
0.067366
0.067577
0.067787
0.067998
0.068208
0.068418
0.068629
0.068839
0.069049
0.069259
0.069470
0.069680
0.069890
0.070100
0.070310
0.070520
0.070730
0.070940
0.071150
0.071360
0.071570
0.071780
0.071990
0.072200
0.072410
0.072619
0.072829
0.073039
0.073249
0.073459
0.073878
0.074087
0.074297
0.074506
0.074715
0.074925
0.075134
0.075343
0.075553
0.075762
0.075971
0.076181
0.076390
0.076599
0.076808
0.077017
0.077226
0.077436
0.077645
0.077854
0.078063
0.078272
0.078481
0.078690
0.078899
0.079108
0.079317
0.079525
0.079734
0.079943
0.080152
0.080361
0.080570
0.080779
0.080987
0.081196
0.081405
0.081614
0.081822
0.082031
0.082240
0.082448
0.082657
0.082865
0.083074
0.083283
0.083491
0.083700
0.083908
0.084117
0.084325
0.084534
0.084742
0.084951
0.085159
0.085367
0.085576
0.085784
0.085993
0.086201
0.086409
0.086618
0.086826
0.087034
0.087242
0.087451
0.087659
0.087867
0.088075
0.088284
0.088492
0.088700
0.088908
0.089116
0.089324
0.089532
0.089741
0.089949
0.090157
0.090365
0.090573
0.090781
0.090989
0.091197
0.091405
0.091613
0.091821
0.092029
0.092237
0.092445
0.092653
0.092860
0.093068
0.093276
0.093484
0.093692
0.093900
0.094108
0.094316
0.094523
0.094731
0.094939
0.095147
0.095355
0.095562
0.095770
0.095978
0.096186
0.096393
0.096601
0.096809
0.097017
0.097224
0.097432
0.097640
0.097847
0.098055
0.098263
0.098470
0.098678
0.098886
0.099093
0.099301
0.099509
0.099716
0.099924
0.100131
0.100339
0.100547
0.100754
0.100962
0.101169
0.101377
0.101584
0.101792
0.101999
0.102207
0.102415
0.102622
0.102830
0.103037
0.103245
0.103452
0.103660
0.103867
0.104075
0.104282
0.104490
0.104697
0.104905
0.105112
0.105319
0.105527
0.105734
0.105942
0.106149
0.106357
0.106564
0.106772
0.106979
0.107186
0.107394
0.107601
0.107809
0.108016
0.108224
0.108431
0.108638
0.108846
0.109053
0.109261
0.109468
0.109676
0.109883
0.110090
0.110298
0.110505
0.110713
0.110920
0.111127
0.111335
0.111542
0.111750
0.111957
0.112164
0.112372
0.112579
0.112787
0.112994
0.113201
0.113409
0.113616
0.113824
0.114031
0.114239
0.114446
0.114653
0.114861
0.115068
0.115276
0.115483
0.115691
0.115898
0.116105
0.116313
0.116520
0.116728
0.116935
0.117143
0.117350
0.117557
0.117765
0.117972
0.118180
0.118387
0.118595
0.118802
0.119010
0.119217
0.119425
0.119632
0.119840
0.120047
0.120254
0.120462
0.120669
0.120877
0.121084
0.121292
0.121499
0.121707
0.121915
0.122122
0.122330
0.122537
0.122745
0.122952
0.123160
0.123367
0.123575
0.123782
0.123990
0.124198
0.124405
0.124613
0.124820
0.125028
0.125235
0.125443
0.125651
0.125858
0.126066
0.126274
0.126481
0.126689
0.126897
0.127104
0.127312
0.127519
0.127727
0.127935
0.128143
0.128350
0.128558
0.128766
0.128973
0.129181
0.129389
0.129596
0.129804
0.130012
0.130220
0.130428
0.130635
0.130843
0.131051
0.131259
0.131466
0.131674
0.131882
0.132090
0.132298
0.132506
0.132713
0.132921
0.133129
0.133337
0.133545
0.133753
0.133961
0.134169
0.134377
0.134584
0.134792
0.135000
0.135208
0.135416
0.135624
0.135832
0.136040
0.136248
0.136456
0.136664
0.136872
0.137080
0.137288
0.137496
0.137704
0.137912
0.138120
0.138329
0.138537
0.138745
0.138953
0.139161
0.139369
0.139577
0.139785
0.139994
0.140202
0.140410
0.140618
0.140826
0.141034
0.141243
0.141451
0.141659
0.141867
0.142076
0.142284
0.142492
0.142700
0.142909
0.143117
0.143325
0.143534
0.143742
0.143950
0.144159
0.144367
0.144575
0.144784
0.144992
0.145201
0.145409
0.145617
0.145826
0.146034
0.146243
0.146451
0.146660
0.146868
0.147077
0.104812
0.104913
0.104592
0.093722
0.093877
0.094024
-0.075757
-0.075647
-0.075967
-0.076102
-0.039886
0.119085
0.119460
0.119539
0.119766
0.100593
0.100259
0.100364
-0.040676
-0.040457
-0.040721
-0.040338
-0.110024
-0.110180
-0.109795
-0.109845
-0.042040
-0.041879
-0.041723
0.041106
0.040776
0.040962
0.041072
-0.068871
-0.070674
-0.083253
-0.085774
0.029050
0.028722
0.028851
0.028821
-0.032055
-0.032743
-0.032155
-0.032185
0.076323
0.075694
0.075052
0.077133
-0.110522
-0.110393
-0.110013
0.035729
0.035689
0.036075
0.036251
0.001787
-0.006782
-0.004731
-0.011834
0.017598
0.018066
0.018251
-0.058780
-0.056014
-0.058899
-0.009704
-0.009491
-0.010013
-0.009781
0.092701
0.093810
0.093699
0.094842
-0.002423
-0.001669
-0.001982
-0.000905
0.031166
0.031497
0.030907
0.031654
0.029041
0.029277
0.028863
0.029471
-0.015800
-0.015854
-0.016142
-0.016311
0.104026
0.103884
0.103496
-0.043714
-0.044325
-0.043902
0.017626
0.103353
0.102970
0.102958
0.103535
0.047620
0.047995
0.047823
-0.000727
-0.000646
-0.000961
0.047969
0.028727
0.027672
0.027294
-0.000393
0.055006
0.054772
0.054273
0.086450
0.086820
0.086390
0.086985
0.053299
0.053508
0.053134
0.053641
0.054143
-0.094987
-0.095418
-0.095196
0.122517
0.122166
0.122748
-0.095608
-0.066369
-0.066649
-0.066919
-0.066110
-0.053475
-0.053228
-0.054105
-0.053498
-0.029919
-0.030561
-0.030098
0.015688
0.016050
0.015591
0.015916
-0.030662
0.047845
0.048119
0.047624
-0.050773
-0.051275
-0.050803
-0.055508
-0.056185
-0.056710
0.048110
0.095269
0.095363
0.094907
-0.084767
-0.084628
-0.084450
0.102051
0.102447
0.102473
0.102121
0.060066
0.059507
0.059732
0.058915
0.001867
-0.001049
0.001944
0.001204
0.045143
0.046344
0.043172
0.048168
-0.080102
-0.079867
-0.080568
-0.079401
0.138644
0.138370
-0.115470
-0.114498
-0.113941
-0.112866
-0.074856
-0.072901
-0.068419
-0.080555
0.143248
0.143354
0.143852
-0.086351
-0.079480
-0.086801
-0.087290
-0.085474
0.098879
0.098807
0.098302
0.038733
0.038532
0.039002
0.038850
0.002819
0.001949
0.002573
-0.111763
-0.111717
-0.112340
-0.111825
0.143442
0.142619
0.143691
0.142360
0.122751
0.123119
0.123508
0.098164
0.059123
0.058710
0.058284
0.057958
-0.013158
-0.012918
-0.012636
-0.013344
-0.023704
-0.025074
-0.028859
0.125316
0.125206
0.124134
0.124571
-0.031740
-0.030941
-0.034787
-0.033149
0.058076
0.058120
0.057740
0.033725
0.034882
0.044595
0.024529
-0.098884
-0.099398
-0.097789
-0.101186
0.132287
0.132597
0.030090
0.030048
0.030265
0.058446
0.003755
0.005286
0.006328
0.007167
-0.053912
-0.054447
-0.054215
-0.054172
-0.052273
-0.060299
-0.057733
-0.052543
-0.012099
-0.011478
-0.012550
-0.012410
-0.064893
-0.062863
-0.061353
-0.059753
0.130369
0.131092
0.131557
0.130335
-0.059646
-0.059554
-0.059366
-0.123566
-0.128821
-0.123753
-0.124274
-0.104998
-0.105294
-0.105346
-0.019365
-0.019441
-0.040607
-0.040665
-0.043224
-0.038288
0.054407
0.051152
0.051599
0.047990
0.007615
0.020908
0.019158
0.017025
0.071260
0.071530
0.069506
0.069508
0.116222
0.113522
0.114424
0.116023
-0.049869
-0.049675
-0.051298
-0.051600
-0.042278
-0.042100
-0.041849
-0.042662
0.079529
0.080779
0.079832
0.080614
0.078374
0.078240
0.079756
-0.009859
-0.009479
-0.009392
-0.009838
0.137399
0.135867
0.137277
0.103434
-0.026140
-0.029029
-0.027568
-0.027389
0.114491
0.114599
0.113922
0.114177
0.022107
0.022513
0.022210
0.022687
0.054424
0.055059
-0.014885
-0.013792
-0.012860
-0.012073
-0.003918
-0.003877
-0.000277
-0.007617
-0.001507
-0.001282
-0.001116
0.127720
0.127283
0.127238
-0.076544
-0.076775
-0.075657
-0.075572
-0.001018
-0.065174
-0.060971
-0.064128
0.116504
0.117047
0.117934
0.118460
0.108946
0.108717
0.108675
0.108309
0.051655
0.050516
0.050221
0.052744
0.044567
0.044185
0.044009
0.044622
0.044338
0.044816
0.057017
0.055331
0.056430
-0.007847
-0.008179
-0.007783
0.032404
0.028059
0.038357
-0.007941
0.074152
0.075009
0.072376
0.063014
0.063495
0.063471
0.063157
0.094313
0.094393
0.093824
-0.065588
-0.058265
0.094798
0.089519
0.089374
0.089134
0.089020
-0.051623
-0.051418
-0.051713
0.115001
0.030971
0.031129
0.030166
0.030011
-0.093897
-0.090902
-0.091998
-0.089515
0.037710
0.037658
0.037325
0.038038
-0.062183
-0.061057
-0.063893
-0.060591
-0.075466
-0.077047
-0.070932
-0.081130
0.080427
0.080247
0.080794
-0.065178
-0.064619
-0.066064
0.041455
0.041356
0.039875
0.038898
0.100559
0.083338
0.082928
0.083327
0.062508
0.064588
0.062840
0.064278
-0.015720
-0.017425
-0.017801
0.082917
0.087972
0.088650
0.087984
0.044273
0.045268
0.045753
0.046752
0.054805
0.051218
-0.031164
-0.032297
-0.030740
-0.033310
-0.086460
-0.090574
-0.090579
-0.084155
-0.065420
-0.066411
0.027092
0.026888
0.028460
0.088346
-0.019116
-0.015637
-0.014279
-0.020024
0.043588
0.047879
0.065396
0.065636
0.065468
-0.064840
-0.063910
-0.063613
0.065865
-0.052187
-0.052096
-0.051851
0.092421
0.091992
0.092243
0.091815
-0.034517
-0.034361
-0.034214
-0.061021
-0.070586
0.016500
0.016407
0.016198
0.098250
0.098170
0.097928
0.097800
0.065692
0.065945
0.066119
0.023867
0.022548
0.022194
0.020289
0.063593
0.063264
0.063404
0.063058
0.055481
0.055643
0.055328
0.087727
0.088019
0.088185
0.063554
0.063136
0.065543
0.088320
-0.079198
-0.079206
-0.078866
0.061478
0.047256
0.046276
0.047715
0.065611
-0.084265
-0.084129
-0.084346
0.033085
0.025930
0.028836
-0.079537
0.082493
0.082509
0.082970
0.118249
0.118415
0.118035
0.118251