# vtk DataFile Version 2.0
Test
ASCII
DATASET POLYDATA
POINTS 20431 float
0.000000 0.000000 0.000000
2.000000 0.000000 0.000000
2.000000 4.000000 0.000000
0.000000 4.000000 0.000000
0.000000 0.500000 0.000000
1.500000 2.000000 0.000000
2.000000 2.500000 0.000000
0.400000 0.000000 0.000000
0.800000 0.000000 0.000000
1.200000 0.000000 0.000000
1.600000 0.000000 0.000000
2.000000 0.362557 0.000000
2.000000 0.672798 0.000000
2.000000 0.938272 0.000000
2.000000 1.165439 0.000000
2.000000 1.359826 0.000000
2.000000 1.526163 0.000000
2.000000 1.668499 0.000000
2.000000 1.790295 0.000000
2.000000 1.894517 0.000000
2.000000 1.983700 0.000000
2.000000 2.060013 0.000000
2.000000 2.125315 0.000000
2.000000 2.181194 0.000000
2.000000 2.229010 0.000000
2.000000 2.269926 0.000000
2.000000 2.304938 0.000000
2.000000 2.334898 0.000000
2.000000 2.360534 0.000000
2.000000 2.382472 0.000000
2.000000 2.401244 0.000000
2.000000 2.417307 0.000000
2.000000 2.431052 0.000000
2.000000 2.442814 0.000000
2.000000 2.452878 0.000000
2.000000 2.461491 0.000000
2.000000 2.468860 0.000000
2.000000 2.475167 0.000000
2.000000 2.480563 0.000000
2.000000 2.485180 0.000000
2.000000 2.489132 0.000000
2.000000 2.492513 0.000000
2.000000 2.495406 0.000000
2.000000 2.497882 0.000000
2.000000 2.502286 0.000000
2.000000 2.505266 0.000000
2.000000 2.509150 0.000000
2.000000 2.514212 0.000000
2.000000 2.520809 0.000000
2.000000 2.529407 0.000000
2.000000 2.540613 0.000000
2.000000 2.555218 0.000000
2.000000 2.574253 0.000000
2.000000 2.599061 0.000000
2.000000 2.631395 0.000000
2.000000 2.673536 0.000000
2.000000 2.728460 0.000000
2.000000 2.800043 0.000000
2.000000 2.893339 0.000000
2.000000 3.014933 0.000000
2.000000 3.173410 0.000000
2.000000 3.379956 0.000000
2.000000 3.649152 0.000000
1.600000 4.000000 0.000000
1.200000 4.000000 0.000000
0.800000 4.000000 0.000000
0.400000 4.000000 0.000000
0.000000 3.624996 0.000000
0.000000 3.289970 0.000000
0.000000 2.990661 0.000000
0.000000 2.723261 0.000000
0.000000 2.484368 0.000000
0.000000 2.270943 0.000000
0.000000 2.080271 0.000000
0.000000 1.909926 0.000000
0.000000 1.757741 0.000000
0.000000 1.621780 0.000000
0.000000 1.500314 0.000000
0.000000 1.391797 0.000000
0.000000 1.294849 0.000000
0.000000 1.208237 0.000000
0.000000 1.130858 0.000000
0.000000 1.061728 0.000000
0.000000 0.999968 0.000000
0.000000 0.944792 0.000000
0.000000 0.895499 0.000000
0.000000 0.851460 0.000000
0.000000 0.812117 0.000000
0.000000 0.776968 0.000000
0.000000 0.745565 0.000000
0.000000 0.717511 0.000000
0.000000 0.692448 0.000000
0.000000 0.670056 0.000000
0.000000 0.650052 0.000000
0.000000 0.632180 0.000000
0.000000 0.616213 0.000000
0.000000 0.601949 0.000000
0.000000 0.589205 0.000000
0.000000 0.577820 0.000000
0.000000 0.567649 0.000000
0.000000 0.558562 0.000000
0.000000 0.550444 0.000000
0.000000 0.543191 0.000000
0.000000 0.536712 0.000000
0.000000 0.530923 0.000000
0.000000 0.525751 0.000000
0.000000 0.521131 0.000000
0.000000 0.517003 0.000000
0.000000 0.513315 0.000000
0.000000 0.510021 0.000000
0.000000 0.507078 0.000000
0.000000 0.504448 0.000000
0.000000 0.502099 0.000000
0.000000 0.497804 0.000000
0.000000 0.494785 0.000000
0.000000 0.490633 0.000000
0.000000 0.484924 0.000000
0.000000 0.477074 0.000000
0.000000 0.466279 0.000000
0.000000 0.451436 0.000000
0.000000 0.431025 0.000000
0.000000 0.402959 0.000000
0.000000 0.364366 0.000000
0.000000 0.311297 0.000000
0.000000 0.238324 0.000000
0.000000 0.137980 0.000000
0.001414 0.501414 0.000000
0.002828 0.502828 0.000000
0.004241 0.504241 0.000000
0.005655 0.505655 0.000000
0.007069 0.507069 0.000000
0.008483 0.508483 0.000000
0.009896 0.509896 0.000000
0.011310 0.511310 0.000000
0.012724 0.512724 0.000000
0.014138 0.514138 0.000000
0.015551 0.515551 0.000000
0.016965 0.516965 0.000000
0.018379 0.518379 0.000000
0.019793 0.519793 0.000000
0.021206 0.521206 0.000000
0.022620 0.522620 0.000000
0.024034 0.524034 0.000000
0.025448 0.525448 0.000000
0.026861 0.526861 0.000000
0.028275 0.528275 0.000000
0.029689 0.529689 0.000000
0.031103 0.531103 0.000000
0.032516 0.532516 0.000000
0.033930 0.533930 0.000000
0.035344 0.535344 0.000000
0.036758 0.536758 0.000000
0.038172 0.538172 0.000000
0.039585 0.539585 0.000000
0.040999 0.540999 0.000000
0.042413 0.542413 0.000000
0.043827 0.543827 0.000000
0.045240 0.545240 0.000000
0.046654 0.546654 0.000000
0.048068 0.548068 0.000000
0.049482 0.549482 0.000000
0.050895 0.550895 0.000000
0.052309 0.552309 0.000000
0.053723 0.553723 0.000000
0.055137 0.555137 0.000000
0.056550 0.556550 0.000000
0.057964 0.557964 0.000000
0.059378 0.559378 0.000000
0.060792 0.560792 0.000000
0.062205 0.562205 0.000000
0.063619 0.563619 0.000000
0.065033 0.565033 0.000000
0.066447 0.566447 0.000000
0.067861 0.567861 0.000000
0.069274 0.569274 0.000000
0.070688 0.570688 0.000000
0.072102 0.572102 0.000000
0.073516 0.573516 0.000000
0.074929 0.574929 0.000000
0.076343 0.576343 0.000000
0.077757 0.577757 0.000000
0.079171 0.579171 0.000000
0.080584 0.580584 0.000000
0.081998 0.581998 0.000000
0.083412 0.583412 0.000000
0.084826 0.584826 0.000000
0.086239 0.586239 0.000000
0.087653 0.587653 0.000000
0.089067 0.589067 0.000000
0.090481 0.590481 0.000000
0.091894 0.591894 0.000000
0.093308 0.593308 0.000000
0.094722 0.594722 0.000000
0.096136 0.596136 0.000000
0.097549 0.597549 0.000000
0.098963 0.598963 0.000000
0.100377 0.600377 0.000000
0.101791 0.601791 0.000000
0.103205 0.603205 0.000000
0.104618 0.604618 0.000000
0.106032 0.606032 0.000000
0.107446 0.607446 0.000000
0.108860 0.608860 0.000000
0.110273 0.610273 0.000000
0.111687 0.611687 0.000000
0.113101 0.613101 0.000000
0.114515 0.614515 0.000000
0.115928 0.615928 0.000000
0.117342 0.617342 0.000000
0.118756 0.618756 0.000000
0.120170 0.620170 0.000000
0.121583 0.621583 0.000000
0.122997 0.622997 0.000000
0.124411 0.624411 0.000000
0.125825 0.625825 0.000000
0.127238 0.627238 0.000000
0.128652 0.628652 0.000000
0.130066 0.630066 0.000000
0.131480 0.631480 0.000000
0.132893 0.632893 0.000000
0.134307 0.634307 0.000000
0.135721 0.635721 0.000000
0.137135 0.637135 0.000000
0.138549 0.638549 0.000000
0.139962 0.639962 0.000000
0.141376 0.641376 0.000000
0.142790 0.642790 0.000000
0.144204 0.644204 0.000000
0.145617 0.645617 0.000000
0.147031 0.647031 0.000000
0.148445 0.648445 0.000000
0.149859 0.649859 0.000000
0.151272 0.651272 0.000000
0.152686 0.652686 0.000000
0.154100 0.654100 0.000000
0.155514 0.655514 0.000000
0.156927 0.656927 0.000000
0.158341 0.658341 0.000000
0.159755 0.659755 0.000000
0.161169 0.661169 0.000000
0.162582 0.662582 0.000000
0.163996 0.663996 0.000000
0.165410 0.665410 0.000000
0.166824 0.666824 0.000000
0.168238 0.668238 0.000000
0.169651 0.669651 0.000000
0.171065 0.671065 0.000000
0.172479 0.672479 0.000000
0.173893 0.673893 0.000000
0.175306 0.675306 0.000000
0.176720 0.676720 0.000000
0.178134 0.678134 0.000000
0.179548 0.679548 0.000000
0.180961 0.680961 0.000000
0.182375 0.682375 0.000000
0.183789 0.683789 0.000000
0.185203 0.685203 0.000000
0.186616 0.686616 0.000000
0.188030 0.688030 0.000000
0.189444 0.689444 0.000000
0.190858 0.690858 0.000000
0.192271 0.692271 0.000000
0.193685 0.693685 0.000000
0.195099 0.695099 0.000000
0.196513 0.696513 0.000000
0.197926 0.697926 0.000000
0.199340 0.699340 0.000000
0.200754 0.700754 0.000000
0.202168 0.702168 0.000000
0.203582 0.703582 0.000000
0.204995 0.704995 0.000000
0.206409 0.706409 0.000000
0.207823 0.707823 0.000000
0.209237 0.709237 0.000000
0.210650 0.710650 0.000000
0.212064 0.712064 0.000000
0.213478 0.713478 0.000000
0.214892 0.714892 0.000000
0.216305 0.716305 0.000000
0.217719 0.717719 0.000000
0.219133 0.719133 0.000000
0.220547 0.720547 0.000000
0.221960 0.721960 0.000000
0.223374 0.723374 0.000000
0.224788 0.724788 0.000000
0.226202 0.726202 0.000000
0.227615 0.727615 0.000000
0.229029 0.729029 0.000000
0.230443 0.730443 0.000000
0.231857 0.731857 0.000000
0.233270 0.733270 0.000000
0.234684 0.734684 0.000000
0.236098 0.736098 0.000000
0.237512 0.737512 0.000000
0.238926 0.738926 0.000000
0.240339 0.740339 0.000000
0.241753 0.741753 0.000000
0.243167 0.743167 0.000000
0.244581 0.744581 0.000000
0.245994 0.745994 0.000000
0.247408 0.747408 0.000000
0.248822 0.748822 0.000000
0.250236 0.750236 0.000000
0.251649 0.751649 0.000000
0.253063 0.753063 0.000000
0.254477 0.754477 0.000000
0.255891 0.755891 0.000000
0.257304 0.757304 0.000000
0.258718 0.758718 0.000000
0.260132 0.760132 0.000000
0.261546 0.761546 0.000000
0.262959 0.762959 0.000000
0.264373 0.764373 0.000000
0.265787 0.765787 0.000000
0.267201 0.767201 0.000000
0.268615 0.768615 0.000000
0.270028 0.770028 0.000000
0.271442 0.771442 0.000000
0.272856 0.772856 0.000000
0.274270 0.774270 0.000000
0.275683 0.775683 0.000000
0.277097 0.777097 0.000000
0.278511 0.778511 0.000000
0.279925 0.779925 0.000000
0.281338 0.781338 0.000000
0.282752 0.782752 0.000000
0.284166 0.784166 0.000000
0.285580 0.785580 0.000000
0.286993 0.786993 0.000000
0.288407 0.788407 0.000000
0.289821 0.789821 0.000000
0.291235 0.791235 0.000000
0.292648 0.792648 0.000000
0.294062 0.794062 0.000000
0.295476 0.795476 0.000000
0.296890 0.796890 0.000000
0.298303 0.798303 0.000000
0.299717 0.799717 0.000000
0.301131 0.801131 0.000000
0.302545 0.802545 0.000000
0.303959 0.803959 0.000000
0.305372 0.805372 0.000000
0.306786 0.806786 0.000000
0.308200 0.808200 0.000000
0.309614 0.809614 0.000000
0.311027 0.811027 0.000000
0.312441 0.812441 0.000000
0.313855 0.813855 0.000000
0.315269 0.815269 0.000000
0.316682 0.816682 0.000000
0.318096 0.818096 0.000000
0.319510 0.819510 0.000000
0.320924 0.820924 0.000000
0.322337 0.822337 0.000000
0.323751 0.823751 0.000000
0.325165 0.825165 0.000000
0.326579 0.826579 0.000000
0.327992 0.827992 0.000000
0.329406 0.829406 0.000000
0.330820 0.830820 0.000000
0.332234 0.832234 0.000000
0.333648 0.833648 0.000000
0.335061 0.835061 0.000000
0.336475 0.836475 0.000000
0.337889 0.837889 0.000000
0.339303 0.839303 0.000000
0.340716 0.840716 0.000000
[...]
POINT_DATA 20431
SCALARS UX float 1
LOOKUP_TABLE default
-0.000000
0.000000
-0.009434
-0.029553
-0.010439
0.004332
-0.000071
-0.000000
-0.000000
0.000000
-0.000000
0.007686
0.010626
0.012767
0.014739
0.016596
0.018116
0.018972
0.018847
0.017832
0.015992
0.013890
0.011734
0.009766
0.008047
0.006599
0.005407
0.004428
0.003628
0.002971
0.002432
0.001987
0.001617
0.001310
0.001054
0.000839
0.000658
0.000506
0.000378
0.000269
0.000177
0.000099
0.000033
-0.000023
-0.000123
-0.000190
-0.000276
-0.000387
-0.000529
-0.000712
-0.000942
-0.001237
-0.001607
-0.002055
-0.002600
-0.003248
-0.004055
-0.004908
-0.005826
-0.006753
-0.007624
-0.008532
-0.009147
-0.014504
-0.019023
-0.022866
-0.026249
-0.028893
-0.027558
-0.025736
-0.023891
-0.022417
-0.021453
-0.021073
-0.021143
-0.021586
-0.022197
-0.022906
-0.023629
-0.024300
-0.024872
-0.025325
-0.025683
-0.025945
-0.026144
-0.026289
-0.026355
-0.026316
-0.026137
-0.025828
-0.025339
-0.024738
-0.024027
-0.023181
-0.022311
-0.021515
-0.020899
-0.020487
-0.020266
-0.020155
-0.019975
-0.019852
-0.020321
-0.023115
-0.025379
-0.022959
-0.018302
-0.013787
-0.013983
-0.012431
-0.007038
-0.013018
-0.011233
-0.008432
-0.007999
-0.007729
-0.007467
-0.007206
-0.006974
-0.006715
-0.006444
-0.006177
-0.005818
-0.005314
-0.004494
-0.003095
-0.010978
-0.011544
-0.014169
-0.010428
-0.009493
-0.009222
-0.009965
-0.010523
-0.011094
-0.010954
-0.010791
-0.010845
-0.011517
-0.011999
-0.011170
-0.012990
-0.013562
-0.013501
-0.016784
-0.017080
-0.017434
-0.021076
-0.019005
-0.017347
-0.015572
-0.013643
-0.011641
-0.008380
-0.010539
-0.013135
-0.014685
-0.012473
-0.012841
-0.013225
-0.008875
-0.008914
-0.011442
-0.014086
-0.016883
-0.018494
-0.015301
-0.015030
-0.010965
-0.015650
-0.015007
-0.014328
-0.016816
-0.020984
-0.013120
-0.004732
-0.008451
-0.012757
-0.015903
-0.014218
-0.012836
-0.013875
-0.013858
-0.011380
-0.009207
-0.010030
-0.010679
-0.011901
-0.009530
-0.012113
-0.014755
-0.010305
-0.008932
-0.020337
-0.016466
-0.017624
-0.012425
-0.012871
-0.013477
-0.020448
-0.018912
-0.015746
-0.017478
-0.016833
-0.016018
-0.013159
-0.016141
-0.020615
-0.014375
-0.013229
-0.013477
-0.016952
-0.016542
-0.012910
-0.012757
-0.012903
-0.012748
-0.012791
-0.011898
-0.012674
-0.010804
-0.008285
-0.008528
-0.008346
-0.009203
-0.009210
-0.009272
-0.009892
-0.010485
-0.011414
-0.001659
-0.010001
-0.010515
-0.012970
-0.014241
-0.013429
-0.007713
-0.025225
-0.008774
-0.008751
-0.008880
-0.008567
-0.010098
-0.009791
-0.008594
-0.008462
-0.008490
-0.008654
-0.008695
-0.009829
-0.009974
-0.010794
-0.009384
-0.015641
-0.009653
-0.014461
-0.015361
-0.014027
-0.014610
-0.014722
-0.016458
-0.015077
-0.013562
-0.013473
-0.012733
-0.014997
-0.015126
-0.014793
-0.014868
-0.014655
-0.014860
-0.015315
-0.015468
-0.016073
-0.017180
-0.018546
-0.019116
-0.019536
-0.018924
-0.014712
-0.016247
-0.017826
-0.016414
-0.016912
-0.016531
-0.017589
-0.019488
-0.020889
-0.029293
-0.009729
-0.012763
-0.016551
-0.011447
-0.012301
-0.014184
-0.018821
0.012600
0.004692
-0.001860
-0.006003
-0.006252
-0.005721
-0.005786
-0.005024
-0.003562
-0.006868
-0.007248
-0.008113
-0.012281
-0.013601
-0.014242
-0.014730
-0.015003
-0.015330
-0.015727
-0.015420
-0.015467
-0.016015
-0.016637
-0.016952
-0.013723
-0.014755
-0.015158
-0.015407
-0.015603
-0.015174
-0.014846
-0.014028
-0.015829
-0.015321
-0.020132
-0.017242
-0.021870
-0.010287
-0.010459
-0.011054
-0.011856
-0.012860
-0.013487
-0.014185
-0.014573
-0.014662
-0.014729
-0.013966
-0.013395
-0.013085
-0.013789
-0.013188
-0.013091
-0.012958
-0.012848
-0.012918
-0.013122
-0.013860
-0.013133
-0.013495
-0.013559
-0.013876
-0.014667
-0.011821
-0.008133
-0.015612
-0.012921
-0.012933
-0.013884
-0.015306
-0.014957
-0.016753
-0.016295
-0.016916
-0.016902
-0.016875
-0.013695
-0.014907
-0.015891
-0.016317
-0.016937
-0.013313
-0.012859
-0.011855
-0.012675
-0.010651
-0.012274
-0.025756
-0.010984
-0.014171
-0.017301
-0.018084
-0.015678
-0.007625
-0.017979
-0.012239
-0.006421
-0.014013
-0.014756
-0.015218
-0.012160
-0.012042
-0.012654
-0.012357
-0.012666
-0.012041
-0.009698
0.015021
0.000257
-0.007496
-0.016666
-0.011591
-0.009895
-0.001724
-0.012148
-0.013282
-0.012608
-0.013023
-0.008893
-0.010918
-0.009706
-0.007657
-0.008496
-0.011317
-0.011588
-0.011439
-0.011443
-0.012017
-0.011177
-0.013936
-0.003205
-0.008987
-0.013784
-0.014285
-0.014760
-0.014173
-0.012699
-0.013041
-0.011810
-0.009476
-0.012236
-0.012177
-0.011968
-0.012134
-0.012736
-0.012305
-0.011247
-0.011235
-0.011092
-0.011033
-0.011053
-0.011094
-0.010949
-0.011260
-0.011272
-0.013151
-0.012850
-0.009862
-0.009244
-0.007289
-0.008324
-0.009032
-0.014183
-0.018358
-0.015416
0.000299
-0.007821
-0.011500
-0.011365
-0.011279
-0.011110
-0.011089
-0.011050
-0.011414
-0.013284
-0.014954
-0.012860
-0.011424
-0.012267
-0.010011
-0.010065
-0.010749
-0.010146
-0.010140
-0.010126
-0.010447
-0.009317
-0.010298
-0.009632
-0.009435
-0.009024
-0.008909
-0.008724
-0.008543
-0.008195
-0.007409
-0.007746
-0.008346
-0.009046
-0.008831
-0.008985
-0.009250
-0.012530
-0.007810
-0.007840
-0.016262
-0.014388
-0.013600
-0.012700
-0.011792
-0.012194
-0.012581
-0.011755
-0.008211
-0.008805
-0.009218
-0.009636
-0.007762
-0.007692
-0.008610
-0.009124
-0.009740
-0.010439
-0.010837
-0.012320
-0.004060
-0.005945
-0.007817
-0.008136
-0.007979
-0.009358
-0.009759
-0.010602
-0.013009
-0.012147
-0.011522
-0.010141
-0.006738
-0.015300
-0.017908
-0.017732
-0.017097
-0.016437
-0.017441
-0.008450
-0.003226
-0.012897
-0.015032
-0.019002
-0.021450
-0.013532
-0.013130
-0.012310
-0.013258
0.007137
-0.001817
-0.021376
-0.037147
-0.061213
-0.029149
0.039284
-0.008616
0.001049
-0.009445
-0.010131
-0.011433
-0.012877
-0.013752
-0.013435
-0.013435
-0.014025
-0.015681
-0.012618
-0.009821
-0.007329
-0.009545
-0.008283
-0.009057
-0.008770
-0.009824
-0.013229
-0.010562
-0.050669
-0.005109
-0.013534
-0.003072
-0.006162
-0.007875
-0.008646
-0.008584
-0.008944
-0.014117
-0.013846
-0.013132
-0.012575
-0.012364
-0.007833
-0.010310
-0.011695
-0.012808
-0.012792
-0.012429
-0.007081
-0.007143
-0.008542
-0.009578
-0.008654
-0.009261
-0.009663
-0.010044
-0.010571
-0.010198
-0.009442
-0.010309
-0.005739
-0.005719
-0.004834
-0.004206
-0.004477
-0.002624
-0.005986
-0.008449
-0.008232
-0.007424
0.008618
-0.005730
-0.007534
-0.008158
-0.007670
-0.007126
-0.005308
-0.007451
-0.004665
-0.005878
-0.007504
-0.006108
-0.009001
-0.022881
-0.008714
-0.008282
-0.007538
-0.007054
-0.006658
-0.007333
-0.011241
-0.010783
-0.012689
0.003754
0.003739
-0.006391
-0.031425
-0.008462
-0.010425
-0.004190
-0.010828
-0.007923
-0.012377
-0.038972
-0.010788
0.013783
-0.042927
0.000932
0.012516
0.011074
0.021949
0.021587
0.015527
0.011444
0.007668
0.001260
-0.000121
0.000527
0.001366
0.000407
-0.003329
-0.002253
-0.004255
-0.004475
-0.004126
-0.002738
-0.006278
-0.005606
-0.005231
0.001225
-0.010007
-0.009993
-0.010207
-0.010547
-0.011164
-0.009253
-0.010068
0.000069
-0.005736
-0.004780
-0.005195
-0.007184
-0.008277
-0.010695
-0.014240
-0.023684
-0.010202
-0.090986
-0.045482
-0.006117
-0.004426
-0.013356
-0.008189
-0.018644
-0.002674
-0.008548
-0.007909
-0.005936
-0.007529
-0.009221
-0.016813
-0.002382
-0.005761
-0.006606
-0.006806
-0.005023
0.004861
-0.000092
-0.004654
-0.018444
0.047132
0.029432
-0.005459
-0.006087
-0.006121
-0.008892
-0.005314
-0.005709
-0.006654
-0.008389
-0.010335
-0.009811
-0.011695
-0.002746
-0.003194
-0.003825
-0.011676
-0.004334
-0.004413
-0.004405
-0.005178
-0.005726
-0.005548
-0.005565
-0.005431
-0.005184
-0.004850
-0.003649
-0.004354
-0.005328
-0.005494
-0.006688
-0.007966
-0.004225
-0.003050
-0.005291
-0.008145
0.006083
-0.006149
-0.001220
-0.003367
-0.002813
-0.002914
-0.005301
-0.006093
-0.005899
-0.007199
-0.004919
-0.004583
-0.008415
-0.002892
-0.003589
-0.004325
0.000659
-0.006416
-0.006375
-0.004504
-0.005167
-0.005923
-0.007113
-0.000884
-0.005409
0.000090
0.003602
-0.002565
-0.002295
-0.003939
-0.003912
-0.004873
-0.005857
-0.006320
-0.001412
-0.002861
-0.002056
-0.002697
-0.002975
-0.002728
-0.003845
-0.004982
-0.000486
0.000025
-0.000421
-0.001383
-0.002348
-0.004061
-0.006020
0.001810
-0.005192
-0.003697
-0.006009
-0.007381
-0.004918
-0.004988
-0.004257
-0.002391
-0.000289
-0.002276
-0.002620
-0.003385
-0.011113
-0.010755
-0.010381
-0.009908
0.000952
-0.003133
-0.006487
-0.007802
-0.009162
-0.009850
-0.007835
-0.018843
-0.032964
-0.010968
-0.123718
-0.009283
-0.098995
0.066264
0.095950
0.064715
0.011020
-0.006279
-0.009251
-0.007098
-0.003024
-0.004757
-0.005853
0.002125
0.001387
0.009918
0.007505
0.008455
-0.001961
-0.004187
-0.006408
-0.008431
-0.010091
-0.011177
-0.010778
-0.007653
0.002611
0.003439
-0.001166
0.001646
0.003822
0.005350
0.001207
-0.000318
-0.000152
0.000432
0.001058
0.003910
0.002867
0.001331
0.000656
-0.001625
-0.004642
-0.005463
0.020502
0.026286
0.036695
0.032927
0.035689
0.021614
0.014713
0.009924
0.008164
-0.016395
-0.000398
-0.001415
0.018332
0.007249
0.004233
-0.001360
-0.007583
-0.008125
0.003931
0.008794
0.002746
0.002673
0.001818
0.006840
0.000350
0.001934
-0.002734
-0.004187
-0.000726
0.003064
0.004497
-0.000447
0.000173
0.000773
0.002425
0.000940
0.000548
0.000146
-0.001085
0.000285
-0.000709
-0.001582
-0.002302
-0.002797
-0.005883
-0.005525
-0.004447
-0.001782
-0.002042
-0.002259
-0.002300
-0.001461
-0.000720
-0.000687
-0.001073
-0.007879
-0.004795
-0.005626
-0.005808
-0.005961
-0.007719
-0.002996
-0.002450
-0.003225
-0.005035
0.005539
0.001947
-0.002707
0.001583
0.000012
0.002557
0.004236
-0.000157
0.000581
0.001550
-0.000653
-0.001016
-0.002016
-0.003164
-0.003440
-0.003028
-0.007494
0.024848
0.020977
0.018447
-0.018086
0.016161
0.004002
0.003365
0.003600
0.003342
0.002140
0.004146
0.005616
0.003157
-0.001289
0.007561
0.001129
0.001125
0.001387
0.002991
0.004068
-0.000056
0.002358
0.004979
0.007495
0.007412
0.006349
0.001993
0.002663
0.000175
-0.000260
-0.003751
0.000129
0.001271
0.002843
-0.000264
0.001716
0.001430
-0.000429
0.002575
0.000108
-0.000886
-0.000341
0.000566
0.002894
0.000444
0.000674
-0.003358
-0.003518
-0.003056
-0.002645
-0.002756
-0.002726
-0.002055
-0.001464
-0.001621
-0.001259
-0.000665
-0.000103
0.001213
0.001029
-0.000259
-0.000742
-0.003001
-0.002105
-0.003462
-0.002704
0.000872
-0.001446
-0.002352
-0.004079
0.002492
0.006080
0.000624
0.000885
0.000737
-0.001381
-0.001484
-0.000780
-0.000024
-0.000320
0.001777
0.002528
-0.002838
-0.000131
0.002159
0.007795
0.005906
0.004912
0.006471
0.005207
0.001935
0.001830
0.001503
0.001476
0.003658
0.003242
0.001015
0.000874
-0.004776
0.000114
0.002175
0.004778
0.003341
0.001308
0.000694
0.000564
0.001779
0.002704
0.002371
0.002193
0.004888
0.010818
-0.003486
-0.002298
0.005193
0.002970
0.001314
0.000648
0.001182
0.001021
0.001656
0.004811
0.002226
0.001032
0.000582
-0.000473
0.005123
0.003707
0.002537
-0.004168
0.003723
0.002848
0.002201
0.003023
0.003575
0.004973
0.004985
-0.002775
0.002246
0.004714
0.002864
0.005769
0.011539
0.016612
0.000460
0.002563
0.001198
0.003044
0.005443
0.005416
0.007287
0.003107
0.004013
0.002579
0.002615
-0.001370
0.000188
0.000454
-0.000791
0.003220
0.006572
0.005219
0.003918
0.003204
0.002463
0.002420
0.002215
0.000540
0.001200
0.001744
0.002767
0.003778
0.003314
0.004488
0.004535
0.004051
0.003622
0.004564
0.005028
0.004518
0.003801
0.003157
0.002707
0.002874
0.002284
0.002132
-0.000374
0.000612
0.001072
0.011332
0.005792
0.006015
0.005593
0.005005
0.004440
0.003724
0.004504
0.003958
0.004587
0.003792
0.003745
0.000286
0.002156
0.004938
0.005790
0.007464
0.005030
0.000645
0.002579
0.004033
0.004142
0.004636
0.005863
0.004072
0.004834
0.004386
0.003135
0.003703
0.004562
0.003886
0.003694
0.003529
0.003546
0.003269
0.003440
0.002661
0.003680
0.004845
0.004941
0.005039
0.005011
0.004986
0.004985
0.004979
0.004930
0.004883
0.004841
0.004800
0.004761
0.004725
0.004690
0.004655
0.004623
0.004591
0.004562
0.004534
0.004505
0.004478
0.004452
0.004426
0.004402
0.004378
0.004355
0.004332
0.004310
0.004288
0.004266
0.004245
0.004224
0.004202
0.004182
0.004162
0.004142
0.004122
0.004103
0.004083
0.004064
0.004045
0.004026
0.004007
0.003988
0.003970
0.003951
0.003933
0.003915
0.003897
0.003879
0.003861
0.003843
0.003825
0.003807
0.003790
0.003773
0.003755
0.003737
0.003720
0.003703
0.003686
0.003669
0.003651
0.003635
0.003618
0.003601
0.003584
0.003567
0.003550
0.003535
0.003519
0.003503
0.003488
0.003472
0.003456
0.003440
0.003424
0.003408
0.003393
0.003377
0.003361
0.003346
0.003330
0.003315
0.003299
0.003284
0.003268
0.003253
0.003238
0.003222
0.003207
0.003192
0.003177
0.003161
0.003146
0.003131
0.003116
0.003101
0.003086
0.003070
0.003055
0.003040
0.003025
0.003010
0.002995
0.002980
0.002965
0.002950
0.002935
0.002920
0.002905
0.002890
0.002875
0.002860
0.002845
0.002830
0.002816
0.002801
0.002786
0.002771
0.002756
0.002741
0.002726
0.002711
0.002697
0.002682
0.002667
0.002652
0.002637
0.002622
0.002607
0.002592
0.002577
0.002563
0.002548
0.002533
0.002518
0.002503
0.002488
0.002473
0.002458
0.002443
0.002428
0.002413
0.002398
0.002383
0.002368
0.002353
0.002338
0.002323
0.002308
0.002292
0.002277
0.002262
0.002247
0.002232
0.002217
0.002201
0.002186
0.002171
0.002156
0.002140
0.002125
0.002110
0.002095
0.002079
0.002064
0.002049
0.002033
0.002018
0.002003
0.001987
0.001972
0.001956
0.001941
0.001926
0.001910
0.001895
0.001879
0.001864
0.001848
0.001833
0.001817
0.001802
0.001786
0.001771
0.001755
0.001740
0.001724
0.001709
0.001693
0.001678
0.001662
0.001647
0.001631
0.001616
0.001600
0.001585
0.001569
0.001554
0.001538
0.001523
0.001507
0.001492
0.001476
0.001461
0.001446
0.001430
0.001415
0.001399
0.001384
0.001369
0.001353
0.001338
0.001323
0.001307
0.001292
0.001277
0.001261
0.001246
0.001231
0.001216
0.001201
0.001186
0.001171
0.001156
0.001141
0.001126
0.001111
0.001096
0.001081
0.001066
0.001052
0.001037
0.001022
0.001008
0.000993
0.000978
0.000964
0.000949
0.000935
0.000921
0.000906
0.000892
0.000878
0.000864
0.000850
0.000836
0.000822
0.000808
0.000794
0.000780
0.000766
0.000753
0.000739
0.000726
0.000712
0.000699
0.000686
0.000672
0.000659
0.000646
0.000633
0.000620
0.000608
0.000595
0.000582
0.000570
0.000557
0.000545
0.000533
0.000520
0.000508
0.000496
0.000485
0.000473
0.000461
0.000450
0.000438
0.000427
0.000415
0.000404
0.000393
0.000382
0.000371
0.000361
0.000350
0.000340
0.000329
0.000319
0.000309
0.000299
0.000289
0.000279
0.000269
0.000259
0.000250
0.000241
0.000231
0.000222
0.000213
0.000204
0.000196
0.000187
0.000179
0.000170
0.000162
0.000154
0.000146
0.000138
0.000130
0.000123
0.000115
0.000108
0.000101
0.000094
0.000087
0.000080
0.000073
0.000067
0.000061
0.000054
0.000048
0.000042
0.000037
0.000031
0.000025
0.000020
0.000015
0.000010
0.000005
-0.000000
-0.000005
-0.000009
-0.000014
-0.000018
-0.000022
-0.000026
-0.000030
-0.000034
-0.000037
-0.000041
-0.000044
-0.000047
-0.000050
-0.000053
-0.000056
-0.000058
-0.000061
-0.000063
-0.000065
-0.000068
-0.000069
0.002216
0.002147
0.002095
0.002949
0.003035
0.002990
-0.011481
-0.013292
-0.012749
-0.013579
0.010080
0.001000
0.001129
0.001035
0.001136
0.002118
0.002025
0.002115
0.011198
0.008501
0.004021
0.007702
-0.011998
-0.011791
-0.009396
-0.010223
-0.011836
-0.010819
-0.011774
-0.000129
-0.000510
-0.000192
-0.000570
-0.014992
-0.015138
-0.016029
-0.016277
0.000207
-0.001437
0.001360
-0.001424
-0.013040
-0.013044
-0.012591
-0.013475
0.000108
-0.000332
-0.000136
0.000046
-0.013838
-0.013217
-0.009028
-0.004322
-0.003573
-0.003639
-0.001712
-0.009163
-0.010033
-0.009762
-0.010410
-0.007649
-0.007095
-0.007439
-0.017057
-0.016778
-0.017033
-0.010608
-0.010020
-0.010810
-0.010305
-0.000408
-0.000078
-0.000403
0.000030
-0.011887
-0.011846
-0.012099
-0.012031
-0.003259
-0.003431
-0.004275
-0.002025
-0.000020
-0.000382
-0.001839
0.003561
-0.008498
-0.008148
-0.008756
-0.009040
0.001907
0.001773
0.001807
-0.009306
-0.010581
-0.010121
-0.007238
0.001532
0.001354
0.001508
0.001484
-0.000850
-0.000118
-0.000491
-0.015516
-0.012422
-0.011823
-0.000198
-0.007490
-0.007712
-0.007727
-0.017251
-0.000277
-0.001336
-0.001341
0.001741
0.001718
0.001524
0.001633
0.003547
0.003441
-0.000207
-0.000104
-0.001907
-0.016625
-0.017215
-0.015793
0.000630
0.000659
0.000754
-0.016314
-0.015637
-0.015694
-0.017147
-0.017833
-0.013275
-0.013205
-0.014002
-0.013902
-0.012826
-0.012541
-0.012080
-0.007459
-0.007429
-0.007902
-0.007937
-0.012120
-0.000450
0.000087
-0.000831
-0.010488
-0.010672
-0.007807
-0.015375
-0.016051
-0.016092
-0.000579
0.001409
0.001292
0.001243
-0.011608
-0.009662
-0.013613
0.001896
0.002046
0.001955
0.002027
-0.001646
-0.001832
-0.001727
-0.002006
-0.011078
-0.011494
-0.011221
-0.011439
-0.004435
-0.004185
-0.004643
-0.003963
-0.016055
-0.016404
-0.017324
-0.015168
0.000028
0.000040
-0.024092
-0.023887
-0.023822
-0.023589
-0.016625
-0.016806
-0.016358
-0.017291
-0.000335
-0.000219
-0.000206
-0.017343
-0.016660
-0.020778
-0.020485
-0.020278
0.001252
0.001042
0.001067
-0.002507
-0.002626
-0.002014
-0.001825
-0.014960
-0.014240
-0.016363
-0.014474
-0.016212
-0.017853
-0.017878
-0.000551
-0.000534
-0.000356
-0.000772
0.000553
0.000734
0.000681
0.000898
-0.001950
-0.002056
-0.002186
-0.002246
-0.010708
-0.008611
-0.009456
-0.008010
-0.014064
-0.013927
-0.014301
0.000375
0.000182
0.000112
-0.000082
-0.015101
-0.015023
-0.015276
-0.015096
-0.000835
-0.001060
-0.001154
-0.011830
-0.010741
-0.010426
-0.011478
-0.021684
-0.021739
-0.021497
-0.022057
0.000301
0.000293
0.001213
0.005090
0.006184
-0.000842
-0.011118
-0.011008
-0.010807
-0.010775
-0.010926
-0.011758
-0.011376
-0.011557
-0.015633
-0.015913
-0.016085
-0.015338
-0.012393
-0.012499
-0.012723
-0.012844
-0.017686
-0.017591
-0.017358
-0.017237
-0.000172
0.000079
-0.000001
0.000027
-0.015218
-0.005900
-0.014378
-0.024373
-0.024758
-0.024543
-0.024310
-0.021912
-0.025235
-0.019743
-0.008681
-0.005052
-0.015546
-0.015621
-0.015810
-0.015344
-0.002953
-0.003594
-0.003366
-0.003972
-0.010737
-0.009767
-0.010765
-0.009397
-0.001269
-0.001594
-0.001736
-0.002134
-0.000739
-0.001341
-0.000727
-0.001273
-0.015644
-0.015766
-0.016021
-0.016125
-0.004660
-0.005880
-0.002863
-0.006752
0.000155
0.000394
-0.000081
0.000606
-0.000298
0.000063
0.000616
-0.010003
-0.010360
-0.010051
-0.007852
-0.000768
-0.000887
-0.000527
0.001662
-0.014470
-0.014641
-0.014675
-0.014418
0.001406
0.001309
0.001245
0.001125
-0.004473
-0.005181
-0.005874
-0.006261
-0.000221
0.002404
-0.013457
-0.013269
-0.013127
-0.012925
-0.010685
-0.010936
-0.010540
-0.011102
-0.029576
0.006076
-0.008345
0.000517
0.000365
0.000489
-0.019468
-0.019352
-0.018997
-0.018912
-0.006048
-0.017502
-0.017163
-0.017326
-0.000267
0.000165
0.000054
0.000350
0.001936
0.001933
0.001824
0.001835
-0.003540
-0.003706
-0.003786
-0.003346
-0.002228
-0.002714
-0.002831
-0.002382
-0.002313
-0.001803
-0.002271
-0.002624
-0.002447
-0.007288
-0.008304
-0.008168
-0.009325
-0.008700
-0.008018
-0.008450
-0.002153
-0.002326
-0.002676
-0.000591
-0.000339
-0.000407
-0.000479
0.001496
0.001362
0.001307
-0.015958
-0.015505
0.001518
0.002985
0.002841
0.002873
0.002734
-0.011115
-0.010034
-0.010262
-0.000157
-0.006611
-0.006738
-0.006959
-0.007163
-0.021752
-0.021426
-0.021638
-0.021405
-0.001076
-0.001623
-0.001362
-0.000372
-0.017675
-0.017528
-0.017882
-0.017442
-0.018052
-0.018427
-0.017856
-0.018445
0.003234
0.003380
0.003526
-0.016301
-0.016559
-0.016868
-0.005414
-0.005377
-0.005636
-0.005713
0.002018
0.003317
0.003306
0.003481
-0.001413
-0.001075
-0.001678
-0.000868
-0.013582
-0.013814
-0.013822
0.003163
0.001126
0.001171
0.000970
-0.004839
-0.004457
-0.004508
-0.004123
-0.003127
-0.003806
-0.014893
-0.014899
-0.014684
-0.015069
-0.019323
-0.019408
-0.019759
-0.018928
-0.015755
-0.016609
-0.007597
-0.007712
-0.007495
0.000923
-0.013046
-0.012989
-0.012644
-0.013366
-0.008511
-0.007542
0.002080
0.002200
0.001609
-0.016901
-0.016539
-0.016473
0.002056
-0.009546
-0.009114
-0.009236
0.001956
0.001843
0.002003
0.001943
-0.007494
-0.009129
-0.008334
-0.015361
-0.016007
-0.006818
-0.007320
-0.006795
0.002362
0.002240
0.002268
0.002153
0.001056
0.001208
0.001449
-0.008194
-0.008381
-0.008404
-0.008644
0.000935
0.000628
0.001041
0.000532
0.009478