# vtk DataFile Version 2.0
Test
ASCII
DATASET POLYDATA
POINTS 20431 float
0.000000 0.000000 0.000000
2.000000 0.000000 0.000000
2.000000 4.000000 0.000000
0.000000 4.000000 0.000000
0.000000 0.500000 0.000000
1.500000 2.000000 0.000000
2.000000 2.500000 0.000000
0.400000 0.000000 0.000000
0.800000 0.000000 0.000000
1.200000 0.000000 0.000000
1.600000 0.000000 0.000000
2.000000 0.362557 0.000000
2.000000 0.672798 0.000000
2.000000 0.938272 0.000000
2.000000 1.165439 0.000000
2.000000 1.359826 0.000000
2.000000 1.526163 0.000000
2.000000 1.668499 0.000000
2.000000 1.790295 0.000000
2.000000 1.894517 0.000000
2.000000 1.983700 0.000000
2.000000 2.060013 0.000000
2.000000 2.125315 0.000000
2.000000 2.181194 0.000000
2.000000 2.229010 0.000000
2.000000 2.269926 0.000000
2.000000 2.304938 0.000000
2.000000 2.334898 0.000000
2.000000 2.360534 0.000000
2.000000 2.382472 0.000000
2.000000 2.401244 0.000000
2.000000 2.417307 0.000000
2.000000 2.431052 0.000000
2.000000 2.442814 0.000000
2.000000 2.452878 0.000000
2.000000 2.461491 0.000000
2.000000 2.468860 0.000000
2.000000 2.475167 0.000000
2.000000 2.480563 0.000000
2.000000 2.485180 0.000000
2.000000 2.489132 0.000000
2.000000 2.492513 0.000000
2.000000 2.495406 0.000000
2.000000 2.497882 0.000000
2.000000 2.502286 0.000000
2.000000 2.505266 0.000000
2.000000 2.509150 0.000000
2.000000 2.514212 0.000000
2.000000 2.520809 0.000000
2.000000 2.529407 0.000000
2.000000 2.540613 0.000000
2.000000 2.555218 0.000000
2.000000 2.574253 0.000000
2.000000 2.599061 0.000000
2.000000 2.631395 0.000000
2.000000 2.673536 0.000000
2.000000 2.728460 0.000000
2.000000 2.800043 0.000000
2.000000 2.893339 0.000000
2.000000 3.014933 0.000000
2.000000 3.173410 0.000000
2.000000 3.379956 0.000000
2.000000 3.649152 0.000000
1.600000 4.000000 0.000000
1.200000 4.000000 0.000000
0.800000 4.000000 0.000000
0.400000 4.000000 0.000000
0.000000 3.624996 0.000000
0.000000 3.289970 0.000000
0.000000 2.990661 0.000000
0.000000 2.723261 0.000000
0.000000 2.484368 0.000000
0.000000 2.270943 0.000000
0.000000 2.080271 0.000000
0.000000 1.909926 0.000000
0.000000 1.757741 0.000000
0.000000 1.621780 0.000000
0.000000 1.500314 0.000000
0.000000 1.391797 0.000000
0.000000 1.294849 0.000000
0.000000 1.208237 0.000000
0.000000 1.130858 0.000000
0.000000 1.061728 0.000000
0.000000 0.999968 0.000000
0.000000 0.944792 0.000000
0.000000 0.895499 0.000000
0.000000 0.851460 0.000000
0.000000 0.812117 0.000000
0.000000 0.776968 0.000000
0.000000 0.745565 0.000000
0.000000 0.717511 0.000000
0.000000 0.692448 0.000000
0.000000 0.670056 0.000000
0.000000 0.650052 0.000000
0.000000 0.632180 0.000000
0.000000 0.616213 0.000000
0.000000 0.601949 0.000000
0.000000 0.589205 0.000000
0.000000 0.577820 0.000000
0.000000 0.567649 0.000000
0.000000 0.558562 0.000000
0.000000 0.550444 0.000000
0.000000 0.543191 0.000000
0.000000 0.536712 0.000000
0.000000 0.530923 0.000000
0.000000 0.525751 0.000000
0.000000 0.521131 0.000000
0.000000 0.517003 0.000000
0.000000 0.513315 0.000000
0.000000 0.510021 0.000000
0.000000 0.507078 0.000000
0.000000 0.504448 0.000000
0.000000 0.502099 0.000000
0.000000 0.497804 0.000000
0.000000 0.494785 0.000000
0.000000 0.490633 0.000000
0.000000 0.484924 0.000000
0.000000 0.477074 0.000000
0.000000 0.466279 0.000000
0.000000 0.451436 0.000000
0.000000 0.431025 0.000000
0.000000 0.402959 0.000000
0.000000 0.364366 0.000000
0.000000 0.311297 0.000000
0.000000 0.238324 0.000000
0.000000 0.137980 0.000000
0.001414 0.501414 0.000000
0.002828 0.502828 0.000000
0.004241 0.504241 0.000000
0.005655 0.505655 0.000000
0.007069 0.507069 0.000000
0.008483 0.508483 0.000000
0.009896 0.509896 0.000000
0.011310 0.511310 0.000000
0.012724 0.512724 0.000000
0.014138 0.514138 0.000000
0.015551 0.515551 0.000000
0.016965 0.516965 0.000000
0.018379 0.518379 0.000000
0.019793 0.519793 0.000000
0.021206 0.521206 0.000000
0.022620 0.522620 0.000000
0.024034 0.524034 0.000000
0.025448 0.525448 0.000000
0.026861 0.526861 0.000000
0.028275 0.528275 0.000000
0.029689 0.529689 0.000000
0.031103 0.531103 0.000000
0.032516 0.532516 0.000000
0.033930 0.533930 0.000000
0.035344 0.535344 0.000000
0.036758 0.536758 0.000000
0.038172 0.538172 0.000000
0.039585 0.539585 0.000000
0.040999 0.540999 0.000000
0.042413 0.542413 0.000000
0.043827 0.543827 0.000000
0.045240 0.545240 0.000000
0.046654 0.546654 0.000000
0.048068 0.548068 0.000000
0.049482 0.549482 0.000000
0.050895 0.550895 0.000000
0.052309 0.552309 0.000000
0.053723 0.553723 0.000000
0.055137 0.555137 0.000000
0.056550 0.556550 0.000000
0.057964 0.557964 0.000000
0.059378 0.559378 0.000000
0.060792 0.560792 0.000000
0.062205 0.562205 0.000000
0.063619 0.563619 0.000000
0.065033 0.565033 0.000000
0.066447 0.566447 0.000000
0.067861 0.567861 0.000000
0.069274 0.569274 0.000000
0.070688 0.570688 0.000000
0.072102 0.572102 0.000000
0.073516 0.573516 0.000000
0.074929 0.574929 0.000000
0.076343 0.576343 0.000000
0.077757 0.577757 0.000000
0.079171 0.579171 0.000000
0.080584 0.580584 0.000000
0.081998 0.581998 0.000000
0.083412 0.583412 0.000000
0.084826 0.584826 0.000000
0.086239 0.586239 0.000000
0.087653 0.587653 0.000000
0.089067 0.589067 0.000000
0.090481 0.590481 0.000000
0.091894 0.591894 0.000000
0.093308 0.593308 0.000000
0.094722 0.594722 0.000000
0.096136 0.596136 0.000000
0.097549 0.597549 0.000000
0.098963 0.598963 0.000000
0.100377 0.600377 0.000000
0.101791 0.601791 0.000000
0.103205 0.603205 0.000000
0.104618 0.604618 0.000000
0.106032 0.606032 0.000000
0.107446 0.607446 0.000000
0.108860 0.608860 0.000000
0.110273 0.610273 0.000000
0.111687 0.611687 0.000000
0.113101 0.613101 0.000000
0.114515 0.614515 0.000000
0.115928 0.615928 0.000000
0.117342 0.617342 0.000000
0.118756 0.618756 0.000000
0.120170 0.620170 0.000000
0.121583 0.621583 0.000000
0.122997 0.622997 0.000000
0.124411 0.624411 0.000000
0.125825 0.625825 0.000000
0.127238 0.627238 0.000000
0.128652 0.628652 0.000000
0.130066 0.630066 0.000000
0.131480 0.631480 0.000000
0.132893 0.632893 0.000000
0.134307 0.634307 0.000000
0.135721 0.635721 0.000000
0.137135 0.637135 0.000000
0.138549 0.638549 0.000000
0.139962 0.639962 0.000000
0.141376 0.641376 0.000000
0.142790 0.642790 0.000000
0.144204 0.644204 0.000000
0.145617 0.645617 0.000000
0.147031 0.647031 0.000000
0.148445 0.648445 0.000000
0.149859 0.649859 0.000000
0.151272 0.651272 0.000000
0.152686 0.652686 0.000000
0.154100 0.654100 0.000000
0.155514 0.655514 0.000000
0.156927 0.656927 0.000000
0.158341 0.658341 0.000000
0.159755 0.659755 0.000000
0.161169 0.661169 0.000000
0.162582 0.662582 0.000000
0.163996 0.663996 0.000000
0.165410 0.665410 0.000000
0.166824 0.666824 0.000000
0.168238 0.668238 0.000000
0.169651 0.669651 0.000000
0.171065 0.671065 0.000000
0.172479 0.672479 0.000000
0.173893 0.673893 0.000000
0.175306 0.675306 0.000000
0.176720 0.676720 0.000000
0.178134 0.678134 0.000000
0.179548 0.679548 0.000000
0.180961 0.680961 0.000000
0.182375 0.682375 0.000000
0.183789 0.683789 0.000000
0.185203 0.685203 0.000000
0.186616 0.686616 0.000000
0.188030 0.688030 0.000000
0.189444 0.689444 0.000000
0.190858 0.690858 0.000000
0.192271 0.692271 0.000000
0.193685 0.693685 0.000000
0.195099 0.695099 0.000000
0.196513 0.696513 0.000000
0.197926 0.697926 0.000000
0.199340 0.699340 0.000000
0.200754 0.700754 0.000000
0.202168 0.702168 0.000000
0.203582 0.703582 0.000000
0.204995 0.704995 0.000000
0.206409 0.706409 0.000000
0.207823 0.707823 0.000000
0.209237 0.709237 0.000000
0.210650 0.710650 0.000000
0.212064 0.712064 0.000000
0.213478 0.713478 0.000000
0.214892 0.714892 0.000000
0.216305 0.716305 0.000000
0.217719 0.717719 0.000000
0.219133 0.719133 0.000000
0.220547 0.720547 0.000000
0.221960 0.721960 0.000000
0.223374 0.723374 0.000000
0.224788 0.724788 0.000000
0.226202 0.726202 0.000000
0.227615 0.727615 0.000000
0.229029 0.729029 0.000000
0.230443 0.730443 0.000000
0.231857 0.731857 0.000000
0.233270 0.733270 0.000000
0.234684 0.734684 0.000000
0.236098 0.736098 0.000000
0.237512 0.737512 0.000000
0.238926 0.738926 0.000000
0.240339 0.740339 0.000000
0.241753 0.741753 0.000000
0.243167 0.743167 0.000000
0.244581 0.744581 0.000000
0.245994 0.745994 0.000000
0.247408 0.747408 0.000000
0.248822 0.748822 0.000000
0.250236 0.750236 0.000000
0.251649 0.751649 0.000000
0.253063 0.753063 0.000000
0.254477 0.754477 0.000000
0.255891 0.755891 0.000000
0.257304 0.757304 0.000000
0.258718 0.758718 0.000000
0.260132 0.760132 0.000000
0.261546 0.761546 0.000000
0.262959 0.762959 0.000000
0.264373 0.764373 0.000000
0.265787 0.765787 0.000000
0.267201 0.767201 0.000000
0.268615 0.768615 0.000000
0.270028 0.770028 0.000000
0.271442 0.771442 0.000000
0.272856 0.772856 0.000000
0.274270 0.774270 0.000000
0.275683 0.775683 0.000000
0.277097 0.777097 0.000000
0.278511 0.778511 0.000000
0.279925 0.779925 0.000000
0.281338 0.781338 0.000000
0.282752 0.782752 0.000000
0.284166 0.784166 0.000000
0.285580 0.785580 0.000000
0.286993 0.786993 0.000000
0.288407 0.788407 0.000000
0.289821 0.789821 0.000000
0.291235 0.791235 0.000000
0.292648 0.792648 0.000000
0.294062 0.794062 0.000000
0.295476 0.795476 0.000000
0.296890 0.796890 0.000000
0.298303 0.798303 0.000000
0.299717 0.799717 0.000000
0.301131 0.801131 0.000000
0.302545 0.802545 0.000000
0.303959 0.803959 0.000000
0.305372 0.805372 0.000000
0.306786 0.806786 0.000000
0.308200 0.808200 0.000000
0.309614 0.809614 0.000000
0.311027 0.811027 0.000000
0.312441 0.812441 0.000000
0.313855 0.813855 0.000000
0.315269 0.815269 0.000000
0.316682 0.816682 0.000000
0.318096 0.818096 0.000000
0.319510 0.819510 0.000000
0.320924 0.820924 0.000000
0.322337 0.822337 0.000000
0.323751 0.823751 0.000000
0.325165 0.825165 0.000000
0.326579 0.826579 0.000000
0.327992 0.827992 0.000000
0.329406 0.829406 0.000000
0.330820 0.830820 0.000000
0.332234 0.832234 0.000000
0.333648 0.833648 0.000000
0.335061 0.835061 0.000000
0.336475 0.836475 0.000000
0.337889 0.837889 0.000000
0.339303 0.839303 0.000000
0.340716 0.840716 0.000000
[...]
POINT_DATA 20431
SCALARS UX float 1
LOOKUP_TABLE default
-0.000000
0.000000
0.053727
-0.056040
-0.043826
0.027056
0.054094
-0.000000
-0.000000
0.000000
-0.000000
0.036641
0.047976
0.052387
0.053996
0.054575
0.054739
0.054721
0.054655
0.054577
0.054501
0.054435
0.054379
0.054331
0.054291
0.054258
0.054231
0.054208
0.054189
0.054173
0.054160
0.054149
0.054139
0.054131
0.054124
0.054119
0.054114
0.054110
0.054106
0.054103
0.054101
0.054099
0.054097
0.054095
0.054092
0.054090
0.054088
0.054085
0.054081
0.054075
0.054069
0.054060
0.054049
0.054035
0.054016
0.053994
0.053967
0.053936
0.053897
0.053857
0.053815
0.053772
0.053741
0.031755
0.009792
-0.012159
-0.034101
-0.056039
-0.056039
-0.056049
-0.056077
-0.056126
-0.056187
-0.056254
-0.056306
-0.056318
-0.056276
-0.056178
-0.056009
-0.055756
-0.055429
-0.055032
-0.054577
-0.054071
-0.053525
-0.052953
-0.052364
-0.051770
-0.051177
-0.050600
-0.050031
-0.049489
-0.048972
-0.048480
-0.048019
-0.047588
-0.047187
-0.046816
-0.046473
-0.046158
-0.045870
-0.045606
-0.045365
-0.045146
-0.044947
-0.044766
-0.044603
-0.044455
-0.044321
-0.044200
-0.044091
-0.043993
-0.043905
-0.043742
-0.043626
-0.043465
-0.043241
-0.042926
-0.042485
-0.041842
-0.040921
-0.039560
-0.037439
-0.034160
-0.028975
-0.019808
-0.043810
-0.043794
-0.043778
-0.043761
-0.043745
-0.043727
-0.043710
-0.043692
-0.043674
-0.043656
-0.043637
-0.043618
-0.043599
-0.043579
-0.043559
-0.043539
-0.043518
-0.043498
-0.043477
-0.043455
-0.043434
-0.043412
-0.043390
-0.043368
-0.043345
-0.043322
-0.043299
-0.043276
-0.043252
-0.043228
-0.043204
-0.043180
-0.043156
-0.043131
-0.043106
-0.043081
-0.043055
-0.043030
-0.043004
-0.042978
-0.042952
-0.042925
-0.042898
-0.042872
-0.042844
-0.042817
-0.042790
-0.042762
-0.042734
-0.042706
-0.042678
-0.042649
-0.042620
-0.042591
-0.042562
-0.042533
-0.042504
-0.042474
-0.042444
-0.042414
-0.042384
-0.042354
-0.042323
-0.042293
-0.042262
-0.042231
-0.042200
-0.042169
-0.042137
-0.042105
-0.042074
-0.042042
-0.042010
-0.041977
-0.041945
-0.041912
-0.041879
-0.041846
-0.041813
-0.041780
-0.041746
-0.041712
-0.041678
-0.041644
-0.041610
-0.041576
-0.041541
-0.041506
-0.041472
-0.041437
-0.041402
-0.041366
-0.041331
-0.041295
-0.041259
-0.041224
-0.041187
-0.041151
-0.041115
-0.041078
-0.041041
-0.041004
-0.040967
-0.040930
-0.040893
-0.040855
-0.040818
-0.040780
-0.040742
-0.040704
-0.040665
-0.040627
-0.040588
-0.040549
-0.040510
-0.040471
-0.040432
-0.040392
-0.040353
-0.040313
-0.040273
-0.040233
-0.040192
-0.040152
-0.040111
-0.040071
-0.040030
-0.039989
-0.039948
-0.039906
-0.039865
-0.039823
-0.039781
-0.039739
-0.039697
-0.039655
-0.039613
-0.039570
-0.039527
-0.039485
-0.039442
-0.039398
-0.039355
-0.039312
-0.039268
-0.039224
-0.039180
-0.039136
-0.039092
-0.039048
-0.039003
-0.038959
-0.038914
-0.038869
-0.038824
-0.038779
-0.038733
-0.038688
-0.038642
-0.038596
-0.038550
-0.038504
-0.038458
-0.038412
-0.038365
-0.038318
-0.038272
-0.038225
-0.038178
-0.038130
-0.038083
-0.038035
-0.037988
-0.037940
-0.037892
-0.037844
-0.037796
-0.037748
-0.037699
-0.037651
-0.037602
-0.037553
-0.037504
-0.037455
-0.037406
-0.037357
-0.037307
-0.037258
-0.037208
-0.037158
-0.037108
-0.037058
-0.037008
-0.036958
-0.036907
-0.036857
-0.036806
-0.036755
-0.036704
-0.036653
-0.036602
-0.036551
-0.036499
-0.036448
-0.036396
-0.036344
-0.036292
-0.036240
-0.036188
-0.036136
-0.036083
-0.036031
-0.035978
-0.035925
-0.035873
-0.035820
-0.035766
-0.035713
-0.035660
-0.035606
-0.035553
-0.035499
-0.035445
-0.035391
-0.035337
-0.035283
-0.035229
-0.035175
-0.035120
-0.035066
-0.035011
-0.034956
-0.034901
-0.034846
-0.034791
-0.034736
-0.034680
-0.034625
-0.034569
-0.034514
-0.034458
-0.034402
-0.034346
-0.034290
-0.034234
-0.034177
-0.034121
-0.034064
-0.034008
-0.033951
-0.033894
-0.033837
-0.033780
-0.033723
-0.033666
-0.033608
-0.033551
-0.033493
-0.033435
-0.033378
-0.033320
-0.033262
-0.033203
-0.033145
-0.033087
-0.033029
-0.032970
-0.032911
-0.032853
-0.032794
-0.032735
-0.032676
-0.032617
-0.032558
-0.032498
-0.032439
-0.032379
-0.032320
-0.032260
-0.032200
-0.032140
-0.032080
-0.032020
-0.031960
-0.031900
-0.031839
-0.031779
-0.031718
-0.031657
-0.031597
-0.031536
-0.031475
-0.031414
-0.031353
-0.031291
-0.031230
-0.031169
-0.031107
-0.031045
-0.030984
-0.030922
-0.030860
-0.030798
-0.030736
-0.030674
-0.030611
-0.030549
-0.030487
-0.030424
-0.030362
-0.030299
-0.030236
-0.030173
-0.030110
-0.030047
-0.029984
-0.029921
-0.029857
-0.029794
-0.029731
-0.029667
-0.029603
-0.029540
-0.029476
-0.029412
-0.029348
-0.029284
-0.029220
-0.029155
-0.029091
-0.029027
-0.028962
-0.028898
-0.028833
-0.028768
-0.028703
-0.028639
-0.028574
-0.028508
-0.028443
-0.028378
-0.028313
-0.028247
-0.028182
-0.028116
-0.028051
-0.027985
-0.027919
-0.027853
-0.027787
-0.027721
-0.027655
-0.027589
-0.027523
-0.027457
-0.027390
-0.027324
-0.027257
-0.027190
-0.027124
-0.027057
-0.026990
-0.026923
-0.026856
-0.026789
-0.026722
-0.026654
-0.026587
-0.026520
-0.026452
-0.026385
-0.026317
-0.026249
-0.026181
-0.026114
-0.026046
-0.025978
-0.025910
-0.025841
-0.025773
-0.025705
-0.025636
-0.025568
-0.025499
-0.025431
-0.025362
-0.025294
-0.025225
-0.025156
-0.025087
-0.025018
-0.024949
-0.024880
-0.024810
-0.024741
-0.024672
-0.024602
-0.024533
-0.024463
-0.024394
-0.024324
-0.024254
-0.024184
-0.024114
-0.024044
-0.023974
-0.023904
-0.023834
-0.023764
-0.023693
-0.023623
-0.023552
-0.023482
-0.023411
-0.023341
-0.023270
-0.023199
-0.023128
-0.023057
-0.022986
-0.022915
-0.022844
-0.022773
-0.022702
-0.022630
-0.022559
-0.022488
-0.022416
-0.022344
-0.022273
-0.022201
-0.022129
-0.022058
-0.021986
-0.021914
-0.021842
-0.021770
-0.021698
-0.021625
-0.021553
-0.021481
-0.021408
-0.021336
-0.021264
-0.021191
-0.021118
-0.021046
-0.020973
-0.020900
-0.020827
-0.020755
-0.020682
-0.020609
-0.020536
-0.020462
-0.020389
-0.020316
-0.020243
-0.020169
-0.020096
-0.020023
-0.019949
-0.019876
-0.019802
-0.019728
-0.019655
-0.019581
-0.019507
-0.019433
-0.019359
-0.019285
-0.019211
-0.019137
-0.019063
-0.018989
-0.018914
-0.018840
-0.018766
-0.018691
-0.018617
-0.018542
-0.018468
-0.018393
-0.018319
-0.018244
-0.018169
-0.018094
-0.018020
-0.017945
-0.017870
-0.017795
-0.017720
-0.017645
-0.017569
-0.017494
-0.017419
-0.017344
-0.017268
-0.017193
-0.017118
-0.017042
-0.016967
-0.016891
-0.016816
-0.016740
-0.016664
-0.016588
-0.016513
-0.016437
-0.016361
-0.016285
-0.016209
-0.016133
-0.016057
-0.015981
-0.015905
-0.015829
-0.015752
-0.015676
-0.015600
-0.015524
-0.015447
-0.015371
-0.015294
-0.015218
-0.015141
-0.015065
-0.014988
-0.014911
-0.014835
-0.014758
-0.014681
-0.014604
-0.014528
-0.014451
-0.014374
-0.014297
-0.014220
-0.014143
-0.014066
-0.013989
-0.013911
-0.013834
-0.013757
-0.013680
-0.013603
-0.013525
-0.013448
-0.013370
-0.013293
-0.013216
-0.013138
-0.013061
-0.012983
-0.012905
-0.012828
-0.012750
-0.012672
-0.012595
-0.012517
-0.012439
-0.012361
-0.012283
-0.012206
-0.012128
-0.012050
-0.011972
-0.011894
-0.011816
-0.011738
-0.011660
-0.011581
-0.011503
-0.011425
-0.011347
-0.011269
-0.011190
-0.011112
-0.011034
-0.010955
-0.010877
-0.010799
-0.010720
-0.010642
-0.010563
-0.010485
-0.010406
-0.010328
-0.010249
-0.010171
-0.010092
-0.010013
-0.009935
-0.009856
-0.009777
-0.009698
-0.009620
-0.009541
-0.009462
-0.009383
-0.009304
-0.009225
-0.009147
-0.009068
-0.008989
-0.008910
-0.008831
-0.008752
-0.008673
-0.008594
-0.008515
-0.008435
-0.008356
-0.008277
-0.008198
-0.008119
-0.008040
-0.007960
-0.007881
-0.007802
-0.007723
-0.007643
-0.007564
-0.007485
-0.007405
-0.007326
-0.007247
-0.007167
-0.007088
-0.007009
-0.006929
-0.006850
-0.006770
-0.006691
-0.006611
-0.006532
-0.006452
-0.006373
-0.006293
-0.006213
-0.006134
-0.006054
-0.005975
-0.005895
-0.005815
-0.005736
-0.005656
-0.005576
-0.005497
-0.005417
-0.005337
-0.005258
-0.005178
-0.005098
-0.005018
-0.004939
-0.004859
-0.004779
-0.004699
-0.004619
-0.004539
-0.004460
-0.004380
-0.004300
-0.004220
-0.004140
-0.004060
-0.003980
-0.003900
-0.003821
-0.003741
-0.003661
-0.003581
-0.003501
-0.003421
-0.003341
-0.003261
-0.003181
-0.003101
-0.003021
-0.002941
-0.002861
-0.002781
-0.002701
-0.002621
-0.002541
-0.002461
-0.002381
-0.002301
-0.002221
-0.002141
-0.002060
-0.001980
-0.001900
-0.001820
-0.001740
-0.001660
-0.001580
-0.001500
-0.001420
-0.001340
-0.001260
-0.001179
-0.001099
-0.001019
-0.000939
-0.000859
-0.000779
-0.000699
-0.000618
-0.000538
-0.000458
-0.000378
-0.000298
-0.000218
-0.000138
-0.000057
0.000023
0.000103
0.000183
0.000263
0.000343
0.000423
0.000504
0.000584
0.000664
0.000744
0.000824
0.000904
0.000984
0.001065
0.001145
0.001225
0.001305
0.001385
0.001465
0.001546
0.001626
0.001706
0.001786
0.001866
0.001946
0.002026
0.002107
0.002187
0.002267
0.002347
0.002427
0.002507
0.002587
0.002667
0.002747
0.002828
0.002908
0.002988
0.003068
0.003148
0.003228
0.003308
0.003388
0.003468
0.003548
0.003628
0.003709
0.003789
0.003869
0.003949
0.004029
0.004109
0.004189
0.004269
0.004349
0.004429
0.004509
0.004589
0.004669
0.004749
0.004829
0.004909
0.004989
0.005069
0.005149
0.005229
0.005309
0.005389
0.005469
0.005549
0.005628
0.005708
0.005788
0.005868
0.005948
0.006028
0.006108
0.006188
0.006268
0.006347
0.006427
0.006507
0.006587
0.006667
0.006747
0.006826
0.006906
0.006986
0.007066
0.007146
0.007225
0.007305
0.007385
0.007465
0.007544
0.007624
0.007704
0.007784
0.007863
0.007943
0.008023
0.008102
0.008182
0.008262
0.008341
0.008421
0.008501
0.008580
0.008660
0.008740
0.008819
0.008899
0.008978
0.009058
0.009137
0.009217
0.009296
0.009376
0.009456
0.009535
0.009615
0.009694
0.009774
0.009853
0.009932
0.010012
0.010091
0.010171
0.010250
0.010330
0.010409
0.010488
0.010568
0.010647
0.010726
0.010806
0.010885
0.010964
0.011044
0.011123
0.011202
0.011282
0.011361
0.011440
0.011519
0.011599
0.011678
0.011757
0.011836
0.011915
0.011995
0.012074
0.012153
0.012232
0.012311
0.012390
0.012469
0.012549
0.012628
0.012707
0.012786
0.012865
0.012944
0.013023
0.013102
0.013181
0.013260
0.013339
0.013418
0.013497
0.013576
0.013655
0.013734
0.013812
0.013891
0.013970
0.014049
0.014128
0.014207
0.014286
0.014364
0.014443
0.014522
0.014601
0.014680
0.014758
0.014837
0.014916
0.014995
0.015073
0.015152
0.015231
0.015309
0.015388
0.015467
0.015545
0.015624
0.015703
0.015781
0.015860
0.015938
0.016017
0.016096
0.016174
0.016253
0.016331
0.016410
0.016488
0.016567
0.016645
0.016724
0.016802
0.016880
0.016959
0.017037
0.017116
0.017194
0.017272
0.017351
0.017429
0.017507
0.017586
0.017664
0.017742
0.017821
0.017899
0.017977
0.018055
0.018134
0.018212
0.018290
0.018368
0.018447
0.018525
0.018603
0.018681
0.018759
0.018837
0.018915
0.018994
0.019072
0.019150
0.019228
0.019306
0.019384
0.019462
0.019540
0.019618
0.019696
0.019774
0.019852
0.019930
0.020008
0.020086
0.020164
0.020242
0.020320
0.020397
0.020475
0.020553
0.020631
0.020709
0.020787
0.020865
0.020942
0.021020
0.021098
0.021176
0.021254
0.021331
0.021409
0.021487
0.021565
0.021642
0.021720
0.021798
0.021875
0.021953
0.022031
0.022108
0.022186
0.022264
0.022341
0.022419
0.022496
0.022574
0.022651
0.022729
0.022807
0.022884
0.022962
0.023039
0.023117
0.023194
0.023272
0.023349
0.023427
0.023504
0.023581
0.023659
0.023736
0.023814
0.023891
0.023969
0.024046
0.024123
0.024201
0.024278
0.024355
0.024433
0.024510
0.024587
0.024665
0.024742
0.024819
0.024896
0.024974
0.025051
0.025128
0.025205
0.025283
0.025360
0.025437
0.025514
0.025591
0.025669
0.025746
0.025823
0.025900
0.025977
0.026054
0.026132
0.026209
0.026286
0.026363
0.026440
0.026517
0.026594
0.026671
0.026748
0.026825
0.026902
0.026979
0.027133
0.027210
0.027287
0.027364
0.027441
0.027518
0.027595
0.027672
0.027748
0.027825
0.027902
0.027979
0.028056
0.028133
0.028210
0.028286
0.028363
0.028440
0.028517
0.028594
0.028670
0.028747
0.028824
0.028901
0.028977
0.029054
0.029131
0.029208
0.029284
0.029361
0.029438
0.029514
0.029591
0.029668
0.029744
0.029821
0.029898
0.029974
0.030051
0.030128
0.030204
0.030281
0.030358
0.030434
0.030511
0.030587
0.030664
0.030741
0.030817
0.030894
0.030970
0.031047
0.031124
0.031200
0.031277
0.031353
0.031430
0.031506
0.031583
0.031659
0.031736
0.031812
0.031889
0.031965
0.032042
0.032118
0.032195
0.032271
0.032348
0.032424
0.032501
0.032577
0.032654
0.032730
0.032806
0.032883
0.032959
0.033036
0.033112
0.033189
0.033265
0.033341
0.033418
0.033494
0.033571
0.033647
0.033723
0.033800
0.033876
0.033952
0.034029
0.034105
0.034181
0.034258
0.034334
0.034411
0.034487
0.034563
0.034640
0.034716
0.034792
0.034869
0.034945
0.035021
0.035097
0.035174
0.035250
0.035326
0.035403
0.035479
0.035555
0.035632
0.035708
0.035784
0.035860
0.035937
0.036013
0.036089
0.036165
0.036242
0.036318
0.036394
0.036471
0.036547
0.036623
0.036699
0.036776
0.036852
0.036928
0.037004
0.037080
0.037157
0.037233
0.037309
0.037385
0.037462
0.037538
0.037614
0.037690
0.037767
0.037843
0.037919
0.037995
0.038071
0.038148
0.038224
0.038300
0.038376
0.038452
0.038529
0.038605
0.038681
0.038757
0.038833
0.038910
0.038986
0.039062
0.039138
0.039214
0.039291
0.039367
0.039443
0.039519
0.039595
0.039671
0.039748
0.039824
0.039900
0.039976
0.040052
0.040128
0.040205
0.040281
0.040357
0.040433
0.040509
0.040586
0.040662
0.040738
0.040814
0.040890
0.040966
0.041043
0.041119
0.041195
0.041271
0.041347
0.041423
0.041500
0.041576
0.041652
0.041728
0.041804
0.041881
0.041957
0.042033
0.042109
0.042185
0.042261
0.042338
0.042414
0.042490
0.042566
0.042642
0.042719
0.042795
0.042871
0.042947
0.043023
0.043099
0.043176
0.043252
0.043328
0.043404
0.043480
0.043557
0.043633
0.043709
0.043785
0.043861
0.043938
0.044014
0.044090
0.044166
0.044242
0.044319
0.044395
0.044471
0.044547
0.044623
0.044700
0.044776
0.044852
0.044928
0.045005
0.045081
0.045157
0.045233
0.045309
0.045386
0.045462
0.045538
0.045614
0.045691
0.045767
0.045843
0.045919
0.045996
0.046072
0.046148
0.046224
0.046301
0.046377
0.046453
0.046529
0.046606
0.046682
0.046758
0.046834
0.046911
0.046987
0.047063
0.047140
0.047216
0.047292
0.047368
0.047445
0.047521
0.047597
0.047674
0.047750
0.047826
0.047902
0.047979
0.048055
0.048131
0.048208
0.048284
0.048360
0.048437
0.048513
0.048589
0.048666
0.048742
0.048818
0.048895
0.048971
0.049047
0.049124
0.049200
0.049276
0.049353
0.049429
0.049506
0.049582
0.049658
0.049735
0.049811
0.049887
0.049964
0.050040
0.050117
0.050193
0.050269
0.050346
0.050422
0.050499
0.050575
0.050651
0.050728
0.050804
0.050881
0.050957
0.051034
0.051110
0.051186
0.051263
0.051339
0.051416
0.051492
0.051569
0.051645
0.051722
0.051798
0.051875
0.051951
0.052028
0.052104
0.052181
0.052257
0.052333
0.052410
0.052486
0.052563
0.052640
0.052716
0.052793
0.052869
0.052946
0.053022
0.053099
0.053175
0.053252
0.053328
0.053405
0.053481
0.053558
0.053634
0.053711
0.053788
0.053864
0.053941
0.054017
0.038495
0.038532
0.038414
0.034422
0.034478
0.034532
-0.027824
-0.027783
-0.027901
-0.027950
-0.014649
0.043737
0.043874
0.043903
0.043987
0.036945
0.036822
0.036861
-0.014939
-0.014859
-0.014956
-0.014815
-0.040409
-0.040466
-0.040325
-0.040343
-0.015440
-0.015381
-0.015324
0.015097
0.014976
0.015044
0.015085
-0.025294
-0.025956
-0.030577
-0.031502
0.010669
0.010549
0.010596
0.010585
-0.011773
-0.012026
-0.011810
-0.011821
0.028031
0.027800
0.027565
0.028329
-0.040592
-0.040545
-0.040405
0.013122
0.013108
0.013249
0.013314
0.000656
-0.002491
-0.001738
-0.004346
0.006463
0.006635
0.006703
-0.021588
-0.020573
-0.021632
-0.003564
-0.003486
-0.003678
-0.003592
0.034047
0.034454
0.034413
0.034833
-0.000890
-0.000613
-0.000728
-0.000332
0.011446
0.011568
0.011351
0.011626
0.010666
0.010753
0.010601
0.010824
-0.005803
-0.005823
-0.005928
-0.005991
0.038206
0.038154
0.038011
-0.016055
-0.016279
-0.016124
0.006474
0.037959
0.037818
0.037814
0.038025
0.017489
0.017627
0.017564
-0.000267
-0.000237
-0.000353
0.017618
0.010551
0.010163
0.010024
-0.000145
0.020202
0.020116
0.019933
0.031751
0.031887
0.031729
0.031947
0.019575
0.019652
0.019515
0.019701
0.019885
-0.034886
-0.035044
-0.034963
0.044997
0.044868
0.045082
-0.035114
-0.024376
-0.024478
-0.024577
-0.024281
-0.019640
-0.019549
-0.019871
-0.019648
-0.010989
-0.011224
-0.011054
0.005762
0.005895
0.005726
0.005846
-0.011261
0.017572
0.017673
0.017491
-0.018647
-0.018832
-0.018658
-0.020387
-0.020635
-0.020828
0.017670
0.034990
0.035024
0.034857
-0.031133
-0.031081
-0.031016
0.037481
0.037626
0.037636
0.037506
0.022061
0.021855
0.021938
0.021638
0.000686
-0.000385
0.000714
0.000442
0.016580
0.017021
0.015856
0.017691
-0.029419
-0.029333
-0.029590
-0.029162
0.050920
0.050819
-0.042409
-0.042052
-0.041848
-0.041453
-0.027493
-0.026775
-0.025128
-0.029586
0.052611
0.052650
0.052833
-0.031714
-0.029191
-0.031880
-0.032059
-0.031392
0.036316
0.036289
0.036104
0.014226
0.014152
0.014324
0.014269
0.001035
0.000716
0.000945
-0.041048
-0.041031
-0.041259
-0.041070
0.052682
0.052380
0.052774
0.052285
0.045083
0.045218
0.045361
0.036053
0.021714
0.021562
0.021406
0.021287
-0.004833
-0.004744
-0.004641
-0.004901
-0.008706
-0.009209
-0.010599
0.046025
0.045985
0.045591
0.045751
-0.011657
-0.011364
-0.012776
-0.012175
0.021330
0.021346
0.021206
0.012386
0.012811
0.016378
0.009009
-0.036317
-0.036506
-0.035915
-0.037163
0.048586
0.048699
0.011051
0.011036
0.011115
0.021466
0.001379
0.001941
0.002324
0.002632
-0.019800
-0.019997
-0.019912
-0.019896
-0.019198
-0.022146
-0.021204
-0.019298
-0.004444
-0.004216
-0.004609
-0.004558
-0.023833
-0.023088
-0.022533
-0.021946
0.047881
0.048147
0.048317
0.047868
-0.021906
-0.021873
-0.021804
-0.045382
-0.047312
-0.045451
-0.045643
-0.038563
-0.038672
-0.038691
-0.007112
-0.007140
-0.014914
-0.014935
-0.015875
-0.014062
0.019982
0.018787
0.018951
0.017625
0.002797
0.007679
0.007036
0.006253
0.026172
0.026271
0.025528
0.025529
0.042685
0.041693
0.042025
0.042612
-0.018315
-0.018244
-0.018840
-0.018951
-0.015528
-0.015462
-0.015370
-0.015668
0.029209
0.029668
0.029320
0.029607
0.028785
0.028735
0.029292
-0.003621
-0.003482
-0.003450
-0.003613
0.050463
0.049900
0.050418
0.037988
-0.009600
-0.010662
-0.010125
-0.010059
0.042049
0.042089
0.041840
0.041934
0.008119
0.008268
0.008157
0.008332
0.019989
0.020222
-0.005467
-0.005066
-0.004723
-0.004434
-0.001439
-0.001424
-0.000102
-0.002797
-0.000553
-0.000471
-0.000410
0.046908
0.046747
0.046731
-0.028112
-0.028197
-0.027787
-0.027756
-0.000374
-0.023936
-0.022393
-0.023552
0.042789
0.042988
0.043314
0.043507
0.040013
0.039929
0.039913
0.039779
0.018971
0.018553
0.018445
0.019371
0.016368
0.016228
0.016163
0.016388
0.016284
0.016460
0.020941
0.020322
0.020725
-0.002882
-0.003004
-0.002859
0.011901
0.010305
0.014088
-0.002916
0.027234
0.027549
0.026582
0.023143
0.023320
0.023311
0.023196
0.034639
0.034668
0.034459
-0.024089
-0.021399
0.034817
0.032878
0.032825
0.032737
0.032695
-0.018960
-0.018884
-0.018993
0.042237
0.011375
0.011433
0.011079
0.011022
-0.034486
-0.033386
-0.033788
-0.032877
0.013850
0.013831
0.013709
0.013970
-0.022838
-0.022425
-0.023466
-0.022254
-0.027717
-0.028297
-0.026052
-0.029797
0.029539
0.029472
0.029673
-0.023938
-0.023733
-0.024264
0.015225
0.015189
0.014645
0.014286
0.036932
0.030608
0.030457
0.030604
0.022957
0.023721
0.023079
0.023608
-0.005773
-0.006400
-0.006538
0.030453
0.032310
0.032559
0.032314
0.016260
0.016626
0.016804
0.017171
0.020128
0.018811
-0.011446
-0.011862
-0.011290
-0.012234
-0.031754
-0.033265
-0.033267
-0.030908
-0.024027
-0.024391
0.009950
0.009875
0.010453
0.032447
-0.007021
-0.005743
-0.005244
-0.007354
0.016009
0.017585
0.024018
0.024106
0.024044
-0.023814
-0.023472
-0.023364
0.024191
-0.019167
-0.019134
-0.019044
0.033944
0.033786
0.033878
0.033721
-0.012677
-0.012620
-0.012566
-0.022411
-0.025924
0.006060
0.006026
0.005949
0.036085
0.036055
0.035966
0.035919
0.024127
0.024220
0.024284
0.008766
0.008281
0.008151
0.007452
0.023356
0.023235
0.023286
0.023159
0.020377
0.020436
0.020320
0.032220
0.032327
0.032388
0.023341
0.023188
0.024072
0.032438
-0.029087
-0.029090
-0.028965
0.022579
0.017356
0.016996
0.017524
0.024097
-0.030948
-0.030898
-0.030978
0.012151
0.009523
0.010591
-0.029212
0.030297
0.030303
0.030473
0.043430
0.043491
0.043351
0.043430