# vtk DataFile Version 2.0
Test
ASCII
DATASET POLYDATA
POINTS 20431 float
0.000000 0.000000 0.000000
2.000000 0.000000 0.000000
2.000000 4.000000 0.000000
0.000000 4.000000 0.000000
0.000000 0.500000 0.000000
1.500000 2.000000 0.000000
2.000000 2.500000 0.000000
0.400000 0.000000 0.000000
0.800000 0.000000 0.000000
1.200000 0.000000 0.000000
1.600000 0.000000 0.000000
2.000000 0.362557 0.000000
2.000000 0.672798 0.000000
2.000000 0.938272 0.000000
2.000000 1.165439 0.000000
2.000000 1.359826 0.000000
2.000000 1.526163 0.000000
2.000000 1.668499 0.000000
2.000000 1.790295 0.000000
2.000000 1.894517 0.000000
2.000000 1.983700 0.000000
2.000000 2.060013 0.000000
2.000000 2.125315 0.000000
2.000000 2.181194 0.000000
2.000000 2.229010 0.000000
2.000000 2.269926 0.000000
2.000000 2.304938 0.000000
2.000000 2.334898 0.000000
2.000000 2.360534 0.000000
2.000000 2.382472 0.000000
2.000000 2.401244 0.000000
2.000000 2.417307 0.000000
2.000000 2.431052 0.000000
2.000000 2.442814 0.000000
2.000000 2.452878 0.000000
2.000000 2.461491 0.000000
2.000000 2.468860 0.000000
2.000000 2.475167 0.000000
2.000000 2.480563 0.000000
2.000000 2.485180 0.000000
2.000000 2.489132 0.000000
2.000000 2.492513 0.000000
2.000000 2.495406 0.000000
2.000000 2.497882 0.000000
2.000000 2.502286 0.000000
2.000000 2.505266 0.000000
2.000000 2.509150 0.000000
2.000000 2.514212 0.000000
2.000000 2.520809 0.000000
2.000000 2.529407 0.000000
2.000000 2.540613 0.000000
2.000000 2.555218 0.000000
2.000000 2.574253 0.000000
2.000000 2.599061 0.000000
2.000000 2.631395 0.000000
2.000000 2.673536 0.000000
2.000000 2.728460 0.000000
2.000000 2.800043 0.000000
2.000000 2.893339 0.000000
2.000000 3.014933 0.000000
2.000000 3.173410 0.000000
2.000000 3.379956 0.000000
2.000000 3.649152 0.000000
1.600000 4.000000 0.000000
1.200000 4.000000 0.000000
0.800000 4.000000 0.000000
0.400000 4.000000 0.000000
0.000000 3.624996 0.000000
0.000000 3.289970 0.000000
0.000000 2.990661 0.000000
0.000000 2.723261 0.000000
0.000000 2.484368 0.000000
0.000000 2.270943 0.000000
0.000000 2.080271 0.000000
0.000000 1.909926 0.000000
0.000000 1.757741 0.000000
0.000000 1.621780 0.000000
0.000000 1.500314 0.000000
0.000000 1.391797 0.000000
0.000000 1.294849 0.000000
0.000000 1.208237 0.000000
0.000000 1.130858 0.000000
0.000000 1.061728 0.000000
0.000000 0.999968 0.000000
0.000000 0.944792 0.000000
0.000000 0.895499 0.000000
0.000000 0.851460 0.000000
0.000000 0.812117 0.000000
0.000000 0.776968 0.000000
0.000000 0.745565 0.000000
0.000000 0.717511 0.000000
0.000000 0.692448 0.000000
0.000000 0.670056 0.000000
0.000000 0.650052 0.000000
0.000000 0.632180 0.000000
0.000000 0.616213 0.000000
0.000000 0.601949 0.000000
0.000000 0.589205 0.000000
0.000000 0.577820 0.000000
0.000000 0.567649 0.000000
0.000000 0.558562 0.000000
0.000000 0.550444 0.000000
0.000000 0.543191 0.000000
0.000000 0.536712 0.000000
0.000000 0.530923 0.000000
0.000000 0.525751 0.000000
0.000000 0.521131 0.000000
0.000000 0.517003 0.000000
0.000000 0.513315 0.000000
0.000000 0.510021 0.000000
0.000000 0.507078 0.000000
0.000000 0.504448 0.000000
0.000000 0.502099 0.000000
0.000000 0.497804 0.000000
0.000000 0.494785 0.000000
0.000000 0.490633 0.000000
0.000000 0.484924 0.000000
0.000000 0.477074 0.000000
0.000000 0.466279 0.000000
0.000000 0.451436 0.000000
0.000000 0.431025 0.000000
0.000000 0.402959 0.000000
0.000000 0.364366 0.000000
0.000000 0.311297 0.000000
0.000000 0.238324 0.000000
0.000000 0.137980 0.000000
0.001414 0.501414 0.000000
0.002828 0.502828 0.000000
0.004241 0.504241 0.000000
0.005655 0.505655 0.000000
0.007069 0.507069 0.000000
0.008483 0.508483 0.000000
0.009896 0.509896 0.000000
0.011310 0.511310 0.000000
0.012724 0.512724 0.000000
0.014138 0.514138 0.000000
0.015551 0.515551 0.000000
0.016965 0.516965 0.000000
0.018379 0.518379 0.000000
0.019793 0.519793 0.000000
0.021206 0.521206 0.000000
0.022620 0.522620 0.000000
0.024034 0.524034 0.000000
0.025448 0.525448 0.000000
0.026861 0.526861 0.000000
0.028275 0.528275 0.000000
0.029689 0.529689 0.000000
0.031103 0.531103 0.000000
0.032516 0.532516 0.000000
0.033930 0.533930 0.000000
0.035344 0.535344 0.000000
0.036758 0.536758 0.000000
0.038172 0.538172 0.000000
0.039585 0.539585 0.000000
0.040999 0.540999 0.000000
0.042413 0.542413 0.000000
0.043827 0.543827 0.000000
0.045240 0.545240 0.000000
0.046654 0.546654 0.000000
0.048068 0.548068 0.000000
0.049482 0.549482 0.000000
0.050895 0.550895 0.000000
0.052309 0.552309 0.000000
0.053723 0.553723 0.000000
0.055137 0.555137 0.000000
0.056550 0.556550 0.000000
0.057964 0.557964 0.000000
0.059378 0.559378 0.000000
0.060792 0.560792 0.000000
0.062205 0.562205 0.000000
0.063619 0.563619 0.000000
0.065033 0.565033 0.000000
0.066447 0.566447 0.000000
0.067861 0.567861 0.000000
0.069274 0.569274 0.000000
0.070688 0.570688 0.000000
0.072102 0.572102 0.000000
0.073516 0.573516 0.000000
0.074929 0.574929 0.000000
0.076343 0.576343 0.000000
0.077757 0.577757 0.000000
0.079171 0.579171 0.000000
0.080584 0.580584 0.000000
0.081998 0.581998 0.000000
0.083412 0.583412 0.000000
0.084826 0.584826 0.000000
0.086239 0.586239 0.000000
0.087653 0.587653 0.000000
0.089067 0.589067 0.000000
0.090481 0.590481 0.000000
0.091894 0.591894 0.000000
0.093308 0.593308 0.000000
0.094722 0.594722 0.000000
0.096136 0.596136 0.000000
0.097549 0.597549 0.000000
0.098963 0.598963 0.000000
0.100377 0.600377 0.000000
0.101791 0.601791 0.000000
0.103205 0.603205 0.000000
0.104618 0.604618 0.000000
0.106032 0.606032 0.000000
0.107446 0.607446 0.000000
0.108860 0.608860 0.000000
0.110273 0.610273 0.000000
0.111687 0.611687 0.000000
0.113101 0.613101 0.000000
0.114515 0.614515 0.000000
0.115928 0.615928 0.000000
0.117342 0.617342 0.000000
0.118756 0.618756 0.000000
0.120170 0.620170 0.000000
0.121583 0.621583 0.000000
0.122997 0.622997 0.000000
0.124411 0.624411 0.000000
0.125825 0.625825 0.000000
0.127238 0.627238 0.000000
0.128652 0.628652 0.000000
0.130066 0.630066 0.000000
0.131480 0.631480 0.000000
0.132893 0.632893 0.000000
0.134307 0.634307 0.000000
0.135721 0.635721 0.000000
0.137135 0.637135 0.000000
0.138549 0.638549 0.000000
0.139962 0.639962 0.000000
0.141376 0.641376 0.000000
0.142790 0.642790 0.000000
0.144204 0.644204 0.000000
0.145617 0.645617 0.000000
0.147031 0.647031 0.000000
0.148445 0.648445 0.000000
0.149859 0.649859 0.000000
0.151272 0.651272 0.000000
0.152686 0.652686 0.000000
0.154100 0.654100 0.000000
0.155514 0.655514 0.000000
0.156927 0.656927 0.000000
0.158341 0.658341 0.000000
0.159755 0.659755 0.000000
0.161169 0.661169 0.000000
0.162582 0.662582 0.000000
0.163996 0.663996 0.000000
0.165410 0.665410 0.000000
0.166824 0.666824 0.000000
0.168238 0.668238 0.000000
0.169651 0.669651 0.000000
0.171065 0.671065 0.000000
0.172479 0.672479 0.000000
0.173893 0.673893 0.000000
0.175306 0.675306 0.000000
0.176720 0.676720 0.000000
0.178134 0.678134 0.000000
0.179548 0.679548 0.000000
0.180961 0.680961 0.000000
0.182375 0.682375 0.000000
0.183789 0.683789 0.000000
0.185203 0.685203 0.000000
0.186616 0.686616 0.000000
0.188030 0.688030 0.000000
0.189444 0.689444 0.000000
0.190858 0.690858 0.000000
0.192271 0.692271 0.000000
0.193685 0.693685 0.000000
0.195099 0.695099 0.000000
0.196513 0.696513 0.000000
0.197926 0.697926 0.000000
0.199340 0.699340 0.000000
0.200754 0.700754 0.000000
0.202168 0.702168 0.000000
0.203582 0.703582 0.000000
0.204995 0.704995 0.000000
0.206409 0.706409 0.000000
0.207823 0.707823 0.000000
0.209237 0.709237 0.000000
0.210650 0.710650 0.000000
0.212064 0.712064 0.000000
0.213478 0.713478 0.000000
0.214892 0.714892 0.000000
0.216305 0.716305 0.000000
0.217719 0.717719 0.000000
0.219133 0.719133 0.000000
0.220547 0.720547 0.000000
0.221960 0.721960 0.000000
0.223374 0.723374 0.000000
0.224788 0.724788 0.000000
0.226202 0.726202 0.000000
0.227615 0.727615 0.000000
0.229029 0.729029 0.000000
0.230443 0.730443 0.000000
0.231857 0.731857 0.000000
0.233270 0.733270 0.000000
0.234684 0.734684 0.000000
0.236098 0.736098 0.000000
0.237512 0.737512 0.000000
0.238926 0.738926 0.000000
0.240339 0.740339 0.000000
0.241753 0.741753 0.000000
0.243167 0.743167 0.000000
0.244581 0.744581 0.000000
0.245994 0.745994 0.000000
0.247408 0.747408 0.000000
0.248822 0.748822 0.000000
0.250236 0.750236 0.000000
0.251649 0.751649 0.000000
0.253063 0.753063 0.000000
0.254477 0.754477 0.000000
0.255891 0.755891 0.000000
0.257304 0.757304 0.000000
0.258718 0.758718 0.000000
0.260132 0.760132 0.000000
0.261546 0.761546 0.000000
0.262959 0.762959 0.000000
0.264373 0.764373 0.000000
0.265787 0.765787 0.000000
0.267201 0.767201 0.000000
0.268615 0.768615 0.000000
0.270028 0.770028 0.000000
0.271442 0.771442 0.000000
0.272856 0.772856 0.000000
0.274270 0.774270 0.000000
0.275683 0.775683 0.000000
0.277097 0.777097 0.000000
0.278511 0.778511 0.000000
0.279925 0.779925 0.000000
0.281338 0.781338 0.000000
0.282752 0.782752 0.000000
0.284166 0.784166 0.000000
0.285580 0.785580 0.000000
0.286993 0.786993 0.000000
0.288407 0.788407 0.000000
0.289821 0.789821 0.000000
0.291235 0.791235 0.000000
0.292648 0.792648 0.000000
0.294062 0.794062 0.000000
0.295476 0.795476 0.000000
0.296890 0.796890 0.000000
0.298303 0.798303 0.000000
0.299717 0.799717 0.000000
0.301131 0.801131 0.000000
0.302545 0.802545 0.000000
0.303959 0.803959 0.000000
0.305372 0.805372 0.000000
0.306786 0.806786 0.000000
0.308200 0.808200 0.000000
0.309614 0.809614 0.000000
0.311027 0.811027 0.000000
0.312441 0.812441 0.000000
0.313855 0.813855 0.000000
0.315269 0.815269 0.000000
0.316682 0.816682 0.000000
0.318096 0.818096 0.000000
0.319510 0.819510 0.000000
0.320924 0.820924 0.000000
0.322337 0.822337 0.000000
0.323751 0.823751 0.000000
0.325165 0.825165 0.000000
0.326579 0.826579 0.000000
0.327992 0.827992 0.000000
0.329406 0.829406 0.000000
0.330820 0.830820 0.000000
0.332234 0.832234 0.000000
0.333648 0.833648 0.000000
0.335061 0.835061 0.000000
0.336475 0.836475 0.000000
0.337889 0.837889 0.000000
0.339303 0.839303 0.000000
0.340716 0.840716 0.000000
[...]
POINT_DATA 20431
SCALARS UX float 1
LOOKUP_TABLE default
-0.000000
0.000000
0.139903
-0.145927
-0.114120
0.070454
0.140858
-0.000000
-0.000000
0.000000
-0.000000
0.095412
0.124927
0.136414
0.140603
0.142111
0.142539
0.142490
0.142318
0.142117
0.141918
0.141747
0.141600
0.141476
0.141373
0.141287
0.141215
0.141156
0.141106
0.141065
0.141030
0.141001
0.140976
0.140956
0.140938
0.140923
0.140910
0.140900
0.140891
0.140883
0.140876
0.140871
0.140866
0.140862
0.140854
0.140849
0.140843
0.140835
0.140824
0.140810
0.140793
0.140770
0.140741
0.140704
0.140656
0.140598
0.140528
0.140446
0.140346
0.140241
0.140132
0.140019
0.139939
0.082688
0.025497
-0.031662
-0.088799
-0.145924
-0.145924
-0.145950
-0.146023
-0.146150
-0.146309
-0.146482
-0.146619
-0.146650
-0.146541
-0.146286
-0.145846
-0.145187
-0.144335
-0.143302
-0.142117
-0.140800
-0.139376
-0.137887
-0.136354
-0.134808
-0.133264
-0.131761
-0.130279
-0.128866
-0.127521
-0.126239
-0.125040
-0.123917
-0.122873
-0.121908
-0.121014
-0.120194
-0.119443
-0.118755
-0.118129
-0.117558
-0.117040
-0.116570
-0.116144
-0.115759
-0.115410
-0.115096
-0.114812
-0.114557
-0.114327
-0.113903
-0.113600
-0.113181
-0.112598
-0.111777
-0.110629
-0.108955
-0.106556
-0.103013
-0.097490
-0.088951
-0.075450
-0.051578
-0.114080
-0.114038
-0.113996
-0.113953
-0.113909
-0.113864
-0.113819
-0.113773
-0.113725
-0.113678
-0.113629
-0.113579
-0.113529
-0.113478
-0.113426
-0.113374
-0.113320
-0.113266
-0.113212
-0.113156
-0.113100
-0.113043
-0.112986
-0.112928
-0.112869
-0.112810
-0.112750
-0.112689
-0.112627
-0.112565
-0.112503
-0.112440
-0.112376
-0.112311
-0.112246
-0.112181
-0.112115
-0.112048
-0.111981
-0.111913
-0.111844
-0.111775
-0.111706
-0.111636
-0.111565
-0.111494
-0.111423
-0.111351
-0.111278
-0.111205
-0.111131
-0.111056
-0.110982
-0.110906
-0.110831
-0.110754
-0.110677
-0.110600
-0.110523
-0.110445
-0.110366
-0.110288
-0.110208
-0.110128
-0.110048
-0.109968
-0.109887
-0.109805
-0.109723
-0.109641
-0.109558
-0.109475
-0.109391
-0.109307
-0.109222
-0.109137
-0.109052
-0.108966
-0.108879
-0.108792
-0.108705
-0.108617
-0.108529
-0.108440
-0.108351
-0.108261
-0.108172
-0.108081
-0.107991
-0.107900
-0.107808
-0.107716
-0.107624
-0.107531
-0.107438
-0.107344
-0.107250
-0.107156
-0.107061
-0.106966
-0.106870
-0.106774
-0.106677
-0.106581
-0.106483
-0.106385
-0.106287
-0.106189
-0.106090
-0.105990
-0.105891
-0.105790
-0.105690
-0.105588
-0.105487
-0.105385
-0.105283
-0.105180
-0.105076
-0.104973
-0.104869
-0.104764
-0.104659
-0.104554
-0.104449
-0.104343
-0.104236
-0.104129
-0.104022
-0.103914
-0.103806
-0.103698
-0.103589
-0.103480
-0.103370
-0.103260
-0.103150
-0.103039
-0.102928
-0.102816
-0.102704
-0.102592
-0.102479
-0.102366
-0.102253
-0.102139
-0.102024
-0.101910
-0.101795
-0.101679
-0.101563
-0.101447
-0.101330
-0.101213
-0.101096
-0.100978
-0.100860
-0.100741
-0.100622
-0.100503
-0.100383
-0.100263
-0.100143
-0.100022
-0.099901
-0.099779
-0.099658
-0.099535
-0.099413
-0.099290
-0.099166
-0.099043
-0.098919
-0.098794
-0.098670
-0.098545
-0.098419
-0.098293
-0.098167
-0.098041
-0.097914
-0.097787
-0.097660
-0.097532
-0.097404
-0.097275
-0.097147
-0.097018
-0.096888
-0.096758
-0.096628
-0.096498
-0.096367
-0.096236
-0.096105
-0.095973
-0.095841
-0.095709
-0.095576
-0.095443
-0.095310
-0.095176
-0.095043
-0.094908
-0.094774
-0.094639
-0.094504
-0.094368
-0.094232
-0.094096
-0.093960
-0.093823
-0.093686
-0.093548
-0.093411
-0.093273
-0.093134
-0.092996
-0.092857
-0.092718
-0.092578
-0.092438
-0.092298
-0.092158
-0.092017
-0.091876
-0.091735
-0.091594
-0.091452
-0.091310
-0.091167
-0.091024
-0.090881
-0.090738
-0.090594
-0.090450
-0.090306
-0.090162
-0.090017
-0.089872
-0.089727
-0.089581
-0.089435
-0.089289
-0.089143
-0.088996
-0.088849
-0.088702
-0.088555
-0.088407
-0.088259
-0.088110
-0.087962
-0.087813
-0.087664
-0.087514
-0.087364
-0.087214
-0.087064
-0.086914
-0.086763
-0.086612
-0.086461
-0.086309
-0.086157
-0.086005
-0.085853
-0.085700
-0.085547
-0.085394
-0.085240
-0.085087
-0.084933
-0.084779
-0.084624
-0.084469
-0.084314
-0.084159
-0.084004
-0.083848
-0.083692
-0.083536
-0.083379
-0.083222
-0.083065
-0.082908
-0.082751
-0.082593
-0.082435
-0.082276
-0.082118
-0.081959
-0.081800
-0.081641
-0.081481
-0.081322
-0.081162
-0.081001
-0.080841
-0.080680
-0.080519
-0.080358
-0.080197
-0.080035
-0.079873
-0.079711
-0.079549
-0.079386
-0.079223
-0.079060
-0.078897
-0.078733
-0.078570
-0.078406
-0.078241
-0.078077
-0.077912
-0.077748
-0.077582
-0.077417
-0.077252
-0.077086
-0.076920
-0.076754
-0.076587
-0.076421
-0.076254
-0.076087
-0.075920
-0.075752
-0.075584
-0.075417
-0.075248
-0.075080
-0.074911
-0.074743
-0.074574
-0.074404
-0.074235
-0.074065
-0.073895
-0.073725
-0.073555
-0.073385
-0.073214
-0.073043
-0.072872
-0.072701
-0.072529
-0.072357
-0.072185
-0.072013
-0.071841
-0.071668
-0.071496
-0.071323
-0.071150
-0.070976
-0.070803
-0.070629
-0.070455
-0.070281
-0.070106
-0.069932
-0.069757
-0.069582
-0.069407
-0.069232
-0.069056
-0.068880
-0.068704
-0.068528
-0.068352
-0.068175
-0.067999
-0.067822
-0.067645
-0.067467
-0.067290
-0.067112
-0.066934
-0.066756
-0.066578
-0.066400
-0.066221
-0.066042
-0.065863
-0.065684
-0.065505
-0.065325
-0.065145
-0.064966
-0.064785
-0.064605
-0.064425
-0.064244
-0.064063
-0.063882
-0.063701
-0.063520
-0.063338
-0.063156
-0.062975
-0.062792
-0.062610
-0.062428
-0.062245
-0.062062
-0.061879
-0.061696
-0.061513
-0.061329
-0.061146
-0.060962
-0.060778
-0.060594
-0.060409
-0.060225
-0.060040
-0.059855
-0.059670
-0.059485
-0.059300
-0.059114
-0.058929
-0.058743
-0.058557
-0.058370
-0.058184
-0.057998
-0.057811
-0.057624
-0.057437
-0.057250
-0.057063
-0.056875
-0.056687
-0.056500
-0.056312
-0.056124
-0.055935
-0.055747
-0.055558
-0.055369
-0.055181
-0.054992
-0.054802
-0.054613
-0.054424
-0.054234
-0.054044
-0.053854
-0.053664
-0.053474
-0.053283
-0.053093
-0.052902
-0.052711
-0.052520
-0.052329
-0.052138
-0.051947
-0.051755
-0.051563
-0.051372
-0.051180
-0.050987
-0.050795
-0.050603
-0.050410
-0.050218
-0.050025
-0.049832
-0.049639
-0.049446
-0.049252
-0.049059
-0.048865
-0.048672
-0.048478
-0.048284
-0.048090
-0.047895
-0.047701
-0.047506
-0.047312
-0.047117
-0.046922
-0.046727
-0.046532
-0.046337
-0.046141
-0.045946
-0.045750
-0.045554
-0.045358
-0.045162
-0.044966
-0.044770
-0.044574
-0.044377
-0.044181
-0.043984
-0.043787
-0.043590
-0.043393
-0.043196
-0.042998
-0.042801
-0.042603
-0.042406
-0.042208
-0.042010
-0.041812
-0.041614
-0.041416
-0.041217
-0.041019
-0.040820
-0.040622
-0.040423
-0.040224
-0.040025
-0.039826
-0.039627
-0.039427
-0.039228
-0.039028
-0.038829
-0.038629
-0.038429
-0.038229
-0.038029
-0.037829
-0.037629
-0.037429
-0.037228
-0.037028
-0.036827
-0.036627
-0.036426
-0.036225
-0.036024
-0.035823
-0.035622
-0.035420
-0.035219
-0.035018
-0.034816
-0.034614
-0.034413
-0.034211
-0.034009
-0.033807
-0.033605
-0.033403
-0.033201
-0.032998
-0.032796
-0.032594
-0.032391
-0.032188
-0.031986
-0.031783
-0.031580
-0.031377
-0.031174
-0.030971
-0.030768
-0.030564
-0.030361
-0.030158
-0.029954
-0.029750
-0.029547
-0.029343
-0.029139
-0.028935
-0.028732
-0.028528
-0.028323
-0.028119
-0.027915
-0.027711
-0.027506
-0.027302
-0.027098
-0.026893
-0.026688
-0.026484
-0.026279
-0.026074
-0.025869
-0.025664
-0.025459
-0.025254
-0.025049
-0.024844
-0.024639
-0.024433
-0.024228
-0.024023
-0.023817
-0.023612
-0.023406
-0.023200
-0.022995
-0.022789
-0.022583
-0.022377
-0.022171
-0.021966
-0.021760
-0.021553
-0.021347
-0.021141
-0.020935
-0.020729
-0.020522
-0.020316
-0.020110
-0.019903
-0.019697
-0.019490
-0.019284
-0.019077
-0.018870
-0.018664
-0.018457
-0.018250
-0.018043
-0.017836
-0.017629
-0.017422
-0.017215
-0.017008
-0.016801
-0.016594
-0.016387
-0.016180
-0.015972
-0.015765
-0.015558
-0.015350
-0.015143
-0.014936
-0.014728
-0.014521
-0.014313
-0.014106
-0.013898
-0.013690
-0.013483
-0.013275
-0.013067
-0.012860
-0.012652
-0.012444
-0.012236
-0.012028
-0.011821
-0.011613
-0.011405
-0.011197
-0.010989
-0.010781
-0.010573
-0.010365
-0.010157
-0.009948
-0.009740
-0.009532
-0.009324
-0.009116
-0.008908
-0.008699
-0.008491
-0.008283
-0.008075
-0.007866
-0.007658
-0.007450
-0.007241
-0.007033
-0.006824
-0.006616
-0.006408
-0.006199
-0.005991
-0.005782
-0.005574
-0.005365
-0.005157
-0.004948
-0.004740
-0.004531
-0.004323
-0.004114
-0.003905
-0.003697
-0.003488
-0.003280
-0.003071
-0.002862
-0.002654
-0.002445
-0.002237
-0.002028
-0.001819
-0.001611
-0.001402
-0.001193
-0.000984
-0.000776
-0.000567
-0.000358
-0.000150
0.000059
0.000268
0.000476
0.000685
0.000894
0.001103
0.001311
0.001520
0.001729
0.001937
0.002146
0.002355
0.002564
0.002772
0.002981
0.003190
0.003398
0.003607
0.003816
0.004025
0.004233
0.004442
0.004651
0.004859
0.005068
0.005277
0.005485
0.005694
0.005903
0.006111
0.006320
0.006529
0.006737
0.006946
0.007154
0.007363
0.007572
0.007780
0.007989
0.008197
0.008406
0.008614
0.008823
0.009031
0.009240
0.009448
0.009657
0.009865
0.010074
0.010282
0.010491
0.010699
0.010908
0.011116
0.011324
0.011533
0.011741
0.011949
0.012158
0.012366
0.012574
0.012783
0.012991
0.013199
0.013407
0.013616
0.013824
0.014032
0.014240
0.014448
0.014656
0.014864
0.015073
0.015281
0.015489
0.015697
0.015905
0.016113
0.016321
0.016529
0.016737
0.016944
0.017152
0.017360
0.017568
0.017776
0.017984
0.018192
0.018399
0.018607
0.018815
0.019022
0.019230
0.019438
0.019645
0.019853
0.020061
0.020268
0.020476
0.020683
0.020891
0.021098
0.021306
0.021513
0.021721
0.021928
0.022135
0.022343
0.022550
0.022757
0.022965
0.023172
0.023379
0.023586
0.023793
0.024001
0.024208
0.024415
0.024622
0.024829
0.025036
0.025243
0.025450
0.025657
0.025864
0.026071
0.026277
0.026484
0.026691
0.026898
0.027105
0.027311
0.027518
0.027725
0.027931
0.028138
0.028344
0.028551
0.028757
0.028964
0.029170
0.029377
0.029583
0.029790
0.029996
0.030202
0.030409
0.030615
0.030821
0.031027
0.031233
0.031440
0.031646
0.031852
0.032058
0.032264
0.032470
0.032676
0.032882
0.033088
0.033294
0.033499
0.033705
0.033911
0.034117
0.034322
0.034528
0.034734
0.034939
0.035145
0.035351
0.035556
0.035762
0.035967
0.036173
0.036378
0.036583
0.036789
0.036994
0.037199
0.037405
0.037610
0.037815
0.038020
0.038225
0.038430
0.038635
0.038840
0.039045
0.039250
0.039455
0.039660
0.039865
0.040070
0.040275
0.040480
0.040684
0.040889
0.041094
0.041298
0.041503
0.041708
0.041912
0.042117
0.042321
0.042526
0.042730
0.042934
0.043139
0.043343
0.043547
0.043752
0.043956
0.044160
0.044364
0.044568
0.044773
0.044977
0.045181
0.045385
0.045589
0.045793
0.045997
0.046200
0.046404
0.046608
0.046812
0.047016
0.047219
0.047423
0.047627
0.047830
0.048034
0.048238
0.048441
0.048645
0.048848
0.049052
0.049255
0.049458
0.049662
0.049865
0.050068
0.050272
0.050475
0.050678
0.050881
0.051084
0.051288
0.051491
0.051694
0.051897
0.052100
0.052303
0.052506
0.052708
0.052911
0.053114
0.053317
0.053520
0.053722
0.053925
0.054128
0.054331
0.054533
0.054736
0.054938
0.055141
0.055343
0.055546
0.055748
0.055951
0.056153
0.056355
0.056558
0.056760
0.056962
0.057165
0.057367
0.057569
0.057771
0.057973
0.058175
0.058377
0.058580
0.058782
0.058984
0.059185
0.059387
0.059589
0.059791
0.059993
0.060195
0.060397
0.060598
0.060800
0.061002
0.061204
0.061405
0.061607
0.061808
0.062010
0.062212
0.062413
0.062615
0.062816
0.063017
0.063219
0.063420
0.063622
0.063823
0.064024
0.064226
0.064427
0.064628
0.064829
0.065030
0.065232
0.065433
0.065634
0.065835
0.066036
0.066237
0.066438
0.066639
0.066840
0.067041
0.067242
0.067443
0.067644
0.067845
0.068045
0.068246
0.068447
0.068648
0.068849
0.069049
0.069250
0.069451
0.069651
0.069852
0.070052
0.070253
0.070654
0.070854
0.071055
0.071255
0.071455
0.071655
0.071856
0.072056
0.072256
0.072456
0.072656
0.072856
0.073056
0.073256
0.073457
0.073657
0.073857
0.074057
0.074256
0.074456
0.074656
0.074856
0.075056
0.075256
0.075456
0.075656
0.075855
0.076055
0.076255
0.076455
0.076655
0.076854
0.077054
0.077254
0.077453
0.077653
0.077853
0.078052
0.078252
0.078451
0.078651
0.078850
0.079050
0.079250
0.079449
0.079648
0.079848
0.080047
0.080247
0.080446
0.080646
0.080845
0.081044
0.081244
0.081443
0.081642
0.081842
0.082041
0.082240
0.082439
0.082639
0.082838
0.083037
0.083236
0.083435
0.083635
0.083834
0.084033
0.084232
0.084431
0.084630
0.084829
0.085028
0.085227
0.085427
0.085626
0.085825
0.086024
0.086223
0.086422
0.086620
0.086819
0.087018
0.087217
0.087416
0.087615
0.087814
0.088013
0.088212
0.088411
0.088610
0.088808
0.089007
0.089206
0.089405
0.089604
0.089802
0.090001
0.090200
0.090399
0.090597
0.090796
0.090995
0.091194
0.091392
0.091591
0.091790
0.091988
0.092187
0.092386
0.092584
0.092783
0.092982
0.093180
0.093379
0.093578
0.093776
0.093975
0.094173
0.094372
0.094571
0.094769
0.094968
0.095166
0.095365
0.095563
0.095762
0.095961
0.096159
0.096358
0.096556
0.096755
0.096953
0.097152
0.097350
0.097549
0.097747
0.097946
0.098144
0.098342
0.098541
0.098739
0.098938
0.099136
0.099335
0.099533
0.099732
0.099930
0.100128
0.100327
0.100525
0.100724
0.100922
0.101121
0.101319
0.101517
0.101716
0.101914
0.102113
0.102311
0.102509
0.102708
0.102906
0.103104
0.103303
0.103501
0.103700
0.103898
0.104096
0.104295
0.104493
0.104691
0.104890
0.105088
0.105286
0.105485
0.105683
0.105881
0.106080
0.106278
0.106477
0.106675
0.106873
0.107072
0.107270
0.107468
0.107667
0.107865
0.108063
0.108262
0.108460
0.108659
0.108857
0.109055
0.109254
0.109452
0.109650
0.109849
0.110047
0.110245
0.110444
0.110642
0.110841
0.111039
0.111237
0.111436
0.111634
0.111832
0.112031
0.112229
0.112428
0.112626
0.112824
0.113023
0.113221
0.113420
0.113618
0.113816
0.114015
0.114213
0.114412
0.114610
0.114809
0.115007
0.115205
0.115404
0.115602
0.115801
0.115999
0.116198
0.116396
0.116595
0.116793
0.116992
0.117190
0.117389
0.117587
0.117785
0.117984
0.118182
0.118381
0.118580
0.118778
0.118977
0.119175
0.119374
0.119572
0.119771
0.119969
0.120168
0.120366
0.120565
0.120763
0.120962
0.121161
0.121359
0.121558
0.121756
0.121955
0.122154
0.122352
0.122551
0.122749
0.122948
0.123147
0.123345
0.123544
0.123743
0.123941
0.124140
0.124339
0.124537
0.124736
0.124935
0.125134
0.125332
0.125531
0.125730
0.125928
0.126127
0.126326
0.126525
0.126723
0.126922
0.127121
0.127320
0.127519
0.127717
0.127916
0.128115
0.128314
0.128513
0.128712
0.128911
0.129109
0.129308
0.129507
0.129706
0.129905
0.130104
0.130303
0.130502
0.130701
0.130900
0.131099
0.131297
0.131496
0.131695
0.131894
0.132093
0.132292
0.132491
0.132690
0.132889
0.133088
0.133288
0.133487
0.133686
0.133885
0.134084
0.134283
0.134482
0.134681
0.134880
0.135079
0.135278
0.135478
0.135677
0.135876
0.136075
0.136274
0.136473
0.136673
0.136872
0.137071
0.137270
0.137470
0.137669
0.137868
0.138067
0.138267
0.138466
0.138665
0.138865
0.139064
0.139263
0.139463
0.139662
0.139861
0.140061
0.140260
0.140459
0.140659
0.100238
0.100335
0.100028
0.089632
0.089780
0.089921
-0.072451
-0.072346
-0.072653
-0.072781
-0.038145
0.113888
0.114247
0.114323
0.114540
0.096204
0.095884
0.095985
-0.038901
-0.038692
-0.038944
-0.038578
-0.105223
-0.105372
-0.105004
-0.105051
-0.040205
-0.040051
-0.039902
0.039313
0.038996
0.039175
0.039280
-0.065866
-0.067590
-0.079620
-0.082031
0.027783
0.027469
0.027592
0.027564
-0.030657
-0.031314
-0.030752
-0.030781
0.072992
0.072391
0.071777
0.073768
-0.105699
-0.105576
-0.105212
0.034170
0.034132
0.034501
0.034669
0.001709
-0.006486
-0.004525
-0.011318
0.016830
0.017278
0.017454
-0.056215
-0.053570
-0.056329
-0.009280
-0.009077
-0.009576
-0.009354
0.088656
0.089717
0.089610
0.090704
-0.002317
-0.001597
-0.001895
-0.000866
0.029806
0.030123
0.029558
0.030272
0.027774
0.028000
0.027603
0.028185
-0.015111
-0.015162
-0.015437
-0.015599
0.099487
0.099351
0.098979
-0.041806
-0.042390
-0.041986
0.016857
0.098843
0.098477
0.098465
0.099017
0.045542
0.045901
0.045736
-0.000695
-0.000618
-0.000919
0.045875
0.027473
0.026464
0.026103
-0.000376
0.052606
0.052382
0.051905
0.082677
0.083032
0.082620
0.083190
0.050973
0.051173
0.050816
0.051300
0.051780
-0.090843
-0.091254
-0.091042
0.117171
0.116835
0.117392
-0.091436
-0.063473
-0.063741
-0.063999
-0.063226
-0.051142
-0.050905
-0.051744
-0.051163
-0.028614
-0.029227
-0.028785
0.015003
0.015350
0.014911
0.015222
-0.029324
0.045758
0.046019
0.045546
-0.048557
-0.049038
-0.048586
-0.053086
-0.053733
-0.054236
0.046011
0.091111
0.091202
0.090765
-0.081068
-0.080935
-0.080765
0.097598
0.097976
0.098001
0.097665
0.057445
0.056910
0.057126
0.056344
0.001785
-0.001003
0.001859
0.001151
0.043173
0.044322
0.041288
0.046066
-0.076607
-0.076382
-0.077052
-0.075937
0.132594
0.132332
-0.110432
-0.109501
-0.108969
-0.107941
-0.071590
-0.069720
-0.065433
-0.077040
0.136997
0.137099
0.137575
-0.082583
-0.076012
-0.083014
-0.083481
-0.081744
0.094564
0.094495
0.094013
0.037043
0.036851
0.037300
0.037155
0.002696
0.001864
0.002461
-0.106886
-0.106842
-0.107438
-0.106945
0.137183
0.136396
0.137421
0.136148
0.117395
0.117746
0.118119
0.093881
0.056543
0.056148
0.055741
0.055429
-0.012584
-0.012354
-0.012085
-0.012762
-0.022669
-0.023980
-0.027600
0.119848
0.119743
0.118717
0.119135
-0.030355
-0.029591
-0.033269
-0.031702
0.055542
0.055584
0.055221
0.032253
0.033359
0.042649
0.023459
-0.094569
-0.095060
-0.093522
-0.096770
0.126515
0.126811
0.028777
0.028737
0.028944
0.055896
0.003591
0.005055
0.006052
0.006854
-0.051559
-0.052072
-0.051849
-0.051808
-0.049992
-0.057668
-0.055214
-0.050250
-0.011571
-0.010977
-0.012002
-0.011868
-0.062061
-0.060120
-0.058676
-0.057146
0.124680
0.125372
0.125817
0.124647
-0.057043
-0.056955
-0.056776
-0.118174
-0.123199
-0.118353
-0.118851
-0.100416
-0.100699
-0.100749
-0.018520
-0.018592
-0.038835
-0.038890
-0.041338
-0.036617
0.052033
0.048920
0.049347
0.045896
0.007283
0.019995
0.018322
0.016283
0.068150
0.068409
0.066473
0.066475
0.111150
0.108568
0.109431
0.110961
-0.047693
-0.047508
-0.049059
-0.049349
-0.040433
-0.040263
-0.040023
-0.040800
0.076059
0.077254
0.076349
0.077096
0.074954
0.074826
0.076276
-0.009429
-0.009066
-0.008983
-0.009409
0.131404
0.129939
0.131286
0.098920
-0.024999
-0.027762
-0.026365
-0.026194
0.109495
0.109598
0.108951
0.109195
0.021142
0.021531
0.021241
0.021697
0.052050
0.052656
-0.014235
-0.013191
-0.012299
-0.011546
-0.003747
-0.003708
-0.000265
-0.007284
-0.001441
-0.001226
-0.001067
0.122147
0.121729
0.121686
-0.073204
-0.073425
-0.072356
-0.072274
-0.000973
-0.062330
-0.058310
-0.061329
0.111421
0.111939
0.112788
0.113291
0.104192
0.103973
0.103933
0.103583
0.049401
0.048311
0.048030
0.050442
0.042623
0.042257
0.042089
0.042675
0.042403
0.042860
0.054529
0.052916
0.053967
-0.007505
-0.007822
-0.007444
0.030990
0.026834
0.036684
-0.007594
0.070917
0.071736
0.069218
0.060264
0.060725
0.060701
0.060401
0.090197
0.090274
0.089730
-0.062726
-0.055723
0.090661
0.085612
0.085474
0.085245
0.085136
-0.049370
-0.049174
-0.049456
0.109982
0.029619
0.029771
0.028849
0.028701
-0.089800
-0.086935
-0.087984
-0.085609
0.036065
0.036015
0.035697
0.036379
-0.059470
-0.058393
-0.061105
-0.057947
-0.072173
-0.073685
-0.067837
-0.077590
0.076918
0.076745
0.077268
-0.062334
-0.061799
-0.063181
0.039646
0.039552
0.038135
0.037200
0.096171
0.079701
0.079309
0.079691
0.059780
0.061770
0.060098
0.061473
-0.015034
-0.016665
-0.017024
0.079299
0.084133
0.084782
0.084144
0.042341
0.043292
0.043756
0.044712
0.052413
0.048983
-0.029804
-0.030887
-0.029399
-0.031856
-0.082687
-0.086622
-0.086627
-0.080482
-0.062566
-0.063513
0.025910
0.025715
0.027218
0.084491
-0.018282
-0.014954
-0.013656
-0.019150
0.041686
0.045790
0.062542
0.062772
0.062611
-0.062011
-0.061121
-0.060838
0.062991
-0.049910
-0.049823
-0.049589
0.088388
0.087978
0.088218
0.087808
-0.033011
-0.032862
-0.032721
-0.058358
-0.067506
0.015780
0.015691
0.015491
0.093963
0.093886
0.093655
0.093533
0.062825
0.063067
0.063234
0.022826
0.021564
0.021226
0.019404
0.060818
0.060503
0.060637
0.060306
0.053060
0.053215
0.052913
0.083899
0.084178
0.084337
0.060780
0.060381
0.062683
0.084466
-0.075742
-0.075749
-0.075425
0.058796
0.045194
0.044257
0.045633
0.062748
-0.080588
-0.080458
-0.080666
0.031641
0.024798
0.027578
-0.076067
0.078893
0.078908
0.079350
0.113089
0.113248
0.112885
0.113091