# vtk DataFile Version 2.0
Test
ASCII
DATASET POLYDATA
POINTS 20431 float
0.000000 0.000000 0.000000
2.000000 0.000000 0.000000
2.000000 4.000000 0.000000
0.000000 4.000000 0.000000
0.000000 0.500000 0.000000
1.500000 2.000000 0.000000
2.000000 2.500000 0.000000
0.400000 0.000000 0.000000
0.800000 0.000000 0.000000
1.200000 0.000000 0.000000
1.600000 0.000000 0.000000
2.000000 0.362557 0.000000
2.000000 0.672798 0.000000
2.000000 0.938272 0.000000
2.000000 1.165439 0.000000
2.000000 1.359826 0.000000
2.000000 1.526163 0.000000
2.000000 1.668499 0.000000
2.000000 1.790295 0.000000
2.000000 1.894517 0.000000
2.000000 1.983700 0.000000
2.000000 2.060013 0.000000
2.000000 2.125315 0.000000
2.000000 2.181194 0.000000
2.000000 2.229010 0.000000
2.000000 2.269926 0.000000
2.000000 2.304938 0.000000
2.000000 2.334898 0.000000
2.000000 2.360534 0.000000
2.000000 2.382472 0.000000
2.000000 2.401244 0.000000
2.000000 2.417307 0.000000
2.000000 2.431052 0.000000
2.000000 2.442814 0.000000
2.000000 2.452878 0.000000
2.000000 2.461491 0.000000
2.000000 2.468860 0.000000
2.000000 2.475167 0.000000
2.000000 2.480563 0.000000
2.000000 2.485180 0.000000
2.000000 2.489132 0.000000
2.000000 2.492513 0.000000
2.000000 2.495406 0.000000
2.000000 2.497882 0.000000
2.000000 2.502286 0.000000
2.000000 2.505266 0.000000
2.000000 2.509150 0.000000
2.000000 2.514212 0.000000
2.000000 2.520809 0.000000
2.000000 2.529407 0.000000
2.000000 2.540613 0.000000
2.000000 2.555218 0.000000
2.000000 2.574253 0.000000
2.000000 2.599061 0.000000
2.000000 2.631395 0.000000
2.000000 2.673536 0.000000
2.000000 2.728460 0.000000
2.000000 2.800043 0.000000
2.000000 2.893339 0.000000
2.000000 3.014933 0.000000
2.000000 3.173410 0.000000
2.000000 3.379956 0.000000
2.000000 3.649152 0.000000
1.600000 4.000000 0.000000
1.200000 4.000000 0.000000
0.800000 4.000000 0.000000
0.400000 4.000000 0.000000
0.000000 3.624996 0.000000
0.000000 3.289970 0.000000
0.000000 2.990661 0.000000
0.000000 2.723261 0.000000
0.000000 2.484368 0.000000
0.000000 2.270943 0.000000
0.000000 2.080271 0.000000
0.000000 1.909926 0.000000
0.000000 1.757741 0.000000
0.000000 1.621780 0.000000
0.000000 1.500314 0.000000
0.000000 1.391797 0.000000
0.000000 1.294849 0.000000
0.000000 1.208237 0.000000
0.000000 1.130858 0.000000
0.000000 1.061728 0.000000
0.000000 0.999968 0.000000
0.000000 0.944792 0.000000
0.000000 0.895499 0.000000
0.000000 0.851460 0.000000
0.000000 0.812117 0.000000
0.000000 0.776968 0.000000
0.000000 0.745565 0.000000
0.000000 0.717511 0.000000
0.000000 0.692448 0.000000
0.000000 0.670056 0.000000
0.000000 0.650052 0.000000
0.000000 0.632180 0.000000
0.000000 0.616213 0.000000
0.000000 0.601949 0.000000
0.000000 0.589205 0.000000
0.000000 0.577820 0.000000
0.000000 0.567649 0.000000
0.000000 0.558562 0.000000
0.000000 0.550444 0.000000
0.000000 0.543191 0.000000
0.000000 0.536712 0.000000
0.000000 0.530923 0.000000
0.000000 0.525751 0.000000
0.000000 0.521131 0.000000
0.000000 0.517003 0.000000
0.000000 0.513315 0.000000
0.000000 0.510021 0.000000
0.000000 0.507078 0.000000
0.000000 0.504448 0.000000
0.000000 0.502099 0.000000
0.000000 0.497804 0.000000
0.000000 0.494785 0.000000
0.000000 0.490633 0.000000
0.000000 0.484924 0.000000
0.000000 0.477074 0.000000
0.000000 0.466279 0.000000
0.000000 0.451436 0.000000
0.000000 0.431025 0.000000
0.000000 0.402959 0.000000
0.000000 0.364366 0.000000
0.000000 0.311297 0.000000
0.000000 0.238324 0.000000
0.000000 0.137980 0.000000
0.001414 0.501414 0.000000
0.002828 0.502828 0.000000
0.004241 0.504241 0.000000
0.005655 0.505655 0.000000
0.007069 0.507069 0.000000
0.008483 0.508483 0.000000
0.009896 0.509896 0.000000
0.011310 0.511310 0.000000
0.012724 0.512724 0.000000
0.014138 0.514138 0.000000
0.015551 0.515551 0.000000
0.016965 0.516965 0.000000
0.018379 0.518379 0.000000
0.019793 0.519793 0.000000
0.021206 0.521206 0.000000
0.022620 0.522620 0.000000
0.024034 0.524034 0.000000
0.025448 0.525448 0.000000
0.026861 0.526861 0.000000
0.028275 0.528275 0.000000
0.029689 0.529689 0.000000
0.031103 0.531103 0.000000
0.032516 0.532516 0.000000
0.033930 0.533930 0.000000
0.035344 0.535344 0.000000
0.036758 0.536758 0.000000
0.038172 0.538172 0.000000
0.039585 0.539585 0.000000
0.040999 0.540999 0.000000
0.042413 0.542413 0.000000
0.043827 0.543827 0.000000
0.045240 0.545240 0.000000
0.046654 0.546654 0.000000
0.048068 0.548068 0.000000
0.049482 0.549482 0.000000
0.050895 0.550895 0.000000
0.052309 0.552309 0.000000
0.053723 0.553723 0.000000
0.055137 0.555137 0.000000
0.056550 0.556550 0.000000
0.057964 0.557964 0.000000
0.059378 0.559378 0.000000
0.060792 0.560792 0.000000
0.062205 0.562205 0.000000
0.063619 0.563619 0.000000
0.065033 0.565033 0.000000
0.066447 0.566447 0.000000
0.067861 0.567861 0.000000
0.069274 0.569274 0.000000
0.070688 0.570688 0.000000
0.072102 0.572102 0.000000
0.073516 0.573516 0.000000
0.074929 0.574929 0.000000
0.076343 0.576343 0.000000
0.077757 0.577757 0.000000
0.079171 0.579171 0.000000
0.080584 0.580584 0.000000
0.081998 0.581998 0.000000
0.083412 0.583412 0.000000
0.084826 0.584826 0.000000
0.086239 0.586239 0.000000
0.087653 0.587653 0.000000
0.089067 0.589067 0.000000
0.090481 0.590481 0.000000
0.091894 0.591894 0.000000
0.093308 0.593308 0.000000
0.094722 0.594722 0.000000
0.096136 0.596136 0.000000
0.097549 0.597549 0.000000
0.098963 0.598963 0.000000
0.100377 0.600377 0.000000
0.101791 0.601791 0.000000
0.103205 0.603205 0.000000
0.104618 0.604618 0.000000
0.106032 0.606032 0.000000
0.107446 0.607446 0.000000
0.108860 0.608860 0.000000
0.110273 0.610273 0.000000
0.111687 0.611687 0.000000
0.113101 0.613101 0.000000
0.114515 0.614515 0.000000
0.115928 0.615928 0.000000
0.117342 0.617342 0.000000
0.118756 0.618756 0.000000
0.120170 0.620170 0.000000
0.121583 0.621583 0.000000
0.122997 0.622997 0.000000
0.124411 0.624411 0.000000
0.125825 0.625825 0.000000
0.127238 0.627238 0.000000
0.128652 0.628652 0.000000
0.130066 0.630066 0.000000
0.131480 0.631480 0.000000
0.132893 0.632893 0.000000
0.134307 0.634307 0.000000
0.135721 0.635721 0.000000
0.137135 0.637135 0.000000
0.138549 0.638549 0.000000
0.139962 0.639962 0.000000
0.141376 0.641376 0.000000
0.142790 0.642790 0.000000
0.144204 0.644204 0.000000
0.145617 0.645617 0.000000
0.147031 0.647031 0.000000
0.148445 0.648445 0.000000
0.149859 0.649859 0.000000
0.151272 0.651272 0.000000
0.152686 0.652686 0.000000
0.154100 0.654100 0.000000
0.155514 0.655514 0.000000
0.156927 0.656927 0.000000
0.158341 0.658341 0.000000
0.159755 0.659755 0.000000
0.161169 0.661169 0.000000
0.162582 0.662582 0.000000
0.163996 0.663996 0.000000
0.165410 0.665410 0.000000
0.166824 0.666824 0.000000
0.168238 0.668238 0.000000
0.169651 0.669651 0.000000
0.171065 0.671065 0.000000
0.172479 0.672479 0.000000
0.173893 0.673893 0.000000
0.175306 0.675306 0.000000
0.176720 0.676720 0.000000
0.178134 0.678134 0.000000
0.179548 0.679548 0.000000
0.180961 0.680961 0.000000
0.182375 0.682375 0.000000
0.183789 0.683789 0.000000
0.185203 0.685203 0.000000
0.186616 0.686616 0.000000
0.188030 0.688030 0.000000
0.189444 0.689444 0.000000
0.190858 0.690858 0.000000
0.192271 0.692271 0.000000
0.193685 0.693685 0.000000
0.195099 0.695099 0.000000
0.196513 0.696513 0.000000
0.197926 0.697926 0.000000
0.199340 0.699340 0.000000
0.200754 0.700754 0.000000
0.202168 0.702168 0.000000
0.203582 0.703582 0.000000
0.204995 0.704995 0.000000
0.206409 0.706409 0.000000
0.207823 0.707823 0.000000
0.209237 0.709237 0.000000
0.210650 0.710650 0.000000
0.212064 0.712064 0.000000
0.213478 0.713478 0.000000
0.214892 0.714892 0.000000
0.216305 0.716305 0.000000
0.217719 0.717719 0.000000
0.219133 0.719133 0.000000
0.220547 0.720547 0.000000
0.221960 0.721960 0.000000
0.223374 0.723374 0.000000
0.224788 0.724788 0.000000
0.226202 0.726202 0.000000
0.227615 0.727615 0.000000
0.229029 0.729029 0.000000
0.230443 0.730443 0.000000
0.231857 0.731857 0.000000
0.233270 0.733270 0.000000
0.234684 0.734684 0.000000
0.236098 0.736098 0.000000
0.237512 0.737512 0.000000
0.238926 0.738926 0.000000
0.240339 0.740339 0.000000
0.241753 0.741753 0.000000
0.243167 0.743167 0.000000
0.244581 0.744581 0.000000
0.245994 0.745994 0.000000
0.247408 0.747408 0.000000
0.248822 0.748822 0.000000
0.250236 0.750236 0.000000
0.251649 0.751649 0.000000
0.253063 0.753063 0.000000
0.254477 0.754477 0.000000
0.255891 0.755891 0.000000
0.257304 0.757304 0.000000
0.258718 0.758718 0.000000
0.260132 0.760132 0.000000
0.261546 0.761546 0.000000
0.262959 0.762959 0.000000
0.264373 0.764373 0.000000
0.265787 0.765787 0.000000
0.267201 0.767201 0.000000
0.268615 0.768615 0.000000
0.270028 0.770028 0.000000
0.271442 0.771442 0.000000
0.272856 0.772856 0.000000
0.274270 0.774270 0.000000
0.275683 0.775683 0.000000
0.277097 0.777097 0.000000
0.278511 0.778511 0.000000
0.279925 0.779925 0.000000
0.281338 0.781338 0.000000
0.282752 0.782752 0.000000
0.284166 0.784166 0.000000
0.285580 0.785580 0.000000
0.286993 0.786993 0.000000
0.288407 0.788407 0.000000
0.289821 0.789821 0.000000
0.291235 0.791235 0.000000
0.292648 0.792648 0.000000
0.294062 0.794062 0.000000
0.295476 0.795476 0.000000
0.296890 0.796890 0.000000
0.298303 0.798303 0.000000
0.299717 0.799717 0.000000
0.301131 0.801131 0.000000
0.302545 0.802545 0.000000
0.303959 0.803959 0.000000
0.305372 0.805372 0.000000
0.306786 0.806786 0.000000
0.308200 0.808200 0.000000
0.309614 0.809614 0.000000
0.311027 0.811027 0.000000
0.312441 0.812441 0.000000
0.313855 0.813855 0.000000
0.315269 0.815269 0.000000
0.316682 0.816682 0.000000
0.318096 0.818096 0.000000
0.319510 0.819510 0.000000
0.320924 0.820924 0.000000
0.322337 0.822337 0.000000
0.323751 0.823751 0.000000
0.325165 0.825165 0.000000
0.326579 0.826579 0.000000
0.327992 0.827992 0.000000
0.329406 0.829406 0.000000
0.330820 0.830820 0.000000
0.332234 0.832234 0.000000
0.333648 0.833648 0.000000
0.335061 0.835061 0.000000
0.336475 0.836475 0.000000
0.337889 0.837889 0.000000
0.339303 0.839303 0.000000
0.340716 0.840716 0.000000
[...]
POINT_DATA 20431
SCALARS UX float 1
LOOKUP_TABLE default
-0.000000
0.000000
0.140967
-0.147037
-0.114988
0.070989
0.141929
-0.000000
-0.000000
0.000000
-0.000000
0.096138
0.125877
0.137451
0.141673
0.143192
0.143623
0.143574
0.143401
0.143198
0.142997
0.142825
0.142676
0.142552
0.142448
0.142361
0.142289
0.142229
0.142180
0.142138
0.142103
0.142073
0.142048
0.142028
0.142010
0.141995
0.141982
0.141971
0.141962
0.141954
0.141947
0.141942
0.141937
0.141933
0.141925
0.141921
0.141914
0.141906
0.141895
0.141881
0.141863
0.141840
0.141811
0.141774
0.141726
0.141668
0.141597
0.141514
0.141413
0.141307
0.141197
0.141084
0.141003
0.083317
0.025691
-0.031903
-0.089474
-0.147033
-0.147034
-0.147060
-0.147133
-0.147262
-0.147422
-0.147596
-0.147734
-0.147765
-0.147655
-0.147398
-0.146955
-0.146291
-0.145432
-0.144392
-0.143198
-0.141870
-0.140436
-0.138936
-0.137391
-0.135833
-0.134277
-0.132763
-0.131270
-0.129846
-0.128491
-0.127199
-0.125991
-0.124860
-0.123808
-0.122835
-0.121934
-0.121108
-0.120351
-0.119658
-0.119027
-0.118452
-0.117930
-0.117456
-0.117027
-0.116639
-0.116288
-0.115971
-0.115685
-0.115428
-0.115196
-0.114769
-0.114464
-0.114042
-0.113454
-0.112627
-0.111470
-0.109783
-0.107367
-0.103797
-0.098231
-0.089627
-0.076024
-0.051970
-0.114947
-0.114906
-0.114863
-0.114820
-0.114775
-0.114730
-0.114684
-0.114638
-0.114590
-0.114542
-0.114493
-0.114443
-0.114392
-0.114341
-0.114289
-0.114236
-0.114182
-0.114128
-0.114073
-0.114017
-0.113960
-0.113903
-0.113845
-0.113787
-0.113728
-0.113668
-0.113607
-0.113546
-0.113484
-0.113421
-0.113358
-0.113295
-0.113230
-0.113166
-0.113100
-0.113034
-0.112967
-0.112900
-0.112832
-0.112764
-0.112695
-0.112625
-0.112555
-0.112485
-0.112414
-0.112342
-0.112270
-0.112197
-0.112124
-0.112050
-0.111976
-0.111901
-0.111826
-0.111750
-0.111673
-0.111596
-0.111519
-0.111442
-0.111363
-0.111285
-0.111206
-0.111126
-0.111046
-0.110966
-0.110885
-0.110804
-0.110722
-0.110640
-0.110558
-0.110475
-0.110391
-0.110307
-0.110223
-0.110138
-0.110053
-0.109967
-0.109881
-0.109794
-0.109707
-0.109620
-0.109531
-0.109443
-0.109354
-0.109265
-0.109175
-0.109085
-0.108994
-0.108903
-0.108812
-0.108720
-0.108628
-0.108535
-0.108442
-0.108349
-0.108255
-0.108161
-0.108066
-0.107971
-0.107875
-0.107779
-0.107683
-0.107586
-0.107489
-0.107391
-0.107293
-0.107194
-0.107096
-0.106996
-0.106896
-0.106796
-0.106696
-0.106595
-0.106493
-0.106391
-0.106289
-0.106186
-0.106083
-0.105980
-0.105876
-0.105771
-0.105666
-0.105561
-0.105455
-0.105349
-0.105243
-0.105136
-0.105029
-0.104921
-0.104813
-0.104704
-0.104596
-0.104486
-0.104377
-0.104267
-0.104156
-0.104046
-0.103934
-0.103823
-0.103710
-0.103598
-0.103485
-0.103372
-0.103259
-0.103145
-0.103030
-0.102915
-0.102800
-0.102685
-0.102569
-0.102452
-0.102336
-0.102218
-0.102101
-0.101983
-0.101865
-0.101746
-0.101627
-0.101507
-0.101387
-0.101267
-0.101147
-0.101026
-0.100904
-0.100783
-0.100661
-0.100538
-0.100415
-0.100292
-0.100169
-0.100045
-0.099921
-0.099796
-0.099671
-0.099546
-0.099420
-0.099294
-0.099168
-0.099041
-0.098914
-0.098786
-0.098659
-0.098531
-0.098402
-0.098274
-0.098144
-0.098015
-0.097885
-0.097755
-0.097625
-0.097494
-0.097363
-0.097232
-0.097100
-0.096968
-0.096836
-0.096703
-0.096570
-0.096437
-0.096303
-0.096169
-0.096035
-0.095900
-0.095765
-0.095630
-0.095494
-0.095358
-0.095222
-0.095086
-0.094949
-0.094812
-0.094674
-0.094536
-0.094398
-0.094260
-0.094121
-0.093982
-0.093843
-0.093703
-0.093563
-0.093423
-0.093282
-0.093141
-0.093000
-0.092859
-0.092717
-0.092575
-0.092433
-0.092290
-0.092147
-0.092004
-0.091860
-0.091717
-0.091572
-0.091428
-0.091283
-0.091138
-0.090993
-0.090848
-0.090702
-0.090556
-0.090409
-0.090262
-0.090116
-0.089968
-0.089821
-0.089673
-0.089525
-0.089377
-0.089228
-0.089079
-0.088930
-0.088780
-0.088631
-0.088481
-0.088330
-0.088180
-0.088029
-0.087878
-0.087726
-0.087575
-0.087423
-0.087270
-0.087118
-0.086965
-0.086812
-0.086659
-0.086505
-0.086352
-0.086198
-0.086043
-0.085889
-0.085734
-0.085579
-0.085423
-0.085268
-0.085112
-0.084956
-0.084799
-0.084643
-0.084486
-0.084328
-0.084171
-0.084013
-0.083855
-0.083697
-0.083539
-0.083380
-0.083221
-0.083062
-0.082902
-0.082742
-0.082582
-0.082422
-0.082262
-0.082101
-0.081940
-0.081779
-0.081617
-0.081456
-0.081294
-0.081132
-0.080969
-0.080807
-0.080644
-0.080480
-0.080317
-0.080154
-0.079990
-0.079826
-0.079661
-0.079497
-0.079332
-0.079167
-0.079002
-0.078836
-0.078671
-0.078505
-0.078339
-0.078172
-0.078006
-0.077839
-0.077672
-0.077505
-0.077337
-0.077170
-0.077002
-0.076834
-0.076665
-0.076497
-0.076328
-0.076159
-0.075990
-0.075821
-0.075651
-0.075481
-0.075311
-0.075141
-0.074970
-0.074799
-0.074629
-0.074457
-0.074286
-0.074114
-0.073943
-0.073771
-0.073598
-0.073426
-0.073253
-0.073081
-0.072908
-0.072734
-0.072561
-0.072387
-0.072213
-0.072039
-0.071865
-0.071691
-0.071516
-0.071341
-0.071166
-0.070991
-0.070815
-0.070640
-0.070464
-0.070288
-0.070111
-0.069935
-0.069758
-0.069581
-0.069404
-0.069227
-0.069049
-0.068872
-0.068694
-0.068516
-0.068338
-0.068159
-0.067980
-0.067802
-0.067623
-0.067443
-0.067264
-0.067084
-0.066905
-0.066725
-0.066544
-0.066364
-0.066184
-0.066003
-0.065822
-0.065641
-0.065460
-0.065278
-0.065097
-0.064915
-0.064733
-0.064550
-0.064368
-0.064186
-0.064003
-0.063820
-0.063637
-0.063453
-0.063270
-0.063086
-0.062903
-0.062719
-0.062534
-0.062350
-0.062165
-0.061981
-0.061796
-0.061611
-0.061426
-0.061240
-0.061055
-0.060869
-0.060683
-0.060497
-0.060311
-0.060124
-0.059937
-0.059751
-0.059564
-0.059377
-0.059189
-0.059002
-0.058814
-0.058627
-0.058439
-0.058251
-0.058062
-0.057874
-0.057685
-0.057496
-0.057308
-0.057118
-0.056929
-0.056740
-0.056550
-0.056361
-0.056171
-0.055981
-0.055791
-0.055600
-0.055410
-0.055219
-0.055028
-0.054837
-0.054646
-0.054455
-0.054264
-0.054072
-0.053880
-0.053689
-0.053497
-0.053304
-0.053112
-0.052920
-0.052727
-0.052534
-0.052342
-0.052149
-0.051955
-0.051762
-0.051569
-0.051375
-0.051182
-0.050988
-0.050794
-0.050600
-0.050405
-0.050211
-0.050016
-0.049822
-0.049627
-0.049432
-0.049237
-0.049042
-0.048846
-0.048651
-0.048455
-0.048260
-0.048064
-0.047868
-0.047672
-0.047475
-0.047279
-0.047082
-0.046886
-0.046689
-0.046492
-0.046295
-0.046098
-0.045901
-0.045703
-0.045506
-0.045308
-0.045111
-0.044913
-0.044715
-0.044517
-0.044318
-0.044120
-0.043921
-0.043723
-0.043524
-0.043325
-0.043126
-0.042927
-0.042728
-0.042529
-0.042329
-0.042130
-0.041930
-0.041731
-0.041531
-0.041331
-0.041131
-0.040930
-0.040730
-0.040530
-0.040329
-0.040129
-0.039928
-0.039727
-0.039526
-0.039325
-0.039124
-0.038923
-0.038722
-0.038520
-0.038319
-0.038117
-0.037915
-0.037713
-0.037511
-0.037309
-0.037107
-0.036905
-0.036703
-0.036500
-0.036298
-0.036095
-0.035893
-0.035690
-0.035487
-0.035284
-0.035081
-0.034878
-0.034674
-0.034471
-0.034268
-0.034064
-0.033861
-0.033657
-0.033453
-0.033249
-0.033045
-0.032841
-0.032637
-0.032433
-0.032229
-0.032024
-0.031820
-0.031616
-0.031411
-0.031206
-0.031002
-0.030797
-0.030592
-0.030387
-0.030182
-0.029977
-0.029772
-0.029566
-0.029361
-0.029156
-0.028950
-0.028744
-0.028539
-0.028333
-0.028127
-0.027922
-0.027716
-0.027510
-0.027304
-0.027098
-0.026891
-0.026685
-0.026479
-0.026272
-0.026066
-0.025860
-0.025653
-0.025446
-0.025240
-0.025033
-0.024826
-0.024619
-0.024412
-0.024205
-0.023998
-0.023791
-0.023584
-0.023377
-0.023170
-0.022962
-0.022755
-0.022548
-0.022340
-0.022133
-0.021925
-0.021717
-0.021510
-0.021302
-0.021094
-0.020886
-0.020678
-0.020471
-0.020263
-0.020055
-0.019846
-0.019638
-0.019430
-0.019222
-0.019014
-0.018805
-0.018597
-0.018389
-0.018180
-0.017972
-0.017763
-0.017555
-0.017346
-0.017138
-0.016929
-0.016720
-0.016511
-0.016303
-0.016094
-0.015885
-0.015676
-0.015467
-0.015258
-0.015049
-0.014840
-0.014631
-0.014422
-0.014213
-0.014004
-0.013795
-0.013585
-0.013376
-0.013167
-0.012957
-0.012748
-0.012539
-0.012329
-0.012120
-0.011910
-0.011701
-0.011491
-0.011282
-0.011072
-0.010863
-0.010653
-0.010443
-0.010234
-0.010024
-0.009814
-0.009605
-0.009395
-0.009185
-0.008975
-0.008766
-0.008556
-0.008346
-0.008136
-0.007926
-0.007716
-0.007506
-0.007296
-0.007086
-0.006876
-0.006666
-0.006456
-0.006246
-0.006036
-0.005826
-0.005616
-0.005406
-0.005196
-0.004986
-0.004776
-0.004566
-0.004356
-0.004145
-0.003935
-0.003725
-0.003515
-0.003305
-0.003094
-0.002884
-0.002674
-0.002464
-0.002254
-0.002043
-0.001833
-0.001623
-0.001413
-0.001202
-0.000992
-0.000782
-0.000571
-0.000361
-0.000151
0.000059
0.000270
0.000480
0.000690
0.000901
0.001111
0.001321
0.001532
0.001742
0.001952
0.002162
0.002373
0.002583
0.002793
0.003004
0.003214
0.003424
0.003635
0.003845
0.004055
0.004265
0.004476
0.004686
0.004896
0.005106
0.005317
0.005527
0.005737
0.005947
0.006158
0.006368
0.006578
0.006788
0.006999
0.007209
0.007419
0.007629
0.007839
0.008049
0.008260
0.008470
0.008680
0.008890
0.009100
0.009310
0.009520
0.009730
0.009940
0.010150
0.010361
0.010571
0.010781
0.010991
0.011201
0.011410
0.011620
0.011830
0.012040
0.012250
0.012460
0.012670
0.012880
0.013090
0.013299
0.013509
0.013719
0.013929
0.014139
0.014348
0.014558
0.014768
0.014977
0.015187
0.015397
0.015606
0.015816
0.016026
0.016235
0.016445
0.016654
0.016864
0.017073
0.017283
0.017492
0.017702
0.017911
0.018120
0.018330
0.018539
0.018749
0.018958
0.019167
0.019376
0.019586
0.019795
0.020004
0.020213
0.020422
0.020632
0.020841
0.021050
0.021259
0.021468
0.021677
0.021886
0.022095
0.022304
0.022513
0.022722
0.022930
0.023139
0.023348
0.023557
0.023766
0.023974
0.024183
0.024392
0.024600
0.024809
0.025018
0.025226
0.025435
0.025643
0.025852
0.026060
0.026269
0.026477
0.026686
0.026894
0.027102
0.027311
0.027519
0.027727
0.027935
0.028144
0.028352
0.028560
0.028768
0.028976
0.029184
0.029392
0.029600
0.029808
0.030016
0.030224
0.030432
0.030640
0.030848
0.031055
0.031263
0.031471
0.031679
0.031886
0.032094
0.032302
0.032509
0.032717
0.032924
0.033132
0.033339
0.033547
0.033754
0.033961
0.034169
0.034376
0.034583
0.034791
0.034998
0.035205
0.035412
0.035619
0.035827
0.036034
0.036241
0.036448
0.036655
0.036862
0.037068
0.037275
0.037482
0.037689
0.037896
0.038103
0.038309
0.038516
0.038723
0.038929
0.039136
0.039342
0.039549
0.039755
0.039962
0.040168
0.040375
0.040581
0.040787
0.040994
0.041200
0.041406
0.041612
0.041819
0.042025
0.042231
0.042437
0.042643
0.042849
0.043055
0.043261
0.043467
0.043673
0.043879
0.044084
0.044290
0.044496
0.044702
0.044907
0.045113
0.045319
0.045524
0.045730
0.045935
0.046141
0.046346
0.046552
0.046757
0.046963
0.047168
0.047373
0.047578
0.047784
0.047989
0.048194
0.048399
0.048604
0.048810
0.049015
0.049220
0.049425
0.049630
0.049835
0.050039
0.050244
0.050449
0.050654
0.050859
0.051063
0.051268
0.051473
0.051678
0.051882
0.052087
0.052291
0.052496
0.052700
0.052905
0.053109
0.053314
0.053518
0.053722
0.053927
0.054131
0.054335
0.054540
0.054744
0.054948
0.055152
0.055356
0.055560
0.055764
0.055968
0.056172
0.056376
0.056580
0.056784
0.056988
0.057192
0.057396
0.057599
0.057803
0.058007
0.058210
0.058414
0.058618
0.058821
0.059025
0.059229
0.059432
0.059636
0.059839
0.060042
0.060246
0.060449
0.060653
0.060856
0.061059
0.061262
0.061466
0.061669
0.061872
0.062075
0.062278
0.062482
0.062685
0.062888
0.063091
0.063294
0.063497
0.063700
0.063903
0.064105
0.064308
0.064511
0.064714
0.064917
0.065120
0.065322
0.065525
0.065728
0.065930
0.066133
0.066336
0.066538
0.066741
0.066943
0.067146
0.067348
0.067551
0.067753
0.067956
0.068158
0.068361
0.068563
0.068765
0.068968
0.069170
0.069372
0.069574
0.069777
0.069979
0.070181
0.070383
0.070585
0.070787
0.071191
0.071393
0.071595
0.071797
0.071999
0.072200
0.072402
0.072604
0.072805
0.073007
0.073209
0.073410
0.073612
0.073814
0.074015
0.074217
0.074418
0.074620
0.074821
0.075023
0.075224
0.075426
0.075627
0.075828
0.076030
0.076231
0.076432
0.076634
0.076835
0.077036
0.077237
0.077439
0.077640
0.077841
0.078042
0.078243
0.078445
0.078646
0.078847
0.079048
0.079249
0.079450
0.079651
0.079852
0.080053
0.080254
0.080455
0.080656
0.080857
0.081058
0.081259
0.081460
0.081661
0.081862
0.082062
0.082263
0.082464
0.082665
0.082866
0.083066
0.083267
0.083468
0.083669
0.083869
0.084070
0.084271
0.084471
0.084672
0.084873
0.085073
0.085274
0.085474
0.085675
0.085876
0.086076
0.086277
0.086477
0.086678
0.086878
0.087079
0.087279
0.087480
0.087680
0.087881
0.088081
0.088281
0.088482
0.088682
0.088883
0.089083
0.089283
0.089484
0.089684
0.089884
0.090085
0.090285
0.090485
0.090686
0.090886
0.091086
0.091286
0.091487
0.091687
0.091887
0.092087
0.092288
0.092488
0.092688
0.092888
0.093088
0.093289
0.093489
0.093689
0.093889
0.094089
0.094289
0.094489
0.094689
0.094890
0.095090
0.095290
0.095490
0.095690
0.095890
0.096090
0.096290
0.096490
0.096690
0.096890
0.097090
0.097290
0.097490
0.097690
0.097890
0.098090
0.098290
0.098490
0.098690
0.098890
0.099090
0.099290
0.099490
0.099690
0.099890
0.100090
0.100290
0.100490
0.100690
0.100890
0.101090
0.101290
0.101490
0.101690
0.101890
0.102089
0.102289
0.102489
0.102689
0.102889
0.103089
0.103289
0.103489
0.103689
0.103888
0.104088
0.104288
0.104488
0.104688
0.104888
0.105088
0.105288
0.105487
0.105687
0.105887
0.106087
0.106287
0.106487
0.106687
0.106887
0.107086
0.107286
0.107486
0.107686
0.107886
0.108086
0.108286
0.108485
0.108685
0.108885
0.109085
0.109285
0.109485
0.109685
0.109885
0.110084
0.110284
0.110484
0.110684
0.110884
0.111084
0.111284
0.111484
0.111683
0.111883
0.112083
0.112283
0.112483
0.112683
0.112883
0.113083
0.113283
0.113483
0.113682
0.113882
0.114082
0.114282
0.114482
0.114682
0.114882
0.115082
0.115282
0.115482
0.115682
0.115882
0.116082
0.116281
0.116481
0.116681
0.116881
0.117081
0.117281
0.117481
0.117681
0.117881
0.118081
0.118281
0.118481
0.118681
0.118881
0.119081
0.119281
0.119481
0.119681
0.119881
0.120081
0.120281
0.120481
0.120681
0.120882
0.121082
0.121282
0.121482
0.121682
0.121882
0.122082
0.122282
0.122482
0.122682
0.122882
0.123083
0.123283
0.123483
0.123683
0.123883
0.124083
0.124283
0.124484
0.124684
0.124884
0.125084
0.125284
0.125484
0.125685
0.125885
0.126085
0.126285
0.126486
0.126686
0.126886
0.127086
0.127287
0.127487
0.127687
0.127887
0.128088
0.128288
0.128488
0.128689
0.128889
0.129089
0.129290
0.129490
0.129690
0.129891
0.130091
0.130292
0.130492
0.130692
0.130893
0.131093
0.131294
0.131494
0.131695
0.131895
0.132095
0.132296
0.132496
0.132697
0.132897
0.133098
0.133298
0.133499
0.133699
0.133900
0.134101
0.134301
0.134502
0.134702
0.134903
0.135103
0.135304
0.135505
0.135705
0.135906
0.136107
0.136307
0.136508
0.136709
0.136909
0.137110
0.137311
0.137511
0.137712
0.137913
0.138113
0.138314
0.138515
0.138716
0.138917
0.139117
0.139318
0.139519
0.139720
0.139921
0.140121
0.140322
0.140523
0.140724
0.140925
0.141126
0.141327
0.141527
0.141728
0.101000
0.101098
0.100789
0.090314
0.090463
0.090605
-0.073002
-0.072896
-0.073205
-0.073334
-0.038435
0.114754
0.115116
0.115192
0.115411
0.096935
0.096613
0.096715
-0.039197
-0.038986
-0.039240
-0.038871
-0.106023
-0.106174
-0.105802
-0.105850
-0.040511
-0.040356
-0.040205
0.039611
0.039293
0.039472
0.039579
-0.066366
-0.068104
-0.080225
-0.082654
0.027994
0.027678
0.027802
0.027773
-0.030890
-0.031552
-0.030986
-0.031015
0.073547
0.072942
0.072323
0.074329
-0.106503
-0.106379
-0.106013
0.034430
0.034392
0.034763
0.034933
0.001722
-0.006535
-0.004559
-0.011404
0.016958
0.017409
0.017587
-0.056643
-0.053977
-0.056757
-0.009351
-0.009146
-0.009649
-0.009425
0.089330
0.090399
0.090292
0.091394
-0.002335
-0.001609
-0.001910
-0.000872
0.030033
0.030352
0.029783
0.030503
0.027985
0.028213
0.027813
0.028399
-0.015226
-0.015278
-0.015555
-0.015718
0.100243
0.100107
0.099732
-0.042124
-0.042713
-0.042305
0.016985
0.099595
0.099225
0.099214
0.099770
0.045888
0.046250
0.046084
-0.000700
-0.000623
-0.000926
0.046224
0.027682
0.026665
0.026302
-0.000379
0.053006
0.052780
0.052300
0.083306
0.083663
0.083249
0.083822
0.051361
0.051563
0.051202
0.051690
0.052174
-0.091533
-0.091948
-0.091734
0.118062
0.117723
0.118285
-0.092132
-0.063956
-0.064226
-0.064485
-0.063706
-0.051531
-0.051292
-0.052137
-0.051552
-0.028831
-0.029450
-0.029004
0.015118
0.015466
0.015024
0.015338
-0.029547
0.046106
0.046369
0.045892
-0.048926
-0.049411
-0.048955
-0.053490
-0.054142
-0.054648
0.046361
0.091804
0.091895
0.091456
-0.081685
-0.081550
-0.081379
0.098340
0.098721
0.098747
0.098408
0.057882
0.057343
0.057560
0.056772
0.001799
-0.001011
0.001873
0.001160
0.043501
0.044659
0.041602
0.046417
-0.077189
-0.076963
-0.077638
-0.076514
0.133602
0.133338
-0.111272
-0.110334
-0.109798
-0.108762
-0.072134
-0.070250
-0.065931
-0.077626
0.138039
0.138141
0.138621
-0.083211
-0.076590
-0.083645
-0.084116
-0.082366
0.095284
0.095214
0.094728
0.037324
0.037131
0.037584
0.037438
0.002716
0.001878
0.002480
-0.107699
-0.107655
-0.108255
-0.107758
0.138226
0.137433
0.138466
0.137183
0.118288
0.118641
0.119017
0.094595
0.056973
0.056575
0.056165
0.055851
-0.012680
-0.012448
-0.012177
-0.012859
-0.022842
-0.024163
-0.027810
0.120759
0.120653
0.119620
0.120041
-0.030586
-0.029816
-0.033522
-0.031943
0.055964
0.056007
0.055641
0.032498
0.033613
0.042973
0.023637
-0.095288
-0.095783
-0.094233
-0.097506
0.127477
0.127775
0.028996
0.028956
0.029164
0.056321
0.003619
0.005094
0.006098
0.006906
-0.051951
-0.052468
-0.052243
-0.052202
-0.050372
-0.058107
-0.055634
-0.050632
-0.011659
-0.011061
-0.012093
-0.011958
-0.062533
-0.060577
-0.059122
-0.057580
0.125628
0.126325
0.126774
0.125595
-0.057477
-0.057388
-0.057208
-0.119072
-0.124136
-0.119253
-0.119755
-0.101180
-0.101465
-0.101515
-0.018661
-0.018734
-0.039130
-0.039186
-0.041653
-0.036896
0.052429
0.049292
0.049723
0.046245
0.007338
0.020147
0.018462
0.016406
0.068668
0.068929
0.066979
0.066981
0.111995
0.109394
0.110263
0.111804
-0.048055
-0.047869
-0.049433
-0.049724
-0.040741
-0.040569
-0.040328
-0.041110
0.076637
0.077842
0.076929
0.077682
0.075524
0.075395
0.076856
-0.009500
-0.009135
-0.009051
-0.009481
0.132403
0.130927
0.132285
0.099673
-0.025189
-0.027973
-0.026565
-0.026393
0.110328
0.110432
0.109779
0.110025
0.021303
0.021694
0.021403
0.021862
0.052445
0.053057
-0.014344
-0.013291
-0.012393
-0.011634
-0.003776
-0.003736
-0.000267
-0.007340
-0.001452
-0.001235
-0.001075
0.123076
0.122654
0.122611
-0.073760
-0.073983
-0.072906
-0.072824
-0.000981
-0.062804
-0.058754
-0.061796
0.112268
0.112791
0.113646
0.114152
0.104985
0.104764
0.104723
0.104371
0.049777
0.048679
0.048395
0.050826
0.042947
0.042579
0.042409
0.042999
0.042725
0.043186
0.054944
0.053319
0.054378
-0.007562
-0.007881
-0.007500
0.031226
0.027038
0.036963
-0.007652
0.071456
0.072282
0.069744
0.060722
0.061186
0.061163
0.060860
0.090883
0.090960
0.090413
-0.063203
-0.056146
0.091351
0.086263
0.086124
0.085893
0.085783
-0.049746
-0.049548
-0.049832
0.110819
0.029844
0.029997
0.029069
0.028919
-0.090483
-0.087596
-0.088653
-0.086260
0.036339
0.036288
0.035968
0.036655
-0.059922
-0.058837
-0.061570
-0.058388
-0.072722
-0.074245
-0.068353
-0.078180
0.077503
0.077329
0.077856
-0.062808
-0.062269
-0.063662
0.039947
0.039852
0.038425
0.037483
0.096902
0.080308
0.079912
0.080297
0.060235
0.062239
0.060555
0.061941
-0.015148
-0.016791
-0.017154
0.079902
0.084773
0.085427
0.084784
0.042663
0.043622
0.044089
0.045052
0.052812
0.049355
-0.030031
-0.031122
-0.029622
-0.032098
-0.083316
-0.087280
-0.087285
-0.081095
-0.063041
-0.063996
0.026107
0.025910
0.027425
0.085133
-0.018421
-0.015068
-0.013760
-0.019296
0.042003
0.046138
0.063018
0.063249
0.063087
-0.062482
-0.061586
-0.061300
0.063470
-0.050290
-0.050202
-0.049966
0.089060
0.088647
0.088889
0.088476
-0.033262
-0.033112
-0.032969
-0.058802
-0.068020
0.015900
0.015810
0.015609
0.094677
0.094600
0.094367
0.094244
0.063303
0.063547
0.063715
0.022999
0.021728
0.021387
0.019551
0.061281
0.060963
0.061098
0.060765
0.053463
0.053620
0.053316
0.084537
0.084818
0.084978
0.061242
0.060840
0.063160
0.085108
-0.076318
-0.076326
-0.075998
0.059243
0.045538
0.044593
0.045980
0.063225
-0.081201
-0.081069
-0.081279
0.031882
0.024987
0.027787
-0.076645
0.079493
0.079508
0.079953
0.113949
0.114109
0.113743
0.113951