# vtk DataFile Version 2.0
Test
ASCII
DATASET POLYDATA
POINTS 20431 float
0.000000 0.000000 0.000000
2.000000 0.000000 0.000000
2.000000 4.000000 0.000000
0.000000 4.000000 0.000000
0.000000 0.500000 0.000000
1.500000 2.000000 0.000000
2.000000 2.500000 0.000000
0.400000 0.000000 0.000000
0.800000 0.000000 0.000000
1.200000 0.000000 0.000000
1.600000 0.000000 0.000000
2.000000 0.362557 0.000000
2.000000 0.672798 0.000000
2.000000 0.938272 0.000000
2.000000 1.165439 0.000000
2.000000 1.359826 0.000000
2.000000 1.526163 0.000000
2.000000 1.668499 0.000000
2.000000 1.790295 0.000000
2.000000 1.894517 0.000000
2.000000 1.983700 0.000000
2.000000 2.060013 0.000000
2.000000 2.125315 0.000000
2.000000 2.181194 0.000000
2.000000 2.229010 0.000000
2.000000 2.269926 0.000000
2.000000 2.304938 0.000000
2.000000 2.334898 0.000000
2.000000 2.360534 0.000000
2.000000 2.382472 0.000000
2.000000 2.401244 0.000000
2.000000 2.417307 0.000000
2.000000 2.431052 0.000000
2.000000 2.442814 0.000000
2.000000 2.452878 0.000000
2.000000 2.461491 0.000000
2.000000 2.468860 0.000000
2.000000 2.475167 0.000000
2.000000 2.480563 0.000000
2.000000 2.485180 0.000000
2.000000 2.489132 0.000000
2.000000 2.492513 0.000000
2.000000 2.495406 0.000000
2.000000 2.497882 0.000000
2.000000 2.502286 0.000000
2.000000 2.505266 0.000000
2.000000 2.509150 0.000000
2.000000 2.514212 0.000000
2.000000 2.520809 0.000000
2.000000 2.529407 0.000000
2.000000 2.540613 0.000000
2.000000 2.555218 0.000000
2.000000 2.574253 0.000000
2.000000 2.599061 0.000000
2.000000 2.631395 0.000000
2.000000 2.673536 0.000000
2.000000 2.728460 0.000000
2.000000 2.800043 0.000000
2.000000 2.893339 0.000000
2.000000 3.014933 0.000000
2.000000 3.173410 0.000000
2.000000 3.379956 0.000000
2.000000 3.649152 0.000000
1.600000 4.000000 0.000000
1.200000 4.000000 0.000000
0.800000 4.000000 0.000000
0.400000 4.000000 0.000000
0.000000 3.624996 0.000000
0.000000 3.289970 0.000000
0.000000 2.990661 0.000000
0.000000 2.723261 0.000000
0.000000 2.484368 0.000000
0.000000 2.270943 0.000000
0.000000 2.080271 0.000000
0.000000 1.909926 0.000000
0.000000 1.757741 0.000000
0.000000 1.621780 0.000000
0.000000 1.500314 0.000000
0.000000 1.391797 0.000000
0.000000 1.294849 0.000000
0.000000 1.208237 0.000000
0.000000 1.130858 0.000000
0.000000 1.061728 0.000000
0.000000 0.999968 0.000000
0.000000 0.944792 0.000000
0.000000 0.895499 0.000000
0.000000 0.851460 0.000000
0.000000 0.812117 0.000000
0.000000 0.776968 0.000000
0.000000 0.745565 0.000000
0.000000 0.717511 0.000000
0.000000 0.692448 0.000000
0.000000 0.670056 0.000000
0.000000 0.650052 0.000000
0.000000 0.632180 0.000000
0.000000 0.616213 0.000000
0.000000 0.601949 0.000000
0.000000 0.589205 0.000000
0.000000 0.577820 0.000000
0.000000 0.567649 0.000000
0.000000 0.558562 0.000000
0.000000 0.550444 0.000000
0.000000 0.543191 0.000000
0.000000 0.536712 0.000000
0.000000 0.530923 0.000000
0.000000 0.525751 0.000000
0.000000 0.521131 0.000000
0.000000 0.517003 0.000000
0.000000 0.513315 0.000000
0.000000 0.510021 0.000000
0.000000 0.507078 0.000000
0.000000 0.504448 0.000000
0.000000 0.502099 0.000000
0.000000 0.497804 0.000000
0.000000 0.494785 0.000000
0.000000 0.490633 0.000000
0.000000 0.484924 0.000000
0.000000 0.477074 0.000000
0.000000 0.466279 0.000000
0.000000 0.451436 0.000000
0.000000 0.431025 0.000000
0.000000 0.402959 0.000000
0.000000 0.364366 0.000000
0.000000 0.311297 0.000000
0.000000 0.238324 0.000000
0.000000 0.137980 0.000000
0.001414 0.501414 0.000000
0.002828 0.502828 0.000000
0.004241 0.504241 0.000000
0.005655 0.505655 0.000000
0.007069 0.507069 0.000000
0.008483 0.508483 0.000000
0.009896 0.509896 0.000000
0.011310 0.511310 0.000000
0.012724 0.512724 0.000000
0.014138 0.514138 0.000000
0.015551 0.515551 0.000000
0.016965 0.516965 0.000000
0.018379 0.518379 0.000000
0.019793 0.519793 0.000000
0.021206 0.521206 0.000000
0.022620 0.522620 0.000000
0.024034 0.524034 0.000000
0.025448 0.525448 0.000000
0.026861 0.526861 0.000000
0.028275 0.528275 0.000000
0.029689 0.529689 0.000000
0.031103 0.531103 0.000000
0.032516 0.532516 0.000000
0.033930 0.533930 0.000000
0.035344 0.535344 0.000000
0.036758 0.536758 0.000000
0.038172 0.538172 0.000000
0.039585 0.539585 0.000000
0.040999 0.540999 0.000000
0.042413 0.542413 0.000000
0.043827 0.543827 0.000000
0.045240 0.545240 0.000000
0.046654 0.546654 0.000000
0.048068 0.548068 0.000000
0.049482 0.549482 0.000000
0.050895 0.550895 0.000000
0.052309 0.552309 0.000000
0.053723 0.553723 0.000000
0.055137 0.555137 0.000000
0.056550 0.556550 0.000000
0.057964 0.557964 0.000000
0.059378 0.559378 0.000000
0.060792 0.560792 0.000000
0.062205 0.562205 0.000000
0.063619 0.563619 0.000000
0.065033 0.565033 0.000000
0.066447 0.566447 0.000000
0.067861 0.567861 0.000000
0.069274 0.569274 0.000000
0.070688 0.570688 0.000000
0.072102 0.572102 0.000000
0.073516 0.573516 0.000000
0.074929 0.574929 0.000000
0.076343 0.576343 0.000000
0.077757 0.577757 0.000000
0.079171 0.579171 0.000000
0.080584 0.580584 0.000000
0.081998 0.581998 0.000000
0.083412 0.583412 0.000000
0.084826 0.584826 0.000000
0.086239 0.586239 0.000000
0.087653 0.587653 0.000000
0.089067 0.589067 0.000000
0.090481 0.590481 0.000000
0.091894 0.591894 0.000000
0.093308 0.593308 0.000000
0.094722 0.594722 0.000000
0.096136 0.596136 0.000000
0.097549 0.597549 0.000000
0.098963 0.598963 0.000000
0.100377 0.600377 0.000000
0.101791 0.601791 0.000000
0.103205 0.603205 0.000000
0.104618 0.604618 0.000000
0.106032 0.606032 0.000000
0.107446 0.607446 0.000000
0.108860 0.608860 0.000000
0.110273 0.610273 0.000000
0.111687 0.611687 0.000000
0.113101 0.613101 0.000000
0.114515 0.614515 0.000000
0.115928 0.615928 0.000000
0.117342 0.617342 0.000000
0.118756 0.618756 0.000000
0.120170 0.620170 0.000000
0.121583 0.621583 0.000000
0.122997 0.622997 0.000000
0.124411 0.624411 0.000000
0.125825 0.625825 0.000000
0.127238 0.627238 0.000000
0.128652 0.628652 0.000000
0.130066 0.630066 0.000000
0.131480 0.631480 0.000000
0.132893 0.632893 0.000000
0.134307 0.634307 0.000000
0.135721 0.635721 0.000000
0.137135 0.637135 0.000000
0.138549 0.638549 0.000000
0.139962 0.639962 0.000000
0.141376 0.641376 0.000000
0.142790 0.642790 0.000000
0.144204 0.644204 0.000000
0.145617 0.645617 0.000000
0.147031 0.647031 0.000000
0.148445 0.648445 0.000000
0.149859 0.649859 0.000000
0.151272 0.651272 0.000000
0.152686 0.652686 0.000000
0.154100 0.654100 0.000000
0.155514 0.655514 0.000000
0.156927 0.656927 0.000000
0.158341 0.658341 0.000000
0.159755 0.659755 0.000000
0.161169 0.661169 0.000000
0.162582 0.662582 0.000000
0.163996 0.663996 0.000000
0.165410 0.665410 0.000000
0.166824 0.666824 0.000000
0.168238 0.668238 0.000000
0.169651 0.669651 0.000000
0.171065 0.671065 0.000000
0.172479 0.672479 0.000000
0.173893 0.673893 0.000000
0.175306 0.675306 0.000000
0.176720 0.676720 0.000000
0.178134 0.678134 0.000000
0.179548 0.679548 0.000000
0.180961 0.680961 0.000000
0.182375 0.682375 0.000000
0.183789 0.683789 0.000000
0.185203 0.685203 0.000000
0.186616 0.686616 0.000000
0.188030 0.688030 0.000000
0.189444 0.689444 0.000000
0.190858 0.690858 0.000000
0.192271 0.692271 0.000000
0.193685 0.693685 0.000000
0.195099 0.695099 0.000000
0.196513 0.696513 0.000000
0.197926 0.697926 0.000000
0.199340 0.699340 0.000000
0.200754 0.700754 0.000000
0.202168 0.702168 0.000000
0.203582 0.703582 0.000000
0.204995 0.704995 0.000000
0.206409 0.706409 0.000000
0.207823 0.707823 0.000000
0.209237 0.709237 0.000000
0.210650 0.710650 0.000000
0.212064 0.712064 0.000000
0.213478 0.713478 0.000000
0.214892 0.714892 0.000000
0.216305 0.716305 0.000000
0.217719 0.717719 0.000000
0.219133 0.719133 0.000000
0.220547 0.720547 0.000000
0.221960 0.721960 0.000000
0.223374 0.723374 0.000000
0.224788 0.724788 0.000000
0.226202 0.726202 0.000000
0.227615 0.727615 0.000000
0.229029 0.729029 0.000000
0.230443 0.730443 0.000000
0.231857 0.731857 0.000000
0.233270 0.733270 0.000000
0.234684 0.734684 0.000000
0.236098 0.736098 0.000000
0.237512 0.737512 0.000000
0.238926 0.738926 0.000000
0.240339 0.740339 0.000000
0.241753 0.741753 0.000000
0.243167 0.743167 0.000000
0.244581 0.744581 0.000000
0.245994 0.745994 0.000000
0.247408 0.747408 0.000000
0.248822 0.748822 0.000000
0.250236 0.750236 0.000000
0.251649 0.751649 0.000000
0.253063 0.753063 0.000000
0.254477 0.754477 0.000000
0.255891 0.755891 0.000000
0.257304 0.757304 0.000000
0.258718 0.758718 0.000000
0.260132 0.760132 0.000000
0.261546 0.761546 0.000000
0.262959 0.762959 0.000000
0.264373 0.764373 0.000000
0.265787 0.765787 0.000000
0.267201 0.767201 0.000000
0.268615 0.768615 0.000000
0.270028 0.770028 0.000000
0.271442 0.771442 0.000000
0.272856 0.772856 0.000000
0.274270 0.774270 0.000000
0.275683 0.775683 0.000000
0.277097 0.777097 0.000000
0.278511 0.778511 0.000000
0.279925 0.779925 0.000000
0.281338 0.781338 0.000000
0.282752 0.782752 0.000000
0.284166 0.784166 0.000000
0.285580 0.785580 0.000000
0.286993 0.786993 0.000000
0.288407 0.788407 0.000000
0.289821 0.789821 0.000000
0.291235 0.791235 0.000000
0.292648 0.792648 0.000000
0.294062 0.794062 0.000000
0.295476 0.795476 0.000000
0.296890 0.796890 0.000000
0.298303 0.798303 0.000000
0.299717 0.799717 0.000000
0.301131 0.801131 0.000000
0.302545 0.802545 0.000000
0.303959 0.803959 0.000000
0.305372 0.805372 0.000000
0.306786 0.806786 0.000000
0.308200 0.808200 0.000000
0.309614 0.809614 0.000000
0.311027 0.811027 0.000000
0.312441 0.812441 0.000000
0.313855 0.813855 0.000000
0.315269 0.815269 0.000000
0.316682 0.816682 0.000000
0.318096 0.818096 0.000000
0.319510 0.819510 0.000000
0.320924 0.820924 0.000000
0.322337 0.822337 0.000000
0.323751 0.823751 0.000000
0.325165 0.825165 0.000000
0.326579 0.826579 0.000000
0.327992 0.827992 0.000000
0.329406 0.829406 0.000000
0.330820 0.830820 0.000000
0.332234 0.832234 0.000000
0.333648 0.833648 0.000000
0.335061 0.835061 0.000000
0.336475 0.836475 0.000000
0.337889 0.837889 0.000000
0.339303 0.839303 0.000000
0.340716 0.840716 0.000000
[...]
POINT_DATA 20431
SCALARS UX float 1
LOOKUP_TABLE default
-0.000000
0.000000
-0.001995
-0.006697
-0.002681
-0.000484
-0.000903
-0.000000
-0.000000
0.000000
-0.000000
0.001754
0.002355
0.002648
0.002785
0.002827
0.002770
0.002598
0.002306
0.001921
0.001479
0.001057
0.000683
0.000373
0.000123
-0.000075
-0.000233
-0.000358
-0.000458
-0.000539
-0.000605
-0.000659
-0.000703
-0.000740
-0.000770
-0.000796
-0.000817
-0.000835
-0.000850
-0.000863
-0.000874
-0.000883
-0.000891
-0.000897
-0.000909
-0.000917
-0.000927
-0.000940
-0.000956
-0.000978
-0.001004
-0.001038
-0.001081
-0.001132
-0.001194
-0.001268
-0.001355
-0.001451
-0.001559
-0.001670
-0.001775
-0.001886
-0.001961
-0.003063
-0.004058
-0.004967
-0.005834
-0.006621
-0.006468
-0.006261
-0.006062
-0.005916
-0.005842
-0.005849
-0.005914
-0.006027
-0.006156
-0.006290
-0.006417
-0.006531
-0.006630
-0.006714
-0.006784
-0.006841
-0.006887
-0.006920
-0.006938
-0.006941
-0.006932
-0.006915
-0.006894
-0.006871
-0.006846
-0.006817
-0.006787
-0.006756
-0.006725
-0.006694
-0.006663
-0.006634
-0.006606
-0.006574
-0.006518
-0.006626
-0.006655
-0.006566
-0.006183
-0.006033
-0.005810
-0.005522
-0.004912
-0.003840
-0.003259
-0.002491
-0.002241
-0.002074
-0.001917
-0.001814
-0.001741
-0.001683
-0.001623
-0.001556
-0.001475
-0.001348
-0.001152
-0.000793
-0.002978
-0.003408
-0.003677
-0.003672
-0.003421
-0.003301
-0.003469
-0.003370
-0.003444
-0.003531
-0.003240
-0.002958
-0.002902
-0.002940
-0.002912
-0.002914
-0.003044
-0.003131
-0.003315
-0.003532
-0.003532
-0.003265
-0.003235
-0.003104
-0.003361
-0.003346
-0.003373
-0.003474
-0.003352
-0.003347
-0.003277
-0.003330
-0.003311
-0.003206
-0.003282
-0.003294
-0.003233
-0.003559
-0.003560
-0.003514
-0.003569
-0.003143
-0.003737
-0.003898
-0.003766
-0.003715
-0.003920
-0.003940
-0.003975
-0.003870
-0.003791
-0.003946
-0.003897
-0.003568
-0.003526
-0.003551
-0.003589
-0.003615
-0.003569
-0.003570
-0.003481
-0.003474
-0.003418
-0.003437
-0.003408
-0.003420
-0.003445
-0.003407
-0.003389
-0.003396
-0.003417
-0.003377
-0.003435
-0.003403
-0.003362
-0.003304
-0.003336
-0.003360
-0.003910
-0.003968
-0.003936
-0.003857
-0.003858
-0.003880
-0.003881
-0.003861
-0.003810
-0.003754
-0.003790
-0.003762
-0.003733
-0.003705
-0.003717
-0.003651
-0.003693
-0.004119
-0.004050
-0.004103
-0.004122
-0.003721
-0.003560
-0.003586
-0.004017
-0.003912
-0.003887
-0.003872
-0.003860
-0.003808
-0.003805
-0.003807
-0.003792
-0.003759
-0.003777
-0.003713
-0.003654
-0.003578
-0.003622
-0.003604
-0.003674
-0.003606
-0.003589
-0.003604
-0.003607
-0.003602
-0.003545
-0.003580
-0.003549
-0.003472
-0.003450
-0.003596
-0.003580
-0.003610
-0.003653
-0.003413
-0.003372
-0.003291
-0.003095
-0.003117
-0.003084
-0.003170
-0.003068
-0.003115
-0.003090
-0.003087
-0.002983
-0.003036
-0.003085
-0.003087
-0.003024
-0.002981
-0.002953
-0.002975
-0.003131
-0.002974
-0.002940
-0.004486
-0.007449
-0.006294
-0.003716
-0.003533
-0.003583
-0.003467
-0.003603
-0.003512
-0.003504
-0.003510
-0.003497
-0.003483
-0.003558
-0.003469
-0.003407
-0.003450
-0.004109
-0.004140
-0.004110
-0.004080
-0.004074
-0.004084
-0.004086
-0.004068
-0.004055
-0.004058
-0.004063
-0.004043
-0.004051
-0.003988
-0.003965
-0.003971
-0.003973
-0.004165
-0.004157
-0.004202
-0.004143
-0.004121
-0.004359
-0.004239
-0.004191
-0.004227
-0.004225
-0.004219
-0.004218
-0.004186
-0.004173
-0.004177
-0.004087
-0.004054
-0.004091
-0.004069
-0.004039
-0.004068
-0.004053
-0.004029
-0.004044
-0.004070
-0.004043
-0.003994
-0.003336
-0.003340
-0.003320
-0.003307
-0.003255
-0.003581
-0.003454
-0.003556
-0.003580
-0.003459
-0.003504
-0.003488
-0.003490
-0.003488
-0.003514
-0.003474
-0.003479
-0.003466
-0.003500
-0.003456
-0.003601
-0.003598
-0.003580
-0.003591
-0.003596
-0.003537
-0.003587
-0.003610
-0.003579
-0.003518
-0.003596
-0.003606
-0.003590
-0.003564
-0.003543
-0.003552
-0.003554
-0.003475
-0.003554
-0.003510
-0.003496
-0.003301
-0.003241
-0.003217
-0.003225
-0.003171
-0.003183
-0.003231
-0.003222
-0.003248
-0.003196
-0.003066
-0.003121
-0.003160
-0.003135
-0.003104
-0.003101
-0.003104
-0.003142
-0.003130
-0.003129
-0.003140
-0.003588
-0.003562
-0.003555
-0.003534
-0.003551
-0.003573
-0.003483
-0.003399
-0.003569
-0.003584
-0.003575
-0.003566
-0.003897
-0.003153
-0.003186
-0.003195
-0.003086
-0.003150
-0.003117
-0.003161
-0.003118
-0.003111
-0.003090
-0.003103
-0.003100
-0.003555
-0.003597
-0.003296
-0.003291
-0.003298
-0.003247
-0.003078
-0.003060
-0.003056
-0.003034
-0.003086
-0.003056
-0.003069
-0.003136
-0.003209
-0.003188
-0.003155
-0.003219
-0.003276
-0.003317
-0.003326
-0.003269
-0.003296
-0.003051
-0.003070
-0.003098
-0.003013
-0.003007
-0.003052
-0.003030
-0.002986
-0.003003
-0.003014
-0.002997
-0.002982
-0.002970
-0.002996
-0.002937
-0.003171
-0.003166
-0.003120
-0.003175
-0.003075
-0.003107
-0.003090
-0.003121
-0.003087
-0.003083
-0.003121
-0.003145
-0.003167
-0.003165
-0.003156
-0.003094
-0.003115
-0.003158
-0.003128
-0.003151
-0.003072
-0.003070
-0.003100
-0.003090
-0.003097
-0.003144
-0.003119
-0.003112
-0.003067
-0.003067
-0.003098
-0.003100
-0.003081
-0.003122
-0.003097
-0.003102
-0.003066
-0.003079
-0.003083
-0.003091
-0.002935
-0.002895
-0.002878
-0.002971
-0.002927
-0.002876
-0.002972
-0.003081
-0.003036
-0.002982
-0.002980
-0.002952
-0.002969
-0.002987
-0.002985
-0.002940
-0.002970
-0.002908
-0.002869
-0.002876
-0.002814
-0.002820
-0.002824
-0.002816
-0.002799
-0.002763
-0.002767
-0.002736
-0.002708
-0.002725
-0.002737
-0.002703
-0.002691
-0.002661
-0.002627
-0.002473
-0.002484
-0.002493
-0.002490
-0.002463
-0.002450
-0.002413
-0.003095
-0.003060
-0.003027
-0.003079
-0.003000
-0.002952
-0.002944
-0.002935
-0.002933
-0.002917
-0.002928
-0.003019
-0.003001
-0.003016
-0.003007
-0.003033
-0.002992
-0.002970
-0.002976
-0.002944
-0.002923
-0.002918
-0.002888
-0.002866
-0.002838
-0.002831
-0.002848
-0.002780
-0.002664
-0.002736
-0.002716
-0.002710
-0.002694
-0.002906
-0.002921
-0.002925
-0.002892
-0.002888
-0.002931
-0.002923
-0.002765
-0.002726
-0.002744
-0.002732
-0.002715
-0.002666
-0.002647
-0.002658
-0.002635
-0.002602
-0.002627
-0.002607
-0.002576
-0.002605
-0.002666
-0.002661
-0.002663
-0.002587
-0.002322
-0.002613
-0.002510
-0.002565
-0.002575
-0.002512
-0.002508
-0.002464
-0.002519
-0.002438
-0.002447
-0.002422
-0.002327
-0.002461
-0.002495
-0.002670
-0.002639
-0.002459
-0.002467
-0.002465
-0.002446
-0.002585
-0.002536
-0.002504
-0.002571
-0.002545
-0.002533
-0.002555
-0.002564
-0.002566
-0.002501
-0.002521
-0.002499
-0.002472
-0.002551
-0.002502
-0.002501
-0.002468
-0.002494
-0.002455
-0.002457
-0.002462
-0.002457
-0.002427
-0.002445
-0.002436
-0.002431
-0.002451
-0.002465
-0.002481
-0.002864
-0.002852
-0.002868
-0.002850
-0.002803
-0.002797
-0.002798
-0.002482
-0.002415
-0.002421
-0.002402
-0.002420
-0.002416
-0.002374
-0.002370
-0.002574
-0.002553
-0.002555
-0.002529
-0.002536
-0.002515
-0.002545
-0.002101
-0.002074
-0.002006
-0.001988
-0.001962
-0.001990
-0.001970
-0.001956
-0.002043
-0.002210
-0.002215
-0.002190
-0.002213
-0.002237
-0.002223
-0.002210
-0.002202
-0.002170
-0.002229
-0.002211
-0.002259
-0.002431
-0.002250
-0.002487
-0.002420
-0.002401
-0.002405
-0.002414
-0.002382
-0.002370
-0.002411
-0.002410
-0.002393
-0.002330
-0.002540
-0.002503
-0.002501
-0.002536
-0.002515
-0.002527
-0.002509
-0.002505
-0.002552
-0.002552
-0.002554
-0.002544
-0.002558
-0.002517
-0.002499
-0.002490
-0.002540
-0.002536
-0.002515
-0.002512
-0.002495
-0.001587
-0.001649
-0.001498
-0.001447
-0.001488
-0.002165
-0.002180
-0.002179
-0.002164
-0.002274
-0.002217
-0.001964
-0.001897
-0.001858
-0.001914
-0.001914
-0.001907
-0.001899
-0.001909
-0.001911
-0.001888
-0.001968
-0.001850
-0.001834
-0.001827
-0.001766
-0.001761
-0.001731
-0.001719
-0.001375
-0.001335
-0.001314
-0.001591
-0.001546
-0.001593
-0.001526
-0.001548
-0.001531
-0.001540
-0.001521
-0.002545
-0.002482
-0.001984
-0.001947
-0.001928
-0.001950
-0.001941
-0.001953
-0.001974
-0.001928
-0.001929
-0.001923
-0.001926
-0.001926
-0.001953
-0.001971
-0.002098
-0.001943
-0.001922
-0.001901
-0.001884
-0.002131
-0.002089
-0.002038
-0.002099
-0.002104
-0.002066
-0.002062
-0.002098
-0.002016
-0.001970
-0.002003
-0.001999
-0.001954
-0.001933
-0.001915
-0.001911
-0.001912
-0.001925
-0.001912
-0.001933
-0.001916
-0.001887
-0.001834
-0.001913
-0.001923
-0.001924
-0.001867
-0.001863
-0.001867
-0.001844
-0.001822
-0.001845
-0.001896
-0.001917
-0.001867
-0.001901
-0.001857
-0.001856
-0.001854
-0.001853
-0.001857
-0.001848
-0.001858
-0.001903
-0.001953
-0.001891
-0.001868
-0.001851
-0.001902
-0.001881
-0.001806
-0.001832
-0.001817
-0.001810
-0.001836
-0.001817
-0.001263
-0.001826
-0.001843
-0.001866
-0.001876
-0.001854
-0.001660
-0.001752
-0.001765
-0.001766
-0.001764
-0.001673
-0.001676
-0.001556
-0.001467
-0.001766
-0.001826
-0.001866
-0.001821
-0.001801
-0.001771
-0.001733
-0.001743
-0.001739
-0.001701
-0.001732
-0.001695
-0.001641
-0.001638
-0.001642
-0.001658
-0.001674
-0.001642
-0.001611
-0.001609
-0.001003
-0.001291
-0.001760
-0.001517
-0.001484
-0.001495
-0.001489
-0.001469
-0.001455
-0.001419
-0.001482
-0.001436
-0.001435
-0.001419
-0.001382
-0.001339
-0.001334
-0.001375
-0.001394
-0.001375
-0.001334
-0.001314
-0.001318
-0.001304
-0.001340
-0.001308
-0.001297
-0.001231
-0.001247
-0.001247
-0.001265
-0.001251
-0.001222
-0.001389
-0.001392
-0.001377
-0.001336
-0.001412
-0.001431
-0.001363
-0.001370
-0.001358
-0.001302
-0.001333
-0.001325
-0.001293
-0.001290
-0.001301
-0.001321
-0.001317
-0.001287
-0.001271
-0.001216
-0.001296
-0.001252
-0.001260
-0.001314
-0.001277
-0.001260
-0.001250
-0.001226
-0.001226
-0.001201
-0.001231
-0.001206
-0.001152
-0.001144
-0.001154
-0.001159
-0.001151
-0.001129
-0.001083
-0.001106
-0.001108
-0.001131
-0.001152
-0.001392
-0.001356
-0.001427
-0.001378
-0.001239
-0.001231
-0.001343
-0.001719
-0.001544
-0.001479
-0.001431
-0.001527
-0.001562
-0.001483
-0.001487
-0.001481
-0.001492
-0.001487
-0.001461
-0.001534
-0.001530
-0.001495
-0.001466
-0.001435
-0.001536
-0.001402
-0.001432
-0.001474
-0.001427
-0.001440
-0.001475
-0.001484
-0.001446
-0.001399
-0.001398
-0.001399
-0.001369
-0.001377
-0.001347
-0.001363
-0.001363
-0.001441
-0.001431
-0.001111
-0.001115
-0.001082
-0.001128
-0.001093
-0.001055
-0.001091
-0.001087
-0.001212
-0.001152
-0.001150
-0.001155
-0.001156
-0.001134
-0.001118
-0.001128
-0.001104
-0.001128
-0.001130
-0.001126
-0.001088
-0.001090
-0.001114
-0.001079
-0.001020
-0.001021
-0.001001
-0.001007
-0.000976
-0.000992
-0.000963
-0.000942
-0.000955
-0.000952
-0.000953
-0.000991
-0.000951
-0.000932
-0.000924
-0.000926
-0.000930
-0.000875
-0.000887
-0.000849
-0.000904
-0.001132
-0.001066
-0.001051
-0.001073
-0.001078
-0.001077
-0.001093
-0.001024
-0.001014
-0.001053
-0.001096
-0.000936
-0.000963
-0.000959
-0.000974
-0.000934
-0.000919
-0.000857
-0.000968
-0.000871
-0.000845
-0.000819
-0.000770
-0.000853
-0.000816
-0.000852
-0.000817
-0.000865
-0.000880
-0.000865
-0.000861
-0.000862
-0.000861
-0.000864
-0.000852
-0.000867
-0.000846
-0.000844
-0.000843
-0.000842
-0.000850
-0.000815
-0.000846
-0.000879
-0.000880
-0.000876
-0.000882
-0.000860
-0.000845
-0.000867
-0.000889
-0.000905
-0.000996
-0.000815
-0.000650
-0.000838
-0.000891
-0.000886
-0.000832
-0.000810
-0.000809
-0.000787
-0.000770
-0.000762
-0.000787
-0.000769
-0.000765
-0.000712
-0.000687
-0.000790
-0.000818
-0.000793
-0.000783
-0.000918
-0.000807
-0.000733
-0.000717
-0.000339
-0.000375
-0.000317
-0.000293
-0.000736
-0.000687
-0.000707
-0.000710
-0.000736
-0.000780
-0.000743
-0.000732
-0.000749
-0.000756
-0.000746
-0.000741
-0.000727
-0.000707
-0.000686
-0.000700
-0.000712
-0.000716
-0.000701
-0.000613
-0.000720
-0.000699
-0.000683
-0.000682
-0.000667
-0.000670
-0.000650
-0.000682
-0.000695
-0.000655
-0.000684
-0.000617
-0.000704
-0.000620
-0.000604
-0.000632
-0.000590
-0.000592
-0.000585
-0.000586
-0.000596
-0.000579
-0.000565
-0.000570
-0.000573
-0.000548
-0.000540
-0.000580
-0.000641
-0.000584
-0.000604
-0.000578
-0.000603
-0.000519
-0.000502
-0.000479
-0.000499
-0.000503
-0.000509
-0.000514
-0.000521
-0.000527
-0.000535
-0.000542
-0.000548
-0.000555
-0.000562
-0.000568
-0.000574
-0.000581
-0.000587
-0.000593
-0.000598
-0.000603
-0.000608
-0.000613
-0.000618
-0.000623
-0.000627
-0.000631
-0.000636
-0.000640
-0.000644
-0.000648
-0.000651
-0.000655
-0.000658
-0.000662
-0.000665
-0.000668
-0.000671
-0.000674
-0.000677
-0.000680
-0.000683
-0.000686
-0.000689
-0.000691
-0.000694
-0.000697
-0.000700
-0.000703
-0.000706
-0.000709
-0.000712
-0.000714
-0.000717
-0.000719
-0.000721
-0.000724
-0.000726
-0.000728
-0.000730
-0.000732
-0.000734
-0.000736
-0.000738
-0.000740
-0.000741
-0.000743
-0.000745
-0.000747
-0.000748
-0.000750
-0.000751
-0.000753
-0.000754
-0.000756
-0.000757
-0.000759
-0.000760
-0.000762
-0.000763
-0.000765
-0.000766
-0.000767
-0.000769
-0.000770
-0.000771
-0.000773
-0.000774
-0.000775
-0.000777
-0.000778
-0.000779
-0.000780
-0.000782
-0.000783
-0.000784
-0.000785
-0.000787
-0.000788
-0.000789
-0.000790
-0.000791
-0.000793
-0.000794
-0.000795
-0.000796
-0.000797
-0.000799
-0.000800
-0.000801
-0.000802
-0.000803
-0.000804
-0.000806
-0.000807
-0.000808
-0.000809
-0.000810
-0.000811
-0.000812
-0.000814
-0.000815
-0.000816
-0.000817
-0.000818
-0.000819
-0.000820
-0.000822
-0.000823
-0.000824
-0.000825
-0.000826
-0.000827
-0.000828
-0.000829
-0.000831
-0.000832
-0.000833
-0.000834
-0.000835
-0.000836
-0.000837
-0.000838
-0.000840
-0.000841
-0.000842
-0.000843
-0.000844
-0.000845
-0.000846
-0.000847
-0.000848
-0.000850
-0.000851
-0.000852
-0.000853
-0.000854
-0.000855
-0.000856
-0.000857
-0.000858
-0.000860
-0.000861
-0.000862
-0.000863
-0.000864
-0.000865
-0.000866
-0.000867
-0.000868
-0.000869
-0.000871
-0.000872
-0.000873
-0.000874
-0.000875
-0.000876
-0.000877
-0.000878
-0.000879
-0.000880
-0.000881
-0.000882
-0.000883
-0.000884
-0.000886
-0.000887
-0.000888
-0.000889
-0.000890
-0.000891
-0.000892
-0.000893
-0.000894
-0.000895
-0.000896
-0.000897
-0.000898
-0.000899
-0.000900
-0.000901
-0.000902
-0.000903
-0.000904
-0.000905
-0.000906
-0.000906
-0.000907
-0.000908
-0.000909
-0.000910
-0.000911
-0.000912
-0.000913
-0.000914
-0.000915
-0.000915
-0.000916
-0.000917
-0.000918
-0.000919
-0.000920
-0.000921
-0.000921
-0.000922
-0.000923
-0.000924
-0.000924
-0.000925
-0.000926
-0.000927
-0.000927
-0.000928
-0.000929
-0.000930
-0.000930
-0.000931
-0.000932
-0.000932
-0.000933
-0.000934
-0.000934
-0.000935
-0.000935
-0.000936
-0.000937
-0.000937
-0.000938
-0.000938
-0.000939
-0.000939
-0.000940
-0.000940
-0.000941
-0.000941
-0.000942
-0.000942
-0.000943
-0.000943
-0.000943
-0.000944
-0.000944
-0.000944
-0.000945
-0.000945
-0.000945
-0.000946
-0.000946
-0.000946
-0.000947
-0.000947
-0.000947
-0.000947
-0.000947
-0.000948
-0.000948
-0.000948
-0.000948
-0.000948
-0.000948
-0.000948
-0.000948
-0.000948
-0.000948
-0.000948
-0.000948
-0.000948
-0.000948
-0.000948
-0.000948
-0.000948
-0.000948
-0.000948
-0.000947
-0.000947
-0.000947
-0.000947
-0.000947
-0.000946
-0.000946
-0.000946
-0.000946
-0.000945
-0.000945
-0.000945
-0.000944
-0.000944
-0.000943
-0.000943
-0.000943
-0.000942
-0.000942
-0.000941
-0.000941
-0.000940
-0.000940
-0.000939
-0.000938
-0.000938
-0.000937
-0.000937
-0.000936
-0.000935
-0.000935
-0.000934
-0.000933
-0.000932
-0.000932
-0.000931
-0.000930
-0.000929
-0.000928
-0.000927
-0.000927
-0.000926
-0.000925
-0.000924
-0.000923
-0.000922
-0.000921
-0.000920
-0.000919
-0.000918
-0.000917
-0.000916
-0.000915
-0.000914
-0.000912
-0.000911
-0.000910
-0.000909
-0.000908
-0.000907
-0.000905
-0.000904
-0.000863
-0.000872
-0.000880
-0.000812
-0.000799
-0.000805
-0.005263
-0.005319
-0.005367
-0.005450
-0.003560
-0.000953
-0.000934
-0.000946
-0.000932
-0.000894
-0.000908
-0.000896
-0.003526
-0.003365
-0.004241
-0.003544
-0.005494
-0.005451
-0.004723
-0.004567
-0.003931
-0.003395
-0.003522
-0.002480
-0.002557
-0.002473
-0.002530
-0.004477
-0.004478
-0.004714
-0.004728
-0.002125
-0.002374
-0.002040
-0.002553
-0.004625
-0.004654
-0.004610
-0.004650
-0.001299
-0.001358
-0.001338
-0.001302
-0.005833
-0.005619
-0.004821
-0.002815
-0.002795
-0.002774
-0.002719
-0.003138
-0.003306
-0.003280
-0.003418
-0.003384
-0.003351
-0.003349
-0.005137
-0.005080
-0.005106
-0.003938
-0.003973
-0.004007
-0.004034
-0.001267
-0.001218
-0.001261
-0.001199
-0.003915
-0.003891
-0.003905
-0.003868
-0.002885
-0.002896
-0.002941
-0.002812
-0.002776
-0.002812
-0.002904
-0.002603
-0.004097
-0.004143
-0.004155
-0.004191
-0.000908
-0.000926
-0.000923
-0.004844
-0.004886
-0.004821
-0.003373
-0.000960
-0.000985
-0.000965
-0.000966
-0.002146
-0.001965
-0.002161
-0.003673
-0.003702
-0.003727
-0.001784
-0.003043
-0.003050
-0.003071
-0.003638
-0.002034
-0.002093
-0.002116
-0.001016
-0.001017
-0.001046
-0.001028
-0.001480
-0.001285
-0.001766
-0.001435
-0.002132
-0.005639
-0.005835
-0.005660
-0.000980
-0.000978
-0.000963
-0.005836
-0.005231
-0.005338
-0.005320
-0.005225
-0.005127
-0.005129
-0.005178
-0.005158
-0.004542
-0.004603
-0.004550
-0.003438
-0.003424
-0.003448
-0.003438
-0.004582
-0.002241
-0.002222
-0.002331
-0.004961
-0.005000
-0.004906
-0.005236
-0.005253
-0.005266
-0.002283
-0.001014
-0.001029
-0.001038
-0.004784
-0.004273
-0.004267
-0.000918
-0.000896
-0.000908
-0.000900
-0.001808
-0.001828
-0.001830
-0.001857
-0.003618
-0.003691
-0.003651
-0.003692
-0.002220
-0.002150
-0.002237
-0.002127
-0.005728
-0.005734
-0.005773
-0.005680
-0.000951
-0.000952
-0.006662
-0.006649
-0.006655
-0.006656
-0.004879
-0.004919
-0.004808
-0.005039
-0.000962
-0.000948
-0.000943
-0.005056
-0.004893
-0.005924
-0.005941
-0.005908
-0.001017
-0.001045
-0.001044
-0.002635
-0.002604
-0.002530
-0.002471
-0.003791
-0.003812
-0.003805
-0.006239
-0.006260
-0.006332
-0.006303
-0.000986
-0.000990
-0.000961
-0.001019
-0.000988
-0.000964
-0.000968
-0.001068
-0.001833
-0.001837
-0.001867
-0.001860
-0.003973
-0.003806
-0.003817
-0.003942
-0.004216
-0.004183
-0.004266
-0.000995
-0.001019
-0.001034
-0.001055
-0.004504
-0.004464
-0.004535
-0.004467
-0.001591
-0.001713
-0.001821
-0.003132
-0.002987
-0.002873
-0.003160
-0.006190
-0.006208
-0.006179
-0.006228
-0.000961
-0.000960
-0.002401
-0.002120
-0.001976
-0.001516
-0.003643
-0.003639
-0.003595
-0.003607
-0.004936
-0.005041
-0.004934
-0.005055
-0.004613
-0.004693
-0.004733
-0.004547
-0.004173
-0.004157
-0.004185
-0.004180
-0.005238
-0.005249
-0.005196
-0.005202
-0.001030
-0.000995
-0.001002
-0.001006
-0.004183
-0.003635
-0.003603
-0.006506
-0.006579
-0.006551
-0.006481
-0.004544
-0.005316
-0.004596
-0.003286
-0.002973
-0.004777
-0.004744
-0.004790
-0.004736
-0.001856
-0.001956
-0.001942
-0.002044
-0.003214
-0.002979
-0.003116
-0.002969
-0.001499
-0.001538
-0.001566
-0.001616
-0.001185
-0.001275
-0.001194
-0.001252
-0.005089
-0.005070
-0.005101
-0.005092
-0.004740
-0.004630
-0.004647
-0.004749
-0.001272
-0.001233
-0.001300
-0.001207
-0.001337
-0.001292
-0.001211
-0.003910
-0.003764
-0.003828
-0.003834
-0.001053
-0.001078
-0.001026
-0.000943
-0.004312
-0.004345
-0.004363
-0.004293
-0.000924
-0.000936
-0.000948
-0.000962
-0.003155
-0.003100
-0.003178
-0.003121
-0.002089
-0.001975
-0.004198
-0.004185
-0.004159
-0.004155
-0.003523
-0.003575
-0.003496
-0.003609
-0.003305
-0.002918
-0.003079
-0.000963
-0.000984
-0.000969
-0.005713
-0.005722
-0.005694
-0.005691
-0.002557
-0.005166
-0.005106
-0.005112
-0.001125
-0.001068
-0.001077
-0.001037
-0.000882
-0.000883
-0.000898
-0.000898
-0.002113
-0.002119
-0.002155
-0.002065
-0.002461
-0.002517
-0.002502
-0.002492
-0.002429
-0.002369
-0.001803
-0.001860
-0.001850
-0.003732
-0.003765
-0.003531
-0.002825
-0.002783
-0.002608
-0.003396
-0.001595
-0.001612
-0.001671
-0.001663
-0.001641
-0.001638
-0.001660
-0.001007
-0.001024
-0.001034
-0.004712
-0.004597
-0.001001
-0.000826
-0.000847
-0.000844
-0.000864
-0.003716
-0.003773
-0.004157
-0.001120
-0.003002
-0.002997
-0.003023
-0.003020
-0.006010
-0.005975
-0.005971
-0.005939
-0.002195
-0.002460
-0.002496
-0.002110
-0.005334
-0.005302
-0.005345
-0.005313
-0.005243
-0.005332
-0.005216
-0.005320
-0.000831
-0.000809
-0.000781
-0.005449
-0.005438
-0.005478
-0.002539
-0.002499
-0.002555
-0.002543
-0.000908
-0.000805
-0.000808