# vtk DataFile Version 2.0
Test
ASCII
DATASET POLYDATA
POINTS 20431 float
0.000000 0.000000 0.000000
2.000000 0.000000 0.000000
2.000000 4.000000 0.000000
0.000000 4.000000 0.000000
0.000000 0.500000 0.000000
1.500000 2.000000 0.000000
2.000000 2.500000 0.000000
0.400000 0.000000 0.000000
0.800000 0.000000 0.000000
1.200000 0.000000 0.000000
1.600000 0.000000 0.000000
2.000000 0.362557 0.000000
2.000000 0.672798 0.000000
2.000000 0.938272 0.000000
2.000000 1.165439 0.000000
2.000000 1.359826 0.000000
2.000000 1.526163 0.000000
2.000000 1.668499 0.000000
2.000000 1.790295 0.000000
2.000000 1.894517 0.000000
2.000000 1.983700 0.000000
2.000000 2.060013 0.000000
2.000000 2.125315 0.000000
2.000000 2.181194 0.000000
2.000000 2.229010 0.000000
2.000000 2.269926 0.000000
2.000000 2.304938 0.000000
2.000000 2.334898 0.000000
2.000000 2.360534 0.000000
2.000000 2.382472 0.000000
2.000000 2.401244 0.000000
2.000000 2.417307 0.000000
2.000000 2.431052 0.000000
2.000000 2.442814 0.000000
2.000000 2.452878 0.000000
2.000000 2.461491 0.000000
2.000000 2.468860 0.000000
2.000000 2.475167 0.000000
2.000000 2.480563 0.000000
2.000000 2.485180 0.000000
2.000000 2.489132 0.000000
2.000000 2.492513 0.000000
2.000000 2.495406 0.000000
2.000000 2.497882 0.000000
2.000000 2.502286 0.000000
2.000000 2.505266 0.000000
2.000000 2.509150 0.000000
2.000000 2.514212 0.000000
2.000000 2.520809 0.000000
2.000000 2.529407 0.000000
2.000000 2.540613 0.000000
2.000000 2.555218 0.000000
2.000000 2.574253 0.000000
2.000000 2.599061 0.000000
2.000000 2.631395 0.000000
2.000000 2.673536 0.000000
2.000000 2.728460 0.000000
2.000000 2.800043 0.000000
2.000000 2.893339 0.000000
2.000000 3.014933 0.000000
2.000000 3.173410 0.000000
2.000000 3.379956 0.000000
2.000000 3.649152 0.000000
1.600000 4.000000 0.000000
1.200000 4.000000 0.000000
0.800000 4.000000 0.000000
0.400000 4.000000 0.000000
0.000000 3.624996 0.000000
0.000000 3.289970 0.000000
0.000000 2.990661 0.000000
0.000000 2.723261 0.000000
0.000000 2.484368 0.000000
0.000000 2.270943 0.000000
0.000000 2.080271 0.000000
0.000000 1.909926 0.000000
0.000000 1.757741 0.000000
0.000000 1.621780 0.000000
0.000000 1.500314 0.000000
0.000000 1.391797 0.000000
0.000000 1.294849 0.000000
0.000000 1.208237 0.000000
0.000000 1.130858 0.000000
0.000000 1.061728 0.000000
0.000000 0.999968 0.000000
0.000000 0.944792 0.000000
0.000000 0.895499 0.000000
0.000000 0.851460 0.000000
0.000000 0.812117 0.000000
0.000000 0.776968 0.000000
0.000000 0.745565 0.000000
0.000000 0.717511 0.000000
0.000000 0.692448 0.000000
0.000000 0.670056 0.000000
0.000000 0.650052 0.000000
0.000000 0.632180 0.000000
0.000000 0.616213 0.000000
0.000000 0.601949 0.000000
0.000000 0.589205 0.000000
0.000000 0.577820 0.000000
0.000000 0.567649 0.000000
0.000000 0.558562 0.000000
0.000000 0.550444 0.000000
0.000000 0.543191 0.000000
0.000000 0.536712 0.000000
0.000000 0.530923 0.000000
0.000000 0.525751 0.000000
0.000000 0.521131 0.000000
0.000000 0.517003 0.000000
0.000000 0.513315 0.000000
0.000000 0.510021 0.000000
0.000000 0.507078 0.000000
0.000000 0.504448 0.000000
0.000000 0.502099 0.000000
0.000000 0.497804 0.000000
0.000000 0.494785 0.000000
0.000000 0.490633 0.000000
0.000000 0.484924 0.000000
0.000000 0.477074 0.000000
0.000000 0.466279 0.000000
0.000000 0.451436 0.000000
0.000000 0.431025 0.000000
0.000000 0.402959 0.000000
0.000000 0.364366 0.000000
0.000000 0.311297 0.000000
0.000000 0.238324 0.000000
0.000000 0.137980 0.000000
0.001414 0.501414 0.000000
0.002828 0.502828 0.000000
0.004241 0.504241 0.000000
0.005655 0.505655 0.000000
0.007069 0.507069 0.000000
0.008483 0.508483 0.000000
0.009896 0.509896 0.000000
0.011310 0.511310 0.000000
0.012724 0.512724 0.000000
0.014138 0.514138 0.000000
0.015551 0.515551 0.000000
0.016965 0.516965 0.000000
0.018379 0.518379 0.000000
0.019793 0.519793 0.000000
0.021206 0.521206 0.000000
0.022620 0.522620 0.000000
0.024034 0.524034 0.000000
0.025448 0.525448 0.000000
0.026861 0.526861 0.000000
0.028275 0.528275 0.000000
0.029689 0.529689 0.000000
0.031103 0.531103 0.000000
0.032516 0.532516 0.000000
0.033930 0.533930 0.000000
0.035344 0.535344 0.000000
0.036758 0.536758 0.000000
0.038172 0.538172 0.000000
0.039585 0.539585 0.000000
0.040999 0.540999 0.000000
0.042413 0.542413 0.000000
0.043827 0.543827 0.000000
0.045240 0.545240 0.000000
0.046654 0.546654 0.000000
0.048068 0.548068 0.000000
0.049482 0.549482 0.000000
0.050895 0.550895 0.000000
0.052309 0.552309 0.000000
0.053723 0.553723 0.000000
0.055137 0.555137 0.000000
0.056550 0.556550 0.000000
0.057964 0.557964 0.000000
0.059378 0.559378 0.000000
0.060792 0.560792 0.000000
0.062205 0.562205 0.000000
0.063619 0.563619 0.000000
0.065033 0.565033 0.000000
0.066447 0.566447 0.000000
0.067861 0.567861 0.000000
0.069274 0.569274 0.000000
0.070688 0.570688 0.000000
0.072102 0.572102 0.000000
0.073516 0.573516 0.000000
0.074929 0.574929 0.000000
0.076343 0.576343 0.000000
0.077757 0.577757 0.000000
0.079171 0.579171 0.000000
0.080584 0.580584 0.000000
0.081998 0.581998 0.000000
0.083412 0.583412 0.000000
0.084826 0.584826 0.000000
0.086239 0.586239 0.000000
0.087653 0.587653 0.000000
0.089067 0.589067 0.000000
0.090481 0.590481 0.000000
0.091894 0.591894 0.000000
0.093308 0.593308 0.000000
0.094722 0.594722 0.000000
0.096136 0.596136 0.000000
0.097549 0.597549 0.000000
0.098963 0.598963 0.000000
0.100377 0.600377 0.000000
0.101791 0.601791 0.000000
0.103205 0.603205 0.000000
0.104618 0.604618 0.000000
0.106032 0.606032 0.000000
0.107446 0.607446 0.000000
0.108860 0.608860 0.000000
0.110273 0.610273 0.000000
0.111687 0.611687 0.000000
0.113101 0.613101 0.000000
0.114515 0.614515 0.000000
0.115928 0.615928 0.000000
0.117342 0.617342 0.000000
0.118756 0.618756 0.000000
0.120170 0.620170 0.000000
0.121583 0.621583 0.000000
0.122997 0.622997 0.000000
0.124411 0.624411 0.000000
0.125825 0.625825 0.000000
0.127238 0.627238 0.000000
0.128652 0.628652 0.000000
0.130066 0.630066 0.000000
0.131480 0.631480 0.000000
0.132893 0.632893 0.000000
0.134307 0.634307 0.000000
0.135721 0.635721 0.000000
0.137135 0.637135 0.000000
0.138549 0.638549 0.000000
0.139962 0.639962 0.000000
0.141376 0.641376 0.000000
0.142790 0.642790 0.000000
0.144204 0.644204 0.000000
0.145617 0.645617 0.000000
0.147031 0.647031 0.000000
0.148445 0.648445 0.000000
0.149859 0.649859 0.000000
0.151272 0.651272 0.000000
0.152686 0.652686 0.000000
0.154100 0.654100 0.000000
0.155514 0.655514 0.000000
0.156927 0.656927 0.000000
0.158341 0.658341 0.000000
0.159755 0.659755 0.000000
0.161169 0.661169 0.000000
0.162582 0.662582 0.000000
0.163996 0.663996 0.000000
0.165410 0.665410 0.000000
0.166824 0.666824 0.000000
0.168238 0.668238 0.000000
0.169651 0.669651 0.000000
0.171065 0.671065 0.000000
0.172479 0.672479 0.000000
0.173893 0.673893 0.000000
0.175306 0.675306 0.000000
0.176720 0.676720 0.000000
0.178134 0.678134 0.000000
0.179548 0.679548 0.000000
0.180961 0.680961 0.000000
0.182375 0.682375 0.000000
0.183789 0.683789 0.000000
0.185203 0.685203 0.000000
0.186616 0.686616 0.000000
0.188030 0.688030 0.000000
0.189444 0.689444 0.000000
0.190858 0.690858 0.000000
0.192271 0.692271 0.000000
0.193685 0.693685 0.000000
0.195099 0.695099 0.000000
0.196513 0.696513 0.000000
0.197926 0.697926 0.000000
0.199340 0.699340 0.000000
0.200754 0.700754 0.000000
0.202168 0.702168 0.000000
0.203582 0.703582 0.000000
0.204995 0.704995 0.000000
0.206409 0.706409 0.000000
0.207823 0.707823 0.000000
0.209237 0.709237 0.000000
0.210650 0.710650 0.000000
0.212064 0.712064 0.000000
0.213478 0.713478 0.000000
0.214892 0.714892 0.000000
0.216305 0.716305 0.000000
0.217719 0.717719 0.000000
0.219133 0.719133 0.000000
0.220547 0.720547 0.000000
0.221960 0.721960 0.000000
0.223374 0.723374 0.000000
0.224788 0.724788 0.000000
0.226202 0.726202 0.000000
0.227615 0.727615 0.000000
0.229029 0.729029 0.000000
0.230443 0.730443 0.000000
0.231857 0.731857 0.000000
0.233270 0.733270 0.000000
0.234684 0.734684 0.000000
0.236098 0.736098 0.000000
0.237512 0.737512 0.000000
0.238926 0.738926 0.000000
0.240339 0.740339 0.000000
0.241753 0.741753 0.000000
0.243167 0.743167 0.000000
0.244581 0.744581 0.000000
0.245994 0.745994 0.000000
0.247408 0.747408 0.000000
0.248822 0.748822 0.000000
0.250236 0.750236 0.000000
0.251649 0.751649 0.000000
0.253063 0.753063 0.000000
0.254477 0.754477 0.000000
0.255891 0.755891 0.000000
0.257304 0.757304 0.000000
0.258718 0.758718 0.000000
0.260132 0.760132 0.000000
0.261546 0.761546 0.000000
0.262959 0.762959 0.000000
0.264373 0.764373 0.000000
0.265787 0.765787 0.000000
0.267201 0.767201 0.000000
0.268615 0.768615 0.000000
0.270028 0.770028 0.000000
0.271442 0.771442 0.000000
0.272856 0.772856 0.000000
0.274270 0.774270 0.000000
0.275683 0.775683 0.000000
0.277097 0.777097 0.000000
0.278511 0.778511 0.000000
0.279925 0.779925 0.000000
0.281338 0.781338 0.000000
0.282752 0.782752 0.000000
0.284166 0.784166 0.000000
0.285580 0.785580 0.000000
0.286993 0.786993 0.000000
0.288407 0.788407 0.000000
0.289821 0.789821 0.000000
0.291235 0.791235 0.000000
0.292648 0.792648 0.000000
0.294062 0.794062 0.000000
0.295476 0.795476 0.000000
0.296890 0.796890 0.000000
0.298303 0.798303 0.000000
0.299717 0.799717 0.000000
0.301131 0.801131 0.000000
0.302545 0.802545 0.000000
0.303959 0.803959 0.000000
0.305372 0.805372 0.000000
0.306786 0.806786 0.000000
0.308200 0.808200 0.000000
0.309614 0.809614 0.000000
0.311027 0.811027 0.000000
0.312441 0.812441 0.000000
0.313855 0.813855 0.000000
0.315269 0.815269 0.000000
0.316682 0.816682 0.000000
0.318096 0.818096 0.000000
0.319510 0.819510 0.000000
0.320924 0.820924 0.000000
0.322337 0.822337 0.000000
0.323751 0.823751 0.000000
0.325165 0.825165 0.000000
0.326579 0.826579 0.000000
0.327992 0.827992 0.000000
0.329406 0.829406 0.000000
0.330820 0.830820 0.000000
0.332234 0.832234 0.000000
0.333648 0.833648 0.000000
0.335061 0.835061 0.000000
0.336475 0.836475 0.000000
0.337889 0.837889 0.000000
0.339303 0.839303 0.000000
0.340716 0.840716 0.000000
[...]
POINT_DATA 20431
SCALARS UX float 1
LOOKUP_TABLE default
-0.000000
0.000000
0.100539
-0.104868
-0.082010
0.050630
0.101225
-0.000000
-0.000000
0.000000
-0.000000
0.068566
0.089776
0.098031
0.101042
0.102126
0.102433
0.102398
0.102275
0.102130
0.101986
0.101864
0.101758
0.101669
0.101595
0.101533
0.101482
0.101439
0.101404
0.101374
0.101349
0.101328
0.101310
0.101295
0.101282
0.101272
0.101263
0.101255
0.101248
0.101243
0.101238
0.101234
0.101231
0.101228
0.101222
0.101219
0.101214
0.101208
0.101201
0.101191
0.101178
0.101161
0.101141
0.101114
0.101080
0.101038
0.100988
0.100929
0.100857
0.100781
0.100703
0.100622
0.100564
0.059422
0.018323
-0.022753
-0.063813
-0.104865
-0.104866
-0.104884
-0.104937
-0.105028
-0.105143
-0.105267
-0.105365
-0.105387
-0.105309
-0.105125
-0.104809
-0.104336
-0.103723
-0.102981
-0.102130
-0.101183
-0.100160
-0.099090
-0.097988
-0.096877
-0.095768
-0.094688
-0.093623
-0.092607
-0.091641
-0.090719
-0.089858
-0.089051
-0.088301
-0.087607
-0.086964
-0.086375
-0.085835
-0.085341
-0.084891
-0.084481
-0.084109
-0.083771
-0.083464
-0.083188
-0.082938
-0.082711
-0.082508
-0.082324
-0.082159
-0.081854
-0.081637
-0.081335
-0.080916
-0.080327
-0.079501
-0.078298
-0.076575
-0.074029
-0.070059
-0.063923
-0.054221
-0.037066
-0.081981
-0.081952
-0.081921
-0.081890
-0.081859
-0.081827
-0.081794
-0.081761
-0.081727
-0.081692
-0.081657
-0.081622
-0.081585
-0.081549
-0.081512
-0.081474
-0.081435
-0.081397
-0.081357
-0.081318
-0.081277
-0.081237
-0.081195
-0.081154
-0.081111
-0.081069
-0.081025
-0.080982
-0.080938
-0.080893
-0.080848
-0.080803
-0.080757
-0.080710
-0.080664
-0.080617
-0.080569
-0.080521
-0.080473
-0.080424
-0.080375
-0.080325
-0.080275
-0.080225
-0.080174
-0.080123
-0.080072
-0.080020
-0.079968
-0.079915
-0.079862
-0.079809
-0.079755
-0.079701
-0.079646
-0.079591
-0.079536
-0.079481
-0.079425
-0.079369
-0.079313
-0.079256
-0.079199
-0.079142
-0.079084
-0.079026
-0.078968
-0.078909
-0.078851
-0.078791
-0.078732
-0.078672
-0.078612
-0.078551
-0.078491
-0.078429
-0.078368
-0.078306
-0.078244
-0.078181
-0.078119
-0.078056
-0.077992
-0.077928
-0.077864
-0.077800
-0.077735
-0.077671
-0.077606
-0.077540
-0.077474
-0.077408
-0.077342
-0.077275
-0.077208
-0.077141
-0.077073
-0.077006
-0.076937
-0.076869
-0.076800
-0.076731
-0.076662
-0.076592
-0.076522
-0.076452
-0.076381
-0.076311
-0.076239
-0.076168
-0.076096
-0.076024
-0.075952
-0.075879
-0.075806
-0.075733
-0.075659
-0.075585
-0.075511
-0.075437
-0.075362
-0.075287
-0.075212
-0.075136
-0.075060
-0.074984
-0.074907
-0.074830
-0.074753
-0.074676
-0.074598
-0.074521
-0.074442
-0.074364
-0.074285
-0.074206
-0.074127
-0.074047
-0.073967
-0.073887
-0.073807
-0.073726
-0.073645
-0.073563
-0.073482
-0.073400
-0.073318
-0.073235
-0.073153
-0.073070
-0.072986
-0.072903
-0.072819
-0.072735
-0.072651
-0.072566
-0.072481
-0.072396
-0.072310
-0.072225
-0.072139
-0.072052
-0.071966
-0.071879
-0.071792
-0.071705
-0.071617
-0.071529
-0.071441
-0.071353
-0.071264
-0.071175
-0.071086
-0.070997
-0.070907
-0.070817
-0.070727
-0.070637
-0.070546
-0.070455
-0.070364
-0.070273
-0.070181
-0.070089
-0.069997
-0.069905
-0.069813
-0.069720
-0.069627
-0.069534
-0.069440
-0.069347
-0.069253
-0.069158
-0.069064
-0.068969
-0.068875
-0.068779
-0.068684
-0.068589
-0.068493
-0.068397
-0.068301
-0.068204
-0.068107
-0.068010
-0.067913
-0.067816
-0.067718
-0.067620
-0.067522
-0.067424
-0.067326
-0.067227
-0.067128
-0.067029
-0.066929
-0.066830
-0.066730
-0.066630
-0.066530
-0.066429
-0.066328
-0.066228
-0.066127
-0.066025
-0.065924
-0.065822
-0.065720
-0.065618
-0.065516
-0.065413
-0.065310
-0.065207
-0.065104
-0.065001
-0.064897
-0.064793
-0.064689
-0.064585
-0.064481
-0.064376
-0.064271
-0.064166
-0.064061
-0.063955
-0.063850
-0.063744
-0.063638
-0.063532
-0.063425
-0.063319
-0.063212
-0.063105
-0.062998
-0.062890
-0.062783
-0.062675
-0.062567
-0.062459
-0.062351
-0.062242
-0.062133
-0.062024
-0.061915
-0.061806
-0.061696
-0.061587
-0.061477
-0.061367
-0.061256
-0.061146
-0.061035
-0.060925
-0.060814
-0.060702
-0.060591
-0.060479
-0.060368
-0.060256
-0.060144
-0.060031
-0.059919
-0.059806
-0.059693
-0.059580
-0.059467
-0.059354
-0.059240
-0.059126
-0.059012
-0.058898
-0.058784
-0.058670
-0.058555
-0.058440
-0.058325
-0.058210
-0.058095
-0.057979
-0.057864
-0.057748
-0.057632
-0.057516
-0.057399
-0.057283
-0.057166
-0.057049
-0.056932
-0.056815
-0.056698
-0.056580
-0.056463
-0.056345
-0.056227
-0.056109
-0.055990
-0.055872
-0.055753
-0.055634
-0.055515
-0.055396
-0.055277
-0.055158
-0.055038
-0.054918
-0.054798
-0.054678
-0.054558
-0.054438
-0.054317
-0.054197
-0.054076
-0.053955
-0.053834
-0.053712
-0.053591
-0.053469
-0.053348
-0.053226
-0.053104
-0.052981
-0.052859
-0.052736
-0.052614
-0.052491
-0.052368
-0.052245
-0.052122
-0.051998
-0.051875
-0.051751
-0.051627
-0.051503
-0.051379
-0.051255
-0.051130
-0.051006
-0.050881
-0.050756
-0.050631
-0.050506
-0.050381
-0.050255
-0.050130
-0.050004
-0.049878
-0.049752
-0.049626
-0.049500
-0.049373
-0.049247
-0.049120
-0.048993
-0.048866
-0.048739
-0.048612
-0.048484
-0.048357
-0.048229
-0.048101
-0.047973
-0.047845
-0.047717
-0.047589
-0.047460
-0.047331
-0.047203
-0.047074
-0.046945
-0.046816
-0.046686
-0.046557
-0.046427
-0.046298
-0.046168
-0.046038
-0.045908
-0.045778
-0.045647
-0.045517
-0.045386
-0.045256
-0.045125
-0.044994
-0.044863
-0.044731
-0.044600
-0.044468
-0.044337
-0.044205
-0.044073
-0.043941
-0.043809
-0.043677
-0.043545
-0.043412
-0.043280
-0.043147
-0.043014
-0.042881
-0.042748
-0.042615
-0.042481
-0.042348
-0.042214
-0.042081
-0.041947
-0.041813
-0.041679
-0.041545
-0.041410
-0.041276
-0.041142
-0.041007
-0.040872
-0.040737
-0.040602
-0.040467
-0.040332
-0.040197
-0.040061
-0.039926
-0.039790
-0.039655
-0.039519
-0.039383
-0.039247
-0.039110
-0.038974
-0.038838
-0.038701
-0.038565
-0.038428
-0.038291
-0.038154
-0.038017
-0.037880
-0.037743
-0.037605
-0.037468
-0.037330
-0.037193
-0.037055
-0.036917
-0.036779
-0.036641
-0.036503
-0.036365
-0.036226
-0.036088
-0.035949
-0.035811
-0.035672
-0.035533
-0.035394
-0.035255
-0.035116
-0.034977
-0.034838
-0.034698
-0.034559
-0.034419
-0.034279
-0.034140
-0.034000
-0.033860
-0.033720
-0.033580
-0.033439
-0.033299
-0.033159
-0.033018
-0.032877
-0.032737
-0.032596
-0.032455
-0.032314
-0.032173
-0.032032
-0.031891
-0.031750
-0.031608
-0.031467
-0.031325
-0.031183
-0.031042
-0.030900
-0.030758
-0.030616
-0.030474
-0.030332
-0.030190
-0.030047
-0.029905
-0.029763
-0.029620
-0.029477
-0.029335
-0.029192
-0.029049
-0.028906
-0.028763
-0.028620
-0.028477
-0.028334
-0.028190
-0.028047
-0.027904
-0.027760
-0.027616
-0.027473
-0.027329
-0.027185
-0.027041
-0.026897
-0.026753
-0.026609
-0.026465
-0.026321
-0.026177
-0.026032
-0.025888
-0.025743
-0.025599
-0.025454
-0.025309
-0.025165
-0.025020
-0.024875
-0.024730
-0.024585
-0.024440
-0.024295
-0.024150
-0.024004
-0.023859
-0.023714
-0.023568
-0.023423
-0.023277
-0.023132
-0.022986
-0.022840
-0.022694
-0.022548
-0.022403
-0.022257
-0.022111
-0.021964
-0.021818
-0.021672
-0.021526
-0.021380
-0.021233
-0.021087
-0.020940
-0.020794
-0.020647
-0.020501
-0.020354
-0.020207
-0.020061
-0.019914
-0.019767
-0.019620
-0.019473
-0.019326
-0.019179
-0.019032
-0.018885
-0.018738
-0.018590
-0.018443
-0.018296
-0.018149
-0.018001
-0.017854
-0.017706
-0.017559
-0.017411
-0.017263
-0.017116
-0.016968
-0.016820
-0.016673
-0.016525
-0.016377
-0.016229
-0.016081
-0.015933
-0.015785
-0.015637
-0.015489
-0.015341
-0.015193
-0.015045
-0.014896
-0.014748
-0.014600
-0.014451
-0.014303
-0.014155
-0.014006
-0.013858
-0.013709
-0.013561
-0.013412
-0.013264
-0.013115
-0.012966
-0.012818
-0.012669
-0.012520
-0.012371
-0.012223
-0.012074
-0.011925
-0.011776
-0.011627
-0.011478
-0.011329
-0.011180
-0.011031
-0.010882
-0.010733
-0.010584
-0.010435
-0.010286
-0.010137
-0.009988
-0.009838
-0.009689
-0.009540
-0.009391
-0.009241
-0.009092
-0.008943
-0.008793
-0.008644
-0.008495
-0.008345
-0.008196
-0.008046
-0.007897
-0.007747
-0.007598
-0.007448
-0.007299
-0.007149
-0.007000
-0.006850
-0.006701
-0.006551
-0.006401
-0.006252
-0.006102
-0.005952
-0.005803
-0.005653
-0.005503
-0.005354
-0.005204
-0.005054
-0.004904
-0.004755
-0.004605
-0.004455
-0.004305
-0.004155
-0.004006
-0.003856
-0.003706
-0.003556
-0.003406
-0.003256
-0.003106
-0.002957
-0.002807
-0.002657
-0.002507
-0.002357
-0.002207
-0.002057
-0.001907
-0.001757
-0.001607
-0.001457
-0.001307
-0.001157
-0.001007
-0.000857
-0.000707
-0.000558
-0.000408
-0.000258
-0.000108
0.000042
0.000192
0.000342
0.000492
0.000642
0.000792
0.000942
0.001092
0.001242
0.001392
0.001542
0.001692
0.001842
0.001992
0.002142
0.002292
0.002442
0.002592
0.002742
0.002892
0.003042
0.003192
0.003342
0.003492
0.003642
0.003792
0.003942
0.004092
0.004242
0.004392
0.004542
0.004692
0.004842
0.004991
0.005141
0.005291
0.005441
0.005591
0.005741
0.005891
0.006041
0.006191
0.006340
0.006490
0.006640
0.006790
0.006940
0.007090
0.007239
0.007389
0.007539
0.007689
0.007839
0.007988
0.008138
0.008288
0.008438
0.008587
0.008737
0.008887
0.009036
0.009186
0.009336
0.009485
0.009635
0.009785
0.009934
0.010084
0.010233
0.010383
0.010532
0.010682
0.010832
0.010981
0.011131
0.011280
0.011430
0.011579
0.011729
0.011878
0.012027
0.012177
0.012326
0.012476
0.012625
0.012774
0.012924
0.013073
0.013222
0.013372
0.013521
0.013670
0.013819
0.013969
0.014118
0.014267
0.014416
0.014565
0.014715
0.014864
0.015013
0.015162
0.015311
0.015460
0.015609
0.015758
0.015907
0.016056
0.016205
0.016354
0.016503
0.016652
0.016801
0.016950
0.017099
0.017248
0.017396
0.017545
0.017694
0.017843
0.017992
0.018140
0.018289
0.018438
0.018586
0.018735
0.018884
0.019032
0.019181
0.019330
0.019478
0.019627
0.019775
0.019924
0.020072
0.020221
0.020369
0.020518
0.020666
0.020814
0.020963
0.021111
0.021259
0.021408
0.021556
0.021704
0.021853
0.022001
0.022149
0.022297
0.022445
0.022593
0.022742
0.022890
0.023038
0.023186
0.023334
0.023482
0.023630
0.023778
0.023926
0.024074
0.024222
0.024369
0.024517
0.024665
0.024813
0.024961
0.025109
0.025256
0.025404
0.025552
0.025699
0.025847
0.025995
0.026142
0.026290
0.026437
0.026585
0.026733
0.026880
0.027028
0.027175
0.027322
0.027470
0.027617
0.027765
0.027912
0.028059
0.028207
0.028354
0.028501
0.028648
0.028796
0.028943
0.029090
0.029237
0.029384
0.029531
0.029678
0.029825
0.029972
0.030119
0.030266
0.030413
0.030560
0.030707
0.030854
0.031001
0.031148
0.031294
0.031441
0.031588
0.031735
0.031882
0.032028
0.032175
0.032322
0.032468
0.032615
0.032761
0.032908
0.033055
0.033201
0.033348
0.033494
0.033640
0.033787
0.033933
0.034080
0.034226
0.034372
0.034519
0.034665
0.034811
0.034958
0.035104
0.035250
0.035396
0.035542
0.035689
0.035835
0.035981
0.036127
0.036273
0.036419
0.036565
0.036711
0.036857
0.037003
0.037149
0.037295
0.037440
0.037586
0.037732
0.037878
0.038024
0.038169
0.038315
0.038461
0.038607
0.038752
0.038898
0.039044
0.039189
0.039335
0.039480
0.039626
0.039771
0.039917
0.040062
0.040208
0.040353
0.040499
0.040644
0.040790
0.040935
0.041080
0.041226
0.041371
0.041516
0.041661
0.041807
0.041952
0.042097
0.042242
0.042387
0.042533
0.042678
0.042823
0.042968
0.043113
0.043258
0.043403
0.043548
0.043693
0.043838
0.043983
0.044128
0.044273
0.044417
0.044562
0.044707
0.044852
0.044997
0.045142
0.045286
0.045431
0.045576
0.045720
0.045865
0.046010
0.046155
0.046299
0.046444
0.046588
0.046733
0.046878
0.047022
0.047167
0.047311
0.047456
0.047600
0.047745
0.047889
0.048033
0.048178
0.048322
0.048467
0.048611
0.048755
0.048900
0.049044
0.049188
0.049332
0.049477
0.049621
0.049765
0.049909
0.050054
0.050198
0.050342
0.050486
0.050774
0.050918
0.051062
0.051206
0.051350
0.051494
0.051638
0.051782
0.051925
0.052069
0.052213
0.052357
0.052501
0.052644
0.052788
0.052932
0.053076
0.053219
0.053363
0.053507
0.053650
0.053794
0.053938
0.054081
0.054225
0.054369
0.054512
0.054656
0.054799
0.054943
0.055086
0.055230
0.055373
0.055517
0.055660
0.055804
0.055947
0.056091
0.056234
0.056378
0.056521
0.056664
0.056808
0.056951
0.057095
0.057238
0.057381
0.057525
0.057668
0.057811
0.057954
0.058098
0.058241
0.058384
0.058528
0.058671
0.058814
0.058957
0.059100
0.059244
0.059387
0.059530
0.059673
0.059816
0.059959
0.060102
0.060246
0.060389
0.060532
0.060675
0.060818
0.060961
0.061104
0.061247
0.061390
0.061533
0.061676
0.061819
0.061962
0.062105
0.062248
0.062391
0.062534
0.062677
0.062820
0.062963
0.063106
0.063249
0.063392
0.063535
0.063678
0.063820
0.063963
0.064106
0.064249
0.064392
0.064535
0.064678
0.064821
0.064963
0.065106
0.065249
0.065392
0.065535
0.065677
0.065820
0.065963
0.066106
0.066249
0.066391
0.066534
0.066677
0.066820
0.066962
0.067105
0.067248
0.067391
0.067533
0.067676
0.067819
0.067961
0.068104
0.068247
0.068389
0.068532
0.068675
0.068818
0.068960
0.069103
0.069246
0.069388
0.069531
0.069674
0.069816
0.069959
0.070101
0.070244
0.070387
0.070529
0.070672
0.070815
0.070957
0.071100
0.071242
0.071385
0.071528
0.071670
0.071813
0.071955
0.072098
0.072241
0.072383
0.072526
0.072668
0.072811
0.072954
0.073096
0.073239
0.073381
0.073524
0.073666
0.073809
0.073951
0.074094
0.074237
0.074379
0.074522
0.074664
0.074807
0.074949
0.075092
0.075234
0.075377
0.075520
0.075662
0.075805
0.075947
0.076090
0.076232
0.076375
0.076517
0.076660
0.076802
0.076945
0.077088
0.077230
0.077373
0.077515
0.077658
0.077800
0.077943
0.078085
0.078228
0.078371
0.078513
0.078656
0.078798
0.078941
0.079083
0.079226
0.079368
0.079511
0.079654
0.079796
0.079939
0.080081
0.080224
0.080366
0.080509
0.080651
0.080794
0.080937
0.081079
0.081222
0.081364
0.081507
0.081649
0.081792
0.081935
0.082077
0.082220
0.082362
0.082505
0.082648
0.082790
0.082933
0.083075
0.083218
0.083361
0.083503
0.083646
0.083789
0.083931
0.084074
0.084216
0.084359
0.084502
0.084644
0.084787
0.084930
0.085072
0.085215
0.085358
0.085500
0.085643
0.085786
0.085928
0.086071
0.086214
0.086356
0.086499
0.086642
0.086784
0.086927
0.087070
0.087213
0.087355
0.087498
0.087641
0.087783
0.087926
0.088069
0.088212
0.088354
0.088497
0.088640
0.088783
0.088925
0.089068
0.089211
0.089354
0.089496
0.089639
0.089782
0.089925
0.090068
0.090210
0.090353
0.090496
0.090639
0.090782
0.090925
0.091067
0.091210
0.091353
0.091496
0.091639
0.091782
0.091925
0.092068
0.092210
0.092353
0.092496
0.092639
0.092782
0.092925
0.093068
0.093211
0.093354
0.093497
0.093640
0.093783
0.093926
0.094069
0.094211
0.094354
0.094497
0.094640
0.094783
0.094926
0.095069
0.095212
0.095355
0.095499
0.095642
0.095785
0.095928
0.096071
0.096214
0.096357
0.096500
0.096643
0.096786
0.096929
0.097072
0.097215
0.097358
0.097502
0.097645
0.097788
0.097931
0.098074
0.098217
0.098360
0.098504
0.098647
0.098790
0.098933
0.099076
0.099220
0.099363
0.099506
0.099649
0.099792
0.099936
0.100079
0.100222
0.100365
0.100509
0.100652
0.100795
0.100938
0.101082
0.072034
0.072104
0.071883
0.064413
0.064519
0.064620
-0.052066
-0.051990
-0.052210
-0.052303
-0.027412
0.081844
0.082102
0.082156
0.082312
0.069135
0.068905
0.068978
-0.027955
-0.027805
-0.027986
-0.027723
-0.075617
-0.075724
-0.075459
-0.075493
-0.028893
-0.028782
-0.028675
0.028251
0.028024
0.028152
0.028228
-0.047333
-0.048572
-0.057217
-0.058950
0.019966
0.019740
0.019829
0.019808
-0.022031
-0.022503
-0.022100
-0.022120
0.052455
0.052023
0.051581
0.053012
-0.075958
-0.075870
-0.075609
0.024556
0.024528
0.024794
0.024915
0.001228
-0.004661
-0.003252
-0.008133
0.012094
0.012416
0.012543
-0.040398
-0.038497
-0.040480
-0.006669
-0.006523
-0.006882
-0.006722
0.063711
0.064473
0.064397
0.065183
-0.001665
-0.001147
-0.001362
-0.000622
0.021420
0.021647
0.021242
0.021755
0.019959
0.020122
0.019837
0.020255
-0.010859
-0.010896
-0.011094
-0.011210
0.071494
0.071397
0.071130
-0.030043
-0.030463
-0.030172
0.012114
0.071032
0.070768
0.070760
0.071157
0.032728
0.032986
0.032867
-0.000499
-0.000444
-0.000661
0.032968
0.019743
0.019018
0.018758
-0.000270
0.037804
0.037643
0.037301
0.059414
0.059669
0.059374
0.059783
0.036631
0.036775
0.036518
0.036866
0.037211
-0.065282
-0.065578
-0.065426
0.084203
0.083961
0.084361
-0.065709
-0.045614
-0.045806
-0.045991
-0.045436
-0.036752
-0.036582
-0.037185
-0.036767
-0.020563
-0.021004
-0.020686
0.010782
0.011031
0.010716
0.010939
-0.021073
0.032883
0.033071
0.032730
-0.034895
-0.035240
-0.034915
-0.038149
-0.038614
-0.038976
0.033065
0.065476
0.065540
0.065227
-0.058258
-0.058162
-0.058040
0.070137
0.070409
0.070427
0.070185
0.041282
0.040898
0.041052
0.040490
0.001283
-0.000721
0.001336
0.000827
0.031025
0.031851
0.029671
0.033105
-0.055052
-0.054890
-0.055372
-0.054570
0.095286
0.095098
-0.079360
-0.078691
-0.078309
-0.077570
-0.051447
-0.050103
-0.047022
-0.055363
0.098450
0.098524
0.098865
-0.059346
-0.054625
-0.059656
-0.059992
-0.058744
0.067957
0.067907
0.067560
0.026620
0.026482
0.026805
0.026701
0.001937
0.001340
0.001768
-0.076812
-0.076780
-0.077208
-0.076854
0.098584
0.098018
0.098755
0.097840
0.084364
0.084616
0.084884
0.067466
0.040634
0.040350
0.040057
0.039833
-0.009043
-0.008878
-0.008685
-0.009171
-0.016291
-0.017233
-0.019834
0.086127
0.086051
0.085314
0.085614
-0.021814
-0.021265
-0.023908
-0.022782
0.039914
0.039944
0.039683
0.023178
0.023973
0.030649
0.016858
-0.067960
-0.068313
-0.067208
-0.069542
0.090918
0.091130
0.020680
0.020651
0.020800
0.040169
0.002581
0.003633
0.004349
0.004925
-0.037052
-0.037420
-0.037260
-0.037231
-0.035926
-0.041442
-0.039679
-0.036111
-0.008315
-0.007889
-0.008625
-0.008529
-0.044599
-0.043204
-0.042166
-0.041067
0.089599
0.090096
0.090416
0.089575
-0.040993
-0.040930
-0.040801
-0.084923
-0.088535
-0.085052
-0.085410
-0.072162
-0.072366
-0.072401
-0.013309
-0.013361
-0.027908
-0.027948
-0.029707
-0.026314
0.037393
0.035156
0.035463
0.032982
0.005234
0.014369
0.013167
0.011701
0.048975
0.049161
0.047770
0.047771
0.079876
0.078020
0.078641
0.079740
-0.034273
-0.034140
-0.035256
-0.035464
-0.029057
-0.028934
-0.028762
-0.029320
0.054658
0.055517
0.054867
0.055404
0.053865
0.053772
0.054814
-0.006776
-0.006515
-0.006455
-0.006762
0.094431
0.093378
0.094347
0.071087
-0.017965
-0.019951
-0.018947
-0.018824
0.078687
0.078761
0.078295
0.078471
0.015193
0.015473
0.015265
0.015592
0.037404
0.037840
-0.010230
-0.009479
-0.008839
-0.008297
-0.002693
-0.002664
-0.000190
-0.005235
-0.001036
-0.000881
-0.000767
0.087779
0.087478
0.087447
-0.052606
-0.052765
-0.051997
-0.051939
-0.000700
-0.044792
-0.041904
-0.044073
0.080070
0.080443
0.081053
0.081414
0.074876
0.074718
0.074690
0.074438
0.035501
0.034718
0.034516
0.036249
0.030630
0.030367
0.030247
0.030667
0.030472
0.030801
0.039186
0.038027
0.038783
-0.005393
-0.005621
-0.005349
0.022270
0.019284
0.026362
-0.005458
0.050963
0.051552
0.049742
0.043307
0.043639
0.043622
0.043406
0.064819
0.064874
0.064483
-0.045077
-0.040044
0.065152
0.061524
0.061424
0.061260
0.061181
-0.035479
-0.035338
-0.035541
0.079037
0.021285
0.021394
0.020732
0.020626
-0.064533
-0.062474
-0.063228
-0.061522
0.025917
0.025881
0.025653
0.026143
-0.042737
-0.041963
-0.043912
-0.041643
-0.051866
-0.052952
-0.048750
-0.055759
0.055276
0.055151
0.055527
-0.044795
-0.044411
-0.045404
0.028491
0.028423
0.027405
0.026733
0.069111
0.057276
0.056994
0.057268
0.042960
0.044390
0.043188
0.044177
-0.010804
-0.011976
-0.012234
0.056987
0.060461
0.060927
0.060469
0.030427
0.031111
0.031445
0.032132
0.037666
0.035200
-0.021418
-0.022197
-0.021127
-0.022893
-0.059422
-0.062249
-0.062253
-0.057837
-0.044962
-0.045642
0.018620
0.018479
0.019560
0.060718
-0.013138
-0.010747
-0.009814
-0.013762
0.029957
0.032906
0.044945
0.045110
0.044994
-0.044563
-0.043924
-0.043720
0.045267
-0.035867
-0.035804
-0.035636
0.063518
0.063224
0.063396
0.063102
-0.023723
-0.023615
-0.023514
-0.041938
-0.048512
0.011340
0.011276
0.011132
0.067524
0.067469
0.067303
0.067216
0.045148
0.045322
0.045442
0.016403
0.015496
0.015254
0.013944
0.043706
0.043479
0.043576
0.043338
0.038130
0.038242
0.038025
0.060292
0.060493
0.060607
0.043679
0.043392
0.045046
0.060700
-0.054431
-0.054436
-0.054202
0.042252
0.032478
0.031804
0.032793
0.045093
-0.057913
-0.057819
-0.057969
0.022738
0.017821
0.019818
-0.054664
0.056695
0.056706
0.057023
0.081270
0.081383
0.081123
0.081271