# vtk DataFile Version 2.0
Test
ASCII
DATASET POLYDATA
POINTS 20431 float
0.000000 0.000000 0.000000
2.000000 0.000000 0.000000
2.000000 4.000000 0.000000
0.000000 4.000000 0.000000
0.000000 0.500000 0.000000
1.500000 2.000000 0.000000
2.000000 2.500000 0.000000
0.400000 0.000000 0.000000
0.800000 0.000000 0.000000
1.200000 0.000000 0.000000
1.600000 0.000000 0.000000
2.000000 0.362557 0.000000
2.000000 0.672798 0.000000
2.000000 0.938272 0.000000
2.000000 1.165439 0.000000
2.000000 1.359826 0.000000
2.000000 1.526163 0.000000
2.000000 1.668499 0.000000
2.000000 1.790295 0.000000
2.000000 1.894517 0.000000
2.000000 1.983700 0.000000
2.000000 2.060013 0.000000
2.000000 2.125315 0.000000
2.000000 2.181194 0.000000
2.000000 2.229010 0.000000
2.000000 2.269926 0.000000
2.000000 2.304938 0.000000
2.000000 2.334898 0.000000
2.000000 2.360534 0.000000
2.000000 2.382472 0.000000
2.000000 2.401244 0.000000
2.000000 2.417307 0.000000
2.000000 2.431052 0.000000
2.000000 2.442814 0.000000
2.000000 2.452878 0.000000
2.000000 2.461491 0.000000
2.000000 2.468860 0.000000
2.000000 2.475167 0.000000
2.000000 2.480563 0.000000
2.000000 2.485180 0.000000
2.000000 2.489132 0.000000
2.000000 2.492513 0.000000
2.000000 2.495406 0.000000
2.000000 2.497882 0.000000
2.000000 2.502286 0.000000
2.000000 2.505266 0.000000
2.000000 2.509150 0.000000
2.000000 2.514212 0.000000
2.000000 2.520809 0.000000
2.000000 2.529407 0.000000
2.000000 2.540613 0.000000
2.000000 2.555218 0.000000
2.000000 2.574253 0.000000
2.000000 2.599061 0.000000
2.000000 2.631395 0.000000
2.000000 2.673536 0.000000
2.000000 2.728460 0.000000
2.000000 2.800043 0.000000
2.000000 2.893339 0.000000
2.000000 3.014933 0.000000
2.000000 3.173410 0.000000
2.000000 3.379956 0.000000
2.000000 3.649152 0.000000
1.600000 4.000000 0.000000
1.200000 4.000000 0.000000
0.800000 4.000000 0.000000
0.400000 4.000000 0.000000
0.000000 3.624996 0.000000
0.000000 3.289970 0.000000
0.000000 2.990661 0.000000
0.000000 2.723261 0.000000
0.000000 2.484368 0.000000
0.000000 2.270943 0.000000
0.000000 2.080271 0.000000
0.000000 1.909926 0.000000
0.000000 1.757741 0.000000
0.000000 1.621780 0.000000
0.000000 1.500314 0.000000
0.000000 1.391797 0.000000
0.000000 1.294849 0.000000
0.000000 1.208237 0.000000
0.000000 1.130858 0.000000
0.000000 1.061728 0.000000
0.000000 0.999968 0.000000
0.000000 0.944792 0.000000
0.000000 0.895499 0.000000
0.000000 0.851460 0.000000
0.000000 0.812117 0.000000
0.000000 0.776968 0.000000
0.000000 0.745565 0.000000
0.000000 0.717511 0.000000
0.000000 0.692448 0.000000
0.000000 0.670056 0.000000
0.000000 0.650052 0.000000
0.000000 0.632180 0.000000
0.000000 0.616213 0.000000
0.000000 0.601949 0.000000
0.000000 0.589205 0.000000
0.000000 0.577820 0.000000
0.000000 0.567649 0.000000
0.000000 0.558562 0.000000
0.000000 0.550444 0.000000
0.000000 0.543191 0.000000
0.000000 0.536712 0.000000
0.000000 0.530923 0.000000
0.000000 0.525751 0.000000
0.000000 0.521131 0.000000
0.000000 0.517003 0.000000
0.000000 0.513315 0.000000
0.000000 0.510021 0.000000
0.000000 0.507078 0.000000
0.000000 0.504448 0.000000
0.000000 0.502099 0.000000
0.000000 0.497804 0.000000
0.000000 0.494785 0.000000
0.000000 0.490633 0.000000
0.000000 0.484924 0.000000
0.000000 0.477074 0.000000
0.000000 0.466279 0.000000
0.000000 0.451436 0.000000
0.000000 0.431025 0.000000
0.000000 0.402959 0.000000
0.000000 0.364366 0.000000
0.000000 0.311297 0.000000
0.000000 0.238324 0.000000
0.000000 0.137980 0.000000
0.001414 0.501414 0.000000
0.002828 0.502828 0.000000
0.004241 0.504241 0.000000
0.005655 0.505655 0.000000
0.007069 0.507069 0.000000
0.008483 0.508483 0.000000
0.009896 0.509896 0.000000
0.011310 0.511310 0.000000
0.012724 0.512724 0.000000
0.014138 0.514138 0.000000
0.015551 0.515551 0.000000
0.016965 0.516965 0.000000
0.018379 0.518379 0.000000
0.019793 0.519793 0.000000
0.021206 0.521206 0.000000
0.022620 0.522620 0.000000
0.024034 0.524034 0.000000
0.025448 0.525448 0.000000
0.026861 0.526861 0.000000
0.028275 0.528275 0.000000
0.029689 0.529689 0.000000
0.031103 0.531103 0.000000
0.032516 0.532516 0.000000
0.033930 0.533930 0.000000
0.035344 0.535344 0.000000
0.036758 0.536758 0.000000
0.038172 0.538172 0.000000
0.039585 0.539585 0.000000
0.040999 0.540999 0.000000
0.042413 0.542413 0.000000
0.043827 0.543827 0.000000
0.045240 0.545240 0.000000
0.046654 0.546654 0.000000
0.048068 0.548068 0.000000
0.049482 0.549482 0.000000
0.050895 0.550895 0.000000
0.052309 0.552309 0.000000
0.053723 0.553723 0.000000
0.055137 0.555137 0.000000
0.056550 0.556550 0.000000
0.057964 0.557964 0.000000
0.059378 0.559378 0.000000
0.060792 0.560792 0.000000
0.062205 0.562205 0.000000
0.063619 0.563619 0.000000
0.065033 0.565033 0.000000
0.066447 0.566447 0.000000
0.067861 0.567861 0.000000
0.069274 0.569274 0.000000
0.070688 0.570688 0.000000
0.072102 0.572102 0.000000
0.073516 0.573516 0.000000
0.074929 0.574929 0.000000
0.076343 0.576343 0.000000
0.077757 0.577757 0.000000
0.079171 0.579171 0.000000
0.080584 0.580584 0.000000
0.081998 0.581998 0.000000
0.083412 0.583412 0.000000
0.084826 0.584826 0.000000
0.086239 0.586239 0.000000
0.087653 0.587653 0.000000
0.089067 0.589067 0.000000
0.090481 0.590481 0.000000
0.091894 0.591894 0.000000
0.093308 0.593308 0.000000
0.094722 0.594722 0.000000
0.096136 0.596136 0.000000
0.097549 0.597549 0.000000
0.098963 0.598963 0.000000
0.100377 0.600377 0.000000
0.101791 0.601791 0.000000
0.103205 0.603205 0.000000
0.104618 0.604618 0.000000
0.106032 0.606032 0.000000
0.107446 0.607446 0.000000
0.108860 0.608860 0.000000
0.110273 0.610273 0.000000
0.111687 0.611687 0.000000
0.113101 0.613101 0.000000
0.114515 0.614515 0.000000
0.115928 0.615928 0.000000
0.117342 0.617342 0.000000
0.118756 0.618756 0.000000
0.120170 0.620170 0.000000
0.121583 0.621583 0.000000
0.122997 0.622997 0.000000
0.124411 0.624411 0.000000
0.125825 0.625825 0.000000
0.127238 0.627238 0.000000
0.128652 0.628652 0.000000
0.130066 0.630066 0.000000
0.131480 0.631480 0.000000
0.132893 0.632893 0.000000
0.134307 0.634307 0.000000
0.135721 0.635721 0.000000
0.137135 0.637135 0.000000
0.138549 0.638549 0.000000
0.139962 0.639962 0.000000
0.141376 0.641376 0.000000
0.142790 0.642790 0.000000
0.144204 0.644204 0.000000
0.145617 0.645617 0.000000
0.147031 0.647031 0.000000
0.148445 0.648445 0.000000
0.149859 0.649859 0.000000
0.151272 0.651272 0.000000
0.152686 0.652686 0.000000
0.154100 0.654100 0.000000
0.155514 0.655514 0.000000
0.156927 0.656927 0.000000
0.158341 0.658341 0.000000
0.159755 0.659755 0.000000
0.161169 0.661169 0.000000
0.162582 0.662582 0.000000
0.163996 0.663996 0.000000
0.165410 0.665410 0.000000
0.166824 0.666824 0.000000
0.168238 0.668238 0.000000
0.169651 0.669651 0.000000
0.171065 0.671065 0.000000
0.172479 0.672479 0.000000
0.173893 0.673893 0.000000
0.175306 0.675306 0.000000
0.176720 0.676720 0.000000
0.178134 0.678134 0.000000
0.179548 0.679548 0.000000
0.180961 0.680961 0.000000
0.182375 0.682375 0.000000
0.183789 0.683789 0.000000
0.185203 0.685203 0.000000
0.186616 0.686616 0.000000
0.188030 0.688030 0.000000
0.189444 0.689444 0.000000
0.190858 0.690858 0.000000
0.192271 0.692271 0.000000
0.193685 0.693685 0.000000
0.195099 0.695099 0.000000
0.196513 0.696513 0.000000
0.197926 0.697926 0.000000
0.199340 0.699340 0.000000
0.200754 0.700754 0.000000
0.202168 0.702168 0.000000
0.203582 0.703582 0.000000
0.204995 0.704995 0.000000
0.206409 0.706409 0.000000
0.207823 0.707823 0.000000
0.209237 0.709237 0.000000
0.210650 0.710650 0.000000
0.212064 0.712064 0.000000
0.213478 0.713478 0.000000
0.214892 0.714892 0.000000
0.216305 0.716305 0.000000
0.217719 0.717719 0.000000
0.219133 0.719133 0.000000
0.220547 0.720547 0.000000
0.221960 0.721960 0.000000
0.223374 0.723374 0.000000
0.224788 0.724788 0.000000
0.226202 0.726202 0.000000
0.227615 0.727615 0.000000
0.229029 0.729029 0.000000
0.230443 0.730443 0.000000
0.231857 0.731857 0.000000
0.233270 0.733270 0.000000
0.234684 0.734684 0.000000
0.236098 0.736098 0.000000
0.237512 0.737512 0.000000
0.238926 0.738926 0.000000
0.240339 0.740339 0.000000
0.241753 0.741753 0.000000
0.243167 0.743167 0.000000
0.244581 0.744581 0.000000
0.245994 0.745994 0.000000
0.247408 0.747408 0.000000
0.248822 0.748822 0.000000
0.250236 0.750236 0.000000
0.251649 0.751649 0.000000
0.253063 0.753063 0.000000
0.254477 0.754477 0.000000
0.255891 0.755891 0.000000
0.257304 0.757304 0.000000
0.258718 0.758718 0.000000
0.260132 0.760132 0.000000
0.261546 0.761546 0.000000
0.262959 0.762959 0.000000
0.264373 0.764373 0.000000
0.265787 0.765787 0.000000
0.267201 0.767201 0.000000
0.268615 0.768615 0.000000
0.270028 0.770028 0.000000
0.271442 0.771442 0.000000
0.272856 0.772856 0.000000
0.274270 0.774270 0.000000
0.275683 0.775683 0.000000
0.277097 0.777097 0.000000
0.278511 0.778511 0.000000
0.279925 0.779925 0.000000
0.281338 0.781338 0.000000
0.282752 0.782752 0.000000
0.284166 0.784166 0.000000
0.285580 0.785580 0.000000
0.286993 0.786993 0.000000
0.288407 0.788407 0.000000
0.289821 0.789821 0.000000
0.291235 0.791235 0.000000
0.292648 0.792648 0.000000
0.294062 0.794062 0.000000
0.295476 0.795476 0.000000
0.296890 0.796890 0.000000
0.298303 0.798303 0.000000
0.299717 0.799717 0.000000
0.301131 0.801131 0.000000
0.302545 0.802545 0.000000
0.303959 0.803959 0.000000
0.305372 0.805372 0.000000
0.306786 0.806786 0.000000
0.308200 0.808200 0.000000
0.309614 0.809614 0.000000
0.311027 0.811027 0.000000
0.312441 0.812441 0.000000
0.313855 0.813855 0.000000
0.315269 0.815269 0.000000
0.316682 0.816682 0.000000
0.318096 0.818096 0.000000
0.319510 0.819510 0.000000
0.320924 0.820924 0.000000
0.322337 0.822337 0.000000
0.323751 0.823751 0.000000
0.325165 0.825165 0.000000
0.326579 0.826579 0.000000
0.327992 0.827992 0.000000
0.329406 0.829406 0.000000
0.330820 0.830820 0.000000
0.332234 0.832234 0.000000
0.333648 0.833648 0.000000
0.335061 0.835061 0.000000
0.336475 0.836475 0.000000
0.337889 0.837889 0.000000
0.339303 0.839303 0.000000
0.340716 0.840716 0.000000
[...]
POINT_DATA 20431
SCALARS UX float 1
LOOKUP_TABLE default
-0.000000
0.000000
-0.001921
-0.006448
-0.002491
-0.000461
-0.000868
-0.000000
-0.000000
0.000000
-0.000000
0.001691
0.002275
0.002566
0.002709
0.002762
0.002715
0.002555
0.002272
0.001896
0.001462
0.001048
0.000682
0.000378
0.000133
-0.000061
-0.000214
-0.000337
-0.000434
-0.000514
-0.000578
-0.000630
-0.000673
-0.000709
-0.000739
-0.000763
-0.000784
-0.000802
-0.000816
-0.000829
-0.000839
-0.000848
-0.000856
-0.000862
-0.000873
-0.000881
-0.000891
-0.000903
-0.000920
-0.000940
-0.000966
-0.000999
-0.001041
-0.001090
-0.001150
-0.001222
-0.001306
-0.001399
-0.001503
-0.001610
-0.001711
-0.001816
-0.001888
-0.002950
-0.003907
-0.004782
-0.005617
-0.006375
-0.006227
-0.006029
-0.005838
-0.005701
-0.005634
-0.005646
-0.005714
-0.005827
-0.005953
-0.006083
-0.006203
-0.006309
-0.006398
-0.006469
-0.006524
-0.006565
-0.006594
-0.006614
-0.006625
-0.006630
-0.006629
-0.006625
-0.006617
-0.006605
-0.006589
-0.006570
-0.006550
-0.006530
-0.006508
-0.006485
-0.006455
-0.006415
-0.006362
-0.006287
-0.006203
-0.006139
-0.006123
-0.006096
-0.006036
-0.005975
-0.005867
-0.005742
-0.004938
-0.004600
-0.004238
-0.002079
-0.001975
-0.001868
-0.001817
-0.001745
-0.001689
-0.001632
-0.001573
-0.001509
-0.001427
-0.001304
-0.001111
-0.000764
-0.002437
-0.003040
-0.003029
-0.003016
-0.003060
-0.003035
-0.002935
-0.002884
-0.002930
-0.002983
-0.003025
-0.003020
-0.002960
-0.003472
-0.003499
-0.003398
-0.002702
-0.003228
-0.003331
-0.003312
-0.003323
-0.003299
-0.003417
-0.003426
-0.003382
-0.003359
-0.003380
-0.003387
-0.003159
-0.003407
-0.003368
-0.003410
-0.003526
-0.003528
-0.003480
-0.003550
-0.003590
-0.003535
-0.003591
-0.003552
-0.003573
-0.003578
-0.003636
-0.003625
-0.003637
-0.003633
-0.003658
-0.003656
-0.003662
-0.003668
-0.003592
-0.003557
-0.003529
-0.003505
-0.003597
-0.003600
-0.003585
-0.003549
-0.003530
-0.003516
-0.003484
-0.003601
-0.003577
-0.003675
-0.003360
-0.003316
-0.003302
-0.003330
-0.003351
-0.003337
-0.003546
-0.003610
-0.003792
-0.003651
-0.003543
-0.003319
-0.003752
-0.003843
-0.003796
-0.003774
-0.003770
-0.003737
-0.003680
-0.003689
-0.003728
-0.003741
-0.003719
-0.003714
-0.003733
-0.003810
-0.003778
-0.003783
-0.003789
-0.003811
-0.003821
-0.003775
-0.003752
-0.003724
-0.003772
-0.003745
-0.003773
-0.003795
-0.003835
-0.003844
-0.003819
-0.003779
-0.003805
-0.003798
-0.003825
-0.003813
-0.003778
-0.003799
-0.003833
-0.003839
-0.003801
-0.003773
-0.003748
-0.003570
-0.003663
-0.003666
-0.003673
-0.003673
-0.003667
-0.003750
-0.003682
-0.003678
-0.003626
-0.003704
-0.003638
-0.003625
-0.003700
-0.003747
-0.003797
-0.003622
-0.003598
-0.003549
-0.003641
-0.003575
-0.003430
-0.003521
-0.003530
-0.003578
-0.003573
-0.003542
-0.003285
-0.003342
-0.003307
-0.003304
-0.003385
-0.003262
-0.003386
-0.003364
-0.003385
-0.003499
-0.003355
-0.003358
-0.003393
-0.003362
-0.003301
-0.003307
-0.003328
-0.003318
-0.003316
-0.003295
-0.003307
-0.003305
-0.003304
-0.003265
-0.003222
-0.003256
-0.003313
-0.003336
-0.003380
-0.003685
-0.003684
-0.003641
-0.003621
-0.003657
-0.003653
-0.003642
-0.003631
-0.003693
-0.003672
-0.003629
-0.003655
-0.003666
-0.003198
-0.003279
-0.003253
-0.003201
-0.003234
-0.003597
-0.003644
-0.003734
-0.003760
-0.003738
-0.003709
-0.003680
-0.003880
-0.004044
-0.004038
-0.004059
-0.004039
-0.004000
-0.003977
-0.003997
-0.004060
-0.003999
-0.003976
-0.004041
-0.003992
-0.003971
-0.003942
-0.003999
-0.003992
-0.003965
-0.003835
-0.003776
-0.003823
-0.003819
-0.003737
-0.003734
-0.003684
-0.003666
-0.003677
-0.003655
-0.003588
-0.003582
-0.003566
-0.003581
-0.003627
-0.003597
-0.003547
-0.003537
-0.003601
-0.003571
-0.003751
-0.003680
-0.003662
-0.003748
-0.003697
-0.003649
-0.003633
-0.003675
-0.003629
-0.003222
-0.003243
-0.003222
-0.003217
-0.003202
-0.003181
-0.003185
-0.003178
-0.003273
-0.003735
-0.003248
-0.003170
-0.003200
-0.003206
-0.003261
-0.003297
-0.003321
-0.003244
-0.003295
-0.003397
-0.003388
-0.003429
-0.003398
-0.003366
-0.003333
-0.003347
-0.003278
-0.003329
-0.003305
-0.003306
-0.003303
-0.003285
-0.003267
-0.003410
-0.003422
-0.003407
-0.003450
-0.003472
-0.003446
-0.003418
-0.003428
-0.003472
-0.003433
-0.003434
-0.003269
-0.002904
-0.002499
-0.002798
-0.002857
-0.002864
-0.002857
-0.002824
-0.002800
-0.002797
-0.002813
-0.002808
-0.002836
-0.002822
-0.002793
-0.002813
-0.002839
-0.002864
-0.002809
-0.002965
-0.002778
-0.003136
-0.003115
-0.003091
-0.003088
-0.003081
-0.003122
-0.003094
-0.003029
-0.003142
-0.003196
-0.003178
-0.003211
-0.003209
-0.003243
-0.003239
-0.003253
-0.003229
-0.003278
-0.003271
-0.003320
-0.003243
-0.003234
-0.003257
-0.003261
-0.003287
-0.003281
-0.003231
-0.003229
-0.003219
-0.003218
-0.003179
-0.003164
-0.003172
-0.003089
-0.003125
-0.003130
-0.003133
-0.003124
-0.003137
-0.003089
-0.003132
-0.003143
-0.003147
-0.003196
-0.003166
-0.003148
-0.003125
-0.003118
-0.003066
-0.003137
-0.003153
-0.003128
-0.003101
-0.003122
-0.003111
-0.003114
-0.003143
-0.003158
-0.003106
-0.003129
-0.003189
-0.003148
-0.003056
-0.003109
-0.003131
-0.003042
-0.003056
-0.003068
-0.003040
-0.003005
-0.003005
-0.002961
-0.002941
-0.002850
-0.002894
-0.002951
-0.002982
-0.003002
-0.002992
-0.002929
-0.002976
-0.003005
-0.002962
-0.002931
-0.002916
-0.002934
-0.002941
-0.002961
-0.002951
-0.002924
-0.002917
-0.002914
-0.002917
-0.002924
-0.002872
-0.002909
-0.002897
-0.002892
-0.002899
-0.002862
-0.002883
-0.002815
-0.002863
-0.002849
-0.002819
-0.002787
-0.002768
-0.002786
-0.002736
-0.002735
-0.002700
-0.002714
-0.002651
-0.002687
-0.002650
-0.002657
-0.002682
-0.002652
-0.002599
-0.002561
-0.002578
-0.002526
-0.002513
-0.002549
-0.002529
-0.002484
-0.002536
-0.002513
-0.002534
-0.002652
-0.002657
-0.002661
-0.002642
-0.002614
-0.002624
-0.002655
-0.002641
-0.002614
-0.002635
-0.002670
-0.002470
-0.002526
-0.002540
-0.002551
-0.002556
-0.002524
-0.003427
-0.003460
-0.003463
-0.003460
-0.002400
-0.002382
-0.002429
-0.002385
-0.002436
-0.002395
-0.002407
-0.002372
-0.002462
-0.002659
-0.002639
-0.002633
-0.002666
-0.002503
-0.002554
-0.002563
-0.002558
-0.002558
-0.002601
-0.002590
-0.002580
-0.002528
-0.002525
-0.002552
-0.002597
-0.002664
-0.002619
-0.002578
-0.002570
-0.002585
-0.002124
-0.002050
-0.002009
-0.002108
-0.002081
-0.002060
-0.002014
-0.003137
-0.002429
-0.002444
-0.002467
-0.002465
-0.002478
-0.002425
-0.002466
-0.002458
-0.002447
-0.002441
-0.002432
-0.002472
-0.002373
-0.002463
-0.002555
-0.002572
-0.002530
-0.002509
-0.002522
-0.002581
-0.002570
-0.002566
-0.002594
-0.002542
-0.002513
-0.002489
-0.002487
-0.002481
-0.002458
-0.002430
-0.002435
-0.002411
-0.002394
-0.002442
-0.002415
-0.002445
-0.002456
-0.002593
-0.002558
-0.002560
-0.002561
-0.002561
-0.002555
-0.002570
-0.002570
-0.002511
-0.002483
-0.002501
-0.002512
-0.002523
-0.002604
-0.002593
-0.002587
-0.002580
-0.002462
-0.001898
-0.001991
-0.002007
-0.001932
-0.001889
-0.001829
-0.001918
-0.001873
-0.001877
-0.001857
-0.002049
-0.002145
-0.002119
-0.002150
-0.002114
-0.002121
-0.002116
-0.002134
-0.002131
-0.002099
-0.002119
-0.002031
-0.002091
-0.002097
-0.002134
-0.002109
-0.002227
-0.002229
-0.002250
-0.002211
-0.002194
-0.002187
-0.002171
-0.002164
-0.002486
-0.002507
-0.002462
-0.002452
-0.002479
-0.002447
-0.002455
-0.002421
-0.002450
-0.002467
-0.002323
-0.002349
-0.002345
-0.002324
-0.002302
-0.002324
-0.002287
-0.002243
-0.002207
-0.002200
-0.002210
-0.002181
-0.002143
-0.002128
-0.002064
-0.002083
-0.002080
-0.002101
-0.002109
-0.002086
-0.002057
-0.002099
-0.002103
-0.002061
-0.002002
-0.001988
-0.001997
-0.001967
-0.001957
-0.001955
-0.001950
-0.001948
-0.001852
-0.001841
-0.001820
-0.001850
-0.001840
-0.001787
-0.001777
-0.001759
-0.001767
-0.001417
-0.001381
-0.001348
-0.001401
-0.001408
-0.001354
-0.001572
-0.001552
-0.001530
-0.001525
-0.001549
-0.001566
-0.001526
-0.001463
-0.001496
-0.001534
-0.001515
-0.001465
-0.001443
-0.001493
-0.001501
-0.001464
-0.001375
-0.001479
-0.001496
-0.001513
-0.001480
-0.001987
-0.002049
-0.001965
-0.001990
-0.001945
-0.001891
-0.001824
-0.001835
-0.001836
-0.001788
-0.001744
-0.001738
-0.001781
-0.001843
-0.001861
-0.001637
-0.001728
-0.001693
-0.001671
-0.001687
-0.001720
-0.001693
-0.001718
-0.001689
-0.001672
-0.001638
-0.001663
-0.001658
-0.001647
-0.001673
-0.001659
-0.001649
-0.001645
-0.001675
-0.001636
-0.001624
-0.001576
-0.001531
-0.001580
-0.001559
-0.001515
-0.001509
-0.001463
-0.001460
-0.001466
-0.001420
-0.001879
-0.001893
-0.001863
-0.001831
-0.001801
-0.001825
-0.001795
-0.001738
-0.001803
-0.001777
-0.001737
-0.001742
-0.001770
-0.001738
-0.001705
-0.001713
-0.001617
-0.001689
-0.001684
-0.001689
-0.001728
-0.001739
-0.001653
-0.001585
-0.001564
-0.001590
-0.001626
-0.001618
-0.001613
-0.001605
-0.001577
-0.001552
-0.001549
-0.001535
-0.001498
-0.001456
-0.001458
-0.001480
-0.001398
-0.001402
-0.001397
-0.001341
-0.001377
-0.001373
-0.001399
-0.001396
-0.001344
-0.001539
-0.001487
-0.001463
-0.001467
-0.001439
-0.001407
-0.001422
-0.001411
-0.001397
-0.001473
-0.001420
-0.001422
-0.001457
-0.001419
-0.001436
-0.001416
-0.001302
-0.001349
-0.001266
-0.001309
-0.001368
-0.001339
-0.001285
-0.001296
-0.001276
-0.001286
-0.001252
-0.001116
-0.001086
-0.001079
-0.001231
-0.001207
-0.001191
-0.001174
-0.001189
-0.001206
-0.001143
-0.001181
-0.001144
-0.001094
-0.001265
-0.001254
-0.001201
-0.001377
-0.001541
-0.001507
-0.001479
-0.001523
-0.001565
-0.001493
-0.001524
-0.001546
-0.001557
-0.001589
-0.001687
-0.001711
-0.001266
-0.001868
-0.001300
-0.001469
-0.001364
-0.001353
-0.001333
-0.001344
-0.001343
-0.001199
-0.001155
-0.001170
-0.001150
-0.001108
-0.001169
-0.001153
-0.001191
-0.001190
-0.001161
-0.001183
-0.001195
-0.001199
-0.001210
-0.001451
-0.001431
-0.001365
-0.001140
-0.001350
-0.001306
-0.001280
-0.001007
-0.001372
-0.001299
-0.001266
-0.001214
-0.001214
-0.001237
-0.001220
-0.001222
-0.001168
-0.000854
-0.000823
-0.000807
-0.000798
-0.000815
-0.000805
-0.000755
-0.000731
-0.000742
-0.000717
-0.000764
-0.000778
-0.000781
-0.000805
-0.000333
-0.001130
-0.001116
-0.001122
-0.001084
-0.001067
-0.001030
-0.001048
-0.001058
-0.001047
-0.001018
-0.000999
-0.001003
-0.000950
-0.000999
-0.001020
-0.000983
-0.000936
-0.000919
-0.000807
-0.000936
-0.000960
-0.000920
-0.000883
-0.000863
-0.000875
-0.001438
-0.001389
-0.001393
-0.001386
-0.001346
-0.001366
-0.001354
-0.001351
-0.001352
-0.001067
-0.001060
-0.001046
-0.001031
-0.001011
-0.000973
-0.000940
-0.000963
-0.000944
-0.001093
-0.001074
-0.001104
-0.001098
-0.001107
-0.001069
-0.001065
-0.001041
-0.001012
-0.001023
-0.001056
-0.001011
-0.000987
-0.001007
-0.001117
-0.001134
-0.001134
-0.001139
-0.001104
-0.001079
-0.001081
-0.001112
-0.001050
-0.000998
-0.001014
-0.001036
-0.001016
-0.000961
-0.000928
-0.000934
-0.000803
-0.000793
-0.000778
-0.000729
-0.000855
-0.000854
-0.000832
-0.000790
-0.000789
-0.000842
-0.000825
-0.000766
-0.000773
-0.000786
-0.001035
-0.001046
-0.001125
-0.001049
-0.000976
-0.000920
-0.000925
-0.001038
-0.001039
-0.001019
-0.000998
-0.000990
-0.000989
-0.000992
-0.000959
-0.000962
-0.000944
-0.000936
-0.000912
-0.000759
-0.000803
-0.000774
-0.000777
-0.000760
-0.000740
-0.000728
-0.000719
-0.000701
-0.000708
-0.000710
-0.000700
-0.000679
-0.000676
-0.000675
-0.000659
-0.000667
-0.000630
-0.000637
-0.000605
-0.000701
-0.000732
-0.000694
-0.000689
-0.000676
-0.000669
-0.000670
-0.000670
-0.000639
-0.000692
-0.000679
-0.000699
-0.000696
-0.000657
-0.000681
-0.000713
-0.000689
-0.000696
-0.000689
-0.000701
-0.000712
-0.000686
-0.000708
-0.000684
-0.000677
-0.000655
-0.000653
-0.000635
-0.000630
-0.000619
-0.000629
-0.000592
-0.000579
-0.000611
-0.000599
-0.000574
-0.000540
-0.000575
-0.000559
-0.000537
-0.000525
-0.000535
-0.000527
-0.000531
-0.000527
-0.000543
-0.000518
-0.000515
-0.000489
-0.000489
-0.000483
-0.000477
-0.000498
-0.000474
-0.000483
-0.000473
-0.000460
-0.000438
-0.000425
-0.000527
-0.000510
-0.000494
-0.000530
-0.000507
-0.000490
-0.000466
-0.000469
-0.000473
-0.000478
-0.000483
-0.000489
-0.000496
-0.000502
-0.000508
-0.000515
-0.000521
-0.000528
-0.000534
-0.000540
-0.000546
-0.000552
-0.000557
-0.000562
-0.000567
-0.000572
-0.000577
-0.000581
-0.000586
-0.000590
-0.000594
-0.000598
-0.000602
-0.000606
-0.000610
-0.000613
-0.000617
-0.000620
-0.000624
-0.000627
-0.000630
-0.000633
-0.000636
-0.000639
-0.000641
-0.000644
-0.000647
-0.000649
-0.000652
-0.000655
-0.000658
-0.000661
-0.000664
-0.000667
-0.000669
-0.000672
-0.000674
-0.000677
-0.000679
-0.000681
-0.000684
-0.000686
-0.000688
-0.000690
-0.000692
-0.000694
-0.000695
-0.000697
-0.000699
-0.000701
-0.000703
-0.000704
-0.000706
-0.000708
-0.000709
-0.000711
-0.000712
-0.000714
-0.000715
-0.000717
-0.000718
-0.000720
-0.000721
-0.000722
-0.000724
-0.000725
-0.000727
-0.000728
-0.000729
-0.000730
-0.000732
-0.000733
-0.000734
-0.000736
-0.000737
-0.000738
-0.000739
-0.000741
-0.000742
-0.000743
-0.000744
-0.000745
-0.000747
-0.000748
-0.000749
-0.000750
-0.000751
-0.000753
-0.000754
-0.000755
-0.000756
-0.000757
-0.000759
-0.000760
-0.000761
-0.000762
-0.000763
-0.000764
-0.000766
-0.000767
-0.000768
-0.000769
-0.000770
-0.000771
-0.000772
-0.000774
-0.000775
-0.000776
-0.000777
-0.000778
-0.000779
-0.000780
-0.000781
-0.000783
-0.000784
-0.000785
-0.000786
-0.000787
-0.000788
-0.000789
-0.000791
-0.000792
-0.000793
-0.000794
-0.000795
-0.000796
-0.000797
-0.000798
-0.000800
-0.000801
-0.000802
-0.000803
-0.000804
-0.000805
-0.000806
-0.000807
-0.000809
-0.000810
-0.000811
-0.000812
-0.000813
-0.000814
-0.000815
-0.000816
-0.000818
-0.000819
-0.000820
-0.000821
-0.000822
-0.000823
-0.000824
-0.000825
-0.000826
-0.000828
-0.000829
-0.000830
-0.000831
-0.000832
-0.000833
-0.000834
-0.000835
-0.000836
-0.000837
-0.000838
-0.000840
-0.000841
-0.000842
-0.000843
-0.000844
-0.000845
-0.000846
-0.000847
-0.000848
-0.000849
-0.000850
-0.000851
-0.000852
-0.000853
-0.000854
-0.000855
-0.000856
-0.000857
-0.000858
-0.000859
-0.000860
-0.000861
-0.000862
-0.000863
-0.000864
-0.000865
-0.000866
-0.000867
-0.000868
-0.000869
-0.000870
-0.000871
-0.000872
-0.000873
-0.000873
-0.000874
-0.000875
-0.000876
-0.000877
-0.000878
-0.000879
-0.000880
-0.000880
-0.000881
-0.000882
-0.000883
-0.000884
-0.000884
-0.000885
-0.000886
-0.000887
-0.000888
-0.000888
-0.000889
-0.000890
-0.000890
-0.000891
-0.000892
-0.000893
-0.000893
-0.000894
-0.000894
-0.000895
-0.000896
-0.000896
-0.000897
-0.000898
-0.000898
-0.000899
-0.000899
-0.000900
-0.000900
-0.000901
-0.000901
-0.000902
-0.000902
-0.000903
-0.000903
-0.000904
-0.000904
-0.000904
-0.000905
-0.000905
-0.000906
-0.000906
-0.000906
-0.000907
-0.000907
-0.000907
-0.000908
-0.000908
-0.000908
-0.000908
-0.000908
-0.000909
-0.000909
-0.000909
-0.000909
-0.000909
-0.000909
-0.000909
-0.000910
-0.000910
-0.000910
-0.000910
-0.000910
-0.000910
-0.000910
-0.000910
-0.000910
-0.000910
-0.000909
-0.000909
-0.000909
-0.000909
-0.000909
-0.000909
-0.000909
-0.000908
-0.000908
-0.000908
-0.000908
-0.000907
-0.000907
-0.000907
-0.000906
-0.000906
-0.000906
-0.000905
-0.000905
-0.000905
-0.000904
-0.000904
-0.000903
-0.000903
-0.000902
-0.000902
-0.000901
-0.000901
-0.000900
-0.000899
-0.000899
-0.000898
-0.000898
-0.000897
-0.000896
-0.000896
-0.000895
-0.000894
-0.000893
-0.000893
-0.000892
-0.000891
-0.000890
-0.000889
-0.000888
-0.000888
-0.000887
-0.000886
-0.000885
-0.000884
-0.000883
-0.000882
-0.000881
-0.000880
-0.000879
-0.000878
-0.000877
-0.000876
-0.000875
-0.000873
-0.000872
-0.000871
-0.000870
-0.000869
-0.000822
-0.000830
-0.000838
-0.000770
-0.000758
-0.000763
-0.005082
-0.005142
-0.005173
-0.005252
-0.003440
-0.000912
-0.000894
-0.000905
-0.000891
-0.000852
-0.000865
-0.000853
-0.003411
-0.003199
-0.003963
-0.003450
-0.005186
-0.005202
-0.004603
-0.004498
-0.003779
-0.003173
-0.003382
-0.002426
-0.002493
-0.002415
-0.002471
-0.004324
-0.004321
-0.004552
-0.004563
-0.001977
-0.002357
-0.001901
-0.002536
-0.004484
-0.004517
-0.004474
-0.004505
-0.001244
-0.001301
-0.001281
-0.001246
-0.005587
-0.005365
-0.004734
-0.002745
-0.002721
-0.002711
-0.002668
-0.003022
-0.003183
-0.003160
-0.003293
-0.003292
-0.003265
-0.003265
-0.004967
-0.004913
-0.004938
-0.003849
-0.003849
-0.003911
-0.003911
-0.001214
-0.001166
-0.001209
-0.001148
-0.003825
-0.003805
-0.003815
-0.003786
-0.002835
-0.002816
-0.002883
-0.002745
-0.002696
-0.002740
-0.002807
-0.002585
-0.003975
-0.004024
-0.004030
-0.004068
-0.000865
-0.000883
-0.000880
-0.004674
-0.004721
-0.004647
-0.003279
-0.000916
-0.000941
-0.000921
-0.000922
-0.002082
-0.001931
-0.002103
-0.003627
-0.003649
-0.003674
-0.001772
-0.002953
-0.002959
-0.002983
-0.003591
-0.002002
-0.002036
-0.002052
-0.000969
-0.000970
-0.000998
-0.000980
-0.001484
-0.001451
-0.001815
-0.001581
-0.002066
-0.005345
-0.005586
-0.005379
-0.000939
-0.000937
-0.000923
-0.005590
-0.005016
-0.005147
-0.005125
-0.005029
-0.004946
-0.004951
-0.004992
-0.004979
-0.004380
-0.004436
-0.004375
-0.003334
-0.003324
-0.003346
-0.003337
-0.004418
-0.002175
-0.002151
-0.002260
-0.004812
-0.004842
-0.004749
-0.005049
-0.005066
-0.005078
-0.002210
-0.000967
-0.000982
-0.000991
-0.004432
-0.003718
-0.003725
-0.000875
-0.000853
-0.000865
-0.000857
-0.001744
-0.001763
-0.001766
-0.001791
-0.003505
-0.003578
-0.003540
-0.003581
-0.002137
-0.002070
-0.002153
-0.002048
-0.005504
-0.005516
-0.005552
-0.005462
-0.000913
-0.000914
-0.006288
-0.006270
-0.006261
-0.006237
-0.004723
-0.004762
-0.004655
-0.004878
-0.000925
-0.000911
-0.000906
-0.004893
-0.004735
-0.005707
-0.005723
-0.005691
-0.000971
-0.000999
-0.000998
-0.002574
-0.002553
-0.002478
-0.002430
-0.003693
-0.003709
-0.003701
-0.005989
-0.006007
-0.006084
-0.006052
-0.000948
-0.000951
-0.000924
-0.000980
-0.000947
-0.000923
-0.000927
-0.001020
-0.001769
-0.001773
-0.001801
-0.001795
-0.003833
-0.003666
-0.003696
-0.003796
-0.004092
-0.004058
-0.004138
-0.000954
-0.000978
-0.000992
-0.001013
-0.004371
-0.004333
-0.004400
-0.004335
-0.001552
-0.001674
-0.001776
-0.003016
-0.002875
-0.002766
-0.003042
-0.005945
-0.005958
-0.005932
-0.005981
-0.000922
-0.000921
-0.002321
-0.001989
-0.001697
-0.001500
-0.003533
-0.003531
-0.003485
-0.003498
-0.004804
-0.004891
-0.004801
-0.004898
-0.004470
-0.004546
-0.004585
-0.004405
-0.004056
-0.004040
-0.004068
-0.004063
-0.005062
-0.005071
-0.005022
-0.005026
-0.000989
-0.000955
-0.000962
-0.000966
-0.004145
-0.003749
-0.003402
-0.006248
-0.006317
-0.006282
-0.006230
-0.004058
-0.004742
-0.004444
-0.003206
-0.003054
-0.004627
-0.004597
-0.004640
-0.004588
-0.001787
-0.001882
-0.001870
-0.001967
-0.003092
-0.002866
-0.002999
-0.002856
-0.001438
-0.001476
-0.001503
-0.001552
-0.001138
-0.001225
-0.001146
-0.001203
-0.004921
-0.004903
-0.004932
-0.004924
-0.004580
-0.004460
-0.004471
-0.004586
-0.001218
-0.001180
-0.001245
-0.001154
-0.001281
-0.001237
-0.001159
-0.003811
-0.003692
-0.003762
-0.003717
-0.001013
-0.001036
-0.000986
-0.000899
-0.004186
-0.004218
-0.004235
-0.004167
-0.000883
-0.000895
-0.000906
-0.000920
-0.003072
-0.003027
-0.003097
-0.003042
-0.002023
-0.001942
-0.004081
-0.004069
-0.004046
-0.004043
-0.003406
-0.003458
-0.003382
-0.003490
-0.003195
-0.002799
-0.003044
-0.000923
-0.000944
-0.000930
-0.005513
-0.005518
-0.005493
-0.005487
-0.002424
-0.004996
-0.004939
-0.004946
-0.001079
-0.001024
-0.001033
-0.000994
-0.000841
-0.000842
-0.000856
-0.000856
-0.002037
-0.002043
-0.002076
-0.001992
-0.002401
-0.002447
-0.002433
-0.002424
-0.002366
-0.002313
-0.001738
-0.001792
-0.001783
-0.003635
-0.003680
-0.003457
-0.002719
-0.002677
-0.002509
-0.003363
-0.001531
-0.001548
-0.001605
-0.001606
-0.001585
-0.001582
-0.001604
-0.000960
-0.000978
-0.000987
-0.004562
-0.004451
-0.000955
-0.000783
-0.000804
-0.000801
-0.000821
-0.004051
-0.004055
-0.004278
-0.001074
-0.002916
-0.002906
-0.002937
-0.002930
-0.005793
-0.005758
-0.005757
-0.005726
-0.002184
-0.002411
-0.002468
-0.002082
-0.005147
-0.005117
-0.005158
-0.005127
-0.005072
-0.005156
-0.005045
-0.005146
-0.000789
-0.000766
-0.000739
-0.005270
-0.005258
-0.005296
-0.002450
-0.002408
-0.002465
-0.002452
-0.000865
-0.000763
-0.000766