# vtk DataFile Version 2.0
Test
ASCII
DATASET POLYDATA
POINTS 20431 float
0.000000 0.000000 0.000000
2.000000 0.000000 0.000000
2.000000 4.000000 0.000000
0.000000 4.000000 0.000000
0.000000 0.500000 0.000000
1.500000 2.000000 0.000000
2.000000 2.500000 0.000000
0.400000 0.000000 0.000000
0.800000 0.000000 0.000000
1.200000 0.000000 0.000000
1.600000 0.000000 0.000000
2.000000 0.362557 0.000000
2.000000 0.672798 0.000000
2.000000 0.938272 0.000000
2.000000 1.165439 0.000000
2.000000 1.359826 0.000000
2.000000 1.526163 0.000000
2.000000 1.668499 0.000000
2.000000 1.790295 0.000000
2.000000 1.894517 0.000000
2.000000 1.983700 0.000000
2.000000 2.060013 0.000000
2.000000 2.125315 0.000000
2.000000 2.181194 0.000000
2.000000 2.229010 0.000000
2.000000 2.269926 0.000000
2.000000 2.304938 0.000000
2.000000 2.334898 0.000000
2.000000 2.360534 0.000000
2.000000 2.382472 0.000000
2.000000 2.401244 0.000000
2.000000 2.417307 0.000000
2.000000 2.431052 0.000000
2.000000 2.442814 0.000000
2.000000 2.452878 0.000000
2.000000 2.461491 0.000000
2.000000 2.468860 0.000000
2.000000 2.475167 0.000000
2.000000 2.480563 0.000000
2.000000 2.485180 0.000000
2.000000 2.489132 0.000000
2.000000 2.492513 0.000000
2.000000 2.495406 0.000000
2.000000 2.497882 0.000000
2.000000 2.502286 0.000000
2.000000 2.505266 0.000000
2.000000 2.509150 0.000000
2.000000 2.514212 0.000000
2.000000 2.520809 0.000000
2.000000 2.529407 0.000000
2.000000 2.540613 0.000000
2.000000 2.555218 0.000000
2.000000 2.574253 0.000000
2.000000 2.599061 0.000000
2.000000 2.631395 0.000000
2.000000 2.673536 0.000000
2.000000 2.728460 0.000000
2.000000 2.800043 0.000000
2.000000 2.893339 0.000000
2.000000 3.014933 0.000000
2.000000 3.173410 0.000000
2.000000 3.379956 0.000000
2.000000 3.649152 0.000000
1.600000 4.000000 0.000000
1.200000 4.000000 0.000000
0.800000 4.000000 0.000000
0.400000 4.000000 0.000000
0.000000 3.624996 0.000000
0.000000 3.289970 0.000000
0.000000 2.990661 0.000000
0.000000 2.723261 0.000000
0.000000 2.484368 0.000000
0.000000 2.270943 0.000000
0.000000 2.080271 0.000000
0.000000 1.909926 0.000000
0.000000 1.757741 0.000000
0.000000 1.621780 0.000000
0.000000 1.500314 0.000000
0.000000 1.391797 0.000000
0.000000 1.294849 0.000000
0.000000 1.208237 0.000000
0.000000 1.130858 0.000000
0.000000 1.061728 0.000000
0.000000 0.999968 0.000000
0.000000 0.944792 0.000000
0.000000 0.895499 0.000000
0.000000 0.851460 0.000000
0.000000 0.812117 0.000000
0.000000 0.776968 0.000000
0.000000 0.745565 0.000000
0.000000 0.717511 0.000000
0.000000 0.692448 0.000000
0.000000 0.670056 0.000000
0.000000 0.650052 0.000000
0.000000 0.632180 0.000000
0.000000 0.616213 0.000000
0.000000 0.601949 0.000000
0.000000 0.589205 0.000000
0.000000 0.577820 0.000000
0.000000 0.567649 0.000000
0.000000 0.558562 0.000000
0.000000 0.550444 0.000000
0.000000 0.543191 0.000000
0.000000 0.536712 0.000000
0.000000 0.530923 0.000000
0.000000 0.525751 0.000000
0.000000 0.521131 0.000000
0.000000 0.517003 0.000000
0.000000 0.513315 0.000000
0.000000 0.510021 0.000000
0.000000 0.507078 0.000000
0.000000 0.504448 0.000000
0.000000 0.502099 0.000000
0.000000 0.497804 0.000000
0.000000 0.494785 0.000000
0.000000 0.490633 0.000000
0.000000 0.484924 0.000000
0.000000 0.477074 0.000000
0.000000 0.466279 0.000000
0.000000 0.451436 0.000000
0.000000 0.431025 0.000000
0.000000 0.402959 0.000000
0.000000 0.364366 0.000000
0.000000 0.311297 0.000000
0.000000 0.238324 0.000000
0.000000 0.137980 0.000000
0.001414 0.501414 0.000000
0.002828 0.502828 0.000000
0.004241 0.504241 0.000000
0.005655 0.505655 0.000000
0.007069 0.507069 0.000000
0.008483 0.508483 0.000000
0.009896 0.509896 0.000000
0.011310 0.511310 0.000000
0.012724 0.512724 0.000000
0.014138 0.514138 0.000000
0.015551 0.515551 0.000000
0.016965 0.516965 0.000000
0.018379 0.518379 0.000000
0.019793 0.519793 0.000000
0.021206 0.521206 0.000000
0.022620 0.522620 0.000000
0.024034 0.524034 0.000000
0.025448 0.525448 0.000000
0.026861 0.526861 0.000000
0.028275 0.528275 0.000000
0.029689 0.529689 0.000000
0.031103 0.531103 0.000000
0.032516 0.532516 0.000000
0.033930 0.533930 0.000000
0.035344 0.535344 0.000000
0.036758 0.536758 0.000000
0.038172 0.538172 0.000000
0.039585 0.539585 0.000000
0.040999 0.540999 0.000000
0.042413 0.542413 0.000000
0.043827 0.543827 0.000000
0.045240 0.545240 0.000000
0.046654 0.546654 0.000000
0.048068 0.548068 0.000000
0.049482 0.549482 0.000000
0.050895 0.550895 0.000000
0.052309 0.552309 0.000000
0.053723 0.553723 0.000000
0.055137 0.555137 0.000000
0.056550 0.556550 0.000000
0.057964 0.557964 0.000000
0.059378 0.559378 0.000000
0.060792 0.560792 0.000000
0.062205 0.562205 0.000000
0.063619 0.563619 0.000000
0.065033 0.565033 0.000000
0.066447 0.566447 0.000000
0.067861 0.567861 0.000000
0.069274 0.569274 0.000000
0.070688 0.570688 0.000000
0.072102 0.572102 0.000000
0.073516 0.573516 0.000000
0.074929 0.574929 0.000000
0.076343 0.576343 0.000000
0.077757 0.577757 0.000000
0.079171 0.579171 0.000000
0.080584 0.580584 0.000000
0.081998 0.581998 0.000000
0.083412 0.583412 0.000000
0.084826 0.584826 0.000000
0.086239 0.586239 0.000000
0.087653 0.587653 0.000000
0.089067 0.589067 0.000000
0.090481 0.590481 0.000000
0.091894 0.591894 0.000000
0.093308 0.593308 0.000000
0.094722 0.594722 0.000000
0.096136 0.596136 0.000000
0.097549 0.597549 0.000000
0.098963 0.598963 0.000000
0.100377 0.600377 0.000000
0.101791 0.601791 0.000000
0.103205 0.603205 0.000000
0.104618 0.604618 0.000000
0.106032 0.606032 0.000000
0.107446 0.607446 0.000000
0.108860 0.608860 0.000000
0.110273 0.610273 0.000000
0.111687 0.611687 0.000000
0.113101 0.613101 0.000000
0.114515 0.614515 0.000000
0.115928 0.615928 0.000000
0.117342 0.617342 0.000000
0.118756 0.618756 0.000000
0.120170 0.620170 0.000000
0.121583 0.621583 0.000000
0.122997 0.622997 0.000000
0.124411 0.624411 0.000000
0.125825 0.625825 0.000000
0.127238 0.627238 0.000000
0.128652 0.628652 0.000000
0.130066 0.630066 0.000000
0.131480 0.631480 0.000000
0.132893 0.632893 0.000000
0.134307 0.634307 0.000000
0.135721 0.635721 0.000000
0.137135 0.637135 0.000000
0.138549 0.638549 0.000000
0.139962 0.639962 0.000000
0.141376 0.641376 0.000000
0.142790 0.642790 0.000000
0.144204 0.644204 0.000000
0.145617 0.645617 0.000000
0.147031 0.647031 0.000000
0.148445 0.648445 0.000000
0.149859 0.649859 0.000000
0.151272 0.651272 0.000000
0.152686 0.652686 0.000000
0.154100 0.654100 0.000000
0.155514 0.655514 0.000000
0.156927 0.656927 0.000000
0.158341 0.658341 0.000000
0.159755 0.659755 0.000000
0.161169 0.661169 0.000000
0.162582 0.662582 0.000000
0.163996 0.663996 0.000000
0.165410 0.665410 0.000000
0.166824 0.666824 0.000000
0.168238 0.668238 0.000000
0.169651 0.669651 0.000000
0.171065 0.671065 0.000000
0.172479 0.672479 0.000000
0.173893 0.673893 0.000000
0.175306 0.675306 0.000000
0.176720 0.676720 0.000000
0.178134 0.678134 0.000000
0.179548 0.679548 0.000000
0.180961 0.680961 0.000000
0.182375 0.682375 0.000000
0.183789 0.683789 0.000000
0.185203 0.685203 0.000000
0.186616 0.686616 0.000000
0.188030 0.688030 0.000000
0.189444 0.689444 0.000000
0.190858 0.690858 0.000000
0.192271 0.692271 0.000000
0.193685 0.693685 0.000000
0.195099 0.695099 0.000000
0.196513 0.696513 0.000000
0.197926 0.697926 0.000000
0.199340 0.699340 0.000000
0.200754 0.700754 0.000000
0.202168 0.702168 0.000000
0.203582 0.703582 0.000000
0.204995 0.704995 0.000000
0.206409 0.706409 0.000000
0.207823 0.707823 0.000000
0.209237 0.709237 0.000000
0.210650 0.710650 0.000000
0.212064 0.712064 0.000000
0.213478 0.713478 0.000000
0.214892 0.714892 0.000000
0.216305 0.716305 0.000000
0.217719 0.717719 0.000000
0.219133 0.719133 0.000000
0.220547 0.720547 0.000000
0.221960 0.721960 0.000000
0.223374 0.723374 0.000000
0.224788 0.724788 0.000000
0.226202 0.726202 0.000000
0.227615 0.727615 0.000000
0.229029 0.729029 0.000000
0.230443 0.730443 0.000000
0.231857 0.731857 0.000000
0.233270 0.733270 0.000000
0.234684 0.734684 0.000000
0.236098 0.736098 0.000000
0.237512 0.737512 0.000000
0.238926 0.738926 0.000000
0.240339 0.740339 0.000000
0.241753 0.741753 0.000000
0.243167 0.743167 0.000000
0.244581 0.744581 0.000000
0.245994 0.745994 0.000000
0.247408 0.747408 0.000000
0.248822 0.748822 0.000000
0.250236 0.750236 0.000000
0.251649 0.751649 0.000000
0.253063 0.753063 0.000000
0.254477 0.754477 0.000000
0.255891 0.755891 0.000000
0.257304 0.757304 0.000000
0.258718 0.758718 0.000000
0.260132 0.760132 0.000000
0.261546 0.761546 0.000000
0.262959 0.762959 0.000000
0.264373 0.764373 0.000000
0.265787 0.765787 0.000000
0.267201 0.767201 0.000000
0.268615 0.768615 0.000000
0.270028 0.770028 0.000000
0.271442 0.771442 0.000000
0.272856 0.772856 0.000000
0.274270 0.774270 0.000000
0.275683 0.775683 0.000000
0.277097 0.777097 0.000000
0.278511 0.778511 0.000000
0.279925 0.779925 0.000000
0.281338 0.781338 0.000000
0.282752 0.782752 0.000000
0.284166 0.784166 0.000000
0.285580 0.785580 0.000000
0.286993 0.786993 0.000000
0.288407 0.788407 0.000000
0.289821 0.789821 0.000000
0.291235 0.791235 0.000000
0.292648 0.792648 0.000000
0.294062 0.794062 0.000000
0.295476 0.795476 0.000000
0.296890 0.796890 0.000000
0.298303 0.798303 0.000000
0.299717 0.799717 0.000000
0.301131 0.801131 0.000000
0.302545 0.802545 0.000000
0.303959 0.803959 0.000000
0.305372 0.805372 0.000000
0.306786 0.806786 0.000000
0.308200 0.808200 0.000000
0.309614 0.809614 0.000000
0.311027 0.811027 0.000000
0.312441 0.812441 0.000000
0.313855 0.813855 0.000000
0.315269 0.815269 0.000000
0.316682 0.816682 0.000000
0.318096 0.818096 0.000000
0.319510 0.819510 0.000000
0.320924 0.820924 0.000000
0.322337 0.822337 0.000000
0.323751 0.823751 0.000000
0.325165 0.825165 0.000000
0.326579 0.826579 0.000000
0.327992 0.827992 0.000000
0.329406 0.829406 0.000000
0.330820 0.830820 0.000000
0.332234 0.832234 0.000000
0.333648 0.833648 0.000000
0.335061 0.835061 0.000000
0.336475 0.836475 0.000000
0.337889 0.837889 0.000000
0.339303 0.839303 0.000000
0.340716 0.840716 0.000000
[...]
POINT_DATA 20431
SCALARS UX float 1
LOOKUP_TABLE default
-0.000000
0.000000
0.070749
-0.073796
-0.057711
0.035629
0.071232
-0.000000
-0.000000
0.000000
-0.000000
0.048250
0.063176
0.068985
0.071104
0.071866
0.072083
0.072058
0.071971
0.071869
0.071768
0.071682
0.071607
0.071545
0.071493
0.071449
0.071413
0.071383
0.071358
0.071337
0.071320
0.071305
0.071292
0.071282
0.071273
0.071265
0.071259
0.071253
0.071249
0.071245
0.071242
0.071239
0.071236
0.071234
0.071231
0.071228
0.071225
0.071221
0.071215
0.071208
0.071199
0.071188
0.071173
0.071154
0.071130
0.071101
0.071065
0.071024
0.070974
0.070920
0.070865
0.070808
0.070768
0.041816
0.012894
-0.016012
-0.044906
-0.073794
-0.073794
-0.073808
-0.073844
-0.073909
-0.073989
-0.074076
-0.074146
-0.074161
-0.074106
-0.073977
-0.073755
-0.073422
-0.072991
-0.072468
-0.071869
-0.071203
-0.070483
-0.069730
-0.068955
-0.068173
-0.067392
-0.066632
-0.065883
-0.065168
-0.064488
-0.063839
-0.063233
-0.062665
-0.062138
-0.061649
-0.061197
-0.060783
-0.060403
-0.060055
-0.059738
-0.059450
-0.059188
-0.058950
-0.058734
-0.058540
-0.058363
-0.058204
-0.058061
-0.057932
-0.057816
-0.057601
-0.057448
-0.057236
-0.056941
-0.056526
-0.055945
-0.055099
-0.053886
-0.052094
-0.049301
-0.044983
-0.038155
-0.026083
-0.057690
-0.057670
-0.057648
-0.057626
-0.057604
-0.057582
-0.057559
-0.057535
-0.057511
-0.057487
-0.057462
-0.057437
-0.057412
-0.057386
-0.057360
-0.057333
-0.057306
-0.057279
-0.057252
-0.057223
-0.057195
-0.057166
-0.057137
-0.057108
-0.057078
-0.057048
-0.057018
-0.056987
-0.056956
-0.056925
-0.056893
-0.056861
-0.056829
-0.056796
-0.056763
-0.056730
-0.056697
-0.056663
-0.056629
-0.056595
-0.056560
-0.056525
-0.056490
-0.056455
-0.056419
-0.056383
-0.056347
-0.056310
-0.056274
-0.056237
-0.056199
-0.056162
-0.056124
-0.056086
-0.056047
-0.056009
-0.055970
-0.055931
-0.055892
-0.055852
-0.055813
-0.055773
-0.055733
-0.055692
-0.055652
-0.055611
-0.055570
-0.055529
-0.055487
-0.055446
-0.055404
-0.055362
-0.055319
-0.055277
-0.055234
-0.055191
-0.055148
-0.055104
-0.055061
-0.055017
-0.054972
-0.054928
-0.054883
-0.054839
-0.054793
-0.054748
-0.054703
-0.054657
-0.054611
-0.054565
-0.054519
-0.054473
-0.054426
-0.054379
-0.054332
-0.054284
-0.054237
-0.054189
-0.054141
-0.054093
-0.054045
-0.053996
-0.053947
-0.053898
-0.053849
-0.053800
-0.053750
-0.053700
-0.053650
-0.053600
-0.053549
-0.053498
-0.053448
-0.053396
-0.053345
-0.053293
-0.053242
-0.053190
-0.053138
-0.053085
-0.053032
-0.052980
-0.052927
-0.052873
-0.052820
-0.052766
-0.052713
-0.052658
-0.052604
-0.052550
-0.052495
-0.052440
-0.052385
-0.052330
-0.052275
-0.052219
-0.052163
-0.052107
-0.052051
-0.051995
-0.051938
-0.051881
-0.051824
-0.051767
-0.051709
-0.051652
-0.051594
-0.051536
-0.051478
-0.051419
-0.051361
-0.051302
-0.051243
-0.051184
-0.051124
-0.051065
-0.051005
-0.050945
-0.050885
-0.050825
-0.050764
-0.050703
-0.050643
-0.050582
-0.050520
-0.050459
-0.050397
-0.050335
-0.050273
-0.050211
-0.050149
-0.050086
-0.050024
-0.049961
-0.049898
-0.049834
-0.049771
-0.049707
-0.049644
-0.049580
-0.049515
-0.049451
-0.049387
-0.049322
-0.049257
-0.049192
-0.049127
-0.049062
-0.048997
-0.048931
-0.048865
-0.048799
-0.048733
-0.048667
-0.048601
-0.048534
-0.048467
-0.048400
-0.048333
-0.048266
-0.048199
-0.048131
-0.048063
-0.047995
-0.047927
-0.047859
-0.047791
-0.047722
-0.047654
-0.047585
-0.047516
-0.047447
-0.047377
-0.047308
-0.047238
-0.047168
-0.047098
-0.047028
-0.046958
-0.046888
-0.046817
-0.046746
-0.046676
-0.046605
-0.046533
-0.046462
-0.046391
-0.046319
-0.046247
-0.046176
-0.046104
-0.046031
-0.045959
-0.045887
-0.045814
-0.045741
-0.045668
-0.045595
-0.045522
-0.045449
-0.045375
-0.045302
-0.045228
-0.045154
-0.045080
-0.045006
-0.044931
-0.044857
-0.044782
-0.044708
-0.044633
-0.044558
-0.044483
-0.044407
-0.044332
-0.044256
-0.044181
-0.044105
-0.044029
-0.043953
-0.043876
-0.043800
-0.043723
-0.043647
-0.043570
-0.043493
-0.043416
-0.043339
-0.043261
-0.043184
-0.043106
-0.043029
-0.042951
-0.042873
-0.042795
-0.042716
-0.042638
-0.042560
-0.042481
-0.042402
-0.042323
-0.042244
-0.042165
-0.042086
-0.042006
-0.041927
-0.041847
-0.041767
-0.041688
-0.041607
-0.041527
-0.041447
-0.041367
-0.041286
-0.041205
-0.041125
-0.041044
-0.040963
-0.040882
-0.040800
-0.040719
-0.040637
-0.040556
-0.040474
-0.040392
-0.040310
-0.040228
-0.040146
-0.040063
-0.039981
-0.039898
-0.039816
-0.039733
-0.039650
-0.039567
-0.039484
-0.039401
-0.039317
-0.039234
-0.039150
-0.039066
-0.038983
-0.038899
-0.038815
-0.038731
-0.038646
-0.038562
-0.038477
-0.038393
-0.038308
-0.038223
-0.038138
-0.038053
-0.037968
-0.037883
-0.037798
-0.037712
-0.037627
-0.037541
-0.037455
-0.037369
-0.037283
-0.037197
-0.037111
-0.037025
-0.036938
-0.036852
-0.036765
-0.036678
-0.036591
-0.036504
-0.036417
-0.036330
-0.036243
-0.036156
-0.036068
-0.035981
-0.035893
-0.035805
-0.035717
-0.035629
-0.035541
-0.035453
-0.035365
-0.035276
-0.035188
-0.035099
-0.035011
-0.034922
-0.034833
-0.034744
-0.034655
-0.034566
-0.034477
-0.034387
-0.034298
-0.034208
-0.034118
-0.034029
-0.033939
-0.033849
-0.033759
-0.033669
-0.033579
-0.033488
-0.033398
-0.033307
-0.033217
-0.033126
-0.033035
-0.032944
-0.032853
-0.032762
-0.032671
-0.032580
-0.032488
-0.032397
-0.032306
-0.032214
-0.032122
-0.032030
-0.031938
-0.031846
-0.031754
-0.031662
-0.031570
-0.031478
-0.031385
-0.031293
-0.031200
-0.031107
-0.031015
-0.030922
-0.030829
-0.030736
-0.030643
-0.030549
-0.030456
-0.030363
-0.030269
-0.030176
-0.030082
-0.029988
-0.029894
-0.029800
-0.029706
-0.029612
-0.029518
-0.029424
-0.029330
-0.029235
-0.029141
-0.029046
-0.028951
-0.028857
-0.028762
-0.028667
-0.028572
-0.028477
-0.028382
-0.028287
-0.028191
-0.028096
-0.028001
-0.027905
-0.027809
-0.027714
-0.027618
-0.027522
-0.027426
-0.027330
-0.027234
-0.027138
-0.027042
-0.026946
-0.026849
-0.026753
-0.026656
-0.026560
-0.026463
-0.026366
-0.026270
-0.026173
-0.026076
-0.025979
-0.025882
-0.025785
-0.025687
-0.025590
-0.025493
-0.025395
-0.025298
-0.025200
-0.025103
-0.025005
-0.024907
-0.024809
-0.024711
-0.024613
-0.024515
-0.024417
-0.024319
-0.024221
-0.024123
-0.024024
-0.023926
-0.023827
-0.023729
-0.023630
-0.023531
-0.023433
-0.023334
-0.023235
-0.023136
-0.023037
-0.022938
-0.022839
-0.022740
-0.022640
-0.022541
-0.022442
-0.022342
-0.022243
-0.022143
-0.022044
-0.021944
-0.021844
-0.021744
-0.021645
-0.021545
-0.021445
-0.021345
-0.021245
-0.021144
-0.021044
-0.020944
-0.020844
-0.020743
-0.020643
-0.020542
-0.020442
-0.020341
-0.020241
-0.020140
-0.020039
-0.019939
-0.019838
-0.019737
-0.019636
-0.019535
-0.019434
-0.019333
-0.019232
-0.019130
-0.019029
-0.018928
-0.018826
-0.018725
-0.018624
-0.018522
-0.018421
-0.018319
-0.018217
-0.018116
-0.018014
-0.017912
-0.017810
-0.017709
-0.017607
-0.017505
-0.017403
-0.017301
-0.017199
-0.017096
-0.016994
-0.016892
-0.016790
-0.016687
-0.016585
-0.016483
-0.016380
-0.016278
-0.016175
-0.016073
-0.015970
-0.015867
-0.015765
-0.015662
-0.015559
-0.015456
-0.015354
-0.015251
-0.015148
-0.015045
-0.014942
-0.014839
-0.014736
-0.014633
-0.014530
-0.014426
-0.014323
-0.014220
-0.014117
-0.014013
-0.013910
-0.013807
-0.013703
-0.013600
-0.013496
-0.013393
-0.013289
-0.013186
-0.013082
-0.012979
-0.012875
-0.012771
-0.012667
-0.012564
-0.012460
-0.012356
-0.012252
-0.012148
-0.012044
-0.011941
-0.011837
-0.011733
-0.011629
-0.011525
-0.011420
-0.011316
-0.011212
-0.011108
-0.011004
-0.010900
-0.010795
-0.010691
-0.010587
-0.010483
-0.010378
-0.010274
-0.010170
-0.010065
-0.009961
-0.009856
-0.009752
-0.009647
-0.009543
-0.009438
-0.009334
-0.009229
-0.009124
-0.009020
-0.008915
-0.008811
-0.008706
-0.008601
-0.008496
-0.008392
-0.008287
-0.008182
-0.008077
-0.007972
-0.007868
-0.007763
-0.007658
-0.007553
-0.007448
-0.007343
-0.007238
-0.007133
-0.007028
-0.006923
-0.006818
-0.006713
-0.006608
-0.006503
-0.006398
-0.006293
-0.006188
-0.006083
-0.005978
-0.005873
-0.005767
-0.005662
-0.005557
-0.005452
-0.005347
-0.005241
-0.005136
-0.005031
-0.004926
-0.004820
-0.004715
-0.004610
-0.004505
-0.004399
-0.004294
-0.004189
-0.004083
-0.003978
-0.003873
-0.003767
-0.003662
-0.003557
-0.003451
-0.003346
-0.003240
-0.003135
-0.003030
-0.002924
-0.002819
-0.002713
-0.002608
-0.002502
-0.002397
-0.002291
-0.002186
-0.002081
-0.001975
-0.001870
-0.001764
-0.001659
-0.001553
-0.001448
-0.001342
-0.001237
-0.001131
-0.001026
-0.000920
-0.000814
-0.000709
-0.000603
-0.000498
-0.000392
-0.000287
-0.000181
-0.000076
0.000030
0.000135
0.000241
0.000346
0.000452
0.000558
0.000663
0.000769
0.000874
0.000980
0.001085
0.001191
0.001296
0.001402
0.001507
0.001613
0.001719
0.001824
0.001930
0.002035
0.002141
0.002246
0.002352
0.002457
0.002563
0.002668
0.002774
0.002879
0.002985
0.003090
0.003196
0.003301
0.003407
0.003512
0.003618
0.003723
0.003829
0.003934
0.004040
0.004145
0.004251
0.004356
0.004462
0.004567
0.004673
0.004778
0.004884
0.004989
0.005094
0.005200
0.005305
0.005411
0.005516
0.005621
0.005727
0.005832
0.005938
0.006043
0.006148
0.006254
0.006359
0.006464
0.006570
0.006675
0.006780
0.006885
0.006991
0.007096
0.007201
0.007307
0.007412
0.007517
0.007622
0.007727
0.007833
0.007938
0.008043
0.008148
0.008253
0.008359
0.008464
0.008569
0.008674
0.008779
0.008884
0.008989
0.009094
0.009200
0.009305
0.009410
0.009515
0.009620
0.009725
0.009830
0.009935
0.010040
0.010145
0.010250
0.010355
0.010460
0.010565
0.010670
0.010774
0.010879
0.010984
0.011089
0.011194
0.011299
0.011404
0.011508
0.011613
0.011718
0.011823
0.011928
0.012032
0.012137
0.012242
0.012347
0.012451
0.012556
0.012661
0.012765
0.012870
0.012975
0.013079
0.013184
0.013289
0.013393
0.013498
0.013602
0.013707
0.013811
0.013916
0.014020
0.014125
0.014229
0.014334
0.014438
0.014543
0.014647
0.014752
0.014856
0.014960
0.015065
0.015169
0.015273
0.015378
0.015482
0.015586
0.015691
0.015795
0.015899
0.016003
0.016108
0.016212
0.016316
0.016420
0.016524
0.016628
0.016733
0.016837
0.016941
0.017045
0.017149
0.017253
0.017357
0.017461
0.017565
0.017669
0.017773
0.017877
0.017981
0.018085
0.018189
0.018293
0.018396
0.018500
0.018604
0.018708
0.018812
0.018916
0.019019
0.019123
0.019227
0.019331
0.019434
0.019538
0.019642
0.019745
0.019849
0.019953
0.020056
0.020160
0.020264
0.020367
0.020471
0.020574
0.020678
0.020781
0.020885
0.020988
0.021092
0.021195
0.021299
0.021402
0.021505
0.021609
0.021712
0.021815
0.021919
0.022022
0.022125
0.022229
0.022332
0.022435
0.022538
0.022642
0.022745
0.022848
0.022951
0.023054
0.023157
0.023261
0.023364
0.023467
0.023570
0.023673
0.023776
0.023879
0.023982
0.024085
0.024188
0.024291
0.024394
0.024497
0.024600
0.024703
0.024806
0.024908
0.025011
0.025114
0.025217
0.025320
0.025423
0.025525
0.025628
0.025731
0.025834
0.025936
0.026039
0.026142
0.026244
0.026347
0.026450
0.026552
0.026655
0.026757
0.026860
0.026963
0.027065
0.027168
0.027270
0.027373
0.027475
0.027578
0.027680
0.027783
0.027885
0.027987
0.028090
0.028192
0.028294
0.028397
0.028499
0.028601
0.028704
0.028806
0.028908
0.029011
0.029113
0.029215
0.029317
0.029420
0.029522
0.029624
0.029726
0.029828
0.029930
0.030032
0.030135
0.030237
0.030339
0.030441
0.030543
0.030645
0.030747
0.030849
0.030951
0.031053
0.031155
0.031257
0.031359
0.031461
0.031563
0.031664
0.031766
0.031868
0.031970
0.032072
0.032174
0.032276
0.032377
0.032479
0.032581
0.032683
0.032784
0.032886
0.032988
0.033090
0.033191
0.033293
0.033395
0.033496
0.033598
0.033700
0.033801
0.033903
0.034005
0.034106
0.034208
0.034309
0.034411
0.034512
0.034614
0.034715
0.034817
0.034918
0.035020
0.035121
0.035223
0.035324
0.035426
0.035527
0.035730
0.035831
0.035933
0.036034
0.036135
0.036236
0.036338
0.036439
0.036540
0.036641
0.036743
0.036844
0.036945
0.037046
0.037147
0.037248
0.037350
0.037451
0.037552
0.037653
0.037754
0.037855
0.037956
0.038057
0.038158
0.038259
0.038360
0.038461
0.038562
0.038663
0.038764
0.038865
0.038966
0.039067
0.039168
0.039269
0.039370
0.039471
0.039572
0.039673
0.039774
0.039875
0.039976
0.040077
0.040178
0.040279
0.040379
0.040480
0.040581
0.040682
0.040783
0.040884
0.040984
0.041085
0.041186
0.041287
0.041388
0.041488
0.041589
0.041690
0.041791
0.041891
0.041992
0.042093
0.042194
0.042294
0.042395
0.042496
0.042596
0.042697
0.042798
0.042898
0.042999
0.043100
0.043200
0.043301
0.043402
0.043502
0.043603
0.043704
0.043804
0.043905
0.044006
0.044106
0.044207
0.044307
0.044408
0.044508
0.044609
0.044710
0.044810
0.044911
0.045011
0.045112
0.045212
0.045313
0.045413
0.045514
0.045614
0.045715
0.045815
0.045916
0.046016
0.046117
0.046217
0.046318
0.046418
0.046519
0.046619
0.046720
0.046820
0.046921
0.047021
0.047122
0.047222
0.047323
0.047423
0.047523
0.047624
0.047724
0.047825
0.047925
0.048026
0.048126
0.048226
0.048327
0.048427
0.048528
0.048628
0.048728
0.048829
0.048929
0.049030
0.049130
0.049230
0.049331
0.049431
0.049531
0.049632
0.049732
0.049833
0.049933
0.050033
0.050134
0.050234
0.050334
0.050435
0.050535
0.050635
0.050736
0.050836
0.050936
0.051037
0.051137
0.051237
0.051338
0.051438
0.051538
0.051639
0.051739
0.051839
0.051940
0.052040
0.052140
0.052241
0.052341
0.052441
0.052542
0.052642
0.052742
0.052842
0.052943
0.053043
0.053143
0.053244
0.053344
0.053444
0.053545
0.053645
0.053745
0.053846
0.053946
0.054046
0.054147
0.054247
0.054347
0.054447
0.054548
0.054648
0.054748
0.054849
0.054949
0.055049
0.055150
0.055250
0.055350
0.055451
0.055551
0.055651
0.055752
0.055852
0.055952
0.056052
0.056153
0.056253
0.056353
0.056454
0.056554
0.056654
0.056755
0.056855
0.056955
0.057056
0.057156
0.057256
0.057357
0.057457
0.057557
0.057658
0.057758
0.057858
0.057959
0.058059
0.058159
0.058260
0.058360
0.058461
0.058561
0.058661
0.058762
0.058862
0.058962
0.059063
0.059163
0.059263
0.059364
0.059464
0.059565
0.059665
0.059765
0.059866
0.059966
0.060066
0.060167
0.060267
0.060368
0.060468
0.060568
0.060669
0.060769
0.060870
0.060970
0.061071
0.061171
0.061271
0.061372
0.061472
0.061573
0.061673
0.061774
0.061874
0.061974
0.062075
0.062175
0.062276
0.062376
0.062477
0.062577
0.062678
0.062778
0.062879
0.062979
0.063080
0.063180
0.063280
0.063381
0.063481
0.063582
0.063682
0.063783
0.063883
0.063984
0.064085
0.064185
0.064286
0.064386
0.064487
0.064587
0.064688
0.064788
0.064889
0.064989
0.065090
0.065191
0.065291
0.065392
0.065492
0.065593
0.065693
0.065794
0.065895
0.065995
0.066096
0.066196
0.066297
0.066398
0.066498
0.066599
0.066699
0.066800
0.066901
0.067001
0.067102
0.067203
0.067303
0.067404
0.067505
0.067605
0.067706
0.067807
0.067907
0.068008
0.068109
0.068209
0.068310
0.068411
0.068512
0.068612
0.068713
0.068814
0.068914
0.069015
0.069116
0.069217
0.069317
0.069418
0.069519
0.069620
0.069720
0.069821
0.069922
0.070023
0.070123
0.070224
0.070325
0.070426
0.070527
0.070627
0.070728
0.070829
0.070930
0.071031
0.071132
0.050691
0.050740
0.050585
0.045327
0.045402
0.045473
-0.036639
-0.036585
-0.036741
-0.036806
-0.019290
0.057594
0.057775
0.057813
0.057923
0.048651
0.048489
0.048540
-0.019672
-0.019566
-0.019694
-0.019509
-0.053212
-0.053287
-0.053101
-0.053125
-0.020332
-0.020254
-0.020179
0.019880
0.019721
0.019811
0.019864
-0.033308
-0.034180
-0.040264
-0.041483
0.014050
0.013891
0.013953
0.013939
-0.015503
-0.015836
-0.015552
-0.015566
0.036913
0.036609
0.036298
0.037305
-0.053452
-0.053390
-0.053206
0.017280
0.017261
0.017447
0.017532
0.000864
-0.003280
-0.002288
-0.005723
0.008511
0.008737
0.008827
-0.028428
-0.027091
-0.028486
-0.004693
-0.004590
-0.004843
-0.004730
0.044834
0.045370
0.045316
0.045869
-0.001172
-0.000807
-0.000958
-0.000438
0.015073
0.015233
0.014948
0.015309
0.014045
0.014160
0.013959
0.014253
-0.007642
-0.007668
-0.007807
-0.007889
0.050311
0.050242
0.050054
-0.021141
-0.021437
-0.021232
0.008525
0.049985
0.049800
0.049794
0.050073
0.023031
0.023212
0.023129
-0.000351
-0.000312
-0.000465
0.023199
0.013893
0.013383
0.013200
-0.000190
0.026603
0.026490
0.026249
0.041810
0.041990
0.041781
0.042069
0.025777
0.025879
0.025698
0.025943
0.026185
-0.045939
-0.046148
-0.046040
0.059254
0.059084
0.059365
-0.046240
-0.032098
-0.032234
-0.032364
-0.031973
-0.025863
-0.025743
-0.026167
-0.025873
-0.014470
-0.014780
-0.014557
0.007587
0.007762
0.007541
0.007698
-0.014829
0.023140
0.023272
0.023033
-0.024555
-0.024799
-0.024570
-0.026846
-0.027173
-0.027427
0.023268
0.046075
0.046121
0.045900
-0.040997
-0.040929
-0.040843
0.049356
0.049547
0.049560
0.049389
0.029050
0.028780
0.028889
0.028493
0.000903
-0.000507
0.000940
0.000582
0.021833
0.022414
0.020880
0.023296
-0.038740
-0.038627
-0.038966
-0.038401
0.067053
0.066921
-0.055846
-0.055375
-0.055106
-0.054586
-0.036203
-0.035258
-0.033090
-0.038959
0.069280
0.069331
0.069572
-0.041762
-0.038440
-0.041980
-0.042217
-0.041338
0.047822
0.047786
0.047543
0.018733
0.018636
0.018863
0.018789
0.001363
0.000943
0.001244
-0.054053
-0.054030
-0.054332
-0.054083
0.069374
0.068976
0.069494
0.068850
0.059367
0.059545
0.059733
0.047476
0.028594
0.028394
0.028188
0.028031
-0.006364
-0.006248
-0.006111
-0.006454
-0.011464
-0.012127
-0.013957
0.060608
0.060554
0.060036
0.060247
-0.015351
-0.014964
-0.016824
-0.016032
0.028088
0.028109
0.027925
0.016310
0.016870
0.021568
0.011863
-0.047824
-0.048072
-0.047294
-0.048937
0.063979
0.064129
0.014553
0.014532
0.014637
0.028267
0.001816
0.002557
0.003061
0.003466
-0.026074
-0.026333
-0.026220
-0.026200
-0.025281
-0.029163
-0.027922
-0.025412
-0.005852
-0.005551
-0.006069
-0.006002
-0.031385
-0.030403
-0.029672
-0.028899
0.063051
0.063401
0.063626
0.063035
-0.028847
-0.028802
-0.028712
-0.059761
-0.062302
-0.059851
-0.060104
-0.050781
-0.050924
-0.050949
-0.009366
-0.009402
-0.019639
-0.019667
-0.020905
-0.018517
0.026313
0.024739
0.024955
0.023210
0.003683
0.010112
0.009266
0.008234
0.034464
0.034595
0.033616
0.033617
0.056209
0.054903
0.055340
0.056113
-0.024118
-0.024025
-0.024810
-0.024956
-0.020447
-0.020361
-0.020240
-0.020633
0.038463
0.039068
0.038610
0.038988
0.037905
0.037840
0.038573
-0.004768
-0.004585
-0.004543
-0.004758
0.066451
0.065710
0.066392
0.050024
-0.012642
-0.014039
-0.013333
-0.013246
0.055372
0.055424
0.055097
0.055220
0.010692
0.010888
0.010742
0.010972
0.026322
0.026628
-0.007199
-0.006671
-0.006220
-0.005839
-0.001895
-0.001875
-0.000134
-0.003684
-0.000729
-0.000620
-0.000540
0.061770
0.061559
0.061537
-0.037019
-0.037131
-0.036590
-0.036549
-0.000492
-0.031520
-0.029488
-0.031014
0.056346
0.056608
0.057037
0.057291
0.052690
0.052580
0.052559
0.052382
0.024982
0.024431
0.024289
0.025509
0.021554
0.021370
0.021285
0.021581
0.021443
0.021675
0.027576
0.026760
0.027291
-0.003795
-0.003956
-0.003764
0.015672
0.013570
0.018551
-0.003841
0.035863
0.036277
0.035004
0.030476
0.030709
0.030697
0.030545
0.045613
0.045652
0.045377
-0.031721
-0.028179
0.045848
0.043294
0.043225
0.043109
0.043054
-0.024967
-0.024868
-0.025010
0.055618
0.014979
0.015055
0.014589
0.014514
-0.045412
-0.043963
-0.044494
-0.043293
0.018238
0.018213
0.018052
0.018397
-0.030074
-0.029530
-0.030901
-0.029304
-0.036498
-0.037263
-0.034306
-0.039238
0.038898
0.038810
0.039075
-0.031523
-0.031252
-0.031951
0.020049
0.020001
0.019285
0.018812
0.048634
0.040305
0.040107
0.040300
0.030231
0.031237
0.030392
0.031087
-0.007603
-0.008427
-0.008609
0.040102
0.042546
0.042875
0.042552
0.021412
0.021893
0.022128
0.022611
0.026506
0.024771
-0.015072
-0.015620
-0.014867
-0.016110
-0.041815
-0.043805
-0.043807
-0.040700
-0.031640
-0.032119
0.013103
0.013004
0.013764
0.042727
-0.009245
-0.007562
-0.006906
-0.009684
0.021081
0.023156
0.031628
0.031744
0.031662
-0.031359
-0.030909
-0.030766
0.031855
-0.025240
-0.025196
-0.025077
0.044698
0.044491
0.044612
0.044405
-0.016694
-0.016618
-0.016547
-0.029512
-0.034138
0.007980
0.007935
0.007834
0.047517
0.047478
0.047362
0.047300
0.031771
0.031893
0.031978
0.011543
0.010905
0.010734
0.009813
0.030756
0.030597
0.030664
0.030497
0.026832
0.026911
0.026758
0.042428
0.042569
0.042649
0.030737
0.030535
0.031699
0.042715
-0.038303
-0.038307
-0.038142
0.029733
0.022855
0.022381
0.023077
0.031732
-0.040754
-0.040688
-0.040793
0.016001
0.012541
0.013946
-0.038467
0.039896
0.039904
0.040127
0.057190
0.057270
0.057086
0.057191