# vtk DataFile Version 2.0
Test
ASCII
DATASET POLYDATA
POINTS 20431 float
0.000000 0.000000 0.000000
2.000000 0.000000 0.000000
2.000000 4.000000 0.000000
0.000000 4.000000 0.000000
0.000000 0.500000 0.000000
1.500000 2.000000 0.000000
2.000000 2.500000 0.000000
0.400000 0.000000 0.000000
0.800000 0.000000 0.000000
1.200000 0.000000 0.000000
1.600000 0.000000 0.000000
2.000000 0.362557 0.000000
2.000000 0.672798 0.000000
2.000000 0.938272 0.000000
2.000000 1.165439 0.000000
2.000000 1.359826 0.000000
2.000000 1.526163 0.000000
2.000000 1.668499 0.000000
2.000000 1.790295 0.000000
2.000000 1.894517 0.000000
2.000000 1.983700 0.000000
2.000000 2.060013 0.000000
2.000000 2.125315 0.000000
2.000000 2.181194 0.000000
2.000000 2.229010 0.000000
2.000000 2.269926 0.000000
2.000000 2.304938 0.000000
2.000000 2.334898 0.000000
2.000000 2.360534 0.000000
2.000000 2.382472 0.000000
2.000000 2.401244 0.000000
2.000000 2.417307 0.000000
2.000000 2.431052 0.000000
2.000000 2.442814 0.000000
2.000000 2.452878 0.000000
2.000000 2.461491 0.000000
2.000000 2.468860 0.000000
2.000000 2.475167 0.000000
2.000000 2.480563 0.000000
2.000000 2.485180 0.000000
2.000000 2.489132 0.000000
2.000000 2.492513 0.000000
2.000000 2.495406 0.000000
2.000000 2.497882 0.000000
2.000000 2.502286 0.000000
2.000000 2.505266 0.000000
2.000000 2.509150 0.000000
2.000000 2.514212 0.000000
2.000000 2.520809 0.000000
2.000000 2.529407 0.000000
2.000000 2.540613 0.000000
2.000000 2.555218 0.000000
2.000000 2.574253 0.000000
2.000000 2.599061 0.000000
2.000000 2.631395 0.000000
2.000000 2.673536 0.000000
2.000000 2.728460 0.000000
2.000000 2.800043 0.000000
2.000000 2.893339 0.000000
2.000000 3.014933 0.000000
2.000000 3.173410 0.000000
2.000000 3.379956 0.000000
2.000000 3.649152 0.000000
1.600000 4.000000 0.000000
1.200000 4.000000 0.000000
0.800000 4.000000 0.000000
0.400000 4.000000 0.000000
0.000000 3.624996 0.000000
0.000000 3.289970 0.000000
0.000000 2.990661 0.000000
0.000000 2.723261 0.000000
0.000000 2.484368 0.000000
0.000000 2.270943 0.000000
0.000000 2.080271 0.000000
0.000000 1.909926 0.000000
0.000000 1.757741 0.000000
0.000000 1.621780 0.000000
0.000000 1.500314 0.000000
0.000000 1.391797 0.000000
0.000000 1.294849 0.000000
0.000000 1.208237 0.000000
0.000000 1.130858 0.000000
0.000000 1.061728 0.000000
0.000000 0.999968 0.000000
0.000000 0.944792 0.000000
0.000000 0.895499 0.000000
0.000000 0.851460 0.000000
0.000000 0.812117 0.000000
0.000000 0.776968 0.000000
0.000000 0.745565 0.000000
0.000000 0.717511 0.000000
0.000000 0.692448 0.000000
0.000000 0.670056 0.000000
0.000000 0.650052 0.000000
0.000000 0.632180 0.000000
0.000000 0.616213 0.000000
0.000000 0.601949 0.000000
0.000000 0.589205 0.000000
0.000000 0.577820 0.000000
0.000000 0.567649 0.000000
0.000000 0.558562 0.000000
0.000000 0.550444 0.000000
0.000000 0.543191 0.000000
0.000000 0.536712 0.000000
0.000000 0.530923 0.000000
0.000000 0.525751 0.000000
0.000000 0.521131 0.000000
0.000000 0.517003 0.000000
0.000000 0.513315 0.000000
0.000000 0.510021 0.000000
0.000000 0.507078 0.000000
0.000000 0.504448 0.000000
0.000000 0.502099 0.000000
0.000000 0.497804 0.000000
0.000000 0.494785 0.000000
0.000000 0.490633 0.000000
0.000000 0.484924 0.000000
0.000000 0.477074 0.000000
0.000000 0.466279 0.000000
0.000000 0.451436 0.000000
0.000000 0.431025 0.000000
0.000000 0.402959 0.000000
0.000000 0.364366 0.000000
0.000000 0.311297 0.000000
0.000000 0.238324 0.000000
0.000000 0.137980 0.000000
0.001414 0.501414 0.000000
0.002828 0.502828 0.000000
0.004241 0.504241 0.000000
0.005655 0.505655 0.000000
0.007069 0.507069 0.000000
0.008483 0.508483 0.000000
0.009896 0.509896 0.000000
0.011310 0.511310 0.000000
0.012724 0.512724 0.000000
0.014138 0.514138 0.000000
0.015551 0.515551 0.000000
0.016965 0.516965 0.000000
0.018379 0.518379 0.000000
0.019793 0.519793 0.000000
0.021206 0.521206 0.000000
0.022620 0.522620 0.000000
0.024034 0.524034 0.000000
0.025448 0.525448 0.000000
0.026861 0.526861 0.000000
0.028275 0.528275 0.000000
0.029689 0.529689 0.000000
0.031103 0.531103 0.000000
0.032516 0.532516 0.000000
0.033930 0.533930 0.000000
0.035344 0.535344 0.000000
0.036758 0.536758 0.000000
0.038172 0.538172 0.000000
0.039585 0.539585 0.000000
0.040999 0.540999 0.000000
0.042413 0.542413 0.000000
0.043827 0.543827 0.000000
0.045240 0.545240 0.000000
0.046654 0.546654 0.000000
0.048068 0.548068 0.000000
0.049482 0.549482 0.000000
0.050895 0.550895 0.000000
0.052309 0.552309 0.000000
0.053723 0.553723 0.000000
0.055137 0.555137 0.000000
0.056550 0.556550 0.000000
0.057964 0.557964 0.000000
0.059378 0.559378 0.000000
0.060792 0.560792 0.000000
0.062205 0.562205 0.000000
0.063619 0.563619 0.000000
0.065033 0.565033 0.000000
0.066447 0.566447 0.000000
0.067861 0.567861 0.000000
0.069274 0.569274 0.000000
0.070688 0.570688 0.000000
0.072102 0.572102 0.000000
0.073516 0.573516 0.000000
0.074929 0.574929 0.000000
0.076343 0.576343 0.000000
0.077757 0.577757 0.000000
0.079171 0.579171 0.000000
0.080584 0.580584 0.000000
0.081998 0.581998 0.000000
0.083412 0.583412 0.000000
0.084826 0.584826 0.000000
0.086239 0.586239 0.000000
0.087653 0.587653 0.000000
0.089067 0.589067 0.000000
0.090481 0.590481 0.000000
0.091894 0.591894 0.000000
0.093308 0.593308 0.000000
0.094722 0.594722 0.000000
0.096136 0.596136 0.000000
0.097549 0.597549 0.000000
0.098963 0.598963 0.000000
0.100377 0.600377 0.000000
0.101791 0.601791 0.000000
0.103205 0.603205 0.000000
0.104618 0.604618 0.000000
0.106032 0.606032 0.000000
0.107446 0.607446 0.000000
0.108860 0.608860 0.000000
0.110273 0.610273 0.000000
0.111687 0.611687 0.000000
0.113101 0.613101 0.000000
0.114515 0.614515 0.000000
0.115928 0.615928 0.000000
0.117342 0.617342 0.000000
0.118756 0.618756 0.000000
0.120170 0.620170 0.000000
0.121583 0.621583 0.000000
0.122997 0.622997 0.000000
0.124411 0.624411 0.000000
0.125825 0.625825 0.000000
0.127238 0.627238 0.000000
0.128652 0.628652 0.000000
0.130066 0.630066 0.000000
0.131480 0.631480 0.000000
0.132893 0.632893 0.000000
0.134307 0.634307 0.000000
0.135721 0.635721 0.000000
0.137135 0.637135 0.000000
0.138549 0.638549 0.000000
0.139962 0.639962 0.000000
0.141376 0.641376 0.000000
0.142790 0.642790 0.000000
0.144204 0.644204 0.000000
0.145617 0.645617 0.000000
0.147031 0.647031 0.000000
0.148445 0.648445 0.000000
0.149859 0.649859 0.000000
0.151272 0.651272 0.000000
0.152686 0.652686 0.000000
0.154100 0.654100 0.000000
0.155514 0.655514 0.000000
0.156927 0.656927 0.000000
0.158341 0.658341 0.000000
0.159755 0.659755 0.000000
0.161169 0.661169 0.000000
0.162582 0.662582 0.000000
0.163996 0.663996 0.000000
0.165410 0.665410 0.000000
0.166824 0.666824 0.000000
0.168238 0.668238 0.000000
0.169651 0.669651 0.000000
0.171065 0.671065 0.000000
0.172479 0.672479 0.000000
0.173893 0.673893 0.000000
0.175306 0.675306 0.000000
0.176720 0.676720 0.000000
0.178134 0.678134 0.000000
0.179548 0.679548 0.000000
0.180961 0.680961 0.000000
0.182375 0.682375 0.000000
0.183789 0.683789 0.000000
0.185203 0.685203 0.000000
0.186616 0.686616 0.000000
0.188030 0.688030 0.000000
0.189444 0.689444 0.000000
0.190858 0.690858 0.000000
0.192271 0.692271 0.000000
0.193685 0.693685 0.000000
0.195099 0.695099 0.000000
0.196513 0.696513 0.000000
0.197926 0.697926 0.000000
0.199340 0.699340 0.000000
0.200754 0.700754 0.000000
0.202168 0.702168 0.000000
0.203582 0.703582 0.000000
0.204995 0.704995 0.000000
0.206409 0.706409 0.000000
0.207823 0.707823 0.000000
0.209237 0.709237 0.000000
0.210650 0.710650 0.000000
0.212064 0.712064 0.000000
0.213478 0.713478 0.000000
0.214892 0.714892 0.000000
0.216305 0.716305 0.000000
0.217719 0.717719 0.000000
0.219133 0.719133 0.000000
0.220547 0.720547 0.000000
0.221960 0.721960 0.000000
0.223374 0.723374 0.000000
0.224788 0.724788 0.000000
0.226202 0.726202 0.000000
0.227615 0.727615 0.000000
0.229029 0.729029 0.000000
0.230443 0.730443 0.000000
0.231857 0.731857 0.000000
0.233270 0.733270 0.000000
0.234684 0.734684 0.000000
0.236098 0.736098 0.000000
0.237512 0.737512 0.000000
0.238926 0.738926 0.000000
0.240339 0.740339 0.000000
0.241753 0.741753 0.000000
0.243167 0.743167 0.000000
0.244581 0.744581 0.000000
0.245994 0.745994 0.000000
0.247408 0.747408 0.000000
0.248822 0.748822 0.000000
0.250236 0.750236 0.000000
0.251649 0.751649 0.000000
0.253063 0.753063 0.000000
0.254477 0.754477 0.000000
0.255891 0.755891 0.000000
0.257304 0.757304 0.000000
0.258718 0.758718 0.000000
0.260132 0.760132 0.000000
0.261546 0.761546 0.000000
0.262959 0.762959 0.000000
0.264373 0.764373 0.000000
0.265787 0.765787 0.000000
0.267201 0.767201 0.000000
0.268615 0.768615 0.000000
0.270028 0.770028 0.000000
0.271442 0.771442 0.000000
0.272856 0.772856 0.000000
0.274270 0.774270 0.000000
0.275683 0.775683 0.000000
0.277097 0.777097 0.000000
0.278511 0.778511 0.000000
0.279925 0.779925 0.000000
0.281338 0.781338 0.000000
0.282752 0.782752 0.000000
0.284166 0.784166 0.000000
0.285580 0.785580 0.000000
0.286993 0.786993 0.000000
0.288407 0.788407 0.000000
0.289821 0.789821 0.000000
0.291235 0.791235 0.000000
0.292648 0.792648 0.000000
0.294062 0.794062 0.000000
0.295476 0.795476 0.000000
0.296890 0.796890 0.000000
0.298303 0.798303 0.000000
0.299717 0.799717 0.000000
0.301131 0.801131 0.000000
0.302545 0.802545 0.000000
0.303959 0.803959 0.000000
0.305372 0.805372 0.000000
0.306786 0.806786 0.000000
0.308200 0.808200 0.000000
0.309614 0.809614 0.000000
0.311027 0.811027 0.000000
0.312441 0.812441 0.000000
0.313855 0.813855 0.000000
0.315269 0.815269 0.000000
0.316682 0.816682 0.000000
0.318096 0.818096 0.000000
0.319510 0.819510 0.000000
0.320924 0.820924 0.000000
0.322337 0.822337 0.000000
0.323751 0.823751 0.000000
0.325165 0.825165 0.000000
0.326579 0.826579 0.000000
0.327992 0.827992 0.000000
0.329406 0.829406 0.000000
0.330820 0.830820 0.000000
0.332234 0.832234 0.000000
0.333648 0.833648 0.000000
0.335061 0.835061 0.000000
0.336475 0.836475 0.000000
0.337889 0.837889 0.000000
0.339303 0.839303 0.000000
0.340716 0.840716 0.000000
[...]
POINT_DATA 20431
SCALARS UX float 1
LOOKUP_TABLE default
-0.000000
0.000000
0.067558
-0.070467
-0.055107
0.034021
0.068019
-0.000000
-0.000000
0.000000
-0.000000
0.046074
0.060326
0.065873
0.067896
0.068624
0.068831
0.068807
0.068724
0.068627
0.068531
0.068448
0.068377
0.068317
0.068267
0.068226
0.068191
0.068163
0.068139
0.068119
0.068102
0.068088
0.068076
0.068066
0.068058
0.068050
0.068044
0.068039
0.068035
0.068031
0.068028
0.068025
0.068023
0.068021
0.068017
0.068015
0.068012
0.068008
0.068003
0.067996
0.067987
0.067976
0.067962
0.067944
0.067922
0.067894
0.067859
0.067820
0.067772
0.067721
0.067668
0.067614
0.067575
0.039929
0.012312
-0.015289
-0.042880
-0.070465
-0.070465
-0.070478
-0.070513
-0.070575
-0.070651
-0.070735
-0.070801
-0.070816
-0.070763
-0.070640
-0.070427
-0.070109
-0.069698
-0.069199
-0.068627
-0.067991
-0.067303
-0.066584
-0.065844
-0.065097
-0.064352
-0.063626
-0.062910
-0.062228
-0.061579
-0.060960
-0.060381
-0.059838
-0.059334
-0.058868
-0.058436
-0.058041
-0.057678
-0.057346
-0.057043
-0.056768
-0.056517
-0.056290
-0.056085
-0.055899
-0.055731
-0.055579
-0.055442
-0.055318
-0.055207
-0.055002
-0.054856
-0.054654
-0.054372
-0.053976
-0.053422
-0.052613
-0.051455
-0.049744
-0.047077
-0.042953
-0.036434
-0.024907
-0.055088
-0.055068
-0.055048
-0.055027
-0.055006
-0.054984
-0.054962
-0.054940
-0.054917
-0.054894
-0.054870
-0.054846
-0.054822
-0.054797
-0.054772
-0.054747
-0.054721
-0.054695
-0.054669
-0.054642
-0.054615
-0.054588
-0.054560
-0.054532
-0.054503
-0.054475
-0.054446
-0.054416
-0.054387
-0.054357
-0.054326
-0.054296
-0.054265
-0.054234
-0.054203
-0.054171
-0.054139
-0.054107
-0.054074
-0.054042
-0.054009
-0.053975
-0.053942
-0.053908
-0.053874
-0.053840
-0.053805
-0.053770
-0.053735
-0.053700
-0.053664
-0.053628
-0.053592
-0.053555
-0.053519
-0.053482
-0.053445
-0.053408
-0.053370
-0.053333
-0.053295
-0.053257
-0.053218
-0.053180
-0.053141
-0.053102
-0.053063
-0.053024
-0.052984
-0.052944
-0.052904
-0.052864
-0.052824
-0.052783
-0.052742
-0.052701
-0.052660
-0.052618
-0.052577
-0.052535
-0.052492
-0.052450
-0.052407
-0.052365
-0.052322
-0.052278
-0.052235
-0.052191
-0.052148
-0.052104
-0.052059
-0.052015
-0.051971
-0.051926
-0.051881
-0.051836
-0.051790
-0.051744
-0.051699
-0.051653
-0.051606
-0.051560
-0.051513
-0.051467
-0.051420
-0.051372
-0.051325
-0.051277
-0.051230
-0.051182
-0.051133
-0.051085
-0.051036
-0.050988
-0.050939
-0.050889
-0.050840
-0.050790
-0.050740
-0.050690
-0.050640
-0.050590
-0.050539
-0.050488
-0.050437
-0.050386
-0.050335
-0.050283
-0.050231
-0.050179
-0.050127
-0.050075
-0.050022
-0.049969
-0.049916
-0.049863
-0.049810
-0.049756
-0.049703
-0.049649
-0.049595
-0.049541
-0.049486
-0.049432
-0.049377
-0.049322
-0.049267
-0.049211
-0.049156
-0.049100
-0.049044
-0.048988
-0.048931
-0.048875
-0.048818
-0.048761
-0.048704
-0.048647
-0.048589
-0.048532
-0.048474
-0.048416
-0.048358
-0.048300
-0.048241
-0.048182
-0.048124
-0.048065
-0.048005
-0.047946
-0.047886
-0.047827
-0.047767
-0.047707
-0.047647
-0.047586
-0.047526
-0.047465
-0.047404
-0.047343
-0.047282
-0.047220
-0.047159
-0.047097
-0.047035
-0.046973
-0.046911
-0.046849
-0.046786
-0.046724
-0.046661
-0.046598
-0.046535
-0.046472
-0.046408
-0.046345
-0.046281
-0.046217
-0.046153
-0.046089
-0.046024
-0.045960
-0.045895
-0.045830
-0.045765
-0.045700
-0.045635
-0.045569
-0.045504
-0.045438
-0.045372
-0.045306
-0.045240
-0.045174
-0.045107
-0.045040
-0.044974
-0.044907
-0.044840
-0.044772
-0.044705
-0.044638
-0.044570
-0.044502
-0.044434
-0.044366
-0.044298
-0.044230
-0.044161
-0.044092
-0.044024
-0.043955
-0.043886
-0.043816
-0.043747
-0.043678
-0.043608
-0.043538
-0.043468
-0.043398
-0.043328
-0.043258
-0.043187
-0.043117
-0.043046
-0.042975
-0.042904
-0.042833
-0.042762
-0.042691
-0.042619
-0.042548
-0.042476
-0.042404
-0.042332
-0.042260
-0.042187
-0.042115
-0.042042
-0.041970
-0.041897
-0.041824
-0.041751
-0.041678
-0.041604
-0.041531
-0.041457
-0.041384
-0.041310
-0.041236
-0.041162
-0.041088
-0.041013
-0.040939
-0.040864
-0.040789
-0.040715
-0.040640
-0.040565
-0.040489
-0.040414
-0.040339
-0.040263
-0.040187
-0.040111
-0.040035
-0.039959
-0.039883
-0.039807
-0.039730
-0.039654
-0.039577
-0.039500
-0.039424
-0.039346
-0.039269
-0.039192
-0.039115
-0.039037
-0.038960
-0.038882
-0.038804
-0.038726
-0.038648
-0.038570
-0.038492
-0.038413
-0.038335
-0.038256
-0.038177
-0.038098
-0.038020
-0.037940
-0.037861
-0.037782
-0.037703
-0.037623
-0.037543
-0.037464
-0.037384
-0.037304
-0.037224
-0.037144
-0.037064
-0.036983
-0.036903
-0.036822
-0.036742
-0.036661
-0.036580
-0.036499
-0.036418
-0.036337
-0.036255
-0.036174
-0.036092
-0.036011
-0.035929
-0.035847
-0.035765
-0.035683
-0.035601
-0.035519
-0.035437
-0.035354
-0.035272
-0.035189
-0.035106
-0.035024
-0.034941
-0.034858
-0.034774
-0.034691
-0.034608
-0.034525
-0.034441
-0.034357
-0.034274
-0.034190
-0.034106
-0.034022
-0.033938
-0.033854
-0.033769
-0.033685
-0.033600
-0.033516
-0.033431
-0.033346
-0.033262
-0.033177
-0.033092
-0.033006
-0.032921
-0.032836
-0.032750
-0.032665
-0.032579
-0.032494
-0.032408
-0.032322
-0.032236
-0.032150
-0.032064
-0.031977
-0.031891
-0.031805
-0.031718
-0.031632
-0.031545
-0.031458
-0.031371
-0.031284
-0.031197
-0.031110
-0.031023
-0.030936
-0.030848
-0.030761
-0.030673
-0.030585
-0.030498
-0.030410
-0.030322
-0.030234
-0.030146
-0.030058
-0.029969
-0.029881
-0.029793
-0.029704
-0.029615
-0.029527
-0.029438
-0.029349
-0.029260
-0.029171
-0.029082
-0.028993
-0.028904
-0.028814
-0.028725
-0.028635
-0.028546
-0.028456
-0.028366
-0.028276
-0.028187
-0.028097
-0.028006
-0.027916
-0.027826
-0.027736
-0.027645
-0.027555
-0.027464
-0.027374
-0.027283
-0.027192
-0.027101
-0.027011
-0.026920
-0.026829
-0.026737
-0.026646
-0.026555
-0.026464
-0.026372
-0.026281
-0.026189
-0.026097
-0.026006
-0.025914
-0.025822
-0.025730
-0.025638
-0.025546
-0.025454
-0.025362
-0.025269
-0.025177
-0.025084
-0.024992
-0.024899
-0.024807
-0.024714
-0.024621
-0.024529
-0.024436
-0.024343
-0.024250
-0.024157
-0.024063
-0.023970
-0.023877
-0.023783
-0.023690
-0.023597
-0.023503
-0.023409
-0.023316
-0.023222
-0.023128
-0.023034
-0.022940
-0.022846
-0.022752
-0.022658
-0.022564
-0.022470
-0.022376
-0.022281
-0.022187
-0.022092
-0.021998
-0.021903
-0.021808
-0.021714
-0.021619
-0.021524
-0.021429
-0.021334
-0.021239
-0.021144
-0.021049
-0.020954
-0.020859
-0.020763
-0.020668
-0.020573
-0.020477
-0.020382
-0.020286
-0.020191
-0.020095
-0.019999
-0.019903
-0.019808
-0.019712
-0.019616
-0.019520
-0.019424
-0.019328
-0.019231
-0.019135
-0.019039
-0.018943
-0.018846
-0.018750
-0.018654
-0.018557
-0.018461
-0.018364
-0.018267
-0.018171
-0.018074
-0.017977
-0.017880
-0.017783
-0.017687
-0.017590
-0.017493
-0.017396
-0.017298
-0.017201
-0.017104
-0.017007
-0.016910
-0.016812
-0.016715
-0.016618
-0.016520
-0.016423
-0.016325
-0.016228
-0.016130
-0.016032
-0.015935
-0.015837
-0.015739
-0.015641
-0.015543
-0.015446
-0.015348
-0.015250
-0.015152
-0.015054
-0.014955
-0.014857
-0.014759
-0.014661
-0.014563
-0.014465
-0.014366
-0.014268
-0.014170
-0.014071
-0.013973
-0.013874
-0.013776
-0.013677
-0.013579
-0.013480
-0.013381
-0.013283
-0.013184
-0.013085
-0.012986
-0.012888
-0.012789
-0.012690
-0.012591
-0.012492
-0.012393
-0.012294
-0.012195
-0.012096
-0.011997
-0.011898
-0.011799
-0.011700
-0.011600
-0.011501
-0.011402
-0.011303
-0.011203
-0.011104
-0.011005
-0.010905
-0.010806
-0.010706
-0.010607
-0.010507
-0.010408
-0.010308
-0.010209
-0.010109
-0.010010
-0.009910
-0.009810
-0.009711
-0.009611
-0.009511
-0.009412
-0.009312
-0.009212
-0.009112
-0.009012
-0.008913
-0.008813
-0.008713
-0.008613
-0.008513
-0.008413
-0.008313
-0.008213
-0.008113
-0.008013
-0.007913
-0.007813
-0.007713
-0.007613
-0.007513
-0.007413
-0.007312
-0.007212
-0.007112
-0.007012
-0.006912
-0.006811
-0.006711
-0.006611
-0.006511
-0.006410
-0.006310
-0.006210
-0.006109
-0.006009
-0.005909
-0.005808
-0.005708
-0.005608
-0.005507
-0.005407
-0.005306
-0.005206
-0.005105
-0.005005
-0.004905
-0.004804
-0.004704
-0.004603
-0.004502
-0.004402
-0.004301
-0.004201
-0.004100
-0.004000
-0.003899
-0.003799
-0.003698
-0.003597
-0.003497
-0.003396
-0.003295
-0.003195
-0.003094
-0.002994
-0.002893
-0.002792
-0.002692
-0.002591
-0.002490
-0.002389
-0.002289
-0.002188
-0.002087
-0.001987
-0.001886
-0.001785
-0.001684
-0.001584
-0.001483
-0.001382
-0.001282
-0.001181
-0.001080
-0.000979
-0.000878
-0.000778
-0.000677
-0.000576
-0.000475
-0.000375
-0.000274
-0.000173
-0.000072
0.000028
0.000129
0.000230
0.000331
0.000432
0.000532
0.000633
0.000734
0.000835
0.000936
0.001036
0.001137
0.001238
0.001339
0.001439
0.001540
0.001641
0.001742
0.001843
0.001943
0.002044
0.002145
0.002246
0.002346
0.002447
0.002548
0.002649
0.002750
0.002850
0.002951
0.003052
0.003153
0.003253
0.003354
0.003455
0.003555
0.003656
0.003757
0.003858
0.003958
0.004059
0.004160
0.004260
0.004361
0.004462
0.004563
0.004663
0.004764
0.004865
0.004965
0.005066
0.005167
0.005267
0.005368
0.005468
0.005569
0.005670
0.005770
0.005871
0.005971
0.006072
0.006173
0.006273
0.006374
0.006474
0.006575
0.006675
0.006776
0.006876
0.006977
0.007077
0.007178
0.007278
0.007379
0.007479
0.007580
0.007680
0.007781
0.007881
0.007981
0.008082
0.008182
0.008283
0.008383
0.008483
0.008584
0.008684
0.008784
0.008885
0.008985
0.009085
0.009186
0.009286
0.009386
0.009487
0.009587
0.009687
0.009787
0.009888
0.009988
0.010088
0.010188
0.010288
0.010389
0.010489
0.010589
0.010689
0.010789
0.010889
0.010989
0.011089
0.011189
0.011290
0.011390
0.011490
0.011590
0.011690
0.011790
0.011890
0.011990
0.012090
0.012190
0.012289
0.012389
0.012489
0.012589
0.012689
0.012789
0.012889
0.012989
0.013089
0.013188
0.013288
0.013388
0.013488
0.013587
0.013687
0.013787
0.013887
0.013986
0.014086
0.014186
0.014285
0.014385
0.014485
0.014584
0.014684
0.014784
0.014883
0.014983
0.015082
0.015182
0.015281
0.015381
0.015480
0.015580
0.015679
0.015779
0.015878
0.015978
0.016077
0.016176
0.016276
0.016375
0.016475
0.016574
0.016673
0.016773
0.016872
0.016971
0.017070
0.017170
0.017269
0.017368
0.017467
0.017567
0.017666
0.017765
0.017864
0.017963
0.018062
0.018161
0.018260
0.018360
0.018459
0.018558
0.018657
0.018756
0.018855
0.018954
0.019053
0.019152
0.019250
0.019349
0.019448
0.019547
0.019646
0.019745
0.019844
0.019943
0.020041
0.020140
0.020239
0.020338
0.020436
0.020535
0.020634
0.020733
0.020831
0.020930
0.021029
0.021127
0.021226
0.021324
0.021423
0.021522
0.021620
0.021719
0.021817
0.021916
0.022014
0.022113
0.022211
0.022310
0.022408
0.022507
0.022605
0.022703
0.022802
0.022900
0.022998
0.023097
0.023195
0.023293
0.023392
0.023490
0.023588
0.023687
0.023785
0.023883
0.023981
0.024079
0.024178
0.024276
0.024374
0.024472
0.024570
0.024668
0.024766
0.024864
0.024962
0.025060
0.025158
0.025256
0.025354
0.025452
0.025550
0.025648
0.025746
0.025844
0.025942
0.026040
0.026138
0.026236
0.026334
0.026431
0.026529
0.026627
0.026725
0.026823
0.026920
0.027018
0.027116
0.027213
0.027311
0.027409
0.027507
0.027604
0.027702
0.027799
0.027897
0.027995
0.028092
0.028190
0.028287
0.028385
0.028483
0.028580
0.028678
0.028775
0.028873
0.028970
0.029067
0.029165
0.029262
0.029360
0.029457
0.029555
0.029652
0.029749
0.029847
0.029944
0.030041
0.030139
0.030236
0.030333
0.030430
0.030528
0.030625
0.030722
0.030819
0.030917
0.031014
0.031111
0.031208
0.031305
0.031403
0.031500
0.031597
0.031694
0.031791
0.031888
0.031985
0.032082
0.032179
0.032276
0.032373
0.032470
0.032567
0.032664
0.032761
0.032858
0.032955
0.033052
0.033149
0.033246
0.033343
0.033440
0.033537
0.033634
0.033731
0.033828
0.033924
0.034118
0.034215
0.034312
0.034408
0.034505
0.034602
0.034698
0.034795
0.034892
0.034988
0.035085
0.035182
0.035278
0.035375
0.035471
0.035568
0.035665
0.035761
0.035858
0.035954
0.036051
0.036147
0.036244
0.036340
0.036437
0.036533
0.036630
0.036726
0.036823
0.036919
0.037016
0.037112
0.037209
0.037305
0.037401
0.037498
0.037594
0.037691
0.037787
0.037883
0.037980
0.038076
0.038172
0.038269
0.038365
0.038461
0.038558
0.038654
0.038750
0.038847
0.038943
0.039039
0.039135
0.039232
0.039328
0.039424
0.039520
0.039617
0.039713
0.039809
0.039905
0.040002
0.040098
0.040194
0.040290
0.040386
0.040482
0.040579
0.040675
0.040771
0.040867
0.040963
0.041059
0.041155
0.041252
0.041348
0.041444
0.041540
0.041636
0.041732
0.041828
0.041924
0.042020
0.042116
0.042212
0.042308
0.042405
0.042501
0.042597
0.042693
0.042789
0.042885
0.042981
0.043077
0.043173
0.043269
0.043365
0.043461
0.043557
0.043653
0.043749
0.043845
0.043941
0.044036
0.044132
0.044228
0.044324
0.044420
0.044516
0.044612
0.044708
0.044804
0.044900
0.044996
0.045092
0.045188
0.045284
0.045380
0.045475
0.045571
0.045667
0.045763
0.045859
0.045955
0.046051
0.046147
0.046242
0.046338
0.046434
0.046530
0.046626
0.046722
0.046818
0.046914
0.047009
0.047105
0.047201
0.047297
0.047393
0.047489
0.047584
0.047680
0.047776
0.047872
0.047968
0.048064
0.048159
0.048255
0.048351
0.048447
0.048543
0.048638
0.048734
0.048830
0.048926
0.049022
0.049117
0.049213
0.049309
0.049405
0.049501
0.049596
0.049692
0.049788
0.049884
0.049980
0.050075
0.050171
0.050267
0.050363
0.050459
0.050554
0.050650
0.050746
0.050842
0.050938
0.051033
0.051129
0.051225
0.051321
0.051416
0.051512
0.051608
0.051704
0.051800
0.051895
0.051991
0.052087
0.052183
0.052279
0.052374
0.052470
0.052566
0.052662
0.052757
0.052853
0.052949
0.053045
0.053141
0.053236
0.053332
0.053428
0.053524
0.053620
0.053715
0.053811
0.053907
0.054003
0.054099
0.054194
0.054290
0.054386
0.054482
0.054578
0.054673
0.054769
0.054865
0.054961
0.055057
0.055152
0.055248
0.055344
0.055440
0.055536
0.055632
0.055727
0.055823
0.055919
0.056015
0.056111
0.056207
0.056302
0.056398
0.056494
0.056590
0.056686
0.056782
0.056877
0.056973
0.057069
0.057165
0.057261
0.057357
0.057453
0.057548
0.057644
0.057740
0.057836
0.057932
0.058028
0.058124
0.058220
0.058315
0.058411
0.058507
0.058603
0.058699
0.058795
0.058891
0.058987
0.059083
0.059179
0.059274
0.059370
0.059466
0.059562
0.059658
0.059754
0.059850
0.059946
0.060042
0.060138
0.060234
0.060330
0.060426
0.060522
0.060618
0.060714
0.060810
0.060906
0.061002
0.061098
0.061193
0.061289
0.061385
0.061481
0.061577
0.061673
0.061769
0.061865
0.061962
0.062058
0.062154
0.062250
0.062346
0.062442
0.062538
0.062634
0.062730
0.062826
0.062922
0.063018
0.063114
0.063210
0.063306
0.063402
0.063498
0.063594
0.063690
0.063787
0.063883
0.063979
0.064075
0.064171
0.064267
0.064363
0.064459
0.064555
0.064652
0.064748
0.064844
0.064940
0.065036
0.065132
0.065228
0.065325
0.065421
0.065517
0.065613
0.065709
0.065805
0.065902
0.065998
0.066094
0.066190
0.066286
0.066383
0.066479
0.066575
0.066671
0.066768
0.066864
0.066960
0.067056
0.067153
0.067249
0.067345
0.067441
0.067538
0.067634
0.067730
0.067826
0.067923
0.048404
0.048451
0.048303
0.043283
0.043354
0.043422
-0.034986
-0.034935
-0.035083
-0.035145
-0.018420
0.054996
0.055169
0.055205
0.055310
0.046456
0.046301
0.046350
-0.018785
-0.018684
-0.018806
-0.018629
-0.050811
-0.050883
-0.050705
-0.050728
-0.019415
-0.019340
-0.019268
0.018984
0.018831
0.018917
0.018968
-0.031806
-0.032638
-0.038448
-0.039612
0.013416
0.013265
0.013324
0.013310
-0.014804
-0.015121
-0.014850
-0.014864
0.035247
0.034957
0.034661
0.035622
-0.051041
-0.050982
-0.050806
0.016500
0.016482
0.016660
0.016741
0.000825
-0.003132
-0.002185
-0.005465
0.008127
0.008343
0.008428
-0.027146
-0.025868
-0.027201
-0.004481
-0.004383
-0.004624
-0.004517
0.042811
0.043323
0.043272
0.043800
-0.001119
-0.000771
-0.000915
-0.000418
0.014393
0.014546
0.014273
0.014618
0.013412
0.013521
0.013329
0.013610
-0.007297
-0.007322
-0.007455
-0.007533
0.048041
0.047976
0.047796
-0.020188
-0.020470
-0.020275
0.008140
0.047730
0.047553
0.047548
0.047814
0.021992
0.022165
0.022085
-0.000336
-0.000298
-0.000444
0.022153
0.013267
0.012779
0.012605
-0.000182
0.025403
0.025295
0.025064
0.039924
0.040095
0.039897
0.040171
0.024614
0.024711
0.024538
0.024772
0.025004
-0.043867
-0.044066
-0.043963
0.056581
0.056418
0.056687
-0.044154
-0.030650
-0.030780
-0.030904
-0.030531
-0.024696
-0.024582
-0.024987
-0.024706
-0.013817
-0.014114
-0.013900
0.007245
0.007412
0.007200
0.007350
-0.014160
0.022096
0.022222
0.021994
-0.023448
-0.023680
-0.023462
-0.025635
-0.025947
-0.026190
0.022218
0.043997
0.044040
0.043830
-0.039147
-0.039083
-0.039001
0.047129
0.047312
0.047324
0.047161
0.027740
0.027481
0.027585
0.027208
0.000862
-0.000484
0.000898
0.000556
0.020848
0.021403
0.019938
0.022245
-0.036993
-0.036884
-0.037208
-0.036669
0.064028
0.063902
-0.053326
-0.052877
-0.052620
-0.052124
-0.034570
-0.033667
-0.031597
-0.037202
0.066154
0.066204
0.066433
-0.039878
-0.036705
-0.040086
-0.040312
-0.039473
0.045664
0.045631
0.045398
0.017888
0.017795
0.018012
0.017942
0.001302
0.000900
0.001188
-0.051614
-0.051593
-0.051880
-0.051643
0.066244
0.065864
0.066359
0.065744
0.056689
0.056858
0.057038
0.045334
0.027304
0.027113
0.026917
0.026766
-0.006077
-0.005966
-0.005836
-0.006163
-0.010947
-0.011580
-0.013328
0.057873
0.057823
0.057327
0.057529
-0.014658
-0.014289
-0.016065
-0.015309
0.026821
0.026841
0.026666
0.015575
0.016109
0.020595
0.011328
-0.045667
-0.045904
-0.045161
-0.046729
0.061093
0.061236
0.013896
0.013877
0.013977
0.026992
0.001734
0.002441
0.002923
0.003310
-0.024898
-0.025145
-0.025037
-0.025018
-0.024140
-0.027847
-0.026662
-0.024265
-0.005588
-0.005301
-0.005796
-0.005731
-0.029969
-0.029031
-0.028334
-0.027595
0.060207
0.060541
0.060756
0.060191
-0.027546
-0.027503
-0.027416
-0.057065
-0.059492
-0.057151
-0.057392
-0.048490
-0.048627
-0.048651
-0.008943
-0.008978
-0.018753
-0.018780
-0.019962
-0.017682
0.025126
0.023623
0.023829
0.022163
0.003517
0.009656
0.008848
0.007863
0.032909
0.033034
0.032099
0.032100
0.053673
0.052426
0.052843
0.053582
-0.023030
-0.022941
-0.023690
-0.023830
-0.019525
-0.019442
-0.019327
-0.019702
0.036728
0.037305
0.036868
0.037229
0.036195
0.036132
0.036833
-0.004553
-0.004378
-0.004338
-0.004544
0.063454
0.062746
0.063397
0.047768
-0.012072
-0.013406
-0.012731
-0.012649
0.052874
0.052924
0.052611
0.052729
0.010209
0.010397
0.010257
0.010477
0.025134
0.025427
-0.006874
-0.006370
-0.005939
-0.005575
-0.001809
-0.001790
-0.000128
-0.003517
-0.000696
-0.000592
-0.000515
0.058984
0.058782
0.058761
-0.035349
-0.035456
-0.034940
-0.034901
-0.000470
-0.030098
-0.028157
-0.029615
0.053804
0.054054
0.054464
0.054707
0.050313
0.050207
0.050188
0.050019
0.023855
0.023329
0.023193
0.024358
0.020582
0.020406
0.020324
0.020607
0.020476
0.020697
0.026332
0.025553
0.026060
-0.003624
-0.003777
-0.003594
0.014965
0.012958
0.017714
-0.003667
0.034245
0.034641
0.033424
0.029101
0.029323
0.029312
0.029167
0.043555
0.043592
0.043330
-0.030290
-0.026908
0.043779
0.041341
0.041275
0.041164
0.041111
-0.023840
-0.023746
-0.023882
0.053109
0.014303
0.014376
0.013931
0.013860
-0.043364
-0.041980
-0.042486
-0.041340
0.017415
0.017391
0.017238
0.017567
-0.028717
-0.028197
-0.029507
-0.027982
-0.034851
-0.035582
-0.032758
-0.037467
0.037143
0.037059
0.037312
-0.030101
-0.029842
-0.030510
0.019144
0.019099
0.018415
0.017964
0.046440
0.038487
0.038298
0.038482
0.028867
0.029828
0.029021
0.029685
-0.007260
-0.008047
-0.008221
0.038293
0.040627
0.040940
0.040633
0.020446
0.020905
0.021130
0.021591
0.025310
0.023653
-0.014392
-0.014915
-0.014196
-0.015383
-0.039929
-0.041829
-0.041831
-0.038864
-0.030212
-0.030670
0.012512
0.012417
0.013143
0.040800
-0.008828
-0.007221
-0.006594
-0.009248
0.020130
0.022112
0.030201
0.030312
0.030234
-0.029944
-0.029515
-0.029378
0.030418
-0.024101
-0.024059
-0.023946
0.042682
0.042484
0.042600
0.042402
-0.015941
-0.015869
-0.015800
-0.028181
-0.032598
0.007620
0.007577
0.007480
0.045374
0.045336
0.045225
0.045166
0.030338
0.030455
0.030535
0.011022
0.010413
0.010250
0.009370
0.029368
0.029216
0.029281
0.029121
0.025622
0.025697
0.025551
0.040514
0.040649
0.040725
0.029350
0.029157
0.030269
0.040788
-0.036575
-0.036579
-0.036422
0.028392
0.021824
0.021371
0.022036
0.030300
-0.038915
-0.038852
-0.038953
0.015279
0.011975
0.013317
-0.036732
0.038097
0.038104
0.038317
0.054610
0.054686
0.054511
0.054611