# vtk DataFile Version 2.0
Test
ASCII
DATASET POLYDATA
POINTS 20431 float
0.000000 0.000000 0.000000
2.000000 0.000000 0.000000
2.000000 4.000000 0.000000
0.000000 4.000000 0.000000
0.000000 0.500000 0.000000
1.500000 2.000000 0.000000
2.000000 2.500000 0.000000
0.400000 0.000000 0.000000
0.800000 0.000000 0.000000
1.200000 0.000000 0.000000
1.600000 0.000000 0.000000
2.000000 0.362557 0.000000
2.000000 0.672798 0.000000
2.000000 0.938272 0.000000
2.000000 1.165439 0.000000
2.000000 1.359826 0.000000
2.000000 1.526163 0.000000
2.000000 1.668499 0.000000
2.000000 1.790295 0.000000
2.000000 1.894517 0.000000
2.000000 1.983700 0.000000
2.000000 2.060013 0.000000
2.000000 2.125315 0.000000
2.000000 2.181194 0.000000
2.000000 2.229010 0.000000
2.000000 2.269926 0.000000
2.000000 2.304938 0.000000
2.000000 2.334898 0.000000
2.000000 2.360534 0.000000
2.000000 2.382472 0.000000
2.000000 2.401244 0.000000
2.000000 2.417307 0.000000
2.000000 2.431052 0.000000
2.000000 2.442814 0.000000
2.000000 2.452878 0.000000
2.000000 2.461491 0.000000
2.000000 2.468860 0.000000
2.000000 2.475167 0.000000
2.000000 2.480563 0.000000
2.000000 2.485180 0.000000
2.000000 2.489132 0.000000
2.000000 2.492513 0.000000
2.000000 2.495406 0.000000
2.000000 2.497882 0.000000
2.000000 2.502286 0.000000
2.000000 2.505266 0.000000
2.000000 2.509150 0.000000
2.000000 2.514212 0.000000
2.000000 2.520809 0.000000
2.000000 2.529407 0.000000
2.000000 2.540613 0.000000
2.000000 2.555218 0.000000
2.000000 2.574253 0.000000
2.000000 2.599061 0.000000
2.000000 2.631395 0.000000
2.000000 2.673536 0.000000
2.000000 2.728460 0.000000
2.000000 2.800043 0.000000
2.000000 2.893339 0.000000
2.000000 3.014933 0.000000
2.000000 3.173410 0.000000
2.000000 3.379956 0.000000
2.000000 3.649152 0.000000
1.600000 4.000000 0.000000
1.200000 4.000000 0.000000
0.800000 4.000000 0.000000
0.400000 4.000000 0.000000
0.000000 3.624996 0.000000
0.000000 3.289970 0.000000
0.000000 2.990661 0.000000
0.000000 2.723261 0.000000
0.000000 2.484368 0.000000
0.000000 2.270943 0.000000
0.000000 2.080271 0.000000
0.000000 1.909926 0.000000
0.000000 1.757741 0.000000
0.000000 1.621780 0.000000
0.000000 1.500314 0.000000
0.000000 1.391797 0.000000
0.000000 1.294849 0.000000
0.000000 1.208237 0.000000
0.000000 1.130858 0.000000
0.000000 1.061728 0.000000
0.000000 0.999968 0.000000
0.000000 0.944792 0.000000
0.000000 0.895499 0.000000
0.000000 0.851460 0.000000
0.000000 0.812117 0.000000
0.000000 0.776968 0.000000
0.000000 0.745565 0.000000
0.000000 0.717511 0.000000
0.000000 0.692448 0.000000
0.000000 0.670056 0.000000
0.000000 0.650052 0.000000
0.000000 0.632180 0.000000
0.000000 0.616213 0.000000
0.000000 0.601949 0.000000
0.000000 0.589205 0.000000
0.000000 0.577820 0.000000
0.000000 0.567649 0.000000
0.000000 0.558562 0.000000
0.000000 0.550444 0.000000
0.000000 0.543191 0.000000
0.000000 0.536712 0.000000
0.000000 0.530923 0.000000
0.000000 0.525751 0.000000
0.000000 0.521131 0.000000
0.000000 0.517003 0.000000
0.000000 0.513315 0.000000
0.000000 0.510021 0.000000
0.000000 0.507078 0.000000
0.000000 0.504448 0.000000
0.000000 0.502099 0.000000
0.000000 0.497804 0.000000
0.000000 0.494785 0.000000
0.000000 0.490633 0.000000
0.000000 0.484924 0.000000
0.000000 0.477074 0.000000
0.000000 0.466279 0.000000
0.000000 0.451436 0.000000
0.000000 0.431025 0.000000
0.000000 0.402959 0.000000
0.000000 0.364366 0.000000
0.000000 0.311297 0.000000
0.000000 0.238324 0.000000
0.000000 0.137980 0.000000
0.001414 0.501414 0.000000
0.002828 0.502828 0.000000
0.004241 0.504241 0.000000
0.005655 0.505655 0.000000
0.007069 0.507069 0.000000
0.008483 0.508483 0.000000
0.009896 0.509896 0.000000
0.011310 0.511310 0.000000
0.012724 0.512724 0.000000
0.014138 0.514138 0.000000
0.015551 0.515551 0.000000
0.016965 0.516965 0.000000
0.018379 0.518379 0.000000
0.019793 0.519793 0.000000
0.021206 0.521206 0.000000
0.022620 0.522620 0.000000
0.024034 0.524034 0.000000
0.025448 0.525448 0.000000
0.026861 0.526861 0.000000
0.028275 0.528275 0.000000
0.029689 0.529689 0.000000
0.031103 0.531103 0.000000
0.032516 0.532516 0.000000
0.033930 0.533930 0.000000
0.035344 0.535344 0.000000
0.036758 0.536758 0.000000
0.038172 0.538172 0.000000
0.039585 0.539585 0.000000
0.040999 0.540999 0.000000
0.042413 0.542413 0.000000
0.043827 0.543827 0.000000
0.045240 0.545240 0.000000
0.046654 0.546654 0.000000
0.048068 0.548068 0.000000
0.049482 0.549482 0.000000
0.050895 0.550895 0.000000
0.052309 0.552309 0.000000
0.053723 0.553723 0.000000
0.055137 0.555137 0.000000
0.056550 0.556550 0.000000
0.057964 0.557964 0.000000
0.059378 0.559378 0.000000
0.060792 0.560792 0.000000
0.062205 0.562205 0.000000
0.063619 0.563619 0.000000
0.065033 0.565033 0.000000
0.066447 0.566447 0.000000
0.067861 0.567861 0.000000
0.069274 0.569274 0.000000
0.070688 0.570688 0.000000
0.072102 0.572102 0.000000
0.073516 0.573516 0.000000
0.074929 0.574929 0.000000
0.076343 0.576343 0.000000
0.077757 0.577757 0.000000
0.079171 0.579171 0.000000
0.080584 0.580584 0.000000
0.081998 0.581998 0.000000
0.083412 0.583412 0.000000
0.084826 0.584826 0.000000
0.086239 0.586239 0.000000
0.087653 0.587653 0.000000
0.089067 0.589067 0.000000
0.090481 0.590481 0.000000
0.091894 0.591894 0.000000
0.093308 0.593308 0.000000
0.094722 0.594722 0.000000
0.096136 0.596136 0.000000
0.097549 0.597549 0.000000
0.098963 0.598963 0.000000
0.100377 0.600377 0.000000
0.101791 0.601791 0.000000
0.103205 0.603205 0.000000
0.104618 0.604618 0.000000
0.106032 0.606032 0.000000
0.107446 0.607446 0.000000
0.108860 0.608860 0.000000
0.110273 0.610273 0.000000
0.111687 0.611687 0.000000
0.113101 0.613101 0.000000
0.114515 0.614515 0.000000
0.115928 0.615928 0.000000
0.117342 0.617342 0.000000
0.118756 0.618756 0.000000
0.120170 0.620170 0.000000
0.121583 0.621583 0.000000
0.122997 0.622997 0.000000
0.124411 0.624411 0.000000
0.125825 0.625825 0.000000
0.127238 0.627238 0.000000
0.128652 0.628652 0.000000
0.130066 0.630066 0.000000
0.131480 0.631480 0.000000
0.132893 0.632893 0.000000
0.134307 0.634307 0.000000
0.135721 0.635721 0.000000
0.137135 0.637135 0.000000
0.138549 0.638549 0.000000
0.139962 0.639962 0.000000
0.141376 0.641376 0.000000
0.142790 0.642790 0.000000
0.144204 0.644204 0.000000
0.145617 0.645617 0.000000
0.147031 0.647031 0.000000
0.148445 0.648445 0.000000
0.149859 0.649859 0.000000
0.151272 0.651272 0.000000
0.152686 0.652686 0.000000
0.154100 0.654100 0.000000
0.155514 0.655514 0.000000
0.156927 0.656927 0.000000
0.158341 0.658341 0.000000
0.159755 0.659755 0.000000
0.161169 0.661169 0.000000
0.162582 0.662582 0.000000
0.163996 0.663996 0.000000
0.165410 0.665410 0.000000
0.166824 0.666824 0.000000
0.168238 0.668238 0.000000
0.169651 0.669651 0.000000
0.171065 0.671065 0.000000
0.172479 0.672479 0.000000
0.173893 0.673893 0.000000
0.175306 0.675306 0.000000
0.176720 0.676720 0.000000
0.178134 0.678134 0.000000
0.179548 0.679548 0.000000
0.180961 0.680961 0.000000
0.182375 0.682375 0.000000
0.183789 0.683789 0.000000
0.185203 0.685203 0.000000
0.186616 0.686616 0.000000
0.188030 0.688030 0.000000
0.189444 0.689444 0.000000
0.190858 0.690858 0.000000
0.192271 0.692271 0.000000
0.193685 0.693685 0.000000
0.195099 0.695099 0.000000
0.196513 0.696513 0.000000
0.197926 0.697926 0.000000
0.199340 0.699340 0.000000
0.200754 0.700754 0.000000
0.202168 0.702168 0.000000
0.203582 0.703582 0.000000
0.204995 0.704995 0.000000
0.206409 0.706409 0.000000
0.207823 0.707823 0.000000
0.209237 0.709237 0.000000
0.210650 0.710650 0.000000
0.212064 0.712064 0.000000
0.213478 0.713478 0.000000
0.214892 0.714892 0.000000
0.216305 0.716305 0.000000
0.217719 0.717719 0.000000
0.219133 0.719133 0.000000
0.220547 0.720547 0.000000
0.221960 0.721960 0.000000
0.223374 0.723374 0.000000
0.224788 0.724788 0.000000
0.226202 0.726202 0.000000
0.227615 0.727615 0.000000
0.229029 0.729029 0.000000
0.230443 0.730443 0.000000
0.231857 0.731857 0.000000
0.233270 0.733270 0.000000
0.234684 0.734684 0.000000
0.236098 0.736098 0.000000
0.237512 0.737512 0.000000
0.238926 0.738926 0.000000
0.240339 0.740339 0.000000
0.241753 0.741753 0.000000
0.243167 0.743167 0.000000
0.244581 0.744581 0.000000
0.245994 0.745994 0.000000
0.247408 0.747408 0.000000
0.248822 0.748822 0.000000
0.250236 0.750236 0.000000
0.251649 0.751649 0.000000
0.253063 0.753063 0.000000
0.254477 0.754477 0.000000
0.255891 0.755891 0.000000
0.257304 0.757304 0.000000
0.258718 0.758718 0.000000
0.260132 0.760132 0.000000
0.261546 0.761546 0.000000
0.262959 0.762959 0.000000
0.264373 0.764373 0.000000
0.265787 0.765787 0.000000
0.267201 0.767201 0.000000
0.268615 0.768615 0.000000
0.270028 0.770028 0.000000
0.271442 0.771442 0.000000
0.272856 0.772856 0.000000
0.274270 0.774270 0.000000
0.275683 0.775683 0.000000
0.277097 0.777097 0.000000
0.278511 0.778511 0.000000
0.279925 0.779925 0.000000
0.281338 0.781338 0.000000
0.282752 0.782752 0.000000
0.284166 0.784166 0.000000
0.285580 0.785580 0.000000
0.286993 0.786993 0.000000
0.288407 0.788407 0.000000
0.289821 0.789821 0.000000
0.291235 0.791235 0.000000
0.292648 0.792648 0.000000
0.294062 0.794062 0.000000
0.295476 0.795476 0.000000
0.296890 0.796890 0.000000
0.298303 0.798303 0.000000
0.299717 0.799717 0.000000
0.301131 0.801131 0.000000
0.302545 0.802545 0.000000
0.303959 0.803959 0.000000
0.305372 0.805372 0.000000
0.306786 0.806786 0.000000
0.308200 0.808200 0.000000
0.309614 0.809614 0.000000
0.311027 0.811027 0.000000
0.312441 0.812441 0.000000
0.313855 0.813855 0.000000
0.315269 0.815269 0.000000
0.316682 0.816682 0.000000
0.318096 0.818096 0.000000
0.319510 0.819510 0.000000
0.320924 0.820924 0.000000
0.322337 0.822337 0.000000
0.323751 0.823751 0.000000
0.325165 0.825165 0.000000
0.326579 0.826579 0.000000
0.327992 0.827992 0.000000
0.329406 0.829406 0.000000
0.330820 0.830820 0.000000
0.332234 0.832234 0.000000
0.333648 0.833648 0.000000
0.335061 0.835061 0.000000
0.336475 0.836475 0.000000
0.337889 0.837889 0.000000
0.339303 0.839303 0.000000
0.340716 0.840716 0.000000
[...]
POINT_DATA 20431
SCALARS UX float 1
LOOKUP_TABLE default
-0.000000
0.000000
0.037768
-0.039395
-0.030808
0.019020
0.038026
-0.000000
-0.000000
0.000000
-0.000000
0.025758
0.033726
0.036827
0.037958
0.038365
0.038480
0.038467
0.038421
0.038366
0.038312
0.038266
0.038227
0.038193
0.038165
0.038142
0.038123
0.038107
0.038093
0.038082
0.038073
0.038065
0.038058
0.038053
0.038048
0.038044
0.038040
0.038038
0.038035
0.038033
0.038031
0.038030
0.038028
0.038027
0.038025
0.038024
0.038022
0.038020
0.038017
0.038013
0.038009
0.038002
0.037995
0.037985
0.037972
0.037956
0.037937
0.037915
0.037888
0.037860
0.037830
0.037800
0.037778
0.022323
0.006883
-0.008548
-0.023972
-0.039394
-0.039394
-0.039401
-0.039421
-0.039455
-0.039498
-0.039545
-0.039582
-0.039590
-0.039560
-0.039492
-0.039373
-0.039195
-0.038965
-0.038686
-0.038366
-0.038011
-0.037626
-0.037224
-0.036810
-0.036393
-0.035976
-0.035570
-0.035170
-0.034789
-0.034426
-0.034080
-0.033756
-0.033453
-0.033171
-0.032910
-0.032669
-0.032448
-0.032245
-0.032059
-0.031890
-0.031736
-0.031596
-0.031469
-0.031354
-0.031250
-0.031156
-0.031071
-0.030995
-0.030926
-0.030864
-0.030749
-0.030668
-0.030555
-0.030397
-0.030176
-0.029866
-0.029414
-0.028766
-0.027810
-0.026319
-0.024013
-0.020369
-0.013924
-0.030797
-0.030786
-0.030775
-0.030763
-0.030751
-0.030739
-0.030727
-0.030714
-0.030702
-0.030689
-0.030675
-0.030662
-0.030649
-0.030635
-0.030621
-0.030607
-0.030592
-0.030578
-0.030563
-0.030548
-0.030533
-0.030517
-0.030502
-0.030486
-0.030470
-0.030454
-0.030438
-0.030422
-0.030405
-0.030388
-0.030371
-0.030354
-0.030337
-0.030320
-0.030302
-0.030285
-0.030267
-0.030249
-0.030231
-0.030212
-0.030194
-0.030175
-0.030156
-0.030137
-0.030118
-0.030099
-0.030080
-0.030060
-0.030041
-0.030021
-0.030001
-0.029981
-0.029961
-0.029940
-0.029920
-0.029899
-0.029879
-0.029858
-0.029837
-0.029816
-0.029795
-0.029773
-0.029752
-0.029731
-0.029709
-0.029687
-0.029665
-0.029643
-0.029621
-0.029599
-0.029577
-0.029554
-0.029531
-0.029509
-0.029486
-0.029463
-0.029440
-0.029417
-0.029393
-0.029370
-0.029346
-0.029322
-0.029299
-0.029275
-0.029251
-0.029226
-0.029202
-0.029178
-0.029153
-0.029129
-0.029104
-0.029079
-0.029054
-0.029029
-0.029004
-0.028979
-0.028953
-0.028928
-0.028902
-0.028877
-0.028851
-0.028825
-0.028799
-0.028773
-0.028746
-0.028720
-0.028694
-0.028667
-0.028640
-0.028613
-0.028586
-0.028559
-0.028532
-0.028505
-0.028477
-0.028450
-0.028422
-0.028395
-0.028367
-0.028339
-0.028311
-0.028282
-0.028254
-0.028226
-0.028197
-0.028169
-0.028140
-0.028111
-0.028082
-0.028053
-0.028024
-0.027994
-0.027965
-0.027936
-0.027906
-0.027876
-0.027847
-0.027817
-0.027787
-0.027756
-0.027726
-0.027696
-0.027666
-0.027635
-0.027604
-0.027574
-0.027543
-0.027512
-0.027481
-0.027449
-0.027418
-0.027387
-0.027355
-0.027324
-0.027292
-0.027260
-0.027228
-0.027196
-0.027164
-0.027132
-0.027100
-0.027067
-0.027035
-0.027002
-0.026969
-0.026937
-0.026904
-0.026871
-0.026838
-0.026804
-0.026771
-0.026738
-0.026704
-0.026671
-0.026637
-0.026603
-0.026569
-0.026535
-0.026501
-0.026467
-0.026433
-0.026399
-0.026364
-0.026330
-0.026295
-0.026261
-0.026226
-0.026191
-0.026156
-0.026121
-0.026086
-0.026051
-0.026016
-0.025980
-0.025945
-0.025909
-0.025874
-0.025838
-0.025802
-0.025766
-0.025730
-0.025694
-0.025658
-0.025622
-0.025585
-0.025549
-0.025512
-0.025476
-0.025439
-0.025402
-0.025366
-0.025329
-0.025292
-0.025255
-0.025217
-0.025180
-0.025143
-0.025105
-0.025068
-0.025030
-0.024993
-0.024955
-0.024917
-0.024879
-0.024841
-0.024803
-0.024765
-0.024727
-0.024688
-0.024650
-0.024612
-0.024573
-0.024535
-0.024496
-0.024457
-0.024418
-0.024379
-0.024340
-0.024301
-0.024262
-0.024223
-0.024184
-0.024144
-0.024105
-0.024065
-0.024026
-0.023986
-0.023946
-0.023906
-0.023866
-0.023826
-0.023786
-0.023746
-0.023706
-0.023666
-0.023626
-0.023585
-0.023545
-0.023504
-0.023463
-0.023423
-0.023382
-0.023341
-0.023300
-0.023259
-0.023218
-0.023177
-0.023136
-0.023094
-0.023053
-0.023012
-0.022970
-0.022929
-0.022887
-0.022845
-0.022804
-0.022762
-0.022720
-0.022678
-0.022636
-0.022594
-0.022551
-0.022509
-0.022467
-0.022424
-0.022382
-0.022340
-0.022297
-0.022254
-0.022212
-0.022169
-0.022126
-0.022083
-0.022040
-0.021997
-0.021954
-0.021911
-0.021867
-0.021824
-0.021781
-0.021737
-0.021694
-0.021650
-0.021606
-0.021563
-0.021519
-0.021475
-0.021431
-0.021387
-0.021343
-0.021299
-0.021255
-0.021211
-0.021167
-0.021122
-0.021078
-0.021033
-0.020989
-0.020944
-0.020900
-0.020855
-0.020810
-0.020765
-0.020721
-0.020676
-0.020631
-0.020586
-0.020541
-0.020495
-0.020450
-0.020405
-0.020360
-0.020314
-0.020269
-0.020223
-0.020178
-0.020132
-0.020086
-0.020041
-0.019995
-0.019949
-0.019903
-0.019857
-0.019811
-0.019765
-0.019719
-0.019673
-0.019626
-0.019580
-0.019534
-0.019487
-0.019441
-0.019394
-0.019348
-0.019301
-0.019254
-0.019208
-0.019161
-0.019114
-0.019067
-0.019020
-0.018973
-0.018926
-0.018879
-0.018832
-0.018785
-0.018737
-0.018690
-0.018643
-0.018595
-0.018548
-0.018500
-0.018452
-0.018405
-0.018357
-0.018309
-0.018261
-0.018214
-0.018166
-0.018118
-0.018070
-0.018022
-0.017974
-0.017925
-0.017877
-0.017829
-0.017781
-0.017732
-0.017684
-0.017635
-0.017587
-0.017538
-0.017490
-0.017441
-0.017392
-0.017343
-0.017295
-0.017246
-0.017197
-0.017148
-0.017099
-0.017050
-0.017001
-0.016952
-0.016902
-0.016853
-0.016804
-0.016754
-0.016705
-0.016656
-0.016606
-0.016557
-0.016507
-0.016457
-0.016408
-0.016358
-0.016308
-0.016258
-0.016209
-0.016159
-0.016109
-0.016059
-0.016009
-0.015959
-0.015908
-0.015858
-0.015808
-0.015758
-0.015708
-0.015657
-0.015607
-0.015556
-0.015506
-0.015455
-0.015405
-0.015354
-0.015303
-0.015253
-0.015202
-0.015151
-0.015100
-0.015050
-0.014999
-0.014948
-0.014897
-0.014846
-0.014795
-0.014743
-0.014692
-0.014641
-0.014590
-0.014539
-0.014487
-0.014436
-0.014384
-0.014333
-0.014282
-0.014230
-0.014179
-0.014127
-0.014075
-0.014024
-0.013972
-0.013920
-0.013868
-0.013817
-0.013765
-0.013713
-0.013661
-0.013609
-0.013557
-0.013505
-0.013453
-0.013401
-0.013348
-0.013296
-0.013244
-0.013192
-0.013139
-0.013087
-0.013035
-0.012982
-0.012930
-0.012877
-0.012825
-0.012772
-0.012720
-0.012667
-0.012615
-0.012562
-0.012509
-0.012456
-0.012404
-0.012351
-0.012298
-0.012245
-0.012192
-0.012139
-0.012086
-0.012033
-0.011980
-0.011927
-0.011874
-0.011821
-0.011768
-0.011714
-0.011661
-0.011608
-0.011555
-0.011501
-0.011448
-0.011395
-0.011341
-0.011288
-0.011234
-0.011181
-0.011127
-0.011074
-0.011020
-0.010966
-0.010913
-0.010859
-0.010805
-0.010751
-0.010698
-0.010644
-0.010590
-0.010536
-0.010482
-0.010428
-0.010374
-0.010320
-0.010266
-0.010212
-0.010158
-0.010104
-0.010050
-0.009996
-0.009942
-0.009888
-0.009834
-0.009779
-0.009725
-0.009671
-0.009616
-0.009562
-0.009508
-0.009453
-0.009399
-0.009345
-0.009290
-0.009236
-0.009181
-0.009127
-0.009072
-0.009018
-0.008963
-0.008908
-0.008854
-0.008799
-0.008744
-0.008690
-0.008635
-0.008580
-0.008525
-0.008471
-0.008416
-0.008361
-0.008306
-0.008251
-0.008196
-0.008141
-0.008086
-0.008032
-0.007977
-0.007922
-0.007867
-0.007811
-0.007756
-0.007701
-0.007646
-0.007591
-0.007536
-0.007481
-0.007426
-0.007371
-0.007315
-0.007260
-0.007205
-0.007150
-0.007094
-0.007039
-0.006984
-0.006928
-0.006873
-0.006818
-0.006762
-0.006707
-0.006652
-0.006596
-0.006541
-0.006485
-0.006430
-0.006374
-0.006319
-0.006263
-0.006208
-0.006152
-0.006097
-0.006041
-0.005985
-0.005930
-0.005874
-0.005819
-0.005763
-0.005707
-0.005652
-0.005596
-0.005540
-0.005485
-0.005429
-0.005373
-0.005317
-0.005262
-0.005206
-0.005150
-0.005094
-0.005038
-0.004983
-0.004927
-0.004871
-0.004815
-0.004759
-0.004703
-0.004647
-0.004592
-0.004536
-0.004480
-0.004424
-0.004368
-0.004312
-0.004256
-0.004200
-0.004144
-0.004088
-0.004032
-0.003976
-0.003920
-0.003864
-0.003808
-0.003752
-0.003696
-0.003640
-0.003584
-0.003528
-0.003472
-0.003416
-0.003359
-0.003303
-0.003247
-0.003191
-0.003135
-0.003079
-0.003023
-0.002967
-0.002910
-0.002854
-0.002798
-0.002742
-0.002686
-0.002630
-0.002573
-0.002517
-0.002461
-0.002405
-0.002349
-0.002292
-0.002236
-0.002180
-0.002124
-0.002067
-0.002011
-0.001955
-0.001899
-0.001842
-0.001786
-0.001730
-0.001674
-0.001617
-0.001561
-0.001505
-0.001448
-0.001392
-0.001336
-0.001280
-0.001223
-0.001167
-0.001111
-0.001054
-0.000998
-0.000942
-0.000885
-0.000829
-0.000773
-0.000716
-0.000660
-0.000604
-0.000547
-0.000491
-0.000435
-0.000378
-0.000322
-0.000266
-0.000209
-0.000153
-0.000097
-0.000040
0.000016
0.000072
0.000129
0.000185
0.000241
0.000298
0.000354
0.000410
0.000467
0.000523
0.000579
0.000636
0.000692
0.000748
0.000805
0.000861
0.000917
0.000974
0.001030
0.001086
0.001143
0.001199
0.001255
0.001312
0.001368
0.001424
0.001481
0.001537
0.001593
0.001650
0.001706
0.001762
0.001819
0.001875
0.001931
0.001988
0.002044
0.002100
0.002157
0.002213
0.002269
0.002326
0.002382
0.002438
0.002494
0.002551
0.002607
0.002663
0.002720
0.002776
0.002832
0.002888
0.002945
0.003001
0.003057
0.003113
0.003170
0.003226
0.003282
0.003338
0.003395
0.003451
0.003507
0.003563
0.003619
0.003676
0.003732
0.003788
0.003844
0.003900
0.003957
0.004013
0.004069
0.004125
0.004181
0.004237
0.004294
0.004350
0.004406
0.004462
0.004518
0.004574
0.004630
0.004687
0.004743
0.004799
0.004855
0.004911
0.004967
0.005023
0.005079
0.005135
0.005191
0.005247
0.005304
0.005360
0.005416
0.005472
0.005528
0.005584
0.005640
0.005696
0.005752
0.005808
0.005864
0.005920
0.005976
0.006032
0.006088
0.006144
0.006200
0.006256
0.006311
0.006367
0.006423
0.006479
0.006535
0.006591
0.006647
0.006703
0.006759
0.006815
0.006870
0.006926
0.006982
0.007038
0.007094
0.007150
0.007206
0.007261
0.007317
0.007373
0.007429
0.007485
0.007540
0.007596
0.007652
0.007708
0.007763
0.007819
0.007875
0.007931
0.007986
0.008042
0.008098
0.008153
0.008209
0.008265
0.008321
0.008376
0.008432
0.008487
0.008543
0.008599
0.008654
0.008710
0.008766
0.008821
0.008877
0.008932
0.008988
0.009044
0.009099
0.009155
0.009210
0.009266
0.009321
0.009377
0.009432
0.009488
0.009543
0.009599
0.009654
0.009710
0.009765
0.009821
0.009876
0.009932
0.009987
0.010042
0.010098
0.010153
0.010209
0.010264
0.010319
0.010375
0.010430
0.010485
0.010541
0.010596
0.010651
0.010707
0.010762
0.010817
0.010873
0.010928
0.010983
0.011038
0.011094
0.011149
0.011204
0.011259
0.011315
0.011370
0.011425
0.011480
0.011535
0.011591
0.011646
0.011701
0.011756
0.011811
0.011866
0.011922
0.011977
0.012032
0.012087
0.012142
0.012197
0.012252
0.012307
0.012362
0.012417
0.012472
0.012527
0.012582
0.012637
0.012692
0.012747
0.012802
0.012857
0.012912
0.012967
0.013022
0.013077
0.013132
0.013187
0.013242
0.013297
0.013352
0.013407
0.013462
0.013517
0.013571
0.013626
0.013681
0.013736
0.013791
0.013846
0.013901
0.013955
0.014010
0.014065
0.014120
0.014175
0.014229
0.014284
0.014339
0.014394
0.014448
0.014503
0.014558
0.014612
0.014667
0.014722
0.014777
0.014831
0.014886
0.014941
0.014995
0.015050
0.015105
0.015159
0.015214
0.015268
0.015323
0.015378
0.015432
0.015487
0.015541
0.015596
0.015651
0.015705
0.015760
0.015814
0.015869
0.015923
0.015978
0.016032
0.016087
0.016141
0.016196
0.016250
0.016305
0.016359
0.016414
0.016468
0.016523
0.016577
0.016631
0.016686
0.016740
0.016795
0.016849
0.016904
0.016958
0.017012
0.017067
0.017121
0.017175
0.017230
0.017284
0.017338
0.017393
0.017447
0.017501
0.017556
0.017610
0.017664
0.017719
0.017773
0.017827
0.017882
0.017936
0.017990
0.018044
0.018099
0.018153
0.018207
0.018261
0.018315
0.018370
0.018424
0.018478
0.018532
0.018586
0.018641
0.018695
0.018749
0.018803
0.018857
0.018912
0.018966
0.019074
0.019128
0.019182
0.019236
0.019290
0.019344
0.019398
0.019452
0.019506
0.019560
0.019614
0.019668
0.019722
0.019776
0.019830
0.019884
0.019938
0.019992
0.020046
0.020100
0.020154
0.020208
0.020262
0.020316
0.020370
0.020424
0.020478
0.020532
0.020586
0.020640
0.020694
0.020748
0.020802
0.020856
0.020909
0.020963
0.021017
0.021071
0.021125
0.021179
0.021233
0.021287
0.021341
0.021394
0.021448
0.021502
0.021556
0.021610
0.021664
0.021717
0.021771
0.021825
0.021879
0.021933
0.021987
0.022040
0.022094
0.022148
0.022202
0.022256
0.022309
0.022363
0.022417
0.022471
0.022524
0.022578
0.022632
0.022686
0.022739
0.022793
0.022847
0.022901
0.022954
0.023008
0.023062
0.023116
0.023169
0.023223
0.023277
0.023331
0.023384
0.023438
0.023492
0.023545
0.023599
0.023653
0.023706
0.023760
0.023814
0.023868
0.023921
0.023975
0.024029
0.024082
0.024136
0.024190
0.024243
0.024297
0.024351
0.024404
0.024458
0.024512
0.024565
0.024619
0.024672
0.024726
0.024780
0.024833
0.024887
0.024941
0.024994
0.025048
0.025102
0.025155
0.025209
0.025262
0.025316
0.025370
0.025423
0.025477
0.025530
0.025584
0.025638
0.025691
0.025745
0.025799
0.025852
0.025906
0.025959
0.026013
0.026066
0.026120
0.026174
0.026227
0.026281
0.026334
0.026388
0.026442
0.026495
0.026549
0.026602
0.026656
0.026709
0.026763
0.026817
0.026870
0.026924
0.026977
0.027031
0.027084
0.027138
0.027192
0.027245
0.027299
0.027352
0.027406
0.027459
0.027513
0.027567
0.027620
0.027674
0.027727
0.027781
0.027834
0.027888
0.027941
0.027995
0.028048
0.028102
0.028156
0.028209
0.028263
0.028316
0.028370
0.028423
0.028477
0.028530
0.028584
0.028638
0.028691
0.028745
0.028798
0.028852
0.028905
0.028959
0.029012
0.029066
0.029119
0.029173
0.029227
0.029280
0.029334
0.029387
0.029441
0.029494
0.029548
0.029601
0.029655
0.029709
0.029762
0.029816
0.029869
0.029923
0.029976
0.030030
0.030083
0.030137
0.030191
0.030244
0.030298
0.030351
0.030405
0.030458
0.030512
0.030565
0.030619
0.030673
0.030726
0.030780
0.030833
0.030887
0.030940
0.030994
0.031048
0.031101
0.031155
0.031208
0.031262
0.031315
0.031369
0.031423
0.031476
0.031530
0.031583
0.031637
0.031690
0.031744
0.031798
0.031851
0.031905
0.031958
0.032012
0.032066
0.032119
0.032173
0.032226
0.032280
0.032334
0.032387
0.032441
0.032494
0.032548
0.032602
0.032655
0.032709
0.032762
0.032816
0.032870
0.032923
0.032977
0.033030
0.033084
0.033138
0.033191
0.033245
0.033299
0.033352
0.033406
0.033459
0.033513
0.033567
0.033620
0.033674
0.033728
0.033781
0.033835
0.033889
0.033942
0.033996
0.034050
0.034103
0.034157
0.034211
0.034264
0.034318
0.034372
0.034425
0.034479
0.034533
0.034586
0.034640
0.034694
0.034747
0.034801
0.034855
0.034908
0.034962
0.035016
0.035069
0.035123
0.035177
0.035231
0.035284
0.035338
0.035392
0.035445
0.035499
0.035553
0.035606
0.035660
0.035714
0.035768
0.035821
0.035875
0.035929
0.035983
0.036036
0.036090
0.036144
0.036198
0.036251
0.036305
0.036359
0.036413
0.036466
0.036520
0.036574
0.036628
0.036681
0.036735
0.036789
0.036843
0.036896
0.036950
0.037004
0.037058
0.037112
0.037165
0.037219
0.037273
0.037327
0.037381
0.037434
0.037488
0.037542
0.037596
0.037650
0.037703
0.037757
0.037811
0.037865
0.037919
0.037973
0.027061
0.027087
0.027004
0.024197
0.024237
0.024275
-0.019559
-0.019531
-0.019613
-0.019648
-0.010298
0.030746
0.030842
0.030863
0.030921
0.025971
0.025885
0.025912
-0.010502
-0.010445
-0.010513
-0.010415
-0.028406
-0.028447
-0.028347
-0.028360
-0.010854
-0.010812
-0.010772
0.010613
0.010527
0.010576
0.010604
-0.017781
-0.018247
-0.021494
-0.022145
0.007500
0.007416
0.007449
0.007441
-0.008276
-0.008454
-0.008302
-0.008310
0.019705
0.019543
0.019377
0.019914
-0.028535
-0.028502
-0.028403
0.009225
0.009214
0.009314
0.009359
0.000461
-0.001751
-0.001221
-0.003055
0.004543
0.004664
0.004712
-0.015176
-0.014462
-0.015207
-0.002505
-0.002450
-0.002585
-0.002525
0.023934
0.024220
0.024191
0.024487
-0.000626
-0.000431
-0.000512
-0.000234
0.008047
0.008132
0.007980
0.008172
0.007498
0.007559
0.007452
0.007609
-0.004079
-0.004093
-0.004168
-0.004211
0.026858
0.026821
0.026721
-0.011286
-0.011444
-0.011335
0.004551
0.026684
0.026585
0.026582
0.026731
0.012295
0.012392
0.012347
-0.000188
-0.000167
-0.000248
0.012385
0.007417
0.007144
0.007047
-0.000102
0.014202
0.014141
0.014012
0.022320
0.022415
0.022304
0.022458
0.013761
0.013815
0.013718
0.013849
0.013979
-0.024524
-0.024635
-0.024578
0.031632
0.031541
0.031691
-0.024684
-0.017135
-0.017208
-0.017277
-0.017069
-0.013806
-0.013742
-0.013969
-0.013812
-0.007725
-0.007890
-0.007771
0.004050
0.004144
0.004025
0.004109
-0.007916
0.012353
0.012423
0.012296
-0.013109
-0.013238
-0.013116
-0.014331
-0.014506
-0.014642
0.012421
0.024597
0.024621
0.024503
-0.021885
-0.021849
-0.021804
0.026348
0.026450
0.026457
0.026366
0.015508
0.015364
0.015422
0.015211
0.000482
-0.000271
0.000502
0.000311
0.011655
0.011965
0.011146
0.012436
-0.020681
-0.020620
-0.020801
-0.020500
0.035795
0.035725
-0.029812
-0.029561
-0.029418
-0.029140
-0.019327
-0.018822
-0.017664
-0.020798
0.036984
0.037011
0.037140
-0.022294
-0.020520
-0.022411
-0.022537
-0.022068
0.025529
0.025510
0.025380
0.010000
0.009948
0.010070
0.010030
0.000728
0.000503
0.000664
-0.028855
-0.028843
-0.029004
-0.028871
0.037034
0.036822
0.037098
0.036755
0.031692
0.031787
0.031888
0.025344
0.015265
0.015158
0.015048
0.014964
-0.003397
-0.003335
-0.003262
-0.003445
-0.006120
-0.006474
-0.007451
0.032354
0.032326
0.032049
0.032162
-0.008195
-0.007988
-0.008981
-0.008558
0.014994
0.015006
0.014908
0.008707
0.009006
0.011514
0.006333
-0.025530
-0.025663
-0.025247
-0.026124
0.034154
0.034234
0.007769
0.007758
0.007814
0.015090
0.000969
0.001365
0.001634
0.001850
-0.013919
-0.014057
-0.013997
-0.013986
-0.013496
-0.015568
-0.014906
-0.013566
-0.003124
-0.002963
-0.003240
-0.003204
-0.016754
-0.016230
-0.015840
-0.015427
0.033659
0.033846
0.033966
0.033650
-0.015399
-0.015376
-0.015327
-0.031902
-0.033259
-0.031951
-0.032085
-0.027109
-0.027185
-0.027198
-0.005000
-0.005019
-0.010484
-0.010499
-0.011160
-0.009885
0.014047
0.013207
0.013322
0.012390
0.001966
0.005398
0.004946
0.004396
0.018398
0.018468
0.017945
0.017946
0.030006
0.029309
0.029542
0.029955
-0.012875
-0.012825
-0.013244
-0.013322
-0.010915
-0.010869
-0.010805
-0.011014
0.020533
0.020856
0.020611
0.020813
0.020235
0.020200
0.020592
-0.002545
-0.002447
-0.002425
-0.002540
0.035474
0.035078
0.035442
0.026705
-0.006749
-0.007495
-0.007118
-0.007071
0.029560
0.029587
0.029413
0.029478
0.005708
0.005812
0.005734
0.005857
0.014051
0.014215
-0.003843
-0.003561
-0.003320
-0.003117
-0.001012
-0.001001
-0.000071
-0.001966
-0.000389
-0.000331
-0.000288
0.032975
0.032862
0.032851
-0.019762
-0.019822
-0.019533
-0.019511
-0.000263
-0.016827
-0.015742
-0.016557
0.030079
0.030219
0.030449
0.030584
0.028128
0.028069
0.028058
0.027964
0.013336
0.013042
0.012966
0.013617
0.011506
0.011408
0.011362
0.011521
0.011447
0.011571
0.014721
0.014285
0.014569
-0.002026
-0.002112
-0.002009
0.008366
0.007244
0.009903
-0.002050
0.019145
0.019366
0.018686
0.016269
0.016393
0.016387
0.016306
0.024350
0.024371
0.024224
-0.016934
-0.015043
0.024475
0.023112
0.023075
0.023013
0.022983
-0.013328
-0.013275
-0.013351
0.029691
0.007996
0.008037
0.007788
0.007748
-0.024243
-0.023469
-0.023752
-0.023111
0.009736
0.009723
0.009637
0.009821
-0.016055
-0.015764
-0.016496
-0.015644
-0.019484
-0.019892
-0.018313
-0.020946
0.020765
0.020718
0.020859
-0.016828
-0.016683
-0.017057
0.010703
0.010677
0.010295
0.010043
0.025962
0.021516
0.021410
0.021513
0.016138
0.016675
0.016224
0.016595
-0.004059
-0.004499
-0.004596
0.021408
0.022713
0.022888
0.022716
0.011430
0.011687
0.011813
0.012071
0.014150
0.013223
-0.008046
-0.008338
-0.007937
-0.008600
-0.022322
-0.023385
-0.023386
-0.021727
-0.016890
-0.017146
0.006995
0.006942
0.007348
0.022809
-0.004935
-0.004037
-0.003687
-0.005170
0.011254
0.012362
0.016884
0.016946
0.016903
-0.016741
-0.016500
-0.016424
0.017005
-0.013474
-0.013450
-0.013387
0.023861
0.023751
0.023816
0.023705
-0.008912
-0.008871
-0.008833
-0.015755
-0.018224
0.004260
0.004236
0.004182
0.025366
0.025346
0.025283
0.025250
0.016960
0.017026
0.017071
0.006162
0.005821
0.005730
0.005238
0.016419
0.016333
0.016370
0.016280
0.014324
0.014366
0.014285
0.022649
0.022725
0.022768
0.016408
0.016301
0.016922
0.022803
-0.020448
-0.020449
-0.020362
0.015873
0.012201
0.011948
0.012319
0.016940
-0.021756
-0.021720
-0.021777
0.008542
0.006695
0.007445
-0.020535
0.021298
0.021302
0.021421
0.030530
0.030573
0.030475
0.030530