# vtk DataFile Version 2.0
Test
ASCII
DATASET POLYDATA
POINTS 20431 float
0.000000 0.000000 0.000000
2.000000 0.000000 0.000000
2.000000 4.000000 0.000000
0.000000 4.000000 0.000000
0.000000 0.500000 0.000000
1.500000 2.000000 0.000000
2.000000 2.500000 0.000000
0.400000 0.000000 0.000000
0.800000 0.000000 0.000000
1.200000 0.000000 0.000000
1.600000 0.000000 0.000000
2.000000 0.362557 0.000000
2.000000 0.672798 0.000000
2.000000 0.938272 0.000000
2.000000 1.165439 0.000000
2.000000 1.359826 0.000000
2.000000 1.526163 0.000000
2.000000 1.668499 0.000000
2.000000 1.790295 0.000000
2.000000 1.894517 0.000000
2.000000 1.983700 0.000000
2.000000 2.060013 0.000000
2.000000 2.125315 0.000000
2.000000 2.181194 0.000000
2.000000 2.229010 0.000000
2.000000 2.269926 0.000000
2.000000 2.304938 0.000000
2.000000 2.334898 0.000000
2.000000 2.360534 0.000000
2.000000 2.382472 0.000000
2.000000 2.401244 0.000000
2.000000 2.417307 0.000000
2.000000 2.431052 0.000000
2.000000 2.442814 0.000000
2.000000 2.452878 0.000000
2.000000 2.461491 0.000000
2.000000 2.468860 0.000000
2.000000 2.475167 0.000000
2.000000 2.480563 0.000000
2.000000 2.485180 0.000000
2.000000 2.489132 0.000000
2.000000 2.492513 0.000000
2.000000 2.495406 0.000000
2.000000 2.497882 0.000000
2.000000 2.502286 0.000000
2.000000 2.505266 0.000000
2.000000 2.509150 0.000000
2.000000 2.514212 0.000000
2.000000 2.520809 0.000000
2.000000 2.529407 0.000000
2.000000 2.540613 0.000000
2.000000 2.555218 0.000000
2.000000 2.574253 0.000000
2.000000 2.599061 0.000000
2.000000 2.631395 0.000000
2.000000 2.673536 0.000000
2.000000 2.728460 0.000000
2.000000 2.800043 0.000000
2.000000 2.893339 0.000000
2.000000 3.014933 0.000000
2.000000 3.173410 0.000000
2.000000 3.379956 0.000000
2.000000 3.649152 0.000000
1.600000 4.000000 0.000000
1.200000 4.000000 0.000000
0.800000 4.000000 0.000000
0.400000 4.000000 0.000000
0.000000 3.624996 0.000000
0.000000 3.289970 0.000000
0.000000 2.990661 0.000000
0.000000 2.723261 0.000000
0.000000 2.484368 0.000000
0.000000 2.270943 0.000000
0.000000 2.080271 0.000000
0.000000 1.909926 0.000000
0.000000 1.757741 0.000000
0.000000 1.621780 0.000000
0.000000 1.500314 0.000000
0.000000 1.391797 0.000000
0.000000 1.294849 0.000000
0.000000 1.208237 0.000000
0.000000 1.130858 0.000000
0.000000 1.061728 0.000000
0.000000 0.999968 0.000000
0.000000 0.944792 0.000000
0.000000 0.895499 0.000000
0.000000 0.851460 0.000000
0.000000 0.812117 0.000000
0.000000 0.776968 0.000000
0.000000 0.745565 0.000000
0.000000 0.717511 0.000000
0.000000 0.692448 0.000000
0.000000 0.670056 0.000000
0.000000 0.650052 0.000000
0.000000 0.632180 0.000000
0.000000 0.616213 0.000000
0.000000 0.601949 0.000000
0.000000 0.589205 0.000000
0.000000 0.577820 0.000000
0.000000 0.567649 0.000000
0.000000 0.558562 0.000000
0.000000 0.550444 0.000000
0.000000 0.543191 0.000000
0.000000 0.536712 0.000000
0.000000 0.530923 0.000000
0.000000 0.525751 0.000000
0.000000 0.521131 0.000000
0.000000 0.517003 0.000000
0.000000 0.513315 0.000000
0.000000 0.510021 0.000000
0.000000 0.507078 0.000000
0.000000 0.504448 0.000000
0.000000 0.502099 0.000000
0.000000 0.497804 0.000000
0.000000 0.494785 0.000000
0.000000 0.490633 0.000000
0.000000 0.484924 0.000000
0.000000 0.477074 0.000000
0.000000 0.466279 0.000000
0.000000 0.451436 0.000000
0.000000 0.431025 0.000000
0.000000 0.402959 0.000000
0.000000 0.364366 0.000000
0.000000 0.311297 0.000000
0.000000 0.238324 0.000000
0.000000 0.137980 0.000000
0.001414 0.501414 0.000000
0.002828 0.502828 0.000000
0.004241 0.504241 0.000000
0.005655 0.505655 0.000000
0.007069 0.507069 0.000000
0.008483 0.508483 0.000000
0.009896 0.509896 0.000000
0.011310 0.511310 0.000000
0.012724 0.512724 0.000000
0.014138 0.514138 0.000000
0.015551 0.515551 0.000000
0.016965 0.516965 0.000000
0.018379 0.518379 0.000000
0.019793 0.519793 0.000000
0.021206 0.521206 0.000000
0.022620 0.522620 0.000000
0.024034 0.524034 0.000000
0.025448 0.525448 0.000000
0.026861 0.526861 0.000000
0.028275 0.528275 0.000000
0.029689 0.529689 0.000000
0.031103 0.531103 0.000000
0.032516 0.532516 0.000000
0.033930 0.533930 0.000000
0.035344 0.535344 0.000000
0.036758 0.536758 0.000000
0.038172 0.538172 0.000000
0.039585 0.539585 0.000000
0.040999 0.540999 0.000000
0.042413 0.542413 0.000000
0.043827 0.543827 0.000000
0.045240 0.545240 0.000000
0.046654 0.546654 0.000000
0.048068 0.548068 0.000000
0.049482 0.549482 0.000000
0.050895 0.550895 0.000000
0.052309 0.552309 0.000000
0.053723 0.553723 0.000000
0.055137 0.555137 0.000000
0.056550 0.556550 0.000000
0.057964 0.557964 0.000000
0.059378 0.559378 0.000000
0.060792 0.560792 0.000000
0.062205 0.562205 0.000000
0.063619 0.563619 0.000000
0.065033 0.565033 0.000000
0.066447 0.566447 0.000000
0.067861 0.567861 0.000000
0.069274 0.569274 0.000000
0.070688 0.570688 0.000000
0.072102 0.572102 0.000000
0.073516 0.573516 0.000000
0.074929 0.574929 0.000000
0.076343 0.576343 0.000000
0.077757 0.577757 0.000000
0.079171 0.579171 0.000000
0.080584 0.580584 0.000000
0.081998 0.581998 0.000000
0.083412 0.583412 0.000000
0.084826 0.584826 0.000000
0.086239 0.586239 0.000000
0.087653 0.587653 0.000000
0.089067 0.589067 0.000000
0.090481 0.590481 0.000000
0.091894 0.591894 0.000000
0.093308 0.593308 0.000000
0.094722 0.594722 0.000000
0.096136 0.596136 0.000000
0.097549 0.597549 0.000000
0.098963 0.598963 0.000000
0.100377 0.600377 0.000000
0.101791 0.601791 0.000000
0.103205 0.603205 0.000000
0.104618 0.604618 0.000000
0.106032 0.606032 0.000000
0.107446 0.607446 0.000000
0.108860 0.608860 0.000000
0.110273 0.610273 0.000000
0.111687 0.611687 0.000000
0.113101 0.613101 0.000000
0.114515 0.614515 0.000000
0.115928 0.615928 0.000000
0.117342 0.617342 0.000000
0.118756 0.618756 0.000000
0.120170 0.620170 0.000000
0.121583 0.621583 0.000000
0.122997 0.622997 0.000000
0.124411 0.624411 0.000000
0.125825 0.625825 0.000000
0.127238 0.627238 0.000000
0.128652 0.628652 0.000000
0.130066 0.630066 0.000000
0.131480 0.631480 0.000000
0.132893 0.632893 0.000000
0.134307 0.634307 0.000000
0.135721 0.635721 0.000000
0.137135 0.637135 0.000000
0.138549 0.638549 0.000000
0.139962 0.639962 0.000000
0.141376 0.641376 0.000000
0.142790 0.642790 0.000000
0.144204 0.644204 0.000000
0.145617 0.645617 0.000000
0.147031 0.647031 0.000000
0.148445 0.648445 0.000000
0.149859 0.649859 0.000000
0.151272 0.651272 0.000000
0.152686 0.652686 0.000000
0.154100 0.654100 0.000000
0.155514 0.655514 0.000000
0.156927 0.656927 0.000000
0.158341 0.658341 0.000000
0.159755 0.659755 0.000000
0.161169 0.661169 0.000000
0.162582 0.662582 0.000000
0.163996 0.663996 0.000000
0.165410 0.665410 0.000000
0.166824 0.666824 0.000000
0.168238 0.668238 0.000000
0.169651 0.669651 0.000000
0.171065 0.671065 0.000000
0.172479 0.672479 0.000000
0.173893 0.673893 0.000000
0.175306 0.675306 0.000000
0.176720 0.676720 0.000000
0.178134 0.678134 0.000000
0.179548 0.679548 0.000000
0.180961 0.680961 0.000000
0.182375 0.682375 0.000000
0.183789 0.683789 0.000000
0.185203 0.685203 0.000000
0.186616 0.686616 0.000000
0.188030 0.688030 0.000000
0.189444 0.689444 0.000000
0.190858 0.690858 0.000000
0.192271 0.692271 0.000000
0.193685 0.693685 0.000000
0.195099 0.695099 0.000000
0.196513 0.696513 0.000000
0.197926 0.697926 0.000000
0.199340 0.699340 0.000000
0.200754 0.700754 0.000000
0.202168 0.702168 0.000000
0.203582 0.703582 0.000000
0.204995 0.704995 0.000000
0.206409 0.706409 0.000000
0.207823 0.707823 0.000000
0.209237 0.709237 0.000000
0.210650 0.710650 0.000000
0.212064 0.712064 0.000000
0.213478 0.713478 0.000000
0.214892 0.714892 0.000000
0.216305 0.716305 0.000000
0.217719 0.717719 0.000000
0.219133 0.719133 0.000000
0.220547 0.720547 0.000000
0.221960 0.721960 0.000000
0.223374 0.723374 0.000000
0.224788 0.724788 0.000000
0.226202 0.726202 0.000000
0.227615 0.727615 0.000000
0.229029 0.729029 0.000000
0.230443 0.730443 0.000000
0.231857 0.731857 0.000000
0.233270 0.733270 0.000000
0.234684 0.734684 0.000000
0.236098 0.736098 0.000000
0.237512 0.737512 0.000000
0.238926 0.738926 0.000000
0.240339 0.740339 0.000000
0.241753 0.741753 0.000000
0.243167 0.743167 0.000000
0.244581 0.744581 0.000000
0.245994 0.745994 0.000000
0.247408 0.747408 0.000000
0.248822 0.748822 0.000000
0.250236 0.750236 0.000000
0.251649 0.751649 0.000000
0.253063 0.753063 0.000000
0.254477 0.754477 0.000000
0.255891 0.755891 0.000000
0.257304 0.757304 0.000000
0.258718 0.758718 0.000000
0.260132 0.760132 0.000000
0.261546 0.761546 0.000000
0.262959 0.762959 0.000000
0.264373 0.764373 0.000000
0.265787 0.765787 0.000000
0.267201 0.767201 0.000000
0.268615 0.768615 0.000000
0.270028 0.770028 0.000000
0.271442 0.771442 0.000000
0.272856 0.772856 0.000000
0.274270 0.774270 0.000000
0.275683 0.775683 0.000000
0.277097 0.777097 0.000000
0.278511 0.778511 0.000000
0.279925 0.779925 0.000000
0.281338 0.781338 0.000000
0.282752 0.782752 0.000000
0.284166 0.784166 0.000000
0.285580 0.785580 0.000000
0.286993 0.786993 0.000000
0.288407 0.788407 0.000000
0.289821 0.789821 0.000000
0.291235 0.791235 0.000000
0.292648 0.792648 0.000000
0.294062 0.794062 0.000000
0.295476 0.795476 0.000000
0.296890 0.796890 0.000000
0.298303 0.798303 0.000000
0.299717 0.799717 0.000000
0.301131 0.801131 0.000000
0.302545 0.802545 0.000000
0.303959 0.803959 0.000000
0.305372 0.805372 0.000000
0.306786 0.806786 0.000000
0.308200 0.808200 0.000000
0.309614 0.809614 0.000000
0.311027 0.811027 0.000000
0.312441 0.812441 0.000000
0.313855 0.813855 0.000000
0.315269 0.815269 0.000000
0.316682 0.816682 0.000000
0.318096 0.818096 0.000000
0.319510 0.819510 0.000000
0.320924 0.820924 0.000000
0.322337 0.822337 0.000000
0.323751 0.823751 0.000000
0.325165 0.825165 0.000000
0.326579 0.826579 0.000000
0.327992 0.827992 0.000000
0.329406 0.829406 0.000000
0.330820 0.830820 0.000000
0.332234 0.832234 0.000000
0.333648 0.833648 0.000000
0.335061 0.835061 0.000000
0.336475 0.836475 0.000000
0.337889 0.837889 0.000000
0.339303 0.839303 0.000000
0.340716 0.840716 0.000000
[...]
POINT_DATA 20431
SCALARS UX float 1
LOOKUP_TABLE default
-0.000000
0.000000
0.018618
-0.019420
-0.015187
0.009376
0.018745
-0.000000
-0.000000
0.000000
-0.000000
0.012697
0.016625
0.018154
0.018711
0.018912
0.018969
0.018963
0.018940
0.018913
0.018886
0.018864
0.018844
0.018828
0.018814
0.018802
0.018793
0.018785
0.018778
0.018773
0.018768
0.018764
0.018761
0.018758
0.018756
0.018754
0.018752
0.018751
0.018750
0.018749
0.018748
0.018747
0.018746
0.018746
0.018745
0.018744
0.018743
0.018742
0.018741
0.018739
0.018737
0.018734
0.018730
0.018725
0.018719
0.018711
0.018701
0.018691
0.018677
0.018663
0.018649
0.018634
0.018623
0.011004
0.003393
-0.004214
-0.011817
-0.019420
-0.019420
-0.019423
-0.019433
-0.019450
-0.019471
-0.019494
-0.019512
-0.019516
-0.019502
-0.019468
-0.019409
-0.019321
-0.019208
-0.019071
-0.018913
-0.018738
-0.018548
-0.018350
-0.018146
-0.017940
-0.017735
-0.017535
-0.017338
-0.017150
-0.016971
-0.016800
-0.016640
-0.016491
-0.016352
-0.016223
-0.016104
-0.015995
-0.015895
-0.015804
-0.015721
-0.015645
-0.015576
-0.015513
-0.015456
-0.015405
-0.015359
-0.015317
-0.015279
-0.015245
-0.015215
-0.015158
-0.015118
-0.015062
-0.014985
-0.014875
-0.014722
-0.014500
-0.014180
-0.013709
-0.012974
-0.011838
-0.010041
-0.006864
-0.015182
-0.015176
-0.015171
-0.015165
-0.015159
-0.015153
-0.015147
-0.015141
-0.015135
-0.015128
-0.015122
-0.015115
-0.015108
-0.015102
-0.015095
-0.015088
-0.015081
-0.015073
-0.015066
-0.015059
-0.015051
-0.015044
-0.015036
-0.015028
-0.015021
-0.015013
-0.015005
-0.014997
-0.014988
-0.014980
-0.014972
-0.014963
-0.014955
-0.014946
-0.014938
-0.014929
-0.014920
-0.014911
-0.014902
-0.014893
-0.014884
-0.014875
-0.014866
-0.014856
-0.014847
-0.014838
-0.014828
-0.014819
-0.014809
-0.014799
-0.014789
-0.014779
-0.014769
-0.014759
-0.014749
-0.014739
-0.014729
-0.014719
-0.014708
-0.014698
-0.014688
-0.014677
-0.014667
-0.014656
-0.014645
-0.014635
-0.014624
-0.014613
-0.014602
-0.014591
-0.014580
-0.014569
-0.014558
-0.014547
-0.014535
-0.014524
-0.014513
-0.014501
-0.014490
-0.014478
-0.014466
-0.014455
-0.014443
-0.014431
-0.014419
-0.014407
-0.014395
-0.014383
-0.014371
-0.014359
-0.014347
-0.014335
-0.014323
-0.014310
-0.014298
-0.014285
-0.014273
-0.014260
-0.014248
-0.014235
-0.014222
-0.014209
-0.014197
-0.014184
-0.014171
-0.014158
-0.014145
-0.014132
-0.014118
-0.014105
-0.014092
-0.014079
-0.014065
-0.014052
-0.014038
-0.014025
-0.014011
-0.013997
-0.013984
-0.013970
-0.013956
-0.013942
-0.013928
-0.013914
-0.013900
-0.013886
-0.013872
-0.013857
-0.013843
-0.013829
-0.013815
-0.013800
-0.013786
-0.013771
-0.013757
-0.013742
-0.013727
-0.013712
-0.013698
-0.013683
-0.013668
-0.013653
-0.013638
-0.013623
-0.013608
-0.013593
-0.013577
-0.013562
-0.013547
-0.013531
-0.013516
-0.013501
-0.013485
-0.013469
-0.013454
-0.013438
-0.013422
-0.013407
-0.013391
-0.013375
-0.013359
-0.013343
-0.013327
-0.013311
-0.013295
-0.013279
-0.013262
-0.013246
-0.013230
-0.013213
-0.013197
-0.013181
-0.013164
-0.013148
-0.013131
-0.013114
-0.013098
-0.013081
-0.013064
-0.013047
-0.013030
-0.013013
-0.012997
-0.012980
-0.012962
-0.012945
-0.012928
-0.012911
-0.012894
-0.012877
-0.012859
-0.012842
-0.012825
-0.012807
-0.012790
-0.012772
-0.012755
-0.012737
-0.012719
-0.012702
-0.012684
-0.012666
-0.012648
-0.012630
-0.012612
-0.012595
-0.012577
-0.012558
-0.012540
-0.012522
-0.012504
-0.012486
-0.012468
-0.012449
-0.012431
-0.012413
-0.012394
-0.012376
-0.012357
-0.012339
-0.012320
-0.012302
-0.012283
-0.012264
-0.012246
-0.012227
-0.012208
-0.012189
-0.012170
-0.012151
-0.012133
-0.012114
-0.012094
-0.012075
-0.012056
-0.012037
-0.012018
-0.011999
-0.011979
-0.011960
-0.011941
-0.011921
-0.011902
-0.011883
-0.011863
-0.011844
-0.011824
-0.011804
-0.011785
-0.011765
-0.011745
-0.011726
-0.011706
-0.011686
-0.011666
-0.011646
-0.011626
-0.011606
-0.011586
-0.011566
-0.011546
-0.011526
-0.011506
-0.011486
-0.011466
-0.011446
-0.011425
-0.011405
-0.011385
-0.011364
-0.011344
-0.011323
-0.011303
-0.011282
-0.011262
-0.011241
-0.011221
-0.011200
-0.011179
-0.011158
-0.011138
-0.011117
-0.011096
-0.011075
-0.011054
-0.011033
-0.011012
-0.010991
-0.010970
-0.010949
-0.010928
-0.010907
-0.010886
-0.010865
-0.010844
-0.010822
-0.010801
-0.010780
-0.010758
-0.010737
-0.010715
-0.010694
-0.010673
-0.010651
-0.010630
-0.010608
-0.010586
-0.010565
-0.010543
-0.010521
-0.010500
-0.010478
-0.010456
-0.010434
-0.010412
-0.010390
-0.010369
-0.010347
-0.010325
-0.010303
-0.010281
-0.010259
-0.010236
-0.010214
-0.010192
-0.010170
-0.010148
-0.010126
-0.010103
-0.010081
-0.010059
-0.010036
-0.010014
-0.009992
-0.009969
-0.009947
-0.009924
-0.009902
-0.009879
-0.009857
-0.009834
-0.009811
-0.009789
-0.009766
-0.009743
-0.009721
-0.009698
-0.009675
-0.009652
-0.009629
-0.009606
-0.009584
-0.009561
-0.009538
-0.009515
-0.009492
-0.009469
-0.009446
-0.009422
-0.009399
-0.009376
-0.009353
-0.009330
-0.009307
-0.009283
-0.009260
-0.009237
-0.009213
-0.009190
-0.009167
-0.009143
-0.009120
-0.009096
-0.009073
-0.009049
-0.009026
-0.009002
-0.008979
-0.008955
-0.008931
-0.008908
-0.008884
-0.008860
-0.008836
-0.008813
-0.008789
-0.008765
-0.008741
-0.008717
-0.008693
-0.008670
-0.008646
-0.008622
-0.008598
-0.008574
-0.008550
-0.008526
-0.008501
-0.008477
-0.008453
-0.008429
-0.008405
-0.008381
-0.008356
-0.008332
-0.008308
-0.008284
-0.008259
-0.008235
-0.008211
-0.008186
-0.008162
-0.008137
-0.008113
-0.008088
-0.008064
-0.008039
-0.008015
-0.007990
-0.007966
-0.007941
-0.007916
-0.007892
-0.007867
-0.007842
-0.007817
-0.007793
-0.007768
-0.007743
-0.007718
-0.007693
-0.007669
-0.007644
-0.007619
-0.007594
-0.007569
-0.007544
-0.007519
-0.007494
-0.007469
-0.007444
-0.007419
-0.007394
-0.007369
-0.007343
-0.007318
-0.007293
-0.007268
-0.007243
-0.007217
-0.007192
-0.007167
-0.007142
-0.007116
-0.007091
-0.007066
-0.007040
-0.007015
-0.006989
-0.006964
-0.006939
-0.006913
-0.006888
-0.006862
-0.006837
-0.006811
-0.006785
-0.006760
-0.006734
-0.006709
-0.006683
-0.006657
-0.006632
-0.006606
-0.006580
-0.006555
-0.006529
-0.006503
-0.006477
-0.006451
-0.006426
-0.006400
-0.006374
-0.006348
-0.006322
-0.006296
-0.006270
-0.006244
-0.006218
-0.006192
-0.006166
-0.006140
-0.006114
-0.006088
-0.006062
-0.006036
-0.006010
-0.005984
-0.005958
-0.005932
-0.005906
-0.005880
-0.005853
-0.005827
-0.005801
-0.005775
-0.005748
-0.005722
-0.005696
-0.005670
-0.005643
-0.005617
-0.005591
-0.005564
-0.005538
-0.005512
-0.005485
-0.005459
-0.005432
-0.005406
-0.005379
-0.005353
-0.005327
-0.005300
-0.005274
-0.005247
-0.005220
-0.005194
-0.005167
-0.005141
-0.005114
-0.005088
-0.005061
-0.005034
-0.005008
-0.004981
-0.004954
-0.004928
-0.004901
-0.004874
-0.004848
-0.004821
-0.004794
-0.004767
-0.004741
-0.004714
-0.004687
-0.004660
-0.004633
-0.004606
-0.004580
-0.004553
-0.004526
-0.004499
-0.004472
-0.004445
-0.004418
-0.004391
-0.004364
-0.004338
-0.004311
-0.004284
-0.004257
-0.004230
-0.004203
-0.004176
-0.004149
-0.004122
-0.004095
-0.004068
-0.004040
-0.004013
-0.003986
-0.003959
-0.003932
-0.003905
-0.003878
-0.003851
-0.003824
-0.003796
-0.003769
-0.003742
-0.003715
-0.003688
-0.003661
-0.003633
-0.003606
-0.003579
-0.003552
-0.003524
-0.003497
-0.003470
-0.003443
-0.003415
-0.003388
-0.003361
-0.003334
-0.003306
-0.003279
-0.003252
-0.003224
-0.003197
-0.003170
-0.003142
-0.003115
-0.003088
-0.003060
-0.003033
-0.003005
-0.002978
-0.002951
-0.002923
-0.002896
-0.002868
-0.002841
-0.002813
-0.002786
-0.002759
-0.002731
-0.002704
-0.002676
-0.002649
-0.002621
-0.002594
-0.002566
-0.002539
-0.002511
-0.002484
-0.002456
-0.002429
-0.002401
-0.002374
-0.002346
-0.002319
-0.002291
-0.002263
-0.002236
-0.002208
-0.002181
-0.002153
-0.002126
-0.002098
-0.002070
-0.002043
-0.002015
-0.001988
-0.001960
-0.001932
-0.001905
-0.001877
-0.001850
-0.001822
-0.001794
-0.001767
-0.001739
-0.001711
-0.001684
-0.001656
-0.001628
-0.001601
-0.001573
-0.001545
-0.001518
-0.001490
-0.001462
-0.001435
-0.001407
-0.001379
-0.001352
-0.001324
-0.001296
-0.001269
-0.001241
-0.001213
-0.001185
-0.001158
-0.001130
-0.001102
-0.001075
-0.001047
-0.001019
-0.000991
-0.000964
-0.000936
-0.000908
-0.000880
-0.000853
-0.000825
-0.000797
-0.000770
-0.000742
-0.000714
-0.000686
-0.000659
-0.000631
-0.000603
-0.000575
-0.000548
-0.000520
-0.000492
-0.000464
-0.000436
-0.000409
-0.000381
-0.000353
-0.000325
-0.000298
-0.000270
-0.000242
-0.000214
-0.000187
-0.000159
-0.000131
-0.000103
-0.000075
-0.000048
-0.000020
0.000008
0.000036
0.000063
0.000091
0.000119
0.000147
0.000175
0.000202
0.000230
0.000258
0.000286
0.000313
0.000341
0.000369
0.000397
0.000424
0.000452
0.000480
0.000508
0.000536
0.000563
0.000591
0.000619
0.000647
0.000674
0.000702
0.000730
0.000758
0.000786
0.000813
0.000841
0.000869
0.000897
0.000924
0.000952
0.000980
0.001008
0.001035
0.001063
0.001091
0.001119
0.001146
0.001174
0.001202
0.001230
0.001257
0.001285
0.001313
0.001341
0.001368
0.001396
0.001424
0.001452
0.001479
0.001507
0.001535
0.001563
0.001590
0.001618
0.001646
0.001673
0.001701
0.001729
0.001757
0.001784
0.001812
0.001840
0.001867
0.001895
0.001923
0.001950
0.001978
0.002006
0.002034
0.002061
0.002089
0.002117
0.002144
0.002172
0.002200
0.002227
0.002255
0.002283
0.002310
0.002338
0.002366
0.002393
0.002421
0.002449
0.002476
0.002504
0.002532
0.002559
0.002587
0.002614
0.002642
0.002670
0.002697
0.002725
0.002753
0.002780
0.002808
0.002835
0.002863
0.002891
0.002918
0.002946
0.002973
0.003001
0.003029
0.003056
0.003084
0.003111
0.003139
0.003166
0.003194
0.003222
0.003249
0.003277
0.003304
0.003332
0.003359
0.003387
0.003414
0.003442
0.003469
0.003497
0.003525
0.003552
0.003580
0.003607
0.003635
0.003662
0.003690
0.003717
0.003745
0.003772
0.003800
0.003827
0.003855
0.003882
0.003909
0.003937
0.003964
0.003992
0.004019
0.004047
0.004074
0.004102
0.004129
0.004157
0.004184
0.004211
0.004239
0.004266
0.004294
0.004321
0.004348
0.004376
0.004403
0.004431
0.004458
0.004485
0.004513
0.004540
0.004568
0.004595
0.004622
0.004650
0.004677
0.004704
0.004732
0.004759
0.004786
0.004814
0.004841
0.004869
0.004896
0.004923
0.004950
0.004978
0.005005
0.005032
0.005060
0.005087
0.005114
0.005142
0.005169
0.005196
0.005223
0.005251
0.005278
0.005305
0.005333
0.005360
0.005387
0.005414
0.005442
0.005469
0.005496
0.005523
0.005550
0.005578
0.005605
0.005632
0.005659
0.005686
0.005714
0.005741
0.005768
0.005795
0.005822
0.005850
0.005877
0.005904
0.005931
0.005958
0.005985
0.006013
0.006040
0.006067
0.006094
0.006121
0.006148
0.006175
0.006203
0.006230
0.006257
0.006284
0.006311
0.006338
0.006365
0.006392
0.006419
0.006447
0.006474
0.006501
0.006528
0.006555
0.006582
0.006609
0.006636
0.006663
0.006690
0.006717
0.006744
0.006771
0.006798
0.006825
0.006852
0.006879
0.006906
0.006933
0.006960
0.006987
0.007014
0.007041
0.007068
0.007095
0.007122
0.007149
0.007176
0.007203
0.007230
0.007257
0.007284
0.007311
0.007338
0.007365
0.007392
0.007419
0.007446
0.007473
0.007500
0.007527
0.007554
0.007581
0.007607
0.007634
0.007661
0.007688
0.007715
0.007742
0.007769
0.007796
0.007823
0.007850
0.007876
0.007903
0.007930
0.007957
0.007984
0.008011
0.008038
0.008064
0.008091
0.008118
0.008145
0.008172
0.008199
0.008225
0.008252
0.008279
0.008306
0.008333
0.008360
0.008386
0.008413
0.008440
0.008467
0.008494
0.008520
0.008547
0.008574
0.008601
0.008627
0.008654
0.008681
0.008708
0.008735
0.008761
0.008788
0.008815
0.008842
0.008868
0.008895
0.008922
0.008949
0.008975
0.009002
0.009029
0.009055
0.009082
0.009109
0.009136
0.009162
0.009189
0.009216
0.009242
0.009269
0.009296
0.009323
0.009349
0.009403
0.009429
0.009456
0.009483
0.009509
0.009536
0.009563
0.009589
0.009616
0.009642
0.009669
0.009696
0.009722
0.009749
0.009776
0.009802
0.009829
0.009855
0.009882
0.009909
0.009935
0.009962
0.009988
0.010015
0.010042
0.010068
0.010095
0.010121
0.010148
0.010175
0.010201
0.010228
0.010254
0.010281
0.010307
0.010334
0.010361
0.010387
0.010414
0.010440
0.010467
0.010493
0.010520
0.010547
0.010573
0.010600
0.010626
0.010653
0.010679
0.010706
0.010732
0.010759
0.010785
0.010812
0.010838
0.010865
0.010891
0.010918
0.010945
0.010971
0.010998
0.011024
0.011051
0.011077
0.011104
0.011130
0.011157
0.011183
0.011210
0.011236
0.011263
0.011289
0.011316
0.011342
0.011369
0.011395
0.011422
0.011448
0.011474
0.011501
0.011527
0.011554
0.011580
0.011607
0.011633
0.011660
0.011686
0.011713
0.011739
0.011766
0.011792
0.011819
0.011845
0.011872
0.011898
0.011924
0.011951
0.011977
0.012004
0.012030
0.012057
0.012083
0.012110
0.012136
0.012162
0.012189
0.012215
0.012242
0.012268
0.012295
0.012321
0.012348
0.012374
0.012400
0.012427
0.012453
0.012480
0.012506
0.012533
0.012559
0.012585
0.012612
0.012638
0.012665
0.012691
0.012718
0.012744
0.012770
0.012797
0.012823
0.012850
0.012876
0.012903
0.012929
0.012955
0.012982
0.013008
0.013035
0.013061
0.013087
0.013114
0.013140
0.013167
0.013193
0.013219
0.013246
0.013272
0.013299
0.013325
0.013351
0.013378
0.013404
0.013431
0.013457
0.013484
0.013510
0.013536
0.013563
0.013589
0.013616
0.013642
0.013668
0.013695
0.013721
0.013748
0.013774
0.013800
0.013827
0.013853
0.013880
0.013906
0.013932
0.013959
0.013985
0.014012
0.014038
0.014064
0.014091
0.014117
0.014143
0.014170
0.014196
0.014223
0.014249
0.014275
0.014302
0.014328
0.014355
0.014381
0.014407
0.014434
0.014460
0.014487
0.014513
0.014539
0.014566
0.014592
0.014619
0.014645
0.014671
0.014698
0.014724
0.014751
0.014777
0.014803
0.014830
0.014856
0.014883
0.014909
0.014935
0.014962
0.014988
0.015015
0.015041
0.015067
0.015094
0.015120
0.015147
0.015173
0.015199
0.015226
0.015252
0.015279
0.015305
0.015332
0.015358
0.015384
0.015411
0.015437
0.015464
0.015490
0.015516
0.015543
0.015569
0.015596
0.015622
0.015648
0.015675
0.015701
0.015728
0.015754
0.015781
0.015807
0.015833
0.015860
0.015886
0.015913
0.015939
0.015965
0.015992
0.016018
0.016045
0.016071
0.016098
0.016124
0.016150
0.016177
0.016203
0.016230
0.016256
0.016283
0.016309
0.016335
0.016362
0.016388
0.016415
0.016441
0.016468
0.016494
0.016521
0.016547
0.016573
0.016600
0.016626
0.016653
0.016679
0.016706
0.016732
0.016759
0.016785
0.016811
0.016838
0.016864
0.016891
0.016917
0.016944
0.016970
0.016997
0.017023
0.017050
0.017076
0.017102
0.017129
0.017155
0.017182
0.017208
0.017235
0.017261
0.017288
0.017314
0.017341
0.017367
0.017394
0.017420
0.017447
0.017473
0.017500
0.017526
0.017552
0.017579
0.017605
0.017632
0.017658
0.017685
0.017711
0.017738
0.017764
0.017791
0.017817
0.017844
0.017870
0.017897
0.017923
0.017950
0.017976
0.018003
0.018029
0.018056
0.018082
0.018109
0.018135
0.018162
0.018188
0.018215
0.018241
0.018268
0.018294
0.018321
0.018347
0.018374
0.018401
0.018427
0.018454
0.018480
0.018507
0.018533
0.018560
0.018586
0.018613
0.018639
0.018666
0.018692
0.018719
0.013340
0.013353
0.013312
0.011928
0.011948
0.011967
-0.009642
-0.009628
-0.009669
-0.009686
-0.005076
0.015156
0.015204
0.015214
0.015243
0.012803
0.012760
0.012774
-0.005177
-0.005149
-0.005183
-0.005134
-0.014003
-0.014023
-0.013974
-0.013980
-0.005350
-0.005330
-0.005310
0.005232
0.005190
0.005213
0.005227
-0.008765
-0.008995
-0.010596
-0.010917
0.003697
0.003656
0.003672
0.003668
-0.004080
-0.004167
-0.004093
-0.004096
0.009714
0.009634
0.009552
0.009817
-0.014066
-0.014050
-0.014002
0.004547
0.004542
0.004591
0.004614
0.000227
-0.000863
-0.000602
-0.001506
0.002240
0.002299
0.002323
-0.007481
-0.007129
-0.007496
-0.001235
-0.001208
-0.001274
-0.001245
0.011798
0.011940
0.011925
0.012071
-0.000308
-0.000212
-0.000252
-0.000115
0.003967
0.004009
0.003934
0.004029
0.003696
0.003726
0.003673
0.003751
-0.002011
-0.002018
-0.002054
-0.002076
0.013240
0.013222
0.013172
-0.005564
-0.005641
-0.005587
0.002243
0.013154
0.013105
0.013104
0.013177
0.006061
0.006108
0.006087
-0.000092
-0.000082
-0.000122
0.006105
0.003656
0.003522
0.003474
-0.000050
0.007001
0.006971
0.006908
0.011003
0.011050
0.010995
0.011071
0.006783
0.006810
0.006763
0.006827
0.006891
-0.012089
-0.012144
-0.012116
0.015593
0.015548
0.015622
-0.012168
-0.008447
-0.008483
-0.008517
-0.008414
-0.006806
-0.006774
-0.006886
-0.006809
-0.003808
-0.003890
-0.003831
0.001997
0.002043
0.001984
0.002026
-0.003902
0.006089
0.006124
0.006061
-0.006462
-0.006526
-0.006466
-0.007065
-0.007151
-0.007218
0.006123
0.012125
0.012137
0.012079
-0.010789
-0.010771
-0.010748
0.012988
0.013039
0.013042
0.012997
0.007645
0.007574
0.007602
0.007498
0.000238
-0.000134
0.000247
0.000153
0.005745
0.005898
0.005495
0.006130
-0.010195
-0.010165
-0.010254
-0.010106
0.017646
0.017611
-0.014696
-0.014572
-0.014502
-0.014365
-0.009527
-0.009278
-0.008708
-0.010252
0.018232
0.018245
0.018308
-0.010990
-0.010116
-0.011047
-0.011110
-0.010878
0.012585
0.012575
0.012511
0.004930
0.004904
0.004964
0.004945
0.000359
0.000248
0.000327
-0.014224
-0.014219
-0.014298
-0.014232
0.018256
0.018152
0.018288
0.018119
0.015623
0.015670
0.015719
0.012494
0.007525
0.007472
0.007418
0.007377
-0.001675
-0.001644
-0.001608
-0.001698
-0.003017
-0.003191
-0.003673
0.015949
0.015935
0.015799
0.015854
-0.004040
-0.003938
-0.004427
-0.004219
0.007392
0.007397
0.007349
0.004292
0.004439
0.005676
0.003122
-0.012585
-0.012651
-0.012446
-0.012878
0.016837
0.016876
0.003830
0.003824
0.003852
0.007439
0.000478
0.000673
0.000805
0.000912
-0.006862
-0.006930
-0.006900
-0.006895
-0.006653
-0.007674
-0.007348
-0.006687
-0.001540
-0.001461
-0.001597
-0.001579
-0.008259
-0.008001
-0.007809
-0.007605
0.016592
0.016684
0.016744
0.016588
-0.007591
-0.007580
-0.007556
-0.015727
-0.016395
-0.015750
-0.015817
-0.013363
-0.013401
-0.013408
-0.002465
-0.002474
-0.005168
-0.005176
-0.005501
-0.004873
0.006925
0.006510
0.006567
0.006108
0.000969
0.002661
0.002438
0.002167
0.009069
0.009104
0.008846
0.008847
0.014792
0.014448
0.014563
0.014767
-0.006347
-0.006322
-0.006529
-0.006567
-0.005381
-0.005358
-0.005326
-0.005430
0.010122
0.010281
0.010160
0.010260
0.009975
0.009958
0.010151
-0.001255
-0.001206
-0.001195
-0.001252
0.017487
0.017292
0.017472
0.013164
-0.003327
-0.003695
-0.003509
-0.003486
0.014572
0.014585
0.014499
0.014532
0.002814
0.002865
0.002827
0.002887
0.006927
0.007007
-0.001894
-0.001755
-0.001637
-0.001537
-0.000499
-0.000493
-0.000035
-0.000969
-0.000192
-0.000163
-0.000142
0.016255
0.016200
0.016194
-0.009742
-0.009771
-0.009629
-0.009618
-0.000130
-0.008295
-0.007760
-0.008162
0.014828
0.014897
0.015010
0.015077
0.013866
0.013837
0.013831
0.013785
0.006574
0.006429
0.006392
0.006713
0.005672
0.005624
0.005601
0.005679
0.005643
0.005704
0.007257
0.007042
0.007182
-0.000999
-0.001041
-0.000991
0.004124
0.003571
0.004882
-0.001011
0.009438
0.009547
0.009211
0.008020
0.008081
0.008078
0.008038
0.012003
0.012014
0.011941
-0.008348
-0.007416
0.012065
0.011393
0.011375
0.011344
0.011330
-0.006570
-0.006544
-0.006582
0.014636
0.003942
0.003962
0.003839
0.003820
-0.011951
-0.011569
-0.011709
-0.011393
0.004799
0.004793
0.004751
0.004841
-0.007914
-0.007771
-0.008132
-0.007712
-0.009605
-0.009806
-0.009028
-0.010326
0.010236
0.010213
0.010283
-0.008295
-0.008224
-0.008408
0.005276
0.005264
0.005075
0.004951
0.012798
0.010607
0.010554
0.010605
0.007956
0.008220
0.007998
0.008181
-0.002001
-0.002218
-0.002266
0.010553
0.011196
0.011283
0.011198
0.005635
0.005761
0.005823
0.005950
0.006975
0.006519
-0.003966
-0.004110
-0.003912
-0.004239
-0.011004
-0.011528
-0.011528
-0.010711
-0.008326
-0.008452
0.003448
0.003422
0.003622
0.011244
-0.002433
-0.001990
-0.001817
-0.002549
0.005548
0.006094
0.008323
0.008354
0.008332
-0.008252
-0.008134
-0.008096
0.008383
-0.006642
-0.006630
-0.006599
0.011763
0.011708
0.011740
0.011686
-0.004393
-0.004373
-0.004354
-0.007766
-0.008984
0.002100
0.002088
0.002062
0.012505
0.012494
0.012464
0.012447
0.008361
0.008393
0.008415
0.003038
0.002870
0.002825
0.002582
0.008094
0.008052
0.008070
0.008026
0.007061
0.007082
0.007042
0.011165
0.011202
0.011224
0.008089
0.008035
0.008342
0.011241
-0.010080
-0.010081
-0.010037
0.007825
0.006014
0.005890
0.006073
0.008350
-0.010725
-0.010707
-0.010735
0.004211
0.003300
0.003670
-0.010123
0.010499
0.010501
0.010560
0.015050
0.015071
0.015023
0.015050