# vtk DataFile Version 2.0
Test
ASCII
DATASET POLYDATA
POINTS 20431 float
0.000000 0.000000 0.000000
2.000000 0.000000 0.000000
2.000000 4.000000 0.000000
0.000000 4.000000 0.000000
0.000000 0.500000 0.000000
1.500000 2.000000 0.000000
2.000000 2.500000 0.000000
0.400000 0.000000 0.000000
0.800000 0.000000 0.000000
1.200000 0.000000 0.000000
1.600000 0.000000 0.000000
2.000000 0.362557 0.000000
2.000000 0.672798 0.000000
2.000000 0.938272 0.000000
2.000000 1.165439 0.000000
2.000000 1.359826 0.000000
2.000000 1.526163 0.000000
2.000000 1.668499 0.000000
2.000000 1.790295 0.000000
2.000000 1.894517 0.000000
2.000000 1.983700 0.000000
2.000000 2.060013 0.000000
2.000000 2.125315 0.000000
2.000000 2.181194 0.000000
2.000000 2.229010 0.000000
2.000000 2.269926 0.000000
2.000000 2.304938 0.000000
2.000000 2.334898 0.000000
2.000000 2.360534 0.000000
2.000000 2.382472 0.000000
2.000000 2.401244 0.000000
2.000000 2.417307 0.000000
2.000000 2.431052 0.000000
2.000000 2.442814 0.000000
2.000000 2.452878 0.000000
2.000000 2.461491 0.000000
2.000000 2.468860 0.000000
2.000000 2.475167 0.000000
2.000000 2.480563 0.000000
2.000000 2.485180 0.000000
2.000000 2.489132 0.000000
2.000000 2.492513 0.000000
2.000000 2.495406 0.000000
2.000000 2.497882 0.000000
2.000000 2.502286 0.000000
2.000000 2.505266 0.000000
2.000000 2.509150 0.000000
2.000000 2.514212 0.000000
2.000000 2.520809 0.000000
2.000000 2.529407 0.000000
2.000000 2.540613 0.000000
2.000000 2.555218 0.000000
2.000000 2.574253 0.000000
2.000000 2.599061 0.000000
2.000000 2.631395 0.000000
2.000000 2.673536 0.000000
2.000000 2.728460 0.000000
2.000000 2.800043 0.000000
2.000000 2.893339 0.000000
2.000000 3.014933 0.000000
2.000000 3.173410 0.000000
2.000000 3.379956 0.000000
2.000000 3.649152 0.000000
1.600000 4.000000 0.000000
1.200000 4.000000 0.000000
0.800000 4.000000 0.000000
0.400000 4.000000 0.000000
0.000000 3.624996 0.000000
0.000000 3.289970 0.000000
0.000000 2.990661 0.000000
0.000000 2.723261 0.000000
0.000000 2.484368 0.000000
0.000000 2.270943 0.000000
0.000000 2.080271 0.000000
0.000000 1.909926 0.000000
0.000000 1.757741 0.000000
0.000000 1.621780 0.000000
0.000000 1.500314 0.000000
0.000000 1.391797 0.000000
0.000000 1.294849 0.000000
0.000000 1.208237 0.000000
0.000000 1.130858 0.000000
0.000000 1.061728 0.000000
0.000000 0.999968 0.000000
0.000000 0.944792 0.000000
0.000000 0.895499 0.000000
0.000000 0.851460 0.000000
0.000000 0.812117 0.000000
0.000000 0.776968 0.000000
0.000000 0.745565 0.000000
0.000000 0.717511 0.000000
0.000000 0.692448 0.000000
0.000000 0.670056 0.000000
0.000000 0.650052 0.000000
0.000000 0.632180 0.000000
0.000000 0.616213 0.000000
0.000000 0.601949 0.000000
0.000000 0.589205 0.000000
0.000000 0.577820 0.000000
0.000000 0.567649 0.000000
0.000000 0.558562 0.000000
0.000000 0.550444 0.000000
0.000000 0.543191 0.000000
0.000000 0.536712 0.000000
0.000000 0.530923 0.000000
0.000000 0.525751 0.000000
0.000000 0.521131 0.000000
0.000000 0.517003 0.000000
0.000000 0.513315 0.000000
0.000000 0.510021 0.000000
0.000000 0.507078 0.000000
0.000000 0.504448 0.000000
0.000000 0.502099 0.000000
0.000000 0.497804 0.000000
0.000000 0.494785 0.000000
0.000000 0.490633 0.000000
0.000000 0.484924 0.000000
0.000000 0.477074 0.000000
0.000000 0.466279 0.000000
0.000000 0.451436 0.000000
0.000000 0.431025 0.000000
0.000000 0.402959 0.000000
0.000000 0.364366 0.000000
0.000000 0.311297 0.000000
0.000000 0.238324 0.000000
0.000000 0.137980 0.000000
0.001414 0.501414 0.000000
0.002828 0.502828 0.000000
0.004241 0.504241 0.000000
0.005655 0.505655 0.000000
0.007069 0.507069 0.000000
0.008483 0.508483 0.000000
0.009896 0.509896 0.000000
0.011310 0.511310 0.000000
0.012724 0.512724 0.000000
0.014138 0.514138 0.000000
0.015551 0.515551 0.000000
0.016965 0.516965 0.000000
0.018379 0.518379 0.000000
0.019793 0.519793 0.000000
0.021206 0.521206 0.000000
0.022620 0.522620 0.000000
0.024034 0.524034 0.000000
0.025448 0.525448 0.000000
0.026861 0.526861 0.000000
0.028275 0.528275 0.000000
0.029689 0.529689 0.000000
0.031103 0.531103 0.000000
0.032516 0.532516 0.000000
0.033930 0.533930 0.000000
0.035344 0.535344 0.000000
0.036758 0.536758 0.000000
0.038172 0.538172 0.000000
0.039585 0.539585 0.000000
0.040999 0.540999 0.000000
0.042413 0.542413 0.000000
0.043827 0.543827 0.000000
0.045240 0.545240 0.000000
0.046654 0.546654 0.000000
0.048068 0.548068 0.000000
0.049482 0.549482 0.000000
0.050895 0.550895 0.000000
0.052309 0.552309 0.000000
0.053723 0.553723 0.000000
0.055137 0.555137 0.000000
0.056550 0.556550 0.000000
0.057964 0.557964 0.000000
0.059378 0.559378 0.000000
0.060792 0.560792 0.000000
0.062205 0.562205 0.000000
0.063619 0.563619 0.000000
0.065033 0.565033 0.000000
0.066447 0.566447 0.000000
0.067861 0.567861 0.000000
0.069274 0.569274 0.000000
0.070688 0.570688 0.000000
0.072102 0.572102 0.000000
0.073516 0.573516 0.000000
0.074929 0.574929 0.000000
0.076343 0.576343 0.000000
0.077757 0.577757 0.000000
0.079171 0.579171 0.000000
0.080584 0.580584 0.000000
0.081998 0.581998 0.000000
0.083412 0.583412 0.000000
0.084826 0.584826 0.000000
0.086239 0.586239 0.000000
0.087653 0.587653 0.000000
0.089067 0.589067 0.000000
0.090481 0.590481 0.000000
0.091894 0.591894 0.000000
0.093308 0.593308 0.000000
0.094722 0.594722 0.000000
0.096136 0.596136 0.000000
0.097549 0.597549 0.000000
0.098963 0.598963 0.000000
0.100377 0.600377 0.000000
0.101791 0.601791 0.000000
0.103205 0.603205 0.000000
0.104618 0.604618 0.000000
0.106032 0.606032 0.000000
0.107446 0.607446 0.000000
0.108860 0.608860 0.000000
0.110273 0.610273 0.000000
0.111687 0.611687 0.000000
0.113101 0.613101 0.000000
0.114515 0.614515 0.000000
0.115928 0.615928 0.000000
0.117342 0.617342 0.000000
0.118756 0.618756 0.000000
0.120170 0.620170 0.000000
0.121583 0.621583 0.000000
0.122997 0.622997 0.000000
0.124411 0.624411 0.000000
0.125825 0.625825 0.000000
0.127238 0.627238 0.000000
0.128652 0.628652 0.000000
0.130066 0.630066 0.000000
0.131480 0.631480 0.000000
0.132893 0.632893 0.000000
0.134307 0.634307 0.000000
0.135721 0.635721 0.000000
0.137135 0.637135 0.000000
0.138549 0.638549 0.000000
0.139962 0.639962 0.000000
0.141376 0.641376 0.000000
0.142790 0.642790 0.000000
0.144204 0.644204 0.000000
0.145617 0.645617 0.000000
0.147031 0.647031 0.000000
0.148445 0.648445 0.000000
0.149859 0.649859 0.000000
0.151272 0.651272 0.000000
0.152686 0.652686 0.000000
0.154100 0.654100 0.000000
0.155514 0.655514 0.000000
0.156927 0.656927 0.000000
0.158341 0.658341 0.000000
0.159755 0.659755 0.000000
0.161169 0.661169 0.000000
0.162582 0.662582 0.000000
0.163996 0.663996 0.000000
0.165410 0.665410 0.000000
0.166824 0.666824 0.000000
0.168238 0.668238 0.000000
0.169651 0.669651 0.000000
0.171065 0.671065 0.000000
0.172479 0.672479 0.000000
0.173893 0.673893 0.000000
0.175306 0.675306 0.000000
0.176720 0.676720 0.000000
0.178134 0.678134 0.000000
0.179548 0.679548 0.000000
0.180961 0.680961 0.000000
0.182375 0.682375 0.000000
0.183789 0.683789 0.000000
0.185203 0.685203 0.000000
0.186616 0.686616 0.000000
0.188030 0.688030 0.000000
0.189444 0.689444 0.000000
0.190858 0.690858 0.000000
0.192271 0.692271 0.000000
0.193685 0.693685 0.000000
0.195099 0.695099 0.000000
0.196513 0.696513 0.000000
0.197926 0.697926 0.000000
0.199340 0.699340 0.000000
0.200754 0.700754 0.000000
0.202168 0.702168 0.000000
0.203582 0.703582 0.000000
0.204995 0.704995 0.000000
0.206409 0.706409 0.000000
0.207823 0.707823 0.000000
0.209237 0.709237 0.000000
0.210650 0.710650 0.000000
0.212064 0.712064 0.000000
0.213478 0.713478 0.000000
0.214892 0.714892 0.000000
0.216305 0.716305 0.000000
0.217719 0.717719 0.000000
0.219133 0.719133 0.000000
0.220547 0.720547 0.000000
0.221960 0.721960 0.000000
0.223374 0.723374 0.000000
0.224788 0.724788 0.000000
0.226202 0.726202 0.000000
0.227615 0.727615 0.000000
0.229029 0.729029 0.000000
0.230443 0.730443 0.000000
0.231857 0.731857 0.000000
0.233270 0.733270 0.000000
0.234684 0.734684 0.000000
0.236098 0.736098 0.000000
0.237512 0.737512 0.000000
0.238926 0.738926 0.000000
0.240339 0.740339 0.000000
0.241753 0.741753 0.000000
0.243167 0.743167 0.000000
0.244581 0.744581 0.000000
0.245994 0.745994 0.000000
0.247408 0.747408 0.000000
0.248822 0.748822 0.000000
0.250236 0.750236 0.000000
0.251649 0.751649 0.000000
0.253063 0.753063 0.000000
0.254477 0.754477 0.000000
0.255891 0.755891 0.000000
0.257304 0.757304 0.000000
0.258718 0.758718 0.000000
0.260132 0.760132 0.000000
0.261546 0.761546 0.000000
0.262959 0.762959 0.000000
0.264373 0.764373 0.000000
0.265787 0.765787 0.000000
0.267201 0.767201 0.000000
0.268615 0.768615 0.000000
0.270028 0.770028 0.000000
0.271442 0.771442 0.000000
0.272856 0.772856 0.000000
0.274270 0.774270 0.000000
0.275683 0.775683 0.000000
0.277097 0.777097 0.000000
0.278511 0.778511 0.000000
0.279925 0.779925 0.000000
0.281338 0.781338 0.000000
0.282752 0.782752 0.000000
0.284166 0.784166 0.000000
0.285580 0.785580 0.000000
0.286993 0.786993 0.000000
0.288407 0.788407 0.000000
0.289821 0.789821 0.000000
0.291235 0.791235 0.000000
0.292648 0.792648 0.000000
0.294062 0.794062 0.000000
0.295476 0.795476 0.000000
0.296890 0.796890 0.000000
0.298303 0.798303 0.000000
0.299717 0.799717 0.000000
0.301131 0.801131 0.000000
0.302545 0.802545 0.000000
0.303959 0.803959 0.000000
0.305372 0.805372 0.000000
0.306786 0.806786 0.000000
0.308200 0.808200 0.000000
0.309614 0.809614 0.000000
0.311027 0.811027 0.000000
0.312441 0.812441 0.000000
0.313855 0.813855 0.000000
0.315269 0.815269 0.000000
0.316682 0.816682 0.000000
0.318096 0.818096 0.000000
0.319510 0.819510 0.000000
0.320924 0.820924 0.000000
0.322337 0.822337 0.000000
0.323751 0.823751 0.000000
0.325165 0.825165 0.000000
0.326579 0.826579 0.000000
0.327992 0.827992 0.000000
0.329406 0.829406 0.000000
0.330820 0.830820 0.000000
0.332234 0.832234 0.000000
0.333648 0.833648 0.000000
0.335061 0.835061 0.000000
0.336475 0.836475 0.000000
0.337889 0.837889 0.000000
0.339303 0.839303 0.000000
0.340716 0.840716 0.000000
[...]
POINT_DATA 20431
SCALARS UX float 1
LOOKUP_TABLE default
-0.000000
0.000000
-0.002236
-0.007097
-0.002323
-0.000617
-0.001063
-0.000000
-0.000000
0.000000
-0.000000
0.001820
0.002443
0.002746
0.002886
0.002927
0.002863
0.002678
0.002364
0.001952
0.001479
0.001028
0.000630
0.000299
0.000032
-0.000180
-0.000347
-0.000481
-0.000588
-0.000675
-0.000745
-0.000802
-0.000850
-0.000889
-0.000921
-0.000949
-0.000971
-0.000991
-0.001007
-0.001020
-0.001032
-0.001042
-0.001050
-0.001057
-0.001069
-0.001078
-0.001089
-0.001102
-0.001120
-0.001143
-0.001171
-0.001208
-0.001253
-0.001308
-0.001374
-0.001454
-0.001547
-0.001650
-0.001765
-0.001885
-0.001999
-0.002118
-0.002199
-0.003345
-0.004376
-0.005315
-0.006208
-0.007015
-0.006850
-0.006629
-0.006413
-0.006255
-0.006174
-0.006177
-0.006242
-0.006356
-0.006487
-0.006623
-0.006751
-0.006867
-0.006966
-0.007049
-0.007115
-0.007166
-0.007203
-0.007229
-0.007245
-0.007254
-0.007258
-0.007257
-0.007253
-0.007246
-0.007236
-0.007223
-0.007209
-0.007195
-0.007180
-0.007165
-0.007147
-0.007123
-0.007095
-0.007068
-0.007030
-0.006997
-0.006997
-0.006986
-0.006969
-0.006844
-0.006693
-0.006050
-0.006011
-0.004559
-0.002860
-0.002112
-0.001989
-0.001926
-0.001878
-0.001823
-0.001777
-0.001724
-0.001667
-0.001603
-0.001520
-0.001392
-0.001189
-0.000818
-0.002124
-0.002232
-0.002428
-0.002530
-0.002443
-0.002533
-0.002533
-0.002552
-0.002526
-0.002501
-0.002478
-0.002463
-0.003430
-0.004332
-0.004374
-0.004405
-0.003877
-0.003442
-0.003350
-0.003216
-0.003443
-0.003436
-0.003385
-0.003367
-0.003550
-0.003542
-0.003575
-0.003588
-0.004062
-0.004090
-0.004222
-0.004132
-0.004150
-0.004100
-0.004103
-0.004151
-0.004133
-0.004067
-0.004143
-0.004095
-0.004116
-0.004144
-0.004107
-0.004148
-0.004193
-0.004080
-0.003800
-0.003744
-0.004109
-0.004293
-0.004386
-0.004085
-0.004033
-0.004025
-0.004050
-0.003954
-0.003958
-0.003990
-0.004054
-0.004075
-0.004066
-0.004018
-0.004035
-0.004033
-0.003605
-0.003570
-0.003563
-0.003577
-0.003597
-0.003566
-0.003552
-0.003568
-0.003627
-0.003431
-0.003596
-0.003641
-0.003595
-0.003680
-0.003652
-0.003632
-0.003632
-0.003440
-0.003375
-0.004108
-0.004153
-0.004084
-0.004060
-0.004124
-0.004043
-0.004015
-0.004011
-0.003254
-0.003284
-0.003290
-0.003314
-0.003420
-0.003287
-0.003263
-0.003245
-0.003201
-0.003774
-0.003992
-0.003979
-0.003967
-0.003873
-0.003934
-0.003949
-0.003846
-0.004000
-0.003955
-0.003951
-0.003926
-0.003916
-0.003845
-0.003818
-0.003778
-0.004217
-0.003766
-0.003794
-0.003737
-0.003745
-0.003708
-0.003785
-0.003738
-0.003709
-0.003645
-0.003636
-0.003633
-0.003697
-0.003796
-0.003625
-0.003570
-0.003644
-0.003638
-0.003650
-0.003647
-0.003657
-0.003640
-0.003558
-0.004003
-0.003982
-0.003919
-0.003872
-0.003957
-0.003900
-0.003881
-0.003899
-0.004045
-0.004192
-0.004178
-0.004207
-0.004190
-0.004135
-0.004249
-0.004192
-0.004168
-0.004042
-0.003916
-0.003651
-0.003604
-0.003636
-0.003607
-0.003630
-0.003600
-0.003606
-0.003594
-0.003584
-0.003584
-0.003771
-0.003730
-0.003777
-0.003779
-0.003780
-0.003804
-0.003727
-0.004017
-0.004011
-0.003994
-0.003996
-0.004011
-0.004002
-0.004159
-0.004150
-0.004154
-0.004097
-0.004100
-0.004108
-0.004060
-0.004063
-0.004061
-0.004054
-0.004040
-0.004094
-0.004137
-0.004078
-0.004092
-0.004117
-0.004121
-0.004088
-0.004046
-0.004066
-0.004089
-0.004066
-0.004031
-0.004022
-0.003986
-0.003970
-0.004007
-0.003996
-0.004003
-0.003936
-0.003948
-0.003983
-0.003860
-0.003882
-0.003818
-0.003825
-0.003758
-0.003756
-0.003765
-0.003805
-0.003751
-0.003825
-0.003709
-0.003741
-0.003855
-0.003733
-0.003729
-0.003687
-0.003652
-0.003670
-0.003572
-0.003571
-0.003620
-0.003566
-0.003576
-0.003517
-0.003510
-0.003510
-0.003473
-0.003487
-0.003501
-0.003484
-0.003468
-0.003436
-0.003359
-0.003338
-0.003337
-0.003367
-0.003383
-0.003364
-0.003329
-0.003304
-0.003298
-0.003322
-0.003301
-0.003313
-0.003346
-0.003314
-0.003302
-0.003316
-0.003307
-0.003215
-0.003334
-0.003313
-0.003740
-0.003728
-0.003730
-0.003296
-0.003229
-0.003199
-0.003338
-0.003351
-0.003381
-0.003359
-0.003326
-0.003309
-0.003301
-0.003294
-0.003246
-0.003220
-0.003160
-0.003221
-0.003283
-0.003230
-0.003229
-0.003363
-0.003165
-0.003283
-0.003254
-0.003186
-0.003323
-0.003310
-0.003264
-0.003255
-0.003211
-0.003213
-0.003152
-0.003130
-0.003125
-0.003120
-0.003086
-0.003111
-0.003114
-0.003086
-0.002943
-0.003040
-0.003008
-0.003065
-0.002994
-0.003064
-0.003007
-0.003005
-0.002974
-0.003009
-0.003780
-0.003719
-0.003747
-0.003740
-0.003693
-0.003653
-0.004052
-0.003508
-0.003858
-0.003860
-0.004044
-0.003998
-0.003396
-0.003801
-0.003954
-0.003884
-0.003524
-0.003390
-0.003731
-0.003660
-0.003623
-0.003748
-0.003709
-0.003680
-0.003613
-0.003230
-0.003203
-0.003128
-0.003173
-0.003458
-0.003408
-0.003365
-0.003357
-0.003392
-0.003397
-0.003416
-0.003434
-0.003393
-0.003393
-0.003421
-0.003423
-0.003406
-0.002610
-0.002463
-0.002500
-0.002468
-0.002491
-0.002479
-0.002495
-0.002471
-0.002499
-0.002571
-0.003318
-0.003294
-0.003270
-0.003233
-0.003289
-0.003282
-0.003244
-0.003289
-0.003260
-0.003185
-0.003170
-0.003188
-0.003177
-0.003167
-0.003045
-0.003070
-0.003071
-0.003095
-0.003093
-0.003043
-0.003039
-0.003127
-0.003074
-0.003063
-0.003110
-0.003091
-0.003029
-0.003003
-0.003064
-0.002999
-0.002956
-0.003016
-0.002969
-0.002952
-0.002948
-0.002946
-0.002929
-0.002812
-0.002828
-0.002843
-0.002832
-0.002814
-0.003050
-0.002974
-0.003051
-0.002983
-0.003010
-0.003021
-0.003010
-0.002998
-0.003013
-0.003042
-0.003104
-0.003062
-0.003040
-0.003029
-0.002972
-0.002924
-0.002991
-0.002976
-0.002924
-0.002903
-0.002869
-0.002903
-0.002883
-0.002858
-0.002831
-0.002867
-0.002849
-0.003088
-0.003057
-0.003034
-0.003058
-0.003034
-0.002970
-0.002986
-0.003099
-0.003060
-0.002993
-0.003049
-0.003073
-0.002986
-0.002942
-0.002788
-0.003101
-0.003094
-0.003089
-0.003077
-0.003103
-0.003109
-0.003136
-0.003160
-0.003147
-0.003172
-0.003327
-0.003203
-0.002689
-0.002676
-0.002687
-0.002701
-0.002670
-0.002696
-0.002693
-0.002691
-0.002635
-0.002822
-0.002743
-0.002493
-0.002541
-0.002538
-0.002493
-0.002467
-0.002552
-0.003065
-0.003077
-0.003067
-0.003075
-0.003024
-0.002971
-0.003029
-0.003071
-0.003003
-0.003016
-0.002939
-0.002928
-0.002967
-0.002977
-0.002965
-0.002934
-0.002958
-0.002918
-0.002931
-0.003000
-0.003078
-0.003010
-0.002982
-0.002996
-0.003024
-0.003040
-0.003017
-0.003017
-0.003027
-0.003010
-0.002688
-0.002752
-0.002775
-0.002806
-0.002729
-0.002702
-0.002733
-0.002631
-0.002569
-0.002618
-0.002590
-0.002587
-0.002570
-0.002573
-0.002490
-0.002521
-0.002490
-0.002447
-0.002435
-0.002517
-0.002499
-0.002483
-0.002434
-0.003019
-0.003019
-0.002982
-0.002937
-0.002989
-0.002694
-0.002686
-0.002619
-0.002664
-0.002641
-0.002603
-0.002629
-0.002649
-0.002641
-0.002626
-0.002575
-0.002581
-0.002633
-0.002616
-0.002550
-0.002593
-0.002540
-0.002543
-0.002505
-0.002509
-0.002523
-0.002311
-0.002341
-0.002350
-0.002334
-0.002355
-0.002368
-0.002366
-0.002363
-0.002379
-0.002370
-0.002360
-0.002349
-0.002427
-0.002446
-0.002476
-0.002343
-0.002417
-0.002448
-0.002475
-0.002503
-0.002530
-0.002498
-0.002531
-0.002472
-0.002421
-0.002452
-0.002453
-0.002589
-0.002610
-0.002586
-0.002577
-0.002594
-0.002600
-0.002581
-0.002566
-0.002577
-0.002551
-0.002588
-0.002543
-0.002562
-0.002562
-0.002512
-0.002492
-0.002522
-0.002508
-0.002446
-0.002418
-0.002432
-0.002425
-0.002395
-0.002376
-0.002386
-0.002369
-0.002318
-0.002307
-0.002347
-0.002070
-0.002047
-0.002056
-0.002029
-0.002018
-0.002059
-0.002017
-0.001989
-0.002028
-0.002045
-0.001996
-0.001981
-0.002000
-0.001993
-0.002215
-0.002067
-0.002055
-0.002052
-0.002016
-0.002020
-0.002011
-0.001969
-0.001929
-0.001904
-0.001937
-0.001953
-0.001940
-0.001977
-0.001949
-0.001875
-0.002214
-0.002136
-0.002110
-0.002133
-0.002196
-0.002131
-0.002097
-0.002106
-0.002130
-0.002101
-0.002086
-0.002139
-0.002109
-0.002102
-0.002103
-0.002065
-0.002059
-0.002087
-0.002116
-0.002139
-0.002067
-0.002019
-0.002029
-0.002035
-0.002002
-0.001998
-0.001966
-0.002014
-0.002009
-0.001982
-0.002013
-0.001989
-0.002096
-0.002090
-0.002049
-0.002087
-0.001340
-0.001474
-0.001640
-0.001513
-0.001559
-0.001523
-0.001542
-0.001912
-0.001883
-0.001839
-0.001822
-0.001885
-0.001950
-0.001885
-0.001869
-0.001877
-0.001886
-0.001881
-0.001852
-0.001828
-0.001839
-0.001839
-0.001866
-0.001771
-0.001767
-0.001770
-0.001727
-0.002271
-0.002306
-0.002356
-0.002149
-0.002096
-0.002110
-0.002150
-0.002173
-0.002142
-0.002113
-0.002139
-0.002119
-0.002144
-0.002094
-0.002100
-0.002102
-0.001855
-0.001915
-0.001932
-0.001909
-0.001898
-0.001913
-0.001906
-0.001868
-0.001881
-0.001420
-0.001401
-0.001746
-0.001771
-0.001774
-0.001773
-0.001777
-0.001768
-0.001743
-0.001757
-0.001756
-0.001767
-0.001755
-0.001729
-0.001690
-0.001673
-0.001686
-0.001658
-0.001622
-0.001657
-0.001663
-0.001632
-0.001632
-0.001609
-0.001662
-0.001620
-0.001574
-0.001654
-0.001544
-0.001523
-0.001634
-0.001606
-0.001584
-0.001563
-0.001577
-0.001552
-0.001620
-0.001492
-0.001459
-0.001436
-0.001459
-0.001445
-0.001424
-0.001400
-0.001438
-0.001439
-0.001466
-0.001436
-0.001415
-0.001364
-0.001417
-0.001409
-0.001379
-0.001346
-0.001304
-0.001332
-0.001295
-0.001296
-0.001319
-0.001299
-0.001298
-0.001296
-0.001278
-0.001262
-0.001252
-0.001254
-0.001226
-0.001477
-0.001418
-0.001373
-0.001476
-0.001469
-0.001478
-0.001449
-0.001521
-0.001521
-0.001706
-0.001694
-0.001697
-0.001652
-0.001643
-0.001674
-0.001663
-0.001626
-0.001996
-0.001988
-0.001972
-0.001934
-0.001374
-0.001367
-0.001356
-0.001352
-0.001364
-0.001342
-0.001371
-0.001362
-0.001345
-0.001288
-0.001348
-0.001334
-0.001368
-0.001343
-0.001388
-0.001383
-0.001384
-0.001394
-0.001384
-0.001443
-0.001367
-0.001429
-0.001387
-0.001366
-0.001349
-0.001405
-0.001395
-0.001393
-0.001375
-0.001357
-0.001344
-0.001362
-0.001177
-0.001139
-0.001156
-0.001177
-0.001160
-0.001108
-0.001139
-0.001153
-0.001064
-0.001041
-0.001025
-0.001259
-0.001226
-0.001222
-0.001238
-0.001302
-0.001194
-0.001508
-0.001445
-0.001373
-0.001402
-0.001405
-0.001133
-0.001037
-0.001045
-0.001013
-0.001234
-0.000540
-0.000934
-0.000949
-0.000942
-0.000904
-0.000829
-0.000828
-0.001343
-0.001269
-0.001265
-0.001311
-0.001283
-0.001190
-0.001169
-0.001187
-0.001151
-0.001166
-0.001163
-0.001153
-0.001128
-0.001119
-0.001122
-0.001202
-0.001134
-0.001086
-0.001100
-0.001066
-0.001084
-0.001059
-0.001071
-0.001058
-0.001067
-0.001017
-0.001312
-0.001324
-0.001303
-0.001221
-0.001019
-0.001005
-0.001041
-0.001000
-0.000982
-0.000979
-0.001008
-0.001012
-0.001019
-0.001028
-0.000991
-0.001043
-0.001066
-0.001008
-0.002038
-0.001110
-0.001270
0.000272
-0.000838
-0.000838
-0.000857
-0.000871
-0.000876
-0.000867
-0.000852
-0.000749
-0.000815
-0.000894
-0.000803
-0.000760
-0.000842
-0.000791
-0.000791
-0.000791
-0.000804
-0.000833
-0.000834
-0.000835
-0.000842
-0.000825
-0.000848
-0.000836
-0.000844
-0.000824
-0.000838
-0.000856
-0.000834
-0.000870
-0.000887
-0.000901
-0.000886
-0.000866
-0.000882
-0.000907
-0.000906
-0.000922
-0.000928
-0.000928
-0.000929
-0.000997
-0.000927
-0.000906
-0.000878
-0.000874
-0.000849
-0.000822
-0.000812
-0.000801
-0.000811
-0.000792
-0.000779
-0.000757
-0.001022
-0.000786
-0.000849
-0.000833
-0.000821
-0.000861
-0.001069
-0.001042
-0.001045
-0.000939
-0.000935
-0.000919
-0.000925
-0.000945
-0.000908
-0.000918
-0.000970
-0.000941
-0.000946
-0.000951
-0.000906
-0.000949
-0.000937
-0.000933
-0.000968
-0.000981
-0.000981
-0.000973
-0.000950
-0.000923
-0.000909
-0.000923
-0.000898
-0.000901
-0.000952
-0.000949
-0.000938
-0.000921
-0.000912
-0.000911
-0.000913
-0.000892
-0.000899
-0.000899
-0.000882
-0.000939
-0.000935
-0.000534
-0.000895
-0.000872
-0.000852
-0.000930
-0.000825
-0.000822
-0.000802
-0.000773
-0.000763
-0.000745
-0.000725
-0.000766
-0.000730
-0.000705
-0.000697
-0.000673
-0.000712
-0.000719
-0.000707
-0.000663
-0.000653
-0.000644
-0.000629
-0.000579
-0.000603
-0.000601
-0.000610
-0.000614
-0.000621
-0.000627
-0.000634
-0.000641
-0.000648
-0.000655
-0.000662
-0.000668
-0.000675
-0.000682
-0.000688
-0.000695
-0.000700
-0.000706
-0.000711
-0.000717
-0.000722
-0.000727
-0.000732
-0.000736
-0.000741
-0.000745
-0.000750
-0.000754
-0.000758
-0.000762
-0.000766
-0.000769
-0.000773
-0.000776
-0.000780
-0.000783
-0.000787
-0.000790
-0.000793
-0.000796
-0.000799
-0.000802
-0.000805
-0.000808
-0.000812
-0.000815
-0.000818
-0.000821
-0.000824
-0.000827
-0.000830
-0.000832
-0.000835
-0.000838
-0.000840
-0.000842
-0.000845
-0.000847
-0.000849
-0.000851
-0.000853
-0.000855
-0.000857
-0.000859
-0.000861
-0.000863
-0.000865
-0.000867
-0.000869
-0.000870
-0.000872
-0.000874
-0.000876
-0.000877
-0.000879
-0.000881
-0.000882
-0.000884
-0.000885
-0.000887
-0.000889
-0.000890
-0.000892
-0.000893
-0.000895
-0.000896
-0.000898
-0.000899
-0.000901
-0.000902
-0.000904
-0.000905
-0.000906
-0.000908
-0.000909
-0.000911
-0.000912
-0.000913
-0.000915
-0.000916
-0.000918
-0.000919
-0.000920
-0.000922
-0.000923
-0.000924
-0.000926
-0.000927
-0.000929
-0.000930
-0.000931
-0.000933
-0.000934
-0.000935
-0.000937
-0.000938
-0.000939
-0.000941
-0.000942
-0.000943
-0.000945
-0.000946
-0.000947
-0.000949
-0.000950
-0.000951
-0.000953
-0.000954
-0.000955
-0.000956
-0.000958
-0.000959
-0.000960
-0.000962
-0.000963
-0.000964
-0.000966
-0.000967
-0.000968
-0.000970
-0.000971
-0.000972
-0.000974
-0.000975
-0.000976
-0.000977
-0.000979
-0.000980
-0.000981
-0.000983
-0.000984
-0.000985
-0.000987
-0.000988
-0.000989
-0.000991
-0.000992
-0.000993
-0.000994
-0.000996
-0.000997
-0.000998
-0.001000
-0.001001
-0.001002
-0.001003
-0.001005
-0.001006
-0.001007
-0.001009
-0.001010
-0.001011
-0.001012
-0.001014
-0.001015
-0.001016
-0.001017
-0.001019
-0.001020
-0.001021
-0.001022
-0.001024
-0.001025
-0.001026
-0.001027
-0.001028
-0.001030
-0.001031
-0.001032
-0.001033
-0.001035
-0.001036
-0.001037
-0.001038
-0.001039
-0.001040
-0.001042
-0.001043
-0.001044
-0.001045
-0.001046
-0.001047
-0.001048
-0.001050
-0.001051
-0.001052
-0.001053
-0.001054
-0.001055
-0.001056
-0.001057
-0.001058
-0.001059
-0.001060
-0.001061
-0.001062
-0.001063
-0.001064
-0.001065
-0.001066
-0.001067
-0.001068
-0.001069
-0.001070
-0.001071
-0.001072
-0.001073
-0.001074
-0.001075
-0.001076
-0.001077
-0.001077
-0.001078
-0.001079
-0.001080
-0.001081
-0.001082
-0.001082
-0.001083
-0.001084
-0.001085
-0.001085
-0.001086
-0.001087
-0.001088
-0.001088
-0.001089
-0.001090
-0.001090
-0.001091
-0.001092
-0.001092
-0.001093
-0.001093
-0.001094
-0.001094
-0.001095
-0.001096
-0.001096
-0.001097
-0.001097
-0.001097
-0.001098
-0.001098
-0.001099
-0.001099
-0.001100
-0.001100
-0.001100
-0.001101
-0.001101
-0.001101
-0.001101
-0.001102
-0.001102
-0.001102
-0.001102
-0.001103
-0.001103
-0.001103
-0.001103
-0.001103
-0.001103
-0.001103
-0.001103
-0.001103
-0.001103
-0.001103
-0.001103
-0.001103
-0.001103
-0.001103
-0.001103
-0.001103
-0.001103
-0.001103
-0.001103
-0.001102
-0.001102
-0.001102
-0.001102
-0.001102
-0.001101
-0.001101
-0.001101
-0.001100
-0.001100
-0.001100
-0.001099
-0.001099
-0.001098
-0.001098
-0.001097
-0.001097
-0.001096
-0.001096
-0.001095
-0.001095
-0.001094
-0.001094
-0.001093
-0.001092
-0.001092
-0.001091
-0.001090
-0.001090
-0.001089
-0.001088
-0.001087
-0.001086
-0.001086
-0.001085
-0.001084
-0.001083
-0.001082
-0.001081
-0.001080
-0.001079
-0.001078
-0.001077
-0.001076
-0.001075
-0.001074
-0.001073
-0.001072
-0.001071
-0.001070
-0.001069
-0.001068
-0.001067
-0.001065
-0.001064
-0.000997
-0.001006
-0.001015
-0.000936
-0.000923
-0.000929
-0.005581
-0.005633
-0.005683
-0.005764
-0.003752
-0.001100
-0.001081
-0.001093
-0.001079
-0.001028
-0.001043
-0.001029
-0.003746
-0.003622
-0.004326
-0.003763
-0.005768
-0.005681
-0.004968
-0.004971
-0.004142
-0.003575
-0.003781
-0.002709
-0.002778
-0.002703
-0.002744
-0.004758
-0.004760
-0.005004
-0.005020
-0.002266
-0.002625
-0.002161
-0.002831
-0.004906
-0.004942
-0.004896
-0.004930
-0.001446
-0.001508
-0.001486
-0.001449
-0.006107
-0.005846
-0.005153
-0.003029
-0.003005
-0.002985
-0.002923
-0.003363
-0.003539
-0.003511
-0.003654
-0.003633
-0.003603
-0.003604
-0.005431
-0.005373
-0.005400
-0.004183
-0.004204
-0.004258
-0.004278
-0.001421
-0.001369
-0.001415
-0.001349
-0.004191
-0.004169
-0.004182
-0.004150
-0.003116
-0.003130
-0.003176
-0.003035
-0.003009
-0.003039
-0.003117
-0.002859
-0.004350
-0.004406
-0.004407
-0.004450
-0.001044
-0.001063
-0.001060
-0.005105
-0.005144
-0.005059
-0.003621
-0.001100
-0.001126
-0.001105
-0.001106
-0.002314
-0.002186
-0.002339
-0.003981
-0.004006
-0.004030
-0.001972
-0.003269
-0.003276
-0.003300
-0.003946
-0.002245
-0.002283
-0.002312
-0.001150
-0.001151
-0.001182
-0.001163
-0.001479
-0.001444
-0.001964
-0.001619
-0.002324
-0.005923
-0.006130
-0.005947
-0.001131
-0.001129
-0.001114
-0.006114
-0.005500
-0.005638
-0.005610
-0.005521
-0.005409
-0.005417
-0.005463
-0.005450
-0.004789
-0.004845
-0.004779
-0.003684
-0.003674
-0.003697
-0.003689
-0.004818
-0.002413
-0.002380
-0.002508
-0.005232
-0.005285
-0.005172
-0.005527
-0.005545
-0.005558
-0.002447
-0.001152
-0.001168
-0.001177
-0.004989
-0.004213
-0.004203
-0.001054
-0.001031
-0.001044
-0.001035
-0.001981
-0.002001
-0.002004
-0.002031
-0.003865
-0.003941
-0.003899
-0.003942
-0.002403
-0.002332
-0.002422
-0.002308
-0.006026
-0.006041
-0.006074
-0.005987
-0.001110
-0.001110
-0.006900
-0.006882
-0.006871
-0.006847
-0.005173
-0.005214
-0.005100
-0.005338
-0.001124
-0.001109
-0.001104
-0.005356
-0.005188
-0.006232
-0.006252
-0.006215
-0.001158
-0.001188
-0.001187
-0.002840
-0.002832
-0.002740
-0.002713
-0.004051
-0.004071
-0.004063
-0.006605
-0.006631
-0.006697
-0.006680
-0.001149
-0.001153
-0.001123
-0.001184
-0.001140
-0.001114
-0.001119
-0.001211
-0.002007
-0.002010
-0.002041
-0.002034
-0.004199
-0.004021
-0.004029
-0.004178
-0.004490
-0.004455
-0.004541
-0.001149
-0.001175
-0.001190
-0.001213
-0.004785
-0.004744
-0.004817
-0.004748
-0.001761
-0.001881
-0.002012
-0.003384
-0.003228
-0.003111
-0.003408
-0.006519
-0.006538
-0.006508
-0.006558
-0.001116
-0.001115
-0.002640
-0.002098
-0.001944
-0.001660
-0.003891
-0.003887
-0.003842
-0.003854
-0.005250
-0.005345
-0.005236
-0.005363
-0.004900
-0.004982
-0.005023
-0.004831
-0.004444
-0.004437
-0.004459
-0.004458
-0.005535
-0.005545
-0.005491
-0.005496
-0.001189
-0.001152
-0.001160
-0.001164
-0.004469
-0.003745
-0.003778
-0.006832
-0.006904
-0.006873
-0.006809
-0.004505
-0.005407
-0.005011
-0.003428
-0.003032
-0.005063
-0.005030
-0.005078
-0.005021
-0.002027
-0.002132
-0.002117
-0.002223
-0.003454
-0.003210
-0.003357
-0.003196
-0.001656
-0.001698
-0.001726
-0.001780
-0.001347
-0.001441
-0.001355
-0.001419
-0.005377
-0.005358
-0.005391
-0.005382
-0.005004
-0.004865
-0.004886
-0.005009
-0.001419
-0.001378
-0.001449
-0.001350
-0.001487
-0.001440
-0.001354
-0.004164
-0.003999
-0.004067
-0.004065
-0.001218
-0.001243
-0.001189
-0.001081
-0.004589
-0.004623
-0.004641
-0.004570
-0.001068
-0.001081
-0.001093
-0.001108
-0.003386
-0.003334
-0.003414
-0.003358
-0.002290
-0.002185
-0.004476
-0.004465
-0.004438
-0.004437
-0.003764
-0.003819
-0.003737
-0.003853
-0.003574
-0.003016
-0.003345
-0.001116
-0.001139
-0.001123
-0.006023
-0.006032
-0.006005
-0.006002
-0.002714
-0.005463
-0.005401
-0.005409
-0.001283
-0.001223
-0.001233
-0.001191
-0.001019
-0.001021
-0.001036
-0.001036
-0.002293
-0.002300
-0.002336
-0.002245
-0.002655
-0.002707
-0.002702
-0.002682
-0.002629
-0.002547
-0.001972
-0.002032
-0.002022
-0.004036
-0.004063
-0.003851
-0.003053
-0.003004
-0.002823
-0.003682
-0.001760
-0.001779
-0.001841
-0.001830
-0.001808
-0.001804
-0.001827
-0.001144
-0.001163
-0.001173
-0.005001
-0.004882
-0.001139
-0.000949
-0.000971
-0.000967
-0.000989
-0.003969
-0.003978
-0.004463
-0.001277
-0.003225
-0.003219
-0.003248
-0.003245
-0.006325
-0.006287
-0.006283
-0.006249
-0.002473
-0.002723
-0.002742
-0.002411
-0.005630
-0.005598
-0.005642
-0.005609
-0.005544
-0.005634
-0.005516
-0.005624
-0.000950
-0.000926
-0.000896
-0.005751
-0.005740
-0.005781
-0.002730
-0.002689
-0.002747
-0.002736
-0.001042
-0.000923
-0.000926
-0.000895