# vtk DataFile Version 2.0
Test
ASCII
DATASET POLYDATA
POINTS 20431 float
0.000000 0.000000 0.000000
2.000000 0.000000 0.000000
2.000000 4.000000 0.000000
0.000000 4.000000 0.000000
0.000000 0.500000 0.000000
1.500000 2.000000 0.000000
2.000000 2.500000 0.000000
0.400000 0.000000 0.000000
0.800000 0.000000 0.000000
1.200000 0.000000 0.000000
1.600000 0.000000 0.000000
2.000000 0.362557 0.000000
2.000000 0.672798 0.000000
2.000000 0.938272 0.000000
2.000000 1.165439 0.000000
2.000000 1.359826 0.000000
2.000000 1.526163 0.000000
2.000000 1.668499 0.000000
2.000000 1.790295 0.000000
2.000000 1.894517 0.000000
2.000000 1.983700 0.000000
2.000000 2.060013 0.000000
2.000000 2.125315 0.000000
2.000000 2.181194 0.000000
2.000000 2.229010 0.000000
2.000000 2.269926 0.000000
2.000000 2.304938 0.000000
2.000000 2.334898 0.000000
2.000000 2.360534 0.000000
2.000000 2.382472 0.000000
2.000000 2.401244 0.000000
2.000000 2.417307 0.000000
2.000000 2.431052 0.000000
2.000000 2.442814 0.000000
2.000000 2.452878 0.000000
2.000000 2.461491 0.000000
2.000000 2.468860 0.000000
2.000000 2.475167 0.000000
2.000000 2.480563 0.000000
2.000000 2.485180 0.000000
2.000000 2.489132 0.000000
2.000000 2.492513 0.000000
2.000000 2.495406 0.000000
2.000000 2.497882 0.000000
2.000000 2.502286 0.000000
2.000000 2.505266 0.000000
2.000000 2.509150 0.000000
2.000000 2.514212 0.000000
2.000000 2.520809 0.000000
2.000000 2.529407 0.000000
2.000000 2.540613 0.000000
2.000000 2.555218 0.000000
2.000000 2.574253 0.000000
2.000000 2.599061 0.000000
2.000000 2.631395 0.000000
2.000000 2.673536 0.000000
2.000000 2.728460 0.000000
2.000000 2.800043 0.000000
2.000000 2.893339 0.000000
2.000000 3.014933 0.000000
2.000000 3.173410 0.000000
2.000000 3.379956 0.000000
2.000000 3.649152 0.000000
1.600000 4.000000 0.000000
1.200000 4.000000 0.000000
0.800000 4.000000 0.000000
0.400000 4.000000 0.000000
0.000000 3.624996 0.000000
0.000000 3.289970 0.000000
0.000000 2.990661 0.000000
0.000000 2.723261 0.000000
0.000000 2.484368 0.000000
0.000000 2.270943 0.000000
0.000000 2.080271 0.000000
0.000000 1.909926 0.000000
0.000000 1.757741 0.000000
0.000000 1.621780 0.000000
0.000000 1.500314 0.000000
0.000000 1.391797 0.000000
0.000000 1.294849 0.000000
0.000000 1.208237 0.000000
0.000000 1.130858 0.000000
0.000000 1.061728 0.000000
0.000000 0.999968 0.000000
0.000000 0.944792 0.000000
0.000000 0.895499 0.000000
0.000000 0.851460 0.000000
0.000000 0.812117 0.000000
0.000000 0.776968 0.000000
0.000000 0.745565 0.000000
0.000000 0.717511 0.000000
0.000000 0.692448 0.000000
0.000000 0.670056 0.000000
0.000000 0.650052 0.000000
0.000000 0.632180 0.000000
0.000000 0.616213 0.000000
0.000000 0.601949 0.000000
0.000000 0.589205 0.000000
0.000000 0.577820 0.000000
0.000000 0.567649 0.000000
0.000000 0.558562 0.000000
0.000000 0.550444 0.000000
0.000000 0.543191 0.000000
0.000000 0.536712 0.000000
0.000000 0.530923 0.000000
0.000000 0.525751 0.000000
0.000000 0.521131 0.000000
0.000000 0.517003 0.000000
0.000000 0.513315 0.000000
0.000000 0.510021 0.000000
0.000000 0.507078 0.000000
0.000000 0.504448 0.000000
0.000000 0.502099 0.000000
0.000000 0.497804 0.000000
0.000000 0.494785 0.000000
0.000000 0.490633 0.000000
0.000000 0.484924 0.000000
0.000000 0.477074 0.000000
0.000000 0.466279 0.000000
0.000000 0.451436 0.000000
0.000000 0.431025 0.000000
0.000000 0.402959 0.000000
0.000000 0.364366 0.000000
0.000000 0.311297 0.000000
0.000000 0.238324 0.000000
0.000000 0.137980 0.000000
0.001414 0.501414 0.000000
0.002828 0.502828 0.000000
0.004241 0.504241 0.000000
0.005655 0.505655 0.000000
0.007069 0.507069 0.000000
0.008483 0.508483 0.000000
0.009896 0.509896 0.000000
0.011310 0.511310 0.000000
0.012724 0.512724 0.000000
0.014138 0.514138 0.000000
0.015551 0.515551 0.000000
0.016965 0.516965 0.000000
0.018379 0.518379 0.000000
0.019793 0.519793 0.000000
0.021206 0.521206 0.000000
0.022620 0.522620 0.000000
0.024034 0.524034 0.000000
0.025448 0.525448 0.000000
0.026861 0.526861 0.000000
0.028275 0.528275 0.000000
0.029689 0.529689 0.000000
0.031103 0.531103 0.000000
0.032516 0.532516 0.000000
0.033930 0.533930 0.000000
0.035344 0.535344 0.000000
0.036758 0.536758 0.000000
0.038172 0.538172 0.000000
0.039585 0.539585 0.000000
0.040999 0.540999 0.000000
0.042413 0.542413 0.000000
0.043827 0.543827 0.000000
0.045240 0.545240 0.000000
0.046654 0.546654 0.000000
0.048068 0.548068 0.000000
0.049482 0.549482 0.000000
0.050895 0.550895 0.000000
0.052309 0.552309 0.000000
0.053723 0.553723 0.000000
0.055137 0.555137 0.000000
0.056550 0.556550 0.000000
0.057964 0.557964 0.000000
0.059378 0.559378 0.000000
0.060792 0.560792 0.000000
0.062205 0.562205 0.000000
0.063619 0.563619 0.000000
0.065033 0.565033 0.000000
0.066447 0.566447 0.000000
0.067861 0.567861 0.000000
0.069274 0.569274 0.000000
0.070688 0.570688 0.000000
0.072102 0.572102 0.000000
0.073516 0.573516 0.000000
0.074929 0.574929 0.000000
0.076343 0.576343 0.000000
0.077757 0.577757 0.000000
0.079171 0.579171 0.000000
0.080584 0.580584 0.000000
0.081998 0.581998 0.000000
0.083412 0.583412 0.000000
0.084826 0.584826 0.000000
0.086239 0.586239 0.000000
0.087653 0.587653 0.000000
0.089067 0.589067 0.000000
0.090481 0.590481 0.000000
0.091894 0.591894 0.000000
0.093308 0.593308 0.000000
0.094722 0.594722 0.000000
0.096136 0.596136 0.000000
0.097549 0.597549 0.000000
0.098963 0.598963 0.000000
0.100377 0.600377 0.000000
0.101791 0.601791 0.000000
0.103205 0.603205 0.000000
0.104618 0.604618 0.000000
0.106032 0.606032 0.000000
0.107446 0.607446 0.000000
0.108860 0.608860 0.000000
0.110273 0.610273 0.000000
0.111687 0.611687 0.000000
0.113101 0.613101 0.000000
0.114515 0.614515 0.000000
0.115928 0.615928 0.000000
0.117342 0.617342 0.000000
0.118756 0.618756 0.000000
0.120170 0.620170 0.000000
0.121583 0.621583 0.000000
0.122997 0.622997 0.000000
0.124411 0.624411 0.000000
0.125825 0.625825 0.000000
0.127238 0.627238 0.000000
0.128652 0.628652 0.000000
0.130066 0.630066 0.000000
0.131480 0.631480 0.000000
0.132893 0.632893 0.000000
0.134307 0.634307 0.000000
0.135721 0.635721 0.000000
0.137135 0.637135 0.000000
0.138549 0.638549 0.000000
0.139962 0.639962 0.000000
0.141376 0.641376 0.000000
0.142790 0.642790 0.000000
0.144204 0.644204 0.000000
0.145617 0.645617 0.000000
0.147031 0.647031 0.000000
0.148445 0.648445 0.000000
0.149859 0.649859 0.000000
0.151272 0.651272 0.000000
0.152686 0.652686 0.000000
0.154100 0.654100 0.000000
0.155514 0.655514 0.000000
0.156927 0.656927 0.000000
0.158341 0.658341 0.000000
0.159755 0.659755 0.000000
0.161169 0.661169 0.000000
0.162582 0.662582 0.000000
0.163996 0.663996 0.000000
0.165410 0.665410 0.000000
0.166824 0.666824 0.000000
0.168238 0.668238 0.000000
0.169651 0.669651 0.000000
0.171065 0.671065 0.000000
0.172479 0.672479 0.000000
0.173893 0.673893 0.000000
0.175306 0.675306 0.000000
0.176720 0.676720 0.000000
0.178134 0.678134 0.000000
0.179548 0.679548 0.000000
0.180961 0.680961 0.000000
0.182375 0.682375 0.000000
0.183789 0.683789 0.000000
0.185203 0.685203 0.000000
0.186616 0.686616 0.000000
0.188030 0.688030 0.000000
0.189444 0.689444 0.000000
0.190858 0.690858 0.000000
0.192271 0.692271 0.000000
0.193685 0.693685 0.000000
0.195099 0.695099 0.000000
0.196513 0.696513 0.000000
0.197926 0.697926 0.000000
0.199340 0.699340 0.000000
0.200754 0.700754 0.000000
0.202168 0.702168 0.000000
0.203582 0.703582 0.000000
0.204995 0.704995 0.000000
0.206409 0.706409 0.000000
0.207823 0.707823 0.000000
0.209237 0.709237 0.000000
0.210650 0.710650 0.000000
0.212064 0.712064 0.000000
0.213478 0.713478 0.000000
0.214892 0.714892 0.000000
0.216305 0.716305 0.000000
0.217719 0.717719 0.000000
0.219133 0.719133 0.000000
0.220547 0.720547 0.000000
0.221960 0.721960 0.000000
0.223374 0.723374 0.000000
0.224788 0.724788 0.000000
0.226202 0.726202 0.000000
0.227615 0.727615 0.000000
0.229029 0.729029 0.000000
0.230443 0.730443 0.000000
0.231857 0.731857 0.000000
0.233270 0.733270 0.000000
0.234684 0.734684 0.000000
0.236098 0.736098 0.000000
0.237512 0.737512 0.000000
0.238926 0.738926 0.000000
0.240339 0.740339 0.000000
0.241753 0.741753 0.000000
0.243167 0.743167 0.000000
0.244581 0.744581 0.000000
0.245994 0.745994 0.000000
0.247408 0.747408 0.000000
0.248822 0.748822 0.000000
0.250236 0.750236 0.000000
0.251649 0.751649 0.000000
0.253063 0.753063 0.000000
0.254477 0.754477 0.000000
0.255891 0.755891 0.000000
0.257304 0.757304 0.000000
0.258718 0.758718 0.000000
0.260132 0.760132 0.000000
0.261546 0.761546 0.000000
0.262959 0.762959 0.000000
0.264373 0.764373 0.000000
0.265787 0.765787 0.000000
0.267201 0.767201 0.000000
0.268615 0.768615 0.000000
0.270028 0.770028 0.000000
0.271442 0.771442 0.000000
0.272856 0.772856 0.000000
0.274270 0.774270 0.000000
0.275683 0.775683 0.000000
0.277097 0.777097 0.000000
0.278511 0.778511 0.000000
0.279925 0.779925 0.000000
0.281338 0.781338 0.000000
0.282752 0.782752 0.000000
0.284166 0.784166 0.000000
0.285580 0.785580 0.000000
0.286993 0.786993 0.000000
0.288407 0.788407 0.000000
0.289821 0.789821 0.000000
0.291235 0.791235 0.000000
0.292648 0.792648 0.000000
0.294062 0.794062 0.000000
0.295476 0.795476 0.000000
0.296890 0.796890 0.000000
0.298303 0.798303 0.000000
0.299717 0.799717 0.000000
0.301131 0.801131 0.000000
0.302545 0.802545 0.000000
0.303959 0.803959 0.000000
0.305372 0.805372 0.000000
0.306786 0.806786 0.000000
0.308200 0.808200 0.000000
0.309614 0.809614 0.000000
0.311027 0.811027 0.000000
0.312441 0.812441 0.000000
0.313855 0.813855 0.000000
0.315269 0.815269 0.000000
0.316682 0.816682 0.000000
0.318096 0.818096 0.000000
0.319510 0.819510 0.000000
0.320924 0.820924 0.000000
0.322337 0.822337 0.000000
0.323751 0.823751 0.000000
0.325165 0.825165 0.000000
0.326579 0.826579 0.000000
0.327992 0.827992 0.000000
0.329406 0.829406 0.000000
0.330820 0.830820 0.000000
0.332234 0.832234 0.000000
0.333648 0.833648 0.000000
0.335061 0.835061 0.000000
0.336475 0.836475 0.000000
0.337889 0.837889 0.000000
0.339303 0.839303 0.000000
0.340716 0.840716 0.000000
[...]
POINT_DATA 20431
SCALARS UX float 1
LOOKUP_TABLE default
-0.000000
0.000000
0.142031
-0.148146
-0.115856
0.071525
0.143000
-0.000000
-0.000000
0.000000
-0.000000
0.096864
0.126827
0.138489
0.142742
0.144273
0.144707
0.144657
0.144483
0.144279
0.144076
0.143903
0.143753
0.143628
0.143523
0.143435
0.143363
0.143303
0.143253
0.143210
0.143175
0.143146
0.143121
0.143099
0.143082
0.143066
0.143054
0.143043
0.143033
0.143025
0.143019
0.143013
0.143008
0.143004
0.142997
0.142992
0.142985
0.142977
0.142966
0.142952
0.142934
0.142911
0.142881
0.142844
0.142796
0.142737
0.142665
0.142582
0.142481
0.142374
0.142263
0.142149
0.142067
0.083946
0.025885
-0.032144
-0.090149
-0.148143
-0.148144
-0.148170
-0.148244
-0.148373
-0.148535
-0.148710
-0.148849
-0.148880
-0.148770
-0.148511
-0.148064
-0.147395
-0.146530
-0.145481
-0.144278
-0.142941
-0.141496
-0.139984
-0.138428
-0.136858
-0.135291
-0.133765
-0.132261
-0.130826
-0.129461
-0.128159
-0.126942
-0.125802
-0.124742
-0.123762
-0.122854
-0.122022
-0.121259
-0.120562
-0.119926
-0.119346
-0.118820
-0.118343
-0.117910
-0.117519
-0.117166
-0.116846
-0.116558
-0.116299
-0.116066
-0.115635
-0.115328
-0.114902
-0.114311
-0.113477
-0.112312
-0.110612
-0.108177
-0.104580
-0.098973
-0.090304
-0.076598
-0.052363
-0.115815
-0.115773
-0.115730
-0.115686
-0.115642
-0.115596
-0.115550
-0.115503
-0.115455
-0.115406
-0.115357
-0.115307
-0.115256
-0.115204
-0.115151
-0.115098
-0.115044
-0.114989
-0.114933
-0.114877
-0.114820
-0.114763
-0.114705
-0.114646
-0.114586
-0.114526
-0.114464
-0.114403
-0.114340
-0.114277
-0.114214
-0.114150
-0.114085
-0.114020
-0.113954
-0.113887
-0.113820
-0.113752
-0.113684
-0.113615
-0.113546
-0.113475
-0.113405
-0.113334
-0.113262
-0.113190
-0.113117
-0.113044
-0.112970
-0.112896
-0.112821
-0.112746
-0.112670
-0.112593
-0.112516
-0.112439
-0.112361
-0.112283
-0.112204
-0.112125
-0.112045
-0.111965
-0.111884
-0.111803
-0.111722
-0.111640
-0.111558
-0.111475
-0.111392
-0.111308
-0.111224
-0.111140
-0.111055
-0.110969
-0.110884
-0.110797
-0.110710
-0.110623
-0.110535
-0.110447
-0.110358
-0.110269
-0.110179
-0.110089
-0.109999
-0.109908
-0.109817
-0.109725
-0.109633
-0.109541
-0.109448
-0.109355
-0.109261
-0.109167
-0.109072
-0.108977
-0.108881
-0.108786
-0.108689
-0.108593
-0.108495
-0.108398
-0.108300
-0.108202
-0.108103
-0.108004
-0.107904
-0.107804
-0.107703
-0.107602
-0.107501
-0.107399
-0.107297
-0.107194
-0.107091
-0.106988
-0.106884
-0.106779
-0.106675
-0.106569
-0.106464
-0.106358
-0.106251
-0.106144
-0.106037
-0.105929
-0.105821
-0.105713
-0.105604
-0.105495
-0.105385
-0.105275
-0.105165
-0.105054
-0.104942
-0.104831
-0.104719
-0.104606
-0.104493
-0.104380
-0.104266
-0.104152
-0.104038
-0.103923
-0.103808
-0.103692
-0.103576
-0.103460
-0.103343
-0.103225
-0.103108
-0.102990
-0.102871
-0.102753
-0.102633
-0.102514
-0.102394
-0.102273
-0.102153
-0.102032
-0.101910
-0.101788
-0.101666
-0.101543
-0.101420
-0.101297
-0.101173
-0.101049
-0.100925
-0.100800
-0.100675
-0.100549
-0.100423
-0.100297
-0.100170
-0.100043
-0.099916
-0.099788
-0.099660
-0.099532
-0.099403
-0.099274
-0.099145
-0.099015
-0.098885
-0.098755
-0.098624
-0.098493
-0.098362
-0.098230
-0.098098
-0.097966
-0.097833
-0.097700
-0.097567
-0.097433
-0.097299
-0.097165
-0.097030
-0.096895
-0.096760
-0.096624
-0.096488
-0.096352
-0.096215
-0.096078
-0.095941
-0.095803
-0.095665
-0.095527
-0.095389
-0.095250
-0.095111
-0.094971
-0.094831
-0.094691
-0.094551
-0.094410
-0.094269
-0.094128
-0.093986
-0.093844
-0.093702
-0.093560
-0.093417
-0.093274
-0.093130
-0.092987
-0.092843
-0.092698
-0.092554
-0.092409
-0.092264
-0.092118
-0.091972
-0.091826
-0.091680
-0.091533
-0.091386
-0.091239
-0.091092
-0.090944
-0.090796
-0.090647
-0.090499
-0.090350
-0.090201
-0.090051
-0.089901
-0.089751
-0.089601
-0.089450
-0.089300
-0.089148
-0.088997
-0.088845
-0.088693
-0.088541
-0.088388
-0.088236
-0.088083
-0.087929
-0.087776
-0.087622
-0.087467
-0.087313
-0.087158
-0.087003
-0.086848
-0.086693
-0.086537
-0.086381
-0.086225
-0.086068
-0.085911
-0.085754
-0.085597
-0.085439
-0.085281
-0.085123
-0.084965
-0.084806
-0.084647
-0.084488
-0.084329
-0.084169
-0.084009
-0.083849
-0.083688
-0.083528
-0.083367
-0.083206
-0.083044
-0.082882
-0.082721
-0.082558
-0.082396
-0.082233
-0.082070
-0.081907
-0.081744
-0.081580
-0.081416
-0.081252
-0.081088
-0.080923
-0.080758
-0.080593
-0.080428
-0.080263
-0.080097
-0.079931
-0.079765
-0.079598
-0.079431
-0.079265
-0.079097
-0.078930
-0.078762
-0.078595
-0.078427
-0.078258
-0.078090
-0.077921
-0.077752
-0.077583
-0.077414
-0.077244
-0.077074
-0.076904
-0.076734
-0.076564
-0.076393
-0.076222
-0.076051
-0.075879
-0.075708
-0.075536
-0.075364
-0.075192
-0.075019
-0.074847
-0.074674
-0.074501
-0.074327
-0.074154
-0.073980
-0.073806
-0.073632
-0.073458
-0.073283
-0.073109
-0.072934
-0.072758
-0.072583
-0.072407
-0.072232
-0.072056
-0.071879
-0.071703
-0.071526
-0.071350
-0.071173
-0.070995
-0.070818
-0.070640
-0.070463
-0.070285
-0.070106
-0.069928
-0.069749
-0.069570
-0.069391
-0.069212
-0.069033
-0.068853
-0.068673
-0.068493
-0.068313
-0.068133
-0.067952
-0.067772
-0.067591
-0.067410
-0.067228
-0.067047
-0.066865
-0.066683
-0.066501
-0.066319
-0.066136
-0.065954
-0.065771
-0.065588
-0.065405
-0.065221
-0.065038
-0.064854
-0.064670
-0.064486
-0.064302
-0.064117
-0.063932
-0.063747
-0.063562
-0.063377
-0.063192
-0.063006
-0.062821
-0.062635
-0.062449
-0.062262
-0.062076
-0.061889
-0.061702
-0.061515
-0.061328
-0.061141
-0.060953
-0.060766
-0.060578
-0.060390
-0.060202
-0.060013
-0.059825
-0.059636
-0.059447
-0.059258
-0.059069
-0.058880
-0.058690
-0.058500
-0.058311
-0.058121
-0.057930
-0.057740
-0.057550
-0.057359
-0.057168
-0.056977
-0.056786
-0.056595
-0.056403
-0.056212
-0.056020
-0.055828
-0.055636
-0.055444
-0.055251
-0.055059
-0.054866
-0.054673
-0.054480
-0.054287
-0.054094
-0.053900
-0.053707
-0.053513
-0.053319
-0.053125
-0.052931
-0.052737
-0.052542
-0.052348
-0.052153
-0.051958
-0.051763
-0.051568
-0.051372
-0.051177
-0.050981
-0.050786
-0.050590
-0.050394
-0.050198
-0.050001
-0.049805
-0.049609
-0.049412
-0.049215
-0.049018
-0.048821
-0.048624
-0.048426
-0.048229
-0.048031
-0.047834
-0.047636
-0.047438
-0.047240
-0.047041
-0.046843
-0.046645
-0.046446
-0.046247
-0.046048
-0.045849
-0.045650
-0.045451
-0.045252
-0.045052
-0.044852
-0.044653
-0.044453
-0.044253
-0.044053
-0.043853
-0.043652
-0.043452
-0.043251
-0.043051
-0.042850
-0.042649
-0.042448
-0.042247
-0.042045
-0.041844
-0.041643
-0.041441
-0.041239
-0.041038
-0.040836
-0.040634
-0.040432
-0.040229
-0.040027
-0.039825
-0.039622
-0.039419
-0.039217
-0.039014
-0.038811
-0.038608
-0.038405
-0.038201
-0.037998
-0.037795
-0.037591
-0.037387
-0.037184
-0.036980
-0.036776
-0.036572
-0.036368
-0.036163
-0.035959
-0.035755
-0.035550
-0.035346
-0.035141
-0.034936
-0.034731
-0.034526
-0.034321
-0.034116
-0.033911
-0.033706
-0.033500
-0.033295
-0.033089
-0.032884
-0.032678
-0.032472
-0.032266
-0.032060
-0.031854
-0.031648
-0.031442
-0.031236
-0.031029
-0.030823
-0.030616
-0.030410
-0.030203
-0.029996
-0.029789
-0.029583
-0.029376
-0.029169
-0.028961
-0.028754
-0.028547
-0.028340
-0.028132
-0.027925
-0.027717
-0.027510
-0.027302
-0.027094
-0.026887
-0.026679
-0.026471
-0.026263
-0.026055
-0.025847
-0.025638
-0.025430
-0.025222
-0.025014
-0.024805
-0.024597
-0.024388
-0.024179
-0.023971
-0.023762
-0.023553
-0.023345
-0.023136
-0.022927
-0.022718
-0.022509
-0.022300
-0.022090
-0.021881
-0.021672
-0.021463
-0.021253
-0.021044
-0.020835
-0.020625
-0.020415
-0.020206
-0.019996
-0.019787
-0.019577
-0.019367
-0.019157
-0.018947
-0.018737
-0.018528
-0.018318
-0.018107
-0.017897
-0.017687
-0.017477
-0.017267
-0.017057
-0.016846
-0.016636
-0.016426
-0.016215
-0.016005
-0.015794
-0.015584
-0.015373
-0.015163
-0.014952
-0.014742
-0.014531
-0.014320
-0.014109
-0.013899
-0.013688
-0.013477
-0.013266
-0.013055
-0.012844
-0.012633
-0.012422
-0.012211
-0.012000
-0.011789
-0.011578
-0.011367
-0.011156
-0.010945
-0.010733
-0.010522
-0.010311
-0.010100
-0.009888
-0.009677
-0.009466
-0.009254
-0.009043
-0.008832
-0.008620
-0.008409
-0.008197
-0.007986
-0.007774
-0.007563
-0.007351
-0.007140
-0.006928
-0.006717
-0.006505
-0.006294
-0.006082
-0.005870
-0.005659
-0.005447
-0.005235
-0.005024
-0.004812
-0.004600
-0.004388
-0.004177
-0.003965
-0.003753
-0.003541
-0.003330
-0.003118
-0.002906
-0.002694
-0.002482
-0.002271
-0.002059
-0.001847
-0.001635
-0.001423
-0.001211
-0.000999
-0.000788
-0.000576
-0.000364
-0.000152
0.000060
0.000272
0.000484
0.000696
0.000907
0.001119
0.001331
0.001543
0.001755
0.001967
0.002179
0.002391
0.002603
0.002814
0.003026
0.003238
0.003450
0.003662
0.003874
0.004086
0.004298
0.004509
0.004721
0.004933
0.005145
0.005357
0.005569
0.005781
0.005992
0.006204
0.006416
0.006628
0.006840
0.007051
0.007263
0.007475
0.007687
0.007898
0.008110
0.008322
0.008534
0.008745
0.008957
0.009169
0.009380
0.009592
0.009804
0.010015
0.010227
0.010439
0.010650
0.010862
0.011074
0.011285
0.011497
0.011708
0.011920
0.012131
0.012343
0.012554
0.012766
0.012977
0.013188
0.013400
0.013611
0.013823
0.014034
0.014245
0.014457
0.014668
0.014879
0.015091
0.015302
0.015513
0.015724
0.015935
0.016147
0.016358
0.016569
0.016780
0.016991
0.017202
0.017413
0.017624
0.017835
0.018046
0.018257
0.018468
0.018679
0.018890
0.019101
0.019312
0.019523
0.019733
0.019944
0.020155
0.020366
0.020577
0.020787
0.020998
0.021209
0.021419
0.021630
0.021840
0.022051
0.022262
0.022472
0.022683
0.022893
0.023104
0.023314
0.023524
0.023735
0.023945
0.024155
0.024366
0.024576
0.024786
0.024996
0.025207
0.025417
0.025627
0.025837
0.026047
0.026257
0.026467
0.026677
0.026887
0.027097
0.027307
0.027517
0.027727
0.027936
0.028146
0.028356
0.028566
0.028776
0.028985
0.029195
0.029405
0.029614
0.029824
0.030033
0.030243
0.030452
0.030662
0.030871
0.031080
0.031290
0.031499
0.031709
0.031918
0.032127
0.032336
0.032545
0.032755
0.032964
0.033173
0.033382
0.033591
0.033800
0.034009
0.034218
0.034427
0.034636
0.034844
0.035053
0.035262
0.035471
0.035680
0.035888
0.036097
0.036306
0.036514
0.036723
0.036931
0.037140
0.037348
0.037557
0.037765
0.037973
0.038182
0.038390
0.038598
0.038807
0.039015
0.039223
0.039431
0.039639
0.039847
0.040055
0.040263
0.040471
0.040679
0.040887
0.041095
0.041303
0.041511
0.041719
0.041926
0.042134
0.042342
0.042550
0.042757
0.042965
0.043172
0.043380
0.043587
0.043795
0.044002
0.044210
0.044417
0.044624
0.044832
0.045039
0.045246
0.045453
0.045661
0.045868
0.046075
0.046282
0.046489
0.046696
0.046903
0.047110
0.047317
0.047524
0.047731
0.047938
0.048144
0.048351
0.048558
0.048765
0.048971
0.049178
0.049385
0.049591
0.049798
0.050004
0.050211
0.050417
0.050624
0.050830
0.051036
0.051243
0.051449
0.051655
0.051861
0.052068
0.052274
0.052480
0.052686
0.052892
0.053098
0.053304
0.053510
0.053716
0.053922
0.054128
0.054334
0.054540
0.054745
0.054951
0.055157
0.055363
0.055568
0.055774
0.055980
0.056185
0.056391
0.056596
0.056802
0.057007
0.057213
0.057418
0.057623
0.057829
0.058034
0.058239
0.058445
0.058650
0.058855
0.059060
0.059265
0.059470
0.059676
0.059881
0.060086
0.060291
0.060496
0.060701
0.060905
0.061110
0.061315
0.061520
0.061725
0.061930
0.062134
0.062339
0.062544
0.062748
0.062953
0.063158
0.063362
0.063567
0.063771
0.063976
0.064180
0.064385
0.064589
0.064794
0.064998
0.065202
0.065407
0.065611
0.065815
0.066020
0.066224
0.066428
0.066632
0.066836
0.067040
0.067245
0.067449
0.067653
0.067857
0.068061
0.068265
0.068469
0.068673
0.068876
0.069080
0.069284
0.069488
0.069692
0.069896
0.070099
0.070303
0.070507
0.070711
0.070914
0.071118
0.071322
0.071729
0.071932
0.072135
0.072339
0.072542
0.072745
0.072948
0.073152
0.073355
0.073558
0.073761
0.073964
0.074168
0.074371
0.074574
0.074777
0.074980
0.075183
0.075386
0.075589
0.075792
0.075995
0.076198
0.076401
0.076603
0.076806
0.077009
0.077212
0.077415
0.077618
0.077820
0.078023
0.078226
0.078429
0.078631
0.078834
0.079037
0.079239
0.079442
0.079645
0.079847
0.080050
0.080252
0.080455
0.080657
0.080860
0.081062
0.081265
0.081467
0.081670
0.081872
0.082075
0.082277
0.082479
0.082682
0.082884
0.083086
0.083289
0.083491
0.083693
0.083896
0.084098
0.084300
0.084502
0.084704
0.084907
0.085109
0.085311
0.085513
0.085715
0.085917
0.086120
0.086322
0.086524
0.086726
0.086928
0.087130
0.087332
0.087534
0.087736
0.087938
0.088140
0.088342
0.088544
0.088746
0.088948
0.089150
0.089352
0.089553
0.089755
0.089957
0.090159
0.090361
0.090563
0.090765
0.090966
0.091168
0.091370
0.091572
0.091774
0.091975
0.092177
0.092379
0.092581
0.092782
0.092984
0.093186
0.093388
0.093589
0.093791
0.093993
0.094194
0.094396
0.094598
0.094799
0.095001
0.095203
0.095404
0.095606
0.095807
0.096009
0.096211
0.096412
0.096614
0.096815
0.097017
0.097218
0.097420
0.097622
0.097823
0.098025
0.098226
0.098428
0.098629
0.098831
0.099032
0.099234
0.099435
0.099637
0.099838
0.100040
0.100241
0.100443
0.100644
0.100846
0.101047
0.101248
0.101450
0.101651
0.101853
0.102054
0.102256
0.102457
0.102658
0.102860
0.103061
0.103263
0.103464
0.103666
0.103867
0.104068
0.104270
0.104471
0.104673
0.104874
0.105075
0.105277
0.105478
0.105679
0.105881
0.106082
0.106284
0.106485
0.106686
0.106888
0.107089
0.107290
0.107492
0.107693
0.107895
0.108096
0.108297
0.108499
0.108700
0.108901
0.109103
0.109304
0.109506
0.109707
0.109908
0.110110
0.110311
0.110512
0.110714
0.110915
0.111117
0.111318
0.111519
0.111721
0.111922
0.112124
0.112325
0.112526
0.112728
0.112929
0.113131
0.113332
0.113533
0.113735
0.113936
0.114138
0.114339
0.114540
0.114742
0.114943
0.115145
0.115346
0.115548
0.115749
0.115950
0.116152
0.116353
0.116555
0.116756
0.116958
0.117159
0.117361
0.117562
0.117763
0.117965
0.118166
0.118368
0.118569
0.118771
0.118972
0.119174
0.119375
0.119577
0.119778
0.119980
0.120181
0.120383
0.120585
0.120786
0.120988
0.121189
0.121391
0.121592
0.121794
0.121995
0.122197
0.122399
0.122600
0.122802
0.123003
0.123205
0.123407
0.123608
0.123810
0.124011
0.124213
0.124415
0.124616
0.124818
0.125020
0.125221
0.125423
0.125625
0.125826
0.126028
0.126230
0.126432
0.126633
0.126835
0.127037
0.127238
0.127440
0.127642
0.127844
0.128045
0.128247
0.128449
0.128651
0.128853
0.129054
0.129256
0.129458
0.129660
0.129862
0.130064
0.130266
0.130467
0.130669
0.130871
0.131073
0.131275
0.131477
0.131679
0.131881
0.132083
0.132285
0.132486
0.132688
0.132890
0.133092
0.133294
0.133496
0.133698
0.133900
0.134102
0.134304
0.134506
0.134709
0.134911
0.135113
0.135315
0.135517
0.135719
0.135921
0.136123
0.136325
0.136527
0.136729
0.136932
0.137134
0.137336
0.137538
0.137740
0.137943
0.138145
0.138347
0.138549
0.138751
0.138954
0.139156
0.139358
0.139560
0.139763
0.139965
0.140167
0.140370
0.140572
0.140774
0.140977
0.141179
0.141381
0.141584
0.141786
0.141988
0.142191
0.142393
0.142596
0.142798
0.101763
0.101861
0.101550
0.090996
0.091146
0.091288
-0.073553
-0.073446
-0.073758
-0.073888
-0.038726
0.115621
0.115985
0.116061
0.116282
0.097667
0.097342
0.097445
-0.039493
-0.039280
-0.039536
-0.039164
-0.106823
-0.106975
-0.106601
-0.106649
-0.040817
-0.040660
-0.040509
0.039910
0.039589
0.039770
0.039878
-0.066867
-0.068618
-0.080831
-0.083278
0.028205
0.027887
0.028012
0.027983
-0.031123
-0.031790
-0.031220
-0.031249
0.074103
0.073492
0.072869
0.074890
-0.107306
-0.107182
-0.106813
0.034690
0.034651
0.035026
0.035197
0.001735
-0.006584
-0.004593
-0.011490
0.017086
0.017541
0.017720
-0.057070
-0.054385
-0.057185
-0.009422
-0.009215
-0.009722
-0.009496
0.090005
0.091081
0.090973
0.092083
-0.002352
-0.001621
-0.001924
-0.000879
0.030260
0.030581
0.030008
0.030733
0.028196
0.028426
0.028023
0.028614
-0.015341
-0.015393
-0.015672
-0.015837
0.101000
0.100862
0.100485
-0.042442
-0.043035
-0.042624
0.017113
0.100347
0.099974
0.099963
0.100523
0.046235
0.046599
0.046431
-0.000705
-0.000627
-0.000933
0.046573
0.027891
0.026867
0.026500
-0.000382
0.053406
0.053179
0.052694
0.083935
0.084295
0.083877
0.084455
0.051748
0.051952
0.051589
0.052080
0.052568
-0.092224
-0.092642
-0.092427
0.118953
0.118612
0.119177
-0.092827
-0.064438
-0.064710
-0.064972
-0.064187
-0.051920
-0.051679
-0.052531
-0.051941
-0.029049
-0.029672
-0.029223
0.015232
0.015583
0.015138
0.015453
-0.029770
0.046454
0.046719
0.046238
-0.049296
-0.049784
-0.049325
-0.053893
-0.054550
-0.055061
0.046711
0.092497
0.092589
0.092146
-0.082301
-0.082166
-0.081994
0.099082
0.099466
0.099492
0.099150
0.058319
0.057776
0.057995
0.057201
0.001812
-0.001018
0.001887
0.001169
0.043829
0.044996
0.041916
0.046767
-0.077772
-0.077544
-0.078224
-0.077092
0.134610
0.134344
-0.112111
-0.111167
-0.110627
-0.109583
-0.072679
-0.070781
-0.066428
-0.078212
0.139080
0.139184
0.139667
-0.083839
-0.077168
-0.084276
-0.084751
-0.082987
0.096003
0.095932
0.095442
0.037606
0.037411
0.037867
0.037720
0.002737
0.001892
0.002498
-0.108512
-0.108467
-0.109072
-0.108572
0.139270
0.138470
0.139511
0.138218
0.119180
0.119537
0.119915
0.095309
0.057403
0.057002
0.056589
0.056272
-0.012776
-0.012542
-0.012269
-0.012956
-0.023014
-0.024345
-0.028020
0.121671
0.121564
0.120523
0.120947
-0.030817
-0.030041
-0.033775
-0.032184
0.056387
0.056429
0.056061
0.032744
0.033867
0.043298
0.023816
-0.096007
-0.096506
-0.094944
-0.098242
0.128439
0.128739
0.029215
0.029174
0.029384
0.056746
0.003646
0.005132
0.006144
0.006958
-0.052344
-0.052863
-0.052637
-0.052596
-0.050752
-0.058545
-0.056054
-0.051014
-0.011747
-0.011144
-0.012185
-0.012049
-0.063005
-0.061034
-0.059568
-0.058015
0.126576
0.127278
0.127730
0.126543
-0.057911
-0.057821
-0.057639
-0.119971
-0.125073
-0.120153
-0.120659
-0.101943
-0.102231
-0.102281
-0.018802
-0.018875
-0.039426
-0.039482
-0.041967
-0.037174
0.052825
0.049664
0.050098
0.046594
0.007394
0.020299
0.018601
0.016530
0.069187
0.069449
0.067484
0.067486
0.112841
0.110219
0.111095
0.112648
-0.048418
-0.048230
-0.049806
-0.050099
-0.041048
-0.040875
-0.040632
-0.041420
0.077216
0.078429
0.077510
0.078269
0.076094
0.075964
0.077436
-0.009572
-0.009204
-0.009119
-0.009552
0.133402
0.131915
0.133283
0.100425
-0.025379
-0.028184
-0.026766
-0.026593
0.111160
0.111265
0.110608
0.110856
0.021464
0.021858
0.021564
0.022027
0.052841
0.053457
-0.014452
-0.013391
-0.012486
-0.011721
-0.003804
-0.003764
-0.000269
-0.007395
-0.001463
-0.001245
-0.001083
0.124005
0.123580
0.123537
-0.074317
-0.074541
-0.073456
-0.073374
-0.000988
-0.063278
-0.059197
-0.062262
0.113115
0.113642
0.114503
0.115014
0.105777
0.105554
0.105514
0.105159
0.050152
0.049046
0.048760
0.051209
0.043271
0.042900
0.042729
0.043324
0.043048
0.043512
0.055359
0.053721
0.054788
-0.007619
-0.007941
-0.007557
0.031461
0.027242
0.037241
-0.007710
0.071995
0.072827
0.070270
0.061180
0.061648
0.061624
0.061319
0.091569
0.091647
0.091095
-0.063680
-0.056570
0.092040
0.086914
0.086774
0.086541
0.086431
-0.050121
-0.049922
-0.050209
0.111655
0.030070
0.030223
0.029288
0.029138
-0.091166
-0.088257
-0.089322
-0.086911
0.036613
0.036562
0.036240
0.036932
-0.060374
-0.059281
-0.062034
-0.058829
-0.073270
-0.074805
-0.068869
-0.078770
0.078088
0.077912
0.078443
-0.063282
-0.062739
-0.064142
0.040249
0.040153
0.038715
0.037766
0.097633
0.080914
0.080515
0.080903
0.060689
0.062709
0.061012
0.062408
-0.015263
-0.016918
-0.017283
0.080505
0.085413
0.086071
0.085424
0.042985
0.043951
0.044422
0.045392
0.053211
0.049728
-0.030257
-0.031357
-0.029846
-0.032341
-0.083945
-0.087939
-0.087944
-0.081707
-0.063517
-0.064479
0.026304
0.026106
0.027632
0.085776
-0.018560
-0.015182
-0.013864
-0.019442
0.042320
0.046487
0.063493
0.063727
0.063563
-0.062954
-0.062051
-0.061763
0.063949
-0.050669
-0.050581
-0.050343
0.089732
0.089316
0.089560
0.089144
-0.033513
-0.033361
-0.033218
-0.059246
-0.068533
0.016020
0.015930
0.015726
0.095392
0.095314
0.095079
0.094955
0.063781
0.064026
0.064196
0.023173
0.021892
0.021549
0.019699
0.061743
0.061423
0.061559
0.061223
0.053867
0.054025
0.053718
0.085175
0.085458
0.085619
0.061705
0.061299
0.063637
0.085751
-0.076894
-0.076902
-0.076572
0.059690
0.045882
0.044930
0.046327
0.063702
-0.081814
-0.081681
-0.081892
0.032123
0.025176
0.027997
-0.077224
0.080093
0.080108
0.080557
0.114809
0.114970
0.114602
0.114811