# vtk DataFile Version 2.0
Test
ASCII
DATASET POLYDATA
POINTS 20431 float
0.000000 0.000000 0.000000
2.000000 0.000000 0.000000
2.000000 4.000000 0.000000
0.000000 4.000000 0.000000
0.000000 0.500000 0.000000
1.500000 2.000000 0.000000
2.000000 2.500000 0.000000
0.400000 0.000000 0.000000
0.800000 0.000000 0.000000
1.200000 0.000000 0.000000
1.600000 0.000000 0.000000
2.000000 0.362557 0.000000
2.000000 0.672798 0.000000
2.000000 0.938272 0.000000
2.000000 1.165439 0.000000
2.000000 1.359826 0.000000
2.000000 1.526163 0.000000
2.000000 1.668499 0.000000
2.000000 1.790295 0.000000
2.000000 1.894517 0.000000
2.000000 1.983700 0.000000
2.000000 2.060013 0.000000
2.000000 2.125315 0.000000
2.000000 2.181194 0.000000
2.000000 2.229010 0.000000
2.000000 2.269926 0.000000
2.000000 2.304938 0.000000
2.000000 2.334898 0.000000
2.000000 2.360534 0.000000
2.000000 2.382472 0.000000
2.000000 2.401244 0.000000
2.000000 2.417307 0.000000
2.000000 2.431052 0.000000
2.000000 2.442814 0.000000
2.000000 2.452878 0.000000
2.000000 2.461491 0.000000
2.000000 2.468860 0.000000
2.000000 2.475167 0.000000
2.000000 2.480563 0.000000
2.000000 2.485180 0.000000
2.000000 2.489132 0.000000
2.000000 2.492513 0.000000
2.000000 2.495406 0.000000
2.000000 2.497882 0.000000
2.000000 2.502286 0.000000
2.000000 2.505266 0.000000
2.000000 2.509150 0.000000
2.000000 2.514212 0.000000
2.000000 2.520809 0.000000
2.000000 2.529407 0.000000
2.000000 2.540613 0.000000
2.000000 2.555218 0.000000
2.000000 2.574253 0.000000
2.000000 2.599061 0.000000
2.000000 2.631395 0.000000
2.000000 2.673536 0.000000
2.000000 2.728460 0.000000
2.000000 2.800043 0.000000
2.000000 2.893339 0.000000
2.000000 3.014933 0.000000
2.000000 3.173410 0.000000
2.000000 3.379956 0.000000
2.000000 3.649152 0.000000
1.600000 4.000000 0.000000
1.200000 4.000000 0.000000
0.800000 4.000000 0.000000
0.400000 4.000000 0.000000
0.000000 3.624996 0.000000
0.000000 3.289970 0.000000
0.000000 2.990661 0.000000
0.000000 2.723261 0.000000
0.000000 2.484368 0.000000
0.000000 2.270943 0.000000
0.000000 2.080271 0.000000
0.000000 1.909926 0.000000
0.000000 1.757741 0.000000
0.000000 1.621780 0.000000
0.000000 1.500314 0.000000
0.000000 1.391797 0.000000
0.000000 1.294849 0.000000
0.000000 1.208237 0.000000
0.000000 1.130858 0.000000
0.000000 1.061728 0.000000
0.000000 0.999968 0.000000
0.000000 0.944792 0.000000
0.000000 0.895499 0.000000
0.000000 0.851460 0.000000
0.000000 0.812117 0.000000
0.000000 0.776968 0.000000
0.000000 0.745565 0.000000
0.000000 0.717511 0.000000
0.000000 0.692448 0.000000
0.000000 0.670056 0.000000
0.000000 0.650052 0.000000
0.000000 0.632180 0.000000
0.000000 0.616213 0.000000
0.000000 0.601949 0.000000
0.000000 0.589205 0.000000
0.000000 0.577820 0.000000
0.000000 0.567649 0.000000
0.000000 0.558562 0.000000
0.000000 0.550444 0.000000
0.000000 0.543191 0.000000
0.000000 0.536712 0.000000
0.000000 0.530923 0.000000
0.000000 0.525751 0.000000
0.000000 0.521131 0.000000
0.000000 0.517003 0.000000
0.000000 0.513315 0.000000
0.000000 0.510021 0.000000
0.000000 0.507078 0.000000
0.000000 0.504448 0.000000
0.000000 0.502099 0.000000
0.000000 0.497804 0.000000
0.000000 0.494785 0.000000
0.000000 0.490633 0.000000
0.000000 0.484924 0.000000
0.000000 0.477074 0.000000
0.000000 0.466279 0.000000
0.000000 0.451436 0.000000
0.000000 0.431025 0.000000
0.000000 0.402959 0.000000
0.000000 0.364366 0.000000
0.000000 0.311297 0.000000
0.000000 0.238324 0.000000
0.000000 0.137980 0.000000
0.001414 0.501414 0.000000
0.002828 0.502828 0.000000
0.004241 0.504241 0.000000
0.005655 0.505655 0.000000
0.007069 0.507069 0.000000
0.008483 0.508483 0.000000
0.009896 0.509896 0.000000
0.011310 0.511310 0.000000
0.012724 0.512724 0.000000
0.014138 0.514138 0.000000
0.015551 0.515551 0.000000
0.016965 0.516965 0.000000
0.018379 0.518379 0.000000
0.019793 0.519793 0.000000
0.021206 0.521206 0.000000
0.022620 0.522620 0.000000
0.024034 0.524034 0.000000
0.025448 0.525448 0.000000
0.026861 0.526861 0.000000
0.028275 0.528275 0.000000
0.029689 0.529689 0.000000
0.031103 0.531103 0.000000
0.032516 0.532516 0.000000
0.033930 0.533930 0.000000
0.035344 0.535344 0.000000
0.036758 0.536758 0.000000
0.038172 0.538172 0.000000
0.039585 0.539585 0.000000
0.040999 0.540999 0.000000
0.042413 0.542413 0.000000
0.043827 0.543827 0.000000
0.045240 0.545240 0.000000
0.046654 0.546654 0.000000
0.048068 0.548068 0.000000
0.049482 0.549482 0.000000
0.050895 0.550895 0.000000
0.052309 0.552309 0.000000
0.053723 0.553723 0.000000
0.055137 0.555137 0.000000
0.056550 0.556550 0.000000
0.057964 0.557964 0.000000
0.059378 0.559378 0.000000
0.060792 0.560792 0.000000
0.062205 0.562205 0.000000
0.063619 0.563619 0.000000
0.065033 0.565033 0.000000
0.066447 0.566447 0.000000
0.067861 0.567861 0.000000
0.069274 0.569274 0.000000
0.070688 0.570688 0.000000
0.072102 0.572102 0.000000
0.073516 0.573516 0.000000
0.074929 0.574929 0.000000
0.076343 0.576343 0.000000
0.077757 0.577757 0.000000
0.079171 0.579171 0.000000
0.080584 0.580584 0.000000
0.081998 0.581998 0.000000
0.083412 0.583412 0.000000
0.084826 0.584826 0.000000
0.086239 0.586239 0.000000
0.087653 0.587653 0.000000
0.089067 0.589067 0.000000
0.090481 0.590481 0.000000
0.091894 0.591894 0.000000
0.093308 0.593308 0.000000
0.094722 0.594722 0.000000
0.096136 0.596136 0.000000
0.097549 0.597549 0.000000
0.098963 0.598963 0.000000
0.100377 0.600377 0.000000
0.101791 0.601791 0.000000
0.103205 0.603205 0.000000
0.104618 0.604618 0.000000
0.106032 0.606032 0.000000
0.107446 0.607446 0.000000
0.108860 0.608860 0.000000
0.110273 0.610273 0.000000
0.111687 0.611687 0.000000
0.113101 0.613101 0.000000
0.114515 0.614515 0.000000
0.115928 0.615928 0.000000
0.117342 0.617342 0.000000
0.118756 0.618756 0.000000
0.120170 0.620170 0.000000
0.121583 0.621583 0.000000
0.122997 0.622997 0.000000
0.124411 0.624411 0.000000
0.125825 0.625825 0.000000
0.127238 0.627238 0.000000
0.128652 0.628652 0.000000
0.130066 0.630066 0.000000
0.131480 0.631480 0.000000
0.132893 0.632893 0.000000
0.134307 0.634307 0.000000
0.135721 0.635721 0.000000
0.137135 0.637135 0.000000
0.138549 0.638549 0.000000
0.139962 0.639962 0.000000
0.141376 0.641376 0.000000
0.142790 0.642790 0.000000
0.144204 0.644204 0.000000
0.145617 0.645617 0.000000
0.147031 0.647031 0.000000
0.148445 0.648445 0.000000
0.149859 0.649859 0.000000
0.151272 0.651272 0.000000
0.152686 0.652686 0.000000
0.154100 0.654100 0.000000
0.155514 0.655514 0.000000
0.156927 0.656927 0.000000
0.158341 0.658341 0.000000
0.159755 0.659755 0.000000
0.161169 0.661169 0.000000
0.162582 0.662582 0.000000
0.163996 0.663996 0.000000
0.165410 0.665410 0.000000
0.166824 0.666824 0.000000
0.168238 0.668238 0.000000
0.169651 0.669651 0.000000
0.171065 0.671065 0.000000
0.172479 0.672479 0.000000
0.173893 0.673893 0.000000
0.175306 0.675306 0.000000
0.176720 0.676720 0.000000
0.178134 0.678134 0.000000
0.179548 0.679548 0.000000
0.180961 0.680961 0.000000
0.182375 0.682375 0.000000
0.183789 0.683789 0.000000
0.185203 0.685203 0.000000
0.186616 0.686616 0.000000
0.188030 0.688030 0.000000
0.189444 0.689444 0.000000
0.190858 0.690858 0.000000
0.192271 0.692271 0.000000
0.193685 0.693685 0.000000
0.195099 0.695099 0.000000
0.196513 0.696513 0.000000
0.197926 0.697926 0.000000
0.199340 0.699340 0.000000
0.200754 0.700754 0.000000
0.202168 0.702168 0.000000
0.203582 0.703582 0.000000
0.204995 0.704995 0.000000
0.206409 0.706409 0.000000
0.207823 0.707823 0.000000
0.209237 0.709237 0.000000
0.210650 0.710650 0.000000
0.212064 0.712064 0.000000
0.213478 0.713478 0.000000
0.214892 0.714892 0.000000
0.216305 0.716305 0.000000
0.217719 0.717719 0.000000
0.219133 0.719133 0.000000
0.220547 0.720547 0.000000
0.221960 0.721960 0.000000
0.223374 0.723374 0.000000
0.224788 0.724788 0.000000
0.226202 0.726202 0.000000
0.227615 0.727615 0.000000
0.229029 0.729029 0.000000
0.230443 0.730443 0.000000
0.231857 0.731857 0.000000
0.233270 0.733270 0.000000
0.234684 0.734684 0.000000
0.236098 0.736098 0.000000
0.237512 0.737512 0.000000
0.238926 0.738926 0.000000
0.240339 0.740339 0.000000
0.241753 0.741753 0.000000
0.243167 0.743167 0.000000
0.244581 0.744581 0.000000
0.245994 0.745994 0.000000
0.247408 0.747408 0.000000
0.248822 0.748822 0.000000
0.250236 0.750236 0.000000
0.251649 0.751649 0.000000
0.253063 0.753063 0.000000
0.254477 0.754477 0.000000
0.255891 0.755891 0.000000
0.257304 0.757304 0.000000
0.258718 0.758718 0.000000
0.260132 0.760132 0.000000
0.261546 0.761546 0.000000
0.262959 0.762959 0.000000
0.264373 0.764373 0.000000
0.265787 0.765787 0.000000
0.267201 0.767201 0.000000
0.268615 0.768615 0.000000
0.270028 0.770028 0.000000
0.271442 0.771442 0.000000
0.272856 0.772856 0.000000
0.274270 0.774270 0.000000
0.275683 0.775683 0.000000
0.277097 0.777097 0.000000
0.278511 0.778511 0.000000
0.279925 0.779925 0.000000
0.281338 0.781338 0.000000
0.282752 0.782752 0.000000
0.284166 0.784166 0.000000
0.285580 0.785580 0.000000
0.286993 0.786993 0.000000
0.288407 0.788407 0.000000
0.289821 0.789821 0.000000
0.291235 0.791235 0.000000
0.292648 0.792648 0.000000
0.294062 0.794062 0.000000
0.295476 0.795476 0.000000
0.296890 0.796890 0.000000
0.298303 0.798303 0.000000
0.299717 0.799717 0.000000
0.301131 0.801131 0.000000
0.302545 0.802545 0.000000
0.303959 0.803959 0.000000
0.305372 0.805372 0.000000
0.306786 0.806786 0.000000
0.308200 0.808200 0.000000
0.309614 0.809614 0.000000
0.311027 0.811027 0.000000
0.312441 0.812441 0.000000
0.313855 0.813855 0.000000
0.315269 0.815269 0.000000
0.316682 0.816682 0.000000
0.318096 0.818096 0.000000
0.319510 0.819510 0.000000
0.320924 0.820924 0.000000
0.322337 0.822337 0.000000
0.323751 0.823751 0.000000
0.325165 0.825165 0.000000
0.326579 0.826579 0.000000
0.327992 0.827992 0.000000
0.329406 0.829406 0.000000
0.330820 0.830820 0.000000
0.332234 0.832234 0.000000
0.333648 0.833648 0.000000
0.335061 0.835061 0.000000
0.336475 0.836475 0.000000
0.337889 0.837889 0.000000
0.339303 0.839303 0.000000
0.340716 0.840716 0.000000
[...]
POINT_DATA 20431
SCALARS UX float 1
LOOKUP_TABLE default
-0.000000
0.000000
0.107986
-0.112636
-0.088085
0.054381
0.108723
-0.000000
-0.000000
0.000000
-0.000000
0.073645
0.096426
0.105293
0.108527
0.109690
0.110021
0.109983
0.109850
0.109695
0.109541
0.109409
0.109296
0.109200
0.109120
0.109054
0.108999
0.108953
0.108915
0.108883
0.108856
0.108834
0.108815
0.108798
0.108785
0.108773
0.108764
0.108755
0.108748
0.108742
0.108737
0.108733
0.108729
0.108726
0.108720
0.108716
0.108712
0.108705
0.108697
0.108686
0.108673
0.108655
0.108633
0.108604
0.108568
0.108523
0.108468
0.108405
0.108328
0.108247
0.108162
0.108076
0.108014
0.063824
0.019681
-0.024439
-0.068540
-0.112633
-0.112634
-0.112654
-0.112710
-0.112808
-0.112931
-0.113064
-0.113170
-0.113194
-0.113110
-0.112913
-0.112573
-0.112065
-0.111407
-0.110609
-0.109695
-0.108678
-0.107579
-0.106430
-0.105247
-0.104053
-0.102861
-0.101702
-0.100558
-0.099467
-0.098429
-0.097439
-0.096514
-0.095647
-0.094841
-0.094096
-0.093406
-0.092773
-0.092193
-0.091663
-0.091180
-0.090739
-0.090339
-0.089976
-0.089647
-0.089350
-0.089081
-0.088838
-0.088619
-0.088422
-0.088245
-0.087917
-0.087684
-0.087360
-0.086910
-0.086277
-0.085390
-0.084098
-0.082247
-0.079512
-0.075249
-0.068658
-0.058237
-0.039811
-0.088054
-0.088022
-0.087989
-0.087956
-0.087922
-0.087888
-0.087853
-0.087817
-0.087780
-0.087743
-0.087706
-0.087668
-0.087629
-0.087589
-0.087549
-0.087509
-0.087468
-0.087426
-0.087384
-0.087341
-0.087298
-0.087254
-0.087210
-0.087165
-0.087120
-0.087074
-0.087027
-0.086980
-0.086933
-0.086885
-0.086837
-0.086788
-0.086739
-0.086689
-0.086639
-0.086588
-0.086537
-0.086486
-0.086434
-0.086381
-0.086329
-0.086275
-0.086222
-0.086168
-0.086113
-0.086058
-0.086003
-0.085947
-0.085891
-0.085835
-0.085778
-0.085720
-0.085663
-0.085604
-0.085546
-0.085487
-0.085428
-0.085368
-0.085308
-0.085248
-0.085188
-0.085127
-0.085066
-0.085004
-0.084942
-0.084880
-0.084818
-0.084755
-0.084691
-0.084628
-0.084564
-0.084500
-0.084435
-0.084370
-0.084305
-0.084239
-0.084173
-0.084106
-0.084040
-0.083973
-0.083905
-0.083837
-0.083769
-0.083701
-0.083632
-0.083563
-0.083494
-0.083424
-0.083354
-0.083284
-0.083213
-0.083142
-0.083071
-0.082999
-0.082927
-0.082855
-0.082783
-0.082710
-0.082636
-0.082563
-0.082489
-0.082415
-0.082340
-0.082266
-0.082191
-0.082115
-0.082039
-0.081963
-0.081887
-0.081810
-0.081733
-0.081656
-0.081578
-0.081500
-0.081422
-0.081343
-0.081264
-0.081184
-0.081105
-0.081025
-0.080944
-0.080864
-0.080783
-0.080701
-0.080620
-0.080538
-0.080456
-0.080373
-0.080291
-0.080208
-0.080124
-0.080041
-0.079957
-0.079872
-0.079788
-0.079703
-0.079618
-0.079532
-0.079446
-0.079360
-0.079274
-0.079187
-0.079100
-0.079013
-0.078925
-0.078837
-0.078749
-0.078660
-0.078571
-0.078482
-0.078393
-0.078303
-0.078213
-0.078123
-0.078032
-0.077941
-0.077850
-0.077758
-0.077667
-0.077575
-0.077482
-0.077389
-0.077297
-0.077203
-0.077110
-0.077016
-0.076922
-0.076828
-0.076733
-0.076638
-0.076543
-0.076447
-0.076352
-0.076256
-0.076159
-0.076063
-0.075966
-0.075869
-0.075772
-0.075674
-0.075576
-0.075478
-0.075380
-0.075281
-0.075182
-0.075083
-0.074984
-0.074884
-0.074784
-0.074684
-0.074584
-0.074483
-0.074382
-0.074281
-0.074180
-0.074078
-0.073976
-0.073874
-0.073772
-0.073669
-0.073566
-0.073463
-0.073360
-0.073256
-0.073152
-0.073048
-0.072944
-0.072839
-0.072734
-0.072629
-0.072524
-0.072418
-0.072313
-0.072207
-0.072100
-0.071994
-0.071887
-0.071780
-0.071673
-0.071565
-0.071458
-0.071350
-0.071242
-0.071133
-0.071025
-0.070916
-0.070807
-0.070698
-0.070588
-0.070478
-0.070369
-0.070258
-0.070148
-0.070037
-0.069926
-0.069815
-0.069704
-0.069593
-0.069481
-0.069369
-0.069257
-0.069144
-0.069032
-0.068919
-0.068806
-0.068693
-0.068580
-0.068466
-0.068352
-0.068238
-0.068124
-0.068009
-0.067894
-0.067779
-0.067664
-0.067549
-0.067433
-0.067318
-0.067202
-0.067086
-0.066969
-0.066852
-0.066736
-0.066619
-0.066502
-0.066384
-0.066266
-0.066149
-0.066031
-0.065912
-0.065794
-0.065675
-0.065556
-0.065437
-0.065318
-0.065199
-0.065079
-0.064959
-0.064839
-0.064719
-0.064599
-0.064478
-0.064357
-0.064236
-0.064115
-0.063994
-0.063872
-0.063750
-0.063628
-0.063506
-0.063384
-0.063261
-0.063138
-0.063016
-0.062892
-0.062769
-0.062646
-0.062522
-0.062398
-0.062274
-0.062150
-0.062025
-0.061901
-0.061776
-0.061651
-0.061526
-0.061401
-0.061275
-0.061149
-0.061024
-0.060898
-0.060771
-0.060645
-0.060518
-0.060392
-0.060265
-0.060138
-0.060010
-0.059883
-0.059755
-0.059628
-0.059500
-0.059372
-0.059243
-0.059115
-0.058986
-0.058858
-0.058729
-0.058600
-0.058470
-0.058341
-0.058211
-0.058081
-0.057951
-0.057821
-0.057691
-0.057561
-0.057430
-0.057299
-0.057168
-0.057037
-0.056906
-0.056774
-0.056643
-0.056511
-0.056379
-0.056247
-0.056115
-0.055982
-0.055850
-0.055717
-0.055584
-0.055451
-0.055318
-0.055185
-0.055051
-0.054918
-0.054784
-0.054650
-0.054516
-0.054382
-0.054247
-0.054113
-0.053978
-0.053843
-0.053708
-0.053573
-0.053437
-0.053302
-0.053166
-0.053030
-0.052894
-0.052758
-0.052622
-0.052486
-0.052349
-0.052212
-0.052076
-0.051939
-0.051801
-0.051664
-0.051527
-0.051389
-0.051251
-0.051114
-0.050976
-0.050837
-0.050699
-0.050561
-0.050422
-0.050283
-0.050145
-0.050006
-0.049866
-0.049727
-0.049588
-0.049448
-0.049308
-0.049169
-0.049029
-0.048888
-0.048748
-0.048608
-0.048467
-0.048327
-0.048186
-0.048045
-0.047904
-0.047762
-0.047621
-0.047480
-0.047338
-0.047196
-0.047054
-0.046912
-0.046770
-0.046628
-0.046485
-0.046343
-0.046200
-0.046057
-0.045914
-0.045771
-0.045628
-0.045485
-0.045341
-0.045198
-0.045054
-0.044910
-0.044766
-0.044622
-0.044478
-0.044334
-0.044189
-0.044044
-0.043900
-0.043755
-0.043610
-0.043465
-0.043320
-0.043174
-0.043029
-0.042883
-0.042738
-0.042592
-0.042446
-0.042300
-0.042154
-0.042008
-0.041861
-0.041715
-0.041568
-0.041421
-0.041274
-0.041127
-0.040980
-0.040833
-0.040686
-0.040539
-0.040391
-0.040243
-0.040096
-0.039948
-0.039800
-0.039652
-0.039504
-0.039355
-0.039207
-0.039058
-0.038910
-0.038761
-0.038612
-0.038463
-0.038314
-0.038165
-0.038016
-0.037867
-0.037717
-0.037568
-0.037418
-0.037268
-0.037119
-0.036969
-0.036819
-0.036669
-0.036518
-0.036368
-0.036217
-0.036067
-0.035916
-0.035766
-0.035615
-0.035464
-0.035313
-0.035162
-0.035011
-0.034859
-0.034708
-0.034556
-0.034405
-0.034253
-0.034101
-0.033949
-0.033798
-0.033645
-0.033493
-0.033341
-0.033189
-0.033036
-0.032884
-0.032731
-0.032579
-0.032426
-0.032273
-0.032120
-0.031967
-0.031814
-0.031661
-0.031508
-0.031354
-0.031201
-0.031047
-0.030894
-0.030740
-0.030586
-0.030433
-0.030279
-0.030125
-0.029971
-0.029816
-0.029662
-0.029508
-0.029353
-0.029199
-0.029044
-0.028890
-0.028735
-0.028580
-0.028426
-0.028271
-0.028116
-0.027961
-0.027806
-0.027650
-0.027495
-0.027340
-0.027184
-0.027029
-0.026873
-0.026718
-0.026562
-0.026406
-0.026250
-0.026094
-0.025939
-0.025782
-0.025626
-0.025470
-0.025314
-0.025158
-0.025001
-0.024845
-0.024689
-0.024532
-0.024375
-0.024219
-0.024062
-0.023905
-0.023748
-0.023591
-0.023435
-0.023278
-0.023120
-0.022963
-0.022806
-0.022649
-0.022492
-0.022334
-0.022177
-0.022019
-0.021862
-0.021704
-0.021547
-0.021389
-0.021231
-0.021073
-0.020916
-0.020758
-0.020600
-0.020442
-0.020284
-0.020126
-0.019968
-0.019809
-0.019651
-0.019493
-0.019335
-0.019176
-0.019018
-0.018859
-0.018701
-0.018542
-0.018384
-0.018225
-0.018066
-0.017908
-0.017749
-0.017590
-0.017431
-0.017272
-0.017113
-0.016954
-0.016795
-0.016636
-0.016477
-0.016318
-0.016159
-0.016000
-0.015840
-0.015681
-0.015522
-0.015363
-0.015203
-0.015044
-0.014884
-0.014725
-0.014565
-0.014406
-0.014246
-0.014086
-0.013927
-0.013767
-0.013607
-0.013448
-0.013288
-0.013128
-0.012968
-0.012808
-0.012648
-0.012488
-0.012329
-0.012169
-0.012009
-0.011848
-0.011688
-0.011528
-0.011368
-0.011208
-0.011048
-0.010888
-0.010727
-0.010567
-0.010407
-0.010247
-0.010086
-0.009926
-0.009766
-0.009605
-0.009445
-0.009284
-0.009124
-0.008963
-0.008803
-0.008642
-0.008482
-0.008321
-0.008161
-0.008000
-0.007839
-0.007679
-0.007518
-0.007358
-0.007197
-0.007036
-0.006875
-0.006715
-0.006554
-0.006393
-0.006232
-0.006072
-0.005911
-0.005750
-0.005589
-0.005428
-0.005268
-0.005107
-0.004946
-0.004785
-0.004624
-0.004463
-0.004302
-0.004141
-0.003980
-0.003819
-0.003658
-0.003497
-0.003336
-0.003176
-0.003015
-0.002854
-0.002692
-0.002531
-0.002370
-0.002209
-0.002048
-0.001887
-0.001726
-0.001565
-0.001404
-0.001243
-0.001082
-0.000921
-0.000760
-0.000599
-0.000438
-0.000277
-0.000116
0.000046
0.000207
0.000368
0.000529
0.000690
0.000851
0.001012
0.001173
0.001334
0.001495
0.001657
0.001818
0.001979
0.002140
0.002301
0.002462
0.002623
0.002784
0.002945
0.003106
0.003267
0.003429
0.003590
0.003751
0.003912
0.004073
0.004234
0.004395
0.004556
0.004717
0.004878
0.005039
0.005200
0.005361
0.005522
0.005683
0.005844
0.006005
0.006166
0.006327
0.006488
0.006649
0.006810
0.006971
0.007132
0.007293
0.007454
0.007615
0.007776
0.007937
0.008097
0.008258
0.008419
0.008580
0.008741
0.008902
0.009063
0.009223
0.009384
0.009545
0.009706
0.009866
0.010027
0.010188
0.010349
0.010509
0.010670
0.010831
0.010991
0.011152
0.011313
0.011473
0.011634
0.011795
0.011955
0.012116
0.012276
0.012437
0.012597
0.012758
0.012918
0.013079
0.013239
0.013400
0.013560
0.013721
0.013881
0.014041
0.014202
0.014362
0.014522
0.014683
0.014843
0.015003
0.015164
0.015324
0.015484
0.015644
0.015805
0.015965
0.016125
0.016285
0.016445
0.016605
0.016765
0.016925
0.017086
0.017246
0.017406
0.017566
0.017726
0.017886
0.018045
0.018205
0.018365
0.018525
0.018685
0.018845
0.019005
0.019165
0.019324
0.019484
0.019644
0.019804
0.019963
0.020123
0.020283
0.020442
0.020602
0.020761
0.020921
0.021081
0.021240
0.021400
0.021559
0.021719
0.021878
0.022037
0.022197
0.022356
0.022516
0.022675
0.022834
0.022994
0.023153
0.023312
0.023471
0.023630
0.023790
0.023949
0.024108
0.024267
0.024426
0.024585
0.024744
0.024903
0.025062
0.025221
0.025380
0.025539
0.025698
0.025857
0.026016
0.026175
0.026333
0.026492
0.026651
0.026810
0.026968
0.027127
0.027286
0.027444
0.027603
0.027762
0.027920
0.028079
0.028237
0.028396
0.028554
0.028713
0.028871
0.029030
0.029188
0.029346
0.029505
0.029663
0.029821
0.029979
0.030138
0.030296
0.030454
0.030612
0.030770
0.030929
0.031087
0.031245
0.031403
0.031561
0.031719
0.031877
0.032035
0.032192
0.032350
0.032508
0.032666
0.032824
0.032982
0.033139
0.033297
0.033455
0.033613
0.033770
0.033928
0.034086
0.034243
0.034401
0.034558
0.034716
0.034873
0.035031
0.035188
0.035346
0.035503
0.035660
0.035818
0.035975
0.036132
0.036290
0.036447
0.036604
0.036761
0.036919
0.037076
0.037233
0.037390
0.037547
0.037704
0.037861
0.038018
0.038175
0.038332
0.038489
0.038646
0.038803
0.038960
0.039117
0.039273
0.039430
0.039587
0.039744
0.039900
0.040057
0.040214
0.040370
0.040527
0.040684
0.040840
0.040997
0.041153
0.041310
0.041466
0.041623
0.041779
0.041936
0.042092
0.042249
0.042405
0.042561
0.042718
0.042874
0.043030
0.043186
0.043343
0.043499
0.043655
0.043811
0.043967
0.044123
0.044279
0.044435
0.044591
0.044747
0.044903
0.045059
0.045215
0.045371
0.045527
0.045683
0.045839
0.045995
0.046151
0.046306
0.046462
0.046618
0.046774
0.046929
0.047085
0.047241
0.047396
0.047552
0.047708
0.047863
0.048019
0.048174
0.048330
0.048485
0.048641
0.048796
0.048952
0.049107
0.049263
0.049418
0.049573
0.049729
0.049884
0.050039
0.050195
0.050350
0.050505
0.050660
0.050816
0.050971
0.051126
0.051281
0.051436
0.051591
0.051747
0.051902
0.052057
0.052212
0.052367
0.052522
0.052677
0.052832
0.052987
0.053142
0.053297
0.053451
0.053606
0.053761
0.053916
0.054071
0.054226
0.054535
0.054690
0.054844
0.054999
0.055154
0.055308
0.055463
0.055617
0.055772
0.055926
0.056081
0.056235
0.056390
0.056544
0.056698
0.056853
0.057007
0.057162
0.057316
0.057470
0.057624
0.057779
0.057933
0.058087
0.058242
0.058396
0.058550
0.058704
0.058858
0.059013
0.059167
0.059321
0.059475
0.059629
0.059783
0.059937
0.060092
0.060246
0.060400
0.060554
0.060708
0.060862
0.061016
0.061170
0.061324
0.061478
0.061632
0.061786
0.061940
0.062093
0.062247
0.062401
0.062555
0.062709
0.062863
0.063017
0.063171
0.063324
0.063478
0.063632
0.063786
0.063940
0.064093
0.064247
0.064401
0.064554
0.064708
0.064862
0.065016
0.065169
0.065323
0.065477
0.065630
0.065784
0.065938
0.066091
0.066245
0.066398
0.066552
0.066706
0.066859
0.067013
0.067166
0.067320
0.067473
0.067627
0.067780
0.067934
0.068087
0.068241
0.068394
0.068548
0.068701
0.068855
0.069008
0.069162
0.069315
0.069469
0.069622
0.069775
0.069929
0.070082
0.070236
0.070389
0.070542
0.070696
0.070849
0.071003
0.071156
0.071309
0.071463
0.071616
0.071769
0.071923
0.072076
0.072229
0.072382
0.072536
0.072689
0.072842
0.072996
0.073149
0.073302
0.073455
0.073609
0.073762
0.073915
0.074068
0.074222
0.074375
0.074528
0.074681
0.074835
0.074988
0.075141
0.075294
0.075447
0.075601
0.075754
0.075907
0.076060
0.076213
0.076366
0.076520
0.076673
0.076826
0.076979
0.077132
0.077285
0.077439
0.077592
0.077745
0.077898
0.078051
0.078204
0.078357
0.078511
0.078664
0.078817
0.078970
0.079123
0.079276
0.079429
0.079582
0.079736
0.079889
0.080042
0.080195
0.080348
0.080501
0.080654
0.080807
0.080961
0.081114
0.081267
0.081420
0.081573
0.081726
0.081879
0.082032
0.082185
0.082338
0.082492
0.082645
0.082798
0.082951
0.083104
0.083257
0.083410
0.083563
0.083716
0.083870
0.084023
0.084176
0.084329
0.084482
0.084635
0.084788
0.084941
0.085094
0.085248
0.085401
0.085554
0.085707
0.085860
0.086013
0.086166
0.086319
0.086472
0.086626
0.086779
0.086932
0.087085
0.087238
0.087391
0.087544
0.087698
0.087851
0.088004
0.088157
0.088310
0.088463
0.088617
0.088770
0.088923
0.089076
0.089229
0.089382
0.089536
0.089689
0.089842
0.089995
0.090148
0.090301
0.090455
0.090608
0.090761
0.090914
0.091067
0.091221
0.091374
0.091527
0.091680
0.091834
0.091987
0.092140
0.092293
0.092447
0.092600
0.092753
0.092906
0.093060
0.093213
0.093366
0.093519
0.093673
0.093826
0.093979
0.094133
0.094286
0.094439
0.094592
0.094746
0.094899
0.095052
0.095206
0.095359
0.095512
0.095666
0.095819
0.095972
0.096126
0.096279
0.096433
0.096586
0.096739
0.096893
0.097046
0.097200
0.097353
0.097506
0.097660
0.097813
0.097967
0.098120
0.098274
0.098427
0.098580
0.098734
0.098887
0.099041
0.099194
0.099348
0.099501
0.099655
0.099808
0.099962
0.100115
0.100269
0.100422
0.100576
0.100729
0.100883
0.101037
0.101190
0.101344
0.101497
0.101651
0.101804
0.101958
0.102112
0.102265
0.102419
0.102572
0.102726
0.102880
0.103033
0.103187
0.103341
0.103494
0.103648
0.103802
0.103955
0.104109
0.104263
0.104416
0.104570
0.104724
0.104878
0.105031
0.105185
0.105339
0.105493
0.105646
0.105800
0.105954
0.106108
0.106262
0.106415
0.106569
0.106723
0.106877
0.107031
0.107184
0.107338
0.107492
0.107646
0.107800
0.107954
0.108108
0.108261
0.108415
0.108569
0.077370
0.077445
0.077208
0.069184
0.069298
0.069407
-0.055923
-0.055841
-0.056078
-0.056177
-0.029443
0.087906
0.088183
0.088242
0.088409
0.074256
0.074009
0.074087
-0.030026
-0.029865
-0.030059
-0.029777
-0.081218
-0.081333
-0.081049
-0.081085
-0.031033
-0.030914
-0.030799
0.030344
0.030100
0.030237
0.030319
-0.050839
-0.052170
-0.061456
-0.063316
0.021445
0.021202
0.021297
0.021275
-0.023663
-0.024170
-0.023737
-0.023759
0.056340
0.055876
0.055402
0.056938
-0.081585
-0.081490
-0.081210
0.026374
0.026345
0.026630
0.026760
0.001319
-0.005006
-0.003492
-0.008736
0.012990
0.013336
0.013472
-0.043391
-0.041349
-0.043478
-0.007163
-0.007006
-0.007391
-0.007220
0.068430
0.069249
0.069167
0.070011
-0.001789
-0.001232
-0.001463
-0.000668
0.023006
0.023251
0.022815
0.023366
0.021438
0.021612
0.021306
0.021755
-0.011664
-0.011703
-0.011916
-0.012041
0.076790
0.076685
0.076399
-0.032269
-0.032720
-0.032407
0.013011
0.076294
0.076010
0.076002
0.076427
0.035152
0.035429
0.035302
-0.000536
-0.000477
-0.000710
0.035410
0.021206
0.020427
0.020148
-0.000290
0.040605
0.040432
0.040064
0.063815
0.064089
0.063772
0.064211
0.039344
0.039499
0.039223
0.039597
0.039967
-0.070118
-0.070436
-0.070272
0.090440
0.090181
0.090610
-0.070576
-0.048992
-0.049199
-0.049398
-0.048801
-0.039474
-0.039292
-0.039939
-0.039491
-0.022086
-0.022559
-0.022218
0.011581
0.011848
0.011509
0.011749
-0.022634
0.035319
0.035520
0.035155
-0.037479
-0.037850
-0.037502
-0.040975
-0.041475
-0.041863
0.035514
0.070326
0.070395
0.070058
-0.062574
-0.062471
-0.062340
0.075332
0.075624
0.075644
0.075384
0.044340
0.043927
0.044093
0.043490
0.001378
-0.000774
0.001435
0.000889
0.033324
0.034210
0.031869
0.035557
-0.059130
-0.058956
-0.059474
-0.058613
0.102344
0.102142
-0.085238
-0.084520
-0.084109
-0.083316
-0.055258
-0.053815
-0.050505
-0.059464
0.105743
0.105822
0.106189
-0.063743
-0.058671
-0.064075
-0.064436
-0.063095
0.072991
0.072937
0.072565
0.028592
0.028444
0.028790
0.028679
0.002081
0.001439
0.001899
-0.082501
-0.082468
-0.082927
-0.082547
0.105887
0.105279
0.106070
0.105087
0.090613
0.090884
0.091171
0.072463
0.043644
0.043338
0.043024
0.042784
-0.009713
-0.009536
-0.009328
-0.009850
-0.017498
-0.018510
-0.021303
0.092506
0.092425
0.091633
0.091956
-0.023430
-0.022840
-0.025679
-0.024470
0.042871
0.042903
0.042623
0.024895
0.025749
0.032919
0.018107
-0.072994
-0.073374
-0.072186
-0.074693
0.097652
0.097880
0.022212
0.022181
0.022341
0.043144
0.002772
0.003902
0.004671
0.005290
-0.039797
-0.040192
-0.040020
-0.039989
-0.038587
-0.044512
-0.042618
-0.038786
-0.008931
-0.008473
-0.009264
-0.009161
-0.047903
-0.046404
-0.045290
-0.044109
0.096236
0.096770
0.097113
0.096211
-0.044029
-0.043962
-0.043823
-0.091214
-0.095093
-0.091352
-0.091737
-0.077508
-0.077726
-0.077765
-0.014295
-0.014351
-0.029975
-0.030018
-0.031908
-0.028263
0.040163
0.037760
0.038089
0.035425
0.005621
0.015434
0.014142
0.012568
0.052603
0.052802
0.051308
0.051310
0.085793
0.083800
0.084466
0.085646
-0.036812
-0.036669
-0.037867
-0.038090
-0.031209
-0.031077
-0.030892
-0.031492
0.058707
0.059630
0.058931
0.059508
0.057855
0.057755
0.058874
-0.007278
-0.006998
-0.006933
-0.007263
0.101426
0.100295
0.101335
0.076353
-0.019296
-0.021429
-0.020350
-0.020218
0.084515
0.084595
0.084095
0.084283
0.016319
0.016619
0.016395
0.016747
0.040175
0.040643
-0.010988
-0.010181
-0.009493
-0.008912
-0.002892
-0.002862
-0.000204
-0.005622
-0.001112
-0.000946
-0.000824
0.094281
0.093958
0.093925
-0.056503
-0.056674
-0.055849
-0.055786
-0.000751
-0.048110
-0.045007
-0.047338
0.086002
0.086402
0.087057
0.087445
0.080422
0.080253
0.080222
0.079952
0.038131
0.037290
0.037073
0.038934
0.032899
0.032617
0.032487
0.032939
0.032729
0.033082
0.042089
0.040844
0.041655
-0.005793
-0.006038
-0.005745
0.023920
0.020712
0.028315
-0.005862
0.054738
0.055370
0.053427
0.046515
0.046871
0.046853
0.046621
0.069620
0.069679
0.069259
-0.048416
-0.043010
0.069978
0.066081
0.065974
0.065797
0.065713
-0.038107
-0.037956
-0.038174
0.084891
0.022862
0.022979
0.022268
0.022153
-0.069313
-0.067102
-0.067911
-0.066079
0.027837
0.027798
0.027553
0.028079
-0.045903
-0.045072
-0.047165
-0.044727
-0.055707
-0.056875
-0.052361
-0.059889
0.059370
0.059237
0.059640
-0.048114
-0.047700
-0.048767
0.030601
0.030528
0.029435
0.028714
0.074231
0.061519
0.061216
0.061510
0.046142
0.047678
0.046387
0.047449
-0.011604
-0.012863
-0.013141
0.061208
0.064939
0.065440
0.064948
0.032681
0.033416
0.033774
0.034512
0.040456
0.037808
-0.023005
-0.023841
-0.022692
-0.024589
-0.063823
-0.066860
-0.066864
-0.062121
-0.048292
-0.049023
0.019999
0.019848
0.021009
0.065215
-0.014111
-0.011543
-0.010541
-0.014782
0.032176
0.035344
0.048274
0.048451
0.048327
-0.047864
-0.047177
-0.046958
0.048621
-0.038524
-0.038457
-0.038276
0.068223
0.067907
0.068092
0.067776
-0.025480
-0.025365
-0.025256
-0.045045
-0.052106
0.012180
0.012111
0.011957
0.072526
0.072467
0.072289
0.072195
0.048493
0.048679
0.048808
0.017618
0.016644
0.016384
0.014977
0.046943
0.046700
0.046803
0.046548
0.040955
0.041075
0.040842
0.064758
0.064974
0.065096
0.046914
0.046606
0.048383
0.065196
-0.058463
-0.058468
-0.058217
0.045382
0.034884
0.034160
0.035222
0.048433
-0.062203
-0.062102
-0.062263
0.024423
0.019141
0.021286
-0.058713
0.060894
0.060906
0.061247
0.087290
0.087412
0.087132
0.087291