# vtk DataFile Version 2.0
Test
ASCII
DATASET POLYDATA
POINTS 20431 float
0.000000 0.000000 0.000000
2.000000 0.000000 0.000000
2.000000 4.000000 0.000000
0.000000 4.000000 0.000000
0.000000 0.500000 0.000000
1.500000 2.000000 0.000000
2.000000 2.500000 0.000000
0.400000 0.000000 0.000000
0.800000 0.000000 0.000000
1.200000 0.000000 0.000000
1.600000 0.000000 0.000000
2.000000 0.362557 0.000000
2.000000 0.672798 0.000000
2.000000 0.938272 0.000000
2.000000 1.165439 0.000000
2.000000 1.359826 0.000000
2.000000 1.526163 0.000000
2.000000 1.668499 0.000000
2.000000 1.790295 0.000000
2.000000 1.894517 0.000000
2.000000 1.983700 0.000000
2.000000 2.060013 0.000000
2.000000 2.125315 0.000000
2.000000 2.181194 0.000000
2.000000 2.229010 0.000000
2.000000 2.269926 0.000000
2.000000 2.304938 0.000000
2.000000 2.334898 0.000000
2.000000 2.360534 0.000000
2.000000 2.382472 0.000000
2.000000 2.401244 0.000000
2.000000 2.417307 0.000000
2.000000 2.431052 0.000000
2.000000 2.442814 0.000000
2.000000 2.452878 0.000000
2.000000 2.461491 0.000000
2.000000 2.468860 0.000000
2.000000 2.475167 0.000000
2.000000 2.480563 0.000000
2.000000 2.485180 0.000000
2.000000 2.489132 0.000000
2.000000 2.492513 0.000000
2.000000 2.495406 0.000000
2.000000 2.497882 0.000000
2.000000 2.502286 0.000000
2.000000 2.505266 0.000000
2.000000 2.509150 0.000000
2.000000 2.514212 0.000000
2.000000 2.520809 0.000000
2.000000 2.529407 0.000000
2.000000 2.540613 0.000000
2.000000 2.555218 0.000000
2.000000 2.574253 0.000000
2.000000 2.599061 0.000000
2.000000 2.631395 0.000000
2.000000 2.673536 0.000000
2.000000 2.728460 0.000000
2.000000 2.800043 0.000000
2.000000 2.893339 0.000000
2.000000 3.014933 0.000000
2.000000 3.173410 0.000000
2.000000 3.379956 0.000000
2.000000 3.649152 0.000000
1.600000 4.000000 0.000000
1.200000 4.000000 0.000000
0.800000 4.000000 0.000000
0.400000 4.000000 0.000000
0.000000 3.624996 0.000000
0.000000 3.289970 0.000000
0.000000 2.990661 0.000000
0.000000 2.723261 0.000000
0.000000 2.484368 0.000000
0.000000 2.270943 0.000000
0.000000 2.080271 0.000000
0.000000 1.909926 0.000000
0.000000 1.757741 0.000000
0.000000 1.621780 0.000000
0.000000 1.500314 0.000000
0.000000 1.391797 0.000000
0.000000 1.294849 0.000000
0.000000 1.208237 0.000000
0.000000 1.130858 0.000000
0.000000 1.061728 0.000000
0.000000 0.999968 0.000000
0.000000 0.944792 0.000000
0.000000 0.895499 0.000000
0.000000 0.851460 0.000000
0.000000 0.812117 0.000000
0.000000 0.776968 0.000000
0.000000 0.745565 0.000000
0.000000 0.717511 0.000000
0.000000 0.692448 0.000000
0.000000 0.670056 0.000000
0.000000 0.650052 0.000000
0.000000 0.632180 0.000000
0.000000 0.616213 0.000000
0.000000 0.601949 0.000000
0.000000 0.589205 0.000000
0.000000 0.577820 0.000000
0.000000 0.567649 0.000000
0.000000 0.558562 0.000000
0.000000 0.550444 0.000000
0.000000 0.543191 0.000000
0.000000 0.536712 0.000000
0.000000 0.530923 0.000000
0.000000 0.525751 0.000000
0.000000 0.521131 0.000000
0.000000 0.517003 0.000000
0.000000 0.513315 0.000000
0.000000 0.510021 0.000000
0.000000 0.507078 0.000000
0.000000 0.504448 0.000000
0.000000 0.502099 0.000000
0.000000 0.497804 0.000000
0.000000 0.494785 0.000000
0.000000 0.490633 0.000000
0.000000 0.484924 0.000000
0.000000 0.477074 0.000000
0.000000 0.466279 0.000000
0.000000 0.451436 0.000000
0.000000 0.431025 0.000000
0.000000 0.402959 0.000000
0.000000 0.364366 0.000000
0.000000 0.311297 0.000000
0.000000 0.238324 0.000000
0.000000 0.137980 0.000000
0.001414 0.501414 0.000000
0.002828 0.502828 0.000000
0.004241 0.504241 0.000000
0.005655 0.505655 0.000000
0.007069 0.507069 0.000000
0.008483 0.508483 0.000000
0.009896 0.509896 0.000000
0.011310 0.511310 0.000000
0.012724 0.512724 0.000000
0.014138 0.514138 0.000000
0.015551 0.515551 0.000000
0.016965 0.516965 0.000000
0.018379 0.518379 0.000000
0.019793 0.519793 0.000000
0.021206 0.521206 0.000000
0.022620 0.522620 0.000000
0.024034 0.524034 0.000000
0.025448 0.525448 0.000000
0.026861 0.526861 0.000000
0.028275 0.528275 0.000000
0.029689 0.529689 0.000000
0.031103 0.531103 0.000000
0.032516 0.532516 0.000000
0.033930 0.533930 0.000000
0.035344 0.535344 0.000000
0.036758 0.536758 0.000000
0.038172 0.538172 0.000000
0.039585 0.539585 0.000000
0.040999 0.540999 0.000000
0.042413 0.542413 0.000000
0.043827 0.543827 0.000000
0.045240 0.545240 0.000000
0.046654 0.546654 0.000000
0.048068 0.548068 0.000000
0.049482 0.549482 0.000000
0.050895 0.550895 0.000000
0.052309 0.552309 0.000000
0.053723 0.553723 0.000000
0.055137 0.555137 0.000000
0.056550 0.556550 0.000000
0.057964 0.557964 0.000000
0.059378 0.559378 0.000000
0.060792 0.560792 0.000000
0.062205 0.562205 0.000000
0.063619 0.563619 0.000000
0.065033 0.565033 0.000000
0.066447 0.566447 0.000000
0.067861 0.567861 0.000000
0.069274 0.569274 0.000000
0.070688 0.570688 0.000000
0.072102 0.572102 0.000000
0.073516 0.573516 0.000000
0.074929 0.574929 0.000000
0.076343 0.576343 0.000000
0.077757 0.577757 0.000000
0.079171 0.579171 0.000000
0.080584 0.580584 0.000000
0.081998 0.581998 0.000000
0.083412 0.583412 0.000000
0.084826 0.584826 0.000000
0.086239 0.586239 0.000000
0.087653 0.587653 0.000000
0.089067 0.589067 0.000000
0.090481 0.590481 0.000000
0.091894 0.591894 0.000000
0.093308 0.593308 0.000000
0.094722 0.594722 0.000000
0.096136 0.596136 0.000000
0.097549 0.597549 0.000000
0.098963 0.598963 0.000000
0.100377 0.600377 0.000000
0.101791 0.601791 0.000000
0.103205 0.603205 0.000000
0.104618 0.604618 0.000000
0.106032 0.606032 0.000000
0.107446 0.607446 0.000000
0.108860 0.608860 0.000000
0.110273 0.610273 0.000000
0.111687 0.611687 0.000000
0.113101 0.613101 0.000000
0.114515 0.614515 0.000000
0.115928 0.615928 0.000000
0.117342 0.617342 0.000000
0.118756 0.618756 0.000000
0.120170 0.620170 0.000000
0.121583 0.621583 0.000000
0.122997 0.622997 0.000000
0.124411 0.624411 0.000000
0.125825 0.625825 0.000000
0.127238 0.627238 0.000000
0.128652 0.628652 0.000000
0.130066 0.630066 0.000000
0.131480 0.631480 0.000000
0.132893 0.632893 0.000000
0.134307 0.634307 0.000000
0.135721 0.635721 0.000000
0.137135 0.637135 0.000000
0.138549 0.638549 0.000000
0.139962 0.639962 0.000000
0.141376 0.641376 0.000000
0.142790 0.642790 0.000000
0.144204 0.644204 0.000000
0.145617 0.645617 0.000000
0.147031 0.647031 0.000000
0.148445 0.648445 0.000000
0.149859 0.649859 0.000000
0.151272 0.651272 0.000000
0.152686 0.652686 0.000000
0.154100 0.654100 0.000000
0.155514 0.655514 0.000000
0.156927 0.656927 0.000000
0.158341 0.658341 0.000000
0.159755 0.659755 0.000000
0.161169 0.661169 0.000000
0.162582 0.662582 0.000000
0.163996 0.663996 0.000000
0.165410 0.665410 0.000000
0.166824 0.666824 0.000000
0.168238 0.668238 0.000000
0.169651 0.669651 0.000000
0.171065 0.671065 0.000000
0.172479 0.672479 0.000000
0.173893 0.673893 0.000000
0.175306 0.675306 0.000000
0.176720 0.676720 0.000000
0.178134 0.678134 0.000000
0.179548 0.679548 0.000000
0.180961 0.680961 0.000000
0.182375 0.682375 0.000000
0.183789 0.683789 0.000000
0.185203 0.685203 0.000000
0.186616 0.686616 0.000000
0.188030 0.688030 0.000000
0.189444 0.689444 0.000000
0.190858 0.690858 0.000000
0.192271 0.692271 0.000000
0.193685 0.693685 0.000000
0.195099 0.695099 0.000000
0.196513 0.696513 0.000000
0.197926 0.697926 0.000000
0.199340 0.699340 0.000000
0.200754 0.700754 0.000000
0.202168 0.702168 0.000000
0.203582 0.703582 0.000000
0.204995 0.704995 0.000000
0.206409 0.706409 0.000000
0.207823 0.707823 0.000000
0.209237 0.709237 0.000000
0.210650 0.710650 0.000000
0.212064 0.712064 0.000000
0.213478 0.713478 0.000000
0.214892 0.714892 0.000000
0.216305 0.716305 0.000000
0.217719 0.717719 0.000000
0.219133 0.719133 0.000000
0.220547 0.720547 0.000000
0.221960 0.721960 0.000000
0.223374 0.723374 0.000000
0.224788 0.724788 0.000000
0.226202 0.726202 0.000000
0.227615 0.727615 0.000000
0.229029 0.729029 0.000000
0.230443 0.730443 0.000000
0.231857 0.731857 0.000000
0.233270 0.733270 0.000000
0.234684 0.734684 0.000000
0.236098 0.736098 0.000000
0.237512 0.737512 0.000000
0.238926 0.738926 0.000000
0.240339 0.740339 0.000000
0.241753 0.741753 0.000000
0.243167 0.743167 0.000000
0.244581 0.744581 0.000000
0.245994 0.745994 0.000000
0.247408 0.747408 0.000000
0.248822 0.748822 0.000000
0.250236 0.750236 0.000000
0.251649 0.751649 0.000000
0.253063 0.753063 0.000000
0.254477 0.754477 0.000000
0.255891 0.755891 0.000000
0.257304 0.757304 0.000000
0.258718 0.758718 0.000000
0.260132 0.760132 0.000000
0.261546 0.761546 0.000000
0.262959 0.762959 0.000000
0.264373 0.764373 0.000000
0.265787 0.765787 0.000000
0.267201 0.767201 0.000000
0.268615 0.768615 0.000000
0.270028 0.770028 0.000000
0.271442 0.771442 0.000000
0.272856 0.772856 0.000000
0.274270 0.774270 0.000000
0.275683 0.775683 0.000000
0.277097 0.777097 0.000000
0.278511 0.778511 0.000000
0.279925 0.779925 0.000000
0.281338 0.781338 0.000000
0.282752 0.782752 0.000000
0.284166 0.784166 0.000000
0.285580 0.785580 0.000000
0.286993 0.786993 0.000000
0.288407 0.788407 0.000000
0.289821 0.789821 0.000000
0.291235 0.791235 0.000000
0.292648 0.792648 0.000000
0.294062 0.794062 0.000000
0.295476 0.795476 0.000000
0.296890 0.796890 0.000000
0.298303 0.798303 0.000000
0.299717 0.799717 0.000000
0.301131 0.801131 0.000000
0.302545 0.802545 0.000000
0.303959 0.803959 0.000000
0.305372 0.805372 0.000000
0.306786 0.806786 0.000000
0.308200 0.808200 0.000000
0.309614 0.809614 0.000000
0.311027 0.811027 0.000000
0.312441 0.812441 0.000000
0.313855 0.813855 0.000000
0.315269 0.815269 0.000000
0.316682 0.816682 0.000000
0.318096 0.818096 0.000000
0.319510 0.819510 0.000000
0.320924 0.820924 0.000000
0.322337 0.822337 0.000000
0.323751 0.823751 0.000000
0.325165 0.825165 0.000000
0.326579 0.826579 0.000000
0.327992 0.827992 0.000000
0.329406 0.829406 0.000000
0.330820 0.830820 0.000000
0.332234 0.832234 0.000000
0.333648 0.833648 0.000000
0.335061 0.835061 0.000000
0.336475 0.836475 0.000000
0.337889 0.837889 0.000000
0.339303 0.839303 0.000000
0.340716 0.840716 0.000000
[...]
POINT_DATA 20431
SCALARS UX float 1
LOOKUP_TABLE default
-0.000000
0.000000
-0.002743
-0.008887
-0.002775
-0.000744
-0.001290
-0.000000
-0.000000
0.000000
-0.000000
0.002295
0.003082
0.003466
0.003648
0.003704
0.003626
0.003395
0.003000
0.002481
0.001886
0.001320
0.000821
0.000408
0.000074
-0.000190
-0.000399
-0.000566
-0.000699
-0.000807
-0.000895
-0.000966
-0.001025
-0.001074
-0.001114
-0.001148
-0.001176
-0.001200
-0.001220
-0.001237
-0.001252
-0.001264
-0.001274
-0.001283
-0.001298
-0.001309
-0.001322
-0.001339
-0.001361
-0.001390
-0.001425
-0.001470
-0.001527
-0.001595
-0.001677
-0.001776
-0.001891
-0.002019
-0.002162
-0.002310
-0.002450
-0.002597
-0.002697
-0.004142
-0.005443
-0.006631
-0.007762
-0.008786
-0.008581
-0.008305
-0.008038
-0.007843
-0.007744
-0.007752
-0.007840
-0.007990
-0.008162
-0.008341
-0.008511
-0.008665
-0.008800
-0.008916
-0.009016
-0.009103
-0.009180
-0.009247
-0.009299
-0.009328
-0.009328
-0.009307
-0.009269
-0.009228
-0.009187
-0.009149
-0.009115
-0.009081
-0.009050
-0.009020
-0.008984
-0.008944
-0.008899
-0.008849
-0.008775
-0.008659
-0.008532
-0.008373
-0.008205
-0.008001
-0.007844
-0.007787
-0.007412
-0.003525
-0.003137
-0.002643
-0.002575
-0.002493
-0.002404
-0.002322
-0.002245
-0.002176
-0.002104
-0.002025
-0.001921
-0.001761
-0.001505
-0.001035
-0.002963
-0.003193
-0.002890
-0.002713
-0.003818
-0.003777
-0.003772
-0.003662
-0.003804
-0.003919
-0.003962
-0.003363
-0.003331
-0.003743
-0.003806
-0.003920
-0.003946
-0.003952
-0.003830
-0.003692
-0.003875
-0.003923
-0.003896
-0.003887
-0.003931
-0.003910
-0.003982
-0.003936
-0.003926
-0.003997
-0.003940
-0.003961
-0.004273
-0.003634
-0.004050
-0.003952
-0.003924
-0.003892
-0.003912
-0.003958
-0.003971
-0.003944
-0.004860
-0.004887
-0.004910
-0.005064
-0.004964
-0.004890
-0.004930
-0.004969
-0.004965
-0.004853
-0.004776
-0.004700
-0.004731
-0.004771
-0.004760
-0.004666
-0.004641
-0.004646
-0.004720
-0.004713
-0.004635
-0.004622
-0.004688
-0.004700
-0.004708
-0.004643
-0.004639
-0.004670
-0.004704
-0.004715
-0.004831
-0.004677
-0.004636
-0.004745
-0.004794
-0.004768
-0.004779
-0.004791
-0.005112
-0.005338
-0.004514
-0.004483
-0.004420
-0.004402
-0.004364
-0.004410
-0.004392
-0.004358
-0.004328
-0.004292
-0.004305
-0.004272
-0.004396
-0.004307
-0.004295
-0.004310
-0.004334
-0.004264
-0.005268
-0.005974
-0.005947
-0.005893
-0.005905
-0.005919
-0.005903
-0.005881
-0.005836
-0.005692
-0.005534
-0.005505
-0.005451
-0.005493
-0.005463
-0.005468
-0.005433
-0.004166
-0.004204
-0.004135
-0.004160
-0.004300
-0.004297
-0.004187
-0.004343
-0.003996
-0.004050
-0.004001
-0.003970
-0.004317
-0.004121
-0.004398
-0.016887
-0.003707
-0.002935
-0.002597
-0.001873
-0.004378
-0.016202
-0.007838
-0.005082
-0.004845
-0.004916
-0.004866
-0.004767
-0.004755
-0.004727
-0.004756
-0.004720
-0.004627
-0.004581
-0.004599
-0.004607
-0.004578
-0.004553
-0.004539
-0.004541
-0.004860
-0.004993
-0.004908
-0.004824
-0.004844
-0.004856
-0.004797
-0.004788
-0.004772
-0.004786
-0.004766
-0.004796
-0.004763
-0.004426
-0.004385
-0.004386
-0.004384
-0.005068
-0.005106
-0.005128
-0.004915
-0.004863
-0.004917
-0.004897
-0.004938
-0.004930
-0.004972
-0.004878
-0.004943
-0.005423
-0.005386
-0.004722
-0.004756
-0.004793
-0.005385
-0.005399
-0.005434
-0.005480
-0.005471
-0.005416
-0.005523
-0.005387
-0.005470
-0.005444
-0.005498
-0.005419
-0.005456
-0.005412
-0.005436
-0.005463
-0.005463
-0.005420
-0.005418
-0.005492
-0.005378
-0.005304
-0.005268
-0.005379
-0.005547
-0.004790
-0.004697
-0.004616
-0.004778
-0.004732
-0.004588
-0.004699
-0.004654
-0.004535
-0.004693
-0.004693
-0.004595
-0.004560
-0.004568
-0.004612
-0.004592
-0.004530
-0.004551
-0.004571
-0.004568
-0.004676
-0.004466
-0.003998
-0.004429
-0.004441
-0.004428
-0.004365
-0.004334
-0.004309
-0.004290
-0.004283
-0.004267
-0.004272
-0.004308
-0.004295
-0.004269
-0.004194
-0.004221
-0.004278
-0.004208
-0.004170
-0.004257
-0.004249
-0.004214
-0.004268
-0.004254
-0.004284
-0.004342
-0.004313
-0.004249
-0.004303
-0.004325
-0.004087
-0.004097
-0.004063
-0.004279
-0.004223
-0.004262
-0.004212
-0.004252
-0.004289
-0.003934
-0.003921
-0.003891
-0.003850
-0.004699
-0.004790
-0.004951
-0.005222
-0.005433
-0.004910
-0.004986
-0.004956
-0.004880
-0.004782
-0.004813
-0.004811
-0.004766
-0.004845
-0.004752
-0.004732
-0.004747
-0.004723
-0.004740
-0.004681
-0.004654
-0.004662
-0.004114
-0.004120
-0.004068
-0.004059
-0.004094
-0.004126
-0.004050
-0.004073
-0.004036
-0.004013
-0.004058
-0.004048
-0.004060
-0.004060
-0.004140
-0.004132
-0.004145
-0.004159
-0.004132
-0.004238
-0.004262
-0.004200
-0.004218
-0.004220
-0.004200
-0.004162
-0.004239
-0.004182
-0.004210
-0.004212
-0.004195
-0.004196
-0.004197
-0.004180
-0.004193
-0.004146
-0.004192
-0.004160
-0.004184
-0.004112
-0.004129
-0.004135
-0.004147
-0.004105
-0.004080
-0.004087
-0.004058
-0.004042
-0.004385
-0.004388
-0.004371
-0.003876
-0.003887
-0.003868
-0.003821
-0.003803
-0.003807
-0.003778
-0.004153
-0.004111
-0.004106
-0.004078
-0.004073
-0.004101
-0.004101
-0.004061
-0.004029
-0.004003
-0.003995
-0.004066
-0.004032
-0.004211
-0.004132
-0.004132
-0.004134
-0.004093
-0.004056
-0.004052
-0.004030
-0.003976
-0.003899
-0.003986
-0.004041
-0.003952
-0.003987
-0.003989
-0.004101
-0.004077
-0.003951
-0.003976
-0.004024
-0.004024
-0.004042
-0.003941
-0.003939
-0.003978
-0.003957
-0.003941
-0.003899
-0.003913
-0.003917
-0.003913
-0.003894
-0.003866
-0.003893
-0.003873
-0.003779
-0.003861
-0.003872
-0.003808
-0.003793
-0.003783
-0.003738
-0.003735
-0.003780
-0.003808
-0.003844
-0.003804
-0.003717
-0.003684
-0.003746
-0.003740
-0.003936
-0.003969
-0.003915
-0.003855
-0.003803
-0.003859
-0.003897
-0.003915
-0.003851
-0.003834
-0.003840
-0.003825
-0.003859
-0.003823
-0.003812
-0.003978
-0.003977
-0.003977
-0.003981
-0.003845
-0.003891
-0.003806
-0.003881
-0.003815
-0.003734
-0.003525
-0.003704
-0.003654
-0.003604
-0.003525
-0.003559
-0.003547
-0.003559
-0.003793
-0.003810
-0.003817
-0.003805
-0.003839
-0.003833
-0.003857
-0.003820
-0.003852
-0.003834
-0.003870
-0.003858
-0.003848
-0.003689
-0.003869
-0.003852
-0.003901
-0.003857
-0.003878
-0.003900
-0.003924
-0.003926
-0.003955
-0.003980
-0.004050
-0.004013
-0.003946
-0.004022
-0.004028
-0.004000
-0.004011
-0.003491
-0.003439
-0.002892
-0.002892
-0.002825
-0.002808
-0.002778
-0.002813
-0.003604
-0.003552
-0.003583
-0.003620
-0.003617
-0.003597
-0.003592
-0.003742
-0.003123
-0.003422
-0.003420
-0.003399
-0.003418
-0.003397
-0.003387
-0.003353
-0.003336
-0.003268
-0.003244
-0.003318
-0.003319
-0.003204
-0.003189
-0.003154
-0.003150
-0.003129
-0.003092
-0.003086
-0.003050
-0.002974
-0.002933
-0.002941
-0.002913
-0.003835
-0.003861
-0.003894
-0.003886
-0.003844
-0.003806
-0.003843
-0.003799
-0.003007
-0.002979
-0.002981
-0.003002
-0.003051
-0.002913
-0.003251
-0.003230
-0.003196
-0.003217
-0.003150
-0.003130
-0.003134
-0.003196
-0.003066
-0.002924
-0.002912
-0.002887
-0.002870
-0.002894
-0.002764
-0.002835
-0.002819
-0.002738
-0.002734
-0.002770
-0.002715
-0.002773
-0.002721
-0.002790
-0.002750
-0.002733
-0.002737
-0.002707
-0.002745
-0.002741
-0.002764
-0.002797
-0.003268
-0.003287
-0.003173
-0.003241
-0.003220
-0.003262
-0.003203
-0.003121
-0.003084
-0.003208
-0.003119
-0.003427
-0.003337
-0.003297
-0.003325
-0.003342
-0.003345
-0.003362
-0.003315
-0.003290
-0.003337
-0.003346
-0.003366
-0.003415
-0.003364
-0.003360
-0.003352
-0.003353
-0.003343
-0.003316
-0.003294
-0.003119
-0.003043
-0.002959
-0.002872
-0.002943
-0.003091
-0.003090
-0.003055
-0.003016
-0.002970
-0.002994
-0.002660
-0.002664
-0.002649
-0.002629
-0.002590
-0.002654
-0.002610
-0.002599
-0.002578
-0.002600
-0.002599
-0.002543
-0.002531
-0.002513
-0.002534
-0.002517
-0.002479
-0.002498
-0.002196
-0.002143
-0.002152
-0.002167
-0.002209
-0.002315
-0.002283
-0.002485
-0.002460
-0.002466
-0.002469
-0.002442
-0.002464
-0.002490
-0.002449
-0.002411
-0.002451
-0.002428
-0.002477
-0.002488
-0.002538
-0.002494
-0.002489
-0.002442
-0.002401
-0.002455
-0.002518
-0.002511
-0.002258
-0.002307
-0.002267
-0.002298
-0.002278
-0.002468
-0.002516
-0.002414
-0.002423
-0.002462
-0.002448
-0.002539
-0.002518
-0.002496
-0.002408
-0.002203
-0.002095
-0.002217
-0.002053
-0.002086
-0.002168
-0.002169
-0.002150
-0.002170
-0.002131
-0.001950
-0.001954
-0.001840
-0.001901
-0.001907
-0.001856
-0.001870
-0.002554
-0.002549
-0.002583
-0.002540
-0.002542
-0.002511
-0.001897
-0.001857
-0.001858
-0.001836
-0.001822
-0.001834
-0.001839
-0.001872
-0.001836
-0.001882
-0.002593
-0.002489
-0.002479
-0.002490
-0.002506
-0.002441
-0.002420
-0.002423
-0.002405
-0.002351
-0.002334
-0.002363
-0.002323
-0.002288
-0.002305
-0.002275
-0.002250
-0.002260
-0.002233
-0.002207
-0.002205
-0.002198
-0.002194
-0.002177
-0.002226
-0.002231
-0.002197
-0.002222
-0.002254
-0.002263
-0.002245
-0.002233
-0.002164
-0.002174
-0.002152
-0.002141
-0.002167
-0.002114
-0.002144
-0.002090
-0.002010
-0.001995
-0.002017
-0.002048
-0.002056
-0.002082
-0.001879
-0.002046
-0.001841
-0.002035
-0.001969
-0.001892
-0.001956
-0.001959
-0.001999
-0.001932
-0.001894
-0.001870
-0.001916
-0.001951
-0.001940
-0.001847
-0.001774
-0.001796
-0.001803
-0.001800
-0.001601
-0.001754
-0.001760
-0.001742
-0.001690
-0.001696
-0.001726
-0.001709
-0.001652
-0.001664
-0.001646
-0.001680
-0.001694
-0.001693
-0.001711
-0.001737
-0.001649
-0.001539
-0.001531
-0.001534
-0.001473
-0.001766
-0.001891
-0.001948
-0.001880
-0.001900
-0.001862
-0.001842
-0.001861
-0.001787
-0.001655
-0.001650
-0.001643
-0.001671
-0.001737
-0.001876
-0.001644
-0.001657
-0.001679
-0.001805
-0.001704
-0.001638
-0.001642
-0.001596
-0.001590
-0.001611
-0.001523
-0.001558
-0.001547
-0.001547
-0.001528
-0.001366
-0.001346
-0.001266
-0.001260
-0.001198
-0.001248
-0.001269
-0.001185
-0.001160
-0.001815
-0.001783
-0.001771
-0.001796
-0.001773
-0.001717
-0.001684
-0.001711
-0.001723
-0.001751
-0.001779
-0.001752
-0.001702
-0.001706
-0.001699
-0.001683
-0.001644
-0.001655
-0.001638
-0.001580
-0.001606
-0.001574
-0.001535
-0.001485
-0.001496
-0.001528
-0.001501
-0.001977
-0.001934
-0.001936
-0.002001
-0.002019
-0.002035
-0.002036
-0.002055
-0.002026
-0.002195
-0.001718
-0.001727
-0.001592
-0.001596
-0.001633
-0.001537
-0.001513
-0.001555
-0.001512
-0.001468
-0.001357
-0.001530
-0.001453
-0.001455
-0.001391
-0.001355
-0.001345
-0.001395
-0.001325
-0.001342
-0.001314
-0.001297
-0.001293
-0.001276
-0.001239
-0.001170
-0.001187
-0.001145
-0.001118
-0.001062
-0.000976
-0.000913
-0.000861
-0.000773
-0.000919
-0.000939
-0.000870
-0.001393
-0.001433
-0.001359
-0.001371
-0.001361
-0.001288
-0.001342
-0.001315
-0.001340
-0.001343
-0.001336
-0.001266
-0.001234
-0.001588
-0.001536
-0.001510
-0.001506
-0.001313
-0.001192
-0.001781
-0.001150
-0.001340
-0.001382
-0.001460
-0.001752
-0.001745
-0.001918
-0.001658
-0.001412
-0.001749
-0.001587
-0.001577
-0.001530
-0.001477
-0.001360
-0.001444
-0.001409
-0.001397
-0.001404
-0.001276
-0.001070
-0.001121
-0.001143
-0.001174
-0.001194
-0.001151
-0.001087
-0.001049
-0.001028
-0.001040
-0.001029
-0.000867
-0.001051
-0.001064
-0.001055
-0.001025
-0.001072
-0.001031
-0.001053
-0.001017
-0.001013
-0.001133
-0.001114
-0.001061
-0.001009
-0.001200
-0.001158
-0.001146
-0.001157
-0.001132
-0.001109
-0.001069
-0.001077
-0.001068
-0.001064
-0.001062
-0.001044
-0.001034
-0.001023
-0.000884
-0.000840
-0.000859
-0.001025
-0.000998
-0.001042
-0.000999
-0.000949
-0.001010
-0.000970
-0.000948
-0.000940
-0.000944
-0.000919
-0.000995
-0.000982
-0.000878
-0.001025
-0.001021
-0.001039
-0.001005
-0.001032
-0.001216
-0.001075
-0.001035
-0.001063
-0.001013
-0.001006
-0.001009
-0.001045
-0.000993
-0.000956
-0.000956
-0.000956
-0.000941
-0.000917
-0.000884
-0.000889
-0.000881
-0.001010
-0.001023
-0.000980
-0.000969
-0.000988
-0.000997
-0.000998
-0.000965
-0.000938
-0.000938
-0.000919
-0.000902
-0.000911
-0.000898
-0.000908
-0.000902
-0.000902
-0.000883
-0.000876
-0.000871
-0.000865
-0.000847
-0.000863
-0.000822
-0.000815
-0.000802
-0.000828
-0.000846
-0.000792
-0.000765
-0.000728
-0.000738
-0.000744
-0.000753
-0.000760
-0.000770
-0.000779
-0.000788
-0.000797
-0.000806
-0.000815
-0.000824
-0.000831
-0.000840
-0.000849
-0.000856
-0.000864
-0.000871
-0.000878
-0.000885
-0.000891
-0.000897
-0.000904
-0.000909
-0.000915
-0.000920
-0.000926
-0.000931
-0.000936
-0.000940
-0.000945
-0.000950
-0.000954
-0.000958
-0.000962
-0.000967
-0.000970
-0.000974
-0.000978
-0.000982
-0.000985
-0.000989
-0.000992
-0.000996
-0.001000
-0.001004
-0.001008
-0.001012
-0.001015
-0.001019
-0.001022
-0.001026
-0.001029
-0.001032
-0.001035
-0.001037
-0.001040
-0.001043
-0.001046
-0.001048
-0.001051
-0.001053
-0.001056
-0.001058
-0.001060
-0.001063
-0.001065
-0.001067
-0.001069
-0.001071
-0.001073
-0.001075
-0.001077
-0.001079
-0.001081
-0.001083
-0.001085
-0.001087
-0.001089
-0.001091
-0.001093
-0.001095
-0.001096
-0.001098
-0.001100
-0.001102
-0.001104
-0.001105
-0.001107
-0.001109
-0.001110
-0.001112
-0.001114
-0.001115
-0.001117
-0.001119
-0.001120
-0.001122
-0.001124
-0.001125
-0.001127
-0.001129
-0.001130
-0.001132
-0.001133
-0.001135
-0.001137
-0.001138
-0.001140
-0.001142
-0.001143
-0.001145
-0.001146
-0.001148
-0.001149
-0.001151
-0.001153
-0.001154
-0.001156
-0.001157
-0.001159
-0.001160
-0.001162
-0.001164
-0.001165
-0.001167
-0.001168
-0.001170
-0.001171
-0.001173
-0.001175
-0.001176
-0.001178
-0.001179
-0.001181
-0.001182
-0.001184
-0.001185
-0.001187
-0.001189
-0.001190
-0.001192
-0.001193
-0.001195
-0.001196
-0.001198
-0.001199
-0.001201
-0.001203
-0.001204
-0.001206
-0.001207
-0.001209
-0.001210
-0.001212
-0.001213
-0.001215
-0.001217
-0.001218
-0.001220
-0.001221
-0.001223
-0.001224
-0.001226
-0.001227
-0.001229
-0.001230
-0.001232
-0.001233
-0.001235
-0.001236
-0.001238
-0.001239
-0.001241
-0.001242
-0.001244
-0.001245
-0.001247
-0.001248
-0.001250
-0.001251
-0.001253
-0.001254
-0.001256
-0.001257
-0.001259
-0.001260
-0.001262
-0.001263
-0.001264
-0.001266
-0.001267
-0.001269
-0.001270
-0.001272
-0.001273
-0.001274
-0.001276
-0.001277
-0.001278
-0.001280
-0.001281
-0.001282
-0.001284
-0.001285
-0.001286
-0.001288
-0.001289
-0.001290
-0.001292
-0.001293
-0.001294
-0.001295
-0.001297
-0.001298
-0.001299
-0.001300
-0.001301
-0.001303
-0.001304
-0.001305
-0.001306
-0.001307
-0.001308
-0.001309
-0.001311
-0.001312
-0.001313
-0.001314
-0.001315
-0.001316
-0.001317
-0.001318
-0.001319
-0.001320
-0.001321
-0.001322
-0.001323
-0.001324
-0.001324
-0.001325
-0.001326
-0.001327
-0.001328
-0.001329
-0.001330
-0.001330
-0.001331
-0.001332
-0.001333
-0.001333
-0.001334
-0.001335
-0.001335
-0.001336
-0.001337
-0.001337
-0.001338
-0.001338
-0.001339
-0.001340
-0.001340
-0.001341
-0.001341
-0.001341
-0.001342
-0.001342
-0.001343
-0.001343
-0.001343
-0.001344
-0.001344
-0.001344
-0.001345
-0.001345
-0.001345
-0.001345
-0.001345
-0.001346
-0.001346
-0.001346
-0.001346
-0.001346
-0.001346
-0.001346
-0.001346
-0.001346
-0.001346
-0.001346
-0.001346
-0.001346
-0.001346
-0.001345
-0.001345
-0.001345
-0.001345
-0.001345
-0.001344
-0.001344
-0.001344
-0.001343
-0.001343
-0.001342
-0.001342
-0.001342
-0.001341
-0.001341
-0.001340
-0.001340
-0.001339
-0.001338
-0.001338
-0.001337
-0.001336
-0.001336
-0.001335
-0.001334
-0.001334
-0.001333
-0.001332
-0.001331
-0.001330
-0.001329
-0.001328
-0.001328
-0.001327
-0.001326
-0.001325
-0.001324
-0.001323
-0.001321
-0.001320
-0.001319
-0.001318
-0.001317
-0.001316
-0.001315
-0.001313
-0.001312
-0.001311
-0.001309
-0.001308
-0.001307
-0.001305
-0.001304
-0.001303
-0.001301
-0.001300
-0.001298
-0.001297
-0.001295
-0.001293
-0.001292
-0.001224
-0.001235
-0.001246
-0.001152
-0.001135
-0.001143
-0.006984
-0.007064
-0.007141
-0.007264
-0.005075
-0.001347
-0.001323
-0.001338
-0.001320
-0.001264
-0.001282
-0.001266
-0.004887
-0.004756
-0.005638
-0.004940
-0.007442
-0.007430
-0.006106
-0.005830
-0.005284
-0.004402
-0.004884
-0.003399
-0.003473
-0.003369
-0.003442
-0.005958
-0.005958
-0.006267
-0.006286
-0.002745
-0.003258
-0.002604
-0.003508
-0.006181
-0.006226
-0.006167
-0.006209
-0.001791
-0.001869
-0.001842
-0.001795
-0.007783
-0.007566
-0.006627
-0.003756
-0.003728
-0.003703
-0.003625
-0.004199
-0.004420
-0.004385
-0.004565
-0.004527
-0.004484
-0.004483
-0.006844
-0.006768
-0.006802
-0.005285
-0.005295
-0.005370
-0.005381
-0.001755
-0.001691
-0.001748
-0.001665
-0.005271
-0.005243
-0.005257
-0.005216
-0.003866
-0.003881
-0.003943
-0.003753
-0.003746
-0.003795
-0.003877
-0.003593
-0.005493
-0.005557
-0.005569
-0.005620
-0.001282
-0.001307
-0.001303
-0.006466
-0.006524
-0.006427
-0.004516
-0.001352
-0.001385
-0.001358
-0.001359
-0.002705
-0.002646
-0.002852
-0.005009
-0.005038
-0.005070
-0.002421
-0.004064
-0.004075
-0.004107
-0.004959
-0.002774
-0.002824
-0.002857
-0.001421
-0.001422
-0.001461
-0.001436
-0.001824
-0.001761
-0.002414
-0.001973
-0.002874
-0.007539
-0.007791
-0.007563
-0.001385
-0.001383
-0.001363
-0.007818
-0.006988
-0.007138
-0.007113
-0.006988
-0.006838
-0.006846
-0.006906
-0.006887
-0.006031
-0.006103
-0.006017
-0.004593
-0.004581
-0.004610
-0.004601
-0.006073
-0.002947
-0.002938
-0.003094
-0.006659
-0.006702
-0.006577
-0.006985
-0.007007
-0.007024
-0.003035
-0.001420
-0.001440
-0.001452
-0.006416
-0.005584
-0.005564
-0.001295
-0.001266
-0.001282
-0.001272
-0.002457
-0.002482
-0.002483
-0.002518
-0.004831
-0.004930
-0.004877
-0.004932
-0.002994
-0.002906
-0.003018
-0.002874
-0.007639
-0.007656
-0.007702
-0.007584
-0.001352
-0.001352
-0.008901
-0.008901
-0.008843
-0.008812
-0.006493
-0.006548
-0.006403
-0.006705
-0.001368
-0.001349
-0.001342
-0.006724
-0.006510
-0.007902
-0.007927
-0.007882
-0.001426
-0.001463
-0.001462
-0.003519
-0.003504
-0.003384
-0.003332
-0.005077
-0.005101
-0.005090
-0.008382
-0.008407
-0.008517
-0.008486
-0.001399
-0.001404
-0.001367
-0.001443
-0.001396
-0.001363
-0.001369
-0.001493
-0.002490
-0.002496
-0.002533
-0.002526
-0.005300
-0.005065
-0.005082
-0.005253
-0.005637
-0.005590
-0.005701
-0.001406
-0.001438
-0.001458
-0.001486
-0.006024
-0.005970
-0.006063
-0.005973
-0.002182
-0.002342
-0.002489
-0.004213
-0.004020
-0.003872
-0.004246
-0.008261
-0.008288
-0.008249
-0.008311
-0.001363
-0.001361
-0.003225
-0.002672
-0.002484
-0.002065
-0.004867
-0.004863
-0.004802
-0.004819
-0.006639
-0.006756
-0.006620
-0.006772
-0.006153
-0.006254
-0.006310
-0.006063
-0.005585
-0.005563
-0.005602
-0.005595
-0.006977
-0.006994
-0.006922
-0.006931
-0.001454
-0.001408
-0.001417
-0.001422
-0.005678
-0.005112
-0.005060
-0.008660
-0.008755
-0.008724
-0.008623
-0.005814
-0.006633
-0.006318
-0.004389
-0.003919
-0.006372
-0.006330
-0.006390
-0.006319
-0.002526
-0.002656
-0.002638
-0.002771
-0.004310
-0.004003
-0.004185
-0.003987
-0.002054
-0.002106
-0.002143
-0.002210
-0.001655
-0.001774
-0.001667
-0.001745
-0.006786
-0.006759
-0.006801
-0.006788
-0.006327
-0.006173
-0.006198
-0.006347
-0.001757
-0.001705
-0.001794
-0.001671
-0.001842
-0.001783
-0.001676
-0.005260
-0.005115
-0.005137
-0.005164
-0.001487
-0.001519
-0.001451
-0.001329
-0.005767
-0.005810
-0.005836
-0.005741
-0.001308
-0.001324
-0.001340
-0.001358
-0.004226
-0.004171
-0.004267
-0.004198
-0.002822
-0.002699
-0.005621
-0.005604
-0.005572
-0.005568
-0.004703
-0.004772
-0.004668
-0.004817
-0.004464
-0.003888
-0.004252
-0.001364
-0.001392
-0.001373
-0.007626
-0.007636
-0.007602
-0.007597
-0.003294
-0.006880
-0.006802
-0.006809
-0.001576
-0.001500
-0.001513
-0.001460
-0.001250
-0.001252
-0.001271
-0.001271
-0.002852
-0.002862
-0.002905
-0.002791
-0.003255
-0.003334
-0.003327
-0.003306
-0.003230
-0.003125
-0.002455
-0.002530
-0.002516
-0.005000
-0.005014
-0.004684
-0.003804
-0.003745
-0.003518
-0.004461
-0.002183
-0.002206
-0.002284
-0.002274
-0.002245
-0.002240
-0.002270
-0.001410
-0.001434
-0.001447
-0.006276
-0.006126
-0.001403
-0.001170
-0.001198
-0.001193
-0.001220
-0.005243
-0.005293
-0.005743
-0.001568
-0.004002
-0.003992
-0.004036
-0.004029
-0.008012
-0.007967
-0.007960
-0.007919
-0.002950
-0.003318
-0.003368
-0.002760
-0.007110
-0.007067
-0.007123
-0.007083
-0.006979
-0.007097
-0.006945
-0.007079
-0.001176
-0.001146
-0.001110
-0.007274
-0.007260
-0.007311
-0.003394
-0.003347
-0.003417
-0.003405
-0.001282
-0.001141
-0.001146