# vtk DataFile Version 2.0
Test
ASCII
DATASET POLYDATA
POINTS 20431 float
0.000000 0.000000 0.000000
2.000000 0.000000 0.000000
2.000000 4.000000 0.000000
0.000000 4.000000 0.000000
0.000000 0.500000 0.000000
1.500000 2.000000 0.000000
2.000000 2.500000 0.000000
0.400000 0.000000 0.000000
0.800000 0.000000 0.000000
1.200000 0.000000 0.000000
1.600000 0.000000 0.000000
2.000000 0.362557 0.000000
2.000000 0.672798 0.000000
2.000000 0.938272 0.000000
2.000000 1.165439 0.000000
2.000000 1.359826 0.000000
2.000000 1.526163 0.000000
2.000000 1.668499 0.000000
2.000000 1.790295 0.000000
2.000000 1.894517 0.000000
2.000000 1.983700 0.000000
2.000000 2.060013 0.000000
2.000000 2.125315 0.000000
2.000000 2.181194 0.000000
2.000000 2.229010 0.000000
2.000000 2.269926 0.000000
2.000000 2.304938 0.000000
2.000000 2.334898 0.000000
2.000000 2.360534 0.000000
2.000000 2.382472 0.000000
2.000000 2.401244 0.000000
2.000000 2.417307 0.000000
2.000000 2.431052 0.000000
2.000000 2.442814 0.000000
2.000000 2.452878 0.000000
2.000000 2.461491 0.000000
2.000000 2.468860 0.000000
2.000000 2.475167 0.000000
2.000000 2.480563 0.000000
2.000000 2.485180 0.000000
2.000000 2.489132 0.000000
2.000000 2.492513 0.000000
2.000000 2.495406 0.000000
2.000000 2.497882 0.000000
2.000000 2.502286 0.000000
2.000000 2.505266 0.000000
2.000000 2.509150 0.000000
2.000000 2.514212 0.000000
2.000000 2.520809 0.000000
2.000000 2.529407 0.000000
2.000000 2.540613 0.000000
2.000000 2.555218 0.000000
2.000000 2.574253 0.000000
2.000000 2.599061 0.000000
2.000000 2.631395 0.000000
2.000000 2.673536 0.000000
2.000000 2.728460 0.000000
2.000000 2.800043 0.000000
2.000000 2.893339 0.000000
2.000000 3.014933 0.000000
2.000000 3.173410 0.000000
2.000000 3.379956 0.000000
2.000000 3.649152 0.000000
1.600000 4.000000 0.000000
1.200000 4.000000 0.000000
0.800000 4.000000 0.000000
0.400000 4.000000 0.000000
0.000000 3.624996 0.000000
0.000000 3.289970 0.000000
0.000000 2.990661 0.000000
0.000000 2.723261 0.000000
0.000000 2.484368 0.000000
0.000000 2.270943 0.000000
0.000000 2.080271 0.000000
0.000000 1.909926 0.000000
0.000000 1.757741 0.000000
0.000000 1.621780 0.000000
0.000000 1.500314 0.000000
0.000000 1.391797 0.000000
0.000000 1.294849 0.000000
0.000000 1.208237 0.000000
0.000000 1.130858 0.000000
0.000000 1.061728 0.000000
0.000000 0.999968 0.000000
0.000000 0.944792 0.000000
0.000000 0.895499 0.000000
0.000000 0.851460 0.000000
0.000000 0.812117 0.000000
0.000000 0.776968 0.000000
0.000000 0.745565 0.000000
0.000000 0.717511 0.000000
0.000000 0.692448 0.000000
0.000000 0.670056 0.000000
0.000000 0.650052 0.000000
0.000000 0.632180 0.000000
0.000000 0.616213 0.000000
0.000000 0.601949 0.000000
0.000000 0.589205 0.000000
0.000000 0.577820 0.000000
0.000000 0.567649 0.000000
0.000000 0.558562 0.000000
0.000000 0.550444 0.000000
0.000000 0.543191 0.000000
0.000000 0.536712 0.000000
0.000000 0.530923 0.000000
0.000000 0.525751 0.000000
0.000000 0.521131 0.000000
0.000000 0.517003 0.000000
0.000000 0.513315 0.000000
0.000000 0.510021 0.000000
0.000000 0.507078 0.000000
0.000000 0.504448 0.000000
0.000000 0.502099 0.000000
0.000000 0.497804 0.000000
0.000000 0.494785 0.000000
0.000000 0.490633 0.000000
0.000000 0.484924 0.000000
0.000000 0.477074 0.000000
0.000000 0.466279 0.000000
0.000000 0.451436 0.000000
0.000000 0.431025 0.000000
0.000000 0.402959 0.000000
0.000000 0.364366 0.000000
0.000000 0.311297 0.000000
0.000000 0.238324 0.000000
0.000000 0.137980 0.000000
0.001414 0.501414 0.000000
0.002828 0.502828 0.000000
0.004241 0.504241 0.000000
0.005655 0.505655 0.000000
0.007069 0.507069 0.000000
0.008483 0.508483 0.000000
0.009896 0.509896 0.000000
0.011310 0.511310 0.000000
0.012724 0.512724 0.000000
0.014138 0.514138 0.000000
0.015551 0.515551 0.000000
0.016965 0.516965 0.000000
0.018379 0.518379 0.000000
0.019793 0.519793 0.000000
0.021206 0.521206 0.000000
0.022620 0.522620 0.000000
0.024034 0.524034 0.000000
0.025448 0.525448 0.000000
0.026861 0.526861 0.000000
0.028275 0.528275 0.000000
0.029689 0.529689 0.000000
0.031103 0.531103 0.000000
0.032516 0.532516 0.000000
0.033930 0.533930 0.000000
0.035344 0.535344 0.000000
0.036758 0.536758 0.000000
0.038172 0.538172 0.000000
0.039585 0.539585 0.000000
0.040999 0.540999 0.000000
0.042413 0.542413 0.000000
0.043827 0.543827 0.000000
0.045240 0.545240 0.000000
0.046654 0.546654 0.000000
0.048068 0.548068 0.000000
0.049482 0.549482 0.000000
0.050895 0.550895 0.000000
0.052309 0.552309 0.000000
0.053723 0.553723 0.000000
0.055137 0.555137 0.000000
0.056550 0.556550 0.000000
0.057964 0.557964 0.000000
0.059378 0.559378 0.000000
0.060792 0.560792 0.000000
0.062205 0.562205 0.000000
0.063619 0.563619 0.000000
0.065033 0.565033 0.000000
0.066447 0.566447 0.000000
0.067861 0.567861 0.000000
0.069274 0.569274 0.000000
0.070688 0.570688 0.000000
0.072102 0.572102 0.000000
0.073516 0.573516 0.000000
0.074929 0.574929 0.000000
0.076343 0.576343 0.000000
0.077757 0.577757 0.000000
0.079171 0.579171 0.000000
0.080584 0.580584 0.000000
0.081998 0.581998 0.000000
0.083412 0.583412 0.000000
0.084826 0.584826 0.000000
0.086239 0.586239 0.000000
0.087653 0.587653 0.000000
0.089067 0.589067 0.000000
0.090481 0.590481 0.000000
0.091894 0.591894 0.000000
0.093308 0.593308 0.000000
0.094722 0.594722 0.000000
0.096136 0.596136 0.000000
0.097549 0.597549 0.000000
0.098963 0.598963 0.000000
0.100377 0.600377 0.000000
0.101791 0.601791 0.000000
0.103205 0.603205 0.000000
0.104618 0.604618 0.000000
0.106032 0.606032 0.000000
0.107446 0.607446 0.000000
0.108860 0.608860 0.000000
0.110273 0.610273 0.000000
0.111687 0.611687 0.000000
0.113101 0.613101 0.000000
0.114515 0.614515 0.000000
0.115928 0.615928 0.000000
0.117342 0.617342 0.000000
0.118756 0.618756 0.000000
0.120170 0.620170 0.000000
0.121583 0.621583 0.000000
0.122997 0.622997 0.000000
0.124411 0.624411 0.000000
0.125825 0.625825 0.000000
0.127238 0.627238 0.000000
0.128652 0.628652 0.000000
0.130066 0.630066 0.000000
0.131480 0.631480 0.000000
0.132893 0.632893 0.000000
0.134307 0.634307 0.000000
0.135721 0.635721 0.000000
0.137135 0.637135 0.000000
0.138549 0.638549 0.000000
0.139962 0.639962 0.000000
0.141376 0.641376 0.000000
0.142790 0.642790 0.000000
0.144204 0.644204 0.000000
0.145617 0.645617 0.000000
0.147031 0.647031 0.000000
0.148445 0.648445 0.000000
0.149859 0.649859 0.000000
0.151272 0.651272 0.000000
0.152686 0.652686 0.000000
0.154100 0.654100 0.000000
0.155514 0.655514 0.000000
0.156927 0.656927 0.000000
0.158341 0.658341 0.000000
0.159755 0.659755 0.000000
0.161169 0.661169 0.000000
0.162582 0.662582 0.000000
0.163996 0.663996 0.000000
0.165410 0.665410 0.000000
0.166824 0.666824 0.000000
0.168238 0.668238 0.000000
0.169651 0.669651 0.000000
0.171065 0.671065 0.000000
0.172479 0.672479 0.000000
0.173893 0.673893 0.000000
0.175306 0.675306 0.000000
0.176720 0.676720 0.000000
0.178134 0.678134 0.000000
0.179548 0.679548 0.000000
0.180961 0.680961 0.000000
0.182375 0.682375 0.000000
0.183789 0.683789 0.000000
0.185203 0.685203 0.000000
0.186616 0.686616 0.000000
0.188030 0.688030 0.000000
0.189444 0.689444 0.000000
0.190858 0.690858 0.000000
0.192271 0.692271 0.000000
0.193685 0.693685 0.000000
0.195099 0.695099 0.000000
0.196513 0.696513 0.000000
0.197926 0.697926 0.000000
0.199340 0.699340 0.000000
0.200754 0.700754 0.000000
0.202168 0.702168 0.000000
0.203582 0.703582 0.000000
0.204995 0.704995 0.000000
0.206409 0.706409 0.000000
0.207823 0.707823 0.000000
0.209237 0.709237 0.000000
0.210650 0.710650 0.000000
0.212064 0.712064 0.000000
0.213478 0.713478 0.000000
0.214892 0.714892 0.000000
0.216305 0.716305 0.000000
0.217719 0.717719 0.000000
0.219133 0.719133 0.000000
0.220547 0.720547 0.000000
0.221960 0.721960 0.000000
0.223374 0.723374 0.000000
0.224788 0.724788 0.000000
0.226202 0.726202 0.000000
0.227615 0.727615 0.000000
0.229029 0.729029 0.000000
0.230443 0.730443 0.000000
0.231857 0.731857 0.000000
0.233270 0.733270 0.000000
0.234684 0.734684 0.000000
0.236098 0.736098 0.000000
0.237512 0.737512 0.000000
0.238926 0.738926 0.000000
0.240339 0.740339 0.000000
0.241753 0.741753 0.000000
0.243167 0.743167 0.000000
0.244581 0.744581 0.000000
0.245994 0.745994 0.000000
0.247408 0.747408 0.000000
0.248822 0.748822 0.000000
0.250236 0.750236 0.000000
0.251649 0.751649 0.000000
0.253063 0.753063 0.000000
0.254477 0.754477 0.000000
0.255891 0.755891 0.000000
0.257304 0.757304 0.000000
0.258718 0.758718 0.000000
0.260132 0.760132 0.000000
0.261546 0.761546 0.000000
0.262959 0.762959 0.000000
0.264373 0.764373 0.000000
0.265787 0.765787 0.000000
0.267201 0.767201 0.000000
0.268615 0.768615 0.000000
0.270028 0.770028 0.000000
0.271442 0.771442 0.000000
0.272856 0.772856 0.000000
0.274270 0.774270 0.000000
0.275683 0.775683 0.000000
0.277097 0.777097 0.000000
0.278511 0.778511 0.000000
0.279925 0.779925 0.000000
0.281338 0.781338 0.000000
0.282752 0.782752 0.000000
0.284166 0.784166 0.000000
0.285580 0.785580 0.000000
0.286993 0.786993 0.000000
0.288407 0.788407 0.000000
0.289821 0.789821 0.000000
0.291235 0.791235 0.000000
0.292648 0.792648 0.000000
0.294062 0.794062 0.000000
0.295476 0.795476 0.000000
0.296890 0.796890 0.000000
0.298303 0.798303 0.000000
0.299717 0.799717 0.000000
0.301131 0.801131 0.000000
0.302545 0.802545 0.000000
0.303959 0.803959 0.000000
0.305372 0.805372 0.000000
0.306786 0.806786 0.000000
0.308200 0.808200 0.000000
0.309614 0.809614 0.000000
0.311027 0.811027 0.000000
0.312441 0.812441 0.000000
0.313855 0.813855 0.000000
0.315269 0.815269 0.000000
0.316682 0.816682 0.000000
0.318096 0.818096 0.000000
0.319510 0.819510 0.000000
0.320924 0.820924 0.000000
0.322337 0.822337 0.000000
0.323751 0.823751 0.000000
0.325165 0.825165 0.000000
0.326579 0.826579 0.000000
0.327992 0.827992 0.000000
0.329406 0.829406 0.000000
0.330820 0.830820 0.000000
0.332234 0.832234 0.000000
0.333648 0.833648 0.000000
0.335061 0.835061 0.000000
0.336475 0.836475 0.000000
0.337889 0.837889 0.000000
0.339303 0.839303 0.000000
0.340716 0.840716 0.000000
[...]
POINT_DATA 20431
SCALARS UX float 1
LOOKUP_TABLE default
-0.000000
0.000000
0.084580
-0.088222
-0.068993
0.042594
0.085158
-0.000000
-0.000000
0.000000
-0.000000
0.057683
0.075526
0.082471
0.085004
0.085915
0.086174
0.086144
0.086040
0.085919
0.085798
0.085695
0.085606
0.085531
0.085469
0.085417
0.085374
0.085338
0.085308
0.085283
0.085262
0.085244
0.085229
0.085217
0.085206
0.085197
0.085189
0.085183
0.085177
0.085173
0.085169
0.085165
0.085162
0.085160
0.085155
0.085152
0.085149
0.085144
0.085137
0.085129
0.085118
0.085104
0.085087
0.085064
0.085036
0.085001
0.084958
0.084908
0.084848
0.084784
0.084718
0.084650
0.084602
0.049990
0.015415
-0.019142
-0.053684
-0.088220
-0.088220
-0.088236
-0.088280
-0.088357
-0.088453
-0.088558
-0.088640
-0.088659
-0.088593
-0.088439
-0.088173
-0.087775
-0.087259
-0.086635
-0.085919
-0.085122
-0.084261
-0.083361
-0.082435
-0.081500
-0.080566
-0.079658
-0.078762
-0.077908
-0.077095
-0.076319
-0.075595
-0.074916
-0.074285
-0.073701
-0.073160
-0.072665
-0.072211
-0.071795
-0.071416
-0.071071
-0.070758
-0.070474
-0.070216
-0.069983
-0.069773
-0.069583
-0.069411
-0.069257
-0.069118
-0.068861
-0.068679
-0.068425
-0.068073
-0.067576
-0.066882
-0.065870
-0.064420
-0.062278
-0.058939
-0.053776
-0.045614
-0.031182
-0.068968
-0.068943
-0.068918
-0.068892
-0.068865
-0.068838
-0.068811
-0.068783
-0.068754
-0.068725
-0.068696
-0.068666
-0.068635
-0.068605
-0.068573
-0.068542
-0.068509
-0.068477
-0.068444
-0.068410
-0.068376
-0.068342
-0.068307
-0.068272
-0.068237
-0.068201
-0.068164
-0.068127
-0.068090
-0.068053
-0.068015
-0.067977
-0.067938
-0.067899
-0.067860
-0.067820
-0.067780
-0.067740
-0.067699
-0.067658
-0.067617
-0.067575
-0.067533
-0.067491
-0.067448
-0.067405
-0.067362
-0.067318
-0.067274
-0.067230
-0.067186
-0.067141
-0.067095
-0.067050
-0.067004
-0.066958
-0.066911
-0.066865
-0.066818
-0.066771
-0.066723
-0.066676
-0.066628
-0.066580
-0.066531
-0.066482
-0.066433
-0.066384
-0.066335
-0.066285
-0.066235
-0.066184
-0.066134
-0.066083
-0.066032
-0.065980
-0.065929
-0.065876
-0.065824
-0.065772
-0.065719
-0.065666
-0.065612
-0.065559
-0.065505
-0.065451
-0.065396
-0.065342
-0.065287
-0.065232
-0.065177
-0.065121
-0.065065
-0.065009
-0.064953
-0.064896
-0.064840
-0.064782
-0.064725
-0.064667
-0.064610
-0.064552
-0.064493
-0.064435
-0.064376
-0.064317
-0.064257
-0.064198
-0.064138
-0.064078
-0.064017
-0.063957
-0.063896
-0.063835
-0.063774
-0.063712
-0.063650
-0.063588
-0.063525
-0.063463
-0.063400
-0.063337
-0.063273
-0.063209
-0.063146
-0.063082
-0.063017
-0.062953
-0.062888
-0.062823
-0.062757
-0.062692
-0.062626
-0.062560
-0.062494
-0.062427
-0.062361
-0.062294
-0.062226
-0.062159
-0.062091
-0.062023
-0.061955
-0.061887
-0.061818
-0.061749
-0.061680
-0.061611
-0.061541
-0.061471
-0.061401
-0.061331
-0.061260
-0.061190
-0.061119
-0.061047
-0.060976
-0.060904
-0.060832
-0.060760
-0.060688
-0.060615
-0.060543
-0.060470
-0.060396
-0.060323
-0.060249
-0.060175
-0.060101
-0.060027
-0.059952
-0.059878
-0.059803
-0.059727
-0.059652
-0.059576
-0.059501
-0.059425
-0.059348
-0.059272
-0.059195
-0.059118
-0.059041
-0.058964
-0.058887
-0.058809
-0.058731
-0.058653
-0.058575
-0.058497
-0.058418
-0.058339
-0.058260
-0.058181
-0.058102
-0.058022
-0.057942
-0.057862
-0.057782
-0.057702
-0.057621
-0.057540
-0.057459
-0.057378
-0.057297
-0.057215
-0.057133
-0.057051
-0.056969
-0.056887
-0.056804
-0.056722
-0.056639
-0.056556
-0.056473
-0.056389
-0.056306
-0.056222
-0.056138
-0.056054
-0.055969
-0.055885
-0.055800
-0.055715
-0.055630
-0.055545
-0.055460
-0.055374
-0.055288
-0.055202
-0.055116
-0.055030
-0.054943
-0.054857
-0.054770
-0.054683
-0.054596
-0.054509
-0.054421
-0.054333
-0.054246
-0.054157
-0.054069
-0.053981
-0.053892
-0.053804
-0.053715
-0.053626
-0.053537
-0.053447
-0.053358
-0.053268
-0.053178
-0.053088
-0.052998
-0.052908
-0.052817
-0.052727
-0.052636
-0.052545
-0.052454
-0.052362
-0.052271
-0.052179
-0.052087
-0.051995
-0.051903
-0.051811
-0.051719
-0.051626
-0.051533
-0.051440
-0.051347
-0.051254
-0.051161
-0.051067
-0.050973
-0.050880
-0.050786
-0.050691
-0.050597
-0.050503
-0.050408
-0.050313
-0.050218
-0.050123
-0.050028
-0.049933
-0.049837
-0.049741
-0.049645
-0.049549
-0.049453
-0.049357
-0.049261
-0.049164
-0.049067
-0.048970
-0.048873
-0.048776
-0.048679
-0.048581
-0.048484
-0.048386
-0.048288
-0.048190
-0.048092
-0.047994
-0.047895
-0.047797
-0.047698
-0.047599
-0.047500
-0.047401
-0.047302
-0.047202
-0.047103
-0.047003
-0.046903
-0.046804
-0.046703
-0.046603
-0.046503
-0.046402
-0.046302
-0.046201
-0.046100
-0.045999
-0.045898
-0.045797
-0.045696
-0.045594
-0.045492
-0.045391
-0.045289
-0.045187
-0.045084
-0.044982
-0.044880
-0.044777
-0.044674
-0.044572
-0.044469
-0.044366
-0.044262
-0.044159
-0.044056
-0.043952
-0.043848
-0.043745
-0.043641
-0.043537
-0.043432
-0.043328
-0.043224
-0.043119
-0.043014
-0.042910
-0.042805
-0.042700
-0.042594
-0.042489
-0.042384
-0.042278
-0.042173
-0.042067
-0.041961
-0.041855
-0.041749
-0.041642
-0.041536
-0.041430
-0.041323
-0.041216
-0.041109
-0.041003
-0.040895
-0.040788
-0.040681
-0.040574
-0.040466
-0.040358
-0.040251
-0.040143
-0.040035
-0.039927
-0.039818
-0.039710
-0.039602
-0.039493
-0.039385
-0.039276
-0.039167
-0.039058
-0.038949
-0.038840
-0.038730
-0.038621
-0.038511
-0.038402
-0.038292
-0.038182
-0.038072
-0.037962
-0.037852
-0.037742
-0.037631
-0.037521
-0.037410
-0.037299
-0.037188
-0.037078
-0.036966
-0.036855
-0.036744
-0.036633
-0.036521
-0.036410
-0.036298
-0.036186
-0.036074
-0.035963
-0.035850
-0.035738
-0.035626
-0.035514
-0.035401
-0.035289
-0.035176
-0.035063
-0.034950
-0.034837
-0.034724
-0.034611
-0.034498
-0.034385
-0.034271
-0.034158
-0.034044
-0.033930
-0.033816
-0.033702
-0.033588
-0.033474
-0.033360
-0.033246
-0.033131
-0.033017
-0.032902
-0.032788
-0.032673
-0.032558
-0.032443
-0.032328
-0.032213
-0.032098
-0.031983
-0.031867
-0.031752
-0.031636
-0.031521
-0.031405
-0.031289
-0.031173
-0.031057
-0.030941
-0.030825
-0.030709
-0.030593
-0.030476
-0.030360
-0.030243
-0.030127
-0.030010
-0.029893
-0.029776
-0.029659
-0.029542
-0.029425
-0.029308
-0.029191
-0.029073
-0.028956
-0.028838
-0.028721
-0.028603
-0.028485
-0.028367
-0.028249
-0.028132
-0.028013
-0.027895
-0.027777
-0.027659
-0.027540
-0.027422
-0.027304
-0.027185
-0.027066
-0.026948
-0.026829
-0.026710
-0.026591
-0.026472
-0.026353
-0.026234
-0.026114
-0.025995
-0.025876
-0.025756
-0.025637
-0.025517
-0.025398
-0.025278
-0.025158
-0.025038
-0.024918
-0.024798
-0.024678
-0.024558
-0.024438
-0.024318
-0.024198
-0.024077
-0.023957
-0.023836
-0.023716
-0.023595
-0.023474
-0.023354
-0.023233
-0.023112
-0.022991
-0.022870
-0.022749
-0.022628
-0.022507
-0.022386
-0.022264
-0.022143
-0.022022
-0.021900
-0.021779
-0.021657
-0.021536
-0.021414
-0.021292
-0.021170
-0.021049
-0.020927
-0.020805
-0.020683
-0.020561
-0.020439
-0.020316
-0.020194
-0.020072
-0.019950
-0.019827
-0.019705
-0.019582
-0.019460
-0.019337
-0.019215
-0.019092
-0.018969
-0.018847
-0.018724
-0.018601
-0.018478
-0.018355
-0.018232
-0.018109
-0.017986
-0.017863
-0.017740
-0.017617
-0.017493
-0.017370
-0.017247
-0.017123
-0.017000
-0.016876
-0.016753
-0.016629
-0.016506
-0.016382
-0.016259
-0.016135
-0.016011
-0.015887
-0.015763
-0.015640
-0.015516
-0.015392
-0.015268
-0.015144
-0.015020
-0.014896
-0.014772
-0.014647
-0.014523
-0.014399
-0.014275
-0.014150
-0.014026
-0.013902
-0.013777
-0.013653
-0.013529
-0.013404
-0.013280
-0.013155
-0.013030
-0.012906
-0.012781
-0.012657
-0.012532
-0.012407
-0.012282
-0.012158
-0.012033
-0.011908
-0.011783
-0.011658
-0.011533
-0.011408
-0.011283
-0.011158
-0.011033
-0.010908
-0.010783
-0.010658
-0.010533
-0.010408
-0.010283
-0.010157
-0.010032
-0.009907
-0.009782
-0.009656
-0.009531
-0.009406
-0.009280
-0.009155
-0.009030
-0.008904
-0.008779
-0.008653
-0.008528
-0.008402
-0.008277
-0.008151
-0.008026
-0.007900
-0.007774
-0.007649
-0.007523
-0.007398
-0.007272
-0.007146
-0.007021
-0.006895
-0.006769
-0.006643
-0.006518
-0.006392
-0.006266
-0.006140
-0.006014
-0.005889
-0.005763
-0.005637
-0.005511
-0.005385
-0.005259
-0.005133
-0.005008
-0.004882
-0.004756
-0.004630
-0.004504
-0.004378
-0.004252
-0.004126
-0.004000
-0.003874
-0.003748
-0.003622
-0.003496
-0.003370
-0.003244
-0.003118
-0.002992
-0.002865
-0.002739
-0.002613
-0.002487
-0.002361
-0.002235
-0.002109
-0.001983
-0.001857
-0.001731
-0.001604
-0.001478
-0.001352
-0.001226
-0.001100
-0.000974
-0.000848
-0.000721
-0.000595
-0.000469
-0.000343
-0.000217
-0.000091
0.000036
0.000162
0.000288
0.000414
0.000540
0.000667
0.000793
0.000919
0.001045
0.001171
0.001297
0.001424
0.001550
0.001676
0.001802
0.001928
0.002055
0.002181
0.002307
0.002433
0.002559
0.002685
0.002812
0.002938
0.003064
0.003190
0.003316
0.003442
0.003568
0.003695
0.003821
0.003947
0.004073
0.004199
0.004325
0.004451
0.004577
0.004704
0.004830
0.004956
0.005082
0.005208
0.005334
0.005460
0.005586
0.005712
0.005838
0.005964
0.006090
0.006216
0.006342
0.006468
0.006594
0.006720
0.006846
0.006972
0.007098
0.007224
0.007350
0.007476
0.007602
0.007728
0.007854
0.007980
0.008106
0.008231
0.008357
0.008483
0.008609
0.008735
0.008861
0.008986
0.009112
0.009238
0.009364
0.009490
0.009615
0.009741
0.009867
0.009993
0.010118
0.010244
0.010370
0.010495
0.010621
0.010747
0.010872
0.010998
0.011124
0.011249
0.011375
0.011500
0.011626
0.011751
0.011877
0.012002
0.012128
0.012253
0.012379
0.012504
0.012630
0.012755
0.012881
0.013006
0.013132
0.013257
0.013382
0.013508
0.013633
0.013758
0.013884
0.014009
0.014134
0.014259
0.014385
0.014510
0.014635
0.014760
0.014885
0.015011
0.015136
0.015261
0.015386
0.015511
0.015636
0.015761
0.015886
0.016011
0.016136
0.016261
0.016386
0.016511
0.016636
0.016761
0.016886
0.017011
0.017136
0.017261
0.017386
0.017511
0.017635
0.017760
0.017885
0.018010
0.018134
0.018259
0.018384
0.018509
0.018633
0.018758
0.018883
0.019007
0.019132
0.019256
0.019381
0.019506
0.019630
0.019755
0.019879
0.020004
0.020128
0.020252
0.020377
0.020501
0.020626
0.020750
0.020874
0.020999
0.021123
0.021247
0.021372
0.021496
0.021620
0.021744
0.021869
0.021993
0.022117
0.022241
0.022365
0.022489
0.022613
0.022737
0.022862
0.022986
0.023110
0.023234
0.023358
0.023481
0.023605
0.023729
0.023853
0.023977
0.024101
0.024225
0.024349
0.024472
0.024596
0.024720
0.024844
0.024967
0.025091
0.025215
0.025338
0.025462
0.025586
0.025709
0.025833
0.025957
0.026080
0.026204
0.026327
0.026451
0.026574
0.026698
0.026821
0.026944
0.027068
0.027191
0.027315
0.027438
0.027561
0.027684
0.027808
0.027931
0.028054
0.028178
0.028301
0.028424
0.028547
0.028670
0.028793
0.028916
0.029040
0.029163
0.029286
0.029409
0.029532
0.029655
0.029778
0.029901
0.030024
0.030147
0.030269
0.030392
0.030515
0.030638
0.030761
0.030884
0.031007
0.031129
0.031252
0.031375
0.031498
0.031620
0.031743
0.031866
0.031988
0.032111
0.032233
0.032356
0.032479
0.032601
0.032724
0.032846
0.032969
0.033091
0.033214
0.033336
0.033459
0.033581
0.033703
0.033826
0.033948
0.034070
0.034193
0.034315
0.034437
0.034560
0.034682
0.034804
0.034926
0.035049
0.035171
0.035293
0.035415
0.035537
0.035659
0.035781
0.035903
0.036025
0.036148
0.036270
0.036392
0.036514
0.036636
0.036758
0.036879
0.037001
0.037123
0.037245
0.037367
0.037489
0.037611
0.037733
0.037854
0.037976
0.038098
0.038220
0.038342
0.038463
0.038585
0.038707
0.038828
0.038950
0.039072
0.039193
0.039315
0.039437
0.039558
0.039680
0.039801
0.039923
0.040045
0.040166
0.040288
0.040409
0.040531
0.040652
0.040773
0.040895
0.041016
0.041138
0.041259
0.041381
0.041502
0.041623
0.041745
0.041866
0.041987
0.042109
0.042230
0.042351
0.042472
0.042715
0.042836
0.042957
0.043078
0.043199
0.043320
0.043441
0.043562
0.043683
0.043804
0.043925
0.044046
0.044167
0.044288
0.044409
0.044530
0.044651
0.044772
0.044893
0.045014
0.045134
0.045255
0.045376
0.045497
0.045618
0.045739
0.045859
0.045980
0.046101
0.046222
0.046342
0.046463
0.046584
0.046705
0.046825
0.046946
0.047067
0.047187
0.047308
0.047429
0.047549
0.047670
0.047791
0.047911
0.048032
0.048153
0.048273
0.048394
0.048514
0.048635
0.048755
0.048876
0.048996
0.049117
0.049237
0.049358
0.049478
0.049599
0.049719
0.049840
0.049960
0.050081
0.050201
0.050322
0.050442
0.050562
0.050683
0.050803
0.050924
0.051044
0.051164
0.051285
0.051405
0.051525
0.051646
0.051766
0.051886
0.052007
0.052127
0.052247
0.052368
0.052488
0.052608
0.052728
0.052849
0.052969
0.053089
0.053209
0.053330
0.053450
0.053570
0.053690
0.053810
0.053931
0.054051
0.054171
0.054291
0.054411
0.054532
0.054652
0.054772
0.054892
0.055012
0.055132
0.055252
0.055373
0.055493
0.055613
0.055733
0.055853
0.055973
0.056093
0.056213
0.056333
0.056453
0.056574
0.056694
0.056814
0.056934
0.057054
0.057174
0.057294
0.057414
0.057534
0.057654
0.057774
0.057894
0.058014
0.058134
0.058254
0.058374
0.058494
0.058614
0.058734
0.058854
0.058974
0.059094
0.059214
0.059334
0.059454
0.059574
0.059694
0.059814
0.059934
0.060054
0.060174
0.060294
0.060414
0.060534
0.060654
0.060774
0.060894
0.061014
0.061134
0.061254
0.061374
0.061494
0.061613
0.061733
0.061853
0.061973
0.062093
0.062213
0.062333
0.062453
0.062573
0.062693
0.062813
0.062933
0.063053
0.063173
0.063292
0.063412
0.063532
0.063652
0.063772
0.063892
0.064012
0.064132
0.064252
0.064372
0.064492
0.064612
0.064732
0.064851
0.064971
0.065091
0.065211
0.065331
0.065451
0.065571
0.065691
0.065811
0.065931
0.066051
0.066171
0.066291
0.066410
0.066530
0.066650
0.066770
0.066890
0.067010
0.067130
0.067250
0.067370
0.067490
0.067610
0.067730
0.067850
0.067970
0.068090
0.068209
0.068329
0.068449
0.068569
0.068689
0.068809
0.068929
0.069049
0.069169
0.069289
0.069409
0.069529
0.069649
0.069769
0.069889
0.070009
0.070129
0.070249
0.070369
0.070489
0.070609
0.070729
0.070849
0.070969
0.071089
0.071209
0.071329
0.071449
0.071569
0.071689
0.071809
0.071929
0.072049
0.072169
0.072289
0.072409
0.072529
0.072649
0.072769
0.072889
0.073009
0.073129
0.073249
0.073369
0.073489
0.073609
0.073729
0.073850
0.073970
0.074090
0.074210
0.074330
0.074450
0.074570
0.074690
0.074810
0.074930
0.075050
0.075171
0.075291
0.075411
0.075531
0.075651
0.075771
0.075891
0.076012
0.076132
0.076252
0.076372
0.076492
0.076612
0.076732
0.076853
0.076973
0.077093
0.077213
0.077333
0.077454
0.077574
0.077694
0.077814
0.077935
0.078055
0.078175
0.078295
0.078415
0.078536
0.078656
0.078776
0.078896
0.079017
0.079137
0.079257
0.079378
0.079498
0.079618
0.079738
0.079859
0.079979
0.080099
0.080220
0.080340
0.080460
0.080581
0.080701
0.080821
0.080942
0.081062
0.081182
0.081303
0.081423
0.081544
0.081664
0.081784
0.081905
0.082025
0.082146
0.082266
0.082386
0.082507
0.082627
0.082748
0.082868
0.082989
0.083109
0.083229
0.083350
0.083470
0.083591
0.083711
0.083832
0.083952
0.084073
0.084193
0.084314
0.084434
0.084555
0.084675
0.084796
0.084916
0.085037
0.060600
0.060659
0.060473
0.054188
0.054278
0.054363
-0.043801
-0.043738
-0.043923
-0.044001
-0.023061
0.068853
0.069070
0.069115
0.069247
0.058161
0.057968
0.058029
-0.023518
-0.023391
-0.023544
-0.023323
-0.063614
-0.063704
-0.063481
-0.063510
-0.024307
-0.024213
-0.024123
0.023767
0.023576
0.023683
0.023747
-0.039820
-0.040862
-0.048135
-0.049593
0.016796
0.016607
0.016681
0.016664
-0.018534
-0.018931
-0.018592
-0.018609
0.044128
0.043765
0.043394
0.044597
-0.063902
-0.063827
-0.063608
0.020658
0.020635
0.020858
0.020960
0.001033
-0.003921
-0.002735
-0.006842
0.010175
0.010446
0.010552
-0.033986
-0.032386
-0.034054
-0.005611
-0.005488
-0.005789
-0.005655
0.053598
0.054239
0.054175
0.054836
-0.001401
-0.000965
-0.001146
-0.000523
0.018020
0.018211
0.017870
0.018302
0.016791
0.016928
0.016688
0.017040
-0.009136
-0.009167
-0.009333
-0.009431
0.060146
0.060064
0.059839
-0.025274
-0.025628
-0.025383
0.010191
0.059757
0.059535
0.059528
0.059862
0.027533
0.027750
0.027650
-0.000420
-0.000374
-0.000556
0.027735
0.016609
0.015999
0.015781
-0.000227
0.031804
0.031668
0.031380
0.049984
0.050198
0.049949
0.050293
0.030816
0.030938
0.030721
0.031014
0.031304
-0.054920
-0.055169
-0.055041
0.070837
0.070634
0.070971
-0.055279
-0.038373
-0.038535
-0.038691
-0.038224
-0.030918
-0.030775
-0.031282
-0.030931
-0.017299
-0.017670
-0.017402
0.009071
0.009280
0.009015
0.009203
-0.017728
0.027663
0.027821
0.027535
-0.029356
-0.029646
-0.029373
-0.032094
-0.032485
-0.032789
0.027817
0.055083
0.055137
0.054873
-0.049011
-0.048930
-0.048828
0.059004
0.059233
0.059248
0.059045
0.034729
0.034406
0.034536
0.034063
0.001079
-0.000607
0.001124
0.000696
0.026101
0.026795
0.024961
0.027850
-0.046314
-0.046178
-0.046583
-0.045908
0.080161
0.080003
-0.066763
-0.066200
-0.065879
-0.065257
-0.043281
-0.042150
-0.039558
-0.046576
0.082823
0.082885
0.083172
-0.049926
-0.045954
-0.050187
-0.050470
-0.049419
0.057170
0.057128
0.056837
0.022395
0.022279
0.022550
0.022463
0.001630
0.001127
0.001488
-0.064619
-0.064593
-0.064953
-0.064655
0.082936
0.082460
0.083079
0.082310
0.070973
0.071185
0.071410
0.056757
0.034184
0.033945
0.033699
0.033511
-0.007608
-0.007469
-0.007306
-0.007715
-0.013705
-0.014498
-0.016686
0.072456
0.072392
0.071772
0.072025
-0.018352
-0.017890
-0.020113
-0.019166
0.033579
0.033604
0.033384
0.019499
0.020168
0.025784
0.014182
-0.057173
-0.057470
-0.056540
-0.058504
0.076486
0.076665
0.017398
0.017373
0.017498
0.033793
0.002171
0.003056
0.003659
0.004144
-0.031171
-0.031481
-0.031346
-0.031321
-0.030223
-0.034864
-0.033380
-0.030379
-0.006995
-0.006636
-0.007256
-0.007175
-0.037520
-0.036346
-0.035473
-0.034548
0.075377
0.075795
0.076064
0.075357
-0.034486
-0.034433
-0.034325
-0.071443
-0.074482
-0.071552
-0.071853
-0.060708
-0.060879
-0.060909
-0.011197
-0.011240
-0.023478
-0.023512
-0.024992
-0.022137
0.031457
0.029575
0.029834
0.027747
0.004403
0.012088
0.011077
0.009844
0.041201
0.041357
0.040187
0.040188
0.067197
0.065636
0.066158
0.067083
-0.028833
-0.028721
-0.029660
-0.029834
-0.024444
-0.024341
-0.024197
-0.024666
0.045982
0.046705
0.046158
0.046609
0.045315
0.045237
0.046113
-0.005700
-0.005481
-0.005431
-0.005688
0.079442
0.078556
0.079371
0.059804
-0.015114
-0.016784
-0.015939
-0.015836
0.066197
0.066259
0.065868
0.066015
0.012782
0.013017
0.012842
0.013117
0.031467
0.031834
-0.008606
-0.007975
-0.007436
-0.006980
-0.002265
-0.002241
-0.000160
-0.004404
-0.000871
-0.000741
-0.000645
0.073845
0.073593
0.073567
-0.044256
-0.044390
-0.043743
-0.043694
-0.000589
-0.037682
-0.035252
-0.037077
0.067361
0.067674
0.068187
0.068491
0.062991
0.062858
0.062834
0.062623
0.029866
0.029207
0.029037
0.030495
0.025768
0.025547
0.025445
0.025799
0.025635
0.025912
0.032966
0.031991
0.032627
-0.004537
-0.004729
-0.004500
0.018735
0.016223
0.022178
-0.004591
0.042874
0.043369
0.041846
0.036433
0.036712
0.036698
0.036516
0.054530
0.054576
0.054248
-0.037922
-0.033688
0.054810
0.051758
0.051674
0.051536
0.051470
-0.029847
-0.029729
-0.029900
0.066491
0.017907
0.017998
0.017441
0.017352
-0.054290
-0.052558
-0.053192
-0.051756
0.021803
0.021773
0.021581
0.021993
-0.035953
-0.035302
-0.036942
-0.035033
-0.043633
-0.044547
-0.041012
-0.046908
0.046502
0.046397
0.046713
-0.037685
-0.037361
-0.038197
0.023968
0.023911
0.023055
0.022490
0.058141
0.048185
0.047947
0.048178
0.036141
0.037344
0.036333
0.037164
-0.009089
-0.010075
-0.010292
0.047941
0.050864
0.051256
0.050871
0.025598
0.026173
0.026453
0.027031
0.031687
0.029613
-0.018018
-0.018673
-0.017773
-0.019259
-0.049990
-0.052368
-0.052371
-0.048657
-0.037825
-0.038398
0.015664
0.015546
0.016455
0.051080
-0.011053
-0.009041
-0.008256
-0.011578
0.025202
0.027683
0.037811
0.037950
0.037852
-0.037489
-0.036952
-0.036780
0.038082
-0.030174
-0.030121
-0.029979
0.053436
0.053188
0.053333
0.053086
-0.019957
-0.019867
-0.019782
-0.035281
-0.040812
0.009540
0.009486
0.009365
0.056806
0.056760
0.056620
0.056546
0.037982
0.038128
0.038229
0.013800
0.013037
0.012832
0.011731
0.036768
0.036578
0.036659
0.036459
0.032078
0.032172
0.031989
0.050722
0.050891
0.050987
0.036745
0.036504
0.037896
0.051065
-0.045791
-0.045795
-0.045599
0.035546
0.027323
0.026756
0.027588
0.037935
-0.048721
-0.048642
-0.048767
0.019129
0.014992
0.016672
-0.045987
0.047696
0.047705
0.047972
0.068370
0.068465
0.068246
0.068371