# vtk DataFile Version 2.0
Test
ASCII
DATASET POLYDATA
POINTS 20431 float
0.000000 0.000000 0.000000
2.000000 0.000000 0.000000
2.000000 4.000000 0.000000
0.000000 4.000000 0.000000
0.000000 0.500000 0.000000
1.500000 2.000000 0.000000
2.000000 2.500000 0.000000
0.400000 0.000000 0.000000
0.800000 0.000000 0.000000
1.200000 0.000000 0.000000
1.600000 0.000000 0.000000
2.000000 0.362557 0.000000
2.000000 0.672798 0.000000
2.000000 0.938272 0.000000
2.000000 1.165439 0.000000
2.000000 1.359826 0.000000
2.000000 1.526163 0.000000
2.000000 1.668499 0.000000
2.000000 1.790295 0.000000
2.000000 1.894517 0.000000
2.000000 1.983700 0.000000
2.000000 2.060013 0.000000
2.000000 2.125315 0.000000
2.000000 2.181194 0.000000
2.000000 2.229010 0.000000
2.000000 2.269926 0.000000
2.000000 2.304938 0.000000
2.000000 2.334898 0.000000
2.000000 2.360534 0.000000
2.000000 2.382472 0.000000
2.000000 2.401244 0.000000
2.000000 2.417307 0.000000
2.000000 2.431052 0.000000
2.000000 2.442814 0.000000
2.000000 2.452878 0.000000
2.000000 2.461491 0.000000
2.000000 2.468860 0.000000
2.000000 2.475167 0.000000
2.000000 2.480563 0.000000
2.000000 2.485180 0.000000
2.000000 2.489132 0.000000
2.000000 2.492513 0.000000
2.000000 2.495406 0.000000
2.000000 2.497882 0.000000
2.000000 2.502286 0.000000
2.000000 2.505266 0.000000
2.000000 2.509150 0.000000
2.000000 2.514212 0.000000
2.000000 2.520809 0.000000
2.000000 2.529407 0.000000
2.000000 2.540613 0.000000
2.000000 2.555218 0.000000
2.000000 2.574253 0.000000
2.000000 2.599061 0.000000
2.000000 2.631395 0.000000
2.000000 2.673536 0.000000
2.000000 2.728460 0.000000
2.000000 2.800043 0.000000
2.000000 2.893339 0.000000
2.000000 3.014933 0.000000
2.000000 3.173410 0.000000
2.000000 3.379956 0.000000
2.000000 3.649152 0.000000
1.600000 4.000000 0.000000
1.200000 4.000000 0.000000
0.800000 4.000000 0.000000
0.400000 4.000000 0.000000
0.000000 3.624996 0.000000
0.000000 3.289970 0.000000
0.000000 2.990661 0.000000
0.000000 2.723261 0.000000
0.000000 2.484368 0.000000
0.000000 2.270943 0.000000
0.000000 2.080271 0.000000
0.000000 1.909926 0.000000
0.000000 1.757741 0.000000
0.000000 1.621780 0.000000
0.000000 1.500314 0.000000
0.000000 1.391797 0.000000
0.000000 1.294849 0.000000
0.000000 1.208237 0.000000
0.000000 1.130858 0.000000
0.000000 1.061728 0.000000
0.000000 0.999968 0.000000
0.000000 0.944792 0.000000
0.000000 0.895499 0.000000
0.000000 0.851460 0.000000
0.000000 0.812117 0.000000
0.000000 0.776968 0.000000
0.000000 0.745565 0.000000
0.000000 0.717511 0.000000
0.000000 0.692448 0.000000
0.000000 0.670056 0.000000
0.000000 0.650052 0.000000
0.000000 0.632180 0.000000
0.000000 0.616213 0.000000
0.000000 0.601949 0.000000
0.000000 0.589205 0.000000
0.000000 0.577820 0.000000
0.000000 0.567649 0.000000
0.000000 0.558562 0.000000
0.000000 0.550444 0.000000
0.000000 0.543191 0.000000
0.000000 0.536712 0.000000
0.000000 0.530923 0.000000
0.000000 0.525751 0.000000
0.000000 0.521131 0.000000
0.000000 0.517003 0.000000
0.000000 0.513315 0.000000
0.000000 0.510021 0.000000
0.000000 0.507078 0.000000
0.000000 0.504448 0.000000
0.000000 0.502099 0.000000
0.000000 0.497804 0.000000
0.000000 0.494785 0.000000
0.000000 0.490633 0.000000
0.000000 0.484924 0.000000
0.000000 0.477074 0.000000
0.000000 0.466279 0.000000
0.000000 0.451436 0.000000
0.000000 0.431025 0.000000
0.000000 0.402959 0.000000
0.000000 0.364366 0.000000
0.000000 0.311297 0.000000
0.000000 0.238324 0.000000
0.000000 0.137980 0.000000
0.001414 0.501414 0.000000
0.002828 0.502828 0.000000
0.004241 0.504241 0.000000
0.005655 0.505655 0.000000
0.007069 0.507069 0.000000
0.008483 0.508483 0.000000
0.009896 0.509896 0.000000
0.011310 0.511310 0.000000
0.012724 0.512724 0.000000
0.014138 0.514138 0.000000
0.015551 0.515551 0.000000
0.016965 0.516965 0.000000
0.018379 0.518379 0.000000
0.019793 0.519793 0.000000
0.021206 0.521206 0.000000
0.022620 0.522620 0.000000
0.024034 0.524034 0.000000
0.025448 0.525448 0.000000
0.026861 0.526861 0.000000
0.028275 0.528275 0.000000
0.029689 0.529689 0.000000
0.031103 0.531103 0.000000
0.032516 0.532516 0.000000
0.033930 0.533930 0.000000
0.035344 0.535344 0.000000
0.036758 0.536758 0.000000
0.038172 0.538172 0.000000
0.039585 0.539585 0.000000
0.040999 0.540999 0.000000
0.042413 0.542413 0.000000
0.043827 0.543827 0.000000
0.045240 0.545240 0.000000
0.046654 0.546654 0.000000
0.048068 0.548068 0.000000
0.049482 0.549482 0.000000
0.050895 0.550895 0.000000
0.052309 0.552309 0.000000
0.053723 0.553723 0.000000
0.055137 0.555137 0.000000
0.056550 0.556550 0.000000
0.057964 0.557964 0.000000
0.059378 0.559378 0.000000
0.060792 0.560792 0.000000
0.062205 0.562205 0.000000
0.063619 0.563619 0.000000
0.065033 0.565033 0.000000
0.066447 0.566447 0.000000
0.067861 0.567861 0.000000
0.069274 0.569274 0.000000
0.070688 0.570688 0.000000
0.072102 0.572102 0.000000
0.073516 0.573516 0.000000
0.074929 0.574929 0.000000
0.076343 0.576343 0.000000
0.077757 0.577757 0.000000
0.079171 0.579171 0.000000
0.080584 0.580584 0.000000
0.081998 0.581998 0.000000
0.083412 0.583412 0.000000
0.084826 0.584826 0.000000
0.086239 0.586239 0.000000
0.087653 0.587653 0.000000
0.089067 0.589067 0.000000
0.090481 0.590481 0.000000
0.091894 0.591894 0.000000
0.093308 0.593308 0.000000
0.094722 0.594722 0.000000
0.096136 0.596136 0.000000
0.097549 0.597549 0.000000
0.098963 0.598963 0.000000
0.100377 0.600377 0.000000
0.101791 0.601791 0.000000
0.103205 0.603205 0.000000
0.104618 0.604618 0.000000
0.106032 0.606032 0.000000
0.107446 0.607446 0.000000
0.108860 0.608860 0.000000
0.110273 0.610273 0.000000
0.111687 0.611687 0.000000
0.113101 0.613101 0.000000
0.114515 0.614515 0.000000
0.115928 0.615928 0.000000
0.117342 0.617342 0.000000
0.118756 0.618756 0.000000
0.120170 0.620170 0.000000
0.121583 0.621583 0.000000
0.122997 0.622997 0.000000
0.124411 0.624411 0.000000
0.125825 0.625825 0.000000
0.127238 0.627238 0.000000
0.128652 0.628652 0.000000
0.130066 0.630066 0.000000
0.131480 0.631480 0.000000
0.132893 0.632893 0.000000
0.134307 0.634307 0.000000
0.135721 0.635721 0.000000
0.137135 0.637135 0.000000
0.138549 0.638549 0.000000
0.139962 0.639962 0.000000
0.141376 0.641376 0.000000
0.142790 0.642790 0.000000
0.144204 0.644204 0.000000
0.145617 0.645617 0.000000
0.147031 0.647031 0.000000
0.148445 0.648445 0.000000
0.149859 0.649859 0.000000
0.151272 0.651272 0.000000
0.152686 0.652686 0.000000
0.154100 0.654100 0.000000
0.155514 0.655514 0.000000
0.156927 0.656927 0.000000
0.158341 0.658341 0.000000
0.159755 0.659755 0.000000
0.161169 0.661169 0.000000
0.162582 0.662582 0.000000
0.163996 0.663996 0.000000
0.165410 0.665410 0.000000
0.166824 0.666824 0.000000
0.168238 0.668238 0.000000
0.169651 0.669651 0.000000
0.171065 0.671065 0.000000
0.172479 0.672479 0.000000
0.173893 0.673893 0.000000
0.175306 0.675306 0.000000
0.176720 0.676720 0.000000
0.178134 0.678134 0.000000
0.179548 0.679548 0.000000
0.180961 0.680961 0.000000
0.182375 0.682375 0.000000
0.183789 0.683789 0.000000
0.185203 0.685203 0.000000
0.186616 0.686616 0.000000
0.188030 0.688030 0.000000
0.189444 0.689444 0.000000
0.190858 0.690858 0.000000
0.192271 0.692271 0.000000
0.193685 0.693685 0.000000
0.195099 0.695099 0.000000
0.196513 0.696513 0.000000
0.197926 0.697926 0.000000
0.199340 0.699340 0.000000
0.200754 0.700754 0.000000
0.202168 0.702168 0.000000
0.203582 0.703582 0.000000
0.204995 0.704995 0.000000
0.206409 0.706409 0.000000
0.207823 0.707823 0.000000
0.209237 0.709237 0.000000
0.210650 0.710650 0.000000
0.212064 0.712064 0.000000
0.213478 0.713478 0.000000
0.214892 0.714892 0.000000
0.216305 0.716305 0.000000
0.217719 0.717719 0.000000
0.219133 0.719133 0.000000
0.220547 0.720547 0.000000
0.221960 0.721960 0.000000
0.223374 0.723374 0.000000
0.224788 0.724788 0.000000
0.226202 0.726202 0.000000
0.227615 0.727615 0.000000
0.229029 0.729029 0.000000
0.230443 0.730443 0.000000
0.231857 0.731857 0.000000
0.233270 0.733270 0.000000
0.234684 0.734684 0.000000
0.236098 0.736098 0.000000
0.237512 0.737512 0.000000
0.238926 0.738926 0.000000
0.240339 0.740339 0.000000
0.241753 0.741753 0.000000
0.243167 0.743167 0.000000
0.244581 0.744581 0.000000
0.245994 0.745994 0.000000
0.247408 0.747408 0.000000
0.248822 0.748822 0.000000
0.250236 0.750236 0.000000
0.251649 0.751649 0.000000
0.253063 0.753063 0.000000
0.254477 0.754477 0.000000
0.255891 0.755891 0.000000
0.257304 0.757304 0.000000
0.258718 0.758718 0.000000
0.260132 0.760132 0.000000
0.261546 0.761546 0.000000
0.262959 0.762959 0.000000
0.264373 0.764373 0.000000
0.265787 0.765787 0.000000
0.267201 0.767201 0.000000
0.268615 0.768615 0.000000
0.270028 0.770028 0.000000
0.271442 0.771442 0.000000
0.272856 0.772856 0.000000
0.274270 0.774270 0.000000
0.275683 0.775683 0.000000
0.277097 0.777097 0.000000
0.278511 0.778511 0.000000
0.279925 0.779925 0.000000
0.281338 0.781338 0.000000
0.282752 0.782752 0.000000
0.284166 0.784166 0.000000
0.285580 0.785580 0.000000
0.286993 0.786993 0.000000
0.288407 0.788407 0.000000
0.289821 0.789821 0.000000
0.291235 0.791235 0.000000
0.292648 0.792648 0.000000
0.294062 0.794062 0.000000
0.295476 0.795476 0.000000
0.296890 0.796890 0.000000
0.298303 0.798303 0.000000
0.299717 0.799717 0.000000
0.301131 0.801131 0.000000
0.302545 0.802545 0.000000
0.303959 0.803959 0.000000
0.305372 0.805372 0.000000
0.306786 0.806786 0.000000
0.308200 0.808200 0.000000
0.309614 0.809614 0.000000
0.311027 0.811027 0.000000
0.312441 0.812441 0.000000
0.313855 0.813855 0.000000
0.315269 0.815269 0.000000
0.316682 0.816682 0.000000
0.318096 0.818096 0.000000
0.319510 0.819510 0.000000
0.320924 0.820924 0.000000
0.322337 0.822337 0.000000
0.323751 0.823751 0.000000
0.325165 0.825165 0.000000
0.326579 0.826579 0.000000
0.327992 0.827992 0.000000
0.329406 0.829406 0.000000
0.330820 0.830820 0.000000
0.332234 0.832234 0.000000
0.333648 0.833648 0.000000
0.335061 0.835061 0.000000
0.336475 0.836475 0.000000
0.337889 0.837889 0.000000
0.339303 0.839303 0.000000
0.340716 0.840716 0.000000
[...]
POINT_DATA 20431
SCALARS UX float 1
LOOKUP_TABLE default
-0.000000
0.000000
0.050535
-0.052711
-0.041222
0.025449
0.050880
-0.000000
-0.000000
0.000000
-0.000000
0.034465
0.045126
0.049275
0.050788
0.051333
0.051488
0.051470
0.051408
0.051335
0.051263
0.051201
0.051148
0.051104
0.051066
0.051035
0.051009
0.050988
0.050970
0.050955
0.050943
0.050932
0.050923
0.050916
0.050909
0.050904
0.050899
0.050895
0.050892
0.050889
0.050887
0.050885
0.050883
0.050882
0.050879
0.050877
0.050875
0.050872
0.050868
0.050863
0.050857
0.050848
0.050838
0.050825
0.050807
0.050787
0.050761
0.050731
0.050695
0.050657
0.050618
0.050577
0.050548
0.029868
0.009210
-0.011437
-0.032076
-0.052710
-0.052710
-0.052720
-0.052746
-0.052792
-0.052849
-0.052912
-0.052961
-0.052972
-0.052933
-0.052841
-0.052682
-0.052444
-0.052136
-0.051763
-0.051335
-0.050859
-0.050345
-0.049807
-0.049253
-0.048695
-0.048137
-0.047594
-0.047059
-0.046549
-0.046063
-0.045600
-0.045167
-0.044761
-0.044384
-0.044035
-0.043712
-0.043416
-0.043145
-0.042896
-0.042670
-0.042464
-0.042277
-0.042107
-0.041953
-0.041814
-0.041688
-0.041575
-0.041472
-0.041380
-0.041297
-0.041144
-0.041034
-0.040883
-0.040672
-0.040376
-0.039961
-0.039356
-0.038490
-0.037210
-0.035215
-0.032131
-0.027254
-0.018631
-0.041207
-0.041193
-0.041177
-0.041162
-0.041146
-0.041130
-0.041113
-0.041097
-0.041080
-0.041062
-0.041045
-0.041027
-0.041009
-0.040990
-0.040971
-0.040952
-0.040933
-0.040914
-0.040894
-0.040874
-0.040854
-0.040833
-0.040812
-0.040791
-0.040770
-0.040749
-0.040727
-0.040705
-0.040683
-0.040660
-0.040638
-0.040615
-0.040592
-0.040569
-0.040545
-0.040522
-0.040498
-0.040474
-0.040449
-0.040425
-0.040400
-0.040375
-0.040350
-0.040325
-0.040299
-0.040274
-0.040248
-0.040222
-0.040195
-0.040169
-0.040142
-0.040115
-0.040088
-0.040061
-0.040034
-0.040006
-0.039979
-0.039951
-0.039923
-0.039894
-0.039866
-0.039838
-0.039809
-0.039780
-0.039751
-0.039722
-0.039693
-0.039663
-0.039634
-0.039604
-0.039574
-0.039544
-0.039514
-0.039483
-0.039453
-0.039422
-0.039391
-0.039360
-0.039329
-0.039298
-0.039266
-0.039234
-0.039202
-0.039170
-0.039138
-0.039106
-0.039073
-0.039041
-0.039008
-0.038975
-0.038942
-0.038909
-0.038876
-0.038842
-0.038808
-0.038775
-0.038741
-0.038707
-0.038672
-0.038638
-0.038603
-0.038569
-0.038534
-0.038499
-0.038464
-0.038428
-0.038393
-0.038357
-0.038321
-0.038285
-0.038249
-0.038213
-0.038177
-0.038140
-0.038104
-0.038067
-0.038030
-0.037993
-0.037955
-0.037918
-0.037880
-0.037843
-0.037805
-0.037767
-0.037729
-0.037690
-0.037652
-0.037613
-0.037574
-0.037536
-0.037497
-0.037457
-0.037418
-0.037379
-0.037339
-0.037299
-0.037259
-0.037219
-0.037179
-0.037139
-0.037099
-0.037058
-0.037017
-0.036976
-0.036935
-0.036894
-0.036853
-0.036811
-0.036770
-0.036728
-0.036686
-0.036644
-0.036602
-0.036560
-0.036517
-0.036475
-0.036432
-0.036389
-0.036346
-0.036303
-0.036260
-0.036217
-0.036173
-0.036130
-0.036086
-0.036042
-0.035998
-0.035954
-0.035910
-0.035865
-0.035821
-0.035776
-0.035731
-0.035686
-0.035641
-0.035596
-0.035551
-0.035505
-0.035460
-0.035414
-0.035368
-0.035322
-0.035276
-0.035230
-0.035184
-0.035138
-0.035091
-0.035044
-0.034998
-0.034951
-0.034904
-0.034857
-0.034810
-0.034762
-0.034715
-0.034667
-0.034620
-0.034572
-0.034524
-0.034476
-0.034428
-0.034379
-0.034331
-0.034282
-0.034234
-0.034185
-0.034136
-0.034087
-0.034038
-0.033989
-0.033940
-0.033890
-0.033841
-0.033791
-0.033742
-0.033692
-0.033642
-0.033592
-0.033542
-0.033491
-0.033441
-0.033390
-0.033340
-0.033289
-0.033238
-0.033187
-0.033136
-0.033085
-0.033034
-0.032983
-0.032931
-0.032880
-0.032828
-0.032776
-0.032724
-0.032672
-0.032620
-0.032568
-0.032516
-0.032463
-0.032411
-0.032358
-0.032306
-0.032253
-0.032200
-0.032147
-0.032094
-0.032041
-0.031987
-0.031934
-0.031881
-0.031827
-0.031773
-0.031719
-0.031666
-0.031612
-0.031558
-0.031503
-0.031449
-0.031395
-0.031340
-0.031286
-0.031231
-0.031176
-0.031121
-0.031066
-0.031011
-0.030956
-0.030901
-0.030846
-0.030790
-0.030735
-0.030679
-0.030623
-0.030568
-0.030512
-0.030456
-0.030400
-0.030344
-0.030287
-0.030231
-0.030174
-0.030118
-0.030061
-0.030005
-0.029948
-0.029891
-0.029834
-0.029777
-0.029720
-0.029662
-0.029605
-0.029548
-0.029490
-0.029432
-0.029375
-0.029317
-0.029259
-0.029201
-0.029143
-0.029085
-0.029027
-0.028968
-0.028910
-0.028852
-0.028793
-0.028734
-0.028676
-0.028617
-0.028558
-0.028499
-0.028440
-0.028381
-0.028321
-0.028262
-0.028203
-0.028143
-0.028084
-0.028024
-0.027964
-0.027905
-0.027845
-0.027785
-0.027725
-0.027665
-0.027604
-0.027544
-0.027484
-0.027423
-0.027363
-0.027302
-0.027242
-0.027181
-0.027120
-0.027059
-0.026998
-0.026937
-0.026876
-0.026815
-0.026754
-0.026692
-0.026631
-0.026569
-0.026508
-0.026446
-0.026384
-0.026323
-0.026261
-0.026199
-0.026137
-0.026075
-0.026012
-0.025950
-0.025888
-0.025825
-0.025763
-0.025700
-0.025638
-0.025575
-0.025512
-0.025450
-0.025387
-0.025324
-0.025261
-0.025197
-0.025134
-0.025071
-0.025008
-0.024944
-0.024881
-0.024817
-0.024754
-0.024690
-0.024626
-0.024562
-0.024498
-0.024434
-0.024370
-0.024306
-0.024242
-0.024178
-0.024113
-0.024049
-0.023985
-0.023920
-0.023856
-0.023791
-0.023726
-0.023661
-0.023597
-0.023532
-0.023467
-0.023402
-0.023336
-0.023271
-0.023206
-0.023141
-0.023075
-0.023010
-0.022944
-0.022879
-0.022813
-0.022747
-0.022682
-0.022616
-0.022550
-0.022484
-0.022418
-0.022352
-0.022286
-0.022220
-0.022153
-0.022087
-0.022021
-0.021954
-0.021888
-0.021821
-0.021754
-0.021688
-0.021621
-0.021554
-0.021487
-0.021420
-0.021353
-0.021286
-0.021219
-0.021152
-0.021084
-0.021017
-0.020950
-0.020882
-0.020815
-0.020747
-0.020680
-0.020612
-0.020544
-0.020476
-0.020409
-0.020341
-0.020273
-0.020205
-0.020137
-0.020069
-0.020000
-0.019932
-0.019864
-0.019796
-0.019727
-0.019659
-0.019590
-0.019522
-0.019453
-0.019384
-0.019316
-0.019247
-0.019178
-0.019109
-0.019040
-0.018971
-0.018902
-0.018833
-0.018764
-0.018695
-0.018626
-0.018556
-0.018487
-0.018418
-0.018348
-0.018279
-0.018209
-0.018139
-0.018070
-0.018000
-0.017930
-0.017861
-0.017791
-0.017721
-0.017651
-0.017581
-0.017511
-0.017441
-0.017371
-0.017301
-0.017230
-0.017160
-0.017090
-0.017019
-0.016949
-0.016879
-0.016808
-0.016738
-0.016667
-0.016596
-0.016526
-0.016455
-0.016384
-0.016313
-0.016243
-0.016172
-0.016101
-0.016030
-0.015959
-0.015888
-0.015817
-0.015745
-0.015674
-0.015603
-0.015532
-0.015460
-0.015389
-0.015318
-0.015246
-0.015175
-0.015103
-0.015032
-0.014960
-0.014888
-0.014817
-0.014745
-0.014673
-0.014601
-0.014530
-0.014458
-0.014386
-0.014314
-0.014242
-0.014170
-0.014098
-0.014026
-0.013953
-0.013881
-0.013809
-0.013737
-0.013665
-0.013592
-0.013520
-0.013448
-0.013375
-0.013303
-0.013230
-0.013158
-0.013085
-0.013012
-0.012940
-0.012867
-0.012794
-0.012722
-0.012649
-0.012576
-0.012503
-0.012430
-0.012358
-0.012285
-0.012212
-0.012139
-0.012066
-0.011993
-0.011920
-0.011846
-0.011773
-0.011700
-0.011627
-0.011554
-0.011480
-0.011407
-0.011334
-0.011261
-0.011187
-0.011114
-0.011040
-0.010967
-0.010893
-0.010820
-0.010746
-0.010673
-0.010599
-0.010526
-0.010452
-0.010378
-0.010305
-0.010231
-0.010157
-0.010083
-0.010010
-0.009936
-0.009862
-0.009788
-0.009714
-0.009640
-0.009566
-0.009492
-0.009418
-0.009344
-0.009270
-0.009196
-0.009122
-0.009048
-0.008974
-0.008900
-0.008826
-0.008752
-0.008677
-0.008603
-0.008529
-0.008455
-0.008380
-0.008306
-0.008232
-0.008157
-0.008083
-0.008009
-0.007934
-0.007860
-0.007785
-0.007711
-0.007637
-0.007562
-0.007488
-0.007413
-0.007338
-0.007264
-0.007189
-0.007115
-0.007040
-0.006966
-0.006891
-0.006816
-0.006742
-0.006667
-0.006592
-0.006517
-0.006443
-0.006368
-0.006293
-0.006218
-0.006144
-0.006069
-0.005994
-0.005919
-0.005844
-0.005770
-0.005695
-0.005620
-0.005545
-0.005470
-0.005395
-0.005320
-0.005245
-0.005170
-0.005095
-0.005020
-0.004945
-0.004870
-0.004795
-0.004720
-0.004645
-0.004570
-0.004495
-0.004420
-0.004345
-0.004270
-0.004195
-0.004120
-0.004044
-0.003969
-0.003894
-0.003819
-0.003744
-0.003669
-0.003594
-0.003518
-0.003443
-0.003368
-0.003293
-0.003218
-0.003142
-0.003067
-0.002992
-0.002917
-0.002841
-0.002766
-0.002691
-0.002616
-0.002540
-0.002465
-0.002390
-0.002315
-0.002239
-0.002164
-0.002089
-0.002013
-0.001938
-0.001863
-0.001787
-0.001712
-0.001637
-0.001561
-0.001486
-0.001411
-0.001335
-0.001260
-0.001185
-0.001109
-0.001034
-0.000959
-0.000883
-0.000808
-0.000733
-0.000657
-0.000582
-0.000506
-0.000431
-0.000356
-0.000280
-0.000205
-0.000129
-0.000054
0.000021
0.000097
0.000172
0.000247
0.000323
0.000398
0.000474
0.000549
0.000624
0.000700
0.000775
0.000851
0.000926
0.001001
0.001077
0.001152
0.001228
0.001303
0.001378
0.001454
0.001529
0.001604
0.001680
0.001755
0.001831
0.001906
0.001981
0.002057
0.002132
0.002207
0.002283
0.002358
0.002434
0.002509
0.002584
0.002660
0.002735
0.002810
0.002886
0.002961
0.003036
0.003112
0.003187
0.003262
0.003338
0.003413
0.003488
0.003564
0.003639
0.003714
0.003789
0.003865
0.003940
0.004015
0.004091
0.004166
0.004241
0.004316
0.004392
0.004467
0.004542
0.004617
0.004693
0.004768
0.004843
0.004918
0.004993
0.005069
0.005144
0.005219
0.005294
0.005369
0.005444
0.005520
0.005595
0.005670
0.005745
0.005820
0.005895
0.005970
0.006046
0.006121
0.006196
0.006271
0.006346
0.006421
0.006496
0.006571
0.006646
0.006721
0.006796
0.006871
0.006946
0.007021
0.007096
0.007171
0.007246
0.007321
0.007396
0.007471
0.007546
0.007621
0.007696
0.007771
0.007846
0.007921
0.007996
0.008071
0.008145
0.008220
0.008295
0.008370
0.008445
0.008520
0.008595
0.008669
0.008744
0.008819
0.008894
0.008969
0.009043
0.009118
0.009193
0.009268
0.009342
0.009417
0.009492
0.009567
0.009641
0.009716
0.009791
0.009865
0.009940
0.010015
0.010089
0.010164
0.010238
0.010313
0.010388
0.010462
0.010537
0.010611
0.010686
0.010761
0.010835
0.010910
0.010984
0.011059
0.011133
0.011208
0.011282
0.011357
0.011431
0.011505
0.011580
0.011654
0.011729
0.011803
0.011877
0.011952
0.012026
0.012101
0.012175
0.012249
0.012324
0.012398
0.012472
0.012546
0.012621
0.012695
0.012769
0.012843
0.012918
0.012992
0.013066
0.013140
0.013215
0.013289
0.013363
0.013437
0.013511
0.013585
0.013659
0.013733
0.013808
0.013882
0.013956
0.014030
0.014104
0.014178
0.014252
0.014326
0.014400
0.014474
0.014548
0.014622
0.014696
0.014770
0.014844
0.014918
0.014992
0.015065
0.015139
0.015213
0.015287
0.015361
0.015435
0.015509
0.015582
0.015656
0.015730
0.015804
0.015878
0.015951
0.016025
0.016099
0.016173
0.016246
0.016320
0.016394
0.016467
0.016541
0.016615
0.016688
0.016762
0.016836
0.016909
0.016983
0.017056
0.017130
0.017204
0.017277
0.017351
0.017424
0.017498
0.017571
0.017645
0.017718
0.017792
0.017865
0.017939
0.018012
0.018086
0.018159
0.018232
0.018306
0.018379
0.018453
0.018526
0.018599
0.018673
0.018746
0.018819
0.018893
0.018966
0.019039
0.019112
0.019186
0.019259
0.019332
0.019405
0.019479
0.019552
0.019625
0.019698
0.019771
0.019845
0.019918
0.019991
0.020064
0.020137
0.020210
0.020283
0.020357
0.020430
0.020503
0.020576
0.020649
0.020722
0.020795
0.020868
0.020941
0.021014
0.021087
0.021160
0.021233
0.021306
0.021379
0.021452
0.021525
0.021598
0.021670
0.021743
0.021816
0.021889
0.021962
0.022035
0.022108
0.022181
0.022253
0.022326
0.022399
0.022472
0.022545
0.022617
0.022690
0.022763
0.022836
0.022908
0.022981
0.023054
0.023127
0.023199
0.023272
0.023345
0.023417
0.023490
0.023563
0.023635
0.023708
0.023781
0.023853
0.023926
0.023999
0.024071
0.024144
0.024216
0.024289
0.024362
0.024434
0.024507
0.024579
0.024652
0.024724
0.024797
0.024869
0.024942
0.025014
0.025087
0.025159
0.025232
0.025304
0.025377
0.025521
0.025594
0.025666
0.025738
0.025811
0.025883
0.025955
0.026028
0.026100
0.026172
0.026245
0.026317
0.026389
0.026461
0.026534
0.026606
0.026678
0.026750
0.026823
0.026895
0.026967
0.027039
0.027112
0.027184
0.027256
0.027328
0.027400
0.027472
0.027545
0.027617
0.027689
0.027761
0.027833
0.027905
0.027977
0.028050
0.028122
0.028194
0.028266
0.028338
0.028410
0.028482
0.028554
0.028626
0.028698
0.028770
0.028842
0.028914
0.028986
0.029059
0.029131
0.029203
0.029275
0.029347
0.029419
0.029491
0.029563
0.029635
0.029707
0.029779
0.029850
0.029922
0.029994
0.030066
0.030138
0.030210
0.030282
0.030354
0.030426
0.030498
0.030570
0.030642
0.030714
0.030786
0.030857
0.030929
0.031001
0.031073
0.031145
0.031217
0.031289
0.031361
0.031433
0.031504
0.031576
0.031648
0.031720
0.031792
0.031864
0.031935
0.032007
0.032079
0.032151
0.032223
0.032295
0.032366
0.032438
0.032510
0.032582
0.032654
0.032725
0.032797
0.032869
0.032941
0.033012
0.033084
0.033156
0.033228
0.033300
0.033371
0.033443
0.033515
0.033587
0.033658
0.033730
0.033802
0.033874
0.033945
0.034017
0.034089
0.034161
0.034232
0.034304
0.034376
0.034447
0.034519
0.034591
0.034663
0.034734
0.034806
0.034878
0.034949
0.035021
0.035093
0.035164
0.035236
0.035308
0.035380
0.035451
0.035523
0.035595
0.035666
0.035738
0.035810
0.035881
0.035953
0.036025
0.036096
0.036168
0.036240
0.036311
0.036383
0.036455
0.036526
0.036598
0.036670
0.036741
0.036813
0.036885
0.036956
0.037028
0.037100
0.037171
0.037243
0.037315
0.037386
0.037458
0.037530
0.037601
0.037673
0.037745
0.037816
0.037888
0.037960
0.038031
0.038103
0.038175
0.038246
0.038318
0.038389
0.038461
0.038533
0.038604
0.038676
0.038748
0.038819
0.038891
0.038963
0.039034
0.039106
0.039178
0.039249
0.039321
0.039393
0.039464
0.039536
0.039608
0.039679
0.039751
0.039823
0.039894
0.039966
0.040037
0.040109
0.040181
0.040252
0.040324
0.040396
0.040467
0.040539
0.040611
0.040682
0.040754
0.040826
0.040897
0.040969
0.041041
0.041112
0.041184
0.041256
0.041327
0.041399
0.041471
0.041542
0.041614
0.041686
0.041758
0.041829
0.041901
0.041973
0.042044
0.042116
0.042188
0.042259
0.042331
0.042403
0.042474
0.042546
0.042618
0.042690
0.042761
0.042833
0.042905
0.042976
0.043048
0.043120
0.043191
0.043263
0.043335
0.043407
0.043478
0.043550
0.043622
0.043694
0.043765
0.043837
0.043909
0.043980
0.044052
0.044124
0.044196
0.044267
0.044339
0.044411
0.044483
0.044554
0.044626
0.044698
0.044770
0.044841
0.044913
0.044985
0.045057
0.045129
0.045200
0.045272
0.045344
0.045416
0.045487
0.045559
0.045631
0.045703
0.045775
0.045846
0.045918
0.045990
0.046062
0.046134
0.046206
0.046277
0.046349
0.046421
0.046493
0.046565
0.046636
0.046708
0.046780
0.046852
0.046924
0.046996
0.047068
0.047139
0.047211
0.047283
0.047355
0.047427
0.047499
0.047571
0.047642
0.047714
0.047786
0.047858
0.047930
0.048002
0.048074
0.048146
0.048218
0.048290
0.048361
0.048433
0.048505
0.048577
0.048649
0.048721
0.048793
0.048865
0.048937
0.049009
0.049081
0.049153
0.049225
0.049297
0.049368
0.049440
0.049512
0.049584
0.049656
0.049728
0.049800
0.049872
0.049944
0.050016
0.050088
0.050160
0.050232
0.050304
0.050376
0.050448
0.050520
0.050592
0.050664
0.050736
0.050808
0.036208
0.036243
0.036132
0.032377
0.032430
0.032481
-0.026171
-0.026133
-0.026243
-0.026290
-0.013779
0.041138
0.041268
0.041295
0.041374
0.034750
0.034635
0.034671
-0.014052
-0.013976
-0.014067
-0.013935
-0.038008
-0.038062
-0.037929
-0.037946
-0.014523
-0.014467
-0.014413
0.014200
0.014086
0.014151
0.014189
-0.023792
-0.024415
-0.028760
-0.029631
0.010036
0.009922
0.009967
0.009956
-0.011074
-0.011311
-0.011108
-0.011119
0.026366
0.026149
0.025927
0.026646
-0.038180
-0.038136
-0.038004
0.012343
0.012329
0.012462
0.012523
0.000617
-0.002343
-0.001634
-0.004088
0.006079
0.006241
0.006305
-0.020306
-0.019350
-0.020347
-0.003352
-0.003279
-0.003459
-0.003379
0.032024
0.032407
0.032369
0.032764
-0.000837
-0.000577
-0.000685
-0.000313
0.010766
0.010881
0.010677
0.010935
0.010032
0.010114
0.009971
0.010181
-0.005458
-0.005477
-0.005576
-0.005635
0.035936
0.035887
0.035753
-0.015101
-0.015312
-0.015166
0.006089
0.035704
0.035571
0.035567
0.035767
0.016450
0.016580
0.016521
-0.000251
-0.000223
-0.000332
0.016571
0.009924
0.009559
0.009429
-0.000136
0.019002
0.018921
0.018749
0.029864
0.029993
0.029844
0.030050
0.018412
0.018485
0.018355
0.018530
0.018704
-0.032814
-0.032963
-0.032886
0.042324
0.042203
0.042404
-0.033028
-0.022927
-0.023024
-0.023117
-0.022838
-0.018473
-0.018388
-0.018691
-0.018481
-0.010336
-0.010557
-0.010398
0.005419
0.005545
0.005386
0.005498
-0.010592
0.016528
0.016623
0.016452
-0.017540
-0.017713
-0.017550
-0.019176
-0.019409
-0.019591
0.016620
0.032911
0.032944
0.032786
-0.029283
-0.029235
-0.029174
0.035254
0.035391
0.035400
0.035278
0.020750
0.020557
0.020635
0.020352
0.000645
-0.000362
0.000671
0.000416
0.015595
0.016010
0.014914
0.016640
-0.027672
-0.027590
-0.027833
-0.027430
0.047895
0.047800
-0.039890
-0.039554
-0.039362
-0.038990
-0.025859
-0.025184
-0.023636
-0.027828
0.049486
0.049522
0.049694
-0.029830
-0.027457
-0.029986
-0.030155
-0.029527
0.034158
0.034133
0.033959
0.013380
0.013311
0.013473
0.013421
0.000974
0.000673
0.000889
-0.038609
-0.038593
-0.038808
-0.038630
0.049553
0.049268
0.049639
0.049179
0.042405
0.042532
0.042666
0.033911
0.020424
0.020282
0.020135
0.020022
-0.004546
-0.004463
-0.004365
-0.004610
-0.008189
-0.008662
-0.009970
0.043291
0.043253
0.042883
0.043034
-0.010965
-0.010689
-0.012017
-0.011451
0.020063
0.020078
0.019947
0.011650
0.012050
0.015405
0.008474
-0.034160
-0.034337
-0.033782
-0.034955
0.045699
0.045806
0.010395
0.010380
0.010455
0.020191
0.001297
0.001826
0.002186
0.002476
-0.018624
-0.018809
-0.018729
-0.018714
-0.018058
-0.020831
-0.019944
-0.018151
-0.004180
-0.003965
-0.004335
-0.004287
-0.022418
-0.021716
-0.021195
-0.020642
0.045037
0.045286
0.045447
0.045025
-0.020605
-0.020573
-0.020508
-0.042686
-0.044502
-0.042751
-0.042931
-0.036272
-0.036374
-0.036392
-0.006690
-0.006716
-0.014028
-0.014048
-0.014932
-0.013227
0.018795
0.017671
0.017825
0.016578
0.002631
0.007223
0.006618
0.005882
0.024617
0.024710
0.024011
0.024012
0.040149
0.039217
0.039528
0.040081
-0.017227
-0.017161
-0.017721
-0.017826
-0.014605
-0.014544
-0.014457
-0.014738
0.027474
0.027906
0.027578
0.027848
0.027075
0.027028
0.027552
-0.003406
-0.003275
-0.003245
-0.003399
0.047465
0.046936
0.047423
0.035732
-0.009030
-0.010028
-0.009523
-0.009462
0.039551
0.039589
0.039355
0.039443
0.007637
0.007777
0.007673
0.007837
0.018801
0.019020
-0.005142
-0.004765
-0.004443
-0.004171
-0.001354
-0.001339
-0.000096
-0.002631
-0.000521
-0.000443
-0.000385
0.044122
0.043970
0.043955
-0.026442
-0.026522
-0.026136
-0.026107
-0.000352
-0.022515
-0.021063
-0.022153
0.040247
0.040434
0.040741
0.040922
0.037636
0.037557
0.037542
0.037416
0.017844
0.017451
0.017349
0.018221
0.015396
0.015264
0.015203
0.015415
0.015317
0.015482
0.019697
0.019114
0.019494
-0.002711
-0.002825
-0.002689
0.011194
0.009693
0.013251
-0.002743
0.025616
0.025912
0.025003
0.021768
0.021935
0.021926
0.021818
0.032581
0.032608
0.032412
-0.022658
-0.020128
0.032748
0.030925
0.030875
0.030792
0.030753
-0.017833
-0.017763
-0.017864
0.039727
0.010699
0.010754
0.010421
0.010367
-0.032437
-0.031402
-0.031781
-0.030924
0.013027
0.013009
0.012894
0.013141
-0.021481
-0.021093
-0.022072
-0.020932
-0.026070
-0.026616
-0.024504
-0.028027
0.027784
0.027722
0.027911
-0.022516
-0.022323
-0.022822
0.014321
0.014287
0.013775
0.013437
0.034738
0.028790
0.028648
0.028786
0.021594
0.022312
0.021708
0.022205
-0.005431
-0.006020
-0.006150
0.028644
0.030390
0.030625
0.030394
0.015294
0.015638
0.015806
0.016151
0.018933
0.017693
-0.010766
-0.011157
-0.010619
-0.011507
-0.029868
-0.031289
-0.031291
-0.029072
-0.022600
-0.022942
0.009359
0.009289
0.009832
0.030520
-0.006604
-0.005402
-0.004933
-0.006917
0.015058
0.016540
0.022591
0.022674
0.022616
-0.022399
-0.022078
-0.021976
0.022753
-0.018028
-0.017997
-0.017912
0.031927
0.031779
0.031866
0.031718
-0.011924
-0.011870
-0.011819
-0.021080
-0.024384
0.005700
0.005668
0.005596
0.033941
0.033913
0.033830
0.033786
0.022694
0.022781
0.022841
0.008245
0.007789
0.007667
0.007009
0.021968
0.021855
0.021903
0.021784
0.019166
0.019222
0.019113
0.030306
0.030407
0.030464
0.021955
0.021811
0.022642
0.030511
-0.027359
-0.027362
-0.027245
0.021238
0.016325
0.015986
0.016483
0.022666
-0.029110
-0.029063
-0.029138
0.011429
0.008958
0.009962
-0.027477
0.028497
0.028503
0.028662
0.040850
0.040907
0.040776
0.040850