# vtk DataFile Version 2.0
Test
ASCII
DATASET POLYDATA
POINTS 20431 float
0.000000 0.000000 0.000000
2.000000 0.000000 0.000000
2.000000 4.000000 0.000000
0.000000 4.000000 0.000000
0.000000 0.500000 0.000000
1.500000 2.000000 0.000000
2.000000 2.500000 0.000000
0.400000 0.000000 0.000000
0.800000 0.000000 0.000000
1.200000 0.000000 0.000000
1.600000 0.000000 0.000000
2.000000 0.362557 0.000000
2.000000 0.672798 0.000000
2.000000 0.938272 0.000000
2.000000 1.165439 0.000000
2.000000 1.359826 0.000000
2.000000 1.526163 0.000000
2.000000 1.668499 0.000000
2.000000 1.790295 0.000000
2.000000 1.894517 0.000000
2.000000 1.983700 0.000000
2.000000 2.060013 0.000000
2.000000 2.125315 0.000000
2.000000 2.181194 0.000000
2.000000 2.229010 0.000000
2.000000 2.269926 0.000000
2.000000 2.304938 0.000000
2.000000 2.334898 0.000000
2.000000 2.360534 0.000000
2.000000 2.382472 0.000000
2.000000 2.401244 0.000000
2.000000 2.417307 0.000000
2.000000 2.431052 0.000000
2.000000 2.442814 0.000000
2.000000 2.452878 0.000000
2.000000 2.461491 0.000000
2.000000 2.468860 0.000000
2.000000 2.475167 0.000000
2.000000 2.480563 0.000000
2.000000 2.485180 0.000000
2.000000 2.489132 0.000000
2.000000 2.492513 0.000000
2.000000 2.495406 0.000000
2.000000 2.497882 0.000000
2.000000 2.502286 0.000000
2.000000 2.505266 0.000000
2.000000 2.509150 0.000000
2.000000 2.514212 0.000000
2.000000 2.520809 0.000000
2.000000 2.529407 0.000000
2.000000 2.540613 0.000000
2.000000 2.555218 0.000000
2.000000 2.574253 0.000000
2.000000 2.599061 0.000000
2.000000 2.631395 0.000000
2.000000 2.673536 0.000000
2.000000 2.728460 0.000000
2.000000 2.800043 0.000000
2.000000 2.893339 0.000000
2.000000 3.014933 0.000000
2.000000 3.173410 0.000000
2.000000 3.379956 0.000000
2.000000 3.649152 0.000000
1.600000 4.000000 0.000000
1.200000 4.000000 0.000000
0.800000 4.000000 0.000000
0.400000 4.000000 0.000000
0.000000 3.624996 0.000000
0.000000 3.289970 0.000000
0.000000 2.990661 0.000000
0.000000 2.723261 0.000000
0.000000 2.484368 0.000000
0.000000 2.270943 0.000000
0.000000 2.080271 0.000000
0.000000 1.909926 0.000000
0.000000 1.757741 0.000000
0.000000 1.621780 0.000000
0.000000 1.500314 0.000000
0.000000 1.391797 0.000000
0.000000 1.294849 0.000000
0.000000 1.208237 0.000000
0.000000 1.130858 0.000000
0.000000 1.061728 0.000000
0.000000 0.999968 0.000000
0.000000 0.944792 0.000000
0.000000 0.895499 0.000000
0.000000 0.851460 0.000000
0.000000 0.812117 0.000000
0.000000 0.776968 0.000000
0.000000 0.745565 0.000000
0.000000 0.717511 0.000000
0.000000 0.692448 0.000000
0.000000 0.670056 0.000000
0.000000 0.650052 0.000000
0.000000 0.632180 0.000000
0.000000 0.616213 0.000000
0.000000 0.601949 0.000000
0.000000 0.589205 0.000000
0.000000 0.577820 0.000000
0.000000 0.567649 0.000000
0.000000 0.558562 0.000000
0.000000 0.550444 0.000000
0.000000 0.543191 0.000000
0.000000 0.536712 0.000000
0.000000 0.530923 0.000000
0.000000 0.525751 0.000000
0.000000 0.521131 0.000000
0.000000 0.517003 0.000000
0.000000 0.513315 0.000000
0.000000 0.510021 0.000000
0.000000 0.507078 0.000000
0.000000 0.504448 0.000000
0.000000 0.502099 0.000000
0.000000 0.497804 0.000000
0.000000 0.494785 0.000000
0.000000 0.490633 0.000000
0.000000 0.484924 0.000000
0.000000 0.477074 0.000000
0.000000 0.466279 0.000000
0.000000 0.451436 0.000000
0.000000 0.431025 0.000000
0.000000 0.402959 0.000000
0.000000 0.364366 0.000000
0.000000 0.311297 0.000000
0.000000 0.238324 0.000000
0.000000 0.137980 0.000000
0.001414 0.501414 0.000000
0.002828 0.502828 0.000000
0.004241 0.504241 0.000000
0.005655 0.505655 0.000000
0.007069 0.507069 0.000000
0.008483 0.508483 0.000000
0.009896 0.509896 0.000000
0.011310 0.511310 0.000000
0.012724 0.512724 0.000000
0.014138 0.514138 0.000000
0.015551 0.515551 0.000000
0.016965 0.516965 0.000000
0.018379 0.518379 0.000000
0.019793 0.519793 0.000000
0.021206 0.521206 0.000000
0.022620 0.522620 0.000000
0.024034 0.524034 0.000000
0.025448 0.525448 0.000000
0.026861 0.526861 0.000000
0.028275 0.528275 0.000000
0.029689 0.529689 0.000000
0.031103 0.531103 0.000000
0.032516 0.532516 0.000000
0.033930 0.533930 0.000000
0.035344 0.535344 0.000000
0.036758 0.536758 0.000000
0.038172 0.538172 0.000000
0.039585 0.539585 0.000000
0.040999 0.540999 0.000000
0.042413 0.542413 0.000000
0.043827 0.543827 0.000000
0.045240 0.545240 0.000000
0.046654 0.546654 0.000000
0.048068 0.548068 0.000000
0.049482 0.549482 0.000000
0.050895 0.550895 0.000000
0.052309 0.552309 0.000000
0.053723 0.553723 0.000000
0.055137 0.555137 0.000000
0.056550 0.556550 0.000000
0.057964 0.557964 0.000000
0.059378 0.559378 0.000000
0.060792 0.560792 0.000000
0.062205 0.562205 0.000000
0.063619 0.563619 0.000000
0.065033 0.565033 0.000000
0.066447 0.566447 0.000000
0.067861 0.567861 0.000000
0.069274 0.569274 0.000000
0.070688 0.570688 0.000000
0.072102 0.572102 0.000000
0.073516 0.573516 0.000000
0.074929 0.574929 0.000000
0.076343 0.576343 0.000000
0.077757 0.577757 0.000000
0.079171 0.579171 0.000000
0.080584 0.580584 0.000000
0.081998 0.581998 0.000000
0.083412 0.583412 0.000000
0.084826 0.584826 0.000000
0.086239 0.586239 0.000000
0.087653 0.587653 0.000000
0.089067 0.589067 0.000000
0.090481 0.590481 0.000000
0.091894 0.591894 0.000000
0.093308 0.593308 0.000000
0.094722 0.594722 0.000000
0.096136 0.596136 0.000000
0.097549 0.597549 0.000000
0.098963 0.598963 0.000000
0.100377 0.600377 0.000000
0.101791 0.601791 0.000000
0.103205 0.603205 0.000000
0.104618 0.604618 0.000000
0.106032 0.606032 0.000000
0.107446 0.607446 0.000000
0.108860 0.608860 0.000000
0.110273 0.610273 0.000000
0.111687 0.611687 0.000000
0.113101 0.613101 0.000000
0.114515 0.614515 0.000000
0.115928 0.615928 0.000000
0.117342 0.617342 0.000000
0.118756 0.618756 0.000000
0.120170 0.620170 0.000000
0.121583 0.621583 0.000000
0.122997 0.622997 0.000000
0.124411 0.624411 0.000000
0.125825 0.625825 0.000000
0.127238 0.627238 0.000000
0.128652 0.628652 0.000000
0.130066 0.630066 0.000000
0.131480 0.631480 0.000000
0.132893 0.632893 0.000000
0.134307 0.634307 0.000000
0.135721 0.635721 0.000000
0.137135 0.637135 0.000000
0.138549 0.638549 0.000000
0.139962 0.639962 0.000000
0.141376 0.641376 0.000000
0.142790 0.642790 0.000000
0.144204 0.644204 0.000000
0.145617 0.645617 0.000000
0.147031 0.647031 0.000000
0.148445 0.648445 0.000000
0.149859 0.649859 0.000000
0.151272 0.651272 0.000000
0.152686 0.652686 0.000000
0.154100 0.654100 0.000000
0.155514 0.655514 0.000000
0.156927 0.656927 0.000000
0.158341 0.658341 0.000000
0.159755 0.659755 0.000000
0.161169 0.661169 0.000000
0.162582 0.662582 0.000000
0.163996 0.663996 0.000000
0.165410 0.665410 0.000000
0.166824 0.666824 0.000000
0.168238 0.668238 0.000000
0.169651 0.669651 0.000000
0.171065 0.671065 0.000000
0.172479 0.672479 0.000000
0.173893 0.673893 0.000000
0.175306 0.675306 0.000000
0.176720 0.676720 0.000000
0.178134 0.678134 0.000000
0.179548 0.679548 0.000000
0.180961 0.680961 0.000000
0.182375 0.682375 0.000000
0.183789 0.683789 0.000000
0.185203 0.685203 0.000000
0.186616 0.686616 0.000000
0.188030 0.688030 0.000000
0.189444 0.689444 0.000000
0.190858 0.690858 0.000000
0.192271 0.692271 0.000000
0.193685 0.693685 0.000000
0.195099 0.695099 0.000000
0.196513 0.696513 0.000000
0.197926 0.697926 0.000000
0.199340 0.699340 0.000000
0.200754 0.700754 0.000000
0.202168 0.702168 0.000000
0.203582 0.703582 0.000000
0.204995 0.704995 0.000000
0.206409 0.706409 0.000000
0.207823 0.707823 0.000000
0.209237 0.709237 0.000000
0.210650 0.710650 0.000000
0.212064 0.712064 0.000000
0.213478 0.713478 0.000000
0.214892 0.714892 0.000000
0.216305 0.716305 0.000000
0.217719 0.717719 0.000000
0.219133 0.719133 0.000000
0.220547 0.720547 0.000000
0.221960 0.721960 0.000000
0.223374 0.723374 0.000000
0.224788 0.724788 0.000000
0.226202 0.726202 0.000000
0.227615 0.727615 0.000000
0.229029 0.729029 0.000000
0.230443 0.730443 0.000000
0.231857 0.731857 0.000000
0.233270 0.733270 0.000000
0.234684 0.734684 0.000000
0.236098 0.736098 0.000000
0.237512 0.737512 0.000000
0.238926 0.738926 0.000000
0.240339 0.740339 0.000000
0.241753 0.741753 0.000000
0.243167 0.743167 0.000000
0.244581 0.744581 0.000000
0.245994 0.745994 0.000000
0.247408 0.747408 0.000000
0.248822 0.748822 0.000000
0.250236 0.750236 0.000000
0.251649 0.751649 0.000000
0.253063 0.753063 0.000000
0.254477 0.754477 0.000000
0.255891 0.755891 0.000000
0.257304 0.757304 0.000000
0.258718 0.758718 0.000000
0.260132 0.760132 0.000000
0.261546 0.761546 0.000000
0.262959 0.762959 0.000000
0.264373 0.764373 0.000000
0.265787 0.765787 0.000000
0.267201 0.767201 0.000000
0.268615 0.768615 0.000000
0.270028 0.770028 0.000000
0.271442 0.771442 0.000000
0.272856 0.772856 0.000000
0.274270 0.774270 0.000000
0.275683 0.775683 0.000000
0.277097 0.777097 0.000000
0.278511 0.778511 0.000000
0.279925 0.779925 0.000000
0.281338 0.781338 0.000000
0.282752 0.782752 0.000000
0.284166 0.784166 0.000000
0.285580 0.785580 0.000000
0.286993 0.786993 0.000000
0.288407 0.788407 0.000000
0.289821 0.789821 0.000000
0.291235 0.791235 0.000000
0.292648 0.792648 0.000000
0.294062 0.794062 0.000000
0.295476 0.795476 0.000000
0.296890 0.796890 0.000000
0.298303 0.798303 0.000000
0.299717 0.799717 0.000000
0.301131 0.801131 0.000000
0.302545 0.802545 0.000000
0.303959 0.803959 0.000000
0.305372 0.805372 0.000000
0.306786 0.806786 0.000000
0.308200 0.808200 0.000000
0.309614 0.809614 0.000000
0.311027 0.811027 0.000000
0.312441 0.812441 0.000000
0.313855 0.813855 0.000000
0.315269 0.815269 0.000000
0.316682 0.816682 0.000000
0.318096 0.818096 0.000000
0.319510 0.819510 0.000000
0.320924 0.820924 0.000000
0.322337 0.822337 0.000000
0.323751 0.823751 0.000000
0.325165 0.825165 0.000000
0.326579 0.826579 0.000000
0.327992 0.827992 0.000000
0.329406 0.829406 0.000000
0.330820 0.830820 0.000000
0.332234 0.832234 0.000000
0.333648 0.833648 0.000000
0.335061 0.835061 0.000000
0.336475 0.836475 0.000000
0.337889 0.837889 0.000000
0.339303 0.839303 0.000000
0.340716 0.840716 0.000000
[...]
POINT_DATA 20431
SCALARS UX float 1
LOOKUP_TABLE default
-0.000000
0.000000
0.111178
-0.115965
-0.090689
0.055988
0.111937
-0.000000
-0.000000
0.000000
-0.000000
0.075822
0.099277
0.108405
0.111734
0.112933
0.113273
0.113234
0.113097
0.112937
0.112779
0.112643
0.112526
0.112428
0.112346
0.112277
0.112221
0.112173
0.112134
0.112101
0.112073
0.112050
0.112031
0.112014
0.112000
0.111988
0.111978
0.111970
0.111962
0.111956
0.111951
0.111947
0.111943
0.111939
0.111934
0.111930
0.111925
0.111918
0.111910
0.111899
0.111885
0.111866
0.111843
0.111814
0.111776
0.111730
0.111674
0.111609
0.111530
0.111446
0.111359
0.111270
0.111206
0.065711
0.020262
-0.025161
-0.070566
-0.115962
-0.115963
-0.115983
-0.116041
-0.116142
-0.116269
-0.116406
-0.116515
-0.116539
-0.116453
-0.116250
-0.115900
-0.115377
-0.114699
-0.113879
-0.112937
-0.111890
-0.110759
-0.109576
-0.108358
-0.107129
-0.105902
-0.104707
-0.103530
-0.102407
-0.101338
-0.100319
-0.099366
-0.098474
-0.097645
-0.096877
-0.096167
-0.095515
-0.094918
-0.094372
-0.093874
-0.093421
-0.093009
-0.092635
-0.092297
-0.091991
-0.091714
-0.091464
-0.091239
-0.091036
-0.090853
-0.090516
-0.090276
-0.089942
-0.089479
-0.088827
-0.087914
-0.086584
-0.084678
-0.081862
-0.077473
-0.070687
-0.059958
-0.040988
-0.090656
-0.090624
-0.090590
-0.090556
-0.090521
-0.090485
-0.090449
-0.090413
-0.090375
-0.090337
-0.090298
-0.090259
-0.090219
-0.090178
-0.090137
-0.090095
-0.090053
-0.090010
-0.089967
-0.089923
-0.089878
-0.089833
-0.089787
-0.089741
-0.089695
-0.089647
-0.089600
-0.089551
-0.089502
-0.089453
-0.089403
-0.089353
-0.089302
-0.089251
-0.089200
-0.089147
-0.089095
-0.089042
-0.088988
-0.088935
-0.088880
-0.088825
-0.088770
-0.088714
-0.088658
-0.088602
-0.088545
-0.088488
-0.088430
-0.088372
-0.088313
-0.088254
-0.088195
-0.088135
-0.088074
-0.088014
-0.087953
-0.087892
-0.087830
-0.087768
-0.087706
-0.087643
-0.087580
-0.087517
-0.087453
-0.087389
-0.087324
-0.087260
-0.087195
-0.087129
-0.087063
-0.086997
-0.086931
-0.086864
-0.086796
-0.086729
-0.086661
-0.086592
-0.086524
-0.086455
-0.086385
-0.086315
-0.086245
-0.086175
-0.086104
-0.086033
-0.085961
-0.085890
-0.085818
-0.085745
-0.085673
-0.085600
-0.085526
-0.085453
-0.085378
-0.085304
-0.085229
-0.085154
-0.085079
-0.085003
-0.084927
-0.084851
-0.084774
-0.084697
-0.084620
-0.084542
-0.084464
-0.084386
-0.084307
-0.084228
-0.084149
-0.084069
-0.083989
-0.083909
-0.083828
-0.083747
-0.083666
-0.083584
-0.083502
-0.083419
-0.083337
-0.083254
-0.083170
-0.083087
-0.083003
-0.082919
-0.082834
-0.082749
-0.082664
-0.082578
-0.082492
-0.082406
-0.082320
-0.082233
-0.082146
-0.082059
-0.081971
-0.081883
-0.081794
-0.081706
-0.081617
-0.081527
-0.081438
-0.081348
-0.081258
-0.081167
-0.081076
-0.080985
-0.080894
-0.080802
-0.080710
-0.080618
-0.080525
-0.080432
-0.080338
-0.080245
-0.080151
-0.080057
-0.079962
-0.079867
-0.079772
-0.079677
-0.079581
-0.079485
-0.079389
-0.079292
-0.079196
-0.079098
-0.079001
-0.078903
-0.078805
-0.078707
-0.078608
-0.078510
-0.078410
-0.078311
-0.078211
-0.078111
-0.078011
-0.077911
-0.077810
-0.077709
-0.077608
-0.077506
-0.077405
-0.077302
-0.077200
-0.077098
-0.076995
-0.076892
-0.076788
-0.076685
-0.076581
-0.076477
-0.076372
-0.076268
-0.076163
-0.076058
-0.075952
-0.075847
-0.075741
-0.075635
-0.075528
-0.075421
-0.075314
-0.075207
-0.075100
-0.074992
-0.074884
-0.074776
-0.074668
-0.074559
-0.074450
-0.074341
-0.074231
-0.074122
-0.074012
-0.073902
-0.073791
-0.073681
-0.073570
-0.073459
-0.073347
-0.073236
-0.073124
-0.073012
-0.072900
-0.072787
-0.072675
-0.072562
-0.072448
-0.072335
-0.072221
-0.072107
-0.071993
-0.071879
-0.071764
-0.071650
-0.071535
-0.071419
-0.071304
-0.071188
-0.071072
-0.070956
-0.070840
-0.070723
-0.070606
-0.070490
-0.070372
-0.070255
-0.070137
-0.070019
-0.069901
-0.069783
-0.069664
-0.069545
-0.069427
-0.069307
-0.069188
-0.069068
-0.068948
-0.068828
-0.068708
-0.068588
-0.068467
-0.068346
-0.068225
-0.068104
-0.067982
-0.067861
-0.067739
-0.067616
-0.067494
-0.067372
-0.067249
-0.067126
-0.067003
-0.066879
-0.066756
-0.066632
-0.066508
-0.066384
-0.066259
-0.066135
-0.066010
-0.065885
-0.065760
-0.065635
-0.065509
-0.065383
-0.065257
-0.065131
-0.065005
-0.064878
-0.064751
-0.064624
-0.064497
-0.064370
-0.064242
-0.064115
-0.063987
-0.063859
-0.063730
-0.063602
-0.063473
-0.063344
-0.063215
-0.063086
-0.062957
-0.062827
-0.062697
-0.062568
-0.062437
-0.062307
-0.062177
-0.062046
-0.061915
-0.061784
-0.061653
-0.061522
-0.061390
-0.061258
-0.061126
-0.060994
-0.060862
-0.060730
-0.060597
-0.060464
-0.060332
-0.060198
-0.060065
-0.059932
-0.059798
-0.059664
-0.059530
-0.059396
-0.059262
-0.059127
-0.058993
-0.058858
-0.058723
-0.058588
-0.058453
-0.058317
-0.058181
-0.058046
-0.057910
-0.057773
-0.057637
-0.057501
-0.057364
-0.057227
-0.057090
-0.056953
-0.056816
-0.056679
-0.056541
-0.056403
-0.056265
-0.056127
-0.055989
-0.055851
-0.055712
-0.055573
-0.055434
-0.055295
-0.055156
-0.055017
-0.054877
-0.054738
-0.054598
-0.054458
-0.054318
-0.054177
-0.054037
-0.053896
-0.053756
-0.053615
-0.053474
-0.053333
-0.053191
-0.053050
-0.052908
-0.052766
-0.052624
-0.052482
-0.052340
-0.052198
-0.052055
-0.051912
-0.051770
-0.051627
-0.051484
-0.051340
-0.051197
-0.051053
-0.050910
-0.050766
-0.050622
-0.050478
-0.050333
-0.050189
-0.050044
-0.049900
-0.049755
-0.049610
-0.049465
-0.049320
-0.049174
-0.049029
-0.048883
-0.048737
-0.048591
-0.048445
-0.048299
-0.048152
-0.048006
-0.047859
-0.047713
-0.047566
-0.047419
-0.047271
-0.047124
-0.046977
-0.046829
-0.046681
-0.046534
-0.046386
-0.046238
-0.046089
-0.045941
-0.045792
-0.045644
-0.045495
-0.045346
-0.045197
-0.045048
-0.044899
-0.044750
-0.044600
-0.044450
-0.044301
-0.044151
-0.044001
-0.043851
-0.043701
-0.043550
-0.043400
-0.043249
-0.043098
-0.042948
-0.042797
-0.042646
-0.042494
-0.042343
-0.042192
-0.042040
-0.041888
-0.041737
-0.041585
-0.041433
-0.041281
-0.041129
-0.040976
-0.040824
-0.040671
-0.040519
-0.040366
-0.040213
-0.040060
-0.039907
-0.039754
-0.039600
-0.039447
-0.039293
-0.039140
-0.038986
-0.038832
-0.038678
-0.038524
-0.038370
-0.038216
-0.038061
-0.037907
-0.037752
-0.037598
-0.037443
-0.037288
-0.037133
-0.036978
-0.036823
-0.036667
-0.036512
-0.036357
-0.036201
-0.036045
-0.035890
-0.035734
-0.035578
-0.035422
-0.035266
-0.035109
-0.034953
-0.034796
-0.034640
-0.034483
-0.034327
-0.034170
-0.034013
-0.033856
-0.033699
-0.033542
-0.033384
-0.033227
-0.033070
-0.032912
-0.032754
-0.032597
-0.032439
-0.032281
-0.032123
-0.031965
-0.031807
-0.031649
-0.031490
-0.031332
-0.031174
-0.031015
-0.030856
-0.030698
-0.030539
-0.030380
-0.030221
-0.030062
-0.029903
-0.029744
-0.029584
-0.029425
-0.029266
-0.029106
-0.028947
-0.028787
-0.028627
-0.028468
-0.028308
-0.028148
-0.027988
-0.027828
-0.027668
-0.027507
-0.027347
-0.027187
-0.027026
-0.026866
-0.026705
-0.026545
-0.026384
-0.026223
-0.026062
-0.025901
-0.025740
-0.025579
-0.025418
-0.025257
-0.025096
-0.024935
-0.024773
-0.024612
-0.024450
-0.024289
-0.024127
-0.023966
-0.023804
-0.023642
-0.023480
-0.023318
-0.023156
-0.022994
-0.022832
-0.022670
-0.022508
-0.022346
-0.022183
-0.022021
-0.021859
-0.021696
-0.021534
-0.021371
-0.021209
-0.021046
-0.020883
-0.020721
-0.020558
-0.020395
-0.020232
-0.020069
-0.019906
-0.019743
-0.019580
-0.019417
-0.019254
-0.019090
-0.018927
-0.018764
-0.018600
-0.018437
-0.018273
-0.018110
-0.017946
-0.017783
-0.017619
-0.017455
-0.017292
-0.017128
-0.016964
-0.016800
-0.016637
-0.016473
-0.016309
-0.016145
-0.015981
-0.015817
-0.015652
-0.015488
-0.015324
-0.015160
-0.014996
-0.014831
-0.014667
-0.014503
-0.014338
-0.014174
-0.014010
-0.013845
-0.013681
-0.013516
-0.013352
-0.013187
-0.013022
-0.012858
-0.012693
-0.012528
-0.012363
-0.012199
-0.012034
-0.011869
-0.011704
-0.011539
-0.011374
-0.011209
-0.011044
-0.010879
-0.010714
-0.010549
-0.010384
-0.010219
-0.010054
-0.009889
-0.009724
-0.009559
-0.009394
-0.009228
-0.009063
-0.008898
-0.008733
-0.008567
-0.008402
-0.008237
-0.008071
-0.007906
-0.007740
-0.007575
-0.007410
-0.007244
-0.007079
-0.006913
-0.006748
-0.006582
-0.006417
-0.006251
-0.006086
-0.005920
-0.005754
-0.005589
-0.005423
-0.005258
-0.005092
-0.004926
-0.004761
-0.004595
-0.004429
-0.004264
-0.004098
-0.003932
-0.003767
-0.003601
-0.003435
-0.003269
-0.003104
-0.002938
-0.002772
-0.002606
-0.002441
-0.002275
-0.002109
-0.001943
-0.001777
-0.001611
-0.001446
-0.001280
-0.001114
-0.000948
-0.000782
-0.000617
-0.000451
-0.000285
-0.000119
0.000047
0.000213
0.000379
0.000544
0.000710
0.000876
0.001042
0.001208
0.001374
0.001540
0.001705
0.001871
0.002037
0.002203
0.002369
0.002535
0.002701
0.002866
0.003032
0.003198
0.003364
0.003530
0.003696
0.003862
0.004027
0.004193
0.004359
0.004525
0.004691
0.004856
0.005022
0.005188
0.005354
0.005520
0.005685
0.005851
0.006017
0.006183
0.006348
0.006514
0.006680
0.006846
0.007011
0.007177
0.007343
0.007508
0.007674
0.007840
0.008005
0.008171
0.008337
0.008502
0.008668
0.008834
0.008999
0.009165
0.009330
0.009496
0.009661
0.009827
0.009993
0.010158
0.010324
0.010489
0.010654
0.010820
0.010985
0.011151
0.011316
0.011482
0.011647
0.011812
0.011978
0.012143
0.012308
0.012474
0.012639
0.012804
0.012970
0.013135
0.013300
0.013465
0.013631
0.013796
0.013961
0.014126
0.014291
0.014456
0.014621
0.014787
0.014952
0.015117
0.015282
0.015447
0.015612
0.015777
0.015942
0.016107
0.016272
0.016437
0.016601
0.016766
0.016931
0.017096
0.017261
0.017426
0.017591
0.017755
0.017920
0.018085
0.018249
0.018414
0.018579
0.018743
0.018908
0.019073
0.019237
0.019402
0.019566
0.019731
0.019895
0.020060
0.020224
0.020389
0.020553
0.020718
0.020882
0.021046
0.021211
0.021375
0.021539
0.021704
0.021868
0.022032
0.022196
0.022360
0.022525
0.022689
0.022853
0.023017
0.023181
0.023345
0.023509
0.023673
0.023837
0.024001
0.024165
0.024329
0.024493
0.024657
0.024821
0.024984
0.025148
0.025312
0.025476
0.025639
0.025803
0.025967
0.026130
0.026294
0.026458
0.026621
0.026785
0.026948
0.027112
0.027275
0.027439
0.027602
0.027766
0.027929
0.028092
0.028256
0.028419
0.028582
0.028745
0.028909
0.029072
0.029235
0.029398
0.029561
0.029725
0.029888
0.030051
0.030214
0.030377
0.030540
0.030703
0.030866
0.031028
0.031191
0.031354
0.031517
0.031680
0.031843
0.032005
0.032168
0.032331
0.032494
0.032656
0.032819
0.032981
0.033144
0.033307
0.033469
0.033632
0.033794
0.033957
0.034119
0.034281
0.034444
0.034606
0.034768
0.034931
0.035093
0.035255
0.035417
0.035580
0.035742
0.035904
0.036066
0.036228
0.036390
0.036552
0.036714
0.036876
0.037038
0.037200
0.037362
0.037524
0.037686
0.037848
0.038010
0.038172
0.038333
0.038495
0.038657
0.038818
0.038980
0.039142
0.039303
0.039465
0.039627
0.039788
0.039950
0.040111
0.040273
0.040434
0.040596
0.040757
0.040918
0.041080
0.041241
0.041402
0.041564
0.041725
0.041886
0.042047
0.042209
0.042370
0.042531
0.042692
0.042853
0.043014
0.043175
0.043336
0.043497
0.043658
0.043819
0.043980
0.044141
0.044302
0.044463
0.044624
0.044784
0.044945
0.045106
0.045267
0.045427
0.045588
0.045749
0.045909
0.046070
0.046231
0.046391
0.046552
0.046712
0.046873
0.047033
0.047194
0.047354
0.047515
0.047675
0.047835
0.047996
0.048156
0.048316
0.048477
0.048637
0.048797
0.048957
0.049118
0.049278
0.049438
0.049598
0.049758
0.049918
0.050079
0.050239
0.050399
0.050559
0.050719
0.050879
0.051039
0.051199
0.051358
0.051518
0.051678
0.051838
0.051998
0.052158
0.052318
0.052477
0.052637
0.052797
0.052957
0.053116
0.053276
0.053436
0.053595
0.053755
0.053915
0.054074
0.054234
0.054393
0.054553
0.054712
0.054872
0.055031
0.055191
0.055350
0.055510
0.055669
0.055828
0.056147
0.056306
0.056465
0.056625
0.056784
0.056943
0.057102
0.057261
0.057420
0.057579
0.057738
0.057897
0.058056
0.058215
0.058374
0.058533
0.058692
0.058851
0.059010
0.059169
0.059328
0.059487
0.059645
0.059804
0.059963
0.060122
0.060281
0.060439
0.060598
0.060757
0.060916
0.061074
0.061233
0.061392
0.061550
0.061709
0.061868
0.062026
0.062185
0.062343
0.062502
0.062661
0.062819
0.062978
0.063136
0.063295
0.063453
0.063612
0.063770
0.063929
0.064087
0.064246
0.064404
0.064562
0.064721
0.064879
0.065038
0.065196
0.065354
0.065513
0.065671
0.065829
0.065988
0.066146
0.066304
0.066463
0.066621
0.066779
0.066937
0.067095
0.067254
0.067412
0.067570
0.067728
0.067886
0.068045
0.068203
0.068361
0.068519
0.068677
0.068835
0.068993
0.069152
0.069310
0.069468
0.069626
0.069784
0.069942
0.070100
0.070258
0.070416
0.070574
0.070732
0.070890
0.071048
0.071206
0.071364
0.071522
0.071680
0.071838
0.071996
0.072154
0.072312
0.072469
0.072627
0.072785
0.072943
0.073101
0.073259
0.073417
0.073575
0.073733
0.073890
0.074048
0.074206
0.074364
0.074522
0.074680
0.074837
0.074995
0.075153
0.075311
0.075469
0.075626
0.075784
0.075942
0.076100
0.076258
0.076415
0.076573
0.076731
0.076889
0.077046
0.077204
0.077362
0.077520
0.077677
0.077835
0.077993
0.078151
0.078308
0.078466
0.078624
0.078781
0.078939
0.079097
0.079254
0.079412
0.079570
0.079727
0.079885
0.080043
0.080200
0.080358
0.080516
0.080673
0.080831
0.080989
0.081146
0.081304
0.081462
0.081619
0.081777
0.081935
0.082092
0.082250
0.082408
0.082565
0.082723
0.082881
0.083038
0.083196
0.083353
0.083511
0.083669
0.083826
0.083984
0.084142
0.084299
0.084457
0.084614
0.084772
0.084930
0.085087
0.085245
0.085403
0.085560
0.085718
0.085876
0.086033
0.086191
0.086348
0.086506
0.086664
0.086821
0.086979
0.087137
0.087294
0.087452
0.087610
0.087767
0.087925
0.088082
0.088240
0.088398
0.088555
0.088713
0.088871
0.089028
0.089186
0.089344
0.089501
0.089659
0.089817
0.089974
0.090132
0.090290
0.090447
0.090605
0.090763
0.090920
0.091078
0.091236
0.091393
0.091551
0.091709
0.091867
0.092024
0.092182
0.092340
0.092497
0.092655
0.092813
0.092970
0.093128
0.093286
0.093444
0.093601
0.093759
0.093917
0.094075
0.094232
0.094390
0.094548
0.094706
0.094863
0.095021
0.095179
0.095337
0.095495
0.095652
0.095810
0.095968
0.096126
0.096284
0.096441
0.096599
0.096757
0.096915
0.097073
0.097230
0.097388
0.097546
0.097704
0.097862
0.098020
0.098178
0.098335
0.098493
0.098651
0.098809
0.098967
0.099125
0.099283
0.099441
0.099599
0.099757
0.099914
0.100072
0.100230
0.100388
0.100546
0.100704
0.100862
0.101020
0.101178
0.101336
0.101494
0.101652
0.101810
0.101968
0.102126
0.102284
0.102442
0.102600
0.102758
0.102916
0.103074
0.103232
0.103391
0.103549
0.103707
0.103865
0.104023
0.104181
0.104339
0.104497
0.104655
0.104813
0.104972
0.105130
0.105288
0.105446
0.105604
0.105762
0.105921
0.106079
0.106237
0.106395
0.106553
0.106712
0.106870
0.107028
0.107186
0.107344
0.107503
0.107661
0.107819
0.107977
0.108136
0.108294
0.108452
0.108611
0.108769
0.108927
0.109086
0.109244
0.109402
0.109561
0.109719
0.109877
0.110036
0.110194
0.110352
0.110511
0.110669
0.110828
0.110986
0.111144
0.111303
0.111461
0.111620
0.111778
0.079657
0.079734
0.079490
0.071229
0.071346
0.071458
-0.057575
-0.057491
-0.057735
-0.057837
-0.030313
0.090504
0.090790
0.090850
0.091022
0.076451
0.076197
0.076277
-0.030914
-0.030747
-0.030948
-0.030657
-0.083618
-0.083737
-0.083444
-0.083482
-0.031950
-0.031828
-0.031709
0.031241
0.030989
0.031131
0.031215
-0.052342
-0.053712
-0.063272
-0.065188
0.022078
0.021829
0.021927
0.021904
-0.024362
-0.024885
-0.024438
-0.024461
0.058005
0.057528
0.057040
0.058621
-0.083996
-0.083899
-0.083610
0.027154
0.027124
0.027417
0.027551
0.001358
-0.005154
-0.003596
-0.008994
0.013374
0.013730
0.013870
-0.044673
-0.042571
-0.044763
-0.007375
-0.007213
-0.007610
-0.007433
0.070453
0.071296
0.071211
0.072080
-0.001841
-0.001269
-0.001506
-0.000688
0.023686
0.023938
0.023489
0.024057
0.022071
0.022251
0.021936
0.022398
-0.012008
-0.012049
-0.012268
-0.012396
0.079060
0.078952
0.078657
-0.033222
-0.033687
-0.033365
0.013396
0.078549
0.078257
0.078248
0.078686
0.036191
0.036476
0.036345
-0.000552
-0.000491
-0.000731
0.036456
0.021832
0.021030
0.020743
-0.000299
0.041805
0.041627
0.041248
0.065702
0.065984
0.065657
0.066109
0.040507
0.040666
0.040382
0.040767
0.041148
-0.072190
-0.072518
-0.072349
0.093113
0.092846
0.093289
-0.072662
-0.050440
-0.050653
-0.050858
-0.050244
-0.040641
-0.040453
-0.041120
-0.040658
-0.022739
-0.023226
-0.022875
0.011923
0.012198
0.011849
0.012096
-0.023303
0.036363
0.036570
0.036194
-0.038587
-0.038969
-0.038610
-0.042186
-0.042700
-0.043100
0.036564
0.072404
0.072476
0.072129
-0.064423
-0.064317
-0.064182
0.077559
0.077859
0.077879
0.077612
0.045650
0.045225
0.045397
0.044775
0.001419
-0.000797
0.001477
0.000915
0.034308
0.035222
0.032811
0.036608
-0.060878
-0.060699
-0.061231
-0.060345
0.105369
0.105161
-0.087758
-0.087018
-0.086595
-0.085778
-0.056891
-0.055405
-0.051998
-0.061222
0.108868
0.108949
0.109327
-0.065627
-0.060405
-0.065969
-0.066341
-0.064960
0.075148
0.075093
0.074710
0.029437
0.029284
0.029641
0.029526
0.002142
0.001481
0.001956
-0.084940
-0.084905
-0.085378
-0.084987
0.109016
0.108391
0.109205
0.108193
0.093291
0.093570
0.093866
0.074605
0.044934
0.044619
0.044296
0.044048
-0.010000
-0.009818
-0.009604
-0.010142
-0.018015
-0.019057
-0.021933
0.095240
0.095157
0.094342
0.094674
-0.024123
-0.023515
-0.026438
-0.025193
0.044138
0.044171
0.043883
0.025631
0.026510
0.033892
0.018642
-0.075152
-0.075542
-0.074319
-0.076901
0.100538
0.100773
0.022869
0.022837
0.023001
0.044419
0.002854
0.004017
0.004809
0.005447
-0.040973
-0.041380
-0.041203
-0.041171
-0.039727
-0.045828
-0.043877
-0.039933
-0.009195
-0.008723
-0.009538
-0.009431
-0.049319
-0.047776
-0.046628
-0.045412
0.099080
0.099630
0.099984
0.099054
-0.045331
-0.045261
-0.045118
-0.093910
-0.097904
-0.094052
-0.094448
-0.079798
-0.080023
-0.080063
-0.014718
-0.014775
-0.030861
-0.030905
-0.032851
-0.029099
0.041350
0.038876
0.039215
0.036472
0.005787
0.015890
0.014560
0.012939
0.054157
0.054363
0.052825
0.052826
0.088329
0.086277
0.086962
0.088178
-0.037900
-0.037753
-0.038986
-0.039216
-0.032131
-0.031996
-0.031806
-0.032423
0.060442
0.061392
0.060673
0.061266
0.059565
0.059462
0.060615
-0.007493
-0.007204
-0.007138
-0.007477
0.104424
0.103259
0.104330
0.078610
-0.019866
-0.022062
-0.020952
-0.020816
0.087013
0.087095
0.086581
0.086775
0.016801
0.017110
0.016880
0.017242
0.041363
0.041845
-0.011313
-0.010482
-0.009774
-0.009175
-0.002978
-0.002946
-0.000210
-0.005789
-0.001145
-0.000974
-0.000848
0.097067
0.096735
0.096701
-0.058173
-0.058349
-0.057499
-0.057435
-0.000774
-0.049532
-0.046338
-0.048737
0.088543
0.088956
0.089630
0.090029
0.082799
0.082625
0.082593
0.082315
0.039258
0.038392
0.038168
0.040085
0.033871
0.033581
0.033447
0.033913
0.033697
0.034060
0.043333
0.042052
0.042887
-0.005964
-0.006216
-0.005915
0.024627
0.021324
0.029152
-0.006035
0.056356
0.057007
0.055006
0.047890
0.048256
0.048238
0.047999
0.071678
0.071739
0.071307
-0.049847
-0.044282
0.072046
0.068034
0.067924
0.067742
0.067656
-0.039233
-0.039078
-0.039302
0.087400
0.023538
0.023658
0.022926
0.022808
-0.071362
-0.069085
-0.069919
-0.068032
0.028660
0.028620
0.028367
0.028909
-0.047259
-0.046404
-0.048559
-0.046049
-0.057354
-0.058556
-0.053909
-0.061659
0.061125
0.060988
0.061403
-0.049536
-0.049110
-0.050209
0.031506
0.031431
0.030305
0.029562
0.076425
0.063337
0.063025
0.063328
0.047506
0.049087
0.047758
0.048851
-0.011947
-0.013243
-0.013529
0.063017
0.066859
0.067374
0.066868
0.033647
0.034403
0.034772
0.035532
0.041652
0.038925
-0.023685
-0.024545
-0.023362
-0.025315
-0.065710
-0.068836
-0.068840
-0.063958
-0.049719
-0.050472
0.020590
0.020435
0.021630
0.067143
-0.014528
-0.011884
-0.010852
-0.015218
0.033127
0.036388
0.049701
0.049883
0.049755
-0.049279
-0.048572
-0.048346
0.050058
-0.039662
-0.039593
-0.039407
0.070240
0.069914
0.070105
0.069779
-0.026233
-0.026114
-0.026002
-0.046376
-0.053646
0.012540
0.012469
0.012310
0.074670
0.074609
0.074425
0.074328
0.049926
0.050118
0.050250
0.018139
0.017136
0.016868
0.015420
0.048331
0.048080
0.048187
0.047924
0.042165
0.042289
0.042049
0.066672
0.066894
0.067020
0.048301
0.047983
0.049813
0.067123
-0.060191
-0.060196
-0.059938
0.046724
0.035915
0.035170
0.036263
0.049864
-0.064042
-0.063938
-0.064103
0.025145
0.019707
0.021915
-0.060448
0.062694
0.062706
0.063057
0.089870
0.089995
0.089707
0.089871