# vtk DataFile Version 2.0
Test
ASCII
DATASET POLYDATA
POINTS 20431 float
0.000000 0.000000 0.000000
2.000000 0.000000 0.000000
2.000000 4.000000 0.000000
0.000000 4.000000 0.000000
0.000000 0.500000 0.000000
1.500000 2.000000 0.000000
2.000000 2.500000 0.000000
0.400000 0.000000 0.000000
0.800000 0.000000 0.000000
1.200000 0.000000 0.000000
1.600000 0.000000 0.000000
2.000000 0.362557 0.000000
2.000000 0.672798 0.000000
2.000000 0.938272 0.000000
2.000000 1.165439 0.000000
2.000000 1.359826 0.000000
2.000000 1.526163 0.000000
2.000000 1.668499 0.000000
2.000000 1.790295 0.000000
2.000000 1.894517 0.000000
2.000000 1.983700 0.000000
2.000000 2.060013 0.000000
2.000000 2.125315 0.000000
2.000000 2.181194 0.000000
2.000000 2.229010 0.000000
2.000000 2.269926 0.000000
2.000000 2.304938 0.000000
2.000000 2.334898 0.000000
2.000000 2.360534 0.000000
2.000000 2.382472 0.000000
2.000000 2.401244 0.000000
2.000000 2.417307 0.000000
2.000000 2.431052 0.000000
2.000000 2.442814 0.000000
2.000000 2.452878 0.000000
2.000000 2.461491 0.000000
2.000000 2.468860 0.000000
2.000000 2.475167 0.000000
2.000000 2.480563 0.000000
2.000000 2.485180 0.000000
2.000000 2.489132 0.000000
2.000000 2.492513 0.000000
2.000000 2.495406 0.000000
2.000000 2.497882 0.000000
2.000000 2.502286 0.000000
2.000000 2.505266 0.000000
2.000000 2.509150 0.000000
2.000000 2.514212 0.000000
2.000000 2.520809 0.000000
2.000000 2.529407 0.000000
2.000000 2.540613 0.000000
2.000000 2.555218 0.000000
2.000000 2.574253 0.000000
2.000000 2.599061 0.000000
2.000000 2.631395 0.000000
2.000000 2.673536 0.000000
2.000000 2.728460 0.000000
2.000000 2.800043 0.000000
2.000000 2.893339 0.000000
2.000000 3.014933 0.000000
2.000000 3.173410 0.000000
2.000000 3.379956 0.000000
2.000000 3.649152 0.000000
1.600000 4.000000 0.000000
1.200000 4.000000 0.000000
0.800000 4.000000 0.000000
0.400000 4.000000 0.000000
0.000000 3.624996 0.000000
0.000000 3.289970 0.000000
0.000000 2.990661 0.000000
0.000000 2.723261 0.000000
0.000000 2.484368 0.000000
0.000000 2.270943 0.000000
0.000000 2.080271 0.000000
0.000000 1.909926 0.000000
0.000000 1.757741 0.000000
0.000000 1.621780 0.000000
0.000000 1.500314 0.000000
0.000000 1.391797 0.000000
0.000000 1.294849 0.000000
0.000000 1.208237 0.000000
0.000000 1.130858 0.000000
0.000000 1.061728 0.000000
0.000000 0.999968 0.000000
0.000000 0.944792 0.000000
0.000000 0.895499 0.000000
0.000000 0.851460 0.000000
0.000000 0.812117 0.000000
0.000000 0.776968 0.000000
0.000000 0.745565 0.000000
0.000000 0.717511 0.000000
0.000000 0.692448 0.000000
0.000000 0.670056 0.000000
0.000000 0.650052 0.000000
0.000000 0.632180 0.000000
0.000000 0.616213 0.000000
0.000000 0.601949 0.000000
0.000000 0.589205 0.000000
0.000000 0.577820 0.000000
0.000000 0.567649 0.000000
0.000000 0.558562 0.000000
0.000000 0.550444 0.000000
0.000000 0.543191 0.000000
0.000000 0.536712 0.000000
0.000000 0.530923 0.000000
0.000000 0.525751 0.000000
0.000000 0.521131 0.000000
0.000000 0.517003 0.000000
0.000000 0.513315 0.000000
0.000000 0.510021 0.000000
0.000000 0.507078 0.000000
0.000000 0.504448 0.000000
0.000000 0.502099 0.000000
0.000000 0.497804 0.000000
0.000000 0.494785 0.000000
0.000000 0.490633 0.000000
0.000000 0.484924 0.000000
0.000000 0.477074 0.000000
0.000000 0.466279 0.000000
0.000000 0.451436 0.000000
0.000000 0.431025 0.000000
0.000000 0.402959 0.000000
0.000000 0.364366 0.000000
0.000000 0.311297 0.000000
0.000000 0.238324 0.000000
0.000000 0.137980 0.000000
0.001414 0.501414 0.000000
0.002828 0.502828 0.000000
0.004241 0.504241 0.000000
0.005655 0.505655 0.000000
0.007069 0.507069 0.000000
0.008483 0.508483 0.000000
0.009896 0.509896 0.000000
0.011310 0.511310 0.000000
0.012724 0.512724 0.000000
0.014138 0.514138 0.000000
0.015551 0.515551 0.000000
0.016965 0.516965 0.000000
0.018379 0.518379 0.000000
0.019793 0.519793 0.000000
0.021206 0.521206 0.000000
0.022620 0.522620 0.000000
0.024034 0.524034 0.000000
0.025448 0.525448 0.000000
0.026861 0.526861 0.000000
0.028275 0.528275 0.000000
0.029689 0.529689 0.000000
0.031103 0.531103 0.000000
0.032516 0.532516 0.000000
0.033930 0.533930 0.000000
0.035344 0.535344 0.000000
0.036758 0.536758 0.000000
0.038172 0.538172 0.000000
0.039585 0.539585 0.000000
0.040999 0.540999 0.000000
0.042413 0.542413 0.000000
0.043827 0.543827 0.000000
0.045240 0.545240 0.000000
0.046654 0.546654 0.000000
0.048068 0.548068 0.000000
0.049482 0.549482 0.000000
0.050895 0.550895 0.000000
0.052309 0.552309 0.000000
0.053723 0.553723 0.000000
0.055137 0.555137 0.000000
0.056550 0.556550 0.000000
0.057964 0.557964 0.000000
0.059378 0.559378 0.000000
0.060792 0.560792 0.000000
0.062205 0.562205 0.000000
0.063619 0.563619 0.000000
0.065033 0.565033 0.000000
0.066447 0.566447 0.000000
0.067861 0.567861 0.000000
0.069274 0.569274 0.000000
0.070688 0.570688 0.000000
0.072102 0.572102 0.000000
0.073516 0.573516 0.000000
0.074929 0.574929 0.000000
0.076343 0.576343 0.000000
0.077757 0.577757 0.000000
0.079171 0.579171 0.000000
0.080584 0.580584 0.000000
0.081998 0.581998 0.000000
0.083412 0.583412 0.000000
0.084826 0.584826 0.000000
0.086239 0.586239 0.000000
0.087653 0.587653 0.000000
0.089067 0.589067 0.000000
0.090481 0.590481 0.000000
0.091894 0.591894 0.000000
0.093308 0.593308 0.000000
0.094722 0.594722 0.000000
0.096136 0.596136 0.000000
0.097549 0.597549 0.000000
0.098963 0.598963 0.000000
0.100377 0.600377 0.000000
0.101791 0.601791 0.000000
0.103205 0.603205 0.000000
0.104618 0.604618 0.000000
0.106032 0.606032 0.000000
0.107446 0.607446 0.000000
0.108860 0.608860 0.000000
0.110273 0.610273 0.000000
0.111687 0.611687 0.000000
0.113101 0.613101 0.000000
0.114515 0.614515 0.000000
0.115928 0.615928 0.000000
0.117342 0.617342 0.000000
0.118756 0.618756 0.000000
0.120170 0.620170 0.000000
0.121583 0.621583 0.000000
0.122997 0.622997 0.000000
0.124411 0.624411 0.000000
0.125825 0.625825 0.000000
0.127238 0.627238 0.000000
0.128652 0.628652 0.000000
0.130066 0.630066 0.000000
0.131480 0.631480 0.000000
0.132893 0.632893 0.000000
0.134307 0.634307 0.000000
0.135721 0.635721 0.000000
0.137135 0.637135 0.000000
0.138549 0.638549 0.000000
0.139962 0.639962 0.000000
0.141376 0.641376 0.000000
0.142790 0.642790 0.000000
0.144204 0.644204 0.000000
0.145617 0.645617 0.000000
0.147031 0.647031 0.000000
0.148445 0.648445 0.000000
0.149859 0.649859 0.000000
0.151272 0.651272 0.000000
0.152686 0.652686 0.000000
0.154100 0.654100 0.000000
0.155514 0.655514 0.000000
0.156927 0.656927 0.000000
0.158341 0.658341 0.000000
0.159755 0.659755 0.000000
0.161169 0.661169 0.000000
0.162582 0.662582 0.000000
0.163996 0.663996 0.000000
0.165410 0.665410 0.000000
0.166824 0.666824 0.000000
0.168238 0.668238 0.000000
0.169651 0.669651 0.000000
0.171065 0.671065 0.000000
0.172479 0.672479 0.000000
0.173893 0.673893 0.000000
0.175306 0.675306 0.000000
0.176720 0.676720 0.000000
0.178134 0.678134 0.000000
0.179548 0.679548 0.000000
0.180961 0.680961 0.000000
0.182375 0.682375 0.000000
0.183789 0.683789 0.000000
0.185203 0.685203 0.000000
0.186616 0.686616 0.000000
0.188030 0.688030 0.000000
0.189444 0.689444 0.000000
0.190858 0.690858 0.000000
0.192271 0.692271 0.000000
0.193685 0.693685 0.000000
0.195099 0.695099 0.000000
0.196513 0.696513 0.000000
0.197926 0.697926 0.000000
0.199340 0.699340 0.000000
0.200754 0.700754 0.000000
0.202168 0.702168 0.000000
0.203582 0.703582 0.000000
0.204995 0.704995 0.000000
0.206409 0.706409 0.000000
0.207823 0.707823 0.000000
0.209237 0.709237 0.000000
0.210650 0.710650 0.000000
0.212064 0.712064 0.000000
0.213478 0.713478 0.000000
0.214892 0.714892 0.000000
0.216305 0.716305 0.000000
0.217719 0.717719 0.000000
0.219133 0.719133 0.000000
0.220547 0.720547 0.000000
0.221960 0.721960 0.000000
0.223374 0.723374 0.000000
0.224788 0.724788 0.000000
0.226202 0.726202 0.000000
0.227615 0.727615 0.000000
0.229029 0.729029 0.000000
0.230443 0.730443 0.000000
0.231857 0.731857 0.000000
0.233270 0.733270 0.000000
0.234684 0.734684 0.000000
0.236098 0.736098 0.000000
0.237512 0.737512 0.000000
0.238926 0.738926 0.000000
0.240339 0.740339 0.000000
0.241753 0.741753 0.000000
0.243167 0.743167 0.000000
0.244581 0.744581 0.000000
0.245994 0.745994 0.000000
0.247408 0.747408 0.000000
0.248822 0.748822 0.000000
0.250236 0.750236 0.000000
0.251649 0.751649 0.000000
0.253063 0.753063 0.000000
0.254477 0.754477 0.000000
0.255891 0.755891 0.000000
0.257304 0.757304 0.000000
0.258718 0.758718 0.000000
0.260132 0.760132 0.000000
0.261546 0.761546 0.000000
0.262959 0.762959 0.000000
0.264373 0.764373 0.000000
0.265787 0.765787 0.000000
0.267201 0.767201 0.000000
0.268615 0.768615 0.000000
0.270028 0.770028 0.000000
0.271442 0.771442 0.000000
0.272856 0.772856 0.000000
0.274270 0.774270 0.000000
0.275683 0.775683 0.000000
0.277097 0.777097 0.000000
0.278511 0.778511 0.000000
0.279925 0.779925 0.000000
0.281338 0.781338 0.000000
0.282752 0.782752 0.000000
0.284166 0.784166 0.000000
0.285580 0.785580 0.000000
0.286993 0.786993 0.000000
0.288407 0.788407 0.000000
0.289821 0.789821 0.000000
0.291235 0.791235 0.000000
0.292648 0.792648 0.000000
0.294062 0.794062 0.000000
0.295476 0.795476 0.000000
0.296890 0.796890 0.000000
0.298303 0.798303 0.000000
0.299717 0.799717 0.000000
0.301131 0.801131 0.000000
0.302545 0.802545 0.000000
0.303959 0.803959 0.000000
0.305372 0.805372 0.000000
0.306786 0.806786 0.000000
0.308200 0.808200 0.000000
0.309614 0.809614 0.000000
0.311027 0.811027 0.000000
0.312441 0.812441 0.000000
0.313855 0.813855 0.000000
0.315269 0.815269 0.000000
0.316682 0.816682 0.000000
0.318096 0.818096 0.000000
0.319510 0.819510 0.000000
0.320924 0.820924 0.000000
0.322337 0.822337 0.000000
0.323751 0.823751 0.000000
0.325165 0.825165 0.000000
0.326579 0.826579 0.000000
0.327992 0.827992 0.000000
0.329406 0.829406 0.000000
0.330820 0.830820 0.000000
0.332234 0.832234 0.000000
0.333648 0.833648 0.000000
0.335061 0.835061 0.000000
0.336475 0.836475 0.000000
0.337889 0.837889 0.000000
0.339303 0.839303 0.000000
0.340716 0.840716 0.000000
[...]
POINT_DATA 20431
SCALARS UX float 1
LOOKUP_TABLE default
-0.000000
0.000000
0.032449
-0.033846
-0.026469
0.016341
0.032671
-0.000000
-0.000000
0.000000
-0.000000
0.022130
0.028975
0.031640
0.032611
0.032961
0.033060
0.033049
0.033009
0.032963
0.032916
0.032877
0.032843
0.032814
0.032790
0.032770
0.032753
0.032740
0.032728
0.032719
0.032710
0.032704
0.032698
0.032693
0.032689
0.032686
0.032683
0.032680
0.032678
0.032676
0.032675
0.032673
0.032672
0.032671
0.032670
0.032669
0.032667
0.032665
0.032663
0.032659
0.032655
0.032650
0.032643
0.032635
0.032624
0.032610
0.032594
0.032575
0.032552
0.032527
0.032502
0.032476
0.032457
0.019179
0.005914
-0.007344
-0.020596
-0.033845
-0.033846
-0.033852
-0.033868
-0.033898
-0.033935
-0.033975
-0.034007
-0.034014
-0.033989
-0.033929
-0.033827
-0.033675
-0.033477
-0.033237
-0.032963
-0.032657
-0.032327
-0.031981
-0.031626
-0.031267
-0.030909
-0.030561
-0.030217
-0.029889
-0.029577
-0.029280
-0.029002
-0.028741
-0.028499
-0.028275
-0.028068
-0.027878
-0.027703
-0.027544
-0.027399
-0.027266
-0.027146
-0.027037
-0.026938
-0.026849
-0.026768
-0.026695
-0.026629
-0.026570
-0.026517
-0.026419
-0.026348
-0.026251
-0.026116
-0.025926
-0.025659
-0.025271
-0.024715
-0.023893
-0.022612
-0.020631
-0.017500
-0.011963
-0.026460
-0.026450
-0.026440
-0.026430
-0.026420
-0.026410
-0.026399
-0.026388
-0.026377
-0.026366
-0.026355
-0.026343
-0.026332
-0.026320
-0.026308
-0.026296
-0.026283
-0.026271
-0.026258
-0.026245
-0.026232
-0.026219
-0.026206
-0.026192
-0.026179
-0.026165
-0.026151
-0.026137
-0.026123
-0.026108
-0.026094
-0.026079
-0.026064
-0.026049
-0.026034
-0.026019
-0.026004
-0.025988
-0.025973
-0.025957
-0.025941
-0.025925
-0.025909
-0.025893
-0.025876
-0.025860
-0.025843
-0.025827
-0.025810
-0.025793
-0.025776
-0.025758
-0.025741
-0.025724
-0.025706
-0.025688
-0.025670
-0.025653
-0.025635
-0.025616
-0.025598
-0.025580
-0.025562
-0.025543
-0.025525
-0.025506
-0.025487
-0.025468
-0.025449
-0.025430
-0.025411
-0.025392
-0.025372
-0.025353
-0.025333
-0.025313
-0.025293
-0.025273
-0.025253
-0.025233
-0.025213
-0.025193
-0.025172
-0.025151
-0.025131
-0.025110
-0.025089
-0.025068
-0.025047
-0.025026
-0.025005
-0.024984
-0.024962
-0.024941
-0.024919
-0.024897
-0.024876
-0.024854
-0.024832
-0.024810
-0.024787
-0.024765
-0.024743
-0.024720
-0.024698
-0.024675
-0.024652
-0.024629
-0.024606
-0.024583
-0.024560
-0.024537
-0.024514
-0.024490
-0.024467
-0.024443
-0.024419
-0.024395
-0.024371
-0.024347
-0.024323
-0.024299
-0.024275
-0.024250
-0.024226
-0.024201
-0.024176
-0.024152
-0.024127
-0.024102
-0.024077
-0.024052
-0.024026
-0.024001
-0.023976
-0.023950
-0.023924
-0.023899
-0.023873
-0.023847
-0.023821
-0.023795
-0.023769
-0.023743
-0.023716
-0.023690
-0.023663
-0.023637
-0.023610
-0.023583
-0.023556
-0.023530
-0.023502
-0.023475
-0.023448
-0.023421
-0.023393
-0.023366
-0.023338
-0.023311
-0.023283
-0.023255
-0.023227
-0.023199
-0.023171
-0.023143
-0.023114
-0.023086
-0.023058
-0.023029
-0.023001
-0.022972
-0.022943
-0.022914
-0.022885
-0.022856
-0.022827
-0.022798
-0.022769
-0.022740
-0.022710
-0.022681
-0.022651
-0.022621
-0.022592
-0.022562
-0.022532
-0.022502
-0.022472
-0.022442
-0.022412
-0.022382
-0.022351
-0.022321
-0.022291
-0.022260
-0.022229
-0.022199
-0.022168
-0.022137
-0.022106
-0.022075
-0.022044
-0.022013
-0.021982
-0.021950
-0.021919
-0.021888
-0.021856
-0.021825
-0.021793
-0.021761
-0.021729
-0.021698
-0.021666
-0.021634
-0.021602
-0.021569
-0.021537
-0.021505
-0.021473
-0.021440
-0.021408
-0.021375
-0.021342
-0.021310
-0.021277
-0.021244
-0.021211
-0.021178
-0.021145
-0.021112
-0.021079
-0.021046
-0.021012
-0.020979
-0.020946
-0.020912
-0.020879
-0.020845
-0.020811
-0.020777
-0.020744
-0.020710
-0.020676
-0.020642
-0.020608
-0.020574
-0.020539
-0.020505
-0.020471
-0.020436
-0.020402
-0.020367
-0.020333
-0.020298
-0.020263
-0.020228
-0.020194
-0.020159
-0.020124
-0.020089
-0.020054
-0.020018
-0.019983
-0.019948
-0.019913
-0.019877
-0.019842
-0.019806
-0.019771
-0.019735
-0.019699
-0.019663
-0.019628
-0.019592
-0.019556
-0.019520
-0.019484
-0.019448
-0.019411
-0.019375
-0.019339
-0.019303
-0.019266
-0.019230
-0.019193
-0.019157
-0.019120
-0.019083
-0.019046
-0.019010
-0.018973
-0.018936
-0.018899
-0.018862
-0.018825
-0.018787
-0.018750
-0.018713
-0.018676
-0.018638
-0.018601
-0.018563
-0.018526
-0.018488
-0.018450
-0.018413
-0.018375
-0.018337
-0.018299
-0.018261
-0.018223
-0.018185
-0.018147
-0.018109
-0.018071
-0.018033
-0.017994
-0.017956
-0.017918
-0.017879
-0.017841
-0.017802
-0.017764
-0.017725
-0.017686
-0.017648
-0.017609
-0.017570
-0.017531
-0.017492
-0.017453
-0.017414
-0.017375
-0.017336
-0.017297
-0.017257
-0.017218
-0.017179
-0.017139
-0.017100
-0.017060
-0.017021
-0.016981
-0.016942
-0.016902
-0.016862
-0.016822
-0.016783
-0.016743
-0.016703
-0.016663
-0.016623
-0.016583
-0.016543
-0.016502
-0.016462
-0.016422
-0.016382
-0.016341
-0.016301
-0.016260
-0.016220
-0.016179
-0.016139
-0.016098
-0.016058
-0.016017
-0.015976
-0.015935
-0.015894
-0.015853
-0.015813
-0.015772
-0.015731
-0.015689
-0.015648
-0.015607
-0.015566
-0.015525
-0.015483
-0.015442
-0.015401
-0.015359
-0.015318
-0.015276
-0.015235
-0.015193
-0.015151
-0.015110
-0.015068
-0.015026
-0.014984
-0.014943
-0.014901
-0.014859
-0.014817
-0.014775
-0.014733
-0.014691
-0.014648
-0.014606
-0.014564
-0.014522
-0.014479
-0.014437
-0.014395
-0.014352
-0.014310
-0.014267
-0.014225
-0.014182
-0.014139
-0.014097
-0.014054
-0.014011
-0.013969
-0.013926
-0.013883
-0.013840
-0.013797
-0.013754
-0.013711
-0.013668
-0.013625
-0.013582
-0.013538
-0.013495
-0.013452
-0.013409
-0.013365
-0.013322
-0.013278
-0.013235
-0.013192
-0.013148
-0.013104
-0.013061
-0.013017
-0.012974
-0.012930
-0.012886
-0.012842
-0.012799
-0.012755
-0.012711
-0.012667
-0.012623
-0.012579
-0.012535
-0.012491
-0.012447
-0.012403
-0.012359
-0.012314
-0.012270
-0.012226
-0.012182
-0.012137
-0.012093
-0.012048
-0.012004
-0.011960
-0.011915
-0.011871
-0.011826
-0.011781
-0.011737
-0.011692
-0.011647
-0.011603
-0.011558
-0.011513
-0.011468
-0.011424
-0.011379
-0.011334
-0.011289
-0.011244
-0.011199
-0.011154
-0.011109
-0.011064
-0.011019
-0.010973
-0.010928
-0.010883
-0.010838
-0.010793
-0.010747
-0.010702
-0.010657
-0.010611
-0.010566
-0.010520
-0.010475
-0.010429
-0.010384
-0.010338
-0.010293
-0.010247
-0.010202
-0.010156
-0.010110
-0.010065
-0.010019
-0.009973
-0.009927
-0.009881
-0.009836
-0.009790
-0.009744
-0.009698
-0.009652
-0.009606
-0.009560
-0.009514
-0.009468
-0.009422
-0.009376
-0.009330
-0.009283
-0.009237
-0.009191
-0.009145
-0.009099
-0.009052
-0.009006
-0.008960
-0.008913
-0.008867
-0.008821
-0.008774
-0.008728
-0.008681
-0.008635
-0.008588
-0.008542
-0.008495
-0.008449
-0.008402
-0.008355
-0.008309
-0.008262
-0.008215
-0.008169
-0.008122
-0.008075
-0.008028
-0.007982
-0.007935
-0.007888
-0.007841
-0.007794
-0.007747
-0.007701
-0.007654
-0.007607
-0.007560
-0.007513
-0.007466
-0.007419
-0.007372
-0.007325
-0.007278
-0.007230
-0.007183
-0.007136
-0.007089
-0.007042
-0.006995
-0.006948
-0.006900
-0.006853
-0.006806
-0.006759
-0.006711
-0.006664
-0.006617
-0.006569
-0.006522
-0.006475
-0.006427
-0.006380
-0.006332
-0.006285
-0.006238
-0.006190
-0.006143
-0.006095
-0.006048
-0.006000
-0.005953
-0.005905
-0.005857
-0.005810
-0.005762
-0.005715
-0.005667
-0.005619
-0.005572
-0.005524
-0.005476
-0.005429
-0.005381
-0.005333
-0.005286
-0.005238
-0.005190
-0.005142
-0.005095
-0.005047
-0.004999
-0.004951
-0.004903
-0.004856
-0.004808
-0.004760
-0.004712
-0.004664
-0.004616
-0.004568
-0.004521
-0.004473
-0.004425
-0.004377
-0.004329
-0.004281
-0.004233
-0.004185
-0.004137
-0.004089
-0.004041
-0.003993
-0.003945
-0.003897
-0.003849
-0.003801
-0.003753
-0.003705
-0.003657
-0.003608
-0.003560
-0.003512
-0.003464
-0.003416
-0.003368
-0.003320
-0.003272
-0.003224
-0.003175
-0.003127
-0.003079
-0.003031
-0.002983
-0.002934
-0.002886
-0.002838
-0.002790
-0.002742
-0.002693
-0.002645
-0.002597
-0.002549
-0.002500
-0.002452
-0.002404
-0.002356
-0.002307
-0.002259
-0.002211
-0.002163
-0.002114
-0.002066
-0.002018
-0.001969
-0.001921
-0.001873
-0.001825
-0.001776
-0.001728
-0.001680
-0.001631
-0.001583
-0.001535
-0.001486
-0.001438
-0.001389
-0.001341
-0.001293
-0.001244
-0.001196
-0.001148
-0.001099
-0.001051
-0.001003
-0.000954
-0.000906
-0.000857
-0.000809
-0.000761
-0.000712
-0.000664
-0.000616
-0.000567
-0.000519
-0.000470
-0.000422
-0.000374
-0.000325
-0.000277
-0.000228
-0.000180
-0.000132
-0.000083
-0.000035
0.000014
0.000062
0.000110
0.000159
0.000207
0.000256
0.000304
0.000353
0.000401
0.000449
0.000498
0.000546
0.000595
0.000643
0.000691
0.000740
0.000788
0.000837
0.000885
0.000933
0.000982
0.001030
0.001079
0.001127
0.001175
0.001224
0.001272
0.001321
0.001369
0.001417
0.001466
0.001514
0.001563
0.001611
0.001659
0.001708
0.001756
0.001805
0.001853
0.001901
0.001950
0.001998
0.002046
0.002095
0.002143
0.002191
0.002240
0.002288
0.002337
0.002385
0.002433
0.002482
0.002530
0.002578
0.002627
0.002675
0.002723
0.002772
0.002820
0.002868
0.002916
0.002965
0.003013
0.003061
0.003110
0.003158
0.003206
0.003255
0.003303
0.003351
0.003399
0.003448
0.003496
0.003544
0.003592
0.003641
0.003689
0.003737
0.003785
0.003834
0.003882
0.003930
0.003978
0.004027
0.004075
0.004123
0.004171
0.004219
0.004268
0.004316
0.004364
0.004412
0.004460
0.004508
0.004557
0.004605
0.004653
0.004701
0.004749
0.004797
0.004845
0.004894
0.004942
0.004990
0.005038
0.005086
0.005134
0.005182
0.005230
0.005278
0.005326
0.005374
0.005423
0.005471
0.005519
0.005567
0.005615
0.005663
0.005711
0.005759
0.005807
0.005855
0.005903
0.005951
0.005999
0.006047
0.006095
0.006143
0.006191
0.006239
0.006287
0.006335
0.006382
0.006430
0.006478
0.006526
0.006574
0.006622
0.006670
0.006718
0.006766
0.006814
0.006862
0.006909
0.006957
0.007005
0.007053
0.007101
0.007149
0.007196
0.007244
0.007292
0.007340
0.007388
0.007435
0.007483
0.007531
0.007579
0.007627
0.007674
0.007722
0.007770
0.007818
0.007865
0.007913
0.007961
0.008008
0.008056
0.008104
0.008152
0.008199
0.008247
0.008295
0.008342
0.008390
0.008437
0.008485
0.008533
0.008580
0.008628
0.008676
0.008723
0.008771
0.008818
0.008866
0.008913
0.008961
0.009009
0.009056
0.009104
0.009151
0.009199
0.009246
0.009294
0.009341
0.009389
0.009436
0.009484
0.009531
0.009579
0.009626
0.009674
0.009721
0.009768
0.009816
0.009863
0.009911
0.009958
0.010006
0.010053
0.010100
0.010148
0.010195
0.010242
0.010290
0.010337
0.010384
0.010432
0.010479
0.010526
0.010574
0.010621
0.010668
0.010716
0.010763
0.010810
0.010858
0.010905
0.010952
0.010999
0.011047
0.011094
0.011141
0.011188
0.011235
0.011283
0.011330
0.011377
0.011424
0.011471
0.011519
0.011566
0.011613
0.011660
0.011707
0.011754
0.011801
0.011848
0.011896
0.011943
0.011990
0.012037
0.012084
0.012131
0.012178
0.012225
0.012272
0.012319
0.012366
0.012413
0.012460
0.012507
0.012554
0.012601
0.012648
0.012695
0.012742
0.012789
0.012836
0.012883
0.012930
0.012977
0.013024
0.013071
0.013118
0.013165
0.013212
0.013259
0.013306
0.013353
0.013399
0.013446
0.013493
0.013540
0.013587
0.013634
0.013681
0.013727
0.013774
0.013821
0.013868
0.013915
0.013962
0.014008
0.014055
0.014102
0.014149
0.014195
0.014242
0.014289
0.014336
0.014383
0.014429
0.014476
0.014523
0.014569
0.014616
0.014663
0.014710
0.014756
0.014803
0.014850
0.014896
0.014943
0.014990
0.015036
0.015083
0.015130
0.015176
0.015223
0.015270
0.015316
0.015363
0.015410
0.015456
0.015503
0.015549
0.015596
0.015643
0.015689
0.015736
0.015782
0.015829
0.015876
0.015922
0.015969
0.016015
0.016062
0.016108
0.016155
0.016201
0.016248
0.016294
0.016387
0.016434
0.016480
0.016527
0.016573
0.016620
0.016666
0.016713
0.016759
0.016805
0.016852
0.016898
0.016945
0.016991
0.017037
0.017084
0.017130
0.017177
0.017223
0.017269
0.017316
0.017362
0.017408
0.017455
0.017501
0.017548
0.017594
0.017640
0.017687
0.017733
0.017779
0.017826
0.017872
0.017918
0.017964
0.018011
0.018057
0.018103
0.018150
0.018196
0.018242
0.018289
0.018335
0.018381
0.018427
0.018474
0.018520
0.018566
0.018612
0.018659
0.018705
0.018751
0.018797
0.018844
0.018890
0.018936
0.018982
0.019029
0.019075
0.019121
0.019167
0.019213
0.019260
0.019306
0.019352
0.019398
0.019444
0.019491
0.019537
0.019583
0.019629
0.019675
0.019721
0.019768
0.019814
0.019860
0.019906
0.019952
0.019998
0.020045
0.020091
0.020137
0.020183
0.020229
0.020275
0.020321
0.020368
0.020414
0.020460
0.020506
0.020552
0.020598
0.020644
0.020690
0.020736
0.020783
0.020829
0.020875
0.020921
0.020967
0.021013
0.021059
0.021105
0.021151
0.021197
0.021244
0.021290
0.021336
0.021382
0.021428
0.021474
0.021520
0.021566
0.021612
0.021658
0.021704
0.021750
0.021796
0.021843
0.021889
0.021935
0.021981
0.022027
0.022073
0.022119
0.022165
0.022211
0.022257
0.022303
0.022349
0.022395
0.022441
0.022487
0.022533
0.022579
0.022625
0.022671
0.022717
0.022763
0.022809
0.022856
0.022902
0.022948
0.022994
0.023040
0.023086
0.023132
0.023178
0.023224
0.023270
0.023316
0.023362
0.023408
0.023454
0.023500
0.023546
0.023592
0.023638
0.023684
0.023730
0.023776
0.023822
0.023868
0.023914
0.023960
0.024006
0.024052
0.024098
0.024144
0.024190
0.024236
0.024282
0.024328
0.024374
0.024420
0.024466
0.024512
0.024558
0.024604
0.024650
0.024696
0.024742
0.024788
0.024834
0.024880
0.024926
0.024972
0.025018
0.025064
0.025110
0.025156
0.025202
0.025248
0.025294
0.025340
0.025386
0.025432
0.025478
0.025524
0.025570
0.025616
0.025662
0.025708
0.025754
0.025800
0.025846
0.025892
0.025938
0.025984
0.026030
0.026076
0.026122
0.026168
0.026214
0.026260
0.026306
0.026352
0.026399
0.026445
0.026491
0.026537
0.026583
0.026629
0.026675
0.026721
0.026767
0.026813
0.026859
0.026905
0.026951
0.026997
0.027043
0.027089
0.027135
0.027181
0.027227
0.027273
0.027319
0.027365
0.027411
0.027457
0.027503
0.027549
0.027595
0.027641
0.027687
0.027733
0.027780
0.027826
0.027872
0.027918
0.027964
0.028010
0.028056
0.028102
0.028148
0.028194
0.028240
0.028286
0.028332
0.028378
0.028424
0.028470
0.028516
0.028563
0.028609
0.028655
0.028701
0.028747
0.028793
0.028839
0.028885
0.028931
0.028977
0.029023
0.029069
0.029116
0.029162
0.029208
0.029254
0.029300
0.029346
0.029392
0.029438
0.029484
0.029530
0.029577
0.029623
0.029669
0.029715
0.029761
0.029807
0.029853
0.029899
0.029946
0.029992
0.030038
0.030084
0.030130
0.030176
0.030222
0.030268
0.030315
0.030361
0.030407
0.030453
0.030499
0.030545
0.030591
0.030638
0.030684
0.030730
0.030776
0.030822
0.030868
0.030915
0.030961
0.031007
0.031053
0.031099
0.031145
0.031192
0.031238
0.031284
0.031330
0.031376
0.031423
0.031469
0.031515
0.031561
0.031607
0.031654
0.031700
0.031746
0.031792
0.031838
0.031885
0.031931
0.031977
0.032023
0.032069
0.032116
0.032162
0.032208
0.032254
0.032301
0.032347
0.032393
0.032439
0.032486
0.032532
0.032578
0.032624
0.023249
0.023272
0.023200
0.020789
0.020824
0.020856
-0.016804
-0.016780
-0.016851
-0.016881
-0.008847
0.026415
0.026498
0.026516
0.026566
0.022313
0.022239
0.022263
-0.009023
-0.008974
-0.009033
-0.008948
-0.024405
-0.024440
-0.024355
-0.024366
-0.009325
-0.009289
-0.009255
0.009118
0.009045
0.009086
0.009111
-0.015277
-0.015677
-0.018467
-0.019026
0.006444
0.006371
0.006400
0.006393
-0.007110
-0.007263
-0.007133
-0.007139
0.016930
0.016790
0.016648
0.017110
-0.024516
-0.024487
-0.024403
0.007925
0.007917
0.008002
0.008041
0.000396
-0.001504
-0.001049
-0.002625
0.003903
0.004007
0.004048
-0.013039
-0.012425
-0.013065
-0.002153
-0.002105
-0.002221
-0.002170
0.020563
0.020809
0.020784
0.021038
-0.000537
-0.000370
-0.000440
-0.000201
0.006913
0.006987
0.006856
0.007021
0.006442
0.006494
0.006402
0.006537
-0.003505
-0.003517
-0.003581
-0.003618
0.023075
0.023043
0.022957
-0.009696
-0.009832
-0.009738
0.003910
0.022926
0.022841
0.022838
0.022966
0.010563
0.010646
0.010608
-0.000161
-0.000143
-0.000213
0.010640
0.006372
0.006138
0.006054
-0.000087
0.012201
0.012149
0.012039
0.019176
0.019258
0.019163
0.019295
0.011823
0.011869
0.011786
0.011899
0.012010
-0.021070
-0.021165
-0.021116
0.027177
0.027099
0.027228
-0.021208
-0.014722
-0.014784
-0.014844
-0.014664
-0.011862
-0.011807
-0.012001
-0.011867
-0.006637
-0.006779
-0.006676
0.003480
0.003560
0.003458
0.003531
-0.006801
0.010613
0.010674
0.010564
-0.011262
-0.011374
-0.011269
-0.012313
-0.012463
-0.012579
0.010672
0.021132
0.021153
0.021052
-0.018803
-0.018772
-0.018733
0.022637
0.022725
0.022730
0.022652
0.013324
0.013200
0.013250
0.013068
0.000414
-0.000233
0.000431
0.000267
0.010013
0.010280
0.009576
0.010685
-0.017768
-0.017716
-0.017871
-0.017613
0.030754
0.030693
-0.025613
-0.025398
-0.025274
-0.025036
-0.016605
-0.016171
-0.015176
-0.017869
0.031775
0.031799
0.031909
-0.019154
-0.017630
-0.019254
-0.019363
-0.018960
0.021933
0.021917
0.021805
0.008592
0.008547
0.008651
0.008618
0.000625
0.000432
0.000571
-0.024791
-0.024781
-0.024919
-0.024805
0.031818
0.031636
0.031873
0.031578
0.027228
0.027310
0.027396
0.021775
0.013115
0.013023
0.012929
0.012856
-0.002919
-0.002865
-0.002803
-0.002960
-0.005258
-0.005562
-0.006402
0.027797
0.027773
0.027535
0.027632
-0.007041
-0.006863
-0.007716
-0.007353
0.012882
0.012892
0.012808
0.007481
0.007737
0.009892
0.005441
-0.021934
-0.022048
-0.021691
-0.022445
0.029344
0.029412
0.006675
0.006665
0.006713
0.012964
0.000833
0.001173
0.001404
0.001590
-0.011959
-0.012077
-0.012026
-0.012016
-0.011595
-0.013376
-0.012806
-0.011655
-0.002684
-0.002546
-0.002784
-0.002753
-0.014394
-0.013944
-0.013609
-0.013254
0.028918
0.029079
0.029182
0.028911
-0.013231
-0.013210
-0.013169
-0.027409
-0.028575
-0.027451
-0.027566
-0.023290
-0.023356
-0.023368
-0.004296
-0.004312
-0.009007
-0.009020
-0.009588
-0.008493
0.012069
0.011347
0.011446
0.010645
0.001689
0.004638
0.004250
0.003777
0.015807
0.015867
0.015418
0.015418
0.025780
0.025181
0.025381
0.025736
-0.011062
-0.011019
-0.011379
-0.011446
-0.009378
-0.009339
-0.009283
-0.009463
0.017641
0.017918
0.017708
0.017882
0.017385
0.017355
0.017691
-0.002187
-0.002103
-0.002083
-0.002182
0.030478
0.030138
0.030450
0.022944
-0.005798
-0.006439
-0.006115
-0.006075
0.025396
0.025420
0.025270
0.025327
0.004904
0.004994
0.004927
0.005032
0.012072
0.012213
-0.003302
-0.003059
-0.002853
-0.002678
-0.000869
-0.000860
-0.000061
-0.001690
-0.000334
-0.000284
-0.000247
0.028331
0.028234
0.028224
-0.016979
-0.017030
-0.016782
-0.016763
-0.000226
-0.014457
-0.013524
-0.014225
0.025843
0.025963
0.026160
0.026277
0.024166
0.024115
0.024106
0.024025
0.011458
0.011205
0.011140
0.011699
0.009886
0.009801
0.009762
0.009898
0.009835
0.009941
0.012647
0.012273
0.012517
-0.001741
-0.001814
-0.001726
0.007188
0.006224
0.008508
-0.001761
0.016448
0.016638
0.016054
0.013978
0.014084
0.014079
0.014009
0.020920
0.020938
0.020812
-0.014549
-0.012924
0.021028
0.019857
0.019825
0.019772
0.019746
-0.011451
-0.011405
-0.011471
0.025509
0.006870
0.006905
0.006691
0.006657
-0.020828
-0.020164
-0.020407
-0.019856
0.008365
0.008353
0.008279
0.008438
-0.013793
-0.013544
-0.014173
-0.013440
-0.016740
-0.017090
-0.015734
-0.017996
0.017840
0.017800
0.017922
-0.014458
-0.014334
-0.014654
0.009195
0.009174
0.008845
0.008628
0.022306
0.018486
0.018395
0.018483
0.013865
0.014327
0.013939
0.014258
-0.003487
-0.003865
-0.003949
0.018393
0.019514
0.019664
0.019516
0.009820
0.010041
0.010149
0.010370
0.012157
0.011361
-0.006913
-0.007164
-0.006819
-0.007389
-0.019178
-0.020091
-0.020092
-0.018667
-0.014511
-0.014731
0.006010
0.005964
0.006313
0.019597
-0.004240
-0.003468
-0.003167
-0.004442
0.009669
0.010621
0.014506
0.014559
0.014522
-0.014383
-0.014176
-0.014111
0.014610
-0.011576
-0.011556
-0.011502
0.020501
0.020406
0.020461
0.020366
-0.007657
-0.007622
-0.007589
-0.013536
-0.015657
0.003660
0.003639
0.003593
0.021794
0.021776
0.021722
0.021694
0.014572
0.014628
0.014666
0.005294
0.005001
0.004923
0.004501
0.014106
0.014033
0.014064
0.013987
0.012307
0.012343
0.012273
0.019459
0.019524
0.019561
0.014097
0.014005
0.014539
0.019591
-0.017568
-0.017569
-0.017494
0.013637
0.010482
0.010265
0.010584
0.014554
-0.018692
-0.018661
-0.018709
0.007339
0.005752
0.006396
-0.017643
0.018298
0.018302
0.018404
0.026230
0.026267
0.026182
0.026230