# vtk DataFile Version 2.0
Test
ASCII
DATASET POLYDATA
POINTS 20431 float
0.000000 0.000000 0.000000
2.000000 0.000000 0.000000
2.000000 4.000000 0.000000
0.000000 4.000000 0.000000
0.000000 0.500000 0.000000
1.500000 2.000000 0.000000
2.000000 2.500000 0.000000
0.400000 0.000000 0.000000
0.800000 0.000000 0.000000
1.200000 0.000000 0.000000
1.600000 0.000000 0.000000
2.000000 0.362557 0.000000
2.000000 0.672798 0.000000
2.000000 0.938272 0.000000
2.000000 1.165439 0.000000
2.000000 1.359826 0.000000
2.000000 1.526163 0.000000
2.000000 1.668499 0.000000
2.000000 1.790295 0.000000
2.000000 1.894517 0.000000
2.000000 1.983700 0.000000
2.000000 2.060013 0.000000
2.000000 2.125315 0.000000
2.000000 2.181194 0.000000
2.000000 2.229010 0.000000
2.000000 2.269926 0.000000
2.000000 2.304938 0.000000
2.000000 2.334898 0.000000
2.000000 2.360534 0.000000
2.000000 2.382472 0.000000
2.000000 2.401244 0.000000
2.000000 2.417307 0.000000
2.000000 2.431052 0.000000
2.000000 2.442814 0.000000
2.000000 2.452878 0.000000
2.000000 2.461491 0.000000
2.000000 2.468860 0.000000
2.000000 2.475167 0.000000
2.000000 2.480563 0.000000
2.000000 2.485180 0.000000
2.000000 2.489132 0.000000
2.000000 2.492513 0.000000
2.000000 2.495406 0.000000
2.000000 2.497882 0.000000
2.000000 2.502286 0.000000
2.000000 2.505266 0.000000
2.000000 2.509150 0.000000
2.000000 2.514212 0.000000
2.000000 2.520809 0.000000
2.000000 2.529407 0.000000
2.000000 2.540613 0.000000
2.000000 2.555218 0.000000
2.000000 2.574253 0.000000
2.000000 2.599061 0.000000
2.000000 2.631395 0.000000
2.000000 2.673536 0.000000
2.000000 2.728460 0.000000
2.000000 2.800043 0.000000
2.000000 2.893339 0.000000
2.000000 3.014933 0.000000
2.000000 3.173410 0.000000
2.000000 3.379956 0.000000
2.000000 3.649152 0.000000
1.600000 4.000000 0.000000
1.200000 4.000000 0.000000
0.800000 4.000000 0.000000
0.400000 4.000000 0.000000
0.000000 3.624996 0.000000
0.000000 3.289970 0.000000
0.000000 2.990661 0.000000
0.000000 2.723261 0.000000
0.000000 2.484368 0.000000
0.000000 2.270943 0.000000
0.000000 2.080271 0.000000
0.000000 1.909926 0.000000
0.000000 1.757741 0.000000
0.000000 1.621780 0.000000
0.000000 1.500314 0.000000
0.000000 1.391797 0.000000
0.000000 1.294849 0.000000
0.000000 1.208237 0.000000
0.000000 1.130858 0.000000
0.000000 1.061728 0.000000
0.000000 0.999968 0.000000
0.000000 0.944792 0.000000
0.000000 0.895499 0.000000
0.000000 0.851460 0.000000
0.000000 0.812117 0.000000
0.000000 0.776968 0.000000
0.000000 0.745565 0.000000
0.000000 0.717511 0.000000
0.000000 0.692448 0.000000
0.000000 0.670056 0.000000
0.000000 0.650052 0.000000
0.000000 0.632180 0.000000
0.000000 0.616213 0.000000
0.000000 0.601949 0.000000
0.000000 0.589205 0.000000
0.000000 0.577820 0.000000
0.000000 0.567649 0.000000
0.000000 0.558562 0.000000
0.000000 0.550444 0.000000
0.000000 0.543191 0.000000
0.000000 0.536712 0.000000
0.000000 0.530923 0.000000
0.000000 0.525751 0.000000
0.000000 0.521131 0.000000
0.000000 0.517003 0.000000
0.000000 0.513315 0.000000
0.000000 0.510021 0.000000
0.000000 0.507078 0.000000
0.000000 0.504448 0.000000
0.000000 0.502099 0.000000
0.000000 0.497804 0.000000
0.000000 0.494785 0.000000
0.000000 0.490633 0.000000
0.000000 0.484924 0.000000
0.000000 0.477074 0.000000
0.000000 0.466279 0.000000
0.000000 0.451436 0.000000
0.000000 0.431025 0.000000
0.000000 0.402959 0.000000
0.000000 0.364366 0.000000
0.000000 0.311297 0.000000
0.000000 0.238324 0.000000
0.000000 0.137980 0.000000
0.001414 0.501414 0.000000
0.002828 0.502828 0.000000
0.004241 0.504241 0.000000
0.005655 0.505655 0.000000
0.007069 0.507069 0.000000
0.008483 0.508483 0.000000
0.009896 0.509896 0.000000
0.011310 0.511310 0.000000
0.012724 0.512724 0.000000
0.014138 0.514138 0.000000
0.015551 0.515551 0.000000
0.016965 0.516965 0.000000
0.018379 0.518379 0.000000
0.019793 0.519793 0.000000
0.021206 0.521206 0.000000
0.022620 0.522620 0.000000
0.024034 0.524034 0.000000
0.025448 0.525448 0.000000
0.026861 0.526861 0.000000
0.028275 0.528275 0.000000
0.029689 0.529689 0.000000
0.031103 0.531103 0.000000
0.032516 0.532516 0.000000
0.033930 0.533930 0.000000
0.035344 0.535344 0.000000
0.036758 0.536758 0.000000
0.038172 0.538172 0.000000
0.039585 0.539585 0.000000
0.040999 0.540999 0.000000
0.042413 0.542413 0.000000
0.043827 0.543827 0.000000
0.045240 0.545240 0.000000
0.046654 0.546654 0.000000
0.048068 0.548068 0.000000
0.049482 0.549482 0.000000
0.050895 0.550895 0.000000
0.052309 0.552309 0.000000
0.053723 0.553723 0.000000
0.055137 0.555137 0.000000
0.056550 0.556550 0.000000
0.057964 0.557964 0.000000
0.059378 0.559378 0.000000
0.060792 0.560792 0.000000
0.062205 0.562205 0.000000
0.063619 0.563619 0.000000
0.065033 0.565033 0.000000
0.066447 0.566447 0.000000
0.067861 0.567861 0.000000
0.069274 0.569274 0.000000
0.070688 0.570688 0.000000
0.072102 0.572102 0.000000
0.073516 0.573516 0.000000
0.074929 0.574929 0.000000
0.076343 0.576343 0.000000
0.077757 0.577757 0.000000
0.079171 0.579171 0.000000
0.080584 0.580584 0.000000
0.081998 0.581998 0.000000
0.083412 0.583412 0.000000
0.084826 0.584826 0.000000
0.086239 0.586239 0.000000
0.087653 0.587653 0.000000
0.089067 0.589067 0.000000
0.090481 0.590481 0.000000
0.091894 0.591894 0.000000
0.093308 0.593308 0.000000
0.094722 0.594722 0.000000
0.096136 0.596136 0.000000
0.097549 0.597549 0.000000
0.098963 0.598963 0.000000
0.100377 0.600377 0.000000
0.101791 0.601791 0.000000
0.103205 0.603205 0.000000
0.104618 0.604618 0.000000
0.106032 0.606032 0.000000
0.107446 0.607446 0.000000
0.108860 0.608860 0.000000
0.110273 0.610273 0.000000
0.111687 0.611687 0.000000
0.113101 0.613101 0.000000
0.114515 0.614515 0.000000
0.115928 0.615928 0.000000
0.117342 0.617342 0.000000
0.118756 0.618756 0.000000
0.120170 0.620170 0.000000
0.121583 0.621583 0.000000
0.122997 0.622997 0.000000
0.124411 0.624411 0.000000
0.125825 0.625825 0.000000
0.127238 0.627238 0.000000
0.128652 0.628652 0.000000
0.130066 0.630066 0.000000
0.131480 0.631480 0.000000
0.132893 0.632893 0.000000
0.134307 0.634307 0.000000
0.135721 0.635721 0.000000
0.137135 0.637135 0.000000
0.138549 0.638549 0.000000
0.139962 0.639962 0.000000
0.141376 0.641376 0.000000
0.142790 0.642790 0.000000
0.144204 0.644204 0.000000
0.145617 0.645617 0.000000
0.147031 0.647031 0.000000
0.148445 0.648445 0.000000
0.149859 0.649859 0.000000
0.151272 0.651272 0.000000
0.152686 0.652686 0.000000
0.154100 0.654100 0.000000
0.155514 0.655514 0.000000
0.156927 0.656927 0.000000
0.158341 0.658341 0.000000
0.159755 0.659755 0.000000
0.161169 0.661169 0.000000
0.162582 0.662582 0.000000
0.163996 0.663996 0.000000
0.165410 0.665410 0.000000
0.166824 0.666824 0.000000
0.168238 0.668238 0.000000
0.169651 0.669651 0.000000
0.171065 0.671065 0.000000
0.172479 0.672479 0.000000
0.173893 0.673893 0.000000
0.175306 0.675306 0.000000
0.176720 0.676720 0.000000
0.178134 0.678134 0.000000
0.179548 0.679548 0.000000
0.180961 0.680961 0.000000
0.182375 0.682375 0.000000
0.183789 0.683789 0.000000
0.185203 0.685203 0.000000
0.186616 0.686616 0.000000
0.188030 0.688030 0.000000
0.189444 0.689444 0.000000
0.190858 0.690858 0.000000
0.192271 0.692271 0.000000
0.193685 0.693685 0.000000
0.195099 0.695099 0.000000
0.196513 0.696513 0.000000
0.197926 0.697926 0.000000
0.199340 0.699340 0.000000
0.200754 0.700754 0.000000
0.202168 0.702168 0.000000
0.203582 0.703582 0.000000
0.204995 0.704995 0.000000
0.206409 0.706409 0.000000
0.207823 0.707823 0.000000
0.209237 0.709237 0.000000
0.210650 0.710650 0.000000
0.212064 0.712064 0.000000
0.213478 0.713478 0.000000
0.214892 0.714892 0.000000
0.216305 0.716305 0.000000
0.217719 0.717719 0.000000
0.219133 0.719133 0.000000
0.220547 0.720547 0.000000
0.221960 0.721960 0.000000
0.223374 0.723374 0.000000
0.224788 0.724788 0.000000
0.226202 0.726202 0.000000
0.227615 0.727615 0.000000
0.229029 0.729029 0.000000
0.230443 0.730443 0.000000
0.231857 0.731857 0.000000
0.233270 0.733270 0.000000
0.234684 0.734684 0.000000
0.236098 0.736098 0.000000
0.237512 0.737512 0.000000
0.238926 0.738926 0.000000
0.240339 0.740339 0.000000
0.241753 0.741753 0.000000
0.243167 0.743167 0.000000
0.244581 0.744581 0.000000
0.245994 0.745994 0.000000
0.247408 0.747408 0.000000
0.248822 0.748822 0.000000
0.250236 0.750236 0.000000
0.251649 0.751649 0.000000
0.253063 0.753063 0.000000
0.254477 0.754477 0.000000
0.255891 0.755891 0.000000
0.257304 0.757304 0.000000
0.258718 0.758718 0.000000
0.260132 0.760132 0.000000
0.261546 0.761546 0.000000
0.262959 0.762959 0.000000
0.264373 0.764373 0.000000
0.265787 0.765787 0.000000
0.267201 0.767201 0.000000
0.268615 0.768615 0.000000
0.270028 0.770028 0.000000
0.271442 0.771442 0.000000
0.272856 0.772856 0.000000
0.274270 0.774270 0.000000
0.275683 0.775683 0.000000
0.277097 0.777097 0.000000
0.278511 0.778511 0.000000
0.279925 0.779925 0.000000
0.281338 0.781338 0.000000
0.282752 0.782752 0.000000
0.284166 0.784166 0.000000
0.285580 0.785580 0.000000
0.286993 0.786993 0.000000
0.288407 0.788407 0.000000
0.289821 0.789821 0.000000
0.291235 0.791235 0.000000
0.292648 0.792648 0.000000
0.294062 0.794062 0.000000
0.295476 0.795476 0.000000
0.296890 0.796890 0.000000
0.298303 0.798303 0.000000
0.299717 0.799717 0.000000
0.301131 0.801131 0.000000
0.302545 0.802545 0.000000
0.303959 0.803959 0.000000
0.305372 0.805372 0.000000
0.306786 0.806786 0.000000
0.308200 0.808200 0.000000
0.309614 0.809614 0.000000
0.311027 0.811027 0.000000
0.312441 0.812441 0.000000
0.313855 0.813855 0.000000
0.315269 0.815269 0.000000
0.316682 0.816682 0.000000
0.318096 0.818096 0.000000
0.319510 0.819510 0.000000
0.320924 0.820924 0.000000
0.322337 0.822337 0.000000
0.323751 0.823751 0.000000
0.325165 0.825165 0.000000
0.326579 0.826579 0.000000
0.327992 0.827992 0.000000
0.329406 0.829406 0.000000
0.330820 0.830820 0.000000
0.332234 0.832234 0.000000
0.333648 0.833648 0.000000
0.335061 0.835061 0.000000
0.336475 0.836475 0.000000
0.337889 0.837889 0.000000
0.339303 0.839303 0.000000
0.340716 0.840716 0.000000
[...]
POINT_DATA 20431
SCALARS UX float 1
LOOKUP_TABLE default
-0.000000
0.000000
-0.002952
-0.009622
-0.003077
-0.000765
-0.001368
-0.000000
-0.000000
0.000000
-0.000000
0.002495
0.003354
0.003777
0.003979
0.004045
0.003964
0.003717
0.003293
0.002733
0.002090
0.001476
0.000934
0.000484
0.000120
-0.000167
-0.000396
-0.000577
-0.000723
-0.000841
-0.000936
-0.001014
-0.001078
-0.001132
-0.001176
-0.001213
-0.001244
-0.001270
-0.001292
-0.001310
-0.001326
-0.001339
-0.001350
-0.001360
-0.001377
-0.001388
-0.001403
-0.001421
-0.001445
-0.001476
-0.001515
-0.001564
-0.001626
-0.001700
-0.001790
-0.001898
-0.002023
-0.002163
-0.002319
-0.002480
-0.002633
-0.002793
-0.002901
-0.004471
-0.005883
-0.007173
-0.008400
-0.009512
-0.009289
-0.008990
-0.008701
-0.008491
-0.008384
-0.008395
-0.008491
-0.008654
-0.008839
-0.009032
-0.009213
-0.009374
-0.009513
-0.009626
-0.009716
-0.009784
-0.009835
-0.009872
-0.009899
-0.009920
-0.009938
-0.009955
-0.009966
-0.009969
-0.009955
-0.009919
-0.009874
-0.009826
-0.009778
-0.009731
-0.009683
-0.009634
-0.009582
-0.009531
-0.009480
-0.009344
-0.009099
-0.008855
-0.008648
-0.008425
-0.008664
-0.008561
-0.008368
-0.007109
-0.005698
-0.003000
-0.002883
-0.002717
-0.002632
-0.002529
-0.002452
-0.002376
-0.002295
-0.002207
-0.002091
-0.001914
-0.001632
-0.001122
-0.003163
-0.003448
-0.003472
-0.003467
-0.003133
-0.002263
-0.003666
-0.002817
-0.003025
-0.003294
-0.003550
-0.003667
-0.003691
-0.005979
-0.005962
-0.005879
-0.005216
-0.005189
-0.005349
-0.005243
-0.005171
-0.005229
-0.005212
-0.005162
-0.005274
-0.005256
-0.005226
-0.005328
-0.005225
-0.005156
-0.005172
-0.005211
-0.005198
-0.005192
-0.005148
-0.005127
-0.005221
-0.005236
-0.005221
-0.005189
-0.005219
-0.005218
-0.005198
-0.005203
-0.005220
-0.005227
-0.005215
-0.005188
-0.005189
-0.005147
-0.005061
-0.005108
-0.005056
-0.005014
-0.004990
-0.004934
-0.005035
-0.004954
-0.004959
-0.005026
-0.004971
-0.004992
-0.004962
-0.004391
-0.004365
-0.004345
-0.004337
-0.004241
-0.004271
-0.004191
-0.004105
-0.004334
-0.005982
0.006680
-0.005561
-0.005022
-0.004219
-0.004080
-0.002823
-0.004617
-0.004720
-0.004705
-0.004713
-0.005020
-0.004994
-0.005017
-0.005027
-0.005012
-0.004985
-0.004924
-0.004933
-0.005631
-0.004952
-0.005464
-0.005378
-0.005666
-0.005558
-0.005401
-0.004682
-0.004701
-0.006713
-0.006575
-0.006556
-0.006693
-0.004847
-0.004855
-0.004857
-0.004653
-0.004360
-0.004898
-0.005485
-0.005439
-0.005430
-0.005468
-0.005398
-0.005308
-0.005355
-0.005261
-0.005334
-0.005290
-0.005280
-0.005253
-0.005365
-0.005272
-0.005220
-0.005131
-0.005190
-0.005135
-0.005176
-0.005211
-0.005112
-0.005062
-0.004990
-0.005132
-0.005133
-0.005100
-0.005070
-0.005074
-0.004934
-0.005052
-0.005006
-0.005495
-0.005521
-0.005555
-0.005434
-0.005405
-0.005477
-0.005518
-0.005572
-0.005667
-0.005536
-0.005409
-0.005496
-0.005510
-0.005517
-0.005593
-0.005551
-0.005485
-0.005524
-0.005433
-0.005550
-0.005491
-0.005458
-0.005454
-0.005395
-0.005484
-0.005540
-0.005721
-0.004898
-0.004894
-0.004908
-0.004885
-0.004931
-0.004909
-0.006043
-0.006069
-0.006004
-0.005796
-0.005827
-0.005809
-0.005783
-0.005716
-0.005707
-0.005756
-0.005829
-0.005684
-0.005577
-0.005667
-0.005657
-0.005635
-0.005615
-0.005746
-0.005592
-0.005569
-0.005592
-0.005633
-0.005778
-0.005836
-0.005725
-0.005741
-0.005650
-0.005650
-0.005725
-0.005723
-0.005574
-0.005498
-0.005551
-0.005601
-0.005554
-0.005551
-0.005556
-0.005235
-0.005253
-0.005253
-0.005208
-0.005181
-0.005237
-0.004926
-0.004883
-0.004879
-0.004500
-0.004861
-0.004321
-0.005139
-0.005171
-0.005193
-0.005165
-0.005015
-0.005019
-0.005096
-0.005029
-0.005020
-0.005010
-0.004975
-0.004999
-0.004960
-0.005176
-0.005118
-0.005135
-0.005133
-0.005065
-0.005047
-0.005073
-0.004991
-0.005082
-0.005062
-0.005039
-0.004998
-0.005055
-0.005053
-0.005013
-0.005023
-0.005013
-0.004523
-0.004669
-0.005284
-0.005245
-0.005176
-0.005189
-0.005204
-0.005244
-0.005212
-0.005129
-0.005220
-0.005113
-0.005164
-0.005165
-0.005157
-0.005026
-0.005054
-0.005044
-0.005018
-0.004988
-0.004964
-0.004915
-0.004965
-0.004932
-0.004941
-0.004919
-0.005228
-0.005192
-0.005262
-0.005287
-0.005311
-0.004836
-0.004898
-0.004787
-0.004810
-0.004781
-0.004750
-0.004698
-0.004717
-0.004302
-0.004331
-0.004404
-0.004403
-0.004371
-0.004305
-0.004238
-0.004245
-0.004221
-0.004232
-0.004213
-0.004149
-0.004192
-0.004206
-0.004202
-0.004175
-0.004937
-0.004942
-0.004960
-0.004908
-0.004889
-0.004889
-0.004927
-0.004935
-0.004906
-0.004978
-0.004989
-0.005003
-0.005113
-0.005058
-0.005014
-0.005001
-0.004951
-0.004913
-0.004903
-0.004276
-0.004387
-0.004351
-0.004294
-0.004277
-0.004258
-0.004218
-0.004206
-0.004275
-0.004310
-0.004192
-0.004132
-0.004153
-0.004152
-0.004011
-0.003756
-0.004090
-0.004147
-0.003957
-0.003970
-0.004002
-0.004119
-0.004208
-0.004210
-0.004249
-0.004264
-0.004266
-0.004337
-0.004512
-0.004377
-0.003970
-0.004014
-0.004047
-0.004097
-0.004053
-0.004059
-0.004062
-0.004039
-0.004051
-0.004056
-0.004121
-0.004101
-0.004064
-0.004057
-0.004118
-0.004089
-0.004107
-0.004571
-0.004718
-0.004621
-0.004676
-0.004601
-0.004551
-0.004447
-0.004488
-0.003585
-0.004421
-0.004428
-0.004475
-0.004425
-0.004382
-0.004315
-0.004308
-0.004344
-0.004299
-0.004277
-0.004256
-0.004201
-0.004189
-0.004209
-0.004115
-0.004116
-0.004107
-0.004094
-0.004073
-0.004070
-0.004053
-0.004007
-0.004005
-0.004004
-0.003985
-0.004125
-0.003700
-0.003635
-0.003577
-0.003561
-0.003569
-0.003613
-0.003608
-0.003602
-0.003712
-0.003688
-0.003662
-0.003663
-0.003652
-0.003665
-0.003726
-0.003825
-0.003812
-0.003776
-0.003756
-0.003741
-0.003851
-0.003435
-0.003582
-0.003027
-0.004397
-0.004363
-0.004328
-0.004821
-0.004831
-0.004980
-0.004722
-0.004676
-0.004679
-0.004484
-0.004488
-0.004492
-0.004510
-0.004467
-0.004399
-0.004501
-0.004506
-0.004447
-0.004469
-0.004410
-0.004366
-0.004408
-0.004397
-0.004467
-0.004499
-0.004483
-0.004476
-0.004502
-0.004484
-0.003753
-0.003713
-0.003739
-0.003688
-0.003706
-0.003696
-0.003703
-0.003697
-0.003657
-0.003694
-0.003420
-0.003466
-0.003464
-0.003444
-0.003493
-0.003505
-0.003503
-0.003541
-0.003549
-0.003548
-0.004362
-0.004288
-0.004244
-0.004304
-0.004249
-0.004061
-0.004030
-0.003983
-0.004149
-0.004145
-0.004365
-0.004302
-0.003863
-0.003878
-0.003931
-0.003927
-0.003929
-0.003936
-0.003980
-0.003884
-0.003811
-0.003852
-0.003788
-0.003790
-0.003752
-0.003773
-0.003786
-0.003843
-0.003824
-0.003792
-0.003750
-0.003729
-0.003713
-0.003696
-0.003684
-0.003674
-0.003645
-0.003687
-0.003642
-0.003642
-0.003657
-0.003629
-0.003595
-0.003545
-0.003504
-0.003488
-0.003533
-0.003578
-0.003587
-0.003616
-0.003644
-0.003627
-0.003594
-0.003625
-0.003572
-0.003621
-0.003606
-0.003614
-0.003582
-0.003578
-0.003554
-0.003515
-0.003528
-0.003538
-0.003543
-0.003468
-0.003413
-0.003401
-0.003407
-0.003363
-0.003303
-0.003303
-0.003313
-0.003245
-0.003169
-0.003162
-0.003160
-0.003114
-0.003124
-0.003082
-0.003050
-0.003105
-0.003130
-0.003122
-0.003114
-0.003139
-0.003131
-0.003092
-0.003111
-0.003127
-0.003131
-0.002994
-0.003119
-0.003182
-0.003074
-0.003521
-0.003384
-0.003414
-0.003466
-0.003431
-0.003482
-0.003453
-0.003512
-0.003581
-0.003523
-0.003483
-0.003511
-0.003524
-0.003539
-0.003528
-0.003525
-0.003581
-0.003553
-0.003576
-0.003562
-0.003521
-0.003591
-0.003635
-0.003569
-0.003496
-0.003505
-0.003527
-0.003533
-0.003502
-0.003522
-0.003514
-0.003502
-0.003463
-0.002547
-0.002526
-0.002462
-0.002495
-0.002494
-0.002428
-0.002478
-0.002464
-0.002581
-0.002555
-0.002525
-0.002560
-0.002901
-0.002792
-0.002864
-0.002873
-0.002817
-0.002806
-0.002791
-0.002764
-0.002685
-0.002661
-0.002681
-0.002646
-0.002545
-0.002485
-0.002468
-0.002506
-0.002425
-0.002416
-0.002380
-0.002864
-0.003063
-0.002937
-0.002988
-0.002950
-0.002957
-0.003006
-0.002974
-0.002974
-0.002968
-0.002983
-0.003016
-0.003025
-0.002999
-0.002929
-0.002990
-0.003009
-0.003021
-0.002946
-0.002886
-0.003023
-0.002923
-0.003808
-0.003770
-0.003337
-0.003244
-0.003594
-0.003587
-0.003592
-0.003598
-0.003519
-0.003561
-0.003581
-0.003584
-0.003568
-0.003488
-0.003474
-0.003562
-0.003312
-0.003217
-0.003295
-0.002201
-0.002207
-0.002150
-0.002138
-0.002164
-0.002157
-0.002174
-0.002119
-0.002636
-0.002616
-0.002544
-0.002545
-0.002613
-0.002501
-0.002501
-0.002407
-0.002358
-0.002380
-0.002341
-0.002335
-0.002246
-0.002264
-0.002230
-0.002197
-0.002182
-0.002204
-0.002111
-0.002106
-0.002120
-0.002168
-0.002483
-0.002952
-0.002954
-0.002931
-0.002931
-0.002438
-0.002398
-0.002334
-0.002323
-0.002274
-0.002353
-0.002255
-0.002251
-0.002374
-0.002404
-0.002270
-0.002229
-0.002192
-0.002246
-0.002235
-0.002209
-0.002358
-0.002261
-0.002188
-0.002298
-0.002311
-0.002289
-0.002216
-0.002337
-0.002246
-0.002209
-0.002184
-0.002089
-0.002100
-0.002039
-0.002026
-0.002048
-0.002061
-0.002075
-0.002058
-0.001950
-0.001965
-0.001941
-0.001942
-0.001917
-0.001944
-0.001888
-0.001886
-0.002206
-0.001941
-0.001908
-0.001891
-0.001834
-0.001919
-0.001888
-0.001877
-0.001844
-0.001855
-0.001810
-0.001811
-0.001770
-0.001774
-0.001820
-0.001969
-0.001882
-0.001840
-0.001871
-0.001769
-0.001906
-0.001874
-0.001957
-0.001873
-0.001838
-0.001876
-0.001827
-0.001852
-0.001824
-0.001822
-0.001825
-0.001856
-0.001821
-0.001851
-0.001858
-0.002415
-0.001419
-0.001347
-0.000964
-0.000878
-0.001892
-0.002249
-0.002295
-0.001940
-0.001902
-0.001900
-0.001938
-0.001905
-0.001947
-0.001949
-0.001941
-0.001955
-0.001946
-0.001902
-0.001913
-0.001925
-0.001878
-0.002028
-0.001893
-0.001811
-0.001839
-0.001831
-0.001817
-0.001782
-0.001681
-0.001673
-0.001689
-0.001701
-0.001706
-0.001705
-0.001759
-0.001749
-0.001684
-0.001721
-0.001647
-0.001653
-0.001624
-0.001662
-0.001731
-0.002539
-0.002436
-0.002410
-0.001512
-0.001553
-0.001518
-0.001550
-0.001483
-0.001475
-0.001465
-0.001423
-0.001396
-0.001381
-0.001443
-0.001421
-0.001386
-0.001441
-0.001162
-0.001383
-0.001320
-0.001354
-0.001114
-0.001094
-0.001023
-0.001075
-0.001070
-0.001069
-0.001294
-0.001276
-0.001355
-0.002036
-0.001962
-0.002194
-0.002135
-0.002219
-0.002184
-0.001728
-0.001693
-0.001820
-0.000737
-0.000749
-0.000732
-0.000678
-0.000657
-0.001858
-0.001770
-0.001775
-0.001857
-0.001783
-0.001815
-0.001800
-0.001784
-0.001774
-0.001724
-0.001602
-0.001743
-0.001696
-0.001684
-0.001664
-0.001683
-0.001622
-0.001622
-0.001602
-0.001520
-0.001501
-0.001486
-0.001558
-0.001422
-0.001429
-0.001412
-0.001391
-0.001365
-0.001377
-0.001367
-0.001362
-0.001343
-0.001403
-0.001456
-0.001426
-0.001399
-0.001349
-0.001326
-0.001328
-0.001308
-0.001315
-0.001308
-0.001674
-0.001943
-0.001881
-0.001887
-0.001837
-0.001838
-0.001247
-0.001204
-0.001132
-0.001113
-0.001245
-0.001092
-0.001151
-0.001146
-0.001125
-0.001183
-0.001100
-0.001052
-0.001094
-0.001079
-0.001122
-0.001109
-0.001131
-0.001087
-0.001025
-0.001093
-0.001096
-0.001024
-0.001063
-0.001083
-0.001100
-0.001071
-0.001046
-0.001020
-0.001054
-0.001023
-0.001003
-0.001015
-0.001003
-0.001017
-0.001055
-0.001033
-0.001020
-0.001166
-0.001111
-0.001146
-0.001138
-0.001160
-0.001236
-0.001198
-0.001193
-0.001211
-0.001110
-0.001118
-0.001110
-0.001119
-0.001098
-0.000977
-0.001032
-0.001038
-0.001077
-0.001045
-0.001008
-0.001004
-0.000955
-0.000933
-0.000956
-0.000989
-0.001058
-0.001013
-0.000984
-0.001022
-0.000982
-0.000959
-0.000941
-0.000916
-0.000902
-0.000897
-0.001302
-0.001243
-0.001267
-0.001233
-0.001291
-0.001216
-0.001182
-0.001270
-0.001237
-0.001209
-0.001137
-0.001192
-0.001184
-0.001172
-0.001158
-0.001115
-0.001081
-0.001078
-0.001102
-0.001074
-0.001060
-0.001072
-0.001096
-0.001072
-0.001058
-0.001038
-0.001051
-0.001066
-0.000999
-0.001061
-0.001108
-0.001103
-0.001070
-0.001053
-0.001041
-0.001035
-0.001057
-0.001045
-0.001017
-0.000997
-0.000991
-0.000999
-0.000983
-0.000959
-0.000945
-0.000953
-0.000940
-0.000917
-0.000903
-0.000887
-0.000923
-0.000846
-0.000885
-0.000843
-0.000818
-0.000815
-0.000788
-0.000729
-0.000755
-0.000760
-0.000767
-0.000775
-0.000786
-0.000795
-0.000805
-0.000815
-0.000825
-0.000835
-0.000845
-0.000854
-0.000864
-0.000873
-0.000881
-0.000890
-0.000897
-0.000904
-0.000912
-0.000919
-0.000926
-0.000933
-0.000939
-0.000945
-0.000951
-0.000957
-0.000962
-0.000968
-0.000973
-0.000978
-0.000983
-0.000988
-0.000993
-0.000998
-0.001002
-0.001007
-0.001011
-0.001015
-0.001019
-0.001023
-0.001027
-0.001031
-0.001035
-0.001039
-0.001044
-0.001049
-0.001053
-0.001057
-0.001061
-0.001064
-0.001068
-0.001072
-0.001075
-0.001078
-0.001081
-0.001085
-0.001088
-0.001091
-0.001093
-0.001096
-0.001099
-0.001102
-0.001104
-0.001107
-0.001110
-0.001112
-0.001115
-0.001117
-0.001119
-0.001122
-0.001124
-0.001126
-0.001129
-0.001131
-0.001133
-0.001135
-0.001137
-0.001139
-0.001141
-0.001144
-0.001146
-0.001148
-0.001150
-0.001152
-0.001154
-0.001156
-0.001158
-0.001159
-0.001161
-0.001163
-0.001165
-0.001167
-0.001169
-0.001171
-0.001173
-0.001175
-0.001176
-0.001178
-0.001180
-0.001182
-0.001184
-0.001185
-0.001187
-0.001189
-0.001191
-0.001193
-0.001195
-0.001196
-0.001198
-0.001200
-0.001202
-0.001203
-0.001205
-0.001207
-0.001209
-0.001210
-0.001212
-0.001214
-0.001216
-0.001217
-0.001219
-0.001221
-0.001223
-0.001224
-0.001226
-0.001228
-0.001230
-0.001231
-0.001233
-0.001235
-0.001237
-0.001238
-0.001240
-0.001242
-0.001244
-0.001245
-0.001247
-0.001249
-0.001250
-0.001252
-0.001254
-0.001256
-0.001257
-0.001259
-0.001261
-0.001262
-0.001264
-0.001266
-0.001268
-0.001269
-0.001271
-0.001273
-0.001275
-0.001276
-0.001278
-0.001280
-0.001281
-0.001283
-0.001285
-0.001287
-0.001288
-0.001290
-0.001292
-0.001293
-0.001295
-0.001297
-0.001298
-0.001300
-0.001302
-0.001303
-0.001305
-0.001307
-0.001309
-0.001310
-0.001312
-0.001313
-0.001315
-0.001317
-0.001318
-0.001320
-0.001322
-0.001323
-0.001325
-0.001327
-0.001328
-0.001330
-0.001331
-0.001333
-0.001335
-0.001336
-0.001338
-0.001339
-0.001341
-0.001342
-0.001344
-0.001346
-0.001347
-0.001349
-0.001350
-0.001352
-0.001353
-0.001355
-0.001356
-0.001358
-0.001359
-0.001360
-0.001362
-0.001363
-0.001365
-0.001366
-0.001368
-0.001369
-0.001370
-0.001372
-0.001373
-0.001374
-0.001376
-0.001377
-0.001378
-0.001380
-0.001381
-0.001382
-0.001383
-0.001385
-0.001386
-0.001387
-0.001388
-0.001389
-0.001391
-0.001392
-0.001393
-0.001394
-0.001395
-0.001396
-0.001397
-0.001398
-0.001399
-0.001400
-0.001401
-0.001402
-0.001403
-0.001404
-0.001405
-0.001406
-0.001407
-0.001408
-0.001409
-0.001410
-0.001411
-0.001411
-0.001412
-0.001413
-0.001414
-0.001415
-0.001415
-0.001416
-0.001417
-0.001417
-0.001418
-0.001419
-0.001419
-0.001420
-0.001420
-0.001421
-0.001421
-0.001422
-0.001422
-0.001423
-0.001423
-0.001424
-0.001424
-0.001424
-0.001425
-0.001425
-0.001425
-0.001425
-0.001426
-0.001426
-0.001426
-0.001426
-0.001426
-0.001426
-0.001426
-0.001426
-0.001426
-0.001426
-0.001426
-0.001426
-0.001426
-0.001426
-0.001426
-0.001426
-0.001426
-0.001426
-0.001425
-0.001425
-0.001425
-0.001425
-0.001424
-0.001424
-0.001424
-0.001423
-0.001423
-0.001422
-0.001422
-0.001421
-0.001421
-0.001420
-0.001420
-0.001419
-0.001418
-0.001418
-0.001417
-0.001416
-0.001416
-0.001415
-0.001414
-0.001413
-0.001412
-0.001411
-0.001410
-0.001410
-0.001409
-0.001408
-0.001407
-0.001406
-0.001405
-0.001403
-0.001402
-0.001401
-0.001400
-0.001399
-0.001398
-0.001396
-0.001395
-0.001394
-0.001392
-0.001391
-0.001390
-0.001388
-0.001387
-0.001385
-0.001384
-0.001383
-0.001381
-0.001379
-0.001378
-0.001376
-0.001375
-0.001373
-0.001371
-0.001370
-0.001289
-0.001301
-0.001313
-0.001209
-0.001191
-0.001199
-0.007628
-0.007688
-0.007758
-0.007877
-0.005062
-0.001426
-0.001400
-0.001416
-0.001396
-0.001332
-0.001352
-0.001334
-0.004973
-0.004764
-0.005975
-0.005032
-0.007988
-0.007922
-0.006854
-0.006667
-0.005603
-0.004589
-0.004810
-0.003628
-0.003727
-0.003615
-0.003682
-0.006447
-0.006447
-0.006784
-0.006803
-0.002864
-0.003489
-0.002685
-0.003874
-0.006689
-0.006742
-0.006677
-0.006722
-0.001907
-0.001992
-0.001962
-0.001911
-0.008479
-0.008176
-0.007016
-0.004099
-0.004065
-0.004046
-0.003977
-0.004533
-0.004773
-0.004737
-0.004933
-0.004913
-0.004869
-0.004868
-0.007402
-0.007323
-0.007359
-0.005752
-0.005783
-0.005844
-0.005867
-0.001869
-0.001798
-0.001861
-0.001771
-0.005704
-0.005671
-0.005684
-0.005638
-0.004208
-0.004193
-0.004281
-0.004092
-0.004091
-0.004123
-0.004229
-0.003868
-0.005975
-0.006038
-0.006052
-0.006103
-0.001353
-0.001379
-0.001375
-0.006973
-0.007038
-0.006931
-0.004897
-0.001429
-0.001465
-0.001436
-0.001437
-0.003091
-0.002850
-0.003127
-0.005428
-0.005465
-0.005495
-0.002559
-0.004409
-0.004419
-0.004453
-0.005384
-0.002990
-0.003043
-0.003084
-0.001503
-0.001504
-0.001546
-0.001519
-0.001904
-0.001862
-0.002631
-0.002107
-0.003101
-0.007974
-0.008350
-0.008026
-0.001467
-0.001465
-0.001443
-0.008342
-0.007541
-0.007710
-0.007685
-0.007551
-0.007385
-0.007395
-0.007457
-0.007430
-0.006542
-0.006618
-0.006528
-0.004974
-0.004958
-0.004992
-0.004980
-0.006592
-0.003247
-0.003212
-0.003352
-0.007102
-0.007171
-0.006990
-0.007540
-0.007562
-0.007584
-0.003286
-0.001502
-0.001524
-0.001537
-0.006996
-0.005616
-0.005627
-0.001367
-0.001335
-0.001353
-0.001341
-0.002630
-0.002659
-0.002662
-0.002701
-0.005235
-0.005341
-0.005284
-0.005345
-0.003218
-0.003120
-0.003243
-0.003085
-0.008248
-0.008257
-0.008310
-0.008185
-0.001434
-0.001434
-0.009415
-0.009394
-0.009373
-0.009341
-0.007030
-0.007089
-0.006932
-0.007260
-0.001452
-0.001431
-0.001424
-0.007281
-0.007049
-0.008524
-0.008554
-0.008504
-0.001510
-0.001550
-0.001549
-0.003828
-0.003805
-0.003695
-0.003639
-0.005501
-0.005525
-0.005511
-0.008997
-0.009021
-0.009134
-0.009098
-0.001486
-0.001491
-0.001451
-0.001534
-0.001479
-0.001444
-0.001450
-0.001582
-0.002667
-0.002673
-0.002716
-0.002706
-0.005758
-0.005522
-0.005519
-0.005714
-0.006098
-0.006048
-0.006167
-0.001490
-0.001526
-0.001547
-0.001578
-0.006516
-0.006457
-0.006558
-0.006460
-0.002308
-0.002469
-0.002648
-0.004545
-0.004334
-0.004173
-0.004580
-0.008896
-0.008920
-0.008879
-0.008949
-0.001444
-0.001443
-0.003531
-0.002587
-0.002449
-0.002150
-0.005274
-0.005270
-0.005204
-0.005223
-0.007167
-0.007292
-0.007149
-0.007318
-0.006659
-0.006770
-0.006830
-0.006562
-0.006054
-0.006030
-0.006069
-0.006060
-0.007543
-0.007557
-0.007483
-0.007491
-0.001544
-0.001494
-0.001503
-0.001509
-0.006243
-0.005530
-0.005494
-0.009321
-0.009419
-0.009376
-0.009291
-0.006322
-0.007140
-0.006785
-0.004523
-0.004106
-0.006902
-0.006855
-0.006920
-0.006843
-0.002704
-0.002846
-0.002825
-0.002971
-0.004649
-0.004315
-0.004513
-0.004298
-0.002194
-0.002251
-0.002291
-0.002364
-0.001762
-0.001891
-0.001774
-0.001859
-0.007331
-0.007306
-0.007350
-0.007337
-0.006806
-0.006604
-0.006656
-0.006813
-0.001870
-0.001814
-0.001910
-0.001775
-0.001963
-0.001898
-0.001782
-0.005689
-0.005484
-0.005596
-0.005540
-0.001581
-0.001616
-0.001541
-0.001404
-0.006237
-0.006284
-0.006311
-0.006209
-0.001383
-0.001400
-0.001417
-0.001437
-0.004578
-0.004518
-0.004618
-0.004553
-0.003051
-0.002909
-0.006081
-0.006064
-0.006028
-0.006024
-0.005092
-0.005168
-0.005055
-0.005215
-0.004780
-0.004128
-0.004593
-0.001446
-0.001476
-0.001454
-0.008230
-0.008244
-0.008205
-0.008204
-0.003788
-0.007443
-0.007359
-0.007368
-0.001675
-0.001593
-0.001606
-0.001549
-0.001318
-0.001320
-0.001341
-0.001341
-0.003064
-0.003074
-0.003122
-0.002997
-0.003557
-0.003644
-0.003644
-0.003590
-0.003541
-0.003421
-0.002626
-0.002707
-0.002692
-0.005408
-0.005466
-0.005174
-0.004098
-0.004034
-0.003787
-0.005097
-0.002335
-0.002361
-0.002445
-0.002426
-0.002396
-0.002391
-0.002422
-0.001492
-0.001518
-0.001532
-0.006794
-0.006630
-0.001484
-0.001227
-0.001258
-0.001253
-0.001283
-0.005493
-0.005534
-0.006088
-0.001667
-0.004352
-0.004339
-0.004382
-0.004376
-0.008645
-0.008596
-0.008588
-0.008543
-0.003233
-0.003589
-0.003629
-0.003114
-0.007676
-0.007630
-0.007691
-0.007646
-0.007551
-0.007676
-0.007513
-0.007659
-0.001233
-0.001200
-0.001160
-0.007841
-0.007818
-0.007879
-0.003674
-0.003616
-0.003698
-0.003681
-0.001352
-0.001195
-0.001200
-0.001157