# vtk DataFile Version 2.0
Test
ASCII
DATASET POLYDATA
POINTS 20431 float
0.000000 0.000000 0.000000
2.000000 0.000000 0.000000
2.000000 4.000000 0.000000
0.000000 4.000000 0.000000
0.000000 0.500000 0.000000
1.500000 2.000000 0.000000
2.000000 2.500000 0.000000
0.400000 0.000000 0.000000
0.800000 0.000000 0.000000
1.200000 0.000000 0.000000
1.600000 0.000000 0.000000
2.000000 0.362557 0.000000
2.000000 0.672798 0.000000
2.000000 0.938272 0.000000
2.000000 1.165439 0.000000
2.000000 1.359826 0.000000
2.000000 1.526163 0.000000
2.000000 1.668499 0.000000
2.000000 1.790295 0.000000
2.000000 1.894517 0.000000
2.000000 1.983700 0.000000
2.000000 2.060013 0.000000
2.000000 2.125315 0.000000
2.000000 2.181194 0.000000
2.000000 2.229010 0.000000
2.000000 2.269926 0.000000
2.000000 2.304938 0.000000
2.000000 2.334898 0.000000
2.000000 2.360534 0.000000
2.000000 2.382472 0.000000
2.000000 2.401244 0.000000
2.000000 2.417307 0.000000
2.000000 2.431052 0.000000
2.000000 2.442814 0.000000
2.000000 2.452878 0.000000
2.000000 2.461491 0.000000
2.000000 2.468860 0.000000
2.000000 2.475167 0.000000
2.000000 2.480563 0.000000
2.000000 2.485180 0.000000
2.000000 2.489132 0.000000
2.000000 2.492513 0.000000
2.000000 2.495406 0.000000
2.000000 2.497882 0.000000
2.000000 2.502286 0.000000
2.000000 2.505266 0.000000
2.000000 2.509150 0.000000
2.000000 2.514212 0.000000
2.000000 2.520809 0.000000
2.000000 2.529407 0.000000
2.000000 2.540613 0.000000
2.000000 2.555218 0.000000
2.000000 2.574253 0.000000
2.000000 2.599061 0.000000
2.000000 2.631395 0.000000
2.000000 2.673536 0.000000
2.000000 2.728460 0.000000
2.000000 2.800043 0.000000
2.000000 2.893339 0.000000
2.000000 3.014933 0.000000
2.000000 3.173410 0.000000
2.000000 3.379956 0.000000
2.000000 3.649152 0.000000
1.600000 4.000000 0.000000
1.200000 4.000000 0.000000
0.800000 4.000000 0.000000
0.400000 4.000000 0.000000
0.000000 3.624996 0.000000
0.000000 3.289970 0.000000
0.000000 2.990661 0.000000
0.000000 2.723261 0.000000
0.000000 2.484368 0.000000
0.000000 2.270943 0.000000
0.000000 2.080271 0.000000
0.000000 1.909926 0.000000
0.000000 1.757741 0.000000
0.000000 1.621780 0.000000
0.000000 1.500314 0.000000
0.000000 1.391797 0.000000
0.000000 1.294849 0.000000
0.000000 1.208237 0.000000
0.000000 1.130858 0.000000
0.000000 1.061728 0.000000
0.000000 0.999968 0.000000
0.000000 0.944792 0.000000
0.000000 0.895499 0.000000
0.000000 0.851460 0.000000
0.000000 0.812117 0.000000
0.000000 0.776968 0.000000
0.000000 0.745565 0.000000
0.000000 0.717511 0.000000
0.000000 0.692448 0.000000
0.000000 0.670056 0.000000
0.000000 0.650052 0.000000
0.000000 0.632180 0.000000
0.000000 0.616213 0.000000
0.000000 0.601949 0.000000
0.000000 0.589205 0.000000
0.000000 0.577820 0.000000
0.000000 0.567649 0.000000
0.000000 0.558562 0.000000
0.000000 0.550444 0.000000
0.000000 0.543191 0.000000
0.000000 0.536712 0.000000
0.000000 0.530923 0.000000
0.000000 0.525751 0.000000
0.000000 0.521131 0.000000
0.000000 0.517003 0.000000
0.000000 0.513315 0.000000
0.000000 0.510021 0.000000
0.000000 0.507078 0.000000
0.000000 0.504448 0.000000
0.000000 0.502099 0.000000
0.000000 0.497804 0.000000
0.000000 0.494785 0.000000
0.000000 0.490633 0.000000
0.000000 0.484924 0.000000
0.000000 0.477074 0.000000
0.000000 0.466279 0.000000
0.000000 0.451436 0.000000
0.000000 0.431025 0.000000
0.000000 0.402959 0.000000
0.000000 0.364366 0.000000
0.000000 0.311297 0.000000
0.000000 0.238324 0.000000
0.000000 0.137980 0.000000
0.001414 0.501414 0.000000
0.002828 0.502828 0.000000
0.004241 0.504241 0.000000
0.005655 0.505655 0.000000
0.007069 0.507069 0.000000
0.008483 0.508483 0.000000
0.009896 0.509896 0.000000
0.011310 0.511310 0.000000
0.012724 0.512724 0.000000
0.014138 0.514138 0.000000
0.015551 0.515551 0.000000
0.016965 0.516965 0.000000
0.018379 0.518379 0.000000
0.019793 0.519793 0.000000
0.021206 0.521206 0.000000
0.022620 0.522620 0.000000
0.024034 0.524034 0.000000
0.025448 0.525448 0.000000
0.026861 0.526861 0.000000
0.028275 0.528275 0.000000
0.029689 0.529689 0.000000
0.031103 0.531103 0.000000
0.032516 0.532516 0.000000
0.033930 0.533930 0.000000
0.035344 0.535344 0.000000
0.036758 0.536758 0.000000
0.038172 0.538172 0.000000
0.039585 0.539585 0.000000
0.040999 0.540999 0.000000
0.042413 0.542413 0.000000
0.043827 0.543827 0.000000
0.045240 0.545240 0.000000
0.046654 0.546654 0.000000
0.048068 0.548068 0.000000
0.049482 0.549482 0.000000
0.050895 0.550895 0.000000
0.052309 0.552309 0.000000
0.053723 0.553723 0.000000
0.055137 0.555137 0.000000
0.056550 0.556550 0.000000
0.057964 0.557964 0.000000
0.059378 0.559378 0.000000
0.060792 0.560792 0.000000
0.062205 0.562205 0.000000
0.063619 0.563619 0.000000
0.065033 0.565033 0.000000
0.066447 0.566447 0.000000
0.067861 0.567861 0.000000
0.069274 0.569274 0.000000
0.070688 0.570688 0.000000
0.072102 0.572102 0.000000
0.073516 0.573516 0.000000
0.074929 0.574929 0.000000
0.076343 0.576343 0.000000
0.077757 0.577757 0.000000
0.079171 0.579171 0.000000
0.080584 0.580584 0.000000
0.081998 0.581998 0.000000
0.083412 0.583412 0.000000
0.084826 0.584826 0.000000
0.086239 0.586239 0.000000
0.087653 0.587653 0.000000
0.089067 0.589067 0.000000
0.090481 0.590481 0.000000
0.091894 0.591894 0.000000
0.093308 0.593308 0.000000
0.094722 0.594722 0.000000
0.096136 0.596136 0.000000
0.097549 0.597549 0.000000
0.098963 0.598963 0.000000
0.100377 0.600377 0.000000
0.101791 0.601791 0.000000
0.103205 0.603205 0.000000
0.104618 0.604618 0.000000
0.106032 0.606032 0.000000
0.107446 0.607446 0.000000
0.108860 0.608860 0.000000
0.110273 0.610273 0.000000
0.111687 0.611687 0.000000
0.113101 0.613101 0.000000
0.114515 0.614515 0.000000
0.115928 0.615928 0.000000
0.117342 0.617342 0.000000
0.118756 0.618756 0.000000
0.120170 0.620170 0.000000
0.121583 0.621583 0.000000
0.122997 0.622997 0.000000
0.124411 0.624411 0.000000
0.125825 0.625825 0.000000
0.127238 0.627238 0.000000
0.128652 0.628652 0.000000
0.130066 0.630066 0.000000
0.131480 0.631480 0.000000
0.132893 0.632893 0.000000
0.134307 0.634307 0.000000
0.135721 0.635721 0.000000
0.137135 0.637135 0.000000
0.138549 0.638549 0.000000
0.139962 0.639962 0.000000
0.141376 0.641376 0.000000
0.142790 0.642790 0.000000
0.144204 0.644204 0.000000
0.145617 0.645617 0.000000
0.147031 0.647031 0.000000
0.148445 0.648445 0.000000
0.149859 0.649859 0.000000
0.151272 0.651272 0.000000
0.152686 0.652686 0.000000
0.154100 0.654100 0.000000
0.155514 0.655514 0.000000
0.156927 0.656927 0.000000
0.158341 0.658341 0.000000
0.159755 0.659755 0.000000
0.161169 0.661169 0.000000
0.162582 0.662582 0.000000
0.163996 0.663996 0.000000
0.165410 0.665410 0.000000
0.166824 0.666824 0.000000
0.168238 0.668238 0.000000
0.169651 0.669651 0.000000
0.171065 0.671065 0.000000
0.172479 0.672479 0.000000
0.173893 0.673893 0.000000
0.175306 0.675306 0.000000
0.176720 0.676720 0.000000
0.178134 0.678134 0.000000
0.179548 0.679548 0.000000
0.180961 0.680961 0.000000
0.182375 0.682375 0.000000
0.183789 0.683789 0.000000
0.185203 0.685203 0.000000
0.186616 0.686616 0.000000
0.188030 0.688030 0.000000
0.189444 0.689444 0.000000
0.190858 0.690858 0.000000
0.192271 0.692271 0.000000
0.193685 0.693685 0.000000
0.195099 0.695099 0.000000
0.196513 0.696513 0.000000
0.197926 0.697926 0.000000
0.199340 0.699340 0.000000
0.200754 0.700754 0.000000
0.202168 0.702168 0.000000
0.203582 0.703582 0.000000
0.204995 0.704995 0.000000
0.206409 0.706409 0.000000
0.207823 0.707823 0.000000
0.209237 0.709237 0.000000
0.210650 0.710650 0.000000
0.212064 0.712064 0.000000
0.213478 0.713478 0.000000
0.214892 0.714892 0.000000
0.216305 0.716305 0.000000
0.217719 0.717719 0.000000
0.219133 0.719133 0.000000
0.220547 0.720547 0.000000
0.221960 0.721960 0.000000
0.223374 0.723374 0.000000
0.224788 0.724788 0.000000
0.226202 0.726202 0.000000
0.227615 0.727615 0.000000
0.229029 0.729029 0.000000
0.230443 0.730443 0.000000
0.231857 0.731857 0.000000
0.233270 0.733270 0.000000
0.234684 0.734684 0.000000
0.236098 0.736098 0.000000
0.237512 0.737512 0.000000
0.238926 0.738926 0.000000
0.240339 0.740339 0.000000
0.241753 0.741753 0.000000
0.243167 0.743167 0.000000
0.244581 0.744581 0.000000
0.245994 0.745994 0.000000
0.247408 0.747408 0.000000
0.248822 0.748822 0.000000
0.250236 0.750236 0.000000
0.251649 0.751649 0.000000
0.253063 0.753063 0.000000
0.254477 0.754477 0.000000
0.255891 0.755891 0.000000
0.257304 0.757304 0.000000
0.258718 0.758718 0.000000
0.260132 0.760132 0.000000
0.261546 0.761546 0.000000
0.262959 0.762959 0.000000
0.264373 0.764373 0.000000
0.265787 0.765787 0.000000
0.267201 0.767201 0.000000
0.268615 0.768615 0.000000
0.270028 0.770028 0.000000
0.271442 0.771442 0.000000
0.272856 0.772856 0.000000
0.274270 0.774270 0.000000
0.275683 0.775683 0.000000
0.277097 0.777097 0.000000
0.278511 0.778511 0.000000
0.279925 0.779925 0.000000
0.281338 0.781338 0.000000
0.282752 0.782752 0.000000
0.284166 0.784166 0.000000
0.285580 0.785580 0.000000
0.286993 0.786993 0.000000
0.288407 0.788407 0.000000
0.289821 0.789821 0.000000
0.291235 0.791235 0.000000
0.292648 0.792648 0.000000
0.294062 0.794062 0.000000
0.295476 0.795476 0.000000
0.296890 0.796890 0.000000
0.298303 0.798303 0.000000
0.299717 0.799717 0.000000
0.301131 0.801131 0.000000
0.302545 0.802545 0.000000
0.303959 0.803959 0.000000
0.305372 0.805372 0.000000
0.306786 0.806786 0.000000
0.308200 0.808200 0.000000
0.309614 0.809614 0.000000
0.311027 0.811027 0.000000
0.312441 0.812441 0.000000
0.313855 0.813855 0.000000
0.315269 0.815269 0.000000
0.316682 0.816682 0.000000
0.318096 0.818096 0.000000
0.319510 0.819510 0.000000
0.320924 0.820924 0.000000
0.322337 0.822337 0.000000
0.323751 0.823751 0.000000
0.325165 0.825165 0.000000
0.326579 0.826579 0.000000
0.327992 0.827992 0.000000
0.329406 0.829406 0.000000
0.330820 0.830820 0.000000
0.332234 0.832234 0.000000
0.333648 0.833648 0.000000
0.335061 0.835061 0.000000
0.336475 0.836475 0.000000
0.337889 0.837889 0.000000
0.339303 0.839303 0.000000
0.340716 0.840716 0.000000
[...]
POINT_DATA 20431
SCALARS UX float 1
LOOKUP_TABLE default
-0.000000
0.000000
0.049471
-0.051602
-0.040354
0.024913
0.049809
-0.000000
-0.000000
0.000000
-0.000000
0.033739
0.044176
0.048238
0.049719
0.050252
0.050404
0.050386
0.050326
0.050254
0.050184
0.050124
0.050071
0.050028
0.049991
0.049961
0.049935
0.049914
0.049897
0.049882
0.049870
0.049860
0.049851
0.049844
0.049837
0.049832
0.049828
0.049824
0.049821
0.049818
0.049816
0.049814
0.049812
0.049810
0.049808
0.049806
0.049804
0.049801
0.049797
0.049792
0.049786
0.049778
0.049768
0.049755
0.049738
0.049717
0.049692
0.049663
0.049628
0.049591
0.049552
0.049513
0.049484
0.029240
0.009016
-0.011196
-0.031400
-0.051600
-0.051601
-0.051610
-0.051636
-0.051681
-0.051737
-0.051798
-0.051846
-0.051857
-0.051819
-0.051728
-0.051573
-0.051340
-0.051038
-0.050673
-0.050254
-0.049788
-0.049285
-0.048759
-0.048217
-0.047670
-0.047124
-0.046592
-0.046068
-0.045569
-0.045093
-0.044640
-0.044216
-0.043819
-0.043450
-0.043108
-0.042792
-0.042502
-0.042236
-0.041993
-0.041772
-0.041570
-0.041387
-0.041220
-0.041070
-0.040934
-0.040811
-0.040699
-0.040599
-0.040509
-0.040427
-0.040277
-0.040170
-0.040022
-0.039816
-0.039526
-0.039120
-0.038528
-0.037680
-0.036427
-0.034474
-0.031454
-0.026680
-0.018239
-0.040340
-0.040325
-0.040310
-0.040295
-0.040280
-0.040264
-0.040248
-0.040231
-0.040215
-0.040198
-0.040181
-0.040163
-0.040145
-0.040127
-0.040109
-0.040090
-0.040071
-0.040052
-0.040033
-0.040013
-0.039994
-0.039974
-0.039953
-0.039933
-0.039912
-0.039891
-0.039870
-0.039848
-0.039826
-0.039804
-0.039782
-0.039760
-0.039737
-0.039715
-0.039692
-0.039668
-0.039645
-0.039622
-0.039598
-0.039574
-0.039550
-0.039525
-0.039501
-0.039476
-0.039451
-0.039426
-0.039400
-0.039375
-0.039349
-0.039323
-0.039297
-0.039271
-0.039244
-0.039218
-0.039191
-0.039164
-0.039137
-0.039110
-0.039082
-0.039055
-0.039027
-0.038999
-0.038971
-0.038943
-0.038914
-0.038886
-0.038857
-0.038828
-0.038799
-0.038770
-0.038741
-0.038712
-0.038682
-0.038652
-0.038622
-0.038592
-0.038562
-0.038532
-0.038501
-0.038470
-0.038439
-0.038408
-0.038377
-0.038346
-0.038314
-0.038283
-0.038251
-0.038219
-0.038187
-0.038155
-0.038122
-0.038090
-0.038057
-0.038024
-0.037991
-0.037958
-0.037925
-0.037892
-0.037858
-0.037824
-0.037791
-0.037757
-0.037722
-0.037688
-0.037654
-0.037619
-0.037585
-0.037550
-0.037515
-0.037479
-0.037444
-0.037409
-0.037373
-0.037337
-0.037301
-0.037265
-0.037229
-0.037193
-0.037156
-0.037120
-0.037083
-0.037046
-0.037009
-0.036972
-0.036934
-0.036897
-0.036859
-0.036821
-0.036783
-0.036745
-0.036707
-0.036669
-0.036630
-0.036592
-0.036553
-0.036514
-0.036475
-0.036436
-0.036397
-0.036357
-0.036318
-0.036278
-0.036238
-0.036198
-0.036158
-0.036117
-0.036077
-0.036036
-0.035996
-0.035955
-0.035914
-0.035873
-0.035832
-0.035790
-0.035749
-0.035707
-0.035665
-0.035623
-0.035581
-0.035539
-0.035497
-0.035454
-0.035412
-0.035369
-0.035326
-0.035283
-0.035240
-0.035197
-0.035154
-0.035110
-0.035066
-0.035023
-0.034979
-0.034935
-0.034891
-0.034847
-0.034802
-0.034758
-0.034713
-0.034668
-0.034624
-0.034579
-0.034534
-0.034488
-0.034443
-0.034398
-0.034352
-0.034307
-0.034261
-0.034215
-0.034169
-0.034123
-0.034077
-0.034030
-0.033984
-0.033937
-0.033891
-0.033844
-0.033797
-0.033750
-0.033703
-0.033656
-0.033608
-0.033561
-0.033513
-0.033465
-0.033418
-0.033370
-0.033322
-0.033274
-0.033225
-0.033177
-0.033128
-0.033080
-0.033031
-0.032982
-0.032933
-0.032884
-0.032835
-0.032786
-0.032737
-0.032687
-0.032638
-0.032588
-0.032538
-0.032489
-0.032439
-0.032389
-0.032338
-0.032288
-0.032238
-0.032187
-0.032137
-0.032086
-0.032035
-0.031984
-0.031933
-0.031882
-0.031831
-0.031780
-0.031729
-0.031677
-0.031625
-0.031574
-0.031522
-0.031470
-0.031418
-0.031366
-0.031314
-0.031262
-0.031209
-0.031157
-0.031104
-0.031052
-0.030999
-0.030946
-0.030893
-0.030840
-0.030787
-0.030734
-0.030680
-0.030627
-0.030574
-0.030520
-0.030466
-0.030412
-0.030359
-0.030305
-0.030250
-0.030196
-0.030142
-0.030088
-0.030033
-0.029979
-0.029924
-0.029869
-0.029815
-0.029760
-0.029705
-0.029650
-0.029594
-0.029539
-0.029484
-0.029428
-0.029373
-0.029317
-0.029262
-0.029206
-0.029150
-0.029094
-0.029038
-0.028982
-0.028926
-0.028869
-0.028813
-0.028756
-0.028700
-0.028643
-0.028586
-0.028529
-0.028473
-0.028416
-0.028359
-0.028301
-0.028244
-0.028187
-0.028129
-0.028072
-0.028014
-0.027957
-0.027899
-0.027841
-0.027783
-0.027725
-0.027667
-0.027609
-0.027551
-0.027492
-0.027434
-0.027376
-0.027317
-0.027259
-0.027200
-0.027141
-0.027082
-0.027023
-0.026964
-0.026905
-0.026846
-0.026787
-0.026728
-0.026668
-0.026609
-0.026549
-0.026490
-0.026430
-0.026370
-0.026310
-0.026250
-0.026190
-0.026130
-0.026070
-0.026010
-0.025950
-0.025889
-0.025829
-0.025768
-0.025708
-0.025647
-0.025586
-0.025526
-0.025465
-0.025404
-0.025343
-0.025282
-0.025221
-0.025159
-0.025098
-0.025037
-0.024975
-0.024914
-0.024852
-0.024790
-0.024729
-0.024667
-0.024605
-0.024543
-0.024481
-0.024419
-0.024357
-0.024295
-0.024232
-0.024170
-0.024108
-0.024045
-0.023983
-0.023920
-0.023857
-0.023795
-0.023732
-0.023669
-0.023606
-0.023543
-0.023480
-0.023417
-0.023353
-0.023290
-0.023227
-0.023163
-0.023100
-0.023036
-0.022973
-0.022909
-0.022845
-0.022781
-0.022718
-0.022654
-0.022590
-0.022526
-0.022461
-0.022397
-0.022333
-0.022269
-0.022204
-0.022140
-0.022075
-0.022011
-0.021946
-0.021881
-0.021817
-0.021752
-0.021687
-0.021622
-0.021557
-0.021492
-0.021427
-0.021362
-0.021296
-0.021231
-0.021166
-0.021100
-0.021035
-0.020969
-0.020904
-0.020838
-0.020772
-0.020706
-0.020641
-0.020575
-0.020509
-0.020443
-0.020377
-0.020310
-0.020244
-0.020178
-0.020112
-0.020045
-0.019979
-0.019912
-0.019846
-0.019779
-0.019713
-0.019646
-0.019579
-0.019513
-0.019446
-0.019379
-0.019312
-0.019245
-0.019178
-0.019111
-0.019043
-0.018976
-0.018909
-0.018842
-0.018774
-0.018707
-0.018639
-0.018572
-0.018504
-0.018437
-0.018369
-0.018301
-0.018233
-0.018166
-0.018098
-0.018030
-0.017962
-0.017894
-0.017826
-0.017758
-0.017689
-0.017621
-0.017553
-0.017485
-0.017416
-0.017348
-0.017279
-0.017211
-0.017142
-0.017074
-0.017005
-0.016936
-0.016868
-0.016799
-0.016730
-0.016661
-0.016592
-0.016523
-0.016454
-0.016385
-0.016316
-0.016247
-0.016178
-0.016109
-0.016039
-0.015970
-0.015901
-0.015831
-0.015762
-0.015692
-0.015623
-0.015553
-0.015484
-0.015414
-0.015344
-0.015275
-0.015205
-0.015135
-0.015065
-0.014995
-0.014925
-0.014855
-0.014785
-0.014715
-0.014645
-0.014575
-0.014505
-0.014435
-0.014364
-0.014294
-0.014224
-0.014153
-0.014083
-0.014012
-0.013942
-0.013871
-0.013801
-0.013730
-0.013660
-0.013589
-0.013518
-0.013448
-0.013377
-0.013306
-0.013235
-0.013164
-0.013093
-0.013023
-0.012952
-0.012881
-0.012810
-0.012738
-0.012667
-0.012596
-0.012525
-0.012454
-0.012383
-0.012311
-0.012240
-0.012169
-0.012097
-0.012026
-0.011955
-0.011883
-0.011812
-0.011740
-0.011669
-0.011597
-0.011525
-0.011454
-0.011382
-0.011311
-0.011239
-0.011167
-0.011095
-0.011023
-0.010952
-0.010880
-0.010808
-0.010736
-0.010664
-0.010592
-0.010520
-0.010448
-0.010376
-0.010304
-0.010232
-0.010160
-0.010088
-0.010016
-0.009943
-0.009871
-0.009799
-0.009727
-0.009654
-0.009582
-0.009510
-0.009437
-0.009365
-0.009293
-0.009220
-0.009148
-0.009075
-0.009003
-0.008930
-0.008858
-0.008785
-0.008713
-0.008640
-0.008567
-0.008495
-0.008422
-0.008349
-0.008277
-0.008204
-0.008131
-0.008058
-0.007986
-0.007913
-0.007840
-0.007767
-0.007694
-0.007622
-0.007549
-0.007476
-0.007403
-0.007330
-0.007257
-0.007184
-0.007111
-0.007038
-0.006965
-0.006892
-0.006819
-0.006746
-0.006673
-0.006600
-0.006527
-0.006453
-0.006380
-0.006307
-0.006234
-0.006161
-0.006088
-0.006014
-0.005941
-0.005868
-0.005795
-0.005721
-0.005648
-0.005575
-0.005501
-0.005428
-0.005355
-0.005281
-0.005208
-0.005135
-0.005061
-0.004988
-0.004915
-0.004841
-0.004768
-0.004694
-0.004621
-0.004547
-0.004474
-0.004400
-0.004327
-0.004253
-0.004180
-0.004106
-0.004033
-0.003959
-0.003886
-0.003812
-0.003739
-0.003665
-0.003591
-0.003518
-0.003444
-0.003371
-0.003297
-0.003223
-0.003150
-0.003076
-0.003003
-0.002929
-0.002855
-0.002782
-0.002708
-0.002634
-0.002561
-0.002487
-0.002413
-0.002340
-0.002266
-0.002192
-0.002118
-0.002045
-0.001971
-0.001897
-0.001824
-0.001750
-0.001676
-0.001602
-0.001529
-0.001455
-0.001381
-0.001307
-0.001234
-0.001160
-0.001086
-0.001012
-0.000938
-0.000865
-0.000791
-0.000717
-0.000643
-0.000570
-0.000496
-0.000422
-0.000348
-0.000274
-0.000201
-0.000127
-0.000053
0.000021
0.000095
0.000168
0.000242
0.000316
0.000390
0.000464
0.000537
0.000611
0.000685
0.000759
0.000833
0.000907
0.000980
0.001054
0.001128
0.001202
0.001276
0.001349
0.001423
0.001497
0.001571
0.001645
0.001718
0.001792
0.001866
0.001940
0.002013
0.002087
0.002161
0.002235
0.002309
0.002382
0.002456
0.002530
0.002604
0.002677
0.002751
0.002825
0.002899
0.002972
0.003046
0.003120
0.003194
0.003267
0.003341
0.003415
0.003489
0.003562
0.003636
0.003710
0.003783
0.003857
0.003931
0.004004
0.004078
0.004152
0.004225
0.004299
0.004373
0.004446
0.004520
0.004594
0.004667
0.004741
0.004815
0.004888
0.004962
0.005035
0.005109
0.005183
0.005256
0.005330
0.005403
0.005477
0.005551
0.005624
0.005698
0.005771
0.005845
0.005918
0.005992
0.006065
0.006139
0.006212
0.006286
0.006359
0.006433
0.006506
0.006580
0.006653
0.006727
0.006800
0.006873
0.006947
0.007020
0.007094
0.007167
0.007240
0.007314
0.007387
0.007461
0.007534
0.007607
0.007681
0.007754
0.007827
0.007901
0.007974
0.008047
0.008121
0.008194
0.008267
0.008340
0.008414
0.008487
0.008560
0.008633
0.008707
0.008780
0.008853
0.008926
0.008999
0.009073
0.009146
0.009219
0.009292
0.009365
0.009438
0.009511
0.009585
0.009658
0.009731
0.009804
0.009877
0.009950
0.010023
0.010096
0.010169
0.010242
0.010315
0.010388
0.010461
0.010534
0.010607
0.010680
0.010753
0.010826
0.010899
0.010972
0.011045
0.011117
0.011190
0.011263
0.011336
0.011409
0.011482
0.011555
0.011627
0.011700
0.011773
0.011846
0.011919
0.011991
0.012064
0.012137
0.012210
0.012282
0.012355
0.012428
0.012500
0.012573
0.012646
0.012718
0.012791
0.012864
0.012936
0.013009
0.013082
0.013154
0.013227
0.013299
0.013372
0.013444
0.013517
0.013589
0.013662
0.013734
0.013807
0.013879
0.013952
0.014024
0.014097
0.014169
0.014242
0.014314
0.014386
0.014459
0.014531
0.014604
0.014676
0.014748
0.014821
0.014893
0.014965
0.015038
0.015110
0.015182
0.015254
0.015327
0.015399
0.015471
0.015543
0.015616
0.015688
0.015760
0.015832
0.015904
0.015976
0.016049
0.016121
0.016193
0.016265
0.016337
0.016409
0.016481
0.016553
0.016625
0.016697
0.016769
0.016841
0.016913
0.016985
0.017057
0.017129
0.017201
0.017273
0.017345
0.017417
0.017489
0.017561
0.017633
0.017705
0.017777
0.017849
0.017920
0.017992
0.018064
0.018136
0.018208
0.018280
0.018351
0.018423
0.018495
0.018567
0.018638
0.018710
0.018782
0.018854
0.018925
0.018997
0.019069
0.019140
0.019212
0.019284
0.019355
0.019427
0.019498
0.019570
0.019642
0.019713
0.019785
0.019856
0.019928
0.020000
0.020071
0.020143
0.020214
0.020286
0.020357
0.020429
0.020500
0.020572
0.020643
0.020714
0.020786
0.020857
0.020929
0.021000
0.021072
0.021143
0.021214
0.021286
0.021357
0.021428
0.021500
0.021571
0.021642
0.021714
0.021785
0.021856
0.021927
0.021999
0.022070
0.022141
0.022213
0.022284
0.022355
0.022426
0.022497
0.022569
0.022640
0.022711
0.022782
0.022853
0.022924
0.022996
0.023067
0.023138
0.023209
0.023280
0.023351
0.023422
0.023493
0.023564
0.023635
0.023707
0.023778
0.023849
0.023920
0.023991
0.024062
0.024133
0.024204
0.024275
0.024346
0.024417
0.024488
0.024559
0.024630
0.024700
0.024771
0.024842
0.024984
0.025055
0.025126
0.025197
0.025267
0.025338
0.025409
0.025480
0.025551
0.025621
0.025692
0.025763
0.025834
0.025904
0.025975
0.026046
0.026117
0.026187
0.026258
0.026329
0.026399
0.026470
0.026541
0.026611
0.026682
0.026753
0.026823
0.026894
0.026965
0.027035
0.027106
0.027177
0.027247
0.027318
0.027388
0.027459
0.027530
0.027600
0.027671
0.027741
0.027812
0.027882
0.027953
0.028024
0.028094
0.028165
0.028235
0.028306
0.028376
0.028447
0.028517
0.028588
0.028658
0.028729
0.028799
0.028870
0.028940
0.029011
0.029081
0.029152
0.029222
0.029292
0.029363
0.029433
0.029504
0.029574
0.029645
0.029715
0.029785
0.029856
0.029926
0.029997
0.030067
0.030137
0.030208
0.030278
0.030349
0.030419
0.030489
0.030560
0.030630
0.030700
0.030771
0.030841
0.030911
0.030982
0.031052
0.031122
0.031193
0.031263
0.031333
0.031404
0.031474
0.031544
0.031615
0.031685
0.031755
0.031826
0.031896
0.031966
0.032036
0.032107
0.032177
0.032247
0.032317
0.032388
0.032458
0.032528
0.032599
0.032669
0.032739
0.032809
0.032879
0.032950
0.033020
0.033090
0.033160
0.033231
0.033301
0.033371
0.033441
0.033512
0.033582
0.033652
0.033722
0.033792
0.033863
0.033933
0.034003
0.034073
0.034143
0.034214
0.034284
0.034354
0.034424
0.034494
0.034565
0.034635
0.034705
0.034775
0.034845
0.034915
0.034986
0.035056
0.035126
0.035196
0.035266
0.035336
0.035407
0.035477
0.035547
0.035617
0.035687
0.035757
0.035828
0.035898
0.035968
0.036038
0.036108
0.036178
0.036249
0.036319
0.036389
0.036459
0.036529
0.036599
0.036669
0.036740
0.036810
0.036880
0.036950
0.037020
0.037090
0.037160
0.037231
0.037301
0.037371
0.037441
0.037511
0.037581
0.037651
0.037722
0.037792
0.037862
0.037932
0.038002
0.038072
0.038142
0.038213
0.038283
0.038353
0.038423
0.038493
0.038563
0.038633
0.038704
0.038774
0.038844
0.038914
0.038984
0.039054
0.039124
0.039195
0.039265
0.039335
0.039405
0.039475
0.039545
0.039615
0.039686
0.039756
0.039826
0.039896
0.039966
0.040036
0.040107
0.040177
0.040247
0.040317
0.040387
0.040457
0.040528
0.040598
0.040668
0.040738
0.040808
0.040878
0.040949
0.041019
0.041089
0.041159
0.041229
0.041299
0.041370
0.041440
0.041510
0.041580
0.041650
0.041721
0.041791
0.041861
0.041931
0.042001
0.042072
0.042142
0.042212
0.042282
0.042352
0.042423
0.042493
0.042563
0.042633
0.042703
0.042774
0.042844
0.042914
0.042984
0.043055
0.043125
0.043195
0.043265
0.043335
0.043406
0.043476
0.043546
0.043616
0.043687
0.043757
0.043827
0.043897
0.043968
0.044038
0.044108
0.044178
0.044249
0.044319
0.044389
0.044460
0.044530
0.044600
0.044670
0.044741
0.044811
0.044881
0.044952
0.045022
0.045092
0.045162
0.045233
0.045303
0.045373
0.045444
0.045514
0.045584
0.045655
0.045725
0.045795
0.045866
0.045936
0.046006
0.046077
0.046147
0.046217
0.046288
0.046358
0.046428
0.046499
0.046569
0.046639
0.046710
0.046780
0.046851
0.046921
0.046991
0.047062
0.047132
0.047202
0.047273
0.047343
0.047414
0.047484
0.047554
0.047625
0.047695
0.047766
0.047836
0.047907
0.047977
0.048047
0.048118
0.048188
0.048259
0.048329
0.048400
0.048470
0.048540
0.048611
0.048681
0.048752
0.048822
0.048893
0.048963
0.049034
0.049104
0.049175
0.049245
0.049316
0.049386
0.049457
0.049527
0.049598
0.049668
0.049739
0.035445
0.035480
0.035371
0.031695
0.031747
0.031797
-0.025620
-0.025582
-0.025691
-0.025736
-0.013489
0.040272
0.040399
0.040426
0.040503
0.034019
0.033906
0.033941
-0.013756
-0.013682
-0.013771
-0.013642
-0.037208
-0.037261
-0.037131
-0.037147
-0.014217
-0.014163
-0.014110
0.013901
0.013790
0.013853
0.013890
-0.023291
-0.023901
-0.028155
-0.029007
0.009824
0.009713
0.009757
0.009747
-0.010841
-0.011073
-0.010874
-0.010885
0.025811
0.025598
0.025381
0.026085
-0.037376
-0.037333
-0.037204
0.012083
0.012070
0.012200
0.012260
0.000604
-0.002293
-0.001600
-0.004002
0.005951
0.006110
0.006172
-0.019878
-0.018943
-0.019919
-0.003282
-0.003210
-0.003386
-0.003308
0.031350
0.031725
0.031687
0.032074
-0.000819
-0.000565
-0.000670
-0.000306
0.010540
0.010652
0.010452
0.010705
0.009821
0.009901
0.009761
0.009967
-0.005343
-0.005362
-0.005459
-0.005516
0.035180
0.035132
0.035000
-0.014783
-0.014990
-0.014847
0.005961
0.034952
0.034823
0.034819
0.035014
0.016104
0.016231
0.016173
-0.000246
-0.000218
-0.000325
0.016222
0.009715
0.009358
0.009230
-0.000133
0.018602
0.018523
0.018354
0.029236
0.029361
0.029216
0.029417
0.018025
0.018096
0.017969
0.018140
0.018310
-0.032123
-0.032269
-0.032194
0.041433
0.041314
0.041511
-0.032333
-0.022445
-0.022540
-0.022631
-0.022357
-0.018084
-0.018001
-0.018297
-0.018092
-0.010118
-0.010335
-0.010179
0.005305
0.005428
0.005273
0.005383
-0.010369
0.016180
0.016273
0.016105
-0.017170
-0.017340
-0.017181
-0.018772
-0.019001
-0.019178
0.016270
0.032218
0.032250
0.032096
-0.028667
-0.028620
-0.028560
0.034512
0.034646
0.034655
0.034535
0.020313
0.020124
0.020200
0.019924
0.000631
-0.000355
0.000657
0.000407
0.015266
0.015673
0.014600
0.016290
-0.027089
-0.027010
-0.027247
-0.026852
0.046887
0.046794
-0.039050
-0.038721
-0.038533
-0.038169
-0.025315
-0.024654
-0.023138
-0.027242
0.048444
0.048480
0.048648
-0.029202
-0.026879
-0.029355
-0.029520
-0.028906
0.033439
0.033415
0.033244
0.013099
0.013031
0.013190
0.013138
0.000953
0.000659
0.000870
-0.037796
-0.037781
-0.037991
-0.037817
0.048510
0.048231
0.048594
0.048143
0.041512
0.041636
0.041768
0.033197
0.019994
0.019855
0.019711
0.019600
-0.004450
-0.004369
-0.004273
-0.004513
-0.008016
-0.008480
-0.009760
0.042380
0.042342
0.041980
0.042128
-0.010734
-0.010464
-0.011764
-0.011210
0.019640
0.019655
0.019527
0.011405
0.011796
0.015081
0.008295
-0.033441
-0.033614
-0.033070
-0.034219
0.044737
0.044842
0.010176
0.010162
0.010235
0.019765
0.001270
0.001788
0.002140
0.002424
-0.018232
-0.018413
-0.018334
-0.018320
-0.017678
-0.020392
-0.019524
-0.017769
-0.004092
-0.003882
-0.004244
-0.004197
-0.021946
-0.021259
-0.020748
-0.020207
0.044088
0.044333
0.044490
0.044077
-0.020171
-0.020140
-0.020077
-0.041788
-0.043565
-0.041851
-0.042027
-0.035508
-0.035608
-0.035626
-0.006549
-0.006574
-0.013733
-0.013752
-0.014618
-0.012948
0.018400
0.017299
0.017450
0.016229
0.002575
0.007071
0.006479
0.005758
0.024099
0.024190
0.023506
0.023506
0.039304
0.038391
0.038696
0.039237
-0.016865
-0.016799
-0.017348
-0.017450
-0.014298
-0.014237
-0.014153
-0.014427
0.026895
0.027318
0.026998
0.027262
0.026505
0.026459
0.026972
-0.003334
-0.003206
-0.003176
-0.003327
0.046466
0.045948
0.046424
0.034979
-0.008840
-0.009817
-0.009323
-0.009263
0.038719
0.038755
0.038526
0.038613
0.007476
0.007614
0.007511
0.007672
0.018405
0.018620
-0.005034
-0.004664
-0.004349
-0.004083
-0.001325
-0.001311
-0.000094
-0.002576
-0.000510
-0.000434
-0.000377
0.043193
0.043045
0.043030
-0.025886
-0.025964
-0.025586
-0.025557
-0.000344
-0.022041
-0.020619
-0.021687
0.039400
0.039583
0.039883
0.040061
0.036844
0.036766
0.036752
0.036628
0.017469
0.017083
0.016984
0.017837
0.015072
0.014943
0.014883
0.015090
0.014994
0.015156
0.019282
0.018712
0.019083
-0.002654
-0.002766
-0.002632
0.010958
0.009489
0.012972
-0.002685
0.025077
0.025367
0.024476
0.021310
0.021473
0.021465
0.021358
0.031895
0.031922
0.031730
-0.022181
-0.019704
0.032059
0.030274
0.030225
0.030144
0.030105
-0.017458
-0.017389
-0.017488
0.038891
0.010474
0.010527
0.010201
0.010149
-0.031754
-0.030741
-0.031112
-0.030273
0.012753
0.012735
0.012623
0.012864
-0.021029
-0.020649
-0.021607
-0.020491
-0.025521
-0.026056
-0.023988
-0.027437
0.027199
0.027138
0.027323
-0.022042
-0.021853
-0.022342
0.014019
0.013986
0.013485
0.013154
0.034007
0.028183
0.028045
0.028180
0.021139
0.021842
0.021251
0.021738
-0.005316
-0.005893
-0.006020
0.028041
0.029751
0.029980
0.029755
0.014972
0.015309
0.015473
0.015811
0.018534
0.017321
-0.010539
-0.010922
-0.010396
-0.011265
-0.029239
-0.030630
-0.030632
-0.028460
-0.022124
-0.022459
0.009162
0.009093
0.009625
0.029877
-0.006465
-0.005288
-0.004829
-0.006772
0.014741
0.016192
0.022116
0.022197
0.022140
-0.021928
-0.021613
-0.021513
0.022274
-0.017649
-0.017618
-0.017535
0.031255
0.031110
0.031195
0.031050
-0.011673
-0.011620
-0.011570
-0.020636
-0.023871
0.005580
0.005549
0.005478
0.033226
0.033199
0.033117
0.033074
0.022216
0.022301
0.022360
0.008072
0.007625
0.007506
0.006861
0.021506
0.021395
0.021442
0.021325
0.018763
0.018818
0.018711
0.029668
0.029766
0.029822
0.021493
0.021351
0.022166
0.029868
-0.026783
-0.026786
-0.026671
0.020791
0.015981
0.015650
0.016136
0.022188
-0.028497
-0.028451
-0.028524
0.011189
0.008769
0.009752
-0.026898
0.027897
0.027903
0.028059
0.039990
0.040046
0.039917
0.039990