# vtk DataFile Version 2.0
Test
ASCII
DATASET POLYDATA
POINTS 20431 float
0.000000 0.000000 0.000000
2.000000 0.000000 0.000000
2.000000 4.000000 0.000000
0.000000 4.000000 0.000000
0.000000 0.500000 0.000000
1.500000 2.000000 0.000000
2.000000 2.500000 0.000000
0.400000 0.000000 0.000000
0.800000 0.000000 0.000000
1.200000 0.000000 0.000000
1.600000 0.000000 0.000000
2.000000 0.362557 0.000000
2.000000 0.672798 0.000000
2.000000 0.938272 0.000000
2.000000 1.165439 0.000000
2.000000 1.359826 0.000000
2.000000 1.526163 0.000000
2.000000 1.668499 0.000000
2.000000 1.790295 0.000000
2.000000 1.894517 0.000000
2.000000 1.983700 0.000000
2.000000 2.060013 0.000000
2.000000 2.125315 0.000000
2.000000 2.181194 0.000000
2.000000 2.229010 0.000000
2.000000 2.269926 0.000000
2.000000 2.304938 0.000000
2.000000 2.334898 0.000000
2.000000 2.360534 0.000000
2.000000 2.382472 0.000000
2.000000 2.401244 0.000000
2.000000 2.417307 0.000000
2.000000 2.431052 0.000000
2.000000 2.442814 0.000000
2.000000 2.452878 0.000000
2.000000 2.461491 0.000000
2.000000 2.468860 0.000000
2.000000 2.475167 0.000000
2.000000 2.480563 0.000000
2.000000 2.485180 0.000000
2.000000 2.489132 0.000000
2.000000 2.492513 0.000000
2.000000 2.495406 0.000000
2.000000 2.497882 0.000000
2.000000 2.502286 0.000000
2.000000 2.505266 0.000000
2.000000 2.509150 0.000000
2.000000 2.514212 0.000000
2.000000 2.520809 0.000000
2.000000 2.529407 0.000000
2.000000 2.540613 0.000000
2.000000 2.555218 0.000000
2.000000 2.574253 0.000000
2.000000 2.599061 0.000000
2.000000 2.631395 0.000000
2.000000 2.673536 0.000000
2.000000 2.728460 0.000000
2.000000 2.800043 0.000000
2.000000 2.893339 0.000000
2.000000 3.014933 0.000000
2.000000 3.173410 0.000000
2.000000 3.379956 0.000000
2.000000 3.649152 0.000000
1.600000 4.000000 0.000000
1.200000 4.000000 0.000000
0.800000 4.000000 0.000000
0.400000 4.000000 0.000000
0.000000 3.624996 0.000000
0.000000 3.289970 0.000000
0.000000 2.990661 0.000000
0.000000 2.723261 0.000000
0.000000 2.484368 0.000000
0.000000 2.270943 0.000000
0.000000 2.080271 0.000000
0.000000 1.909926 0.000000
0.000000 1.757741 0.000000
0.000000 1.621780 0.000000
0.000000 1.500314 0.000000
0.000000 1.391797 0.000000
0.000000 1.294849 0.000000
0.000000 1.208237 0.000000
0.000000 1.130858 0.000000
0.000000 1.061728 0.000000
0.000000 0.999968 0.000000
0.000000 0.944792 0.000000
0.000000 0.895499 0.000000
0.000000 0.851460 0.000000
0.000000 0.812117 0.000000
0.000000 0.776968 0.000000
0.000000 0.745565 0.000000
0.000000 0.717511 0.000000
0.000000 0.692448 0.000000
0.000000 0.670056 0.000000
0.000000 0.650052 0.000000
0.000000 0.632180 0.000000
0.000000 0.616213 0.000000
0.000000 0.601949 0.000000
0.000000 0.589205 0.000000
0.000000 0.577820 0.000000
0.000000 0.567649 0.000000
0.000000 0.558562 0.000000
0.000000 0.550444 0.000000
0.000000 0.543191 0.000000
0.000000 0.536712 0.000000
0.000000 0.530923 0.000000
0.000000 0.525751 0.000000
0.000000 0.521131 0.000000
0.000000 0.517003 0.000000
0.000000 0.513315 0.000000
0.000000 0.510021 0.000000
0.000000 0.507078 0.000000
0.000000 0.504448 0.000000
0.000000 0.502099 0.000000
0.000000 0.497804 0.000000
0.000000 0.494785 0.000000
0.000000 0.490633 0.000000
0.000000 0.484924 0.000000
0.000000 0.477074 0.000000
0.000000 0.466279 0.000000
0.000000 0.451436 0.000000
0.000000 0.431025 0.000000
0.000000 0.402959 0.000000
0.000000 0.364366 0.000000
0.000000 0.311297 0.000000
0.000000 0.238324 0.000000
0.000000 0.137980 0.000000
0.001414 0.501414 0.000000
0.002828 0.502828 0.000000
0.004241 0.504241 0.000000
0.005655 0.505655 0.000000
0.007069 0.507069 0.000000
0.008483 0.508483 0.000000
0.009896 0.509896 0.000000
0.011310 0.511310 0.000000
0.012724 0.512724 0.000000
0.014138 0.514138 0.000000
0.015551 0.515551 0.000000
0.016965 0.516965 0.000000
0.018379 0.518379 0.000000
0.019793 0.519793 0.000000
0.021206 0.521206 0.000000
0.022620 0.522620 0.000000
0.024034 0.524034 0.000000
0.025448 0.525448 0.000000
0.026861 0.526861 0.000000
0.028275 0.528275 0.000000
0.029689 0.529689 0.000000
0.031103 0.531103 0.000000
0.032516 0.532516 0.000000
0.033930 0.533930 0.000000
0.035344 0.535344 0.000000
0.036758 0.536758 0.000000
0.038172 0.538172 0.000000
0.039585 0.539585 0.000000
0.040999 0.540999 0.000000
0.042413 0.542413 0.000000
0.043827 0.543827 0.000000
0.045240 0.545240 0.000000
0.046654 0.546654 0.000000
0.048068 0.548068 0.000000
0.049482 0.549482 0.000000
0.050895 0.550895 0.000000
0.052309 0.552309 0.000000
0.053723 0.553723 0.000000
0.055137 0.555137 0.000000
0.056550 0.556550 0.000000
0.057964 0.557964 0.000000
0.059378 0.559378 0.000000
0.060792 0.560792 0.000000
0.062205 0.562205 0.000000
0.063619 0.563619 0.000000
0.065033 0.565033 0.000000
0.066447 0.566447 0.000000
0.067861 0.567861 0.000000
0.069274 0.569274 0.000000
0.070688 0.570688 0.000000
0.072102 0.572102 0.000000
0.073516 0.573516 0.000000
0.074929 0.574929 0.000000
0.076343 0.576343 0.000000
0.077757 0.577757 0.000000
0.079171 0.579171 0.000000
0.080584 0.580584 0.000000
0.081998 0.581998 0.000000
0.083412 0.583412 0.000000
0.084826 0.584826 0.000000
0.086239 0.586239 0.000000
0.087653 0.587653 0.000000
0.089067 0.589067 0.000000
0.090481 0.590481 0.000000
0.091894 0.591894 0.000000
0.093308 0.593308 0.000000
0.094722 0.594722 0.000000
0.096136 0.596136 0.000000
0.097549 0.597549 0.000000
0.098963 0.598963 0.000000
0.100377 0.600377 0.000000
0.101791 0.601791 0.000000
0.103205 0.603205 0.000000
0.104618 0.604618 0.000000
0.106032 0.606032 0.000000
0.107446 0.607446 0.000000
0.108860 0.608860 0.000000
0.110273 0.610273 0.000000
0.111687 0.611687 0.000000
0.113101 0.613101 0.000000
0.114515 0.614515 0.000000
0.115928 0.615928 0.000000
0.117342 0.617342 0.000000
0.118756 0.618756 0.000000
0.120170 0.620170 0.000000
0.121583 0.621583 0.000000
0.122997 0.622997 0.000000
0.124411 0.624411 0.000000
0.125825 0.625825 0.000000
0.127238 0.627238 0.000000
0.128652 0.628652 0.000000
0.130066 0.630066 0.000000
0.131480 0.631480 0.000000
0.132893 0.632893 0.000000
0.134307 0.634307 0.000000
0.135721 0.635721 0.000000
0.137135 0.637135 0.000000
0.138549 0.638549 0.000000
0.139962 0.639962 0.000000
0.141376 0.641376 0.000000
0.142790 0.642790 0.000000
0.144204 0.644204 0.000000
0.145617 0.645617 0.000000
0.147031 0.647031 0.000000
0.148445 0.648445 0.000000
0.149859 0.649859 0.000000
0.151272 0.651272 0.000000
0.152686 0.652686 0.000000
0.154100 0.654100 0.000000
0.155514 0.655514 0.000000
0.156927 0.656927 0.000000
0.158341 0.658341 0.000000
0.159755 0.659755 0.000000
0.161169 0.661169 0.000000
0.162582 0.662582 0.000000
0.163996 0.663996 0.000000
0.165410 0.665410 0.000000
0.166824 0.666824 0.000000
0.168238 0.668238 0.000000
0.169651 0.669651 0.000000
0.171065 0.671065 0.000000
0.172479 0.672479 0.000000
0.173893 0.673893 0.000000
0.175306 0.675306 0.000000
0.176720 0.676720 0.000000
0.178134 0.678134 0.000000
0.179548 0.679548 0.000000
0.180961 0.680961 0.000000
0.182375 0.682375 0.000000
0.183789 0.683789 0.000000
0.185203 0.685203 0.000000
0.186616 0.686616 0.000000
0.188030 0.688030 0.000000
0.189444 0.689444 0.000000
0.190858 0.690858 0.000000
0.192271 0.692271 0.000000
0.193685 0.693685 0.000000
0.195099 0.695099 0.000000
0.196513 0.696513 0.000000
0.197926 0.697926 0.000000
0.199340 0.699340 0.000000
0.200754 0.700754 0.000000
0.202168 0.702168 0.000000
0.203582 0.703582 0.000000
0.204995 0.704995 0.000000
0.206409 0.706409 0.000000
0.207823 0.707823 0.000000
0.209237 0.709237 0.000000
0.210650 0.710650 0.000000
0.212064 0.712064 0.000000
0.213478 0.713478 0.000000
0.214892 0.714892 0.000000
0.216305 0.716305 0.000000
0.217719 0.717719 0.000000
0.219133 0.719133 0.000000
0.220547 0.720547 0.000000
0.221960 0.721960 0.000000
0.223374 0.723374 0.000000
0.224788 0.724788 0.000000
0.226202 0.726202 0.000000
0.227615 0.727615 0.000000
0.229029 0.729029 0.000000
0.230443 0.730443 0.000000
0.231857 0.731857 0.000000
0.233270 0.733270 0.000000
0.234684 0.734684 0.000000
0.236098 0.736098 0.000000
0.237512 0.737512 0.000000
0.238926 0.738926 0.000000
0.240339 0.740339 0.000000
0.241753 0.741753 0.000000
0.243167 0.743167 0.000000
0.244581 0.744581 0.000000
0.245994 0.745994 0.000000
0.247408 0.747408 0.000000
0.248822 0.748822 0.000000
0.250236 0.750236 0.000000
0.251649 0.751649 0.000000
0.253063 0.753063 0.000000
0.254477 0.754477 0.000000
0.255891 0.755891 0.000000
0.257304 0.757304 0.000000
0.258718 0.758718 0.000000
0.260132 0.760132 0.000000
0.261546 0.761546 0.000000
0.262959 0.762959 0.000000
0.264373 0.764373 0.000000
0.265787 0.765787 0.000000
0.267201 0.767201 0.000000
0.268615 0.768615 0.000000
0.270028 0.770028 0.000000
0.271442 0.771442 0.000000
0.272856 0.772856 0.000000
0.274270 0.774270 0.000000
0.275683 0.775683 0.000000
0.277097 0.777097 0.000000
0.278511 0.778511 0.000000
0.279925 0.779925 0.000000
0.281338 0.781338 0.000000
0.282752 0.782752 0.000000
0.284166 0.784166 0.000000
0.285580 0.785580 0.000000
0.286993 0.786993 0.000000
0.288407 0.788407 0.000000
0.289821 0.789821 0.000000
0.291235 0.791235 0.000000
0.292648 0.792648 0.000000
0.294062 0.794062 0.000000
0.295476 0.795476 0.000000
0.296890 0.796890 0.000000
0.298303 0.798303 0.000000
0.299717 0.799717 0.000000
0.301131 0.801131 0.000000
0.302545 0.802545 0.000000
0.303959 0.803959 0.000000
0.305372 0.805372 0.000000
0.306786 0.806786 0.000000
0.308200 0.808200 0.000000
0.309614 0.809614 0.000000
0.311027 0.811027 0.000000
0.312441 0.812441 0.000000
0.313855 0.813855 0.000000
0.315269 0.815269 0.000000
0.316682 0.816682 0.000000
0.318096 0.818096 0.000000
0.319510 0.819510 0.000000
0.320924 0.820924 0.000000
0.322337 0.822337 0.000000
0.323751 0.823751 0.000000
0.325165 0.825165 0.000000
0.326579 0.826579 0.000000
0.327992 0.827992 0.000000
0.329406 0.829406 0.000000
0.330820 0.830820 0.000000
0.332234 0.832234 0.000000
0.333648 0.833648 0.000000
0.335061 0.835061 0.000000
0.336475 0.836475 0.000000
0.337889 0.837889 0.000000
0.339303 0.839303 0.000000
0.340716 0.840716 0.000000
[...]
POINT_DATA 20431
SCALARS UX float 1
LOOKUP_TABLE default
-0.000000
0.000000
0.060110
-0.062699
-0.049033
0.030271
0.060521
-0.000000
-0.000000
0.000000
-0.000000
0.040995
0.053676
0.058611
0.060411
0.061059
0.061243
0.061222
0.061148
0.061062
0.060976
0.060903
0.060839
0.060786
0.060742
0.060705
0.060674
0.060649
0.060628
0.060610
0.060595
0.060582
0.060572
0.060563
0.060555
0.060549
0.060543
0.060539
0.060535
0.060531
0.060529
0.060526
0.060524
0.060522
0.060519
0.060517
0.060514
0.060511
0.060506
0.060500
0.060493
0.060483
0.060470
0.060454
0.060434
0.060409
0.060379
0.060344
0.060301
0.060255
0.060209
0.060160
0.060126
0.035528
0.010955
-0.013604
-0.038153
-0.062697
-0.062698
-0.062709
-0.062740
-0.062795
-0.062863
-0.062937
-0.062996
-0.063009
-0.062962
-0.062853
-0.062664
-0.062381
-0.062014
-0.061571
-0.061062
-0.060496
-0.059884
-0.059244
-0.058586
-0.057921
-0.057258
-0.056612
-0.055975
-0.055368
-0.054791
-0.054240
-0.053724
-0.053242
-0.052794
-0.052379
-0.051994
-0.051642
-0.051319
-0.051024
-0.050755
-0.050510
-0.050287
-0.050085
-0.049902
-0.049737
-0.049587
-0.049452
-0.049330
-0.049220
-0.049121
-0.048939
-0.048809
-0.048629
-0.048379
-0.048026
-0.047533
-0.046813
-0.045783
-0.044261
-0.041887
-0.038218
-0.032418
-0.022161
-0.049015
-0.048997
-0.048979
-0.048961
-0.048942
-0.048923
-0.048903
-0.048883
-0.048863
-0.048842
-0.048821
-0.048800
-0.048779
-0.048757
-0.048734
-0.048712
-0.048689
-0.048666
-0.048642
-0.048618
-0.048594
-0.048570
-0.048545
-0.048520
-0.048495
-0.048470
-0.048444
-0.048418
-0.048391
-0.048365
-0.048338
-0.048311
-0.048283
-0.048255
-0.048228
-0.048199
-0.048171
-0.048142
-0.048113
-0.048084
-0.048055
-0.048025
-0.047995
-0.047965
-0.047935
-0.047904
-0.047874
-0.047843
-0.047811
-0.047780
-0.047748
-0.047716
-0.047684
-0.047652
-0.047619
-0.047586
-0.047553
-0.047520
-0.047487
-0.047453
-0.047420
-0.047386
-0.047352
-0.047318
-0.047283
-0.047249
-0.047214
-0.047179
-0.047143
-0.047108
-0.047072
-0.047037
-0.047001
-0.046965
-0.046928
-0.046892
-0.046855
-0.046818
-0.046781
-0.046743
-0.046706
-0.046668
-0.046630
-0.046592
-0.046554
-0.046515
-0.046477
-0.046438
-0.046399
-0.046360
-0.046321
-0.046281
-0.046242
-0.046202
-0.046162
-0.046121
-0.046081
-0.046040
-0.046000
-0.045959
-0.045918
-0.045876
-0.045835
-0.045793
-0.045751
-0.045709
-0.045667
-0.045625
-0.045582
-0.045540
-0.045497
-0.045454
-0.045410
-0.045367
-0.045323
-0.045279
-0.045235
-0.045191
-0.045147
-0.045102
-0.045058
-0.045013
-0.044968
-0.044922
-0.044877
-0.044832
-0.044786
-0.044740
-0.044694
-0.044648
-0.044601
-0.044555
-0.044508
-0.044461
-0.044414
-0.044367
-0.044319
-0.044272
-0.044224
-0.044176
-0.044128
-0.044079
-0.044031
-0.043982
-0.043934
-0.043885
-0.043836
-0.043786
-0.043737
-0.043687
-0.043637
-0.043587
-0.043537
-0.043487
-0.043437
-0.043386
-0.043335
-0.043284
-0.043233
-0.043182
-0.043130
-0.043079
-0.043027
-0.042975
-0.042923
-0.042871
-0.042819
-0.042766
-0.042713
-0.042661
-0.042608
-0.042554
-0.042501
-0.042448
-0.042394
-0.042340
-0.042287
-0.042233
-0.042178
-0.042124
-0.042070
-0.042015
-0.041960
-0.041905
-0.041850
-0.041795
-0.041740
-0.041684
-0.041629
-0.041573
-0.041517
-0.041461
-0.041405
-0.041349
-0.041292
-0.041236
-0.041179
-0.041122
-0.041065
-0.041008
-0.040951
-0.040893
-0.040836
-0.040778
-0.040720
-0.040662
-0.040604
-0.040546
-0.040488
-0.040429
-0.040370
-0.040312
-0.040253
-0.040194
-0.040135
-0.040075
-0.040016
-0.039956
-0.039897
-0.039837
-0.039777
-0.039717
-0.039657
-0.039596
-0.039536
-0.039475
-0.039415
-0.039354
-0.039293
-0.039232
-0.039171
-0.039109
-0.039048
-0.038986
-0.038925
-0.038863
-0.038801
-0.038739
-0.038677
-0.038614
-0.038552
-0.038489
-0.038427
-0.038364
-0.038301
-0.038238
-0.038175
-0.038112
-0.038048
-0.037985
-0.037921
-0.037857
-0.037793
-0.037729
-0.037665
-0.037601
-0.037537
-0.037472
-0.037408
-0.037343
-0.037278
-0.037213
-0.037148
-0.037083
-0.037018
-0.036953
-0.036887
-0.036822
-0.036756
-0.036690
-0.036624
-0.036558
-0.036492
-0.036426
-0.036359
-0.036293
-0.036226
-0.036160
-0.036093
-0.036026
-0.035959
-0.035892
-0.035825
-0.035757
-0.035690
-0.035622
-0.035554
-0.035487
-0.035419
-0.035351
-0.035283
-0.035214
-0.035146
-0.035078
-0.035009
-0.034940
-0.034872
-0.034803
-0.034734
-0.034665
-0.034596
-0.034526
-0.034457
-0.034388
-0.034318
-0.034248
-0.034179
-0.034109
-0.034039
-0.033969
-0.033899
-0.033828
-0.033758
-0.033688
-0.033617
-0.033546
-0.033476
-0.033405
-0.033334
-0.033263
-0.033192
-0.033121
-0.033049
-0.032978
-0.032906
-0.032835
-0.032763
-0.032691
-0.032619
-0.032548
-0.032475
-0.032403
-0.032331
-0.032259
-0.032186
-0.032114
-0.032041
-0.031968
-0.031896
-0.031823
-0.031750
-0.031677
-0.031604
-0.031530
-0.031457
-0.031384
-0.031310
-0.031236
-0.031163
-0.031089
-0.031015
-0.030941
-0.030867
-0.030793
-0.030719
-0.030644
-0.030570
-0.030495
-0.030421
-0.030346
-0.030272
-0.030197
-0.030122
-0.030047
-0.029972
-0.029897
-0.029821
-0.029746
-0.029670
-0.029595
-0.029519
-0.029444
-0.029368
-0.029292
-0.029216
-0.029140
-0.029064
-0.028988
-0.028912
-0.028835
-0.028759
-0.028682
-0.028606
-0.028529
-0.028452
-0.028376
-0.028299
-0.028222
-0.028145
-0.028067
-0.027990
-0.027913
-0.027836
-0.027758
-0.027681
-0.027603
-0.027525
-0.027448
-0.027370
-0.027292
-0.027214
-0.027136
-0.027058
-0.026979
-0.026901
-0.026823
-0.026744
-0.026666
-0.026587
-0.026508
-0.026430
-0.026351
-0.026272
-0.026193
-0.026114
-0.026035
-0.025955
-0.025876
-0.025797
-0.025717
-0.025638
-0.025558
-0.025479
-0.025399
-0.025319
-0.025239
-0.025159
-0.025079
-0.024999
-0.024919
-0.024839
-0.024759
-0.024678
-0.024598
-0.024517
-0.024437
-0.024356
-0.024276
-0.024195
-0.024114
-0.024033
-0.023952
-0.023871
-0.023790
-0.023709
-0.023628
-0.023546
-0.023465
-0.023383
-0.023302
-0.023220
-0.023139
-0.023057
-0.022975
-0.022894
-0.022812
-0.022730
-0.022648
-0.022566
-0.022484
-0.022402
-0.022319
-0.022237
-0.022155
-0.022072
-0.021990
-0.021907
-0.021825
-0.021742
-0.021659
-0.021576
-0.021494
-0.021411
-0.021328
-0.021245
-0.021162
-0.021079
-0.020995
-0.020912
-0.020829
-0.020746
-0.020662
-0.020579
-0.020495
-0.020412
-0.020328
-0.020244
-0.020160
-0.020077
-0.019993
-0.019909
-0.019825
-0.019741
-0.019657
-0.019573
-0.019489
-0.019404
-0.019320
-0.019236
-0.019151
-0.019067
-0.018983
-0.018898
-0.018813
-0.018729
-0.018644
-0.018559
-0.018475
-0.018390
-0.018305
-0.018220
-0.018135
-0.018050
-0.017965
-0.017880
-0.017795
-0.017709
-0.017624
-0.017539
-0.017453
-0.017368
-0.017283
-0.017197
-0.017111
-0.017026
-0.016940
-0.016855
-0.016769
-0.016683
-0.016597
-0.016511
-0.016426
-0.016340
-0.016254
-0.016168
-0.016082
-0.015995
-0.015909
-0.015823
-0.015737
-0.015651
-0.015564
-0.015478
-0.015392
-0.015305
-0.015219
-0.015132
-0.015046
-0.014959
-0.014872
-0.014786
-0.014699
-0.014612
-0.014525
-0.014439
-0.014352
-0.014265
-0.014178
-0.014091
-0.014004
-0.013917
-0.013830
-0.013743
-0.013656
-0.013569
-0.013481
-0.013394
-0.013307
-0.013220
-0.013132
-0.013045
-0.012957
-0.012870
-0.012783
-0.012695
-0.012608
-0.012520
-0.012432
-0.012345
-0.012257
-0.012169
-0.012082
-0.011994
-0.011906
-0.011818
-0.011731
-0.011643
-0.011555
-0.011467
-0.011379
-0.011291
-0.011203
-0.011115
-0.011027
-0.010939
-0.010851
-0.010763
-0.010674
-0.010586
-0.010498
-0.010410
-0.010322
-0.010233
-0.010145
-0.010057
-0.009968
-0.009880
-0.009791
-0.009703
-0.009615
-0.009526
-0.009438
-0.009349
-0.009261
-0.009172
-0.009083
-0.008995
-0.008906
-0.008818
-0.008729
-0.008640
-0.008552
-0.008463
-0.008374
-0.008285
-0.008197
-0.008108
-0.008019
-0.007930
-0.007841
-0.007752
-0.007663
-0.007575
-0.007486
-0.007397
-0.007308
-0.007219
-0.007130
-0.007041
-0.006952
-0.006863
-0.006774
-0.006685
-0.006595
-0.006506
-0.006417
-0.006328
-0.006239
-0.006150
-0.006061
-0.005971
-0.005882
-0.005793
-0.005704
-0.005615
-0.005525
-0.005436
-0.005347
-0.005257
-0.005168
-0.005079
-0.004989
-0.004900
-0.004811
-0.004721
-0.004632
-0.004543
-0.004453
-0.004364
-0.004274
-0.004185
-0.004096
-0.004006
-0.003917
-0.003827
-0.003738
-0.003648
-0.003559
-0.003469
-0.003380
-0.003290
-0.003201
-0.003111
-0.003022
-0.002932
-0.002843
-0.002753
-0.002664
-0.002574
-0.002484
-0.002395
-0.002305
-0.002216
-0.002126
-0.002036
-0.001947
-0.001857
-0.001768
-0.001678
-0.001588
-0.001499
-0.001409
-0.001320
-0.001230
-0.001140
-0.001051
-0.000961
-0.000871
-0.000782
-0.000692
-0.000602
-0.000513
-0.000423
-0.000333
-0.000244
-0.000154
-0.000064
0.000025
0.000115
0.000205
0.000294
0.000384
0.000474
0.000563
0.000653
0.000743
0.000832
0.000922
0.001012
0.001101
0.001191
0.001281
0.001370
0.001460
0.001550
0.001639
0.001729
0.001819
0.001908
0.001998
0.002088
0.002177
0.002267
0.002357
0.002446
0.002536
0.002626
0.002715
0.002805
0.002895
0.002984
0.003074
0.003164
0.003253
0.003343
0.003432
0.003522
0.003612
0.003701
0.003791
0.003880
0.003970
0.004060
0.004149
0.004239
0.004328
0.004418
0.004507
0.004597
0.004687
0.004776
0.004866
0.004955
0.005045
0.005134
0.005224
0.005313
0.005403
0.005492
0.005582
0.005671
0.005761
0.005850
0.005939
0.006029
0.006118
0.006208
0.006297
0.006387
0.006476
0.006565
0.006655
0.006744
0.006834
0.006923
0.007012
0.007102
0.007191
0.007280
0.007370
0.007459
0.007548
0.007638
0.007727
0.007816
0.007905
0.007995
0.008084
0.008173
0.008262
0.008352
0.008441
0.008530
0.008619
0.008708
0.008798
0.008887
0.008976
0.009065
0.009154
0.009243
0.009332
0.009422
0.009511
0.009600
0.009689
0.009778
0.009867
0.009956
0.010045
0.010134
0.010223
0.010312
0.010401
0.010490
0.010579
0.010668
0.010757
0.010846
0.010935
0.011024
0.011113
0.011201
0.011290
0.011379
0.011468
0.011557
0.011646
0.011734
0.011823
0.011912
0.012001
0.012090
0.012178
0.012267
0.012356
0.012445
0.012533
0.012622
0.012711
0.012799
0.012888
0.012977
0.013065
0.013154
0.013243
0.013331
0.013420
0.013508
0.013597
0.013685
0.013774
0.013862
0.013951
0.014039
0.014128
0.014216
0.014305
0.014393
0.014482
0.014570
0.014659
0.014747
0.014835
0.014924
0.015012
0.015100
0.015189
0.015277
0.015365
0.015454
0.015542
0.015630
0.015718
0.015807
0.015895
0.015983
0.016071
0.016159
0.016247
0.016336
0.016424
0.016512
0.016600
0.016688
0.016776
0.016864
0.016952
0.017040
0.017128
0.017216
0.017304
0.017392
0.017480
0.017568
0.017656
0.017744
0.017832
0.017920
0.018008
0.018096
0.018184
0.018271
0.018359
0.018447
0.018535
0.018623
0.018710
0.018798
0.018886
0.018974
0.019061
0.019149
0.019237
0.019325
0.019412
0.019500
0.019588
0.019675
0.019763
0.019850
0.019938
0.020026
0.020113
0.020201
0.020288
0.020376
0.020463
0.020551
0.020638
0.020726
0.020813
0.020901
0.020988
0.021075
0.021163
0.021250
0.021338
0.021425
0.021512
0.021600
0.021687
0.021774
0.021862
0.021949
0.022036
0.022123
0.022211
0.022298
0.022385
0.022472
0.022559
0.022647
0.022734
0.022821
0.022908
0.022995
0.023082
0.023169
0.023256
0.023344
0.023431
0.023518
0.023605
0.023692
0.023779
0.023866
0.023953
0.024040
0.024127
0.024214
0.024301
0.024387
0.024474
0.024561
0.024648
0.024735
0.024822
0.024909
0.024996
0.025082
0.025169
0.025256
0.025343
0.025430
0.025516
0.025603
0.025690
0.025776
0.025863
0.025950
0.026037
0.026123
0.026210
0.026297
0.026383
0.026470
0.026556
0.026643
0.026730
0.026816
0.026903
0.026989
0.027076
0.027162
0.027249
0.027336
0.027422
0.027509
0.027595
0.027682
0.027768
0.027854
0.027941
0.028027
0.028114
0.028200
0.028287
0.028373
0.028459
0.028546
0.028632
0.028718
0.028805
0.028891
0.028977
0.029064
0.029150
0.029236
0.029323
0.029409
0.029495
0.029581
0.029668
0.029754
0.029840
0.029926
0.030012
0.030099
0.030185
0.030357
0.030443
0.030529
0.030615
0.030701
0.030787
0.030873
0.030959
0.031045
0.031131
0.031217
0.031303
0.031389
0.031475
0.031561
0.031647
0.031733
0.031819
0.031905
0.031991
0.032077
0.032163
0.032248
0.032334
0.032420
0.032506
0.032592
0.032678
0.032764
0.032849
0.032935
0.033021
0.033107
0.033193
0.033278
0.033364
0.033450
0.033536
0.033622
0.033707
0.033793
0.033879
0.033964
0.034050
0.034136
0.034222
0.034307
0.034393
0.034479
0.034564
0.034650
0.034736
0.034821
0.034907
0.034993
0.035078
0.035164
0.035250
0.035335
0.035421
0.035506
0.035592
0.035678
0.035763
0.035849
0.035934
0.036020
0.036105
0.036191
0.036277
0.036362
0.036448
0.036533
0.036619
0.036704
0.036790
0.036875
0.036961
0.037046
0.037132
0.037217
0.037303
0.037388
0.037474
0.037559
0.037645
0.037730
0.037815
0.037901
0.037986
0.038072
0.038157
0.038243
0.038328
0.038413
0.038499
0.038584
0.038670
0.038755
0.038841
0.038926
0.039011
0.039097
0.039182
0.039267
0.039353
0.039438
0.039524
0.039609
0.039694
0.039780
0.039865
0.039950
0.040036
0.040121
0.040206
0.040292
0.040377
0.040462
0.040548
0.040633
0.040718
0.040804
0.040889
0.040974
0.041060
0.041145
0.041230
0.041315
0.041401
0.041486
0.041571
0.041657
0.041742
0.041827
0.041913
0.041998
0.042083
0.042168
0.042254
0.042339
0.042424
0.042509
0.042595
0.042680
0.042765
0.042850
0.042936
0.043021
0.043106
0.043191
0.043277
0.043362
0.043447
0.043532
0.043618
0.043703
0.043788
0.043873
0.043959
0.044044
0.044129
0.044214
0.044300
0.044385
0.044470
0.044555
0.044641
0.044726
0.044811
0.044896
0.044981
0.045067
0.045152
0.045237
0.045322
0.045408
0.045493
0.045578
0.045663
0.045748
0.045834
0.045919
0.046004
0.046089
0.046175
0.046260
0.046345
0.046430
0.046516
0.046601
0.046686
0.046771
0.046856
0.046942
0.047027
0.047112
0.047197
0.047283
0.047368
0.047453
0.047538
0.047624
0.047709
0.047794
0.047879
0.047964
0.048050
0.048135
0.048220
0.048305
0.048391
0.048476
0.048561
0.048646
0.048732
0.048817
0.048902
0.048987
0.049073
0.049158
0.049243
0.049328
0.049414
0.049499
0.049584
0.049669
0.049755
0.049840
0.049925
0.050011
0.050096
0.050181
0.050266
0.050352
0.050437
0.050522
0.050607
0.050693
0.050778
0.050863
0.050949
0.051034
0.051119
0.051205
0.051290
0.051375
0.051460
0.051546
0.051631
0.051716
0.051802
0.051887
0.051972
0.052058
0.052143
0.052228
0.052314
0.052399
0.052484
0.052570
0.052655
0.052740
0.052826
0.052911
0.052996
0.053082
0.053167
0.053252
0.053338
0.053423
0.053508
0.053594
0.053679
0.053765
0.053850
0.053935
0.054021
0.054106
0.054192
0.054277
0.054362
0.054448
0.054533
0.054619
0.054704
0.054789
0.054875
0.054960
0.055046
0.055131
0.055217
0.055302
0.055387
0.055473
0.055558
0.055644
0.055729
0.055815
0.055900
0.055986
0.056071
0.056157
0.056242
0.056328
0.056413
0.056498
0.056584
0.056669
0.056755
0.056840
0.056926
0.057011
0.057097
0.057183
0.057268
0.057354
0.057439
0.057525
0.057610
0.057696
0.057781
0.057867
0.057952
0.058038
0.058123
0.058209
0.058295
0.058380
0.058466
0.058551
0.058637
0.058723
0.058808
0.058894
0.058979
0.059065
0.059151
0.059236
0.059322
0.059407
0.059493
0.059579
0.059664
0.059750
0.059836
0.059921
0.060007
0.060092
0.060178
0.060264
0.060349
0.060435
0.043068
0.043110
0.042978
0.038511
0.038575
0.038635
-0.031129
-0.031084
-0.031216
-0.031271
-0.016389
0.048933
0.049087
0.049120
0.049213
0.041335
0.041197
0.041241
-0.016714
-0.016624
-0.016733
-0.016575
-0.045210
-0.045274
-0.045116
-0.045136
-0.017274
-0.017208
-0.017144
0.016891
0.016755
0.016832
0.016877
-0.028300
-0.029040
-0.034209
-0.035245
0.011937
0.011802
0.011855
0.011843
-0.013172
-0.013454
-0.013213
-0.013225
0.031362
0.031103
0.030840
0.031695
-0.045414
-0.045362
-0.045205
0.014681
0.014665
0.014824
0.014896
0.000734
-0.002787
-0.001944
-0.004863
0.007231
0.007424
0.007499
-0.024153
-0.023017
-0.024202
-0.003987
-0.003900
-0.004114
-0.004019
0.038092
0.038548
0.038502
0.038972
-0.000996
-0.000686
-0.000814
-0.000372
0.012806
0.012943
0.012700
0.013007
0.011933
0.012030
0.011860
0.012110
-0.006493
-0.006515
-0.006633
-0.006702
0.042745
0.042687
0.042527
-0.017962
-0.018213
-0.018040
0.007243
0.042469
0.042311
0.042306
0.042543
0.019567
0.019722
0.019651
-0.000299
-0.000265
-0.000395
0.019711
0.011804
0.011371
0.011215
-0.000162
0.022603
0.022506
0.022301
0.035523
0.035675
0.035499
0.035743
0.021901
0.021987
0.021833
0.022042
0.022248
-0.039031
-0.039208
-0.039117
0.050343
0.050199
0.050438
-0.039286
-0.027272
-0.027387
-0.027497
-0.027165
-0.021973
-0.021872
-0.022232
-0.021983
-0.012294
-0.012558
-0.012368
0.006446
0.006595
0.006407
0.006540
-0.012599
0.019660
0.019772
0.019569
-0.020863
-0.021069
-0.020875
-0.022809
-0.023087
-0.023303
0.019769
0.039147
0.039186
0.038998
-0.034832
-0.034774
-0.034701
0.041934
0.042096
0.042107
0.041962
0.024682
0.024452
0.024545
0.024209
0.000767
-0.000431
0.000799
0.000495
0.018550
0.019043
0.017740
0.019793
-0.032915
-0.032818
-0.033106
-0.032627
0.056970
0.056857
-0.047448
-0.047048
-0.046820
-0.046378
-0.030759
-0.029956
-0.028114
-0.033101
0.058862
0.058906
0.059110
-0.035482
-0.032659
-0.035668
-0.035868
-0.035122
0.040630
0.040601
0.040393
0.015916
0.015833
0.016026
0.015964
0.001158
0.000801
0.001057
-0.045924
-0.045906
-0.046161
-0.045950
0.058942
0.058604
0.059044
0.058497
0.050440
0.050591
0.050751
0.040337
0.024294
0.024124
0.023950
0.023816
-0.005407
-0.005308
-0.005192
-0.005483
-0.009740
-0.010303
-0.011859
0.051494
0.051448
0.051008
0.051187
-0.013042
-0.012714
-0.014294
-0.013621
0.023864
0.023882
0.023726
0.013858
0.014333
0.018324
0.010079
-0.040632
-0.040843
-0.040182
-0.041578
0.054358
0.054485
0.012364
0.012347
0.012436
0.024016
0.001543
0.002172
0.002600
0.002945
-0.022153
-0.022373
-0.022277
-0.022260
-0.021479
-0.024778
-0.023723
-0.021590
-0.004972
-0.004716
-0.005157
-0.005099
-0.026665
-0.025831
-0.025210
-0.024553
0.053570
0.053867
0.054058
0.053556
-0.024509
-0.024471
-0.024394
-0.050774
-0.052934
-0.050851
-0.051065
-0.043145
-0.043266
-0.043288
-0.007957
-0.007988
-0.016686
-0.016710
-0.017761
-0.015733
0.022357
0.021019
0.021203
0.019719
0.003129
0.008591
0.007872
0.006996
0.029281
0.029392
0.028561
0.028562
0.047757
0.046647
0.047018
0.047675
-0.020492
-0.020412
-0.021079
-0.021203
-0.017373
-0.017299
-0.017196
-0.017530
0.032679
0.033193
0.032804
0.033125
0.032205
0.032149
0.032772
-0.004051
-0.003895
-0.003859
-0.004043
0.056459
0.055829
0.056408
0.042502
-0.010741
-0.011928
-0.011328
-0.011255
0.047045
0.047090
0.046812
0.046916
0.009084
0.009251
0.009126
0.009322
0.022364
0.022624
-0.006116
-0.005667
-0.005284
-0.004961
-0.001610
-0.001593
-0.000114
-0.003130
-0.000619
-0.000527
-0.000458
0.052481
0.052302
0.052283
-0.031453
-0.031547
-0.031088
-0.031053
-0.000418
-0.026780
-0.025053
-0.026351
0.047873
0.048096
0.048460
0.048676
0.044767
0.044673
0.044656
0.044505
0.021226
0.020757
0.020636
0.021673
0.018313
0.018156
0.018084
0.018335
0.018219
0.018415
0.023429
0.022736
0.023187
-0.003225
-0.003361
-0.003198
0.013315
0.011530
0.015761
-0.003263
0.030470
0.030822
0.029740
0.025893
0.026091
0.026081
0.025952
0.038754
0.038787
0.038553
-0.026951
-0.023942
0.038953
0.036784
0.036725
0.036626
0.036579
-0.021212
-0.021128
-0.021249
0.047255
0.012726
0.012791
0.012395
0.012332
-0.038583
-0.037352
-0.037803
-0.036783
0.015495
0.015474
0.015337
0.015630
-0.025552
-0.025089
-0.026254
-0.024898
-0.031010
-0.031659
-0.029147
-0.033337
0.033048
0.032974
0.033199
-0.026782
-0.026552
-0.027146
0.017034
0.016994
0.016385
0.015983
0.041320
0.034244
0.034076
0.034240
0.025685
0.026540
0.025822
0.026412
-0.006459
-0.007160
-0.007315
0.034072
0.036149
0.036427
0.036153
0.018192
0.018601
0.018800
0.019211
0.022520
0.021046
-0.012806
-0.013271
-0.012631
-0.013687
-0.035527
-0.037218
-0.037220
-0.034580
-0.026882
-0.027289
0.011132
0.011049
0.011694
0.036302
-0.007855
-0.006425
-0.005868
-0.008228
0.017911
0.019674
0.026872
0.026970
0.026901
-0.026643
-0.026261
-0.026139
0.027065
-0.021444
-0.021407
-0.021306
0.037977
0.037800
0.037904
0.037728
-0.014184
-0.014119
-0.014059
-0.025074
-0.029005
0.006780
0.006742
0.006656
0.040372
0.040339
0.040240
0.040187
0.026993
0.027097
0.027169
0.009807
0.009265
0.009120
0.008337
0.026131
0.025996
0.026053
0.025911
0.022798
0.022864
0.022735
0.036048
0.036168
0.036236
0.026115
0.025943
0.026932
0.036292
-0.032543
-0.032546
-0.032407
0.025262
0.019418
0.019015
0.019606
0.026960
-0.034625
-0.034569
-0.034659
0.013595
0.010655
0.011849
-0.032683
0.033897
0.033904
0.034093
0.048590
0.048658
0.048502
0.048590