# vtk DataFile Version 2.0
Test
ASCII
DATASET POLYDATA
POINTS 20431 float
0.000000 0.000000 0.000000
2.000000 0.000000 0.000000
2.000000 4.000000 0.000000
0.000000 4.000000 0.000000
0.000000 0.500000 0.000000
1.500000 2.000000 0.000000
2.000000 2.500000 0.000000
0.400000 0.000000 0.000000
0.800000 0.000000 0.000000
1.200000 0.000000 0.000000
1.600000 0.000000 0.000000
2.000000 0.362557 0.000000
2.000000 0.672798 0.000000
2.000000 0.938272 0.000000
2.000000 1.165439 0.000000
2.000000 1.359826 0.000000
2.000000 1.526163 0.000000
2.000000 1.668499 0.000000
2.000000 1.790295 0.000000
2.000000 1.894517 0.000000
2.000000 1.983700 0.000000
2.000000 2.060013 0.000000
2.000000 2.125315 0.000000
2.000000 2.181194 0.000000
2.000000 2.229010 0.000000
2.000000 2.269926 0.000000
2.000000 2.304938 0.000000
2.000000 2.334898 0.000000
2.000000 2.360534 0.000000
2.000000 2.382472 0.000000
2.000000 2.401244 0.000000
2.000000 2.417307 0.000000
2.000000 2.431052 0.000000
2.000000 2.442814 0.000000
2.000000 2.452878 0.000000
2.000000 2.461491 0.000000
2.000000 2.468860 0.000000
2.000000 2.475167 0.000000
2.000000 2.480563 0.000000
2.000000 2.485180 0.000000
2.000000 2.489132 0.000000
2.000000 2.492513 0.000000
2.000000 2.495406 0.000000
2.000000 2.497882 0.000000
2.000000 2.502286 0.000000
2.000000 2.505266 0.000000
2.000000 2.509150 0.000000
2.000000 2.514212 0.000000
2.000000 2.520809 0.000000
2.000000 2.529407 0.000000
2.000000 2.540613 0.000000
2.000000 2.555218 0.000000
2.000000 2.574253 0.000000
2.000000 2.599061 0.000000
2.000000 2.631395 0.000000
2.000000 2.673536 0.000000
2.000000 2.728460 0.000000
2.000000 2.800043 0.000000
2.000000 2.893339 0.000000
2.000000 3.014933 0.000000
2.000000 3.173410 0.000000
2.000000 3.379956 0.000000
2.000000 3.649152 0.000000
1.600000 4.000000 0.000000
1.200000 4.000000 0.000000
0.800000 4.000000 0.000000
0.400000 4.000000 0.000000
0.000000 3.624996 0.000000
0.000000 3.289970 0.000000
0.000000 2.990661 0.000000
0.000000 2.723261 0.000000
0.000000 2.484368 0.000000
0.000000 2.270943 0.000000
0.000000 2.080271 0.000000
0.000000 1.909926 0.000000
0.000000 1.757741 0.000000
0.000000 1.621780 0.000000
0.000000 1.500314 0.000000
0.000000 1.391797 0.000000
0.000000 1.294849 0.000000
0.000000 1.208237 0.000000
0.000000 1.130858 0.000000
0.000000 1.061728 0.000000
0.000000 0.999968 0.000000
0.000000 0.944792 0.000000
0.000000 0.895499 0.000000
0.000000 0.851460 0.000000
0.000000 0.812117 0.000000
0.000000 0.776968 0.000000
0.000000 0.745565 0.000000
0.000000 0.717511 0.000000
0.000000 0.692448 0.000000
0.000000 0.670056 0.000000
0.000000 0.650052 0.000000
0.000000 0.632180 0.000000
0.000000 0.616213 0.000000
0.000000 0.601949 0.000000
0.000000 0.589205 0.000000
0.000000 0.577820 0.000000
0.000000 0.567649 0.000000
0.000000 0.558562 0.000000
0.000000 0.550444 0.000000
0.000000 0.543191 0.000000
0.000000 0.536712 0.000000
0.000000 0.530923 0.000000
0.000000 0.525751 0.000000
0.000000 0.521131 0.000000
0.000000 0.517003 0.000000
0.000000 0.513315 0.000000
0.000000 0.510021 0.000000
0.000000 0.507078 0.000000
0.000000 0.504448 0.000000
0.000000 0.502099 0.000000
0.000000 0.497804 0.000000
0.000000 0.494785 0.000000
0.000000 0.490633 0.000000
0.000000 0.484924 0.000000
0.000000 0.477074 0.000000
0.000000 0.466279 0.000000
0.000000 0.451436 0.000000
0.000000 0.431025 0.000000
0.000000 0.402959 0.000000
0.000000 0.364366 0.000000
0.000000 0.311297 0.000000
0.000000 0.238324 0.000000
0.000000 0.137980 0.000000
0.001414 0.501414 0.000000
0.002828 0.502828 0.000000
0.004241 0.504241 0.000000
0.005655 0.505655 0.000000
0.007069 0.507069 0.000000
0.008483 0.508483 0.000000
0.009896 0.509896 0.000000
0.011310 0.511310 0.000000
0.012724 0.512724 0.000000
0.014138 0.514138 0.000000
0.015551 0.515551 0.000000
0.016965 0.516965 0.000000
0.018379 0.518379 0.000000
0.019793 0.519793 0.000000
0.021206 0.521206 0.000000
0.022620 0.522620 0.000000
0.024034 0.524034 0.000000
0.025448 0.525448 0.000000
0.026861 0.526861 0.000000
0.028275 0.528275 0.000000
0.029689 0.529689 0.000000
0.031103 0.531103 0.000000
0.032516 0.532516 0.000000
0.033930 0.533930 0.000000
0.035344 0.535344 0.000000
0.036758 0.536758 0.000000
0.038172 0.538172 0.000000
0.039585 0.539585 0.000000
0.040999 0.540999 0.000000
0.042413 0.542413 0.000000
0.043827 0.543827 0.000000
0.045240 0.545240 0.000000
0.046654 0.546654 0.000000
0.048068 0.548068 0.000000
0.049482 0.549482 0.000000
0.050895 0.550895 0.000000
0.052309 0.552309 0.000000
0.053723 0.553723 0.000000
0.055137 0.555137 0.000000
0.056550 0.556550 0.000000
0.057964 0.557964 0.000000
0.059378 0.559378 0.000000
0.060792 0.560792 0.000000
0.062205 0.562205 0.000000
0.063619 0.563619 0.000000
0.065033 0.565033 0.000000
0.066447 0.566447 0.000000
0.067861 0.567861 0.000000
0.069274 0.569274 0.000000
0.070688 0.570688 0.000000
0.072102 0.572102 0.000000
0.073516 0.573516 0.000000
0.074929 0.574929 0.000000
0.076343 0.576343 0.000000
0.077757 0.577757 0.000000
0.079171 0.579171 0.000000
0.080584 0.580584 0.000000
0.081998 0.581998 0.000000
0.083412 0.583412 0.000000
0.084826 0.584826 0.000000
0.086239 0.586239 0.000000
0.087653 0.587653 0.000000
0.089067 0.589067 0.000000
0.090481 0.590481 0.000000
0.091894 0.591894 0.000000
0.093308 0.593308 0.000000
0.094722 0.594722 0.000000
0.096136 0.596136 0.000000
0.097549 0.597549 0.000000
0.098963 0.598963 0.000000
0.100377 0.600377 0.000000
0.101791 0.601791 0.000000
0.103205 0.603205 0.000000
0.104618 0.604618 0.000000
0.106032 0.606032 0.000000
0.107446 0.607446 0.000000
0.108860 0.608860 0.000000
0.110273 0.610273 0.000000
0.111687 0.611687 0.000000
0.113101 0.613101 0.000000
0.114515 0.614515 0.000000
0.115928 0.615928 0.000000
0.117342 0.617342 0.000000
0.118756 0.618756 0.000000
0.120170 0.620170 0.000000
0.121583 0.621583 0.000000
0.122997 0.622997 0.000000
0.124411 0.624411 0.000000
0.125825 0.625825 0.000000
0.127238 0.627238 0.000000
0.128652 0.628652 0.000000
0.130066 0.630066 0.000000
0.131480 0.631480 0.000000
0.132893 0.632893 0.000000
0.134307 0.634307 0.000000
0.135721 0.635721 0.000000
0.137135 0.637135 0.000000
0.138549 0.638549 0.000000
0.139962 0.639962 0.000000
0.141376 0.641376 0.000000
0.142790 0.642790 0.000000
0.144204 0.644204 0.000000
0.145617 0.645617 0.000000
0.147031 0.647031 0.000000
0.148445 0.648445 0.000000
0.149859 0.649859 0.000000
0.151272 0.651272 0.000000
0.152686 0.652686 0.000000
0.154100 0.654100 0.000000
0.155514 0.655514 0.000000
0.156927 0.656927 0.000000
0.158341 0.658341 0.000000
0.159755 0.659755 0.000000
0.161169 0.661169 0.000000
0.162582 0.662582 0.000000
0.163996 0.663996 0.000000
0.165410 0.665410 0.000000
0.166824 0.666824 0.000000
0.168238 0.668238 0.000000
0.169651 0.669651 0.000000
0.171065 0.671065 0.000000
0.172479 0.672479 0.000000
0.173893 0.673893 0.000000
0.175306 0.675306 0.000000
0.176720 0.676720 0.000000
0.178134 0.678134 0.000000
0.179548 0.679548 0.000000
0.180961 0.680961 0.000000
0.182375 0.682375 0.000000
0.183789 0.683789 0.000000
0.185203 0.685203 0.000000
0.186616 0.686616 0.000000
0.188030 0.688030 0.000000
0.189444 0.689444 0.000000
0.190858 0.690858 0.000000
0.192271 0.692271 0.000000
0.193685 0.693685 0.000000
0.195099 0.695099 0.000000
0.196513 0.696513 0.000000
0.197926 0.697926 0.000000
0.199340 0.699340 0.000000
0.200754 0.700754 0.000000
0.202168 0.702168 0.000000
0.203582 0.703582 0.000000
0.204995 0.704995 0.000000
0.206409 0.706409 0.000000
0.207823 0.707823 0.000000
0.209237 0.709237 0.000000
0.210650 0.710650 0.000000
0.212064 0.712064 0.000000
0.213478 0.713478 0.000000
0.214892 0.714892 0.000000
0.216305 0.716305 0.000000
0.217719 0.717719 0.000000
0.219133 0.719133 0.000000
0.220547 0.720547 0.000000
0.221960 0.721960 0.000000
0.223374 0.723374 0.000000
0.224788 0.724788 0.000000
0.226202 0.726202 0.000000
0.227615 0.727615 0.000000
0.229029 0.729029 0.000000
0.230443 0.730443 0.000000
0.231857 0.731857 0.000000
0.233270 0.733270 0.000000
0.234684 0.734684 0.000000
0.236098 0.736098 0.000000
0.237512 0.737512 0.000000
0.238926 0.738926 0.000000
0.240339 0.740339 0.000000
0.241753 0.741753 0.000000
0.243167 0.743167 0.000000
0.244581 0.744581 0.000000
0.245994 0.745994 0.000000
0.247408 0.747408 0.000000
0.248822 0.748822 0.000000
0.250236 0.750236 0.000000
0.251649 0.751649 0.000000
0.253063 0.753063 0.000000
0.254477 0.754477 0.000000
0.255891 0.755891 0.000000
0.257304 0.757304 0.000000
0.258718 0.758718 0.000000
0.260132 0.760132 0.000000
0.261546 0.761546 0.000000
0.262959 0.762959 0.000000
0.264373 0.764373 0.000000
0.265787 0.765787 0.000000
0.267201 0.767201 0.000000
0.268615 0.768615 0.000000
0.270028 0.770028 0.000000
0.271442 0.771442 0.000000
0.272856 0.772856 0.000000
0.274270 0.774270 0.000000
0.275683 0.775683 0.000000
0.277097 0.777097 0.000000
0.278511 0.778511 0.000000
0.279925 0.779925 0.000000
0.281338 0.781338 0.000000
0.282752 0.782752 0.000000
0.284166 0.784166 0.000000
0.285580 0.785580 0.000000
0.286993 0.786993 0.000000
0.288407 0.788407 0.000000
0.289821 0.789821 0.000000
0.291235 0.791235 0.000000
0.292648 0.792648 0.000000
0.294062 0.794062 0.000000
0.295476 0.795476 0.000000
0.296890 0.796890 0.000000
0.298303 0.798303 0.000000
0.299717 0.799717 0.000000
0.301131 0.801131 0.000000
0.302545 0.802545 0.000000
0.303959 0.803959 0.000000
0.305372 0.805372 0.000000
0.306786 0.806786 0.000000
0.308200 0.808200 0.000000
0.309614 0.809614 0.000000
0.311027 0.811027 0.000000
0.312441 0.812441 0.000000
0.313855 0.813855 0.000000
0.315269 0.815269 0.000000
0.316682 0.816682 0.000000
0.318096 0.818096 0.000000
0.319510 0.819510 0.000000
0.320924 0.820924 0.000000
0.322337 0.822337 0.000000
0.323751 0.823751 0.000000
0.325165 0.825165 0.000000
0.326579 0.826579 0.000000
0.327992 0.827992 0.000000
0.329406 0.829406 0.000000
0.330820 0.830820 0.000000
0.332234 0.832234 0.000000
0.333648 0.833648 0.000000
0.335061 0.835061 0.000000
0.336475 0.836475 0.000000
0.337889 0.837889 0.000000
0.339303 0.839303 0.000000
0.340716 0.840716 0.000000
[...]
POINT_DATA 20431
SCALARS UX float 1
LOOKUP_TABLE default
-0.000000
0.000000
-0.002339
-0.007681
-0.002523
-0.000582
-0.001075
-0.000000
-0.000000
0.000000
-0.000000
0.001998
0.002687
0.003028
0.003194
0.003250
0.003189
0.002993
0.002654
0.002206
0.001691
0.001200
0.000766
0.000406
0.000115
-0.000115
-0.000298
-0.000443
-0.000559
-0.000654
-0.000730
-0.000792
-0.000844
-0.000886
-0.000922
-0.000951
-0.000976
-0.000997
-0.001014
-0.001029
-0.001041
-0.001052
-0.001061
-0.001069
-0.001082
-0.001091
-0.001103
-0.001118
-0.001137
-0.001162
-0.001193
-0.001232
-0.001282
-0.001341
-0.001413
-0.001499
-0.001599
-0.001711
-0.001835
-0.001964
-0.002085
-0.002213
-0.002299
-0.003555
-0.004686
-0.005719
-0.006702
-0.007593
-0.007415
-0.007177
-0.006947
-0.006780
-0.006697
-0.006708
-0.006787
-0.006919
-0.007067
-0.007219
-0.007361
-0.007486
-0.007592
-0.007676
-0.007741
-0.007789
-0.007822
-0.007843
-0.007855
-0.007861
-0.007863
-0.007863
-0.007861
-0.007857
-0.007851
-0.007842
-0.007830
-0.007814
-0.007795
-0.007775
-0.007752
-0.007723
-0.007677
-0.007612
-0.007571
-0.007526
-0.007447
-0.007347
-0.007248
-0.007102
-0.006901
-0.006436
-0.005453
-0.004572
-0.003710
-0.002482
-0.002436
-0.002347
-0.002178
-0.002073
-0.001993
-0.001922
-0.001850
-0.001773
-0.001678
-0.001532
-0.001308
-0.000900
-0.002577
-0.002453
-0.002447
-0.002597
-0.002751
-0.002738
-0.002854
-0.002810
-0.002836
-0.002910
-0.002975
-0.003018
-0.003101
-0.003312
-0.003492
-0.003166
-0.002553
-0.002967
-0.003229
-0.003283
-0.003274
-0.003214
-0.003221
-0.003249
-0.003248
-0.003264
-0.003277
-0.003202
-0.004225
-0.004235
-0.004320
-0.004359
-0.004307
-0.004286
-0.004248
-0.004364
-0.004295
-0.004287
-0.004282
-0.004300
-0.004347
-0.004324
-0.004279
-0.004227
-0.004313
-0.004290
-0.004708
-0.004727
-0.004299
-0.004073
-0.004062
-0.004048
-0.004001
-0.004037
-0.004031
-0.004023
-0.003989
-0.003994
-0.004002
-0.003958
-0.003953
-0.003915
-0.003925
-0.003945
-0.003901
-0.003900
-0.003915
-0.003953
-0.003949
-0.003900
-0.003837
-0.003822
-0.003870
-0.004901
-0.004822
-0.004786
-0.004869
-0.004927
-0.004898
-0.004840
-0.004808
-0.004835
-0.004832
-0.004854
-0.003426
-0.003487
-0.003448
-0.003455
-0.003429
-0.003391
-0.003379
-0.003348
-0.003232
-0.003486
-0.003337
-0.003259
-0.003232
-0.003448
-0.003402
-0.003389
-0.004093
-0.004148
-0.004123
-0.004200
-0.004563
-0.004519
-0.004162
-0.004097
-0.004176
-0.004158
-0.004204
-0.004188
-0.004209
-0.004186
-0.004189
-0.004237
-0.004113
-0.004218
-0.004285
-0.004156
-0.004189
-0.004257
-0.004207
-0.004118
-0.004165
-0.004172
-0.004124
-0.004140
-0.004159
-0.004200
-0.004151
-0.004166
-0.004282
-0.004245
-0.004209
-0.004202
-0.004434
-0.004171
-0.003291
-0.003964
-0.003728
-0.003759
-0.003668
-0.003576
-0.003553
-0.003641
-0.003634
-0.003618
-0.003579
-0.003743
-0.003724
-0.003679
-0.003760
-0.003743
-0.003747
-0.004107
-0.004143
-0.004119
-0.004108
-0.004235
-0.004294
-0.004239
-0.004276
-0.004253
-0.004276
-0.003855
-0.003839
-0.003872
-0.003838
-0.003944
-0.004132
-0.004343
-0.004398
-0.004391
-0.004309
-0.004290
-0.004422
-0.003865
-0.004440
-0.004421
-0.004418
-0.004378
-0.003869
-0.003829
-0.003761
-0.003794
-0.003759
-0.003779
-0.003810
-0.003791
-0.003775
-0.003725
-0.004465
-0.004515
-0.004560
-0.004492
-0.004547
-0.004527
-0.004371
-0.004502
-0.004452
-0.004484
-0.004439
-0.004411
-0.004411
-0.004355
-0.004382
-0.004340
-0.004319
-0.004327
-0.004274
-0.004312
-0.004280
-0.004237
-0.004209
-0.004284
-0.004162
-0.004231
-0.004176
-0.004148
-0.004161
-0.004152
-0.004198
-0.004044
-0.004015
-0.004082
-0.004151
-0.004069
-0.004092
-0.004081
-0.004102
-0.004075
-0.004103
-0.004076
-0.004089
-0.004075
-0.004185
-0.004154
-0.004068
-0.004168
-0.004152
-0.004083
-0.004080
-0.003738
-0.003778
-0.003721
-0.003678
-0.003654
-0.003761
-0.003789
-0.003782
-0.003725
-0.003958
-0.003454
-0.003490
-0.003473
-0.003447
-0.003414
-0.003263
-0.003256
-0.003259
-0.003294
-0.003262
-0.003213
-0.003227
-0.003210
-0.003196
-0.003460
-0.003433
-0.003534
-0.003528
-0.003458
-0.003438
-0.003455
-0.003896
-0.003894
-0.003856
-0.003934
-0.003984
-0.003933
-0.003923
-0.003937
-0.003905
-0.003847
-0.003814
-0.003873
-0.003860
-0.003849
-0.003796
-0.003434
-0.003426
-0.003433
-0.003379
-0.003383
-0.003381
-0.003378
-0.003366
-0.003395
-0.003370
-0.003380
-0.003364
-0.003376
-0.003393
-0.003483
-0.003440
-0.003405
-0.003403
-0.003468
-0.003442
-0.003530
-0.003538
-0.003550
-0.003529
-0.003546
-0.003609
-0.003679
-0.003615
-0.003589
-0.003629
-0.003691
-0.003569
-0.003233
-0.004140
-0.003879
-0.003826
-0.003798
-0.003866
-0.003830
-0.003714
-0.003767
-0.003847
-0.003859
-0.003838
-0.003830
-0.003816
-0.003793
-0.003787
-0.003817
-0.003808
-0.003838
-0.003809
-0.003856
-0.003871
-0.003799
-0.002911
-0.003605
-0.003433
-0.003409
-0.003462
-0.003452
-0.003446
-0.003462
-0.003464
-0.003722
-0.003761
-0.003705
-0.003683
-0.003614
-0.003633
-0.003346
-0.003398
-0.003306
-0.003289
-0.003302
-0.003309
-0.003304
-0.003533
-0.003950
-0.003943
-0.003859
-0.003923
-0.003956
-0.003827
-0.003966
-0.003909
-0.003892
-0.003931
-0.003883
-0.003852
-0.003826
-0.003657
-0.003637
-0.003691
-0.003643
-0.003749
-0.003752
-0.003712
-0.003716
-0.003791
-0.003660
-0.003688
-0.003699
-0.003677
-0.003653
-0.003656
-0.003326
-0.003266
-0.003315
-0.003263
-0.003264
-0.003110
-0.003079
-0.003053
-0.003041
-0.003052
-0.003062
-0.002826
-0.002833
-0.002801
-0.002849
-0.002784
-0.002842
-0.003315
-0.003327
-0.003356
-0.003353
-0.003303
-0.003315
-0.003361
-0.003332
-0.003301
-0.003303
-0.003291
-0.003232
-0.003291
-0.003295
-0.003323
-0.003242
-0.003288
-0.003211
-0.003267
-0.003274
-0.003215
-0.003207
-0.003246
-0.003246
-0.003294
-0.003287
-0.003282
-0.003328
-0.003320
-0.003309
-0.003265
-0.003213
-0.003182
-0.003174
-0.003181
-0.003208
-0.003135
-0.003094
-0.002904
-0.002919
-0.002933
-0.002911
-0.002927
-0.002901
-0.002991
-0.002975
-0.002949
-0.002989
-0.003087
-0.002959
-0.002968
-0.002728
-0.002665
-0.002712
-0.002678
-0.002683
-0.002694
-0.002838
-0.002816
-0.002753
-0.002782
-0.002739
-0.002704
-0.002717
-0.002726
-0.002683
-0.002687
-0.002688
-0.002735
-0.002698
-0.002782
-0.003033
-0.003010
-0.002941
-0.003033
-0.002971
-0.002891
-0.002836
-0.002803
-0.002752
-0.002775
-0.002809
-0.002803
-0.002783
-0.002822
-0.002836
-0.002845
-0.002858
-0.002893
-0.002911
-0.003002
-0.002946
-0.002963
-0.002936
-0.002956
-0.002971
-0.002966
-0.002978
-0.003477
-0.003045
-0.003053
-0.003057
-0.003036
-0.003030
-0.003056
-0.002987
-0.002930
-0.002923
-0.002956
-0.002904
-0.002877
-0.002858
-0.002869
-0.002864
-0.002839
-0.002809
-0.002813
-0.002752
-0.003166
-0.003099
-0.003042
-0.003068
-0.003071
-0.003030
-0.003045
-0.002971
-0.002943
-0.002900
-0.002942
-0.002970
-0.002959
-0.002836
-0.002895
-0.002946
-0.002943
-0.002932
-0.002946
-0.002933
-0.002935
-0.002553
-0.002499
-0.002531
-0.002552
-0.002529
-0.002524
-0.002500
-0.002493
-0.002454
-0.002440
-0.002446
-0.002429
-0.002429
-0.002432
-0.002423
-0.002413
-0.002417
-0.002353
-0.002387
-0.002438
-0.002397
-0.002390
-0.002406
-0.002406
-0.002453
-0.002466
-0.002437
-0.002441
-0.002426
-0.002492
-0.002462
-0.002446
-0.002550
-0.002524
-0.002509
-0.002675
-0.002796
-0.002840
-0.002823
-0.002823
-0.002802
-0.002804
-0.002803
-0.002792
-0.002751
-0.002792
-0.002801
-0.002804
-0.002750
-0.002755
-0.002728
-0.002739
-0.002723
-0.002688
-0.002667
-0.002668
-0.002641
-0.002627
-0.002611
-0.002571
-0.002548
-0.002666
-0.002515
-0.002505
-0.002530
-0.002508
-0.002475
-0.002600
-0.002558
-0.002554
-0.002516
-0.002057
-0.002001
-0.001972
-0.001995
-0.002001
-0.002021
-0.002024
-0.001944
-0.001958
-0.001905
-0.001935
-0.001895
-0.001860
-0.001841
-0.001791
-0.001807
-0.001794
-0.001779
-0.002371
-0.002403
-0.002362
-0.002390
-0.002408
-0.002363
-0.002374
-0.002362
-0.002394
-0.002335
-0.002321
-0.001876
-0.001887
-0.001876
-0.001904
-0.002356
-0.002300
-0.002311
-0.002325
-0.002324
-0.002298
-0.002331
-0.002318
-0.002361
-0.002667
-0.002633
-0.002596
-0.002561
-0.002577
-0.002597
-0.002576
-0.001886
-0.001757
-0.001853
-0.001821
-0.002408
-0.002430
-0.002454
-0.002419
-0.001995
-0.001853
-0.002031
-0.001947
-0.001888
-0.001903
-0.001902
-0.001930
-0.001936
-0.001896
-0.002070
-0.002099
-0.002047
-0.002027
-0.002011
-0.002035
-0.002006
-0.001973
-0.001946
-0.001941
-0.001910
-0.001899
-0.001906
-0.001830
-0.001804
-0.001796
-0.001729
-0.001706
-0.001744
-0.001762
-0.001686
-0.001749
-0.002328
-0.002322
-0.002328
-0.002264
-0.002221
-0.002260
-0.002255
-0.002266
-0.002251
-0.002246
-0.002001
-0.002173
-0.002160
-0.002125
-0.002131
-0.002266
-0.002285
-0.002321
-0.002096
-0.002065
-0.002048
-0.002078
-0.002087
-0.002047
-0.002013
-0.002034
-0.001999
-0.001976
-0.001939
-0.001995
-0.001934
-0.001919
-0.001953
-0.001952
-0.001952
-0.001942
-0.001916
-0.001874
-0.001874
-0.001897
-0.001814
-0.001863
-0.001845
-0.001835
-0.001848
-0.001826
-0.001530
-0.001723
-0.001715
-0.001658
-0.001639
-0.001652
-0.001719
-0.001599
-0.001654
-0.001628
-0.001619
-0.001635
-0.001603
-0.001616
-0.001629
-0.001486
-0.001639
-0.001563
-0.001546
-0.001584
-0.001568
-0.001520
-0.001581
-0.001506
-0.001464
-0.001507
-0.001468
-0.001480
-0.001427
-0.001383
-0.001397
-0.001395
-0.001394
-0.001414
-0.001383
-0.001851
-0.001897
-0.001845
-0.001800
-0.001819
-0.000561
-0.000655
-0.000634
-0.001723
-0.001756
-0.001680
-0.001723
-0.001787
-0.001771
-0.001648
-0.001625
-0.001707
-0.001647
-0.001643
-0.001638
-0.001650
-0.001697
-0.001650
-0.001697
-0.001686
-0.001596
-0.001569
-0.001627
-0.001600
-0.001575
-0.001537
-0.001493
-0.001487
-0.001495
-0.001487
-0.001482
-0.001462
-0.001446
-0.001415
-0.001356
-0.001363
-0.001399
-0.001696
-0.001684
-0.001540
-0.001637
-0.001571
-0.001526
-0.001597
-0.002161
-0.002097
-0.002051
-0.001508
-0.001486
-0.001484
-0.001470
-0.001489
-0.001451
-0.001453
-0.001443
-0.001426
-0.001460
-0.001416
-0.001509
-0.001382
-0.000968
-0.000991
-0.001002
-0.001033
-0.000791
-0.000756
-0.001079
-0.001023
-0.001093
-0.001190
-0.001568
-0.001460
-0.001226
-0.001306
-0.001280
-0.001289
-0.001249
-0.001201
-0.001149
-0.001238
-0.001217
-0.001154
-0.001148
-0.001132
-0.001131
-0.001164
-0.001146
-0.001130
-0.001128
-0.001179
-0.001223
-0.001063
-0.001142
-0.001175
-0.001475
-0.001433
-0.001464
-0.001469
-0.001432
-0.001454
-0.001449
-0.001432
-0.001437
-0.001435
-0.001420
-0.001508
-0.001461
-0.001354
-0.001138
-0.001194
-0.001156
-0.001149
-0.001195
-0.001149
-0.001159
-0.001182
-0.001180
-0.001154
-0.001152
-0.001174
-0.001195
-0.001160
-0.001180
-0.001152
-0.001120
-0.001137
-0.001136
-0.001162
-0.001161
-0.001139
-0.001108
-0.001111
-0.001125
-0.001124
-0.001222
-0.001110
-0.001051
-0.001077
-0.001032
-0.000997
-0.001048
-0.001046
-0.001001
-0.000972
-0.000930
-0.001012
-0.001018
-0.000961
-0.000938
-0.000923
-0.000921
-0.000918
-0.000888
-0.000896
-0.000910
-0.000898
-0.000992
-0.000981
-0.000985
-0.000995
-0.000977
-0.000966
-0.000948
-0.000494
-0.000499
-0.000515
-0.000946
-0.000908
-0.000905
-0.000858
-0.000845
-0.000870
-0.000898
-0.000858
-0.000840
-0.000801
-0.000794
-0.000833
-0.000791
-0.000793
-0.000785
-0.000799
-0.000861
-0.000763
-0.000716
-0.000710
-0.000706
-0.000697
-0.000699
-0.000708
-0.000689
-0.000688
-0.000692
-0.000680
-0.000656
-0.000630
-0.000638
-0.000930
-0.000924
-0.000966
-0.000919
-0.000872
-0.000867
-0.000878
-0.000855
-0.000843
-0.000829
-0.000818
-0.001038
-0.001022
-0.001018
-0.000995
-0.001001
-0.000996
-0.000950
-0.000987
-0.001060
-0.001123
-0.001082
-0.000989
-0.000938
-0.000907
-0.000897
-0.000876
-0.000887
-0.000882
-0.000896
-0.000915
-0.000878
-0.000858
-0.000829
-0.000846
-0.000850
-0.000825
-0.000819
-0.000819
-0.000816
-0.000803
-0.000797
-0.000768
-0.000749
-0.000733
-0.000747
-0.000739
-0.000712
-0.000724
-0.000709
-0.000710
-0.000706
-0.000712
-0.000750
-0.000674
-0.000698
-0.000671
-0.000680
-0.000717
-0.000678
-0.000667
-0.000657
-0.000652
-0.000622
-0.000615
-0.000597
-0.000563
-0.000568
-0.000572
-0.000581
-0.000589
-0.000600
-0.000609
-0.000618
-0.000627
-0.000635
-0.000644
-0.000652
-0.000660
-0.000668
-0.000676
-0.000683
-0.000690
-0.000696
-0.000702
-0.000708
-0.000714
-0.000720
-0.000725
-0.000731
-0.000735
-0.000740
-0.000745
-0.000750
-0.000755
-0.000759
-0.000763
-0.000767
-0.000771
-0.000775
-0.000779
-0.000782
-0.000786
-0.000790
-0.000793
-0.000796
-0.000800
-0.000803
-0.000806
-0.000809
-0.000813
-0.000817
-0.000820
-0.000824
-0.000827
-0.000830
-0.000833
-0.000836
-0.000839
-0.000842
-0.000844
-0.000847
-0.000849
-0.000852
-0.000854
-0.000856
-0.000859
-0.000861
-0.000863
-0.000865
-0.000867
-0.000869
-0.000871
-0.000873
-0.000875
-0.000877
-0.000879
-0.000881
-0.000883
-0.000885
-0.000886
-0.000888
-0.000890
-0.000892
-0.000893
-0.000895
-0.000897
-0.000898
-0.000900
-0.000902
-0.000903
-0.000905
-0.000906
-0.000908
-0.000909
-0.000911
-0.000913
-0.000914
-0.000916
-0.000917
-0.000919
-0.000920
-0.000922
-0.000923
-0.000925
-0.000926
-0.000927
-0.000929
-0.000930
-0.000932
-0.000933
-0.000935
-0.000936
-0.000938
-0.000939
-0.000940
-0.000942
-0.000943
-0.000945
-0.000946
-0.000947
-0.000949
-0.000950
-0.000952
-0.000953
-0.000955
-0.000956
-0.000957
-0.000959
-0.000960
-0.000961
-0.000963
-0.000964
-0.000966
-0.000967
-0.000968
-0.000970
-0.000971
-0.000973
-0.000974
-0.000975
-0.000977
-0.000978
-0.000980
-0.000981
-0.000982
-0.000984
-0.000985
-0.000986
-0.000988
-0.000989
-0.000991
-0.000992
-0.000993
-0.000995
-0.000996
-0.000997
-0.000999
-0.001000
-0.001002
-0.001003
-0.001004
-0.001006
-0.001007
-0.001008
-0.001010
-0.001011
-0.001012
-0.001014
-0.001015
-0.001017
-0.001018
-0.001019
-0.001021
-0.001022
-0.001023
-0.001025
-0.001026
-0.001027
-0.001029
-0.001030
-0.001031
-0.001033
-0.001034
-0.001035
-0.001037
-0.001038
-0.001039
-0.001040
-0.001042
-0.001043
-0.001044
-0.001046
-0.001047
-0.001048
-0.001049
-0.001051
-0.001052
-0.001053
-0.001054
-0.001056
-0.001057
-0.001058
-0.001059
-0.001061
-0.001062
-0.001063
-0.001064
-0.001065
-0.001067
-0.001068
-0.001069
-0.001070
-0.001071
-0.001072
-0.001073
-0.001075
-0.001076
-0.001077
-0.001078
-0.001079
-0.001080
-0.001081
-0.001082
-0.001083
-0.001084
-0.001085
-0.001086
-0.001087
-0.001088
-0.001089
-0.001090
-0.001091
-0.001092
-0.001093
-0.001094
-0.001095
-0.001096
-0.001097
-0.001098
-0.001099
-0.001099
-0.001100
-0.001101
-0.001102
-0.001103
-0.001104
-0.001104
-0.001105
-0.001106
-0.001107
-0.001107
-0.001108
-0.001109
-0.001109
-0.001110
-0.001111
-0.001111
-0.001112
-0.001113
-0.001113
-0.001114
-0.001114
-0.001115
-0.001115
-0.001116
-0.001116
-0.001117
-0.001117
-0.001118
-0.001118
-0.001118
-0.001119
-0.001119
-0.001120
-0.001120
-0.001120
-0.001120
-0.001121
-0.001121
-0.001121
-0.001121
-0.001122
-0.001122
-0.001122
-0.001122
-0.001122
-0.001122
-0.001122
-0.001122
-0.001122
-0.001122
-0.001122
-0.001122
-0.001122
-0.001122
-0.001122
-0.001122
-0.001122
-0.001122
-0.001122
-0.001122
-0.001121
-0.001121
-0.001121
-0.001121
-0.001120
-0.001120
-0.001120
-0.001119
-0.001119
-0.001119
-0.001118
-0.001118
-0.001117
-0.001117
-0.001116
-0.001116
-0.001115
-0.001115
-0.001114
-0.001114
-0.001113
-0.001112
-0.001112
-0.001111
-0.001110
-0.001109
-0.001109
-0.001108
-0.001107
-0.001106
-0.001106
-0.001105
-0.001104
-0.001103
-0.001102
-0.001101
-0.001100
-0.001099
-0.001098
-0.001097
-0.001096
-0.001095
-0.001094
-0.001093
-0.001092
-0.001090
-0.001089
-0.001088
-0.001087
-0.001086
-0.001084
-0.001083
-0.001082
-0.001081
-0.001079
-0.001078
-0.001077
-0.001013
-0.001023
-0.001033
-0.000949
-0.000935
-0.000941
-0.006024
-0.006087
-0.006148
-0.006239
-0.004165
-0.001122
-0.001101
-0.001115
-0.001099
-0.001048
-0.001064
-0.001049
-0.004130
-0.003926
-0.004741
-0.004186
-0.006216
-0.006228
-0.005459
-0.005273
-0.004523
-0.003810
-0.004122
-0.002881
-0.002971
-0.002884
-0.002937
-0.005147
-0.005146
-0.005417
-0.005431
-0.002383
-0.002825
-0.002302
-0.003063
-0.005334
-0.005378
-0.005326
-0.005360
-0.001508
-0.001576
-0.001552
-0.001511
-0.006625
-0.006372
-0.005503
-0.003251
-0.003232
-0.003205
-0.003143
-0.003610
-0.003802
-0.003773
-0.003930
-0.003930
-0.003897
-0.003899
-0.005910
-0.005847
-0.005877
-0.004573
-0.004597
-0.004645
-0.004663
-0.001477
-0.001421
-0.001471
-0.001398
-0.004562
-0.004537
-0.004547
-0.004512
-0.003334
-0.003323
-0.003396
-0.003223
-0.003281
-0.003289
-0.003381
-0.003101
-0.004750
-0.004804
-0.004814
-0.004858
-0.001064
-0.001085
-0.001082
-0.005561
-0.005614
-0.005528
-0.003917
-0.001125
-0.001154
-0.001130
-0.001131
-0.002482
-0.002267
-0.002492
-0.004358
-0.004381
-0.004407
-0.002057
-0.003511
-0.003519
-0.003545
-0.004319
-0.002398
-0.002435
-0.002459
-0.001184
-0.001185
-0.001218
-0.001197
-0.001475
-0.001456
-0.002029
-0.001642
-0.002475
-0.006358
-0.006610
-0.006416
-0.001155
-0.001153
-0.001136
-0.006604
-0.006006
-0.006140
-0.006119
-0.006008
-0.005892
-0.005901
-0.005950
-0.005938
-0.005216
-0.005291
-0.005221
-0.003990
-0.003977
-0.004001
-0.003990
-0.005267
-0.002596
-0.002574
-0.002694
-0.005716
-0.005773
-0.005654
-0.006019
-0.006038
-0.006050
-0.002640
-0.001184
-0.001202
-0.001212
-0.005492
-0.004655
-0.004626
-0.001075
-0.001050
-0.001064
-0.001055
-0.002089
-0.002112
-0.002114
-0.002146
-0.004175
-0.004260
-0.004215
-0.004264
-0.002561
-0.002483
-0.002581
-0.002456
-0.006551
-0.006559
-0.006602
-0.006500
-0.001128
-0.001128
-0.007467
-0.007447
-0.007437
-0.007414
-0.005618
-0.005665
-0.005538
-0.005802
-0.001142
-0.001126
-0.001120
-0.005819
-0.005633
-0.006780
-0.006801
-0.006761
-0.001190
-0.001222
-0.001221
-0.003054
-0.003035
-0.002941
-0.002893
-0.004393
-0.004412
-0.004403
-0.007150
-0.007162
-0.007250
-0.007206
-0.001170
-0.001174
-0.001142
-0.001208
-0.001165
-0.001137
-0.001142
-0.001248
-0.002119
-0.002124
-0.002158
-0.002151
-0.004595
-0.004421
-0.004418
-0.004565
-0.004871
-0.004830
-0.004926
-0.001174
-0.001202
-0.001219
-0.001244
-0.005206
-0.005159
-0.005240
-0.005162
-0.001848
-0.001999
-0.002128
-0.003618
-0.003450
-0.003321
-0.003647
-0.007074
-0.007092
-0.007060
-0.007116
-0.001137
-0.001136
-0.002821
-0.002429
-0.002259
-0.001769
-0.004208
-0.004205
-0.004153
-0.004168
-0.005681
-0.005790
-0.005660
-0.005816
-0.005320
-0.005409
-0.005456
-0.005242
-0.004826
-0.004811
-0.004841
-0.004836
-0.006023
-0.006035
-0.005976
-0.005982
-0.001216
-0.001176
-0.001184
-0.001189
-0.004872
-0.004092
-0.004072
-0.007420
-0.007499
-0.007459
-0.007399
-0.005026
-0.005785
-0.005490
-0.003882
-0.003376
-0.005510
-0.005474
-0.005525
-0.005464
-0.002147
-0.002261
-0.002245
-0.002362
-0.003702
-0.003435
-0.003594
-0.003422
-0.001738
-0.001783
-0.001816
-0.001874
-0.001391
-0.001494
-0.001401
-0.001469
-0.005854
-0.005833
-0.005868
-0.005858
-0.005468
-0.005339
-0.005325
-0.005472
-0.001478
-0.001433
-0.001510
-0.001402
-0.001553
-0.001501
-0.001407
-0.004538
-0.004376
-0.004441
-0.004419
-0.001246
-0.001274
-0.001214
-0.001105
-0.004983
-0.005021
-0.005042
-0.004960
-0.001088
-0.001102
-0.001115
-0.001131
-0.003677
-0.003633
-0.003707
-0.003652
-0.002423
-0.002325
-0.004858
-0.004844
-0.004816
-0.004813
-0.004058
-0.004119
-0.004028
-0.004157
-0.003859
-0.003304
-0.003574
-0.001138
-0.001162
-0.001145
-0.006548
-0.006555
-0.006525
-0.006520
-0.002905
-0.005944
-0.005877
-0.005885
-0.001322
-0.001256
-0.001266
-0.001221
-0.001036
-0.001038
-0.001055
-0.001055
-0.002441
-0.002448
-0.002487
-0.002387
-0.002827
-0.002899
-0.002897
-0.002864
-0.002819
-0.002701
-0.002085
-0.002150
-0.002138
-0.004357
-0.004375
-0.004071
-0.003262
-0.003211
-0.003013
-0.003863
-0.001851
-0.001871
-0.001939
-0.001922
-0.001896
-0.001892
-0.001918
-0.001175
-0.001196
-0.001207
-0.005428
-0.005297
-0.001169
-0.000964
-0.000988
-0.000984
-0.001008
-0.004409
-0.004441
-0.004892
-0.001315
-0.003466
-0.003457
-0.003489
-0.003485
-0.006881
-0.006840
-0.006837
-0.006799
-0.002579
-0.002866
-0.002922
-0.002460
-0.006126
-0.006092
-0.006138
-0.006103
-0.006032
-0.006131
-0.006001
-0.006120
-0.000967
-0.000941
-0.000909
-0.006255
-0.006241
-0.006286
-0.002927
-0.002879
-0.002945
-0.002932
-0.001063
-0.000937
-0.000941