# vtk DataFile Version 2.0
Test
ASCII
DATASET POLYDATA
POINTS 20431 float
0.000000 0.000000 0.000000
2.000000 0.000000 0.000000
2.000000 4.000000 0.000000
0.000000 4.000000 0.000000
0.000000 0.500000 0.000000
1.500000 2.000000 0.000000
2.000000 2.500000 0.000000
0.400000 0.000000 0.000000
0.800000 0.000000 0.000000
1.200000 0.000000 0.000000
1.600000 0.000000 0.000000
2.000000 0.362557 0.000000
2.000000 0.672798 0.000000
2.000000 0.938272 0.000000
2.000000 1.165439 0.000000
2.000000 1.359826 0.000000
2.000000 1.526163 0.000000
2.000000 1.668499 0.000000
2.000000 1.790295 0.000000
2.000000 1.894517 0.000000
2.000000 1.983700 0.000000
2.000000 2.060013 0.000000
2.000000 2.125315 0.000000
2.000000 2.181194 0.000000
2.000000 2.229010 0.000000
2.000000 2.269926 0.000000
2.000000 2.304938 0.000000
2.000000 2.334898 0.000000
2.000000 2.360534 0.000000
2.000000 2.382472 0.000000
2.000000 2.401244 0.000000
2.000000 2.417307 0.000000
2.000000 2.431052 0.000000
2.000000 2.442814 0.000000
2.000000 2.452878 0.000000
2.000000 2.461491 0.000000
2.000000 2.468860 0.000000
2.000000 2.475167 0.000000
2.000000 2.480563 0.000000
2.000000 2.485180 0.000000
2.000000 2.489132 0.000000
2.000000 2.492513 0.000000
2.000000 2.495406 0.000000
2.000000 2.497882 0.000000
2.000000 2.502286 0.000000
2.000000 2.505266 0.000000
2.000000 2.509150 0.000000
2.000000 2.514212 0.000000
2.000000 2.520809 0.000000
2.000000 2.529407 0.000000
2.000000 2.540613 0.000000
2.000000 2.555218 0.000000
2.000000 2.574253 0.000000
2.000000 2.599061 0.000000
2.000000 2.631395 0.000000
2.000000 2.673536 0.000000
2.000000 2.728460 0.000000
2.000000 2.800043 0.000000
2.000000 2.893339 0.000000
2.000000 3.014933 0.000000
2.000000 3.173410 0.000000
2.000000 3.379956 0.000000
2.000000 3.649152 0.000000
1.600000 4.000000 0.000000
1.200000 4.000000 0.000000
0.800000 4.000000 0.000000
0.400000 4.000000 0.000000
0.000000 3.624996 0.000000
0.000000 3.289970 0.000000
0.000000 2.990661 0.000000
0.000000 2.723261 0.000000
0.000000 2.484368 0.000000
0.000000 2.270943 0.000000
0.000000 2.080271 0.000000
0.000000 1.909926 0.000000
0.000000 1.757741 0.000000
0.000000 1.621780 0.000000
0.000000 1.500314 0.000000
0.000000 1.391797 0.000000
0.000000 1.294849 0.000000
0.000000 1.208237 0.000000
0.000000 1.130858 0.000000
0.000000 1.061728 0.000000
0.000000 0.999968 0.000000
0.000000 0.944792 0.000000
0.000000 0.895499 0.000000
0.000000 0.851460 0.000000
0.000000 0.812117 0.000000
0.000000 0.776968 0.000000
0.000000 0.745565 0.000000
0.000000 0.717511 0.000000
0.000000 0.692448 0.000000
0.000000 0.670056 0.000000
0.000000 0.650052 0.000000
0.000000 0.632180 0.000000
0.000000 0.616213 0.000000
0.000000 0.601949 0.000000
0.000000 0.589205 0.000000
0.000000 0.577820 0.000000
0.000000 0.567649 0.000000
0.000000 0.558562 0.000000
0.000000 0.550444 0.000000
0.000000 0.543191 0.000000
0.000000 0.536712 0.000000
0.000000 0.530923 0.000000
0.000000 0.525751 0.000000
0.000000 0.521131 0.000000
0.000000 0.517003 0.000000
0.000000 0.513315 0.000000
0.000000 0.510021 0.000000
0.000000 0.507078 0.000000
0.000000 0.504448 0.000000
0.000000 0.502099 0.000000
0.000000 0.497804 0.000000
0.000000 0.494785 0.000000
0.000000 0.490633 0.000000
0.000000 0.484924 0.000000
0.000000 0.477074 0.000000
0.000000 0.466279 0.000000
0.000000 0.451436 0.000000
0.000000 0.431025 0.000000
0.000000 0.402959 0.000000
0.000000 0.364366 0.000000
0.000000 0.311297 0.000000
0.000000 0.238324 0.000000
0.000000 0.137980 0.000000
0.001414 0.501414 0.000000
0.002828 0.502828 0.000000
0.004241 0.504241 0.000000
0.005655 0.505655 0.000000
0.007069 0.507069 0.000000
0.008483 0.508483 0.000000
0.009896 0.509896 0.000000
0.011310 0.511310 0.000000
0.012724 0.512724 0.000000
0.014138 0.514138 0.000000
0.015551 0.515551 0.000000
0.016965 0.516965 0.000000
0.018379 0.518379 0.000000
0.019793 0.519793 0.000000
0.021206 0.521206 0.000000
0.022620 0.522620 0.000000
0.024034 0.524034 0.000000
0.025448 0.525448 0.000000
0.026861 0.526861 0.000000
0.028275 0.528275 0.000000
0.029689 0.529689 0.000000
0.031103 0.531103 0.000000
0.032516 0.532516 0.000000
0.033930 0.533930 0.000000
0.035344 0.535344 0.000000
0.036758 0.536758 0.000000
0.038172 0.538172 0.000000
0.039585 0.539585 0.000000
0.040999 0.540999 0.000000
0.042413 0.542413 0.000000
0.043827 0.543827 0.000000
0.045240 0.545240 0.000000
0.046654 0.546654 0.000000
0.048068 0.548068 0.000000
0.049482 0.549482 0.000000
0.050895 0.550895 0.000000
0.052309 0.552309 0.000000
0.053723 0.553723 0.000000
0.055137 0.555137 0.000000
0.056550 0.556550 0.000000
0.057964 0.557964 0.000000
0.059378 0.559378 0.000000
0.060792 0.560792 0.000000
0.062205 0.562205 0.000000
0.063619 0.563619 0.000000
0.065033 0.565033 0.000000
0.066447 0.566447 0.000000
0.067861 0.567861 0.000000
0.069274 0.569274 0.000000
0.070688 0.570688 0.000000
0.072102 0.572102 0.000000
0.073516 0.573516 0.000000
0.074929 0.574929 0.000000
0.076343 0.576343 0.000000
0.077757 0.577757 0.000000
0.079171 0.579171 0.000000
0.080584 0.580584 0.000000
0.081998 0.581998 0.000000
0.083412 0.583412 0.000000
0.084826 0.584826 0.000000
0.086239 0.586239 0.000000
0.087653 0.587653 0.000000
0.089067 0.589067 0.000000
0.090481 0.590481 0.000000
0.091894 0.591894 0.000000
0.093308 0.593308 0.000000
0.094722 0.594722 0.000000
0.096136 0.596136 0.000000
0.097549 0.597549 0.000000
0.098963 0.598963 0.000000
0.100377 0.600377 0.000000
0.101791 0.601791 0.000000
0.103205 0.603205 0.000000
0.104618 0.604618 0.000000
0.106032 0.606032 0.000000
0.107446 0.607446 0.000000
0.108860 0.608860 0.000000
0.110273 0.610273 0.000000
0.111687 0.611687 0.000000
0.113101 0.613101 0.000000
0.114515 0.614515 0.000000
0.115928 0.615928 0.000000
0.117342 0.617342 0.000000
0.118756 0.618756 0.000000
0.120170 0.620170 0.000000
0.121583 0.621583 0.000000
0.122997 0.622997 0.000000
0.124411 0.624411 0.000000
0.125825 0.625825 0.000000
0.127238 0.627238 0.000000
0.128652 0.628652 0.000000
0.130066 0.630066 0.000000
0.131480 0.631480 0.000000
0.132893 0.632893 0.000000
0.134307 0.634307 0.000000
0.135721 0.635721 0.000000
0.137135 0.637135 0.000000
0.138549 0.638549 0.000000
0.139962 0.639962 0.000000
0.141376 0.641376 0.000000
0.142790 0.642790 0.000000
0.144204 0.644204 0.000000
0.145617 0.645617 0.000000
0.147031 0.647031 0.000000
0.148445 0.648445 0.000000
0.149859 0.649859 0.000000
0.151272 0.651272 0.000000
0.152686 0.652686 0.000000
0.154100 0.654100 0.000000
0.155514 0.655514 0.000000
0.156927 0.656927 0.000000
0.158341 0.658341 0.000000
0.159755 0.659755 0.000000
0.161169 0.661169 0.000000
0.162582 0.662582 0.000000
0.163996 0.663996 0.000000
0.165410 0.665410 0.000000
0.166824 0.666824 0.000000
0.168238 0.668238 0.000000
0.169651 0.669651 0.000000
0.171065 0.671065 0.000000
0.172479 0.672479 0.000000
0.173893 0.673893 0.000000
0.175306 0.675306 0.000000
0.176720 0.676720 0.000000
0.178134 0.678134 0.000000
0.179548 0.679548 0.000000
0.180961 0.680961 0.000000
0.182375 0.682375 0.000000
0.183789 0.683789 0.000000
0.185203 0.685203 0.000000
0.186616 0.686616 0.000000
0.188030 0.688030 0.000000
0.189444 0.689444 0.000000
0.190858 0.690858 0.000000
0.192271 0.692271 0.000000
0.193685 0.693685 0.000000
0.195099 0.695099 0.000000
0.196513 0.696513 0.000000
0.197926 0.697926 0.000000
0.199340 0.699340 0.000000
0.200754 0.700754 0.000000
0.202168 0.702168 0.000000
0.203582 0.703582 0.000000
0.204995 0.704995 0.000000
0.206409 0.706409 0.000000
0.207823 0.707823 0.000000
0.209237 0.709237 0.000000
0.210650 0.710650 0.000000
0.212064 0.712064 0.000000
0.213478 0.713478 0.000000
0.214892 0.714892 0.000000
0.216305 0.716305 0.000000
0.217719 0.717719 0.000000
0.219133 0.719133 0.000000
0.220547 0.720547 0.000000
0.221960 0.721960 0.000000
0.223374 0.723374 0.000000
0.224788 0.724788 0.000000
0.226202 0.726202 0.000000
0.227615 0.727615 0.000000
0.229029 0.729029 0.000000
0.230443 0.730443 0.000000
0.231857 0.731857 0.000000
0.233270 0.733270 0.000000
0.234684 0.734684 0.000000
0.236098 0.736098 0.000000
0.237512 0.737512 0.000000
0.238926 0.738926 0.000000
0.240339 0.740339 0.000000
0.241753 0.741753 0.000000
0.243167 0.743167 0.000000
0.244581 0.744581 0.000000
0.245994 0.745994 0.000000
0.247408 0.747408 0.000000
0.248822 0.748822 0.000000
0.250236 0.750236 0.000000
0.251649 0.751649 0.000000
0.253063 0.753063 0.000000
0.254477 0.754477 0.000000
0.255891 0.755891 0.000000
0.257304 0.757304 0.000000
0.258718 0.758718 0.000000
0.260132 0.760132 0.000000
0.261546 0.761546 0.000000
0.262959 0.762959 0.000000
0.264373 0.764373 0.000000
0.265787 0.765787 0.000000
0.267201 0.767201 0.000000
0.268615 0.768615 0.000000
0.270028 0.770028 0.000000
0.271442 0.771442 0.000000
0.272856 0.772856 0.000000
0.274270 0.774270 0.000000
0.275683 0.775683 0.000000
0.277097 0.777097 0.000000
0.278511 0.778511 0.000000
0.279925 0.779925 0.000000
0.281338 0.781338 0.000000
0.282752 0.782752 0.000000
0.284166 0.784166 0.000000
0.285580 0.785580 0.000000
0.286993 0.786993 0.000000
0.288407 0.788407 0.000000
0.289821 0.789821 0.000000
0.291235 0.791235 0.000000
0.292648 0.792648 0.000000
0.294062 0.794062 0.000000
0.295476 0.795476 0.000000
0.296890 0.796890 0.000000
0.298303 0.798303 0.000000
0.299717 0.799717 0.000000
0.301131 0.801131 0.000000
0.302545 0.802545 0.000000
0.303959 0.803959 0.000000
0.305372 0.805372 0.000000
0.306786 0.806786 0.000000
0.308200 0.808200 0.000000
0.309614 0.809614 0.000000
0.311027 0.811027 0.000000
0.312441 0.812441 0.000000
0.313855 0.813855 0.000000
0.315269 0.815269 0.000000
0.316682 0.816682 0.000000
0.318096 0.818096 0.000000
0.319510 0.819510 0.000000
0.320924 0.820924 0.000000
0.322337 0.822337 0.000000
0.323751 0.823751 0.000000
0.325165 0.825165 0.000000
0.326579 0.826579 0.000000
0.327992 0.827992 0.000000
0.329406 0.829406 0.000000
0.330820 0.830820 0.000000
0.332234 0.832234 0.000000
0.333648 0.833648 0.000000
0.335061 0.835061 0.000000
0.336475 0.836475 0.000000
0.337889 0.837889 0.000000
0.339303 0.839303 0.000000
0.340716 0.840716 0.000000
[...]
POINT_DATA 20431
SCALARS UX float 1
LOOKUP_TABLE default
-0.000000
0.000000
-0.002300
-0.007193
-0.002633
-0.000614
-0.001108
-0.000000
-0.000000
0.000000
-0.000000
0.001833
0.002462
0.002768
0.002910
0.002951
0.002883
0.002691
0.002369
0.001949
0.001468
0.001010
0.000606
0.000271
0.000000
-0.000214
-0.000383
-0.000519
-0.000627
-0.000715
-0.000786
-0.000844
-0.000892
-0.000932
-0.000964
-0.000992
-0.001015
-0.001035
-0.001051
-0.001065
-0.001076
-0.001086
-0.001095
-0.001102
-0.001114
-0.001123
-0.001134
-0.001148
-0.001166
-0.001189
-0.001218
-0.001254
-0.001301
-0.001356
-0.001423
-0.001504
-0.001598
-0.001703
-0.001820
-0.001942
-0.002058
-0.002179
-0.002262
-0.003418
-0.004456
-0.005402
-0.006300
-0.007111
-0.006943
-0.006717
-0.006497
-0.006336
-0.006251
-0.006252
-0.006318
-0.006434
-0.006567
-0.006705
-0.006835
-0.006950
-0.007049
-0.007128
-0.007192
-0.007241
-0.007278
-0.007305
-0.007323
-0.007334
-0.007339
-0.007338
-0.007334
-0.007328
-0.007320
-0.007309
-0.007297
-0.007283
-0.007269
-0.007255
-0.007231
-0.007196
-0.007151
-0.007106
-0.007063
-0.007058
-0.007032
-0.006972
-0.006884
-0.006850
-0.006810
-0.006635
-0.006420
-0.006206
-0.008813
-0.002271
-0.002087
-0.001972
-0.001902
-0.001834
-0.001782
-0.001727
-0.001670
-0.001608
-0.001526
-0.001399
-0.001196
-0.000823
-0.003114
-0.003012
-0.003036
-0.003112
-0.003078
-0.002992
-0.002861
-0.002845
-0.002857
-0.002898
-0.002942
-0.002943
-0.003537
-0.003727
-0.003945
-0.003665
-0.003790
-0.003802
-0.003812
-0.003765
-0.003758
-0.003888
-0.003817
-0.003523
-0.003665
-0.003673
-0.003755
-0.003736
-0.003816
-0.003804
-0.003601
-0.003627
-0.003413
-0.003525
-0.003611
-0.003455
-0.003638
-0.003508
-0.003534
-0.003519
-0.003484
-0.003587
-0.003838
-0.003665
-0.003650
-0.003649
-0.003582
-0.003570
-0.003551
-0.003621
-0.003626
-0.003552
-0.003520
-0.003524
-0.003296
-0.003434
-0.003472
-0.003409
-0.003422
-0.003408
-0.003460
-0.003437
-0.003434
-0.003455
-0.003430
-0.003406
-0.003399
-0.003408
-0.003703
-0.003700
-0.003677
-0.003706
-0.003741
-0.003501
-0.003747
-0.004385
-0.004110
-0.004046
-0.003995
-0.004008
-0.003976
-0.003953
-0.003980
-0.003376
-0.003363
-0.003285
-0.003304
-0.003327
-0.003216
-0.003862
-0.003901
-0.003920
-0.003907
-0.003877
-0.003742
-0.003712
-0.003813
-0.003728
-0.003737
-0.003723
-0.003730
-0.003902
-0.003914
-0.003905
-0.003859
-0.003885
-0.003871
-0.003845
-0.003885
-0.003781
-0.003794
-0.003834
-0.003875
-0.003824
-0.003809
-0.003770
-0.003788
-0.003746
-0.003779
-0.003712
-0.003760
-0.003756
-0.003802
-0.003755
-0.003718
-0.003678
-0.003693
-0.003649
-0.003631
-0.003670
-0.003600
-0.003573
-0.003630
-0.003607
-0.003649
-0.003634
-0.003611
-0.003608
-0.003474
-0.003575
-0.003592
-0.003636
-0.003629
-0.003587
-0.003558
-0.003580
-0.003541
-0.003601
-0.003569
-0.004701
-0.004628
-0.004550
-0.004274
-0.004311
-0.004333
-0.004332
-0.004317
-0.003311
-0.003296
-0.003666
-0.003677
-0.003661
-0.003600
-0.003607
-0.003586
-0.003523
-0.003026
-0.002933
-0.003015
-0.002988
-0.002970
-0.002988
-0.003009
-0.002955
-0.004100
-0.004077
-0.004093
-0.004069
-0.004096
-0.004117
-0.004103
-0.004093
-0.004532
-0.004571
-0.004524
-0.004331
-0.004360
-0.004339
-0.004346
-0.004345
-0.004339
-0.004340
-0.004344
-0.004307
-0.004288
-0.004312
-0.004338
-0.004317
-0.004276
-0.004284
-0.004247
-0.004288
-0.004253
-0.004221
-0.004215
-0.004267
-0.004216
-0.004231
-0.004235
-0.004212
-0.004191
-0.004229
-0.004228
-0.004229
-0.004229
-0.003668
-0.003638
-0.004005
-0.003983
-0.003920
-0.003925
-0.004013
-0.003958
-0.003930
-0.003948
-0.004208
-0.003752
-0.003723
-0.003875
-0.003832
-0.003866
-0.003819
-0.003801
-0.003809
-0.003886
-0.003819
-0.003870
-0.003813
-0.003866
-0.003775
-0.003805
-0.003714
-0.003669
-0.003639
-0.003866
-0.003838
-0.003353
-0.003585
-0.003509
-0.003586
-0.003170
-0.003114
-0.003089
-0.003132
-0.003250
-0.003181
-0.003139
-0.003185
-0.003161
-0.003135
-0.003123
-0.003623
-0.003590
-0.003535
-0.003583
-0.003524
-0.003470
-0.003531
-0.003366
-0.003398
-0.003383
-0.003365
-0.003405
-0.003363
-0.003338
-0.003396
-0.003414
-0.003416
-0.003363
-0.003333
-0.003465
-0.003544
-0.003495
-0.003546
-0.003521
-0.003514
-0.003559
-0.003550
-0.003482
-0.003491
-0.003492
-0.003536
-0.003451
-0.003534
-0.003551
-0.003515
-0.003537
-0.003549
-0.003497
-0.003534
-0.003527
-0.003522
-0.003554
-0.003555
-0.003539
-0.003530
-0.003496
-0.003484
-0.003600
-0.003373
-0.003468
-0.003444
-0.003379
-0.003412
-0.003412
-0.003412
-0.003444
-0.003545
-0.003518
-0.003497
-0.003568
-0.003574
-0.003610
-0.003537
-0.003616
-0.003670
-0.003569
-0.003560
-0.003561
-0.003577
-0.003527
-0.003471
-0.003546
-0.003555
-0.003559
-0.003529
-0.003551
-0.003601
-0.003563
-0.003551
-0.003609
-0.003564
-0.003586
-0.003505
-0.003527
-0.003592
-0.003601
-0.003577
-0.003544
-0.003554
-0.003520
-0.003553
-0.003554
-0.003454
-0.003457
-0.003472
-0.003410
-0.003322
-0.003302
-0.003305
-0.003344
-0.003232
-0.003230
-0.003249
-0.003224
-0.003176
-0.003085
-0.003655
-0.003188
-0.003065
-0.003043
-0.003046
-0.003059
-0.003029
-0.003092
-0.003078
-0.003050
-0.003039
-0.003062
-0.003013
-0.002979
-0.002987
-0.002987
-0.002972
-0.002960
-0.002941
-0.003011
-0.003011
-0.003078
-0.003048
-0.003034
-0.003040
-0.003026
-0.003028
-0.002997
-0.003003
-0.003011
-0.002984
-0.002959
-0.002947
-0.002973
-0.002954
-0.002971
-0.002996
-0.002988
-0.003010
-0.003043
-0.003024
-0.003021
-0.002937
-0.003019
-0.002995
-0.003012
-0.003025
-0.002990
-0.002964
-0.002997
-0.003002
-0.002943
-0.003053
-0.003052
-0.003046
-0.003116
-0.003025
-0.003009
-0.002928
-0.002747
-0.002794
-0.002844
-0.002836
-0.002742
-0.002637
-0.002616
-0.003620
-0.003654
-0.003610
-0.003635
-0.003598
-0.003561
-0.003562
-0.003565
-0.003222
-0.003250
-0.003260
-0.003223
-0.003164
-0.003180
-0.003143
-0.003115
-0.003148
-0.003131
-0.003098
-0.003078
-0.003079
-0.003073
-0.003093
-0.003103
-0.003145
-0.003157
-0.003335
-0.003345
-0.003323
-0.003345
-0.003337
-0.003317
-0.003323
-0.003266
-0.003283
-0.003397
-0.003411
-0.003418
-0.003344
-0.003346
-0.003425
-0.003437
-0.003409
-0.003419
-0.003419
-0.003413
-0.003453
-0.003453
-0.003415
-0.003423
-0.003472
-0.002577
-0.002607
-0.002580
-0.002549
-0.002526
-0.002522
-0.002531
-0.002480
-0.002320
-0.002533
-0.002484
-0.002483
-0.002510
-0.002526
-0.002559
-0.002544
-0.002541
-0.002527
-0.002520
-0.002480
-0.002443
-0.002812
-0.002778
-0.002784
-0.002774
-0.002780
-0.002770
-0.002761
-0.002754
-0.002785
-0.002763
-0.002743
-0.002750
-0.002739
-0.002719
-0.002761
-0.002732
-0.002724
-0.002725
-0.002678
-0.002693
-0.002644
-0.002635
-0.002644
-0.002607
-0.002614
-0.002586
-0.002640
-0.002677
-0.002690
-0.002656
-0.002734
-0.002712
-0.002682
-0.002640
-0.002657
-0.002755
-0.002730
-0.002784
-0.002697
-0.002674
-0.002688
-0.002677
-0.002647
-0.002927
-0.003001
-0.002993
-0.002577
-0.002561
-0.002480
-0.002456
-0.002468
-0.002478
-0.002472
-0.002517
-0.002442
-0.002385
-0.002389
-0.002387
-0.002388
-0.002418
-0.002419
-0.002407
-0.002427
-0.002360
-0.002322
-0.002321
-0.002327
-0.002300
-0.001734
-0.002423
-0.002317
-0.002310
-0.002369
-0.002432
-0.002362
-0.002375
-0.002420
-0.002466
-0.002450
-0.002478
-0.002446
-0.002425
-0.002489
-0.002626
-0.002625
-0.002643
-0.002639
-0.002638
-0.002644
-0.002615
-0.002635
-0.002669
-0.002648
-0.002628
-0.002656
-0.002616
-0.002569
-0.002552
-0.002543
-0.002537
-0.002513
-0.002522
-0.002529
-0.002515
-0.002450
-0.002400
-0.002411
-0.002381
-0.002386
-0.002347
-0.002289
-0.002388
-0.002311
-0.002212
-0.002282
-0.002222
-0.002137
-0.002137
-0.002166
-0.002140
-0.002099
-0.002123
-0.002145
-0.002149
-0.002103
-0.002024
-0.002076
-0.002091
-0.002060
-0.002076
-0.002071
-0.001986
-0.001982
-0.002027
-0.001978
-0.001921
-0.002026
-0.002011
-0.001965
-0.002139
-0.001830
-0.001816
-0.001787
-0.002634
-0.002647
-0.002655
-0.002651
-0.001635
-0.001639
-0.001617
-0.001597
-0.001597
-0.001652
-0.001602
-0.002645
-0.002606
-0.002631
-0.002635
-0.002615
-0.002615
-0.001986
-0.001904
-0.001847
-0.002029
-0.002008
-0.001990
-0.001888
-0.002019
-0.002065
-0.002075
-0.002071
-0.002026
-0.001943
-0.001756
-0.000903
-0.002056
-0.002054
-0.002031
-0.002043
-0.002020
-0.002015
-0.002046
-0.002021
-0.002008
-0.002032
-0.002079
-0.002029
-0.002001
-0.002016
-0.002044
-0.002476
-0.002481
-0.002429
-0.002239
-0.002225
-0.002237
-0.002182
-0.002088
-0.002106
-0.002084
-0.002120
-0.002037
-0.001839
-0.001965
-0.001939
-0.001929
-0.002245
-0.001985
-0.002454
-0.002431
-0.002429
-0.001908
-0.001918
-0.001922
-0.001883
-0.001861
-0.001866
-0.001855
-0.001836
-0.001876
-0.001754
-0.001829
-0.001785
-0.001757
-0.001757
-0.001789
-0.001838
-0.001779
-0.001705
-0.001712
-0.001714
-0.001749
-0.001740
-0.001744
-0.001725
-0.001736
-0.001763
-0.001651
-0.001649
-0.001675
-0.001676
-0.001648
-0.001669
-0.001621
-0.001639
-0.001621
-0.001637
-0.001642
-0.001580
-0.001597
-0.001576
-0.001610
-0.001568
-0.000756
-0.000914
-0.001265
-0.001258
-0.001218
-0.001206
-0.001170
-0.001247
-0.001378
-0.001360
-0.001627
-0.001639
-0.001608
-0.001461
-0.001468
-0.001474
-0.001430
-0.001416
-0.001432
-0.001406
-0.001399
-0.000773
-0.000803
-0.000821
-0.000813
-0.000810
-0.000809
-0.000760
-0.000741
-0.000740
-0.000746
-0.001863
-0.001875
-0.001840
-0.001296
-0.001317
-0.001301
-0.001289
-0.001286
-0.000722
-0.000711
-0.000521
-0.000611
-0.000688
-0.001698
-0.001587
-0.001411
-0.001673
-0.001798
-0.001451
-0.001424
-0.001418
-0.001419
-0.001418
-0.001400
-0.001386
-0.001378
-0.001376
-0.001407
-0.001941
-0.001912
-0.001920
-0.001929
-0.001887
-0.001883
-0.001551
-0.001534
-0.001501
-0.001529
-0.001482
-0.001440
-0.001446
-0.001439
-0.001456
-0.001400
-0.001392
-0.001388
-0.001401
-0.001344
-0.001302
-0.001296
-0.001278
-0.001295
-0.001491
-0.001413
-0.001413
-0.001250
-0.001511
-0.001460
-0.001440
-0.001402
-0.001383
-0.001377
-0.001332
-0.001322
-0.001328
-0.001335
-0.001331
-0.001328
-0.001307
-0.001312
-0.001298
-0.001315
-0.001355
-0.001248
-0.001220
-0.001261
-0.001544
-0.001525
-0.001581
-0.001491
-0.001413
-0.001441
-0.001476
-0.001489
-0.001456
-0.001451
-0.001487
-0.001508
-0.001419
-0.000954
-0.001615
-0.001283
-0.001386
-0.001283
-0.001258
-0.001306
-0.001302
-0.001280
-0.002943
-0.001439
-0.001473
-0.001467
-0.001432
-0.001427
-0.001200
-0.001188
-0.001176
-0.001169
-0.001156
-0.001146
-0.001137
-0.001129
-0.001102
-0.001038
-0.001018
-0.001011
-0.000962
-0.000964
-0.000933
-0.000921
-0.000937
-0.000907
-0.000880
-0.000876
-0.000867
-0.000871
-0.001368
-0.001282
-0.001357
-0.001350
-0.001336
-0.001308
-0.001289
-0.001251
-0.001258
-0.001287
-0.001250
-0.001237
-0.001228
-0.001244
-0.001234
-0.001191
-0.001219
-0.001158
-0.001174
-0.001134
-0.001102
-0.001177
-0.001111
-0.001146
-0.001148
-0.000881
-0.000873
-0.000835
-0.000822
-0.000672
-0.000749
-0.000722
-0.000735
-0.000723
-0.000770
-0.000741
-0.000745
-0.000748
-0.000912
-0.000893
-0.000883
-0.000874
-0.000864
-0.000844
-0.000850
-0.000818
-0.000810
-0.000759
-0.000746
-0.000764
-0.000738
-0.000748
-0.000756
-0.000746
-0.000751
-0.000770
-0.001012
-0.001003
-0.001211
-0.001111
-0.001006
-0.000988
-0.000966
-0.000896
-0.000868
-0.000884
-0.000862
-0.000868
-0.000805
-0.000795
-0.000814
-0.000797
-0.000780
-0.000770
-0.000771
-0.000776
-0.000761
-0.000747
-0.000748
-0.001020
-0.001000
-0.001032
-0.000630
-0.000622
-0.000616
-0.000591
-0.000580
-0.000440
-0.000408
-0.000432
-0.000427
-0.000971
-0.000961
-0.000948
-0.000932
-0.000980
-0.000946
-0.000946
-0.000907
-0.000880
-0.000904
-0.000907
-0.000896
-0.000897
-0.000859
-0.000807
-0.000838
-0.000798
-0.000749
-0.000776
-0.000763
-0.000761
-0.000763
-0.000736
-0.000737
-0.000759
-0.000811
-0.000910
-0.000978
-0.000934
-0.000931
-0.000913
-0.000973
-0.000882
-0.000874
-0.000927
-0.000840
-0.000804
-0.000859
-0.000843
-0.000841
-0.000915
-0.000918
-0.000782
-0.000772
-0.000736
-0.000790
-0.000791
-0.000814
-0.000762
-0.000778
-0.000749
-0.000791
-0.000687
-0.000662
-0.000630
-0.000631
-0.000634
-0.000640
-0.000645
-0.000652
-0.000659
-0.000667
-0.000674
-0.000682
-0.000689
-0.000696
-0.000702
-0.000709
-0.000716
-0.000722
-0.000729
-0.000734
-0.000740
-0.000746
-0.000751
-0.000756
-0.000761
-0.000766
-0.000770
-0.000775
-0.000780
-0.000784
-0.000788
-0.000792
-0.000796
-0.000800
-0.000804
-0.000807
-0.000811
-0.000814
-0.000818
-0.000821
-0.000824
-0.000827
-0.000831
-0.000834
-0.000836
-0.000839
-0.000843
-0.000847
-0.000850
-0.000853
-0.000856
-0.000859
-0.000862
-0.000865
-0.000868
-0.000870
-0.000873
-0.000875
-0.000878
-0.000880
-0.000882
-0.000885
-0.000887
-0.000889
-0.000891
-0.000893
-0.000895
-0.000897
-0.000899
-0.000901
-0.000903
-0.000905
-0.000906
-0.000908
-0.000910
-0.000912
-0.000913
-0.000915
-0.000917
-0.000919
-0.000920
-0.000922
-0.000923
-0.000925
-0.000927
-0.000928
-0.000930
-0.000931
-0.000933
-0.000934
-0.000936
-0.000937
-0.000939
-0.000940
-0.000942
-0.000943
-0.000945
-0.000946
-0.000948
-0.000949
-0.000951
-0.000952
-0.000953
-0.000955
-0.000956
-0.000958
-0.000959
-0.000960
-0.000962
-0.000963
-0.000965
-0.000966
-0.000967
-0.000969
-0.000970
-0.000972
-0.000973
-0.000974
-0.000976
-0.000977
-0.000979
-0.000980
-0.000981
-0.000983
-0.000984
-0.000985
-0.000987
-0.000988
-0.000989
-0.000991
-0.000992
-0.000994
-0.000995
-0.000996
-0.000998
-0.000999
-0.001000
-0.001002
-0.001003
-0.001004
-0.001006
-0.001007
-0.001008
-0.001010
-0.001011
-0.001012
-0.001014
-0.001015
-0.001017
-0.001018
-0.001019
-0.001021
-0.001022
-0.001023
-0.001025
-0.001026
-0.001027
-0.001029
-0.001030
-0.001031
-0.001033
-0.001034
-0.001035
-0.001037
-0.001038
-0.001039
-0.001041
-0.001042
-0.001043
-0.001045
-0.001046
-0.001047
-0.001049
-0.001050
-0.001051
-0.001053
-0.001054
-0.001055
-0.001056
-0.001058
-0.001059
-0.001060
-0.001062
-0.001063
-0.001064
-0.001065
-0.001067
-0.001068
-0.001069
-0.001070
-0.001072
-0.001073
-0.001074
-0.001075
-0.001077
-0.001078
-0.001079
-0.001080
-0.001082
-0.001083
-0.001084
-0.001085
-0.001086
-0.001088
-0.001089
-0.001090
-0.001091
-0.001092
-0.001093
-0.001094
-0.001096
-0.001097
-0.001098
-0.001099
-0.001100
-0.001101
-0.001102
-0.001103
-0.001104
-0.001105
-0.001106
-0.001107
-0.001108
-0.001109
-0.001110
-0.001111
-0.001112
-0.001113
-0.001114
-0.001115
-0.001116
-0.001117
-0.001118
-0.001119
-0.001120
-0.001121
-0.001122
-0.001122
-0.001123
-0.001124
-0.001125
-0.001126
-0.001127
-0.001127
-0.001128
-0.001129
-0.001130
-0.001130
-0.001131
-0.001132
-0.001133
-0.001133
-0.001134
-0.001135
-0.001135
-0.001136
-0.001136
-0.001137
-0.001138
-0.001138
-0.001139
-0.001139
-0.001140
-0.001140
-0.001141
-0.001141
-0.001142
-0.001142
-0.001143
-0.001143
-0.001143
-0.001144
-0.001144
-0.001144
-0.001145
-0.001145
-0.001145
-0.001146
-0.001146
-0.001146
-0.001146
-0.001146
-0.001147
-0.001147
-0.001147
-0.001147
-0.001147
-0.001147
-0.001147
-0.001147
-0.001147
-0.001147
-0.001147
-0.001147
-0.001147
-0.001147
-0.001147
-0.001147
-0.001147
-0.001147
-0.001147
-0.001146
-0.001146
-0.001146
-0.001146
-0.001145
-0.001145
-0.001145
-0.001145
-0.001144
-0.001144
-0.001144
-0.001143
-0.001143
-0.001142
-0.001142
-0.001141
-0.001141
-0.001140
-0.001140
-0.001139
-0.001139
-0.001138
-0.001137
-0.001137
-0.001136
-0.001136
-0.001135
-0.001134
-0.001133
-0.001133
-0.001132
-0.001131
-0.001130
-0.001129
-0.001129
-0.001128
-0.001127
-0.001126
-0.001125
-0.001124
-0.001123
-0.001122
-0.001121
-0.001120
-0.001119
-0.001118
-0.001117
-0.001116
-0.001115
-0.001114
-0.001113
-0.001111
-0.001110
-0.001109
-0.001036
-0.001046
-0.001055
-0.000973
-0.000960
-0.000966
-0.005603
-0.005654
-0.005700
-0.005796
-0.003924
-0.001143
-0.001123
-0.001136
-0.001121
-0.001067
-0.001082
-0.001069
-0.003908
-0.003537
-0.004363
-0.003820
-0.005816
-0.005847
-0.004970
-0.004841
-0.004143
-0.003505
-0.003765
-0.002727
-0.002801
-0.002713
-0.002773
-0.004823
-0.004826
-0.005070
-0.005088
-0.002112
-0.002505
-0.002031
-0.002732
-0.004978
-0.005013
-0.004968
-0.005002
-0.001486
-0.001549
-0.001526
-0.001489
-0.006246
-0.006004
-0.005081
-0.003071
-0.003045
-0.003030
-0.002973
-0.003422
-0.003599
-0.003570
-0.003714
-0.003668
-0.003637
-0.003641
-0.005505
-0.005445
-0.005474
-0.004218
-0.004251
-0.004304
-0.004338
-0.001464
-0.001412
-0.001458
-0.001391
-0.004259
-0.004235
-0.004244
-0.004210
-0.003148
-0.003135
-0.003206
-0.003041
-0.002998
-0.003030
-0.003124
-0.002777
-0.004464
-0.004513
-0.004518
-0.004555
-0.001084
-0.001103
-0.001100
-0.005198
-0.005238
-0.005167
-0.003652
-0.001140
-0.001167
-0.001145
-0.001146
-0.002319
-0.002177
-0.002352
-0.004065
-0.004086
-0.004114
-0.001958
-0.003307
-0.003316
-0.003341
-0.004027
-0.002274
-0.002315
-0.002346
-0.001189
-0.001190
-0.001221
-0.001201
-0.001626
-0.001554
-0.001967
-0.001654
-0.002358
-0.006011
-0.006215
-0.006049
-0.001174
-0.001172
-0.001157
-0.006212
-0.005564
-0.005699
-0.005677
-0.005569
-0.005496
-0.005504
-0.005549
-0.005536
-0.004883
-0.004939
-0.004875
-0.003712
-0.003705
-0.003728
-0.003722
-0.004910
-0.002441
-0.002408
-0.002553
-0.005337
-0.005386
-0.005279
-0.005612
-0.005629
-0.005642
-0.002490
-0.001192
-0.001208
-0.001218
-0.004982
-0.004350
-0.004376
-0.001093
-0.001070
-0.001083
-0.001074
-0.002028
-0.002048
-0.002050
-0.002078
-0.003916
-0.003993
-0.003951
-0.003995
-0.002456
-0.002385
-0.002475
-0.002359
-0.006096
-0.006107
-0.006147
-0.006050
-0.001154
-0.001154
-0.006985
-0.006970
-0.006956
-0.006933
-0.005241
-0.005283
-0.005167
-0.005408
-0.001169
-0.001154
-0.001148
-0.005425
-0.005256
-0.006314
-0.006333
-0.006297
-0.001199
-0.001229
-0.001227
-0.002878
-0.002861
-0.002769
-0.002725
-0.004109
-0.004128
-0.004120
-0.006696
-0.006712
-0.006794
-0.006756
-0.001195
-0.001198
-0.001169
-0.001230
-0.001183
-0.001157
-0.001162
-0.001252
-0.002054
-0.002059
-0.002089
-0.002082
-0.004326
-0.004162
-0.004151
-0.004294
-0.004550
-0.004514
-0.004601
-0.001193
-0.001219
-0.001234
-0.001257
-0.004855
-0.004813
-0.004887
-0.004816
-0.001795
-0.001928
-0.002044
-0.003449
-0.003291
-0.003173
-0.003472
-0.006587
-0.006603
-0.006574
-0.006625
-0.001160
-0.001159
-0.002537
-0.002044
-0.001960
-0.001706
-0.003943
-0.003939
-0.003891
-0.003903
-0.005320
-0.005417
-0.005300
-0.005442
-0.004964
-0.005047
-0.005089
-0.004894
-0.004507
-0.004497
-0.004522
-0.004519
-0.005612
-0.005623
-0.005567
-0.005573
-0.001234
-0.001197
-0.001204
-0.001208
-0.004539
-0.004122
-0.004081
-0.006905
-0.006977
-0.006945
-0.006883
-0.004416
-0.005225
-0.004901
-0.003663
-0.003249
-0.005135
-0.005102
-0.005149
-0.005093
-0.002077
-0.002182
-0.002167
-0.002275
-0.003518
-0.003272
-0.003421
-0.003258
-0.001698
-0.001740
-0.001770
-0.001824
-0.001392
-0.001487
-0.001400
-0.001465
-0.005453
-0.005432
-0.005466
-0.005456
-0.005074
-0.004921
-0.004962
-0.005070
-0.001459
-0.001418
-0.001490
-0.001389
-0.001528
-0.001480
-0.001394
-0.004240
-0.004083
-0.004073
-0.004162
-0.001264
-0.001289
-0.001234
-0.001121
-0.004652
-0.004687
-0.004707
-0.004632
-0.001109
-0.001122
-0.001134
-0.001150
-0.003431
-0.003378
-0.003455
-0.003393
-0.002322
-0.002225
-0.004538
-0.004526
-0.004500
-0.004498
-0.003817
-0.003871
-0.003789
-0.003907
-0.003708
-0.003246
-0.003522
-0.001160
-0.001182
-0.001166
-0.006095
-0.006100
-0.006073
-0.006067
-0.002910
-0.005537
-0.005474
-0.005482
-0.001327
-0.001266
-0.001277
-0.001234
-0.001059
-0.001061
-0.001076
-0.001076
-0.002343
-0.002351
-0.002386
-0.002295
-0.002699
-0.002759
-0.002751
-0.002732
-0.002675
-0.002601
-0.002022
-0.002081
-0.002071
-0.004069
-0.004125
-0.003842
-0.003113
-0.003064
-0.002881
-0.003720
-0.001804
-0.001824
-0.001886
-0.001879
-0.001857
-0.001854
-0.001876
-0.001184
-0.001203
-0.001213
-0.005066
-0.004946
-0.001178
-0.000985
-0.001008
-0.001004
-0.001026
-0.004271
-0.004276
-0.004621
-0.001321
-0.003262
-0.003252
-0.003285
-0.003281
-0.006408
-0.006370
-0.006367
-0.006332
-0.002459
-0.002685
-0.002735
-0.002321
-0.005712
-0.005678
-0.005723
-0.005690
-0.005619
-0.005711
-0.005591
-0.005700
-0.000986
-0.000961
-0.000932
-0.005823
-0.005809
-0.005853
-0.002784
-0.002743
-0.002802
-0.002791
-0.001082
-0.000959
-0.000962