# vtk DataFile Version 2.0
Test
ASCII
DATASET POLYDATA
POINTS 20431 float
0.000000 0.000000 0.000000
2.000000 0.000000 0.000000
2.000000 4.000000 0.000000
0.000000 4.000000 0.000000
0.000000 0.500000 0.000000
1.500000 2.000000 0.000000
2.000000 2.500000 0.000000
0.400000 0.000000 0.000000
0.800000 0.000000 0.000000
1.200000 0.000000 0.000000
1.600000 0.000000 0.000000
2.000000 0.362557 0.000000
2.000000 0.672798 0.000000
2.000000 0.938272 0.000000
2.000000 1.165439 0.000000
2.000000 1.359826 0.000000
2.000000 1.526163 0.000000
2.000000 1.668499 0.000000
2.000000 1.790295 0.000000
2.000000 1.894517 0.000000
2.000000 1.983700 0.000000
2.000000 2.060013 0.000000
2.000000 2.125315 0.000000
2.000000 2.181194 0.000000
2.000000 2.229010 0.000000
2.000000 2.269926 0.000000
2.000000 2.304938 0.000000
2.000000 2.334898 0.000000
2.000000 2.360534 0.000000
2.000000 2.382472 0.000000
2.000000 2.401244 0.000000
2.000000 2.417307 0.000000
2.000000 2.431052 0.000000
2.000000 2.442814 0.000000
2.000000 2.452878 0.000000
2.000000 2.461491 0.000000
2.000000 2.468860 0.000000
2.000000 2.475167 0.000000
2.000000 2.480563 0.000000
2.000000 2.485180 0.000000
2.000000 2.489132 0.000000
2.000000 2.492513 0.000000
2.000000 2.495406 0.000000
2.000000 2.497882 0.000000
2.000000 2.502286 0.000000
2.000000 2.505266 0.000000
2.000000 2.509150 0.000000
2.000000 2.514212 0.000000
2.000000 2.520809 0.000000
2.000000 2.529407 0.000000
2.000000 2.540613 0.000000
2.000000 2.555218 0.000000
2.000000 2.574253 0.000000
2.000000 2.599061 0.000000
2.000000 2.631395 0.000000
2.000000 2.673536 0.000000
2.000000 2.728460 0.000000
2.000000 2.800043 0.000000
2.000000 2.893339 0.000000
2.000000 3.014933 0.000000
2.000000 3.173410 0.000000
2.000000 3.379956 0.000000
2.000000 3.649152 0.000000
1.600000 4.000000 0.000000
1.200000 4.000000 0.000000
0.800000 4.000000 0.000000
0.400000 4.000000 0.000000
0.000000 3.624996 0.000000
0.000000 3.289970 0.000000
0.000000 2.990661 0.000000
0.000000 2.723261 0.000000
0.000000 2.484368 0.000000
0.000000 2.270943 0.000000
0.000000 2.080271 0.000000
0.000000 1.909926 0.000000
0.000000 1.757741 0.000000
0.000000 1.621780 0.000000
0.000000 1.500314 0.000000
0.000000 1.391797 0.000000
0.000000 1.294849 0.000000
0.000000 1.208237 0.000000
0.000000 1.130858 0.000000
0.000000 1.061728 0.000000
0.000000 0.999968 0.000000
0.000000 0.944792 0.000000
0.000000 0.895499 0.000000
0.000000 0.851460 0.000000
0.000000 0.812117 0.000000
0.000000 0.776968 0.000000
0.000000 0.745565 0.000000
0.000000 0.717511 0.000000
0.000000 0.692448 0.000000
0.000000 0.670056 0.000000
0.000000 0.650052 0.000000
0.000000 0.632180 0.000000
0.000000 0.616213 0.000000
0.000000 0.601949 0.000000
0.000000 0.589205 0.000000
0.000000 0.577820 0.000000
0.000000 0.567649 0.000000
0.000000 0.558562 0.000000
0.000000 0.550444 0.000000
0.000000 0.543191 0.000000
0.000000 0.536712 0.000000
0.000000 0.530923 0.000000
0.000000 0.525751 0.000000
0.000000 0.521131 0.000000
0.000000 0.517003 0.000000
0.000000 0.513315 0.000000
0.000000 0.510021 0.000000
0.000000 0.507078 0.000000
0.000000 0.504448 0.000000
0.000000 0.502099 0.000000
0.000000 0.497804 0.000000
0.000000 0.494785 0.000000
0.000000 0.490633 0.000000
0.000000 0.484924 0.000000
0.000000 0.477074 0.000000
0.000000 0.466279 0.000000
0.000000 0.451436 0.000000
0.000000 0.431025 0.000000
0.000000 0.402959 0.000000
0.000000 0.364366 0.000000
0.000000 0.311297 0.000000
0.000000 0.238324 0.000000
0.000000 0.137980 0.000000
0.001414 0.501414 0.000000
0.002828 0.502828 0.000000
0.004241 0.504241 0.000000
0.005655 0.505655 0.000000
0.007069 0.507069 0.000000
0.008483 0.508483 0.000000
0.009896 0.509896 0.000000
0.011310 0.511310 0.000000
0.012724 0.512724 0.000000
0.014138 0.514138 0.000000
0.015551 0.515551 0.000000
0.016965 0.516965 0.000000
0.018379 0.518379 0.000000
0.019793 0.519793 0.000000
0.021206 0.521206 0.000000
0.022620 0.522620 0.000000
0.024034 0.524034 0.000000
0.025448 0.525448 0.000000
0.026861 0.526861 0.000000
0.028275 0.528275 0.000000
0.029689 0.529689 0.000000
0.031103 0.531103 0.000000
0.032516 0.532516 0.000000
0.033930 0.533930 0.000000
0.035344 0.535344 0.000000
0.036758 0.536758 0.000000
0.038172 0.538172 0.000000
0.039585 0.539585 0.000000
0.040999 0.540999 0.000000
0.042413 0.542413 0.000000
0.043827 0.543827 0.000000
0.045240 0.545240 0.000000
0.046654 0.546654 0.000000
0.048068 0.548068 0.000000
0.049482 0.549482 0.000000
0.050895 0.550895 0.000000
0.052309 0.552309 0.000000
0.053723 0.553723 0.000000
0.055137 0.555137 0.000000
0.056550 0.556550 0.000000
0.057964 0.557964 0.000000
0.059378 0.559378 0.000000
0.060792 0.560792 0.000000
0.062205 0.562205 0.000000
0.063619 0.563619 0.000000
0.065033 0.565033 0.000000
0.066447 0.566447 0.000000
0.067861 0.567861 0.000000
0.069274 0.569274 0.000000
0.070688 0.570688 0.000000
0.072102 0.572102 0.000000
0.073516 0.573516 0.000000
0.074929 0.574929 0.000000
0.076343 0.576343 0.000000
0.077757 0.577757 0.000000
0.079171 0.579171 0.000000
0.080584 0.580584 0.000000
0.081998 0.581998 0.000000
0.083412 0.583412 0.000000
0.084826 0.584826 0.000000
0.086239 0.586239 0.000000
0.087653 0.587653 0.000000
0.089067 0.589067 0.000000
0.090481 0.590481 0.000000
0.091894 0.591894 0.000000
0.093308 0.593308 0.000000
0.094722 0.594722 0.000000
0.096136 0.596136 0.000000
0.097549 0.597549 0.000000
0.098963 0.598963 0.000000
0.100377 0.600377 0.000000
0.101791 0.601791 0.000000
0.103205 0.603205 0.000000
0.104618 0.604618 0.000000
0.106032 0.606032 0.000000
0.107446 0.607446 0.000000
0.108860 0.608860 0.000000
0.110273 0.610273 0.000000
0.111687 0.611687 0.000000
0.113101 0.613101 0.000000
0.114515 0.614515 0.000000
0.115928 0.615928 0.000000
0.117342 0.617342 0.000000
0.118756 0.618756 0.000000
0.120170 0.620170 0.000000
0.121583 0.621583 0.000000
0.122997 0.622997 0.000000
0.124411 0.624411 0.000000
0.125825 0.625825 0.000000
0.127238 0.627238 0.000000
0.128652 0.628652 0.000000
0.130066 0.630066 0.000000
0.131480 0.631480 0.000000
0.132893 0.632893 0.000000
0.134307 0.634307 0.000000
0.135721 0.635721 0.000000
0.137135 0.637135 0.000000
0.138549 0.638549 0.000000
0.139962 0.639962 0.000000
0.141376 0.641376 0.000000
0.142790 0.642790 0.000000
0.144204 0.644204 0.000000
0.145617 0.645617 0.000000
0.147031 0.647031 0.000000
0.148445 0.648445 0.000000
0.149859 0.649859 0.000000
0.151272 0.651272 0.000000
0.152686 0.652686 0.000000
0.154100 0.654100 0.000000
0.155514 0.655514 0.000000
0.156927 0.656927 0.000000
0.158341 0.658341 0.000000
0.159755 0.659755 0.000000
0.161169 0.661169 0.000000
0.162582 0.662582 0.000000
0.163996 0.663996 0.000000
0.165410 0.665410 0.000000
0.166824 0.666824 0.000000
0.168238 0.668238 0.000000
0.169651 0.669651 0.000000
0.171065 0.671065 0.000000
0.172479 0.672479 0.000000
0.173893 0.673893 0.000000
0.175306 0.675306 0.000000
0.176720 0.676720 0.000000
0.178134 0.678134 0.000000
0.179548 0.679548 0.000000
0.180961 0.680961 0.000000
0.182375 0.682375 0.000000
0.183789 0.683789 0.000000
0.185203 0.685203 0.000000
0.186616 0.686616 0.000000
0.188030 0.688030 0.000000
0.189444 0.689444 0.000000
0.190858 0.690858 0.000000
0.192271 0.692271 0.000000
0.193685 0.693685 0.000000
0.195099 0.695099 0.000000
0.196513 0.696513 0.000000
0.197926 0.697926 0.000000
0.199340 0.699340 0.000000
0.200754 0.700754 0.000000
0.202168 0.702168 0.000000
0.203582 0.703582 0.000000
0.204995 0.704995 0.000000
0.206409 0.706409 0.000000
0.207823 0.707823 0.000000
0.209237 0.709237 0.000000
0.210650 0.710650 0.000000
0.212064 0.712064 0.000000
0.213478 0.713478 0.000000
0.214892 0.714892 0.000000
0.216305 0.716305 0.000000
0.217719 0.717719 0.000000
0.219133 0.719133 0.000000
0.220547 0.720547 0.000000
0.221960 0.721960 0.000000
0.223374 0.723374 0.000000
0.224788 0.724788 0.000000
0.226202 0.726202 0.000000
0.227615 0.727615 0.000000
0.229029 0.729029 0.000000
0.230443 0.730443 0.000000
0.231857 0.731857 0.000000
0.233270 0.733270 0.000000
0.234684 0.734684 0.000000
0.236098 0.736098 0.000000
0.237512 0.737512 0.000000
0.238926 0.738926 0.000000
0.240339 0.740339 0.000000
0.241753 0.741753 0.000000
0.243167 0.743167 0.000000
0.244581 0.744581 0.000000
0.245994 0.745994 0.000000
0.247408 0.747408 0.000000
0.248822 0.748822 0.000000
0.250236 0.750236 0.000000
0.251649 0.751649 0.000000
0.253063 0.753063 0.000000
0.254477 0.754477 0.000000
0.255891 0.755891 0.000000
0.257304 0.757304 0.000000
0.258718 0.758718 0.000000
0.260132 0.760132 0.000000
0.261546 0.761546 0.000000
0.262959 0.762959 0.000000
0.264373 0.764373 0.000000
0.265787 0.765787 0.000000
0.267201 0.767201 0.000000
0.268615 0.768615 0.000000
0.270028 0.770028 0.000000
0.271442 0.771442 0.000000
0.272856 0.772856 0.000000
0.274270 0.774270 0.000000
0.275683 0.775683 0.000000
0.277097 0.777097 0.000000
0.278511 0.778511 0.000000
0.279925 0.779925 0.000000
0.281338 0.781338 0.000000
0.282752 0.782752 0.000000
0.284166 0.784166 0.000000
0.285580 0.785580 0.000000
0.286993 0.786993 0.000000
0.288407 0.788407 0.000000
0.289821 0.789821 0.000000
0.291235 0.791235 0.000000
0.292648 0.792648 0.000000
0.294062 0.794062 0.000000
0.295476 0.795476 0.000000
0.296890 0.796890 0.000000
0.298303 0.798303 0.000000
0.299717 0.799717 0.000000
0.301131 0.801131 0.000000
0.302545 0.802545 0.000000
0.303959 0.803959 0.000000
0.305372 0.805372 0.000000
0.306786 0.806786 0.000000
0.308200 0.808200 0.000000
0.309614 0.809614 0.000000
0.311027 0.811027 0.000000
0.312441 0.812441 0.000000
0.313855 0.813855 0.000000
0.315269 0.815269 0.000000
0.316682 0.816682 0.000000
0.318096 0.818096 0.000000
0.319510 0.819510 0.000000
0.320924 0.820924 0.000000
0.322337 0.822337 0.000000
0.323751 0.823751 0.000000
0.325165 0.825165 0.000000
0.326579 0.826579 0.000000
0.327992 0.827992 0.000000
0.329406 0.829406 0.000000
0.330820 0.830820 0.000000
0.332234 0.832234 0.000000
0.333648 0.833648 0.000000
0.335061 0.835061 0.000000
0.336475 0.836475 0.000000
0.337889 0.837889 0.000000
0.339303 0.839303 0.000000
0.340716 0.840716 0.000000
[...]
POINT_DATA 20431
SCALARS UX float 1
LOOKUP_TABLE default
0.000000
0.000000
-0.012820
-0.037611
-0.022985
0.051615
0.027562
-0.000000
-0.000000
0.000000
0.000000
0.012369
0.019871
0.029006
0.040301
0.052915
0.065462
0.076059
0.082868
0.085924
0.083866
0.078795
0.072371
0.065390
0.058985
0.053281
0.048521
0.044566
0.041359
0.038816
0.036782
0.035180
0.033824
0.032687
0.031741
0.030943
0.030274
0.029710
0.029234
0.028830
0.028489
0.028199
0.027952
0.027742
0.027370
0.027120
0.026800
0.026387
0.025855
0.025170
0.024314
0.023208
0.021827
0.020159
0.018097
0.015484
0.012484
0.008629
0.005180
0.000799
-0.003405
-0.007894
-0.011247
-0.022317
-0.029634
-0.034018
-0.036219
-0.034769
-0.029046
-0.020924
-0.011856
-0.003410
0.003828
0.009346
0.013171
0.015204
0.015924
0.015446
0.014066
0.011780
0.008623
0.004584
-0.000426
-0.006499
-0.013630
-0.021526
-0.029852
-0.038068
-0.045405
-0.051660
-0.056833
-0.061507
-0.065805
-0.069694
-0.072905
-0.074455
-0.073457
-0.070761
-0.061080
-0.034789
-0.033746
-0.081243
-0.043908
2.324752
1.466801
0.672511
0.482197
0.340296
0.083151
-0.160388
-0.029197
-0.040468
-0.026390
-0.019527
-0.010233
-0.005772
-0.006208
-0.006092
-0.005561
-0.004694
-0.003932
-0.003440
-0.002940
-0.002543
-0.002096
-0.001457
-0.019660
0.023604
0.068268
0.067550
0.013016
0.011112
0.009296
0.010511
0.103862
0.143685
0.147335
0.101155
0.044404
0.035075
0.021600
0.035003
0.011710
0.013197
-0.002555
-0.008274
-0.019896
-0.021717
-0.028666
-0.030925
-0.038684
-0.046841
-0.044949
-0.048345
-0.052422
0.252226
-0.034637
-0.032729
-0.032410
-0.031905
-0.029458
-0.027816
-0.026630
-0.024267
-0.024808
-0.029515
-0.030469
-0.029329
-0.030038
-0.029879
-0.018204
-0.012480
-0.018616
-0.019526
-0.022755
-0.026306
-0.028932
-0.029865
-0.029665
-0.033056
-0.036087
-0.039199
-0.042330
-0.045091
-0.046705
-0.048198
-0.053923
-0.050689
-0.044953
-0.042300
-0.038624
-0.029031
-0.025006
-0.018022
-0.021130
-0.020092
-0.018490
-0.018374
-0.017651
-0.018841
-0.024627
-0.013868
-0.005717
-0.042727
-0.008165
-0.014859
-0.002646
-0.004545
0.003164
-0.014118
-0.012641
-0.029525
-0.027443
-0.025649
-0.023828
0.009105
-0.042646
-0.093048
-0.103273
-0.114275
-0.125282
0.055979
0.079793
0.020184
-0.044655
-0.009005
-0.008276
0.091564
0.044836
-0.001653
-0.048081
-0.094423
-0.078999
-0.070416
-0.042072
-0.043259
-0.042529
-0.037327
-0.046780
-0.043606
-0.023970
-0.099446
-0.088511
0.244624
-0.052132
-0.096929
-0.048743
-0.050517
-0.112852
-0.060419
-0.022555
0.034338
-0.030655
-0.021239
-0.027489
-0.032510
-0.039185
-0.047151
-0.059549
-0.063532
-0.046382
-0.026244
-0.039718
-0.037141
-0.031044
-0.040980
-0.023651
0.040734
0.114015
0.095126
-0.010730
-0.069298
-0.098470
-0.113087
-0.156086
-0.124846
-0.010494
-0.019122
-0.014155
-0.014904
-0.017247
-0.020975
-0.107483
-0.083484
-0.059679
0.012022
-0.004188
-0.039780
-0.032113
-0.011491
-0.077475
-0.162121
-0.246494
-0.330495
0.018263
0.040473
0.063066
0.081265
-0.003562
-0.005505
-0.007979
-0.010408
-0.012872
0.017394
0.036168
0.030640
0.003146
-0.002510
-0.024712
-0.101986
-0.190369
-0.302744
0.059690
0.092568
0.080502
0.037729
0.035306
0.035164
0.039882
0.047310
0.056021
0.055651
0.062274
0.075900
-0.151037
0.078468
0.080147
0.107231
0.073903
0.070115
0.284524
0.169484
0.080310
0.087290
0.085588
0.083912
0.087345
0.090607
0.040302
-0.011429
0.100570
0.106692
0.082972
0.126902
-0.167707
-0.145886
-0.123572
-0.101260
-0.058204
0.110126
0.438009
2.502730
3.533757
2.828537
2.123244
1.673234
1.417684
1.244022
0.701046
0.257709
-0.194115
0.010993
0.063866
0.303713
0.390120
0.396859
0.289419
0.214865
0.116767
0.079090
0.041400
0.050801
0.036156
0.170043
0.138993
0.107967
0.076954
-0.074010
-0.084054
-0.085069
-0.073269
-0.057029
-0.030125
0.007943
0.043994
0.042366
0.045801
0.046562
0.009555
-0.031983
-0.054292
0.063284
-0.002689
-0.031956
-0.050268
-0.081451
-0.115135
-0.117901
-0.054975
-0.054707
-0.053945
-0.055881
-0.060809
-0.064987
-0.057940
-0.051083
-0.044167
-0.037400
-0.036803
-0.050720
-0.061168
-0.060464
-0.090662
-0.058187
-0.052403
-0.037008
-0.032853
-0.043356
-0.043232
-0.050261
-0.053376
-0.043731
-0.027663
-0.027725
-0.027788
-0.027851
-0.036912
-0.029399
-0.029721
-0.027989
-0.028599
-0.030687
-0.061674
-0.061596
-0.041147
-0.300792
-0.227608
-0.742498
-0.068772
-0.351249
-0.606594
0.303421
-0.196172
-0.705220
-0.188350
-0.283410
-0.166277
-0.199316
-0.232020
0.024670
0.069024
0.197203
0.278415
-0.158292
-0.283004
-0.384489
-0.070321
7.780582
-2.326604
0.202740
0.136974
0.003477
-0.008613
-0.001430
-0.000659
-0.013795
-0.026319
-0.039043
-0.079014
-0.038078
-0.018978
0.012178
0.041011
0.062668
0.086599
0.040373
0.065393
0.058778
0.045831
0.035724
0.023496
0.010165
-0.028800
-0.073579
0.016905
0.012423
0.015837
0.018404
-0.221088
-0.133787
-0.052305
0.026719
0.030386
0.034052
-0.045461
-0.025430
0.011903
0.051172
0.050527
0.030797
0.046556
0.066168
0.057460
0.064283
0.059832
0.055640
0.051264
0.047070
-0.035497
-0.070009
-0.104513
-0.011044
-0.012725
-0.035961
-0.044273
-0.035277
0.017797
-0.030177
-0.057728
-0.072822
-0.052528
-0.080890
-0.111234
0.095919
0.110567
0.125436
-0.027330
-0.025240
-0.009458
-0.012621
0.056838
0.060182
0.063529
0.093605
0.112044
0.074773
0.012024
0.008708
0.015132
0.021305
0.027587
0.109960
0.091268
0.032715
0.030666
0.031729
0.009687
0.018902
0.028135
0.032735
0.037851
0.044161
0.035931
0.026633
0.041063
0.079302
0.065315
0.006123
0.022270
0.000580
-0.017773
-0.005716
0.042150
0.085914
0.083084
0.085577
0.059830
0.022861
-0.012988
0.118625
0.185893
0.048773
-0.092689
-0.275984
-0.459568
-0.205668
-0.318393
-0.459866
-0.320910
-0.180606
-0.031717
0.053269
0.149275
0.120401
0.139282
0.156267
0.003910
0.000110
-0.003928
-0.013202
-0.019042
-0.015583
-0.030428
-0.046876
-0.068228
-0.090274
-0.125118
-0.151616
-0.217754
-0.028609
-0.048317
-0.042929
-0.107879
-0.121329
-0.048046
-0.073483
0.011455
-0.004333
-0.022199
-0.020164
0.010568
-0.002860
0.015707
0.015995
0.018421
0.005050
0.001626
-0.059341
-0.081345
0.012080
-0.014154
0.031362
-0.043787
-0.019483
0.000034
0.027158
0.054290
0.028400
-0.013017
0.084480
0.109633
0.236291
0.274769
0.238014
0.185426
0.102760
0.040662
0.050594
0.059956
0.075223
0.094997
0.122651
0.177478
0.109520
0.030773
0.028264
0.026494
0.023392
0.026974
0.026239
-0.005651
-0.005033
-0.004251
-0.003416
-0.002592
0.020634
0.075210
0.129285
0.115896
0.060108
0.044492
0.015878
0.015819
0.015612
0.014223
0.014057
0.012024
-0.003993
-0.015663
-0.044025
-0.024718
-0.021216
-0.006213
0.012636
-0.019218
-0.000161
0.004342
-0.001789
-0.002427
0.003383
0.002543
0.047736
-0.006593
-0.002635
0.020040
0.028142
0.035955
0.040744
0.038292
0.012789
0.015618
0.018146
0.026567
0.010830
-0.004282
-0.018691
-0.029848
-0.217242
0.106218
0.226296
0.229060
0.068465
0.063718
0.061457
0.057099
0.097129
0.125465
0.132605
0.101318
0.105039
0.108765
0.112506
0.116408
0.121122
0.124890
0.128539
-0.601554
-8.377551
-12.141543
-0.129513
2.684945
0.382400
0.048739
0.038277
0.013217
0.011756
0.011122
0.010730
0.050842
0.041728
0.034077
0.118823
-0.005862
-0.010291
0.049488
0.052509
-0.000793
0.044245
0.096911
0.083436
0.027993
0.348820
0.062592
0.094829
0.130225
-0.091070
0.059867
0.063468
0.071673
0.025952
0.017030
0.017161
0.017657
-0.052335
0.001440
-0.006255
0.004719
0.011288
0.020893
0.012783
-0.304585
-0.192700
-0.344305
0.395708
0.015005
0.020488
0.026777
-0.057347
-0.083582
-0.109576
-0.130165
0.173196
0.058192
-0.064857
-0.267757
0.087936
0.329320
1.459629
0.284658
0.436251
0.366433
0.278175
0.197618
0.100321
0.039845
0.118318
0.220629
0.310616
0.345233
0.325542
0.318627
0.306591
0.242414
0.219556
0.195952
0.171525
0.198797
0.107561
0.097683
0.087623
0.030338
-0.000405
0.017693
0.004898
-0.009317
-0.015578
-0.001497
-0.003483
0.040981
0.067953
0.089135
0.093313
0.095626
0.063454
0.022210
0.003779
-0.014678
-0.024466
-0.022306
-0.008629
0.004925
0.050862
0.066855
0.001808
0.029666
0.030525
0.029688
0.025581
0.022659
0.064766
0.036318
-0.140617
0.030256
0.119693
0.761882
0.393322
0.001257
0.064192
0.019951
0.019703
0.021123
0.023678
0.025955
0.048141
0.090013
0.049762
0.090718
0.119175
-0.062109
0.120691
0.106640
0.062434
-0.008115
0.020890
0.034756
0.011357
-0.025024
-0.022836
-0.927180
0.011019
-0.090126
-0.189129
0.589901
0.488903
0.389967
0.265559
0.264997
0.238352
0.240137
0.229693
0.036746
0.061612
0.143408
0.117611
0.074872
0.030438
0.015867
0.020345
0.024226
0.012457
0.023210
0.027374
0.027441
0.018936
0.017970
0.025677
0.026738
0.030546
0.032789
0.034033
0.058318
0.011590
-0.041540
0.063820
0.029293
0.015254
-0.006340
-0.013637
-0.016699
0.048658
-0.018304
-0.030550
-0.070692
-0.155738
-0.060672
0.009040
-0.006784
0.028287
0.017513
0.001168
-0.009268
0.004938
-0.185739
-0.041393
-0.017676
-0.048956
-0.016822
0.571402
-0.215948
-0.291343
-0.183235
0.010445
0.000723
0.009415
0.011189
0.015207
0.016758
0.033478
0.057933
0.074601
0.071830
0.037979
-0.064972
-0.187842
-0.141458
-0.095113
0.079063
0.103192
0.128600
0.203642
0.495975
0.329191
0.309248
0.349802
0.293041
0.252325
0.208773
-0.235766
0.010256
-0.067508
-0.046377
-0.043460
-0.069601
-0.103689
-0.123283
-0.115308
-0.115164
-0.120365
-0.130958
-0.145478
-0.149499
-0.115050
-0.079863
-0.049954
-0.102775
-0.140775
-0.153702
-0.176150
-0.183050
-0.184847
-0.128892
-0.332362
-0.160745
-0.107705
-0.046655
0.005170
-0.031639
-0.021959
0.026442
0.027840
0.028848
0.029780
-0.027918
0.026821
0.016512
0.016805
0.016758
0.005356
0.004880
0.008516
-0.003395
-0.008093
0.001647
0.022415
-0.304568
-0.932087
-11.782899
-0.015418
-0.168937
-0.387709
0.716110
-1.017599
0.289077
0.231756
0.186541
0.149223
0.099694
0.023766
0.075764
0.010948
0.142230
0.100900
0.092580
0.104195
0.082579
0.057202
0.051662
0.062340
0.022592
-0.003777
-0.028664
-0.005047
0.024212
-0.002546
-0.017298
0.019047
-0.045084
0.082234
0.071752
0.062009
0.051401
0.056715
0.059088
0.036437
0.037983
0.072267
0.043988
0.015911
-0.026524
0.024080
0.021541
0.021070
0.045848
0.060638
0.039399
0.038134
0.034651
0.063910
0.054447
0.045574
0.036566
0.036561
0.067523
0.018073
0.032162
0.071808
0.080805
0.089844
0.098932
0.135078
0.068567
0.096011
0.123121
0.150292
0.078476
0.040111
0.010935
0.013723
-0.005582
0.014948
0.034757
0.048757
0.050780
0.049364
0.047682
0.043569
0.041682
0.040906
0.096699
0.009530
0.060854
0.025105
-0.027663
0.087932
0.125624
0.324213
0.280115
0.247262
0.118494
0.133776
0.112047
0.090949
0.078534
0.094878
0.083425
0.107937
0.085225
0.042427
0.061494
0.061051
0.093908
0.110169
0.066084
0.083506
0.075777
0.072017
0.079516
0.097345
0.112716
0.088559
0.082573
0.088512
0.058100
0.028413
0.013114
0.067487
0.047596
0.037022
0.039924
0.024890
0.045607
0.114412
0.050478
0.050891
0.048459
0.048124
0.040214
0.033781
0.037018
0.030923
0.029750
0.022816
0.050800
0.081812
0.047533
0.015194
0.068741
0.073681
0.078543
0.077518
0.088234
0.090057
0.099160
0.112026
0.104741
0.103505
0.106828
0.085095
0.058571
0.061176
0.009665
-0.041781
-0.095302
-0.125435
-0.159529
0.034611
0.037072
0.032051
0.016900
-0.077003
-0.027891
0.031533
0.041664
0.043568
0.035124
0.038827
0.001313
0.049630
0.045787
0.078263
0.053337
0.054680
0.056188
0.056393
0.055711
0.065123
0.059203
0.051635
0.049397
0.048098
0.041825
0.044056
0.046506
0.049933
0.053436
0.053420
0.052494
0.052806
0.052369
0.052060
0.051826
0.051659
0.051540
0.051401
0.051261
0.051123
0.050989
0.050849
0.050716
0.050576
0.050437
0.050305
0.050176
0.050053
0.049936
0.049814
0.049697
0.049585
0.049469
0.049361
0.049256
0.049148
0.049045
0.048942
0.048840
0.048743
0.048646
0.048548
0.048450
0.048357
0.048265
0.048172
0.048081
0.047992
0.047902
0.047815
0.047727
0.047642
0.047557
0.047473
0.047391
0.047307
0.047225
0.047143
0.047064
0.046984
0.046903
0.046824
0.046747
0.046669
0.046593
0.046516
0.046440
0.046364
0.046290
0.046215
0.046141
0.046067
0.045993
0.045921
0.045848
0.045776
0.045704
0.045633
0.045563
0.045492
0.045422
0.045353
0.045284
0.045215
0.045146
0.045077
0.045010
0.044941
0.044873
0.044806
0.044738
0.044672
0.044605
0.044539
0.044473
0.044408
0.044341
0.044276
0.044211
0.044145
0.044080
0.044015
0.043950
0.043885
0.043820
0.043755
0.043691
0.043625
0.043561
0.043497
0.043432
0.043367
0.043302
0.043238
0.043173
0.043108
0.043044
0.042978
0.042913
0.042849
0.042784
0.042719
0.042654
0.042590
0.042525
0.042459
0.042394
0.042329
0.042264
0.042198
0.042133
0.042067
0.042001
0.041936
0.041870
0.041804
0.041738
0.041671
0.041605
0.041538
0.041471
0.041405
0.041338
0.041271
0.041203
0.041136
0.041068
0.041000
0.040932
0.040864
0.040796
0.040727
0.040659
0.040590
0.040521
0.040451
0.040382
0.040313
0.040243
0.040173
0.040103
0.040032
0.039961
0.039891
0.039820
0.039748
0.039677
0.039606
0.039534
0.039462
0.039391
0.039318
0.039246
0.039173
0.039101
0.039028
0.038955
0.038882
0.038808
0.038735
0.038661
0.038587
0.038514
0.038439
0.038365
0.038290
0.038216
0.038140
0.038065
0.037990
0.037915
0.037840
0.037764
0.037688
0.037612
0.037536
0.037460
0.037384
0.037307
0.037230
0.037153
0.037075
0.036998
0.036920
0.036842
0.036764
0.036686
0.036608
0.036529
0.036450
0.036371
0.036292
0.036213
0.036134
0.036055
0.035976
0.035897
0.035817
0.035738
0.035658
0.035578
0.035498
0.035418
0.035337
0.035257
0.035176
0.035096
0.035015
0.034935
0.034854
0.034773
0.034693
0.034612
0.034531
0.034450
0.034370
0.034289
0.034208
0.034127
0.034045
0.033964
0.033882
0.033801
0.033719
0.033636
0.033554
0.033471
0.033387
0.033304
0.033220
0.033136
0.033053
0.032971
0.032888
0.032807
0.032725
0.032644
0.032565
0.032488
0.032414
0.032342
0.032275
0.032204
0.032135
0.032065
0.032000
0.031932
0.031867
0.031800
0.031740
0.031680
0.031603
0.031543
0.031480
0.031421
0.031360
0.031300
0.031240
0.031180
0.031120
0.031061
0.031001
0.030942
0.030883
0.030824
0.030766
0.030709
0.030651
0.030594
0.030538
0.030481
0.030425
0.030370
0.030315
0.030260
0.030206
0.030153
0.030100
0.030047
0.029994
0.029942
0.029891
0.029840
0.029790
0.029740
0.029691
0.029642
0.029594
0.029547
0.029499
0.029453
0.029406
0.029361
0.029315
0.029271
0.029226
0.029182
0.029139
0.029096
0.029053
0.029011
0.028969
0.028928
0.028887
0.028847
0.028807
0.028767
0.028728
0.028690
0.028651
0.028613
0.028575
0.028538
0.028501
0.028464
0.028428
0.028392
0.028357
0.028322
0.028287
0.028253
0.028219
0.028185
0.028152
0.028119
0.028086
0.028054
0.028023
0.027991
0.027960
0.027930
0.027900
0.027870
0.027840
0.027811
0.027782
0.027753
0.027725
0.027698
0.027670
0.027643
0.027616
0.027589
0.039794
0.039540
0.039375
0.043110
0.043406
0.043239
0.010548
0.016284
0.012771
0.017505
0.093890
0.033966
0.034409
0.034046
0.034399
0.039755
0.039447
0.039759
-0.008178
0.070916
0.050510
0.123818
-0.084309
-0.105518
-0.073757
-0.111237
0.024900
0.025630
0.025342
0.024032
0.032376
0.030271
0.032482
0.017638
0.015042
0.016342
0.013229
0.026489
0.027013
-0.047551
0.026349
0.028683
0.027734
0.025900
0.029580
0.034614
0.033287
0.033985
0.034333
-0.068025
-0.074067
-0.166309
0.026815
0.026351
0.026659
0.026283
0.021068
0.018996
0.021099
0.020183
0.042765
0.052792
0.055055
0.018840
0.019145
0.019123
0.035736
0.044586
0.033380
0.031387
0.031621
0.032643
0.031553
0.032924
0.027640
0.027688
0.026277
0.025818
-0.024957
-0.017865
-0.019803
-0.040183
0.031574
0.031268
0.031929
0.031581
0.056917
0.042091
0.052439
0.041439
0.038746
0.038280
0.038433
0.046174
-0.033382
0.006334
0.046047
0.037464
0.036864
0.037412
0.037278
0.040659
-0.018023
0.033039
0.031523
0.034640
0.034008
0.011473
0.028244
0.028321
0.027668
0.027170
0.030602
0.027903
0.028577
0.039284
0.039186
0.038548
0.038886
0.082028
0.042864
0.121251
0.047364
0.028324
0.516423
0.749799
0.425330
0.032122
0.032286
0.032574
0.151101
0.041201
0.030337
0.040309
0.034866
-0.018835
0.005927
-0.002182
0.010651
0.035192
0.034718
0.037603
0.031033
0.031775
0.031000
0.031756
0.042750
0.027469
0.031109
0.030655
0.015748
0.015555
0.015376
0.012412
0.014300
0.012828
0.036037
0.037635
0.037224
0.037082
-0.026297
-0.000443
-0.025233
0.038859
0.039365
0.039037
0.039321
0.035023
0.034567
0.034945
0.034265
0.027722
0.027038
0.027479
0.027314
0.029544
0.029401
0.028833
0.030158
0.026000
0.025916
0.023187
0.040595
0.028628
0.028688
-0.041759
-0.044459
-0.041624
-0.043176
0.021706
0.021772
0.022078
0.021344
0.026953
0.027368
0.027374
0.021062
0.021257
0.006408
0.008707
0.007631
0.036831
0.036108
0.036236
0.036895
0.036227
0.035080
0.019533
0.027858
0.027747
0.027985
-0.052149
-0.049734
-0.059132
-0.052590
0.026149
0.026284
0.026839
0.025444
0.031785
0.032441
0.032178
0.035655
0.034148
0.033911
0.033657
0.033467
-0.046574
0.266378
0.416698
0.072470
0.024710
0.024572
0.024495
0.030947
0.030313
0.030168
0.029482
0.025262
0.025639
0.024604
0.025148
0.016244
0.029210
0.039446
0.000261
0.004253
0.003966
0.003088
-0.006186
-0.007545
-0.007455
-0.006298
0.030069
0.030014
0.032352
0.031115
0.031426
-0.012021
0.027629
0.027720
0.028267
0.028098
-0.099629
-0.035291
-0.084525
-0.083753
0.023053
0.022569
0.022592
0.023031
0.027041
0.026156
0.026598
0.025868
0.018121
0.017672
0.018331
0.018058
0.028616
0.029407
0.029093
0.029300
0.064116
0.023255
0.074337
-0.003060
-0.003295
-0.006964
-0.000231
-0.073476
-0.068226
-0.018935
-0.014862
-0.019903
0.021548
0.022054
0.021552
0.022063
0.030013
0.028464
0.029606
0.028291
0.009394
0.010545
0.006842
0.013009
0.030957
0.029882
0.029771
0.028491
0.028007
0.026226
0.028255
0.026214
0.018811
0.019447
0.018841
0.019025
0.052928
-0.072502
0.023718
0.038690
0.034465
0.035138
0.033681
0.035840
0.033120
0.034283
0.035938
0.000727
-0.021105
0.012996
-0.034465
0.025910
0.025627
0.026775
0.037918
0.025118
0.025024
0.025730
0.024749
0.035987
0.035616
0.035451
0.034987
0.039518
0.023624
0.041449
0.043978
0.028334
0.031609
0.025517
0.025224
0.025497
0.025721
0.026161
0.026638
0.026913
0.025939
0.053266
0.103972
0.013468
0.031210
0.030741
0.031166
0.010032
0.010176
0.010021
0.011262
0.016368
0.019067
0.019257
0.019502
0.029596
0.031096
0.030569
0.031599
0.038446
0.038455
0.038063
0.038133
0.031993
0.031354
0.031518
0.032185
0.035772
0.034798
0.041711
0.045608
0.054294
0.036018
0.032531
0.031865
0.032483
0.049435
0.040857
0.023914
0.010034
0.013347
0.013919
0.017775
0.027748
0.027096
0.026337
0.037163
0.037694
0.037365
0.037524
0.037997
0.037525
0.037374
0.022188
0.022607
0.038044
0.043468
0.042964
0.043090
0.042602
-0.097657
-0.670278
-0.570914
0.030192
0.027406
0.028664
0.027190
0.028552
0.006083
0.006104
0.006301
0.006147
0.011685
0.024895
0.035146
-0.037539
0.015401
0.016002
0.015719
0.015415
0.019364
0.018425
0.019133
0.019167
0.044837
0.045378
0.045882
0.015927
0.016116
0.015530
0.029969
0.029840
0.029634
0.029288
0.039403
0.044974
0.044958
0.045569
0.032757
0.033225
0.031595
0.034142
0.025300
0.025745
0.025212
0.044440
0.037108
0.037222
0.036580
0.030394
0.030842
0.030747
0.031297
0.028878
0.027326
0.024080
0.023624
0.023933
0.023606
0.017371
0.017990
0.016804
0.018234
0.015102
0.014250
0.028087
0.028356
0.028509
0.036400
0.024863
0.025125
0.025308
0.024827
0.011181
0.013970
0.043963
0.042135
0.041919
0.016818
0.017037
0.017176
0.041124
-0.091677
-0.090083
-0.088918
0.039707
0.039337
0.039882
0.039696
0.030325
0.027947
0.032443
0.022179
0.021676
0.032478
0.033656
0.032539
0.040775
0.040348
0.040464
0.040067
0.038167
0.038275
0.037774
0.027659
0.027863
0.027813
0.027931
0.039341
0.038733
0.039491
0.038805
0.053753
0.066139
0.047943
0.043684
0.044188
0.043879
0.029213
0.030582
0.030948
0.044504
0.372131
0.560143
0.547765
0.029051
0.030845
0.030675
0.031108
0.038272
-0.028102
-0.023612
-0.024358
0.020741
0.019375
0.022077
0.544732
0.044780
0.044180
0.045557
0.035040
0.034875
0.034677
0.034551
0.037963
0.037644
0.038584
0.031654
0.031671
0.032830
0.038268
0.044198
0.044640
0.044373
0.047032
0.047551
0.047479
0.035492
0.033729
0.034307
0.039800
0.039395
0.040540
0.024601
0.025174
0.038874
-0.043260
-0.041163
-0.040048
0.038074
0.038646
0.038205
0.053815
0.038564
0.030879
0.030360
-0.002219
0.060657
0.104644
0.026734
0.027792
0.052713
0.012604
0.012805
0.012943
0.024607
0.024934
0.024976
0.033685
0.034011
0.034011
0.024546
0.029092
0.039606
0.039233
0.032156