# vtk DataFile Version 2.0
Test
ASCII
DATASET POLYDATA
POINTS 20431 float
0.000000 0.000000 0.000000
2.000000 0.000000 0.000000
2.000000 4.000000 0.000000
0.000000 4.000000 0.000000
0.000000 0.500000 0.000000
1.500000 2.000000 0.000000
2.000000 2.500000 0.000000
0.400000 0.000000 0.000000
0.800000 0.000000 0.000000
1.200000 0.000000 0.000000
1.600000 0.000000 0.000000
2.000000 0.362557 0.000000
2.000000 0.672798 0.000000
2.000000 0.938272 0.000000
2.000000 1.165439 0.000000
2.000000 1.359826 0.000000
2.000000 1.526163 0.000000
2.000000 1.668499 0.000000
2.000000 1.790295 0.000000
2.000000 1.894517 0.000000
2.000000 1.983700 0.000000
2.000000 2.060013 0.000000
2.000000 2.125315 0.000000
2.000000 2.181194 0.000000
2.000000 2.229010 0.000000
2.000000 2.269926 0.000000
2.000000 2.304938 0.000000
2.000000 2.334898 0.000000
2.000000 2.360534 0.000000
2.000000 2.382472 0.000000
2.000000 2.401244 0.000000
2.000000 2.417307 0.000000
2.000000 2.431052 0.000000
2.000000 2.442814 0.000000
2.000000 2.452878 0.000000
2.000000 2.461491 0.000000
2.000000 2.468860 0.000000
2.000000 2.475167 0.000000
2.000000 2.480563 0.000000
2.000000 2.485180 0.000000
2.000000 2.489132 0.000000
2.000000 2.492513 0.000000
2.000000 2.495406 0.000000
2.000000 2.497882 0.000000
2.000000 2.502286 0.000000
2.000000 2.505266 0.000000
2.000000 2.509150 0.000000
2.000000 2.514212 0.000000
2.000000 2.520809 0.000000
2.000000 2.529407 0.000000
2.000000 2.540613 0.000000
2.000000 2.555218 0.000000
2.000000 2.574253 0.000000
2.000000 2.599061 0.000000
2.000000 2.631395 0.000000
2.000000 2.673536 0.000000
2.000000 2.728460 0.000000
2.000000 2.800043 0.000000
2.000000 2.893339 0.000000
2.000000 3.014933 0.000000
2.000000 3.173410 0.000000
2.000000 3.379956 0.000000
2.000000 3.649152 0.000000
1.600000 4.000000 0.000000
1.200000 4.000000 0.000000
0.800000 4.000000 0.000000
0.400000 4.000000 0.000000
0.000000 3.624996 0.000000
0.000000 3.289970 0.000000
0.000000 2.990661 0.000000
0.000000 2.723261 0.000000
0.000000 2.484368 0.000000
0.000000 2.270943 0.000000
0.000000 2.080271 0.000000
0.000000 1.909926 0.000000
0.000000 1.757741 0.000000
0.000000 1.621780 0.000000
0.000000 1.500314 0.000000
0.000000 1.391797 0.000000
0.000000 1.294849 0.000000
0.000000 1.208237 0.000000
0.000000 1.130858 0.000000
0.000000 1.061728 0.000000
0.000000 0.999968 0.000000
0.000000 0.944792 0.000000
0.000000 0.895499 0.000000
0.000000 0.851460 0.000000
0.000000 0.812117 0.000000
0.000000 0.776968 0.000000
0.000000 0.745565 0.000000
0.000000 0.717511 0.000000
0.000000 0.692448 0.000000
0.000000 0.670056 0.000000
0.000000 0.650052 0.000000
0.000000 0.632180 0.000000
0.000000 0.616213 0.000000
0.000000 0.601949 0.000000
0.000000 0.589205 0.000000
0.000000 0.577820 0.000000
0.000000 0.567649 0.000000
0.000000 0.558562 0.000000
0.000000 0.550444 0.000000
0.000000 0.543191 0.000000
0.000000 0.536712 0.000000
0.000000 0.530923 0.000000
0.000000 0.525751 0.000000
0.000000 0.521131 0.000000
0.000000 0.517003 0.000000
0.000000 0.513315 0.000000
0.000000 0.510021 0.000000
0.000000 0.507078 0.000000
0.000000 0.504448 0.000000
0.000000 0.502099 0.000000
0.000000 0.497804 0.000000
0.000000 0.494785 0.000000
0.000000 0.490633 0.000000
0.000000 0.484924 0.000000
0.000000 0.477074 0.000000
0.000000 0.466279 0.000000
0.000000 0.451436 0.000000
0.000000 0.431025 0.000000
0.000000 0.402959 0.000000
0.000000 0.364366 0.000000
0.000000 0.311297 0.000000
0.000000 0.238324 0.000000
0.000000 0.137980 0.000000
0.001414 0.501414 0.000000
0.002828 0.502828 0.000000
0.004241 0.504241 0.000000
0.005655 0.505655 0.000000
0.007069 0.507069 0.000000
0.008483 0.508483 0.000000
0.009896 0.509896 0.000000
0.011310 0.511310 0.000000
0.012724 0.512724 0.000000
0.014138 0.514138 0.000000
0.015551 0.515551 0.000000
0.016965 0.516965 0.000000
0.018379 0.518379 0.000000
0.019793 0.519793 0.000000
0.021206 0.521206 0.000000
0.022620 0.522620 0.000000
0.024034 0.524034 0.000000
0.025448 0.525448 0.000000
0.026861 0.526861 0.000000
0.028275 0.528275 0.000000
0.029689 0.529689 0.000000
0.031103 0.531103 0.000000
0.032516 0.532516 0.000000
0.033930 0.533930 0.000000
0.035344 0.535344 0.000000
0.036758 0.536758 0.000000
0.038172 0.538172 0.000000
0.039585 0.539585 0.000000
0.040999 0.540999 0.000000
0.042413 0.542413 0.000000
0.043827 0.543827 0.000000
0.045240 0.545240 0.000000
0.046654 0.546654 0.000000
0.048068 0.548068 0.000000
0.049482 0.549482 0.000000
0.050895 0.550895 0.000000
0.052309 0.552309 0.000000
0.053723 0.553723 0.000000
0.055137 0.555137 0.000000
0.056550 0.556550 0.000000
0.057964 0.557964 0.000000
0.059378 0.559378 0.000000
0.060792 0.560792 0.000000
0.062205 0.562205 0.000000
0.063619 0.563619 0.000000
0.065033 0.565033 0.000000
0.066447 0.566447 0.000000
0.067861 0.567861 0.000000
0.069274 0.569274 0.000000
0.070688 0.570688 0.000000
0.072102 0.572102 0.000000
0.073516 0.573516 0.000000
0.074929 0.574929 0.000000
0.076343 0.576343 0.000000
0.077757 0.577757 0.000000
0.079171 0.579171 0.000000
0.080584 0.580584 0.000000
0.081998 0.581998 0.000000
0.083412 0.583412 0.000000
0.084826 0.584826 0.000000
0.086239 0.586239 0.000000
0.087653 0.587653 0.000000
0.089067 0.589067 0.000000
0.090481 0.590481 0.000000
0.091894 0.591894 0.000000
0.093308 0.593308 0.000000
0.094722 0.594722 0.000000
0.096136 0.596136 0.000000
0.097549 0.597549 0.000000
0.098963 0.598963 0.000000
0.100377 0.600377 0.000000
0.101791 0.601791 0.000000
0.103205 0.603205 0.000000
0.104618 0.604618 0.000000
0.106032 0.606032 0.000000
0.107446 0.607446 0.000000
0.108860 0.608860 0.000000
0.110273 0.610273 0.000000
0.111687 0.611687 0.000000
0.113101 0.613101 0.000000
0.114515 0.614515 0.000000
0.115928 0.615928 0.000000
0.117342 0.617342 0.000000
0.118756 0.618756 0.000000
0.120170 0.620170 0.000000
0.121583 0.621583 0.000000
0.122997 0.622997 0.000000
0.124411 0.624411 0.000000
0.125825 0.625825 0.000000
0.127238 0.627238 0.000000
0.128652 0.628652 0.000000
0.130066 0.630066 0.000000
0.131480 0.631480 0.000000
0.132893 0.632893 0.000000
0.134307 0.634307 0.000000
0.135721 0.635721 0.000000
0.137135 0.637135 0.000000
0.138549 0.638549 0.000000
0.139962 0.639962 0.000000
0.141376 0.641376 0.000000
0.142790 0.642790 0.000000
0.144204 0.644204 0.000000
0.145617 0.645617 0.000000
0.147031 0.647031 0.000000
0.148445 0.648445 0.000000
0.149859 0.649859 0.000000
0.151272 0.651272 0.000000
0.152686 0.652686 0.000000
0.154100 0.654100 0.000000
0.155514 0.655514 0.000000
0.156927 0.656927 0.000000
0.158341 0.658341 0.000000
0.159755 0.659755 0.000000
0.161169 0.661169 0.000000
0.162582 0.662582 0.000000
0.163996 0.663996 0.000000
0.165410 0.665410 0.000000
0.166824 0.666824 0.000000
0.168238 0.668238 0.000000
0.169651 0.669651 0.000000
0.171065 0.671065 0.000000
0.172479 0.672479 0.000000
0.173893 0.673893 0.000000
0.175306 0.675306 0.000000
0.176720 0.676720 0.000000
0.178134 0.678134 0.000000
0.179548 0.679548 0.000000
0.180961 0.680961 0.000000
0.182375 0.682375 0.000000
0.183789 0.683789 0.000000
0.185203 0.685203 0.000000
0.186616 0.686616 0.000000
0.188030 0.688030 0.000000
0.189444 0.689444 0.000000
0.190858 0.690858 0.000000
0.192271 0.692271 0.000000
0.193685 0.693685 0.000000
0.195099 0.695099 0.000000
0.196513 0.696513 0.000000
0.197926 0.697926 0.000000
0.199340 0.699340 0.000000
0.200754 0.700754 0.000000
0.202168 0.702168 0.000000
0.203582 0.703582 0.000000
0.204995 0.704995 0.000000
0.206409 0.706409 0.000000
0.207823 0.707823 0.000000
0.209237 0.709237 0.000000
0.210650 0.710650 0.000000
0.212064 0.712064 0.000000
0.213478 0.713478 0.000000
0.214892 0.714892 0.000000
0.216305 0.716305 0.000000
0.217719 0.717719 0.000000
0.219133 0.719133 0.000000
0.220547 0.720547 0.000000
0.221960 0.721960 0.000000
0.223374 0.723374 0.000000
0.224788 0.724788 0.000000
0.226202 0.726202 0.000000
0.227615 0.727615 0.000000
0.229029 0.729029 0.000000
0.230443 0.730443 0.000000
0.231857 0.731857 0.000000
0.233270 0.733270 0.000000
0.234684 0.734684 0.000000
0.236098 0.736098 0.000000
0.237512 0.737512 0.000000
0.238926 0.738926 0.000000
0.240339 0.740339 0.000000
0.241753 0.741753 0.000000
0.243167 0.743167 0.000000
0.244581 0.744581 0.000000
0.245994 0.745994 0.000000
0.247408 0.747408 0.000000
0.248822 0.748822 0.000000
0.250236 0.750236 0.000000
0.251649 0.751649 0.000000
0.253063 0.753063 0.000000
0.254477 0.754477 0.000000
0.255891 0.755891 0.000000
0.257304 0.757304 0.000000
0.258718 0.758718 0.000000
0.260132 0.760132 0.000000
0.261546 0.761546 0.000000
0.262959 0.762959 0.000000
0.264373 0.764373 0.000000
0.265787 0.765787 0.000000
0.267201 0.767201 0.000000
0.268615 0.768615 0.000000
0.270028 0.770028 0.000000
0.271442 0.771442 0.000000
0.272856 0.772856 0.000000
0.274270 0.774270 0.000000
0.275683 0.775683 0.000000
0.277097 0.777097 0.000000
0.278511 0.778511 0.000000
0.279925 0.779925 0.000000
0.281338 0.781338 0.000000
0.282752 0.782752 0.000000
0.284166 0.784166 0.000000
0.285580 0.785580 0.000000
0.286993 0.786993 0.000000
0.288407 0.788407 0.000000
0.289821 0.789821 0.000000
0.291235 0.791235 0.000000
0.292648 0.792648 0.000000
0.294062 0.794062 0.000000
0.295476 0.795476 0.000000
0.296890 0.796890 0.000000
0.298303 0.798303 0.000000
0.299717 0.799717 0.000000
0.301131 0.801131 0.000000
0.302545 0.802545 0.000000
0.303959 0.803959 0.000000
0.305372 0.805372 0.000000
0.306786 0.806786 0.000000
0.308200 0.808200 0.000000
0.309614 0.809614 0.000000
0.311027 0.811027 0.000000
0.312441 0.812441 0.000000
0.313855 0.813855 0.000000
0.315269 0.815269 0.000000
0.316682 0.816682 0.000000
0.318096 0.818096 0.000000
0.319510 0.819510 0.000000
0.320924 0.820924 0.000000
0.322337 0.822337 0.000000
0.323751 0.823751 0.000000
0.325165 0.825165 0.000000
0.326579 0.826579 0.000000
0.327992 0.827992 0.000000
0.329406 0.829406 0.000000
0.330820 0.830820 0.000000
0.332234 0.832234 0.000000
0.333648 0.833648 0.000000
0.335061 0.835061 0.000000
0.336475 0.836475 0.000000
0.337889 0.837889 0.000000
0.339303 0.839303 0.000000
0.340716 0.840716 0.000000
[...]
POINT_DATA 20431
SCALARS UX float 1
LOOKUP_TABLE default
-0.000000
0.000000
-0.002863
-0.008954
-0.003057
-0.000766
-0.001379
-0.000000
-0.000000
0.000000
-0.000000
0.002282
0.003063
0.003442
0.003618
0.003670
0.003588
0.003352
0.002952
0.002429
0.001830
0.001260
0.000757
0.000340
0.000002
-0.000265
-0.000476
-0.000645
-0.000780
-0.000889
-0.000978
-0.001050
-0.001110
-0.001159
-0.001200
-0.001235
-0.001264
-0.001288
-0.001308
-0.001325
-0.001340
-0.001352
-0.001363
-0.001372
-0.001387
-0.001398
-0.001411
-0.001429
-0.001451
-0.001480
-0.001516
-0.001562
-0.001619
-0.001689
-0.001772
-0.001873
-0.001990
-0.002121
-0.002267
-0.002418
-0.002562
-0.002712
-0.002815
-0.004254
-0.005547
-0.006724
-0.007842
-0.008851
-0.008643
-0.008362
-0.008089
-0.007888
-0.007784
-0.007786
-0.007868
-0.008011
-0.008174
-0.008343
-0.008503
-0.008646
-0.008769
-0.008871
-0.008953
-0.009018
-0.009066
-0.009102
-0.009126
-0.009140
-0.009145
-0.009145
-0.009139
-0.009129
-0.009113
-0.009095
-0.009076
-0.009057
-0.009035
-0.009010
-0.008975
-0.008937
-0.008896
-0.008857
-0.008805
-0.008767
-0.008720
-0.008684
-0.008683
-0.008637
-0.008386
-0.007683
-0.006357
-0.004293
-0.003636
-0.002860
-0.002606
-0.002472
-0.002344
-0.002272
-0.002210
-0.002147
-0.002078
-0.002002
-0.001900
-0.001743
-0.001489
-0.001025
-0.003343
-0.003247
-0.002396
-0.003315
-0.003232
-0.003173
-0.003149
-0.003032
-0.003065
-0.003085
-0.003013
-0.002883
-0.003567
-0.003910
-0.004349
-0.005542
-0.005724
-0.005673
-0.005285
-0.005483
-0.005639
-0.005635
-0.005543
-0.005418
-0.005515
-0.005499
-0.005418
-0.005170
-0.004356
-0.004578
-0.004533
-0.004514
-0.004520
-0.004512
-0.004539
-0.004400
-0.004493
-0.004561
-0.004488
-0.004461
-0.004248
-0.004231
-0.004920
-0.005458
-0.005378
-0.005378
-0.005286
-0.005470
-0.005511
-0.005523
-0.004427
-0.004336
-0.004278
-0.004247
-0.004259
-0.004073
-0.004285
-0.004231
-0.004249
-0.004178
-0.004142
-0.004117
-0.004539
-0.004560
-0.004475
-0.004473
-0.004510
-0.004551
-0.004584
-0.004485
-0.004549
-0.004602
-0.004547
-0.004590
-0.004565
-0.004600
-0.004680
-0.004848
-0.004744
-0.004684
-0.004614
-0.004609
-0.004383
-0.004632
-0.004575
-0.004193
-0.004262
-0.004270
-0.004238
-0.004235
-0.004100
-0.004046
-0.004142
-0.004107
-0.004122
-0.004078
-0.004131
-0.004119
-0.004088
-0.004044
-0.004060
-0.004069
-0.006050
-0.005171
-0.005126
-0.005161
-0.005142
-0.005090
-0.005144
-0.005151
-0.005156
-0.005257
-0.005331
-0.005276
-0.005225
-0.005192
-0.005188
-0.005419
-0.005459
-0.005391
-0.005464
-0.005426
-0.005410
-0.004524
-0.004483
-0.004435
-0.004426
-0.004449
-0.004487
-0.004442
-0.004435
-0.005039
-0.004999
-0.005058
-0.005046
-0.005028
-0.004955
-0.004888
-0.004880
-0.004435
-0.004433
-0.004461
-0.004439
-0.004399
-0.004395
-0.004409
-0.004416
-0.004471
-0.004427
-0.004613
-0.004552
-0.004542
-0.004459
-0.004548
-0.004505
-0.004452
-0.004491
-0.004513
-0.004500
-0.004382
-0.004359
-0.004373
-0.004306
-0.004226
-0.004164
-0.004115
-0.004047
-0.003977
-0.004131
-0.004758
-0.004729
-0.004584
-0.005208
-0.005073
-0.004921
-0.005327
-0.005497
-0.005414
-0.005410
-0.005422
-0.005431
-0.005423
-0.005352
-0.005354
-0.005291
-0.005328
-0.005323
-0.005220
-0.005178
-0.005237
-0.005264
-0.005331
-0.005317
-0.005277
-0.005259
-0.005313
-0.005289
-0.005298
-0.005334
-0.005289
-0.005265
-0.005303
-0.005257
-0.005245
-0.005171
-0.005232
-0.005252
-0.005203
-0.005158
-0.005240
-0.005081
-0.004975
-0.005009
-0.005002
-0.004964
-0.004987
-0.004993
-0.005022
-0.004982
-0.004978
-0.005024
-0.004942
-0.004686
-0.004823
-0.004972
-0.005105
-0.004811
-0.004851
-0.004894
-0.004829
-0.004832
-0.004805
-0.004861
-0.004859
-0.004920
-0.004890
-0.004842
-0.004900
-0.004906
-0.004898
-0.004615
-0.004548
-0.004549
-0.004507
-0.004554
-0.004468
-0.004413
-0.004518
-0.004467
-0.004447
-0.004398
-0.004377
-0.004502
-0.004437
-0.004384
-0.004069
-0.003857
-0.003920
-0.003907
-0.003841
-0.003839
-0.003897
-0.003876
-0.003828
-0.003932
-0.003954
-0.003912
-0.003870
-0.004077
-0.004042
-0.004035
-0.004061
-0.004064
-0.004104
-0.004109
-0.004160
-0.004095
-0.004128
-0.004129
-0.004211
-0.004245
-0.004292
-0.004218
-0.004259
-0.004219
-0.004110
-0.004187
-0.004308
-0.004277
-0.004249
-0.004112
-0.004226
-0.004269
-0.004318
-0.004261
-0.003845
-0.003837
-0.003840
-0.003797
-0.003784
-0.003766
-0.003792
-0.003798
-0.003783
-0.003785
-0.003736
-0.003741
-0.003813
-0.003774
-0.003820
-0.003718
-0.003710
-0.003833
-0.003648
-0.003626
-0.003688
-0.003666
-0.003703
-0.003685
-0.003642
-0.003584
-0.004446
-0.003661
-0.004210
-0.004390
-0.004339
-0.004326
-0.004223
-0.004325
-0.004319
-0.004211
-0.004248
-0.004248
-0.004223
-0.004270
-0.004282
-0.004265
-0.004246
-0.004156
-0.004248
-0.004138
-0.004066
-0.003946
-0.004188
-0.004123
-0.003941
-0.004056
-0.003994
-0.004051
-0.004022
-0.003984
-0.003928
-0.003994
-0.004040
-0.003977
-0.003969
-0.004130
-0.004116
-0.004133
-0.004056
-0.004085
-0.004085
-0.004079
-0.004097
-0.004090
-0.004106
-0.004183
-0.004058
-0.004034
-0.004052
-0.004040
-0.004089
-0.004112
-0.004050
-0.004113
-0.004099
-0.004098
-0.004087
-0.004141
-0.004124
-0.004086
-0.004069
-0.004001
-0.004174
-0.004443
-0.004249
-0.004129
-0.004142
-0.004308
-0.004293
-0.004201
-0.004246
-0.004233
-0.004193
-0.004280
-0.004250
-0.004205
-0.004241
-0.004244
-0.003413
-0.003389
-0.003374
-0.003383
-0.003345
-0.003364
-0.003334
-0.003353
-0.003336
-0.003285
-0.003690
-0.003319
-0.003611
-0.003560
-0.003528
-0.003497
-0.003458
-0.003086
-0.003613
-0.003722
-0.003647
-0.003566
-0.003566
-0.003491
-0.003609
-0.003623
-0.003599
-0.003643
-0.003571
-0.003554
-0.003499
-0.003527
-0.003529
-0.003455
-0.004288
-0.004261
-0.004353
-0.004283
-0.004317
-0.004334
-0.004336
-0.004308
-0.004315
-0.004330
-0.004255
-0.004180
-0.004143
-0.004283
-0.002997
-0.004051
-0.003996
-0.003996
-0.003725
-0.003863
-0.003850
-0.003777
-0.003847
-0.003910
-0.003893
-0.003888
-0.003827
-0.003735
-0.003885
-0.003816
-0.003781
-0.003763
-0.003766
-0.003782
-0.003748
-0.003732
-0.003740
-0.003735
-0.003603
-0.003573
-0.003578
-0.003558
-0.003531
-0.003572
-0.003547
-0.003547
-0.003566
-0.003600
-0.003516
-0.003452
-0.003419
-0.003493
-0.003587
-0.003590
-0.003460
-0.003426
-0.003403
-0.003392
-0.003362
-0.003331
-0.003024
-0.003155
-0.003148
-0.003101
-0.003461
-0.003430
-0.003392
-0.003489
-0.003432
-0.003616
-0.003624
-0.003554
-0.003424
-0.003396
-0.003389
-0.003404
-0.003375
-0.003364
-0.003393
-0.003385
-0.003392
-0.003334
-0.003335
-0.003404
-0.003312
-0.003333
-0.003327
-0.003317
-0.003299
-0.003268
-0.003340
-0.003244
-0.003269
-0.003264
-0.003219
-0.003212
-0.003215
-0.003294
-0.003254
-0.003253
-0.003418
-0.003280
-0.003220
-0.003198
-0.003286
-0.003261
-0.003265
-0.003196
-0.003236
-0.003210
-0.003050
-0.003011
-0.003325
-0.003325
-0.003322
-0.003294
-0.003266
-0.003263
-0.003197
-0.003153
-0.003105
-0.003106
-0.003105
-0.003057
-0.003022
-0.003021
-0.003034
-0.003052
-0.002969
-0.002949
-0.003029
-0.003002
-0.003005
-0.002974
-0.003053
-0.003081
-0.003047
-0.003020
-0.002980
-0.003030
-0.003145
-0.003165
-0.003128
-0.003055
-0.003094
-0.003180
-0.003165
-0.003171
-0.003144
-0.003071
-0.003132
-0.003278
-0.003200
-0.003152
-0.003393
-0.003411
-0.003410
-0.003442
-0.003437
-0.003414
-0.003415
-0.003445
-0.003392
-0.003369
-0.003449
-0.003437
-0.003431
-0.003415
-0.003423
-0.003369
-0.003327
-0.003316
-0.003320
-0.003319
-0.003278
-0.003298
-0.003244
-0.003200
-0.003184
-0.003052
-0.003139
-0.003156
-0.003120
-0.003082
-0.002619
-0.002766
-0.002733
-0.002601
-0.002606
-0.002657
-0.002671
-0.002607
-0.002583
-0.002711
-0.002683
-0.002859
-0.002462
-0.002428
-0.002366
-0.002415
-0.002362
-0.002270
-0.002309
-0.002218
-0.002205
-0.002185
-0.002170
-0.002141
-0.002197
-0.002148
-0.002136
-0.001757
-0.001600
-0.001701
-0.001686
-0.001761
-0.001756
-0.001786
-0.001547
-0.001589
-0.001604
-0.001609
-0.001585
-0.001588
-0.001812
-0.001797
-0.002757
-0.002708
-0.002755
-0.002705
-0.003204
-0.003071
-0.003054
-0.003149
-0.003193
-0.003070
-0.003053
-0.003065
-0.003040
-0.003013
-0.003000
-0.002927
-0.002968
-0.002993
-0.003115
-0.003081
-0.003039
-0.002502
-0.002670
-0.001978
-0.001877
-0.001878
-0.003218
-0.003203
-0.003179
-0.002528
-0.002542
-0.002538
-0.002566
-0.002566
-0.002500
-0.002555
-0.002518
-0.002532
-0.002544
-0.002607
-0.002573
-0.002550
-0.002487
-0.001111
-0.001222
-0.001224
-0.001185
-0.001212
-0.001207
-0.001103
-0.001117
-0.001765
-0.002714
-0.002663
-0.002608
-0.002880
-0.002836
-0.002837
-0.002822
-0.002778
-0.002810
-0.002780
-0.002732
-0.002713
-0.002756
-0.002476
-0.002447
-0.002455
-0.002434
-0.002434
-0.002428
-0.002433
-0.002429
-0.002413
-0.002400
-0.002405
-0.002340
-0.002400
-0.002418
-0.002410
-0.002419
-0.002337
-0.002312
-0.002305
-0.002257
-0.002178
-0.002195
-0.002159
-0.002191
-0.002180
-0.002184
-0.002145
-0.002195
-0.002163
-0.002115
-0.002132
-0.002159
-0.002145
-0.002075
-0.002123
-0.002050
-0.002086
-0.001893
-0.001862
-0.001836
-0.001913
-0.001833
-0.001763
-0.001760
-0.002035
-0.001999
-0.002036
-0.001962
-0.001980
-0.001962
-0.001955
-0.001913
-0.001898
-0.001946
-0.001931
-0.001932
-0.001855
-0.001841
-0.001810
-0.001783
-0.001704
-0.001893
-0.001829
-0.001820
-0.001852
-0.001860
-0.001834
-0.001806
-0.001786
-0.001841
-0.001882
-0.001782
-0.001516
-0.001597
-0.002849
-0.001618
-0.001808
-0.001576
-0.001538
-0.001537
-0.001492
-0.001515
-0.001505
-0.001502
-0.001535
-0.001487
-0.001500
-0.001500
-0.001557
-0.001450
-0.001412
-0.001377
-0.002098
-0.002171
-0.002137
-0.002091
-0.002088
-0.002081
-0.002041
-0.001989
-0.001985
-0.001984
-0.002013
-0.001986
-0.001921
-0.001957
-0.001977
-0.001953
-0.001782
-0.001709
-0.001728
-0.001755
-0.001745
-0.001861
-0.001923
-0.001945
-0.001874
-0.001817
-0.001795
-0.001931
-0.001655
-0.001596
-0.001582
-0.001566
-0.001597
-0.001570
-0.001535
-0.001525
-0.001526
-0.001528
-0.001585
-0.001472
-0.001424
-0.001175
-0.001196
-0.001083
-0.000896
-0.001259
-0.001135
-0.001061
-0.001070
-0.002030
-0.002012
-0.001852
-0.003476
-0.002017
-0.002007
-0.001997
-0.001154
-0.001579
-0.001523
-0.001469
-0.001445
-0.001474
-0.001508
-0.001445
-0.001387
-0.001401
-0.001497
-0.001434
-0.002052
-0.001489
-0.001566
-0.001556
-0.001451
-0.001689
-0.001770
-0.001749
-0.001749
-0.001638
-0.001735
-0.001745
-0.001749
-0.001759
-0.001993
-0.002004
-0.002015
-0.002010
-0.002017
-0.001985
-0.001527
-0.001531
-0.001517
-0.001486
-0.001467
-0.001505
-0.001500
-0.001485
-0.001474
-0.001467
-0.001455
-0.001468
-0.001466
-0.001367
-0.001450
-0.001406
-0.001461
-0.001475
-0.001536
-0.001453
-0.001421
-0.001459
-0.001478
-0.001488
-0.001493
-0.001476
-0.001449
-0.001391
-0.001411
-0.001397
-0.001339
-0.001355
-0.001551
-0.001584
-0.001543
-0.001500
-0.001314
-0.001270
-0.001258
-0.001281
-0.001230
-0.001260
-0.001252
-0.001297
-0.001260
-0.001417
-0.001323
-0.001247
-0.001220
-0.001401
-0.001402
-0.001402
-0.001367
-0.001399
-0.001400
-0.001423
-0.001400
-0.001350
-0.001280
-0.001356
-0.001356
-0.001370
-0.001406
-0.001411
-0.001343
-0.001310
-0.001362
-0.001391
-0.001380
-0.001366
-0.001354
-0.001244
-0.001257
-0.001265
-0.001268
-0.001225
-0.001207
-0.001239
-0.001216
-0.001210
-0.001215
-0.001199
-0.001200
-0.001168
-0.001171
-0.001186
-0.001169
-0.001151
-0.001149
-0.001167
-0.001205
-0.001169
-0.001142
-0.001166
-0.001144
-0.001157
-0.001131
-0.001108
-0.001109
-0.001121
-0.001057
-0.001095
-0.001096
-0.001100
-0.001070
-0.001129
-0.001149
-0.001126
-0.001113
-0.001091
-0.001133
-0.001126
-0.001122
-0.001116
-0.001098
-0.001104
-0.001080
-0.001100
-0.001097
-0.001108
-0.000977
-0.001061
-0.001053
-0.001058
-0.001029
-0.001046
-0.001048
-0.001042
-0.001012
-0.000996
-0.001019
-0.001031
-0.001001
-0.000613
-0.000566
-0.002669
0.000821
-0.000892
-0.000896
-0.000876
-0.000895
-0.000889
-0.000869
-0.000847
-0.000829
-0.000753
-0.000646
-0.000734
-0.000730
-0.000729
-0.000887
-0.000878
-0.000861
-0.000837
-0.000816
-0.000794
-0.000783
-0.000784
-0.000789
-0.000796
-0.000803
-0.000812
-0.000820
-0.000830
-0.000839
-0.000848
-0.000857
-0.000866
-0.000874
-0.000883
-0.000892
-0.000899
-0.000907
-0.000914
-0.000921
-0.000928
-0.000935
-0.000942
-0.000948
-0.000954
-0.000960
-0.000966
-0.000971
-0.000976
-0.000982
-0.000987
-0.000992
-0.000996
-0.001001
-0.001006
-0.001010
-0.001014
-0.001018
-0.001023
-0.001027
-0.001030
-0.001034
-0.001038
-0.001042
-0.001045
-0.001050
-0.001054
-0.001058
-0.001062
-0.001066
-0.001070
-0.001073
-0.001077
-0.001080
-0.001083
-0.001087
-0.001090
-0.001093
-0.001095
-0.001098
-0.001101
-0.001104
-0.001106
-0.001109
-0.001112
-0.001114
-0.001117
-0.001119
-0.001121
-0.001124
-0.001126
-0.001128
-0.001130
-0.001133
-0.001135
-0.001137
-0.001139
-0.001141
-0.001143
-0.001145
-0.001147
-0.001149
-0.001151
-0.001153
-0.001155
-0.001157
-0.001159
-0.001161
-0.001163
-0.001165
-0.001167
-0.001168
-0.001170
-0.001172
-0.001174
-0.001176
-0.001177
-0.001179
-0.001181
-0.001183
-0.001185
-0.001186
-0.001188
-0.001190
-0.001192
-0.001193
-0.001195
-0.001197
-0.001199
-0.001200
-0.001202
-0.001204
-0.001206
-0.001207
-0.001209
-0.001211
-0.001213
-0.001214
-0.001216
-0.001218
-0.001219
-0.001221
-0.001223
-0.001225
-0.001226
-0.001228
-0.001230
-0.001231
-0.001233
-0.001235
-0.001236
-0.001238
-0.001240
-0.001241
-0.001243
-0.001245
-0.001246
-0.001248
-0.001250
-0.001252
-0.001253
-0.001255
-0.001257
-0.001258
-0.001260
-0.001262
-0.001263
-0.001265
-0.001267
-0.001268
-0.001270
-0.001272
-0.001273
-0.001275
-0.001277
-0.001278
-0.001280
-0.001282
-0.001283
-0.001285
-0.001287
-0.001288
-0.001290
-0.001292
-0.001293
-0.001295
-0.001297
-0.001298
-0.001300
-0.001302
-0.001303
-0.001305
-0.001307
-0.001308
-0.001310
-0.001311
-0.001313
-0.001315
-0.001316
-0.001318
-0.001320
-0.001321
-0.001323
-0.001324
-0.001326
-0.001328
-0.001329
-0.001331
-0.001332
-0.001334
-0.001335
-0.001337
-0.001338
-0.001340
-0.001341
-0.001343
-0.001344
-0.001346
-0.001348
-0.001349
-0.001350
-0.001352
-0.001353
-0.001355
-0.001356
-0.001358
-0.001359
-0.001361
-0.001362
-0.001363
-0.001365
-0.001366
-0.001368
-0.001369
-0.001370
-0.001372
-0.001373
-0.001374
-0.001376
-0.001377
-0.001378
-0.001380
-0.001381
-0.001382
-0.001383
-0.001385
-0.001386
-0.001387
-0.001388
-0.001389
-0.001390
-0.001392
-0.001393
-0.001394
-0.001395
-0.001396
-0.001397
-0.001398
-0.001399
-0.001400
-0.001401
-0.001402
-0.001403
-0.001404
-0.001405
-0.001406
-0.001407
-0.001408
-0.001409
-0.001410
-0.001411
-0.001411
-0.001412
-0.001413
-0.001414
-0.001415
-0.001415
-0.001416
-0.001417
-0.001417
-0.001418
-0.001419
-0.001419
-0.001420
-0.001421
-0.001421
-0.001422
-0.001422
-0.001423
-0.001423
-0.001424
-0.001424
-0.001424
-0.001425
-0.001425
-0.001426
-0.001426
-0.001426
-0.001427
-0.001427
-0.001427
-0.001427
-0.001427
-0.001428
-0.001428
-0.001428
-0.001428
-0.001428
-0.001428
-0.001428
-0.001428
-0.001428
-0.001428
-0.001428
-0.001428
-0.001428
-0.001428
-0.001428
-0.001427
-0.001427
-0.001427
-0.001427
-0.001427
-0.001426
-0.001426
-0.001426
-0.001425
-0.001425
-0.001424
-0.001424
-0.001423
-0.001423
-0.001422
-0.001422
-0.001421
-0.001421
-0.001420
-0.001420
-0.001419
-0.001418
-0.001417
-0.001417
-0.001416
-0.001415
-0.001414
-0.001414
-0.001413
-0.001412
-0.001411
-0.001410
-0.001409
-0.001408
-0.001407
-0.001406
-0.001405
-0.001404
-0.001403
-0.001402
-0.001401
-0.001399
-0.001398
-0.001397
-0.001396
-0.001394
-0.001393
-0.001392
-0.001391
-0.001389
-0.001388
-0.001386
-0.001385
-0.001384
-0.001382
-0.001381
-0.001290
-0.001301
-0.001312
-0.001211
-0.001194
-0.001202
-0.007044
-0.007137
-0.007178
-0.007271
-0.004667
-0.001422
-0.001398
-0.001413
-0.001395
-0.001328
-0.001347
-0.001330
-0.004728
-0.004463
-0.005494
-0.004683
-0.007185
-0.007218
-0.006537
-0.006396
-0.005218
-0.004499
-0.004767
-0.003450
-0.003539
-0.003440
-0.003499
-0.006008
-0.006010
-0.006316
-0.006337
-0.002710
-0.003298
-0.002669
-0.003520
-0.006185
-0.006226
-0.006167
-0.006217
-0.001850
-0.001929
-0.001901
-0.001855
-0.007673
-0.007366
-0.006538
-0.003835
-0.003809
-0.003784
-0.003711
-0.004256
-0.004478
-0.004442
-0.004622
-0.004601
-0.004562
-0.004562
-0.006851
-0.006778
-0.006813
-0.005352
-0.005365
-0.005435
-0.005444
-0.001822
-0.001757
-0.001816
-0.001732
-0.005312
-0.005284
-0.005297
-0.005257
-0.003941
-0.003970
-0.004017
-0.003849
-0.003838
-0.003845
-0.003980
-0.003585
-0.005530
-0.005592
-0.005604
-0.005653
-0.001349
-0.001373
-0.001369
-0.006438
-0.006506
-0.006405
-0.004587
-0.001419
-0.001452
-0.001425
-0.001426
-0.002939
-0.002766
-0.002976
-0.005058
-0.005096
-0.005117
-0.002510
-0.004134
-0.004143
-0.004174
-0.005023
-0.002855
-0.002901
-0.002930
-0.001480
-0.001481
-0.001520
-0.001496
-0.002124
-0.001915
-0.002461
-0.002113
-0.002947
-0.007526
-0.007756
-0.007562
-0.001462
-0.001459
-0.001440
-0.007737
-0.006957
-0.007101
-0.007074
-0.006962
-0.006813
-0.006825
-0.006883
-0.006865
-0.006056
-0.006136
-0.006055
-0.004656
-0.004649
-0.004675
-0.004668
-0.006112
-0.003085
-0.003060
-0.003201
-0.006627
-0.006683
-0.006563
-0.006965
-0.006988
-0.007004
-0.003135
-0.001484
-0.001504
-0.001516
-0.006292
-0.005196
-0.005179
-0.001361
-0.001332
-0.001348
-0.001337
-0.002514
-0.002539
-0.002541
-0.002576
-0.004885
-0.004981
-0.004929
-0.004983
-0.003049
-0.002961
-0.003073
-0.002929
-0.007600
-0.007602
-0.007656
-0.007532
-0.001437
-0.001437
-0.008705
-0.008686
-0.008669
-0.008642
-0.006529
-0.006580
-0.006437
-0.006736
-0.001455
-0.001436
-0.001430
-0.006757
-0.006547
-0.007860
-0.007886
-0.007840
-0.001492
-0.001530
-0.001528
-0.003606
-0.003578
-0.003492
-0.003438
-0.005125
-0.005148
-0.005137
-0.008323
-0.008345
-0.008438
-0.008402
-0.001488
-0.001492
-0.001455
-0.001532
-0.001473
-0.001440
-0.001446
-0.001559
-0.002547
-0.002553
-0.002591
-0.002583
-0.005374
-0.005170
-0.005161
-0.005331
-0.005673
-0.005628
-0.005737
-0.001484
-0.001517
-0.001536
-0.001565
-0.006047
-0.005995
-0.006086
-0.006000
-0.002193
-0.002373
-0.002503
-0.004293
-0.004096
-0.003950
-0.004322
-0.008200
-0.008223
-0.008184
-0.008250
-0.001444
-0.001443
-0.003335
-0.002602
-0.002439
-0.002134
-0.004920
-0.004915
-0.004857
-0.004873
-0.006577
-0.006717
-0.006568
-0.006740
-0.006186
-0.006289
-0.006341
-0.006099
-0.005631
-0.005613
-0.005646
-0.005640
-0.006980
-0.006992
-0.006925
-0.006931
-0.001536
-0.001490
-0.001499
-0.001504
-0.005725
-0.005052
-0.004998
-0.008599
-0.008689
-0.008651
-0.008570
-0.005585
-0.006607
-0.006140
-0.004307
-0.004099
-0.006391
-0.006350
-0.006409
-0.006337
-0.002581
-0.002713
-0.002693
-0.002827
-0.004377
-0.004071
-0.004256
-0.004052
-0.002115
-0.002168
-0.002204
-0.002272
-0.001733
-0.001852
-0.001743
-0.001824
-0.006782
-0.006759
-0.006799
-0.006788
-0.006308
-0.006139
-0.006167
-0.006321
-0.001817
-0.001765
-0.001855
-0.001730
-0.001903
-0.001843
-0.001735
-0.005333
-0.005183
-0.005222
-0.005231
-0.001573
-0.001605
-0.001536
-0.001395
-0.005799
-0.005842
-0.005866
-0.005774
-0.001380
-0.001397
-0.001412
-0.001431
-0.004278
-0.004224
-0.004320
-0.004255
-0.002892
-0.002765
-0.005660
-0.005645
-0.005611
-0.005610
-0.004757
-0.004826
-0.004723
-0.004870
-0.004593
-0.003957
-0.004255
-0.001444
-0.001472
-0.001452
-0.007579
-0.007592
-0.007555
-0.007552
-0.003581
-0.006891
-0.006814
-0.006824
-0.001652
-0.001576
-0.001589
-0.001536
-0.001318
-0.001320
-0.001340
-0.001340
-0.002909
-0.002918
-0.002962
-0.002848
-0.003388
-0.003454
-0.003453
-0.003411
-0.003371
-0.003272
-0.002510
-0.002584
-0.002571
-0.005074
-0.005136
-0.004887
-0.003874
-0.003812
-0.003585
-0.004714
-0.002247
-0.002271
-0.002349
-0.002330
-0.002302
-0.002297
-0.002327
-0.001473
-0.001497
-0.001510
-0.006313
-0.006163
-0.001467
-0.001226
-0.001255
-0.001250
-0.001277
-0.004884
-0.004920
-0.005495
-0.001644
-0.004080
-0.004069
-0.004110
-0.004103
-0.007974
-0.007928
-0.007922
-0.007879
-0.003128
-0.003388
-0.003455
-0.002957
-0.007094
-0.007055
-0.007109
-0.007068
-0.006993
-0.007105
-0.006957
-0.007093
-0.001227
-0.001197
-0.001160
-0.007229
-0.007216
-0.007267
-0.003462
-0.003408
-0.003483
-0.003468
-0.001346
-0.001194
-0.001198
-0.001159