# vtk DataFile Version 2.0
Test
ASCII
DATASET POLYDATA
POINTS 20431 float
0.000000 0.000000 0.000000
2.000000 0.000000 0.000000
2.000000 4.000000 0.000000
0.000000 4.000000 0.000000
0.000000 0.500000 0.000000
1.500000 2.000000 0.000000
2.000000 2.500000 0.000000
0.400000 0.000000 0.000000
0.800000 0.000000 0.000000
1.200000 0.000000 0.000000
1.600000 0.000000 0.000000
2.000000 0.362557 0.000000
2.000000 0.672798 0.000000
2.000000 0.938272 0.000000
2.000000 1.165439 0.000000
2.000000 1.359826 0.000000
2.000000 1.526163 0.000000
2.000000 1.668499 0.000000
2.000000 1.790295 0.000000
2.000000 1.894517 0.000000
2.000000 1.983700 0.000000
2.000000 2.060013 0.000000
2.000000 2.125315 0.000000
2.000000 2.181194 0.000000
2.000000 2.229010 0.000000
2.000000 2.269926 0.000000
2.000000 2.304938 0.000000
2.000000 2.334898 0.000000
2.000000 2.360534 0.000000
2.000000 2.382472 0.000000
2.000000 2.401244 0.000000
2.000000 2.417307 0.000000
2.000000 2.431052 0.000000
2.000000 2.442814 0.000000
2.000000 2.452878 0.000000
2.000000 2.461491 0.000000
2.000000 2.468860 0.000000
2.000000 2.475167 0.000000
2.000000 2.480563 0.000000
2.000000 2.485180 0.000000
2.000000 2.489132 0.000000
2.000000 2.492513 0.000000
2.000000 2.495406 0.000000
2.000000 2.497882 0.000000
2.000000 2.502286 0.000000
2.000000 2.505266 0.000000
2.000000 2.509150 0.000000
2.000000 2.514212 0.000000
2.000000 2.520809 0.000000
2.000000 2.529407 0.000000
2.000000 2.540613 0.000000
2.000000 2.555218 0.000000
2.000000 2.574253 0.000000
2.000000 2.599061 0.000000
2.000000 2.631395 0.000000
2.000000 2.673536 0.000000
2.000000 2.728460 0.000000
2.000000 2.800043 0.000000
2.000000 2.893339 0.000000
2.000000 3.014933 0.000000
2.000000 3.173410 0.000000
2.000000 3.379956 0.000000
2.000000 3.649152 0.000000
1.600000 4.000000 0.000000
1.200000 4.000000 0.000000
0.800000 4.000000 0.000000
0.400000 4.000000 0.000000
0.000000 3.624996 0.000000
0.000000 3.289970 0.000000
0.000000 2.990661 0.000000
0.000000 2.723261 0.000000
0.000000 2.484368 0.000000
0.000000 2.270943 0.000000
0.000000 2.080271 0.000000
0.000000 1.909926 0.000000
0.000000 1.757741 0.000000
0.000000 1.621780 0.000000
0.000000 1.500314 0.000000
0.000000 1.391797 0.000000
0.000000 1.294849 0.000000
0.000000 1.208237 0.000000
0.000000 1.130858 0.000000
0.000000 1.061728 0.000000
0.000000 0.999968 0.000000
0.000000 0.944792 0.000000
0.000000 0.895499 0.000000
0.000000 0.851460 0.000000
0.000000 0.812117 0.000000
0.000000 0.776968 0.000000
0.000000 0.745565 0.000000
0.000000 0.717511 0.000000
0.000000 0.692448 0.000000
0.000000 0.670056 0.000000
0.000000 0.650052 0.000000
0.000000 0.632180 0.000000
0.000000 0.616213 0.000000
0.000000 0.601949 0.000000
0.000000 0.589205 0.000000
0.000000 0.577820 0.000000
0.000000 0.567649 0.000000
0.000000 0.558562 0.000000
0.000000 0.550444 0.000000
0.000000 0.543191 0.000000
0.000000 0.536712 0.000000
0.000000 0.530923 0.000000
0.000000 0.525751 0.000000
0.000000 0.521131 0.000000
0.000000 0.517003 0.000000
0.000000 0.513315 0.000000
0.000000 0.510021 0.000000
0.000000 0.507078 0.000000
0.000000 0.504448 0.000000
0.000000 0.502099 0.000000
0.000000 0.497804 0.000000
0.000000 0.494785 0.000000
0.000000 0.490633 0.000000
0.000000 0.484924 0.000000
0.000000 0.477074 0.000000
0.000000 0.466279 0.000000
0.000000 0.451436 0.000000
0.000000 0.431025 0.000000
0.000000 0.402959 0.000000
0.000000 0.364366 0.000000
0.000000 0.311297 0.000000
0.000000 0.238324 0.000000
0.000000 0.137980 0.000000
0.001414 0.501414 0.000000
0.002828 0.502828 0.000000
0.004241 0.504241 0.000000
0.005655 0.505655 0.000000
0.007069 0.507069 0.000000
0.008483 0.508483 0.000000
0.009896 0.509896 0.000000
0.011310 0.511310 0.000000
0.012724 0.512724 0.000000
0.014138 0.514138 0.000000
0.015551 0.515551 0.000000
0.016965 0.516965 0.000000
0.018379 0.518379 0.000000
0.019793 0.519793 0.000000
0.021206 0.521206 0.000000
0.022620 0.522620 0.000000
0.024034 0.524034 0.000000
0.025448 0.525448 0.000000
0.026861 0.526861 0.000000
0.028275 0.528275 0.000000
0.029689 0.529689 0.000000
0.031103 0.531103 0.000000
0.032516 0.532516 0.000000
0.033930 0.533930 0.000000
0.035344 0.535344 0.000000
0.036758 0.536758 0.000000
0.038172 0.538172 0.000000
0.039585 0.539585 0.000000
0.040999 0.540999 0.000000
0.042413 0.542413 0.000000
0.043827 0.543827 0.000000
0.045240 0.545240 0.000000
0.046654 0.546654 0.000000
0.048068 0.548068 0.000000
0.049482 0.549482 0.000000
0.050895 0.550895 0.000000
0.052309 0.552309 0.000000
0.053723 0.553723 0.000000
0.055137 0.555137 0.000000
0.056550 0.556550 0.000000
0.057964 0.557964 0.000000
0.059378 0.559378 0.000000
0.060792 0.560792 0.000000
0.062205 0.562205 0.000000
0.063619 0.563619 0.000000
0.065033 0.565033 0.000000
0.066447 0.566447 0.000000
0.067861 0.567861 0.000000
0.069274 0.569274 0.000000
0.070688 0.570688 0.000000
0.072102 0.572102 0.000000
0.073516 0.573516 0.000000
0.074929 0.574929 0.000000
0.076343 0.576343 0.000000
0.077757 0.577757 0.000000
0.079171 0.579171 0.000000
0.080584 0.580584 0.000000
0.081998 0.581998 0.000000
0.083412 0.583412 0.000000
0.084826 0.584826 0.000000
0.086239 0.586239 0.000000
0.087653 0.587653 0.000000
0.089067 0.589067 0.000000
0.090481 0.590481 0.000000
0.091894 0.591894 0.000000
0.093308 0.593308 0.000000
0.094722 0.594722 0.000000
0.096136 0.596136 0.000000
0.097549 0.597549 0.000000
0.098963 0.598963 0.000000
0.100377 0.600377 0.000000
0.101791 0.601791 0.000000
0.103205 0.603205 0.000000
0.104618 0.604618 0.000000
0.106032 0.606032 0.000000
0.107446 0.607446 0.000000
0.108860 0.608860 0.000000
0.110273 0.610273 0.000000
0.111687 0.611687 0.000000
0.113101 0.613101 0.000000
0.114515 0.614515 0.000000
0.115928 0.615928 0.000000
0.117342 0.617342 0.000000
0.118756 0.618756 0.000000
0.120170 0.620170 0.000000
0.121583 0.621583 0.000000
0.122997 0.622997 0.000000
0.124411 0.624411 0.000000
0.125825 0.625825 0.000000
0.127238 0.627238 0.000000
0.128652 0.628652 0.000000
0.130066 0.630066 0.000000
0.131480 0.631480 0.000000
0.132893 0.632893 0.000000
0.134307 0.634307 0.000000
0.135721 0.635721 0.000000
0.137135 0.637135 0.000000
0.138549 0.638549 0.000000
0.139962 0.639962 0.000000
0.141376 0.641376 0.000000
0.142790 0.642790 0.000000
0.144204 0.644204 0.000000
0.145617 0.645617 0.000000
0.147031 0.647031 0.000000
0.148445 0.648445 0.000000
0.149859 0.649859 0.000000
0.151272 0.651272 0.000000
0.152686 0.652686 0.000000
0.154100 0.654100 0.000000
0.155514 0.655514 0.000000
0.156927 0.656927 0.000000
0.158341 0.658341 0.000000
0.159755 0.659755 0.000000
0.161169 0.661169 0.000000
0.162582 0.662582 0.000000
0.163996 0.663996 0.000000
0.165410 0.665410 0.000000
0.166824 0.666824 0.000000
0.168238 0.668238 0.000000
0.169651 0.669651 0.000000
0.171065 0.671065 0.000000
0.172479 0.672479 0.000000
0.173893 0.673893 0.000000
0.175306 0.675306 0.000000
0.176720 0.676720 0.000000
0.178134 0.678134 0.000000
0.179548 0.679548 0.000000
0.180961 0.680961 0.000000
0.182375 0.682375 0.000000
0.183789 0.683789 0.000000
0.185203 0.685203 0.000000
0.186616 0.686616 0.000000
0.188030 0.688030 0.000000
0.189444 0.689444 0.000000
0.190858 0.690858 0.000000
0.192271 0.692271 0.000000
0.193685 0.693685 0.000000
0.195099 0.695099 0.000000
0.196513 0.696513 0.000000
0.197926 0.697926 0.000000
0.199340 0.699340 0.000000
0.200754 0.700754 0.000000
0.202168 0.702168 0.000000
0.203582 0.703582 0.000000
0.204995 0.704995 0.000000
0.206409 0.706409 0.000000
0.207823 0.707823 0.000000
0.209237 0.709237 0.000000
0.210650 0.710650 0.000000
0.212064 0.712064 0.000000
0.213478 0.713478 0.000000
0.214892 0.714892 0.000000
0.216305 0.716305 0.000000
0.217719 0.717719 0.000000
0.219133 0.719133 0.000000
0.220547 0.720547 0.000000
0.221960 0.721960 0.000000
0.223374 0.723374 0.000000
0.224788 0.724788 0.000000
0.226202 0.726202 0.000000
0.227615 0.727615 0.000000
0.229029 0.729029 0.000000
0.230443 0.730443 0.000000
0.231857 0.731857 0.000000
0.233270 0.733270 0.000000
0.234684 0.734684 0.000000
0.236098 0.736098 0.000000
0.237512 0.737512 0.000000
0.238926 0.738926 0.000000
0.240339 0.740339 0.000000
0.241753 0.741753 0.000000
0.243167 0.743167 0.000000
0.244581 0.744581 0.000000
0.245994 0.745994 0.000000
0.247408 0.747408 0.000000
0.248822 0.748822 0.000000
0.250236 0.750236 0.000000
0.251649 0.751649 0.000000
0.253063 0.753063 0.000000
0.254477 0.754477 0.000000
0.255891 0.755891 0.000000
0.257304 0.757304 0.000000
0.258718 0.758718 0.000000
0.260132 0.760132 0.000000
0.261546 0.761546 0.000000
0.262959 0.762959 0.000000
0.264373 0.764373 0.000000
0.265787 0.765787 0.000000
0.267201 0.767201 0.000000
0.268615 0.768615 0.000000
0.270028 0.770028 0.000000
0.271442 0.771442 0.000000
0.272856 0.772856 0.000000
0.274270 0.774270 0.000000
0.275683 0.775683 0.000000
0.277097 0.777097 0.000000
0.278511 0.778511 0.000000
0.279925 0.779925 0.000000
0.281338 0.781338 0.000000
0.282752 0.782752 0.000000
0.284166 0.784166 0.000000
0.285580 0.785580 0.000000
0.286993 0.786993 0.000000
0.288407 0.788407 0.000000
0.289821 0.789821 0.000000
0.291235 0.791235 0.000000
0.292648 0.792648 0.000000
0.294062 0.794062 0.000000
0.295476 0.795476 0.000000
0.296890 0.796890 0.000000
0.298303 0.798303 0.000000
0.299717 0.799717 0.000000
0.301131 0.801131 0.000000
0.302545 0.802545 0.000000
0.303959 0.803959 0.000000
0.305372 0.805372 0.000000
0.306786 0.806786 0.000000
0.308200 0.808200 0.000000
0.309614 0.809614 0.000000
0.311027 0.811027 0.000000
0.312441 0.812441 0.000000
0.313855 0.813855 0.000000
0.315269 0.815269 0.000000
0.316682 0.816682 0.000000
0.318096 0.818096 0.000000
0.319510 0.819510 0.000000
0.320924 0.820924 0.000000
0.322337 0.822337 0.000000
0.323751 0.823751 0.000000
0.325165 0.825165 0.000000
0.326579 0.826579 0.000000
0.327992 0.827992 0.000000
0.329406 0.829406 0.000000
0.330820 0.830820 0.000000
0.332234 0.832234 0.000000
0.333648 0.833648 0.000000
0.335061 0.835061 0.000000
0.336475 0.836475 0.000000
0.337889 0.837889 0.000000
0.339303 0.839303 0.000000
0.340716 0.840716 0.000000
[...]
POINT_DATA 20431
SCALARS UX float 1
LOOKUP_TABLE default
-0.000000
0.000000
0.096283
-0.100429
-0.078539
0.048487
0.096940
-0.000000
-0.000000
0.000000
-0.000000
0.065664
0.085976
0.093882
0.096765
0.097803
0.098097
0.098064
0.097945
0.097807
0.097670
0.097552
0.097451
0.097366
0.097295
0.097235
0.097186
0.097145
0.097111
0.097083
0.097059
0.097039
0.097022
0.097007
0.096995
0.096985
0.096976
0.096969
0.096963
0.096957
0.096953
0.096949
0.096946
0.096943
0.096938
0.096934
0.096930
0.096924
0.096917
0.096908
0.096895
0.096879
0.096860
0.096834
0.096802
0.096762
0.096713
0.096657
0.096588
0.096515
0.096440
0.096363
0.096308
0.056907
0.017548
-0.021790
-0.061112
-0.100427
-0.100427
-0.100445
-0.100495
-0.100583
-0.100692
-0.100811
-0.100905
-0.100926
-0.100851
-0.100676
-0.100373
-0.099920
-0.099333
-0.098622
-0.097807
-0.096900
-0.095920
-0.094896
-0.093841
-0.092777
-0.091714
-0.090680
-0.089660
-0.088687
-0.087762
-0.086879
-0.086054
-0.085282
-0.084563
-0.083898
-0.083283
-0.082719
-0.082202
-0.081729
-0.081298
-0.080905
-0.080548
-0.080225
-0.079932
-0.079667
-0.079427
-0.079210
-0.079015
-0.078840
-0.078681
-0.078389
-0.078181
-0.077893
-0.077491
-0.076927
-0.076136
-0.074984
-0.073333
-0.070895
-0.067094
-0.061217
-0.051926
-0.035497
-0.078511
-0.078483
-0.078454
-0.078424
-0.078394
-0.078363
-0.078332
-0.078300
-0.078267
-0.078234
-0.078201
-0.078167
-0.078132
-0.078097
-0.078061
-0.078025
-0.077988
-0.077951
-0.077914
-0.077876
-0.077837
-0.077798
-0.077759
-0.077719
-0.077678
-0.077637
-0.077596
-0.077554
-0.077512
-0.077469
-0.077426
-0.077382
-0.077338
-0.077294
-0.077249
-0.077204
-0.077159
-0.077113
-0.077067
-0.077020
-0.076973
-0.076925
-0.076877
-0.076829
-0.076781
-0.076732
-0.076683
-0.076633
-0.076583
-0.076532
-0.076482
-0.076431
-0.076379
-0.076327
-0.076275
-0.076222
-0.076170
-0.076117
-0.076063
-0.076010
-0.075956
-0.075901
-0.075847
-0.075792
-0.075737
-0.075681
-0.075625
-0.075569
-0.075513
-0.075456
-0.075399
-0.075342
-0.075284
-0.075226
-0.075168
-0.075110
-0.075051
-0.074991
-0.074932
-0.074872
-0.074812
-0.074752
-0.074691
-0.074630
-0.074569
-0.074507
-0.074445
-0.074383
-0.074321
-0.074258
-0.074195
-0.074132
-0.074068
-0.074004
-0.073940
-0.073876
-0.073811
-0.073746
-0.073681
-0.073615
-0.073549
-0.073483
-0.073417
-0.073350
-0.073283
-0.073216
-0.073148
-0.073080
-0.073012
-0.072944
-0.072875
-0.072806
-0.072737
-0.072667
-0.072598
-0.072527
-0.072457
-0.072386
-0.072315
-0.072244
-0.072172
-0.072100
-0.072028
-0.071955
-0.071883
-0.071810
-0.071737
-0.071663
-0.071589
-0.071515
-0.071441
-0.071366
-0.071291
-0.071216
-0.071141
-0.071065
-0.070989
-0.070913
-0.070836
-0.070760
-0.070682
-0.070605
-0.070528
-0.070450
-0.070372
-0.070293
-0.070214
-0.070136
-0.070056
-0.069977
-0.069897
-0.069817
-0.069737
-0.069656
-0.069575
-0.069494
-0.069413
-0.069331
-0.069250
-0.069167
-0.069085
-0.069002
-0.068920
-0.068836
-0.068753
-0.068669
-0.068586
-0.068501
-0.068417
-0.068333
-0.068248
-0.068163
-0.068077
-0.067992
-0.067906
-0.067820
-0.067733
-0.067647
-0.067560
-0.067473
-0.067386
-0.067298
-0.067211
-0.067123
-0.067035
-0.066946
-0.066858
-0.066769
-0.066680
-0.066590
-0.066501
-0.066411
-0.066321
-0.066231
-0.066141
-0.066050
-0.065959
-0.065868
-0.065777
-0.065685
-0.065594
-0.065502
-0.065410
-0.065317
-0.065224
-0.065132
-0.065039
-0.064945
-0.064852
-0.064758
-0.064664
-0.064570
-0.064476
-0.064381
-0.064286
-0.064192
-0.064096
-0.064001
-0.063905
-0.063810
-0.063714
-0.063617
-0.063521
-0.063424
-0.063328
-0.063230
-0.063133
-0.063036
-0.062938
-0.062840
-0.062742
-0.062644
-0.062546
-0.062447
-0.062348
-0.062249
-0.062150
-0.062051
-0.061951
-0.061851
-0.061751
-0.061651
-0.061551
-0.061450
-0.061349
-0.061248
-0.061147
-0.061046
-0.060944
-0.060843
-0.060741
-0.060639
-0.060536
-0.060434
-0.060331
-0.060228
-0.060125
-0.060022
-0.059919
-0.059815
-0.059711
-0.059607
-0.059503
-0.059399
-0.059294
-0.059190
-0.059085
-0.058980
-0.058875
-0.058769
-0.058664
-0.058558
-0.058452
-0.058346
-0.058239
-0.058133
-0.058026
-0.057919
-0.057812
-0.057705
-0.057598
-0.057490
-0.057383
-0.057275
-0.057167
-0.057058
-0.056950
-0.056841
-0.056733
-0.056624
-0.056515
-0.056405
-0.056296
-0.056186
-0.056076
-0.055967
-0.055856
-0.055746
-0.055636
-0.055525
-0.055414
-0.055303
-0.055192
-0.055081
-0.054970
-0.054858
-0.054746
-0.054634
-0.054522
-0.054410
-0.054298
-0.054185
-0.054073
-0.053960
-0.053847
-0.053734
-0.053620
-0.053507
-0.053393
-0.053280
-0.053166
-0.053052
-0.052937
-0.052823
-0.052708
-0.052594
-0.052479
-0.052364
-0.052249
-0.052134
-0.052018
-0.051903
-0.051787
-0.051671
-0.051555
-0.051439
-0.051323
-0.051206
-0.051089
-0.050973
-0.050856
-0.050739
-0.050622
-0.050504
-0.050387
-0.050269
-0.050151
-0.050033
-0.049915
-0.049797
-0.049679
-0.049560
-0.049442
-0.049323
-0.049204
-0.049085
-0.048966
-0.048847
-0.048727
-0.048608
-0.048488
-0.048368
-0.048248
-0.048128
-0.048008
-0.047887
-0.047767
-0.047646
-0.047525
-0.047404
-0.047283
-0.047162
-0.047041
-0.046919
-0.046798
-0.046676
-0.046554
-0.046432
-0.046310
-0.046187
-0.046065
-0.045943
-0.045820
-0.045697
-0.045574
-0.045451
-0.045328
-0.045205
-0.045081
-0.044958
-0.044834
-0.044710
-0.044586
-0.044462
-0.044338
-0.044214
-0.044089
-0.043965
-0.043840
-0.043715
-0.043590
-0.043465
-0.043340
-0.043215
-0.043089
-0.042964
-0.042838
-0.042712
-0.042586
-0.042460
-0.042334
-0.042208
-0.042081
-0.041955
-0.041828
-0.041701
-0.041575
-0.041448
-0.041320
-0.041193
-0.041066
-0.040938
-0.040811
-0.040683
-0.040555
-0.040427
-0.040299
-0.040171
-0.040043
-0.039915
-0.039786
-0.039658
-0.039529
-0.039400
-0.039271
-0.039142
-0.039013
-0.038884
-0.038754
-0.038625
-0.038495
-0.038366
-0.038236
-0.038106
-0.037976
-0.037846
-0.037716
-0.037585
-0.037455
-0.037324
-0.037194
-0.037063
-0.036932
-0.036801
-0.036670
-0.036539
-0.036408
-0.036277
-0.036145
-0.036014
-0.035882
-0.035750
-0.035619
-0.035487
-0.035355
-0.035222
-0.035090
-0.034958
-0.034826
-0.034693
-0.034560
-0.034428
-0.034295
-0.034162
-0.034029
-0.033896
-0.033763
-0.033630
-0.033496
-0.033363
-0.033230
-0.033096
-0.032962
-0.032828
-0.032695
-0.032561
-0.032427
-0.032292
-0.032158
-0.032024
-0.031890
-0.031755
-0.031620
-0.031486
-0.031351
-0.031216
-0.031081
-0.030946
-0.030811
-0.030676
-0.030541
-0.030406
-0.030270
-0.030135
-0.029999
-0.029864
-0.029728
-0.029592
-0.029456
-0.029320
-0.029184
-0.029048
-0.028912
-0.028776
-0.028639
-0.028503
-0.028366
-0.028230
-0.028093
-0.027956
-0.027820
-0.027683
-0.027546
-0.027409
-0.027272
-0.027134
-0.026997
-0.026860
-0.026723
-0.026585
-0.026448
-0.026310
-0.026172
-0.026035
-0.025897
-0.025759
-0.025621
-0.025483
-0.025345
-0.025207
-0.025069
-0.024930
-0.024792
-0.024654
-0.024515
-0.024377
-0.024238
-0.024100
-0.023961
-0.023822
-0.023683
-0.023544
-0.023405
-0.023266
-0.023127
-0.022988
-0.022849
-0.022710
-0.022571
-0.022431
-0.022292
-0.022152
-0.022013
-0.021873
-0.021734
-0.021594
-0.021454
-0.021315
-0.021175
-0.021035
-0.020895
-0.020755
-0.020615
-0.020475
-0.020335
-0.020194
-0.020054
-0.019914
-0.019773
-0.019633
-0.019493
-0.019352
-0.019212
-0.019071
-0.018930
-0.018790
-0.018649
-0.018508
-0.018367
-0.018226
-0.018086
-0.017945
-0.017804
-0.017663
-0.017521
-0.017380
-0.017239
-0.017098
-0.016957
-0.016815
-0.016674
-0.016533
-0.016391
-0.016250
-0.016108
-0.015967
-0.015825
-0.015684
-0.015542
-0.015400
-0.015259
-0.015117
-0.014975
-0.014833
-0.014692
-0.014550
-0.014408
-0.014266
-0.014124
-0.013982
-0.013840
-0.013698
-0.013556
-0.013413
-0.013271
-0.013129
-0.012987
-0.012844
-0.012702
-0.012560
-0.012418
-0.012275
-0.012133
-0.011990
-0.011848
-0.011705
-0.011563
-0.011420
-0.011278
-0.011135
-0.010992
-0.010850
-0.010707
-0.010564
-0.010422
-0.010279
-0.010136
-0.009993
-0.009851
-0.009708
-0.009565
-0.009422
-0.009279
-0.009136
-0.008993
-0.008850
-0.008707
-0.008564
-0.008421
-0.008278
-0.008135
-0.007992
-0.007849
-0.007706
-0.007563
-0.007419
-0.007276
-0.007133
-0.006990
-0.006847
-0.006703
-0.006560
-0.006417
-0.006274
-0.006130
-0.005987
-0.005844
-0.005700
-0.005557
-0.005414
-0.005270
-0.005127
-0.004984
-0.004840
-0.004697
-0.004553
-0.004410
-0.004266
-0.004123
-0.003979
-0.003836
-0.003692
-0.003549
-0.003405
-0.003262
-0.003118
-0.002975
-0.002831
-0.002688
-0.002544
-0.002401
-0.002257
-0.002114
-0.001970
-0.001826
-0.001683
-0.001539
-0.001396
-0.001252
-0.001108
-0.000965
-0.000821
-0.000678
-0.000534
-0.000390
-0.000247
-0.000103
0.000041
0.000184
0.000328
0.000472
0.000615
0.000759
0.000902
0.001046
0.001190
0.001333
0.001477
0.001621
0.001764
0.001908
0.002052
0.002195
0.002339
0.002482
0.002626
0.002770
0.002913
0.003057
0.003201
0.003344
0.003488
0.003631
0.003775
0.003919
0.004062
0.004206
0.004349
0.004493
0.004637
0.004780
0.004924
0.005067
0.005211
0.005354
0.005498
0.005641
0.005785
0.005929
0.006072
0.006216
0.006359
0.006503
0.006646
0.006790
0.006933
0.007076
0.007220
0.007363
0.007507
0.007650
0.007794
0.007937
0.008080
0.008224
0.008367
0.008510
0.008654
0.008797
0.008940
0.009084
0.009227
0.009370
0.009514
0.009657
0.009800
0.009943
0.010087
0.010230
0.010373
0.010516
0.010659
0.010803
0.010946
0.011089
0.011232
0.011375
0.011518
0.011661
0.011804
0.011948
0.012091
0.012234
0.012377
0.012520
0.012663
0.012806
0.012949
0.013092
0.013234
0.013377
0.013520
0.013663
0.013806
0.013949
0.014092
0.014235
0.014377
0.014520
0.014663
0.014806
0.014948
0.015091
0.015234
0.015377
0.015519
0.015662
0.015805
0.015947
0.016090
0.016232
0.016375
0.016518
0.016660
0.016803
0.016945
0.017088
0.017230
0.017372
0.017515
0.017657
0.017800
0.017942
0.018084
0.018227
0.018369
0.018511
0.018654
0.018796
0.018938
0.019080
0.019223
0.019365
0.019507
0.019649
0.019791
0.019933
0.020075
0.020218
0.020360
0.020502
0.020644
0.020786
0.020928
0.021070
0.021211
0.021353
0.021495
0.021637
0.021779
0.021921
0.022063
0.022204
0.022346
0.022488
0.022630
0.022771
0.022913
0.023055
0.023196
0.023338
0.023480
0.023621
0.023763
0.023904
0.024046
0.024187
0.024329
0.024470
0.024612
0.024753
0.024894
0.025036
0.025177
0.025318
0.025460
0.025601
0.025742
0.025884
0.026025
0.026166
0.026307
0.026448
0.026589
0.026730
0.026872
0.027013
0.027154
0.027295
0.027436
0.027577
0.027718
0.027859
0.027999
0.028140
0.028281
0.028422
0.028563
0.028704
0.028844
0.028985
0.029126
0.029267
0.029407
0.029548
0.029689
0.029829
0.029970
0.030110
0.030251
0.030392
0.030532
0.030673
0.030813
0.030953
0.031094
0.031234
0.031375
0.031515
0.031655
0.031796
0.031936
0.032076
0.032217
0.032357
0.032497
0.032637
0.032777
0.032918
0.033058
0.033198
0.033338
0.033478
0.033618
0.033758
0.033898
0.034038
0.034178
0.034318
0.034458
0.034598
0.034737
0.034877
0.035017
0.035157
0.035297
0.035437
0.035576
0.035716
0.035856
0.035995
0.036135
0.036275
0.036414
0.036554
0.036693
0.036833
0.036973
0.037112
0.037252
0.037391
0.037530
0.037670
0.037809
0.037949
0.038088
0.038227
0.038367
0.038506
0.038645
0.038785
0.038924
0.039063
0.039202
0.039341
0.039481
0.039620
0.039759
0.039898
0.040037
0.040176
0.040315
0.040454
0.040593
0.040732
0.040871
0.041010
0.041149
0.041288
0.041427
0.041566
0.041705
0.041843
0.041982
0.042121
0.042260
0.042399
0.042537
0.042676
0.042815
0.042953
0.043092
0.043231
0.043369
0.043508
0.043647
0.043785
0.043924
0.044062
0.044201
0.044339
0.044478
0.044616
0.044755
0.044893
0.045032
0.045170
0.045309
0.045447
0.045585
0.045724
0.045862
0.046000
0.046139
0.046277
0.046415
0.046553
0.046692
0.046830
0.046968
0.047106
0.047244
0.047382
0.047521
0.047659
0.047797
0.047935
0.048073
0.048211
0.048349
0.048625
0.048763
0.048901
0.049039
0.049176
0.049314
0.049452
0.049590
0.049727
0.049865
0.050003
0.050141
0.050278
0.050416
0.050554
0.050691
0.050829
0.050967
0.051104
0.051242
0.051379
0.051517
0.051655
0.051792
0.051930
0.052067
0.052205
0.052342
0.052480
0.052617
0.052755
0.052892
0.053030
0.053167
0.053304
0.053442
0.053579
0.053717
0.053854
0.053991
0.054129
0.054266
0.054403
0.054541
0.054678
0.054815
0.054952
0.055090
0.055227
0.055364
0.055501
0.055639
0.055776
0.055913
0.056050
0.056187
0.056324
0.056462
0.056599
0.056736
0.056873
0.057010
0.057147
0.057284
0.057421
0.057558
0.057696
0.057833
0.057970
0.058107
0.058244
0.058381
0.058518
0.058655
0.058792
0.058929
0.059066
0.059203
0.059339
0.059476
0.059613
0.059750
0.059887
0.060024
0.060161
0.060298
0.060435
0.060572
0.060709
0.060845
0.060982
0.061119
0.061256
0.061393
0.061530
0.061666
0.061803
0.061940
0.062077
0.062214
0.062350
0.062487
0.062624
0.062761
0.062897
0.063034
0.063171
0.063308
0.063444
0.063581
0.063718
0.063855
0.063991
0.064128
0.064265
0.064401
0.064538
0.064675
0.064811
0.064948
0.065085
0.065221
0.065358
0.065495
0.065631
0.065768
0.065905
0.066041
0.066178
0.066315
0.066451
0.066588
0.066724
0.066861
0.066998
0.067134
0.067271
0.067407
0.067544
0.067681
0.067817
0.067954
0.068090
0.068227
0.068363
0.068500
0.068637
0.068773
0.068910
0.069046
0.069183
0.069319
0.069456
0.069592
0.069729
0.069866
0.070002
0.070139
0.070275
0.070412
0.070548
0.070685
0.070821
0.070958
0.071094
0.071231
0.071367
0.071504
0.071640
0.071777
0.071913
0.072050
0.072186
0.072323
0.072459
0.072596
0.072733
0.072869
0.073006
0.073142
0.073279
0.073415
0.073552
0.073688
0.073825
0.073961
0.074098
0.074234
0.074371
0.074507
0.074644
0.074780
0.074917
0.075053
0.075190
0.075326
0.075463
0.075599
0.075736
0.075872
0.076009
0.076145
0.076282
0.076418
0.076555
0.076692
0.076828
0.076965
0.077101
0.077238
0.077374
0.077511
0.077647
0.077784
0.077920
0.078057
0.078193
0.078330
0.078467
0.078603
0.078740
0.078876
0.079013
0.079149
0.079286
0.079422
0.079559
0.079696
0.079832
0.079969
0.080105
0.080242
0.080379
0.080515
0.080652
0.080788
0.080925
0.081062
0.081198
0.081335
0.081471
0.081608
0.081745
0.081881
0.082018
0.082154
0.082291
0.082428
0.082564
0.082701
0.082838
0.082974
0.083111
0.083248
0.083384
0.083521
0.083658
0.083794
0.083931
0.084068
0.084204
0.084341
0.084478
0.084614
0.084751
0.084888
0.085025
0.085161
0.085298
0.085435
0.085572
0.085708
0.085845
0.085982
0.086119
0.086255
0.086392
0.086529
0.086666
0.086802
0.086939
0.087076
0.087213
0.087350
0.087486
0.087623
0.087760
0.087897
0.088034
0.088170
0.088307
0.088444
0.088581
0.088718
0.088855
0.088992
0.089129
0.089265
0.089402
0.089539
0.089676
0.089813
0.089950
0.090087
0.090224
0.090361
0.090498
0.090635
0.090771
0.090908
0.091045
0.091182
0.091319
0.091456
0.091593
0.091730
0.091867
0.092004
0.092141
0.092278
0.092415
0.092552
0.092689
0.092826
0.092963
0.093100
0.093237
0.093375
0.093512
0.093649
0.093786
0.093923
0.094060
0.094197
0.094334
0.094471
0.094608
0.094745
0.094883
0.095020
0.095157
0.095294
0.095431
0.095568
0.095706
0.095843
0.095980
0.096117
0.096254
0.096392
0.096529
0.096666
0.096803
0.068985
0.069052
0.068841
0.061686
0.061788
0.061885
-0.049862
-0.049789
-0.050000
-0.050089
-0.026252
0.078379
0.078626
0.078678
0.078828
0.066209
0.065989
0.066058
-0.026772
-0.026628
-0.026802
-0.026550
-0.072416
-0.072519
-0.072265
-0.072298
-0.027670
-0.027564
-0.027461
0.027055
0.026838
0.026960
0.027033
-0.045330
-0.046516
-0.054796
-0.056455
0.019120
0.018905
0.018989
0.018970
-0.021098
-0.021551
-0.021164
-0.021184
0.050234
0.049821
0.049398
0.050768
-0.072743
-0.072659
-0.072409
0.023516
0.023490
0.023744
0.023860
0.001176
-0.004464
-0.003114
-0.007789
0.011582
0.011891
0.012012
-0.038688
-0.036868
-0.038766
-0.006387
-0.006247
-0.006590
-0.006437
0.061014
0.061744
0.061671
0.062424
-0.001595
-0.001099
-0.001304
-0.000596
0.020513
0.020731
0.020342
0.020834
0.019114
0.019270
0.018997
0.019397
-0.010400
-0.010435
-0.010624
-0.010736
0.068468
0.068375
0.068119
-0.028771
-0.029174
-0.028895
0.011601
0.068025
0.067773
0.067765
0.068145
0.031343
0.031590
0.031476
-0.000478
-0.000425
-0.000633
0.031572
0.018907
0.018213
0.017964
-0.000259
0.036204
0.036050
0.035722
0.056900
0.057144
0.056860
0.057252
0.035080
0.035218
0.034972
0.035305
0.035636
-0.062519
-0.062802
-0.062656
0.080639
0.080407
0.080791
-0.062928
-0.043683
-0.043867
-0.044045
-0.043513
-0.035196
-0.035033
-0.035611
-0.035211
-0.019692
-0.020115
-0.019810
0.010326
0.010564
0.010262
0.010476
-0.020181
0.031491
0.031671
0.031345
-0.033418
-0.033748
-0.033437
-0.036534
-0.036980
-0.037326
0.031665
0.062704
0.062766
0.062466
-0.055792
-0.055700
-0.055584
0.067168
0.067428
0.067446
0.067214
0.039534
0.039166
0.039315
0.038776
0.001229
-0.000690
0.001279
0.000792
0.029712
0.030503
0.028415
0.031703
-0.052722
-0.052567
-0.053028
-0.052261
0.091253
0.091072
-0.076001
-0.075360
-0.074994
-0.074287
-0.049269
-0.047982
-0.045032
-0.053020
0.094283
0.094353
0.094681
-0.056834
-0.052312
-0.057131
-0.057453
-0.056257
0.065081
0.065033
0.064701
0.025493
0.025361
0.025670
0.025571
0.001855
0.001283
0.001694
-0.073560
-0.073530
-0.073940
-0.073601
0.094411
0.093869
0.094575
0.093699
0.080793
0.081034
0.081291
0.064610
0.038914
0.038642
0.038362
0.038147
-0.008661
-0.008502
-0.008317
-0.008783
-0.015601
-0.016504
-0.018995
0.082481
0.082408
0.081703
0.081990
-0.020891
-0.020365
-0.022896
-0.021818
0.038225
0.038254
0.038004
0.022197
0.022958
0.029352
0.016145
-0.065084
-0.065422
-0.064363
-0.066599
0.087069
0.087273
0.019805
0.019777
0.019920
0.038468
0.002472
0.003479
0.004165
0.004717
-0.035484
-0.035836
-0.035683
-0.035655
-0.034405
-0.039688
-0.037999
-0.034583
-0.007963
-0.007555
-0.008260
-0.008168
-0.042711
-0.041375
-0.040381
-0.039329
0.085806
0.086282
0.086589
0.085784
-0.039258
-0.039197
-0.039074
-0.081329
-0.084787
-0.081452
-0.081795
-0.069108
-0.069303
-0.069337
-0.012746
-0.012795
-0.026727
-0.026765
-0.028450
-0.025200
0.035810
0.033668
0.033962
0.031586
0.005012
0.013761
0.012610
0.011206
0.046902
0.047080
0.045748
0.045749
0.076495
0.074718
0.075312
0.076364
-0.032823
-0.032695
-0.033763
-0.033962
-0.027827
-0.027709
-0.027544
-0.028079
0.052345
0.053168
0.052544
0.053058
0.051585
0.051496
0.052494
-0.006489
-0.006239
-0.006182
-0.006475
0.090434
0.089425
0.090353
0.068078
-0.017205
-0.019106
-0.018145
-0.018027
0.075356
0.075427
0.074981
0.075149
0.014550
0.014818
0.014618
0.014932
0.035821
0.036239
-0.009797
-0.009078
-0.008464
-0.007946
-0.002579
-0.002552
-0.000182
-0.005013
-0.000992
-0.000844
-0.000734
0.084063
0.083775
0.083746
-0.050380
-0.050532
-0.049796
-0.049740
-0.000670
-0.042896
-0.040130
-0.042208
0.076681
0.077038
0.077622
0.077968
0.071707
0.071556
0.071528
0.071287
0.033998
0.033248
0.033055
0.034715
0.029333
0.029082
0.028966
0.029369
0.029182
0.029497
0.037528
0.036418
0.037141
-0.005165
-0.005383
-0.005123
0.021328
0.018468
0.025246
-0.005227
0.048806
0.049370
0.047636
0.041474
0.041791
0.041775
0.041568
0.062075
0.062128
0.061754
-0.043169
-0.038349
0.062394
0.058920
0.058824
0.058667
0.058592
-0.033977
-0.033842
-0.034037
0.075691
0.020384
0.020488
0.019854
0.019753
-0.061802
-0.059830
-0.060551
-0.058917
0.024820
0.024786
0.024567
0.025036
-0.040928
-0.040187
-0.042053
-0.039880
-0.049670
-0.050711
-0.046686
-0.053398
0.052936
0.052817
0.053177
-0.042899
-0.042531
-0.043482
0.027285
0.027220
0.026245
0.025602
0.066186
0.054852
0.054582
0.054844
0.041141
0.042511
0.041360
0.042307
-0.010347
-0.011469
-0.011716
0.054575
0.057902
0.058348
0.057909
0.029139
0.029794
0.030114
0.030771
0.036072
0.033710
-0.020511
-0.021257
-0.020233
-0.021924
-0.056906
-0.059614
-0.059618
-0.055389
-0.043058
-0.043710
0.017832
0.017697
0.018732
0.058148
-0.012582
-0.010292
-0.009398
-0.013180
0.028689
0.031513
0.043042
0.043201
0.043090
-0.042677
-0.042064
-0.041869
0.043351
-0.034349
-0.034289
-0.034128
0.060830
0.060547
0.060713
0.060431
-0.022719
-0.022616
-0.022519
-0.040163
-0.046459
0.010860
0.010799
0.010661
0.064666
0.064613
0.064454
0.064370
0.043237
0.043404
0.043518
0.015709
0.014840
0.014608
0.013354
0.041856
0.041639
0.041731
0.041504
0.036516
0.036623
0.036416
0.057740
0.057932
0.058042
0.041830
0.041555
0.043140
0.058131
-0.052127
-0.052132
-0.051908
0.040464
0.031103
0.030458
0.031405
0.043184
-0.055462
-0.055372
-0.055515
0.021776
0.017067
0.018979
-0.052350
0.054295
0.054306
0.054610
0.077830
0.077939
0.077689
0.077831