# vtk DataFile Version 2.0
Test
ASCII
DATASET POLYDATA
POINTS 20431 float
0.000000 0.000000 0.000000
2.000000 0.000000 0.000000
2.000000 4.000000 0.000000
0.000000 4.000000 0.000000
0.000000 0.500000 0.000000
1.500000 2.000000 0.000000
2.000000 2.500000 0.000000
0.400000 0.000000 0.000000
0.800000 0.000000 0.000000
1.200000 0.000000 0.000000
1.600000 0.000000 0.000000
2.000000 0.362557 0.000000
2.000000 0.672798 0.000000
2.000000 0.938272 0.000000
2.000000 1.165439 0.000000
2.000000 1.359826 0.000000
2.000000 1.526163 0.000000
2.000000 1.668499 0.000000
2.000000 1.790295 0.000000
2.000000 1.894517 0.000000
2.000000 1.983700 0.000000
2.000000 2.060013 0.000000
2.000000 2.125315 0.000000
2.000000 2.181194 0.000000
2.000000 2.229010 0.000000
2.000000 2.269926 0.000000
2.000000 2.304938 0.000000
2.000000 2.334898 0.000000
2.000000 2.360534 0.000000
2.000000 2.382472 0.000000
2.000000 2.401244 0.000000
2.000000 2.417307 0.000000
2.000000 2.431052 0.000000
2.000000 2.442814 0.000000
2.000000 2.452878 0.000000
2.000000 2.461491 0.000000
2.000000 2.468860 0.000000
2.000000 2.475167 0.000000
2.000000 2.480563 0.000000
2.000000 2.485180 0.000000
2.000000 2.489132 0.000000
2.000000 2.492513 0.000000
2.000000 2.495406 0.000000
2.000000 2.497882 0.000000
2.000000 2.502286 0.000000
2.000000 2.505266 0.000000
2.000000 2.509150 0.000000
2.000000 2.514212 0.000000
2.000000 2.520809 0.000000
2.000000 2.529407 0.000000
2.000000 2.540613 0.000000
2.000000 2.555218 0.000000
2.000000 2.574253 0.000000
2.000000 2.599061 0.000000
2.000000 2.631395 0.000000
2.000000 2.673536 0.000000
2.000000 2.728460 0.000000
2.000000 2.800043 0.000000
2.000000 2.893339 0.000000
2.000000 3.014933 0.000000
2.000000 3.173410 0.000000
2.000000 3.379956 0.000000
2.000000 3.649152 0.000000
1.600000 4.000000 0.000000
1.200000 4.000000 0.000000
0.800000 4.000000 0.000000
0.400000 4.000000 0.000000
0.000000 3.624996 0.000000
0.000000 3.289970 0.000000
0.000000 2.990661 0.000000
0.000000 2.723261 0.000000
0.000000 2.484368 0.000000
0.000000 2.270943 0.000000
0.000000 2.080271 0.000000
0.000000 1.909926 0.000000
0.000000 1.757741 0.000000
0.000000 1.621780 0.000000
0.000000 1.500314 0.000000
0.000000 1.391797 0.000000
0.000000 1.294849 0.000000
0.000000 1.208237 0.000000
0.000000 1.130858 0.000000
0.000000 1.061728 0.000000
0.000000 0.999968 0.000000
0.000000 0.944792 0.000000
0.000000 0.895499 0.000000
0.000000 0.851460 0.000000
0.000000 0.812117 0.000000
0.000000 0.776968 0.000000
0.000000 0.745565 0.000000
0.000000 0.717511 0.000000
0.000000 0.692448 0.000000
0.000000 0.670056 0.000000
0.000000 0.650052 0.000000
0.000000 0.632180 0.000000
0.000000 0.616213 0.000000
0.000000 0.601949 0.000000
0.000000 0.589205 0.000000
0.000000 0.577820 0.000000
0.000000 0.567649 0.000000
0.000000 0.558562 0.000000
0.000000 0.550444 0.000000
0.000000 0.543191 0.000000
0.000000 0.536712 0.000000
0.000000 0.530923 0.000000
0.000000 0.525751 0.000000
0.000000 0.521131 0.000000
0.000000 0.517003 0.000000
0.000000 0.513315 0.000000
0.000000 0.510021 0.000000
0.000000 0.507078 0.000000
0.000000 0.504448 0.000000
0.000000 0.502099 0.000000
0.000000 0.497804 0.000000
0.000000 0.494785 0.000000
0.000000 0.490633 0.000000
0.000000 0.484924 0.000000
0.000000 0.477074 0.000000
0.000000 0.466279 0.000000
0.000000 0.451436 0.000000
0.000000 0.431025 0.000000
0.000000 0.402959 0.000000
0.000000 0.364366 0.000000
0.000000 0.311297 0.000000
0.000000 0.238324 0.000000
0.000000 0.137980 0.000000
0.001414 0.501414 0.000000
0.002828 0.502828 0.000000
0.004241 0.504241 0.000000
0.005655 0.505655 0.000000
0.007069 0.507069 0.000000
0.008483 0.508483 0.000000
0.009896 0.509896 0.000000
0.011310 0.511310 0.000000
0.012724 0.512724 0.000000
0.014138 0.514138 0.000000
0.015551 0.515551 0.000000
0.016965 0.516965 0.000000
0.018379 0.518379 0.000000
0.019793 0.519793 0.000000
0.021206 0.521206 0.000000
0.022620 0.522620 0.000000
0.024034 0.524034 0.000000
0.025448 0.525448 0.000000
0.026861 0.526861 0.000000
0.028275 0.528275 0.000000
0.029689 0.529689 0.000000
0.031103 0.531103 0.000000
0.032516 0.532516 0.000000
0.033930 0.533930 0.000000
0.035344 0.535344 0.000000
0.036758 0.536758 0.000000
0.038172 0.538172 0.000000
0.039585 0.539585 0.000000
0.040999 0.540999 0.000000
0.042413 0.542413 0.000000
0.043827 0.543827 0.000000
0.045240 0.545240 0.000000
0.046654 0.546654 0.000000
0.048068 0.548068 0.000000
0.049482 0.549482 0.000000
0.050895 0.550895 0.000000
0.052309 0.552309 0.000000
0.053723 0.553723 0.000000
0.055137 0.555137 0.000000
0.056550 0.556550 0.000000
0.057964 0.557964 0.000000
0.059378 0.559378 0.000000
0.060792 0.560792 0.000000
0.062205 0.562205 0.000000
0.063619 0.563619 0.000000
0.065033 0.565033 0.000000
0.066447 0.566447 0.000000
0.067861 0.567861 0.000000
0.069274 0.569274 0.000000
0.070688 0.570688 0.000000
0.072102 0.572102 0.000000
0.073516 0.573516 0.000000
0.074929 0.574929 0.000000
0.076343 0.576343 0.000000
0.077757 0.577757 0.000000
0.079171 0.579171 0.000000
0.080584 0.580584 0.000000
0.081998 0.581998 0.000000
0.083412 0.583412 0.000000
0.084826 0.584826 0.000000
0.086239 0.586239 0.000000
0.087653 0.587653 0.000000
0.089067 0.589067 0.000000
0.090481 0.590481 0.000000
0.091894 0.591894 0.000000
0.093308 0.593308 0.000000
0.094722 0.594722 0.000000
0.096136 0.596136 0.000000
0.097549 0.597549 0.000000
0.098963 0.598963 0.000000
0.100377 0.600377 0.000000
0.101791 0.601791 0.000000
0.103205 0.603205 0.000000
0.104618 0.604618 0.000000
0.106032 0.606032 0.000000
0.107446 0.607446 0.000000
0.108860 0.608860 0.000000
0.110273 0.610273 0.000000
0.111687 0.611687 0.000000
0.113101 0.613101 0.000000
0.114515 0.614515 0.000000
0.115928 0.615928 0.000000
0.117342 0.617342 0.000000
0.118756 0.618756 0.000000
0.120170 0.620170 0.000000
0.121583 0.621583 0.000000
0.122997 0.622997 0.000000
0.124411 0.624411 0.000000
0.125825 0.625825 0.000000
0.127238 0.627238 0.000000
0.128652 0.628652 0.000000
0.130066 0.630066 0.000000
0.131480 0.631480 0.000000
0.132893 0.632893 0.000000
0.134307 0.634307 0.000000
0.135721 0.635721 0.000000
0.137135 0.637135 0.000000
0.138549 0.638549 0.000000
0.139962 0.639962 0.000000
0.141376 0.641376 0.000000
0.142790 0.642790 0.000000
0.144204 0.644204 0.000000
0.145617 0.645617 0.000000
0.147031 0.647031 0.000000
0.148445 0.648445 0.000000
0.149859 0.649859 0.000000
0.151272 0.651272 0.000000
0.152686 0.652686 0.000000
0.154100 0.654100 0.000000
0.155514 0.655514 0.000000
0.156927 0.656927 0.000000
0.158341 0.658341 0.000000
0.159755 0.659755 0.000000
0.161169 0.661169 0.000000
0.162582 0.662582 0.000000
0.163996 0.663996 0.000000
0.165410 0.665410 0.000000
0.166824 0.666824 0.000000
0.168238 0.668238 0.000000
0.169651 0.669651 0.000000
0.171065 0.671065 0.000000
0.172479 0.672479 0.000000
0.173893 0.673893 0.000000
0.175306 0.675306 0.000000
0.176720 0.676720 0.000000
0.178134 0.678134 0.000000
0.179548 0.679548 0.000000
0.180961 0.680961 0.000000
0.182375 0.682375 0.000000
0.183789 0.683789 0.000000
0.185203 0.685203 0.000000
0.186616 0.686616 0.000000
0.188030 0.688030 0.000000
0.189444 0.689444 0.000000
0.190858 0.690858 0.000000
0.192271 0.692271 0.000000
0.193685 0.693685 0.000000
0.195099 0.695099 0.000000
0.196513 0.696513 0.000000
0.197926 0.697926 0.000000
0.199340 0.699340 0.000000
0.200754 0.700754 0.000000
0.202168 0.702168 0.000000
0.203582 0.703582 0.000000
0.204995 0.704995 0.000000
0.206409 0.706409 0.000000
0.207823 0.707823 0.000000
0.209237 0.709237 0.000000
0.210650 0.710650 0.000000
0.212064 0.712064 0.000000
0.213478 0.713478 0.000000
0.214892 0.714892 0.000000
0.216305 0.716305 0.000000
0.217719 0.717719 0.000000
0.219133 0.719133 0.000000
0.220547 0.720547 0.000000
0.221960 0.721960 0.000000
0.223374 0.723374 0.000000
0.224788 0.724788 0.000000
0.226202 0.726202 0.000000
0.227615 0.727615 0.000000
0.229029 0.729029 0.000000
0.230443 0.730443 0.000000
0.231857 0.731857 0.000000
0.233270 0.733270 0.000000
0.234684 0.734684 0.000000
0.236098 0.736098 0.000000
0.237512 0.737512 0.000000
0.238926 0.738926 0.000000
0.240339 0.740339 0.000000
0.241753 0.741753 0.000000
0.243167 0.743167 0.000000
0.244581 0.744581 0.000000
0.245994 0.745994 0.000000
0.247408 0.747408 0.000000
0.248822 0.748822 0.000000
0.250236 0.750236 0.000000
0.251649 0.751649 0.000000
0.253063 0.753063 0.000000
0.254477 0.754477 0.000000
0.255891 0.755891 0.000000
0.257304 0.757304 0.000000
0.258718 0.758718 0.000000
0.260132 0.760132 0.000000
0.261546 0.761546 0.000000
0.262959 0.762959 0.000000
0.264373 0.764373 0.000000
0.265787 0.765787 0.000000
0.267201 0.767201 0.000000
0.268615 0.768615 0.000000
0.270028 0.770028 0.000000
0.271442 0.771442 0.000000
0.272856 0.772856 0.000000
0.274270 0.774270 0.000000
0.275683 0.775683 0.000000
0.277097 0.777097 0.000000
0.278511 0.778511 0.000000
0.279925 0.779925 0.000000
0.281338 0.781338 0.000000
0.282752 0.782752 0.000000
0.284166 0.784166 0.000000
0.285580 0.785580 0.000000
0.286993 0.786993 0.000000
0.288407 0.788407 0.000000
0.289821 0.789821 0.000000
0.291235 0.791235 0.000000
0.292648 0.792648 0.000000
0.294062 0.794062 0.000000
0.295476 0.795476 0.000000
0.296890 0.796890 0.000000
0.298303 0.798303 0.000000
0.299717 0.799717 0.000000
0.301131 0.801131 0.000000
0.302545 0.802545 0.000000
0.303959 0.803959 0.000000
0.305372 0.805372 0.000000
0.306786 0.806786 0.000000
0.308200 0.808200 0.000000
0.309614 0.809614 0.000000
0.311027 0.811027 0.000000
0.312441 0.812441 0.000000
0.313855 0.813855 0.000000
0.315269 0.815269 0.000000
0.316682 0.816682 0.000000
0.318096 0.818096 0.000000
0.319510 0.819510 0.000000
0.320924 0.820924 0.000000
0.322337 0.822337 0.000000
0.323751 0.823751 0.000000
0.325165 0.825165 0.000000
0.326579 0.826579 0.000000
0.327992 0.827992 0.000000
0.329406 0.829406 0.000000
0.330820 0.830820 0.000000
0.332234 0.832234 0.000000
0.333648 0.833648 0.000000
0.335061 0.835061 0.000000
0.336475 0.836475 0.000000
0.337889 0.837889 0.000000
0.339303 0.839303 0.000000
0.340716 0.840716 0.000000
[...]
POINT_DATA 20431
SCALARS UX float 1
LOOKUP_TABLE default
-0.000000
0.000000
0.130328
-0.135940
-0.106310
0.065632
0.131218
-0.000000
-0.000000
0.000000
-0.000000
0.088882
0.116377
0.127077
0.130980
0.132385
0.132784
0.132738
0.132578
0.132390
0.132205
0.132046
0.131908
0.131793
0.131697
0.131617
0.131550
0.131495
0.131449
0.131410
0.131378
0.131351
0.131328
0.131308
0.131292
0.131278
0.131266
0.131256
0.131248
0.131241
0.131234
0.131229
0.131225
0.131221
0.131214
0.131210
0.131204
0.131196
0.131186
0.131173
0.131157
0.131135
0.131108
0.131074
0.131030
0.130976
0.130910
0.130834
0.130741
0.130642
0.130541
0.130436
0.130361
0.077029
0.023752
-0.029495
-0.082721
-0.135936
-0.135937
-0.135961
-0.136029
-0.136148
-0.136296
-0.136457
-0.136584
-0.136613
-0.136511
-0.136274
-0.135864
-0.135250
-0.134456
-0.133494
-0.132390
-0.131163
-0.129837
-0.128450
-0.127022
-0.125582
-0.124143
-0.122743
-0.121363
-0.120047
-0.118794
-0.117599
-0.116482
-0.115436
-0.114464
-0.113564
-0.112731
-0.111968
-0.111268
-0.110628
-0.110044
-0.109512
-0.109030
-0.108591
-0.108195
-0.107836
-0.107512
-0.107218
-0.106954
-0.106716
-0.106502
-0.106107
-0.105825
-0.105435
-0.104892
-0.104127
-0.103057
-0.101498
-0.099263
-0.095963
-0.090818
-0.082863
-0.070286
-0.048048
-0.106272
-0.106233
-0.106194
-0.106154
-0.106113
-0.106071
-0.106029
-0.105986
-0.105942
-0.105897
-0.105852
-0.105806
-0.105759
-0.105711
-0.105663
-0.105614
-0.105564
-0.105514
-0.105463
-0.105412
-0.105360
-0.105307
-0.105253
-0.105199
-0.105144
-0.105089
-0.105033
-0.104976
-0.104919
-0.104861
-0.104803
-0.104744
-0.104685
-0.104625
-0.104564
-0.104503
-0.104441
-0.104379
-0.104317
-0.104253
-0.104190
-0.104125
-0.104061
-0.103995
-0.103930
-0.103864
-0.103797
-0.103730
-0.103662
-0.103594
-0.103525
-0.103456
-0.103386
-0.103316
-0.103245
-0.103174
-0.103103
-0.103031
-0.102958
-0.102886
-0.102813
-0.102739
-0.102666
-0.102591
-0.102517
-0.102442
-0.102366
-0.102290
-0.102214
-0.102137
-0.102060
-0.101982
-0.101904
-0.101826
-0.101747
-0.101668
-0.101588
-0.101508
-0.101427
-0.101346
-0.101265
-0.101183
-0.101101
-0.101018
-0.100935
-0.100852
-0.100768
-0.100684
-0.100600
-0.100515
-0.100430
-0.100344
-0.100258
-0.100172
-0.100085
-0.099998
-0.099910
-0.099822
-0.099734
-0.099645
-0.099556
-0.099466
-0.099376
-0.099286
-0.099195
-0.099104
-0.099013
-0.098921
-0.098829
-0.098736
-0.098643
-0.098550
-0.098456
-0.098362
-0.098267
-0.098172
-0.098077
-0.097981
-0.097885
-0.097788
-0.097691
-0.097594
-0.097496
-0.097398
-0.097300
-0.097201
-0.097102
-0.097002
-0.096902
-0.096802
-0.096702
-0.096601
-0.096499
-0.096398
-0.096295
-0.096193
-0.096090
-0.095987
-0.095883
-0.095779
-0.095675
-0.095570
-0.095465
-0.095360
-0.095254
-0.095148
-0.095042
-0.094935
-0.094828
-0.094720
-0.094612
-0.094504
-0.094395
-0.094286
-0.094177
-0.094067
-0.093957
-0.093846
-0.093736
-0.093624
-0.093513
-0.093401
-0.093289
-0.093176
-0.093064
-0.092950
-0.092837
-0.092723
-0.092609
-0.092494
-0.092379
-0.092264
-0.092149
-0.092033
-0.091917
-0.091800
-0.091683
-0.091566
-0.091449
-0.091331
-0.091213
-0.091094
-0.090976
-0.090857
-0.090737
-0.090618
-0.090498
-0.090378
-0.090257
-0.090136
-0.090015
-0.089894
-0.089772
-0.089650
-0.089527
-0.089405
-0.089282
-0.089159
-0.089035
-0.088911
-0.088787
-0.088663
-0.088538
-0.088413
-0.088287
-0.088162
-0.088036
-0.087909
-0.087783
-0.087656
-0.087529
-0.087402
-0.087274
-0.087146
-0.087018
-0.086889
-0.086760
-0.086631
-0.086502
-0.086372
-0.086242
-0.086112
-0.085981
-0.085851
-0.085720
-0.085588
-0.085457
-0.085325
-0.085193
-0.085060
-0.084928
-0.084795
-0.084661
-0.084528
-0.084394
-0.084260
-0.084126
-0.083991
-0.083856
-0.083721
-0.083586
-0.083450
-0.083314
-0.083178
-0.083042
-0.082905
-0.082768
-0.082631
-0.082494
-0.082356
-0.082218
-0.082080
-0.081942
-0.081803
-0.081664
-0.081525
-0.081385
-0.081245
-0.081105
-0.080965
-0.080825
-0.080684
-0.080543
-0.080402
-0.080260
-0.080119
-0.079977
-0.079835
-0.079692
-0.079549
-0.079407
-0.079263
-0.079120
-0.078976
-0.078832
-0.078688
-0.078544
-0.078399
-0.078254
-0.078109
-0.077964
-0.077818
-0.077673
-0.077527
-0.077380
-0.077234
-0.077087
-0.076940
-0.076793
-0.076645
-0.076498
-0.076350
-0.076202
-0.076053
-0.075905
-0.075756
-0.075607
-0.075458
-0.075308
-0.075158
-0.075008
-0.074858
-0.074708
-0.074557
-0.074406
-0.074255
-0.074104
-0.073953
-0.073801
-0.073649
-0.073497
-0.073345
-0.073192
-0.073039
-0.072887
-0.072733
-0.072580
-0.072426
-0.072273
-0.072119
-0.071964
-0.071810
-0.071655
-0.071501
-0.071346
-0.071190
-0.071035
-0.070879
-0.070724
-0.070568
-0.070411
-0.070255
-0.070098
-0.069941
-0.069784
-0.069627
-0.069470
-0.069312
-0.069154
-0.068996
-0.068838
-0.068680
-0.068521
-0.068362
-0.068203
-0.068044
-0.067884
-0.067725
-0.067565
-0.067405
-0.067245
-0.067085
-0.066924
-0.066763
-0.066602
-0.066441
-0.066280
-0.066119
-0.065957
-0.065795
-0.065633
-0.065471
-0.065308
-0.065146
-0.064983
-0.064820
-0.064657
-0.064493
-0.064330
-0.064166
-0.064002
-0.063838
-0.063674
-0.063509
-0.063345
-0.063180
-0.063015
-0.062850
-0.062684
-0.062519
-0.062353
-0.062187
-0.062021
-0.061855
-0.061689
-0.061522
-0.061355
-0.061189
-0.061022
-0.060854
-0.060687
-0.060519
-0.060352
-0.060184
-0.060015
-0.059847
-0.059679
-0.059510
-0.059341
-0.059172
-0.059003
-0.058834
-0.058665
-0.058495
-0.058325
-0.058155
-0.057985
-0.057815
-0.057644
-0.057474
-0.057303
-0.057132
-0.056961
-0.056790
-0.056618
-0.056447
-0.056275
-0.056103
-0.055931
-0.055759
-0.055586
-0.055414
-0.055241
-0.055068
-0.054895
-0.054722
-0.054549
-0.054376
-0.054202
-0.054028
-0.053854
-0.053680
-0.053506
-0.053332
-0.053157
-0.052982
-0.052808
-0.052633
-0.052458
-0.052282
-0.052107
-0.051931
-0.051756
-0.051580
-0.051404
-0.051228
-0.051052
-0.050875
-0.050699
-0.050522
-0.050345
-0.050168
-0.049991
-0.049814
-0.049637
-0.049459
-0.049281
-0.049104
-0.048926
-0.048748
-0.048570
-0.048391
-0.048213
-0.048034
-0.047856
-0.047677
-0.047498
-0.047319
-0.047140
-0.046960
-0.046781
-0.046601
-0.046421
-0.046242
-0.046062
-0.045882
-0.045701
-0.045521
-0.045340
-0.045160
-0.044979
-0.044798
-0.044617
-0.044436
-0.044255
-0.044074
-0.043892
-0.043711
-0.043529
-0.043347
-0.043165
-0.042983
-0.042801
-0.042619
-0.042437
-0.042254
-0.042071
-0.041889
-0.041706
-0.041523
-0.041340
-0.041157
-0.040973
-0.040790
-0.040607
-0.040423
-0.040239
-0.040055
-0.039872
-0.039687
-0.039503
-0.039319
-0.039135
-0.038950
-0.038766
-0.038581
-0.038396
-0.038211
-0.038026
-0.037841
-0.037656
-0.037471
-0.037286
-0.037100
-0.036915
-0.036729
-0.036543
-0.036357
-0.036171
-0.035985
-0.035799
-0.035613
-0.035427
-0.035240
-0.035054
-0.034867
-0.034680
-0.034494
-0.034307
-0.034120
-0.033933
-0.033746
-0.033558
-0.033371
-0.033184
-0.032996
-0.032809
-0.032621
-0.032433
-0.032245
-0.032058
-0.031870
-0.031681
-0.031493
-0.031305
-0.031117
-0.030928
-0.030740
-0.030551
-0.030363
-0.030174
-0.029985
-0.029796
-0.029608
-0.029419
-0.029229
-0.029040
-0.028851
-0.028662
-0.028472
-0.028283
-0.028094
-0.027904
-0.027714
-0.027525
-0.027335
-0.027145
-0.026955
-0.026765
-0.026575
-0.026385
-0.026195
-0.026005
-0.025814
-0.025624
-0.025433
-0.025243
-0.025052
-0.024862
-0.024671
-0.024480
-0.024290
-0.024099
-0.023908
-0.023717
-0.023526
-0.023335
-0.023144
-0.022952
-0.022761
-0.022570
-0.022379
-0.022187
-0.021996
-0.021804
-0.021613
-0.021421
-0.021229
-0.021038
-0.020846
-0.020654
-0.020462
-0.020270
-0.020078
-0.019886
-0.019694
-0.019502
-0.019310
-0.019118
-0.018926
-0.018733
-0.018541
-0.018349
-0.018156
-0.017964
-0.017771
-0.017579
-0.017386
-0.017194
-0.017001
-0.016808
-0.016615
-0.016423
-0.016230
-0.016037
-0.015844
-0.015651
-0.015458
-0.015265
-0.015072
-0.014879
-0.014686
-0.014493
-0.014300
-0.014107
-0.013913
-0.013720
-0.013527
-0.013334
-0.013140
-0.012947
-0.012753
-0.012560
-0.012367
-0.012173
-0.011980
-0.011786
-0.011592
-0.011399
-0.011205
-0.011012
-0.010818
-0.010624
-0.010430
-0.010237
-0.010043
-0.009849
-0.009655
-0.009461
-0.009268
-0.009074
-0.008880
-0.008686
-0.008492
-0.008298
-0.008104
-0.007910
-0.007716
-0.007522
-0.007328
-0.007134
-0.006940
-0.006746
-0.006552
-0.006357
-0.006163
-0.005969
-0.005775
-0.005581
-0.005387
-0.005192
-0.004998
-0.004804
-0.004610
-0.004415
-0.004221
-0.004027
-0.003832
-0.003638
-0.003444
-0.003250
-0.003055
-0.002861
-0.002667
-0.002472
-0.002278
-0.002083
-0.001889
-0.001695
-0.001500
-0.001306
-0.001112
-0.000917
-0.000723
-0.000528
-0.000334
-0.000139
0.000055
0.000249
0.000444
0.000638
0.000833
0.001027
0.001222
0.001416
0.001610
0.001805
0.001999
0.002194
0.002388
0.002583
0.002777
0.002971
0.003166
0.003360
0.003555
0.003749
0.003943
0.004138
0.004332
0.004527
0.004721
0.004915
0.005110
0.005304
0.005499
0.005693
0.005887
0.006082
0.006276
0.006470
0.006665
0.006859
0.007053
0.007248
0.007442
0.007636
0.007831
0.008025
0.008219
0.008413
0.008608
0.008802
0.008996
0.009190
0.009384
0.009579
0.009773
0.009967
0.010161
0.010355
0.010549
0.010743
0.010938
0.011132
0.011326
0.011520
0.011714
0.011908
0.012102
0.012296
0.012490
0.012684
0.012878
0.013072
0.013265
0.013459
0.013653
0.013847
0.014041
0.014235
0.014429
0.014622
0.014816
0.015010
0.015204
0.015397
0.015591
0.015785
0.015978
0.016172
0.016366
0.016559
0.016753
0.016946
0.017140
0.017334
0.017527
0.017721
0.017914
0.018107
0.018301
0.018494
0.018688
0.018881
0.019074
0.019268
0.019461
0.019654
0.019848
0.020041
0.020234
0.020427
0.020620
0.020814
0.021007
0.021200
0.021393
0.021586
0.021779
0.021972
0.022165
0.022358
0.022551
0.022744
0.022937
0.023130
0.023322
0.023515
0.023708
0.023901
0.024094
0.024286
0.024479
0.024672
0.024864
0.025057
0.025249
0.025442
0.025635
0.025827
0.026020
0.026212
0.026405
0.026597
0.026789
0.026982
0.027174
0.027366
0.027559
0.027751
0.027943
0.028135
0.028327
0.028520
0.028712
0.028904
0.029096
0.029288
0.029480
0.029672
0.029864
0.030056
0.030248
0.030439
0.030631
0.030823
0.031015
0.031207
0.031398
0.031590
0.031782
0.031973
0.032165
0.032357
0.032548
0.032740
0.032931
0.033123
0.033314
0.033505
0.033697
0.033888
0.034080
0.034271
0.034462
0.034653
0.034845
0.035036
0.035227
0.035418
0.035609
0.035800
0.035991
0.036182
0.036373
0.036564
0.036755
0.036946
0.037137
0.037328
0.037518
0.037709
0.037900
0.038090
0.038281
0.038472
0.038662
0.038853
0.039044
0.039234
0.039425
0.039615
0.039805
0.039996
0.040186
0.040377
0.040567
0.040757
0.040947
0.041138
0.041328
0.041518
0.041708
0.041898
0.042088
0.042278
0.042469
0.042658
0.042848
0.043038
0.043228
0.043418
0.043608
0.043798
0.043988
0.044177
0.044367
0.044557
0.044747
0.044936
0.045126
0.045315
0.045505
0.045694
0.045884
0.046073
0.046263
0.046452
0.046642
0.046831
0.047020
0.047210
0.047399
0.047588
0.047777
0.047967
0.048156
0.048345
0.048534
0.048723
0.048912
0.049101
0.049290
0.049479
0.049668
0.049857
0.050046
0.050235
0.050423
0.050612
0.050801
0.050990
0.051178
0.051367
0.051556
0.051744
0.051933
0.052121
0.052310
0.052498
0.052687
0.052875
0.053064
0.053252
0.053441
0.053629
0.053817
0.054006
0.054194
0.054382
0.054570
0.054758
0.054947
0.055135
0.055323
0.055511
0.055699
0.055887
0.056075
0.056263
0.056451
0.056639
0.056827
0.057015
0.057203
0.057390
0.057578
0.057766
0.057954
0.058141
0.058329
0.058517
0.058704
0.058892
0.059080
0.059267
0.059455
0.059642
0.059830
0.060017
0.060205
0.060392
0.060580
0.060767
0.060955
0.061142
0.061329
0.061517
0.061704
0.061891
0.062078
0.062266
0.062453
0.062640
0.062827
0.063014
0.063201
0.063388
0.063575
0.063762
0.063949
0.064136
0.064323
0.064510
0.064697
0.064884
0.065071
0.065258
0.065445
0.065818
0.066005
0.066192
0.066378
0.066565
0.066751
0.066938
0.067124
0.067311
0.067497
0.067684
0.067870
0.068056
0.068243
0.068429
0.068615
0.068802
0.068988
0.069174
0.069361
0.069547
0.069733
0.069919
0.070105
0.070292
0.070478
0.070664
0.070850
0.071036
0.071222
0.071408
0.071594
0.071780
0.071966
0.072152
0.072338
0.072524
0.072710
0.072896
0.073082
0.073268
0.073454
0.073640
0.073826
0.074011
0.074197
0.074383
0.074569
0.074755
0.074940
0.075126
0.075312
0.075498
0.075683
0.075869
0.076055
0.076240
0.076426
0.076612
0.076797
0.076983
0.077168
0.077354
0.077540
0.077725
0.077911
0.078096
0.078282
0.078467
0.078653
0.078838
0.079024
0.079209
0.079394
0.079580
0.079765
0.079951
0.080136
0.080321
0.080507
0.080692
0.080877
0.081063
0.081248
0.081433
0.081619
0.081804
0.081989
0.082175
0.082360
0.082545
0.082730
0.082915
0.083101
0.083286
0.083471
0.083656
0.083841
0.084027
0.084212
0.084397
0.084582
0.084767
0.084952
0.085137
0.085322
0.085508
0.085693
0.085878
0.086063
0.086248
0.086433
0.086618
0.086803
0.086988
0.087173
0.087358
0.087543
0.087728
0.087913
0.088098
0.088283
0.088468
0.088653
0.088838
0.089023
0.089208
0.089393
0.089578
0.089763
0.089948
0.090133
0.090318
0.090502
0.090687
0.090872
0.091057
0.091242
0.091427
0.091612
0.091797
0.091982
0.092166
0.092351
0.092536
0.092721
0.092906
0.093091
0.093276
0.093460
0.093645
0.093830
0.094015
0.094200
0.094385
0.094569
0.094754
0.094939
0.095124
0.095309
0.095493
0.095678
0.095863
0.096048
0.096233
0.096417
0.096602
0.096787
0.096972
0.097157
0.097341
0.097526
0.097711
0.097896
0.098081
0.098265
0.098450
0.098635
0.098820
0.099004
0.099189
0.099374
0.099559
0.099744
0.099928
0.100113
0.100298
0.100483
0.100667
0.100852
0.101037
0.101222
0.101407
0.101591
0.101776
0.101961
0.102146
0.102331
0.102515
0.102700
0.102885
0.103070
0.103255
0.103439
0.103624
0.103809
0.103994
0.104179
0.104363
0.104548
0.104733
0.104918
0.105103
0.105287
0.105472
0.105657
0.105842
0.106027
0.106212
0.106396
0.106581
0.106766
0.106951
0.107136
0.107321
0.107506
0.107690
0.107875
0.108060
0.108245
0.108430
0.108615
0.108800
0.108985
0.109169
0.109354
0.109539
0.109724
0.109909
0.110094
0.110279
0.110464
0.110649
0.110834
0.111019
0.111204
0.111388
0.111573
0.111758
0.111943
0.112128
0.112313
0.112498
0.112683
0.112868
0.113053
0.113238
0.113423
0.113608
0.113793
0.113978
0.114163
0.114348
0.114533
0.114718
0.114904
0.115089
0.115274
0.115459
0.115644
0.115829
0.116014
0.116199
0.116384
0.116569
0.116754
0.116939
0.117125
0.117310
0.117495
0.117680
0.117865
0.118050
0.118236
0.118421
0.118606
0.118791
0.118976
0.119162
0.119347
0.119532
0.119717
0.119902
0.120088
0.120273
0.120458
0.120644
0.120829
0.121014
0.121199
0.121385
0.121570
0.121755
0.121941
0.122126
0.122311
0.122497
0.122682
0.122867
0.123053
0.123238
0.123424
0.123609
0.123794
0.123980
0.124165
0.124351
0.124536
0.124722
0.124907
0.125092
0.125278
0.125463
0.125649
0.125834
0.126020
0.126205
0.126391
0.126576
0.126762
0.126948
0.127133
0.127319
0.127504
0.127690
0.127875
0.128061
0.128247
0.128432
0.128618
0.128804
0.128989
0.129175
0.129360
0.129546
0.129732
0.129918
0.130103
0.130289
0.130475
0.130660
0.130846
0.131032
0.093378
0.093468
0.093182
0.083498
0.083636
0.083767
-0.067493
-0.067394
-0.067680
-0.067800
-0.035535
0.106094
0.106428
0.106498
0.106701
0.089619
0.089322
0.089415
-0.036239
-0.036043
-0.036279
-0.035937
-0.098021
-0.098161
-0.097817
-0.097862
-0.037453
-0.037310
-0.037171
0.036622
0.036327
0.036493
0.036592
-0.061358
-0.062964
-0.074171
-0.076416
0.025881
0.025589
0.025704
0.025677
-0.028558
-0.029171
-0.028648
-0.028674
0.067997
0.067437
0.066865
0.068719
-0.098465
-0.098351
-0.098012
0.031831
0.031796
0.032140
0.032297
0.001592
-0.006042
-0.004215
-0.010543
0.015678
0.016095
0.016260
-0.052368
-0.049904
-0.052474
-0.008645
-0.008456
-0.008921
-0.008714
0.082589
0.083577
0.083477
0.084496
-0.002159
-0.001487
-0.001766
-0.000806
0.027766
0.028061
0.027535
0.028201
0.025873
0.026084
0.025714
0.026256
-0.014077
-0.014125
-0.014381
-0.014532
0.092678
0.092551
0.092205
-0.038945
-0.039489
-0.039112
0.015703
0.092078
0.091737
0.091726
0.092240
0.042425
0.042759
0.042606
-0.000647
-0.000576
-0.000856
0.042736
0.025593
0.024653
0.024316
-0.000351
0.049006
0.048797
0.048353
0.077019
0.077349
0.076966
0.077496
0.047484
0.047671
0.047338
0.047789
0.048236
-0.084625
-0.085009
-0.084811
0.109152
0.108839
0.109357
-0.085178
-0.059129
-0.059378
-0.059618
-0.058898
-0.047642
-0.047421
-0.048202
-0.047662
-0.026655
-0.027227
-0.026815
0.013977
0.014299
0.013891
0.014180
-0.027317
0.042626
0.042869
0.042428
-0.045234
-0.045682
-0.045261
-0.049453
-0.050055
-0.050524
0.042862
0.084876
0.084960
0.084553
-0.075520
-0.075396
-0.075238
0.090918
0.091271
0.091294
0.090981
0.053513
0.053015
0.053216
0.052487
0.001663
-0.000935
0.001732
0.001073
0.040218
0.041288
0.038463
0.042913
-0.071364
-0.071154
-0.071779
-0.070739
0.123519
0.123275
-0.102874
-0.102007
-0.101511
-0.100554
-0.066690
-0.064949
-0.060955
-0.071767
0.127621
0.127716
0.128159
-0.076931
-0.070810
-0.077332
-0.077768
-0.076149
0.088092
0.088028
0.087578
0.034507
0.034329
0.034747
0.034612
0.002511
0.001736
0.002292
-0.099571
-0.099530
-0.100084
-0.099626
0.127794
0.127061
0.128015
0.126830
0.109360
0.109687
0.110034
0.087456
0.052673
0.052305
0.051926
0.051636
-0.011723
-0.011509
-0.011258
-0.011888
-0.021118
-0.022339
-0.025711
0.111645
0.111547
0.110592
0.110981
-0.028278
-0.027566
-0.030992
-0.029532
0.051741
0.051780
0.051441
0.030046
0.031076
0.039730
0.021853
-0.088097
-0.088554
-0.087121
-0.090147
0.117856
0.118131
0.026808
0.026770
0.026963
0.052070
0.003345
0.004709
0.005638
0.006385
-0.048031
-0.048508
-0.048300
-0.048263
-0.046570
-0.053721
-0.051435
-0.046811
-0.010779
-0.010226
-0.011181
-0.011056
-0.057814
-0.056005
-0.054660
-0.053235
0.116147
0.116791
0.117206
0.116116
-0.053139
-0.053057
-0.052890
-0.110086
-0.114767
-0.110253
-0.110717
-0.093544
-0.093807
-0.093854
-0.017253
-0.017320
-0.036177
-0.036229
-0.038509
-0.034111
0.048472
0.045572
0.045970
0.042754
0.006784
0.018627
0.017068
0.015168
0.063486
0.063727
0.061924
0.061926
0.103543
0.101138
0.101941
0.103366
-0.044429
-0.044256
-0.045702
-0.045971
-0.037666
-0.037507
-0.037284
-0.038008
0.070853
0.071967
0.071123
0.071819
0.069824
0.069704
0.071055
-0.008783
-0.008445
-0.008368
-0.008765
0.122410
0.121045
0.122301
0.092150
-0.023288
-0.025862
-0.024560
-0.024401
0.102001
0.102097
0.101494
0.101721
0.019695
0.020057
0.019787
0.020212
0.048487
0.049052
-0.013261
-0.012288
-0.011457
-0.010756
-0.003491
-0.003454
-0.000247
-0.006786
-0.001342
-0.001142
-0.000994
0.113787
0.113397
0.113358
-0.068193
-0.068399
-0.067403
-0.067328
-0.000907
-0.058064
-0.054319
-0.057132
0.103795
0.104278
0.105069
0.105537
0.097061
0.096857
0.096820
0.096494
0.046020
0.045005
0.044743
0.046990
0.039705
0.039365
0.039208
0.039754
0.039501
0.039927
0.050797
0.049295
0.050274
-0.006991
-0.007287
-0.006934
0.028869
0.024998
0.034173
-0.007075
0.066063
0.066826
0.064480
0.056139
0.056569
0.056547
0.056267
0.084024
0.084095
0.083589
-0.058433
-0.051909
0.084456
0.079753
0.079624
0.079411
0.079309
-0.045991
-0.045809
-0.046072
0.102455
0.027592
0.027733
0.026875
0.026737
-0.083654
-0.080985
-0.081962
-0.079750
0.033596
0.033550
0.033254
0.033889
-0.055400
-0.054397
-0.056923
-0.053981
-0.067233
-0.068642
-0.063194
-0.072280
0.071654
0.071493
0.071980
-0.058068
-0.057569
-0.058857
0.036932
0.036845
0.035525
0.034654
0.089589
0.074247
0.073881
0.074236
0.055689
0.057542
0.055985
0.057266
-0.014005
-0.015524
-0.015859
0.073872
0.078375
0.078979
0.078386
0.039443
0.040329
0.040762
0.041652
0.048826
0.045630
-0.027764
-0.028773
-0.027387
-0.029676
-0.077028
-0.080693
-0.080698
-0.074974
-0.058283
-0.059166
0.024137
0.023955
0.025355
0.078708
-0.017031
-0.013931
-0.012722
-0.017840
0.038833
0.042656
0.058262
0.058476
0.058326
-0.057767
-0.056938
-0.056674
0.058680
-0.046494
-0.046413
-0.046195
0.082338
0.081957
0.082180
0.081799
-0.030752
-0.030613
-0.030481
-0.054364
-0.062886
0.014700
0.014617
0.014431
0.087532
0.087460
0.087245
0.087131
0.058526
0.058751
0.058906
0.021264
0.020088
0.019773
0.018076
0.056656
0.056362
0.056487
0.056179
0.049428
0.049573
0.049292
0.078157
0.078417
0.078565
0.056620
0.056248
0.058393
0.078685
-0.070558
-0.070565
-0.070262
0.054772
0.042101
0.041228
0.042509
0.058453
-0.075073
-0.074951
-0.075145
0.029476
0.023101
0.025690
-0.070861
0.073493
0.073508
0.073919
0.105349
0.105497
0.105159
0.105351