# vtk DataFile Version 2.0
Test
ASCII
DATASET POLYDATA
POINTS 20431 float
0.000000 0.000000 0.000000
2.000000 0.000000 0.000000
2.000000 4.000000 0.000000
0.000000 4.000000 0.000000
0.000000 0.500000 0.000000
1.500000 2.000000 0.000000
2.000000 2.500000 0.000000
0.400000 0.000000 0.000000
0.800000 0.000000 0.000000
1.200000 0.000000 0.000000
1.600000 0.000000 0.000000
2.000000 0.362557 0.000000
2.000000 0.672798 0.000000
2.000000 0.938272 0.000000
2.000000 1.165439 0.000000
2.000000 1.359826 0.000000
2.000000 1.526163 0.000000
2.000000 1.668499 0.000000
2.000000 1.790295 0.000000
2.000000 1.894517 0.000000
2.000000 1.983700 0.000000
2.000000 2.060013 0.000000
2.000000 2.125315 0.000000
2.000000 2.181194 0.000000
2.000000 2.229010 0.000000
2.000000 2.269926 0.000000
2.000000 2.304938 0.000000
2.000000 2.334898 0.000000
2.000000 2.360534 0.000000
2.000000 2.382472 0.000000
2.000000 2.401244 0.000000
2.000000 2.417307 0.000000
2.000000 2.431052 0.000000
2.000000 2.442814 0.000000
2.000000 2.452878 0.000000
2.000000 2.461491 0.000000
2.000000 2.468860 0.000000
2.000000 2.475167 0.000000
2.000000 2.480563 0.000000
2.000000 2.485180 0.000000
2.000000 2.489132 0.000000
2.000000 2.492513 0.000000
2.000000 2.495406 0.000000
2.000000 2.497882 0.000000
2.000000 2.502286 0.000000
2.000000 2.505266 0.000000
2.000000 2.509150 0.000000
2.000000 2.514212 0.000000
2.000000 2.520809 0.000000
2.000000 2.529407 0.000000
2.000000 2.540613 0.000000
2.000000 2.555218 0.000000
2.000000 2.574253 0.000000
2.000000 2.599061 0.000000
2.000000 2.631395 0.000000
2.000000 2.673536 0.000000
2.000000 2.728460 0.000000
2.000000 2.800043 0.000000
2.000000 2.893339 0.000000
2.000000 3.014933 0.000000
2.000000 3.173410 0.000000
2.000000 3.379956 0.000000
2.000000 3.649152 0.000000
1.600000 4.000000 0.000000
1.200000 4.000000 0.000000
0.800000 4.000000 0.000000
0.400000 4.000000 0.000000
0.000000 3.624996 0.000000
0.000000 3.289970 0.000000
0.000000 2.990661 0.000000
0.000000 2.723261 0.000000
0.000000 2.484368 0.000000
0.000000 2.270943 0.000000
0.000000 2.080271 0.000000
0.000000 1.909926 0.000000
0.000000 1.757741 0.000000
0.000000 1.621780 0.000000
0.000000 1.500314 0.000000
0.000000 1.391797 0.000000
0.000000 1.294849 0.000000
0.000000 1.208237 0.000000
0.000000 1.130858 0.000000
0.000000 1.061728 0.000000
0.000000 0.999968 0.000000
0.000000 0.944792 0.000000
0.000000 0.895499 0.000000
0.000000 0.851460 0.000000
0.000000 0.812117 0.000000
0.000000 0.776968 0.000000
0.000000 0.745565 0.000000
0.000000 0.717511 0.000000
0.000000 0.692448 0.000000
0.000000 0.670056 0.000000
0.000000 0.650052 0.000000
0.000000 0.632180 0.000000
0.000000 0.616213 0.000000
0.000000 0.601949 0.000000
0.000000 0.589205 0.000000
0.000000 0.577820 0.000000
0.000000 0.567649 0.000000
0.000000 0.558562 0.000000
0.000000 0.550444 0.000000
0.000000 0.543191 0.000000
0.000000 0.536712 0.000000
0.000000 0.530923 0.000000
0.000000 0.525751 0.000000
0.000000 0.521131 0.000000
0.000000 0.517003 0.000000
0.000000 0.513315 0.000000
0.000000 0.510021 0.000000
0.000000 0.507078 0.000000
0.000000 0.504448 0.000000
0.000000 0.502099 0.000000
0.000000 0.497804 0.000000
0.000000 0.494785 0.000000
0.000000 0.490633 0.000000
0.000000 0.484924 0.000000
0.000000 0.477074 0.000000
0.000000 0.466279 0.000000
0.000000 0.451436 0.000000
0.000000 0.431025 0.000000
0.000000 0.402959 0.000000
0.000000 0.364366 0.000000
0.000000 0.311297 0.000000
0.000000 0.238324 0.000000
0.000000 0.137980 0.000000
0.001414 0.501414 0.000000
0.002828 0.502828 0.000000
0.004241 0.504241 0.000000
0.005655 0.505655 0.000000
0.007069 0.507069 0.000000
0.008483 0.508483 0.000000
0.009896 0.509896 0.000000
0.011310 0.511310 0.000000
0.012724 0.512724 0.000000
0.014138 0.514138 0.000000
0.015551 0.515551 0.000000
0.016965 0.516965 0.000000
0.018379 0.518379 0.000000
0.019793 0.519793 0.000000
0.021206 0.521206 0.000000
0.022620 0.522620 0.000000
0.024034 0.524034 0.000000
0.025448 0.525448 0.000000
0.026861 0.526861 0.000000
0.028275 0.528275 0.000000
0.029689 0.529689 0.000000
0.031103 0.531103 0.000000
0.032516 0.532516 0.000000
0.033930 0.533930 0.000000
0.035344 0.535344 0.000000
0.036758 0.536758 0.000000
0.038172 0.538172 0.000000
0.039585 0.539585 0.000000
0.040999 0.540999 0.000000
0.042413 0.542413 0.000000
0.043827 0.543827 0.000000
0.045240 0.545240 0.000000
0.046654 0.546654 0.000000
0.048068 0.548068 0.000000
0.049482 0.549482 0.000000
0.050895 0.550895 0.000000
0.052309 0.552309 0.000000
0.053723 0.553723 0.000000
0.055137 0.555137 0.000000
0.056550 0.556550 0.000000
0.057964 0.557964 0.000000
0.059378 0.559378 0.000000
0.060792 0.560792 0.000000
0.062205 0.562205 0.000000
0.063619 0.563619 0.000000
0.065033 0.565033 0.000000
0.066447 0.566447 0.000000
0.067861 0.567861 0.000000
0.069274 0.569274 0.000000
0.070688 0.570688 0.000000
0.072102 0.572102 0.000000
0.073516 0.573516 0.000000
0.074929 0.574929 0.000000
0.076343 0.576343 0.000000
0.077757 0.577757 0.000000
0.079171 0.579171 0.000000
0.080584 0.580584 0.000000
0.081998 0.581998 0.000000
0.083412 0.583412 0.000000
0.084826 0.584826 0.000000
0.086239 0.586239 0.000000
0.087653 0.587653 0.000000
0.089067 0.589067 0.000000
0.090481 0.590481 0.000000
0.091894 0.591894 0.000000
0.093308 0.593308 0.000000
0.094722 0.594722 0.000000
0.096136 0.596136 0.000000
0.097549 0.597549 0.000000
0.098963 0.598963 0.000000
0.100377 0.600377 0.000000
0.101791 0.601791 0.000000
0.103205 0.603205 0.000000
0.104618 0.604618 0.000000
0.106032 0.606032 0.000000
0.107446 0.607446 0.000000
0.108860 0.608860 0.000000
0.110273 0.610273 0.000000
0.111687 0.611687 0.000000
0.113101 0.613101 0.000000
0.114515 0.614515 0.000000
0.115928 0.615928 0.000000
0.117342 0.617342 0.000000
0.118756 0.618756 0.000000
0.120170 0.620170 0.000000
0.121583 0.621583 0.000000
0.122997 0.622997 0.000000
0.124411 0.624411 0.000000
0.125825 0.625825 0.000000
0.127238 0.627238 0.000000
0.128652 0.628652 0.000000
0.130066 0.630066 0.000000
0.131480 0.631480 0.000000
0.132893 0.632893 0.000000
0.134307 0.634307 0.000000
0.135721 0.635721 0.000000
0.137135 0.637135 0.000000
0.138549 0.638549 0.000000
0.139962 0.639962 0.000000
0.141376 0.641376 0.000000
0.142790 0.642790 0.000000
0.144204 0.644204 0.000000
0.145617 0.645617 0.000000
0.147031 0.647031 0.000000
0.148445 0.648445 0.000000
0.149859 0.649859 0.000000
0.151272 0.651272 0.000000
0.152686 0.652686 0.000000
0.154100 0.654100 0.000000
0.155514 0.655514 0.000000
0.156927 0.656927 0.000000
0.158341 0.658341 0.000000
0.159755 0.659755 0.000000
0.161169 0.661169 0.000000
0.162582 0.662582 0.000000
0.163996 0.663996 0.000000
0.165410 0.665410 0.000000
0.166824 0.666824 0.000000
0.168238 0.668238 0.000000
0.169651 0.669651 0.000000
0.171065 0.671065 0.000000
0.172479 0.672479 0.000000
0.173893 0.673893 0.000000
0.175306 0.675306 0.000000
0.176720 0.676720 0.000000
0.178134 0.678134 0.000000
0.179548 0.679548 0.000000
0.180961 0.680961 0.000000
0.182375 0.682375 0.000000
0.183789 0.683789 0.000000
0.185203 0.685203 0.000000
0.186616 0.686616 0.000000
0.188030 0.688030 0.000000
0.189444 0.689444 0.000000
0.190858 0.690858 0.000000
0.192271 0.692271 0.000000
0.193685 0.693685 0.000000
0.195099 0.695099 0.000000
0.196513 0.696513 0.000000
0.197926 0.697926 0.000000
0.199340 0.699340 0.000000
0.200754 0.700754 0.000000
0.202168 0.702168 0.000000
0.203582 0.703582 0.000000
0.204995 0.704995 0.000000
0.206409 0.706409 0.000000
0.207823 0.707823 0.000000
0.209237 0.709237 0.000000
0.210650 0.710650 0.000000
0.212064 0.712064 0.000000
0.213478 0.713478 0.000000
0.214892 0.714892 0.000000
0.216305 0.716305 0.000000
0.217719 0.717719 0.000000
0.219133 0.719133 0.000000
0.220547 0.720547 0.000000
0.221960 0.721960 0.000000
0.223374 0.723374 0.000000
0.224788 0.724788 0.000000
0.226202 0.726202 0.000000
0.227615 0.727615 0.000000
0.229029 0.729029 0.000000
0.230443 0.730443 0.000000
0.231857 0.731857 0.000000
0.233270 0.733270 0.000000
0.234684 0.734684 0.000000
0.236098 0.736098 0.000000
0.237512 0.737512 0.000000
0.238926 0.738926 0.000000
0.240339 0.740339 0.000000
0.241753 0.741753 0.000000
0.243167 0.743167 0.000000
0.244581 0.744581 0.000000
0.245994 0.745994 0.000000
0.247408 0.747408 0.000000
0.248822 0.748822 0.000000
0.250236 0.750236 0.000000
0.251649 0.751649 0.000000
0.253063 0.753063 0.000000
0.254477 0.754477 0.000000
0.255891 0.755891 0.000000
0.257304 0.757304 0.000000
0.258718 0.758718 0.000000
0.260132 0.760132 0.000000
0.261546 0.761546 0.000000
0.262959 0.762959 0.000000
0.264373 0.764373 0.000000
0.265787 0.765787 0.000000
0.267201 0.767201 0.000000
0.268615 0.768615 0.000000
0.270028 0.770028 0.000000
0.271442 0.771442 0.000000
0.272856 0.772856 0.000000
0.274270 0.774270 0.000000
0.275683 0.775683 0.000000
0.277097 0.777097 0.000000
0.278511 0.778511 0.000000
0.279925 0.779925 0.000000
0.281338 0.781338 0.000000
0.282752 0.782752 0.000000
0.284166 0.784166 0.000000
0.285580 0.785580 0.000000
0.286993 0.786993 0.000000
0.288407 0.788407 0.000000
0.289821 0.789821 0.000000
0.291235 0.791235 0.000000
0.292648 0.792648 0.000000
0.294062 0.794062 0.000000
0.295476 0.795476 0.000000
0.296890 0.796890 0.000000
0.298303 0.798303 0.000000
0.299717 0.799717 0.000000
0.301131 0.801131 0.000000
0.302545 0.802545 0.000000
0.303959 0.803959 0.000000
0.305372 0.805372 0.000000
0.306786 0.806786 0.000000
0.308200 0.808200 0.000000
0.309614 0.809614 0.000000
0.311027 0.811027 0.000000
0.312441 0.812441 0.000000
0.313855 0.813855 0.000000
0.315269 0.815269 0.000000
0.316682 0.816682 0.000000
0.318096 0.818096 0.000000
0.319510 0.819510 0.000000
0.320924 0.820924 0.000000
0.322337 0.822337 0.000000
0.323751 0.823751 0.000000
0.325165 0.825165 0.000000
0.326579 0.826579 0.000000
0.327992 0.827992 0.000000
0.329406 0.829406 0.000000
0.330820 0.830820 0.000000
0.332234 0.832234 0.000000
0.333648 0.833648 0.000000
0.335061 0.835061 0.000000
0.336475 0.836475 0.000000
0.337889 0.837889 0.000000
0.339303 0.839303 0.000000
0.340716 0.840716 0.000000
[...]
POINT_DATA 20431
SCALARS UX float 1
LOOKUP_TABLE default
-0.000000
0.000000
0.144159
-0.150366
-0.117591
0.072597
0.145143
-0.000000
-0.000000
0.000000
-0.000000
0.098315
0.128727
0.140563
0.144880
0.146434
0.146875
0.146825
0.146648
0.146440
0.146234
0.146059
0.145907
0.145780
0.145673
0.145584
0.145511
0.145450
0.145399
0.145356
0.145320
0.145290
0.145265
0.145243
0.145225
0.145210
0.145197
0.145186
0.145176
0.145168
0.145161
0.145156
0.145151
0.145146
0.145139
0.145134
0.145127
0.145119
0.145108
0.145094
0.145075
0.145052
0.145022
0.144984
0.144935
0.144875
0.144802
0.144718
0.144615
0.144506
0.144394
0.144278
0.144195
0.085204
0.026273
-0.032625
-0.091500
-0.150362
-0.150363
-0.150390
-0.150465
-0.150596
-0.150760
-0.150938
-0.151079
-0.151111
-0.150998
-0.150735
-0.150282
-0.149603
-0.148725
-0.147661
-0.146440
-0.145082
-0.143615
-0.142081
-0.140502
-0.138909
-0.137317
-0.135769
-0.134242
-0.132786
-0.131400
-0.130079
-0.128844
-0.127687
-0.126611
-0.125616
-0.124695
-0.123850
-0.123076
-0.122368
-0.121722
-0.121134
-0.120600
-0.120115
-0.119677
-0.119280
-0.118921
-0.118597
-0.118305
-0.118041
-0.117805
-0.117367
-0.117056
-0.116624
-0.116023
-0.115177
-0.113994
-0.112269
-0.109798
-0.106147
-0.100455
-0.091657
-0.077745
-0.053147
-0.117550
-0.117507
-0.117464
-0.117419
-0.117374
-0.117328
-0.117281
-0.117233
-0.117185
-0.117135
-0.117085
-0.117034
-0.116982
-0.116930
-0.116876
-0.116822
-0.116767
-0.116712
-0.116655
-0.116598
-0.116541
-0.116482
-0.116423
-0.116363
-0.116302
-0.116241
-0.116179
-0.116117
-0.116053
-0.115989
-0.115925
-0.115860
-0.115794
-0.115728
-0.115661
-0.115593
-0.115525
-0.115456
-0.115387
-0.115317
-0.115247
-0.115175
-0.115104
-0.115032
-0.114959
-0.114886
-0.114812
-0.114738
-0.114663
-0.114587
-0.114511
-0.114435
-0.114357
-0.114280
-0.114202
-0.114123
-0.114044
-0.113965
-0.113885
-0.113804
-0.113723
-0.113642
-0.113561
-0.113478
-0.113396
-0.113313
-0.113229
-0.113145
-0.113061
-0.112976
-0.112891
-0.112805
-0.112719
-0.112632
-0.112545
-0.112457
-0.112369
-0.112280
-0.112191
-0.112101
-0.112011
-0.111921
-0.111830
-0.111739
-0.111647
-0.111555
-0.111462
-0.111369
-0.111276
-0.111182
-0.111088
-0.110993
-0.110898
-0.110802
-0.110706
-0.110610
-0.110513
-0.110415
-0.110318
-0.110219
-0.110121
-0.110022
-0.109922
-0.109823
-0.109722
-0.109622
-0.109520
-0.109419
-0.109317
-0.109214
-0.109112
-0.109008
-0.108905
-0.108800
-0.108696
-0.108590
-0.108485
-0.108379
-0.108273
-0.108166
-0.108059
-0.107951
-0.107843
-0.107734
-0.107626
-0.107516
-0.107407
-0.107297
-0.107186
-0.107075
-0.106964
-0.106852
-0.106740
-0.106627
-0.106515
-0.106401
-0.106287
-0.106173
-0.106059
-0.105944
-0.105828
-0.105713
-0.105597
-0.105480
-0.105363
-0.105246
-0.105128
-0.105009
-0.104891
-0.104772
-0.104653
-0.104533
-0.104412
-0.104292
-0.104171
-0.104049
-0.103928
-0.103806
-0.103683
-0.103560
-0.103437
-0.103313
-0.103189
-0.103065
-0.102940
-0.102815
-0.102689
-0.102563
-0.102437
-0.102310
-0.102183
-0.102055
-0.101928
-0.101800
-0.101671
-0.101542
-0.101413
-0.101283
-0.101153
-0.101023
-0.100892
-0.100762
-0.100630
-0.100499
-0.100367
-0.100234
-0.100102
-0.099969
-0.099835
-0.099702
-0.099568
-0.099433
-0.099299
-0.099164
-0.099028
-0.098893
-0.098757
-0.098620
-0.098484
-0.098347
-0.098209
-0.098072
-0.097934
-0.097795
-0.097657
-0.097518
-0.097378
-0.097239
-0.097099
-0.096958
-0.096818
-0.096677
-0.096536
-0.096394
-0.096252
-0.096110
-0.095967
-0.095825
-0.095682
-0.095538
-0.095394
-0.095250
-0.095106
-0.094961
-0.094816
-0.094671
-0.094525
-0.094380
-0.094233
-0.094087
-0.093940
-0.093793
-0.093646
-0.093498
-0.093350
-0.093202
-0.093053
-0.092904
-0.092755
-0.092606
-0.092456
-0.092306
-0.092156
-0.092005
-0.091854
-0.091703
-0.091552
-0.091400
-0.091248
-0.091096
-0.090943
-0.090791
-0.090637
-0.090484
-0.090330
-0.090176
-0.090022
-0.089867
-0.089713
-0.089557
-0.089402
-0.089246
-0.089091
-0.088934
-0.088778
-0.088621
-0.088464
-0.088307
-0.088149
-0.087991
-0.087833
-0.087675
-0.087516
-0.087357
-0.087198
-0.087039
-0.086879
-0.086719
-0.086559
-0.086398
-0.086238
-0.086077
-0.085915
-0.085754
-0.085592
-0.085430
-0.085268
-0.085105
-0.084942
-0.084779
-0.084616
-0.084452
-0.084288
-0.084124
-0.083960
-0.083795
-0.083630
-0.083465
-0.083300
-0.083134
-0.082968
-0.082802
-0.082636
-0.082470
-0.082303
-0.082136
-0.081968
-0.081801
-0.081633
-0.081465
-0.081297
-0.081128
-0.080960
-0.080791
-0.080621
-0.080452
-0.080282
-0.080112
-0.079942
-0.079772
-0.079601
-0.079431
-0.079260
-0.079088
-0.078917
-0.078745
-0.078573
-0.078401
-0.078229
-0.078056
-0.077884
-0.077711
-0.077537
-0.077364
-0.077190
-0.077016
-0.076842
-0.076668
-0.076493
-0.076318
-0.076143
-0.075968
-0.075793
-0.075617
-0.075441
-0.075265
-0.075089
-0.074912
-0.074735
-0.074558
-0.074381
-0.074204
-0.074026
-0.073848
-0.073670
-0.073492
-0.073314
-0.073135
-0.072956
-0.072777
-0.072598
-0.072419
-0.072239
-0.072059
-0.071879
-0.071699
-0.071518
-0.071337
-0.071157
-0.070976
-0.070794
-0.070613
-0.070431
-0.070249
-0.070067
-0.069885
-0.069702
-0.069520
-0.069337
-0.069154
-0.068970
-0.068787
-0.068603
-0.068419
-0.068235
-0.068051
-0.067867
-0.067682
-0.067497
-0.067312
-0.067127
-0.066942
-0.066756
-0.066570
-0.066384
-0.066198
-0.066012
-0.065825
-0.065639
-0.065452
-0.065265
-0.065078
-0.064890
-0.064703
-0.064515
-0.064327
-0.064139
-0.063950
-0.063762
-0.063573
-0.063384
-0.063195
-0.063006
-0.062816
-0.062627
-0.062437
-0.062247
-0.062057
-0.061867
-0.061676
-0.061485
-0.061295
-0.061104
-0.060912
-0.060721
-0.060530
-0.060338
-0.060146
-0.059954
-0.059762
-0.059569
-0.059377
-0.059184
-0.058991
-0.058798
-0.058605
-0.058412
-0.058218
-0.058025
-0.057831
-0.057637
-0.057443
-0.057248
-0.057054
-0.056859
-0.056664
-0.056469
-0.056274
-0.056079
-0.055884
-0.055688
-0.055492
-0.055296
-0.055100
-0.054904
-0.054708
-0.054511
-0.054315
-0.054118
-0.053921
-0.053724
-0.053527
-0.053329
-0.053132
-0.052934
-0.052736
-0.052538
-0.052340
-0.052142
-0.051944
-0.051745
-0.051547
-0.051348
-0.051149
-0.050950
-0.050751
-0.050551
-0.050352
-0.050152
-0.049952
-0.049752
-0.049552
-0.049352
-0.049152
-0.048952
-0.048751
-0.048550
-0.048349
-0.048148
-0.047947
-0.047746
-0.047545
-0.047343
-0.047142
-0.046940
-0.046738
-0.046536
-0.046334
-0.046132
-0.045930
-0.045727
-0.045524
-0.045322
-0.045119
-0.044916
-0.044713
-0.044510
-0.044306
-0.044103
-0.043899
-0.043696
-0.043492
-0.043288
-0.043084
-0.042880
-0.042675
-0.042471
-0.042267
-0.042062
-0.041857
-0.041652
-0.041447
-0.041242
-0.041037
-0.040832
-0.040627
-0.040421
-0.040216
-0.040010
-0.039804
-0.039598
-0.039392
-0.039186
-0.038980
-0.038774
-0.038567
-0.038361
-0.038154
-0.037947
-0.037741
-0.037534
-0.037327
-0.037120
-0.036912
-0.036705
-0.036498
-0.036290
-0.036083
-0.035875
-0.035667
-0.035460
-0.035252
-0.035044
-0.034835
-0.034627
-0.034419
-0.034211
-0.034002
-0.033794
-0.033585
-0.033376
-0.033167
-0.032959
-0.032750
-0.032541
-0.032331
-0.032122
-0.031913
-0.031703
-0.031494
-0.031285
-0.031075
-0.030865
-0.030655
-0.030446
-0.030236
-0.030026
-0.029816
-0.029606
-0.029395
-0.029185
-0.028975
-0.028764
-0.028554
-0.028343
-0.028133
-0.027922
-0.027711
-0.027500
-0.027289
-0.027078
-0.026867
-0.026656
-0.026445
-0.026234
-0.026023
-0.025811
-0.025600
-0.025388
-0.025177
-0.024965
-0.024753
-0.024542
-0.024330
-0.024118
-0.023906
-0.023694
-0.023482
-0.023270
-0.023058
-0.022846
-0.022634
-0.022421
-0.022209
-0.021997
-0.021784
-0.021572
-0.021359
-0.021147
-0.020934
-0.020721
-0.020509
-0.020296
-0.020083
-0.019870
-0.019657
-0.019444
-0.019231
-0.019018
-0.018805
-0.018592
-0.018379
-0.018166
-0.017952
-0.017739
-0.017526
-0.017312
-0.017099
-0.016885
-0.016672
-0.016458
-0.016245
-0.016031
-0.015817
-0.015604
-0.015390
-0.015176
-0.014962
-0.014749
-0.014535
-0.014321
-0.014107
-0.013893
-0.013679
-0.013465
-0.013251
-0.013037
-0.012823
-0.012608
-0.012394
-0.012180
-0.011966
-0.011752
-0.011537
-0.011323
-0.011109
-0.010894
-0.010680
-0.010466
-0.010251
-0.010037
-0.009822
-0.009608
-0.009393
-0.009179
-0.008964
-0.008749
-0.008535
-0.008320
-0.008106
-0.007891
-0.007676
-0.007462
-0.007247
-0.007032
-0.006817
-0.006603
-0.006388
-0.006173
-0.005958
-0.005743
-0.005529
-0.005314
-0.005099
-0.004884
-0.004669
-0.004454
-0.004239
-0.004024
-0.003809
-0.003594
-0.003379
-0.003164
-0.002950
-0.002735
-0.002520
-0.002305
-0.002090
-0.001875
-0.001660
-0.001444
-0.001229
-0.001014
-0.000799
-0.000584
-0.000369
-0.000154
0.000061
0.000276
0.000491
0.000706
0.000921
0.001136
0.001351
0.001566
0.001781
0.001996
0.002211
0.002426
0.002642
0.002857
0.003072
0.003287
0.003502
0.003717
0.003932
0.004147
0.004362
0.004577
0.004792
0.005007
0.005222
0.005437
0.005652
0.005867
0.006082
0.006297
0.006512
0.006727
0.006942
0.007157
0.007372
0.007587
0.007802
0.008017
0.008232
0.008447
0.008662
0.008876
0.009091
0.009306
0.009521
0.009736
0.009951
0.010166
0.010380
0.010595
0.010810
0.011025
0.011239
0.011454
0.011669
0.011884
0.012098
0.012313
0.012528
0.012742
0.012957
0.013171
0.013386
0.013601
0.013815
0.014030
0.014244
0.014459
0.014673
0.014888
0.015102
0.015317
0.015531
0.015745
0.015960
0.016174
0.016388
0.016603
0.016817
0.017031
0.017246
0.017460
0.017674
0.017888
0.018102
0.018317
0.018531
0.018745
0.018959
0.019173
0.019387
0.019601
0.019815
0.020029
0.020243
0.020457
0.020671
0.020885
0.021099
0.021313
0.021526
0.021740
0.021954
0.022168
0.022381
0.022595
0.022809
0.023022
0.023236
0.023450
0.023663
0.023877
0.024090
0.024304
0.024517
0.024731
0.024944
0.025157
0.025371
0.025584
0.025797
0.026011
0.026224
0.026437
0.026650
0.026864
0.027077
0.027290
0.027503
0.027716
0.027929
0.028142
0.028355
0.028568
0.028781
0.028994
0.029207
0.029419
0.029632
0.029845
0.030058
0.030270
0.030483
0.030696
0.030908
0.031121
0.031334
0.031546
0.031759
0.031971
0.032184
0.032396
0.032608
0.032821
0.033033
0.033245
0.033458
0.033670
0.033882
0.034094
0.034306
0.034518
0.034730
0.034942
0.035154
0.035366
0.035578
0.035790
0.036002
0.036214
0.036426
0.036638
0.036849
0.037061
0.037273
0.037485
0.037696
0.037908
0.038119
0.038331
0.038542
0.038754
0.038965
0.039177
0.039388
0.039599
0.039811
0.040022
0.040233
0.040444
0.040655
0.040867
0.041078
0.041289
0.041500
0.041711
0.041922
0.042133
0.042344
0.042555
0.042765
0.042976
0.043187
0.043398
0.043608
0.043819
0.044030
0.044240
0.044451
0.044661
0.044872
0.045082
0.045293
0.045503
0.045714
0.045924
0.046134
0.046345
0.046555
0.046765
0.046975
0.047186
0.047396
0.047606
0.047816
0.048026
0.048236
0.048446
0.048656
0.048866
0.049075
0.049285
0.049495
0.049705
0.049915
0.050124
0.050334
0.050544
0.050753
0.050963
0.051172
0.051382
0.051591
0.051801
0.052010
0.052220
0.052429
0.052638
0.052848
0.053057
0.053266
0.053475
0.053684
0.053894
0.054103
0.054312
0.054521
0.054730
0.054939
0.055148
0.055357
0.055566
0.055774
0.055983
0.056192
0.056401
0.056609
0.056818
0.057027
0.057235
0.057444
0.057653
0.057861
0.058070
0.058278
0.058487
0.058695
0.058903
0.059112
0.059320
0.059528
0.059737
0.059945
0.060153
0.060361
0.060570
0.060778
0.060986
0.061194
0.061402
0.061610
0.061818
0.062026
0.062234
0.062442
0.062650
0.062857
0.063065
0.063273
0.063481
0.063689
0.063896
0.064104
0.064312
0.064519
0.064727
0.064934
0.065142
0.065349
0.065557
0.065764
0.065972
0.066179
0.066387
0.066594
0.066801
0.067009
0.067216
0.067423
0.067630
0.067838
0.068045
0.068252
0.068459
0.068666
0.068873
0.069080
0.069287
0.069494
0.069701
0.069908
0.070115
0.070322
0.070529
0.070736
0.070943
0.071150
0.071356
0.071563
0.071770
0.071977
0.072183
0.072390
0.072803
0.073010
0.073216
0.073422
0.073629
0.073835
0.074041
0.074248
0.074454
0.074660
0.074866
0.075072
0.075279
0.075485
0.075691
0.075897
0.076103
0.076309
0.076515
0.076721
0.076927
0.077133
0.077339
0.077545
0.077751
0.077957
0.078163
0.078369
0.078575
0.078780
0.078986
0.079192
0.079398
0.079604
0.079809
0.080015
0.080221
0.080426
0.080632
0.080838
0.081043
0.081249
0.081455
0.081660
0.081866
0.082071
0.082277
0.082482
0.082688
0.082893
0.083099
0.083304
0.083510
0.083715
0.083920
0.084126
0.084331
0.084536
0.084742
0.084947
0.085152
0.085358
0.085563
0.085768
0.085973
0.086179
0.086384
0.086589
0.086794
0.086999
0.087205
0.087410
0.087615
0.087820
0.088025
0.088230
0.088435
0.088640
0.088845
0.089050
0.089255
0.089460
0.089665
0.089870
0.090075
0.090280
0.090485
0.090690
0.090895
0.091100
0.091305
0.091510
0.091715
0.091920
0.092124
0.092329
0.092534
0.092739
0.092944
0.093148
0.093353
0.093558
0.093763
0.093968
0.094172
0.094377
0.094582
0.094787
0.094991
0.095196
0.095401
0.095605
0.095810
0.096015
0.096219
0.096424
0.096629
0.096833
0.097038
0.097243
0.097447
0.097652
0.097857
0.098061
0.098266
0.098470
0.098675
0.098879
0.099084
0.099289
0.099493
0.099698
0.099902
0.100107
0.100311
0.100516
0.100720
0.100925
0.101129
0.101334
0.101538
0.101743
0.101947
0.102152
0.102356
0.102561
0.102765
0.102970
0.103174
0.103379
0.103583
0.103788
0.103992
0.104196
0.104401
0.104605
0.104810
0.105014
0.105219
0.105423
0.105627
0.105832
0.106036
0.106241
0.106445
0.106649
0.106854
0.107058
0.107263
0.107467
0.107671
0.107876
0.108080
0.108285
0.108489
0.108693
0.108898
0.109102
0.109307
0.109511
0.109715
0.109920
0.110124
0.110329
0.110533
0.110737
0.110942
0.111146
0.111351
0.111555
0.111759
0.111964
0.112168
0.112373
0.112577
0.112781
0.112986
0.113190
0.113395
0.113599
0.113803
0.114008
0.114212
0.114417
0.114621
0.114825
0.115030
0.115234
0.115439
0.115643
0.115847
0.116052
0.116256
0.116461
0.116665
0.116870
0.117074
0.117279
0.117483
0.117687
0.117892
0.118096
0.118301
0.118505
0.118710
0.118914
0.119119
0.119323
0.119528
0.119732
0.119937
0.120141
0.120346
0.120550
0.120755
0.120959
0.121164
0.121368
0.121573
0.121777
0.121982
0.122186
0.122391
0.122596
0.122800
0.123005
0.123209
0.123414
0.123618
0.123823
0.124028
0.124232
0.124437
0.124641
0.124846
0.125051
0.125255
0.125460
0.125665
0.125869
0.126074
0.126279
0.126483
0.126688
0.126893
0.127097
0.127302
0.127507
0.127711
0.127916
0.128121
0.128326
0.128530
0.128735
0.128940
0.129145
0.129349
0.129554
0.129759
0.129964
0.130169
0.130373
0.130578
0.130783
0.130988
0.131193
0.131398
0.131602
0.131807
0.132012
0.132217
0.132422
0.132627
0.132832
0.133037
0.133242
0.133447
0.133651
0.133856
0.134061
0.134266
0.134471
0.134676
0.134881
0.135086
0.135291
0.135496
0.135701
0.135906
0.136111
0.136317
0.136522
0.136727
0.136932
0.137137
0.137342
0.137547
0.137752
0.137957
0.138162
0.138368
0.138573
0.138778
0.138983
0.139188
0.139393
0.139599
0.139804
0.140009
0.140214
0.140420
0.140625
0.140830
0.141035
0.141241
0.141446
0.141651
0.141856
0.142062
0.142267
0.142472
0.142678
0.142883
0.143089
0.143294
0.143499
0.143705
0.143910
0.144116
0.144321
0.144526
0.144732
0.144937
0.103287
0.103387
0.103071
0.092359
0.092511
0.092656
-0.074655
-0.074546
-0.074862
-0.074995
-0.039306
0.117353
0.117722
0.117800
0.118024
0.099130
0.098801
0.098904
-0.040084
-0.039868
-0.040128
-0.039751
-0.108424
-0.108578
-0.108198
-0.108247
-0.041428
-0.041269
-0.041116
0.040508
0.040182
0.040366
0.040475
-0.067869
-0.069646
-0.082042
-0.084526
0.028628
0.028305
0.028431
0.028402
-0.031589
-0.032267
-0.031688
-0.031717
0.075213
0.074593
0.073961
0.076011
-0.108914
-0.108788
-0.108413
0.035209
0.035170
0.035551
0.035724
0.001761
-0.006683
-0.004662
-0.011662
0.017342
0.017803
0.017985
-0.057925
-0.055200
-0.058042
-0.009563
-0.009353
-0.009867
-0.009638
0.091353
0.092446
0.092336
0.093463
-0.002388
-0.001645
-0.001953
-0.000892
0.030713
0.031039
0.030458
0.031193
0.028619
0.028852
0.028443
0.029042
-0.015571
-0.015624
-0.015907
-0.016074
0.102513
0.102373
0.101990
-0.043078
-0.043680
-0.043263
0.017370
0.101850
0.101472
0.101460
0.102029
0.046927
0.047297
0.047127
-0.000716
-0.000637
-0.000947
0.047271
0.028309
0.027269
0.026897
-0.000388
0.054206
0.053975
0.053484
0.085192
0.085558
0.085134
0.085720
0.052523
0.052730
0.052361
0.052861
0.053355
-0.093606
-0.094030
-0.093811
0.120735
0.120389
0.120963
-0.094218
-0.065404
-0.065680
-0.065945
-0.065149
-0.052697
-0.052453
-0.053318
-0.052719
-0.029484
-0.030116
-0.029661
0.015460
0.015817
0.015365
0.015685
-0.030216
0.047150
0.047419
0.046931
-0.050034
-0.050529
-0.050064
-0.054701
-0.055368
-0.055886
0.047411
0.093883
0.093976
0.093526
-0.083534
-0.083397
-0.083222
0.100567
0.100956
0.100982
0.100636
0.059192
0.058641
0.058863
0.058058
0.001839
-0.001034
0.001915
0.001186
0.044486
0.045670
0.042544
0.047467
-0.078937
-0.078705
-0.079396
-0.078247
0.136627
0.136357
-0.113791
-0.112832
-0.112284
-0.111225
-0.073768
-0.071841
-0.067423
-0.079383
0.141164
0.141269
0.141759
-0.085095
-0.078324
-0.085539
-0.086021
-0.084231
0.097441
0.097369
0.096872
0.038169
0.037972
0.038435
0.038285
0.002778
0.001921
0.002536
-0.110137
-0.110092
-0.110706
-0.110198
0.141356
0.140545
0.141601
0.140289
0.120966
0.121328
0.121711
0.096737
0.058263
0.057856
0.057436
0.057115
-0.012967
-0.012730
-0.012452
-0.013150
-0.023359
-0.024710
-0.028440
0.123494
0.123385
0.122328
0.122759
-0.031279
-0.030491
-0.034281
-0.032666
0.057231
0.057275
0.056901
0.033234
0.034374
0.043946
0.024172
-0.097446
-0.097952
-0.096366
-0.099714
0.130363
0.130668
0.029653
0.029611
0.029824
0.057596
0.003700
0.005209
0.006236
0.007062
-0.053128
-0.053655
-0.053426
-0.053384
-0.051512
-0.059422
-0.056894
-0.051779
-0.011923
-0.011311
-0.012367
-0.012229
-0.063949
-0.061949
-0.060460
-0.058884
0.128473
0.129185
0.129644
0.128439
-0.058778
-0.058688
-0.058503
-0.121768
-0.126947
-0.121953
-0.122467
-0.103471
-0.103762
-0.103814
-0.019084
-0.019158
-0.040016
-0.040073
-0.042596
-0.037731
0.053616
0.050408
0.050848
0.047292
0.007504
0.020604
0.018880
0.016778
0.070223
0.070490
0.068495
0.068497
0.114531
0.111871
0.112760
0.114336
-0.049143
-0.048953
-0.050552
-0.050850
-0.041663
-0.041487
-0.041241
-0.042041
0.078372
0.079604
0.078671
0.079441
0.077234
0.077102
0.078596
-0.009715
-0.009342
-0.009256
-0.009695
0.135401
0.133891
0.135280
0.101929
-0.025760
-0.028607
-0.027167
-0.026991
0.112826
0.112932
0.112265
0.112516
0.021785
0.022186
0.021887
0.022357
0.053633
0.054258
-0.014668
-0.013592
-0.012673
-0.011897
-0.003861
-0.003820
-0.000273
-0.007506
-0.001485
-0.001263
-0.001100
0.125862
0.125431
0.125387
-0.075430
-0.075658
-0.074556
-0.074473
-0.001003
-0.064226
-0.060084
-0.063195
0.114810
0.115344
0.116219
0.116737
0.107362
0.107136
0.107094
0.106734
0.050904
0.049781
0.049491
0.051976
0.043919
0.043543
0.043369
0.043973
0.043693
0.044164
0.056188
0.054526
0.055609
-0.007733
-0.008060
-0.007670
0.031933
0.027650
0.037799
-0.007825
0.073074
0.073918
0.071323
0.062097
0.062572
0.062547
0.062238
0.092941
0.093020
0.092460
-0.064634
-0.057418
0.093419
0.088217
0.088074
0.087838
0.087726
-0.050872
-0.050670
-0.050961
0.113328
0.030520
0.030676
0.029727
0.029574
-0.092532
-0.089580
-0.090660
-0.088213
0.037162
0.037110
0.036783
0.037485
-0.061279
-0.060169
-0.062964
-0.059710
-0.074368
-0.075926
-0.069901
-0.079950
0.079258
0.079080
0.079619
-0.064230
-0.063679
-0.065103
0.040852
0.040755
0.039295
0.038332
0.099096
0.082126
0.081722
0.082115
0.061598
0.063649
0.061926
0.063343
-0.015491
-0.017171
-0.017542
0.081711
0.086692
0.087361
0.086704
0.043629
0.044609
0.045087
0.046072
0.054008
0.050473
-0.030711
-0.031827
-0.030293
-0.032825
-0.085202
-0.089257
-0.089262
-0.082931
-0.064469
-0.065445
0.026698
0.026497
0.028046
0.087061
-0.018838
-0.015409
-0.014072
-0.019733
0.042954
0.047183
0.064444
0.064681
0.064515
-0.063897
-0.062980
-0.062688
0.064907
-0.051428
-0.051339
-0.051097
0.091076
0.090654
0.090902
0.090479
-0.034015
-0.033861
-0.033716
-0.060134
-0.069560
0.016260
0.016168
0.015962
0.096821
0.096742
0.096504
0.096378
0.064736
0.064986
0.065157
0.023520
0.022220
0.021872
0.019994
0.062668
0.062343
0.062481
0.062141
0.054674
0.054834
0.054523
0.086451
0.086739
0.086902
0.062629
0.062218
0.064590
0.087035
-0.078046
-0.078054
-0.077719
0.060584
0.046569
0.045603
0.047021
0.064657
-0.083040
-0.082905
-0.083119
0.032604
0.025553
0.028417
-0.078380
0.081293
0.081308
0.081763
0.116529
0.116693
0.116319
0.116531