# vtk DataFile Version 2.0
Test
ASCII
DATASET POLYDATA
POINTS 20431 float
0.000000 0.000000 0.000000
2.000000 0.000000 0.000000
2.000000 4.000000 0.000000
0.000000 4.000000 0.000000
0.000000 0.500000 0.000000
1.500000 2.000000 0.000000
2.000000 2.500000 0.000000
0.400000 0.000000 0.000000
0.800000 0.000000 0.000000
1.200000 0.000000 0.000000
1.600000 0.000000 0.000000
2.000000 0.362557 0.000000
2.000000 0.672798 0.000000
2.000000 0.938272 0.000000
2.000000 1.165439 0.000000
2.000000 1.359826 0.000000
2.000000 1.526163 0.000000
2.000000 1.668499 0.000000
2.000000 1.790295 0.000000
2.000000 1.894517 0.000000
2.000000 1.983700 0.000000
2.000000 2.060013 0.000000
2.000000 2.125315 0.000000
2.000000 2.181194 0.000000
2.000000 2.229010 0.000000
2.000000 2.269926 0.000000
2.000000 2.304938 0.000000
2.000000 2.334898 0.000000
2.000000 2.360534 0.000000
2.000000 2.382472 0.000000
2.000000 2.401244 0.000000
2.000000 2.417307 0.000000
2.000000 2.431052 0.000000
2.000000 2.442814 0.000000
2.000000 2.452878 0.000000
2.000000 2.461491 0.000000
2.000000 2.468860 0.000000
2.000000 2.475167 0.000000
2.000000 2.480563 0.000000
2.000000 2.485180 0.000000
2.000000 2.489132 0.000000
2.000000 2.492513 0.000000
2.000000 2.495406 0.000000
2.000000 2.497882 0.000000
2.000000 2.502286 0.000000
2.000000 2.505266 0.000000
2.000000 2.509150 0.000000
2.000000 2.514212 0.000000
2.000000 2.520809 0.000000
2.000000 2.529407 0.000000
2.000000 2.540613 0.000000
2.000000 2.555218 0.000000
2.000000 2.574253 0.000000
2.000000 2.599061 0.000000
2.000000 2.631395 0.000000
2.000000 2.673536 0.000000
2.000000 2.728460 0.000000
2.000000 2.800043 0.000000
2.000000 2.893339 0.000000
2.000000 3.014933 0.000000
2.000000 3.173410 0.000000
2.000000 3.379956 0.000000
2.000000 3.649152 0.000000
1.600000 4.000000 0.000000
1.200000 4.000000 0.000000
0.800000 4.000000 0.000000
0.400000 4.000000 0.000000
0.000000 3.624996 0.000000
0.000000 3.289970 0.000000
0.000000 2.990661 0.000000
0.000000 2.723261 0.000000
0.000000 2.484368 0.000000
0.000000 2.270943 0.000000
0.000000 2.080271 0.000000
0.000000 1.909926 0.000000
0.000000 1.757741 0.000000
0.000000 1.621780 0.000000
0.000000 1.500314 0.000000
0.000000 1.391797 0.000000
0.000000 1.294849 0.000000
0.000000 1.208237 0.000000
0.000000 1.130858 0.000000
0.000000 1.061728 0.000000
0.000000 0.999968 0.000000
0.000000 0.944792 0.000000
0.000000 0.895499 0.000000
0.000000 0.851460 0.000000
0.000000 0.812117 0.000000
0.000000 0.776968 0.000000
0.000000 0.745565 0.000000
0.000000 0.717511 0.000000
0.000000 0.692448 0.000000
0.000000 0.670056 0.000000
0.000000 0.650052 0.000000
0.000000 0.632180 0.000000
0.000000 0.616213 0.000000
0.000000 0.601949 0.000000
0.000000 0.589205 0.000000
0.000000 0.577820 0.000000
0.000000 0.567649 0.000000
0.000000 0.558562 0.000000
0.000000 0.550444 0.000000
0.000000 0.543191 0.000000
0.000000 0.536712 0.000000
0.000000 0.530923 0.000000
0.000000 0.525751 0.000000
0.000000 0.521131 0.000000
0.000000 0.517003 0.000000
0.000000 0.513315 0.000000
0.000000 0.510021 0.000000
0.000000 0.507078 0.000000
0.000000 0.504448 0.000000
0.000000 0.502099 0.000000
0.000000 0.497804 0.000000
0.000000 0.494785 0.000000
0.000000 0.490633 0.000000
0.000000 0.484924 0.000000
0.000000 0.477074 0.000000
0.000000 0.466279 0.000000
0.000000 0.451436 0.000000
0.000000 0.431025 0.000000
0.000000 0.402959 0.000000
0.000000 0.364366 0.000000
0.000000 0.311297 0.000000
0.000000 0.238324 0.000000
0.000000 0.137980 0.000000
0.001414 0.501414 0.000000
0.002828 0.502828 0.000000
0.004241 0.504241 0.000000
0.005655 0.505655 0.000000
0.007069 0.507069 0.000000
0.008483 0.508483 0.000000
0.009896 0.509896 0.000000
0.011310 0.511310 0.000000
0.012724 0.512724 0.000000
0.014138 0.514138 0.000000
0.015551 0.515551 0.000000
0.016965 0.516965 0.000000
0.018379 0.518379 0.000000
0.019793 0.519793 0.000000
0.021206 0.521206 0.000000
0.022620 0.522620 0.000000
0.024034 0.524034 0.000000
0.025448 0.525448 0.000000
0.026861 0.526861 0.000000
0.028275 0.528275 0.000000
0.029689 0.529689 0.000000
0.031103 0.531103 0.000000
0.032516 0.532516 0.000000
0.033930 0.533930 0.000000
0.035344 0.535344 0.000000
0.036758 0.536758 0.000000
0.038172 0.538172 0.000000
0.039585 0.539585 0.000000
0.040999 0.540999 0.000000
0.042413 0.542413 0.000000
0.043827 0.543827 0.000000
0.045240 0.545240 0.000000
0.046654 0.546654 0.000000
0.048068 0.548068 0.000000
0.049482 0.549482 0.000000
0.050895 0.550895 0.000000
0.052309 0.552309 0.000000
0.053723 0.553723 0.000000
0.055137 0.555137 0.000000
0.056550 0.556550 0.000000
0.057964 0.557964 0.000000
0.059378 0.559378 0.000000
0.060792 0.560792 0.000000
0.062205 0.562205 0.000000
0.063619 0.563619 0.000000
0.065033 0.565033 0.000000
0.066447 0.566447 0.000000
0.067861 0.567861 0.000000
0.069274 0.569274 0.000000
0.070688 0.570688 0.000000
0.072102 0.572102 0.000000
0.073516 0.573516 0.000000
0.074929 0.574929 0.000000
0.076343 0.576343 0.000000
0.077757 0.577757 0.000000
0.079171 0.579171 0.000000
0.080584 0.580584 0.000000
0.081998 0.581998 0.000000
0.083412 0.583412 0.000000
0.084826 0.584826 0.000000
0.086239 0.586239 0.000000
0.087653 0.587653 0.000000
0.089067 0.589067 0.000000
0.090481 0.590481 0.000000
0.091894 0.591894 0.000000
0.093308 0.593308 0.000000
0.094722 0.594722 0.000000
0.096136 0.596136 0.000000
0.097549 0.597549 0.000000
0.098963 0.598963 0.000000
0.100377 0.600377 0.000000
0.101791 0.601791 0.000000
0.103205 0.603205 0.000000
0.104618 0.604618 0.000000
0.106032 0.606032 0.000000
0.107446 0.607446 0.000000
0.108860 0.608860 0.000000
0.110273 0.610273 0.000000
0.111687 0.611687 0.000000
0.113101 0.613101 0.000000
0.114515 0.614515 0.000000
0.115928 0.615928 0.000000
0.117342 0.617342 0.000000
0.118756 0.618756 0.000000
0.120170 0.620170 0.000000
0.121583 0.621583 0.000000
0.122997 0.622997 0.000000
0.124411 0.624411 0.000000
0.125825 0.625825 0.000000
0.127238 0.627238 0.000000
0.128652 0.628652 0.000000
0.130066 0.630066 0.000000
0.131480 0.631480 0.000000
0.132893 0.632893 0.000000
0.134307 0.634307 0.000000
0.135721 0.635721 0.000000
0.137135 0.637135 0.000000
0.138549 0.638549 0.000000
0.139962 0.639962 0.000000
0.141376 0.641376 0.000000
0.142790 0.642790 0.000000
0.144204 0.644204 0.000000
0.145617 0.645617 0.000000
0.147031 0.647031 0.000000
0.148445 0.648445 0.000000
0.149859 0.649859 0.000000
0.151272 0.651272 0.000000
0.152686 0.652686 0.000000
0.154100 0.654100 0.000000
0.155514 0.655514 0.000000
0.156927 0.656927 0.000000
0.158341 0.658341 0.000000
0.159755 0.659755 0.000000
0.161169 0.661169 0.000000
0.162582 0.662582 0.000000
0.163996 0.663996 0.000000
0.165410 0.665410 0.000000
0.166824 0.666824 0.000000
0.168238 0.668238 0.000000
0.169651 0.669651 0.000000
0.171065 0.671065 0.000000
0.172479 0.672479 0.000000
0.173893 0.673893 0.000000
0.175306 0.675306 0.000000
0.176720 0.676720 0.000000
0.178134 0.678134 0.000000
0.179548 0.679548 0.000000
0.180961 0.680961 0.000000
0.182375 0.682375 0.000000
0.183789 0.683789 0.000000
0.185203 0.685203 0.000000
0.186616 0.686616 0.000000
0.188030 0.688030 0.000000
0.189444 0.689444 0.000000
0.190858 0.690858 0.000000
0.192271 0.692271 0.000000
0.193685 0.693685 0.000000
0.195099 0.695099 0.000000
0.196513 0.696513 0.000000
0.197926 0.697926 0.000000
0.199340 0.699340 0.000000
0.200754 0.700754 0.000000
0.202168 0.702168 0.000000
0.203582 0.703582 0.000000
0.204995 0.704995 0.000000
0.206409 0.706409 0.000000
0.207823 0.707823 0.000000
0.209237 0.709237 0.000000
0.210650 0.710650 0.000000
0.212064 0.712064 0.000000
0.213478 0.713478 0.000000
0.214892 0.714892 0.000000
0.216305 0.716305 0.000000
0.217719 0.717719 0.000000
0.219133 0.719133 0.000000
0.220547 0.720547 0.000000
0.221960 0.721960 0.000000
0.223374 0.723374 0.000000
0.224788 0.724788 0.000000
0.226202 0.726202 0.000000
0.227615 0.727615 0.000000
0.229029 0.729029 0.000000
0.230443 0.730443 0.000000
0.231857 0.731857 0.000000
0.233270 0.733270 0.000000
0.234684 0.734684 0.000000
0.236098 0.736098 0.000000
0.237512 0.737512 0.000000
0.238926 0.738926 0.000000
0.240339 0.740339 0.000000
0.241753 0.741753 0.000000
0.243167 0.743167 0.000000
0.244581 0.744581 0.000000
0.245994 0.745994 0.000000
0.247408 0.747408 0.000000
0.248822 0.748822 0.000000
0.250236 0.750236 0.000000
0.251649 0.751649 0.000000
0.253063 0.753063 0.000000
0.254477 0.754477 0.000000
0.255891 0.755891 0.000000
0.257304 0.757304 0.000000
0.258718 0.758718 0.000000
0.260132 0.760132 0.000000
0.261546 0.761546 0.000000
0.262959 0.762959 0.000000
0.264373 0.764373 0.000000
0.265787 0.765787 0.000000
0.267201 0.767201 0.000000
0.268615 0.768615 0.000000
0.270028 0.770028 0.000000
0.271442 0.771442 0.000000
0.272856 0.772856 0.000000
0.274270 0.774270 0.000000
0.275683 0.775683 0.000000
0.277097 0.777097 0.000000
0.278511 0.778511 0.000000
0.279925 0.779925 0.000000
0.281338 0.781338 0.000000
0.282752 0.782752 0.000000
0.284166 0.784166 0.000000
0.285580 0.785580 0.000000
0.286993 0.786993 0.000000
0.288407 0.788407 0.000000
0.289821 0.789821 0.000000
0.291235 0.791235 0.000000
0.292648 0.792648 0.000000
0.294062 0.794062 0.000000
0.295476 0.795476 0.000000
0.296890 0.796890 0.000000
0.298303 0.798303 0.000000
0.299717 0.799717 0.000000
0.301131 0.801131 0.000000
0.302545 0.802545 0.000000
0.303959 0.803959 0.000000
0.305372 0.805372 0.000000
0.306786 0.806786 0.000000
0.308200 0.808200 0.000000
0.309614 0.809614 0.000000
0.311027 0.811027 0.000000
0.312441 0.812441 0.000000
0.313855 0.813855 0.000000
0.315269 0.815269 0.000000
0.316682 0.816682 0.000000
0.318096 0.818096 0.000000
0.319510 0.819510 0.000000
0.320924 0.820924 0.000000
0.322337 0.822337 0.000000
0.323751 0.823751 0.000000
0.325165 0.825165 0.000000
0.326579 0.826579 0.000000
0.327992 0.827992 0.000000
0.329406 0.829406 0.000000
0.330820 0.830820 0.000000
0.332234 0.832234 0.000000
0.333648 0.833648 0.000000
0.335061 0.835061 0.000000
0.336475 0.836475 0.000000
0.337889 0.837889 0.000000
0.339303 0.839303 0.000000
0.340716 0.840716 0.000000
[...]
POINT_DATA 20431
SCALARS UX float 1
LOOKUP_TABLE default
-0.000000
0.000000
0.102666
-0.107087
-0.083746
0.051702
0.103367
-0.000000
-0.000000
0.000000
-0.000000
0.070018
0.091676
0.100106
0.103181
0.104287
0.104601
0.104565
0.104439
0.104291
0.104145
0.104020
0.103912
0.103821
0.103745
0.103682
0.103630
0.103586
0.103550
0.103519
0.103494
0.103472
0.103454
0.103439
0.103426
0.103415
0.103406
0.103398
0.103391
0.103385
0.103381
0.103376
0.103373
0.103370
0.103365
0.103361
0.103356
0.103350
0.103342
0.103332
0.103319
0.103302
0.103281
0.103254
0.103219
0.103177
0.103125
0.103065
0.102992
0.102914
0.102834
0.102752
0.102693
0.060680
0.018711
-0.023235
-0.065164
-0.107085
-0.107085
-0.107104
-0.107158
-0.107251
-0.107368
-0.107494
-0.107595
-0.107618
-0.107538
-0.107350
-0.107027
-0.106544
-0.105919
-0.105161
-0.104291
-0.103324
-0.102280
-0.101187
-0.100062
-0.098928
-0.097794
-0.096692
-0.095604
-0.094567
-0.093580
-0.092639
-0.091759
-0.090936
-0.090169
-0.089461
-0.088805
-0.088203
-0.087652
-0.087147
-0.086688
-0.086269
-0.085889
-0.085543
-0.085231
-0.084948
-0.084693
-0.084462
-0.084254
-0.084066
-0.083898
-0.083586
-0.083365
-0.083057
-0.082629
-0.082027
-0.081184
-0.079955
-0.078195
-0.075595
-0.071542
-0.065276
-0.055368
-0.037850
-0.083716
-0.083686
-0.083655
-0.083623
-0.083591
-0.083558
-0.083525
-0.083491
-0.083456
-0.083421
-0.083385
-0.083349
-0.083312
-0.083275
-0.083237
-0.083198
-0.083159
-0.083119
-0.083079
-0.083039
-0.082997
-0.082956
-0.082914
-0.082871
-0.082828
-0.082784
-0.082740
-0.082696
-0.082651
-0.082605
-0.082559
-0.082513
-0.082466
-0.082419
-0.082371
-0.082323
-0.082274
-0.082225
-0.082176
-0.082126
-0.082076
-0.082025
-0.081974
-0.081923
-0.081871
-0.081819
-0.081767
-0.081714
-0.081660
-0.081606
-0.081552
-0.081498
-0.081443
-0.081387
-0.081332
-0.081276
-0.081220
-0.081163
-0.081106
-0.081049
-0.080991
-0.080933
-0.080875
-0.080817
-0.080758
-0.080699
-0.080639
-0.080580
-0.080519
-0.080459
-0.080398
-0.080337
-0.080276
-0.080214
-0.080152
-0.080089
-0.080027
-0.079963
-0.079900
-0.079836
-0.079772
-0.079707
-0.079643
-0.079578
-0.079512
-0.079447
-0.079381
-0.079314
-0.079248
-0.079181
-0.079114
-0.079047
-0.078979
-0.078911
-0.078842
-0.078774
-0.078705
-0.078635
-0.078566
-0.078496
-0.078425
-0.078355
-0.078284
-0.078213
-0.078142
-0.078070
-0.077998
-0.077926
-0.077853
-0.077780
-0.077707
-0.077633
-0.077559
-0.077485
-0.077411
-0.077336
-0.077261
-0.077185
-0.077109
-0.077033
-0.076957
-0.076880
-0.076803
-0.076726
-0.076649
-0.076571
-0.076493
-0.076414
-0.076335
-0.076256
-0.076177
-0.076098
-0.076018
-0.075938
-0.075857
-0.075777
-0.075696
-0.075614
-0.075533
-0.075451
-0.075369
-0.075286
-0.075203
-0.075120
-0.075037
-0.074953
-0.074870
-0.074785
-0.074701
-0.074616
-0.074531
-0.074446
-0.074360
-0.074274
-0.074188
-0.074102
-0.074015
-0.073928
-0.073841
-0.073753
-0.073665
-0.073577
-0.073489
-0.073400
-0.073311
-0.073222
-0.073133
-0.073043
-0.072953
-0.072863
-0.072772
-0.072682
-0.072591
-0.072499
-0.072408
-0.072316
-0.072224
-0.072132
-0.072039
-0.071946
-0.071853
-0.071760
-0.071667
-0.071573
-0.071479
-0.071385
-0.071290
-0.071195
-0.071100
-0.071005
-0.070910
-0.070814
-0.070718
-0.070622
-0.070526
-0.070429
-0.070332
-0.070235
-0.070138
-0.070040
-0.069942
-0.069844
-0.069746
-0.069648
-0.069549
-0.069450
-0.069351
-0.069251
-0.069151
-0.069052
-0.068951
-0.068851
-0.068750
-0.068650
-0.068549
-0.068447
-0.068346
-0.068244
-0.068142
-0.068040
-0.067938
-0.067835
-0.067732
-0.067629
-0.067526
-0.067423
-0.067319
-0.067215
-0.067111
-0.067007
-0.066902
-0.066797
-0.066692
-0.066587
-0.066482
-0.066376
-0.066270
-0.066164
-0.066058
-0.065952
-0.065845
-0.065738
-0.065631
-0.065524
-0.065417
-0.065309
-0.065201
-0.065093
-0.064985
-0.064876
-0.064768
-0.064659
-0.064550
-0.064441
-0.064331
-0.064221
-0.064112
-0.064001
-0.063891
-0.063781
-0.063670
-0.063559
-0.063448
-0.063337
-0.063226
-0.063114
-0.063002
-0.062890
-0.062778
-0.062665
-0.062553
-0.062440
-0.062327
-0.062214
-0.062101
-0.061987
-0.061873
-0.061759
-0.061645
-0.061531
-0.061417
-0.061302
-0.061187
-0.061072
-0.060957
-0.060841
-0.060726
-0.060610
-0.060494
-0.060378
-0.060261
-0.060145
-0.060028
-0.059911
-0.059794
-0.059677
-0.059560
-0.059442
-0.059324
-0.059206
-0.059088
-0.058970
-0.058852
-0.058733
-0.058614
-0.058495
-0.058376
-0.058257
-0.058137
-0.058018
-0.057898
-0.057778
-0.057658
-0.057537
-0.057417
-0.057296
-0.057175
-0.057054
-0.056933
-0.056812
-0.056690
-0.056569
-0.056447
-0.056325
-0.056203
-0.056081
-0.055958
-0.055836
-0.055713
-0.055590
-0.055467
-0.055344
-0.055220
-0.055097
-0.054973
-0.054849
-0.054725
-0.054601
-0.054477
-0.054352
-0.054227
-0.054103
-0.053978
-0.053853
-0.053727
-0.053602
-0.053476
-0.053351
-0.053225
-0.053099
-0.052973
-0.052846
-0.052720
-0.052593
-0.052466
-0.052339
-0.052212
-0.052085
-0.051958
-0.051830
-0.051703
-0.051575
-0.051447
-0.051319
-0.051191
-0.051062
-0.050934
-0.050805
-0.050676
-0.050547
-0.050418
-0.050289
-0.050159
-0.050030
-0.049900
-0.049770
-0.049640
-0.049510
-0.049380
-0.049250
-0.049119
-0.048988
-0.048858
-0.048727
-0.048596
-0.048464
-0.048333
-0.048202
-0.048070
-0.047938
-0.047806
-0.047674
-0.047542
-0.047410
-0.047277
-0.047145
-0.047012
-0.046879
-0.046746
-0.046613
-0.046480
-0.046347
-0.046213
-0.046080
-0.045946
-0.045812
-0.045678
-0.045544
-0.045410
-0.045275
-0.045141
-0.045006
-0.044871
-0.044736
-0.044601
-0.044466
-0.044331
-0.044195
-0.044060
-0.043924
-0.043789
-0.043653
-0.043517
-0.043380
-0.043244
-0.043108
-0.042971
-0.042835
-0.042698
-0.042561
-0.042424
-0.042287
-0.042150
-0.042012
-0.041875
-0.041737
-0.041600
-0.041462
-0.041324
-0.041186
-0.041048
-0.040909
-0.040771
-0.040632
-0.040494
-0.040355
-0.040216
-0.040077
-0.039938
-0.039799
-0.039660
-0.039520
-0.039381
-0.039241
-0.039101
-0.038962
-0.038822
-0.038682
-0.038542
-0.038401
-0.038261
-0.038121
-0.037980
-0.037839
-0.037699
-0.037558
-0.037417
-0.037276
-0.037134
-0.036993
-0.036852
-0.036710
-0.036569
-0.036427
-0.036285
-0.036143
-0.036001
-0.035859
-0.035717
-0.035575
-0.035433
-0.035290
-0.035148
-0.035005
-0.034862
-0.034719
-0.034576
-0.034433
-0.034290
-0.034147
-0.034004
-0.033860
-0.033717
-0.033573
-0.033430
-0.033286
-0.033142
-0.032998
-0.032854
-0.032710
-0.032566
-0.032421
-0.032277
-0.032133
-0.031988
-0.031843
-0.031699
-0.031554
-0.031409
-0.031264
-0.031119
-0.030974
-0.030829
-0.030683
-0.030538
-0.030392
-0.030247
-0.030101
-0.029956
-0.029810
-0.029664
-0.029518
-0.029372
-0.029226
-0.029080
-0.028933
-0.028787
-0.028641
-0.028494
-0.028348
-0.028201
-0.028054
-0.027907
-0.027761
-0.027614
-0.027467
-0.027320
-0.027173
-0.027025
-0.026878
-0.026731
-0.026583
-0.026436
-0.026288
-0.026141
-0.025993
-0.025845
-0.025697
-0.025549
-0.025401
-0.025253
-0.025105
-0.024957
-0.024809
-0.024661
-0.024512
-0.024364
-0.024216
-0.024067
-0.023918
-0.023770
-0.023621
-0.023472
-0.023323
-0.023175
-0.023026
-0.022877
-0.022728
-0.022579
-0.022429
-0.022280
-0.022131
-0.021982
-0.021832
-0.021683
-0.021533
-0.021384
-0.021234
-0.021084
-0.020935
-0.020785
-0.020635
-0.020485
-0.020335
-0.020185
-0.020035
-0.019885
-0.019735
-0.019585
-0.019435
-0.019285
-0.019134
-0.018984
-0.018834
-0.018683
-0.018533
-0.018382
-0.018232
-0.018081
-0.017930
-0.017780
-0.017629
-0.017478
-0.017327
-0.017176
-0.017025
-0.016875
-0.016724
-0.016573
-0.016421
-0.016270
-0.016119
-0.015968
-0.015817
-0.015666
-0.015514
-0.015363
-0.015212
-0.015060
-0.014909
-0.014757
-0.014606
-0.014454
-0.014303
-0.014151
-0.013999
-0.013848
-0.013696
-0.013544
-0.013393
-0.013241
-0.013089
-0.012937
-0.012785
-0.012633
-0.012481
-0.012329
-0.012177
-0.012025
-0.011873
-0.011721
-0.011569
-0.011417
-0.011265
-0.011113
-0.010960
-0.010808
-0.010656
-0.010504
-0.010351
-0.010199
-0.010047
-0.009894
-0.009742
-0.009589
-0.009437
-0.009284
-0.009132
-0.008979
-0.008827
-0.008674
-0.008522
-0.008369
-0.008217
-0.008064
-0.007911
-0.007759
-0.007606
-0.007453
-0.007301
-0.007148
-0.006995
-0.006842
-0.006690
-0.006537
-0.006384
-0.006231
-0.006078
-0.005925
-0.005773
-0.005620
-0.005467
-0.005314
-0.005161
-0.005008
-0.004855
-0.004702
-0.004549
-0.004396
-0.004243
-0.004090
-0.003937
-0.003784
-0.003631
-0.003478
-0.003325
-0.003172
-0.003019
-0.002866
-0.002713
-0.002560
-0.002407
-0.002254
-0.002101
-0.001947
-0.001794
-0.001641
-0.001488
-0.001335
-0.001182
-0.001029
-0.000876
-0.000722
-0.000569
-0.000416
-0.000263
-0.000110
0.000043
0.000196
0.000350
0.000503
0.000656
0.000809
0.000962
0.001115
0.001269
0.001422
0.001575
0.001728
0.001881
0.002034
0.002188
0.002341
0.002494
0.002647
0.002800
0.002953
0.003107
0.003260
0.003413
0.003566
0.003719
0.003872
0.004025
0.004178
0.004332
0.004485
0.004638
0.004791
0.004944
0.005097
0.005250
0.005403
0.005556
0.005709
0.005862
0.006015
0.006169
0.006322
0.006475
0.006628
0.006781
0.006934
0.007087
0.007240
0.007393
0.007546
0.007699
0.007851
0.008004
0.008157
0.008310
0.008463
0.008616
0.008769
0.008922
0.009075
0.009228
0.009380
0.009533
0.009686
0.009839
0.009992
0.010144
0.010297
0.010450
0.010603
0.010755
0.010908
0.011061
0.011214
0.011366
0.011519
0.011671
0.011824
0.011977
0.012129
0.012282
0.012435
0.012587
0.012740
0.012892
0.013045
0.013197
0.013350
0.013502
0.013655
0.013807
0.013959
0.014112
0.014264
0.014417
0.014569
0.014721
0.014874
0.015026
0.015178
0.015331
0.015483
0.015635
0.015787
0.015940
0.016092
0.016244
0.016396
0.016548
0.016700
0.016852
0.017004
0.017157
0.017309
0.017461
0.017613
0.017765
0.017917
0.018069
0.018220
0.018372
0.018524
0.018676
0.018828
0.018980
0.019132
0.019283
0.019435
0.019587
0.019739
0.019890
0.020042
0.020194
0.020345
0.020497
0.020649
0.020800
0.020952
0.021103
0.021255
0.021406
0.021558
0.021709
0.021861
0.022012
0.022164
0.022315
0.022466
0.022618
0.022769
0.022920
0.023072
0.023223
0.023374
0.023525
0.023677
0.023828
0.023979
0.024130
0.024281
0.024432
0.024583
0.024734
0.024885
0.025036
0.025187
0.025338
0.025489
0.025640
0.025791
0.025942
0.026093
0.026243
0.026394
0.026545
0.026696
0.026846
0.026997
0.027148
0.027298
0.027449
0.027600
0.027750
0.027901
0.028051
0.028202
0.028352
0.028503
0.028653
0.028804
0.028954
0.029104
0.029255
0.029405
0.029555
0.029706
0.029856
0.030006
0.030156
0.030306
0.030457
0.030607
0.030757
0.030907
0.031057
0.031207
0.031357
0.031507
0.031657
0.031807
0.031957
0.032107
0.032257
0.032406
0.032556
0.032706
0.032856
0.033006
0.033155
0.033305
0.033455
0.033604
0.033754
0.033904
0.034053
0.034203
0.034352
0.034502
0.034652
0.034801
0.034950
0.035100
0.035249
0.035399
0.035548
0.035697
0.035847
0.035996
0.036145
0.036295
0.036444
0.036593
0.036742
0.036891
0.037041
0.037190
0.037339
0.037488
0.037637
0.037786
0.037935
0.038084
0.038233
0.038382
0.038531
0.038680
0.038828
0.038977
0.039126
0.039275
0.039424
0.039572
0.039721
0.039870
0.040019
0.040167
0.040316
0.040465
0.040613
0.040762
0.040910
0.041059
0.041207
0.041356
0.041504
0.041653
0.041801
0.041950
0.042098
0.042246
0.042395
0.042543
0.042691
0.042840
0.042988
0.043136
0.043284
0.043433
0.043581
0.043729
0.043877
0.044025
0.044173
0.044321
0.044470
0.044618
0.044766
0.044914
0.045062
0.045210
0.045358
0.045505
0.045653
0.045801
0.045949
0.046097
0.046245
0.046393
0.046540
0.046688
0.046836
0.046984
0.047131
0.047279
0.047427
0.047574
0.047722
0.047870
0.048017
0.048165
0.048312
0.048460
0.048607
0.048755
0.048902
0.049050
0.049197
0.049345
0.049492
0.049640
0.049787
0.049934
0.050082
0.050229
0.050377
0.050524
0.050671
0.050818
0.050966
0.051113
0.051260
0.051407
0.051555
0.051849
0.051996
0.052143
0.052290
0.052437
0.052584
0.052731
0.052877
0.053024
0.053171
0.053318
0.053465
0.053612
0.053759
0.053905
0.054052
0.054199
0.054346
0.054492
0.054639
0.054786
0.054933
0.055079
0.055226
0.055373
0.055519
0.055666
0.055812
0.055959
0.056106
0.056252
0.056399
0.056545
0.056692
0.056838
0.056985
0.057131
0.057278
0.057424
0.057571
0.057717
0.057864
0.058010
0.058156
0.058303
0.058449
0.058596
0.058742
0.058888
0.059035
0.059181
0.059327
0.059474
0.059620
0.059766
0.059912
0.060059
0.060205
0.060351
0.060497
0.060644
0.060790
0.060936
0.061082
0.061228
0.061374
0.061521
0.061667
0.061813
0.061959
0.062105
0.062251
0.062397
0.062543
0.062689
0.062835
0.062982
0.063128
0.063274
0.063420
0.063566
0.063712
0.063858
0.064004
0.064150
0.064296
0.064441
0.064587
0.064733
0.064879
0.065025
0.065171
0.065317
0.065463
0.065609
0.065755
0.065901
0.066047
0.066192
0.066338
0.066484
0.066630
0.066776
0.066922
0.067067
0.067213
0.067359
0.067505
0.067651
0.067796
0.067942
0.068088
0.068234
0.068380
0.068525
0.068671
0.068817
0.068963
0.069108
0.069254
0.069400
0.069545
0.069691
0.069837
0.069983
0.070128
0.070274
0.070420
0.070565
0.070711
0.070857
0.071002
0.071148
0.071294
0.071439
0.071585
0.071731
0.071876
0.072022
0.072168
0.072313
0.072459
0.072605
0.072750
0.072896
0.073041
0.073187
0.073333
0.073478
0.073624
0.073770
0.073915
0.074061
0.074206
0.074352
0.074498
0.074643
0.074789
0.074934
0.075080
0.075225
0.075371
0.075517
0.075662
0.075808
0.075953
0.076099
0.076244
0.076390
0.076536
0.076681
0.076827
0.076972
0.077118
0.077263
0.077409
0.077555
0.077700
0.077846
0.077991
0.078137
0.078282
0.078428
0.078573
0.078719
0.078865
0.079010
0.079156
0.079301
0.079447
0.079592
0.079738
0.079884
0.080029
0.080175
0.080320
0.080466
0.080611
0.080757
0.080903
0.081048
0.081194
0.081339
0.081485
0.081630
0.081776
0.081922
0.082067
0.082213
0.082358
0.082504
0.082650
0.082795
0.082941
0.083086
0.083232
0.083378
0.083523
0.083669
0.083814
0.083960
0.084106
0.084251
0.084397
0.084542
0.084688
0.084834
0.084979
0.085125
0.085271
0.085416
0.085562
0.085707
0.085853
0.085999
0.086144
0.086290
0.086436
0.086581
0.086727
0.086873
0.087018
0.087164
0.087310
0.087455
0.087601
0.087747
0.087893
0.088038
0.088184
0.088330
0.088475
0.088621
0.088767
0.088913
0.089058
0.089204
0.089350
0.089496
0.089641
0.089787
0.089933
0.090079
0.090224
0.090370
0.090516
0.090662
0.090807
0.090953
0.091099
0.091245
0.091391
0.091536
0.091682
0.091828
0.091974
0.092120
0.092266
0.092411
0.092557
0.092703
0.092849
0.092995
0.093141
0.093287
0.093432
0.093578
0.093724
0.093870
0.094016
0.094162
0.094308
0.094454
0.094600
0.094746
0.094892
0.095038
0.095184
0.095329
0.095475
0.095621
0.095767
0.095913
0.096059
0.096205
0.096351
0.096497
0.096643
0.096789
0.096935
0.097082
0.097228
0.097374
0.097520
0.097666
0.097812
0.097958
0.098104
0.098250
0.098396
0.098542
0.098688
0.098834
0.098981
0.099127
0.099273
0.099419
0.099565
0.099711
0.099857
0.100004
0.100150
0.100296
0.100442
0.100588
0.100735
0.100881
0.101027
0.101173
0.101319
0.101466
0.101612
0.101758
0.101904
0.102051
0.102197
0.102343
0.102490
0.102636
0.102782
0.102928
0.103075
0.103221
0.073559
0.073630
0.073405
0.065776
0.065884
0.065988
-0.053168
-0.053090
-0.053315
-0.053410
-0.027993
0.083576
0.083839
0.083895
0.084054
0.070598
0.070364
0.070437
-0.028547
-0.028393
-0.028579
-0.028310
-0.077217
-0.077327
-0.077056
-0.077091
-0.029504
-0.029391
-0.029282
0.028849
0.028617
0.028748
0.028825
-0.048335
-0.049600
-0.058428
-0.060197
0.020388
0.020158
0.020248
0.020227
-0.022497
-0.022980
-0.022567
-0.022588
0.053565
0.053124
0.052673
0.054134
-0.077566
-0.077476
-0.077209
0.025075
0.025047
0.025318
0.025442
0.001254
-0.004760
-0.003320
-0.008305
0.012350
0.012679
0.012809
-0.041253
-0.039312
-0.041336
-0.006810
-0.006661
-0.007027
-0.006864
0.065060
0.065838
0.065760
0.066562
-0.001700
-0.001172
-0.001391
-0.000635
0.021873
0.022105
0.021691
0.022215
0.020382
0.020547
0.020256
0.020683
-0.011089
-0.011127
-0.011329
-0.011447
0.073007
0.072908
0.072635
-0.030679
-0.031108
-0.030811
0.012370
0.072535
0.072266
0.072258
0.072662
0.033420
0.033684
0.033563
-0.000510
-0.000453
-0.000675
0.033665
0.020161
0.019420
0.019155
-0.000276
0.038604
0.038440
0.038090
0.060672
0.060932
0.060630
0.061048
0.037406
0.037553
0.037291
0.037646
0.037998
-0.066664
-0.066966
-0.066810
0.085985
0.085738
0.086147
-0.067100
-0.046579
-0.046776
-0.046965
-0.046397
-0.037530
-0.037356
-0.037972
-0.037546
-0.020998
-0.021448
-0.021124
0.011010
0.011264
0.010942
0.011170
-0.021519
0.033579
0.033770
0.033423
-0.035633
-0.035986
-0.035654
-0.038957
-0.039431
-0.039800
0.033765
0.066861
0.066928
0.066607
-0.059491
-0.059393
-0.059269
0.071621
0.071899
0.071917
0.071670
0.042155
0.041763
0.041921
0.041347
0.001310
-0.000736
0.001364
0.000845
0.031682
0.032525
0.030299
0.033805
-0.056217
-0.056052
-0.056544
-0.055725
0.097303
0.097110
-0.081039
-0.080357
-0.079966
-0.079212
-0.052536
-0.051164
-0.048017
-0.056535
0.100534
0.100609
0.100958
-0.060602
-0.055781
-0.060919
-0.061262
-0.059987
0.069395
0.069344
0.068990
0.027183
0.027043
0.027372
0.027266
0.001978
0.001368
0.001806
-0.078437
-0.078405
-0.078842
-0.078481
0.100670
0.100093
0.100845
0.099911
0.086149
0.086407
0.086680
0.068894
0.041494
0.041204
0.040905
0.040676
-0.009235
-0.009066
-0.008868
-0.009365
-0.016636
-0.017598
-0.020254
0.087949
0.087872
0.087119
0.087426
-0.022276
-0.021715
-0.024414
-0.023264
0.040759
0.040790
0.040523
0.023669
0.024481
0.031297
0.017215
-0.069399
-0.069759
-0.068630
-0.071014
0.092842
0.093059
0.021118
0.021089
0.021240
0.041019
0.002635
0.003710
0.004441
0.005030
-0.037836
-0.038212
-0.038049
-0.038019
-0.036686
-0.042319
-0.040518
-0.036876
-0.008491
-0.008056
-0.008808
-0.008709
-0.045543
-0.044119
-0.043059
-0.041936
0.091495
0.092003
0.092329
0.091471
-0.041860
-0.041796
-0.041664
-0.086721
-0.090409
-0.086852
-0.087218
-0.073689
-0.073897
-0.073934
-0.013591
-0.013644
-0.028499
-0.028539
-0.030336
-0.026871
0.038184
0.035900
0.036213
0.033680
0.005344
0.014673
0.013446
0.011949
0.050011
0.050201
0.048781
0.048782
0.081567
0.079672
0.080305
0.081427
-0.034999
-0.034863
-0.036002
-0.036214
-0.029672
-0.029546
-0.029371
-0.029941
0.055815
0.056692
0.056028
0.056576
0.055005
0.054910
0.055974
-0.006919
-0.006653
-0.006592
-0.006905
0.096429
0.095354
0.096343
0.072592
-0.018345
-0.020373
-0.019348
-0.019222
0.080352
0.080428
0.079952
0.080132
0.015515
0.015800
0.015588
0.015922
0.038196
0.038641
-0.010447
-0.009680
-0.009026
-0.008473
-0.002750
-0.002721
-0.000194
-0.005345
-0.001058
-0.000900
-0.000783
0.089636
0.089329
0.089298
-0.053720
-0.053882
-0.053097
-0.053038
-0.000714
-0.045740
-0.042790
-0.045006
0.081765
0.082146
0.082768
0.083137
0.076461
0.076300
0.076270
0.076014
0.036252
0.035453
0.035246
0.037016
0.031278
0.031010
0.030887
0.031316
0.031117
0.031453
0.040016
0.038832
0.039603
-0.005507
-0.005740
-0.005462
0.022742
0.019692
0.026920
-0.005573
0.052042
0.052643
0.050795
0.044224
0.044562
0.044545
0.044324
0.066190
0.066247
0.065848
-0.046031
-0.040892
0.066531
0.062826
0.062724
0.062556
0.062476
-0.036230
-0.036086
-0.036293
0.080710
0.021736
0.021847
0.021171
0.021062
-0.065899
-0.063797
-0.064566
-0.062824
0.026466
0.026429
0.026196
0.026696
-0.043641
-0.042851
-0.044841
-0.042524
-0.052963
-0.054073
-0.049782
-0.056939
0.056445
0.056319
0.056702
-0.045743
-0.045351
-0.046365
0.029094
0.029025
0.027985
0.027299
0.070574
0.058488
0.058200
0.058480
0.043869
0.045329
0.044102
0.045111
-0.011033
-0.012229
-0.012493
0.058193
0.061740
0.062216
0.061749
0.031071
0.031770
0.032110
0.032812
0.038463
0.035945
-0.021871
-0.022666
-0.021574
-0.023377
-0.060679
-0.063566
-0.063570
-0.059061
-0.045913
-0.046608
0.019014
0.018871
0.019974
0.062003
-0.013416
-0.010974
-0.010021
-0.014053
0.030591
0.033603
0.045896
0.046065
0.045946
-0.045506
-0.044853
-0.044645
0.046225
-0.036626
-0.036562
-0.036390
0.064863
0.064562
0.064738
0.064437
-0.024225
-0.024115
-0.024012
-0.042826
-0.049539
0.011580
0.011515
0.011368
0.068954
0.068897
0.068728
0.068638
0.046104
0.046281
0.046404
0.016751
0.015824
0.015576
0.014239
0.044631
0.044399
0.044498
0.044255
0.038937
0.039051
0.038830
0.061568
0.061773
0.061890
0.044603
0.044310
0.046000
0.061985
-0.055583
-0.055588
-0.055350
0.043147
0.033165
0.032477
0.033487
0.046047
-0.059139
-0.059043
-0.059196
0.023220
0.018198
0.020238
-0.055821
0.057895
0.057906
0.058230
0.082990
0.083106
0.082839
0.082991