# vtk DataFile Version 2.0
Test
ASCII
DATASET POLYDATA
POINTS 20431 float
0.000000 0.000000 0.000000
2.000000 0.000000 0.000000
2.000000 4.000000 0.000000
0.000000 4.000000 0.000000
0.000000 0.500000 0.000000
1.500000 2.000000 0.000000
2.000000 2.500000 0.000000
0.400000 0.000000 0.000000
0.800000 0.000000 0.000000
1.200000 0.000000 0.000000
1.600000 0.000000 0.000000
2.000000 0.362557 0.000000
2.000000 0.672798 0.000000
2.000000 0.938272 0.000000
2.000000 1.165439 0.000000
2.000000 1.359826 0.000000
2.000000 1.526163 0.000000
2.000000 1.668499 0.000000
2.000000 1.790295 0.000000
2.000000 1.894517 0.000000
2.000000 1.983700 0.000000
2.000000 2.060013 0.000000
2.000000 2.125315 0.000000
2.000000 2.181194 0.000000
2.000000 2.229010 0.000000
2.000000 2.269926 0.000000
2.000000 2.304938 0.000000
2.000000 2.334898 0.000000
2.000000 2.360534 0.000000
2.000000 2.382472 0.000000
2.000000 2.401244 0.000000
2.000000 2.417307 0.000000
2.000000 2.431052 0.000000
2.000000 2.442814 0.000000
2.000000 2.452878 0.000000
2.000000 2.461491 0.000000
2.000000 2.468860 0.000000
2.000000 2.475167 0.000000
2.000000 2.480563 0.000000
2.000000 2.485180 0.000000
2.000000 2.489132 0.000000
2.000000 2.492513 0.000000
2.000000 2.495406 0.000000
2.000000 2.497882 0.000000
2.000000 2.502286 0.000000
2.000000 2.505266 0.000000
2.000000 2.509150 0.000000
2.000000 2.514212 0.000000
2.000000 2.520809 0.000000
2.000000 2.529407 0.000000
2.000000 2.540613 0.000000
2.000000 2.555218 0.000000
2.000000 2.574253 0.000000
2.000000 2.599061 0.000000
2.000000 2.631395 0.000000
2.000000 2.673536 0.000000
2.000000 2.728460 0.000000
2.000000 2.800043 0.000000
2.000000 2.893339 0.000000
2.000000 3.014933 0.000000
2.000000 3.173410 0.000000
2.000000 3.379956 0.000000
2.000000 3.649152 0.000000
1.600000 4.000000 0.000000
1.200000 4.000000 0.000000
0.800000 4.000000 0.000000
0.400000 4.000000 0.000000
0.000000 3.624996 0.000000
0.000000 3.289970 0.000000
0.000000 2.990661 0.000000
0.000000 2.723261 0.000000
0.000000 2.484368 0.000000
0.000000 2.270943 0.000000
0.000000 2.080271 0.000000
0.000000 1.909926 0.000000
0.000000 1.757741 0.000000
0.000000 1.621780 0.000000
0.000000 1.500314 0.000000
0.000000 1.391797 0.000000
0.000000 1.294849 0.000000
0.000000 1.208237 0.000000
0.000000 1.130858 0.000000
0.000000 1.061728 0.000000
0.000000 0.999968 0.000000
0.000000 0.944792 0.000000
0.000000 0.895499 0.000000
0.000000 0.851460 0.000000
0.000000 0.812117 0.000000
0.000000 0.776968 0.000000
0.000000 0.745565 0.000000
0.000000 0.717511 0.000000
0.000000 0.692448 0.000000
0.000000 0.670056 0.000000
0.000000 0.650052 0.000000
0.000000 0.632180 0.000000
0.000000 0.616213 0.000000
0.000000 0.601949 0.000000
0.000000 0.589205 0.000000
0.000000 0.577820 0.000000
0.000000 0.567649 0.000000
0.000000 0.558562 0.000000
0.000000 0.550444 0.000000
0.000000 0.543191 0.000000
0.000000 0.536712 0.000000
0.000000 0.530923 0.000000
0.000000 0.525751 0.000000
0.000000 0.521131 0.000000
0.000000 0.517003 0.000000
0.000000 0.513315 0.000000
0.000000 0.510021 0.000000
0.000000 0.507078 0.000000
0.000000 0.504448 0.000000
0.000000 0.502099 0.000000
0.000000 0.497804 0.000000
0.000000 0.494785 0.000000
0.000000 0.490633 0.000000
0.000000 0.484924 0.000000
0.000000 0.477074 0.000000
0.000000 0.466279 0.000000
0.000000 0.451436 0.000000
0.000000 0.431025 0.000000
0.000000 0.402959 0.000000
0.000000 0.364366 0.000000
0.000000 0.311297 0.000000
0.000000 0.238324 0.000000
0.000000 0.137980 0.000000
0.001414 0.501414 0.000000
0.002828 0.502828 0.000000
0.004241 0.504241 0.000000
0.005655 0.505655 0.000000
0.007069 0.507069 0.000000
0.008483 0.508483 0.000000
0.009896 0.509896 0.000000
0.011310 0.511310 0.000000
0.012724 0.512724 0.000000
0.014138 0.514138 0.000000
0.015551 0.515551 0.000000
0.016965 0.516965 0.000000
0.018379 0.518379 0.000000
0.019793 0.519793 0.000000
0.021206 0.521206 0.000000
0.022620 0.522620 0.000000
0.024034 0.524034 0.000000
0.025448 0.525448 0.000000
0.026861 0.526861 0.000000
0.028275 0.528275 0.000000
0.029689 0.529689 0.000000
0.031103 0.531103 0.000000
0.032516 0.532516 0.000000
0.033930 0.533930 0.000000
0.035344 0.535344 0.000000
0.036758 0.536758 0.000000
0.038172 0.538172 0.000000
0.039585 0.539585 0.000000
0.040999 0.540999 0.000000
0.042413 0.542413 0.000000
0.043827 0.543827 0.000000
0.045240 0.545240 0.000000
0.046654 0.546654 0.000000
0.048068 0.548068 0.000000
0.049482 0.549482 0.000000
0.050895 0.550895 0.000000
0.052309 0.552309 0.000000
0.053723 0.553723 0.000000
0.055137 0.555137 0.000000
0.056550 0.556550 0.000000
0.057964 0.557964 0.000000
0.059378 0.559378 0.000000
0.060792 0.560792 0.000000
0.062205 0.562205 0.000000
0.063619 0.563619 0.000000
0.065033 0.565033 0.000000
0.066447 0.566447 0.000000
0.067861 0.567861 0.000000
0.069274 0.569274 0.000000
0.070688 0.570688 0.000000
0.072102 0.572102 0.000000
0.073516 0.573516 0.000000
0.074929 0.574929 0.000000
0.076343 0.576343 0.000000
0.077757 0.577757 0.000000
0.079171 0.579171 0.000000
0.080584 0.580584 0.000000
0.081998 0.581998 0.000000
0.083412 0.583412 0.000000
0.084826 0.584826 0.000000
0.086239 0.586239 0.000000
0.087653 0.587653 0.000000
0.089067 0.589067 0.000000
0.090481 0.590481 0.000000
0.091894 0.591894 0.000000
0.093308 0.593308 0.000000
0.094722 0.594722 0.000000
0.096136 0.596136 0.000000
0.097549 0.597549 0.000000
0.098963 0.598963 0.000000
0.100377 0.600377 0.000000
0.101791 0.601791 0.000000
0.103205 0.603205 0.000000
0.104618 0.604618 0.000000
0.106032 0.606032 0.000000
0.107446 0.607446 0.000000
0.108860 0.608860 0.000000
0.110273 0.610273 0.000000
0.111687 0.611687 0.000000
0.113101 0.613101 0.000000
0.114515 0.614515 0.000000
0.115928 0.615928 0.000000
0.117342 0.617342 0.000000
0.118756 0.618756 0.000000
0.120170 0.620170 0.000000
0.121583 0.621583 0.000000
0.122997 0.622997 0.000000
0.124411 0.624411 0.000000
0.125825 0.625825 0.000000
0.127238 0.627238 0.000000
0.128652 0.628652 0.000000
0.130066 0.630066 0.000000
0.131480 0.631480 0.000000
0.132893 0.632893 0.000000
0.134307 0.634307 0.000000
0.135721 0.635721 0.000000
0.137135 0.637135 0.000000
0.138549 0.638549 0.000000
0.139962 0.639962 0.000000
0.141376 0.641376 0.000000
0.142790 0.642790 0.000000
0.144204 0.644204 0.000000
0.145617 0.645617 0.000000
0.147031 0.647031 0.000000
0.148445 0.648445 0.000000
0.149859 0.649859 0.000000
0.151272 0.651272 0.000000
0.152686 0.652686 0.000000
0.154100 0.654100 0.000000
0.155514 0.655514 0.000000
0.156927 0.656927 0.000000
0.158341 0.658341 0.000000
0.159755 0.659755 0.000000
0.161169 0.661169 0.000000
0.162582 0.662582 0.000000
0.163996 0.663996 0.000000
0.165410 0.665410 0.000000
0.166824 0.666824 0.000000
0.168238 0.668238 0.000000
0.169651 0.669651 0.000000
0.171065 0.671065 0.000000
0.172479 0.672479 0.000000
0.173893 0.673893 0.000000
0.175306 0.675306 0.000000
0.176720 0.676720 0.000000
0.178134 0.678134 0.000000
0.179548 0.679548 0.000000
0.180961 0.680961 0.000000
0.182375 0.682375 0.000000
0.183789 0.683789 0.000000
0.185203 0.685203 0.000000
0.186616 0.686616 0.000000
0.188030 0.688030 0.000000
0.189444 0.689444 0.000000
0.190858 0.690858 0.000000
0.192271 0.692271 0.000000
0.193685 0.693685 0.000000
0.195099 0.695099 0.000000
0.196513 0.696513 0.000000
0.197926 0.697926 0.000000
0.199340 0.699340 0.000000
0.200754 0.700754 0.000000
0.202168 0.702168 0.000000
0.203582 0.703582 0.000000
0.204995 0.704995 0.000000
0.206409 0.706409 0.000000
0.207823 0.707823 0.000000
0.209237 0.709237 0.000000
0.210650 0.710650 0.000000
0.212064 0.712064 0.000000
0.213478 0.713478 0.000000
0.214892 0.714892 0.000000
0.216305 0.716305 0.000000
0.217719 0.717719 0.000000
0.219133 0.719133 0.000000
0.220547 0.720547 0.000000
0.221960 0.721960 0.000000
0.223374 0.723374 0.000000
0.224788 0.724788 0.000000
0.226202 0.726202 0.000000
0.227615 0.727615 0.000000
0.229029 0.729029 0.000000
0.230443 0.730443 0.000000
0.231857 0.731857 0.000000
0.233270 0.733270 0.000000
0.234684 0.734684 0.000000
0.236098 0.736098 0.000000
0.237512 0.737512 0.000000
0.238926 0.738926 0.000000
0.240339 0.740339 0.000000
0.241753 0.741753 0.000000
0.243167 0.743167 0.000000
0.244581 0.744581 0.000000
0.245994 0.745994 0.000000
0.247408 0.747408 0.000000
0.248822 0.748822 0.000000
0.250236 0.750236 0.000000
0.251649 0.751649 0.000000
0.253063 0.753063 0.000000
0.254477 0.754477 0.000000
0.255891 0.755891 0.000000
0.257304 0.757304 0.000000
0.258718 0.758718 0.000000
0.260132 0.760132 0.000000
0.261546 0.761546 0.000000
0.262959 0.762959 0.000000
0.264373 0.764373 0.000000
0.265787 0.765787 0.000000
0.267201 0.767201 0.000000
0.268615 0.768615 0.000000
0.270028 0.770028 0.000000
0.271442 0.771442 0.000000
0.272856 0.772856 0.000000
0.274270 0.774270 0.000000
0.275683 0.775683 0.000000
0.277097 0.777097 0.000000
0.278511 0.778511 0.000000
0.279925 0.779925 0.000000
0.281338 0.781338 0.000000
0.282752 0.782752 0.000000
0.284166 0.784166 0.000000
0.285580 0.785580 0.000000
0.286993 0.786993 0.000000
0.288407 0.788407 0.000000
0.289821 0.789821 0.000000
0.291235 0.791235 0.000000
0.292648 0.792648 0.000000
0.294062 0.794062 0.000000
0.295476 0.795476 0.000000
0.296890 0.796890 0.000000
0.298303 0.798303 0.000000
0.299717 0.799717 0.000000
0.301131 0.801131 0.000000
0.302545 0.802545 0.000000
0.303959 0.803959 0.000000
0.305372 0.805372 0.000000
0.306786 0.806786 0.000000
0.308200 0.808200 0.000000
0.309614 0.809614 0.000000
0.311027 0.811027 0.000000
0.312441 0.812441 0.000000
0.313855 0.813855 0.000000
0.315269 0.815269 0.000000
0.316682 0.816682 0.000000
0.318096 0.818096 0.000000
0.319510 0.819510 0.000000
0.320924 0.820924 0.000000
0.322337 0.822337 0.000000
0.323751 0.823751 0.000000
0.325165 0.825165 0.000000
0.326579 0.826579 0.000000
0.327992 0.827992 0.000000
0.329406 0.829406 0.000000
0.330820 0.830820 0.000000
0.332234 0.832234 0.000000
0.333648 0.833648 0.000000
0.335061 0.835061 0.000000
0.336475 0.836475 0.000000
0.337889 0.837889 0.000000
0.339303 0.839303 0.000000
0.340716 0.840716 0.000000
[...]
POINT_DATA 20431
SCALARS UX float 1
LOOKUP_TABLE default
-0.000000
0.000000
0.089900
-0.093771
-0.073332
0.045272
0.090513
-0.000000
-0.000000
0.000000
-0.000000
0.061311
0.080276
0.087658
0.090350
0.091319
0.091594
0.091562
0.091452
0.091322
0.091194
0.091085
0.090990
0.090911
0.090844
0.090789
0.090743
0.090705
0.090673
0.090646
0.090624
0.090605
0.090589
0.090576
0.090565
0.090555
0.090547
0.090540
0.090534
0.090529
0.090525
0.090521
0.090518
0.090516
0.090511
0.090508
0.090504
0.090498
0.090492
0.090483
0.090471
0.090456
0.090438
0.090414
0.090384
0.090347
0.090301
0.090249
0.090184
0.090117
0.090047
0.089974
0.089923
0.053134
0.016384
-0.020346
-0.057061
-0.093768
-0.093769
-0.093786
-0.093832
-0.093914
-0.094016
-0.094127
-0.094215
-0.094235
-0.094165
-0.094001
-0.093718
-0.093295
-0.092747
-0.092084
-0.091322
-0.090476
-0.089561
-0.088604
-0.087619
-0.086626
-0.085633
-0.084668
-0.083716
-0.082808
-0.081943
-0.081119
-0.080349
-0.079628
-0.078957
-0.078336
-0.077762
-0.077235
-0.076752
-0.076311
-0.075908
-0.075541
-0.075208
-0.074906
-0.074632
-0.074385
-0.074161
-0.073959
-0.073777
-0.073613
-0.073465
-0.073192
-0.072998
-0.072728
-0.072354
-0.071827
-0.071089
-0.070013
-0.068472
-0.066195
-0.062646
-0.057159
-0.048483
-0.033143
-0.073306
-0.073279
-0.073252
-0.073225
-0.073196
-0.073168
-0.073138
-0.073109
-0.073078
-0.073048
-0.073016
-0.072984
-0.072952
-0.072919
-0.072886
-0.072852
-0.072818
-0.072783
-0.072748
-0.072713
-0.072677
-0.072640
-0.072603
-0.072566
-0.072528
-0.072490
-0.072451
-0.072412
-0.072373
-0.072333
-0.072293
-0.072252
-0.072211
-0.072170
-0.072128
-0.072086
-0.072043
-0.072000
-0.071957
-0.071914
-0.071870
-0.071825
-0.071781
-0.071736
-0.071690
-0.071645
-0.071599
-0.071552
-0.071506
-0.071458
-0.071411
-0.071363
-0.071315
-0.071267
-0.071218
-0.071169
-0.071120
-0.071070
-0.071020
-0.070970
-0.070920
-0.070869
-0.070818
-0.070767
-0.070715
-0.070664
-0.070612
-0.070559
-0.070507
-0.070454
-0.070400
-0.070347
-0.070293
-0.070239
-0.070185
-0.070130
-0.070075
-0.070020
-0.069964
-0.069908
-0.069852
-0.069796
-0.069739
-0.069682
-0.069625
-0.069567
-0.069509
-0.069451
-0.069393
-0.069335
-0.069276
-0.069217
-0.069158
-0.069098
-0.069038
-0.068978
-0.068917
-0.068857
-0.068796
-0.068735
-0.068673
-0.068611
-0.068549
-0.068487
-0.068425
-0.068362
-0.068299
-0.068235
-0.068172
-0.068108
-0.068044
-0.067979
-0.067915
-0.067850
-0.067784
-0.067719
-0.067653
-0.067587
-0.067521
-0.067454
-0.067387
-0.067320
-0.067253
-0.067185
-0.067117
-0.067049
-0.066981
-0.066912
-0.066843
-0.066774
-0.066704
-0.066635
-0.066565
-0.066495
-0.066424
-0.066354
-0.066283
-0.066211
-0.066140
-0.066068
-0.065996
-0.065924
-0.065852
-0.065779
-0.065706
-0.065633
-0.065559
-0.065486
-0.065412
-0.065337
-0.065263
-0.065188
-0.065113
-0.065038
-0.064963
-0.064887
-0.064811
-0.064735
-0.064658
-0.064582
-0.064505
-0.064428
-0.064350
-0.064273
-0.064195
-0.064117
-0.064039
-0.063960
-0.063881
-0.063802
-0.063723
-0.063643
-0.063564
-0.063484
-0.063404
-0.063323
-0.063243
-0.063162
-0.063081
-0.063000
-0.062918
-0.062837
-0.062755
-0.062673
-0.062590
-0.062508
-0.062425
-0.062342
-0.062259
-0.062176
-0.062092
-0.062008
-0.061924
-0.061840
-0.061756
-0.061671
-0.061586
-0.061501
-0.061416
-0.061331
-0.061245
-0.061159
-0.061073
-0.060987
-0.060900
-0.060814
-0.060727
-0.060640
-0.060552
-0.060465
-0.060377
-0.060289
-0.060201
-0.060113
-0.060024
-0.059936
-0.059847
-0.059758
-0.059669
-0.059579
-0.059489
-0.059400
-0.059310
-0.059219
-0.059129
-0.059038
-0.058948
-0.058857
-0.058766
-0.058674
-0.058583
-0.058491
-0.058399
-0.058307
-0.058215
-0.058122
-0.058030
-0.057937
-0.057844
-0.057751
-0.057657
-0.057564
-0.057470
-0.057376
-0.057282
-0.057188
-0.057093
-0.056999
-0.056904
-0.056809
-0.056714
-0.056618
-0.056523
-0.056427
-0.056331
-0.056235
-0.056139
-0.056043
-0.055946
-0.055850
-0.055753
-0.055656
-0.055558
-0.055461
-0.055363
-0.055266
-0.055168
-0.055070
-0.054971
-0.054873
-0.054774
-0.054676
-0.054577
-0.054478
-0.054378
-0.054279
-0.054179
-0.054080
-0.053980
-0.053879
-0.053779
-0.053679
-0.053578
-0.053478
-0.053377
-0.053276
-0.053174
-0.053073
-0.052971
-0.052870
-0.052768
-0.052666
-0.052564
-0.052461
-0.052359
-0.052256
-0.052153
-0.052050
-0.051947
-0.051844
-0.051741
-0.051637
-0.051533
-0.051429
-0.051325
-0.051221
-0.051117
-0.051012
-0.050908
-0.050803
-0.050698
-0.050593
-0.050488
-0.050382
-0.050277
-0.050171
-0.050065
-0.049959
-0.049853
-0.049747
-0.049641
-0.049534
-0.049428
-0.049321
-0.049214
-0.049107
-0.049000
-0.048892
-0.048785
-0.048677
-0.048569
-0.048462
-0.048354
-0.048245
-0.048137
-0.048029
-0.047920
-0.047811
-0.047702
-0.047593
-0.047484
-0.047375
-0.047265
-0.047156
-0.047046
-0.046936
-0.046826
-0.046716
-0.046606
-0.046496
-0.046385
-0.046275
-0.046164
-0.046053
-0.045942
-0.045831
-0.045720
-0.045608
-0.045497
-0.045385
-0.045273
-0.045161
-0.045049
-0.044937
-0.044825
-0.044712
-0.044600
-0.044487
-0.044374
-0.044261
-0.044148
-0.044035
-0.043922
-0.043809
-0.043695
-0.043581
-0.043467
-0.043354
-0.043240
-0.043125
-0.043011
-0.042897
-0.042782
-0.042667
-0.042553
-0.042438
-0.042323
-0.042208
-0.042092
-0.041977
-0.041862
-0.041746
-0.041630
-0.041514
-0.041398
-0.041282
-0.041166
-0.041050
-0.040933
-0.040817
-0.040700
-0.040583
-0.040467
-0.040350
-0.040232
-0.040115
-0.039998
-0.039880
-0.039763
-0.039645
-0.039527
-0.039409
-0.039291
-0.039173
-0.039055
-0.038937
-0.038818
-0.038700
-0.038581
-0.038462
-0.038343
-0.038224
-0.038105
-0.037986
-0.037867
-0.037747
-0.037628
-0.037508
-0.037388
-0.037268
-0.037148
-0.037028
-0.036908
-0.036788
-0.036668
-0.036547
-0.036427
-0.036306
-0.036185
-0.036064
-0.035943
-0.035822
-0.035701
-0.035580
-0.035458
-0.035337
-0.035215
-0.035094
-0.034972
-0.034850
-0.034728
-0.034606
-0.034484
-0.034361
-0.034239
-0.034117
-0.033994
-0.033872
-0.033749
-0.033626
-0.033503
-0.033380
-0.033257
-0.033134
-0.033011
-0.032887
-0.032764
-0.032640
-0.032517
-0.032393
-0.032269
-0.032145
-0.032021
-0.031897
-0.031773
-0.031649
-0.031525
-0.031400
-0.031276
-0.031151
-0.031026
-0.030902
-0.030777
-0.030652
-0.030527
-0.030402
-0.030277
-0.030152
-0.030026
-0.029901
-0.029775
-0.029650
-0.029524
-0.029398
-0.029273
-0.029147
-0.029021
-0.028895
-0.028769
-0.028642
-0.028516
-0.028390
-0.028263
-0.028137
-0.028010
-0.027884
-0.027757
-0.027630
-0.027503
-0.027376
-0.027249
-0.027122
-0.026995
-0.026868
-0.026740
-0.026613
-0.026486
-0.026358
-0.026231
-0.026103
-0.025975
-0.025847
-0.025719
-0.025592
-0.025464
-0.025335
-0.025207
-0.025079
-0.024951
-0.024823
-0.024694
-0.024566
-0.024437
-0.024309
-0.024180
-0.024051
-0.023922
-0.023794
-0.023665
-0.023536
-0.023407
-0.023278
-0.023148
-0.023019
-0.022890
-0.022761
-0.022631
-0.022502
-0.022372
-0.022243
-0.022113
-0.021983
-0.021854
-0.021724
-0.021594
-0.021464
-0.021334
-0.021204
-0.021074
-0.020944
-0.020814
-0.020684
-0.020553
-0.020423
-0.020293
-0.020162
-0.020032
-0.019901
-0.019771
-0.019640
-0.019510
-0.019379
-0.019248
-0.019117
-0.018986
-0.018855
-0.018725
-0.018594
-0.018462
-0.018331
-0.018200
-0.018069
-0.017938
-0.017807
-0.017675
-0.017544
-0.017413
-0.017281
-0.017150
-0.017018
-0.016886
-0.016755
-0.016623
-0.016492
-0.016360
-0.016228
-0.016096
-0.015964
-0.015833
-0.015701
-0.015569
-0.015437
-0.015305
-0.015173
-0.015040
-0.014908
-0.014776
-0.014644
-0.014512
-0.014379
-0.014247
-0.014115
-0.013982
-0.013850
-0.013717
-0.013585
-0.013453
-0.013320
-0.013187
-0.013055
-0.012922
-0.012789
-0.012657
-0.012524
-0.012391
-0.012259
-0.012126
-0.011993
-0.011860
-0.011727
-0.011594
-0.011461
-0.011328
-0.011195
-0.011062
-0.010929
-0.010796
-0.010663
-0.010530
-0.010397
-0.010264
-0.010130
-0.009997
-0.009864
-0.009731
-0.009597
-0.009464
-0.009331
-0.009197
-0.009064
-0.008931
-0.008797
-0.008664
-0.008530
-0.008397
-0.008263
-0.008130
-0.007996
-0.007863
-0.007729
-0.007596
-0.007462
-0.007328
-0.007195
-0.007061
-0.006928
-0.006794
-0.006660
-0.006526
-0.006393
-0.006259
-0.006125
-0.005991
-0.005858
-0.005724
-0.005590
-0.005456
-0.005322
-0.005189
-0.005055
-0.004921
-0.004787
-0.004653
-0.004519
-0.004385
-0.004251
-0.004117
-0.003984
-0.003850
-0.003716
-0.003582
-0.003448
-0.003314
-0.003180
-0.003046
-0.002912
-0.002778
-0.002644
-0.002510
-0.002376
-0.002242
-0.002107
-0.001973
-0.001839
-0.001705
-0.001571
-0.001437
-0.001303
-0.001169
-0.001035
-0.000901
-0.000767
-0.000633
-0.000499
-0.000364
-0.000230
-0.000096
0.000038
0.000172
0.000306
0.000440
0.000574
0.000708
0.000843
0.000977
0.001111
0.001245
0.001379
0.001513
0.001647
0.001781
0.001916
0.002050
0.002184
0.002318
0.002452
0.002586
0.002720
0.002854
0.002988
0.003122
0.003257
0.003391
0.003525
0.003659
0.003793
0.003927
0.004061
0.004195
0.004329
0.004463
0.004597
0.004731
0.004865
0.004999
0.005133
0.005267
0.005401
0.005535
0.005669
0.005803
0.005937
0.006071
0.006205
0.006339
0.006473
0.006607
0.006741
0.006875
0.007009
0.007143
0.007277
0.007411
0.007545
0.007679
0.007812
0.007946
0.008080
0.008214
0.008348
0.008482
0.008615
0.008749
0.008883
0.009017
0.009150
0.009284
0.009418
0.009552
0.009685
0.009819
0.009953
0.010086
0.010220
0.010354
0.010487
0.010621
0.010755
0.010888
0.011022
0.011155
0.011289
0.011423
0.011556
0.011690
0.011823
0.011957
0.012090
0.012224
0.012357
0.012490
0.012624
0.012757
0.012891
0.013024
0.013157
0.013291
0.013424
0.013557
0.013691
0.013824
0.013957
0.014091
0.014224
0.014357
0.014490
0.014624
0.014757
0.014890
0.015023
0.015156
0.015289
0.015422
0.015556
0.015689
0.015822
0.015955
0.016088
0.016221
0.016354
0.016487
0.016620
0.016753
0.016885
0.017018
0.017151
0.017284
0.017417
0.017550
0.017683
0.017815
0.017948
0.018081
0.018214
0.018346
0.018479
0.018612
0.018745
0.018877
0.019010
0.019142
0.019275
0.019408
0.019540
0.019673
0.019805
0.019938
0.020070
0.020203
0.020335
0.020468
0.020600
0.020732
0.020865
0.020997
0.021129
0.021262
0.021394
0.021526
0.021658
0.021791
0.021923
0.022055
0.022187
0.022319
0.022452
0.022584
0.022716
0.022848
0.022980
0.023112
0.023244
0.023376
0.023508
0.023640
0.023772
0.023904
0.024036
0.024167
0.024299
0.024431
0.024563
0.024695
0.024827
0.024958
0.025090
0.025222
0.025353
0.025485
0.025617
0.025748
0.025880
0.026012
0.026143
0.026275
0.026406
0.026538
0.026669
0.026801
0.026932
0.027064
0.027195
0.027326
0.027458
0.027589
0.027720
0.027852
0.027983
0.028114
0.028245
0.028377
0.028508
0.028639
0.028770
0.028901
0.029032
0.029164
0.029295
0.029426
0.029557
0.029688
0.029819
0.029950
0.030081
0.030212
0.030343
0.030473
0.030604
0.030735
0.030866
0.030997
0.031128
0.031258
0.031389
0.031520
0.031651
0.031781
0.031912
0.032043
0.032173
0.032304
0.032434
0.032565
0.032696
0.032826
0.032957
0.033087
0.033218
0.033348
0.033478
0.033609
0.033739
0.033870
0.034000
0.034130
0.034261
0.034391
0.034521
0.034652
0.034782
0.034912
0.035042
0.035172
0.035303
0.035433
0.035563
0.035693
0.035823
0.035953
0.036083
0.036213
0.036343
0.036473
0.036603
0.036733
0.036863
0.036993
0.037123
0.037253
0.037383
0.037513
0.037642
0.037772
0.037902
0.038032
0.038161
0.038291
0.038421
0.038551
0.038680
0.038810
0.038940
0.039069
0.039199
0.039329
0.039458
0.039588
0.039717
0.039847
0.039976
0.040106
0.040235
0.040365
0.040494
0.040624
0.040753
0.040882
0.041012
0.041141
0.041270
0.041400
0.041529
0.041658
0.041788
0.041917
0.042046
0.042175
0.042305
0.042434
0.042563
0.042692
0.042821
0.042950
0.043080
0.043209
0.043338
0.043467
0.043596
0.043725
0.043854
0.043983
0.044112
0.044241
0.044370
0.044499
0.044628
0.044757
0.044886
0.045015
0.045144
0.045401
0.045530
0.045659
0.045787
0.045916
0.046045
0.046173
0.046302
0.046431
0.046559
0.046688
0.046816
0.046945
0.047074
0.047202
0.047331
0.047459
0.047588
0.047716
0.047845
0.047973
0.048102
0.048230
0.048358
0.048487
0.048615
0.048744
0.048872
0.049000
0.049129
0.049257
0.049385
0.049514
0.049642
0.049770
0.049899
0.050027
0.050155
0.050283
0.050412
0.050540
0.050668
0.050796
0.050925
0.051053
0.051181
0.051309
0.051437
0.051565
0.051694
0.051822
0.051950
0.052078
0.052206
0.052334
0.052462
0.052590
0.052718
0.052846
0.052974
0.053102
0.053230
0.053358
0.053486
0.053614
0.053742
0.053870
0.053998
0.054126
0.054254
0.054382
0.054510
0.054638
0.054766
0.054894
0.055022
0.055150
0.055278
0.055405
0.055533
0.055661
0.055789
0.055917
0.056045
0.056172
0.056300
0.056428
0.056556
0.056684
0.056811
0.056939
0.057067
0.057195
0.057323
0.057450
0.057578
0.057706
0.057833
0.057961
0.058089
0.058217
0.058344
0.058472
0.058600
0.058727
0.058855
0.058983
0.059110
0.059238
0.059366
0.059493
0.059621
0.059749
0.059876
0.060004
0.060132
0.060259
0.060387
0.060515
0.060642
0.060770
0.060897
0.061025
0.061153
0.061280
0.061408
0.061535
0.061663
0.061790
0.061918
0.062046
0.062173
0.062301
0.062428
0.062556
0.062683
0.062811
0.062938
0.063066
0.063193
0.063321
0.063449
0.063576
0.063704
0.063831
0.063959
0.064086
0.064214
0.064341
0.064469
0.064596
0.064724
0.064851
0.064979
0.065106
0.065234
0.065361
0.065489
0.065616
0.065744
0.065871
0.065998
0.066126
0.066253
0.066381
0.066508
0.066636
0.066763
0.066891
0.067018
0.067146
0.067273
0.067401
0.067528
0.067656
0.067783
0.067910
0.068038
0.068165
0.068293
0.068420
0.068548
0.068675
0.068803
0.068930
0.069058
0.069185
0.069313
0.069440
0.069567
0.069695
0.069822
0.069950
0.070077
0.070205
0.070332
0.070460
0.070587
0.070715
0.070842
0.070970
0.071097
0.071225
0.071352
0.071480
0.071607
0.071734
0.071862
0.071989
0.072117
0.072244
0.072372
0.072499
0.072627
0.072754
0.072882
0.073009
0.073137
0.073264
0.073392
0.073519
0.073647
0.073774
0.073902
0.074029
0.074157
0.074284
0.074412
0.074539
0.074667
0.074794
0.074922
0.075050
0.075177
0.075305
0.075432
0.075560
0.075687
0.075815
0.075942
0.076070
0.076197
0.076325
0.076453
0.076580
0.076708
0.076835
0.076963
0.077090
0.077218
0.077346
0.077473
0.077601
0.077728
0.077856
0.077984
0.078111
0.078239
0.078367
0.078494
0.078622
0.078749
0.078877
0.079005
0.079132
0.079260
0.079388
0.079515
0.079643
0.079771
0.079898
0.080026
0.080154
0.080281
0.080409
0.080537
0.080664
0.080792
0.080920
0.081048
0.081175
0.081303
0.081431
0.081558
0.081686
0.081814
0.081942
0.082069
0.082197
0.082325
0.082453
0.082580
0.082708
0.082836
0.082964
0.083092
0.083219
0.083347
0.083475
0.083603
0.083731
0.083859
0.083986
0.084114
0.084242
0.084370
0.084498
0.084626
0.084753
0.084881
0.085009
0.085137
0.085265
0.085393
0.085521
0.085649
0.085777
0.085904
0.086032
0.086160
0.086288
0.086416
0.086544
0.086672
0.086800
0.086928
0.087056
0.087184
0.087312
0.087440
0.087568
0.087696
0.087824
0.087952
0.088080
0.088208
0.088336
0.088464
0.088592
0.088720
0.088848
0.088976
0.089104
0.089232
0.089360
0.089489
0.089617
0.089745
0.089873
0.090001
0.090129
0.090257
0.090385
0.064412
0.064474
0.064277
0.057597
0.057692
0.057782
-0.046556
-0.046488
-0.046685
-0.046768
-0.024512
0.073183
0.073414
0.073462
0.073602
0.061819
0.061614
0.061678
-0.024997
-0.024863
-0.025025
-0.024789
-0.067615
-0.067711
-0.067474
-0.067505
-0.025835
-0.025736
-0.025640
0.025262
0.025058
0.025173
0.025241
-0.042324
-0.043432
-0.051163
-0.052712
0.017853
0.017651
0.017730
0.017712
-0.019700
-0.020122
-0.019761
-0.019779
0.046904
0.046518
0.046123
0.047402
-0.067920
-0.067842
-0.067608
0.021957
0.021933
0.022170
0.022278
0.001098
-0.004168
-0.002907
-0.007273
0.010814
0.011103
0.011216
-0.036123
-0.034423
-0.036196
-0.005963
-0.005833
-0.006153
-0.006011
0.056969
0.057651
0.057582
0.058285
-0.001489
-0.001026
-0.001218
-0.000556
0.019153
0.019356
0.018994
0.019453
0.017847
0.017992
0.017738
0.018111
-0.009710
-0.009743
-0.009920
-0.010024
0.063929
0.063842
0.063603
-0.026864
-0.027240
-0.026980
0.010832
0.063515
0.063280
0.063272
0.063627
0.029265
0.029495
0.029389
-0.000446
-0.000397
-0.000591
0.029479
0.017654
0.017005
0.016773
-0.000242
0.033804
0.033660
0.033353
0.053127
0.053355
0.053091
0.053456
0.032755
0.032883
0.032653
0.032965
0.033273
-0.058374
-0.058639
-0.058502
0.075292
0.075076
0.075434
-0.058756
-0.040787
-0.040959
-0.041125
-0.040628
-0.032863
-0.032711
-0.033250
-0.032877
-0.018387
-0.018781
-0.018497
0.009641
0.009863
0.009582
0.009781
-0.018843
0.029403
0.029571
0.029267
-0.031202
-0.031511
-0.031221
-0.034112
-0.034528
-0.034851
0.029566
0.058547
0.058605
0.058325
-0.052093
-0.052008
-0.051899
0.062715
0.062958
0.062974
0.062758
0.036913
0.036570
0.036708
0.036206
0.001147
-0.000645
0.001195
0.000740
0.027742
0.028481
0.026531
0.029601
-0.049226
-0.049082
-0.049513
-0.048796
0.085203
0.085034
-0.070962
-0.070364
-0.070022
-0.069361
-0.046003
-0.044801
-0.042046
-0.049505
0.088032
0.088098
0.088403
-0.053066
-0.048844
-0.053343
-0.053644
-0.052528
0.060766
0.060721
0.060411
0.023803
0.023680
0.023968
0.023875
0.001732
0.001198
0.001581
-0.068683
-0.068655
-0.069038
-0.068721
0.088152
0.087646
0.088305
0.087487
0.075436
0.075662
0.075901
0.060326
0.036334
0.036080
0.035818
0.035618
-0.008086
-0.007939
-0.007766
-0.008201
-0.014567
-0.015409
-0.017735
0.077013
0.076945
0.076286
0.076554
-0.019506
-0.019015
-0.021378
-0.020371
0.035690
0.035717
0.035484
0.020725
0.021436
0.027406
0.015074
-0.060769
-0.061084
-0.060096
-0.062183
0.081297
0.081487
0.018492
0.018466
0.018599
0.035918
0.002308
0.003249
0.003889
0.004404
-0.033131
-0.033460
-0.033317
-0.033291
-0.032124
-0.037057
-0.035480
-0.032290
-0.007435
-0.007054
-0.007712
-0.007626
-0.039880
-0.038632
-0.037704
-0.036721
0.080118
0.080562
0.080848
0.080097
-0.036655
-0.036599
-0.036483
-0.075937
-0.079166
-0.076052
-0.076372
-0.064526
-0.064708
-0.064740
-0.011901
-0.011947
-0.024955
-0.024990
-0.026563
-0.023530
0.033436
0.031435
0.031710
0.029492
0.004680
0.012849
0.011774
0.010463
0.043792
0.043959
0.042715
0.042716
0.071424
0.069764
0.070319
0.071302
-0.030647
-0.030528
-0.031525
-0.031711
-0.025982
-0.025872
-0.025718
-0.026217
0.048874
0.049643
0.049061
0.049541
0.048165
0.048082
0.049014
-0.006059
-0.005826
-0.005772
-0.006046
0.084438
0.083497
0.084363
0.063565
-0.016064
-0.017840
-0.016942
-0.016832
0.070360
0.070426
0.070010
0.070167
0.013586
0.013835
0.013649
0.013942
0.033446
0.033836
-0.009148
-0.008476
-0.007903
-0.007419
-0.002408
-0.002382
-0.000170
-0.004681
-0.000926
-0.000788
-0.000686
0.078490
0.078221
0.078194
-0.047040
-0.047182
-0.046495
-0.046442
-0.000626
-0.040052
-0.037469
-0.039409
0.071597
0.071931
0.072476
0.072799
0.066953
0.066812
0.066786
0.066561
0.031744
0.031044
0.030863
0.032413
0.027389
0.027154
0.027046
0.027422
0.027248
0.027541
0.035040
0.034003
0.034679
-0.004823
-0.005026
-0.004783
0.019914
0.017243
0.023572
-0.004880
0.045570
0.046097
0.044478
0.038725
0.039021
0.039006
0.038813
0.057959
0.058009
0.057659
-0.040307
-0.035807
0.058258
0.055013
0.054924
0.054777
0.054707
-0.031725
-0.031599
-0.031780
0.070673
0.019033
0.019130
0.018538
0.018443
-0.057704
-0.055863
-0.056537
-0.055011
0.023175
0.023142
0.022938
0.023376
-0.038214
-0.037523
-0.039265
-0.037236
-0.046377
-0.047349
-0.043591
-0.049858
0.049426
0.049315
0.049651
-0.040055
-0.039711
-0.040599
0.025476
0.025415
0.024505
0.023904
0.061798
0.051215
0.050963
0.051208
0.038414
0.039692
0.038618
0.039502
-0.009661
-0.010708
-0.010940
0.050957
0.054063
0.054480
0.054070
0.027208
0.027819
0.028117
0.028731
0.033680
0.031476
-0.019152
-0.019848
-0.018891
-0.020470
-0.053134
-0.055662
-0.055665
-0.051717
-0.040204
-0.040812
0.016649
0.016524
0.017490
0.054293
-0.011748
-0.009609
-0.008775
-0.012306
0.026787
0.029424
0.040189
0.040336
0.040233
-0.039847
-0.039276
-0.039093
0.040477
-0.032071
-0.032016
-0.031865
0.056797
0.056533
0.056688
0.056424
-0.021212
-0.021116
-0.021026
-0.037500
-0.043379
0.010140
0.010083
0.009954
0.060379
0.060330
0.060181
0.060103
0.040371
0.040526
0.040633
0.014668
0.013857
0.013640
0.012469
0.039081
0.038878
0.038964
0.038752
0.034095
0.034195
0.034001
0.053912
0.054092
0.054193
0.039057
0.038800
0.040279
0.054277
-0.048671
-0.048676
-0.048467
0.037781
0.029041
0.028439
0.029323
0.040321
-0.051785
-0.051701
-0.051834
0.020332
0.015935
0.017721
-0.048879
0.050695
0.050705
0.050989
0.072670
0.072771
0.072538
0.072671