# vtk DataFile Version 2.0
Test
ASCII
DATASET POLYDATA
POINTS 20431 float
0.000000 0.000000 0.000000
2.000000 0.000000 0.000000
2.000000 4.000000 0.000000
0.000000 4.000000 0.000000
0.000000 0.500000 0.000000
1.500000 2.000000 0.000000
2.000000 2.500000 0.000000
0.400000 0.000000 0.000000
0.800000 0.000000 0.000000
1.200000 0.000000 0.000000
1.600000 0.000000 0.000000
2.000000 0.362557 0.000000
2.000000 0.672798 0.000000
2.000000 0.938272 0.000000
2.000000 1.165439 0.000000
2.000000 1.359826 0.000000
2.000000 1.526163 0.000000
2.000000 1.668499 0.000000
2.000000 1.790295 0.000000
2.000000 1.894517 0.000000
2.000000 1.983700 0.000000
2.000000 2.060013 0.000000
2.000000 2.125315 0.000000
2.000000 2.181194 0.000000
2.000000 2.229010 0.000000
2.000000 2.269926 0.000000
2.000000 2.304938 0.000000
2.000000 2.334898 0.000000
2.000000 2.360534 0.000000
2.000000 2.382472 0.000000
2.000000 2.401244 0.000000
2.000000 2.417307 0.000000
2.000000 2.431052 0.000000
2.000000 2.442814 0.000000
2.000000 2.452878 0.000000
2.000000 2.461491 0.000000
2.000000 2.468860 0.000000
2.000000 2.475167 0.000000
2.000000 2.480563 0.000000
2.000000 2.485180 0.000000
2.000000 2.489132 0.000000
2.000000 2.492513 0.000000
2.000000 2.495406 0.000000
2.000000 2.497882 0.000000
2.000000 2.502286 0.000000
2.000000 2.505266 0.000000
2.000000 2.509150 0.000000
2.000000 2.514212 0.000000
2.000000 2.520809 0.000000
2.000000 2.529407 0.000000
2.000000 2.540613 0.000000
2.000000 2.555218 0.000000
2.000000 2.574253 0.000000
2.000000 2.599061 0.000000
2.000000 2.631395 0.000000
2.000000 2.673536 0.000000
2.000000 2.728460 0.000000
2.000000 2.800043 0.000000
2.000000 2.893339 0.000000
2.000000 3.014933 0.000000
2.000000 3.173410 0.000000
2.000000 3.379956 0.000000
2.000000 3.649152 0.000000
1.600000 4.000000 0.000000
1.200000 4.000000 0.000000
0.800000 4.000000 0.000000
0.400000 4.000000 0.000000
0.000000 3.624996 0.000000
0.000000 3.289970 0.000000
0.000000 2.990661 0.000000
0.000000 2.723261 0.000000
0.000000 2.484368 0.000000
0.000000 2.270943 0.000000
0.000000 2.080271 0.000000
0.000000 1.909926 0.000000
0.000000 1.757741 0.000000
0.000000 1.621780 0.000000
0.000000 1.500314 0.000000
0.000000 1.391797 0.000000
0.000000 1.294849 0.000000
0.000000 1.208237 0.000000
0.000000 1.130858 0.000000
0.000000 1.061728 0.000000
0.000000 0.999968 0.000000
0.000000 0.944792 0.000000
0.000000 0.895499 0.000000
0.000000 0.851460 0.000000
0.000000 0.812117 0.000000
0.000000 0.776968 0.000000
0.000000 0.745565 0.000000
0.000000 0.717511 0.000000
0.000000 0.692448 0.000000
0.000000 0.670056 0.000000
0.000000 0.650052 0.000000
0.000000 0.632180 0.000000
0.000000 0.616213 0.000000
0.000000 0.601949 0.000000
0.000000 0.589205 0.000000
0.000000 0.577820 0.000000
0.000000 0.567649 0.000000
0.000000 0.558562 0.000000
0.000000 0.550444 0.000000
0.000000 0.543191 0.000000
0.000000 0.536712 0.000000
0.000000 0.530923 0.000000
0.000000 0.525751 0.000000
0.000000 0.521131 0.000000
0.000000 0.517003 0.000000
0.000000 0.513315 0.000000
0.000000 0.510021 0.000000
0.000000 0.507078 0.000000
0.000000 0.504448 0.000000
0.000000 0.502099 0.000000
0.000000 0.497804 0.000000
0.000000 0.494785 0.000000
0.000000 0.490633 0.000000
0.000000 0.484924 0.000000
0.000000 0.477074 0.000000
0.000000 0.466279 0.000000
0.000000 0.451436 0.000000
0.000000 0.431025 0.000000
0.000000 0.402959 0.000000
0.000000 0.364366 0.000000
0.000000 0.311297 0.000000
0.000000 0.238324 0.000000
0.000000 0.137980 0.000000
0.001414 0.501414 0.000000
0.002828 0.502828 0.000000
0.004241 0.504241 0.000000
0.005655 0.505655 0.000000
0.007069 0.507069 0.000000
0.008483 0.508483 0.000000
0.009896 0.509896 0.000000
0.011310 0.511310 0.000000
0.012724 0.512724 0.000000
0.014138 0.514138 0.000000
0.015551 0.515551 0.000000
0.016965 0.516965 0.000000
0.018379 0.518379 0.000000
0.019793 0.519793 0.000000
0.021206 0.521206 0.000000
0.022620 0.522620 0.000000
0.024034 0.524034 0.000000
0.025448 0.525448 0.000000
0.026861 0.526861 0.000000
0.028275 0.528275 0.000000
0.029689 0.529689 0.000000
0.031103 0.531103 0.000000
0.032516 0.532516 0.000000
0.033930 0.533930 0.000000
0.035344 0.535344 0.000000
0.036758 0.536758 0.000000
0.038172 0.538172 0.000000
0.039585 0.539585 0.000000
0.040999 0.540999 0.000000
0.042413 0.542413 0.000000
0.043827 0.543827 0.000000
0.045240 0.545240 0.000000
0.046654 0.546654 0.000000
0.048068 0.548068 0.000000
0.049482 0.549482 0.000000
0.050895 0.550895 0.000000
0.052309 0.552309 0.000000
0.053723 0.553723 0.000000
0.055137 0.555137 0.000000
0.056550 0.556550 0.000000
0.057964 0.557964 0.000000
0.059378 0.559378 0.000000
0.060792 0.560792 0.000000
0.062205 0.562205 0.000000
0.063619 0.563619 0.000000
0.065033 0.565033 0.000000
0.066447 0.566447 0.000000
0.067861 0.567861 0.000000
0.069274 0.569274 0.000000
0.070688 0.570688 0.000000
0.072102 0.572102 0.000000
0.073516 0.573516 0.000000
0.074929 0.574929 0.000000
0.076343 0.576343 0.000000
0.077757 0.577757 0.000000
0.079171 0.579171 0.000000
0.080584 0.580584 0.000000
0.081998 0.581998 0.000000
0.083412 0.583412 0.000000
0.084826 0.584826 0.000000
0.086239 0.586239 0.000000
0.087653 0.587653 0.000000
0.089067 0.589067 0.000000
0.090481 0.590481 0.000000
0.091894 0.591894 0.000000
0.093308 0.593308 0.000000
0.094722 0.594722 0.000000
0.096136 0.596136 0.000000
0.097549 0.597549 0.000000
0.098963 0.598963 0.000000
0.100377 0.600377 0.000000
0.101791 0.601791 0.000000
0.103205 0.603205 0.000000
0.104618 0.604618 0.000000
0.106032 0.606032 0.000000
0.107446 0.607446 0.000000
0.108860 0.608860 0.000000
0.110273 0.610273 0.000000
0.111687 0.611687 0.000000
0.113101 0.613101 0.000000
0.114515 0.614515 0.000000
0.115928 0.615928 0.000000
0.117342 0.617342 0.000000
0.118756 0.618756 0.000000
0.120170 0.620170 0.000000
0.121583 0.621583 0.000000
0.122997 0.622997 0.000000
0.124411 0.624411 0.000000
0.125825 0.625825 0.000000
0.127238 0.627238 0.000000
0.128652 0.628652 0.000000
0.130066 0.630066 0.000000
0.131480 0.631480 0.000000
0.132893 0.632893 0.000000
0.134307 0.634307 0.000000
0.135721 0.635721 0.000000
0.137135 0.637135 0.000000
0.138549 0.638549 0.000000
0.139962 0.639962 0.000000
0.141376 0.641376 0.000000
0.142790 0.642790 0.000000
0.144204 0.644204 0.000000
0.145617 0.645617 0.000000
0.147031 0.647031 0.000000
0.148445 0.648445 0.000000
0.149859 0.649859 0.000000
0.151272 0.651272 0.000000
0.152686 0.652686 0.000000
0.154100 0.654100 0.000000
0.155514 0.655514 0.000000
0.156927 0.656927 0.000000
0.158341 0.658341 0.000000
0.159755 0.659755 0.000000
0.161169 0.661169 0.000000
0.162582 0.662582 0.000000
0.163996 0.663996 0.000000
0.165410 0.665410 0.000000
0.166824 0.666824 0.000000
0.168238 0.668238 0.000000
0.169651 0.669651 0.000000
0.171065 0.671065 0.000000
0.172479 0.672479 0.000000
0.173893 0.673893 0.000000
0.175306 0.675306 0.000000
0.176720 0.676720 0.000000
0.178134 0.678134 0.000000
0.179548 0.679548 0.000000
0.180961 0.680961 0.000000
0.182375 0.682375 0.000000
0.183789 0.683789 0.000000
0.185203 0.685203 0.000000
0.186616 0.686616 0.000000
0.188030 0.688030 0.000000
0.189444 0.689444 0.000000
0.190858 0.690858 0.000000
0.192271 0.692271 0.000000
0.193685 0.693685 0.000000
0.195099 0.695099 0.000000
0.196513 0.696513 0.000000
0.197926 0.697926 0.000000
0.199340 0.699340 0.000000
0.200754 0.700754 0.000000
0.202168 0.702168 0.000000
0.203582 0.703582 0.000000
0.204995 0.704995 0.000000
0.206409 0.706409 0.000000
0.207823 0.707823 0.000000
0.209237 0.709237 0.000000
0.210650 0.710650 0.000000
0.212064 0.712064 0.000000
0.213478 0.713478 0.000000
0.214892 0.714892 0.000000
0.216305 0.716305 0.000000
0.217719 0.717719 0.000000
0.219133 0.719133 0.000000
0.220547 0.720547 0.000000
0.221960 0.721960 0.000000
0.223374 0.723374 0.000000
0.224788 0.724788 0.000000
0.226202 0.726202 0.000000
0.227615 0.727615 0.000000
0.229029 0.729029 0.000000
0.230443 0.730443 0.000000
0.231857 0.731857 0.000000
0.233270 0.733270 0.000000
0.234684 0.734684 0.000000
0.236098 0.736098 0.000000
0.237512 0.737512 0.000000
0.238926 0.738926 0.000000
0.240339 0.740339 0.000000
0.241753 0.741753 0.000000
0.243167 0.743167 0.000000
0.244581 0.744581 0.000000
0.245994 0.745994 0.000000
0.247408 0.747408 0.000000
0.248822 0.748822 0.000000
0.250236 0.750236 0.000000
0.251649 0.751649 0.000000
0.253063 0.753063 0.000000
0.254477 0.754477 0.000000
0.255891 0.755891 0.000000
0.257304 0.757304 0.000000
0.258718 0.758718 0.000000
0.260132 0.760132 0.000000
0.261546 0.761546 0.000000
0.262959 0.762959 0.000000
0.264373 0.764373 0.000000
0.265787 0.765787 0.000000
0.267201 0.767201 0.000000
0.268615 0.768615 0.000000
0.270028 0.770028 0.000000
0.271442 0.771442 0.000000
0.272856 0.772856 0.000000
0.274270 0.774270 0.000000
0.275683 0.775683 0.000000
0.277097 0.777097 0.000000
0.278511 0.778511 0.000000
0.279925 0.779925 0.000000
0.281338 0.781338 0.000000
0.282752 0.782752 0.000000
0.284166 0.784166 0.000000
0.285580 0.785580 0.000000
0.286993 0.786993 0.000000
0.288407 0.788407 0.000000
0.289821 0.789821 0.000000
0.291235 0.791235 0.000000
0.292648 0.792648 0.000000
0.294062 0.794062 0.000000
0.295476 0.795476 0.000000
0.296890 0.796890 0.000000
0.298303 0.798303 0.000000
0.299717 0.799717 0.000000
0.301131 0.801131 0.000000
0.302545 0.802545 0.000000
0.303959 0.803959 0.000000
0.305372 0.805372 0.000000
0.306786 0.806786 0.000000
0.308200 0.808200 0.000000
0.309614 0.809614 0.000000
0.311027 0.811027 0.000000
0.312441 0.812441 0.000000
0.313855 0.813855 0.000000
0.315269 0.815269 0.000000
0.316682 0.816682 0.000000
0.318096 0.818096 0.000000
0.319510 0.819510 0.000000
0.320924 0.820924 0.000000
0.322337 0.822337 0.000000
0.323751 0.823751 0.000000
0.325165 0.825165 0.000000
0.326579 0.826579 0.000000
0.327992 0.827992 0.000000
0.329406 0.829406 0.000000
0.330820 0.830820 0.000000
0.332234 0.832234 0.000000
0.333648 0.833648 0.000000
0.335061 0.835061 0.000000
0.336475 0.836475 0.000000
0.337889 0.837889 0.000000
0.339303 0.839303 0.000000
0.340716 0.840716 0.000000
[...]
POINT_DATA 20431
SCALARS UX float 1
LOOKUP_TABLE default
-0.000000
0.000000
0.068622
-0.071576
-0.055975
0.034557
0.069090
-0.000000
-0.000000
0.000000
-0.000000
0.046799
0.061276
0.066910
0.068965
0.069705
0.069915
0.069891
0.069806
0.069708
0.069610
0.069526
0.069454
0.069393
0.069343
0.069300
0.069265
0.069236
0.069212
0.069192
0.069175
0.069160
0.069148
0.069138
0.069129
0.069122
0.069116
0.069111
0.069106
0.069102
0.069099
0.069096
0.069094
0.069092
0.069088
0.069086
0.069083
0.069079
0.069073
0.069067
0.069058
0.069047
0.069033
0.069014
0.068991
0.068963
0.068928
0.068888
0.068839
0.068787
0.068734
0.068679
0.068639
0.040558
0.012506
-0.015530
-0.043555
-0.071575
-0.071575
-0.071588
-0.071623
-0.071686
-0.071764
-0.071849
-0.071916
-0.071931
-0.071877
-0.071752
-0.071536
-0.071213
-0.070795
-0.070289
-0.069708
-0.069061
-0.068363
-0.067633
-0.066881
-0.066123
-0.065365
-0.064628
-0.063901
-0.063208
-0.062549
-0.061919
-0.061331
-0.060781
-0.060269
-0.059795
-0.059356
-0.058955
-0.058586
-0.058249
-0.057942
-0.057662
-0.057407
-0.057177
-0.056968
-0.056779
-0.056608
-0.056454
-0.056315
-0.056189
-0.056077
-0.055869
-0.055720
-0.055515
-0.055229
-0.054826
-0.054263
-0.053442
-0.052265
-0.050528
-0.047818
-0.043630
-0.037008
-0.025299
-0.055955
-0.055935
-0.055914
-0.055893
-0.055872
-0.055850
-0.055828
-0.055805
-0.055782
-0.055758
-0.055734
-0.055710
-0.055685
-0.055660
-0.055635
-0.055609
-0.055583
-0.055556
-0.055530
-0.055502
-0.055475
-0.055447
-0.055419
-0.055391
-0.055362
-0.055333
-0.055303
-0.055273
-0.055243
-0.055213
-0.055182
-0.055151
-0.055120
-0.055088
-0.055056
-0.055024
-0.054992
-0.054959
-0.054926
-0.054893
-0.054859
-0.054825
-0.054791
-0.054757
-0.054722
-0.054687
-0.054652
-0.054617
-0.054581
-0.054545
-0.054509
-0.054473
-0.054436
-0.054399
-0.054362
-0.054324
-0.054287
-0.054249
-0.054211
-0.054173
-0.054134
-0.054095
-0.054057
-0.054017
-0.053978
-0.053939
-0.053899
-0.053859
-0.053819
-0.053778
-0.053738
-0.053697
-0.053656
-0.053614
-0.053573
-0.053531
-0.053489
-0.053447
-0.053405
-0.053362
-0.053319
-0.053276
-0.053233
-0.053189
-0.053146
-0.053102
-0.053058
-0.053013
-0.052969
-0.052924
-0.052879
-0.052834
-0.052789
-0.052743
-0.052698
-0.052652
-0.052606
-0.052559
-0.052513
-0.052466
-0.052419
-0.052372
-0.052325
-0.052277
-0.052229
-0.052181
-0.052133
-0.052085
-0.052036
-0.051988
-0.051939
-0.051890
-0.051840
-0.051791
-0.051741
-0.051691
-0.051640
-0.051590
-0.051539
-0.051489
-0.051438
-0.051386
-0.051335
-0.051283
-0.051231
-0.051179
-0.051127
-0.051075
-0.051022
-0.050969
-0.050916
-0.050863
-0.050810
-0.050756
-0.050703
-0.050649
-0.050594
-0.050540
-0.050485
-0.050431
-0.050376
-0.050321
-0.050266
-0.050210
-0.050154
-0.050098
-0.050042
-0.049986
-0.049930
-0.049873
-0.049816
-0.049759
-0.049702
-0.049644
-0.049587
-0.049529
-0.049471
-0.049413
-0.049355
-0.049296
-0.049237
-0.049179
-0.049119
-0.049060
-0.049001
-0.048941
-0.048881
-0.048821
-0.048761
-0.048701
-0.048641
-0.048580
-0.048519
-0.048458
-0.048397
-0.048336
-0.048274
-0.048212
-0.048151
-0.048088
-0.048026
-0.047964
-0.047901
-0.047839
-0.047776
-0.047713
-0.047650
-0.047587
-0.047523
-0.047459
-0.047396
-0.047332
-0.047268
-0.047203
-0.047139
-0.047074
-0.047010
-0.046945
-0.046880
-0.046814
-0.046749
-0.046684
-0.046618
-0.046552
-0.046486
-0.046420
-0.046353
-0.046287
-0.046220
-0.046154
-0.046087
-0.046020
-0.045952
-0.045885
-0.045817
-0.045750
-0.045682
-0.045614
-0.045546
-0.045478
-0.045409
-0.045341
-0.045272
-0.045203
-0.045134
-0.045065
-0.044996
-0.044926
-0.044857
-0.044787
-0.044717
-0.044647
-0.044577
-0.044506
-0.044436
-0.044365
-0.044295
-0.044224
-0.044153
-0.044082
-0.044011
-0.043939
-0.043868
-0.043796
-0.043724
-0.043652
-0.043580
-0.043508
-0.043436
-0.043363
-0.043290
-0.043218
-0.043145
-0.043072
-0.042999
-0.042925
-0.042852
-0.042778
-0.042705
-0.042631
-0.042557
-0.042483
-0.042408
-0.042334
-0.042260
-0.042185
-0.042110
-0.042035
-0.041960
-0.041885
-0.041810
-0.041735
-0.041659
-0.041583
-0.041508
-0.041432
-0.041356
-0.041280
-0.041203
-0.041127
-0.041050
-0.040974
-0.040897
-0.040820
-0.040743
-0.040666
-0.040589
-0.040511
-0.040434
-0.040356
-0.040278
-0.040200
-0.040122
-0.040044
-0.039966
-0.039888
-0.039809
-0.039731
-0.039652
-0.039573
-0.039494
-0.039415
-0.039336
-0.039257
-0.039177
-0.039098
-0.039018
-0.038938
-0.038859
-0.038779
-0.038698
-0.038618
-0.038538
-0.038458
-0.038377
-0.038296
-0.038216
-0.038135
-0.038054
-0.037973
-0.037892
-0.037810
-0.037729
-0.037647
-0.037566
-0.037484
-0.037402
-0.037320
-0.037238
-0.037156
-0.037074
-0.036991
-0.036909
-0.036826
-0.036744
-0.036661
-0.036578
-0.036495
-0.036412
-0.036329
-0.036245
-0.036162
-0.036078
-0.035995
-0.035911
-0.035827
-0.035743
-0.035659
-0.035575
-0.035491
-0.035407
-0.035322
-0.035238
-0.035153
-0.035068
-0.034983
-0.034898
-0.034813
-0.034728
-0.034643
-0.034558
-0.034472
-0.034387
-0.034301
-0.034215
-0.034130
-0.034044
-0.033958
-0.033872
-0.033785
-0.033699
-0.033613
-0.033526
-0.033440
-0.033353
-0.033266
-0.033179
-0.033092
-0.033005
-0.032918
-0.032831
-0.032744
-0.032656
-0.032569
-0.032481
-0.032393
-0.032306
-0.032218
-0.032130
-0.032042
-0.031953
-0.031865
-0.031777
-0.031689
-0.031600
-0.031511
-0.031423
-0.031334
-0.031245
-0.031156
-0.031067
-0.030978
-0.030889
-0.030799
-0.030710
-0.030620
-0.030531
-0.030441
-0.030352
-0.030262
-0.030172
-0.030082
-0.029992
-0.029902
-0.029811
-0.029721
-0.029630
-0.029540
-0.029449
-0.029359
-0.029268
-0.029177
-0.029086
-0.028995
-0.028904
-0.028813
-0.028722
-0.028630
-0.028539
-0.028447
-0.028356
-0.028264
-0.028173
-0.028081
-0.027989
-0.027897
-0.027805
-0.027713
-0.027621
-0.027528
-0.027436
-0.027344
-0.027251
-0.027158
-0.027066
-0.026973
-0.026880
-0.026787
-0.026694
-0.026601
-0.026508
-0.026415
-0.026322
-0.026229
-0.026135
-0.026042
-0.025948
-0.025855
-0.025761
-0.025667
-0.025573
-0.025480
-0.025386
-0.025292
-0.025197
-0.025103
-0.025009
-0.024915
-0.024820
-0.024726
-0.024632
-0.024537
-0.024442
-0.024348
-0.024253
-0.024158
-0.024063
-0.023968
-0.023873
-0.023778
-0.023683
-0.023588
-0.023492
-0.023397
-0.023302
-0.023206
-0.023111
-0.023015
-0.022919
-0.022824
-0.022728
-0.022632
-0.022536
-0.022440
-0.022344
-0.022248
-0.022152
-0.022056
-0.021959
-0.021863
-0.021767
-0.021670
-0.021574
-0.021477
-0.021381
-0.021284
-0.021187
-0.021090
-0.020994
-0.020897
-0.020800
-0.020703
-0.020606
-0.020509
-0.020411
-0.020314
-0.020217
-0.020119
-0.020022
-0.019925
-0.019827
-0.019730
-0.019632
-0.019534
-0.019437
-0.019339
-0.019241
-0.019143
-0.019045
-0.018947
-0.018849
-0.018751
-0.018653
-0.018555
-0.018457
-0.018359
-0.018260
-0.018162
-0.018064
-0.017965
-0.017867
-0.017768
-0.017670
-0.017571
-0.017472
-0.017374
-0.017275
-0.017176
-0.017077
-0.016978
-0.016879
-0.016780
-0.016681
-0.016582
-0.016483
-0.016384
-0.016285
-0.016186
-0.016086
-0.015987
-0.015888
-0.015788
-0.015689
-0.015589
-0.015490
-0.015390
-0.015291
-0.015191
-0.015091
-0.014992
-0.014892
-0.014792
-0.014692
-0.014592
-0.014493
-0.014393
-0.014293
-0.014193
-0.014093
-0.013993
-0.013893
-0.013792
-0.013692
-0.013592
-0.013492
-0.013392
-0.013291
-0.013191
-0.013091
-0.012990
-0.012890
-0.012789
-0.012689
-0.012588
-0.012488
-0.012387
-0.012286
-0.012186
-0.012085
-0.011984
-0.011884
-0.011783
-0.011682
-0.011581
-0.011481
-0.011380
-0.011279
-0.011178
-0.011077
-0.010976
-0.010875
-0.010774
-0.010673
-0.010572
-0.010471
-0.010370
-0.010268
-0.010167
-0.010066
-0.009965
-0.009864
-0.009762
-0.009661
-0.009560
-0.009458
-0.009357
-0.009256
-0.009154
-0.009053
-0.008952
-0.008850
-0.008749
-0.008647
-0.008546
-0.008444
-0.008342
-0.008241
-0.008139
-0.008038
-0.007936
-0.007834
-0.007733
-0.007631
-0.007529
-0.007428
-0.007326
-0.007224
-0.007122
-0.007021
-0.006919
-0.006817
-0.006715
-0.006613
-0.006511
-0.006409
-0.006308
-0.006206
-0.006104
-0.006002
-0.005900
-0.005798
-0.005696
-0.005594
-0.005492
-0.005390
-0.005288
-0.005186
-0.005084
-0.004982
-0.004880
-0.004778
-0.004675
-0.004573
-0.004471
-0.004369
-0.004267
-0.004165
-0.004063
-0.003961
-0.003858
-0.003756
-0.003654
-0.003552
-0.003450
-0.003347
-0.003245
-0.003143
-0.003041
-0.002938
-0.002836
-0.002734
-0.002632
-0.002529
-0.002427
-0.002325
-0.002223
-0.002120
-0.002018
-0.001916
-0.001813
-0.001711
-0.001609
-0.001506
-0.001404
-0.001302
-0.001199
-0.001097
-0.000995
-0.000892
-0.000790
-0.000688
-0.000585
-0.000483
-0.000381
-0.000278
-0.000176
-0.000073
0.000029
0.000131
0.000234
0.000336
0.000438
0.000541
0.000643
0.000746
0.000848
0.000950
0.001053
0.001155
0.001257
0.001360
0.001462
0.001565
0.001667
0.001769
0.001872
0.001974
0.002076
0.002179
0.002281
0.002383
0.002486
0.002588
0.002691
0.002793
0.002895
0.002998
0.003100
0.003202
0.003305
0.003407
0.003509
0.003611
0.003714
0.003816
0.003918
0.004021
0.004123
0.004225
0.004328
0.004430
0.004532
0.004634
0.004737
0.004839
0.004941
0.005043
0.005146
0.005248
0.005350
0.005452
0.005555
0.005657
0.005759
0.005861
0.005963
0.006065
0.006168
0.006270
0.006372
0.006474
0.006576
0.006678
0.006780
0.006883
0.006985
0.007087
0.007189
0.007291
0.007393
0.007495
0.007597
0.007699
0.007801
0.007903
0.008005
0.008107
0.008209
0.008311
0.008413
0.008515
0.008617
0.008719
0.008821
0.008923
0.009025
0.009127
0.009229
0.009330
0.009432
0.009534
0.009636
0.009738
0.009840
0.009941
0.010043
0.010145
0.010247
0.010349
0.010450
0.010552
0.010654
0.010756
0.010857
0.010959
0.011061
0.011162
0.011264
0.011366
0.011467
0.011569
0.011671
0.011772
0.011874
0.011975
0.012077
0.012178
0.012280
0.012381
0.012483
0.012585
0.012686
0.012787
0.012889
0.012990
0.013092
0.013193
0.013295
0.013396
0.013497
0.013599
0.013700
0.013801
0.013903
0.014004
0.014105
0.014207
0.014308
0.014409
0.014510
0.014612
0.014713
0.014814
0.014915
0.015016
0.015118
0.015219
0.015320
0.015421
0.015522
0.015623
0.015724
0.015825
0.015926
0.016027
0.016128
0.016229
0.016330
0.016431
0.016532
0.016633
0.016734
0.016835
0.016936
0.017037
0.017138
0.017238
0.017339
0.017440
0.017541
0.017642
0.017742
0.017843
0.017944
0.018045
0.018145
0.018246
0.018347
0.018447
0.018548
0.018649
0.018749
0.018850
0.018950
0.019051
0.019152
0.019252
0.019353
0.019453
0.019554
0.019654
0.019755
0.019855
0.019955
0.020056
0.020156
0.020257
0.020357
0.020457
0.020558
0.020658
0.020758
0.020859
0.020959
0.021059
0.021159
0.021260
0.021360
0.021460
0.021560
0.021660
0.021760
0.021861
0.021961
0.022061
0.022161
0.022261
0.022361
0.022461
0.022561
0.022661
0.022761
0.022861
0.022961
0.023061
0.023161
0.023261
0.023361
0.023461
0.023560
0.023660
0.023760
0.023860
0.023960
0.024060
0.024159
0.024259
0.024359
0.024459
0.024558
0.024658
0.024758
0.024857
0.024957
0.025057
0.025156
0.025256
0.025355
0.025455
0.025555
0.025654
0.025754
0.025853
0.025953
0.026052
0.026152
0.026251
0.026351
0.026450
0.026549
0.026649
0.026748
0.026848
0.026947
0.027046
0.027146
0.027245
0.027344
0.027444
0.027543
0.027642
0.027741
0.027841
0.027940
0.028039
0.028138
0.028237
0.028336
0.028436
0.028535
0.028634
0.028733
0.028832
0.028931
0.029030
0.029129
0.029228
0.029327
0.029426
0.029525
0.029624
0.029723
0.029822
0.029921
0.030020
0.030119
0.030218
0.030317
0.030416
0.030514
0.030613
0.030712
0.030811
0.030910
0.031009
0.031107
0.031206
0.031305
0.031404
0.031502
0.031601
0.031700
0.031798
0.031897
0.031996
0.032094
0.032193
0.032292
0.032390
0.032489
0.032588
0.032686
0.032785
0.032883
0.032982
0.033080
0.033179
0.033277
0.033376
0.033474
0.033573
0.033671
0.033770
0.033868
0.033967
0.034065
0.034164
0.034262
0.034360
0.034459
0.034655
0.034754
0.034852
0.034950
0.035048
0.035147
0.035245
0.035343
0.035441
0.035539
0.035637
0.035736
0.035834
0.035932
0.036030
0.036128
0.036226
0.036324
0.036422
0.036520
0.036619
0.036717
0.036815
0.036913
0.037011
0.037109
0.037207
0.037305
0.037403
0.037501
0.037599
0.037697
0.037795
0.037892
0.037990
0.038088
0.038186
0.038284
0.038382
0.038480
0.038578
0.038676
0.038774
0.038871
0.038969
0.039067
0.039165
0.039263
0.039361
0.039458
0.039556
0.039654
0.039752
0.039850
0.039947
0.040045
0.040143
0.040241
0.040338
0.040436
0.040534
0.040632
0.040729
0.040827
0.040925
0.041022
0.041120
0.041218
0.041315
0.041413
0.041511
0.041608
0.041706
0.041804
0.041901
0.041999
0.042096
0.042194
0.042292
0.042389
0.042487
0.042584
0.042682
0.042780
0.042877
0.042975
0.043072
0.043170
0.043267
0.043365
0.043462
0.043560
0.043658
0.043755
0.043853
0.043950
0.044048
0.044145
0.044243
0.044340
0.044438
0.044535
0.044633
0.044730
0.044827
0.044925
0.045022
0.045120
0.045217
0.045315
0.045412
0.045510
0.045607
0.045704
0.045802
0.045899
0.045997
0.046094
0.046192
0.046289
0.046386
0.046484
0.046581
0.046679
0.046776
0.046873
0.046971
0.047068
0.047165
0.047263
0.047360
0.047458
0.047555
0.047652
0.047750
0.047847
0.047944
0.048042
0.048139
0.048236
0.048334
0.048431
0.048528
0.048626
0.048723
0.048820
0.048918
0.049015
0.049112
0.049210
0.049307
0.049404
0.049502
0.049599
0.049696
0.049794
0.049891
0.049988
0.050086
0.050183
0.050280
0.050378
0.050475
0.050572
0.050669
0.050767
0.050864
0.050961
0.051059
0.051156
0.051253
0.051351
0.051448
0.051545
0.051642
0.051740
0.051837
0.051934
0.052032
0.052129
0.052226
0.052323
0.052421
0.052518
0.052615
0.052713
0.052810
0.052907
0.053005
0.053102
0.053199
0.053296
0.053394
0.053491
0.053588
0.053686
0.053783
0.053880
0.053977
0.054075
0.054172
0.054269
0.054367
0.054464
0.054561
0.054659
0.054756
0.054853
0.054951
0.055048
0.055145
0.055242
0.055340
0.055437
0.055534
0.055632
0.055729
0.055826
0.055924
0.056021
0.056118
0.056216
0.056313
0.056410
0.056508
0.056605
0.056702
0.056800
0.056897
0.056994
0.057092
0.057189
0.057286
0.057384
0.057481
0.057578
0.057676
0.057773
0.057870
0.057968
0.058065
0.058163
0.058260
0.058357
0.058455
0.058552
0.058649
0.058747
0.058844
0.058942
0.059039
0.059136
0.059234
0.059331
0.059429
0.059526
0.059623
0.059721
0.059818
0.059916
0.060013
0.060111
0.060208
0.060305
0.060403
0.060500
0.060598
0.060695
0.060793
0.060890
0.060987
0.061085
0.061182
0.061280
0.061377
0.061475
0.061572
0.061670
0.061767
0.061865
0.061962
0.062060
0.062157
0.062255
0.062352
0.062450
0.062547
0.062645
0.062742
0.062840
0.062937
0.063035
0.063132
0.063230
0.063327
0.063425
0.063523
0.063620
0.063718
0.063815
0.063913
0.064010
0.064108
0.064206
0.064303
0.064401
0.064498
0.064596
0.064693
0.064791
0.064889
0.064986
0.065084
0.065182
0.065279
0.065377
0.065474
0.065572
0.065670
0.065767
0.065865
0.065963
0.066060
0.066158
0.066256
0.066353
0.066451
0.066549
0.066646
0.066744
0.066842
0.066939
0.067037
0.067135
0.067233
0.067330
0.067428
0.067526
0.067624
0.067721
0.067819
0.067917
0.068015
0.068112
0.068210
0.068308
0.068406
0.068503
0.068601
0.068699
0.068797
0.068895
0.068992
0.049166
0.049214
0.049063
0.043964
0.044037
0.044106
-0.035537
-0.035485
-0.035636
-0.035699
-0.018710
0.055862
0.056038
0.056075
0.056181
0.047187
0.047031
0.047080
-0.019081
-0.018978
-0.019102
-0.018922
-0.051611
-0.051685
-0.051504
-0.051527
-0.019720
-0.019645
-0.019572
0.019283
0.019127
0.019215
0.019267
-0.032307
-0.033152
-0.039053
-0.040236
0.013627
0.013473
0.013534
0.013520
-0.015037
-0.015359
-0.015084
-0.015098
0.035802
0.035508
0.035206
0.036183
-0.051845
-0.051785
-0.051606
0.016760
0.016742
0.016923
0.017005
0.000838
-0.003181
-0.002219
-0.005551
0.008255
0.008475
0.008561
-0.027573
-0.026276
-0.027629
-0.004552
-0.004452
-0.004697
-0.004588
0.043485
0.044006
0.043953
0.044490
-0.001137
-0.000783
-0.000930
-0.000425
0.014620
0.014775
0.014498
0.014848
0.013623
0.013734
0.013539
0.013825
-0.007412
-0.007437
-0.007572
-0.007651
0.048798
0.048731
0.048549
-0.020506
-0.020792
-0.020594
0.008268
0.048482
0.048302
0.048297
0.048567
0.022338
0.022514
0.022433
-0.000341
-0.000303
-0.000451
0.022502
0.013475
0.012980
0.012803
-0.000185
0.025803
0.025693
0.025459
0.040553
0.040727
0.040525
0.040804
0.025002
0.025100
0.024925
0.025162
0.025398
-0.044558
-0.044760
-0.044656
0.057472
0.057307
0.057580
-0.044849
-0.031133
-0.031265
-0.031391
-0.031012
-0.025085
-0.024969
-0.025380
-0.025095
-0.014035
-0.014336
-0.014119
0.007359
0.007529
0.007314
0.007466
-0.014383
0.022444
0.022572
0.022340
-0.023817
-0.024053
-0.023831
-0.026038
-0.026356
-0.026602
0.022568
0.044690
0.044734
0.044520
-0.039764
-0.039698
-0.039615
0.047871
0.048057
0.048069
0.047904
0.028176
0.027914
0.028020
0.027636
0.000876
-0.000492
0.000912
0.000565
0.021176
0.021740
0.020252
0.022595
-0.037575
-0.037465
-0.037794
-0.037247
0.065036
0.064908
-0.054166
-0.053710
-0.053449
-0.052945
-0.035114
-0.034197
-0.032095
-0.037788
0.067196
0.067246
0.067480
-0.040506
-0.037283
-0.040718
-0.040947
-0.040095
0.046383
0.046349
0.046113
0.018169
0.018075
0.018295
0.018224
0.001322
0.000914
0.001207
-0.052427
-0.052405
-0.052698
-0.052456
0.067288
0.066901
0.067404
0.066780
0.057582
0.057754
0.057936
0.046048
0.027734
0.027540
0.027341
0.027188
-0.006172
-0.006060
-0.005928
-0.006260
-0.011119
-0.011762
-0.013538
0.058785
0.058733
0.058230
0.058435
-0.014889
-0.014514
-0.016318
-0.015550
0.027243
0.027264
0.027086
0.015820
0.016363
0.020919
0.011506
-0.046386
-0.046627
-0.045872
-0.047465
0.062055
0.062200
0.014115
0.014095
0.014197
0.027417
0.001761
0.002480
0.002969
0.003362
-0.025290
-0.025541
-0.025432
-0.025412
-0.024521
-0.028286
-0.027082
-0.024647
-0.005676
-0.005384
-0.005887
-0.005821
-0.030441
-0.029489
-0.028780
-0.028030
0.061155
0.061494
0.061712
0.061139
-0.027979
-0.027936
-0.027848
-0.057963
-0.060429
-0.058051
-0.058296
-0.049254
-0.049392
-0.049417
-0.009084
-0.009119
-0.019048
-0.019075
-0.020276
-0.017960
0.025522
0.023995
0.024205
0.022512
0.003572
0.009808
0.008987
0.007986
0.033427
0.033554
0.032605
0.032606
0.054519
0.053252
0.053675
0.054426
-0.023393
-0.023302
-0.024063
-0.024205
-0.019832
-0.019749
-0.019631
-0.020012
0.037306
0.037893
0.037449
0.037815
0.036765
0.036702
0.037413
-0.004625
-0.004447
-0.004406
-0.004615
0.064453
0.063734
0.064395
0.048520
-0.012262
-0.013617
-0.012932
-0.012848
0.053707
0.053757
0.053440
0.053559
0.010370
0.010561
0.010419
0.010642
0.025530
0.025828
-0.006982
-0.006470
-0.006033
-0.005663
-0.001838
-0.001819
-0.000130
-0.003573
-0.000707
-0.000601
-0.000523
0.059912
0.059707
0.059686
-0.035906
-0.036014
-0.035490
-0.035450
-0.000477
-0.030572
-0.028601
-0.030082
0.054651
0.054906
0.055322
0.055568
0.051106
0.050998
0.050979
0.050807
0.024231
0.023696
0.023558
0.024742
0.020906
0.020727
0.020644
0.020932
0.020798
0.021023
0.026746
0.025955
0.026471
-0.003681
-0.003837
-0.003651
0.015200
0.013162
0.017993
-0.003725
0.034784
0.035186
0.033951
0.029559
0.029785
0.029774
0.029626
0.044241
0.044279
0.044012
-0.030767
-0.027332
0.044469
0.041992
0.041925
0.041812
0.041759
-0.024216
-0.024120
-0.024258
0.053946
0.014528
0.014602
0.014150
0.014078
-0.044046
-0.042641
-0.043155
-0.041991
0.017689
0.017665
0.017509
0.017843
-0.029170
-0.028642
-0.029972
-0.028423
-0.035400
-0.036142
-0.033274
-0.038057
0.037728
0.037643
0.037900
-0.030575
-0.030312
-0.030990
0.019446
0.019400
0.018705
0.018247
0.047171
0.039093
0.038901
0.039088
0.029322
0.030298
0.029478
0.030152
-0.007374
-0.008174
-0.008350
0.038896
0.041267
0.041585
0.041272
0.020768
0.021235
0.021462
0.021931
0.025708
0.024026
-0.014619
-0.015150
-0.014420
-0.015625
-0.040558
-0.042487
-0.042490
-0.039476
-0.030688
-0.031153
0.012709
0.012613
0.013350
0.041442
-0.008967
-0.007335
-0.006698
-0.009393
0.020447
0.022460
0.030676
0.030789
0.030710
-0.030416
-0.029980
-0.029841
0.030897
-0.024481
-0.024438
-0.024323
0.043354
0.043153
0.043271
0.043070
-0.016192
-0.016118
-0.016049
-0.028624
-0.033111
0.007740
0.007696
0.007598
0.046088
0.046050
0.045937
0.045877
0.030815
0.030934
0.031016
0.011196
0.010577
0.010411
0.009517
0.029831
0.029676
0.029742
0.029580
0.026025
0.026102
0.025954
0.041152
0.041289
0.041367
0.029812
0.029617
0.030746
0.041430
-0.037151
-0.037155
-0.036995
0.028839
0.022168
0.021708
0.022383
0.030778
-0.039528
-0.039464
-0.039566
0.015520
0.012163
0.013527
-0.037310
0.038697
0.038704
0.038921
0.055470
0.055547
0.055369
0.055471