# vtk DataFile Version 2.0
Test
ASCII
DATASET POLYDATA
POINTS 20431 float
0.000000 0.000000 0.000000
2.000000 0.000000 0.000000
2.000000 4.000000 0.000000
0.000000 4.000000 0.000000
0.000000 0.500000 0.000000
1.500000 2.000000 0.000000
2.000000 2.500000 0.000000
0.400000 0.000000 0.000000
0.800000 0.000000 0.000000
1.200000 0.000000 0.000000
1.600000 0.000000 0.000000
2.000000 0.362557 0.000000
2.000000 0.672798 0.000000
2.000000 0.938272 0.000000
2.000000 1.165439 0.000000
2.000000 1.359826 0.000000
2.000000 1.526163 0.000000
2.000000 1.668499 0.000000
2.000000 1.790295 0.000000
2.000000 1.894517 0.000000
2.000000 1.983700 0.000000
2.000000 2.060013 0.000000
2.000000 2.125315 0.000000
2.000000 2.181194 0.000000
2.000000 2.229010 0.000000
2.000000 2.269926 0.000000
2.000000 2.304938 0.000000
2.000000 2.334898 0.000000
2.000000 2.360534 0.000000
2.000000 2.382472 0.000000
2.000000 2.401244 0.000000
2.000000 2.417307 0.000000
2.000000 2.431052 0.000000
2.000000 2.442814 0.000000
2.000000 2.452878 0.000000
2.000000 2.461491 0.000000
2.000000 2.468860 0.000000
2.000000 2.475167 0.000000
2.000000 2.480563 0.000000
2.000000 2.485180 0.000000
2.000000 2.489132 0.000000
2.000000 2.492513 0.000000
2.000000 2.495406 0.000000
2.000000 2.497882 0.000000
2.000000 2.502286 0.000000
2.000000 2.505266 0.000000
2.000000 2.509150 0.000000
2.000000 2.514212 0.000000
2.000000 2.520809 0.000000
2.000000 2.529407 0.000000
2.000000 2.540613 0.000000
2.000000 2.555218 0.000000
2.000000 2.574253 0.000000
2.000000 2.599061 0.000000
2.000000 2.631395 0.000000
2.000000 2.673536 0.000000
2.000000 2.728460 0.000000
2.000000 2.800043 0.000000
2.000000 2.893339 0.000000
2.000000 3.014933 0.000000
2.000000 3.173410 0.000000
2.000000 3.379956 0.000000
2.000000 3.649152 0.000000
1.600000 4.000000 0.000000
1.200000 4.000000 0.000000
0.800000 4.000000 0.000000
0.400000 4.000000 0.000000
0.000000 3.624996 0.000000
0.000000 3.289970 0.000000
0.000000 2.990661 0.000000
0.000000 2.723261 0.000000
0.000000 2.484368 0.000000
0.000000 2.270943 0.000000
0.000000 2.080271 0.000000
0.000000 1.909926 0.000000
0.000000 1.757741 0.000000
0.000000 1.621780 0.000000
0.000000 1.500314 0.000000
0.000000 1.391797 0.000000
0.000000 1.294849 0.000000
0.000000 1.208237 0.000000
0.000000 1.130858 0.000000
0.000000 1.061728 0.000000
0.000000 0.999968 0.000000
0.000000 0.944792 0.000000
0.000000 0.895499 0.000000
0.000000 0.851460 0.000000
0.000000 0.812117 0.000000
0.000000 0.776968 0.000000
0.000000 0.745565 0.000000
0.000000 0.717511 0.000000
0.000000 0.692448 0.000000
0.000000 0.670056 0.000000
0.000000 0.650052 0.000000
0.000000 0.632180 0.000000
0.000000 0.616213 0.000000
0.000000 0.601949 0.000000
0.000000 0.589205 0.000000
0.000000 0.577820 0.000000
0.000000 0.567649 0.000000
0.000000 0.558562 0.000000
0.000000 0.550444 0.000000
0.000000 0.543191 0.000000
0.000000 0.536712 0.000000
0.000000 0.530923 0.000000
0.000000 0.525751 0.000000
0.000000 0.521131 0.000000
0.000000 0.517003 0.000000
0.000000 0.513315 0.000000
0.000000 0.510021 0.000000
0.000000 0.507078 0.000000
0.000000 0.504448 0.000000
0.000000 0.502099 0.000000
0.000000 0.497804 0.000000
0.000000 0.494785 0.000000
0.000000 0.490633 0.000000
0.000000 0.484924 0.000000
0.000000 0.477074 0.000000
0.000000 0.466279 0.000000
0.000000 0.451436 0.000000
0.000000 0.431025 0.000000
0.000000 0.402959 0.000000
0.000000 0.364366 0.000000
0.000000 0.311297 0.000000
0.000000 0.238324 0.000000
0.000000 0.137980 0.000000
0.001414 0.501414 0.000000
0.002828 0.502828 0.000000
0.004241 0.504241 0.000000
0.005655 0.505655 0.000000
0.007069 0.507069 0.000000
0.008483 0.508483 0.000000
0.009896 0.509896 0.000000
0.011310 0.511310 0.000000
0.012724 0.512724 0.000000
0.014138 0.514138 0.000000
0.015551 0.515551 0.000000
0.016965 0.516965 0.000000
0.018379 0.518379 0.000000
0.019793 0.519793 0.000000
0.021206 0.521206 0.000000
0.022620 0.522620 0.000000
0.024034 0.524034 0.000000
0.025448 0.525448 0.000000
0.026861 0.526861 0.000000
0.028275 0.528275 0.000000
0.029689 0.529689 0.000000
0.031103 0.531103 0.000000
0.032516 0.532516 0.000000
0.033930 0.533930 0.000000
0.035344 0.535344 0.000000
0.036758 0.536758 0.000000
0.038172 0.538172 0.000000
0.039585 0.539585 0.000000
0.040999 0.540999 0.000000
0.042413 0.542413 0.000000
0.043827 0.543827 0.000000
0.045240 0.545240 0.000000
0.046654 0.546654 0.000000
0.048068 0.548068 0.000000
0.049482 0.549482 0.000000
0.050895 0.550895 0.000000
0.052309 0.552309 0.000000
0.053723 0.553723 0.000000
0.055137 0.555137 0.000000
0.056550 0.556550 0.000000
0.057964 0.557964 0.000000
0.059378 0.559378 0.000000
0.060792 0.560792 0.000000
0.062205 0.562205 0.000000
0.063619 0.563619 0.000000
0.065033 0.565033 0.000000
0.066447 0.566447 0.000000
0.067861 0.567861 0.000000
0.069274 0.569274 0.000000
0.070688 0.570688 0.000000
0.072102 0.572102 0.000000
0.073516 0.573516 0.000000
0.074929 0.574929 0.000000
0.076343 0.576343 0.000000
0.077757 0.577757 0.000000
0.079171 0.579171 0.000000
0.080584 0.580584 0.000000
0.081998 0.581998 0.000000
0.083412 0.583412 0.000000
0.084826 0.584826 0.000000
0.086239 0.586239 0.000000
0.087653 0.587653 0.000000
0.089067 0.589067 0.000000
0.090481 0.590481 0.000000
0.091894 0.591894 0.000000
0.093308 0.593308 0.000000
0.094722 0.594722 0.000000
0.096136 0.596136 0.000000
0.097549 0.597549 0.000000
0.098963 0.598963 0.000000
0.100377 0.600377 0.000000
0.101791 0.601791 0.000000
0.103205 0.603205 0.000000
0.104618 0.604618 0.000000
0.106032 0.606032 0.000000
0.107446 0.607446 0.000000
0.108860 0.608860 0.000000
0.110273 0.610273 0.000000
0.111687 0.611687 0.000000
0.113101 0.613101 0.000000
0.114515 0.614515 0.000000
0.115928 0.615928 0.000000
0.117342 0.617342 0.000000
0.118756 0.618756 0.000000
0.120170 0.620170 0.000000
0.121583 0.621583 0.000000
0.122997 0.622997 0.000000
0.124411 0.624411 0.000000
0.125825 0.625825 0.000000
0.127238 0.627238 0.000000
0.128652 0.628652 0.000000
0.130066 0.630066 0.000000
0.131480 0.631480 0.000000
0.132893 0.632893 0.000000
0.134307 0.634307 0.000000
0.135721 0.635721 0.000000
0.137135 0.637135 0.000000
0.138549 0.638549 0.000000
0.139962 0.639962 0.000000
0.141376 0.641376 0.000000
0.142790 0.642790 0.000000
0.144204 0.644204 0.000000
0.145617 0.645617 0.000000
0.147031 0.647031 0.000000
0.148445 0.648445 0.000000
0.149859 0.649859 0.000000
0.151272 0.651272 0.000000
0.152686 0.652686 0.000000
0.154100 0.654100 0.000000
0.155514 0.655514 0.000000
0.156927 0.656927 0.000000
0.158341 0.658341 0.000000
0.159755 0.659755 0.000000
0.161169 0.661169 0.000000
0.162582 0.662582 0.000000
0.163996 0.663996 0.000000
0.165410 0.665410 0.000000
0.166824 0.666824 0.000000
0.168238 0.668238 0.000000
0.169651 0.669651 0.000000
0.171065 0.671065 0.000000
0.172479 0.672479 0.000000
0.173893 0.673893 0.000000
0.175306 0.675306 0.000000
0.176720 0.676720 0.000000
0.178134 0.678134 0.000000
0.179548 0.679548 0.000000
0.180961 0.680961 0.000000
0.182375 0.682375 0.000000
0.183789 0.683789 0.000000
0.185203 0.685203 0.000000
0.186616 0.686616 0.000000
0.188030 0.688030 0.000000
0.189444 0.689444 0.000000
0.190858 0.690858 0.000000
0.192271 0.692271 0.000000
0.193685 0.693685 0.000000
0.195099 0.695099 0.000000
0.196513 0.696513 0.000000
0.197926 0.697926 0.000000
0.199340 0.699340 0.000000
0.200754 0.700754 0.000000
0.202168 0.702168 0.000000
0.203582 0.703582 0.000000
0.204995 0.704995 0.000000
0.206409 0.706409 0.000000
0.207823 0.707823 0.000000
0.209237 0.709237 0.000000
0.210650 0.710650 0.000000
0.212064 0.712064 0.000000
0.213478 0.713478 0.000000
0.214892 0.714892 0.000000
0.216305 0.716305 0.000000
0.217719 0.717719 0.000000
0.219133 0.719133 0.000000
0.220547 0.720547 0.000000
0.221960 0.721960 0.000000
0.223374 0.723374 0.000000
0.224788 0.724788 0.000000
0.226202 0.726202 0.000000
0.227615 0.727615 0.000000
0.229029 0.729029 0.000000
0.230443 0.730443 0.000000
0.231857 0.731857 0.000000
0.233270 0.733270 0.000000
0.234684 0.734684 0.000000
0.236098 0.736098 0.000000
0.237512 0.737512 0.000000
0.238926 0.738926 0.000000
0.240339 0.740339 0.000000
0.241753 0.741753 0.000000
0.243167 0.743167 0.000000
0.244581 0.744581 0.000000
0.245994 0.745994 0.000000
0.247408 0.747408 0.000000
0.248822 0.748822 0.000000
0.250236 0.750236 0.000000
0.251649 0.751649 0.000000
0.253063 0.753063 0.000000
0.254477 0.754477 0.000000
0.255891 0.755891 0.000000
0.257304 0.757304 0.000000
0.258718 0.758718 0.000000
0.260132 0.760132 0.000000
0.261546 0.761546 0.000000
0.262959 0.762959 0.000000
0.264373 0.764373 0.000000
0.265787 0.765787 0.000000
0.267201 0.767201 0.000000
0.268615 0.768615 0.000000
0.270028 0.770028 0.000000
0.271442 0.771442 0.000000
0.272856 0.772856 0.000000
0.274270 0.774270 0.000000
0.275683 0.775683 0.000000
0.277097 0.777097 0.000000
0.278511 0.778511 0.000000
0.279925 0.779925 0.000000
0.281338 0.781338 0.000000
0.282752 0.782752 0.000000
0.284166 0.784166 0.000000
0.285580 0.785580 0.000000
0.286993 0.786993 0.000000
0.288407 0.788407 0.000000
0.289821 0.789821 0.000000
0.291235 0.791235 0.000000
0.292648 0.792648 0.000000
0.294062 0.794062 0.000000
0.295476 0.795476 0.000000
0.296890 0.796890 0.000000
0.298303 0.798303 0.000000
0.299717 0.799717 0.000000
0.301131 0.801131 0.000000
0.302545 0.802545 0.000000
0.303959 0.803959 0.000000
0.305372 0.805372 0.000000
0.306786 0.806786 0.000000
0.308200 0.808200 0.000000
0.309614 0.809614 0.000000
0.311027 0.811027 0.000000
0.312441 0.812441 0.000000
0.313855 0.813855 0.000000
0.315269 0.815269 0.000000
0.316682 0.816682 0.000000
0.318096 0.818096 0.000000
0.319510 0.819510 0.000000
0.320924 0.820924 0.000000
0.322337 0.822337 0.000000
0.323751 0.823751 0.000000
0.325165 0.825165 0.000000
0.326579 0.826579 0.000000
0.327992 0.827992 0.000000
0.329406 0.829406 0.000000
0.330820 0.830820 0.000000
0.332234 0.832234 0.000000
0.333648 0.833648 0.000000
0.335061 0.835061 0.000000
0.336475 0.836475 0.000000
0.337889 0.837889 0.000000
0.339303 0.839303 0.000000
0.340716 0.840716 0.000000
[...]
POINT_DATA 20431
SCALARS UX float 1
LOOKUP_TABLE default
-0.000000
0.000000
0.088836
-0.092661
-0.072464
0.044737
0.089442
-0.000000
-0.000000
0.000000
-0.000000
0.060585
0.079326
0.086620
0.089281
0.090238
0.090510
0.090479
0.090370
0.090242
0.090115
0.090007
0.089913
0.089835
0.089769
0.089714
0.089669
0.089631
0.089600
0.089574
0.089552
0.089533
0.089517
0.089504
0.089493
0.089483
0.089475
0.089469
0.089463
0.089458
0.089454
0.089450
0.089447
0.089444
0.089440
0.089437
0.089433
0.089427
0.089421
0.089412
0.089401
0.089386
0.089368
0.089344
0.089314
0.089277
0.089233
0.089181
0.089117
0.089050
0.088981
0.088910
0.088858
0.052506
0.016190
-0.020105
-0.056385
-0.092659
-0.092659
-0.092676
-0.092722
-0.092803
-0.092904
-0.093013
-0.093100
-0.093120
-0.093051
-0.092889
-0.092609
-0.092191
-0.091650
-0.090994
-0.090242
-0.089405
-0.088501
-0.087556
-0.086582
-0.085600
-0.084620
-0.083666
-0.082725
-0.081828
-0.080974
-0.080159
-0.079398
-0.078685
-0.078022
-0.077409
-0.076841
-0.076321
-0.075844
-0.075407
-0.075010
-0.074647
-0.074318
-0.074020
-0.073749
-0.073505
-0.073283
-0.073084
-0.072904
-0.072741
-0.072595
-0.072326
-0.072134
-0.071868
-0.071498
-0.070976
-0.070247
-0.069184
-0.067661
-0.065412
-0.061904
-0.056482
-0.047909
-0.032751
-0.072438
-0.072412
-0.072385
-0.072358
-0.072330
-0.072302
-0.072273
-0.072244
-0.072213
-0.072183
-0.072152
-0.072121
-0.072089
-0.072056
-0.072023
-0.071990
-0.071956
-0.071922
-0.071887
-0.071852
-0.071816
-0.071780
-0.071744
-0.071707
-0.071670
-0.071632
-0.071594
-0.071555
-0.071516
-0.071477
-0.071437
-0.071397
-0.071356
-0.071316
-0.071274
-0.071233
-0.071191
-0.071148
-0.071106
-0.071063
-0.071019
-0.070975
-0.070931
-0.070887
-0.070842
-0.070797
-0.070751
-0.070706
-0.070659
-0.070613
-0.070566
-0.070519
-0.070471
-0.070423
-0.070375
-0.070327
-0.070278
-0.070229
-0.070180
-0.070130
-0.070081
-0.070030
-0.069980
-0.069929
-0.069879
-0.069827
-0.069776
-0.069724
-0.069672
-0.069620
-0.069567
-0.069514
-0.069461
-0.069408
-0.069354
-0.069300
-0.069246
-0.069191
-0.069136
-0.069081
-0.069026
-0.068970
-0.068914
-0.068857
-0.068801
-0.068744
-0.068687
-0.068630
-0.068572
-0.068514
-0.068456
-0.068398
-0.068339
-0.068280
-0.068221
-0.068162
-0.068102
-0.068042
-0.067982
-0.067921
-0.067860
-0.067799
-0.067738
-0.067677
-0.067615
-0.067553
-0.067490
-0.067428
-0.067365
-0.067302
-0.067238
-0.067175
-0.067111
-0.067047
-0.066982
-0.066917
-0.066852
-0.066787
-0.066722
-0.066656
-0.066590
-0.066523
-0.066457
-0.066390
-0.066323
-0.066256
-0.066188
-0.066120
-0.066052
-0.065984
-0.065915
-0.065846
-0.065777
-0.065708
-0.065638
-0.065568
-0.065498
-0.065428
-0.065357
-0.065286
-0.065215
-0.065144
-0.065072
-0.065001
-0.064928
-0.064856
-0.064784
-0.064711
-0.064638
-0.064564
-0.064491
-0.064417
-0.064343
-0.064268
-0.064194
-0.064119
-0.064044
-0.063969
-0.063893
-0.063817
-0.063742
-0.063665
-0.063589
-0.063512
-0.063435
-0.063358
-0.063281
-0.063203
-0.063125
-0.063047
-0.062969
-0.062890
-0.062812
-0.062733
-0.062653
-0.062574
-0.062494
-0.062414
-0.062334
-0.062254
-0.062174
-0.062093
-0.062012
-0.061931
-0.061850
-0.061768
-0.061686
-0.061604
-0.061522
-0.061440
-0.061357
-0.061274
-0.061191
-0.061108
-0.061025
-0.060941
-0.060857
-0.060773
-0.060689
-0.060605
-0.060520
-0.060435
-0.060350
-0.060265
-0.060179
-0.060094
-0.060008
-0.059922
-0.059836
-0.059749
-0.059663
-0.059576
-0.059489
-0.059401
-0.059314
-0.059226
-0.059139
-0.059051
-0.058962
-0.058874
-0.058785
-0.058697
-0.058608
-0.058519
-0.058429
-0.058340
-0.058250
-0.058160
-0.058070
-0.057980
-0.057889
-0.057799
-0.057708
-0.057617
-0.057526
-0.057434
-0.057343
-0.057251
-0.057159
-0.057067
-0.056975
-0.056882
-0.056790
-0.056697
-0.056604
-0.056511
-0.056418
-0.056324
-0.056230
-0.056137
-0.056043
-0.055948
-0.055854
-0.055759
-0.055665
-0.055570
-0.055475
-0.055380
-0.055284
-0.055189
-0.055093
-0.054997
-0.054901
-0.054805
-0.054708
-0.054612
-0.054515
-0.054418
-0.054321
-0.054223
-0.054126
-0.054028
-0.053931
-0.053833
-0.053735
-0.053636
-0.053538
-0.053440
-0.053341
-0.053242
-0.053143
-0.053044
-0.052944
-0.052845
-0.052745
-0.052645
-0.052545
-0.052445
-0.052344
-0.052244
-0.052143
-0.052042
-0.051941
-0.051840
-0.051739
-0.051638
-0.051536
-0.051434
-0.051332
-0.051230
-0.051128
-0.051026
-0.050923
-0.050821
-0.050718
-0.050615
-0.050512
-0.050409
-0.050305
-0.050202
-0.050098
-0.049994
-0.049890
-0.049786
-0.049682
-0.049577
-0.049473
-0.049368
-0.049263
-0.049158
-0.049053
-0.048948
-0.048843
-0.048737
-0.048632
-0.048526
-0.048420
-0.048314
-0.048208
-0.048101
-0.047995
-0.047888
-0.047781
-0.047674
-0.047567
-0.047460
-0.047353
-0.047245
-0.047138
-0.047030
-0.046922
-0.046814
-0.046706
-0.046598
-0.046489
-0.046381
-0.046272
-0.046163
-0.046055
-0.045946
-0.045836
-0.045727
-0.045618
-0.045508
-0.045398
-0.045289
-0.045179
-0.045069
-0.044958
-0.044848
-0.044738
-0.044627
-0.044516
-0.044405
-0.044294
-0.044183
-0.044072
-0.043961
-0.043849
-0.043738
-0.043626
-0.043514
-0.043402
-0.043290
-0.043178
-0.043066
-0.042953
-0.042840
-0.042728
-0.042615
-0.042502
-0.042389
-0.042276
-0.042163
-0.042049
-0.041936
-0.041822
-0.041708
-0.041594
-0.041480
-0.041366
-0.041252
-0.041138
-0.041023
-0.040909
-0.040794
-0.040679
-0.040564
-0.040449
-0.040334
-0.040219
-0.040103
-0.039988
-0.039872
-0.039756
-0.039640
-0.039525
-0.039408
-0.039292
-0.039176
-0.039060
-0.038943
-0.038826
-0.038710
-0.038593
-0.038476
-0.038359
-0.038242
-0.038124
-0.038007
-0.037890
-0.037772
-0.037654
-0.037536
-0.037419
-0.037300
-0.037182
-0.037064
-0.036946
-0.036827
-0.036709
-0.036590
-0.036471
-0.036353
-0.036234
-0.036115
-0.035995
-0.035876
-0.035757
-0.035637
-0.035518
-0.035398
-0.035278
-0.035159
-0.035039
-0.034919
-0.034798
-0.034678
-0.034558
-0.034437
-0.034317
-0.034196
-0.034076
-0.033955
-0.033834
-0.033713
-0.033592
-0.033471
-0.033349
-0.033228
-0.033107
-0.032985
-0.032863
-0.032742
-0.032620
-0.032498
-0.032376
-0.032254
-0.032132
-0.032010
-0.031887
-0.031765
-0.031642
-0.031520
-0.031397
-0.031274
-0.031152
-0.031029
-0.030906
-0.030782
-0.030659
-0.030536
-0.030413
-0.030289
-0.030166
-0.030042
-0.029918
-0.029795
-0.029671
-0.029547
-0.029423
-0.029299
-0.029175
-0.029050
-0.028926
-0.028802
-0.028677
-0.028553
-0.028428
-0.028303
-0.028179
-0.028054
-0.027929
-0.027804
-0.027679
-0.027554
-0.027428
-0.027303
-0.027178
-0.027052
-0.026927
-0.026801
-0.026676
-0.026550
-0.026424
-0.026298
-0.026172
-0.026046
-0.025920
-0.025794
-0.025668
-0.025541
-0.025415
-0.025289
-0.025162
-0.025036
-0.024909
-0.024782
-0.024656
-0.024529
-0.024402
-0.024275
-0.024148
-0.024021
-0.023894
-0.023767
-0.023639
-0.023512
-0.023385
-0.023257
-0.023130
-0.023002
-0.022874
-0.022747
-0.022619
-0.022491
-0.022363
-0.022236
-0.022108
-0.021980
-0.021851
-0.021723
-0.021595
-0.021467
-0.021339
-0.021210
-0.021082
-0.020953
-0.020825
-0.020696
-0.020568
-0.020439
-0.020310
-0.020181
-0.020053
-0.019924
-0.019795
-0.019666
-0.019537
-0.019408
-0.019279
-0.019149
-0.019020
-0.018891
-0.018762
-0.018632
-0.018503
-0.018373
-0.018244
-0.018114
-0.017985
-0.017855
-0.017726
-0.017596
-0.017466
-0.017336
-0.017206
-0.017077
-0.016947
-0.016817
-0.016687
-0.016557
-0.016427
-0.016296
-0.016166
-0.016036
-0.015906
-0.015775
-0.015645
-0.015515
-0.015384
-0.015254
-0.015123
-0.014993
-0.014862
-0.014732
-0.014601
-0.014471
-0.014340
-0.014209
-0.014078
-0.013948
-0.013817
-0.013686
-0.013555
-0.013424
-0.013293
-0.013162
-0.013031
-0.012900
-0.012769
-0.012638
-0.012507
-0.012376
-0.012245
-0.012113
-0.011982
-0.011851
-0.011720
-0.011588
-0.011457
-0.011326
-0.011194
-0.011063
-0.010931
-0.010800
-0.010668
-0.010537
-0.010405
-0.010274
-0.010142
-0.010011
-0.009879
-0.009747
-0.009616
-0.009484
-0.009352
-0.009220
-0.009089
-0.008957
-0.008825
-0.008693
-0.008561
-0.008429
-0.008298
-0.008166
-0.008034
-0.007902
-0.007770
-0.007638
-0.007506
-0.007374
-0.007242
-0.007110
-0.006978
-0.006846
-0.006713
-0.006581
-0.006449
-0.006317
-0.006185
-0.006053
-0.005921
-0.005788
-0.005656
-0.005524
-0.005392
-0.005259
-0.005127
-0.004995
-0.004863
-0.004730
-0.004598
-0.004466
-0.004333
-0.004201
-0.004069
-0.003936
-0.003804
-0.003672
-0.003539
-0.003407
-0.003274
-0.003142
-0.003010
-0.002877
-0.002745
-0.002612
-0.002480
-0.002347
-0.002215
-0.002083
-0.001950
-0.001818
-0.001685
-0.001553
-0.001420
-0.001288
-0.001155
-0.001023
-0.000890
-0.000758
-0.000625
-0.000493
-0.000360
-0.000228
-0.000095
0.000037
0.000170
0.000303
0.000435
0.000568
0.000700
0.000833
0.000965
0.001098
0.001230
0.001363
0.001495
0.001628
0.001760
0.001893
0.002025
0.002158
0.002290
0.002423
0.002555
0.002688
0.002821
0.002953
0.003086
0.003218
0.003351
0.003483
0.003616
0.003748
0.003881
0.004013
0.004145
0.004278
0.004410
0.004543
0.004675
0.004808
0.004940
0.005073
0.005205
0.005338
0.005470
0.005602
0.005735
0.005867
0.006000
0.006132
0.006264
0.006397
0.006529
0.006661
0.006794
0.006926
0.007058
0.007191
0.007323
0.007455
0.007588
0.007720
0.007852
0.007984
0.008117
0.008249
0.008381
0.008513
0.008646
0.008778
0.008910
0.009042
0.009174
0.009306
0.009439
0.009571
0.009703
0.009835
0.009967
0.010099
0.010231
0.010363
0.010495
0.010627
0.010759
0.010891
0.011023
0.011155
0.011287
0.011419
0.011551
0.011683
0.011815
0.011947
0.012079
0.012211
0.012343
0.012475
0.012606
0.012738
0.012870
0.013002
0.013134
0.013265
0.013397
0.013529
0.013661
0.013792
0.013924
0.014056
0.014187
0.014319
0.014451
0.014582
0.014714
0.014845
0.014977
0.015108
0.015240
0.015371
0.015503
0.015634
0.015766
0.015897
0.016029
0.016160
0.016292
0.016423
0.016554
0.016686
0.016817
0.016948
0.017080
0.017211
0.017342
0.017473
0.017605
0.017736
0.017867
0.017998
0.018129
0.018260
0.018392
0.018523
0.018654
0.018785
0.018916
0.019047
0.019178
0.019309
0.019440
0.019571
0.019702
0.019833
0.019964
0.020094
0.020225
0.020356
0.020487
0.020618
0.020749
0.020879
0.021010
0.021141
0.021271
0.021402
0.021533
0.021663
0.021794
0.021925
0.022055
0.022186
0.022316
0.022447
0.022577
0.022708
0.022838
0.022969
0.023099
0.023230
0.023360
0.023490
0.023621
0.023751
0.023881
0.024012
0.024142
0.024272
0.024403
0.024533
0.024663
0.024793
0.024923
0.025053
0.025183
0.025314
0.025444
0.025574
0.025704
0.025834
0.025964
0.026094
0.026224
0.026354
0.026483
0.026613
0.026743
0.026873
0.027003
0.027133
0.027263
0.027392
0.027522
0.027652
0.027781
0.027911
0.028041
0.028170
0.028300
0.028430
0.028559
0.028689
0.028818
0.028948
0.029077
0.029207
0.029336
0.029466
0.029595
0.029725
0.029854
0.029983
0.030113
0.030242
0.030371
0.030501
0.030630
0.030759
0.030888
0.031018
0.031147
0.031276
0.031405
0.031534
0.031663
0.031792
0.031922
0.032051
0.032180
0.032309
0.032438
0.032567
0.032696
0.032824
0.032953
0.033082
0.033211
0.033340
0.033469
0.033598
0.033726
0.033855
0.033984
0.034113
0.034241
0.034370
0.034499
0.034628
0.034756
0.034885
0.035013
0.035142
0.035271
0.035399
0.035528
0.035656
0.035785
0.035913
0.036042
0.036170
0.036298
0.036427
0.036555
0.036684
0.036812
0.036940
0.037069
0.037197
0.037325
0.037453
0.037582
0.037710
0.037838
0.037966
0.038094
0.038223
0.038351
0.038479
0.038607
0.038735
0.038863
0.038991
0.039119
0.039247
0.039375
0.039503
0.039631
0.039759
0.039887
0.040015
0.040143
0.040271
0.040399
0.040526
0.040654
0.040782
0.040910
0.041038
0.041165
0.041293
0.041421
0.041549
0.041676
0.041804
0.041932
0.042059
0.042187
0.042315
0.042442
0.042570
0.042697
0.042825
0.042953
0.043080
0.043208
0.043335
0.043463
0.043590
0.043718
0.043845
0.043972
0.044100
0.044227
0.044355
0.044482
0.044609
0.044864
0.044991
0.045118
0.045245
0.045373
0.045500
0.045627
0.045754
0.045881
0.046008
0.046135
0.046262
0.046389
0.046516
0.046643
0.046771
0.046898
0.047024
0.047151
0.047278
0.047405
0.047532
0.047659
0.047786
0.047913
0.048040
0.048167
0.048294
0.048421
0.048547
0.048674
0.048801
0.048928
0.049055
0.049181
0.049308
0.049435
0.049562
0.049688
0.049815
0.049942
0.050069
0.050195
0.050322
0.050449
0.050575
0.050702
0.050829
0.050955
0.051082
0.051208
0.051335
0.051462
0.051588
0.051715
0.051841
0.051968
0.052094
0.052221
0.052347
0.052474
0.052600
0.052727
0.052853
0.052980
0.053106
0.053233
0.053359
0.053486
0.053612
0.053739
0.053865
0.053991
0.054118
0.054244
0.054371
0.054497
0.054623
0.054750
0.054876
0.055002
0.055129
0.055255
0.055381
0.055508
0.055634
0.055760
0.055887
0.056013
0.056139
0.056265
0.056392
0.056518
0.056644
0.056770
0.056897
0.057023
0.057149
0.057275
0.057401
0.057528
0.057654
0.057780
0.057906
0.058032
0.058159
0.058285
0.058411
0.058537
0.058663
0.058789
0.058916
0.059042
0.059168
0.059294
0.059420
0.059546
0.059672
0.059798
0.059924
0.060051
0.060177
0.060303
0.060429
0.060555
0.060681
0.060807
0.060933
0.061059
0.061185
0.061311
0.061437
0.061563
0.061689
0.061815
0.061942
0.062068
0.062194
0.062320
0.062446
0.062572
0.062698
0.062824
0.062950
0.063076
0.063202
0.063328
0.063454
0.063580
0.063706
0.063832
0.063958
0.064084
0.064210
0.064336
0.064462
0.064588
0.064714
0.064840
0.064965
0.065091
0.065217
0.065343
0.065469
0.065595
0.065721
0.065847
0.065973
0.066099
0.066225
0.066351
0.066477
0.066603
0.066729
0.066855
0.066981
0.067107
0.067233
0.067359
0.067485
0.067611
0.067737
0.067863
0.067988
0.068114
0.068240
0.068366
0.068492
0.068618
0.068744
0.068870
0.068996
0.069122
0.069248
0.069374
0.069500
0.069626
0.069752
0.069878
0.070004
0.070130
0.070256
0.070382
0.070508
0.070634
0.070760
0.070886
0.071012
0.071137
0.071263
0.071389
0.071515
0.071641
0.071767
0.071893
0.072019
0.072145
0.072271
0.072397
0.072523
0.072649
0.072775
0.072901
0.073027
0.073153
0.073279
0.073405
0.073531
0.073657
0.073783
0.073909
0.074035
0.074161
0.074287
0.074413
0.074539
0.074666
0.074792
0.074918
0.075044
0.075170
0.075296
0.075422
0.075548
0.075674
0.075800
0.075926
0.076052
0.076178
0.076304
0.076430
0.076556
0.076683
0.076809
0.076935
0.077061
0.077187
0.077313
0.077439
0.077565
0.077691
0.077817
0.077944
0.078070
0.078196
0.078322
0.078448
0.078574
0.078700
0.078827
0.078953
0.079079
0.079205
0.079331
0.079457
0.079584
0.079710
0.079836
0.079962
0.080088
0.080215
0.080341
0.080467
0.080593
0.080719
0.080846
0.080972
0.081098
0.081224
0.081351
0.081477
0.081603
0.081729
0.081856
0.081982
0.082108
0.082235
0.082361
0.082487
0.082613
0.082740
0.082866
0.082992
0.083119
0.083245
0.083371
0.083498
0.083624
0.083750
0.083877
0.084003
0.084130
0.084256
0.084382
0.084509
0.084635
0.084761
0.084888
0.085014
0.085141
0.085267
0.085394
0.085520
0.085646
0.085773
0.085899
0.086026
0.086152
0.086279
0.086405
0.086532
0.086658
0.086785
0.086911
0.087038
0.087164
0.087291
0.087417
0.087544
0.087670
0.087797
0.087923
0.088050
0.088176
0.088303
0.088429
0.088556
0.088683
0.088809
0.088936
0.089062
0.089189
0.089316
0.063649
0.063711
0.063516
0.056915
0.057009
0.057098
-0.046005
-0.045938
-0.046133
-0.046215
-0.024222
0.072317
0.072545
0.072593
0.072731
0.061088
0.060885
0.060948
-0.024701
-0.024568
-0.024729
-0.024496
-0.066815
-0.066910
-0.066675
-0.066706
-0.025530
-0.025432
-0.025337
0.024963
0.024762
0.024875
0.024942
-0.041823
-0.042918
-0.050557
-0.052088
0.017642
0.017442
0.017521
0.017502
-0.019466
-0.019884
-0.019527
-0.019545
0.046349
0.045967
0.045577
0.046841
-0.067117
-0.067039
-0.066808
0.021697
0.021673
0.021908
0.022014
0.001085
-0.004118
-0.002873
-0.007186
0.010687
0.010971
0.011083
-0.035696
-0.034016
-0.035768
-0.005893
-0.005764
-0.006081
-0.005940
0.056295
0.056969
0.056901
0.057595
-0.001471
-0.001014
-0.001203
-0.000550
0.018926
0.019127
0.018769
0.019222
0.017636
0.017779
0.017528
0.017897
-0.009595
-0.009628
-0.009802
-0.009905
0.063172
0.063086
0.062850
-0.026546
-0.026917
-0.026660
0.010704
0.062764
0.062531
0.062524
0.062874
0.028918
0.029146
0.029041
-0.000441
-0.000392
-0.000584
0.029130
0.017445
0.016804
0.016575
-0.000239
0.033404
0.033262
0.032959
0.052498
0.052724
0.052462
0.052824
0.032367
0.032494
0.032267
0.032575
0.032879
-0.057683
-0.057945
-0.057810
0.074401
0.074188
0.074542
-0.058060
-0.040304
-0.040474
-0.040638
-0.040147
-0.032474
-0.032324
-0.032856
-0.032488
-0.018169
-0.018559
-0.018278
0.009527
0.009747
0.009468
0.009666
-0.018620
0.029055
0.029221
0.028921
-0.030833
-0.031138
-0.030851
-0.033709
-0.034119
-0.034439
0.029216
0.057854
0.057911
0.057634
-0.051477
-0.051392
-0.051284
0.061973
0.062213
0.062229
0.062015
0.036477
0.036137
0.036274
0.035777
0.001133
-0.000637
0.001180
0.000731
0.027414
0.028144
0.026217
0.029251
-0.048644
-0.048501
-0.048927
-0.048218
0.084195
0.084028
-0.070122
-0.069531
-0.069194
-0.068541
-0.045458
-0.044271
-0.041549
-0.048919
0.086990
0.087055
0.087357
-0.052438
-0.048266
-0.052712
-0.053009
-0.051906
0.060047
0.060003
0.059696
0.023521
0.023399
0.023685
0.023593
0.001712
0.001184
0.001563
-0.067871
-0.067843
-0.068221
-0.067908
0.087109
0.086609
0.087260
0.086451
0.074544
0.074767
0.075003
0.059613
0.035904
0.035653
0.035394
0.035197
-0.007991
-0.007845
-0.007674
-0.008104
-0.014395
-0.015227
-0.017525
0.076101
0.076034
0.075383
0.075648
-0.019275
-0.018790
-0.021125
-0.020130
0.035268
0.035295
0.035064
0.020480
0.021183
0.027081
0.014896
-0.060050
-0.060362
-0.059384
-0.061447
0.080335
0.080522
0.018273
0.018248
0.018379
0.035493
0.002280
0.003210
0.003843
0.004352
-0.032739
-0.033064
-0.032923
-0.032897
-0.031744
-0.036618
-0.035060
-0.031908
-0.007347
-0.006970
-0.007621
-0.007536
-0.039408
-0.038175
-0.037258
-0.036287
0.079169
0.079609
0.079891
0.079149
-0.036221
-0.036165
-0.036052
-0.075038
-0.078229
-0.075152
-0.075468
-0.063762
-0.063942
-0.063974
-0.011760
-0.011806
-0.024659
-0.024695
-0.026249
-0.023251
0.033040
0.031063
0.031335
0.029143
0.004624
0.012697
0.011634
0.010339
0.043274
0.043438
0.042209
0.042211
0.070578
0.068939
0.069487
0.070458
-0.030284
-0.030166
-0.031152
-0.031335
-0.025674
-0.025566
-0.025414
-0.025907
0.048296
0.049055
0.048480
0.048954
0.047595
0.047513
0.048434
-0.005987
-0.005757
-0.005704
-0.005975
0.083439
0.082509
0.083364
0.062813
-0.015874
-0.017629
-0.016741
-0.016633
0.069527
0.069593
0.069182
0.069337
0.013425
0.013672
0.013488
0.013777
0.033050
0.033436
-0.009039
-0.008376
-0.007810
-0.007331
-0.002379
-0.002354
-0.000168
-0.004625
-0.000915
-0.000779
-0.000678
0.077561
0.077295
0.077268
-0.046483
-0.046623
-0.045944
-0.045893
-0.000618
-0.039578
-0.037026
-0.038943
0.070750
0.071079
0.071618
0.071937
0.066160
0.066021
0.065996
0.065773
0.031369
0.030677
0.030498
0.032030
0.027065
0.026833
0.026726
0.027098
0.026925
0.027216
0.034625
0.033601
0.034268
-0.004766
-0.004967
-0.004727
0.019678
0.017039
0.023293
-0.004822
0.045031
0.045551
0.043952
0.038266
0.038559
0.038544
0.038353
0.057274
0.057322
0.056977
-0.039830
-0.035383
0.057568
0.054362
0.054274
0.054129
0.054060
-0.031349
-0.031225
-0.031404
0.069837
0.018808
0.018904
0.018319
0.018225
-0.057021
-0.055202
-0.055868
-0.054360
0.022900
0.022869
0.022667
0.023100
-0.037762
-0.037079
-0.038800
-0.036796
-0.045828
-0.046788
-0.043075
-0.049268
0.048841
0.048732
0.049064
-0.039581
-0.039241
-0.040119
0.025174
0.025115
0.024215
0.023621
0.061067
0.050609
0.050360
0.050602
0.037959
0.039223
0.038161
0.039034
-0.009546
-0.010582
-0.010810
0.050353
0.053423
0.053835
0.053430
0.026886
0.027490
0.027784
0.028391
0.033282
0.031103
-0.018925
-0.019613
-0.018668
-0.020228
-0.052505
-0.055003
-0.055006
-0.051105
-0.039728
-0.040330
0.016452
0.016328
0.017283
0.053650
-0.011609
-0.009496
-0.008671
-0.012160
0.026470
0.029076
0.039713
0.039859
0.039757
-0.039376
-0.038811
-0.038631
0.039998
-0.031692
-0.031637
-0.031488
0.056125
0.055864
0.056017
0.055757
-0.020961
-0.020867
-0.020777
-0.037056
-0.042865
0.010020
0.009964
0.009836
0.059664
0.059616
0.059469
0.059392
0.039893
0.040046
0.040152
0.014494
0.013693
0.013478
0.012321
0.038618
0.038418
0.038503
0.038293
0.033692
0.033791
0.033599
0.053274
0.053451
0.053552
0.038594
0.038341
0.039803
0.053634
-0.048095
-0.048100
-0.047893
0.037334
0.028697
0.028102
0.028976
0.039844
-0.051172
-0.051089
-0.051221
0.020092
0.015746
0.017511
-0.048301
0.050095
0.050105
0.050386
0.071810
0.071910
0.071680
0.071811