# vtk DataFile Version 2.0
Test
ASCII
DATASET POLYDATA
POINTS 20431 float
0.000000 0.000000 0.000000
2.000000 0.000000 0.000000
2.000000 4.000000 0.000000
0.000000 4.000000 0.000000
0.000000 0.500000 0.000000
1.500000 2.000000 0.000000
2.000000 2.500000 0.000000
0.400000 0.000000 0.000000
0.800000 0.000000 0.000000
1.200000 0.000000 0.000000
1.600000 0.000000 0.000000
2.000000 0.362557 0.000000
2.000000 0.672798 0.000000
2.000000 0.938272 0.000000
2.000000 1.165439 0.000000
2.000000 1.359826 0.000000
2.000000 1.526163 0.000000
2.000000 1.668499 0.000000
2.000000 1.790295 0.000000
2.000000 1.894517 0.000000
2.000000 1.983700 0.000000
2.000000 2.060013 0.000000
2.000000 2.125315 0.000000
2.000000 2.181194 0.000000
2.000000 2.229010 0.000000
2.000000 2.269926 0.000000
2.000000 2.304938 0.000000
2.000000 2.334898 0.000000
2.000000 2.360534 0.000000
2.000000 2.382472 0.000000
2.000000 2.401244 0.000000
2.000000 2.417307 0.000000
2.000000 2.431052 0.000000
2.000000 2.442814 0.000000
2.000000 2.452878 0.000000
2.000000 2.461491 0.000000
2.000000 2.468860 0.000000
2.000000 2.475167 0.000000
2.000000 2.480563 0.000000
2.000000 2.485180 0.000000
2.000000 2.489132 0.000000
2.000000 2.492513 0.000000
2.000000 2.495406 0.000000
2.000000 2.497882 0.000000
2.000000 2.502286 0.000000
2.000000 2.505266 0.000000
2.000000 2.509150 0.000000
2.000000 2.514212 0.000000
2.000000 2.520809 0.000000
2.000000 2.529407 0.000000
2.000000 2.540613 0.000000
2.000000 2.555218 0.000000
2.000000 2.574253 0.000000
2.000000 2.599061 0.000000
2.000000 2.631395 0.000000
2.000000 2.673536 0.000000
2.000000 2.728460 0.000000
2.000000 2.800043 0.000000
2.000000 2.893339 0.000000
2.000000 3.014933 0.000000
2.000000 3.173410 0.000000
2.000000 3.379956 0.000000
2.000000 3.649152 0.000000
1.600000 4.000000 0.000000
1.200000 4.000000 0.000000
0.800000 4.000000 0.000000
0.400000 4.000000 0.000000
0.000000 3.624996 0.000000
0.000000 3.289970 0.000000
0.000000 2.990661 0.000000
0.000000 2.723261 0.000000
0.000000 2.484368 0.000000
0.000000 2.270943 0.000000
0.000000 2.080271 0.000000
0.000000 1.909926 0.000000
0.000000 1.757741 0.000000
0.000000 1.621780 0.000000
0.000000 1.500314 0.000000
0.000000 1.391797 0.000000
0.000000 1.294849 0.000000
0.000000 1.208237 0.000000
0.000000 1.130858 0.000000
0.000000 1.061728 0.000000
0.000000 0.999968 0.000000
0.000000 0.944792 0.000000
0.000000 0.895499 0.000000
0.000000 0.851460 0.000000
0.000000 0.812117 0.000000
0.000000 0.776968 0.000000
0.000000 0.745565 0.000000
0.000000 0.717511 0.000000
0.000000 0.692448 0.000000
0.000000 0.670056 0.000000
0.000000 0.650052 0.000000
0.000000 0.632180 0.000000
0.000000 0.616213 0.000000
0.000000 0.601949 0.000000
0.000000 0.589205 0.000000
0.000000 0.577820 0.000000
0.000000 0.567649 0.000000
0.000000 0.558562 0.000000
0.000000 0.550444 0.000000
0.000000 0.543191 0.000000
0.000000 0.536712 0.000000
0.000000 0.530923 0.000000
0.000000 0.525751 0.000000
0.000000 0.521131 0.000000
0.000000 0.517003 0.000000
0.000000 0.513315 0.000000
0.000000 0.510021 0.000000
0.000000 0.507078 0.000000
0.000000 0.504448 0.000000
0.000000 0.502099 0.000000
0.000000 0.497804 0.000000
0.000000 0.494785 0.000000
0.000000 0.490633 0.000000
0.000000 0.484924 0.000000
0.000000 0.477074 0.000000
0.000000 0.466279 0.000000
0.000000 0.451436 0.000000
0.000000 0.431025 0.000000
0.000000 0.402959 0.000000
0.000000 0.364366 0.000000
0.000000 0.311297 0.000000
0.000000 0.238324 0.000000
0.000000 0.137980 0.000000
0.001414 0.501414 0.000000
0.002828 0.502828 0.000000
0.004241 0.504241 0.000000
0.005655 0.505655 0.000000
0.007069 0.507069 0.000000
0.008483 0.508483 0.000000
0.009896 0.509896 0.000000
0.011310 0.511310 0.000000
0.012724 0.512724 0.000000
0.014138 0.514138 0.000000
0.015551 0.515551 0.000000
0.016965 0.516965 0.000000
0.018379 0.518379 0.000000
0.019793 0.519793 0.000000
0.021206 0.521206 0.000000
0.022620 0.522620 0.000000
0.024034 0.524034 0.000000
0.025448 0.525448 0.000000
0.026861 0.526861 0.000000
0.028275 0.528275 0.000000
0.029689 0.529689 0.000000
0.031103 0.531103 0.000000
0.032516 0.532516 0.000000
0.033930 0.533930 0.000000
0.035344 0.535344 0.000000
0.036758 0.536758 0.000000
0.038172 0.538172 0.000000
0.039585 0.539585 0.000000
0.040999 0.540999 0.000000
0.042413 0.542413 0.000000
0.043827 0.543827 0.000000
0.045240 0.545240 0.000000
0.046654 0.546654 0.000000
0.048068 0.548068 0.000000
0.049482 0.549482 0.000000
0.050895 0.550895 0.000000
0.052309 0.552309 0.000000
0.053723 0.553723 0.000000
0.055137 0.555137 0.000000
0.056550 0.556550 0.000000
0.057964 0.557964 0.000000
0.059378 0.559378 0.000000
0.060792 0.560792 0.000000
0.062205 0.562205 0.000000
0.063619 0.563619 0.000000
0.065033 0.565033 0.000000
0.066447 0.566447 0.000000
0.067861 0.567861 0.000000
0.069274 0.569274 0.000000
0.070688 0.570688 0.000000
0.072102 0.572102 0.000000
0.073516 0.573516 0.000000
0.074929 0.574929 0.000000
0.076343 0.576343 0.000000
0.077757 0.577757 0.000000
0.079171 0.579171 0.000000
0.080584 0.580584 0.000000
0.081998 0.581998 0.000000
0.083412 0.583412 0.000000
0.084826 0.584826 0.000000
0.086239 0.586239 0.000000
0.087653 0.587653 0.000000
0.089067 0.589067 0.000000
0.090481 0.590481 0.000000
0.091894 0.591894 0.000000
0.093308 0.593308 0.000000
0.094722 0.594722 0.000000
0.096136 0.596136 0.000000
0.097549 0.597549 0.000000
0.098963 0.598963 0.000000
0.100377 0.600377 0.000000
0.101791 0.601791 0.000000
0.103205 0.603205 0.000000
0.104618 0.604618 0.000000
0.106032 0.606032 0.000000
0.107446 0.607446 0.000000
0.108860 0.608860 0.000000
0.110273 0.610273 0.000000
0.111687 0.611687 0.000000
0.113101 0.613101 0.000000
0.114515 0.614515 0.000000
0.115928 0.615928 0.000000
0.117342 0.617342 0.000000
0.118756 0.618756 0.000000
0.120170 0.620170 0.000000
0.121583 0.621583 0.000000
0.122997 0.622997 0.000000
0.124411 0.624411 0.000000
0.125825 0.625825 0.000000
0.127238 0.627238 0.000000
0.128652 0.628652 0.000000
0.130066 0.630066 0.000000
0.131480 0.631480 0.000000
0.132893 0.632893 0.000000
0.134307 0.634307 0.000000
0.135721 0.635721 0.000000
0.137135 0.637135 0.000000
0.138549 0.638549 0.000000
0.139962 0.639962 0.000000
0.141376 0.641376 0.000000
0.142790 0.642790 0.000000
0.144204 0.644204 0.000000
0.145617 0.645617 0.000000
0.147031 0.647031 0.000000
0.148445 0.648445 0.000000
0.149859 0.649859 0.000000
0.151272 0.651272 0.000000
0.152686 0.652686 0.000000
0.154100 0.654100 0.000000
0.155514 0.655514 0.000000
0.156927 0.656927 0.000000
0.158341 0.658341 0.000000
0.159755 0.659755 0.000000
0.161169 0.661169 0.000000
0.162582 0.662582 0.000000
0.163996 0.663996 0.000000
0.165410 0.665410 0.000000
0.166824 0.666824 0.000000
0.168238 0.668238 0.000000
0.169651 0.669651 0.000000
0.171065 0.671065 0.000000
0.172479 0.672479 0.000000
0.173893 0.673893 0.000000
0.175306 0.675306 0.000000
0.176720 0.676720 0.000000
0.178134 0.678134 0.000000
0.179548 0.679548 0.000000
0.180961 0.680961 0.000000
0.182375 0.682375 0.000000
0.183789 0.683789 0.000000
0.185203 0.685203 0.000000
0.186616 0.686616 0.000000
0.188030 0.688030 0.000000
0.189444 0.689444 0.000000
0.190858 0.690858 0.000000
0.192271 0.692271 0.000000
0.193685 0.693685 0.000000
0.195099 0.695099 0.000000
0.196513 0.696513 0.000000
0.197926 0.697926 0.000000
0.199340 0.699340 0.000000
0.200754 0.700754 0.000000
0.202168 0.702168 0.000000
0.203582 0.703582 0.000000
0.204995 0.704995 0.000000
0.206409 0.706409 0.000000
0.207823 0.707823 0.000000
0.209237 0.709237 0.000000
0.210650 0.710650 0.000000
0.212064 0.712064 0.000000
0.213478 0.713478 0.000000
0.214892 0.714892 0.000000
0.216305 0.716305 0.000000
0.217719 0.717719 0.000000
0.219133 0.719133 0.000000
0.220547 0.720547 0.000000
0.221960 0.721960 0.000000
0.223374 0.723374 0.000000
0.224788 0.724788 0.000000
0.226202 0.726202 0.000000
0.227615 0.727615 0.000000
0.229029 0.729029 0.000000
0.230443 0.730443 0.000000
0.231857 0.731857 0.000000
0.233270 0.733270 0.000000
0.234684 0.734684 0.000000
0.236098 0.736098 0.000000
0.237512 0.737512 0.000000
0.238926 0.738926 0.000000
0.240339 0.740339 0.000000
0.241753 0.741753 0.000000
0.243167 0.743167 0.000000
0.244581 0.744581 0.000000
0.245994 0.745994 0.000000
0.247408 0.747408 0.000000
0.248822 0.748822 0.000000
0.250236 0.750236 0.000000
0.251649 0.751649 0.000000
0.253063 0.753063 0.000000
0.254477 0.754477 0.000000
0.255891 0.755891 0.000000
0.257304 0.757304 0.000000
0.258718 0.758718 0.000000
0.260132 0.760132 0.000000
0.261546 0.761546 0.000000
0.262959 0.762959 0.000000
0.264373 0.764373 0.000000
0.265787 0.765787 0.000000
0.267201 0.767201 0.000000
0.268615 0.768615 0.000000
0.270028 0.770028 0.000000
0.271442 0.771442 0.000000
0.272856 0.772856 0.000000
0.274270 0.774270 0.000000
0.275683 0.775683 0.000000
0.277097 0.777097 0.000000
0.278511 0.778511 0.000000
0.279925 0.779925 0.000000
0.281338 0.781338 0.000000
0.282752 0.782752 0.000000
0.284166 0.784166 0.000000
0.285580 0.785580 0.000000
0.286993 0.786993 0.000000
0.288407 0.788407 0.000000
0.289821 0.789821 0.000000
0.291235 0.791235 0.000000
0.292648 0.792648 0.000000
0.294062 0.794062 0.000000
0.295476 0.795476 0.000000
0.296890 0.796890 0.000000
0.298303 0.798303 0.000000
0.299717 0.799717 0.000000
0.301131 0.801131 0.000000
0.302545 0.802545 0.000000
0.303959 0.803959 0.000000
0.305372 0.805372 0.000000
0.306786 0.806786 0.000000
0.308200 0.808200 0.000000
0.309614 0.809614 0.000000
0.311027 0.811027 0.000000
0.312441 0.812441 0.000000
0.313855 0.813855 0.000000
0.315269 0.815269 0.000000
0.316682 0.816682 0.000000
0.318096 0.818096 0.000000
0.319510 0.819510 0.000000
0.320924 0.820924 0.000000
0.322337 0.822337 0.000000
0.323751 0.823751 0.000000
0.325165 0.825165 0.000000
0.326579 0.826579 0.000000
0.327992 0.827992 0.000000
0.329406 0.829406 0.000000
0.330820 0.830820 0.000000
0.332234 0.832234 0.000000
0.333648 0.833648 0.000000
0.335061 0.835061 0.000000
0.336475 0.836475 0.000000
0.337889 0.837889 0.000000
0.339303 0.839303 0.000000
0.340716 0.840716 0.000000
[...]
POINT_DATA 20431
SCALARS UX float 1
LOOKUP_TABLE default
-0.000000
0.000000
0.072877
-0.076015
-0.059447
0.036700
0.073375
-0.000000
-0.000000
0.000000
-0.000000
0.049702
0.065076
0.071060
0.073242
0.074028
0.074251
0.074225
0.074136
0.074031
0.073927
0.073838
0.073761
0.073697
0.073643
0.073598
0.073561
0.073530
0.073504
0.073483
0.073464
0.073449
0.073436
0.073426
0.073416
0.073409
0.073402
0.073396
0.073392
0.073388
0.073384
0.073381
0.073379
0.073377
0.073373
0.073370
0.073367
0.073363
0.073357
0.073350
0.073341
0.073329
0.073314
0.073294
0.073270
0.073240
0.073203
0.073160
0.073108
0.073053
0.072996
0.072938
0.072896
0.043073
0.013282
-0.016493
-0.046256
-0.076013
-0.076014
-0.076027
-0.076065
-0.076132
-0.076214
-0.076304
-0.076376
-0.076392
-0.076335
-0.076202
-0.075973
-0.075630
-0.075186
-0.074648
-0.074031
-0.073344
-0.072603
-0.071827
-0.071029
-0.070223
-0.069419
-0.068636
-0.067864
-0.067128
-0.066428
-0.065759
-0.065135
-0.064550
-0.064006
-0.063503
-0.063037
-0.062611
-0.062219
-0.061861
-0.061535
-0.061238
-0.060968
-0.060723
-0.060501
-0.060300
-0.060119
-0.059955
-0.059807
-0.059674
-0.059554
-0.059333
-0.059176
-0.058957
-0.058654
-0.058226
-0.057628
-0.056756
-0.055506
-0.053661
-0.050784
-0.046336
-0.039303
-0.026868
-0.059425
-0.059404
-0.059382
-0.059360
-0.059337
-0.059313
-0.059290
-0.059266
-0.059241
-0.059216
-0.059191
-0.059165
-0.059139
-0.059112
-0.059085
-0.059058
-0.059030
-0.059002
-0.058973
-0.058944
-0.058915
-0.058886
-0.058856
-0.058826
-0.058795
-0.058764
-0.058733
-0.058701
-0.058669
-0.058637
-0.058604
-0.058571
-0.058538
-0.058504
-0.058471
-0.058436
-0.058402
-0.058367
-0.058332
-0.058297
-0.058261
-0.058225
-0.058189
-0.058153
-0.058116
-0.058079
-0.058042
-0.058004
-0.057966
-0.057928
-0.057889
-0.057851
-0.057812
-0.057772
-0.057733
-0.057693
-0.057653
-0.057613
-0.057573
-0.057532
-0.057491
-0.057450
-0.057409
-0.057367
-0.057326
-0.057284
-0.057241
-0.057199
-0.057156
-0.057113
-0.057070
-0.057027
-0.056983
-0.056939
-0.056895
-0.056851
-0.056806
-0.056762
-0.056717
-0.056671
-0.056626
-0.056580
-0.056534
-0.056488
-0.056441
-0.056395
-0.056348
-0.056301
-0.056254
-0.056206
-0.056159
-0.056111
-0.056063
-0.056014
-0.055966
-0.055917
-0.055868
-0.055819
-0.055769
-0.055720
-0.055670
-0.055620
-0.055570
-0.055519
-0.055469
-0.055418
-0.055366
-0.055315
-0.055263
-0.055212
-0.055160
-0.055107
-0.055055
-0.055002
-0.054950
-0.054896
-0.054843
-0.054789
-0.054736
-0.054682
-0.054627
-0.054573
-0.054518
-0.054464
-0.054409
-0.054353
-0.054298
-0.054242
-0.054186
-0.054130
-0.054074
-0.054018
-0.053961
-0.053904
-0.053847
-0.053790
-0.053732
-0.053674
-0.053616
-0.053558
-0.053500
-0.053441
-0.053383
-0.053324
-0.053265
-0.053205
-0.053146
-0.053086
-0.053026
-0.052966
-0.052906
-0.052845
-0.052784
-0.052723
-0.052662
-0.052601
-0.052539
-0.052477
-0.052415
-0.052353
-0.052291
-0.052228
-0.052166
-0.052103
-0.052040
-0.051976
-0.051913
-0.051849
-0.051785
-0.051721
-0.051657
-0.051593
-0.051528
-0.051463
-0.051398
-0.051333
-0.051268
-0.051202
-0.051137
-0.051071
-0.051005
-0.050938
-0.050872
-0.050806
-0.050739
-0.050672
-0.050605
-0.050538
-0.050470
-0.050403
-0.050335
-0.050267
-0.050199
-0.050131
-0.050062
-0.049994
-0.049925
-0.049856
-0.049787
-0.049718
-0.049648
-0.049579
-0.049509
-0.049439
-0.049369
-0.049299
-0.049228
-0.049158
-0.049087
-0.049016
-0.048945
-0.048874
-0.048802
-0.048731
-0.048659
-0.048587
-0.048515
-0.048443
-0.048370
-0.048298
-0.048225
-0.048152
-0.048079
-0.048006
-0.047933
-0.047860
-0.047786
-0.047712
-0.047638
-0.047564
-0.047490
-0.047416
-0.047341
-0.047267
-0.047192
-0.047117
-0.047042
-0.046966
-0.046891
-0.046816
-0.046740
-0.046664
-0.046588
-0.046512
-0.046436
-0.046359
-0.046283
-0.046206
-0.046129
-0.046052
-0.045975
-0.045898
-0.045820
-0.045743
-0.045665
-0.045587
-0.045509
-0.045431
-0.045353
-0.045274
-0.045196
-0.045117
-0.045038
-0.044959
-0.044880
-0.044801
-0.044722
-0.044642
-0.044563
-0.044483
-0.044403
-0.044323
-0.044243
-0.044162
-0.044082
-0.044001
-0.043920
-0.043840
-0.043759
-0.043677
-0.043596
-0.043515
-0.043433
-0.043352
-0.043270
-0.043188
-0.043106
-0.043024
-0.042941
-0.042859
-0.042776
-0.042694
-0.042611
-0.042528
-0.042445
-0.042361
-0.042278
-0.042195
-0.042111
-0.042027
-0.041943
-0.041860
-0.041775
-0.041691
-0.041607
-0.041522
-0.041438
-0.041353
-0.041268
-0.041183
-0.041098
-0.041013
-0.040928
-0.040842
-0.040757
-0.040671
-0.040586
-0.040500
-0.040414
-0.040328
-0.040241
-0.040155
-0.040069
-0.039982
-0.039895
-0.039809
-0.039722
-0.039635
-0.039547
-0.039460
-0.039373
-0.039285
-0.039198
-0.039110
-0.039022
-0.038934
-0.038846
-0.038758
-0.038670
-0.038582
-0.038493
-0.038404
-0.038316
-0.038227
-0.038138
-0.038049
-0.037960
-0.037871
-0.037781
-0.037692
-0.037602
-0.037513
-0.037423
-0.037333
-0.037243
-0.037153
-0.037063
-0.036972
-0.036882
-0.036791
-0.036701
-0.036610
-0.036519
-0.036428
-0.036337
-0.036246
-0.036155
-0.036064
-0.035972
-0.035881
-0.035789
-0.035697
-0.035605
-0.035513
-0.035421
-0.035329
-0.035237
-0.035145
-0.035052
-0.034960
-0.034867
-0.034774
-0.034681
-0.034588
-0.034495
-0.034402
-0.034309
-0.034216
-0.034122
-0.034029
-0.033935
-0.033841
-0.033748
-0.033654
-0.033560
-0.033466
-0.033371
-0.033277
-0.033183
-0.033088
-0.032994
-0.032899
-0.032804
-0.032709
-0.032614
-0.032519
-0.032424
-0.032329
-0.032234
-0.032138
-0.032043
-0.031947
-0.031852
-0.031756
-0.031660
-0.031564
-0.031468
-0.031372
-0.031276
-0.031179
-0.031083
-0.030987
-0.030890
-0.030793
-0.030697
-0.030600
-0.030503
-0.030406
-0.030309
-0.030212
-0.030114
-0.030017
-0.029920
-0.029822
-0.029725
-0.029627
-0.029529
-0.029431
-0.029333
-0.029235
-0.029137
-0.029039
-0.028941
-0.028843
-0.028744
-0.028646
-0.028547
-0.028449
-0.028350
-0.028251
-0.028152
-0.028053
-0.027954
-0.027855
-0.027756
-0.027657
-0.027557
-0.027458
-0.027359
-0.027259
-0.027159
-0.027060
-0.026960
-0.026860
-0.026760
-0.026660
-0.026560
-0.026460
-0.026360
-0.026259
-0.026159
-0.026059
-0.025958
-0.025858
-0.025757
-0.025656
-0.025555
-0.025455
-0.025354
-0.025253
-0.025152
-0.025051
-0.024949
-0.024848
-0.024747
-0.024645
-0.024544
-0.024442
-0.024341
-0.024239
-0.024137
-0.024036
-0.023934
-0.023832
-0.023730
-0.023628
-0.023526
-0.023424
-0.023321
-0.023219
-0.023117
-0.023014
-0.022912
-0.022809
-0.022707
-0.022604
-0.022501
-0.022398
-0.022296
-0.022193
-0.022090
-0.021987
-0.021884
-0.021780
-0.021677
-0.021574
-0.021471
-0.021367
-0.021264
-0.021160
-0.021057
-0.020953
-0.020849
-0.020746
-0.020642
-0.020538
-0.020434
-0.020330
-0.020226
-0.020122
-0.020018
-0.019914
-0.019810
-0.019706
-0.019601
-0.019497
-0.019393
-0.019288
-0.019184
-0.019079
-0.018975
-0.018870
-0.018765
-0.018661
-0.018556
-0.018451
-0.018346
-0.018241
-0.018136
-0.018031
-0.017926
-0.017821
-0.017716
-0.017611
-0.017505
-0.017400
-0.017295
-0.017189
-0.017084
-0.016978
-0.016873
-0.016767
-0.016662
-0.016556
-0.016450
-0.016345
-0.016239
-0.016133
-0.016027
-0.015921
-0.015815
-0.015709
-0.015603
-0.015497
-0.015391
-0.015285
-0.015179
-0.015073
-0.014967
-0.014860
-0.014754
-0.014648
-0.014541
-0.014435
-0.014328
-0.014222
-0.014115
-0.014009
-0.013902
-0.013796
-0.013689
-0.013582
-0.013476
-0.013369
-0.013262
-0.013155
-0.013048
-0.012942
-0.012835
-0.012728
-0.012621
-0.012514
-0.012407
-0.012300
-0.012193
-0.012085
-0.011978
-0.011871
-0.011764
-0.011657
-0.011549
-0.011442
-0.011335
-0.011227
-0.011120
-0.011013
-0.010905
-0.010798
-0.010690
-0.010583
-0.010475
-0.010368
-0.010260
-0.010153
-0.010045
-0.009937
-0.009830
-0.009722
-0.009614
-0.009507
-0.009399
-0.009291
-0.009183
-0.009076
-0.008968
-0.008860
-0.008752
-0.008644
-0.008536
-0.008428
-0.008320
-0.008212
-0.008104
-0.007996
-0.007888
-0.007780
-0.007672
-0.007564
-0.007456
-0.007348
-0.007240
-0.007132
-0.007023
-0.006915
-0.006807
-0.006699
-0.006591
-0.006482
-0.006374
-0.006266
-0.006157
-0.006049
-0.005941
-0.005833
-0.005724
-0.005616
-0.005507
-0.005399
-0.005291
-0.005182
-0.005074
-0.004965
-0.004857
-0.004749
-0.004640
-0.004532
-0.004423
-0.004315
-0.004206
-0.004098
-0.003989
-0.003881
-0.003772
-0.003664
-0.003555
-0.003446
-0.003338
-0.003229
-0.003121
-0.003012
-0.002903
-0.002795
-0.002686
-0.002578
-0.002469
-0.002360
-0.002252
-0.002143
-0.002034
-0.001926
-0.001817
-0.001708
-0.001600
-0.001491
-0.001382
-0.001274
-0.001165
-0.001056
-0.000948
-0.000839
-0.000730
-0.000622
-0.000513
-0.000404
-0.000295
-0.000187
-0.000078
0.000031
0.000139
0.000248
0.000357
0.000466
0.000574
0.000683
0.000792
0.000901
0.001009
0.001118
0.001227
0.001335
0.001444
0.001553
0.001662
0.001770
0.001879
0.001988
0.002096
0.002205
0.002314
0.002423
0.002531
0.002640
0.002749
0.002857
0.002966
0.003075
0.003183
0.003292
0.003401
0.003509
0.003618
0.003727
0.003835
0.003944
0.004053
0.004161
0.004270
0.004379
0.004487
0.004596
0.004705
0.004813
0.004922
0.005030
0.005139
0.005248
0.005356
0.005465
0.005573
0.005682
0.005790
0.005899
0.006008
0.006116
0.006225
0.006333
0.006442
0.006550
0.006659
0.006767
0.006876
0.006984
0.007092
0.007201
0.007309
0.007418
0.007526
0.007635
0.007743
0.007851
0.007960
0.008068
0.008177
0.008285
0.008393
0.008502
0.008610
0.008718
0.008827
0.008935
0.009043
0.009151
0.009260
0.009368
0.009476
0.009584
0.009693
0.009801
0.009909
0.010017
0.010125
0.010234
0.010342
0.010450
0.010558
0.010666
0.010774
0.010882
0.010990
0.011098
0.011207
0.011315
0.011423
0.011531
0.011639
0.011747
0.011855
0.011963
0.012071
0.012178
0.012286
0.012394
0.012502
0.012610
0.012718
0.012826
0.012934
0.013042
0.013149
0.013257
0.013365
0.013473
0.013580
0.013688
0.013796
0.013904
0.014011
0.014119
0.014227
0.014334
0.014442
0.014550
0.014657
0.014765
0.014873
0.014980
0.015088
0.015195
0.015303
0.015410
0.015518
0.015625
0.015733
0.015840
0.015948
0.016055
0.016163
0.016270
0.016377
0.016485
0.016592
0.016699
0.016807
0.016914
0.017021
0.017129
0.017236
0.017343
0.017450
0.017557
0.017665
0.017772
0.017879
0.017986
0.018093
0.018200
0.018307
0.018415
0.018522
0.018629
0.018736
0.018843
0.018950
0.019057
0.019164
0.019271
0.019378
0.019484
0.019591
0.019698
0.019805
0.019912
0.020019
0.020126
0.020232
0.020339
0.020446
0.020553
0.020660
0.020766
0.020873
0.020980
0.021086
0.021193
0.021300
0.021406
0.021513
0.021619
0.021726
0.021833
0.021939
0.022046
0.022152
0.022259
0.022365
0.022472
0.022578
0.022684
0.022791
0.022897
0.023004
0.023110
0.023216
0.023323
0.023429
0.023535
0.023641
0.023748
0.023854
0.023960
0.024066
0.024173
0.024279
0.024385
0.024491
0.024597
0.024703
0.024809
0.024915
0.025022
0.025128
0.025234
0.025340
0.025446
0.025552
0.025658
0.025764
0.025869
0.025975
0.026081
0.026187
0.026293
0.026399
0.026505
0.026611
0.026716
0.026822
0.026928
0.027034
0.027139
0.027245
0.027351
0.027457
0.027562
0.027668
0.027773
0.027879
0.027985
0.028090
0.028196
0.028301
0.028407
0.028513
0.028618
0.028724
0.028829
0.028935
0.029040
0.029145
0.029251
0.029356
0.029462
0.029567
0.029672
0.029778
0.029883
0.029988
0.030094
0.030199
0.030304
0.030410
0.030515
0.030620
0.030725
0.030830
0.030936
0.031041
0.031146
0.031251
0.031356
0.031461
0.031566
0.031672
0.031777
0.031882
0.031987
0.032092
0.032197
0.032302
0.032407
0.032512
0.032617
0.032722
0.032827
0.032932
0.033036
0.033141
0.033246
0.033351
0.033456
0.033561
0.033666
0.033770
0.033875
0.033980
0.034085
0.034190
0.034294
0.034399
0.034504
0.034608
0.034713
0.034818
0.034923
0.035027
0.035132
0.035236
0.035341
0.035446
0.035550
0.035655
0.035759
0.035864
0.035969
0.036073
0.036178
0.036282
0.036387
0.036491
0.036596
0.036805
0.036909
0.037013
0.037118
0.037222
0.037326
0.037430
0.037535
0.037639
0.037743
0.037848
0.037952
0.038056
0.038160
0.038264
0.038369
0.038473
0.038577
0.038681
0.038785
0.038889
0.038994
0.039098
0.039202
0.039306
0.039410
0.039514
0.039618
0.039722
0.039826
0.039930
0.040034
0.040138
0.040242
0.040346
0.040450
0.040554
0.040658
0.040762
0.040866
0.040970
0.041074
0.041178
0.041282
0.041386
0.041490
0.041594
0.041698
0.041802
0.041905
0.042009
0.042113
0.042217
0.042321
0.042425
0.042529
0.042632
0.042736
0.042840
0.042944
0.043048
0.043151
0.043255
0.043359
0.043463
0.043566
0.043670
0.043774
0.043878
0.043981
0.044085
0.044189
0.044292
0.044396
0.044500
0.044603
0.044707
0.044811
0.044914
0.045018
0.045122
0.045225
0.045329
0.045433
0.045536
0.045640
0.045743
0.045847
0.045951
0.046054
0.046158
0.046261
0.046365
0.046469
0.046572
0.046676
0.046779
0.046883
0.046986
0.047090
0.047193
0.047297
0.047400
0.047504
0.047607
0.047711
0.047814
0.047918
0.048021
0.048125
0.048228
0.048332
0.048435
0.048539
0.048642
0.048746
0.048849
0.048953
0.049056
0.049160
0.049263
0.049366
0.049470
0.049573
0.049677
0.049780
0.049884
0.049987
0.050090
0.050194
0.050297
0.050401
0.050504
0.050607
0.050711
0.050814
0.050918
0.051021
0.051124
0.051228
0.051331
0.051435
0.051538
0.051641
0.051745
0.051848
0.051951
0.052055
0.052158
0.052262
0.052365
0.052468
0.052572
0.052675
0.052778
0.052882
0.052985
0.053088
0.053192
0.053295
0.053398
0.053502
0.053605
0.053708
0.053812
0.053915
0.054018
0.054122
0.054225
0.054328
0.054432
0.054535
0.054638
0.054742
0.054845
0.054948
0.055052
0.055155
0.055258
0.055362
0.055465
0.055568
0.055672
0.055775
0.055878
0.055982
0.056085
0.056188
0.056292
0.056395
0.056498
0.056602
0.056705
0.056808
0.056912
0.057015
0.057118
0.057222
0.057325
0.057428
0.057532
0.057635
0.057738
0.057842
0.057945
0.058048
0.058152
0.058255
0.058358
0.058462
0.058565
0.058668
0.058772
0.058875
0.058978
0.059082
0.059185
0.059288
0.059392
0.059495
0.059599
0.059702
0.059805
0.059909
0.060012
0.060115
0.060219
0.060322
0.060425
0.060529
0.060632
0.060736
0.060839
0.060942
0.061046
0.061149
0.061253
0.061356
0.061459
0.061563
0.061666
0.061770
0.061873
0.061976
0.062080
0.062183
0.062287
0.062390
0.062493
0.062597
0.062700
0.062804
0.062907
0.063011
0.063114
0.063218
0.063321
0.063424
0.063528
0.063631
0.063735
0.063838
0.063942
0.064045
0.064149
0.064252
0.064356
0.064459
0.064563
0.064666
0.064770
0.064873
0.064977
0.065080
0.065184
0.065287
0.065391
0.065494
0.065598
0.065701
0.065805
0.065908
0.066012
0.066115
0.066219
0.066323
0.066426
0.066530
0.066633
0.066737
0.066840
0.066944
0.067048
0.067151
0.067255
0.067358
0.067462
0.067566
0.067669
0.067773
0.067876
0.067980
0.068084
0.068187
0.068291
0.068395
0.068498
0.068602
0.068705
0.068809
0.068913
0.069016
0.069120
0.069224
0.069327
0.069431
0.069535
0.069639
0.069742
0.069846
0.069950
0.070053
0.070157
0.070261
0.070365
0.070468
0.070572
0.070676
0.070780
0.070883
0.070987
0.071091
0.071195
0.071298
0.071402
0.071506
0.071610
0.071713
0.071817
0.071921
0.072025
0.072129
0.072232
0.072336
0.072440
0.072544
0.072648
0.072752
0.072855
0.072959
0.073063
0.073167
0.073271
0.052215
0.052266
0.052106
0.046691
0.046768
0.046841
-0.037741
-0.037686
-0.037846
-0.037913
-0.019870
0.059326
0.059513
0.059552
0.059665
0.050114
0.049947
0.050000
-0.020264
-0.020155
-0.020286
-0.020096
-0.054812
-0.054890
-0.054698
-0.054723
-0.020943
-0.020863
-0.020785
0.020478
0.020314
0.020407
0.020462
-0.034310
-0.035208
-0.041475
-0.042731
0.014472
0.014309
0.014373
0.014358
-0.015969
-0.016312
-0.016019
-0.016034
0.038023
0.037710
0.037390
0.038426
-0.055060
-0.054996
-0.054806
0.017800
0.017780
0.017972
0.018060
0.000890
-0.003379
-0.002357
-0.005896
0.008767
0.009000
0.009092
-0.029283
-0.027905
-0.029342
-0.004834
-0.004728
-0.004988
-0.004873
0.046182
0.046735
0.046679
0.047249
-0.001207
-0.000832
-0.000987
-0.000451
0.015526
0.015691
0.015397
0.015769
0.014468
0.014585
0.014379
0.014682
-0.007871
-0.007898
-0.008042
-0.008126
0.051824
0.051753
0.051560
-0.021777
-0.022082
-0.021871
0.008781
0.051489
0.051298
0.051292
0.051579
0.023723
0.023910
0.023824
-0.000362
-0.000322
-0.000479
0.023897
0.014311
0.013785
0.013597
-0.000196
0.027403
0.027286
0.027038
0.043068
0.043252
0.043038
0.043335
0.026552
0.026657
0.026471
0.026723
0.026973
-0.047321
-0.047535
-0.047425
0.061036
0.060861
0.061151
-0.047630
-0.033064
-0.033203
-0.033338
-0.032935
-0.026640
-0.026517
-0.026954
-0.026652
-0.014905
-0.015225
-0.014994
0.007815
0.007996
0.007767
0.007929
-0.015275
0.023836
0.023972
0.023725
-0.025294
-0.025544
-0.025309
-0.027653
-0.027990
-0.028252
0.023968
0.047461
0.047508
0.047281
-0.042230
-0.042160
-0.042072
0.050840
0.051037
0.051050
0.050875
0.029924
0.029645
0.029758
0.029350
0.000930
-0.000523
0.000968
0.000600
0.022489
0.023088
0.021508
0.023996
-0.039905
-0.039788
-0.040137
-0.039556
0.069070
0.068933
-0.057525
-0.057041
-0.056764
-0.056228
-0.037292
-0.036318
-0.034085
-0.040131
0.071363
0.071417
0.071664
-0.043018
-0.039596
-0.043243
-0.043486
-0.042582
0.049260
0.049224
0.048972
0.019296
0.019196
0.019430
0.019355
0.001404
0.000971
0.001282
-0.055678
-0.055655
-0.055966
-0.055709
0.071460
0.071050
0.071584
0.070921
0.061152
0.061335
0.061529
0.048904
0.029454
0.029248
0.029036
0.028874
-0.006555
-0.006435
-0.006295
-0.006648
-0.011809
-0.012492
-0.014377
0.062430
0.062375
0.061841
0.062059
-0.015813
-0.015414
-0.017330
-0.016514
0.028933
0.028954
0.028765
0.016801
0.017377
0.022216
0.012220
-0.049262
-0.049518
-0.048717
-0.050409
0.065903
0.066057
0.014990
0.014970
0.015077
0.029117
0.001871
0.002633
0.003153
0.003570
-0.026858
-0.027125
-0.027009
-0.026988
-0.026041
-0.030040
-0.028762
-0.026176
-0.006028
-0.005718
-0.006252
-0.006182
-0.032328
-0.031317
-0.030565
-0.029768
0.064947
0.065308
0.065540
0.064930
-0.029714
-0.029669
-0.029575
-0.061558
-0.064176
-0.061652
-0.061911
-0.052308
-0.052455
-0.052481
-0.009648
-0.009685
-0.020230
-0.020258
-0.021534
-0.019074
0.027105
0.025483
0.025706
0.023908
0.003794
0.010416
0.009544
0.008482
0.035500
0.035635
0.034627
0.034628
0.057900
0.056555
0.057004
0.057801
-0.024844
-0.024747
-0.025556
-0.025706
-0.021062
-0.020973
-0.020849
-0.021253
0.039620
0.040243
0.039771
0.040160
0.039045
0.038978
0.039733
-0.004911
-0.004722
-0.004679
-0.004901
0.068450
0.067687
0.068389
0.051529
-0.013022
-0.014462
-0.013734
-0.013645
0.057037
0.057091
0.056754
0.056881
0.011013
0.011216
0.011065
0.011302
0.027113
0.027429
-0.007415
-0.006871
-0.006407
-0.006014
-0.001952
-0.001931
-0.000138
-0.003794
-0.000751
-0.000639
-0.000556
0.063628
0.063410
0.063388
-0.038133
-0.038248
-0.037691
-0.037649
-0.000507
-0.032468
-0.030375
-0.031947
0.058040
0.058311
0.058753
0.059014
0.054275
0.054161
0.054140
0.053958
0.025734
0.025166
0.025019
0.026276
0.022203
0.022012
0.021925
0.022230
0.022088
0.022327
0.028405
0.027565
0.028112
-0.003909
-0.004075
-0.003877
0.016143
0.013978
0.019109
-0.003956
0.036941
0.037368
0.036056
0.031392
0.031632
0.031620
0.031463
0.046985
0.047025
0.046742
-0.032675
-0.029027
0.047227
0.044597
0.044525
0.044405
0.044348
-0.025718
-0.025615
-0.025762
0.057291
0.015429
0.015508
0.015028
0.014951
-0.046778
-0.045286
-0.045832
-0.044595
0.018786
0.018760
0.018595
0.018950
-0.030979
-0.030418
-0.031830
-0.030186
-0.037596
-0.038383
-0.035337
-0.040418
0.040068
0.039978
0.040250
-0.032471
-0.032192
-0.032912
0.020652
0.020603
0.019865
0.019378
0.050096
0.041517
0.041313
0.041512
0.031140
0.032177
0.031306
0.032022
-0.007831
-0.008681
-0.008868
0.041308
0.043826
0.044164
0.043832
0.022056
0.022551
0.022793
0.023291
0.027303
0.025516
-0.015525
-0.016090
-0.015314
-0.016594
-0.043073
-0.045122
-0.045125
-0.041924
-0.032591
-0.033085
0.013497
0.013395
0.014178
0.044012
-0.009523
-0.007790
-0.007114
-0.009976
0.021715
0.023853
0.032579
0.032699
0.032615
-0.032302
-0.031839
-0.031691
0.032813
-0.025999
-0.025953
-0.025831
0.046042
0.045829
0.045954
0.045741
-0.017196
-0.017118
-0.017045
-0.030400
-0.035165
0.008220
0.008174
0.008069
0.048946
0.048906
0.048786
0.048722
0.032727
0.032853
0.032939
0.011890
0.011233
0.011057
0.010108
0.031681
0.031517
0.031587
0.031414
0.027639
0.027720
0.027563
0.043704
0.043849
0.043932
0.031661
0.031453
0.032653
0.043999
-0.039455
-0.039459
-0.039290
0.030627
0.023542
0.023054
0.023771
0.032686
-0.041979
-0.041911
-0.042020
0.016482
0.012918
0.014366
-0.039624
0.041096
0.041104
0.041334
0.058910
0.058992
0.058803
0.058911