# vtk DataFile Version 2.0
Test
ASCII
DATASET POLYDATA
POINTS 20431 float
0.000000 0.000000 0.000000
2.000000 0.000000 0.000000
2.000000 4.000000 0.000000
0.000000 4.000000 0.000000
0.000000 0.500000 0.000000
1.500000 2.000000 0.000000
2.000000 2.500000 0.000000
0.400000 0.000000 0.000000
0.800000 0.000000 0.000000
1.200000 0.000000 0.000000
1.600000 0.000000 0.000000
2.000000 0.362557 0.000000
2.000000 0.672798 0.000000
2.000000 0.938272 0.000000
2.000000 1.165439 0.000000
2.000000 1.359826 0.000000
2.000000 1.526163 0.000000
2.000000 1.668499 0.000000
2.000000 1.790295 0.000000
2.000000 1.894517 0.000000
2.000000 1.983700 0.000000
2.000000 2.060013 0.000000
2.000000 2.125315 0.000000
2.000000 2.181194 0.000000
2.000000 2.229010 0.000000
2.000000 2.269926 0.000000
2.000000 2.304938 0.000000
2.000000 2.334898 0.000000
2.000000 2.360534 0.000000
2.000000 2.382472 0.000000
2.000000 2.401244 0.000000
2.000000 2.417307 0.000000
2.000000 2.431052 0.000000
2.000000 2.442814 0.000000
2.000000 2.452878 0.000000
2.000000 2.461491 0.000000
2.000000 2.468860 0.000000
2.000000 2.475167 0.000000
2.000000 2.480563 0.000000
2.000000 2.485180 0.000000
2.000000 2.489132 0.000000
2.000000 2.492513 0.000000
2.000000 2.495406 0.000000
2.000000 2.497882 0.000000
2.000000 2.502286 0.000000
2.000000 2.505266 0.000000
2.000000 2.509150 0.000000
2.000000 2.514212 0.000000
2.000000 2.520809 0.000000
2.000000 2.529407 0.000000
2.000000 2.540613 0.000000
2.000000 2.555218 0.000000
2.000000 2.574253 0.000000
2.000000 2.599061 0.000000
2.000000 2.631395 0.000000
2.000000 2.673536 0.000000
2.000000 2.728460 0.000000
2.000000 2.800043 0.000000
2.000000 2.893339 0.000000
2.000000 3.014933 0.000000
2.000000 3.173410 0.000000
2.000000 3.379956 0.000000
2.000000 3.649152 0.000000
1.600000 4.000000 0.000000
1.200000 4.000000 0.000000
0.800000 4.000000 0.000000
0.400000 4.000000 0.000000
0.000000 3.624996 0.000000
0.000000 3.289970 0.000000
0.000000 2.990661 0.000000
0.000000 2.723261 0.000000
0.000000 2.484368 0.000000
0.000000 2.270943 0.000000
0.000000 2.080271 0.000000
0.000000 1.909926 0.000000
0.000000 1.757741 0.000000
0.000000 1.621780 0.000000
0.000000 1.500314 0.000000
0.000000 1.391797 0.000000
0.000000 1.294849 0.000000
0.000000 1.208237 0.000000
0.000000 1.130858 0.000000
0.000000 1.061728 0.000000
0.000000 0.999968 0.000000
0.000000 0.944792 0.000000
0.000000 0.895499 0.000000
0.000000 0.851460 0.000000
0.000000 0.812117 0.000000
0.000000 0.776968 0.000000
0.000000 0.745565 0.000000
0.000000 0.717511 0.000000
0.000000 0.692448 0.000000
0.000000 0.670056 0.000000
0.000000 0.650052 0.000000
0.000000 0.632180 0.000000
0.000000 0.616213 0.000000
0.000000 0.601949 0.000000
0.000000 0.589205 0.000000
0.000000 0.577820 0.000000
0.000000 0.567649 0.000000
0.000000 0.558562 0.000000
0.000000 0.550444 0.000000
0.000000 0.543191 0.000000
0.000000 0.536712 0.000000
0.000000 0.530923 0.000000
0.000000 0.525751 0.000000
0.000000 0.521131 0.000000
0.000000 0.517003 0.000000
0.000000 0.513315 0.000000
0.000000 0.510021 0.000000
0.000000 0.507078 0.000000
0.000000 0.504448 0.000000
0.000000 0.502099 0.000000
0.000000 0.497804 0.000000
0.000000 0.494785 0.000000
0.000000 0.490633 0.000000
0.000000 0.484924 0.000000
0.000000 0.477074 0.000000
0.000000 0.466279 0.000000
0.000000 0.451436 0.000000
0.000000 0.431025 0.000000
0.000000 0.402959 0.000000
0.000000 0.364366 0.000000
0.000000 0.311297 0.000000
0.000000 0.238324 0.000000
0.000000 0.137980 0.000000
0.001414 0.501414 0.000000
0.002828 0.502828 0.000000
0.004241 0.504241 0.000000
0.005655 0.505655 0.000000
0.007069 0.507069 0.000000
0.008483 0.508483 0.000000
0.009896 0.509896 0.000000
0.011310 0.511310 0.000000
0.012724 0.512724 0.000000
0.014138 0.514138 0.000000
0.015551 0.515551 0.000000
0.016965 0.516965 0.000000
0.018379 0.518379 0.000000
0.019793 0.519793 0.000000
0.021206 0.521206 0.000000
0.022620 0.522620 0.000000
0.024034 0.524034 0.000000
0.025448 0.525448 0.000000
0.026861 0.526861 0.000000
0.028275 0.528275 0.000000
0.029689 0.529689 0.000000
0.031103 0.531103 0.000000
0.032516 0.532516 0.000000
0.033930 0.533930 0.000000
0.035344 0.535344 0.000000
0.036758 0.536758 0.000000
0.038172 0.538172 0.000000
0.039585 0.539585 0.000000
0.040999 0.540999 0.000000
0.042413 0.542413 0.000000
0.043827 0.543827 0.000000
0.045240 0.545240 0.000000
0.046654 0.546654 0.000000
0.048068 0.548068 0.000000
0.049482 0.549482 0.000000
0.050895 0.550895 0.000000
0.052309 0.552309 0.000000
0.053723 0.553723 0.000000
0.055137 0.555137 0.000000
0.056550 0.556550 0.000000
0.057964 0.557964 0.000000
0.059378 0.559378 0.000000
0.060792 0.560792 0.000000
0.062205 0.562205 0.000000
0.063619 0.563619 0.000000
0.065033 0.565033 0.000000
0.066447 0.566447 0.000000
0.067861 0.567861 0.000000
0.069274 0.569274 0.000000
0.070688 0.570688 0.000000
0.072102 0.572102 0.000000
0.073516 0.573516 0.000000
0.074929 0.574929 0.000000
0.076343 0.576343 0.000000
0.077757 0.577757 0.000000
0.079171 0.579171 0.000000
0.080584 0.580584 0.000000
0.081998 0.581998 0.000000
0.083412 0.583412 0.000000
0.084826 0.584826 0.000000
0.086239 0.586239 0.000000
0.087653 0.587653 0.000000
0.089067 0.589067 0.000000
0.090481 0.590481 0.000000
0.091894 0.591894 0.000000
0.093308 0.593308 0.000000
0.094722 0.594722 0.000000
0.096136 0.596136 0.000000
0.097549 0.597549 0.000000
0.098963 0.598963 0.000000
0.100377 0.600377 0.000000
0.101791 0.601791 0.000000
0.103205 0.603205 0.000000
0.104618 0.604618 0.000000
0.106032 0.606032 0.000000
0.107446 0.607446 0.000000
0.108860 0.608860 0.000000
0.110273 0.610273 0.000000
0.111687 0.611687 0.000000
0.113101 0.613101 0.000000
0.114515 0.614515 0.000000
0.115928 0.615928 0.000000
0.117342 0.617342 0.000000
0.118756 0.618756 0.000000
0.120170 0.620170 0.000000
0.121583 0.621583 0.000000
0.122997 0.622997 0.000000
0.124411 0.624411 0.000000
0.125825 0.625825 0.000000
0.127238 0.627238 0.000000
0.128652 0.628652 0.000000
0.130066 0.630066 0.000000
0.131480 0.631480 0.000000
0.132893 0.632893 0.000000
0.134307 0.634307 0.000000
0.135721 0.635721 0.000000
0.137135 0.637135 0.000000
0.138549 0.638549 0.000000
0.139962 0.639962 0.000000
0.141376 0.641376 0.000000
0.142790 0.642790 0.000000
0.144204 0.644204 0.000000
0.145617 0.645617 0.000000
0.147031 0.647031 0.000000
0.148445 0.648445 0.000000
0.149859 0.649859 0.000000
0.151272 0.651272 0.000000
0.152686 0.652686 0.000000
0.154100 0.654100 0.000000
0.155514 0.655514 0.000000
0.156927 0.656927 0.000000
0.158341 0.658341 0.000000
0.159755 0.659755 0.000000
0.161169 0.661169 0.000000
0.162582 0.662582 0.000000
0.163996 0.663996 0.000000
0.165410 0.665410 0.000000
0.166824 0.666824 0.000000
0.168238 0.668238 0.000000
0.169651 0.669651 0.000000
0.171065 0.671065 0.000000
0.172479 0.672479 0.000000
0.173893 0.673893 0.000000
0.175306 0.675306 0.000000
0.176720 0.676720 0.000000
0.178134 0.678134 0.000000
0.179548 0.679548 0.000000
0.180961 0.680961 0.000000
0.182375 0.682375 0.000000
0.183789 0.683789 0.000000
0.185203 0.685203 0.000000
0.186616 0.686616 0.000000
0.188030 0.688030 0.000000
0.189444 0.689444 0.000000
0.190858 0.690858 0.000000
0.192271 0.692271 0.000000
0.193685 0.693685 0.000000
0.195099 0.695099 0.000000
0.196513 0.696513 0.000000
0.197926 0.697926 0.000000
0.199340 0.699340 0.000000
0.200754 0.700754 0.000000
0.202168 0.702168 0.000000
0.203582 0.703582 0.000000
0.204995 0.704995 0.000000
0.206409 0.706409 0.000000
0.207823 0.707823 0.000000
0.209237 0.709237 0.000000
0.210650 0.710650 0.000000
0.212064 0.712064 0.000000
0.213478 0.713478 0.000000
0.214892 0.714892 0.000000
0.216305 0.716305 0.000000
0.217719 0.717719 0.000000
0.219133 0.719133 0.000000
0.220547 0.720547 0.000000
0.221960 0.721960 0.000000
0.223374 0.723374 0.000000
0.224788 0.724788 0.000000
0.226202 0.726202 0.000000
0.227615 0.727615 0.000000
0.229029 0.729029 0.000000
0.230443 0.730443 0.000000
0.231857 0.731857 0.000000
0.233270 0.733270 0.000000
0.234684 0.734684 0.000000
0.236098 0.736098 0.000000
0.237512 0.737512 0.000000
0.238926 0.738926 0.000000
0.240339 0.740339 0.000000
0.241753 0.741753 0.000000
0.243167 0.743167 0.000000
0.244581 0.744581 0.000000
0.245994 0.745994 0.000000
0.247408 0.747408 0.000000
0.248822 0.748822 0.000000
0.250236 0.750236 0.000000
0.251649 0.751649 0.000000
0.253063 0.753063 0.000000
0.254477 0.754477 0.000000
0.255891 0.755891 0.000000
0.257304 0.757304 0.000000
0.258718 0.758718 0.000000
0.260132 0.760132 0.000000
0.261546 0.761546 0.000000
0.262959 0.762959 0.000000
0.264373 0.764373 0.000000
0.265787 0.765787 0.000000
0.267201 0.767201 0.000000
0.268615 0.768615 0.000000
0.270028 0.770028 0.000000
0.271442 0.771442 0.000000
0.272856 0.772856 0.000000
0.274270 0.774270 0.000000
0.275683 0.775683 0.000000
0.277097 0.777097 0.000000
0.278511 0.778511 0.000000
0.279925 0.779925 0.000000
0.281338 0.781338 0.000000
0.282752 0.782752 0.000000
0.284166 0.784166 0.000000
0.285580 0.785580 0.000000
0.286993 0.786993 0.000000
0.288407 0.788407 0.000000
0.289821 0.789821 0.000000
0.291235 0.791235 0.000000
0.292648 0.792648 0.000000
0.294062 0.794062 0.000000
0.295476 0.795476 0.000000
0.296890 0.796890 0.000000
0.298303 0.798303 0.000000
0.299717 0.799717 0.000000
0.301131 0.801131 0.000000
0.302545 0.802545 0.000000
0.303959 0.803959 0.000000
0.305372 0.805372 0.000000
0.306786 0.806786 0.000000
0.308200 0.808200 0.000000
0.309614 0.809614 0.000000
0.311027 0.811027 0.000000
0.312441 0.812441 0.000000
0.313855 0.813855 0.000000
0.315269 0.815269 0.000000
0.316682 0.816682 0.000000
0.318096 0.818096 0.000000
0.319510 0.819510 0.000000
0.320924 0.820924 0.000000
0.322337 0.822337 0.000000
0.323751 0.823751 0.000000
0.325165 0.825165 0.000000
0.326579 0.826579 0.000000
0.327992 0.827992 0.000000
0.329406 0.829406 0.000000
0.330820 0.830820 0.000000
0.332234 0.832234 0.000000
0.333648 0.833648 0.000000
0.335061 0.835061 0.000000
0.336475 0.836475 0.000000
0.337889 0.837889 0.000000
0.339303 0.839303 0.000000
0.340716 0.840716 0.000000
[...]
POINT_DATA 20431
SCALARS UX float 1
LOOKUP_TABLE default
-0.000000
0.000000
0.143095
-0.149256
-0.116724
0.072061
0.144072
-0.000000
-0.000000
0.000000
-0.000000
0.097589
0.127777
0.139526
0.143811
0.145353
0.145791
0.145741
0.145565
0.145359
0.145155
0.144981
0.144830
0.144704
0.144598
0.144510
0.144437
0.144376
0.144326
0.144283
0.144248
0.144218
0.144193
0.144171
0.144153
0.144138
0.144125
0.144114
0.144105
0.144097
0.144090
0.144084
0.144079
0.144075
0.144068
0.144063
0.144056
0.144048
0.144037
0.144023
0.144005
0.143981
0.143952
0.143914
0.143865
0.143806
0.143734
0.143650
0.143548
0.143440
0.143329
0.143214
0.143131
0.084575
0.026079
-0.032384
-0.090824
-0.149253
-0.149253
-0.149280
-0.149354
-0.149485
-0.149647
-0.149824
-0.149964
-0.149995
-0.149884
-0.149623
-0.149173
-0.148499
-0.147627
-0.146571
-0.145359
-0.144012
-0.142555
-0.141033
-0.139465
-0.137883
-0.136304
-0.134767
-0.133251
-0.131806
-0.130431
-0.129119
-0.127893
-0.126744
-0.125677
-0.124689
-0.123774
-0.122936
-0.122167
-0.121465
-0.120824
-0.120240
-0.119710
-0.119229
-0.118793
-0.118400
-0.118043
-0.117722
-0.117432
-0.117170
-0.116935
-0.116501
-0.116192
-0.115763
-0.115167
-0.114327
-0.113153
-0.111441
-0.108987
-0.105364
-0.099714
-0.090980
-0.077171
-0.052755
-0.116682
-0.116640
-0.116597
-0.116553
-0.116508
-0.116462
-0.116415
-0.116368
-0.116320
-0.116271
-0.116221
-0.116170
-0.116119
-0.116067
-0.116014
-0.115960
-0.115905
-0.115850
-0.115794
-0.115738
-0.115680
-0.115622
-0.115564
-0.115504
-0.115444
-0.115383
-0.115322
-0.115260
-0.115197
-0.115133
-0.115069
-0.115005
-0.114939
-0.114874
-0.114807
-0.114740
-0.114672
-0.114604
-0.114535
-0.114466
-0.114396
-0.114325
-0.114254
-0.114183
-0.114111
-0.114038
-0.113965
-0.113891
-0.113817
-0.113742
-0.113666
-0.113590
-0.113514
-0.113436
-0.113359
-0.113281
-0.113202
-0.113124
-0.113044
-0.112964
-0.112884
-0.112804
-0.112723
-0.112641
-0.112559
-0.112477
-0.112394
-0.112310
-0.112226
-0.112142
-0.112057
-0.111972
-0.111887
-0.111801
-0.111714
-0.111627
-0.111540
-0.111451
-0.111363
-0.111274
-0.111185
-0.111095
-0.111005
-0.110914
-0.110823
-0.110731
-0.110639
-0.110547
-0.110454
-0.110361
-0.110268
-0.110174
-0.110079
-0.109984
-0.109889
-0.109793
-0.109697
-0.109601
-0.109503
-0.109406
-0.109308
-0.109210
-0.109111
-0.109012
-0.108913
-0.108813
-0.108712
-0.108611
-0.108510
-0.108408
-0.108306
-0.108204
-0.108101
-0.107997
-0.107894
-0.107789
-0.107684
-0.107579
-0.107474
-0.107368
-0.107261
-0.107154
-0.107047
-0.106939
-0.106831
-0.106723
-0.106614
-0.106505
-0.106395
-0.106285
-0.106174
-0.106064
-0.105952
-0.105841
-0.105729
-0.105616
-0.105503
-0.105390
-0.105276
-0.105162
-0.105047
-0.104932
-0.104817
-0.104701
-0.104585
-0.104469
-0.104352
-0.104235
-0.104117
-0.103999
-0.103880
-0.103761
-0.103642
-0.103522
-0.103402
-0.103282
-0.103161
-0.103039
-0.102918
-0.102796
-0.102673
-0.102551
-0.102427
-0.102304
-0.102180
-0.102056
-0.101931
-0.101806
-0.101681
-0.101555
-0.101429
-0.101302
-0.101175
-0.101048
-0.100921
-0.100793
-0.100664
-0.100536
-0.100407
-0.100278
-0.100148
-0.100018
-0.099888
-0.099757
-0.099626
-0.099495
-0.099363
-0.099231
-0.099099
-0.098966
-0.098833
-0.098700
-0.098566
-0.098432
-0.098298
-0.098163
-0.098028
-0.097892
-0.097757
-0.097621
-0.097484
-0.097348
-0.097211
-0.097073
-0.096936
-0.096798
-0.096659
-0.096521
-0.096382
-0.096243
-0.096103
-0.095963
-0.095823
-0.095683
-0.095542
-0.095401
-0.095259
-0.095117
-0.094975
-0.094833
-0.094690
-0.094547
-0.094404
-0.094260
-0.094117
-0.093972
-0.093828
-0.093683
-0.093538
-0.093393
-0.093247
-0.093101
-0.092955
-0.092808
-0.092661
-0.092514
-0.092367
-0.092219
-0.092071
-0.091922
-0.091774
-0.091625
-0.091476
-0.091326
-0.091177
-0.091027
-0.090876
-0.090726
-0.090575
-0.090424
-0.090272
-0.090120
-0.089968
-0.089816
-0.089664
-0.089511
-0.089358
-0.089204
-0.089050
-0.088897
-0.088742
-0.088588
-0.088433
-0.088278
-0.088123
-0.087967
-0.087811
-0.087655
-0.087499
-0.087342
-0.087185
-0.087028
-0.086870
-0.086713
-0.086555
-0.086396
-0.086238
-0.086079
-0.085920
-0.085761
-0.085601
-0.085441
-0.085281
-0.085121
-0.084960
-0.084799
-0.084638
-0.084477
-0.084315
-0.084153
-0.083991
-0.083829
-0.083666
-0.083503
-0.083340
-0.083177
-0.083013
-0.082849
-0.082685
-0.082521
-0.082356
-0.082191
-0.082026
-0.081861
-0.081695
-0.081529
-0.081363
-0.081197
-0.081031
-0.080864
-0.080697
-0.080530
-0.080362
-0.080194
-0.080026
-0.079858
-0.079690
-0.079521
-0.079352
-0.079183
-0.079014
-0.078844
-0.078675
-0.078505
-0.078335
-0.078164
-0.077994
-0.077823
-0.077652
-0.077480
-0.077309
-0.077137
-0.076965
-0.076793
-0.076620
-0.076448
-0.076275
-0.076102
-0.075929
-0.075755
-0.075581
-0.075407
-0.075233
-0.075059
-0.074884
-0.074709
-0.074534
-0.074359
-0.074184
-0.074008
-0.073832
-0.073656
-0.073480
-0.073303
-0.073127
-0.072950
-0.072773
-0.072595
-0.072418
-0.072240
-0.072062
-0.071884
-0.071706
-0.071527
-0.071348
-0.071170
-0.070990
-0.070811
-0.070631
-0.070452
-0.070272
-0.070092
-0.069911
-0.069731
-0.069550
-0.069369
-0.069188
-0.069007
-0.068825
-0.068643
-0.068461
-0.068279
-0.068097
-0.067914
-0.067732
-0.067549
-0.067366
-0.067183
-0.066999
-0.066816
-0.066632
-0.066448
-0.066263
-0.066079
-0.065895
-0.065710
-0.065525
-0.065340
-0.065154
-0.064969
-0.064783
-0.064597
-0.064411
-0.064225
-0.064039
-0.063852
-0.063665
-0.063478
-0.063291
-0.063104
-0.062916
-0.062729
-0.062541
-0.062353
-0.062165
-0.061976
-0.061788
-0.061599
-0.061410
-0.061221
-0.061032
-0.060842
-0.060653
-0.060463
-0.060273
-0.060083
-0.059893
-0.059702
-0.059511
-0.059321
-0.059130
-0.058939
-0.058747
-0.058556
-0.058364
-0.058173
-0.057981
-0.057789
-0.057596
-0.057404
-0.057211
-0.057019
-0.056826
-0.056633
-0.056439
-0.056246
-0.056053
-0.055859
-0.055665
-0.055471
-0.055277
-0.055083
-0.054888
-0.054694
-0.054499
-0.054304
-0.054109
-0.053914
-0.053719
-0.053523
-0.053327
-0.053132
-0.052936
-0.052740
-0.052544
-0.052347
-0.052151
-0.051954
-0.051757
-0.051560
-0.051363
-0.051166
-0.050969
-0.050771
-0.050574
-0.050376
-0.050178
-0.049980
-0.049782
-0.049584
-0.049385
-0.049187
-0.048988
-0.048789
-0.048590
-0.048391
-0.048192
-0.047993
-0.047793
-0.047594
-0.047394
-0.047194
-0.046994
-0.046794
-0.046594
-0.046393
-0.046193
-0.045992
-0.045791
-0.045591
-0.045390
-0.045188
-0.044987
-0.044786
-0.044584
-0.044383
-0.044181
-0.043979
-0.043777
-0.043575
-0.043373
-0.043171
-0.042968
-0.042766
-0.042563
-0.042360
-0.042158
-0.041955
-0.041752
-0.041548
-0.041345
-0.041142
-0.040938
-0.040734
-0.040531
-0.040327
-0.040123
-0.039919
-0.039715
-0.039510
-0.039306
-0.039102
-0.038897
-0.038692
-0.038487
-0.038283
-0.038078
-0.037873
-0.037667
-0.037462
-0.037257
-0.037051
-0.036846
-0.036640
-0.036434
-0.036228
-0.036023
-0.035816
-0.035610
-0.035404
-0.035198
-0.034991
-0.034785
-0.034578
-0.034372
-0.034165
-0.033958
-0.033751
-0.033544
-0.033337
-0.033130
-0.032923
-0.032715
-0.032508
-0.032300
-0.032093
-0.031885
-0.031677
-0.031470
-0.031262
-0.031054
-0.030846
-0.030637
-0.030429
-0.030221
-0.030013
-0.029804
-0.029596
-0.029387
-0.029178
-0.028970
-0.028761
-0.028552
-0.028343
-0.028134
-0.027925
-0.027716
-0.027507
-0.027297
-0.027088
-0.026878
-0.026669
-0.026459
-0.026250
-0.026040
-0.025830
-0.025621
-0.025411
-0.025201
-0.024991
-0.024781
-0.024571
-0.024361
-0.024150
-0.023940
-0.023730
-0.023519
-0.023309
-0.023098
-0.022888
-0.022677
-0.022467
-0.022256
-0.022045
-0.021834
-0.021623
-0.021413
-0.021202
-0.020991
-0.020780
-0.020568
-0.020357
-0.020146
-0.019935
-0.019723
-0.019512
-0.019301
-0.019089
-0.018878
-0.018666
-0.018455
-0.018243
-0.018031
-0.017820
-0.017608
-0.017396
-0.017184
-0.016973
-0.016761
-0.016549
-0.016337
-0.016125
-0.015913
-0.015701
-0.015489
-0.015276
-0.015064
-0.014852
-0.014640
-0.014427
-0.014215
-0.014003
-0.013790
-0.013578
-0.013366
-0.013153
-0.012941
-0.012728
-0.012515
-0.012303
-0.012090
-0.011878
-0.011665
-0.011452
-0.011239
-0.011027
-0.010814
-0.010601
-0.010388
-0.010175
-0.009963
-0.009750
-0.009537
-0.009324
-0.009111
-0.008898
-0.008685
-0.008472
-0.008259
-0.008046
-0.007833
-0.007620
-0.007406
-0.007193
-0.006980
-0.006767
-0.006554
-0.006341
-0.006127
-0.005914
-0.005701
-0.005488
-0.005274
-0.005061
-0.004848
-0.004635
-0.004421
-0.004208
-0.003995
-0.003781
-0.003568
-0.003354
-0.003141
-0.002928
-0.002714
-0.002501
-0.002288
-0.002074
-0.001861
-0.001647
-0.001434
-0.001220
-0.001007
-0.000793
-0.000580
-0.000367
-0.000153
0.000060
0.000274
0.000487
0.000701
0.000914
0.001128
0.001341
0.001555
0.001768
0.001982
0.002195
0.002409
0.002622
0.002836
0.003049
0.003262
0.003476
0.003689
0.003903
0.004116
0.004330
0.004543
0.004757
0.004970
0.005184
0.005397
0.005610
0.005824
0.006037
0.006251
0.006464
0.006677
0.006891
0.007104
0.007318
0.007531
0.007744
0.007958
0.008171
0.008384
0.008598
0.008811
0.009024
0.009237
0.009451
0.009664
0.009877
0.010090
0.010304
0.010517
0.010730
0.010943
0.011156
0.011370
0.011583
0.011796
0.012009
0.012222
0.012435
0.012648
0.012861
0.013074
0.013287
0.013500
0.013713
0.013926
0.014139
0.014352
0.014565
0.014778
0.014991
0.015204
0.015416
0.015629
0.015842
0.016055
0.016268
0.016480
0.016693
0.016906
0.017118
0.017331
0.017544
0.017756
0.017969
0.018181
0.018394
0.018607
0.018819
0.019032
0.019244
0.019456
0.019669
0.019881
0.020094
0.020306
0.020518
0.020731
0.020943
0.021155
0.021367
0.021580
0.021792
0.022004
0.022216
0.022428
0.022640
0.022852
0.023065
0.023277
0.023489
0.023701
0.023912
0.024124
0.024336
0.024548
0.024760
0.024972
0.025184
0.025395
0.025607
0.025819
0.026030
0.026242
0.026454
0.026665
0.026877
0.027088
0.027300
0.027511
0.027723
0.027934
0.028146
0.028357
0.028568
0.028780
0.028991
0.029202
0.029414
0.029625
0.029836
0.030047
0.030258
0.030469
0.030680
0.030891
0.031102
0.031313
0.031524
0.031735
0.031946
0.032157
0.032368
0.032578
0.032789
0.033000
0.033211
0.033421
0.033632
0.033843
0.034053
0.034264
0.034474
0.034685
0.034895
0.035105
0.035316
0.035526
0.035737
0.035947
0.036157
0.036367
0.036577
0.036788
0.036998
0.037208
0.037418
0.037628
0.037838
0.038048
0.038258
0.038468
0.038678
0.038887
0.039097
0.039307
0.039517
0.039727
0.039936
0.040146
0.040355
0.040565
0.040775
0.040984
0.041194
0.041403
0.041612
0.041822
0.042031
0.042240
0.042450
0.042659
0.042868
0.043077
0.043287
0.043496
0.043705
0.043914
0.044123
0.044332
0.044541
0.044750
0.044959
0.045168
0.045376
0.045585
0.045794
0.046003
0.046211
0.046420
0.046629
0.046837
0.047046
0.047254
0.047463
0.047671
0.047880
0.048088
0.048297
0.048505
0.048713
0.048922
0.049130
0.049338
0.049546
0.049754
0.049963
0.050171
0.050379
0.050587
0.050795
0.051003
0.051211
0.051419
0.051626
0.051834
0.052042
0.052250
0.052458
0.052665
0.052873
0.053081
0.053288
0.053496
0.053703
0.053911
0.054118
0.054326
0.054533
0.054741
0.054948
0.055155
0.055363
0.055570
0.055777
0.055984
0.056192
0.056399
0.056606
0.056813
0.057020
0.057227
0.057434
0.057641
0.057848
0.058055
0.058262
0.058469
0.058676
0.058882
0.059089
0.059296
0.059503
0.059709
0.059916
0.060123
0.060329
0.060536
0.060742
0.060949
0.061155
0.061362
0.061568
0.061775
0.061981
0.062187
0.062394
0.062600
0.062806
0.063012
0.063218
0.063425
0.063631
0.063837
0.064043
0.064249
0.064455
0.064661
0.064867
0.065073
0.065279
0.065485
0.065691
0.065897
0.066102
0.066308
0.066514
0.066720
0.066926
0.067131
0.067337
0.067543
0.067748
0.067954
0.068159
0.068365
0.068571
0.068776
0.068982
0.069187
0.069392
0.069598
0.069803
0.070009
0.070214
0.070419
0.070625
0.070830
0.071035
0.071240
0.071445
0.071651
0.071856
0.072266
0.072471
0.072676
0.072880
0.073085
0.073290
0.073495
0.073700
0.073904
0.074109
0.074314
0.074518
0.074723
0.074928
0.075132
0.075337
0.075541
0.075746
0.075951
0.076155
0.076360
0.076564
0.076768
0.076973
0.077177
0.077382
0.077586
0.077790
0.077995
0.078199
0.078403
0.078608
0.078812
0.079016
0.079220
0.079425
0.079629
0.079833
0.080037
0.080241
0.080445
0.080649
0.080853
0.081057
0.081262
0.081466
0.081670
0.081874
0.082078
0.082281
0.082485
0.082689
0.082893
0.083097
0.083301
0.083505
0.083709
0.083913
0.084116
0.084320
0.084524
0.084728
0.084931
0.085135
0.085339
0.085543
0.085746
0.085950
0.086154
0.086357
0.086561
0.086765
0.086968
0.087172
0.087375
0.087579
0.087783
0.087986
0.088190
0.088393
0.088597
0.088800
0.089004
0.089207
0.089411
0.089614
0.089817
0.090021
0.090224
0.090428
0.090631
0.090834
0.091038
0.091241
0.091444
0.091648
0.091851
0.092054
0.092258
0.092461
0.092664
0.092868
0.093071
0.093274
0.093477
0.093681
0.093884
0.094087
0.094290
0.094493
0.094697
0.094900
0.095103
0.095306
0.095509
0.095712
0.095916
0.096119
0.096322
0.096525
0.096728
0.096931
0.097134
0.097337
0.097541
0.097744
0.097947
0.098150
0.098353
0.098556
0.098759
0.098962
0.099165
0.099368
0.099571
0.099774
0.099977
0.100180
0.100383
0.100586
0.100789
0.100992
0.101195
0.101398
0.101601
0.101804
0.102007
0.102210
0.102413
0.102616
0.102819
0.103022
0.103225
0.103427
0.103630
0.103833
0.104036
0.104239
0.104442
0.104645
0.104848
0.105051
0.105254
0.105457
0.105659
0.105862
0.106065
0.106268
0.106471
0.106674
0.106877
0.107080
0.107283
0.107486
0.107688
0.107891
0.108094
0.108297
0.108500
0.108703
0.108906
0.109109
0.109311
0.109514
0.109717
0.109920
0.110123
0.110326
0.110529
0.110732
0.110935
0.111137
0.111340
0.111543
0.111746
0.111949
0.112152
0.112355
0.112558
0.112761
0.112963
0.113166
0.113369
0.113572
0.113775
0.113978
0.114181
0.114384
0.114587
0.114790
0.114993
0.115195
0.115398
0.115601
0.115804
0.116007
0.116210
0.116413
0.116616
0.116819
0.117022
0.117225
0.117428
0.117631
0.117834
0.118037
0.118240
0.118443
0.118646
0.118849
0.119052
0.119255
0.119458
0.119661
0.119864
0.120067
0.120270
0.120473
0.120676
0.120879
0.121082
0.121285
0.121488
0.121691
0.121894
0.122097
0.122300
0.122503
0.122706
0.122909
0.123112
0.123315
0.123519
0.123722
0.123925
0.124128
0.124331
0.124534
0.124737
0.124940
0.125144
0.125347
0.125550
0.125753
0.125956
0.126159
0.126363
0.126566
0.126769
0.126972
0.127175
0.127379
0.127582
0.127785
0.127988
0.128192
0.128395
0.128598
0.128801
0.129005
0.129208
0.129411
0.129615
0.129818
0.130021
0.130224
0.130428
0.130631
0.130835
0.131038
0.131241
0.131445
0.131648
0.131851
0.132055
0.132258
0.132462
0.132665
0.132869
0.133072
0.133275
0.133479
0.133682
0.133886
0.134089
0.134293
0.134496
0.134700
0.134903
0.135107
0.135310
0.135514
0.135718
0.135921
0.136125
0.136328
0.136532
0.136736
0.136939
0.137143
0.137346
0.137550
0.137754
0.137957
0.138161
0.138365
0.138568
0.138772
0.138976
0.139180
0.139383
0.139587
0.139791
0.139994
0.140198
0.140402
0.140606
0.140810
0.141013
0.141217
0.141421
0.141625
0.141829
0.142033
0.142236
0.142440
0.142644
0.142848
0.143052
0.143256
0.143460
0.143664
0.143868
0.102525
0.102624
0.102310
0.091677
0.091829
0.091972
-0.074104
-0.073996
-0.074310
-0.074441
-0.039016
0.116487
0.116854
0.116931
0.117153
0.098399
0.098071
0.098174
-0.039788
-0.039574
-0.039832
-0.039458
-0.107624
-0.107776
-0.107399
-0.107448
-0.041122
-0.040965
-0.040812
0.040209
0.039886
0.040068
0.040176
-0.067368
-0.069132
-0.081436
-0.083902
0.028417
0.028096
0.028222
0.028193
-0.031356
-0.032029
-0.031454
-0.031483
0.074658
0.074043
0.073415
0.075451
-0.108110
-0.107985
-0.107613
0.034949
0.034911
0.035288
0.035460
0.001748
-0.006634
-0.004628
-0.011576
0.017214
0.017672
0.017852
-0.057498
-0.054792
-0.057614
-0.009492
-0.009284
-0.009795
-0.009567
0.090679
0.091764
0.091655
0.092773
-0.002370
-0.001633
-0.001939
-0.000885
0.030486
0.030810
0.030233
0.030963
0.028407
0.028639
0.028233
0.028828
-0.015456
-0.015508
-0.015790
-0.015955
0.101756
0.101618
0.101238
-0.042760
-0.043358
-0.042944
0.017241
0.101098
0.100723
0.100712
0.101276
0.046581
0.046948
0.046779
-0.000711
-0.000632
-0.000940
0.046922
0.028100
0.027068
0.026699
-0.000385
0.053806
0.053577
0.053089
0.084563
0.084926
0.084505
0.085088
0.052136
0.052341
0.051975
0.052471
0.052961
-0.092915
-0.093336
-0.093119
0.119844
0.119500
0.120070
-0.093522
-0.064921
-0.065195
-0.065459
-0.064668
-0.052308
-0.052066
-0.052924
-0.052330
-0.029266
-0.029894
-0.029442
0.015346
0.015700
0.015251
0.015569
-0.029993
0.046802
0.047069
0.046585
-0.049665
-0.050157
-0.049694
-0.054297
-0.054959
-0.055473
0.047061
0.093190
0.093282
0.092836
-0.082918
-0.082781
-0.082608
0.099824
0.100211
0.100237
0.099893
0.058756
0.058209
0.058429
0.057629
0.001826
-0.001026
0.001901
0.001178
0.044158
0.045333
0.042230
0.047117
-0.078355
-0.078124
-0.078810
-0.077669
0.135619
0.135351
-0.112951
-0.112000
-0.111455
-0.110404
-0.073223
-0.071311
-0.066926
-0.078798
0.140122
0.140227
0.140713
-0.084467
-0.077746
-0.084908
-0.085386
-0.083609
0.096722
0.096651
0.096157
0.037888
0.037691
0.038151
0.038003
0.002757
0.001907
0.002517
-0.109325
-0.109280
-0.109889
-0.109385
0.140313
0.139507
0.140556
0.139254
0.120073
0.120432
0.120813
0.096023
0.057833
0.057429
0.057013
0.056694
-0.012871
-0.012636
-0.012360
-0.013053
-0.023187
-0.024527
-0.028230
0.122582
0.122474
0.121425
0.121853
-0.031048
-0.030266
-0.034028
-0.032425
0.056809
0.056852
0.056481
0.032989
0.034121
0.043622
0.023994
-0.096727
-0.097229
-0.095655
-0.098978
0.129401
0.129704
0.029434
0.029393
0.029604
0.057171
0.003673
0.005171
0.006190
0.007010
-0.052736
-0.053259
-0.053032
-0.052990
-0.051132
-0.058984
-0.056474
-0.051397
-0.011835
-0.011228
-0.012276
-0.012139
-0.063477
-0.061492
-0.060014
-0.058450
0.127524
0.128232
0.128687
0.127491
-0.058344
-0.058255
-0.058071
-0.120870
-0.126010
-0.121053
-0.121563
-0.102707
-0.102997
-0.103048
-0.018943
-0.019016
-0.039721
-0.039777
-0.042281
-0.037452
0.053220
0.050036
0.050473
0.046943
0.007449
0.020451
0.018740
0.016654
0.069705
0.069970
0.067990
0.067992
0.113686
0.111045
0.111928
0.113492
-0.048781
-0.048591
-0.050179
-0.050475
-0.041356
-0.041181
-0.040936
-0.041731
0.077794
0.079017
0.078090
0.078855
0.076664
0.076533
0.078016
-0.009644
-0.009273
-0.009187
-0.009624
0.134402
0.132903
0.134282
0.101177
-0.025569
-0.028396
-0.026966
-0.026792
0.111993
0.112099
0.111436
0.111686
0.021625
0.022022
0.021726
0.022192
0.053237
0.053857
-0.014560
-0.013492
-0.012580
-0.011809
-0.003833
-0.003792
-0.000271
-0.007450
-0.001474
-0.001254
-0.001091
0.124934
0.124506
0.124462
-0.074874
-0.075100
-0.074006
-0.073923
-0.000996
-0.063752
-0.059640
-0.062728
0.113963
0.114493
0.115361
0.115875
0.106569
0.106345
0.106304
0.105946
0.050528
0.049413
0.049126
0.051593
0.043595
0.043221
0.043049
0.043648
0.043370
0.043838
0.055773
0.054124
0.055198
-0.007676
-0.008000
-0.007613
0.031697
0.027446
0.037520
-0.007768
0.072535
0.073373
0.070797
0.061639
0.062110
0.062086
0.061779
0.092255
0.092333
0.091777
-0.064157
-0.056994
0.092729
0.087566
0.087424
0.087190
0.087078
-0.050497
-0.050296
-0.050585
0.112491
0.030295
0.030450
0.029507
0.029356
-0.091849
-0.088919
-0.089991
-0.087562
0.036887
0.036836
0.036511
0.037208
-0.060826
-0.059725
-0.062499
-0.059269
-0.073819
-0.075366
-0.069385
-0.079360
0.078673
0.078496
0.079031
-0.063756
-0.063209
-0.064623
0.040550
0.040454
0.039005
0.038049
0.098365
0.081520
0.081118
0.081509
0.061144
0.063179
0.061469
0.062876
-0.015377
-0.017045
-0.017413
0.081108
0.086053
0.086716
0.086064
0.043307
0.044280
0.044755
0.045732
0.053609
0.050100
-0.030484
-0.031592
-0.030069
-0.032583
-0.084573
-0.088598
-0.088603
-0.082319
-0.063993
-0.064962
0.026501
0.026301
0.027839
0.086418
-0.018699
-0.015295
-0.013968
-0.019587
0.042637
0.046835
0.063969
0.064204
0.064039
-0.063425
-0.062515
-0.062226
0.064428
-0.051049
-0.050960
-0.050720
0.090404
0.089985
0.090231
0.089812
-0.033764
-0.033611
-0.033467
-0.059690
-0.069046
0.016140
0.016049
0.015844
0.096106
0.096028
0.095791
0.095667
0.064259
0.064506
0.064676
0.023347
0.022056
0.021710
0.019847
0.062206
0.061883
0.062020
0.061682
0.054270
0.054429
0.054120
0.085813
0.086098
0.086261
0.062167
0.061758
0.064113
0.086393
-0.077470
-0.077478
-0.077145
0.060137
0.046225
0.045266
0.046674
0.064179
-0.082427
-0.082293
-0.082506
0.032363
0.025364
0.028207
-0.077802
0.080693
0.080708
0.081160
0.115669
0.115831
0.115460
0.115671