# vtk DataFile Version 2.0
Test
ASCII
DATASET POLYDATA
POINTS 7341 float
0.000000 0.000000 0.000000
1.000000 0.000000 0.000000
1.000000 1.000000 0.000000
0.000000 1.000000 0.000000
0.000000 0.500000 0.000000
0.500000 0.500000 0.000000
1.000000 0.500000 0.000000
0.499000 0.499000 0.000000
0.900000 0.010000 0.000000
0.029412 0.000000 0.000000
0.058824 0.000000 0.000000
0.088235 0.000000 0.000000
0.117647 0.000000 0.000000
0.147059 0.000000 0.000000
0.176471 0.000000 0.000000
0.205882 0.000000 0.000000
0.235294 0.000000 0.000000
0.264706 0.000000 0.000000
0.294118 0.000000 0.000000
0.323529 0.000000 0.000000
0.352941 0.000000 0.000000
0.382353 0.000000 0.000000
0.411765 0.000000 0.000000
0.441176 0.000000 0.000000
0.470588 0.000000 0.000000
0.500000 0.000000 0.000000
0.529412 0.000000 0.000000
0.558824 0.000000 0.000000
0.588235 0.000000 0.000000
0.617647 0.000000 0.000000
0.647059 0.000000 0.000000
0.676471 0.000000 0.000000
0.705882 0.000000 0.000000
0.735294 0.000000 0.000000
0.764706 0.000000 0.000000
0.794118 0.000000 0.000000
0.823529 0.000000 0.000000
0.852941 0.000000 0.000000
0.882353 0.000000 0.000000
0.911765 0.000000 0.000000
0.941176 0.000000 0.000000
0.970588 0.000000 0.000000
1.000000 0.029412 0.000000
1.000000 0.058824 0.000000
1.000000 0.088235 0.000000
1.000000 0.117647 0.000000
1.000000 0.147059 0.000000
1.000000 0.176471 0.000000
1.000000 0.205882 0.000000
1.000000 0.235294 0.000000
1.000000 0.264706 0.000000
1.000000 0.294118 0.000000
1.000000 0.323529 0.000000
1.000000 0.352941 0.000000
1.000000 0.382353 0.000000
1.000000 0.411765 0.000000
1.000000 0.441176 0.000000
1.000000 0.470588 0.000000
1.000000 0.529412 0.000000
1.000000 0.558824 0.000000
1.000000 0.588235 0.000000
1.000000 0.617647 0.000000
1.000000 0.647059 0.000000
1.000000 0.676471 0.000000
1.000000 0.705882 0.000000
1.000000 0.735294 0.000000
1.000000 0.764706 0.000000
1.000000 0.794118 0.000000
1.000000 0.823529 0.000000
1.000000 0.852941 0.000000
1.000000 0.882353 0.000000
1.000000 0.911765 0.000000
1.000000 0.941176 0.000000
1.000000 0.970588 0.000000
0.970588 1.000000 0.000000
0.941176 1.000000 0.000000
0.911765 1.000000 0.000000
0.882353 1.000000 0.000000
0.852941 1.000000 0.000000
0.823529 1.000000 0.000000
0.794118 1.000000 0.000000
0.764706 1.000000 0.000000
0.735294 1.000000 0.000000
0.705882 1.000000 0.000000
0.676471 1.000000 0.000000
0.647059 1.000000 0.000000
0.617647 1.000000 0.000000
0.588235 1.000000 0.000000
0.558824 1.000000 0.000000
0.529412 1.000000 0.000000
0.500000 1.000000 0.000000
0.470588 1.000000 0.000000
0.441176 1.000000 0.000000
0.411765 1.000000 0.000000
0.382353 1.000000 0.000000
0.352941 1.000000 0.000000
0.323529 1.000000 0.000000
0.294118 1.000000 0.000000
0.264706 1.000000 0.000000
0.235294 1.000000 0.000000
0.205882 1.000000 0.000000
0.176471 1.000000 0.000000
0.147059 1.000000 0.000000
0.117647 1.000000 0.000000
0.088235 1.000000 0.000000
0.058824 1.000000 0.000000
0.029412 1.000000 0.000000
0.000000 0.970588 0.000000
0.000000 0.941176 0.000000
0.000000 0.911765 0.000000
0.000000 0.882353 0.000000
0.000000 0.852941 0.000000
0.000000 0.823529 0.000000
0.000000 0.794118 0.000000
0.000000 0.764706 0.000000
0.000000 0.735294 0.000000
0.000000 0.705882 0.000000
0.000000 0.676471 0.000000
0.000000 0.647059 0.000000
0.000000 0.617647 0.000000
0.000000 0.588235 0.000000
0.000000 0.558824 0.000000
0.000000 0.529412 0.000000
0.007246 0.500000 0.000000
0.014493 0.500000 0.000000
0.021739 0.500000 0.000000
0.028986 0.500000 0.000000
0.036232 0.500000 0.000000
0.043478 0.500000 0.000000
0.050725 0.500000 0.000000
0.057971 0.500000 0.000000
0.065217 0.500000 0.000000
0.072464 0.500000 0.000000
0.079710 0.500000 0.000000
0.086957 0.500000 0.000000
0.094203 0.500000 0.000000
0.101449 0.500000 0.000000
0.108696 0.500000 0.000000
0.115942 0.500000 0.000000
0.123188 0.500000 0.000000
0.130435 0.500000 0.000000
0.137681 0.500000 0.000000
0.144928 0.500000 0.000000
0.152174 0.500000 0.000000
0.159420 0.500000 0.000000
0.166667 0.500000 0.000000
0.173913 0.500000 0.000000
0.181159 0.500000 0.000000
0.188406 0.500000 0.000000
0.195652 0.500000 0.000000
0.202899 0.500000 0.000000
0.210145 0.500000 0.000000
0.217391 0.500000 0.000000
0.224638 0.500000 0.000000
0.231884 0.500000 0.000000
0.239130 0.500000 0.000000
0.246377 0.500000 0.000000
0.253623 0.500000 0.000000
0.260870 0.500000 0.000000
0.268116 0.500000 0.000000
0.275362 0.500000 0.000000
0.282609 0.500000 0.000000
0.289855 0.500000 0.000000
0.297101 0.500000 0.000000
0.304348 0.500000 0.000000
0.311594 0.500000 0.000000
0.318841 0.500000 0.000000
0.326087 0.500000 0.000000
0.333333 0.500000 0.000000
0.340580 0.500000 0.000000
0.347826 0.500000 0.000000
0.355072 0.500000 0.000000
0.362319 0.500000 0.000000
0.369565 0.500000 0.000000
0.376812 0.500000 0.000000
0.384058 0.500000 0.000000
0.391304 0.500000 0.000000
0.398551 0.500000 0.000000
0.405797 0.500000 0.000000
0.413043 0.500000 0.000000
0.420290 0.500000 0.000000
0.427536 0.500000 0.000000
0.434783 0.500000 0.000000
0.442029 0.500000 0.000000
0.449275 0.500000 0.000000
0.456522 0.500000 0.000000
0.463768 0.500000 0.000000
0.471014 0.500000 0.000000
0.478261 0.500000 0.000000
0.485507 0.500000 0.000000
0.492754 0.500000 0.000000
0.510004 0.500000 0.000000
0.520408 0.500000 0.000000
0.531229 0.500000 0.000000
0.542483 0.500000 0.000000
0.554187 0.500000 0.000000
0.566359 0.500000 0.000000
0.579019 0.500000 0.000000
0.592185 0.500000 0.000000
0.605877 0.500000 0.000000
0.620118 0.500000 0.000000
0.634929 0.500000 0.000000
0.650332 0.500000 0.000000
0.666352 0.500000 0.000000
0.683013 0.500000 0.000000
0.700340 0.500000 0.000000
0.718361 0.500000 0.000000
0.737103 0.500000 0.000000
0.756595 0.500000 0.000000
0.776867 0.500000 0.000000
0.797950 0.500000 0.000000
0.819877 0.500000 0.000000
0.842681 0.500000 0.000000
0.866398 0.500000 0.000000
0.891064 0.500000 0.000000
0.916716 0.500000 0.000000
0.943396 0.500000 0.000000
0.971143 0.500000 0.000000
0.000000 0.470588 0.000000
0.000000 0.441176 0.000000
0.000000 0.411765 0.000000
0.000000 0.382353 0.000000
0.000000 0.352941 0.000000
0.000000 0.323529 0.000000
0.000000 0.294118 0.000000
0.000000 0.264706 0.000000
0.000000 0.235294 0.000000
0.000000 0.205882 0.000000
0.000000 0.176471 0.000000
0.000000 0.147059 0.000000
0.000000 0.117647 0.000000
0.000000 0.088235 0.000000
0.000000 0.058824 0.000000
0.000000 0.029412 0.000000
0.500341 0.497365 0.000000
0.501682 0.495729 0.000000
0.503023 0.494094 0.000000
0.504365 0.492458 0.000000
0.505706 0.490823 0.000000
0.507047 0.489187 0.000000
0.508388 0.487552 0.000000
0.509729 0.485916 0.000000
0.511070 0.484281 0.000000
0.512411 0.482645 0.000000
0.513753 0.481010 0.000000
0.515094 0.479375 0.000000
0.516435 0.477739 0.000000
0.517776 0.476104 0.000000
0.519117 0.474468 0.000000
0.520458 0.472833 0.000000
0.521799 0.471197 0.000000
0.523140 0.469562 0.000000
0.524482 0.467926 0.000000
0.525823 0.466291 0.000000
0.527164 0.464656 0.000000
0.528505 0.463020 0.000000
0.529846 0.461385 0.000000
0.531187 0.459749 0.000000
0.532528 0.458114 0.000000
0.533870 0.456478 0.000000
0.535211 0.454843 0.000000
0.536552 0.453207 0.000000
0.537893 0.451572 0.000000
0.539234 0.449936 0.000000
0.540575 0.448301 0.000000
0.541916 0.446666 0.000000
0.543258 0.445030 0.000000
0.544599 0.443395 0.000000
0.545940 0.441759 0.000000
0.547281 0.440124 0.000000
0.548622 0.438488 0.000000
0.549963 0.436853 0.000000
0.551304 0.435217 0.000000
0.552645 0.433582 0.000000
0.553987 0.431946 0.000000
0.555328 0.430311 0.000000
0.556669 0.428676 0.000000
0.558010 0.427040 0.000000
0.559351 0.425405 0.000000
0.560692 0.423769 0.000000
0.562033 0.422134 0.000000
0.563375 0.420498 0.000000
0.564716 0.418863 0.000000
0.566057 0.417227 0.000000
0.567398 0.415592 0.000000
0.568739 0.413957 0.000000
0.570080 0.412321 0.000000
0.571421 0.410686 0.000000
0.572763 0.409050 0.000000
0.574104 0.407415 0.000000
0.575445 0.405779 0.000000
0.576786 0.404144 0.000000
0.578127 0.402508 0.000000
0.579468 0.400873 0.000000
0.580809 0.399237 0.000000
0.582151 0.397602 0.000000
0.583492 0.395967 0.000000
0.584833 0.394331 0.000000
0.586174 0.392696 0.000000
0.587515 0.391060 0.000000
0.588856 0.389425 0.000000
0.590197 0.387789 0.000000
0.591538 0.386154 0.000000
0.592880 0.384518 0.000000
0.594221 0.382883 0.000000
0.595562 0.381247 0.000000
0.596903 0.379612 0.000000
0.598244 0.377977 0.000000
0.599585 0.376341 0.000000
0.600926 0.374706 0.000000
0.602268 0.373070 0.000000
0.603609 0.371435 0.000000
0.604950 0.369799 0.000000
0.606291 0.368164 0.000000
0.607632 0.366528 0.000000
0.608973 0.364893 0.000000
0.610314 0.363258 0.000000
0.611656 0.361622 0.000000
0.612997 0.359987 0.000000
0.614338 0.358351 0.000000
0.615679 0.356716 0.000000
0.617020 0.355080 0.000000
0.618361 0.353445 0.000000
0.619702 0.351809 0.000000
0.621043 0.350174 0.000000
0.622385 0.348538 0.000000
0.623726 0.346903 0.000000
0.625067 0.345268 0.000000
0.626408 0.343632 0.000000
0.627749 0.341997 0.000000
0.629090 0.340361 0.000000
0.630431 0.338726 0.000000
0.631773 0.337090 0.000000
0.633114 0.335455 0.000000
0.634455 0.333819 0.000000
0.635796 0.332184 0.000000
0.637137 0.330548 0.000000
0.638478 0.328913 0.000000
0.639819 0.327278 0.000000
0.641161 0.325642 0.000000
0.642502 0.324007 0.000000
0.643843 0.322371 0.000000
0.645184 0.320736 0.000000
0.646525 0.319100 0.000000
0.647866 0.317465 0.000000
0.649207 0.315829 0.000000
0.650548 0.314194 0.000000
0.651890 0.312559 0.000000
0.653231 0.310923 0.000000
0.654572 0.309288 0.000000
0.655913 0.307652 0.000000
0.657254 0.306017 0.000000
0.658595 0.304381 0.000000
0.659936 0.302746 0.000000
0.661278 0.301110 0.000000
0.662619 0.299475 0.000000
0.663960 0.297839 0.000000
0.665301 0.296204 0.000000
0.666642 0.294569 0.000000
0.667983 0.292933 0.000000
0.669324 0.291298 0.000000
0.670666 0.289662 0.000000
0.672007 0.288027 0.000000
0.673348 0.286391 0.000000
0.674689 0.284756 0.000000
0.676030 0.283120 0.000000
0.677371 0.281485 0.000000
[...]
POINT_DATA 7341
SCALARS UX float 1
LOOKUP_TABLE default
0.000000
0.000000
0.030500
0.030500
0.014168
0.011566
0.012612
0.011338
0.000146
0.000000
0.000000
0.000000
0.000000
0.000000
0.000000
0.000000
0.000000
0.000000
0.000000
0.000000
0.000000
0.000000
0.000000
0.000000
0.000000
0.000000
0.000000
0.000000
0.000000
0.000000
0.000000
0.000000
0.000000
0.000000
0.000000
0.000000
0.000000
0.000000
0.000000
0.000000
0.000000
-0.000000
0.001042
0.001659
0.002206
0.002747
0.003313
0.003902
0.004528
0.005165
0.005856
0.006579
0.007340
0.008139
0.008967
0.009835
0.010737
0.011660
0.013599
0.014606
0.015619
0.016650
0.017691
0.018733
0.019787
0.020847
0.021909
0.022974
0.024044
0.025117
0.026191
0.027266
0.028342
0.029421
0.030500
0.030500
0.030500
0.030500
0.030500
0.030500
0.030500
0.030500
0.030500
0.030500
0.030500
0.030500
0.030500
0.030500
0.030500
0.030500
0.030500
0.030500
0.030500
0.030500
0.030500
0.030500
0.030500
0.030500
0.030500
0.030500
0.030500
0.030500
0.030500
0.030500
0.030500
0.030500
0.030500
0.029470
0.028442
0.027415
0.026395
0.025377
0.024368
0.023363
0.022369
0.021382
0.020400
0.019430
0.018467
0.017512
0.016567
0.015623
0.014719
0.013899
0.013707
0.013426
0.013205
0.013084
0.013027
0.012975
0.012934
0.012654
0.012459
0.012506
0.012435
0.012325
0.012374
0.012309
0.012526
0.012013
0.012137
0.012185
0.012259
0.012220
0.012243
0.011961
0.012004
0.012060
0.012261
0.011836
0.011921
0.011928
0.011917
0.012007
0.011940
0.011918
0.012003
0.011723
0.011875
0.011942
0.011610
0.011893
0.011601
0.011745
0.011530
0.011651
0.011755
0.011542
0.011597
0.011626
0.011644
0.011685
0.011393
0.011715
0.011537
0.011671
0.011466
0.011651
0.011476
0.011648
0.011572
0.011527
0.011439
0.011650
0.011606
0.011604
0.011500
0.011661
0.011478
0.011616
0.011589
0.011516
0.011506
0.011508
0.011518
0.011528
0.011537
0.011544
0.011555
0.011566
0.011581
0.011595
0.011614
0.011635
0.011658
0.011685
0.011716
0.011752
0.011792
0.011838
0.011889
0.011948
0.012013
0.012088
0.012171
0.012266
0.012373
0.012487
0.011305
0.010273
0.009435
0.008687
0.008016
0.007363
0.006742
0.006130
0.005544
0.004972
0.004411
0.003853
0.003304
0.002748
0.002126
0.001447
0.011153
0.010982
0.010891
0.010813
0.010758
0.010695
0.010638
0.010581
0.010519
0.010463
0.010409
0.010353
0.010300
0.010247
0.010193
0.010141
0.010088
0.010037
0.009986
0.009935
0.009885
0.009835
0.009786
0.009736
0.009687
0.009638
0.009589
0.009540
0.009492
0.009444
0.009395
0.009347
0.009300
0.009252
0.009204
0.009156
0.009109
0.009061
0.009014
0.008967
0.008920
0.008873
0.008826
0.008779
0.008732
0.008685
0.008639
0.008592
0.008545
0.008499
0.008452
0.008406
0.008360
0.008313
0.008267
0.008220
0.008174
0.008128
0.008082
0.008036
0.007990
0.007944
0.007899
0.007853
0.007807
0.007762
0.007717
0.007671
0.007626
0.007581
0.007536
0.007491
0.007446
0.007401
0.007356
0.007311
0.007267
0.007222
0.007177
0.007133
0.007089
0.007045
0.007000
0.006956
0.006912
0.006869
0.006825
0.006781
0.006738
0.006694
0.006651
0.006607
0.006564
0.006521
0.006478
0.006435
0.006392
0.006349
0.006307
0.006264
0.006222
0.006179
0.006137
0.006095
0.006053
0.006011
0.005969
0.005928
0.005886
0.005844
0.005803
0.005762
0.005720
0.005679
0.005638
0.005597
0.005557
0.005516
0.005476
0.005435
0.005395
0.005355
0.005314
0.005274
0.005235
0.005195
0.005155
0.005116
0.005076
0.005037
0.004998
0.004959
0.004920
0.004881
0.004842
0.004804
0.004765
0.004727
0.004689
0.004651
0.004613
0.004575
0.004537
0.004500
0.004462
0.004425
0.004388
0.004350
0.004313
0.004277
0.004240
0.004203
0.004167
0.004131
0.004094
0.004058
0.004022
0.003987
0.003951
0.003915
0.003880
0.003845
0.003810
0.003774
0.003740
0.003705
0.003670
0.003636
0.003601
0.003567
0.003533
0.003499
0.003465
0.003432
0.003398
0.003365
0.003331
0.003298
0.003265
0.003232
0.003200
0.003167
0.003135
0.003102
0.003070
0.003038
0.003006
0.002974
0.002942
0.002911
0.002880
0.002848
0.002817
0.002786
0.002755
0.002725
0.002694
0.002664
0.002633
0.002603
0.002573
0.002543
0.002514
0.002484
0.002455
0.002425
0.002396
0.002367
0.002338
0.002309
0.002280
0.002252
0.002224
0.002195
0.002167
0.002139
0.002111
0.002083
0.002056
0.002028
0.002001
0.001974
0.001947
0.001920
0.001893
0.001866
0.001839
0.001813
0.001786
0.001760
0.001734
0.001708
0.001682
0.001656
0.001631
0.001605
0.001579
0.001554
0.001529
0.001504
0.001479
0.001454
0.001429
0.001404
0.001380
0.001355
0.001331
0.001307
0.001283
0.001259
0.001235
0.001211
0.001187
0.001163
0.001140
0.001116
0.001093
0.001070
0.001046
0.001023
0.001000
0.000977
0.000954
0.000931
0.000909
0.000886
0.000863
0.000841
0.000818
0.000796
0.000773
0.000751
0.000728
0.000706
0.000684
0.000662
0.000639
0.000617
0.000595
0.000573
0.000551
0.000528
0.000506
0.000484
0.000462
0.000439
0.000417
0.000395
0.000372
0.000350
0.000327
0.000304
0.000281
0.000258
0.000235
0.000212
0.000189
0.000168
0.010514
0.010314
0.010224
0.000353
0.000305
0.011219
0.000277
0.011093
0.010794
0.006354
0.011036
0.000267
0.006597
0.011153
0.003616
0.004791
0.011015
0.000272
0.000421
0.010256
0.001940
0.011483
0.011037
0.003061
0.010348
0.009172
0.011897
0.008794
0.011335
0.010495
0.000509
0.010447
0.010275
0.010997
0.010685
0.000242
0.010898
0.000812
0.010568
0.000323
0.010394
0.010245
0.010176
0.011395
0.000451
0.010847
0.000359
0.010645
0.011119
0.012431
0.000321
0.010935
0.002456
0.008548
0.000266
0.010985
0.011025
0.007859
0.011028
0.011140
0.004298
0.004963
0.000261
0.000266
0.010253
0.010408
0.005963
0.010546
0.011494
0.000286
0.011257
0.000293
0.007148
0.000321
0.010211
0.004207
0.000364
0.011548
0.002469
0.000613
0.001620
0.000652
0.000783
0.010390
0.010513
0.010597
0.010365
0.010295
0.010243
0.010663
0.011256
0.011094
0.010934
0.010913
0.010871
0.010761
0.012150
0.011775
0.011681
0.011631
0.010711
0.000312
0.010830
0.011115
0.009916
0.010038
0.000678
0.010121
0.000610
0.010357
0.006909
0.000542
0.006350
0.010673
0.004242
0.010347
0.000539
0.010534
0.001887
0.007902
0.010588
0.004584
0.000763
0.010183
0.010694
0.000557
0.010558
0.010520
0.009969
0.011325
0.002246
0.010554
0.010750
0.011024
0.000262
0.010584
0.010481
0.000253
0.011028
0.010605
0.003037
0.011036
0.000245
0.008989
0.010467
0.011041
0.001345
0.011048
0.007308
0.005556
0.011061
0.011089
0.000259
0.011133
0.000592
0.011185
0.010335
0.000291
0.007930
0.000291
0.011273
0.010272
0.009615
0.000329
0.005435
0.011417
0.010247
0.000391
0.003640
0.001145
0.000458
0.001464
0.010207
0.010229
0.010456
0.010329
0.010212
0.010194
0.010260
0.010109
0.010537
0.010602
0.010687
0.011014
0.010785
0.011068
0.010867
0.011074
0.011132
0.011350
0.011423
0.010994
0.011888
0.011376
0.012128
0.010678
0.010788
0.010688
0.003643
0.000894
0.010612
0.010495
0.003654
0.010541
0.009928
0.010623
0.010297
0.010836
0.000717
0.009981
0.005214
0.010538
0.010576
0.000860
0.001017
0.000509
0.009896
0.011073
0.000556
0.011110
0.009884
0.010571
0.006941
0.010235
0.009925
0.010930
0.010212
0.000557
0.009477
0.010581
0.010560
0.010676
0.000509
0.007878
0.010515
0.000611
0.010504
0.005593
0.004845
0.000616
0.010518
0.005803
0.010550
0.000539
0.000569
0.000690
0.010682
0.000520
0.002319
0.010034
0.010069
0.010471
0.010533
0.010537
0.000804
0.008439
0.006217
0.004024
0.010609
0.003422
0.002843
0.000559
0.001948
0.001289
0.009845
0.009896
0.009926
0.010053
0.010095
0.000548
0.009956
0.009689
0.010392
0.010164
0.010637
0.010324
0.011104
0.011698
0.010538
0.010450
0.010361
0.009852
0.011442
0.010957
0.010545
0.010605
0.010565
0.010572
0.010660
0.003090
0.001288
0.010898
0.010530
0.010488
0.010142
0.011092
0.009687
0.009799
0.009921
0.001010
0.009930
0.006138
0.000849
0.005705
0.010287
0.000779
0.001274
0.009838
0.002112
0.008498
0.000785
0.010257
0.003846
0.009700
0.009918
0.010813
0.000922
0.010405
0.001144
0.010255
0.007353
0.010539
0.010515
0.000632
0.010527
0.010167
0.009853
0.004999
0.010453
0.000825
0.009949
0.009441
0.010291
0.004065
0.010550
0.006789
0.008644
0.010416
0.000907
0.010449
0.003203
0.002587
0.001593
0.001756
0.010475
0.009980
0.000923
0.000938
0.009907
0.001097
0.009881
0.009935
0.009911
0.010097
0.010464
0.010270
0.009883
0.002885
0.011022
0.010035
0.011007
0.010469
0.009669
0.000509
0.010081
0.010096
0.010928
0.007428
0.011797
0.009878
0.011490
0.010771
0.010045
0.010724
0.010405
0.010493
0.010485
0.003292
0.002722
0.010315
0.010417
0.010499
0.010845
0.010464
0.010573
0.010462
0.011156
0.001569
0.001289
0.009358
0.001141
0.009994
0.009843
0.010098
0.003960
0.005436
0.010133
0.010047
0.000795
0.010022
0.010296
0.009725
0.010317
0.010363
0.009977
0.009781
0.001213
0.003602
0.001338
0.010520
0.010259
0.008030
0.002192
0.000812
0.001029
0.003219
0.009654
0.009713
0.000802
0.001784
0.005654
0.009929
0.010425
0.009902
0.008628
0.009722
0.009930
0.010607
0.010091
0.010557
0.010076
0.002552
0.001210
0.009804
0.009880
0.006748
0.009748
0.009701
0.001423
0.007422
0.010317
0.009820
0.010394
0.002996
0.008950
0.001095
0.000851
0.006271
0.009840
0.004434
0.002378
0.009888
0.010053
0.009960
0.004558
0.009670
0.000867
0.009813
0.009651
0.010021
0.000773
0.010673
0.010009
0.012144
0.010007
0.010600
0.010297
0.009970
0.010006
0.010384
0.010661
0.009950
0.010200
0.010224
0.000747
0.010365
0.010294
0.010076
0.010378
0.009811
0.010610
0.010355
0.009519
0.009588
0.009790
0.006597
0.009694
0.001029
0.009795
0.002831
0.007741
0.002001
0.009538
0.001013
0.009255
0.010199
0.001146
0.009711
0.010002
0.010314
0.009680
0.009304
0.000782
0.004376
0.004220
0.001097
0.001238
0.009599
0.010234
0.000997
0.009719
0.009891
0.010278
0.010187
0.009900
0.010439
0.010190
0.006017
0.001696
0.004871
0.009314
0.001777
0.002028
0.010028
0.001308
0.003408
0.000792
0.010254
0.009109
0.009909
0.009298
0.008832
0.002796
0.005121
0.001533
0.001404
0.009894
0.005485
0.009714
0.010269
0.007232
0.009311
0.010375
0.009500
0.009678
0.010148
0.009723
0.010309
0.009483
0.009840
0.010307
0.010404
0.003596
0.001340
0.010045
0.010786
0.009842
0.010594
0.009744
0.009710
0.009911
0.000979
0.001446
0.010263
0.009717
0.010419
0.010226
0.009763
0.010344
0.002543
0.010450
0.009922
0.010266
0.009629
0.007994
0.010095
0.009663
0.010316
0.010304
0.009747
0.009466
0.001724
0.008824
0.001363
0.009521
0.004261
0.002486
0.007628
0.005845
0.002296
0.000987
0.009812
0.009344
0.001547
0.007215
0.009170
0.009525
0.001065
0.008721
0.009473
0.002027
0.009545
0.009748
0.001074
0.010138
0.009959
0.009536
0.009541
0.009711
0.009592
0.009486
0.010070
0.009949
0.009553
0.009861
0.006675
0.009591
0.004864
0.010282
0.004608
0.008342
0.001892
0.010497
0.009190
0.001487
0.000578
0.001421
0.001170
0.009891
0.001721
0.010197
0.001186
0.010574
0.002587
0.003103
0.005985
0.003461
0.001069
0.003999
0.001648
0.010111
0.010281
0.010231
0.010206
0.009467
0.009749
0.009872
0.009477
0.008988
0.001407
0.009624
0.009444
0.000998
0.010241
0.009784
0.007836
0.010225
0.010189
0.009625
0.009571
0.009724
0.010255
0.009668
0.001571
0.010063
0.009709
0.010312
0.002286
0.010609
0.010218
0.009944
0.000994
0.010035
0.009515
0.010249
0.010407
0.002011
0.001220
0.003110
0.001206
0.001680
0.005994
0.000990
0.001157
0.009309
0.004414
0.009789
0.010038
0.001456
0.009930
0.008139
0.007772
0.010139
0.001845
0.001240
0.008914
0.001454
0.003183
0.001588
0.001983
0.009585
0.009975
0.010136
0.009353
0.009975
0.002443
0.009670
0.009806
0.010147
0.010091
0.009623
0.004803
0.009458
0.000792
0.008539
0.009355
0.008791
0.008634
0.008736
0.005284
0.009624
0.009437
0.009470
0.009387
0.001783
0.009968
0.001169
0.002217
0.001214
0.010325
0.003825
0.006584
0.008334
0.009540
0.002728
0.001679
0.001110
0.007123
0.009731
0.002191
0.009638
0.009833
0.010040
0.010104
0.009299
0.009398
0.009434
0.009368
0.009467
0.009520
0.009468
0.002248
0.009516
0.009600
0.008373
0.009778
0.010154
0.010208
0.009476
0.010272
0.010196
0.000278
0.009982
0.009581
0.010152
0.001424
0.010172
0.006463
0.009395
0.001325
0.010316
0.009234
0.002202
0.002440
0.008318
0.009277
0.009257
0.003831
0.006295
0.001393
0.009168
0.006037
0.008009
0.001140
0.009625
0.001147
0.000972
0.009669
0.009816
0.009330
0.000916
0.001910
0.010076
0.010063
0.002859
0.009021
0.008956
0.008167
0.001491
0.009394
0.009373
0.009289
0.009010
0.009303
0.005534
0.000606
0.009491
0.000976
0.008057
0.001470
0.010118
0.003406
0.002070
0.010042
0.010093
0.002552
0.009893
0.003852
0.010124
0.009431
0.001207
0.001912
0.010059
0.001306
0.009610
0.001351
0.001490
0.001905
0.009755
0.007126
0.002961
0.007547
0.009780
0.002697
0.010018
0.009846
0.005707
0.009599
0.009288
0.009433
0.009369
0.009522
0.009304
0.009249
0.009589
0.009447
0.006913
0.009743
0.009189
0.009402
0.010179
0.001671
0.009311
0.010111
0.010097
0.005050
0.001271
0.008532
0.008003
0.008442
0.009428
0.002254
0.008012
0.008872
0.003466
0.006152
0.001454
0.001902
0.007344
0.001299
0.007644
0.000919
0.008339
0.009114
0.009634
0.009715
0.001715
0.009857
0.004877
0.009987
0.009227
0.009278
0.002358
0.009530
0.001712
0.010017
0.005561
0.001568
0.009165
0.009450
0.001832
0.001290
0.009115
0.004137
0.009212
0.009275
0.009271
0.009220
0.009269
0.008520
0.002129
0.001766
0.003011
0.009981
0.001405
0.001326
0.002031
0.009444
0.002280
0.003501
0.009012
0.008256
0.000789
0.007495
0.009602
0.009346
0.002821
0.006521
0.010024
0.009921
0.000727
0.009643
0.009342
0.009585
0.009123
0.001613
0.010039
0.009278
0.009350
0.009959
0.009189
0.009999
0.009242
0.009343
0.009329
0.009583
0.000514
0.009477
0.008907
0.005496
0.010039
0.003064
0.010005
0.007627
0.009012
0.009148
0.000414
0.009197
0.009332
0.010073
0.009668
0.006706
0.001401
0.001137
0.010048
0.001685
0.009184
0.008987
0.002472
0.005570
0.008098
0.005940
0.001873
0.008870
0.007139
0.009068
0.001602
0.001652
0.001104
0.009871
0.001431
0.007149
0.009438
0.001271
0.001133
0.009716
0.008647
0.009523
0.002731
0.009161
0.008513
0.000754
0.002981
0.008715
0.001959
0.002435
0.009838
0.002172
0.009129
0.009089
0.009249
0.009086
0.009434
0.005258
0.004275
0.002361
0.009379
0.000482
0.007821
0.002148
0.003778
0.007892
0.009314
0.009032
0.009025
0.007048
0.001787
0.002547
0.009536
0.001763
0.002341
0.000984
0.003250
0.005987
0.001510
0.003413
0.008820
0.009904
0.009928
0.009570
0.009439
0.000675
0.009097
0.009964
0.010003
0.009982
0.009902
0.009144
0.001468
0.009152
0.002795
0.009065
0.009163
0.005081
0.009246
0.001506
0.009045
0.009140
0.009250
0.009993
0.001779
0.008995
0.008749
0.009185
0.001471
0.004569
0.000613
0.001393
0.009962
0.000178
0.001561
0.009399
0.009646
0.009937
0.009811
0.009264
0.006521
0.000958
0.007691
0.009230
0.008644
0.009947
0.010001
0.000442
0.009102
0.002886
0.002614
0.007727
0.005532
0.005727
0.008489
0.003437
0.002000
0.001714
0.002188
0.008868
0.006865
0.003469
0.007239
0.000930
0.009287
0.008267
0.008969
0.001107
0.004101
0.009067
0.002132
0.002776
0.001730
0.000486
0.000589
0.001995
0.009167
0.002825
0.002712
0.001629
0.007596
0.007358
0.002056
0.008308
0.000873
0.009467
0.006443
0.009791
0.009600
0.002664
0.009101
0.005157
0.009809
0.009334
0.009071
0.008986
0.008334
0.002103
0.001804
0.004738
0.003375
0.001273
0.006930
0.008426
0.009890
0.009297
0.009026
0.009950
0.009013
0.008953
0.009066
0.009510
0.008573
0.002625
0.008965
0.009073
0.000630
0.009843
0.009091
0.009102
0.008808
0.009939
0.009864
0.008964
0.008899
0.008928
0.007655
0.001482
0.002854
0.002426
0.009951
0.009719
0.009858
0.009488
0.001395
0.005148
0.009133
0.006332
0.009691
0.004428
0.009913
0.001406
0.009936
0.001268
0.008120
0.009533
0.009832
0.001542
0.003994
0.001875
0.000733
0.008797
0.009148
0.002958
0.002321
0.007366
0.009574
0.008187
0.006157
0.001946
0.001779
0.001687
0.008531
0.001567
0.007909
0.006855
0.005192
0.001374
0.008813
0.007764
0.003874
0.000597
0.008914
0.003234
0.002560
0.009397
0.003447
0.000663
0.004429
0.003160
0.002808
0.003691
0.006378
0.009710
0.001794
0.009521
0.007180
0.008697
0.002175
0.008108
0.002138
0.005947
0.009242
0.001983
0.002988
0.002041
0.001081
0.002528
0.002386
0.003789
0.008692
0.009359
0.008918
0.008970
0.005246
0.008586
0.000996
0.008857
0.009248
0.009774
0.009469
0.001670
0.009754
0.009680
0.003004
0.004762
0.008899
0.008926
0.008950
0.008867
0.002506
0.008751
0.008547
0.009020
0.009824
0.009900
0.002723
0.008940
0.008817
0.008611
0.006974
0.009861
0.009896
0.001527
0.007540
0.001276
0.006757
0.008846
0.006667
0.008707
0.004698
0.009864
0.008896
0.000457
0.009760
0.009322
0.009611
0.009510
0.009677
0.001761
0.009816
0.008771
0.001245
0.009774
0.009899
0.001207
0.009829
0.009428
0.003289
0.009455
0.005492
0.006998
0.003604
0.007890
0.008582
0.001909
0.002145
0.002551
0.006541
0.001257
0.004799
0.009273
0.002455
0.006642
0.000937
0.000889
0.009213
0.008766
0.001623
0.001215
0.008324
0.000613
0.009205
0.008252
0.001307
0.001900
0.008793
0.008776
0.000655
0.007749
0.009409
0.004799
0.001676
0.001702
0.005904
0.003151
0.002241
0.008296
0.009648
0.002153
0.008481
0.007427
0.004065
0.002309
0.009737
0.008438
0.009338
0.003108
0.002347
0.003270
0.009664
0.006443
0.002261
0.009596
0.009259
0.001112
0.009169
0.008855
0.002754
0.003162
0.002415
0.000470
0.003984
0.005680
0.004384
0.003013
0.009499
0.009300
0.001615
0.009737
0.009812
0.008771
0.008695
0.000766
0.008859
0.009274
0.009852
0.009574
0.009863
0.008865
0.009761
0.008889
0.003758
0.004406
0.001102
0.009788
0.002310
0.009755
0.008775
0.003218
0.001371
0.009403
0.009896
0.008730
0.009711
0.006280
0.008555
0.001495
0.009725
0.009776
0.002319
0.009835
0.009003
0.002911
0.009059
0.008718
0.009327
0.003242
0.003585
0.002594
0.005453
0.009690
0.007438
0.009374
0.009203
0.008343
0.002548
0.008542
0.002159
0.009070
0.001957
0.001814
0.008194
0.008473
0.009104
0.004403
0.001031
0.001462
0.008596
0.006260
0.000708
0.000753
0.008591
0.001192
0.003351
0.001299
0.008784
0.004316
0.005137
0.008584
0.000351
0.001371
0.003376
0.009435
0.008731
0.009553
0.009515
0.008867
0.003192
0.002382
0.002366
0.003689
0.003889
0.005091
0.001954
0.002980
0.002642
0.006082
0.009672
0.009637
0.003384
0.008662
0.001669
0.009781
0.008666
0.008298
0.001906
0.008203
0.009425
0.009215
0.009677
0.009798
0.008689
0.004135
0.009635
0.008737
0.009457
0.002930
0.001366
0.008416
0.009520
0.001618
0.001577
0.006598
0.009696
0.009799
0.008079
0.006016
0.001690
0.000548
0.002377
0.008670
0.002819
0.009611
0.000916
0.000781
0.009152
0.001578
0.002420
0.009541
0.009684
0.009730
0.009308
0.007949
0.000487
0.009760
0.004442
0.007105
0.007986
0.000728
0.002091
0.004112
0.003859
0.008526
0.003681
0.009177
0.002845
0.004196
0.006789
0.004088
0.006267
0.002479
0.007719
0.008332
0.009642
0.003181
0.002270
0.006414
0.002403
0.009278
0.009567
0.003158
0.008959
0.001242
0.001805
0.002052
0.001703
0.008524
0.000609
0.001658
0.004435
0.008997
0.001020
0.001386
0.008943
0.000897
0.001994
0.008139
0.000656
0.000403
0.009473
0.008531
0.002078
0.003528
0.008030
0.007132
0.009607
0.008119
0.007433
0.002741
0.009223
0.003392
0.004731
0.009550
0.009231
0.009059
0.001120
0.008560
0.000279
0.003304
0.002561
0.001829
0.009331
0.009009
0.003667
0.005603
0.009302
0.002181
0.008423
0.004588
0.001824
0.003849
0.008605
0.008432
0.009757
0.007760
0.004830
0.009594
0.008176
0.008113
0.009000
0.009665
0.008662
0.009712
0.009104
0.000815
0.009359
0.001502
0.009654
0.001709
0.008501
0.006915
0.007870
0.009788
0.008664
0.009658
0.009445
0.002501
0.000918
0.005954
0.003533
0.008699
0.001772
0.005170
0.002620
0.004696
0.001460
0.008927
0.009750
0.009679
0.009326
0.009422
0.001549
0.002041
0.009524
0.001541
0.008306
0.000419
0.008019
0.005670
0.002707
0.008964
0.001706
0.009859
0.008413
0.003558
0.005948
0.006847
0.003180
0.008127
0.002525
0.009201
0.002121
0.009302
0.001936
0.007652
0.007864
0.003028
0.001819
0.009444
0.003818
0.009520
0.008951
0.004808
0.000824
0.006797
0.009183
0.001783
0.002812
0.008846
0.008758
0.003713
0.001531
0.008388
0.006686
0.000267
0.009651
0.002242
0.001737
0.001005
0.009592
0.000689
0.001362
0.002646
0.002864
0.000359
0.001218
0.008249
0.008282
0.008567
0.001649
0.004496
0.004878
0.004019
0.004095
0.009400
0.008042
0.006222
0.009587
0.008915
0.003595
0.000767
0.007145
0.008971
0.004329
0.009068
0.001769
0.005060
0.001340
0.001975
0.005635
0.001840
0.003622
0.000441
0.000533
0.005222
0.009228