# vtk DataFile Version 2.0
Test
ASCII
DATASET POLYDATA
POINTS 7341 float
0.000000 0.000000 0.000000
1.000000 0.000000 0.000000
1.000000 1.000000 0.000000
0.000000 1.000000 0.000000
0.000000 0.500000 0.000000
0.500000 0.500000 0.000000
1.000000 0.500000 0.000000
0.499000 0.499000 0.000000
0.900000 0.010000 0.000000
0.029412 0.000000 0.000000
0.058824 0.000000 0.000000
0.088235 0.000000 0.000000
0.117647 0.000000 0.000000
0.147059 0.000000 0.000000
0.176471 0.000000 0.000000
0.205882 0.000000 0.000000
0.235294 0.000000 0.000000
0.264706 0.000000 0.000000
0.294118 0.000000 0.000000
0.323529 0.000000 0.000000
0.352941 0.000000 0.000000
0.382353 0.000000 0.000000
0.411765 0.000000 0.000000
0.441176 0.000000 0.000000
0.470588 0.000000 0.000000
0.500000 0.000000 0.000000
0.529412 0.000000 0.000000
0.558824 0.000000 0.000000
0.588235 0.000000 0.000000
0.617647 0.000000 0.000000
0.647059 0.000000 0.000000
0.676471 0.000000 0.000000
0.705882 0.000000 0.000000
0.735294 0.000000 0.000000
0.764706 0.000000 0.000000
0.794118 0.000000 0.000000
0.823529 0.000000 0.000000
0.852941 0.000000 0.000000
0.882353 0.000000 0.000000
0.911765 0.000000 0.000000
0.941176 0.000000 0.000000
0.970588 0.000000 0.000000
1.000000 0.029412 0.000000
1.000000 0.058824 0.000000
1.000000 0.088235 0.000000
1.000000 0.117647 0.000000
1.000000 0.147059 0.000000
1.000000 0.176471 0.000000
1.000000 0.205882 0.000000
1.000000 0.235294 0.000000
1.000000 0.264706 0.000000
1.000000 0.294118 0.000000
1.000000 0.323529 0.000000
1.000000 0.352941 0.000000
1.000000 0.382353 0.000000
1.000000 0.411765 0.000000
1.000000 0.441176 0.000000
1.000000 0.470588 0.000000
1.000000 0.529412 0.000000
1.000000 0.558824 0.000000
1.000000 0.588235 0.000000
1.000000 0.617647 0.000000
1.000000 0.647059 0.000000
1.000000 0.676471 0.000000
1.000000 0.705882 0.000000
1.000000 0.735294 0.000000
1.000000 0.764706 0.000000
1.000000 0.794118 0.000000
1.000000 0.823529 0.000000
1.000000 0.852941 0.000000
1.000000 0.882353 0.000000
1.000000 0.911765 0.000000
1.000000 0.941176 0.000000
1.000000 0.970588 0.000000
0.970588 1.000000 0.000000
0.941176 1.000000 0.000000
0.911765 1.000000 0.000000
0.882353 1.000000 0.000000
0.852941 1.000000 0.000000
0.823529 1.000000 0.000000
0.794118 1.000000 0.000000
0.764706 1.000000 0.000000
0.735294 1.000000 0.000000
0.705882 1.000000 0.000000
0.676471 1.000000 0.000000
0.647059 1.000000 0.000000
0.617647 1.000000 0.000000
0.588235 1.000000 0.000000
0.558824 1.000000 0.000000
0.529412 1.000000 0.000000
0.500000 1.000000 0.000000
0.470588 1.000000 0.000000
0.441176 1.000000 0.000000
0.411765 1.000000 0.000000
0.382353 1.000000 0.000000
0.352941 1.000000 0.000000
0.323529 1.000000 0.000000
0.294118 1.000000 0.000000
0.264706 1.000000 0.000000
0.235294 1.000000 0.000000
0.205882 1.000000 0.000000
0.176471 1.000000 0.000000
0.147059 1.000000 0.000000
0.117647 1.000000 0.000000
0.088235 1.000000 0.000000
0.058824 1.000000 0.000000
0.029412 1.000000 0.000000
0.000000 0.970588 0.000000
0.000000 0.941176 0.000000
0.000000 0.911765 0.000000
0.000000 0.882353 0.000000
0.000000 0.852941 0.000000
0.000000 0.823529 0.000000
0.000000 0.794118 0.000000
0.000000 0.764706 0.000000
0.000000 0.735294 0.000000
0.000000 0.705882 0.000000
0.000000 0.676471 0.000000
0.000000 0.647059 0.000000
0.000000 0.617647 0.000000
0.000000 0.588235 0.000000
0.000000 0.558824 0.000000
0.000000 0.529412 0.000000
0.007246 0.500000 0.000000
0.014493 0.500000 0.000000
0.021739 0.500000 0.000000
0.028986 0.500000 0.000000
0.036232 0.500000 0.000000
0.043478 0.500000 0.000000
0.050725 0.500000 0.000000
0.057971 0.500000 0.000000
0.065217 0.500000 0.000000
0.072464 0.500000 0.000000
0.079710 0.500000 0.000000
0.086957 0.500000 0.000000
0.094203 0.500000 0.000000
0.101449 0.500000 0.000000
0.108696 0.500000 0.000000
0.115942 0.500000 0.000000
0.123188 0.500000 0.000000
0.130435 0.500000 0.000000
0.137681 0.500000 0.000000
0.144928 0.500000 0.000000
0.152174 0.500000 0.000000
0.159420 0.500000 0.000000
0.166667 0.500000 0.000000
0.173913 0.500000 0.000000
0.181159 0.500000 0.000000
0.188406 0.500000 0.000000
0.195652 0.500000 0.000000
0.202899 0.500000 0.000000
0.210145 0.500000 0.000000
0.217391 0.500000 0.000000
0.224638 0.500000 0.000000
0.231884 0.500000 0.000000
0.239130 0.500000 0.000000
0.246377 0.500000 0.000000
0.253623 0.500000 0.000000
0.260870 0.500000 0.000000
0.268116 0.500000 0.000000
0.275362 0.500000 0.000000
0.282609 0.500000 0.000000
0.289855 0.500000 0.000000
0.297101 0.500000 0.000000
0.304348 0.500000 0.000000
0.311594 0.500000 0.000000
0.318841 0.500000 0.000000
0.326087 0.500000 0.000000
0.333333 0.500000 0.000000
0.340580 0.500000 0.000000
0.347826 0.500000 0.000000
0.355072 0.500000 0.000000
0.362319 0.500000 0.000000
0.369565 0.500000 0.000000
0.376812 0.500000 0.000000
0.384058 0.500000 0.000000
0.391304 0.500000 0.000000
0.398551 0.500000 0.000000
0.405797 0.500000 0.000000
0.413043 0.500000 0.000000
0.420290 0.500000 0.000000
0.427536 0.500000 0.000000
0.434783 0.500000 0.000000
0.442029 0.500000 0.000000
0.449275 0.500000 0.000000
0.456522 0.500000 0.000000
0.463768 0.500000 0.000000
0.471014 0.500000 0.000000
0.478261 0.500000 0.000000
0.485507 0.500000 0.000000
0.492754 0.500000 0.000000
0.510004 0.500000 0.000000
0.520408 0.500000 0.000000
0.531229 0.500000 0.000000
0.542483 0.500000 0.000000
0.554187 0.500000 0.000000
0.566359 0.500000 0.000000
0.579019 0.500000 0.000000
0.592185 0.500000 0.000000
0.605877 0.500000 0.000000
0.620118 0.500000 0.000000
0.634929 0.500000 0.000000
0.650332 0.500000 0.000000
0.666352 0.500000 0.000000
0.683013 0.500000 0.000000
0.700340 0.500000 0.000000
0.718361 0.500000 0.000000
0.737103 0.500000 0.000000
0.756595 0.500000 0.000000
0.776867 0.500000 0.000000
0.797950 0.500000 0.000000
0.819877 0.500000 0.000000
0.842681 0.500000 0.000000
0.866398 0.500000 0.000000
0.891064 0.500000 0.000000
0.916716 0.500000 0.000000
0.943396 0.500000 0.000000
0.971143 0.500000 0.000000
0.000000 0.470588 0.000000
0.000000 0.441176 0.000000
0.000000 0.411765 0.000000
0.000000 0.382353 0.000000
0.000000 0.352941 0.000000
0.000000 0.323529 0.000000
0.000000 0.294118 0.000000
0.000000 0.264706 0.000000
0.000000 0.235294 0.000000
0.000000 0.205882 0.000000
0.000000 0.176471 0.000000
0.000000 0.147059 0.000000
0.000000 0.117647 0.000000
0.000000 0.088235 0.000000
0.000000 0.058824 0.000000
0.000000 0.029412 0.000000
0.500341 0.497365 0.000000
0.501682 0.495729 0.000000
0.503023 0.494094 0.000000
0.504365 0.492458 0.000000
0.505706 0.490823 0.000000
0.507047 0.489187 0.000000
0.508388 0.487552 0.000000
0.509729 0.485916 0.000000
0.511070 0.484281 0.000000
0.512411 0.482645 0.000000
0.513753 0.481010 0.000000
0.515094 0.479375 0.000000
0.516435 0.477739 0.000000
0.517776 0.476104 0.000000
0.519117 0.474468 0.000000
0.520458 0.472833 0.000000
0.521799 0.471197 0.000000
0.523140 0.469562 0.000000
0.524482 0.467926 0.000000
0.525823 0.466291 0.000000
0.527164 0.464656 0.000000
0.528505 0.463020 0.000000
0.529846 0.461385 0.000000
0.531187 0.459749 0.000000
0.532528 0.458114 0.000000
0.533870 0.456478 0.000000
0.535211 0.454843 0.000000
0.536552 0.453207 0.000000
0.537893 0.451572 0.000000
0.539234 0.449936 0.000000
0.540575 0.448301 0.000000
0.541916 0.446666 0.000000
0.543258 0.445030 0.000000
0.544599 0.443395 0.000000
0.545940 0.441759 0.000000
0.547281 0.440124 0.000000
0.548622 0.438488 0.000000
0.549963 0.436853 0.000000
0.551304 0.435217 0.000000
0.552645 0.433582 0.000000
0.553987 0.431946 0.000000
0.555328 0.430311 0.000000
0.556669 0.428676 0.000000
0.558010 0.427040 0.000000
0.559351 0.425405 0.000000
0.560692 0.423769 0.000000
0.562033 0.422134 0.000000
0.563375 0.420498 0.000000
0.564716 0.418863 0.000000
0.566057 0.417227 0.000000
0.567398 0.415592 0.000000
0.568739 0.413957 0.000000
0.570080 0.412321 0.000000
0.571421 0.410686 0.000000
0.572763 0.409050 0.000000
0.574104 0.407415 0.000000
0.575445 0.405779 0.000000
0.576786 0.404144 0.000000
0.578127 0.402508 0.000000
0.579468 0.400873 0.000000
0.580809 0.399237 0.000000
0.582151 0.397602 0.000000
0.583492 0.395967 0.000000
0.584833 0.394331 0.000000
0.586174 0.392696 0.000000
0.587515 0.391060 0.000000
0.588856 0.389425 0.000000
0.590197 0.387789 0.000000
0.591538 0.386154 0.000000
0.592880 0.384518 0.000000
0.594221 0.382883 0.000000
0.595562 0.381247 0.000000
0.596903 0.379612 0.000000
0.598244 0.377977 0.000000
0.599585 0.376341 0.000000
0.600926 0.374706 0.000000
0.602268 0.373070 0.000000
0.603609 0.371435 0.000000
0.604950 0.369799 0.000000
0.606291 0.368164 0.000000
0.607632 0.366528 0.000000
0.608973 0.364893 0.000000
0.610314 0.363258 0.000000
0.611656 0.361622 0.000000
0.612997 0.359987 0.000000
0.614338 0.358351 0.000000
0.615679 0.356716 0.000000
0.617020 0.355080 0.000000
0.618361 0.353445 0.000000
0.619702 0.351809 0.000000
0.621043 0.350174 0.000000
0.622385 0.348538 0.000000
0.623726 0.346903 0.000000
0.625067 0.345268 0.000000
0.626408 0.343632 0.000000
0.627749 0.341997 0.000000
0.629090 0.340361 0.000000
0.630431 0.338726 0.000000
0.631773 0.337090 0.000000
0.633114 0.335455 0.000000
0.634455 0.333819 0.000000
0.635796 0.332184 0.000000
0.637137 0.330548 0.000000
0.638478 0.328913 0.000000
0.639819 0.327278 0.000000
0.641161 0.325642 0.000000
0.642502 0.324007 0.000000
0.643843 0.322371 0.000000
0.645184 0.320736 0.000000
0.646525 0.319100 0.000000
0.647866 0.317465 0.000000
0.649207 0.315829 0.000000
0.650548 0.314194 0.000000
0.651890 0.312559 0.000000
0.653231 0.310923 0.000000
0.654572 0.309288 0.000000
0.655913 0.307652 0.000000
0.657254 0.306017 0.000000
0.658595 0.304381 0.000000
0.659936 0.302746 0.000000
0.661278 0.301110 0.000000
0.662619 0.299475 0.000000
0.663960 0.297839 0.000000
0.665301 0.296204 0.000000
0.666642 0.294569 0.000000
0.667983 0.292933 0.000000
0.669324 0.291298 0.000000
0.670666 0.289662 0.000000
0.672007 0.288027 0.000000
0.673348 0.286391 0.000000
0.674689 0.284756 0.000000
0.676030 0.283120 0.000000
0.677371 0.281485 0.000000
[...]
POINT_DATA 7341
SCALARS UX float 1
LOOKUP_TABLE default
0.000000
0.000000
0.270500
0.270500
0.040782
0.051055
0.159521
0.050673
0.000722
-0.000000
0.000000
0.000000
0.000000
0.000000
0.000000
0.000000
0.000000
0.000000
0.000000
0.000000
0.000000
0.000000
0.000000
0.000000
0.000000
0.000000
0.000000
0.000000
0.000000
0.000000
0.000000
0.000000
0.000000
0.000000
0.000000
0.000000
0.000000
0.000000
0.000000
0.000000
0.000000
-0.000000
0.007460
0.020406
0.029935
0.037579
0.043687
0.049379
0.054275
0.065941
0.073946
0.079157
0.090664
0.101587
0.111484
0.124412
0.134107
0.147458
0.169007
0.177393
0.185579
0.192589
0.198850
0.205400
0.212108
0.218617
0.224828
0.230913
0.236894
0.242768
0.248534
0.254169
0.259716
0.265142
0.270500
0.270500
0.270500
0.270500
0.270500
0.270500
0.270500
0.270500
0.270500
0.270500
0.270500
0.270500
0.270500
0.270500
0.270500
0.270500
0.270500
0.270500
0.270500
0.270500
0.270500
0.270500
0.270500
0.270500
0.270500
0.270500
0.270500
0.270500
0.270500
0.270500
0.270500
0.270500
0.270500
0.256327
0.242102
0.227823
0.213352
0.198765
0.183914
0.168916
0.153882
0.139032
0.124346
0.110460
0.097293
0.085070
0.074092
0.064214
0.055039
0.040457
0.040130
0.039865
0.039640
0.039330
0.039010
0.038735
0.038481
0.038356
0.038139
0.037907
0.037805
0.037730
0.037594
0.037486
0.037420
0.037373
0.039131
0.039077
0.039111
0.039226
0.039334
0.039420
0.039505
0.039613
0.045311
0.045586
0.039344
0.039968
0.040191
0.040320
0.042200
0.045230
0.039774
0.039925
0.040118
0.041364
0.041512
0.044058
0.044030
0.043923
0.043914
0.043941
0.043962
0.043900
0.043776
0.043664
0.043616
0.043566
0.043592
0.043641
0.043742
0.043916
0.044108
0.044321
0.044604
0.044888
0.045225
0.045591
0.045988
0.046398
0.046875
0.047372
0.047896
0.048428
0.049021
0.049610
0.050313
0.052164
0.053476
0.054943
0.056516
0.058196
0.059981
0.061856
0.063879
0.066006
0.068311
0.070711
0.073198
0.075827
0.078608
0.082069
0.085947
0.090395
0.095500
0.101290
0.107779
0.113431
0.117987
0.123090
0.129554
0.136632
0.144190
0.151570
0.034640
0.031386
0.028081
0.025191
0.022947
0.020562
0.018599
0.016604
0.014711
0.013160
0.011994
0.010482
0.009461
0.008512
0.007383
0.005724
0.050301
0.049927
0.049592
0.049257
0.048929
0.048607
0.048287
0.047975
0.047663
0.047356
0.047056
0.046758
0.046464
0.046172
0.045879
0.045587
0.045296
0.045008
0.044721
0.044434
0.044148
0.043863
0.043579
0.043295
0.043010
0.042727
0.042445
0.042165
0.041886
0.041609
0.041331
0.041055
0.040781
0.040507
0.040233
0.039963
0.039695
0.039428
0.039165
0.038906
0.038649
0.038397
0.038148
0.037906
0.037667
0.037431
0.037201
0.036975
0.036754
0.036535
0.036320
0.036108
0.035901
0.035699
0.035492
0.035266
0.035036
0.034808
0.034579
0.034351
0.034124
0.033899
0.033677
0.033457
0.033241
0.033028
0.032819
0.032613
0.032411
0.032213
0.032019
0.031828
0.031643
0.031461
0.031280
0.031094
0.030893
0.030684
0.030474
0.030263
0.030053
0.029844
0.029638
0.029434
0.029233
0.029036
0.028843
0.028654
0.028468
0.028287
0.028109
0.027939
0.027776
0.027618
0.027467
0.027325
0.027194
0.027068
0.026952
0.026841
0.026738
0.026644
0.026556
0.026477
0.026404
0.026338
0.026281
0.026231
0.026187
0.026149
0.026115
0.026084
0.026055
0.026030
0.026010
0.025996
0.025979
0.025931
0.025729
0.025503
0.025265
0.025022
0.024778
0.024537
0.024298
0.024061
0.023826
0.023595
0.023367
0.023142
0.022921
0.022703
0.022488
0.022276
0.022066
0.021859
0.021655
0.021452
0.021252
0.021053
0.020858
0.020664
0.020473
0.020283
0.020094
0.019906
0.019717
0.019530
0.019342
0.019155
0.018968
0.018781
0.018594
0.018405
0.018217
0.018028
0.017838
0.017647
0.017455
0.017263
0.017069
0.016874
0.016677
0.016479
0.016279
0.016078
0.015878
0.015676
0.015473
0.015270
0.015064
0.014859
0.014652
0.014445
0.014237
0.014029
0.013820
0.013611
0.013402
0.013193
0.012984
0.012775
0.012567
0.012359
0.012152
0.011946
0.011740
0.011535
0.011332
0.011129
0.010929
0.010729
0.010531
0.010335
0.010140
0.009947
0.009756
0.009568
0.009381
0.009197
0.009014
0.008834
0.008656
0.008482
0.008310
0.008140
0.007973
0.007810
0.007648
0.007489
0.007333
0.007181
0.007031
0.006884
0.006741
0.006601
0.006465
0.006332
0.006202
0.006075
0.005953
0.005833
0.005716
0.005603
0.005494
0.005387
0.005284
0.005184
0.005086
0.004993
0.004902
0.004815
0.004731
0.004648
0.004568
0.004491
0.004416
0.004345
0.004276
0.004209
0.004145
0.004083
0.004024
0.003968
0.003914
0.003863
0.003815
0.003769
0.003726
0.003686
0.003648
0.003611
0.003577
0.003543
0.003511
0.003478
0.003444
0.003412
0.003380
0.003347
0.003314
0.003281
0.003247
0.003212
0.003175
0.003138
0.003099
0.003058
0.003014
0.002969
0.002920
0.002870
0.002817
0.002764
0.002708
0.002644
0.002577
0.002507
0.002436
0.002359
0.002281
0.002200
0.002119
0.002037
0.001957
0.001877
0.001792
0.001709
0.001625
0.001538
0.001444
0.001352
0.001260
0.001169
0.001080
0.000992
0.000903
0.000815
0.034172
0.041845
0.041842
0.000479
0.000721
0.104176
0.000614
0.084202
0.035125
0.071475
0.070470
0.000262
0.017450
0.035218
0.042397
0.012048
0.061564
0.000153
0.000930
0.043103
0.020601
0.036089
0.056561
0.008124
0.044552
0.026522
0.037201
0.104274
0.119898
0.046003
0.002659
0.037320
0.041845
0.035007
0.035249
0.000671
0.051557
0.005151
0.047063
0.000560
0.041552
0.041780
0.042032
0.035782
0.002235
0.049495
0.001685
0.047858
0.033510
0.038322
0.000541
0.053211
0.029129
0.024119
0.000118
0.057783
0.065856
0.021770
0.075736
0.094499
0.048844
0.057298
0.000305
0.000424
0.043680
0.045118
0.015594
0.127276
0.133215
0.000697
0.108337
0.000759
0.082644
0.000481
0.042478
0.010863
0.000553
0.140101
0.007374
0.003144
0.005958
0.003503
0.003843
0.041648
0.034274
0.033911
0.041702
0.041852
0.041791
0.035273
0.035485
0.035113
0.034942
0.034871
0.034857
0.035195
0.037795
0.036870
0.036689
0.036464
0.048975
0.001320
0.049378
0.049956
0.040111
0.039423
0.001107
0.043316
0.001596
0.033356
0.074281
0.000976
0.016284
0.033506
0.044161
0.046072
0.000509
0.095771
0.015647
0.021501
0.053304
0.011261
0.001064
0.032807
0.048740
0.001322
0.047814
0.049114
0.039680
0.035055
0.006543
0.121836
0.048573
0.051373
0.000919
0.033401
0.031713
0.000200
0.055122
0.046969
0.037192
0.059913
0.000148
0.025394
0.045632
0.063953
0.009845
0.068344
0.019838
0.063960
0.073339
0.080396
0.000506
0.089805
0.001484
0.100438
0.044248
0.000753
0.093268
0.000579
0.113461
0.043434
0.114260
0.000437
0.013841
0.127284
0.042792
0.000712
0.009373
0.004456
0.002096
0.005486
0.042255
0.041932
0.035062
0.040691
0.041228
0.041516
0.041701
0.041364
0.033856
0.035108
0.034918
0.034802
0.034582
0.034817
0.049462
0.050280
0.034874
0.035591
0.035741
0.050653
0.037080
0.035198
0.037536
0.048546
0.049078
0.048600
0.038975
0.002328
0.081826
0.068259
0.034432
0.059732
0.041088
0.052532
0.045152
0.033779
0.000970
0.041853
0.012837
0.105145
0.117885
0.001596
0.003960
0.001596
0.040483
0.033395
0.000683
0.034300
0.040067
0.047920
0.018195
0.033257
0.039048
0.034011
0.044261
0.000866
0.107800
0.056484
0.054108
0.033215
0.000518
0.087302
0.063664
0.001549
0.089198
0.058670
0.050865
0.001202
0.073151
0.014764
0.047724
0.001153
0.001331
0.000981
0.048843
0.000514
0.022824
0.042496
0.042872
0.047315
0.099919
0.092426
0.001264
0.023398
0.065547
0.009961
0.048187
0.008525
0.007413
0.001123
0.005802
0.004974
0.040006
0.039886
0.039868
0.039277
0.037318
0.000557
0.039756
0.028199
0.031041
0.033763
0.051818
0.033318
0.034026
0.036024
0.033261
0.033331
0.033048
0.039735
0.035311
0.033844
0.047979
0.048214
0.048011
0.033128
0.049242
0.033140
0.008435
0.049858
0.047649
0.047218
0.043640
0.050523
0.038815
0.037240
0.041757
0.001854
0.082354
0.060761
0.001919
0.014211
0.032097
0.001076
0.002146
0.092412
0.016387
0.023399
0.001062
0.050766
0.009288
0.038384
0.033902
0.032763
0.002350
0.032081
0.001649
0.045063
0.075334
0.057950
0.061737
0.001443
0.066343
0.044099
0.041062
0.012082
0.076476
0.001720
0.041446
0.026994
0.050097
0.037449
0.111204
0.017489
0.097111
0.046920
0.002660
0.047282
0.007879
0.006754
0.004819
0.005266
0.070363
0.041975
0.002293
0.002441
0.040738
0.001637
0.040151
0.039787
0.085024
0.035358
0.033127
0.033275
0.039663
0.025383
0.033081
0.038810
0.033915
0.047269
0.038354
0.000626
0.032178
0.031957
0.032980
0.019963
0.036191
0.029441
0.035323
0.033327
0.043028
0.048625
0.047004
0.047493
0.047596
0.031756
0.029564
0.032002
0.047005
0.084333
0.033410
0.047226
0.049065
0.046871
0.051094
0.002439
0.003042
0.075482
0.002755
0.063981
0.031135
0.058428
0.033745
0.013324
0.053319
0.030971
0.001137
0.048231
0.049306
0.037607
0.046298
0.046543
0.069037
0.040217
0.003215
0.008633
0.002579
0.032140
0.051716
0.021730
0.005793
0.001889
0.002083
0.027120
0.038426
0.037969
0.001041
0.012847
0.055936
0.032934
0.047765
0.036006
0.091870
0.102515
0.059212
0.032342
0.031709
0.048205
0.054651
0.023392
0.001822
0.040550
0.088251
0.068359
0.039753
0.039052
0.003855
0.019679
0.046432
0.097733
0.031757
0.007361
0.025100
0.001829
0.001679
0.015909
0.078806
0.010753
0.006226
0.041383
0.043380
0.042178
0.043371
0.037983
0.002112
0.037108
0.038075
0.076539
0.001194
0.031950
0.042882
0.037273
0.039487
0.047456
0.045896
0.032158
0.032030
0.046731
0.031797
0.029102
0.031891
0.030202
0.000934
0.046702
0.031717
0.056451
0.047736
0.034639
0.031958
0.046533
0.037414
0.035253
0.040751
0.063140
0.054939
0.001754
0.050196
0.021124
0.020632
0.013497
0.036864
0.001728
0.081598
0.030689
0.002662
0.033239
0.047293
0.047730
0.039512
0.026384
0.001259
0.038346
0.010143
0.002749
0.003286
0.038498
0.048129
0.001543
0.051488
0.030585
0.045932
0.044895
0.065273
0.031027
0.030917
0.015078
0.002672
0.011687
0.078386
0.003090
0.005367
0.062542
0.003349
0.008169
0.001394
0.046575
0.090015
0.071960
0.072556
0.024561
0.006924
0.049433
0.002432
0.002560
0.041764
0.050465
0.039904
0.046032
0.018888
0.100306
0.046631
0.037125
0.037853
0.031908
0.039387
0.030426
0.036624
0.030890
0.046255
0.047197
0.029698
0.002844
0.030705
0.049642
0.037108
0.032050
0.037531
0.037723
0.042193
0.002246
0.009007
0.052781
0.053250
0.047463
0.032881
0.037237
0.045853
0.019075
0.030983
0.109978
0.046184
0.038912
0.084855
0.043856
0.035313
0.046224
0.046217
0.031186
0.037343
0.003532
0.067424
0.003473
0.059869
0.033845
0.016047
0.020219
0.014579
0.004246
0.001750
0.046242
0.035788
0.004192
0.069770
0.025867
0.035498
0.001999
0.072104
0.065117
0.003349
0.035065
0.040477
0.002295
0.044622
0.042728
0.036191
0.037733
0.032199
0.057834
0.036890
0.029526
0.049285
0.038437
0.030728
0.017048
0.035143
0.042810
0.030795
0.011031
0.022731
0.004204
0.050118
0.085682
0.002465
0.000862
0.007966
0.002936
0.049941
0.010934
0.046500
0.003092
0.049940
0.006517
0.021996
0.055672
0.025264
0.001801
0.009592
0.003956
0.044128
0.046541
0.045505
0.045367
0.071234
0.040286
0.041712
0.036076
0.092500
0.002770
0.030376
0.036102
0.001600
0.045693
0.029701
0.078884
0.045811
0.045667
0.033830
0.038115
0.031683
0.030348
0.038468
0.011671
0.030529
0.028048
0.046664
0.016788
0.055397
0.045590
0.032398
0.001911
0.046914
0.037941
0.045706
0.046011
0.005013
0.002670
0.019810
0.002211
0.009414
0.052986
0.001897
0.006093
0.034946
0.010626
0.045567
0.046378
0.003947
0.029362
0.021987
0.075080
0.046405
0.003304
0.002418
0.066403
0.003731
0.007710
0.004370
0.003314
0.038826
0.042993
0.045174
0.035018
0.029185
0.005831
0.047252
0.046764
0.044915
0.044370
0.048145
0.038804
0.062248
0.001450
0.078810
0.036422
0.069733
0.075159
0.024184
0.012901
0.029243
0.033555
0.032270
0.033373
0.003413
0.029802
0.002262
0.003882
0.002237
0.048326
0.029211
0.059915
0.080416
0.035323
0.017411
0.003671
0.006380
0.018520
0.040428
0.013751
0.039409
0.041605
0.043678
0.045629
0.035219
0.067337
0.036925
0.036132
0.035737
0.030906
0.030240
0.004646
0.035698
0.029888
0.084653
0.029391
0.045186
0.046105
0.036683
0.030540
0.045323
0.000336
0.048724
0.058901
0.045482
0.003751
0.045085
0.016403
0.036928
0.002918
0.046883
0.035430
0.004160
0.004249
0.062308
0.055021
0.029954
0.026708
0.015996
0.002865
0.034151
0.051132
0.021597
0.005638
0.044836
0.002305
0.002000
0.028373
0.045277
0.033444
0.004525
0.005356
0.044631
0.044180
0.006340
0.058666
0.064148
0.066599
0.003657
0.029480
0.034460
0.032624
0.025319
0.035021
0.047904
0.001089
0.038067
0.006137
0.069726
0.003966
0.044778
0.022197
0.004398
0.045435
0.044445
0.004551
0.028971
0.009309
0.046617
0.037389
0.002276
0.011334
0.044976
0.002594
0.029546
0.003256
0.004071
0.003231
0.047048
0.065598
0.007146
0.020010
0.041002
0.005055
0.043602
0.041842
0.014273
0.039165
0.034133
0.033328
0.033118
0.028429
0.035829
0.034169
0.027575
0.031243
0.017934
0.028968
0.055343
0.036527
0.047363
0.004587
0.035204
0.045265
0.044986
0.012337
0.002589
0.023487
0.072464
0.061691
0.037626
0.006040
0.057274
0.050821
0.020893
0.015720
0.003204
0.010022
0.019480
0.002783
0.061993
0.004293
0.022924
0.033014
0.044451
0.040541
0.004831
0.045167
0.011990
0.043484
0.034789
0.035957
0.004127
0.045335
0.004677
0.045504
0.045869
0.003838
0.033106
0.027602
0.005184
0.006577
0.055865
0.029906
0.053194
0.031125
0.032217
0.031881
0.035393
0.060590
0.004263
0.004989
0.005686
0.043404
0.002924
0.002774
0.004560
0.027076
0.004076
0.008519
0.061570
0.064391
0.001633
0.064459
0.045174
0.028454
0.005737
0.056739
0.044607
0.042637
0.003661
0.039767
0.028842
0.039145
0.033612
0.004227
0.044047
0.033746
0.028012
0.045488
0.034906
0.044950
0.029327
0.033320
0.033711
0.027788
0.002465
0.027964
0.025061
0.013810
0.044452
0.017660
0.044684
0.070004
0.056324
0.033709
0.000919
0.030322
0.036604
0.044904
0.044242
0.017439
0.002911
0.002405
0.044308
0.008514
0.035243
0.032496
0.005146
0.043932
0.056703
0.015259
0.005245
0.049574
0.019017
0.027679
0.003689
0.007262
0.005186
0.042426
0.003244
0.057640
0.043365
0.002800
0.002561
0.040657
0.053356
0.043186
0.004980
0.031761
0.057945
0.003537
0.005485
0.024506
0.005690
0.013870
0.044705
0.006344
0.031944
0.034131
0.027220
0.030821
0.045239
0.013300
0.010414
0.005419
0.043486
0.002406
0.021079
0.011512
0.024269
0.058410
0.026796
0.030191
0.028829
0.061834
0.005083
0.005036
0.055776
0.004714
0.005723
0.002220
0.006556
0.048446
0.003368
0.007826
0.051684
0.042608
0.044687
0.039231
0.037852
0.003262
0.032178
0.043339
0.044314
0.044399
0.044064
0.034368
0.007046
0.031283
0.015266
0.027238
0.033681
0.040544
0.031766
0.003484
0.032136
0.028419
0.026380
0.043982
0.005045
0.032201
0.052428
0.026668
0.007799
0.037529
0.001314
0.002953
0.045292
0.000396
0.003556
0.059867
0.043723
0.044584
0.041643
0.036116
0.017038
0.004397
0.059519
0.034921
0.056117
0.044316
0.043819
0.001161
0.034674
0.005944
0.006648
0.052906
0.041680
0.014798
0.048526
0.019184
0.005730
0.004236
0.010735
0.027233
0.018333
0.006861
0.055725
0.004118
0.042229
0.050682
0.031161
0.002630
0.027814
0.033387
0.006273
0.013897
0.004421
0.001819
0.002769
0.005795
0.051222
0.005116
0.005104
0.003834
0.053436
0.053536
0.006064
0.053791
0.002037
0.043159
0.053513
0.041592
0.039645
0.006288
0.033850
0.039311
0.043533
0.043800
0.030715
0.029972
0.023099
0.006244
0.004801
0.011708
0.007299
0.006146
0.057757
0.049535
0.042644
0.036546
0.033459
0.043766
0.026635
0.028047
0.031585
0.038592
0.046893
0.014728
0.032111
0.025967
0.001663
0.044108
0.034272
0.031386
0.026519
0.043950
0.043659
0.029090
0.025692
0.031233
0.020693
0.003360
0.017323
0.005315
0.043510
0.044099
0.043822
0.046388
0.003223
0.043887
0.031348
0.016633
0.040560
0.033387
0.043923
0.006243
0.043172
0.002915
0.055522
0.042963
0.044345
0.003522
0.009657
0.008755
0.003327
0.030814
0.035221
0.007281
0.007076
0.049569
0.039515
0.046008
0.016256
0.005396
0.007363
0.004134
0.025618
0.003782
0.048401
0.052112
0.038172
0.003249
0.028974
0.052123
0.008879
0.002729
0.032673
0.006079
0.012175
0.042280
0.006668
0.002010
0.031405
0.016722
0.006061
0.007716
0.050286
0.043751
0.004550
0.042602
0.049539
0.025265
0.006521
0.047093
0.006343
0.046022
0.042575
0.005604
0.005918
0.005987
0.004818
0.007084
0.012121
0.023006
0.027859
0.037244
0.032216
0.032837
0.013293
0.045991
0.002415
0.048307
0.043662
0.043125
0.038466
0.004078
0.041328
0.040558
0.015942
0.034676
0.030231
0.029998
0.029871
0.029071
0.012508
0.027565
0.047827
0.033830
0.044110
0.043237
0.006155
0.029690
0.030507
0.024311
0.050682
0.043372
0.043479
0.003714
0.020554
0.003078
0.018234
0.030235
0.052171
0.026850
0.035685
0.042466
0.025405
0.002176
0.043249
0.042069
0.043175
0.054275
0.047996
0.004426
0.043170
0.025976
0.005538
0.043641
0.042960
0.002925
0.043492
0.037981
0.006779
0.038478
0.039588
0.046282
0.020069
0.043989
0.045029
0.005111
0.006350
0.011355
0.017622
0.005303
0.033378
0.044514
0.007405
0.047869
0.004006
0.002292
0.035945
0.029243
0.004089
0.003087
0.043742
0.002725
0.041299
0.045214
0.003313
0.005143
0.031311
0.028434
0.002190
0.050778
0.042043
0.011960
0.004133
0.004173
0.043405
0.005967
0.006789
0.023243
0.040373
0.009624
0.024701
0.048864
0.025878
0.006986
0.043749
0.025674
0.037351
0.007020
0.010437
0.006167
0.042700
0.047818
0.006861
0.042836
0.050688
0.002792
0.042534
0.032013
0.012963
0.015857
0.007417
0.002158
0.008320
0.014702
0.029434
0.007074
0.042217
0.036865
0.003922
0.042550
0.042873
0.030364
0.028029
0.002040
0.031531
0.041378
0.042699
0.039636
0.043065
0.029691
0.043660
0.029494
0.008170
0.010556
0.004689
0.041714
0.010693
0.042833
0.028576
0.018608
0.003351
0.046420
0.044672
0.029415
0.042966
0.047294
0.024360
0.003691
0.042833
0.042706
0.007083
0.042299
0.032117
0.007655
0.034629
0.031067
0.037407
0.008308
0.006954
0.008143
0.037666
0.042032
0.047922
0.041015
0.044719
0.043027
0.010792
0.026867
0.009050
0.042309
0.005336
0.004714
0.024079
0.026346
0.041597
0.028128
0.002691
0.003660
0.029080
0.044376
0.003152
0.002184
0.028464
0.003159
0.007891
0.003405
0.028457
0.009952
0.012804
0.027352
0.001612
0.005713
0.006700
0.042026
0.028275
0.039596
0.048222
0.047295
0.006859
0.010115
0.007331
0.007183
0.007838
0.035537
0.008379
0.014287
0.008303
0.015981
0.042263
0.042350
0.017921
0.027561
0.004213
0.042460
0.030449
0.044530
0.005128
0.023087
0.041734
0.036307
0.040753
0.042424
0.028329
0.009069
0.042952
0.030652
0.038655
0.014403
0.003450
0.024126
0.042224
0.004135
0.004005
0.045554
0.043264
0.042117
0.053253
0.042836
0.004079
0.001902
0.007197
0.028633
0.008126
0.042416
0.002577
0.002525
0.035573
0.003727
0.007502
0.052302
0.042622
0.042177
0.041348
0.021856
0.002191
0.041544
0.010878
0.045812
0.043050
0.001720
0.006065
0.025280
0.022725
0.029552
0.007625
0.036186
0.009167
0.008536
0.043023
0.023982
0.042789
0.007890
0.041277
0.042129
0.041487
0.015465
0.006972
0.017046
0.009790
0.046076
0.039883
0.008687
0.047018
0.004967
0.004710
0.005823
0.004419
0.027236
0.002644
0.004372
0.009665
0.034314
0.002838
0.003631
0.033342
0.002746
0.008012
0.023161
0.002357
0.001818
0.041592
0.027660
0.005980
0.007930
0.042366
0.045057
0.041978
0.041117
0.046862
0.012180
0.040772
0.017380
0.031396
0.042012
0.049056
0.042893
0.002967
0.028477
0.001316
0.008067
0.008050
0.004754
0.037636
0.041310
0.007131
0.014205
0.041107
0.008636
0.025977
0.010466
0.004687
0.021783
0.029751
0.026220
0.041926
0.048954
0.011538
0.042146
0.024625
0.024059
0.033971
0.042015
0.027855
0.041717
0.041171
0.003636
0.041320
0.006385
0.042249
0.004342
0.026716
0.047982
0.021885
0.051134
0.029838
0.040758
0.038724
0.007885
0.002929
0.040597
0.006931
0.027882
0.006836
0.034971
0.008175
0.011367
0.003745
0.032945
0.041587
0.041607
0.040738
0.041294
0.004004
0.009844
0.041920
0.003446
0.024236
0.001489
0.021903
0.039300
0.008422
0.029883
0.004514
0.055223
0.027501
0.009010
0.039246
0.042475
0.014932
0.040447
0.010200
0.036603
0.006185
0.040402
0.005304
0.042003
0.023093
0.009164
0.004828
0.038912
0.020843
0.041632
0.045879
0.031146
0.003591
0.018545
0.039923
0.004837
0.009080
0.032732
0.031568
0.008735
0.004004
0.026769
0.043277
0.001300
0.041036
0.006827
0.004727
0.002945
0.040932
0.003002
0.003634
0.008466
0.012762
0.001391
0.003376
0.025110
0.025157
0.044041
0.006303
0.028156
0.011028
0.008011
0.008200
0.040975
0.041412
0.040807
0.041641
0.041220
0.007745
0.002711
0.044270
0.040589
0.009085
0.035106
0.004655
0.011957
0.005290
0.005438
0.037585
0.004785
0.019567
0.001956
0.002322
0.034519
0.040605