# vtk DataFile Version 2.0
Test
ASCII
DATASET POLYDATA
POINTS 7341 float
0.000000 0.000000 0.000000
1.000000 0.000000 0.000000
1.000000 1.000000 0.000000
0.000000 1.000000 0.000000
0.000000 0.500000 0.000000
0.500000 0.500000 0.000000
1.000000 0.500000 0.000000
0.499000 0.499000 0.000000
0.900000 0.010000 0.000000
0.029412 0.000000 0.000000
0.058824 0.000000 0.000000
0.088235 0.000000 0.000000
0.117647 0.000000 0.000000
0.147059 0.000000 0.000000
0.176471 0.000000 0.000000
0.205882 0.000000 0.000000
0.235294 0.000000 0.000000
0.264706 0.000000 0.000000
0.294118 0.000000 0.000000
0.323529 0.000000 0.000000
0.352941 0.000000 0.000000
0.382353 0.000000 0.000000
0.411765 0.000000 0.000000
0.441176 0.000000 0.000000
0.470588 0.000000 0.000000
0.500000 0.000000 0.000000
0.529412 0.000000 0.000000
0.558824 0.000000 0.000000
0.588235 0.000000 0.000000
0.617647 0.000000 0.000000
0.647059 0.000000 0.000000
0.676471 0.000000 0.000000
0.705882 0.000000 0.000000
0.735294 0.000000 0.000000
0.764706 0.000000 0.000000
0.794118 0.000000 0.000000
0.823529 0.000000 0.000000
0.852941 0.000000 0.000000
0.882353 0.000000 0.000000
0.911765 0.000000 0.000000
0.941176 0.000000 0.000000
0.970588 0.000000 0.000000
1.000000 0.029412 0.000000
1.000000 0.058824 0.000000
1.000000 0.088235 0.000000
1.000000 0.117647 0.000000
1.000000 0.147059 0.000000
1.000000 0.176471 0.000000
1.000000 0.205882 0.000000
1.000000 0.235294 0.000000
1.000000 0.264706 0.000000
1.000000 0.294118 0.000000
1.000000 0.323529 0.000000
1.000000 0.352941 0.000000
1.000000 0.382353 0.000000
1.000000 0.411765 0.000000
1.000000 0.441176 0.000000
1.000000 0.470588 0.000000
1.000000 0.529412 0.000000
1.000000 0.558824 0.000000
1.000000 0.588235 0.000000
1.000000 0.617647 0.000000
1.000000 0.647059 0.000000
1.000000 0.676471 0.000000
1.000000 0.705882 0.000000
1.000000 0.735294 0.000000
1.000000 0.764706 0.000000
1.000000 0.794118 0.000000
1.000000 0.823529 0.000000
1.000000 0.852941 0.000000
1.000000 0.882353 0.000000
1.000000 0.911765 0.000000
1.000000 0.941176 0.000000
1.000000 0.970588 0.000000
0.970588 1.000000 0.000000
0.941176 1.000000 0.000000
0.911765 1.000000 0.000000
0.882353 1.000000 0.000000
0.852941 1.000000 0.000000
0.823529 1.000000 0.000000
0.794118 1.000000 0.000000
0.764706 1.000000 0.000000
0.735294 1.000000 0.000000
0.705882 1.000000 0.000000
0.676471 1.000000 0.000000
0.647059 1.000000 0.000000
0.617647 1.000000 0.000000
0.588235 1.000000 0.000000
0.558824 1.000000 0.000000
0.529412 1.000000 0.000000
0.500000 1.000000 0.000000
0.470588 1.000000 0.000000
0.441176 1.000000 0.000000
0.411765 1.000000 0.000000
0.382353 1.000000 0.000000
0.352941 1.000000 0.000000
0.323529 1.000000 0.000000
0.294118 1.000000 0.000000
0.264706 1.000000 0.000000
0.235294 1.000000 0.000000
0.205882 1.000000 0.000000
0.176471 1.000000 0.000000
0.147059 1.000000 0.000000
0.117647 1.000000 0.000000
0.088235 1.000000 0.000000
0.058824 1.000000 0.000000
0.029412 1.000000 0.000000
0.000000 0.970588 0.000000
0.000000 0.941176 0.000000
0.000000 0.911765 0.000000
0.000000 0.882353 0.000000
0.000000 0.852941 0.000000
0.000000 0.823529 0.000000
0.000000 0.794118 0.000000
0.000000 0.764706 0.000000
0.000000 0.735294 0.000000
0.000000 0.705882 0.000000
0.000000 0.676471 0.000000
0.000000 0.647059 0.000000
0.000000 0.617647 0.000000
0.000000 0.588235 0.000000
0.000000 0.558824 0.000000
0.000000 0.529412 0.000000
0.007246 0.500000 0.000000
0.014493 0.500000 0.000000
0.021739 0.500000 0.000000
0.028986 0.500000 0.000000
0.036232 0.500000 0.000000
0.043478 0.500000 0.000000
0.050725 0.500000 0.000000
0.057971 0.500000 0.000000
0.065217 0.500000 0.000000
0.072464 0.500000 0.000000
0.079710 0.500000 0.000000
0.086957 0.500000 0.000000
0.094203 0.500000 0.000000
0.101449 0.500000 0.000000
0.108696 0.500000 0.000000
0.115942 0.500000 0.000000
0.123188 0.500000 0.000000
0.130435 0.500000 0.000000
0.137681 0.500000 0.000000
0.144928 0.500000 0.000000
0.152174 0.500000 0.000000
0.159420 0.500000 0.000000
0.166667 0.500000 0.000000
0.173913 0.500000 0.000000
0.181159 0.500000 0.000000
0.188406 0.500000 0.000000
0.195652 0.500000 0.000000
0.202899 0.500000 0.000000
0.210145 0.500000 0.000000
0.217391 0.500000 0.000000
0.224638 0.500000 0.000000
0.231884 0.500000 0.000000
0.239130 0.500000 0.000000
0.246377 0.500000 0.000000
0.253623 0.500000 0.000000
0.260870 0.500000 0.000000
0.268116 0.500000 0.000000
0.275362 0.500000 0.000000
0.282609 0.500000 0.000000
0.289855 0.500000 0.000000
0.297101 0.500000 0.000000
0.304348 0.500000 0.000000
0.311594 0.500000 0.000000
0.318841 0.500000 0.000000
0.326087 0.500000 0.000000
0.333333 0.500000 0.000000
0.340580 0.500000 0.000000
0.347826 0.500000 0.000000
0.355072 0.500000 0.000000
0.362319 0.500000 0.000000
0.369565 0.500000 0.000000
0.376812 0.500000 0.000000
0.384058 0.500000 0.000000
0.391304 0.500000 0.000000
0.398551 0.500000 0.000000
0.405797 0.500000 0.000000
0.413043 0.500000 0.000000
0.420290 0.500000 0.000000
0.427536 0.500000 0.000000
0.434783 0.500000 0.000000
0.442029 0.500000 0.000000
0.449275 0.500000 0.000000
0.456522 0.500000 0.000000
0.463768 0.500000 0.000000
0.471014 0.500000 0.000000
0.478261 0.500000 0.000000
0.485507 0.500000 0.000000
0.492754 0.500000 0.000000
0.510004 0.500000 0.000000
0.520408 0.500000 0.000000
0.531229 0.500000 0.000000
0.542483 0.500000 0.000000
0.554187 0.500000 0.000000
0.566359 0.500000 0.000000
0.579019 0.500000 0.000000
0.592185 0.500000 0.000000
0.605877 0.500000 0.000000
0.620118 0.500000 0.000000
0.634929 0.500000 0.000000
0.650332 0.500000 0.000000
0.666352 0.500000 0.000000
0.683013 0.500000 0.000000
0.700340 0.500000 0.000000
0.718361 0.500000 0.000000
0.737103 0.500000 0.000000
0.756595 0.500000 0.000000
0.776867 0.500000 0.000000
0.797950 0.500000 0.000000
0.819877 0.500000 0.000000
0.842681 0.500000 0.000000
0.866398 0.500000 0.000000
0.891064 0.500000 0.000000
0.916716 0.500000 0.000000
0.943396 0.500000 0.000000
0.971143 0.500000 0.000000
0.000000 0.470588 0.000000
0.000000 0.441176 0.000000
0.000000 0.411765 0.000000
0.000000 0.382353 0.000000
0.000000 0.352941 0.000000
0.000000 0.323529 0.000000
0.000000 0.294118 0.000000
0.000000 0.264706 0.000000
0.000000 0.235294 0.000000
0.000000 0.205882 0.000000
0.000000 0.176471 0.000000
0.000000 0.147059 0.000000
0.000000 0.117647 0.000000
0.000000 0.088235 0.000000
0.000000 0.058824 0.000000
0.000000 0.029412 0.000000
0.500341 0.497365 0.000000
0.501682 0.495729 0.000000
0.503023 0.494094 0.000000
0.504365 0.492458 0.000000
0.505706 0.490823 0.000000
0.507047 0.489187 0.000000
0.508388 0.487552 0.000000
0.509729 0.485916 0.000000
0.511070 0.484281 0.000000
0.512411 0.482645 0.000000
0.513753 0.481010 0.000000
0.515094 0.479375 0.000000
0.516435 0.477739 0.000000
0.517776 0.476104 0.000000
0.519117 0.474468 0.000000
0.520458 0.472833 0.000000
0.521799 0.471197 0.000000
0.523140 0.469562 0.000000
0.524482 0.467926 0.000000
0.525823 0.466291 0.000000
0.527164 0.464656 0.000000
0.528505 0.463020 0.000000
0.529846 0.461385 0.000000
0.531187 0.459749 0.000000
0.532528 0.458114 0.000000
0.533870 0.456478 0.000000
0.535211 0.454843 0.000000
0.536552 0.453207 0.000000
0.537893 0.451572 0.000000
0.539234 0.449936 0.000000
0.540575 0.448301 0.000000
0.541916 0.446666 0.000000
0.543258 0.445030 0.000000
0.544599 0.443395 0.000000
0.545940 0.441759 0.000000
0.547281 0.440124 0.000000
0.548622 0.438488 0.000000
0.549963 0.436853 0.000000
0.551304 0.435217 0.000000
0.552645 0.433582 0.000000
0.553987 0.431946 0.000000
0.555328 0.430311 0.000000
0.556669 0.428676 0.000000
0.558010 0.427040 0.000000
0.559351 0.425405 0.000000
0.560692 0.423769 0.000000
0.562033 0.422134 0.000000
0.563375 0.420498 0.000000
0.564716 0.418863 0.000000
0.566057 0.417227 0.000000
0.567398 0.415592 0.000000
0.568739 0.413957 0.000000
0.570080 0.412321 0.000000
0.571421 0.410686 0.000000
0.572763 0.409050 0.000000
0.574104 0.407415 0.000000
0.575445 0.405779 0.000000
0.576786 0.404144 0.000000
0.578127 0.402508 0.000000
0.579468 0.400873 0.000000
0.580809 0.399237 0.000000
0.582151 0.397602 0.000000
0.583492 0.395967 0.000000
0.584833 0.394331 0.000000
0.586174 0.392696 0.000000
0.587515 0.391060 0.000000
0.588856 0.389425 0.000000
0.590197 0.387789 0.000000
0.591538 0.386154 0.000000
0.592880 0.384518 0.000000
0.594221 0.382883 0.000000
0.595562 0.381247 0.000000
0.596903 0.379612 0.000000
0.598244 0.377977 0.000000
0.599585 0.376341 0.000000
0.600926 0.374706 0.000000
0.602268 0.373070 0.000000
0.603609 0.371435 0.000000
0.604950 0.369799 0.000000
0.606291 0.368164 0.000000
0.607632 0.366528 0.000000
0.608973 0.364893 0.000000
0.610314 0.363258 0.000000
0.611656 0.361622 0.000000
0.612997 0.359987 0.000000
0.614338 0.358351 0.000000
0.615679 0.356716 0.000000
0.617020 0.355080 0.000000
0.618361 0.353445 0.000000
0.619702 0.351809 0.000000
0.621043 0.350174 0.000000
0.622385 0.348538 0.000000
0.623726 0.346903 0.000000
0.625067 0.345268 0.000000
0.626408 0.343632 0.000000
0.627749 0.341997 0.000000
0.629090 0.340361 0.000000
0.630431 0.338726 0.000000
0.631773 0.337090 0.000000
0.633114 0.335455 0.000000
0.634455 0.333819 0.000000
0.635796 0.332184 0.000000
0.637137 0.330548 0.000000
0.638478 0.328913 0.000000
0.639819 0.327278 0.000000
0.641161 0.325642 0.000000
0.642502 0.324007 0.000000
0.643843 0.322371 0.000000
0.645184 0.320736 0.000000
0.646525 0.319100 0.000000
0.647866 0.317465 0.000000
0.649207 0.315829 0.000000
0.650548 0.314194 0.000000
0.651890 0.312559 0.000000
0.653231 0.310923 0.000000
0.654572 0.309288 0.000000
0.655913 0.307652 0.000000
0.657254 0.306017 0.000000
0.658595 0.304381 0.000000
0.659936 0.302746 0.000000
0.661278 0.301110 0.000000
0.662619 0.299475 0.000000
0.663960 0.297839 0.000000
0.665301 0.296204 0.000000
0.666642 0.294569 0.000000
0.667983 0.292933 0.000000
0.669324 0.291298 0.000000
0.670666 0.289662 0.000000
0.672007 0.288027 0.000000
0.673348 0.286391 0.000000
0.674689 0.284756 0.000000
0.676030 0.283120 0.000000
0.677371 0.281485 0.000000
[...]
POINT_DATA 7341
SCALARS UX float 1
LOOKUP_TABLE default
0.000000
0.000000
0.220500
0.220500
0.077007
0.068095
0.120762
0.067927
0.000951
-0.000000
0.000000
0.000000
0.000000
0.000000
0.000000
0.000000
0.000000
0.000000
0.000000
0.000000
0.000000
0.000000
0.000000
0.000000
0.000000
0.000000
0.000000
0.000000
0.000000
0.000000
0.000000
0.000000
0.000000
0.000000
0.000000
0.000000
0.000000
0.000000
0.000000
0.000000
0.000000
-0.000000
0.005777
0.013244
0.019112
0.024675
0.031370
0.039843
0.048034
0.056010
0.058579
0.064331
0.070616
0.077476
0.084658
0.092534
0.099627
0.109745
0.122615
0.123367
0.127312
0.131543
0.136386
0.141738
0.147810
0.154461
0.161298
0.168244
0.175471
0.182814
0.190248
0.197745
0.205279
0.212877
0.220500
0.220500
0.220500
0.220500
0.220500
0.220500
0.220500
0.220500
0.220500
0.220500
0.220500
0.220500
0.220500
0.220500
0.220500
0.220500
0.220500
0.220500
0.220500
0.220500
0.220500
0.220500
0.220500
0.220500
0.220500
0.220500
0.220500
0.220500
0.220500
0.220500
0.220500
0.220500
0.220500
0.210982
0.201528
0.192080
0.182831
0.173647
0.164763
0.155951
0.147466
0.139266
0.131194
0.123596
0.116301
0.109359
0.102766
0.096327
0.089616
0.076512
0.076008
0.075560
0.075154
0.074675
0.074199
0.073773
0.073365
0.072900
0.072436
0.071994
0.071653
0.071333
0.070962
0.070634
0.070377
0.070161
0.069920
0.069711
0.069466
0.069276
0.069090
0.068914
0.068735
0.068597
0.070958
0.070784
0.070653
0.070479
0.071488
0.075040
0.074965
0.074892
0.074848
0.074801
0.075911
0.075866
0.075833
0.073190
0.073040
0.072953
0.072866
0.072755
0.072571
0.072455
0.072310
0.072167
0.071932
0.071694
0.071472
0.071231
0.070994
0.070766
0.070542
0.070324
0.070126
0.069925
0.069738
0.069559
0.069382
0.069210
0.069045
0.068893
0.068728
0.068572
0.068538
0.068588
0.068535
0.067414
0.066823
0.066308
0.065831
0.065402
0.065139
0.065030
0.064976
0.064899
0.065029
0.065169
0.065486
0.065962
0.066532
0.067582
0.069014
0.070969
0.073386
0.076369
0.079860
0.083993
0.088729
0.093941
0.099246
0.104213
0.109994
0.113933
0.066874
0.062338
0.058456
0.054982
0.051871
0.048679
0.045457
0.042107
0.038687
0.035202
0.031459
0.027396
0.022240
0.018428
0.012114
0.013480
0.067477
0.067028
0.066594
0.066141
0.065693
0.065249
0.064811
0.064382
0.063933
0.063488
0.063049
0.062611
0.062176
0.061750
0.061303
0.060862
0.060402
0.059989
0.059545
0.059111
0.058641
0.058171
0.057663
0.057133
0.056729
0.056319
0.055948
0.055572
0.055188
0.054809
0.054404
0.053927
0.053394
0.052899
0.052412
0.051954
0.051603
0.051255
0.050878
0.050442
0.050016
0.049612
0.049198
0.048779
0.048363
0.047953
0.047549
0.047147
0.046750
0.046356
0.045967
0.045579
0.045195
0.044813
0.044434
0.044056
0.043681
0.043307
0.042934
0.042564
0.042195
0.041828
0.041463
0.041099
0.040736
0.040375
0.040024
0.039678
0.039338
0.039004
0.038675
0.038351
0.038032
0.037718
0.037408
0.037102
0.036801
0.036504
0.036211
0.035921
0.035635
0.035354
0.035077
0.034804
0.034535
0.034270
0.034010
0.033753
0.033500
0.033251
0.033005
0.032764
0.032527
0.032293
0.032064
0.031838
0.031616
0.031398
0.031184
0.030973
0.030765
0.030560
0.030359
0.030161
0.029966
0.029774
0.029585
0.029399
0.029216
0.029035
0.028856
0.028678
0.028502
0.028328
0.028156
0.027986
0.027817
0.027650
0.027483
0.027317
0.027149
0.026976
0.026801
0.026626
0.026450
0.026275
0.026099
0.025924
0.025748
0.025572
0.025397
0.025220
0.025043
0.024864
0.024685
0.024505
0.024324
0.024143
0.023957
0.023746
0.023510
0.023272
0.023042
0.022845
0.022666
0.022496
0.022326
0.022159
0.021992
0.021826
0.021660
0.021492
0.021319
0.021147
0.020976
0.020807
0.020640
0.020475
0.020311
0.020150
0.019991
0.019834
0.019680
0.019529
0.019380
0.019235
0.019088
0.018917
0.018702
0.018466
0.018225
0.017987
0.017755
0.017525
0.017300
0.017079
0.016861
0.016645
0.016432
0.016224
0.016018
0.015814
0.015612
0.015414
0.015219
0.015027
0.014837
0.014649
0.014465
0.014283
0.014105
0.013929
0.013756
0.013585
0.013417
0.013253
0.013091
0.012932
0.012776
0.012622
0.012471
0.012323
0.012178
0.012036
0.011897
0.011760
0.011626
0.011495
0.011368
0.011243
0.011121
0.011002
0.010887
0.010774
0.010664
0.010558
0.010455
0.010356
0.010259
0.010165
0.010074
0.009987
0.009903
0.009822
0.009745
0.009671
0.009600
0.009532
0.009467
0.009406
0.009349
0.009297
0.009248
0.009202
0.009160
0.009121
0.009087
0.009058
0.009031
0.009009
0.008991
0.008975
0.008965
0.008956
0.008952
0.008950
0.008950
0.008952
0.008959
0.008973
0.008983
0.008995
0.008893
0.008720
0.008549
0.008377
0.008207
0.008034
0.007860
0.007686
0.007509
0.007330
0.007148
0.006964
0.006774
0.006586
0.006403
0.006219
0.006034
0.005848
0.005662
0.005476
0.005291
0.005105
0.004920
0.004736
0.004553
0.004370
0.004190
0.004013
0.003840
0.003668
0.003499
0.003329
0.003161
0.002994
0.002830
0.002668
0.002512
0.002356
0.002197
0.002037
0.001877
0.001719
0.001562
0.001406
0.001248
0.001103
0.065172
0.070016
0.069451
0.000223
0.000994
0.079077
0.000665
0.066408
0.065251
0.056880
0.061776
0.000954
0.044345
0.067186
0.035114
0.033936
0.061506
0.001757
0.002833
0.068244
0.013486
0.069299
0.062379
0.020875
0.067413
0.056681
0.071252
0.078584
0.092460
0.066777
0.005300
0.065643
0.070195
0.066346
0.064851
0.001957
0.063336
0.004301
0.066624
0.001179
0.066955
0.070051
0.069008
0.068604
0.002601
0.066980
0.002315
0.066649
0.065667
0.072952
0.002608
0.062613
0.018688
0.053766
0.001384
0.061796
0.061391
0.050588
0.062950
0.071435
0.042255
0.046641
0.000776
0.000737
0.067763
0.067248
0.040823
0.095613
0.101664
0.000632
0.083475
0.000615
0.064004
0.000894
0.068598
0.030081
0.000940
0.106680
0.017003
0.007885
0.009787
0.009296
0.011101
0.068371
0.065103
0.064942
0.069957
0.070060
0.069856
0.064685
0.067889
0.066835
0.066087
0.065831
0.065630
0.065071
0.072111
0.070867
0.070445
0.070049
0.066339
0.002156
0.065252
0.067597
0.068038
0.067036
0.002139
0.065696
0.001479
0.063142
0.057533
0.001734
0.042681
0.064593
0.035426
0.065028
0.002897
0.074459
0.012377
0.050381
0.059909
0.032739
0.001963
0.062870
0.066508
0.004348
0.064840
0.061383
0.067446
0.067828
0.015726
0.093384
0.067114
0.064633
0.002033
0.064096
0.062872
0.001879
0.062596
0.067015
0.026455
0.061785
0.001025
0.055382
0.067164
0.061530
0.007879
0.061664
0.047970
0.050872
0.062424
0.064815
0.000665
0.069077
0.001523
0.075030
0.067660
0.000667
0.071030
0.000841
0.087869
0.068056
0.086813
0.000672
0.037825
0.097537
0.068427
0.002260
0.026070
0.005761
0.002745
0.009491
0.068814
0.069220
0.064946
0.065252
0.069232
0.069858
0.069967
0.069189
0.064654
0.064385
0.064714
0.066365
0.065125
0.066857
0.065851
0.066793
0.067214
0.068460
0.068889
0.065012
0.070967
0.068064
0.071682
0.064491
0.067036
0.065641
0.031892
0.002420
0.064023
0.058654
0.027123
0.058261
0.066815
0.060327
0.065415
0.065345
0.002122
0.066497
0.036315
0.081903
0.089856
0.004441
0.006462
0.003902
0.067087
0.065775
0.003753
0.066674
0.067606
0.065198
0.045744
0.062798
0.066657
0.065912
0.065684
0.001938
0.081717
0.058959
0.059343
0.064342
0.002159
0.066354
0.058031
0.001575
0.067470
0.046339
0.040050
0.002009
0.060253
0.039680
0.065943
0.001577
0.001563
0.002138
0.064003
0.002476
0.017117
0.066149
0.065850
0.064060
0.078124
0.070884
0.003045
0.052866
0.051321
0.028795
0.066255
0.024820
0.020129
0.001731
0.014580
0.007603
0.066944
0.067931
0.067868
0.065407
0.063667
0.003320
0.067654
0.058680
0.062125
0.063007
0.060641
0.062996
0.066382
0.069335
0.063801
0.063485
0.063029
0.067454
0.068361
0.065811
0.065829
0.065696
0.063810
0.063956
0.062931
0.026615
0.007885
0.065048
0.064503
0.065642
0.065477
0.066303
0.065339
0.064659
0.064198
0.003146
0.063935
0.046868
0.002802
0.038935
0.062387
0.003410
0.005810
0.072655
0.015431
0.052835
0.004271
0.057850
0.027892
0.066115
0.061966
0.064568
0.002612
0.062788
0.003631
0.064843
0.057712
0.058414
0.058004
0.001906
0.058390
0.064968
0.064546
0.034952
0.061269
0.002871
0.066605
0.057250
0.058600
0.029270
0.086138
0.044693
0.073725
0.064064
0.003871
0.065209
0.023729
0.018545
0.010379
0.013243
0.059198
0.066162
0.002516
0.002524
0.066927
0.003417
0.067431
0.067732
0.066696
0.063076
0.063461
0.062820
0.067672
0.022577
0.065196
0.064215
0.066015
0.064671
0.065689
0.001949
0.061814
0.061764
0.065004
0.048198
0.069544
0.060040
0.068340
0.064882
0.064407
0.066903
0.064669
0.065110
0.063181
0.025951
0.021728
0.062432
0.063623
0.064894
0.065101
0.064471
0.062063
0.065630
0.066030
0.005752
0.003668
0.059769
0.004146
0.055405
0.060577
0.055177
0.026060
0.037199
0.056011
0.061006
0.004644
0.056767
0.058853
0.065303
0.064074
0.063761
0.056948
0.064907
0.003482
0.026306
0.007545
0.063174
0.057456
0.050652
0.016114
0.002552
0.003162
0.022354
0.065209
0.065760
0.003740
0.012269
0.043559
0.061744
0.061718
0.062756
0.070379
0.078984
0.054154
0.063613
0.061622
0.063023
0.055310
0.020235
0.004303
0.064613
0.069637
0.052594
0.065046
0.065211
0.008117
0.047854
0.062775
0.076301
0.062545
0.022498
0.054947
0.003390
0.003109
0.041997
0.060806
0.031698
0.017286
0.064357
0.063843
0.064079
0.033650
0.065709
0.002620
0.063906
0.065612
0.060071
0.003122
0.063519
0.063803
0.071163
0.067121
0.066598
0.064410
0.061521
0.061568
0.064138
0.063354
0.059704
0.062006
0.061138
0.003820
0.063186
0.062211
0.055125
0.061061
0.061891
0.063377
0.063539
0.063420
0.062672
0.062648
0.048407
0.052513
0.004475
0.053926
0.019836
0.049056
0.014944
0.064373
0.005519
0.064766
0.061302
0.004298
0.060995
0.057271
0.060201
0.063033
0.056430
0.005037
0.029161
0.030374
0.003618
0.003687
0.063283
0.058844
0.004841
0.052989
0.060314
0.063155
0.063836
0.055404
0.062219
0.061433
0.040469
0.006901
0.034005
0.062478
0.009729
0.014211
0.055213
0.003750
0.025391
0.002988
0.060854
0.069832
0.057855
0.057350
0.054200
0.021588
0.038472
0.005223
0.004325
0.063163
0.038847
0.062879
0.062714
0.046608
0.077064
0.064737
0.063472
0.065542
0.061815
0.065132
0.061443
0.063718
0.060402
0.063736
0.062477
0.023455
0.003928
0.060853
0.063901
0.063127
0.063381
0.065108
0.065518
0.062542
0.002804
0.009152
0.057241
0.052715
0.062106
0.062820
0.064706
0.065229
0.019703
0.062199
0.084557
0.062236
0.063094
0.064818
0.063833
0.061709
0.063244
0.063063
0.060263
0.061570
0.005171
0.054515
0.005215
0.052340
0.026322
0.017740
0.048344
0.039501
0.013777
0.005748
0.055630
0.061557
0.004638
0.053633
0.055705
0.063050
0.004393
0.058014
0.053907
0.008006
0.062578
0.061843
0.004133
0.063106
0.062585
0.063847
0.063349
0.060590
0.052191
0.063522
0.060218
0.055623
0.061393
0.060349
0.043860
0.062300
0.032877
0.061651
0.032562
0.051880
0.011731
0.060262
0.067361
0.004740
0.004170
0.009674
0.004140
0.054859
0.012436
0.060054
0.003664
0.061221
0.019240
0.019469
0.042825
0.021169
0.004871
0.029297
0.004870
0.063601
0.061519
0.063593
0.062780
0.056294
0.062711
0.062547
0.063481
0.071494
0.004238
0.059416
0.063336
0.005151
0.062448
0.059528
0.060724
0.062282
0.061915
0.060921
0.063368
0.060413
0.061255
0.065518
0.009637
0.060815
0.058405
0.061893
0.017795
0.059348
0.062157
0.061590
0.003923
0.057688
0.061544
0.062695
0.065815
0.006233
0.004905
0.018379
0.005916
0.012402
0.040832
0.006137
0.007334
0.061777
0.031600
0.055974
0.057930
0.004812
0.059762
0.050764
0.057975
0.059298
0.005852
0.005419
0.053288
0.005745
0.024070
0.004949
0.007300
0.061230
0.062363
0.061311
0.062165
0.059739
0.016805
0.053752
0.055182
0.061677
0.062436
0.052981
0.030067
0.052831
0.005519
0.061560
0.060031
0.056454
0.059708
0.053623
0.036344
0.058822
0.060538
0.059704
0.060813
0.005474
0.060107
0.006356
0.011070
0.005689
0.059725
0.023391
0.046220
0.062345
0.062828
0.017702
0.004972
0.006891
0.045922
0.061246
0.017113
0.061270
0.061431
0.062587
0.059988
0.061330
0.054541
0.061633
0.061520
0.063257
0.059305
0.058757
0.014152
0.063317
0.059089
0.065252
0.059340
0.061490
0.061042
0.063554
0.061439
0.063074
0.002212
0.056022
0.052358
0.061551
0.005373
0.062197
0.042687
0.059933
0.005512
0.061422
0.058382
0.007032
0.009734
0.051509
0.050167
0.057906
0.022205
0.041852
0.006588
0.059630
0.039814
0.050080
0.007660
0.054357
0.006568
0.006458
0.058460
0.056641
0.060893
0.005847
0.006048
0.060661
0.061281
0.019696
0.050156
0.051970
0.053830
0.006166
0.058151
0.061964
0.060052
0.054933
0.061631
0.036952
0.004532
0.059905
0.005778
0.055076
0.005196
0.061182
0.019675
0.006322
0.059191
0.062004
0.011987
0.059382
0.028757
0.058798
0.059840
0.006190
0.014468
0.060689
0.005857
0.058946
0.005377
0.004729
0.006451
0.054692
0.050769
0.021647
0.047889
0.061320
0.015018
0.062058
0.061180
0.038834
0.060476
0.061335
0.059998
0.060469
0.058084
0.059917
0.061047
0.057761
0.059200
0.044858
0.058998
0.049819
0.061639
0.058820
0.006716
0.061629
0.061154
0.060916
0.035148
0.005418
0.052603
0.056580
0.050708
0.058814
0.007324
0.048168
0.047457
0.019173
0.041214
0.006353
0.014721
0.046917
0.007059
0.049915
0.006007
0.051690
0.059519
0.054810
0.060320
0.005917
0.057009
0.034325
0.060970
0.060081
0.058391
0.008623
0.053216
0.007073
0.058619
0.035710
0.006651
0.060004
0.057415
0.005973
0.009107
0.049639
0.024289
0.049542
0.058544
0.059336
0.059325
0.059937
0.049626
0.006593
0.006692
0.015614
0.061400
0.006447
0.006917
0.006195
0.057079
0.007720
0.025837
0.051159
0.052797
0.005834
0.050760
0.054066
0.057494
0.018596
0.044209
0.060174
0.061519
0.004438
0.060012
0.057668
0.059883
0.059328
0.006658
0.060851
0.061090
0.057328
0.057737
0.058335
0.059307
0.057509
0.060758
0.061181
0.057868
0.002807
0.057695
0.054478
0.037845
0.060245
0.017372
0.060164
0.054404
0.049366
0.059763
0.003329
0.057888
0.058431
0.060687
0.055572
0.043894
0.006828
0.006830
0.060421
0.012671
0.057047
0.057624
0.007814
0.034825
0.047496
0.040235
0.008012
0.047269
0.045974
0.056163
0.007419
0.012776
0.007803
0.060278
0.007516
0.046314
0.053386
0.007203
0.007185
0.059938
0.047183
0.054475
0.009909
0.059122
0.048280
0.004953
0.013666
0.053613
0.007918
0.016187
0.057090
0.007235
0.059229
0.056954
0.056623
0.058209
0.052258
0.036700
0.030915
0.007452
0.052627
0.002965
0.049181
0.015476
0.021135
0.048901
0.056570
0.057211
0.056533
0.048298
0.006443
0.008232
0.051619
0.007521
0.007488
0.006894
0.019794
0.038360
0.006746
0.023861
0.047403
0.061038
0.058407
0.058910
0.058452
0.004272
0.059185
0.060494
0.059852
0.059749
0.058993
0.058255
0.010942
0.058687
0.016168
0.055961
0.060059
0.031642
0.058712
0.006472
0.058703
0.056755
0.056160
0.059788
0.005967
0.058085
0.047288
0.056142
0.010783
0.028856
0.004684
0.007008
0.058025
0.001479
0.007508
0.051874
0.055833
0.058790
0.060484
0.057321
0.043060
0.006476
0.049006
0.059850
0.048043
0.059473
0.060347
0.003501
0.055819
0.009532
0.008699
0.045351
0.033848
0.039275
0.045290
0.018476
0.008780
0.007687
0.014530
0.055245
0.044731
0.018892
0.045752
0.006490
0.052419
0.045047
0.057823
0.007396
0.023344
0.058227
0.007344
0.015455
0.007545
0.003573
0.003802
0.008452
0.049073
0.011180
0.009265
0.007400
0.045731
0.045307
0.007646
0.046178
0.006471
0.053689
0.042333
0.059923
0.058748
0.008712
0.058195
0.031330
0.057978
0.051936
0.057871
0.057377
0.051727
0.008303
0.007841
0.033434
0.022230
0.009385
0.045793
0.045299
0.060094
0.057198
0.056651
0.059265
0.055526
0.055902
0.058714
0.058760
0.045371
0.016130
0.057609
0.055431
0.004862
0.057813
0.056570
0.058704
0.054737
0.059152
0.058431
0.056430
0.054760
0.057414
0.048407
0.007538
0.017254
0.007634
0.059806
0.056334
0.058515
0.052315
0.007608
0.033814
0.058701
0.042242
0.059333
0.026471
0.058909
0.010560
0.060054
0.007446
0.046481
0.054915
0.057303
0.007594
0.028225
0.013927
0.004889
0.055544
0.055852
0.010071
0.009119
0.043295
0.058195
0.043473
0.041476
0.008640
0.012950
0.008173
0.053375
0.008038
0.043139
0.042908
0.031109
0.007733
0.056086
0.044662
0.026184
0.003926
0.055057
0.012810
0.014548
0.053496
0.016905
0.005035
0.025724
0.017034
0.009141
0.022534
0.040647
0.056448
0.008222
0.055212
0.042991
0.053847
0.008993
0.043459
0.009409
0.037271
0.051624
0.008752
0.010203
0.007213
0.007841
0.008605
0.014921
0.020722
0.054843
0.057338
0.056294
0.056454
0.035881
0.045341
0.007218
0.047088
0.051090
0.057465
0.057552
0.007367
0.059211
0.058871
0.016543
0.028107
0.057014
0.057076
0.057081
0.056341
0.014869
0.054943
0.045399
0.055404
0.057450
0.059205
0.008851
0.057053
0.056114
0.053181
0.042758
0.058282
0.058673
0.008066
0.047909
0.007738
0.044299
0.056519
0.042332
0.054503
0.028318
0.059667
0.054614
0.002903
0.057445
0.052958
0.055841
0.051317
0.053545
0.007995
0.057860
0.054383
0.009278
0.057272
0.059570
0.007668
0.058072
0.057560
0.011432
0.057052
0.033066
0.041020
0.019234
0.041811
0.045262
0.008695
0.009692
0.014056
0.043232
0.009412
0.027808
0.050951
0.008584
0.040461
0.006711
0.006670
0.056023
0.055651
0.008394
0.007967
0.043687
0.004103
0.052131
0.043563
0.008090
0.008485
0.054652
0.055675
0.004903
0.043660
0.053965
0.033152
0.008257
0.008129
0.036211
0.011650
0.010105
0.051627
0.058295
0.013575
0.052847
0.042812
0.022575
0.008519
0.056727
0.053066
0.056308
0.010463
0.013670
0.014424
0.056449
0.039762
0.009712
0.055888
0.049624
0.007693
0.050818
0.054876
0.014959
0.016684
0.009267
0.003056
0.023093
0.038212
0.024900
0.010147
0.055220
0.056344
0.008110
0.057183
0.057994
0.055460
0.055176
0.005801
0.055982
0.052790
0.058989
0.057844
0.058710
0.056572
0.057082
0.056587
0.024147
0.029996
0.008112
0.059232
0.013975
0.057243
0.055531
0.017926
0.007932
0.051515
0.057845
0.055250
0.056891
0.039029
0.052989
0.008135
0.056968
0.057625
0.009430
0.059229
0.058237
0.010120
0.054582
0.053078
0.055845
0.011537
0.014171
0.010369
0.032409
0.056936
0.042090
0.054118
0.050210
0.043740
0.013710
0.053907
0.013003
0.049885
0.009016
0.008716
0.051573
0.053476
0.050659
0.024612
0.007619
0.008188
0.053374
0.037765
0.004774
0.005721
0.053674
0.008181
0.011639
0.008295
0.055595
0.028409
0.034446
0.054414
0.002299
0.010334
0.012182
0.054437
0.055113
0.057339
0.051991
0.047094
0.010819
0.013367
0.010508
0.016981
0.020436
0.029850
0.013183
0.015752
0.010350
0.040186
0.056469
0.056078
0.017924
0.054658
0.008443
0.058019
0.052957
0.043658
0.008600
0.051238
0.054617
0.055174
0.058235
0.058332
0.054826
0.026052
0.056206
0.054405
0.056730
0.015763
0.008140
0.052398
0.055388
0.008491
0.008405
0.039415
0.056652
0.058743
0.045340
0.036338
0.007949
0.004093
0.008574
0.054651
0.010042
0.056012
0.006889
0.005859
0.055052
0.007868
0.010181
0.051521
0.056532
0.057461
0.053083
0.049877
0.003216
0.058803
0.030910
0.040917
0.041973
0.005516
0.009470
0.022590
0.020888
0.051163
0.013457
0.054442
0.011589
0.021084
0.039009
0.022176
0.037184
0.011290
0.040476
0.043653
0.056752
0.016574
0.010428
0.041691
0.013122
0.050479
0.057162
0.011495
0.047691
0.009331
0.008778
0.009439
0.008683
0.053154
0.004130
0.008759
0.026446
0.053602
0.007621
0.008401
0.054254
0.006753
0.012548
0.051027
0.004856
0.002664
0.054904
0.053157
0.009464
0.012378
0.042028
0.040422
0.055788
0.042329
0.041294
0.014535
0.052498
0.017766
0.027007
0.055499
0.049511
0.049514
0.007998
0.053210
0.001823
0.011568
0.010542
0.008684
0.055542
0.049745
0.015652
0.037013
0.053266
0.012552
0.052768
0.029160
0.008467
0.020612
0.052701
0.053311
0.058169
0.042846
0.031760
0.055747
0.051743
0.051293
0.054410
0.056547
0.054485
0.057617
0.050951
0.005462
0.053933
0.011432
0.056237
0.008515
0.053835
0.041533
0.049574
0.053619
0.053901
0.057766
0.056322
0.010865
0.006897
0.035267
0.013297
0.054796
0.012175
0.030217
0.009958
0.031700
0.008349
0.054766
0.058480
0.057197
0.053677
0.054509
0.008500
0.014292
0.055335
0.007286
0.052033
0.003149
0.050160
0.033874
0.009938
0.057162
0.008835
0.053604
0.051491
0.012950
0.034749
0.038797
0.016377
0.042347
0.013332
0.054334
0.009838
0.053460
0.009259
0.040392
0.050127
0.011299
0.008949
0.056034
0.020272
0.055109
0.047744
0.027378
0.005687
0.043994
0.052203
0.009100
0.011684
0.052919
0.053068
0.013352
0.008559
0.051570
0.038913
0.001727
0.057274
0.010321
0.009069
0.007538
0.056436
0.004690
0.008499
0.011303
0.014913
0.002616
0.008508
0.052271
0.051996
0.045157
0.011968
0.025087
0.029568
0.017120
0.018786
0.054238
0.041938
0.036280
0.055722
0.048793
0.012784
0.005685
0.039830
0.049744
0.023932
0.053818
0.008846
0.032169
0.010119
0.009190
0.033093
0.008640
0.019157
0.002945
0.003596
0.030468
0.052546