# vtk DataFile Version 2.0
Test
ASCII
DATASET POLYDATA
POINTS 7341 float
0.000000 0.000000 0.000000
1.000000 0.000000 0.000000
1.000000 1.000000 0.000000
0.000000 1.000000 0.000000
0.000000 0.500000 0.000000
0.500000 0.500000 0.000000
1.000000 0.500000 0.000000
0.499000 0.499000 0.000000
0.900000 0.010000 0.000000
0.029412 0.000000 0.000000
0.058824 0.000000 0.000000
0.088235 0.000000 0.000000
0.117647 0.000000 0.000000
0.147059 0.000000 0.000000
0.176471 0.000000 0.000000
0.205882 0.000000 0.000000
0.235294 0.000000 0.000000
0.264706 0.000000 0.000000
0.294118 0.000000 0.000000
0.323529 0.000000 0.000000
0.352941 0.000000 0.000000
0.382353 0.000000 0.000000
0.411765 0.000000 0.000000
0.441176 0.000000 0.000000
0.470588 0.000000 0.000000
0.500000 0.000000 0.000000
0.529412 0.000000 0.000000
0.558824 0.000000 0.000000
0.588235 0.000000 0.000000
0.617647 0.000000 0.000000
0.647059 0.000000 0.000000
0.676471 0.000000 0.000000
0.705882 0.000000 0.000000
0.735294 0.000000 0.000000
0.764706 0.000000 0.000000
0.794118 0.000000 0.000000
0.823529 0.000000 0.000000
0.852941 0.000000 0.000000
0.882353 0.000000 0.000000
0.911765 0.000000 0.000000
0.941176 0.000000 0.000000
0.970588 0.000000 0.000000
1.000000 0.029412 0.000000
1.000000 0.058824 0.000000
1.000000 0.088235 0.000000
1.000000 0.117647 0.000000
1.000000 0.147059 0.000000
1.000000 0.176471 0.000000
1.000000 0.205882 0.000000
1.000000 0.235294 0.000000
1.000000 0.264706 0.000000
1.000000 0.294118 0.000000
1.000000 0.323529 0.000000
1.000000 0.352941 0.000000
1.000000 0.382353 0.000000
1.000000 0.411765 0.000000
1.000000 0.441176 0.000000
1.000000 0.470588 0.000000
1.000000 0.529412 0.000000
1.000000 0.558824 0.000000
1.000000 0.588235 0.000000
1.000000 0.617647 0.000000
1.000000 0.647059 0.000000
1.000000 0.676471 0.000000
1.000000 0.705882 0.000000
1.000000 0.735294 0.000000
1.000000 0.764706 0.000000
1.000000 0.794118 0.000000
1.000000 0.823529 0.000000
1.000000 0.852941 0.000000
1.000000 0.882353 0.000000
1.000000 0.911765 0.000000
1.000000 0.941176 0.000000
1.000000 0.970588 0.000000
0.970588 1.000000 0.000000
0.941176 1.000000 0.000000
0.911765 1.000000 0.000000
0.882353 1.000000 0.000000
0.852941 1.000000 0.000000
0.823529 1.000000 0.000000
0.794118 1.000000 0.000000
0.764706 1.000000 0.000000
0.735294 1.000000 0.000000
0.705882 1.000000 0.000000
0.676471 1.000000 0.000000
0.647059 1.000000 0.000000
0.617647 1.000000 0.000000
0.588235 1.000000 0.000000
0.558824 1.000000 0.000000
0.529412 1.000000 0.000000
0.500000 1.000000 0.000000
0.470588 1.000000 0.000000
0.441176 1.000000 0.000000
0.411765 1.000000 0.000000
0.382353 1.000000 0.000000
0.352941 1.000000 0.000000
0.323529 1.000000 0.000000
0.294118 1.000000 0.000000
0.264706 1.000000 0.000000
0.235294 1.000000 0.000000
0.205882 1.000000 0.000000
0.176471 1.000000 0.000000
0.147059 1.000000 0.000000
0.117647 1.000000 0.000000
0.088235 1.000000 0.000000
0.058824 1.000000 0.000000
0.029412 1.000000 0.000000
0.000000 0.970588 0.000000
0.000000 0.941176 0.000000
0.000000 0.911765 0.000000
0.000000 0.882353 0.000000
0.000000 0.852941 0.000000
0.000000 0.823529 0.000000
0.000000 0.794118 0.000000
0.000000 0.764706 0.000000
0.000000 0.735294 0.000000
0.000000 0.705882 0.000000
0.000000 0.676471 0.000000
0.000000 0.647059 0.000000
0.000000 0.617647 0.000000
0.000000 0.588235 0.000000
0.000000 0.558824 0.000000
0.000000 0.529412 0.000000
0.007246 0.500000 0.000000
0.014493 0.500000 0.000000
0.021739 0.500000 0.000000
0.028986 0.500000 0.000000
0.036232 0.500000 0.000000
0.043478 0.500000 0.000000
0.050725 0.500000 0.000000
0.057971 0.500000 0.000000
0.065217 0.500000 0.000000
0.072464 0.500000 0.000000
0.079710 0.500000 0.000000
0.086957 0.500000 0.000000
0.094203 0.500000 0.000000
0.101449 0.500000 0.000000
0.108696 0.500000 0.000000
0.115942 0.500000 0.000000
0.123188 0.500000 0.000000
0.130435 0.500000 0.000000
0.137681 0.500000 0.000000
0.144928 0.500000 0.000000
0.152174 0.500000 0.000000
0.159420 0.500000 0.000000
0.166667 0.500000 0.000000
0.173913 0.500000 0.000000
0.181159 0.500000 0.000000
0.188406 0.500000 0.000000
0.195652 0.500000 0.000000
0.202899 0.500000 0.000000
0.210145 0.500000 0.000000
0.217391 0.500000 0.000000
0.224638 0.500000 0.000000
0.231884 0.500000 0.000000
0.239130 0.500000 0.000000
0.246377 0.500000 0.000000
0.253623 0.500000 0.000000
0.260870 0.500000 0.000000
0.268116 0.500000 0.000000
0.275362 0.500000 0.000000
0.282609 0.500000 0.000000
0.289855 0.500000 0.000000
0.297101 0.500000 0.000000
0.304348 0.500000 0.000000
0.311594 0.500000 0.000000
0.318841 0.500000 0.000000
0.326087 0.500000 0.000000
0.333333 0.500000 0.000000
0.340580 0.500000 0.000000
0.347826 0.500000 0.000000
0.355072 0.500000 0.000000
0.362319 0.500000 0.000000
0.369565 0.500000 0.000000
0.376812 0.500000 0.000000
0.384058 0.500000 0.000000
0.391304 0.500000 0.000000
0.398551 0.500000 0.000000
0.405797 0.500000 0.000000
0.413043 0.500000 0.000000
0.420290 0.500000 0.000000
0.427536 0.500000 0.000000
0.434783 0.500000 0.000000
0.442029 0.500000 0.000000
0.449275 0.500000 0.000000
0.456522 0.500000 0.000000
0.463768 0.500000 0.000000
0.471014 0.500000 0.000000
0.478261 0.500000 0.000000
0.485507 0.500000 0.000000
0.492754 0.500000 0.000000
0.510004 0.500000 0.000000
0.520408 0.500000 0.000000
0.531229 0.500000 0.000000
0.542483 0.500000 0.000000
0.554187 0.500000 0.000000
0.566359 0.500000 0.000000
0.579019 0.500000 0.000000
0.592185 0.500000 0.000000
0.605877 0.500000 0.000000
0.620118 0.500000 0.000000
0.634929 0.500000 0.000000
0.650332 0.500000 0.000000
0.666352 0.500000 0.000000
0.683013 0.500000 0.000000
0.700340 0.500000 0.000000
0.718361 0.500000 0.000000
0.737103 0.500000 0.000000
0.756595 0.500000 0.000000
0.776867 0.500000 0.000000
0.797950 0.500000 0.000000
0.819877 0.500000 0.000000
0.842681 0.500000 0.000000
0.866398 0.500000 0.000000
0.891064 0.500000 0.000000
0.916716 0.500000 0.000000
0.943396 0.500000 0.000000
0.971143 0.500000 0.000000
0.000000 0.470588 0.000000
0.000000 0.441176 0.000000
0.000000 0.411765 0.000000
0.000000 0.382353 0.000000
0.000000 0.352941 0.000000
0.000000 0.323529 0.000000
0.000000 0.294118 0.000000
0.000000 0.264706 0.000000
0.000000 0.235294 0.000000
0.000000 0.205882 0.000000
0.000000 0.176471 0.000000
0.000000 0.147059 0.000000
0.000000 0.117647 0.000000
0.000000 0.088235 0.000000
0.000000 0.058824 0.000000
0.000000 0.029412 0.000000
0.500341 0.497365 0.000000
0.501682 0.495729 0.000000
0.503023 0.494094 0.000000
0.504365 0.492458 0.000000
0.505706 0.490823 0.000000
0.507047 0.489187 0.000000
0.508388 0.487552 0.000000
0.509729 0.485916 0.000000
0.511070 0.484281 0.000000
0.512411 0.482645 0.000000
0.513753 0.481010 0.000000
0.515094 0.479375 0.000000
0.516435 0.477739 0.000000
0.517776 0.476104 0.000000
0.519117 0.474468 0.000000
0.520458 0.472833 0.000000
0.521799 0.471197 0.000000
0.523140 0.469562 0.000000
0.524482 0.467926 0.000000
0.525823 0.466291 0.000000
0.527164 0.464656 0.000000
0.528505 0.463020 0.000000
0.529846 0.461385 0.000000
0.531187 0.459749 0.000000
0.532528 0.458114 0.000000
0.533870 0.456478 0.000000
0.535211 0.454843 0.000000
0.536552 0.453207 0.000000
0.537893 0.451572 0.000000
0.539234 0.449936 0.000000
0.540575 0.448301 0.000000
0.541916 0.446666 0.000000
0.543258 0.445030 0.000000
0.544599 0.443395 0.000000
0.545940 0.441759 0.000000
0.547281 0.440124 0.000000
0.548622 0.438488 0.000000
0.549963 0.436853 0.000000
0.551304 0.435217 0.000000
0.552645 0.433582 0.000000
0.553987 0.431946 0.000000
0.555328 0.430311 0.000000
0.556669 0.428676 0.000000
0.558010 0.427040 0.000000
0.559351 0.425405 0.000000
0.560692 0.423769 0.000000
0.562033 0.422134 0.000000
0.563375 0.420498 0.000000
0.564716 0.418863 0.000000
0.566057 0.417227 0.000000
0.567398 0.415592 0.000000
0.568739 0.413957 0.000000
0.570080 0.412321 0.000000
0.571421 0.410686 0.000000
0.572763 0.409050 0.000000
0.574104 0.407415 0.000000
0.575445 0.405779 0.000000
0.576786 0.404144 0.000000
0.578127 0.402508 0.000000
0.579468 0.400873 0.000000
0.580809 0.399237 0.000000
0.582151 0.397602 0.000000
0.583492 0.395967 0.000000
0.584833 0.394331 0.000000
0.586174 0.392696 0.000000
0.587515 0.391060 0.000000
0.588856 0.389425 0.000000
0.590197 0.387789 0.000000
0.591538 0.386154 0.000000
0.592880 0.384518 0.000000
0.594221 0.382883 0.000000
0.595562 0.381247 0.000000
0.596903 0.379612 0.000000
0.598244 0.377977 0.000000
0.599585 0.376341 0.000000
0.600926 0.374706 0.000000
0.602268 0.373070 0.000000
0.603609 0.371435 0.000000
0.604950 0.369799 0.000000
0.606291 0.368164 0.000000
0.607632 0.366528 0.000000
0.608973 0.364893 0.000000
0.610314 0.363258 0.000000
0.611656 0.361622 0.000000
0.612997 0.359987 0.000000
0.614338 0.358351 0.000000
0.615679 0.356716 0.000000
0.617020 0.355080 0.000000
0.618361 0.353445 0.000000
0.619702 0.351809 0.000000
0.621043 0.350174 0.000000
0.622385 0.348538 0.000000
0.623726 0.346903 0.000000
0.625067 0.345268 0.000000
0.626408 0.343632 0.000000
0.627749 0.341997 0.000000
0.629090 0.340361 0.000000
0.630431 0.338726 0.000000
0.631773 0.337090 0.000000
0.633114 0.335455 0.000000
0.634455 0.333819 0.000000
0.635796 0.332184 0.000000
0.637137 0.330548 0.000000
0.638478 0.328913 0.000000
0.639819 0.327278 0.000000
0.641161 0.325642 0.000000
0.642502 0.324007 0.000000
0.643843 0.322371 0.000000
0.645184 0.320736 0.000000
0.646525 0.319100 0.000000
0.647866 0.317465 0.000000
0.649207 0.315829 0.000000
0.650548 0.314194 0.000000
0.651890 0.312559 0.000000
0.653231 0.310923 0.000000
0.654572 0.309288 0.000000
0.655913 0.307652 0.000000
0.657254 0.306017 0.000000
0.658595 0.304381 0.000000
0.659936 0.302746 0.000000
0.661278 0.301110 0.000000
0.662619 0.299475 0.000000
0.663960 0.297839 0.000000
0.665301 0.296204 0.000000
0.666642 0.294569 0.000000
0.667983 0.292933 0.000000
0.669324 0.291298 0.000000
0.670666 0.289662 0.000000
0.672007 0.288027 0.000000
0.673348 0.286391 0.000000
0.674689 0.284756 0.000000
0.676030 0.283120 0.000000
0.677371 0.281485 0.000000
[...]
POINT_DATA 7341
SCALARS UX float 1
LOOKUP_TABLE default
0.000000
0.000000
0.258000
0.258000
0.119879
0.101315
0.093554
0.096793
0.000380
-0.000000
0.000000
0.000000
0.000000
0.000000
0.000000
0.000000
0.000000
0.000000
0.000000
0.000000
0.000000
0.000000
0.000000
0.000000
0.000000
0.000000
0.000000
0.000000
0.000000
0.000000
0.000000
0.000000
0.000000
0.000000
0.000000
0.000000
0.000000
0.000000
0.000000
0.000000
0.000000
-0.000000
0.003915
0.006269
0.008642
0.011232
0.014156
0.017404
0.021097
0.024917
0.029410
0.034382
0.040012
0.046443
0.053661
0.062026
0.071844
0.082258
0.105737
0.118501
0.131600
0.144560
0.156948
0.168705
0.179574
0.189439
0.198576
0.207345
0.215356
0.222981
0.230315
0.237429
0.244424
0.251253
0.258000
0.258000
0.258000
0.258000
0.258000
0.258000
0.258000
0.258000
0.258000
0.258000
0.258000
0.258000
0.258000
0.258000
0.258000
0.258000
0.258000
0.258000
0.258000
0.258000
0.258000
0.258000
0.258000
0.258000
0.258000
0.258000
0.258000
0.258000
0.258000
0.258000
0.258000
0.258000
0.258000
0.251628
0.245191
0.238731
0.232031
0.225240
0.218057
0.210765
0.203078
0.195067
0.186899
0.178269
0.169396
0.160273
0.150946
0.141514
0.131646
0.117953
0.116487
0.114790
0.113216
0.112678
0.112582
0.112059
0.112731
0.109301
0.106863
0.107091
0.106304
0.105003
0.106438
0.104954
0.108547
0.101313
0.104425
0.104518
0.104864
0.104334
0.104744
0.100527
0.100963
0.100939
0.103952
0.098314
0.098659
0.098927
0.099199
0.100403
0.099861
0.099191
0.099165
0.095651
0.096341
0.095351
0.090278
0.094287
0.091161
0.093251
0.089994
0.093065
0.096108
0.092098
0.093665
0.095243
0.096185
0.097475
0.091468
0.098821
0.095210
0.097313
0.094742
0.098701
0.096528
0.100762
0.100799
0.101368
0.101406
0.105652
0.105125
0.104391
0.102292
0.103802
0.098163
0.102756
0.103073
0.097692
0.095243
0.093107
0.093079
0.093063
0.092680
0.092357
0.091969
0.091485
0.091468
0.091424
0.091414
0.091416
0.091432
0.091459
0.091485
0.091503
0.091526
0.091561
0.091618
0.091679
0.091758
0.091896
0.092083
0.092327
0.092658
0.093050
0.091951
0.081023
0.072280
0.064765
0.058463
0.052504
0.047114
0.041916
0.037251
0.032879
0.028763
0.024704
0.020826
0.016970
0.012781
0.008310
0.093558
0.088998
0.086902
0.084715
0.084354
0.083363
0.082188
0.081522
0.080471
0.079758
0.079145
0.078534
0.077953
0.077374
0.076798
0.076177
0.075471
0.074762
0.074150
0.073457
0.072848
0.072209
0.071623
0.070837
0.070182
0.069530
0.068960
0.068396
0.067760
0.067138
0.066523
0.065933
0.065341
0.064722
0.064111
0.063538
0.062971
0.062379
0.061819
0.061272
0.060715
0.060179
0.059693
0.059183
0.058656
0.058130
0.057611
0.057108
0.056603
0.056105
0.055618
0.055137
0.054666
0.054197
0.053732
0.053274
0.052818
0.052371
0.051938
0.051504
0.051080
0.050660
0.050266
0.049870
0.049476
0.049085
0.048697
0.048313
0.047932
0.047553
0.047178
0.046805
0.046435
0.046067
0.045702
0.045338
0.044978
0.044618
0.044262
0.043908
0.043557
0.043207
0.042859
0.042515
0.042173
0.041834
0.041498
0.041165
0.040835
0.040507
0.040183
0.039862
0.039544
0.039229
0.038918
0.038609
0.038302
0.037999
0.037699
0.037401
0.037106
0.036813
0.036522
0.036235
0.035949
0.035665
0.035383
0.035102
0.034824
0.034547
0.034271
0.033997
0.033724
0.033451
0.033180
0.032909
0.032638
0.032368
0.032099
0.031830
0.031561
0.031293
0.031026
0.030760
0.030495
0.030232
0.029971
0.029712
0.029455
0.029201
0.028950
0.028701
0.028455
0.028211
0.027970
0.027730
0.027493
0.027258
0.027024
0.026792
0.026562
0.026332
0.026104
0.025876
0.025650
0.025424
0.025198
0.024973
0.024748
0.024523
0.024298
0.024073
0.023848
0.023623
0.023399
0.023175
0.022951
0.022727
0.022502
0.022276
0.022050
0.021822
0.021594
0.021364
0.021133
0.020901
0.020668
0.020433
0.020198
0.019962
0.019725
0.019486
0.019247
0.019007
0.018765
0.018523
0.018280
0.018038
0.017796
0.017555
0.017315
0.017076
0.016839
0.016604
0.016371
0.016139
0.015910
0.015683
0.015458
0.015235
0.015015
0.014797
0.014580
0.014366
0.014154
0.013944
0.013735
0.013529
0.013324
0.013120
0.012919
0.012720
0.012522
0.012326
0.012133
0.011942
0.011752
0.011564
0.011378
0.011193
0.011009
0.010827
0.010646
0.010467
0.010290
0.010114
0.009939
0.009766
0.009594
0.009424
0.009256
0.009089
0.008923
0.008759
0.008596
0.008435
0.008275
0.008117
0.007960
0.007804
0.007650
0.007497
0.007346
0.007196
0.007048
0.006901
0.006755
0.006611
0.006468
0.006326
0.006186
0.006047
0.005909
0.005772
0.005636
0.005501
0.005366
0.005233
0.005101
0.004970
0.004841
0.004713
0.004587
0.004462
0.004339
0.004217
0.004097
0.003979
0.003862
0.003748
0.003635
0.003524
0.003415
0.003307
0.003200
0.003096
0.002992
0.002891
0.002790
0.002692
0.002594
0.002497
0.002402
0.002308
0.002216
0.002125
0.002035
0.001946
0.001859
0.001772
0.001688
0.001605
0.001523
0.001443
0.001364
0.001286
0.001210
0.001134
0.001060
0.000987
0.000914
0.000842
0.000771
0.000702
0.000634
0.000567
0.000500
0.000441
0.082163
0.077269
0.075664
0.002036
0.001521
0.083052
0.001779
0.083633
0.086128
0.033197
0.084277
0.001646
0.045878
0.090266
0.016006
0.031482
0.084279
0.001246
0.001843
0.078936
0.007445
0.094697
0.084677
0.018988
0.083736
0.069725
0.099339
0.052706
0.082148
0.084516
0.002603
0.080310
0.076183
0.088334
0.084746
0.000729
0.083789
0.002892
0.084335
0.001682
0.079129
0.075637
0.075474
0.093344
0.001398
0.087817
0.001027
0.085022
0.090463
0.104437
0.001103
0.083664
0.009887
0.063624
0.001378
0.084024
0.084431
0.057104
0.083657
0.083312
0.019941
0.024029
0.001758
0.001827
0.083110
0.084260
0.040658
0.070394
0.082176
0.001725
0.082807
0.001632
0.038977
0.001760
0.076747
0.027224
0.002060
0.081892
0.014974
0.002922
0.009283
0.002779
0.003872
0.078901
0.081735
0.083429
0.078426
0.076859
0.075795
0.084499
0.091728
0.089587
0.087780
0.087497
0.087101
0.085672
0.101731
0.098004
0.097055
0.096413
0.084641
0.000870
0.084789
0.094484
0.072707
0.075891
0.003705
0.077461
0.003496
0.081790
0.037686
0.003355
0.043927
0.085097
0.019904
0.081111
0.002536
0.075126
0.007259
0.057644
0.079067
0.030040
0.004642
0.079334
0.084819
0.001926
0.081327
0.079697
0.074459
0.092997
0.013445
0.071382
0.086095
0.086323
0.000725
0.084168
0.083410
0.001035
0.084649
0.086398
0.012843
0.084741
0.001422
0.068113
0.084859
0.084613
0.004887
0.084618
0.052081
0.027758
0.084303
0.083946
0.001743
0.083635
0.003553
0.083291
0.083821
0.001499
0.045225
0.001468
0.082242
0.080678
0.060466
0.001876
0.036431
0.082199
0.077929
0.002086
0.023117
0.006623
0.002067
0.008326
0.076194
0.075965
0.080832
0.078902
0.076713
0.075196
0.076247
0.074377
0.082721
0.083758
0.084926
0.088636
0.086133
0.089409
0.085814
0.089116
0.090291
0.093017
0.094029
0.086133
0.099035
0.093550
0.101280
0.082350
0.086219
0.083818
0.016391
0.005320
0.077925
0.077955
0.016713
0.079389
0.073878
0.079750
0.080184
0.086832
0.004265
0.075723
0.034803
0.073733
0.072505
0.005118
0.005778
0.001631
0.072984
0.090204
0.002273
0.090580
0.072488
0.081797
0.048961
0.080283
0.074418
0.088047
0.078802
0.003300
0.059952
0.078252
0.078584
0.085106
0.002732
0.045344
0.078722
0.003346
0.075917
0.028392
0.023614
0.003225
0.077650
0.039457
0.083560
0.003412
0.003528
0.003958
0.082017
0.002630
0.009343
0.077266
0.077141
0.079995
0.074424
0.075761
0.004933
0.062777
0.032742
0.025893
0.084068
0.021598
0.017590
0.003496
0.011715
0.007370
0.072355
0.072646
0.073198
0.076358
0.077413
0.002409
0.074010
0.075211
0.082635
0.078786
0.080148
0.081321
0.090529
0.096745
0.083678
0.082814
0.081872
0.072222
0.094259
0.088636
0.082982
0.083146
0.080891
0.084026
0.081623
0.013332
0.004615
0.085143
0.080909
0.082966
0.077360
0.088504
0.071115
0.074042
0.074064
0.005686
0.069443
0.032617
0.005175
0.038805
0.081282
0.003977
0.008076
0.066636
0.008435
0.063518
0.003521
0.075561
0.024751
0.071154
0.076707
0.087328
0.005619
0.082436
0.007022
0.078950
0.041735
0.079642
0.078931
0.003354
0.078565
0.077869
0.073551
0.033309
0.076491
0.004876
0.074660
0.072852
0.076196
0.019205
0.073042
0.047809
0.052059
0.079379
0.005046
0.081852
0.020253
0.016021
0.009703
0.010675
0.077464
0.076060
0.005239
0.005461
0.073332
0.006527
0.072524
0.073555
0.068726
0.077793
0.082957
0.080711
0.072696
0.012478
0.089564
0.076557
0.089311
0.080332
0.070852
0.002882
0.079222
0.079466
0.088634
0.053271
0.097595
0.076967
0.094639
0.086284
0.075768
0.085666
0.080480
0.081167
0.080076
0.014617
0.011353
0.081539
0.079220
0.076312
0.087317
0.080121
0.080498
0.082784
0.088761
0.009898
0.007552
0.063334
0.006737
0.072541
0.077202
0.074208
0.018853
0.036866
0.073826
0.079025
0.003408
0.073077
0.076521
0.072400
0.079192
0.078799
0.071602
0.072598
0.007327
0.023294
0.008421
0.083698
0.075361
0.059044
0.013808
0.004997
0.005747
0.014425
0.070771
0.071774
0.003914
0.006856
0.029184
0.077137
0.079192
0.075960
0.052663
0.063892
0.072492
0.084765
0.079474
0.081001
0.072537
0.010629
0.007593
0.072953
0.067778
0.036985
0.072064
0.071330
0.008703
0.053366
0.078049
0.065701
0.082374
0.019105
0.067939
0.006350
0.004868
0.043458
0.068896
0.029113
0.014883
0.073772
0.076149
0.074452
0.022158
0.071067
0.005336
0.074516
0.070739
0.071296
0.004144
0.085867
0.075291
0.101045
0.075314
0.084635
0.079830
0.078013
0.078497
0.079355
0.085699
0.078136
0.080491
0.080965
0.003488
0.078585
0.081346
0.073679
0.078431
0.075548
0.085084
0.078489
0.069582
0.072378
0.072025
0.036292
0.069960
0.005226
0.069529
0.012380
0.056511
0.008003
0.070000
0.004446
0.061131
0.080509
0.006595
0.075114
0.073133
0.077446
0.071026
0.071643
0.003190
0.021361
0.027746
0.006720
0.007571
0.070295
0.076145
0.004686
0.068835
0.077630
0.077758
0.077658
0.071168
0.083359
0.080382
0.041522
0.010895
0.032535
0.062289
0.011485
0.012854
0.073201
0.007801
0.022218
0.004423
0.077268
0.058404
0.070448
0.063119
0.066950
0.017989
0.025715
0.009498
0.008259
0.073434
0.028468
0.071322
0.077436
0.051861
0.059210
0.080815
0.069436
0.071298
0.080000
0.071659
0.081986
0.069410
0.077225
0.078448
0.079193
0.016676
0.007808
0.078974
0.082520
0.075136
0.084788
0.072841
0.072008
0.073726
0.005491
0.005299
0.075261
0.069393
0.079392
0.079927
0.073410
0.081328
0.010770
0.083460
0.065251
0.077530
0.070525
0.046889
0.077060
0.073955
0.078030
0.077813
0.076291
0.068617
0.010415
0.058295
0.007989
0.067304
0.020951
0.010623
0.055624
0.040288
0.015077
0.004181
0.070738
0.067886
0.009494
0.041182
0.070433
0.070955
0.005621
0.056428
0.066035
0.013155
0.071713
0.071362
0.006003
0.076742
0.074524
0.070529
0.069767
0.075519
0.068538
0.069352
0.079499
0.071664
0.069301
0.077405
0.047005
0.072798
0.024477
0.081479
0.030800
0.062206
0.012118
0.078900
0.059859
0.009000
0.002255
0.005240
0.007052
0.070703
0.006633
0.076351
0.007284
0.080041
0.016715
0.014029
0.031965
0.016144
0.005243
0.026379
0.010019
0.076995
0.077843
0.077956
0.076923
0.065315
0.071588
0.073094
0.069702
0.056648
0.008249
0.075290
0.069193
0.004521
0.076947
0.076551
0.046084
0.076998
0.076676
0.074066
0.070047
0.075868
0.081415
0.070859
0.005830
0.079136
0.075759
0.078148
0.009409
0.078948
0.076760
0.077550
0.005405
0.073788
0.068995
0.077128
0.082097
0.012535
0.006663
0.014269
0.005600
0.006515
0.032394
0.004073
0.004067
0.067994
0.029564
0.070682
0.074084
0.008970
0.077923
0.060428
0.046011
0.075558
0.011382
0.006298
0.059573
0.008397
0.020855
0.009818
0.012698
0.069539
0.074730
0.075989
0.068622
0.078524
0.015871
0.068386
0.070454
0.075460
0.075950
0.067497
0.024500
0.066198
0.003114
0.053672
0.067223
0.057512
0.055133
0.066170
0.035863
0.075133
0.071903
0.073086
0.070738
0.010854
0.078228
0.005102
0.014569
0.005837
0.077318
0.018299
0.036631
0.051207
0.071365
0.012002
0.010135
0.003862
0.051060
0.071050
0.009058
0.070058
0.072497
0.075761
0.075422
0.067601
0.064933
0.068422
0.067991
0.069823
0.074156
0.073825
0.014662
0.070630
0.075066
0.050978
0.076436
0.076056
0.076973
0.069300
0.081523
0.077084
0.001017
0.072314
0.068212
0.076329
0.008512
0.076030
0.045360
0.067482
0.007085
0.078070
0.065756
0.013900
0.016081
0.053430
0.065037
0.071740
0.018586
0.044057
0.006658
0.066177
0.033037
0.059262
0.004014
0.068517
0.004877
0.003888
0.075346
0.071208
0.069481
0.003072
0.011934
0.075172
0.074802
0.018911
0.061556
0.060339
0.051339
0.008227
0.073188
0.069343
0.069650
0.068916
0.067843
0.029198
0.002275
0.068281
0.003372
0.049833
0.008967
0.075434
0.016056
0.012866
0.074645
0.075586
0.017004
0.077650
0.025527
0.075201
0.067749
0.005446
0.007659
0.075224
0.006512
0.075096
0.007596
0.009212
0.011972
0.069626
0.040954
0.019474
0.054957
0.071726
0.018048
0.075198
0.072659
0.039320
0.069462
0.068290
0.072283
0.070943
0.074068
0.066850
0.067656
0.074619
0.073271
0.049319
0.076064
0.063920
0.068231
0.075690
0.009896
0.067821
0.075960
0.075682
0.034250
0.006602
0.064273
0.048898
0.054944
0.067388
0.014221
0.050947
0.060302
0.016635
0.042990
0.007493
0.007700
0.053176
0.005664
0.046647
0.003085
0.062440
0.066376
0.068803
0.070777
0.010617
0.071888
0.033115
0.074067
0.066617
0.066056
0.015311
0.067003
0.009947
0.074121
0.029717
0.008484
0.067131
0.073246
0.011450
0.004691
0.062966
0.020484
0.064493
0.071381
0.070509
0.069345
0.066684
0.056058
0.013303
0.010731
0.020421
0.074288
0.006898
0.005912
0.012603
0.073187
0.014585
0.023257
0.061180
0.052506
0.002993
0.044830
0.068053
0.072611
0.018814
0.036543
0.074907
0.073807
0.002362
0.069827
0.072660
0.069166
0.065919
0.009155
0.074522
0.068408
0.072541
0.073333
0.065465
0.074310
0.071744
0.069827
0.069234
0.074525
0.001680
0.073565
0.067931
0.037810
0.074833
0.014190
0.074418
0.045333
0.061701
0.066311
0.001389
0.070878
0.066477
0.075613
0.069408
0.047611
0.006535
0.004730
0.074732
0.006617
0.064889
0.064439
0.015778
0.030095
0.051997
0.041448
0.010770
0.060250
0.051464
0.070054
0.007853
0.006554
0.003888
0.072660
0.006357
0.042327
0.066328
0.005430
0.004612
0.070724
0.057803
0.067653
0.017969
0.068136
0.056180
0.002431
0.020176
0.066119
0.011806
0.010491
0.071848
0.013709
0.067449
0.064277
0.071463
0.067949
0.065710
0.036183
0.028752
0.014937
0.065463
0.001460
0.057538
0.008977
0.018509
0.049548
0.071899
0.069011
0.069580
0.040784
0.011007
0.016389
0.068150
0.009848
0.014787
0.003850
0.022097
0.033001
0.007645
0.022847
0.059718
0.073545
0.073221
0.068796
0.067376
0.002140
0.066772
0.073681
0.074510
0.074182
0.073168
0.065197
0.005569
0.069116
0.012641
0.069925
0.066623
0.026509
0.070745
0.007941
0.065952
0.070797
0.071275
0.074159
0.011091
0.065000
0.058923
0.070745
0.005519
0.022850
0.002211
0.006354
0.073335
0.000551
0.007388
0.065806
0.069299
0.073487
0.072086
0.065553
0.046168
0.003260
0.047407
0.066475
0.057660
0.073691
0.074122
0.001436
0.063856
0.018849
0.016662
0.048671
0.030122
0.040008
0.056238
0.016688
0.011387
0.008799
0.009296
0.068183
0.049259
0.023843
0.043413
0.003164
0.064594
0.054027
0.065507
0.004419
0.020490
0.064959
0.013442
0.012699
0.009268
0.001494
0.001819
0.011831
0.063594
0.018852
0.017702
0.008173
0.047216
0.044811
0.012763
0.054326
0.003295
0.066822
0.036315
0.071701
0.069116
0.017041
0.065005
0.027337
0.071919
0.064765
0.068845
0.067354
0.062449
0.012880
0.009875
0.032290
0.022805
0.004647
0.040235
0.055621
0.072781
0.065765
0.063815
0.073694
0.069315
0.068992
0.066731
0.068141
0.057005
0.011599
0.064492
0.069590
0.002169
0.072258
0.064105
0.067461
0.067551
0.073600
0.072632
0.068798
0.068077
0.064747
0.056080
0.006718
0.012819
0.015410
0.073563
0.070252
0.072521
0.066145
0.006076
0.026585
0.068117
0.044801
0.070320
0.022261
0.073250
0.005337
0.073308
0.005331
0.052441
0.067917
0.071952
0.007152
0.026948
0.007665
0.002351
0.062673
0.064177
0.019018
0.014411
0.045441
0.068729
0.053279
0.043621
0.010584
0.007273
0.007956
0.064935
0.007077
0.050606
0.040226
0.027827
0.005895
0.066605
0.049208
0.026331
0.001838
0.062487
0.021815
0.011489
0.066122
0.023640
0.002249
0.022564
0.015010
0.018192
0.025374
0.036177
0.070288
0.009026
0.067806
0.043588
0.066254
0.013179
0.052538
0.012539
0.033004
0.063884
0.011051
0.019682
0.012786
0.003818
0.016079
0.010366
0.018794
0.066195
0.066334
0.063268
0.063494
0.036352
0.057071
0.003842
0.059986
0.063680
0.071489
0.067446
0.008708
0.071134
0.070112
0.014009
0.024778
0.065126
0.065755
0.066357
0.066051
0.011085
0.066964
0.056793
0.063186
0.071969
0.072982
0.017499
0.067307
0.063440
0.065196
0.041474
0.072543
0.072996
0.006771
0.055211
0.005303
0.048585
0.064248
0.038521
0.066650
0.024099
0.072386
0.067935
0.001356
0.071396
0.065135
0.068981
0.067544
0.068279
0.008948
0.071981
0.067091
0.004565
0.071346
0.072872
0.004924
0.072165
0.067032
0.021815
0.067211
0.030098
0.042277
0.017874
0.050445
0.056936
0.009822
0.011850
0.011566
0.046991
0.004660
0.025312
0.063798
0.015598
0.038788
0.003216
0.003294
0.064717
0.063774
0.007300
0.004905
0.054425
0.001902
0.063781
0.053855
0.005396
0.010110
0.061858
0.065534
0.002174
0.049112
0.066388
0.032979
0.007790
0.008144
0.032981
0.021049
0.012997
0.062202
0.069641
0.009218
0.064294
0.046196
0.020525
0.014548
0.070762
0.064045
0.065886
0.020256
0.010348
0.022242
0.070002
0.037054
0.013562
0.068893
0.064312
0.004387
0.062937
0.062162
0.012713
0.015214
0.015168
0.001390
0.027627
0.039890
0.022530
0.019482
0.067686
0.065531
0.007400
0.070961
0.071894
0.062732
0.065161
0.002738
0.062992
0.064709
0.072310
0.068682
0.072533
0.065029
0.071066
0.065641
0.025729
0.030195
0.003938
0.071324
0.010069
0.071217
0.066703
0.015166
0.005817
0.065028
0.072687
0.062996
0.070624
0.035695
0.064752
0.006528
0.070933
0.071442
0.014250
0.072017
0.065244
0.018637
0.063091
0.060648
0.065692
0.020830
0.024312
0.016245
0.030049
0.070333
0.046439
0.066336
0.062880
0.054548
0.011666
0.063491
0.009346
0.061727
0.009951
0.008661
0.061726
0.064213
0.062350
0.022952
0.003951
0.006300
0.060864
0.035880
0.002261
0.002636
0.061489
0.004736
0.021820
0.005311
0.065103
0.029770
0.035779
0.064579
0.000995
0.005215
0.022571
0.066818
0.064152
0.068398
0.066087
0.059928
0.020991
0.010636
0.014069
0.025343
0.026931
0.027408
0.008170
0.014136
0.016660
0.043238
0.070220
0.069775
0.016549
0.064252
0.007618
0.071466
0.060433
0.054242
0.009959
0.061430
0.066778
0.064500
0.069995
0.071651
0.063345
0.028629
0.069489
0.061614
0.067211
0.013734
0.005728
0.063559
0.068016
0.007216
0.006971
0.038659
0.070181
0.071594
0.052107
0.033983
0.008194
0.001746
0.015054
0.062712
0.017989
0.069282
0.003360
0.002700
0.063929
0.007260
0.014779
0.067569
0.070351
0.070816
0.065197
0.058896
0.001448
0.071005
0.030209
0.043393
0.051310
0.002636
0.011277
0.021042
0.019434
0.058934
0.024666
0.064010
0.017866
0.029107
0.040749
0.021146
0.036122
0.014642
0.048756
0.054373
0.069695
0.015474
0.012415
0.046034
0.010847
0.063534
0.068589
0.020191
0.060746
0.004626
0.008513
0.010603
0.007738
0.061596
0.001887
0.007372
0.030961
0.062324
0.003847
0.005785
0.062244
0.003227
0.008469
0.060995
0.002151
0.001162
0.067564
0.061284
0.011026
0.023249
0.051664
0.043767
0.069404
0.052387
0.046347
0.012780
0.064226
0.016755
0.025119
0.068592
0.063708
0.061441
0.004377
0.060903
0.000770
0.021372
0.015866
0.008849
0.065719
0.061191
0.025041
0.039502
0.065227
0.009568
0.062145
0.031999
0.009057
0.019585
0.060161
0.062867
0.071086
0.049225
0.033656
0.069177
0.061419
0.060960
0.062640
0.070062
0.063365
0.070540
0.062460
0.002682
0.065985
0.005843
0.070062
0.007889
0.064166
0.041246
0.058348
0.069424
0.061222
0.069758
0.067065
0.015145
0.003293
0.033750
0.023807
0.064097
0.007310
0.028162
0.016599
0.032465
0.006234
0.062402
0.070918
0.070140
0.065758
0.066950
0.006745
0.008524
0.068209
0.007393
0.062715
0.001270
0.059438
0.031593
0.017231
0.066712
0.007675
0.071346
0.059346
0.022915
0.033867
0.041287
0.015640
0.052410
0.011651
0.064249
0.010906
0.065447
0.009342
0.048152
0.058563
0.019287
0.008502
0.067076
0.019580
0.068329
0.060508
0.025832
0.002732
0.049256
0.063944
0.008109
0.017529
0.061122
0.060785
0.024328
0.006612
0.059743
0.039750
0.000742
0.069730
0.012066
0.007793
0.003738
0.069031
0.002193
0.005625
0.016233
0.013597
0.001036
0.004824
0.061575
0.061240
0.056694
0.006684
0.023766
0.034242
0.027520
0.028230
0.066760
0.051706
0.035974
0.069130
0.060064
0.023897
0.002600
0.043838
0.060892
0.030179
0.062920
0.008158
0.035538
0.005109
0.009911
0.031522
0.009018
0.018157
0.001290
0.001612
0.028654
0.064342