# vtk DataFile Version 2.0
Test
ASCII
DATASET POLYDATA
POINTS 7341 float
0.000000 0.000000 0.000000
1.000000 0.000000 0.000000
1.000000 1.000000 0.000000
0.000000 1.000000 0.000000
0.000000 0.500000 0.000000
0.500000 0.500000 0.000000
1.000000 0.500000 0.000000
0.499000 0.499000 0.000000
0.900000 0.010000 0.000000
0.029412 0.000000 0.000000
0.058824 0.000000 0.000000
0.088235 0.000000 0.000000
0.117647 0.000000 0.000000
0.147059 0.000000 0.000000
0.176471 0.000000 0.000000
0.205882 0.000000 0.000000
0.235294 0.000000 0.000000
0.264706 0.000000 0.000000
0.294118 0.000000 0.000000
0.323529 0.000000 0.000000
0.352941 0.000000 0.000000
0.382353 0.000000 0.000000
0.411765 0.000000 0.000000
0.441176 0.000000 0.000000
0.470588 0.000000 0.000000
0.500000 0.000000 0.000000
0.529412 0.000000 0.000000
0.558824 0.000000 0.000000
0.588235 0.000000 0.000000
0.617647 0.000000 0.000000
0.647059 0.000000 0.000000
0.676471 0.000000 0.000000
0.705882 0.000000 0.000000
0.735294 0.000000 0.000000
0.764706 0.000000 0.000000
0.794118 0.000000 0.000000
0.823529 0.000000 0.000000
0.852941 0.000000 0.000000
0.882353 0.000000 0.000000
0.911765 0.000000 0.000000
0.941176 0.000000 0.000000
0.970588 0.000000 0.000000
1.000000 0.029412 0.000000
1.000000 0.058824 0.000000
1.000000 0.088235 0.000000
1.000000 0.117647 0.000000
1.000000 0.147059 0.000000
1.000000 0.176471 0.000000
1.000000 0.205882 0.000000
1.000000 0.235294 0.000000
1.000000 0.264706 0.000000
1.000000 0.294118 0.000000
1.000000 0.323529 0.000000
1.000000 0.352941 0.000000
1.000000 0.382353 0.000000
1.000000 0.411765 0.000000
1.000000 0.441176 0.000000
1.000000 0.470588 0.000000
1.000000 0.529412 0.000000
1.000000 0.558824 0.000000
1.000000 0.588235 0.000000
1.000000 0.617647 0.000000
1.000000 0.647059 0.000000
1.000000 0.676471 0.000000
1.000000 0.705882 0.000000
1.000000 0.735294 0.000000
1.000000 0.764706 0.000000
1.000000 0.794118 0.000000
1.000000 0.823529 0.000000
1.000000 0.852941 0.000000
1.000000 0.882353 0.000000
1.000000 0.911765 0.000000
1.000000 0.941176 0.000000
1.000000 0.970588 0.000000
0.970588 1.000000 0.000000
0.941176 1.000000 0.000000
0.911765 1.000000 0.000000
0.882353 1.000000 0.000000
0.852941 1.000000 0.000000
0.823529 1.000000 0.000000
0.794118 1.000000 0.000000
0.764706 1.000000 0.000000
0.735294 1.000000 0.000000
0.705882 1.000000 0.000000
0.676471 1.000000 0.000000
0.647059 1.000000 0.000000
0.617647 1.000000 0.000000
0.588235 1.000000 0.000000
0.558824 1.000000 0.000000
0.529412 1.000000 0.000000
0.500000 1.000000 0.000000
0.470588 1.000000 0.000000
0.441176 1.000000 0.000000
0.411765 1.000000 0.000000
0.382353 1.000000 0.000000
0.352941 1.000000 0.000000
0.323529 1.000000 0.000000
0.294118 1.000000 0.000000
0.264706 1.000000 0.000000
0.235294 1.000000 0.000000
0.205882 1.000000 0.000000
0.176471 1.000000 0.000000
0.147059 1.000000 0.000000
0.117647 1.000000 0.000000
0.088235 1.000000 0.000000
0.058824 1.000000 0.000000
0.029412 1.000000 0.000000
0.000000 0.970588 0.000000
0.000000 0.941176 0.000000
0.000000 0.911765 0.000000
0.000000 0.882353 0.000000
0.000000 0.852941 0.000000
0.000000 0.823529 0.000000
0.000000 0.794118 0.000000
0.000000 0.764706 0.000000
0.000000 0.735294 0.000000
0.000000 0.705882 0.000000
0.000000 0.676471 0.000000
0.000000 0.647059 0.000000
0.000000 0.617647 0.000000
0.000000 0.588235 0.000000
0.000000 0.558824 0.000000
0.000000 0.529412 0.000000
0.007246 0.500000 0.000000
0.014493 0.500000 0.000000
0.021739 0.500000 0.000000
0.028986 0.500000 0.000000
0.036232 0.500000 0.000000
0.043478 0.500000 0.000000
0.050725 0.500000 0.000000
0.057971 0.500000 0.000000
0.065217 0.500000 0.000000
0.072464 0.500000 0.000000
0.079710 0.500000 0.000000
0.086957 0.500000 0.000000
0.094203 0.500000 0.000000
0.101449 0.500000 0.000000
0.108696 0.500000 0.000000
0.115942 0.500000 0.000000
0.123188 0.500000 0.000000
0.130435 0.500000 0.000000
0.137681 0.500000 0.000000
0.144928 0.500000 0.000000
0.152174 0.500000 0.000000
0.159420 0.500000 0.000000
0.166667 0.500000 0.000000
0.173913 0.500000 0.000000
0.181159 0.500000 0.000000
0.188406 0.500000 0.000000
0.195652 0.500000 0.000000
0.202899 0.500000 0.000000
0.210145 0.500000 0.000000
0.217391 0.500000 0.000000
0.224638 0.500000 0.000000
0.231884 0.500000 0.000000
0.239130 0.500000 0.000000
0.246377 0.500000 0.000000
0.253623 0.500000 0.000000
0.260870 0.500000 0.000000
0.268116 0.500000 0.000000
0.275362 0.500000 0.000000
0.282609 0.500000 0.000000
0.289855 0.500000 0.000000
0.297101 0.500000 0.000000
0.304348 0.500000 0.000000
0.311594 0.500000 0.000000
0.318841 0.500000 0.000000
0.326087 0.500000 0.000000
0.333333 0.500000 0.000000
0.340580 0.500000 0.000000
0.347826 0.500000 0.000000
0.355072 0.500000 0.000000
0.362319 0.500000 0.000000
0.369565 0.500000 0.000000
0.376812 0.500000 0.000000
0.384058 0.500000 0.000000
0.391304 0.500000 0.000000
0.398551 0.500000 0.000000
0.405797 0.500000 0.000000
0.413043 0.500000 0.000000
0.420290 0.500000 0.000000
0.427536 0.500000 0.000000
0.434783 0.500000 0.000000
0.442029 0.500000 0.000000
0.449275 0.500000 0.000000
0.456522 0.500000 0.000000
0.463768 0.500000 0.000000
0.471014 0.500000 0.000000
0.478261 0.500000 0.000000
0.485507 0.500000 0.000000
0.492754 0.500000 0.000000
0.510004 0.500000 0.000000
0.520408 0.500000 0.000000
0.531229 0.500000 0.000000
0.542483 0.500000 0.000000
0.554187 0.500000 0.000000
0.566359 0.500000 0.000000
0.579019 0.500000 0.000000
0.592185 0.500000 0.000000
0.605877 0.500000 0.000000
0.620118 0.500000 0.000000
0.634929 0.500000 0.000000
0.650332 0.500000 0.000000
0.666352 0.500000 0.000000
0.683013 0.500000 0.000000
0.700340 0.500000 0.000000
0.718361 0.500000 0.000000
0.737103 0.500000 0.000000
0.756595 0.500000 0.000000
0.776867 0.500000 0.000000
0.797950 0.500000 0.000000
0.819877 0.500000 0.000000
0.842681 0.500000 0.000000
0.866398 0.500000 0.000000
0.891064 0.500000 0.000000
0.916716 0.500000 0.000000
0.943396 0.500000 0.000000
0.971143 0.500000 0.000000
0.000000 0.470588 0.000000
0.000000 0.441176 0.000000
0.000000 0.411765 0.000000
0.000000 0.382353 0.000000
0.000000 0.352941 0.000000
0.000000 0.323529 0.000000
0.000000 0.294118 0.000000
0.000000 0.264706 0.000000
0.000000 0.235294 0.000000
0.000000 0.205882 0.000000
0.000000 0.176471 0.000000
0.000000 0.147059 0.000000
0.000000 0.117647 0.000000
0.000000 0.088235 0.000000
0.000000 0.058824 0.000000
0.000000 0.029412 0.000000
0.500341 0.497365 0.000000
0.501682 0.495729 0.000000
0.503023 0.494094 0.000000
0.504365 0.492458 0.000000
0.505706 0.490823 0.000000
0.507047 0.489187 0.000000
0.508388 0.487552 0.000000
0.509729 0.485916 0.000000
0.511070 0.484281 0.000000
0.512411 0.482645 0.000000
0.513753 0.481010 0.000000
0.515094 0.479375 0.000000
0.516435 0.477739 0.000000
0.517776 0.476104 0.000000
0.519117 0.474468 0.000000
0.520458 0.472833 0.000000
0.521799 0.471197 0.000000
0.523140 0.469562 0.000000
0.524482 0.467926 0.000000
0.525823 0.466291 0.000000
0.527164 0.464656 0.000000
0.528505 0.463020 0.000000
0.529846 0.461385 0.000000
0.531187 0.459749 0.000000
0.532528 0.458114 0.000000
0.533870 0.456478 0.000000
0.535211 0.454843 0.000000
0.536552 0.453207 0.000000
0.537893 0.451572 0.000000
0.539234 0.449936 0.000000
0.540575 0.448301 0.000000
0.541916 0.446666 0.000000
0.543258 0.445030 0.000000
0.544599 0.443395 0.000000
0.545940 0.441759 0.000000
0.547281 0.440124 0.000000
0.548622 0.438488 0.000000
0.549963 0.436853 0.000000
0.551304 0.435217 0.000000
0.552645 0.433582 0.000000
0.553987 0.431946 0.000000
0.555328 0.430311 0.000000
0.556669 0.428676 0.000000
0.558010 0.427040 0.000000
0.559351 0.425405 0.000000
0.560692 0.423769 0.000000
0.562033 0.422134 0.000000
0.563375 0.420498 0.000000
0.564716 0.418863 0.000000
0.566057 0.417227 0.000000
0.567398 0.415592 0.000000
0.568739 0.413957 0.000000
0.570080 0.412321 0.000000
0.571421 0.410686 0.000000
0.572763 0.409050 0.000000
0.574104 0.407415 0.000000
0.575445 0.405779 0.000000
0.576786 0.404144 0.000000
0.578127 0.402508 0.000000
0.579468 0.400873 0.000000
0.580809 0.399237 0.000000
0.582151 0.397602 0.000000
0.583492 0.395967 0.000000
0.584833 0.394331 0.000000
0.586174 0.392696 0.000000
0.587515 0.391060 0.000000
0.588856 0.389425 0.000000
0.590197 0.387789 0.000000
0.591538 0.386154 0.000000
0.592880 0.384518 0.000000
0.594221 0.382883 0.000000
0.595562 0.381247 0.000000
0.596903 0.379612 0.000000
0.598244 0.377977 0.000000
0.599585 0.376341 0.000000
0.600926 0.374706 0.000000
0.602268 0.373070 0.000000
0.603609 0.371435 0.000000
0.604950 0.369799 0.000000
0.606291 0.368164 0.000000
0.607632 0.366528 0.000000
0.608973 0.364893 0.000000
0.610314 0.363258 0.000000
0.611656 0.361622 0.000000
0.612997 0.359987 0.000000
0.614338 0.358351 0.000000
0.615679 0.356716 0.000000
0.617020 0.355080 0.000000
0.618361 0.353445 0.000000
0.619702 0.351809 0.000000
0.621043 0.350174 0.000000
0.622385 0.348538 0.000000
0.623726 0.346903 0.000000
0.625067 0.345268 0.000000
0.626408 0.343632 0.000000
0.627749 0.341997 0.000000
0.629090 0.340361 0.000000
0.630431 0.338726 0.000000
0.631773 0.337090 0.000000
0.633114 0.335455 0.000000
0.634455 0.333819 0.000000
0.635796 0.332184 0.000000
0.637137 0.330548 0.000000
0.638478 0.328913 0.000000
0.639819 0.327278 0.000000
0.641161 0.325642 0.000000
0.642502 0.324007 0.000000
0.643843 0.322371 0.000000
0.645184 0.320736 0.000000
0.646525 0.319100 0.000000
0.647866 0.317465 0.000000
0.649207 0.315829 0.000000
0.650548 0.314194 0.000000
0.651890 0.312559 0.000000
0.653231 0.310923 0.000000
0.654572 0.309288 0.000000
0.655913 0.307652 0.000000
0.657254 0.306017 0.000000
0.658595 0.304381 0.000000
0.659936 0.302746 0.000000
0.661278 0.301110 0.000000
0.662619 0.299475 0.000000
0.663960 0.297839 0.000000
0.665301 0.296204 0.000000
0.666642 0.294569 0.000000
0.667983 0.292933 0.000000
0.669324 0.291298 0.000000
0.670666 0.289662 0.000000
0.672007 0.288027 0.000000
0.673348 0.286391 0.000000
0.674689 0.284756 0.000000
0.676030 0.283120 0.000000
0.677371 0.281485 0.000000
[...]
POINT_DATA 7341
SCALARS UX float 1
LOOKUP_TABLE default
0.000000
0.000000
0.200500
0.200500
0.066260
0.058960
0.097926
0.058711
0.000476
-0.000000
0.000000
0.000000
0.000000
0.000000
0.000000
0.000000
0.000000
0.000000
0.000000
0.000000
0.000000
0.000000
0.000000
0.000000
0.000000
0.000000
0.000000
0.000000
0.000000
0.000000
0.000000
0.000000
0.000000
0.000000
0.000000
0.000000
0.000000
0.000000
0.000000
0.000000
0.000000
-0.000000
0.007726
0.022309
0.030120
0.035998
0.042620
0.049525
0.056182
0.062992
0.068580
0.073300
0.077436
0.081332
0.084767
0.088058
0.091371
0.094717
0.101452
0.105202
0.108745
0.113120
0.118049
0.122854
0.128673
0.135222
0.141925
0.148692
0.155907
0.163210
0.170590
0.178019
0.185477
0.192981
0.200500
0.200500
0.200500
0.200500
0.200500
0.200500
0.200500
0.200500
0.200500
0.200500
0.200500
0.200500
0.200500
0.200500
0.200500
0.200500
0.200500
0.200500
0.200500
0.200500
0.200500
0.200500
0.200500
0.200500
0.200500
0.200500
0.200500
0.200500
0.200500
0.200500
0.200500
0.200500
0.200500
0.191856
0.183227
0.174599
0.166004
0.157418
0.148871
0.140331
0.131831
0.123366
0.114899
0.106492
0.098129
0.089834
0.081832
0.073815
0.067201
0.065775
0.065400
0.068977
0.070180
0.069158
0.068600
0.066673
0.062874
0.066901
0.065412
0.065248
0.064700
0.063965
0.062264
0.063305
0.059513
0.062576
0.061129
0.061472
0.060290
0.059681
0.059298
0.057960
0.056332
0.055172
0.054687
0.056263
0.056790
0.056164
0.055554
0.054956
0.054448
0.053950
0.053654
0.053404
0.053194
0.053145
0.053099
0.053127
0.053197
0.053273
0.053411
0.053596
0.053764
0.053972
0.054201
0.054407
0.054651
0.054875
0.055111
0.055353
0.055593
0.055850
0.056104
0.056355
0.056619
0.056872
0.057130
0.057392
0.057671
0.057958
0.058250
0.058533
0.058838
0.059157
0.059171
0.059104
0.059017
0.058879
0.058816
0.058784
0.058798
0.058889
0.059114
0.059412
0.060018
0.060730
0.061750
0.062878
0.064210
0.065670
0.067253
0.068900
0.070578
0.072165
0.073690
0.075166
0.076661
0.078210
0.079940
0.081947
0.084280
0.087115
0.090402
0.093932
0.066464
0.058791
0.051986
0.045912
0.041860
0.038162
0.034824
0.032502
0.029658
0.029535
0.027514
0.025702
0.020569
0.021374
0.017929
0.011699
0.058268
0.057824
0.057376
0.056933
0.056497
0.056063
0.055633
0.055205
0.054778
0.054353
0.053931
0.053511
0.053093
0.052678
0.052266
0.051857
0.051451
0.051048
0.050649
0.050252
0.049857
0.049465
0.049078
0.048694
0.048313
0.047936
0.047562
0.047194
0.046830
0.046469
0.046111
0.045755
0.045402
0.045052
0.044703
0.044357
0.044012
0.043668
0.043324
0.042982
0.042641
0.042300
0.041959
0.041619
0.041280
0.040941
0.040603
0.040265
0.039928
0.039592
0.039256
0.038920
0.038585
0.038250
0.037916
0.037582
0.037249
0.036916
0.036584
0.036252
0.035921
0.035591
0.035262
0.034933
0.034605
0.034278
0.033951
0.033626
0.033303
0.032980
0.032659
0.032339
0.032020
0.031703
0.031387
0.031072
0.030760
0.030449
0.030139
0.029831
0.029525
0.029221
0.028918
0.028617
0.028318
0.028022
0.027727
0.027434
0.027144
0.026855
0.026568
0.026284
0.026003
0.025723
0.025446
0.025171
0.024899
0.024629
0.024362
0.024097
0.023835
0.023575
0.023318
0.023064
0.022812
0.022563
0.022316
0.022073
0.021832
0.021594
0.021358
0.021126
0.020895
0.020668
0.020443
0.020221
0.020003
0.019787
0.019573
0.019361
0.019153
0.018947
0.018743
0.018543
0.018344
0.018149
0.017955
0.017764
0.017576
0.017390
0.017206
0.017024
0.016845
0.016667
0.016491
0.016318
0.016146
0.015976
0.015808
0.015642
0.015479
0.015317
0.015158
0.015001
0.014845
0.014692
0.014541
0.014391
0.014244
0.014099
0.013955
0.013814
0.013675
0.013537
0.013403
0.013270
0.013139
0.013010
0.012883
0.012758
0.012635
0.012514
0.012395
0.012278
0.012164
0.012051
0.011940
0.011832
0.011726
0.011622
0.011520
0.011420
0.011322
0.011226
0.011132
0.011040
0.010949
0.010859
0.010771
0.010684
0.010599
0.010515
0.010432
0.010352
0.010272
0.010195
0.010118
0.010043
0.009970
0.009898
0.009827
0.009758
0.009690
0.009623
0.009558
0.009493
0.009430
0.009368
0.009306
0.009245
0.009185
0.009126
0.009068
0.009011
0.008956
0.008900
0.008845
0.008790
0.008734
0.008678
0.008622
0.008566
0.008509
0.008453
0.008397
0.008342
0.008286
0.008230
0.008174
0.008116
0.008058
0.008000
0.007941
0.007881
0.007821
0.007761
0.007701
0.007641
0.007581
0.007520
0.007459
0.007397
0.007334
0.007268
0.007200
0.007130
0.007056
0.006981
0.006904
0.006825
0.006744
0.006662
0.006576
0.006490
0.006402
0.006313
0.006223
0.006130
0.006036
0.005942
0.005848
0.005752
0.005653
0.005553
0.005450
0.005345
0.005237
0.005128
0.005017
0.004906
0.004793
0.004677
0.004560
0.004441
0.004320
0.004199
0.004076
0.003953
0.003828
0.003704
0.003579
0.003454
0.003329
0.003203
0.003077
0.002949
0.002821
0.002694
0.002567
0.002441
0.002317
0.002195
0.002075
0.001958
0.001842
0.001729
0.001619
0.001512
0.001407
0.001303
0.001204
0.001105
0.001008
0.000914
0.000820
0.000730
0.000640
0.000557
0.052361
0.051577
0.053234
0.000143
-0.000009
0.074176
-0.000124
0.067761
0.052970
0.068371
0.061268
0.000364
0.032466
0.062109
0.044751
0.024692
0.057252
0.001129
0.000661
0.054846
0.022010
0.065006
0.056238
0.016939
0.055965
0.049230
0.068105
0.080521
0.080772
0.057053
0.001116
0.051518
0.052121
0.060622
0.055004
0.001250
0.055785
0.004571
0.057275
0.000103
0.051302
0.052535
0.053723
0.064837
0.001446
0.057585
0.001187
0.057303
0.063653
0.068889
0.001679
0.055716
0.030754
0.044750
0.000857
0.056137
0.058936
0.039768
0.064047
0.070779
0.052186
0.058023
0.000139
0.000014
0.055273
0.056407
0.030128
0.087145
0.087009
-0.000144
0.076022
-0.000121
0.073053
0.000128
0.054255
0.022359
0.000186
0.090394
0.013815
0.001849
0.006876
0.002603
0.002894
0.051343
0.052054
0.053318
0.051382
0.051746
0.052769
0.054422
0.063725
0.061501
0.060262
0.058994
0.057312
0.056044
0.068974
0.067552
0.066432
0.065653
0.056917
0.001258
0.056397
0.058177
0.050900
0.049638
0.000388
0.054595
0.000058
0.054063
0.067988
0.000503
0.030246
0.060028
0.048921
0.055762
0.001917
0.070464
0.016702
0.040047
0.053633
0.019830
0.000386
0.051311
0.057002
0.002780
0.055421
0.053692
0.049644
0.064504
0.007034
0.083535
0.057623
0.056662
0.001270
0.058872
0.059665
0.001220
0.056166
0.057615
0.038155
0.056827
0.000520
0.047959
0.056804
0.058201
0.009166
0.060204
0.036752
0.063069
0.062867
0.066393
-0.000080
0.069557
0.000069
0.072520
0.055747
-0.000073
0.076840
0.000052
0.078074
0.055115
0.083867
0.000140
0.027771
0.083888
0.054565
0.000382
0.019929
0.001863
0.001950
0.004769
0.054006
0.053475
0.051668
0.051064
0.050969
0.052024
0.051792
0.052481
0.052741
0.053757
0.055554
0.060926
0.055332
0.062525
0.056834
0.057790
0.063733
0.064603
0.064827
0.056714
0.067939
0.064971
0.068551
0.055546
0.057519
0.056310
0.043141
0.000486
0.065095
0.058441
0.040630
0.054761
0.052721
0.053807
0.055899
0.061210
0.000382
0.053402
0.023560
0.074892
0.080597
0.001668
0.001788
0.002478
0.052058
0.063131
0.002478
0.063577
0.051187
0.055721
0.034166
0.052210
0.049164
0.062379
0.055421
0.000780
0.079558
0.054035
0.053550
0.060224
0.001232
0.073017
0.056224
0.000107
0.066975
0.059855
0.054004
0.000258
0.061258
0.027085
0.056572
0.000203
0.000118
0.000412
0.055359
0.001539
0.025063
0.053926
0.054209
0.054661
0.072536
0.068742
0.000718
0.043914
0.063564
0.017326
0.056737
0.013931
0.010186
0.000378
0.004251
0.003269
0.051426
0.050468
0.050129
0.049694
0.050131
0.002221
0.049744
0.053146
0.058458
0.050880
0.053961
0.053346
0.063376
0.066748
0.057889
0.055563
0.054706
0.050661
0.065879
0.063026
0.056248
0.056200
0.054874
0.059537
0.054784
0.036878
0.007209
0.056443
0.055105
0.056386
0.054852
0.057546
0.050243
0.048097
0.053059
0.000829
0.063374
0.059445
0.000875
0.023933
0.056412
0.002093
0.000881
0.069226
0.018096
0.044295
0.002963
0.051621
0.012347
0.049088
0.049511
0.061767
0.000576
0.058838
0.000957
0.055400
0.066317
0.054196
0.055405
0.000201
0.057510
0.055105
0.052468
0.019260
0.062574
0.001104
0.053041
0.051414
0.051835
0.043797
0.077690
0.031578
0.076202
0.054516
0.001617
0.055877
0.008756
0.006007
0.001862
0.002582
0.059558
0.053464
0.000521
0.000532
0.052360
0.000971
0.051455
0.049888
0.064977
0.050298
0.056578
0.052709
0.050085
0.029993
0.062956
0.049660
0.063131
0.055128
0.049383
0.000960
0.052155
0.052826
0.062080
0.037048
0.066455
0.054674
0.065932
0.061150
0.054177
0.057391
0.055341
0.055560
0.054289
0.037305
0.032800
0.057496
0.054233
0.065445
0.062159
0.054908
0.054135
0.056374
0.057569
0.001855
0.001188
0.059334
0.001704
0.054570
0.050889
0.052419
0.039589
0.019741
0.051210
0.054841
0.003259
0.050144
0.051919
0.047943
0.054952
0.054411
0.057316
0.051734
0.001086
0.008252
0.000874
0.059599
0.051687
0.040837
0.002567
0.000654
0.000783
0.033046
0.049734
0.048338
0.002462
0.013390
0.057112
0.049846
0.053424
0.049030
0.072383
0.074589
0.051917
0.060379
0.053489
0.054454
0.051185
0.026528
0.000793
0.052013
0.066968
0.063165
0.051313
0.050576
0.002638
0.036560
0.053408
0.072007
0.058732
0.005574
0.047724
0.001007
0.001390
0.027706
0.061176
0.015661
0.003794
0.052740
0.054080
0.053423
0.048548
0.048547
0.000608
0.048213
0.048928
0.060878
0.001727
0.060590
0.053850
0.066062
0.049582
0.057290
0.055226
0.050704
0.051344
0.054824
0.060234
0.055295
0.055190
0.057183
0.002590
0.053810
0.057816
0.051680
0.052992
0.048661
0.060600
0.054019
0.048849
0.046614
0.052024
0.058932
0.049342
0.002782
0.048916
0.025788
0.037855
0.014818
0.047571
0.003981
0.063631
0.057397
0.001944
0.048316
0.050055
0.052431
0.050977
0.050445
0.003447
0.043805
0.011805
0.001201
0.001226
0.050039
0.051669
0.003368
0.048670
0.053189
0.054103
0.054565
0.055046
0.059161
0.057351
0.024057
0.001791
0.015885
0.061539
0.000869
0.002552
0.053869
0.001258
0.005813
0.001469
0.052386
0.068694
0.058442
0.057039
0.046727
0.003861
0.053027
0.001879
0.001609
0.052924
0.052388
0.051324
0.053231
0.033771
0.074922
0.055562
0.048462
0.048306
0.054396
0.050950
0.058047
0.047592
0.051507
0.054621
0.053661
0.036177
0.001349
0.055500
0.055591
0.048490
0.060444
0.047928
0.048047
0.052710
0.000632
0.008268
0.051822
0.049024
0.053553
0.051761
0.047891
0.055902
0.022585
0.058887
0.078609
0.052944
0.050428
0.070378
0.054241
0.047455
0.053945
0.053579
0.049756
0.048894
0.002263
0.053668
0.002340
0.050768
0.039484
0.019412
0.035997
0.021032
0.003207
0.004139
0.048800
0.047151
0.001849
0.061535
0.049306
0.046277
0.002523
0.057938
0.053400
0.002895
0.046280
0.051560
0.002039
0.053940
0.052949
0.046753
0.049242
0.048695
0.049946
0.048116
0.056392
0.049728
0.049926
0.052280
0.029195
0.046726
0.047317
0.058029
0.012176
0.042731
0.003196
0.053260
0.066119
0.001810
0.002703
0.007444
0.001563
0.049446
0.011292
0.051848
0.001222
0.053853
0.003170
0.027248
0.054870
0.030848
0.003213
0.008628
0.002038
0.054173
0.052749
0.054508
0.053814
0.056332
0.051654
0.052538
0.046718
0.070848
0.001604
0.049540
0.046931
0.003673
0.053356
0.052859
0.066307
0.052807
0.052428
0.047492
0.049654
0.049095
0.057870
0.049673
0.011207
0.056230
0.053604
0.053029
0.019151
0.053941
0.053038
0.050215
0.002088
0.050338
0.049474
0.053659
0.056428
0.003078
0.002616
0.024424
0.004254
0.009859
0.051653
0.004346
0.005149
0.045905
0.009734
0.048685
0.050464
0.001970
0.055352
0.040410
0.063017
0.051342
0.002793
0.003407
0.052368
0.002733
0.004562
0.002071
0.003069
0.050252
0.052899
0.052207
0.045785
0.055731
0.003631
0.047910
0.048746
0.052865
0.053347
0.047675
0.042816
0.051857
0.003642
0.062646
0.047992
0.056002
0.060150
0.045658
0.016809
0.051139
0.045891
0.046721
0.045175
0.002596
0.055664
0.004703
0.003244
0.003922
0.052343
0.034967
0.055302
0.064547
0.046283
0.021460
0.002102
0.005036
0.031593
0.051153
0.015929
0.050701
0.051738
0.053297
0.051398
0.046463
0.054188
0.048457
0.047578
0.046361
0.047876
0.047956
0.003820
0.046359
0.049953
0.067922
0.053396
0.052492
0.052238
0.047785
0.058028
0.054050
0.001430
0.049886
0.050434
0.052098
0.002306
0.053306
0.026078
0.048472
0.003127
0.052869
0.046980
0.003935
0.004444
0.050342
0.047423
0.045960
0.031793
0.023439
0.004670
0.045446
0.048812
0.038573
0.005052
0.047562
0.004846
0.004414
0.053133
0.048907
0.044706
0.003436
0.002900
0.051888
0.052414
0.005114
0.048252
0.050839
0.054483
0.003302
0.047898
0.045278
0.044399
0.047747
0.046080
0.049077
0.002907
0.049301
0.004779
0.056958
0.002197
0.052439
0.026853
0.003210
0.050846
0.053041
0.004381
0.055088
0.006952
0.051128
0.048863
0.004551
0.012576
0.051343
0.003834
0.050585
0.002698
0.001924
0.002984
0.048428
0.057545
0.004329
0.034425
0.051429
0.003689
0.052886
0.051665
0.018686
0.050140
0.044922
0.046096
0.045225
0.050678
0.047377
0.045044
0.052702
0.046986
0.028652
0.053531
0.047219
0.048022
0.051399
0.003145
0.046348
0.051750
0.051824
0.013779
0.003268
0.043427
0.059259
0.048980
0.048450
0.003925
0.045833
0.043895
0.024710
0.021432
0.003953
0.011477
0.031790
0.005328
0.051433
0.003596
0.041017
0.043990
0.047638
0.050595
0.002718
0.049232
0.011931
0.052031
0.046161
0.047378
0.004457
0.046939
0.003472
0.050539
0.046014
0.003762
0.043995
0.050865
0.002800
0.006240
0.047194
0.034582
0.046375
0.045407
0.044768
0.044019
0.046892
0.047549
0.003450
0.003156
0.006679
0.052342
0.004386
0.005199
0.003095
0.051483
0.004501
0.005579
0.049727
0.052521
0.003733
0.054042
0.047403
0.048372
0.005219
0.051800
0.051186
0.052191
0.002425
0.050087
0.047919
0.049754
0.044821
0.003394
0.052039
0.044603
0.048793
0.050016
0.046468
0.050656
0.046286
0.044773
0.044774
0.052541
0.001675
0.050699
0.046412
0.016180
0.051514
0.021382
0.050890
0.058807
0.047017
0.044849
0.002134
0.045077
0.047779
0.051573
0.047899
0.026030
0.004998
0.004974
0.051805
0.009340
0.046339
0.043747
0.004542
0.042886
0.044579
0.019181
0.004126
0.043463
0.029295
0.045547
0.005159
0.008459
0.004928
0.051249
0.005747
0.048670
0.046298
0.005414
0.005105
0.050391
0.043997
0.046903
0.005803
0.043397
0.045735
0.002759
0.006598
0.044085
0.003919
0.016954
0.049182
0.003779
0.043222
0.045616
0.048214
0.042954
0.046309
0.014208
0.008611
0.004136
0.045900
0.001535
0.036225
0.013767
0.028131
0.047660
0.050018
0.043494
0.044174
0.053789
0.003044
0.004934
0.048851
0.004057
0.004129
0.004560
0.007103
0.045361
0.004375
0.006420
0.044023
0.051845
0.050034
0.049166
0.048318
0.002306
0.043193
0.051622
0.051135
0.050811
0.050091
0.045900
0.007330
0.043727
0.018753
0.045897
0.044729
0.042939
0.044881
0.003855
0.043117
0.045820
0.049695
0.051296
0.002778
0.043301
0.044034
0.048009
0.007656
0.042568
0.002998
0.005229
0.050110
0.000953
0.005496
0.050354
0.047776
0.050184
0.051126
0.046891
0.023922
0.003970
0.049233
0.046352
0.045342
0.050451
0.051605
0.002232
0.045347
0.006051
0.005112
0.041749
0.039464
0.017539
0.041215
0.021718
0.004696
0.004943
0.013132
0.043428
0.026529
0.008364
0.046483
0.004029
0.045260
0.041000
0.042257
0.005085
0.031457
0.044737
0.003780
0.016732
0.004441
0.002246
0.002059
0.004222
0.045484
0.006237
0.005667
0.004942
0.043107
0.044047
0.003872
0.042656
0.004144
0.046503
0.048169
0.050726
0.049224
0.005214
0.045308
0.040020
0.049341
0.045604
0.043432
0.042377
0.040485
0.004228
0.004442
0.011201
0.007139
0.006074
0.049871
0.041300
0.051162
0.046996
0.045010
0.050860
0.045747
0.043877
0.042792
0.048815
0.041098
0.018177
0.043269
0.047450
0.003108
0.049430
0.045613
0.042949
0.043232
0.050585
0.049891
0.043332
0.045060
0.042293
0.034082
0.005729
0.021453
0.004328
0.051105
0.048302
0.049737
0.046707
0.005823
0.046993
0.043210
0.022038
0.049955
0.037973
0.050298
0.006941
0.051239
0.005549
0.043100
0.046998
0.049230
0.005694
0.007824
0.010443
0.002810
0.042047
0.045605
0.006347
0.004847
0.039274
0.048811
0.038781
0.020728
0.005038
0.009130
0.006104
0.040448
0.006202
0.038263
0.043895
0.037425
0.005896
0.041590
0.040492
0.008592
0.002189
0.044028
0.008729
0.014917
0.046029
0.008841
0.003220
0.034492
0.019430
0.005684
0.009403
0.044379
0.048292
0.005552
0.046944
0.039985
0.042866
0.004631
0.038748
0.004866
0.042007
0.044955
0.004878
0.006619
0.003635
0.004924
0.004913
0.014935
0.025590
0.041087
0.047370
0.043641
0.044362
0.014688
0.040944
0.004673
0.043053
0.045023
0.049155
0.047994
0.004564
0.050142
0.049643
0.018940
0.036570
0.041541
0.041618
0.041839
0.041397
0.015421
0.041806
0.041251
0.044719
0.049241
0.050592
0.005378
0.042254
0.041628
0.042716
0.041928
0.050000
0.050362
0.006257
0.032479
0.005697
0.025349
0.041404
0.044853
0.041760
0.039014
0.050794
0.045456
0.001504
0.048950
0.045501
0.047585
0.048198
0.048001
0.005278
0.049595
0.043214
0.005905
0.048933
0.050819
0.005482
0.049580
0.047807
0.007733
0.047675
0.036154
0.036627
0.021556
0.036523
0.040728
0.005674
0.005596
0.013736
0.023784
0.006022
0.033529
0.045218
0.004778
0.039756
0.004202
0.004264
0.046014
0.040613
0.006548
0.005591
0.038926
0.002357
0.044685
0.038883
0.005915
0.005159
0.042816
0.040886
0.003130
0.038973
0.046128
0.012008
0.006281
0.005953
0.038294
0.007722
0.005384
0.039673
0.049184
0.011974
0.040529
0.038023
0.028045
0.004543
0.048538
0.039261
0.046763
0.006848
0.012968
0.008362
0.048194
0.040615
0.005066
0.047529
0.045879
0.005170
0.044456
0.043502
0.015358
0.017697
0.005013
0.001644
0.011309
0.017730
0.031126
0.006508
0.046832
0.046592
0.006219
0.049004
0.049702
0.041540
0.040488
0.003718
0.042853
0.045169
0.050320
0.048621
0.050215
0.041203
0.048801
0.041368
0.009171
0.010561
0.005097
0.050279
0.013272
0.049081
0.041574
0.022177
0.006010
0.046174
0.049721
0.040646
0.048565
0.040941
0.041877
0.006309
0.048756
0.049372
0.004988
0.050421
0.043168
0.006250
0.044575
0.042211
0.046489
0.007517
0.009988
0.005740
0.033023
0.048701
0.036732
0.045973
0.044772
0.038917
0.012906
0.039203
0.011409
0.043780
0.006056
0.006488
0.037440
0.039322
0.043995
0.027876
0.004875
0.006317
0.040363
0.037049
0.002800
0.003666
0.039774
0.005555
0.007863
0.005952
0.040709
0.011227
0.014681
0.039858
0.001218
0.006702
0.008496
0.046340
0.040201
0.048263
0.047024
0.042881
0.007205
0.012510
0.005578
0.010317
0.010888
0.033693
0.010431
0.016267
0.005789
0.020678
0.048428
0.048044
0.019567
0.039927
0.006548
0.049552
0.041838
0.038952
0.005433
0.038479
0.046294
0.045633
0.049270
0.049774
0.039944
0.011522
0.047843
0.042080
0.047527
0.016820
0.006093
0.040243
0.047003
0.006651
0.006572
0.037076
0.048316
0.050013
0.041446
0.036429
0.005690
0.002594
0.004648
0.040015
0.006015
0.047775
0.004404
0.003751
0.045257
0.005978
0.005454
0.047849
0.048422
0.049083
0.045413
0.036492
0.001779
0.049917
0.009956
0.035620
0.036813
0.003526
0.005702
0.025965
0.023956
0.040479
0.009635
0.045129
0.006618
0.012951
0.033356
0.023131
0.034849
0.006099
0.034827
0.038728
0.048388
0.016613
0.006216
0.023261
0.011989
0.045348
0.048239
0.007279
0.043397
0.005960
0.006652
0.006186
0.006792
0.038871
0.002424
0.006905
0.013978
0.043842
0.004870
0.006255
0.043814
0.004324
0.010223
0.037512
0.003078
0.001453
0.046721
0.039122
0.005889
0.008608
0.036901
0.034522
0.047867
0.037223
0.035537
0.014159
0.044816
0.018237
0.030096
0.047320
0.045412
0.043724
0.005257
0.039763
0.000945
0.007710
0.005792
0.006338
0.046381
0.043328
0.010473
0.017867
0.045389
0.010983
0.038228
0.013685
0.005883
0.021773
0.041226
0.038521
0.049547
0.037807
0.013918
0.047690
0.036868
0.036504
0.044190
0.048442
0.039687
0.049093
0.043983
0.003324
0.045820
0.007508
0.048248
0.006563
0.039360
0.039029
0.035299
0.048989
0.041158
0.048945
0.047278
0.005876
0.004412
0.033436
0.009581
0.040022
0.008826
0.031293
0.005591
0.012363
0.006411
0.043967
0.049691
0.048752
0.045615
0.046336
0.006635
0.011944
0.047100
0.005211
0.038704
0.001980
0.037637
0.033629
0.005748
0.042011
0.006964
0.050261
0.038902
0.008810
0.031506
0.032491
0.015399
0.037194
0.012127
0.045228
0.006557
0.045457
0.006871
0.034628
0.034314
0.006893
0.006887
0.047154
0.019875
0.047137
0.043216
0.028275
0.003518
0.025999
0.044562
0.007187
0.006629
0.042758
0.042398
0.009428
0.006658
0.038286
0.034017
0.000874
0.048685
0.006332
0.007193
0.004816
0.048038
0.002805
0.006218
0.006252
0.014306
0.001620
0.005713
0.037209
0.037316
0.040489
0.008166
0.026358
0.016221
0.012515
0.013200
0.046200
0.036778
0.032406
0.047764
0.042678
0.008984
0.003621
0.033488
0.043045
0.013544
0.044300
0.006882
0.016084
0.006513
0.006347
0.031044
0.006161
0.020052
0.001645
0.002069
0.029665
0.044865