# vtk DataFile Version 2.0
Test
ASCII
DATASET POLYDATA
POINTS 7341 float
0.000000 0.000000 0.000000
1.000000 0.000000 0.000000
1.000000 1.000000 0.000000
0.000000 1.000000 0.000000
0.000000 0.500000 0.000000
0.500000 0.500000 0.000000
1.000000 0.500000 0.000000
0.499000 0.499000 0.000000
0.900000 0.010000 0.000000
0.029412 0.000000 0.000000
0.058824 0.000000 0.000000
0.088235 0.000000 0.000000
0.117647 0.000000 0.000000
0.147059 0.000000 0.000000
0.176471 0.000000 0.000000
0.205882 0.000000 0.000000
0.235294 0.000000 0.000000
0.264706 0.000000 0.000000
0.294118 0.000000 0.000000
0.323529 0.000000 0.000000
0.352941 0.000000 0.000000
0.382353 0.000000 0.000000
0.411765 0.000000 0.000000
0.441176 0.000000 0.000000
0.470588 0.000000 0.000000
0.500000 0.000000 0.000000
0.529412 0.000000 0.000000
0.558824 0.000000 0.000000
0.588235 0.000000 0.000000
0.617647 0.000000 0.000000
0.647059 0.000000 0.000000
0.676471 0.000000 0.000000
0.705882 0.000000 0.000000
0.735294 0.000000 0.000000
0.764706 0.000000 0.000000
0.794118 0.000000 0.000000
0.823529 0.000000 0.000000
0.852941 0.000000 0.000000
0.882353 0.000000 0.000000
0.911765 0.000000 0.000000
0.941176 0.000000 0.000000
0.970588 0.000000 0.000000
1.000000 0.029412 0.000000
1.000000 0.058824 0.000000
1.000000 0.088235 0.000000
1.000000 0.117647 0.000000
1.000000 0.147059 0.000000
1.000000 0.176471 0.000000
1.000000 0.205882 0.000000
1.000000 0.235294 0.000000
1.000000 0.264706 0.000000
1.000000 0.294118 0.000000
1.000000 0.323529 0.000000
1.000000 0.352941 0.000000
1.000000 0.382353 0.000000
1.000000 0.411765 0.000000
1.000000 0.441176 0.000000
1.000000 0.470588 0.000000
1.000000 0.529412 0.000000
1.000000 0.558824 0.000000
1.000000 0.588235 0.000000
1.000000 0.617647 0.000000
1.000000 0.647059 0.000000
1.000000 0.676471 0.000000
1.000000 0.705882 0.000000
1.000000 0.735294 0.000000
1.000000 0.764706 0.000000
1.000000 0.794118 0.000000
1.000000 0.823529 0.000000
1.000000 0.852941 0.000000
1.000000 0.882353 0.000000
1.000000 0.911765 0.000000
1.000000 0.941176 0.000000
1.000000 0.970588 0.000000
0.970588 1.000000 0.000000
0.941176 1.000000 0.000000
0.911765 1.000000 0.000000
0.882353 1.000000 0.000000
0.852941 1.000000 0.000000
0.823529 1.000000 0.000000
0.794118 1.000000 0.000000
0.764706 1.000000 0.000000
0.735294 1.000000 0.000000
0.705882 1.000000 0.000000
0.676471 1.000000 0.000000
0.647059 1.000000 0.000000
0.617647 1.000000 0.000000
0.588235 1.000000 0.000000
0.558824 1.000000 0.000000
0.529412 1.000000 0.000000
0.500000 1.000000 0.000000
0.470588 1.000000 0.000000
0.441176 1.000000 0.000000
0.411765 1.000000 0.000000
0.382353 1.000000 0.000000
0.352941 1.000000 0.000000
0.323529 1.000000 0.000000
0.294118 1.000000 0.000000
0.264706 1.000000 0.000000
0.235294 1.000000 0.000000
0.205882 1.000000 0.000000
0.176471 1.000000 0.000000
0.147059 1.000000 0.000000
0.117647 1.000000 0.000000
0.088235 1.000000 0.000000
0.058824 1.000000 0.000000
0.029412 1.000000 0.000000
0.000000 0.970588 0.000000
0.000000 0.941176 0.000000
0.000000 0.911765 0.000000
0.000000 0.882353 0.000000
0.000000 0.852941 0.000000
0.000000 0.823529 0.000000
0.000000 0.794118 0.000000
0.000000 0.764706 0.000000
0.000000 0.735294 0.000000
0.000000 0.705882 0.000000
0.000000 0.676471 0.000000
0.000000 0.647059 0.000000
0.000000 0.617647 0.000000
0.000000 0.588235 0.000000
0.000000 0.558824 0.000000
0.000000 0.529412 0.000000
0.007246 0.500000 0.000000
0.014493 0.500000 0.000000
0.021739 0.500000 0.000000
0.028986 0.500000 0.000000
0.036232 0.500000 0.000000
0.043478 0.500000 0.000000
0.050725 0.500000 0.000000
0.057971 0.500000 0.000000
0.065217 0.500000 0.000000
0.072464 0.500000 0.000000
0.079710 0.500000 0.000000
0.086957 0.500000 0.000000
0.094203 0.500000 0.000000
0.101449 0.500000 0.000000
0.108696 0.500000 0.000000
0.115942 0.500000 0.000000
0.123188 0.500000 0.000000
0.130435 0.500000 0.000000
0.137681 0.500000 0.000000
0.144928 0.500000 0.000000
0.152174 0.500000 0.000000
0.159420 0.500000 0.000000
0.166667 0.500000 0.000000
0.173913 0.500000 0.000000
0.181159 0.500000 0.000000
0.188406 0.500000 0.000000
0.195652 0.500000 0.000000
0.202899 0.500000 0.000000
0.210145 0.500000 0.000000
0.217391 0.500000 0.000000
0.224638 0.500000 0.000000
0.231884 0.500000 0.000000
0.239130 0.500000 0.000000
0.246377 0.500000 0.000000
0.253623 0.500000 0.000000
0.260870 0.500000 0.000000
0.268116 0.500000 0.000000
0.275362 0.500000 0.000000
0.282609 0.500000 0.000000
0.289855 0.500000 0.000000
0.297101 0.500000 0.000000
0.304348 0.500000 0.000000
0.311594 0.500000 0.000000
0.318841 0.500000 0.000000
0.326087 0.500000 0.000000
0.333333 0.500000 0.000000
0.340580 0.500000 0.000000
0.347826 0.500000 0.000000
0.355072 0.500000 0.000000
0.362319 0.500000 0.000000
0.369565 0.500000 0.000000
0.376812 0.500000 0.000000
0.384058 0.500000 0.000000
0.391304 0.500000 0.000000
0.398551 0.500000 0.000000
0.405797 0.500000 0.000000
0.413043 0.500000 0.000000
0.420290 0.500000 0.000000
0.427536 0.500000 0.000000
0.434783 0.500000 0.000000
0.442029 0.500000 0.000000
0.449275 0.500000 0.000000
0.456522 0.500000 0.000000
0.463768 0.500000 0.000000
0.471014 0.500000 0.000000
0.478261 0.500000 0.000000
0.485507 0.500000 0.000000
0.492754 0.500000 0.000000
0.510004 0.500000 0.000000
0.520408 0.500000 0.000000
0.531229 0.500000 0.000000
0.542483 0.500000 0.000000
0.554187 0.500000 0.000000
0.566359 0.500000 0.000000
0.579019 0.500000 0.000000
0.592185 0.500000 0.000000
0.605877 0.500000 0.000000
0.620118 0.500000 0.000000
0.634929 0.500000 0.000000
0.650332 0.500000 0.000000
0.666352 0.500000 0.000000
0.683013 0.500000 0.000000
0.700340 0.500000 0.000000
0.718361 0.500000 0.000000
0.737103 0.500000 0.000000
0.756595 0.500000 0.000000
0.776867 0.500000 0.000000
0.797950 0.500000 0.000000
0.819877 0.500000 0.000000
0.842681 0.500000 0.000000
0.866398 0.500000 0.000000
0.891064 0.500000 0.000000
0.916716 0.500000 0.000000
0.943396 0.500000 0.000000
0.971143 0.500000 0.000000
0.000000 0.470588 0.000000
0.000000 0.441176 0.000000
0.000000 0.411765 0.000000
0.000000 0.382353 0.000000
0.000000 0.352941 0.000000
0.000000 0.323529 0.000000
0.000000 0.294118 0.000000
0.000000 0.264706 0.000000
0.000000 0.235294 0.000000
0.000000 0.205882 0.000000
0.000000 0.176471 0.000000
0.000000 0.147059 0.000000
0.000000 0.117647 0.000000
0.000000 0.088235 0.000000
0.000000 0.058824 0.000000
0.000000 0.029412 0.000000
0.500341 0.497365 0.000000
0.501682 0.495729 0.000000
0.503023 0.494094 0.000000
0.504365 0.492458 0.000000
0.505706 0.490823 0.000000
0.507047 0.489187 0.000000
0.508388 0.487552 0.000000
0.509729 0.485916 0.000000
0.511070 0.484281 0.000000
0.512411 0.482645 0.000000
0.513753 0.481010 0.000000
0.515094 0.479375 0.000000
0.516435 0.477739 0.000000
0.517776 0.476104 0.000000
0.519117 0.474468 0.000000
0.520458 0.472833 0.000000
0.521799 0.471197 0.000000
0.523140 0.469562 0.000000
0.524482 0.467926 0.000000
0.525823 0.466291 0.000000
0.527164 0.464656 0.000000
0.528505 0.463020 0.000000
0.529846 0.461385 0.000000
0.531187 0.459749 0.000000
0.532528 0.458114 0.000000
0.533870 0.456478 0.000000
0.535211 0.454843 0.000000
0.536552 0.453207 0.000000
0.537893 0.451572 0.000000
0.539234 0.449936 0.000000
0.540575 0.448301 0.000000
0.541916 0.446666 0.000000
0.543258 0.445030 0.000000
0.544599 0.443395 0.000000
0.545940 0.441759 0.000000
0.547281 0.440124 0.000000
0.548622 0.438488 0.000000
0.549963 0.436853 0.000000
0.551304 0.435217 0.000000
0.552645 0.433582 0.000000
0.553987 0.431946 0.000000
0.555328 0.430311 0.000000
0.556669 0.428676 0.000000
0.558010 0.427040 0.000000
0.559351 0.425405 0.000000
0.560692 0.423769 0.000000
0.562033 0.422134 0.000000
0.563375 0.420498 0.000000
0.564716 0.418863 0.000000
0.566057 0.417227 0.000000
0.567398 0.415592 0.000000
0.568739 0.413957 0.000000
0.570080 0.412321 0.000000
0.571421 0.410686 0.000000
0.572763 0.409050 0.000000
0.574104 0.407415 0.000000
0.575445 0.405779 0.000000
0.576786 0.404144 0.000000
0.578127 0.402508 0.000000
0.579468 0.400873 0.000000
0.580809 0.399237 0.000000
0.582151 0.397602 0.000000
0.583492 0.395967 0.000000
0.584833 0.394331 0.000000
0.586174 0.392696 0.000000
0.587515 0.391060 0.000000
0.588856 0.389425 0.000000
0.590197 0.387789 0.000000
0.591538 0.386154 0.000000
0.592880 0.384518 0.000000
0.594221 0.382883 0.000000
0.595562 0.381247 0.000000
0.596903 0.379612 0.000000
0.598244 0.377977 0.000000
0.599585 0.376341 0.000000
0.600926 0.374706 0.000000
0.602268 0.373070 0.000000
0.603609 0.371435 0.000000
0.604950 0.369799 0.000000
0.606291 0.368164 0.000000
0.607632 0.366528 0.000000
0.608973 0.364893 0.000000
0.610314 0.363258 0.000000
0.611656 0.361622 0.000000
0.612997 0.359987 0.000000
0.614338 0.358351 0.000000
0.615679 0.356716 0.000000
0.617020 0.355080 0.000000
0.618361 0.353445 0.000000
0.619702 0.351809 0.000000
0.621043 0.350174 0.000000
0.622385 0.348538 0.000000
0.623726 0.346903 0.000000
0.625067 0.345268 0.000000
0.626408 0.343632 0.000000
0.627749 0.341997 0.000000
0.629090 0.340361 0.000000
0.630431 0.338726 0.000000
0.631773 0.337090 0.000000
0.633114 0.335455 0.000000
0.634455 0.333819 0.000000
0.635796 0.332184 0.000000
0.637137 0.330548 0.000000
0.638478 0.328913 0.000000
0.639819 0.327278 0.000000
0.641161 0.325642 0.000000
0.642502 0.324007 0.000000
0.643843 0.322371 0.000000
0.645184 0.320736 0.000000
0.646525 0.319100 0.000000
0.647866 0.317465 0.000000
0.649207 0.315829 0.000000
0.650548 0.314194 0.000000
0.651890 0.312559 0.000000
0.653231 0.310923 0.000000
0.654572 0.309288 0.000000
0.655913 0.307652 0.000000
0.657254 0.306017 0.000000
0.658595 0.304381 0.000000
0.659936 0.302746 0.000000
0.661278 0.301110 0.000000
0.662619 0.299475 0.000000
0.663960 0.297839 0.000000
0.665301 0.296204 0.000000
0.666642 0.294569 0.000000
0.667983 0.292933 0.000000
0.669324 0.291298 0.000000
0.670666 0.289662 0.000000
0.672007 0.288027 0.000000
0.673348 0.286391 0.000000
0.674689 0.284756 0.000000
0.676030 0.283120 0.000000
0.677371 0.281485 0.000000
[...]
POINT_DATA 7341
SCALARS UX float 1
LOOKUP_TABLE default
0.000000
0.000000
0.280500
0.280500
0.127009
0.105032
0.096382
0.100467
0.000442
-0.000000
0.000000
0.000000
0.000000
0.000000
0.000000
0.000000
0.000000
0.000000
0.000000
0.000000
0.000000
0.000000
0.000000
0.000000
0.000000
0.000000
0.000000
0.000000
0.000000
0.000000
0.000000
0.000000
0.000000
0.000000
0.000000
0.000000
0.000000
0.000000
0.000000
0.000000
0.000000
-0.000000
0.004262
0.006460
0.008721
0.011212
0.014042
0.017199
0.020797
0.024519
0.028899
0.033732
0.039196
0.045445
0.052565
0.061228
0.071949
0.083513
0.110243
0.124606
0.139222
0.153758
0.167717
0.180976
0.193225
0.204283
0.214488
0.224278
0.233195
0.241675
0.249817
0.257705
0.265459
0.273027
0.280500
0.280500
0.280500
0.280500
0.280500
0.280500
0.280500
0.280500
0.280500
0.280500
0.280500
0.280500
0.280500
0.280500
0.280500
0.280500
0.280500
0.280500
0.280500
0.280500
0.280500
0.280500
0.280500
0.280500
0.280500
0.280500
0.280500
0.280500
0.280500
0.280500
0.280500
0.280500
0.280500
0.273617
0.266650
0.259652
0.252352
0.244937
0.237032
0.228991
0.220449
0.211491
0.202331
0.192606
0.182602
0.172321
0.161805
0.151177
0.140092
0.124900
0.123297
0.121441
0.119725
0.119164
0.119092
0.118594
0.119404
0.115737
0.113084
0.113218
0.112284
0.110764
0.112493
0.110947
0.115118
0.106804
0.110573
0.110646
0.110751
0.109818
0.109989
0.105027
0.105161
0.104897
0.108218
0.103534
0.104272
0.104134
0.103232
0.102044
0.100634
0.100960
0.104588
0.102999
0.105355
0.104163
0.096420
0.099466
0.094728
0.096234
0.092038
0.095523
0.099138
0.094395
0.096197
0.098103
0.099376
0.101049
0.094150
0.103003
0.098810
0.101165
0.098404
0.102850
0.100401
0.105046
0.104955
0.105282
0.104712
0.108475
0.107036
0.106100
0.103938
0.105941
0.100210
0.105350
0.106370
0.100627
0.096346
0.096165
0.096083
0.096040
0.095955
0.095913
0.095089
0.094310
0.094296
0.094163
0.094382
0.094424
0.094469
0.094523
0.094562
0.094566
0.094581
0.094595
0.094620
0.094659
0.094697
0.094805
0.094964
0.095173
0.095479
0.095857
0.096208
0.084062
0.074380
0.066118
0.059297
0.052892
0.047182
0.041707
0.036881
0.032394
0.028213
0.024117
0.020245
0.016422
0.012318
0.007990
0.097109
0.092298
0.089850
0.087336
0.086464
0.085150
0.084316
0.083445
0.083055
0.082696
0.081583
0.080338
0.079663
0.078931
0.078139
0.077418
0.076719
0.076065
0.075439
0.074835
0.074250
0.073672
0.073117
0.072584
0.072079
0.071524
0.070888
0.070292
0.069704
0.069128
0.068563
0.068026
0.067516
0.067013
0.066496
0.065976
0.065470
0.064970
0.064487
0.064007
0.063527
0.063043
0.062550
0.062077
0.061617
0.061149
0.060684
0.060245
0.059780
0.059318
0.058853
0.058381
0.057888
0.057373
0.056836
0.056268
0.055664
0.055035
0.054390
0.053736
0.053089
0.052451
0.051844
0.051247
0.050662
0.050095
0.049549
0.049015
0.048503
0.048004
0.047515
0.047037
0.046571
0.046112
0.045664
0.045220
0.044784
0.044353
0.043929
0.043511
0.043097
0.042688
0.042284
0.041887
0.041497
0.041111
0.040733
0.040361
0.039997
0.039639
0.039289
0.038946
0.038610
0.038282
0.037960
0.037643
0.037331
0.037026
0.036725
0.036428
0.036135
0.035847
0.035561
0.035280
0.035001
0.034724
0.034451
0.034179
0.033909
0.033641
0.033374
0.033109
0.032845
0.032582
0.032319
0.032057
0.031795
0.031535
0.031275
0.031015
0.030758
0.030502
0.030248
0.029997
0.029749
0.029505
0.029263
0.029025
0.028790
0.028558
0.028328
0.028101
0.027876
0.027652
0.027430
0.027210
0.026992
0.026775
0.026558
0.026343
0.026129
0.025916
0.025703
0.025490
0.025278
0.025067
0.024855
0.024644
0.024432
0.024220
0.024008
0.023796
0.023583
0.023369
0.023155
0.022940
0.022724
0.022506
0.022288
0.022068
0.021846
0.021621
0.021395
0.021168
0.020938
0.020707
0.020475
0.020242
0.020008
0.019774
0.019540
0.019306
0.019072
0.018839
0.018606
0.018374
0.018143
0.017912
0.017683
0.017455
0.017227
0.017001
0.016775
0.016551
0.016328
0.016106
0.015885
0.015666
0.015448
0.015232
0.015017
0.014804
0.014591
0.014381
0.014171
0.013964
0.013758
0.013553
0.013350
0.013148
0.012948
0.012750
0.012554
0.012359
0.012166
0.011976
0.011787
0.011600
0.011414
0.011229
0.011046
0.010864
0.010684
0.010505
0.010328
0.010152
0.009978
0.009805
0.009634
0.009464
0.009296
0.009129
0.008963
0.008799
0.008637
0.008476
0.008316
0.008158
0.008001
0.007845
0.007691
0.007539
0.007388
0.007238
0.007090
0.006943
0.006798
0.006654
0.006512
0.006371
0.006232
0.006094
0.005958
0.005823
0.005689
0.005557
0.005427
0.005298
0.005170
0.005044
0.004919
0.004796
0.004674
0.004554
0.004435
0.004318
0.004201
0.004087
0.003973
0.003862
0.003752
0.003642
0.003535
0.003429
0.003323
0.003219
0.003117
0.003016
0.002917
0.002818
0.002721
0.002625
0.002530
0.002437
0.002345
0.002254
0.002164
0.002076
0.001988
0.001901
0.001817
0.001733
0.001650
0.001568
0.001488
0.001409
0.001330
0.001252
0.001175
0.001098
0.001021
0.000945
0.000869
0.000794
0.000720
0.000647
0.000573
0.000508
0.085337
0.078914
0.077641
0.001934
0.001534
0.084829
0.001746
0.085562
0.089745
0.032535
0.086227
0.001653
0.045886
0.093833
0.015814
0.030993
0.086335
0.001267
0.001869
0.081704
0.007534
0.099041
0.087339
0.018400
0.086490
0.071559
0.104437
0.051536
0.083648
0.087194
0.002607
0.083230
0.077699
0.091636
0.088259
0.000770
0.086535
0.003242
0.087004
0.001700
0.081721
0.077267
0.077696
0.097474
0.001648
0.090903
0.001171
0.087703
0.094564
0.110043
0.001147
0.086393
0.009880
0.064897
0.001393
0.086266
0.086331
0.057843
0.085570
0.085188
0.019641
0.023622
0.001766
0.001826
0.085912
0.086965
0.040442
0.070335
0.083538
0.001685
0.084511
0.001601
0.038145
0.001751
0.079258
0.026672
0.001937
0.083145
0.014441
0.002759
0.008873
0.002547
0.003665
0.081251
0.084852
0.086810
0.080482
0.078419
0.077554
0.087919
0.095596
0.093036
0.091067
0.090783
0.090459
0.089348
0.107085
0.102938
0.101853
0.101072
0.087183
0.000957
0.087679
0.098238
0.074436
0.077942
0.003715
0.080656
0.003436
0.085008
0.036882
0.003357
0.043891
0.088163
0.019586
0.083392
0.002553
0.075896
0.007326
0.058445
0.081550
0.029565
0.004474
0.082421
0.087359
0.002000
0.083712
0.082013
0.076167
0.097330
0.012932
0.071457
0.088961
0.089177
0.000779
0.087259
0.086713
0.001063
0.087488
0.088971
0.012744
0.086848
0.001432
0.069811
0.087515
0.086601
0.005099
0.086607
0.052459
0.027260
0.086287
0.085921
0.001724
0.085561
0.003493
0.085135
0.086574
0.001491
0.044208
0.001489
0.083816
0.083515
0.059528
0.001822
0.036063
0.083635
0.080590
0.002003
0.022532
0.006485
0.002114
0.007959
0.078567
0.078087
0.083818
0.081515
0.078514
0.076739
0.077765
0.076204
0.085968
0.087139
0.088529
0.091987
0.089589
0.092921
0.087293
0.092426
0.094005
0.097133
0.098358
0.089027
0.104102
0.097991
0.106566
0.084603
0.089118
0.085735
0.016170
0.005235
0.079058
0.078800
0.016473
0.080046
0.076278
0.082249
0.083137
0.090043
0.004163
0.078399
0.034431
0.074222
0.072756
0.004974
0.005732
0.001713
0.075176
0.094278
0.002316
0.094519
0.074385
0.084194
0.049181
0.083408
0.076215
0.091475
0.081935
0.003305
0.058982
0.080925
0.081002
0.088143
0.002738
0.044264
0.079286
0.003306
0.076843
0.027856
0.023195
0.003239
0.078603
0.039238
0.085782
0.003387
0.003482
0.003927
0.084269
0.002639
0.009334
0.080432
0.080339
0.082905
0.075055
0.076646
0.004727
0.064006
0.032079
0.025348
0.086412
0.021029
0.017037
0.003484
0.011300
0.007102
0.074435
0.074305
0.074777
0.078535
0.079912
0.002438
0.075644
0.077616
0.085848
0.081723
0.082665
0.084492
0.094545
0.101545
0.086806
0.086069
0.085075
0.074032
0.098798
0.092241
0.085115
0.085118
0.083160
0.087042
0.084078
0.013200
0.004802
0.087943
0.083155
0.085158
0.080584
0.091462
0.073203
0.075993
0.077194
0.005659
0.069644
0.031961
0.005162
0.038616
0.084269
0.003981
0.007846
0.066380
0.008443
0.064833
0.003548
0.077647
0.024227
0.072909
0.079520
0.090955
0.005538
0.085297
0.006938
0.082037
0.040753
0.080190
0.079480
0.003339
0.079424
0.081475
0.076436
0.032954
0.077383
0.004877
0.077188
0.075033
0.078352
0.018901
0.073401
0.048023
0.050850
0.081995
0.005015
0.084111
0.019714
0.015515
0.009502
0.010383
0.078320
0.078895
0.005167
0.005375
0.075622
0.006494
0.074517
0.075146
0.068803
0.080523
0.086135
0.083850
0.074313
0.012363
0.093571
0.078856
0.093056
0.082958
0.072741
0.002887
0.082189
0.082438
0.092511
0.053756
0.102469
0.079554
0.099222
0.089493
0.079079
0.088416
0.082960
0.083676
0.082758
0.014439
0.011286
0.084459
0.082505
0.077281
0.090733
0.082589
0.082855
0.085025
0.091807
0.009803
0.007437
0.062866
0.006735
0.072876
0.079961
0.073954
0.018564
0.036683
0.075313
0.081843
0.003448
0.075157
0.078716
0.074119
0.081901
0.081156
0.071956
0.075091
0.007210
0.022807
0.008181
0.086649
0.077409
0.059991
0.013480
0.004964
0.005701
0.014251
0.072786
0.073439
0.003924
0.006924
0.028617
0.080015
0.081319
0.078482
0.051417
0.063274
0.072740
0.087892
0.082437
0.083382
0.074255
0.010569
0.007422
0.075619
0.067701
0.036208
0.074407
0.073493
0.008532
0.053893
0.080008
0.065290
0.085203
0.018621
0.069648
0.006319
0.004872
0.043471
0.069071
0.028669
0.014466
0.076778
0.078945
0.077669
0.021767
0.072779
0.005282
0.076586
0.072560
0.071701
0.004147
0.089416
0.078458
0.106274
0.077211
0.087302
0.082215
0.080877
0.081395
0.081676
0.089262
0.080870
0.083484
0.084002
0.003506
0.081117
0.084185
0.073911
0.080434
0.078220
0.088404
0.081120
0.071642
0.074311
0.074930
0.035535
0.069660
0.005238
0.071434
0.012271
0.057312
0.008019
0.071770
0.004486
0.060330
0.083191
0.006606
0.077822
0.075221
0.079547
0.073609
0.073709
0.003245
0.020995
0.027321
0.006677
0.007463
0.072594
0.078351
0.004707
0.070210
0.080409
0.079911
0.080530
0.071447
0.086599
0.083077
0.041524
0.010745
0.032221
0.061652
0.011226
0.012569
0.073572
0.007677
0.021774
0.004427
0.078860
0.057323
0.070754
0.062674
0.068582
0.017568
0.025225
0.009433
0.008187
0.076531
0.027924
0.074020
0.079486
0.052363
0.058199
0.083214
0.071436
0.072978
0.082990
0.073906
0.085124
0.071266
0.079991
0.081113
0.081032
0.016439
0.007703
0.081705
0.084802
0.077416
0.087996
0.074608
0.073692
0.076618
0.005428
0.005430
0.077206
0.069965
0.081546
0.083030
0.075261
0.083603
0.010701
0.086771
0.064762
0.079218
0.072950
0.045735
0.079814
0.076382
0.080417
0.080091
0.078951
0.070861
0.010262
0.057381
0.007993
0.067492
0.020607
0.010564
0.056413
0.040311
0.014839
0.004231
0.072817
0.069852
0.009344
0.040216
0.072363
0.072731
0.005633
0.055274
0.066085
0.013053
0.073579
0.074154
0.006015
0.079443
0.077096
0.072251
0.071897
0.078200
0.068340
0.071301
0.082349
0.073785
0.071741
0.080190
0.047252
0.074881
0.024024
0.084300
0.030494
0.063438
0.011835
0.081306
0.058905
0.008940
0.002309
0.005355
0.007028
0.072811
0.006698
0.078091
0.007201
0.082478
0.016346
0.013880
0.031344
0.015941
0.005261
0.025970
0.009857
0.079726
0.079353
0.080743
0.079208
0.065191
0.074384
0.076069
0.071449
0.055478
0.008153
0.077870
0.070999
0.004552
0.079053
0.079174
0.044911
0.078689
0.078137
0.076659
0.072251
0.078523
0.084404
0.072824
0.005967
0.081788
0.078233
0.079850
0.009380
0.081461
0.078693
0.080427
0.005414
0.075910
0.071348
0.079328
0.084948
0.012344
0.006684
0.014131
0.005632
0.006579
0.031779
0.004134
0.004239
0.069814
0.029267
0.072751
0.076202
0.008886
0.080402
0.061551
0.044813
0.077463
0.011257
0.006322
0.058828
0.008412
0.020443
0.009681
0.012599
0.072039
0.077226
0.077389
0.070395
0.081219
0.015537
0.070549
0.072550
0.077479
0.078258
0.069683
0.024066
0.066293
0.003182
0.052365
0.069406
0.056482
0.053876
0.067734
0.035712
0.077701
0.074168
0.075593
0.072703
0.010712
0.080742
0.005147
0.014408
0.005864
0.079657
0.018034
0.035879
0.049873
0.073181
0.011915
0.009977
0.004067
0.051591
0.073763
0.009039
0.072654
0.075120
0.078167
0.076916
0.069501
0.064834
0.070581
0.070017
0.071560
0.076617
0.076246
0.014371
0.072378
0.077653
0.049694
0.078961
0.077656
0.078294
0.071202
0.084443
0.079735
0.001053
0.074413
0.068201
0.077600
0.008496
0.078180
0.045599
0.069727
0.007112
0.079845
0.067851
0.013699
0.015953
0.052237
0.065063
0.073970
0.018330
0.044303
0.006694
0.068052
0.032425
0.060324
0.004171
0.070690
0.004928
0.003960
0.077635
0.073268
0.071302
0.003278
0.011763
0.076564
0.076718
0.018596
0.061486
0.059790
0.050003
0.008260
0.075584
0.071105
0.071569
0.070684
0.069687
0.028659
0.002339
0.070648
0.003639
0.048486
0.008916
0.077166
0.015875
0.012659
0.076184
0.077694
0.016874
0.080163
0.025142
0.077408
0.070040
0.005484
0.007684
0.076348
0.006541
0.077690
0.007619
0.009101
0.011868
0.071756
0.040007
0.019112
0.055753
0.074442
0.017878
0.077395
0.075159
0.039359
0.071983
0.070048
0.074710
0.073048
0.076484
0.068956
0.069436
0.076932
0.075701
0.049829
0.078474
0.064059
0.070315
0.077891
0.009888
0.069693
0.077028
0.076845
0.034092
0.006626
0.065684
0.047584
0.053849
0.069673
0.014026
0.049715
0.061198
0.016459
0.043264
0.007530
0.007723
0.053962
0.005710
0.045412
0.003270
0.063760
0.068136
0.070954
0.073328
0.010520
0.073892
0.032975
0.076029
0.068549
0.068192
0.015160
0.069265
0.009956
0.075908
0.029193
0.008523
0.068884
0.075437
0.011303
0.004817
0.063127
0.020178
0.064538
0.073710
0.072765
0.071356
0.068721
0.055042
0.013094
0.010677
0.020277
0.076447
0.006933
0.005954
0.012403
0.075312
0.014406
0.022906
0.060873
0.051222
0.003075
0.043672
0.070254
0.074990
0.018575
0.035820
0.075885
0.076130
0.002616
0.072364
0.075039
0.071651
0.067745
0.009181
0.076267
0.070167
0.074886
0.075235
0.067510
0.075622
0.073978
0.071685
0.071023
0.076730
0.001969
0.075863
0.069628
0.037853
0.076057
0.014076
0.075652
0.044152
0.061823
0.068126
0.001446
0.073114
0.068663
0.076529
0.071507
0.048119
0.006573
0.004788
0.076197
0.006673
0.066948
0.066222
0.015514
0.029591
0.050789
0.041730
0.010788
0.061376
0.052272
0.072212
0.007897
0.006607
0.004036
0.074686
0.006400
0.041333
0.068649
0.005480
0.004678
0.073203
0.057723
0.069882
0.017733
0.069977
0.055368
0.002627
0.020022
0.067764
0.011755
0.010447
0.073846
0.013533
0.069224
0.066262
0.073667
0.069897
0.068066
0.036236
0.028491
0.014706
0.067839
0.001681
0.058554
0.008967
0.018278
0.048290
0.073917
0.071182
0.071651
0.039866
0.010921
0.016117
0.067872
0.009885
0.014570
0.003932
0.021941
0.032409
0.007685
0.022561
0.060400
0.075663
0.074807
0.071238
0.069673
0.002363
0.068512
0.075460
0.075589
0.075351
0.074404
0.067184
0.005658
0.071254
0.012563
0.072075
0.068419
0.026040
0.073062
0.007980
0.067680
0.072990
0.073220
0.075454
0.010969
0.066738
0.059310
0.072818
0.005617
0.022450
0.002284
0.006394
0.075260
0.000579
0.007429
0.065919
0.071367
0.074880
0.074493
0.067673
0.046688
0.003428
0.046164
0.068445
0.057221
0.074935
0.075664
0.001502
0.065855
0.018529
0.016435
0.047390
0.029642
0.040284
0.056438
0.016536
0.011411
0.008851
0.009287
0.070190
0.050020
0.023700
0.042372
0.003320
0.067033
0.052993
0.067208
0.004493
0.020204
0.066819
0.013285
0.012639
0.009318
0.001589
0.002013
0.011806
0.064228
0.018663
0.017426
0.008220
0.045986
0.043686
0.012652
0.053351
0.003387
0.069111
0.035625
0.073808
0.071598
0.016789
0.066929
0.026881
0.073321
0.067193
0.071050
0.069381
0.063851
0.012791
0.009921
0.032184
0.022596
0.004768
0.039359
0.055237
0.074650
0.067910
0.065748
0.074886
0.071394
0.071033
0.068478
0.070517
0.058257
0.011535
0.066236
0.071485
0.002255
0.073805
0.066097
0.069266
0.069529
0.074786
0.073919
0.070861
0.070004
0.066434
0.057124
0.006760
0.012719
0.015161
0.074930
0.072307
0.073897
0.068445
0.006122
0.026093
0.070003
0.045317
0.072685
0.021896
0.074494
0.005427
0.074899
0.005384
0.051262
0.070116
0.073728
0.007193
0.026722
0.007690
0.002531
0.064357
0.066205
0.018759
0.014298
0.044237
0.070966
0.052456
0.044116
0.010638
0.007306
0.008000
0.066769
0.007120
0.049350
0.039366
0.027393
0.005942
0.068714
0.047911
0.026159
0.002014
0.064364
0.021527
0.011453
0.068442
0.023441
0.002347
0.022213
0.014904
0.017892
0.025246
0.035511
0.072320
0.009080
0.069936
0.042498
0.068103
0.013104
0.051399
0.012520
0.032427
0.066379
0.011091
0.019353
0.012655
0.003958
0.015879
0.010337
0.018580
0.068199
0.068530
0.065080
0.065370
0.036472
0.058679
0.003931
0.061419
0.066188
0.072865
0.069719
0.008758
0.072937
0.072206
0.013918
0.024370
0.066811
0.067489
0.068177
0.067971
0.011047
0.068933
0.057570
0.065134
0.073621
0.074238
0.017226
0.069423
0.065089
0.066856
0.040545
0.073816
0.074217
0.006814
0.056325
0.005358
0.049374
0.065895
0.037747
0.068575
0.023692
0.074012
0.069772
0.001543
0.072766
0.067536
0.071098
0.067660
0.070440
0.009001
0.073302
0.069031
0.004681
0.073040
0.074285
0.004987
0.073514
0.069285
0.021455
0.069382
0.029635
0.041233
0.017707
0.049365
0.058832
0.009882
0.011898
0.011543
0.047696
0.004769
0.024914
0.066292
0.015419
0.037991
0.003362
0.003395
0.066788
0.065387
0.007343
0.004970
0.055215
0.002067
0.066282
0.053537
0.005451
0.010168
0.063624
0.067516
0.002279
0.047718
0.068706
0.032966
0.007833
0.008189
0.032422
0.020729
0.012992
0.063689
0.071524
0.009219
0.066054
0.044936
0.020263
0.014408
0.072778
0.065870
0.068014
0.019937
0.010336
0.022014
0.071720
0.036347
0.013501
0.071051
0.065213
0.004466
0.065513
0.063988
0.012668
0.015122
0.015038
0.001555
0.027499
0.040199
0.022201
0.019193
0.069800
0.067651
0.007442
0.072346
0.073189
0.064376
0.067187
0.002837
0.064737
0.067128
0.073611
0.070694
0.073775
0.066715
0.072959
0.067398
0.025596
0.030113
0.004069
0.073140
0.010055
0.072599
0.068768
0.015033
0.005866
0.067420
0.074457
0.064587
0.072226
0.035050
0.066445
0.006572
0.072304
0.072781
0.014151
0.073421
0.066972
0.018406
0.065067
0.062412
0.067787
0.020566
0.023951
0.016126
0.029594
0.071742
0.045147
0.068306
0.065440
0.055837
0.011652
0.065324
0.009352
0.064429
0.010010
0.008707
0.063395
0.066113
0.064976
0.022635
0.004045
0.006345
0.062434
0.035211
0.002430
0.002739
0.063010
0.004810
0.021491
0.005369
0.066917
0.029714
0.035912
0.066568
0.001124
0.005305
0.022203
0.069015
0.065814
0.070158
0.068347
0.061634
0.020646
0.010629
0.014019
0.025071
0.026743
0.027009
0.008188
0.014071
0.016527
0.043721
0.071632
0.071334
0.016420
0.066080
0.007661
0.072763
0.062147
0.054484
0.010019
0.062942
0.068904
0.066553
0.071661
0.072920
0.064930
0.028548
0.071521
0.063319
0.069166
0.013667
0.005778
0.065237
0.070055
0.007258
0.007014
0.037846
0.072386
0.072924
0.051043
0.033398
0.008241
0.001841
0.014897
0.064268
0.017789
0.071133
0.003467
0.002813
0.065961
0.007303
0.014688
0.068103
0.071858
0.072173
0.067571
0.060173
0.001602
0.072642
0.030063
0.042301
0.050501
0.002725
0.011337
0.020785
0.019224
0.060592
0.024273
0.066031
0.017741
0.028841
0.039768
0.020906
0.035424
0.014597
0.047980
0.056005
0.071129
0.015390
0.012471
0.046645
0.010845
0.066010
0.070104
0.019967
0.062552
0.004732
0.008558
0.010667
0.007780
0.063064
0.002041
0.007415
0.030876
0.064295
0.003948
0.005835
0.064152
0.003339
0.008487
0.062549
0.002263
0.001298
0.069460
0.062758
0.011090
0.022883
0.051115
0.042651
0.070932
0.052740
0.045212
0.012748
0.066642
0.016635
0.024742
0.070378
0.065077
0.064178
0.004461
0.062423
0.000879
0.021072
0.015762
0.008897
0.067643
0.063934
0.024714
0.039796
0.067500
0.009579
0.063782
0.031988
0.009110
0.019386
0.061814
0.064662
0.072358
0.048014
0.033708
0.070869
0.063077
0.062596
0.064581
0.071495
0.064958
0.071862
0.065073
0.002850
0.068170
0.005915
0.071457
0.007933
0.066103
0.040302
0.059693
0.071086
0.062855
0.071172
0.068821
0.015063
0.003409
0.033161
0.023430
0.065791
0.007343
0.027763
0.016453
0.032470
0.006280
0.064294
0.072289
0.071517
0.067774
0.068861
0.006789
0.008529
0.070069
0.007435
0.064413
0.001350
0.060641
0.031088
0.017060
0.068596
0.007717
0.071424
0.060797
0.022599
0.033254
0.040337
0.015565
0.053153
0.011647
0.066149
0.010969
0.067497
0.009389
0.047278
0.060006
0.019103
0.008546
0.068642
0.019391
0.069984
0.062558
0.025466
0.002887
0.050069
0.066260
0.008152
0.017414
0.062997
0.062586
0.023958
0.006656
0.061135
0.038832
0.000854
0.071066
0.012130
0.007835
0.003844
0.070493
0.002351
0.005677
0.016135
0.013557
0.001117
0.004898
0.063183
0.062819
0.058823
0.006727
0.023437
0.034218
0.027141
0.027892
0.068594
0.051472
0.035256
0.070640
0.062918
0.023515
0.002719
0.042753
0.063659
0.030009
0.064973
0.008201
0.035623
0.005199
0.009968
0.031017
0.009069
0.017998
0.001427
0.001759
0.028245
0.066779