# vtk DataFile Version 2.0
Test
ASCII
DATASET POLYDATA
POINTS 7341 float
0.000000 0.000000 0.000000
1.000000 0.000000 0.000000
1.000000 1.000000 0.000000
0.000000 1.000000 0.000000
0.000000 0.500000 0.000000
0.500000 0.500000 0.000000
1.000000 0.500000 0.000000
0.499000 0.499000 0.000000
0.900000 0.010000 0.000000
0.029412 0.000000 0.000000
0.058824 0.000000 0.000000
0.088235 0.000000 0.000000
0.117647 0.000000 0.000000
0.147059 0.000000 0.000000
0.176471 0.000000 0.000000
0.205882 0.000000 0.000000
0.235294 0.000000 0.000000
0.264706 0.000000 0.000000
0.294118 0.000000 0.000000
0.323529 0.000000 0.000000
0.352941 0.000000 0.000000
0.382353 0.000000 0.000000
0.411765 0.000000 0.000000
0.441176 0.000000 0.000000
0.470588 0.000000 0.000000
0.500000 0.000000 0.000000
0.529412 0.000000 0.000000
0.558824 0.000000 0.000000
0.588235 0.000000 0.000000
0.617647 0.000000 0.000000
0.647059 0.000000 0.000000
0.676471 0.000000 0.000000
0.705882 0.000000 0.000000
0.735294 0.000000 0.000000
0.764706 0.000000 0.000000
0.794118 0.000000 0.000000
0.823529 0.000000 0.000000
0.852941 0.000000 0.000000
0.882353 0.000000 0.000000
0.911765 0.000000 0.000000
0.941176 0.000000 0.000000
0.970588 0.000000 0.000000
1.000000 0.029412 0.000000
1.000000 0.058824 0.000000
1.000000 0.088235 0.000000
1.000000 0.117647 0.000000
1.000000 0.147059 0.000000
1.000000 0.176471 0.000000
1.000000 0.205882 0.000000
1.000000 0.235294 0.000000
1.000000 0.264706 0.000000
1.000000 0.294118 0.000000
1.000000 0.323529 0.000000
1.000000 0.352941 0.000000
1.000000 0.382353 0.000000
1.000000 0.411765 0.000000
1.000000 0.441176 0.000000
1.000000 0.470588 0.000000
1.000000 0.529412 0.000000
1.000000 0.558824 0.000000
1.000000 0.588235 0.000000
1.000000 0.617647 0.000000
1.000000 0.647059 0.000000
1.000000 0.676471 0.000000
1.000000 0.705882 0.000000
1.000000 0.735294 0.000000
1.000000 0.764706 0.000000
1.000000 0.794118 0.000000
1.000000 0.823529 0.000000
1.000000 0.852941 0.000000
1.000000 0.882353 0.000000
1.000000 0.911765 0.000000
1.000000 0.941176 0.000000
1.000000 0.970588 0.000000
0.970588 1.000000 0.000000
0.941176 1.000000 0.000000
0.911765 1.000000 0.000000
0.882353 1.000000 0.000000
0.852941 1.000000 0.000000
0.823529 1.000000 0.000000
0.794118 1.000000 0.000000
0.764706 1.000000 0.000000
0.735294 1.000000 0.000000
0.705882 1.000000 0.000000
0.676471 1.000000 0.000000
0.647059 1.000000 0.000000
0.617647 1.000000 0.000000
0.588235 1.000000 0.000000
0.558824 1.000000 0.000000
0.529412 1.000000 0.000000
0.500000 1.000000 0.000000
0.470588 1.000000 0.000000
0.441176 1.000000 0.000000
0.411765 1.000000 0.000000
0.382353 1.000000 0.000000
0.352941 1.000000 0.000000
0.323529 1.000000 0.000000
0.294118 1.000000 0.000000
0.264706 1.000000 0.000000
0.235294 1.000000 0.000000
0.205882 1.000000 0.000000
0.176471 1.000000 0.000000
0.147059 1.000000 0.000000
0.117647 1.000000 0.000000
0.088235 1.000000 0.000000
0.058824 1.000000 0.000000
0.029412 1.000000 0.000000
0.000000 0.970588 0.000000
0.000000 0.941176 0.000000
0.000000 0.911765 0.000000
0.000000 0.882353 0.000000
0.000000 0.852941 0.000000
0.000000 0.823529 0.000000
0.000000 0.794118 0.000000
0.000000 0.764706 0.000000
0.000000 0.735294 0.000000
0.000000 0.705882 0.000000
0.000000 0.676471 0.000000
0.000000 0.647059 0.000000
0.000000 0.617647 0.000000
0.000000 0.588235 0.000000
0.000000 0.558824 0.000000
0.000000 0.529412 0.000000
0.007246 0.500000 0.000000
0.014493 0.500000 0.000000
0.021739 0.500000 0.000000
0.028986 0.500000 0.000000
0.036232 0.500000 0.000000
0.043478 0.500000 0.000000
0.050725 0.500000 0.000000
0.057971 0.500000 0.000000
0.065217 0.500000 0.000000
0.072464 0.500000 0.000000
0.079710 0.500000 0.000000
0.086957 0.500000 0.000000
0.094203 0.500000 0.000000
0.101449 0.500000 0.000000
0.108696 0.500000 0.000000
0.115942 0.500000 0.000000
0.123188 0.500000 0.000000
0.130435 0.500000 0.000000
0.137681 0.500000 0.000000
0.144928 0.500000 0.000000
0.152174 0.500000 0.000000
0.159420 0.500000 0.000000
0.166667 0.500000 0.000000
0.173913 0.500000 0.000000
0.181159 0.500000 0.000000
0.188406 0.500000 0.000000
0.195652 0.500000 0.000000
0.202899 0.500000 0.000000
0.210145 0.500000 0.000000
0.217391 0.500000 0.000000
0.224638 0.500000 0.000000
0.231884 0.500000 0.000000
0.239130 0.500000 0.000000
0.246377 0.500000 0.000000
0.253623 0.500000 0.000000
0.260870 0.500000 0.000000
0.268116 0.500000 0.000000
0.275362 0.500000 0.000000
0.282609 0.500000 0.000000
0.289855 0.500000 0.000000
0.297101 0.500000 0.000000
0.304348 0.500000 0.000000
0.311594 0.500000 0.000000
0.318841 0.500000 0.000000
0.326087 0.500000 0.000000
0.333333 0.500000 0.000000
0.340580 0.500000 0.000000
0.347826 0.500000 0.000000
0.355072 0.500000 0.000000
0.362319 0.500000 0.000000
0.369565 0.500000 0.000000
0.376812 0.500000 0.000000
0.384058 0.500000 0.000000
0.391304 0.500000 0.000000
0.398551 0.500000 0.000000
0.405797 0.500000 0.000000
0.413043 0.500000 0.000000
0.420290 0.500000 0.000000
0.427536 0.500000 0.000000
0.434783 0.500000 0.000000
0.442029 0.500000 0.000000
0.449275 0.500000 0.000000
0.456522 0.500000 0.000000
0.463768 0.500000 0.000000
0.471014 0.500000 0.000000
0.478261 0.500000 0.000000
0.485507 0.500000 0.000000
0.492754 0.500000 0.000000
0.510004 0.500000 0.000000
0.520408 0.500000 0.000000
0.531229 0.500000 0.000000
0.542483 0.500000 0.000000
0.554187 0.500000 0.000000
0.566359 0.500000 0.000000
0.579019 0.500000 0.000000
0.592185 0.500000 0.000000
0.605877 0.500000 0.000000
0.620118 0.500000 0.000000
0.634929 0.500000 0.000000
0.650332 0.500000 0.000000
0.666352 0.500000 0.000000
0.683013 0.500000 0.000000
0.700340 0.500000 0.000000
0.718361 0.500000 0.000000
0.737103 0.500000 0.000000
0.756595 0.500000 0.000000
0.776867 0.500000 0.000000
0.797950 0.500000 0.000000
0.819877 0.500000 0.000000
0.842681 0.500000 0.000000
0.866398 0.500000 0.000000
0.891064 0.500000 0.000000
0.916716 0.500000 0.000000
0.943396 0.500000 0.000000
0.971143 0.500000 0.000000
0.000000 0.470588 0.000000
0.000000 0.441176 0.000000
0.000000 0.411765 0.000000
0.000000 0.382353 0.000000
0.000000 0.352941 0.000000
0.000000 0.323529 0.000000
0.000000 0.294118 0.000000
0.000000 0.264706 0.000000
0.000000 0.235294 0.000000
0.000000 0.205882 0.000000
0.000000 0.176471 0.000000
0.000000 0.147059 0.000000
0.000000 0.117647 0.000000
0.000000 0.088235 0.000000
0.000000 0.058824 0.000000
0.000000 0.029412 0.000000
0.500341 0.497365 0.000000
0.501682 0.495729 0.000000
0.503023 0.494094 0.000000
0.504365 0.492458 0.000000
0.505706 0.490823 0.000000
0.507047 0.489187 0.000000
0.508388 0.487552 0.000000
0.509729 0.485916 0.000000
0.511070 0.484281 0.000000
0.512411 0.482645 0.000000
0.513753 0.481010 0.000000
0.515094 0.479375 0.000000
0.516435 0.477739 0.000000
0.517776 0.476104 0.000000
0.519117 0.474468 0.000000
0.520458 0.472833 0.000000
0.521799 0.471197 0.000000
0.523140 0.469562 0.000000
0.524482 0.467926 0.000000
0.525823 0.466291 0.000000
0.527164 0.464656 0.000000
0.528505 0.463020 0.000000
0.529846 0.461385 0.000000
0.531187 0.459749 0.000000
0.532528 0.458114 0.000000
0.533870 0.456478 0.000000
0.535211 0.454843 0.000000
0.536552 0.453207 0.000000
0.537893 0.451572 0.000000
0.539234 0.449936 0.000000
0.540575 0.448301 0.000000
0.541916 0.446666 0.000000
0.543258 0.445030 0.000000
0.544599 0.443395 0.000000
0.545940 0.441759 0.000000
0.547281 0.440124 0.000000
0.548622 0.438488 0.000000
0.549963 0.436853 0.000000
0.551304 0.435217 0.000000
0.552645 0.433582 0.000000
0.553987 0.431946 0.000000
0.555328 0.430311 0.000000
0.556669 0.428676 0.000000
0.558010 0.427040 0.000000
0.559351 0.425405 0.000000
0.560692 0.423769 0.000000
0.562033 0.422134 0.000000
0.563375 0.420498 0.000000
0.564716 0.418863 0.000000
0.566057 0.417227 0.000000
0.567398 0.415592 0.000000
0.568739 0.413957 0.000000
0.570080 0.412321 0.000000
0.571421 0.410686 0.000000
0.572763 0.409050 0.000000
0.574104 0.407415 0.000000
0.575445 0.405779 0.000000
0.576786 0.404144 0.000000
0.578127 0.402508 0.000000
0.579468 0.400873 0.000000
0.580809 0.399237 0.000000
0.582151 0.397602 0.000000
0.583492 0.395967 0.000000
0.584833 0.394331 0.000000
0.586174 0.392696 0.000000
0.587515 0.391060 0.000000
0.588856 0.389425 0.000000
0.590197 0.387789 0.000000
0.591538 0.386154 0.000000
0.592880 0.384518 0.000000
0.594221 0.382883 0.000000
0.595562 0.381247 0.000000
0.596903 0.379612 0.000000
0.598244 0.377977 0.000000
0.599585 0.376341 0.000000
0.600926 0.374706 0.000000
0.602268 0.373070 0.000000
0.603609 0.371435 0.000000
0.604950 0.369799 0.000000
0.606291 0.368164 0.000000
0.607632 0.366528 0.000000
0.608973 0.364893 0.000000
0.610314 0.363258 0.000000
0.611656 0.361622 0.000000
0.612997 0.359987 0.000000
0.614338 0.358351 0.000000
0.615679 0.356716 0.000000
0.617020 0.355080 0.000000
0.618361 0.353445 0.000000
0.619702 0.351809 0.000000
0.621043 0.350174 0.000000
0.622385 0.348538 0.000000
0.623726 0.346903 0.000000
0.625067 0.345268 0.000000
0.626408 0.343632 0.000000
0.627749 0.341997 0.000000
0.629090 0.340361 0.000000
0.630431 0.338726 0.000000
0.631773 0.337090 0.000000
0.633114 0.335455 0.000000
0.634455 0.333819 0.000000
0.635796 0.332184 0.000000
0.637137 0.330548 0.000000
0.638478 0.328913 0.000000
0.639819 0.327278 0.000000
0.641161 0.325642 0.000000
0.642502 0.324007 0.000000
0.643843 0.322371 0.000000
0.645184 0.320736 0.000000
0.646525 0.319100 0.000000
0.647866 0.317465 0.000000
0.649207 0.315829 0.000000
0.650548 0.314194 0.000000
0.651890 0.312559 0.000000
0.653231 0.310923 0.000000
0.654572 0.309288 0.000000
0.655913 0.307652 0.000000
0.657254 0.306017 0.000000
0.658595 0.304381 0.000000
0.659936 0.302746 0.000000
0.661278 0.301110 0.000000
0.662619 0.299475 0.000000
0.663960 0.297839 0.000000
0.665301 0.296204 0.000000
0.666642 0.294569 0.000000
0.667983 0.292933 0.000000
0.669324 0.291298 0.000000
0.670666 0.289662 0.000000
0.672007 0.288027 0.000000
0.673348 0.286391 0.000000
0.674689 0.284756 0.000000
0.676030 0.283120 0.000000
0.677371 0.281485 0.000000
[...]
POINT_DATA 7341
SCALARS UX float 1
LOOKUP_TABLE default
0.000000
0.000000
0.195500
0.195500
0.111050
0.097730
0.098203
0.094514
0.000555
-0.000000
0.000000
0.000000
0.000000
0.000000
0.000000
0.000000
0.000000
0.000000
0.000000
0.000000
0.000000
0.000000
0.000000
0.000000
0.000000
0.000000
0.000000
0.000000
0.000000
0.000000
0.000000
0.000000
0.000000
0.000000
0.000000
0.000000
0.000000
0.000000
0.000000
0.000000
0.000000
-0.000000
0.003787
0.005883
0.009323
0.012166
0.016419
0.020354
0.025027
0.030325
0.036268
0.042222
0.048624
0.055796
0.063735
0.072756
0.081516
0.090166
0.105525
0.112704
0.119467
0.125567
0.131283
0.136883
0.142289
0.147626
0.152944
0.158259
0.163570
0.168883
0.174200
0.179519
0.184842
0.190171
0.195500
0.195500
0.195500
0.195500
0.195500
0.195500
0.195500
0.195500
0.195500
0.195500
0.195500
0.195500
0.195500
0.195500
0.195500
0.195500
0.195500
0.195500
0.195500
0.195500
0.195500
0.195500
0.195500
0.195500
0.195500
0.195500
0.195500
0.195500
0.195500
0.195500
0.195500
0.195500
0.195500
0.191032
0.186558
0.182082
0.177579
0.173066
0.168502
0.163928
0.159297
0.154605
0.149892
0.145052
0.140112
0.135026
0.129757
0.124382
0.118864
0.110049
0.109077
0.107783
0.106826
0.106214
0.105914
0.105897
0.105557
0.104043
0.103158
0.103580
0.103368
0.102923
0.103104
0.102719
0.104070
0.101139
0.101503
0.101512
0.101921
0.101849
0.102460
0.100476
0.100447
0.100646
0.101955
0.098407
0.099412
0.099259
0.098777
0.099576
0.099059
0.098852
0.099338
0.095983
0.097652
0.099197
0.095993
0.098363
0.095277
0.096895
0.094582
0.095146
0.095606
0.093268
0.094322
0.095351
0.096306
0.097495
0.094801
0.098235
0.096162
0.097432
0.094534
0.096651
0.094834
0.097071
0.096475
0.096008
0.094890
0.097071
0.096782
0.096927
0.096038
0.098116
0.096904
0.098250
0.097930
0.096638
0.096173
0.096059
0.096301
0.096511
0.096603
0.096674
0.096725
0.096753
0.096776
0.096792
0.096795
0.096790
0.096776
0.096743
0.096692
0.096670
0.096666
0.096682
0.096717
0.096778
0.096866
0.096983
0.097126
0.097312
0.097576
0.097903
0.095336
0.086048
0.077503
0.069336
0.061448
0.053954
0.046864
0.040160
0.033709
0.027648
0.023344
0.018711
0.015322
0.012333
0.009628
0.006317
0.092720
0.090261
0.089310
0.088363
0.087688
0.086911
0.085925
0.085215
0.085035
0.085104
0.084693
0.084379
0.084095
0.083824
0.083560
0.083308
0.083059
0.082823
0.082578
0.082330
0.082077
0.081816
0.081551
0.081279
0.081000
0.080715
0.080426
0.080129
0.079825
0.079516
0.079199
0.078877
0.078548
0.078213
0.077872
0.077525
0.077172
0.076813
0.076449
0.076079
0.075705
0.075326
0.074943
0.074556
0.074165
0.073771
0.073373
0.072972
0.072568
0.072162
0.071754
0.071344
0.070931
0.070518
0.070103
0.069688
0.069271
0.068854
0.068436
0.068017
0.067598
0.067179
0.066760
0.066341
0.065922
0.065504
0.065086
0.064668
0.064251
0.063835
0.063420
0.063006
0.062592
0.062180
0.061769
0.061359
0.060950
0.060541
0.060134
0.059728
0.059323
0.058919
0.058515
0.058113
0.057711
0.057310
0.056910
0.056510
0.056111
0.055712
0.055314
0.054916
0.054520
0.054125
0.053730
0.053336
0.052943
0.052550
0.052159
0.051768
0.051379
0.050990
0.050602
0.050215
0.049829
0.049443
0.049058
0.048673
0.048287
0.047902
0.047517
0.047131
0.046745
0.046360
0.045974
0.045588
0.045202
0.044816
0.044431
0.044047
0.043663
0.043279
0.042897
0.042515
0.042133
0.041752
0.041370
0.040989
0.040607
0.040226
0.039844
0.039462
0.039080
0.038698
0.038316
0.037934
0.037552
0.037170
0.036788
0.036405
0.036023
0.035641
0.035259
0.034877
0.034495
0.034114
0.033732
0.033351
0.032970
0.032590
0.032209
0.031829
0.031448
0.031068
0.030690
0.030315
0.029945
0.029584
0.029233
0.028887
0.028545
0.028206
0.027872
0.027544
0.027222
0.026903
0.026587
0.026276
0.025968
0.025663
0.025362
0.025063
0.024768
0.024476
0.024187
0.023900
0.023617
0.023337
0.023059
0.022784
0.022512
0.022241
0.021974
0.021709
0.021446
0.021186
0.020928
0.020672
0.020419
0.020167
0.019916
0.019667
0.019419
0.019172
0.018927
0.018682
0.018438
0.018195
0.017953
0.017711
0.017470
0.017230
0.016991
0.016752
0.016514
0.016277
0.016041
0.015806
0.015572
0.015339
0.015106
0.014875
0.014645
0.014415
0.014187
0.013960
0.013734
0.013509
0.013285
0.013062
0.012840
0.012620
0.012400
0.012182
0.011964
0.011748
0.011532
0.011318
0.011104
0.010892
0.010681
0.010471
0.010262
0.010054
0.009847
0.009641
0.009436
0.009233
0.009031
0.008831
0.008632
0.008434
0.008237
0.008042
0.007848
0.007656
0.007466
0.007277
0.007090
0.006904
0.006720
0.006538
0.006358
0.006179
0.006002
0.005827
0.005655
0.005485
0.005316
0.005151
0.004989
0.004828
0.004670
0.004516
0.004364
0.004214
0.004068
0.003924
0.003783
0.003645
0.003509
0.003376
0.003245
0.003118
0.002993
0.002871
0.002751
0.002634
0.002518
0.002405
0.002294
0.002186
0.002079
0.001974
0.001871
0.001770
0.001669
0.001570
0.001472
0.001375
0.001278
0.001182
0.001087
0.000991
0.000898
0.000808
0.000718
0.000637
0.085719
0.081721
0.080354
0.001389
0.001837
0.091249
0.001840
0.091832
0.091074
0.041492
0.092426
0.002021
0.045259
0.095597
0.019162
0.025194
0.092527
0.002288
0.001495
0.081118
0.008317
0.098566
0.092316
0.012816
0.083315
0.075467
0.101043
0.063361
0.090553
0.085542
0.002020
0.084374
0.080954
0.094057
0.089051
0.001201
0.089103
0.003123
0.087027
0.001676
0.083490
0.080524
0.079780
0.097771
0.001849
0.088935
0.001412
0.087805
0.094793
0.103687
0.001928
0.090535
0.011044
0.068383
0.002375
0.092116
0.092554
0.060225
0.091983
0.091495
0.024298
0.029808
0.001886
0.001767
0.081584
0.084456
0.037902
0.080923
0.090462
0.001961
0.091069
0.001944
0.048083
0.001540
0.080349
0.020806
0.001345
0.090163
0.010505
0.002640
0.006831
0.003146
0.003592
0.083222
0.085481
0.087149
0.082662
0.081300
0.080460
0.088432
0.096649
0.094975
0.093381
0.092971
0.092326
0.090453
0.102430
0.100430
0.099856
0.099533
0.087639
0.001235
0.088152
0.091909
0.078032
0.080484
0.003413
0.082426
0.003810
0.086383
0.047037
0.003598
0.042019
0.091379
0.024766
0.085154
0.004111
0.085601
0.008543
0.061134
0.088580
0.023030
0.003163
0.083427
0.087689
0.002923
0.085429
0.086018
0.079241
0.097282
0.008981
0.081978
0.088407
0.089460
0.001130
0.090150
0.088796
0.001953
0.091919
0.087098
0.015210
0.092637
0.002074
0.073947
0.085269
0.092726
0.004650
0.092634
0.053619
0.034767
0.092430
0.092093
0.001686
0.091764
0.003739
0.091428
0.082803
0.001866
0.055008
0.001623
0.090657
0.081493
0.071714
0.001428
0.032072
0.090532
0.080931
0.001403
0.016620
0.004527
0.001682
0.005939
0.080239
0.080485
0.084691
0.083166
0.081090
0.080131
0.080902
0.079209
0.086268
0.087501
0.089421
0.094228
0.091283
0.095167
0.088757
0.091137
0.095852
0.097543
0.098134
0.089358
0.100920
0.097593
0.102055
0.086097
0.088670
0.087119
0.020221
0.005560
0.087892
0.088074
0.021053
0.088862
0.078723
0.088554
0.084895
0.093151
0.003128
0.079598
0.029150
0.084379
0.083049
0.003336
0.003961
0.002393
0.078219
0.095035
0.003707
0.095786
0.077831
0.085966
0.049353
0.084448
0.079187
0.094155
0.084061
0.004006
0.071507
0.089032
0.088587
0.091617
0.004064
0.055580
0.088559
0.003569
0.086313
0.036064
0.029757
0.003323
0.087818
0.035636
0.086758
0.003341
0.003538
0.003281
0.085868
0.004119
0.010912
0.080632
0.081440
0.084767
0.085010
0.086133
0.003185
0.067476
0.041295
0.018788
0.087170
0.014801
0.011730
0.003513
0.007681
0.005161
0.077812
0.078000
0.078424
0.080886
0.081734
0.003947
0.078994
0.081614
0.088557
0.082977
0.088332
0.085772
0.095634
0.099301
0.089460
0.088071
0.086766
0.077667
0.098049
0.094452
0.086521
0.086681
0.085351
0.090307
0.086910
0.016403
0.004889
0.088487
0.084962
0.086364
0.083584
0.091268
0.077398
0.078982
0.080979
0.005192
0.081241
0.041531
0.005506
0.033854
0.086967
0.005964
0.005282
0.078581
0.010208
0.068425
0.005462
0.085959
0.017329
0.077037
0.081144
0.093155
0.005831
0.088951
0.005128
0.084455
0.051943
0.088810
0.088633
0.003562
0.088506
0.083805
0.079904
0.026576
0.086919
0.005667
0.079123
0.079235
0.085935
0.024307
0.083677
0.047187
0.062931
0.084452
0.003493
0.085794
0.013586
0.010501
0.006278
0.006910
0.087707
0.079931
0.005332
0.005669
0.078432
0.005202
0.077860
0.078659
0.080567
0.082149
0.088498
0.085021
0.078046
0.015747
0.094403
0.081036
0.094906
0.084870
0.076952
0.003921
0.083672
0.084081
0.093945
0.055276
0.099550
0.082881
0.098167
0.092703
0.082819
0.087935
0.085088
0.085543
0.085142
0.018312
0.013628
0.087536
0.084656
0.086677
0.093446
0.084602
0.085840
0.086232
0.091826
0.007198
0.007255
0.075929
0.007778
0.083972
0.081606
0.085312
0.024129
0.030592
0.085532
0.084572
0.005264
0.083981
0.085639
0.077747
0.084396
0.084197
0.083232
0.078776
0.007595
0.015998
0.005413
0.090407
0.086193
0.062815
0.008868
0.005099
0.005495
0.018368
0.077124
0.077364
0.005998
0.008302
0.037350
0.081476
0.084906
0.080537
0.063899
0.075641
0.083841
0.091284
0.084288
0.086196
0.085170
0.013130
0.005178
0.079290
0.079684
0.046584
0.078294
0.077644
0.005643
0.055296
0.084135
0.077554
0.089045
0.012625
0.073696
0.005418
0.006121
0.040590
0.080874
0.021816
0.009599
0.080407
0.082687
0.081630
0.028202
0.076956
0.005436
0.079370
0.076839
0.082877
0.005927
0.091767
0.082382
0.101457
0.079927
0.087706
0.084519
0.082291
0.082826
0.084322
0.091400
0.084640
0.085878
0.087204
0.005432
0.084388
0.087597
0.085186
0.084863
0.080148
0.091316
0.084245
0.077064
0.077699
0.080434
0.046104
0.082021
0.007742
0.082836
0.015871
0.059143
0.009957
0.076402
0.006678
0.073636
0.087219
0.008150
0.079664
0.083583
0.084782
0.079120
0.077857
0.004885
0.027465
0.020187
0.007103
0.007954
0.078087
0.084846
0.007086
0.082309
0.082709
0.083800
0.083469
0.082929
0.089651
0.086925
0.037033
0.007504
0.025352
0.074857
0.007560
0.008281
0.084436
0.007834
0.015096
0.005901
0.083973
0.070535
0.082267
0.075813
0.072445
0.011766
0.032941
0.007346
0.007255
0.081322
0.036773
0.079553
0.083850
0.052551
0.070965
0.085172
0.076788
0.077089
0.085077
0.077942
0.088319
0.076306
0.081764
0.083984
0.084694
0.021337
0.007325
0.084857
0.086610
0.079873
0.091154
0.078026
0.077500
0.081575
0.005391
0.006185
0.086392
0.082278
0.084750
0.084074
0.078459
0.085230
0.013670
0.089581
0.076574
0.083892
0.078549
0.057487
0.082977
0.078863
0.084018
0.084009
0.080594
0.077832
0.009484
0.071132
0.009475
0.079892
0.027154
0.013699
0.057390
0.034803
0.010173
0.006251
0.082352
0.076422
0.009812
0.051647
0.076355
0.076713
0.008084
0.068968
0.078699
0.009548
0.077209
0.080321
0.007935
0.082883
0.081886
0.076534
0.077381
0.079909
0.080841
0.076561
0.086015
0.083793
0.078774
0.082146
0.045264
0.078001
0.031667
0.088170
0.023306
0.066605
0.007842
0.086816
0.072218
0.007382
0.003603
0.006379
0.007733
0.083496
0.008239
0.083846
0.007674
0.086898
0.010911
0.018121
0.041052
0.020865
0.007843
0.018823
0.009870
0.082956
0.084033
0.083682
0.083468
0.077920
0.079974
0.081287
0.076148
0.068508
0.007488
0.079622
0.076076
0.006828
0.083655
0.081906
0.056849
0.083646
0.083488
0.078823
0.077710
0.080179
0.087894
0.077040
0.006464
0.085404
0.082276
0.084184
0.011819
0.089128
0.083563
0.081829
0.007498
0.083586
0.078336
0.083665
0.085725
0.012593
0.009139
0.018589
0.008307
0.008269
0.041807
0.006022
0.004807
0.075608
0.022010
0.082061
0.083374
0.009641
0.084541
0.063926
0.056960
0.083674
0.009601
0.009209
0.072497
0.010320
0.014046
0.010326
0.009704
0.079122
0.081938
0.083184
0.075616
0.085085
0.010423
0.081670
0.082444
0.083158
0.082751
0.081424
0.031950
0.078927
0.004695
0.065662
0.077515
0.070226
0.067429
0.071267
0.029084
0.080049
0.077126
0.077764
0.076378
0.009523
0.084719
0.007515
0.010132
0.008656
0.085213
0.023636
0.046735
0.062762
0.076968
0.015578
0.009460
0.004295
0.050709
0.080327
0.011601
0.079561
0.081087
0.082222
0.083236
0.075989
0.077667
0.077443
0.076762
0.076141
0.078470
0.078081
0.009685
0.076540
0.079509
0.062277
0.082150
0.083249
0.083671
0.076387
0.088078
0.083458
0.001879
0.083885
0.080611
0.083314
0.009674
0.083270
0.042142
0.077924
0.009938
0.084231
0.076964
0.011816
0.011962
0.066020
0.078079
0.076050
0.024197
0.039874
0.009733
0.075556
0.042752
0.062020
0.004903
0.081017
0.007138
0.005699
0.081553
0.082106
0.075605
0.003621
0.012461
0.082854
0.082704
0.012815
0.074853
0.073348
0.063392
0.011001
0.077433
0.075715
0.075561
0.074379
0.075698
0.037904
0.003544
0.078744
0.003602
0.061555
0.009821
0.083033
0.020933
0.011990
0.082994
0.082859
0.012180
0.084239
0.018092
0.083738
0.078272
0.008049
0.009722
0.082878
0.009541
0.079732
0.009878
0.009814
0.009622
0.082196
0.051604
0.013092
0.056037
0.080726
0.012584
0.082227
0.081210
0.033354
0.079468
0.075242
0.077279
0.076436
0.079191
0.077047
0.075197
0.081026
0.077723
0.047630
0.082077
0.077142
0.077082
0.084285
0.011586
0.075859
0.083121
0.083004
0.027128
0.009522
0.068583
0.060382
0.067746
0.078512
0.014720
0.063460
0.074511
0.021819
0.038252
0.010734
0.009968
0.053133
0.008214
0.058193
0.003768
0.065968
0.074559
0.080991
0.080422
0.011556
0.082249
0.025863
0.082263
0.076026
0.077361
0.011938
0.080501
0.012100
0.082940
0.038716
0.011596
0.074623
0.078871
0.012194
0.005824
0.076291
0.026712
0.077674
0.076094
0.075830
0.075163
0.076651
0.068996
0.011905
0.012035
0.014650
0.082173
0.010060
0.008611
0.012128
0.079374
0.011938
0.016201
0.074298
0.064841
0.004446
0.056014
0.080937
0.077058
0.012922
0.046807
0.082668
0.081671
0.002796
0.079922
0.076954
0.079499
0.075117
0.011646
0.082601
0.075162
0.077210
0.082748
0.076544
0.082694
0.075928
0.075792
0.075516
0.080789
0.002107
0.078930
0.072902
0.031425
0.082685
0.018621
0.082626
0.056378
0.075120
0.075099
0.002240
0.075423
0.077817
0.082905
0.081126
0.044879
0.009531
0.006871
0.082690
0.008544
0.076848
0.074385
0.014407
0.039322
0.064711
0.036099
0.013355
0.074684
0.050372
0.074115
0.011278
0.008624
0.004866
0.081620
0.009148
0.053510
0.079650
0.007838
0.006638
0.080509
0.071642
0.080139
0.014407
0.074494
0.069364
0.003008
0.014829
0.070388
0.013550
0.013694
0.082033
0.014570
0.074244
0.075971
0.076242
0.074040
0.079829
0.029413
0.021270
0.014639
0.079278
0.001926
0.059431
0.011708
0.024236
0.061743
0.077584
0.073829
0.073756
0.051570
0.012131
0.014332
0.080523
0.012801
0.014900
0.005575
0.015663
0.042860
0.010988
0.015986
0.073810
0.081677
0.082376
0.079624
0.078691
0.002635
0.074116
0.082181
0.082528
0.082476
0.082118
0.076085
0.007152
0.074733
0.016632
0.074086
0.075002
0.034673
0.075748
0.011171
0.073992
0.074887
0.077042
0.082432
0.011972
0.074048
0.072908
0.075682
0.006925
0.029671
0.003363
0.009243
0.082688
0.000958
0.010641
0.078649
0.080898
0.082379
0.081104
0.077493
0.042641
0.004061
0.059190
0.076232
0.071142
0.082336
0.082428
0.002214
0.076381
0.016754
0.017335
0.061107
0.039481
0.034139
0.070750
0.022001
0.014310
0.012395
0.012260
0.072010
0.046966
0.017420
0.054869
0.004037
0.078534
0.067912
0.073338
0.006323
0.026841
0.075157
0.014546
0.016820
0.012678
0.002127
0.002325
0.013941
0.077458
0.014418
0.014788
0.011671
0.059378
0.056597
0.014183
0.067818
0.004789
0.079804
0.046695
0.081108
0.079912
0.017104
0.075611
0.035856
0.081642
0.078996
0.074129
0.073260
0.065772
0.014573
0.013147
0.024970
0.016089
0.005880
0.051108
0.069872
0.081760
0.077810
0.075394
0.082231
0.073559
0.072981
0.073845
0.079190
0.071963
0.015210
0.074029
0.074617
0.003187
0.081900
0.076091
0.074060
0.071287
0.082224
0.081889
0.073162
0.072350
0.073305
0.057123
0.009676
0.016732
0.014623
0.082192
0.081344
0.081900
0.080308
0.008715
0.034588
0.074343
0.040595
0.080480
0.029067
0.082125
0.006964
0.082061
0.007645
0.065304
0.080165
0.081909
0.010297
0.019654
0.010070
0.002969
0.072870
0.076814
0.020016
0.016311
0.057606
0.079857
0.067882
0.038891
0.014088
0.009676
0.011344
0.068222
0.010101
0.064372
0.051402
0.036574
0.008423
0.071671
0.061788
0.019144
0.002379
0.074644
0.017296
0.015274
0.079262
0.017711
0.003218
0.029599
0.019829
0.016861
0.018518
0.046684
0.081226
0.012723
0.080049
0.055459
0.069991
0.015151
0.066812
0.015060
0.042997
0.078242
0.014296
0.016894
0.013997
0.004889
0.017157
0.013677
0.024712
0.070311
0.078318
0.074225
0.074823
0.029566
0.072252
0.005509
0.074728
0.078358
0.081423
0.079177
0.012212
0.080979
0.080504
0.018494
0.032557
0.072704
0.072762
0.072908
0.072209
0.014672
0.070880
0.071513
0.075676
0.081822
0.081954
0.016968
0.072887
0.072663
0.069054
0.052957
0.081821
0.081977
0.009646
0.055603
0.007554
0.045831
0.072535
0.049384
0.070308
0.031553
0.081652
0.072426
0.001816
0.081379
0.078757
0.080626
0.080415
0.081799
0.012607
0.081608
0.070840
0.005899
0.081510
0.081898
0.007014
0.081717
0.078835
0.019180
0.079199
0.039572
0.054158
0.023598
0.065007
0.072353
0.013634
0.015384
0.015459
0.043575
0.006106
0.033356
0.078593
0.016955
0.049962
0.004171
0.004717
0.077382
0.071753
0.010354
0.006941
0.069826
0.002480
0.077897
0.068751
0.007632
0.013765
0.073311
0.071367
0.003060
0.062005
0.079313
0.025721
0.011093
0.011606
0.043117
0.017269
0.015868
0.065232
0.080401
0.012274
0.067487
0.058537
0.026993
0.016155
0.081357
0.067299
0.078425
0.019628
0.013827
0.016980
0.080847
0.047879
0.015834
0.080503
0.078387
0.006234
0.077702
0.074008
0.016920
0.020173
0.017081
0.001861
0.020763
0.033923
0.029646
0.019794
0.079890
0.078074
0.010556
0.081179
0.081548
0.072458
0.070536
0.003945
0.073567
0.078381
0.081680
0.079946
0.081783
0.072350
0.081455
0.072426
0.018691
0.022818
0.005117
0.081211
0.013396
0.081298
0.071251
0.019921
0.008271
0.079683
0.082253
0.071719
0.081111
0.046261
0.068340
0.009276
0.081159
0.081373
0.016276
0.081530
0.073964
0.020174
0.076305
0.072915
0.078454
0.023061
0.019859
0.018610
0.039625
0.080904
0.058968
0.079052
0.078063
0.070156
0.015654
0.069063
0.012532
0.076937
0.013827
0.012240
0.064209
0.067841
0.077173
0.030291
0.005607
0.008932
0.071048
0.046660
0.002900
0.003754
0.070625
0.006670
0.022603
0.007477
0.071484
0.022435
0.028839
0.069299
0.001375
0.006879
0.019222
0.079482
0.071125
0.079908
0.080621
0.074961
0.019259
0.014272
0.016663
0.019679
0.020483
0.036140
0.010878
0.018797
0.018992
0.038379
0.080843
0.080673
0.021885
0.070319
0.010807
0.081362
0.072279
0.069398
0.013723
0.064076
0.079401
0.077647
0.080629
0.081425
0.070981
0.021470
0.080727
0.072648
0.079307
0.018228
0.008104
0.066679
0.080012
0.010212
0.009873
0.049950
0.081081
0.081378
0.065341
0.044413
0.011693
0.002489
0.016578
0.071048
0.019839
0.080542
0.004747
0.003766
0.077084
0.010403
0.017082
0.080814
0.080939
0.081102
0.078606
0.060886
0.001939
0.081099
0.022807
0.055512
0.066243
0.003876
0.015016
0.027746
0.025622
0.071083
0.022057
0.077502
0.020797
0.023012
0.052599
0.027936
0.047063
0.017532
0.063677
0.070181
0.080625
0.020558
0.016195
0.042384
0.014605
0.078691
0.080051
0.022776
0.075861
0.006128
0.012029
0.014554
0.010932
0.069663
0.002489
0.010388
0.023997
0.075984
0.005415
0.008146
0.075185
0.004505
0.011374
0.063324
0.002984
0.001591
0.079697
0.069912
0.014884
0.022869
0.066860
0.056072
0.080487
0.068085
0.059378
0.017080
0.078003
0.022202
0.033170
0.080176
0.078234
0.076865
0.006178
0.070519
0.001079
0.023002
0.018313
0.012495
0.078575
0.076422
0.019968
0.033462
0.078563
0.012911
0.067955
0.024824
0.012770
0.025869
0.071545
0.067762
0.081185
0.062606
0.026487
0.080427
0.064331
0.063373
0.075744
0.080784
0.070617
0.080970
0.077152
0.003403
0.078961
0.007711
0.080751
0.011186
0.068281
0.052850
0.059885
0.082834
0.071818
0.080585
0.079311
0.017716
0.004561
0.044253
0.019959
0.070782
0.009814
0.037210
0.018728
0.025167
0.008806
0.074862
0.081087
0.080811
0.078730
0.079370
0.009525
0.011227
0.080016
0.010672
0.065449
0.001854
0.061840
0.041566
0.019248
0.073019
0.010812
0.083412
0.069227
0.025861
0.044482
0.053440
0.020817
0.068284
0.015690
0.077748
0.014941
0.078571
0.013093
0.062809
0.060465
0.021966
0.011979
0.079366
0.025887
0.079984
0.075875
0.034169
0.003519
0.046985
0.077729
0.011388
0.020505
0.074520
0.073408
0.025636
0.009320
0.068704
0.051374
0.001039
0.080617
0.015980
0.010938
0.005226
0.080330
0.002853
0.007898
0.018993
0.018168
0.001510
0.006752
0.065542
0.066285
0.072337
0.008975
0.031417
0.027593
0.022753
0.022772
0.079225
0.067179
0.047008
0.080355
0.075662
0.022306
0.003569
0.056640
0.076103
0.023566
0.076639
0.011506
0.028781
0.006802
0.013800
0.041583
0.012717
0.024012
0.001757
0.002155
0.037915
0.078042