# vtk DataFile Version 2.0
Test
ASCII
DATASET POLYDATA
POINTS 7341 float
0.000000 0.000000 0.000000
1.000000 0.000000 0.000000
1.000000 1.000000 0.000000
0.000000 1.000000 0.000000
0.000000 0.500000 0.000000
0.500000 0.500000 0.000000
1.000000 0.500000 0.000000
0.499000 0.499000 0.000000
0.900000 0.010000 0.000000
0.029412 0.000000 0.000000
0.058824 0.000000 0.000000
0.088235 0.000000 0.000000
0.117647 0.000000 0.000000
0.147059 0.000000 0.000000
0.176471 0.000000 0.000000
0.205882 0.000000 0.000000
0.235294 0.000000 0.000000
0.264706 0.000000 0.000000
0.294118 0.000000 0.000000
0.323529 0.000000 0.000000
0.352941 0.000000 0.000000
0.382353 0.000000 0.000000
0.411765 0.000000 0.000000
0.441176 0.000000 0.000000
0.470588 0.000000 0.000000
0.500000 0.000000 0.000000
0.529412 0.000000 0.000000
0.558824 0.000000 0.000000
0.588235 0.000000 0.000000
0.617647 0.000000 0.000000
0.647059 0.000000 0.000000
0.676471 0.000000 0.000000
0.705882 0.000000 0.000000
0.735294 0.000000 0.000000
0.764706 0.000000 0.000000
0.794118 0.000000 0.000000
0.823529 0.000000 0.000000
0.852941 0.000000 0.000000
0.882353 0.000000 0.000000
0.911765 0.000000 0.000000
0.941176 0.000000 0.000000
0.970588 0.000000 0.000000
1.000000 0.029412 0.000000
1.000000 0.058824 0.000000
1.000000 0.088235 0.000000
1.000000 0.117647 0.000000
1.000000 0.147059 0.000000
1.000000 0.176471 0.000000
1.000000 0.205882 0.000000
1.000000 0.235294 0.000000
1.000000 0.264706 0.000000
1.000000 0.294118 0.000000
1.000000 0.323529 0.000000
1.000000 0.352941 0.000000
1.000000 0.382353 0.000000
1.000000 0.411765 0.000000
1.000000 0.441176 0.000000
1.000000 0.470588 0.000000
1.000000 0.529412 0.000000
1.000000 0.558824 0.000000
1.000000 0.588235 0.000000
1.000000 0.617647 0.000000
1.000000 0.647059 0.000000
1.000000 0.676471 0.000000
1.000000 0.705882 0.000000
1.000000 0.735294 0.000000
1.000000 0.764706 0.000000
1.000000 0.794118 0.000000
1.000000 0.823529 0.000000
1.000000 0.852941 0.000000
1.000000 0.882353 0.000000
1.000000 0.911765 0.000000
1.000000 0.941176 0.000000
1.000000 0.970588 0.000000
0.970588 1.000000 0.000000
0.941176 1.000000 0.000000
0.911765 1.000000 0.000000
0.882353 1.000000 0.000000
0.852941 1.000000 0.000000
0.823529 1.000000 0.000000
0.794118 1.000000 0.000000
0.764706 1.000000 0.000000
0.735294 1.000000 0.000000
0.705882 1.000000 0.000000
0.676471 1.000000 0.000000
0.647059 1.000000 0.000000
0.617647 1.000000 0.000000
0.588235 1.000000 0.000000
0.558824 1.000000 0.000000
0.529412 1.000000 0.000000
0.500000 1.000000 0.000000
0.470588 1.000000 0.000000
0.441176 1.000000 0.000000
0.411765 1.000000 0.000000
0.382353 1.000000 0.000000
0.352941 1.000000 0.000000
0.323529 1.000000 0.000000
0.294118 1.000000 0.000000
0.264706 1.000000 0.000000
0.235294 1.000000 0.000000
0.205882 1.000000 0.000000
0.176471 1.000000 0.000000
0.147059 1.000000 0.000000
0.117647 1.000000 0.000000
0.088235 1.000000 0.000000
0.058824 1.000000 0.000000
0.029412 1.000000 0.000000
0.000000 0.970588 0.000000
0.000000 0.941176 0.000000
0.000000 0.911765 0.000000
0.000000 0.882353 0.000000
0.000000 0.852941 0.000000
0.000000 0.823529 0.000000
0.000000 0.794118 0.000000
0.000000 0.764706 0.000000
0.000000 0.735294 0.000000
0.000000 0.705882 0.000000
0.000000 0.676471 0.000000
0.000000 0.647059 0.000000
0.000000 0.617647 0.000000
0.000000 0.588235 0.000000
0.000000 0.558824 0.000000
0.000000 0.529412 0.000000
0.007246 0.500000 0.000000
0.014493 0.500000 0.000000
0.021739 0.500000 0.000000
0.028986 0.500000 0.000000
0.036232 0.500000 0.000000
0.043478 0.500000 0.000000
0.050725 0.500000 0.000000
0.057971 0.500000 0.000000
0.065217 0.500000 0.000000
0.072464 0.500000 0.000000
0.079710 0.500000 0.000000
0.086957 0.500000 0.000000
0.094203 0.500000 0.000000
0.101449 0.500000 0.000000
0.108696 0.500000 0.000000
0.115942 0.500000 0.000000
0.123188 0.500000 0.000000
0.130435 0.500000 0.000000
0.137681 0.500000 0.000000
0.144928 0.500000 0.000000
0.152174 0.500000 0.000000
0.159420 0.500000 0.000000
0.166667 0.500000 0.000000
0.173913 0.500000 0.000000
0.181159 0.500000 0.000000
0.188406 0.500000 0.000000
0.195652 0.500000 0.000000
0.202899 0.500000 0.000000
0.210145 0.500000 0.000000
0.217391 0.500000 0.000000
0.224638 0.500000 0.000000
0.231884 0.500000 0.000000
0.239130 0.500000 0.000000
0.246377 0.500000 0.000000
0.253623 0.500000 0.000000
0.260870 0.500000 0.000000
0.268116 0.500000 0.000000
0.275362 0.500000 0.000000
0.282609 0.500000 0.000000
0.289855 0.500000 0.000000
0.297101 0.500000 0.000000
0.304348 0.500000 0.000000
0.311594 0.500000 0.000000
0.318841 0.500000 0.000000
0.326087 0.500000 0.000000
0.333333 0.500000 0.000000
0.340580 0.500000 0.000000
0.347826 0.500000 0.000000
0.355072 0.500000 0.000000
0.362319 0.500000 0.000000
0.369565 0.500000 0.000000
0.376812 0.500000 0.000000
0.384058 0.500000 0.000000
0.391304 0.500000 0.000000
0.398551 0.500000 0.000000
0.405797 0.500000 0.000000
0.413043 0.500000 0.000000
0.420290 0.500000 0.000000
0.427536 0.500000 0.000000
0.434783 0.500000 0.000000
0.442029 0.500000 0.000000
0.449275 0.500000 0.000000
0.456522 0.500000 0.000000
0.463768 0.500000 0.000000
0.471014 0.500000 0.000000
0.478261 0.500000 0.000000
0.485507 0.500000 0.000000
0.492754 0.500000 0.000000
0.510004 0.500000 0.000000
0.520408 0.500000 0.000000
0.531229 0.500000 0.000000
0.542483 0.500000 0.000000
0.554187 0.500000 0.000000
0.566359 0.500000 0.000000
0.579019 0.500000 0.000000
0.592185 0.500000 0.000000
0.605877 0.500000 0.000000
0.620118 0.500000 0.000000
0.634929 0.500000 0.000000
0.650332 0.500000 0.000000
0.666352 0.500000 0.000000
0.683013 0.500000 0.000000
0.700340 0.500000 0.000000
0.718361 0.500000 0.000000
0.737103 0.500000 0.000000
0.756595 0.500000 0.000000
0.776867 0.500000 0.000000
0.797950 0.500000 0.000000
0.819877 0.500000 0.000000
0.842681 0.500000 0.000000
0.866398 0.500000 0.000000
0.891064 0.500000 0.000000
0.916716 0.500000 0.000000
0.943396 0.500000 0.000000
0.971143 0.500000 0.000000
0.000000 0.470588 0.000000
0.000000 0.441176 0.000000
0.000000 0.411765 0.000000
0.000000 0.382353 0.000000
0.000000 0.352941 0.000000
0.000000 0.323529 0.000000
0.000000 0.294118 0.000000
0.000000 0.264706 0.000000
0.000000 0.235294 0.000000
0.000000 0.205882 0.000000
0.000000 0.176471 0.000000
0.000000 0.147059 0.000000
0.000000 0.117647 0.000000
0.000000 0.088235 0.000000
0.000000 0.058824 0.000000
0.000000 0.029412 0.000000
0.500341 0.497365 0.000000
0.501682 0.495729 0.000000
0.503023 0.494094 0.000000
0.504365 0.492458 0.000000
0.505706 0.490823 0.000000
0.507047 0.489187 0.000000
0.508388 0.487552 0.000000
0.509729 0.485916 0.000000
0.511070 0.484281 0.000000
0.512411 0.482645 0.000000
0.513753 0.481010 0.000000
0.515094 0.479375 0.000000
0.516435 0.477739 0.000000
0.517776 0.476104 0.000000
0.519117 0.474468 0.000000
0.520458 0.472833 0.000000
0.521799 0.471197 0.000000
0.523140 0.469562 0.000000
0.524482 0.467926 0.000000
0.525823 0.466291 0.000000
0.527164 0.464656 0.000000
0.528505 0.463020 0.000000
0.529846 0.461385 0.000000
0.531187 0.459749 0.000000
0.532528 0.458114 0.000000
0.533870 0.456478 0.000000
0.535211 0.454843 0.000000
0.536552 0.453207 0.000000
0.537893 0.451572 0.000000
0.539234 0.449936 0.000000
0.540575 0.448301 0.000000
0.541916 0.446666 0.000000
0.543258 0.445030 0.000000
0.544599 0.443395 0.000000
0.545940 0.441759 0.000000
0.547281 0.440124 0.000000
0.548622 0.438488 0.000000
0.549963 0.436853 0.000000
0.551304 0.435217 0.000000
0.552645 0.433582 0.000000
0.553987 0.431946 0.000000
0.555328 0.430311 0.000000
0.556669 0.428676 0.000000
0.558010 0.427040 0.000000
0.559351 0.425405 0.000000
0.560692 0.423769 0.000000
0.562033 0.422134 0.000000
0.563375 0.420498 0.000000
0.564716 0.418863 0.000000
0.566057 0.417227 0.000000
0.567398 0.415592 0.000000
0.568739 0.413957 0.000000
0.570080 0.412321 0.000000
0.571421 0.410686 0.000000
0.572763 0.409050 0.000000
0.574104 0.407415 0.000000
0.575445 0.405779 0.000000
0.576786 0.404144 0.000000
0.578127 0.402508 0.000000
0.579468 0.400873 0.000000
0.580809 0.399237 0.000000
0.582151 0.397602 0.000000
0.583492 0.395967 0.000000
0.584833 0.394331 0.000000
0.586174 0.392696 0.000000
0.587515 0.391060 0.000000
0.588856 0.389425 0.000000
0.590197 0.387789 0.000000
0.591538 0.386154 0.000000
0.592880 0.384518 0.000000
0.594221 0.382883 0.000000
0.595562 0.381247 0.000000
0.596903 0.379612 0.000000
0.598244 0.377977 0.000000
0.599585 0.376341 0.000000
0.600926 0.374706 0.000000
0.602268 0.373070 0.000000
0.603609 0.371435 0.000000
0.604950 0.369799 0.000000
0.606291 0.368164 0.000000
0.607632 0.366528 0.000000
0.608973 0.364893 0.000000
0.610314 0.363258 0.000000
0.611656 0.361622 0.000000
0.612997 0.359987 0.000000
0.614338 0.358351 0.000000
0.615679 0.356716 0.000000
0.617020 0.355080 0.000000
0.618361 0.353445 0.000000
0.619702 0.351809 0.000000
0.621043 0.350174 0.000000
0.622385 0.348538 0.000000
0.623726 0.346903 0.000000
0.625067 0.345268 0.000000
0.626408 0.343632 0.000000
0.627749 0.341997 0.000000
0.629090 0.340361 0.000000
0.630431 0.338726 0.000000
0.631773 0.337090 0.000000
0.633114 0.335455 0.000000
0.634455 0.333819 0.000000
0.635796 0.332184 0.000000
0.637137 0.330548 0.000000
0.638478 0.328913 0.000000
0.639819 0.327278 0.000000
0.641161 0.325642 0.000000
0.642502 0.324007 0.000000
0.643843 0.322371 0.000000
0.645184 0.320736 0.000000
0.646525 0.319100 0.000000
0.647866 0.317465 0.000000
0.649207 0.315829 0.000000
0.650548 0.314194 0.000000
0.651890 0.312559 0.000000
0.653231 0.310923 0.000000
0.654572 0.309288 0.000000
0.655913 0.307652 0.000000
0.657254 0.306017 0.000000
0.658595 0.304381 0.000000
0.659936 0.302746 0.000000
0.661278 0.301110 0.000000
0.662619 0.299475 0.000000
0.663960 0.297839 0.000000
0.665301 0.296204 0.000000
0.666642 0.294569 0.000000
0.667983 0.292933 0.000000
0.669324 0.291298 0.000000
0.670666 0.289662 0.000000
0.672007 0.288027 0.000000
0.673348 0.286391 0.000000
0.674689 0.284756 0.000000
0.676030 0.283120 0.000000
0.677371 0.281485 0.000000
[...]
POINT_DATA 7341
SCALARS UX float 1
LOOKUP_TABLE default
0.000000
0.000000
0.235500
0.235500
0.109633
0.094413
0.094318
0.090625
0.000532
-0.000000
0.000000
0.000000
0.000000
0.000000
0.000000
0.000000
0.000000
0.000000
0.000000
0.000000
0.000000
0.000000
0.000000
0.000000
0.000000
0.000000
0.000000
0.000000
0.000000
0.000000
0.000000
0.000000
0.000000
0.000000
0.000000
0.000000
0.000000
0.000000
0.000000
0.000000
0.000000
-0.000000
0.005055
0.007764
0.010434
0.013098
0.016389
0.019902
0.023837
0.028143
0.032991
0.037929
0.043645
0.049534
0.057006
0.065258
0.074453
0.084126
0.104775
0.115391
0.126213
0.136053
0.145052
0.153615
0.161705
0.169428
0.177003
0.184518
0.191909
0.199250
0.206550
0.213812
0.221057
0.228287
0.235500
0.235500
0.235500
0.235500
0.235500
0.235500
0.235500
0.235500
0.235500
0.235500
0.235500
0.235500
0.235500
0.235500
0.235500
0.235500
0.235500
0.235500
0.235500
0.235500
0.235500
0.235500
0.235500
0.235500
0.235500
0.235500
0.235500
0.235500
0.235500
0.235500
0.235500
0.235500
0.235500
0.229420
0.223336
0.217247
0.211120
0.204984
0.198731
0.192452
0.186006
0.179359
0.172650
0.165432
0.157777
0.149572
0.140749
0.131595
0.121948
0.107274
0.105146
0.102267
0.099727
0.099072
0.099366
0.099063
0.098956
0.095953
0.093916
0.093965
0.093206
0.091934
0.092339
0.091061
0.093372
0.089079
0.090656
0.090669
0.091258
0.090957
0.091440
0.088522
0.089229
0.089896
0.093392
0.088509
0.090227
0.090646
0.090385
0.091764
0.091147
0.090795
0.091347
0.086652
0.089164
0.090392
0.085513
0.089890
0.086406
0.089158
0.086732
0.088700
0.090247
0.087027
0.087876
0.088553
0.089191
0.090352
0.086791
0.092558
0.090086
0.092094
0.089177
0.092621
0.090900
0.094402
0.093913
0.093777
0.092863
0.096168
0.095692
0.095425
0.093816
0.095711
0.093868
0.095446
0.095070
0.093097
0.092468
0.092036
0.091767
0.091544
0.091319
0.091116
0.090974
0.090835
0.090754
0.090679
0.090641
0.090621
0.090595
0.090591
0.090609
0.090660
0.090742
0.090864
0.091030
0.091241
0.091498
0.091806
0.092172
0.092614
0.093147
0.093741
0.083528
0.074109
0.066401
0.059542
0.053501
0.047658
0.042190
0.036809
0.031877
0.027229
0.022999
0.018939
0.015393
0.012029
0.008689
0.005354
0.088757
0.086117
0.084783
0.083465
0.082326
0.081191
0.080256
0.079445
0.078684
0.077960
0.077265
0.076570
0.075910
0.075267
0.074629
0.074020
0.073410
0.072832
0.072260
0.071706
0.071165
0.070627
0.070107
0.069595
0.069088
0.068592
0.068101
0.067614
0.067136
0.066662
0.066194
0.065735
0.065284
0.064842
0.064404
0.063976
0.063554
0.063136
0.062725
0.062318
0.061914
0.061516
0.061119
0.060728
0.060338
0.059952
0.059568
0.059187
0.058809
0.058432
0.058059
0.057686
0.057317
0.056949
0.056583
0.056219
0.055857
0.055497
0.055138
0.054780
0.054425
0.054070
0.053719
0.053368
0.053018
0.052670
0.052323
0.051978
0.051635
0.051292
0.050951
0.050611
0.050272
0.049934
0.049598
0.049262
0.048929
0.048595
0.048263
0.047933
0.047603
0.047274
0.046946
0.046619
0.046293
0.045968
0.045644
0.045321
0.044999
0.044678
0.044357
0.044037
0.043719
0.043401
0.043084
0.042767
0.042452
0.042137
0.041822
0.041509
0.041196
0.040884
0.040572
0.040262
0.039952
0.039643
0.039334
0.039026
0.038719
0.038413
0.038108
0.037803
0.037499
0.037195
0.036892
0.036590
0.036289
0.035989
0.035689
0.035389
0.035091
0.034793
0.034496
0.034199
0.033904
0.033608
0.033314
0.033020
0.032727
0.032434
0.032143
0.031851
0.031561
0.031270
0.030981
0.030692
0.030403
0.030115
0.029828
0.029541
0.029255
0.028968
0.028683
0.028398
0.028113
0.027829
0.027544
0.027260
0.026976
0.026691
0.026407
0.026123
0.025842
0.025557
0.025281
0.025011
0.024738
0.024466
0.024198
0.023931
0.023664
0.023397
0.023130
0.022863
0.022596
0.022330
0.022064
0.021799
0.021534
0.021270
0.021006
0.020743
0.020481
0.020219
0.019957
0.019697
0.019437
0.019179
0.018922
0.018666
0.018411
0.018158
0.017906
0.017656
0.017408
0.017161
0.016916
0.016673
0.016432
0.016193
0.015956
0.015720
0.015487
0.015257
0.015028
0.014802
0.014578
0.014356
0.014136
0.013918
0.013703
0.013490
0.013279
0.013070
0.012863
0.012658
0.012456
0.012256
0.012058
0.011863
0.011669
0.011478
0.011290
0.011103
0.010919
0.010738
0.010558
0.010381
0.010206
0.010033
0.009862
0.009693
0.009526
0.009362
0.009199
0.009037
0.008878
0.008720
0.008564
0.008409
0.008256
0.008105
0.007956
0.007808
0.007661
0.007516
0.007372
0.007230
0.007090
0.006950
0.006813
0.006676
0.006541
0.006407
0.006274
0.006143
0.006014
0.005885
0.005759
0.005633
0.005510
0.005387
0.005265
0.005144
0.005024
0.004905
0.004787
0.004669
0.004551
0.004434
0.004317
0.004200
0.004083
0.003966
0.003849
0.003732
0.003616
0.003501
0.003386
0.003272
0.003160
0.003049
0.002941
0.002834
0.002729
0.002625
0.002524
0.002424
0.002324
0.002226
0.002130
0.002035
0.001940
0.001847
0.001755
0.001664
0.001572
0.001483
0.001393
0.001304
0.001214
0.001125
0.001036
0.000949
0.000862
0.000777
0.000690
0.000612
0.072055
0.070770
0.070761
0.001799
0.002135
0.083777
0.001905
0.083976
0.077635
0.036747
0.084571
0.001350
0.041093
0.082342
0.018279
0.025987
0.084844
0.001072
0.001661
0.072649
0.008890
0.085845
0.085416
0.013632
0.075398
0.064201
0.089799
0.056087
0.083485
0.077226
0.001688
0.071172
0.070726
0.080551
0.075613
0.000848
0.083913
0.003820
0.079020
0.002160
0.070873
0.070619
0.070312
0.084785
0.001907
0.084358
0.001383
0.080018
0.082095
0.094029
0.001168
0.084260
0.011511
0.058539
0.001133
0.084711
0.084729
0.052324
0.084021
0.083770
0.022662
0.027130
0.001447
0.001629
0.073549
0.076390
0.035671
0.073120
0.083866
0.002037
0.083721
0.002085
0.042653
0.002021
0.071247
0.021606
0.001668
0.083730
0.010391
0.002038
0.006176
0.002250
0.002818
0.071111
0.071908
0.073679
0.071070
0.070769
0.070811
0.075097
0.083521
0.081722
0.079832
0.079429
0.078847
0.077050
0.091777
0.088760
0.087846
0.087276
0.082506
0.001136
0.083053
0.087328
0.067350
0.067835
0.004289
0.072534
0.004139
0.073020
0.041283
0.002949
0.039228
0.077933
0.022583
0.076928
0.002301
0.076729
0.008630
0.052909
0.080020
0.024639
0.003889
0.069696
0.081393
0.002184
0.079063
0.078815
0.067436
0.084460
0.009149
0.073954
0.081915
0.085739
0.000905
0.076739
0.076142
0.000947
0.085394
0.079602
0.014800
0.085174
0.001148
0.062715
0.077294
0.085014
0.005970
0.084837
0.047384
0.031212
0.084624
0.084239
0.001721
0.084009
0.003939
0.083842
0.075080
0.002055
0.048480
0.001996
0.083391
0.073362
0.063758
0.001878
0.031228
0.083717
0.072127
0.001651
0.017517
0.004373
0.001681
0.005486
0.070926
0.071000
0.071298
0.070106
0.069519
0.069943
0.070508
0.069299
0.072747
0.074135
0.076025
0.080876
0.077822
0.081837
0.083903
0.087205
0.082607
0.084594
0.085394
0.085386
0.089546
0.084877
0.091410
0.080686
0.082559
0.081332
0.018693
0.005878
0.078915
0.078919
0.019006
0.079638
0.068635
0.080388
0.075319
0.079706
0.003918
0.070045
0.029668
0.075776
0.074886
0.003792
0.004031
0.001931
0.067765
0.081932
0.002266
0.082586
0.067213
0.079306
0.044363
0.070890
0.067060
0.080802
0.073979
0.002832
0.063115
0.080034
0.079738
0.078146
0.002348
0.048560
0.079318
0.004137
0.077211
0.031811
0.026643
0.004090
0.078616
0.034568
0.079500
0.003310
0.003647
0.004097
0.080939
0.002317
0.010882
0.071288
0.071888
0.078042
0.076250
0.077167
0.003762
0.057750
0.036242
0.020391
0.080692
0.016159
0.012540
0.003231
0.007877
0.004812
0.067124
0.067115
0.067275
0.067904
0.068224
0.002280
0.067408
0.069045
0.075422
0.069211
0.080514
0.072361
0.082440
0.087559
0.076111
0.074776
0.073511
0.066867
0.085481
0.081171
0.079678
0.080229
0.079301
0.076893
0.080528
0.015303
0.005652
0.083894
0.078729
0.078494
0.072983
0.087174
0.066132
0.066289
0.070469
0.006379
0.071347
0.036088
0.004789
0.034023
0.074023
0.003623
0.006232
0.069145
0.009853
0.058443
0.003436
0.076065
0.019323
0.065635
0.067726
0.079775
0.005933
0.075697
0.006291
0.075327
0.045105
0.079608
0.079359
0.004243
0.079365
0.073612
0.069508
0.028215
0.077586
0.004391
0.069298
0.066928
0.076379
0.021756
0.075272
0.043295
0.055336
0.077318
0.003783
0.078322
0.014976
0.011258
0.006720
0.007202
0.078466
0.070403
0.006148
0.006231
0.068115
0.006388
0.067272
0.067299
0.070790
0.068453
0.075227
0.071555
0.066968
0.014274
0.081348
0.067791
0.081614
0.077506
0.065550
0.002455
0.070606
0.071164
0.080636
0.048642
0.088242
0.070625
0.085796
0.079293
0.072126
0.081456
0.077450
0.078026
0.078201
0.016691
0.013086
0.074531
0.077398
0.077503
0.080130
0.077756
0.079456
0.078057
0.087858
0.008681
0.008564
0.065683
0.006267
0.073834
0.069067
0.074981
0.021312
0.032106
0.075129
0.072109
0.003431
0.073116
0.076333
0.065737
0.076372
0.076735
0.073058
0.068193
0.007961
0.017940
0.006223
0.077036
0.076248
0.054258
0.009794
0.004812
0.006727
0.016409
0.065707
0.065658
0.003639
0.008137
0.032573
0.068096
0.077434
0.067170
0.055804
0.066741
0.073267
0.077941
0.071531
0.079074
0.074607
0.012269
0.006267
0.068799
0.070055
0.040521
0.067473
0.066481
0.006237
0.048804
0.076151
0.068390
0.075779
0.014014
0.062505
0.006645
0.004378
0.038853
0.070764
0.023778
0.010424
0.069963
0.072607
0.071024
0.025037
0.065384
0.005355
0.066444
0.065340
0.072896
0.003716
0.078345
0.071952
0.091211
0.067631
0.079412
0.076432
0.069104
0.069744
0.076919
0.078034
0.071563
0.073084
0.073985
0.003300
0.076755
0.074575
0.074702
0.076892
0.066912
0.077964
0.076644
0.065150
0.065209
0.069382
0.039800
0.070808
0.004908
0.071539
0.014090
0.051879
0.009323
0.064526
0.004537
0.063815
0.074154
0.006089
0.066741
0.073045
0.076206
0.067911
0.065845
0.003325
0.024133
0.022419
0.006563
0.007980
0.066584
0.075463
0.004561
0.070775
0.070555
0.075899
0.075201
0.072619
0.076274
0.073942
0.036985
0.009001
0.027492
0.064819
0.008896
0.009317
0.074237
0.008651
0.017013
0.003947
0.075297
0.061333
0.072064
0.065409
0.061589
0.013199
0.028896
0.008846
0.008863
0.070567
0.031776
0.068390
0.075610
0.047405
0.062251
0.077429
0.064790
0.065428
0.072318
0.066939
0.074966
0.064276
0.069431
0.076318
0.077161
0.018886
0.008828
0.072340
0.082238
0.066720
0.077849
0.065868
0.065634
0.071065
0.006503
0.006428
0.076414
0.070952
0.077301
0.070419
0.066025
0.076953
0.012343
0.076162
0.068087
0.075519
0.067182
0.050084
0.073319
0.066005
0.076222
0.076040
0.068061
0.065727
0.011329
0.060808
0.007541
0.069059
0.023633
0.012104
0.051138
0.035871
0.011916
0.004362
0.070667
0.063872
0.010203
0.044536
0.064786
0.064550
0.005223
0.059120
0.067981
0.011356
0.064868
0.069093
0.005514
0.074343
0.071741
0.064522
0.065580
0.067120
0.069838
0.064523
0.072862
0.072789
0.066939
0.069927
0.042589
0.065401
0.027525
0.075007
0.025755
0.057227
0.008991
0.078707
0.062680
0.008940
0.002338
0.006318
0.006727
0.072367
0.007842
0.074672
0.007474
0.079587
0.012366
0.015868
0.035368
0.018203
0.005024
0.021106
0.010965
0.073769
0.075651
0.075358
0.075113
0.067400
0.068838
0.070500
0.064114
0.059677
0.009100
0.067641
0.063948
0.004506
0.075352
0.069989
0.049257
0.075068
0.074616
0.066092
0.066059
0.067484
0.074661
0.065668
0.007068
0.072711
0.069527
0.076031
0.010877
0.080336
0.075055
0.068534
0.004951
0.073240
0.066400
0.075509
0.077086
0.013418
0.006216
0.016049
0.005611
0.007660
0.035760
0.004346
0.005010
0.063116
0.024585
0.070510
0.073098
0.009091
0.071808
0.055631
0.049131
0.074067
0.011577
0.006027
0.061963
0.007943
0.015937
0.010316
0.011514
0.067354
0.072059
0.074037
0.063335
0.072099
0.011945
0.069843
0.070853
0.074320
0.073835
0.069601
0.027466
0.068097
0.003347
0.056525
0.064955
0.060130
0.057894
0.060903
0.031185
0.068489
0.064918
0.065589
0.064245
0.011514
0.072047
0.005311
0.011964
0.005734
0.076472
0.020636
0.040056
0.054159
0.064725
0.013586
0.011124
0.004798
0.046762
0.069013
0.010415
0.067949
0.070308
0.072984
0.073593
0.063334
0.066997
0.065213
0.064286
0.064070
0.066416
0.066347
0.011228
0.064439
0.067787
0.054021
0.070145
0.074287
0.074783
0.064321
0.074895
0.075058
0.001013
0.072949
0.069707
0.074167
0.008164
0.074678
0.041093
0.065470
0.006700
0.076069
0.063999
0.014237
0.014320
0.056049
0.066722
0.064832
0.020910
0.040013
0.006660
0.062553
0.036344
0.054695
0.004928
0.068853
0.005161
0.004235
0.069428
0.070946
0.063495
0.003865
0.012648
0.073374
0.073387
0.014765
0.063808
0.062651
0.054015
0.007811
0.066110
0.063552
0.063578
0.063477
0.063150
0.032461
0.002446
0.066566
0.004293
0.052608
0.008831
0.073924
0.018022
0.013758
0.072909
0.073870
0.014457
0.071467
0.020406
0.073959
0.065917
0.005561
0.008888
0.073095
0.006320
0.068130
0.007124
0.009509
0.011500
0.070533
0.044231
0.014955
0.050692
0.069633
0.014774
0.072825
0.070560
0.035067
0.067663
0.062941
0.065129
0.064380
0.067853
0.064333
0.062684
0.068585
0.065759
0.045294
0.069985
0.065890
0.064727
0.074723
0.009575
0.063283
0.073683
0.073557
0.029646
0.006277
0.059266
0.051767
0.057486
0.066032
0.015084
0.053568
0.062745
0.018613
0.039152
0.007244
0.008866
0.049243
0.005969
0.049400
0.003861
0.057754
0.061817
0.068853
0.069043
0.010771
0.071160
0.028616
0.072524
0.063132
0.064489
0.014385
0.068214
0.009593
0.072646
0.032925
0.008131
0.062145
0.067446
0.011930
0.005676
0.065049
0.023048
0.066065
0.064608
0.064143
0.063415
0.063843
0.058492
0.014020
0.010635
0.017350
0.072509
0.006803
0.006148
0.013537
0.067381
0.014366
0.018452
0.063443
0.055147
0.003312
0.047728
0.068755
0.066137
0.015018
0.039869
0.072711
0.071547
0.003076
0.068213
0.065939
0.067583
0.062098
0.008740
0.073060
0.062925
0.066318
0.072111
0.063486
0.072414
0.064921
0.063694
0.063378
0.068678
0.002293
0.067601
0.062676
0.033691
0.072923
0.015873
0.072474
0.048353
0.063918
0.062179
0.001546
0.064280
0.065072
0.073271
0.069164
0.043868
0.006638
0.005084
0.073083
0.007711
0.063688
0.061189
0.016563
0.033236
0.054579
0.037710
0.010470
0.062720
0.047830
0.063944
0.007865
0.007566
0.004764
0.071185
0.006683
0.045275
0.066967
0.005793
0.005041
0.069127
0.060458
0.067627
0.017405
0.062571
0.058692
0.003097
0.017764
0.061099
0.011751
0.011882
0.070835
0.014437
0.062133
0.062698
0.065596
0.062495
0.067393
0.032119
0.023940
0.015889
0.066526
0.001962
0.053298
0.010233
0.020770
0.052194
0.066282
0.063151
0.063390
0.043948
0.011087
0.016906
0.069270
0.009499
0.015734
0.004276
0.018319
0.036226
0.007480
0.018328
0.062216
0.071487
0.071647
0.067539
0.066177
0.002780
0.061766
0.072218
0.072487
0.072229
0.071340
0.062953
0.006593
0.063304
0.014160
0.063994
0.062195
0.029555
0.064257
0.007639
0.061356
0.064365
0.065689
0.072439
0.011389
0.061068
0.061481
0.065118
0.006586
0.025724
0.002460
0.006543
0.072086
0.000613
0.007532
0.067719
0.068842
0.071730
0.070284
0.064471
0.042601
0.004047
0.050105
0.063327
0.060171
0.071829
0.072589
0.001651
0.062977
0.019514
0.017634
0.051313
0.033189
0.036289
0.059086
0.018599
0.011151
0.008678
0.010510
0.062441
0.045782
0.020539
0.046291
0.003912
0.065490
0.056899
0.060903
0.004897
0.023006
0.061958
0.014003
0.014138
0.009003
0.001836
0.002369
0.011688
0.065572
0.017415
0.017740
0.008102
0.049915
0.047606
0.013000
0.057031
0.003716
0.067154
0.039538
0.070176
0.067925
0.018059
0.062425
0.030330
0.070335
0.066243
0.063122
0.062145
0.057854
0.013015
0.009587
0.027832
0.018594
0.005606
0.043317
0.058455
0.071368
0.064811
0.062072
0.071922
0.063636
0.062987
0.061656
0.066905
0.059905
0.013060
0.060920
0.064180
0.002509
0.070731
0.062785
0.062104
0.062020
0.071760
0.070931
0.062904
0.062727
0.060573
0.052134
0.006997
0.014436
0.016328
0.071994
0.069627
0.070868
0.068084
0.006459
0.029726
0.062571
0.041301
0.068956
0.025021
0.071463
0.006297
0.071864
0.005754
0.055006
0.067669
0.070668
0.007373
0.022318
0.008758
0.002984
0.059777
0.063423
0.020119
0.014734
0.048209
0.067706
0.056323
0.040142
0.010388
0.008270
0.008203
0.059974
0.007436
0.053645
0.043237
0.030768
0.006324
0.061614
0.051822
0.021920
0.002373
0.061202
0.020732
0.012805
0.066371
0.021013
0.002654
0.025268
0.016674
0.019069
0.021575
0.039308
0.069437
0.009044
0.067497
0.046439
0.061121
0.013263
0.055551
0.012441
0.036156
0.065226
0.010819
0.020041
0.013156
0.004662
0.016955
0.011665
0.021048
0.061094
0.065438
0.060922
0.061492
0.032377
0.060017
0.004327
0.062568
0.065513
0.069956
0.066582
0.008500
0.069770
0.068887
0.015590
0.027614
0.060531
0.060901
0.061343
0.061215
0.012416
0.061556
0.059650
0.062208
0.070550
0.071395
0.018497
0.062135
0.059815
0.060300
0.044437
0.070903
0.071303
0.007179
0.051479
0.005780
0.045203
0.060060
0.041589
0.061282
0.026968
0.071048
0.062681
0.001812
0.069818
0.065727
0.068422
0.068983
0.070063
0.008901
0.070411
0.061734
0.005483
0.070002
0.071426
0.005414
0.070548
0.066137
0.022408
0.066485
0.033111
0.045182
0.019932
0.053685
0.059953
0.009818
0.011749
0.012821
0.043655
0.005557
0.028085
0.065888
0.016350
0.041830
0.003953
0.003787
0.064054
0.059601
0.007722
0.005442
0.057622
0.002434
0.064635
0.056947
0.005925
0.009955
0.060024
0.060894
0.002603
0.051900
0.066410
0.028717
0.008097
0.008334
0.036080
0.020706
0.012940
0.057698
0.068576
0.010358
0.059472
0.048930
0.022975
0.015029
0.069679
0.059334
0.065309
0.021280
0.011537
0.020297
0.068830
0.040127
0.013632
0.068226
0.066422
0.004912
0.064638
0.060627
0.014085
0.016827
0.015635
0.001833
0.024176
0.036232
0.025154
0.020585
0.067246
0.064901
0.007728
0.069566
0.070387
0.059527
0.060634
0.003173
0.060332
0.065182
0.070875
0.067751
0.070966
0.060408
0.069887
0.060821
0.021621
0.025807
0.004779
0.070174
0.011276
0.069755
0.061565
0.016934
0.006293
0.067348
0.071335
0.059246
0.069311
0.038795
0.059900
0.006981
0.069438
0.069992
0.014495
0.070706
0.061090
0.019690
0.062635
0.059544
0.065232
0.022115
0.023678
0.016778
0.033031
0.069070
0.049204
0.065961
0.065342
0.057785
0.012871
0.059392
0.010438
0.063807
0.010040
0.008944
0.057397
0.059578
0.063931
0.025510
0.004496
0.006786
0.058320
0.038958
0.002861
0.003099
0.058270
0.005313
0.023039
0.005874
0.060498
0.025570
0.031838
0.060136
0.001332
0.006132
0.022817
0.066644
0.059740
0.067573
0.068615
0.062620
0.021838
0.011799
0.014163
0.023348
0.024042
0.030250
0.009230
0.015602
0.017287
0.039812
0.068880
0.068535
0.018369
0.059930
0.008006
0.070065
0.059068
0.057386
0.009882
0.057061
0.066510
0.064137
0.068927
0.070258
0.059204
0.024730
0.068603
0.059487
0.066555
0.015208
0.006246
0.058874
0.067435
0.007672
0.007436
0.041703
0.069213
0.070303
0.054845
0.037071
0.008313
0.002103
0.015656
0.058898
0.018940
0.068299
0.003912
0.003223
0.063509
0.007543
0.015033
0.069197
0.069019
0.069501
0.065438
0.054773
0.001890
0.069862
0.025659
0.046265
0.054593
0.002997
0.011205
0.023470
0.021716
0.057995
0.025215
0.063813
0.018611
0.026797
0.043726
0.023503
0.039200
0.014797
0.052278
0.057662
0.068573
0.017063
0.012438
0.042783
0.011977
0.066190
0.067751
0.021395
0.063445
0.005493
0.008850
0.010697
0.008174
0.057991
0.002401
0.007875
0.027484
0.062107
0.004435
0.006342
0.061556
0.003810
0.009491
0.056714
0.002604
0.001536
0.066924
0.057925
0.011015
0.024311
0.055003
0.046658
0.068217
0.055805
0.049343
0.014088
0.064649
0.018552
0.027801
0.067684
0.066068
0.063823
0.004947
0.058042
0.001045
0.022662
0.016295
0.009079
0.065319
0.063122
0.023762
0.035904
0.065349
0.010618
0.058345
0.028146
0.009157
0.021816
0.058529
0.058884
0.069823
0.052196
0.029664
0.068106
0.057342
0.056826
0.062080
0.068804
0.059163
0.069330
0.063832
0.003358
0.065874
0.006797
0.068697
0.008256
0.059702
0.044206
0.054361
0.071634
0.058854
0.068741
0.066471
0.015403
0.003909
0.036832
0.023728
0.059720
0.008256
0.031005
0.017263
0.028263
0.006756
0.061358
0.069752
0.068970
0.065506
0.066427
0.007254
0.009678
0.067428
0.007463
0.058181
0.001551
0.055151
0.034638
0.018043
0.061631
0.008160
0.072461
0.057019
0.024433
0.036950
0.044361
0.017186
0.055860
0.012795
0.064077
0.011087
0.065258
0.009673
0.051654
0.054885
0.020349
0.008894
0.066495
0.021742
0.067363
0.063301
0.028501
0.003396
0.046062
0.064190
0.008606
0.018193
0.060729
0.059913
0.025623
0.007145
0.056906
0.042763
0.001014
0.068685
0.012135
0.008321
0.004353
0.068050
0.002764
0.006203
0.016662
0.014940
0.001304
0.005439
0.057760
0.057627
0.059783
0.007594
0.026311
0.030843
0.026640
0.026654
0.066193
0.055122
0.039055
0.067999
0.062367
0.024727
0.003140
0.046928
0.062681
0.027205
0.062775
0.008577
0.031880
0.005987
0.010078
0.034562
0.009191
0.020205
0.001686
0.002072
0.031516
0.064662