# vtk DataFile Version 2.0
Test
ASCII
DATASET POLYDATA
POINTS 7341 float
0.000000 0.000000 0.000000
1.000000 0.000000 0.000000
1.000000 1.000000 0.000000
0.000000 1.000000 0.000000
0.000000 0.500000 0.000000
0.500000 0.500000 0.000000
1.000000 0.500000 0.000000
0.499000 0.499000 0.000000
0.900000 0.010000 0.000000
0.029412 0.000000 0.000000
0.058824 0.000000 0.000000
0.088235 0.000000 0.000000
0.117647 0.000000 0.000000
0.147059 0.000000 0.000000
0.176471 0.000000 0.000000
0.205882 0.000000 0.000000
0.235294 0.000000 0.000000
0.264706 0.000000 0.000000
0.294118 0.000000 0.000000
0.323529 0.000000 0.000000
0.352941 0.000000 0.000000
0.382353 0.000000 0.000000
0.411765 0.000000 0.000000
0.441176 0.000000 0.000000
0.470588 0.000000 0.000000
0.500000 0.000000 0.000000
0.529412 0.000000 0.000000
0.558824 0.000000 0.000000
0.588235 0.000000 0.000000
0.617647 0.000000 0.000000
0.647059 0.000000 0.000000
0.676471 0.000000 0.000000
0.705882 0.000000 0.000000
0.735294 0.000000 0.000000
0.764706 0.000000 0.000000
0.794118 0.000000 0.000000
0.823529 0.000000 0.000000
0.852941 0.000000 0.000000
0.882353 0.000000 0.000000
0.911765 0.000000 0.000000
0.941176 0.000000 0.000000
0.970588 0.000000 0.000000
1.000000 0.029412 0.000000
1.000000 0.058824 0.000000
1.000000 0.088235 0.000000
1.000000 0.117647 0.000000
1.000000 0.147059 0.000000
1.000000 0.176471 0.000000
1.000000 0.205882 0.000000
1.000000 0.235294 0.000000
1.000000 0.264706 0.000000
1.000000 0.294118 0.000000
1.000000 0.323529 0.000000
1.000000 0.352941 0.000000
1.000000 0.382353 0.000000
1.000000 0.411765 0.000000
1.000000 0.441176 0.000000
1.000000 0.470588 0.000000
1.000000 0.529412 0.000000
1.000000 0.558824 0.000000
1.000000 0.588235 0.000000
1.000000 0.617647 0.000000
1.000000 0.647059 0.000000
1.000000 0.676471 0.000000
1.000000 0.705882 0.000000
1.000000 0.735294 0.000000
1.000000 0.764706 0.000000
1.000000 0.794118 0.000000
1.000000 0.823529 0.000000
1.000000 0.852941 0.000000
1.000000 0.882353 0.000000
1.000000 0.911765 0.000000
1.000000 0.941176 0.000000
1.000000 0.970588 0.000000
0.970588 1.000000 0.000000
0.941176 1.000000 0.000000
0.911765 1.000000 0.000000
0.882353 1.000000 0.000000
0.852941 1.000000 0.000000
0.823529 1.000000 0.000000
0.794118 1.000000 0.000000
0.764706 1.000000 0.000000
0.735294 1.000000 0.000000
0.705882 1.000000 0.000000
0.676471 1.000000 0.000000
0.647059 1.000000 0.000000
0.617647 1.000000 0.000000
0.588235 1.000000 0.000000
0.558824 1.000000 0.000000
0.529412 1.000000 0.000000
0.500000 1.000000 0.000000
0.470588 1.000000 0.000000
0.441176 1.000000 0.000000
0.411765 1.000000 0.000000
0.382353 1.000000 0.000000
0.352941 1.000000 0.000000
0.323529 1.000000 0.000000
0.294118 1.000000 0.000000
0.264706 1.000000 0.000000
0.235294 1.000000 0.000000
0.205882 1.000000 0.000000
0.176471 1.000000 0.000000
0.147059 1.000000 0.000000
0.117647 1.000000 0.000000
0.088235 1.000000 0.000000
0.058824 1.000000 0.000000
0.029412 1.000000 0.000000
0.000000 0.970588 0.000000
0.000000 0.941176 0.000000
0.000000 0.911765 0.000000
0.000000 0.882353 0.000000
0.000000 0.852941 0.000000
0.000000 0.823529 0.000000
0.000000 0.794118 0.000000
0.000000 0.764706 0.000000
0.000000 0.735294 0.000000
0.000000 0.705882 0.000000
0.000000 0.676471 0.000000
0.000000 0.647059 0.000000
0.000000 0.617647 0.000000
0.000000 0.588235 0.000000
0.000000 0.558824 0.000000
0.000000 0.529412 0.000000
0.007246 0.500000 0.000000
0.014493 0.500000 0.000000
0.021739 0.500000 0.000000
0.028986 0.500000 0.000000
0.036232 0.500000 0.000000
0.043478 0.500000 0.000000
0.050725 0.500000 0.000000
0.057971 0.500000 0.000000
0.065217 0.500000 0.000000
0.072464 0.500000 0.000000
0.079710 0.500000 0.000000
0.086957 0.500000 0.000000
0.094203 0.500000 0.000000
0.101449 0.500000 0.000000
0.108696 0.500000 0.000000
0.115942 0.500000 0.000000
0.123188 0.500000 0.000000
0.130435 0.500000 0.000000
0.137681 0.500000 0.000000
0.144928 0.500000 0.000000
0.152174 0.500000 0.000000
0.159420 0.500000 0.000000
0.166667 0.500000 0.000000
0.173913 0.500000 0.000000
0.181159 0.500000 0.000000
0.188406 0.500000 0.000000
0.195652 0.500000 0.000000
0.202899 0.500000 0.000000
0.210145 0.500000 0.000000
0.217391 0.500000 0.000000
0.224638 0.500000 0.000000
0.231884 0.500000 0.000000
0.239130 0.500000 0.000000
0.246377 0.500000 0.000000
0.253623 0.500000 0.000000
0.260870 0.500000 0.000000
0.268116 0.500000 0.000000
0.275362 0.500000 0.000000
0.282609 0.500000 0.000000
0.289855 0.500000 0.000000
0.297101 0.500000 0.000000
0.304348 0.500000 0.000000
0.311594 0.500000 0.000000
0.318841 0.500000 0.000000
0.326087 0.500000 0.000000
0.333333 0.500000 0.000000
0.340580 0.500000 0.000000
0.347826 0.500000 0.000000
0.355072 0.500000 0.000000
0.362319 0.500000 0.000000
0.369565 0.500000 0.000000
0.376812 0.500000 0.000000
0.384058 0.500000 0.000000
0.391304 0.500000 0.000000
0.398551 0.500000 0.000000
0.405797 0.500000 0.000000
0.413043 0.500000 0.000000
0.420290 0.500000 0.000000
0.427536 0.500000 0.000000
0.434783 0.500000 0.000000
0.442029 0.500000 0.000000
0.449275 0.500000 0.000000
0.456522 0.500000 0.000000
0.463768 0.500000 0.000000
0.471014 0.500000 0.000000
0.478261 0.500000 0.000000
0.485507 0.500000 0.000000
0.492754 0.500000 0.000000
0.510004 0.500000 0.000000
0.520408 0.500000 0.000000
0.531229 0.500000 0.000000
0.542483 0.500000 0.000000
0.554187 0.500000 0.000000
0.566359 0.500000 0.000000
0.579019 0.500000 0.000000
0.592185 0.500000 0.000000
0.605877 0.500000 0.000000
0.620118 0.500000 0.000000
0.634929 0.500000 0.000000
0.650332 0.500000 0.000000
0.666352 0.500000 0.000000
0.683013 0.500000 0.000000
0.700340 0.500000 0.000000
0.718361 0.500000 0.000000
0.737103 0.500000 0.000000
0.756595 0.500000 0.000000
0.776867 0.500000 0.000000
0.797950 0.500000 0.000000
0.819877 0.500000 0.000000
0.842681 0.500000 0.000000
0.866398 0.500000 0.000000
0.891064 0.500000 0.000000
0.916716 0.500000 0.000000
0.943396 0.500000 0.000000
0.971143 0.500000 0.000000
0.000000 0.470588 0.000000
0.000000 0.441176 0.000000
0.000000 0.411765 0.000000
0.000000 0.382353 0.000000
0.000000 0.352941 0.000000
0.000000 0.323529 0.000000
0.000000 0.294118 0.000000
0.000000 0.264706 0.000000
0.000000 0.235294 0.000000
0.000000 0.205882 0.000000
0.000000 0.176471 0.000000
0.000000 0.147059 0.000000
0.000000 0.117647 0.000000
0.000000 0.088235 0.000000
0.000000 0.058824 0.000000
0.000000 0.029412 0.000000
0.500341 0.497365 0.000000
0.501682 0.495729 0.000000
0.503023 0.494094 0.000000
0.504365 0.492458 0.000000
0.505706 0.490823 0.000000
0.507047 0.489187 0.000000
0.508388 0.487552 0.000000
0.509729 0.485916 0.000000
0.511070 0.484281 0.000000
0.512411 0.482645 0.000000
0.513753 0.481010 0.000000
0.515094 0.479375 0.000000
0.516435 0.477739 0.000000
0.517776 0.476104 0.000000
0.519117 0.474468 0.000000
0.520458 0.472833 0.000000
0.521799 0.471197 0.000000
0.523140 0.469562 0.000000
0.524482 0.467926 0.000000
0.525823 0.466291 0.000000
0.527164 0.464656 0.000000
0.528505 0.463020 0.000000
0.529846 0.461385 0.000000
0.531187 0.459749 0.000000
0.532528 0.458114 0.000000
0.533870 0.456478 0.000000
0.535211 0.454843 0.000000
0.536552 0.453207 0.000000
0.537893 0.451572 0.000000
0.539234 0.449936 0.000000
0.540575 0.448301 0.000000
0.541916 0.446666 0.000000
0.543258 0.445030 0.000000
0.544599 0.443395 0.000000
0.545940 0.441759 0.000000
0.547281 0.440124 0.000000
0.548622 0.438488 0.000000
0.549963 0.436853 0.000000
0.551304 0.435217 0.000000
0.552645 0.433582 0.000000
0.553987 0.431946 0.000000
0.555328 0.430311 0.000000
0.556669 0.428676 0.000000
0.558010 0.427040 0.000000
0.559351 0.425405 0.000000
0.560692 0.423769 0.000000
0.562033 0.422134 0.000000
0.563375 0.420498 0.000000
0.564716 0.418863 0.000000
0.566057 0.417227 0.000000
0.567398 0.415592 0.000000
0.568739 0.413957 0.000000
0.570080 0.412321 0.000000
0.571421 0.410686 0.000000
0.572763 0.409050 0.000000
0.574104 0.407415 0.000000
0.575445 0.405779 0.000000
0.576786 0.404144 0.000000
0.578127 0.402508 0.000000
0.579468 0.400873 0.000000
0.580809 0.399237 0.000000
0.582151 0.397602 0.000000
0.583492 0.395967 0.000000
0.584833 0.394331 0.000000
0.586174 0.392696 0.000000
0.587515 0.391060 0.000000
0.588856 0.389425 0.000000
0.590197 0.387789 0.000000
0.591538 0.386154 0.000000
0.592880 0.384518 0.000000
0.594221 0.382883 0.000000
0.595562 0.381247 0.000000
0.596903 0.379612 0.000000
0.598244 0.377977 0.000000
0.599585 0.376341 0.000000
0.600926 0.374706 0.000000
0.602268 0.373070 0.000000
0.603609 0.371435 0.000000
0.604950 0.369799 0.000000
0.606291 0.368164 0.000000
0.607632 0.366528 0.000000
0.608973 0.364893 0.000000
0.610314 0.363258 0.000000
0.611656 0.361622 0.000000
0.612997 0.359987 0.000000
0.614338 0.358351 0.000000
0.615679 0.356716 0.000000
0.617020 0.355080 0.000000
0.618361 0.353445 0.000000
0.619702 0.351809 0.000000
0.621043 0.350174 0.000000
0.622385 0.348538 0.000000
0.623726 0.346903 0.000000
0.625067 0.345268 0.000000
0.626408 0.343632 0.000000
0.627749 0.341997 0.000000
0.629090 0.340361 0.000000
0.630431 0.338726 0.000000
0.631773 0.337090 0.000000
0.633114 0.335455 0.000000
0.634455 0.333819 0.000000
0.635796 0.332184 0.000000
0.637137 0.330548 0.000000
0.638478 0.328913 0.000000
0.639819 0.327278 0.000000
0.641161 0.325642 0.000000
0.642502 0.324007 0.000000
0.643843 0.322371 0.000000
0.645184 0.320736 0.000000
0.646525 0.319100 0.000000
0.647866 0.317465 0.000000
0.649207 0.315829 0.000000
0.650548 0.314194 0.000000
0.651890 0.312559 0.000000
0.653231 0.310923 0.000000
0.654572 0.309288 0.000000
0.655913 0.307652 0.000000
0.657254 0.306017 0.000000
0.658595 0.304381 0.000000
0.659936 0.302746 0.000000
0.661278 0.301110 0.000000
0.662619 0.299475 0.000000
0.663960 0.297839 0.000000
0.665301 0.296204 0.000000
0.666642 0.294569 0.000000
0.667983 0.292933 0.000000
0.669324 0.291298 0.000000
0.670666 0.289662 0.000000
0.672007 0.288027 0.000000
0.673348 0.286391 0.000000
0.674689 0.284756 0.000000
0.676030 0.283120 0.000000
0.677371 0.281485 0.000000
[...]
POINT_DATA 7341
SCALARS UX float 1
LOOKUP_TABLE default
0.000000
0.000000
0.038000
0.038000
0.017952
0.014649
0.015823
0.014347
0.000194
0.000000
0.000000
0.000000
0.000000
0.000000
0.000000
0.000000
0.000000
0.000000
0.000000
0.000000
0.000000
0.000000
0.000000
0.000000
0.000000
0.000000
0.000000
0.000000
0.000000
0.000000
0.000000
0.000000
0.000000
0.000000
0.000000
0.000000
0.000000
0.000000
0.000000
0.000000
0.000000
-0.000000
0.001340
0.002084
0.002753
0.003421
0.004127
0.004863
0.005648
0.006447
0.007315
0.008223
0.009180
0.010185
0.011228
0.012321
0.013458
0.014622
0.017066
0.018330
0.019601
0.020888
0.022184
0.023481
0.024787
0.026099
0.027412
0.028727
0.030048
0.031370
0.032694
0.034018
0.035343
0.036672
0.038000
0.038000
0.038000
0.038000
0.038000
0.038000
0.038000
0.038000
0.038000
0.038000
0.038000
0.038000
0.038000
0.038000
0.038000
0.038000
0.038000
0.038000
0.038000
0.038000
0.038000
0.038000
0.038000
0.038000
0.038000
0.038000
0.038000
0.038000
0.038000
0.038000
0.038000
0.038000
0.038000
0.036736
0.035475
0.034214
0.032961
0.031710
0.030471
0.029234
0.028009
0.026793
0.025582
0.024386
0.023198
0.022018
0.020852
0.019686
0.018574
0.017607
0.017370
0.017012
0.016732
0.016578
0.016507
0.016437
0.016388
0.016016
0.015750
0.015810
0.015721
0.015585
0.015655
0.015584
0.015868
0.015201
0.015367
0.015437
0.015537
0.015490
0.015521
0.015152
0.015207
0.015287
0.015546
0.015001
0.015108
0.015121
0.015112
0.015229
0.015145
0.015118
0.015227
0.014869
0.015061
0.015147
0.014727
0.015084
0.014714
0.014897
0.014620
0.014773
0.014904
0.014631
0.014702
0.014740
0.014765
0.014818
0.014447
0.014850
0.014625
0.014794
0.014534
0.014768
0.014545
0.014761
0.014662
0.014601
0.014488
0.014757
0.014702
0.014699
0.014567
0.014770
0.014534
0.014709
0.014674
0.014580
0.014566
0.014568
0.014577
0.014586
0.014593
0.014600
0.014609
0.014618
0.014632
0.014646
0.014665
0.014688
0.014712
0.014741
0.014775
0.014815
0.014860
0.014912
0.014971
0.015038
0.015114
0.015202
0.015300
0.015411
0.015539
0.015675
0.014267
0.012999
0.011976
0.011063
0.010240
0.009440
0.008677
0.007925
0.007203
0.006499
0.005807
0.005119
0.004444
0.003763
0.002997
0.002158
0.014104
0.013878
0.013761
0.013659
0.013590
0.013509
0.013437
0.013368
0.013299
0.013232
0.013166
0.013098
0.013032
0.012966
0.012898
0.012833
0.012768
0.012705
0.012641
0.012578
0.012516
0.012453
0.012392
0.012330
0.012268
0.012207
0.012146
0.012085
0.012025
0.011965
0.011905
0.011845
0.011785
0.011726
0.011666
0.011607
0.011548
0.011489
0.011430
0.011371
0.011312
0.011254
0.011195
0.011137
0.011078
0.011020
0.010962
0.010903
0.010845
0.010787
0.010729
0.010671
0.010613
0.010555
0.010497
0.010440
0.010382
0.010325
0.010267
0.010210
0.010152
0.010095
0.010038
0.009981
0.009924
0.009866
0.009809
0.009752
0.009695
0.009638
0.009581
0.009524
0.009468
0.009411
0.009355
0.009298
0.009242
0.009186
0.009129
0.009073
0.009017
0.008961
0.008906
0.008850
0.008794
0.008739
0.008684
0.008628
0.008573
0.008518
0.008463
0.008408
0.008354
0.008299
0.008244
0.008190
0.008136
0.008081
0.008027
0.007973
0.007920
0.007866
0.007812
0.007759
0.007705
0.007652
0.007599
0.007546
0.007493
0.007441
0.007388
0.007335
0.007283
0.007231
0.007179
0.007127
0.007075
0.007023
0.006972
0.006920
0.006869
0.006818
0.006767
0.006716
0.006665
0.006614
0.006564
0.006514
0.006463
0.006413
0.006363
0.006314
0.006264
0.006215
0.006165
0.006116
0.006067
0.006018
0.005970
0.005921
0.005873
0.005824
0.005776
0.005728
0.005681
0.005633
0.005586
0.005538
0.005491
0.005444
0.005397
0.005351
0.005304
0.005258
0.005212
0.005166
0.005120
0.005074
0.005029
0.004983
0.004938
0.004893
0.004848
0.004803
0.004759
0.004715
0.004670
0.004626
0.004583
0.004539
0.004495
0.004452
0.004409
0.004366
0.004323
0.004281
0.004238
0.004196
0.004154
0.004112
0.004070
0.004028
0.003987
0.003946
0.003905
0.003864
0.003823
0.003783
0.003742
0.003702
0.003662
0.003622
0.003583
0.003543
0.003504
0.003465
0.003426
0.003387
0.003349
0.003310
0.003272
0.003234
0.003196
0.003159
0.003121
0.003084
0.003047
0.003010
0.002973
0.002936
0.002900
0.002863
0.002827
0.002791
0.002756
0.002720
0.002685
0.002649
0.002614
0.002579
0.002545
0.002510
0.002476
0.002442
0.002408
0.002374
0.002340
0.002306
0.002273
0.002240
0.002207
0.002174
0.002141
0.002108
0.002076
0.002043
0.002011
0.001979
0.001947
0.001916
0.001884
0.001853
0.001821
0.001790
0.001759
0.001728
0.001698
0.001667
0.001637
0.001606
0.001576
0.001546
0.001516
0.001487
0.001457
0.001427
0.001398
0.001368
0.001339
0.001310
0.001281
0.001252
0.001223
0.001195
0.001166
0.001137
0.001109
0.001081
0.001052
0.001024
0.000996
0.000967
0.000939
0.000911
0.000883
0.000855
0.000827
0.000799
0.000771
0.000743
0.000715
0.000687
0.000658
0.000630
0.000602
0.000573
0.000545
0.000516
0.000487
0.000458
0.000428
0.000399
0.000369
0.000339
0.000310
0.000280
0.000250
0.000222
0.013344
0.013100
0.012982
0.000473
0.000397
0.014119
0.000358
0.013982
0.013681
0.007950
0.013928
0.000340
0.008508
0.014108
0.004515
0.006284
0.013917
0.000348
0.000585
0.013007
0.002432
0.014501
0.013960
0.004153
0.013107
0.011662
0.015008
0.011019
0.014245
0.013294
0.000735
0.013264
0.013050
0.013920
0.013550
0.000313
0.013795
0.001057
0.013378
0.000422
0.013199
0.013011
0.012918
0.014401
0.000596
0.013703
0.000473
0.013465
0.014032
0.015683
0.000413
0.013830
0.003069
0.010901
0.000340
0.013888
0.013921
0.010057
0.013909
0.014031
0.005370
0.006204
0.000335
0.000342
0.012997
0.013185
0.007728
0.013226
0.014430
0.000370
0.014160
0.000379
0.008948
0.000422
0.012957
0.005563
0.000493
0.014490
0.003416
0.000902
0.002340
0.000971
0.001186
0.013195
0.013344
0.013446
0.013163
0.013074
0.013008
0.013524
0.014231
0.014035
0.013843
0.013822
0.013772
0.013640
0.015326
0.014852
0.014736
0.014677
0.013530
0.000408
0.013678
0.014056
0.012602
0.012758
0.000890
0.012814
0.000789
0.013144
0.008658
0.000694
0.008210
0.013519
0.005309
0.013095
0.000689
0.013255
0.002372
0.010115
0.013386
0.006035
0.001026
0.012935
0.013512
0.000717
0.013339
0.013311
0.012672
0.014295
0.003133
0.013245
0.013593
0.013952
0.000341
0.013414
0.013255
0.000325
0.013949
0.013427
0.003791
0.013948
0.000313
0.011444
0.013263
0.013946
0.001705
0.013946
0.009380
0.006947
0.013954
0.013981
0.000334
0.014027
0.000765
0.014082
0.013095
0.000377
0.009932
0.000379
0.014174
0.013023
0.012052
0.000436
0.007078
0.014341
0.013001
0.000535
0.004864
0.001626
0.000647
0.002108
0.012955
0.012987
0.013274
0.013118
0.012973
0.012949
0.013031
0.012840
0.013371
0.013449
0.013551
0.013939
0.013667
0.013999
0.013729
0.013998
0.014073
0.014339
0.014422
0.013903
0.014996
0.014356
0.015297
0.013481
0.013633
0.013502
0.004557
0.001156
0.013372
0.013239
0.004579
0.013313
0.012604
0.013432
0.013043
0.013715
0.000955
0.012662
0.006812
0.013247
0.013281
0.001183
0.001431
0.000658
0.012569
0.013982
0.000712
0.014036
0.012560
0.013355
0.008936
0.012996
0.012619
0.013825
0.012946
0.000711
0.011888
0.013369
0.013349
0.013521
0.000650
0.009875
0.013273
0.000793
0.013227
0.007004
0.006065
0.000804
0.013262
0.007536
0.013339
0.000694
0.000733
0.000913
0.013514
0.000665
0.002906
0.012719
0.012756
0.013237
0.013247
0.013263
0.001094
0.010772
0.007788
0.005343
0.013409
0.004600
0.003878
0.000718
0.002729
0.001845
0.012508
0.012579
0.012618
0.012776
0.012828
0.000701
0.012656
0.012296
0.013148
0.012912
0.013452
0.013105
0.014026
0.014752
0.013359
0.013254
0.013148
0.012522
0.014435
0.013855
0.013325
0.013398
0.013359
0.013397
0.013492
0.003867
0.001637
0.013763
0.013306
0.013266
0.012862
0.014023
0.012311
0.012465
0.012581
0.001323
0.012504
0.007697
0.001090
0.007422
0.013052
0.000996
0.001726
0.012372
0.002655
0.010848
0.001004
0.012970
0.005126
0.012336
0.012609
0.013673
0.001189
0.013192
0.001525
0.012987
0.009225
0.013313
0.013276
0.000823
0.013284
0.012888
0.012493
0.006551
0.013175
0.001056
0.012625
0.011998
0.013016
0.005096
0.013255
0.008755
0.010839
0.013167
0.001263
0.013209
0.004326
0.003552
0.002213
0.002454
0.013211
0.012656
0.001198
0.001215
0.012580
0.001452
0.012554
0.012630
0.012475
0.012831
0.013270
0.013039
0.012564
0.003619
0.013916
0.012754
0.013913
0.013230
0.012295
0.000649
0.012806
0.012824
0.013807
0.009533
0.014876
0.012522
0.014492
0.013632
0.012742
0.013558
0.013150
0.013260
0.013264
0.004125
0.003405
0.013085
0.013173
0.013226
0.013719
0.013225
0.013381
0.013237
0.014108
0.002089
0.001674
0.011785
0.001463
0.012609
0.012514
0.012751
0.004970
0.007093
0.012805
0.012758
0.001017
0.012679
0.013024
0.012372
0.013046
0.013101
0.012579
0.012414
0.001568
0.004818
0.001827
0.013327
0.012970
0.010277
0.003008
0.001044
0.001343
0.004040
0.012271
0.012355
0.001025
0.002249
0.007087
0.012623
0.013194
0.012591
0.010828
0.012211
0.012536
0.013430
0.012817
0.013361
0.012730
0.003201
0.001626
0.012437
0.012430
0.008464
0.012378
0.012326
0.001964
0.009531
0.013051
0.012342
0.013175
0.004057
0.011400
0.001441
0.001088
0.008118
0.012394
0.005851
0.003269
0.012529
0.012741
0.012628
0.005713
0.012301
0.001116
0.012481
0.012274
0.012627
0.000988
0.013499
0.012690
0.015312
0.012720
0.013414
0.013028
0.012672
0.012715
0.013125
0.013479
0.012617
0.012947
0.012947
0.000956
0.013111
0.013058
0.012727
0.013135
0.012479
0.013428
0.013094
0.012101
0.012205
0.012414
0.008282
0.012245
0.001316
0.012385
0.003558
0.009926
0.002522
0.012136
0.001295
0.011643
0.012936
0.001468
0.012356
0.012657
0.013056
0.012282
0.011835
0.001002
0.005492
0.005588
0.001411
0.001598
0.012191
0.012950
0.001274
0.012285
0.012570
0.012997
0.012896
0.012487
0.013217
0.012928
0.007809
0.002270
0.006394
0.011724
0.002397
0.002772
0.012655
0.001694
0.004568
0.001013
0.012973
0.011447
0.012490
0.011715
0.011259
0.003790
0.006419
0.002029
0.001839
0.012544
0.006884
0.012320
0.012991
0.009302
0.011689
0.013121
0.012080
0.012311
0.012885
0.012350
0.013056
0.012065
0.012510
0.013029
0.013164
0.004515
0.001744
0.012754
0.013637
0.012518
0.013411
0.012396
0.012353
0.012565
0.001273
0.001831
0.012972
0.012278
0.013187
0.012987
0.012419
0.013094
0.003196
0.013225
0.012455
0.012989
0.012224
0.010029
0.012790
0.012297
0.013045
0.013033
0.012399
0.012025
0.002246
0.011119
0.001748
0.012015
0.005355
0.003131
0.009791
0.007599
0.003077
0.001262
0.012420
0.011885
0.002001
0.009060
0.011675
0.012125
0.001362
0.010979
0.011946
0.002692
0.012151
0.012364
0.001375
0.012831
0.012620
0.012137
0.012126
0.012355
0.012110
0.012065
0.012768
0.012583
0.012125
0.012534
0.008618
0.012208
0.006106
0.013034
0.006068
0.010662
0.002573
0.013279
0.011555
0.001959
0.000742
0.001804
0.001503
0.012508
0.002174
0.012908
0.001528
0.013377
0.003506
0.003902
0.007514
0.004352
0.001366
0.005309
0.002137
0.012806
0.013008
0.012943
0.012908
0.011931
0.012360
0.012520
0.012062
0.011288
0.001837
0.012247
0.012019
0.001276
0.012954
0.012436
0.009838
0.012938
0.012893
0.012250
0.012160
0.012370
0.012996
0.012291
0.001982
0.012775
0.012329
0.013048
0.002875
0.013408
0.012927
0.012641
0.001271
0.012701
0.012081
0.012962
0.013177
0.002603
0.001561
0.003916
0.001541
0.002126
0.007533
0.001267
0.001477
0.011850
0.005822
0.012394
0.012708
0.001875
0.012607
0.010417
0.009763
0.012835
0.002419
0.001584
0.011237
0.001863
0.004271
0.002050
0.002622
0.012162
0.012636
0.012827
0.011908
0.012655
0.003301
0.012236
0.012410
0.012838
0.012770
0.012173
0.006037
0.011932
0.001015
0.010737
0.011886
0.011072
0.010864
0.011146
0.006905
0.012243
0.012019
0.012059
0.011957
0.002330
0.012656
0.001493
0.002956
0.001552
0.013067
0.004807
0.008273
0.010472
0.012144
0.003435
0.002181
0.001419
0.009171
0.012337
0.002762
0.012225
0.012463
0.012714
0.012789
0.011832
0.011849
0.011988
0.011912
0.012051
0.012120
0.012056
0.003031
0.012113
0.012216
0.010515
0.012428
0.012849
0.012916
0.012054
0.013019
0.012896
0.000357
0.012627
0.012093
0.012847
0.001828
0.012867
0.008361
0.011931
0.001695
0.013053
0.011734
0.002878
0.003222
0.010485
0.011715
0.011798
0.004821
0.008155
0.001779
0.011668
0.007594
0.010259
0.001456
0.012189
0.001465
0.001244
0.012291
0.012430
0.011885
0.001179
0.002467
0.012752
0.012734
0.003828
0.011384
0.011294
0.010283
0.001908
0.011964
0.011936
0.011836
0.011483
0.011841
0.006953
0.000778
0.012044
0.001255
0.010138
0.001890
0.012803
0.004288
0.002691
0.012712
0.012769
0.003382
0.012559
0.005119
0.012815
0.011973
0.001542
0.002415
0.012732
0.001669
0.012227
0.001730
0.001921
0.002508
0.012345
0.008956
0.003974
0.009694
0.012400
0.003587
0.012682
0.012476
0.007429
0.012176
0.011829
0.012014
0.011935
0.012116
0.011826
0.011778
0.012186
0.012031
0.008915
0.012383
0.011604
0.011952
0.012883
0.002143
0.011849
0.012795
0.012778
0.006615
0.001625
0.010900
0.010064
0.010645
0.011965
0.002912
0.010106
0.011212
0.004369
0.007979
0.001858
0.002404
0.009446
0.001658
0.009627
0.001182
0.010665
0.011610
0.012203
0.012318
0.002207
0.012480
0.006397
0.012641
0.011739
0.011785
0.003103
0.012066
0.002193
0.012678
0.006994
0.002005
0.011675
0.012025
0.002363
0.001642
0.011509
0.005205
0.011638
0.011819
0.011814
0.011751
0.011786
0.010748
0.002774
0.002267
0.003980
0.012634
0.001795
0.001693
0.002634
0.012012
0.002990
0.004664
0.011368
0.010401
0.001012
0.009432
0.012157
0.011903
0.003763
0.008201
0.012688
0.012566
0.000945
0.012226
0.011899
0.012156
0.011615
0.002066
0.012706
0.011818
0.011907
0.012610
0.011682
0.012657
0.011779
0.011902
0.011883
0.012183
0.000678
0.012060
0.011359
0.007166
0.012706
0.003863
0.012664
0.009589
0.011377
0.011647
0.000533
0.011724
0.011850
0.012749
0.012246
0.008663
0.001789
0.001453
0.012717
0.002134
0.011667
0.011443
0.003213
0.007013
0.010219
0.007715
0.002398
0.011213
0.009196
0.011563
0.002045
0.002095
0.001412
0.012501
0.001825
0.009005
0.011957
0.001623
0.001448
0.012313
0.010921
0.012065
0.003577
0.011676
0.010745
0.000976
0.003928
0.011126
0.002513
0.003071
0.012457
0.002803
0.011636
0.011556
0.011782
0.011585
0.011944
0.006868
0.005642
0.003059
0.011881
0.000635
0.010031
0.002711
0.004761
0.009950
0.011857
0.011521
0.011512
0.008865
0.002298
0.003319
0.012043
0.002256
0.003028
0.001259
0.004302
0.007537
0.001929
0.004538
0.011144
0.012541
0.012568
0.012134
0.011976
0.000877
0.011594
0.012614
0.012661
0.012636
0.012537
0.011628
0.001865
0.011668
0.003525
0.011559
0.011668
0.006391
0.011784
0.001926
0.011526
0.011653
0.011777
0.012650
0.002292
0.011459
0.011051
0.011702
0.001867
0.005740
0.000788
0.001778
0.012611
0.000230
0.001992
0.011860
0.012214
0.012580
0.012429
0.011763
0.008434
0.001230
0.009692
0.011740
0.010913
0.012592
0.012660
0.000571
0.011564
0.003751
0.003377
0.009755
0.006971
0.007448
0.010732
0.004338
0.002560
0.002189
0.002765
0.011318
0.008858
0.004569
0.009124
0.001195
0.011770
0.010446
0.011434
0.001415
0.005165
0.011540
0.002747
0.003505
0.002212
0.000630
0.000768
0.002557
0.011585
0.003712
0.003541
0.002080
0.009585
0.009281
0.002643
0.010492
0.001119
0.011994
0.008110
0.012407
0.012170
0.003447
0.011578
0.006493
0.012421
0.011823
0.011569
0.011463
0.010660
0.002699
0.002307
0.006218
0.004477
0.001622
0.008724
0.010649
0.012523
0.011801
0.011480
0.012596
0.011495
0.011424
0.011557
0.012063
0.010843
0.003310
0.011419
0.011564
0.000811
0.012463
0.011555
0.011604
0.011245
0.012582
0.012490
0.011437
0.011354
0.011380
0.009829
0.001891
0.003596
0.003148
0.012598
0.012305
0.012483
0.012007
0.001780
0.006467
0.011643
0.008199
0.012284
0.005570
0.012550
0.001788
0.012579
0.001618
0.010251
0.012076
0.012450
0.001968
0.005279
0.002374
0.000948
0.011209
0.011619
0.003820
0.002980
0.009302
0.012138
0.010355
0.007980
0.002487
0.002256
0.002151
0.010905
0.001998
0.009998
0.008643
0.006543
0.001753
0.011251
0.009805
0.005116
0.000776
0.011340
0.004231
0.003234
0.011906
0.004528
0.000854
0.005578
0.003989
0.003643
0.004864
0.008036
0.012294
0.002290
0.012059
0.009064
0.011108
0.002790
0.010252
0.002738
0.007493
0.011711
0.002536
0.003890
0.002627
0.001383
0.003262
0.003013
0.004778
0.011104
0.011876
0.011353
0.011414
0.006848
0.010863
0.001274
0.011200
0.011713
0.012378
0.012009
0.002134
0.012359
0.012268
0.003791
0.005998
0.011349
0.011385
0.011417
0.011316
0.003164
0.011175
0.010807
0.011465
0.012439
0.012536
0.003527
0.011407
0.011239
0.011001
0.008798
0.012486
0.012529
0.001946
0.009689
0.001629
0.008724
0.011280
0.008401
0.011122
0.005912
0.012491
0.011349
0.000601
0.012360
0.011814
0.012171
0.012014
0.012242
0.002248
0.012430
0.011199
0.001587
0.012377
0.012534
0.001542
0.012446
0.011959
0.004272
0.011990
0.006927
0.008840
0.004551
0.009984
0.010860
0.002437
0.002741
0.003225
0.008454
0.001603
0.006050
0.011742
0.003164
0.008381
0.001203
0.001140
0.011697
0.011183
0.002069
0.001552
0.010537
0.000797
0.011667
0.010440
0.001668
0.002428
0.011197
0.011205
0.000844
0.009791
0.011919
0.006290
0.002136
0.002171
0.007446
0.004114
0.002868
0.010615
0.012228
0.002723
0.010843
0.009384
0.005126
0.002970
0.012329
0.010792
0.011848
0.004024
0.002968
0.004291
0.012240
0.008127
0.002897
0.012153
0.011704
0.001421
0.011618
0.011270
0.003481
0.003996
0.003104
0.000615
0.005228
0.007386
0.005527
0.003896
0.012033
0.011801
0.002059
0.012333
0.012426
0.011180
0.011106
0.000984
0.011284
0.011752
0.012476
0.012137
0.012490
0.011308
0.012361
0.011340
0.004958
0.005792
0.001409
0.012399
0.002920
0.012355
0.011205
0.004058
0.001750
0.011900
0.012529
0.011135
0.012299
0.007918
0.010932
0.001906
0.012316
0.012382
0.002975
0.012455
0.011471
0.003755
0.011507
0.011098
0.011832
0.004181
0.004674
0.003331
0.006884
0.012274
0.009401
0.011878
0.011653
0.010564
0.003224
0.010917
0.002733
0.011494
0.002497
0.002312
0.010492
0.010834
0.011540
0.005556
0.001319
0.001865
0.010961
0.007902
0.000917
0.000968
0.010960
0.001523
0.004330
0.001658
0.011213
0.005669
0.006707
0.010970
0.000461
0.001745
0.004392
0.011953
0.011144
0.012110
0.012035
0.011216
0.004139
0.003014
0.003030
0.004826
0.005096
0.006421
0.002475
0.003766
0.003395
0.007884
0.012252
0.012207
0.004274
0.011063
0.002127
0.012388
0.011037
0.010501
0.002434
0.010502
0.011941
0.011696
0.012263
0.012409
0.011090
0.005431
0.012202
0.011130
0.011992
0.003701
0.001742
0.010764
0.012059
0.002062
0.002010
0.008331
0.012279
0.012412
0.010204
0.007592
0.002156
0.000708
0.003060
0.011062
0.003633
0.012174
0.001174
0.001004
0.011619
0.002013
0.003103
0.012057
0.012266
0.012324
0.011793
0.010190
0.000636
0.012364
0.005844
0.008980
0.010109
0.000935
0.002671
0.005189
0.004871
0.010861
0.004775
0.011647
0.003652
0.005477
0.008583
0.005164
0.007915
0.003173
0.009775
0.010553
0.012216
0.004022
0.002899
0.008293
0.003042
0.011742
0.012126
0.004069
0.011333
0.001584
0.002300
0.002618
0.002170
0.010883
0.000790
0.002112
0.005801
0.011429
0.001306
0.001768
0.011369
0.001151
0.002526
0.010425
0.000847
0.000528
0.012002
0.010889
0.002654
0.004566
0.010167
0.009018
0.012171
0.010285
0.009400
0.003467
0.011688
0.004287
0.005970
0.012098
0.011673
0.011477
0.001432
0.010919
0.000367
0.004266
0.003286
0.002332
0.011837
0.011419
0.004788
0.007286
0.011787
0.002762
0.010768
0.006004
0.002327
0.004863
0.010964
0.010782
0.012359
0.009809
0.006316
0.012153
0.010469
0.010392
0.011436
0.012243
0.011058
0.012303
0.011542
0.001051
0.011859
0.001909
0.012229
0.002178
0.010868
0.008730
0.010094
0.012373
0.011042
0.012238
0.011976
0.003205
0.001177
0.007520
0.004599
0.011106
0.002248
0.006527
0.003370
0.006154
0.001861
0.011353
0.012351
0.012262
0.011819
0.011938
0.001974
0.002581
0.012065
0.001966
0.010629
0.000544
0.010274
0.007158
0.003485
0.011435
0.002172
0.012453
0.010735
0.004586
0.007516
0.008661
0.004024
0.010298
0.003197
0.011677
0.002705
0.011790
0.002467
0.009688
0.010085
0.003897
0.002317
0.011975
0.004827
0.012062
0.011328
0.006071
0.001061
0.008768
0.011641
0.002270
0.003607
0.011246
0.011144
0.004796
0.001951
0.010710
0.008451
0.000353
0.012229
0.002862
0.002212
0.001286
0.012154
0.000891
0.001737
0.003391
0.003623
0.000468
0.001556
0.010557
0.010596
0.010845
0.002094
0.005678
0.006362
0.005230
0.005338
0.011912
0.010185
0.007864
0.012146
0.011300
0.004658
0.000987
0.009038
0.011374
0.005658
0.011514
0.002254
0.006599
0.001707
0.002518
0.007119
0.002346
0.004576
0.000577
0.000694
0.006597
0.011696