# vtk DataFile Version 2.0
Test
ASCII
DATASET POLYDATA
POINTS 7341 float
0.000000 0.000000 0.000000
1.000000 0.000000 0.000000
1.000000 1.000000 0.000000
0.000000 1.000000 0.000000
0.000000 0.500000 0.000000
0.500000 0.500000 0.000000
1.000000 0.500000 0.000000
0.499000 0.499000 0.000000
0.900000 0.010000 0.000000
0.029412 0.000000 0.000000
0.058824 0.000000 0.000000
0.088235 0.000000 0.000000
0.117647 0.000000 0.000000
0.147059 0.000000 0.000000
0.176471 0.000000 0.000000
0.205882 0.000000 0.000000
0.235294 0.000000 0.000000
0.264706 0.000000 0.000000
0.294118 0.000000 0.000000
0.323529 0.000000 0.000000
0.352941 0.000000 0.000000
0.382353 0.000000 0.000000
0.411765 0.000000 0.000000
0.441176 0.000000 0.000000
0.470588 0.000000 0.000000
0.500000 0.000000 0.000000
0.529412 0.000000 0.000000
0.558824 0.000000 0.000000
0.588235 0.000000 0.000000
0.617647 0.000000 0.000000
0.647059 0.000000 0.000000
0.676471 0.000000 0.000000
0.705882 0.000000 0.000000
0.735294 0.000000 0.000000
0.764706 0.000000 0.000000
0.794118 0.000000 0.000000
0.823529 0.000000 0.000000
0.852941 0.000000 0.000000
0.882353 0.000000 0.000000
0.911765 0.000000 0.000000
0.941176 0.000000 0.000000
0.970588 0.000000 0.000000
1.000000 0.029412 0.000000
1.000000 0.058824 0.000000
1.000000 0.088235 0.000000
1.000000 0.117647 0.000000
1.000000 0.147059 0.000000
1.000000 0.176471 0.000000
1.000000 0.205882 0.000000
1.000000 0.235294 0.000000
1.000000 0.264706 0.000000
1.000000 0.294118 0.000000
1.000000 0.323529 0.000000
1.000000 0.352941 0.000000
1.000000 0.382353 0.000000
1.000000 0.411765 0.000000
1.000000 0.441176 0.000000
1.000000 0.470588 0.000000
1.000000 0.529412 0.000000
1.000000 0.558824 0.000000
1.000000 0.588235 0.000000
1.000000 0.617647 0.000000
1.000000 0.647059 0.000000
1.000000 0.676471 0.000000
1.000000 0.705882 0.000000
1.000000 0.735294 0.000000
1.000000 0.764706 0.000000
1.000000 0.794118 0.000000
1.000000 0.823529 0.000000
1.000000 0.852941 0.000000
1.000000 0.882353 0.000000
1.000000 0.911765 0.000000
1.000000 0.941176 0.000000
1.000000 0.970588 0.000000
0.970588 1.000000 0.000000
0.941176 1.000000 0.000000
0.911765 1.000000 0.000000
0.882353 1.000000 0.000000
0.852941 1.000000 0.000000
0.823529 1.000000 0.000000
0.794118 1.000000 0.000000
0.764706 1.000000 0.000000
0.735294 1.000000 0.000000
0.705882 1.000000 0.000000
0.676471 1.000000 0.000000
0.647059 1.000000 0.000000
0.617647 1.000000 0.000000
0.588235 1.000000 0.000000
0.558824 1.000000 0.000000
0.529412 1.000000 0.000000
0.500000 1.000000 0.000000
0.470588 1.000000 0.000000
0.441176 1.000000 0.000000
0.411765 1.000000 0.000000
0.382353 1.000000 0.000000
0.352941 1.000000 0.000000
0.323529 1.000000 0.000000
0.294118 1.000000 0.000000
0.264706 1.000000 0.000000
0.235294 1.000000 0.000000
0.205882 1.000000 0.000000
0.176471 1.000000 0.000000
0.147059 1.000000 0.000000
0.117647 1.000000 0.000000
0.088235 1.000000 0.000000
0.058824 1.000000 0.000000
0.029412 1.000000 0.000000
0.000000 0.970588 0.000000
0.000000 0.941176 0.000000
0.000000 0.911765 0.000000
0.000000 0.882353 0.000000
0.000000 0.852941 0.000000
0.000000 0.823529 0.000000
0.000000 0.794118 0.000000
0.000000 0.764706 0.000000
0.000000 0.735294 0.000000
0.000000 0.705882 0.000000
0.000000 0.676471 0.000000
0.000000 0.647059 0.000000
0.000000 0.617647 0.000000
0.000000 0.588235 0.000000
0.000000 0.558824 0.000000
0.000000 0.529412 0.000000
0.007246 0.500000 0.000000
0.014493 0.500000 0.000000
0.021739 0.500000 0.000000
0.028986 0.500000 0.000000
0.036232 0.500000 0.000000
0.043478 0.500000 0.000000
0.050725 0.500000 0.000000
0.057971 0.500000 0.000000
0.065217 0.500000 0.000000
0.072464 0.500000 0.000000
0.079710 0.500000 0.000000
0.086957 0.500000 0.000000
0.094203 0.500000 0.000000
0.101449 0.500000 0.000000
0.108696 0.500000 0.000000
0.115942 0.500000 0.000000
0.123188 0.500000 0.000000
0.130435 0.500000 0.000000
0.137681 0.500000 0.000000
0.144928 0.500000 0.000000
0.152174 0.500000 0.000000
0.159420 0.500000 0.000000
0.166667 0.500000 0.000000
0.173913 0.500000 0.000000
0.181159 0.500000 0.000000
0.188406 0.500000 0.000000
0.195652 0.500000 0.000000
0.202899 0.500000 0.000000
0.210145 0.500000 0.000000
0.217391 0.500000 0.000000
0.224638 0.500000 0.000000
0.231884 0.500000 0.000000
0.239130 0.500000 0.000000
0.246377 0.500000 0.000000
0.253623 0.500000 0.000000
0.260870 0.500000 0.000000
0.268116 0.500000 0.000000
0.275362 0.500000 0.000000
0.282609 0.500000 0.000000
0.289855 0.500000 0.000000
0.297101 0.500000 0.000000
0.304348 0.500000 0.000000
0.311594 0.500000 0.000000
0.318841 0.500000 0.000000
0.326087 0.500000 0.000000
0.333333 0.500000 0.000000
0.340580 0.500000 0.000000
0.347826 0.500000 0.000000
0.355072 0.500000 0.000000
0.362319 0.500000 0.000000
0.369565 0.500000 0.000000
0.376812 0.500000 0.000000
0.384058 0.500000 0.000000
0.391304 0.500000 0.000000
0.398551 0.500000 0.000000
0.405797 0.500000 0.000000
0.413043 0.500000 0.000000
0.420290 0.500000 0.000000
0.427536 0.500000 0.000000
0.434783 0.500000 0.000000
0.442029 0.500000 0.000000
0.449275 0.500000 0.000000
0.456522 0.500000 0.000000
0.463768 0.500000 0.000000
0.471014 0.500000 0.000000
0.478261 0.500000 0.000000
0.485507 0.500000 0.000000
0.492754 0.500000 0.000000
0.510004 0.500000 0.000000
0.520408 0.500000 0.000000
0.531229 0.500000 0.000000
0.542483 0.500000 0.000000
0.554187 0.500000 0.000000
0.566359 0.500000 0.000000
0.579019 0.500000 0.000000
0.592185 0.500000 0.000000
0.605877 0.500000 0.000000
0.620118 0.500000 0.000000
0.634929 0.500000 0.000000
0.650332 0.500000 0.000000
0.666352 0.500000 0.000000
0.683013 0.500000 0.000000
0.700340 0.500000 0.000000
0.718361 0.500000 0.000000
0.737103 0.500000 0.000000
0.756595 0.500000 0.000000
0.776867 0.500000 0.000000
0.797950 0.500000 0.000000
0.819877 0.500000 0.000000
0.842681 0.500000 0.000000
0.866398 0.500000 0.000000
0.891064 0.500000 0.000000
0.916716 0.500000 0.000000
0.943396 0.500000 0.000000
0.971143 0.500000 0.000000
0.000000 0.470588 0.000000
0.000000 0.441176 0.000000
0.000000 0.411765 0.000000
0.000000 0.382353 0.000000
0.000000 0.352941 0.000000
0.000000 0.323529 0.000000
0.000000 0.294118 0.000000
0.000000 0.264706 0.000000
0.000000 0.235294 0.000000
0.000000 0.205882 0.000000
0.000000 0.176471 0.000000
0.000000 0.147059 0.000000
0.000000 0.117647 0.000000
0.000000 0.088235 0.000000
0.000000 0.058824 0.000000
0.000000 0.029412 0.000000
0.500341 0.497365 0.000000
0.501682 0.495729 0.000000
0.503023 0.494094 0.000000
0.504365 0.492458 0.000000
0.505706 0.490823 0.000000
0.507047 0.489187 0.000000
0.508388 0.487552 0.000000
0.509729 0.485916 0.000000
0.511070 0.484281 0.000000
0.512411 0.482645 0.000000
0.513753 0.481010 0.000000
0.515094 0.479375 0.000000
0.516435 0.477739 0.000000
0.517776 0.476104 0.000000
0.519117 0.474468 0.000000
0.520458 0.472833 0.000000
0.521799 0.471197 0.000000
0.523140 0.469562 0.000000
0.524482 0.467926 0.000000
0.525823 0.466291 0.000000
0.527164 0.464656 0.000000
0.528505 0.463020 0.000000
0.529846 0.461385 0.000000
0.531187 0.459749 0.000000
0.532528 0.458114 0.000000
0.533870 0.456478 0.000000
0.535211 0.454843 0.000000
0.536552 0.453207 0.000000
0.537893 0.451572 0.000000
0.539234 0.449936 0.000000
0.540575 0.448301 0.000000
0.541916 0.446666 0.000000
0.543258 0.445030 0.000000
0.544599 0.443395 0.000000
0.545940 0.441759 0.000000
0.547281 0.440124 0.000000
0.548622 0.438488 0.000000
0.549963 0.436853 0.000000
0.551304 0.435217 0.000000
0.552645 0.433582 0.000000
0.553987 0.431946 0.000000
0.555328 0.430311 0.000000
0.556669 0.428676 0.000000
0.558010 0.427040 0.000000
0.559351 0.425405 0.000000
0.560692 0.423769 0.000000
0.562033 0.422134 0.000000
0.563375 0.420498 0.000000
0.564716 0.418863 0.000000
0.566057 0.417227 0.000000
0.567398 0.415592 0.000000
0.568739 0.413957 0.000000
0.570080 0.412321 0.000000
0.571421 0.410686 0.000000
0.572763 0.409050 0.000000
0.574104 0.407415 0.000000
0.575445 0.405779 0.000000
0.576786 0.404144 0.000000
0.578127 0.402508 0.000000
0.579468 0.400873 0.000000
0.580809 0.399237 0.000000
0.582151 0.397602 0.000000
0.583492 0.395967 0.000000
0.584833 0.394331 0.000000
0.586174 0.392696 0.000000
0.587515 0.391060 0.000000
0.588856 0.389425 0.000000
0.590197 0.387789 0.000000
0.591538 0.386154 0.000000
0.592880 0.384518 0.000000
0.594221 0.382883 0.000000
0.595562 0.381247 0.000000
0.596903 0.379612 0.000000
0.598244 0.377977 0.000000
0.599585 0.376341 0.000000
0.600926 0.374706 0.000000
0.602268 0.373070 0.000000
0.603609 0.371435 0.000000
0.604950 0.369799 0.000000
0.606291 0.368164 0.000000
0.607632 0.366528 0.000000
0.608973 0.364893 0.000000
0.610314 0.363258 0.000000
0.611656 0.361622 0.000000
0.612997 0.359987 0.000000
0.614338 0.358351 0.000000
0.615679 0.356716 0.000000
0.617020 0.355080 0.000000
0.618361 0.353445 0.000000
0.619702 0.351809 0.000000
0.621043 0.350174 0.000000
0.622385 0.348538 0.000000
0.623726 0.346903 0.000000
0.625067 0.345268 0.000000
0.626408 0.343632 0.000000
0.627749 0.341997 0.000000
0.629090 0.340361 0.000000
0.630431 0.338726 0.000000
0.631773 0.337090 0.000000
0.633114 0.335455 0.000000
0.634455 0.333819 0.000000
0.635796 0.332184 0.000000
0.637137 0.330548 0.000000
0.638478 0.328913 0.000000
0.639819 0.327278 0.000000
0.641161 0.325642 0.000000
0.642502 0.324007 0.000000
0.643843 0.322371 0.000000
0.645184 0.320736 0.000000
0.646525 0.319100 0.000000
0.647866 0.317465 0.000000
0.649207 0.315829 0.000000
0.650548 0.314194 0.000000
0.651890 0.312559 0.000000
0.653231 0.310923 0.000000
0.654572 0.309288 0.000000
0.655913 0.307652 0.000000
0.657254 0.306017 0.000000
0.658595 0.304381 0.000000
0.659936 0.302746 0.000000
0.661278 0.301110 0.000000
0.662619 0.299475 0.000000
0.663960 0.297839 0.000000
0.665301 0.296204 0.000000
0.666642 0.294569 0.000000
0.667983 0.292933 0.000000
0.669324 0.291298 0.000000
0.670666 0.289662 0.000000
0.672007 0.288027 0.000000
0.673348 0.286391 0.000000
0.674689 0.284756 0.000000
0.676030 0.283120 0.000000
0.677371 0.281485 0.000000
[...]
POINT_DATA 7341
SCALARS UX float 1
LOOKUP_TABLE default
0.000000
0.000000
0.078000
0.078000
0.035907
0.035831
0.039206
0.035355
0.000711
-0.000000
0.000000
0.000000
0.000000
0.000000
0.000000
0.000000
0.000000
0.000000
0.000000
0.000000
0.000000
0.000000
0.000000
0.000000
0.000000
0.000000
0.000000
0.000000
0.000000
0.000000
0.000000
0.000000
0.000000
0.000000
0.000000
0.000000
0.000000
0.000000
0.000000
0.000000
0.000000
-0.000000
0.003664
0.005694
0.007652
0.009599
0.011597
0.013608
0.015672
0.017739
0.019885
0.022079
0.024335
0.026673
0.029083
0.031587
0.034162
0.036759
0.041436
0.043717
0.045996
0.048301
0.050602
0.052895
0.055193
0.057488
0.059773
0.062054
0.064338
0.066618
0.068897
0.071171
0.073446
0.075724
0.078000
0.078000
0.078000
0.078000
0.078000
0.078000
0.078000
0.078000
0.078000
0.078000
0.078000
0.078000
0.078000
0.078000
0.078000
0.078000
0.078000
0.078000
0.078000
0.078000
0.078000
0.078000
0.078000
0.078000
0.078000
0.078000
0.078000
0.078000
0.078000
0.078000
0.078000
0.078000
0.078000
0.075681
0.073368
0.071055
0.068760
0.066470
0.064201
0.061937
0.059700
0.057481
0.055277
0.053098
0.050926
0.048746
0.046507
0.044233
0.041600
0.035811
0.035714
0.035700
0.035681
0.035662
0.035640
0.035609
0.035584
0.035515
0.035436
0.035372
0.035303
0.035234
0.035182
0.035106
0.035213
0.035109
0.035938
0.035881
0.035831
0.035803
0.035776
0.035724
0.035676
0.035640
0.035766
0.035715
0.035682
0.035652
0.035622
0.035606
0.035559
0.035514
0.035473
0.035424
0.035388
0.035324
0.035254
0.035239
0.035181
0.035133
0.035076
0.035069
0.035061
0.035021
0.035011
0.035001
0.034985
0.034969
0.034934
0.035213
0.035204
0.035224
0.035235
0.035263
0.035262
0.035280
0.035279
0.035284
0.035296
0.035335
0.035348
0.035367
0.035392
0.035735
0.035745
0.035806
0.035823
0.035803
0.035751
0.035717
0.035708
0.035706
0.035704
0.035712
0.035731
0.035727
0.035760
0.035783
0.035813
0.035867
0.035923
0.035971
0.036051
0.036145
0.036257
0.036372
0.036508
0.036675
0.036876
0.037119
0.037408
0.037754
0.038181
0.038655
0.031524
0.029504
0.027593
0.025783
0.024082
0.022406
0.020789
0.019184
0.017639
0.016143
0.014740
0.013352
0.012097
0.010882
0.009515
0.006774
0.034594
0.033955
0.033621
0.033297
0.033047
0.032783
0.032558
0.032350
0.032149
0.031960
0.031782
0.031609
0.031447
0.031290
0.031136
0.030990
0.030844
0.030706
0.030569
0.030435
0.030305
0.030175
0.030049
0.029924
0.029799
0.029677
0.029556
0.029436
0.029317
0.029199
0.029082
0.028966
0.028850
0.028736
0.028621
0.028507
0.028394
0.028281
0.028168
0.028056
0.027944
0.027833
0.027722
0.027611
0.027501
0.027391
0.027281
0.027171
0.027062
0.026952
0.026843
0.026734
0.026625
0.026517
0.026409
0.026300
0.026192
0.026084
0.025976
0.025869
0.025761
0.025653
0.025546
0.025439
0.025331
0.025224
0.025117
0.025010
0.024903
0.024796
0.024690
0.024583
0.024477
0.024370
0.024264
0.024157
0.024051
0.023945
0.023839
0.023733
0.023627
0.023521
0.023415
0.023309
0.023203
0.023097
0.022992
0.022886
0.022780
0.022675
0.022569
0.022464
0.022359
0.022253
0.022148
0.022043
0.021938
0.021833
0.021728
0.021623
0.021518
0.021413
0.021308
0.021203
0.021098
0.020994
0.020889
0.020784
0.020680
0.020575
0.020471
0.020366
0.020262
0.020157
0.020053
0.019949
0.019844
0.019740
0.019636
0.019532
0.019427
0.019323
0.019219
0.019115
0.019011
0.018907
0.018803
0.018699
0.018595
0.018491
0.018388
0.018284
0.018180
0.018076
0.017972
0.017868
0.017765
0.017661
0.017557
0.017453
0.017350
0.017246
0.017142
0.017039
0.016935
0.016831
0.016728
0.016624
0.016521
0.016417
0.016314
0.016210
0.016107
0.016003
0.015900
0.015797
0.015693
0.015590
0.015487
0.015384
0.015281
0.015178
0.015075
0.014972
0.014869
0.014766
0.014663
0.014560
0.014455
0.014342
0.014227
0.014112
0.013998
0.013883
0.013768
0.013654
0.013540
0.013426
0.013312
0.013198
0.013084
0.012970
0.012856
0.012743
0.012629
0.012516
0.012403
0.012290
0.012177
0.012064
0.011951
0.011838
0.011726
0.011613
0.011501
0.011389
0.011277
0.011165
0.011053
0.010941
0.010830
0.010718
0.010607
0.010496
0.010385
0.010274
0.010163
0.010053
0.009942
0.009832
0.009722
0.009612
0.009502
0.009392
0.009282
0.009173
0.009064
0.008955
0.008846
0.008737
0.008629
0.008520
0.008412
0.008304
0.008197
0.008089
0.007982
0.007874
0.007767
0.007661
0.007554
0.007448
0.007342
0.007236
0.007130
0.007025
0.006920
0.006815
0.006710
0.006606
0.006502
0.006398
0.006294
0.006191
0.006088
0.005985
0.005883
0.005780
0.005679
0.005577
0.005476
0.005375
0.005274
0.005174
0.005074
0.004974
0.004874
0.004775
0.004676
0.004578
0.004479
0.004381
0.004284
0.004186
0.004089
0.003992
0.003895
0.003799
0.003702
0.003606
0.003510
0.003414
0.003318
0.003223
0.003127
0.003032
0.002936
0.002841
0.002745
0.002649
0.002553
0.002457
0.002360
0.002263
0.002165
0.002068
0.001969
0.001868
0.001767
0.001664
0.001560
0.001455
0.001349
0.001242
0.001134
0.001027
0.000919
0.000816
0.031462
0.031447
0.031350
0.003565
0.002283
0.034779
0.001745
0.034358
0.031938
0.021588
0.034132
0.001483
0.020448
0.032683
0.012904
0.015724
0.034016
0.001439
0.004509
0.031229
0.007027
0.033271
0.034054
0.011521
0.031304
0.026976
0.033773
0.028724
0.035304
0.031505
0.005132
0.031344
0.031231
0.032308
0.031747
0.001226
0.033556
0.003114
0.032106
0.002726
0.031422
0.031235
0.031193
0.033043
0.001976
0.033533
0.001675
0.032319
0.031317
0.034399
0.001633
0.033677
0.008878
0.025444
0.001434
0.033903
0.034076
0.023714
0.034145
0.034519
0.015185
0.017310
0.001513
0.001567
0.031112
0.031440
0.018793
0.033743
0.036056
0.001850
0.034924
0.001963
0.023929
0.002913
0.031159
0.014270
0.003829
0.036456
0.010322
0.005440
0.008545
0.005397
0.005142
0.031344
0.031394
0.031586
0.031273
0.031363
0.031180
0.031672
0.032946
0.032523
0.032201
0.032095
0.032004
0.031838
0.034073
0.033612
0.033470
0.033348
0.033065
0.001509
0.033244
0.034449
0.030073
0.030143
0.004784
0.030493
0.003698
0.030657
0.023372
0.002969
0.019845
0.031264
0.015193
0.031373
0.002741
0.032992
0.007091
0.023834
0.032631
0.015275
0.005785
0.030334
0.032878
0.002693
0.032295
0.032256
0.030081
0.032344
0.009915
0.033808
0.033002
0.034006
0.001324
0.031091
0.029980
0.001333
0.034013
0.032371
0.010903
0.034079
0.001347
0.026529
0.031640
0.034112
0.004912
0.034160
0.022298
0.019148
0.034217
0.034329
0.001560
0.034487
0.003492
0.034659
0.031374
0.002067
0.026209
0.002321
0.035040
0.031232
0.031078
0.003181
0.017403
0.035667
0.031213
0.004179
0.012871
0.007594
0.004823
0.008371
0.031192
0.031260
0.031191
0.030933
0.030791
0.030882
0.031105
0.030706
0.031351
0.031435
0.031590
0.032209
0.031710
0.032236
0.033435
0.034248
0.032326
0.032840
0.032860
0.033878
0.033553
0.032386
0.033813
0.032658
0.033133
0.032806
0.013206
0.004956
0.033071
0.032634
0.013416
0.032637
0.030180
0.032711
0.031025
0.031558
0.005406
0.030282
0.016885
0.033162
0.033596
0.006521
0.007225
0.002445
0.030113
0.031481
0.002768
0.031967
0.030041
0.032371
0.021378
0.030410
0.029903
0.031728
0.030783
0.002990
0.030816
0.032684
0.032578
0.031133
0.002667
0.026189
0.032628
0.003831
0.032832
0.019420
0.017107
0.004232
0.032758
0.018419
0.032212
0.003048
0.003295
0.005056
0.032736
0.002682
0.008635
0.030364
0.030401
0.031987
0.033052
0.032953
0.006156
0.025177
0.021321
0.013867
0.032490
0.012419
0.011140
0.003091
0.009376
0.007982
0.029936
0.029990
0.030026
0.030152
0.030218
0.002760
0.030055
0.028200
0.029807
0.030291
0.032728
0.030551
0.031794
0.032786
0.030965
0.030828
0.030588
0.029909
0.032469
0.031627
0.032393
0.032549
0.032309
0.030972
0.032658
0.011345
0.004958
0.033476
0.032186
0.031910
0.030554
0.034262
0.029456
0.029461
0.029969
0.006013
0.031325
0.021216
0.004514
0.018222
0.030246
0.003925
0.007625
0.031275
0.008091
0.025330
0.003846
0.031639
0.013514
0.029434
0.029618
0.031097
0.005015
0.030437
0.006961
0.030990
0.024797
0.032601
0.032602
0.004110
0.032695
0.030652
0.029827
0.016406
0.032615
0.004324
0.030220
0.027621
0.031699
0.014801
0.033334
0.021019
0.028411
0.031807
0.006786
0.031994
0.012007
0.010663
0.008630
0.008993
0.032611
0.030242
0.005263
0.005239
0.030130
0.006643
0.030050
0.030030
0.031318
0.030131
0.030796
0.030439
0.029926
0.010866
0.031228
0.030064
0.031684
0.032006
0.029384
0.002702
0.029892
0.029893
0.031203
0.022629
0.032837
0.028641
0.032402
0.031305
0.030310
0.032845
0.031870
0.032131
0.032030
0.012171
0.010001
0.030273
0.031809
0.032791
0.031377
0.031975
0.032406
0.031760
0.034489
0.008250
0.006794
0.029832
0.005790
0.031277
0.029254
0.031439
0.014594
0.017598
0.031401
0.029586
0.003861
0.030927
0.031670
0.029368
0.031516
0.031639
0.031310
0.029691
0.006336
0.013027
0.007901
0.030601
0.031683
0.024169
0.009932
0.004379
0.005956
0.012078
0.029358
0.029398
0.003995
0.006890
0.019727
0.029630
0.031879
0.029650
0.028488
0.031318
0.031022
0.030765
0.029841
0.032268
0.031293
0.009615
0.007316
0.029728
0.031296
0.023020
0.029618
0.029495
0.008208
0.022634
0.031489
0.031362
0.030327
0.011630
0.026439
0.006472
0.004395
0.019690
0.031051
0.014983
0.010287
0.029890
0.030392
0.030066
0.016349
0.029328
0.004694
0.029463
0.029313
0.031495
0.003945
0.030633
0.030249
0.033484
0.030093
0.032200
0.031305
0.029673
0.029736
0.031738
0.030472
0.028834
0.030057
0.029448
0.003706
0.031641
0.030172
0.031339
0.031758
0.029373
0.030634
0.031605
0.028983
0.028887
0.029653
0.022691
0.030345
0.005052
0.030455
0.010831
0.023461
0.007840
0.028979
0.004809
0.029696
0.029770
0.005762
0.029070
0.030821
0.031604
0.029386
0.027318
0.003767
0.015912
0.014531
0.005689
0.006386
0.029199
0.031440
0.004821
0.030314
0.029230
0.031370
0.030917
0.031062
0.030113
0.029820
0.019086
0.008697
0.016159
0.029779
0.008974
0.009596
0.031335
0.006787
0.012665
0.004085
0.031337
0.029600
0.031167
0.029639
0.026167
0.011261
0.018103
0.008066
0.007460
0.029927
0.019350
0.029463
0.031335
0.022178
0.030409
0.031635
0.028927
0.029320
0.029956
0.029557
0.029731
0.028861
0.029204
0.031512
0.031774
0.013398
0.007065
0.029531
0.033081
0.029513
0.030652
0.029402
0.029358
0.030031
0.005611
0.005654
0.031727
0.030361
0.031826
0.030392
0.029402
0.031302
0.009772
0.030019
0.032077
0.031339
0.029268
0.026623
0.030538
0.029006
0.031480
0.031441
0.029050
0.028850
0.008452
0.028422
0.006725
0.030025
0.015672
0.009703
0.023208
0.018706
0.010282
0.004662
0.030316
0.028516
0.007678
0.024522
0.027026
0.028815
0.005267
0.028267
0.029986
0.009568
0.028804
0.029565
0.005391
0.030834
0.030190
0.028903
0.029047
0.029031
0.030157
0.028884
0.029193
0.030800
0.029071
0.029214
0.020764
0.028856
0.017461
0.029906
0.015586
0.024962
0.009286
0.032257
0.029637
0.007843
0.002847
0.005707
0.005962
0.030682
0.006802
0.031200
0.006120
0.032466
0.010851
0.011851
0.020882
0.013082
0.005179
0.014078
0.008100
0.030636
0.031405
0.031172
0.031139
0.030035
0.029543
0.029901
0.028790
0.029515
0.007385
0.028678
0.028736
0.004784
0.031236
0.028884
0.026266
0.031208
0.031108
0.028869
0.029128
0.029036
0.029700
0.029396
0.005894
0.029526
0.028301
0.031492
0.008828
0.032752
0.031172
0.029641
0.004986
0.030873
0.028973
0.031263
0.031485
0.009377
0.005992
0.011987
0.005679
0.006767
0.021018
0.004642
0.004717
0.028387
0.015189
0.030219
0.030835
0.007220
0.029042
0.024485
0.026170
0.031062
0.008936
0.005953
0.028613
0.007073
0.012222
0.007793
0.009413
0.029153
0.030277
0.030939
0.028474
0.029005
0.010569
0.030041
0.030335
0.030940
0.030758
0.029966
0.017416
0.029911
0.003781
0.028009
0.028575
0.028389
0.028127
0.025961
0.017280
0.028517
0.028418
0.028431
0.028352
0.008695
0.029212
0.005439
0.010079
0.005764
0.031685
0.014277
0.022764
0.027693
0.028825
0.010604
0.008252
0.004438
0.021940
0.029543
0.008628
0.029289
0.029862
0.030504
0.030911
0.028387
0.029823
0.028765
0.028587
0.028740
0.028490
0.028313
0.010141
0.028820
0.028567
0.027812
0.028818
0.030982
0.031190
0.028846
0.029799
0.031117
0.001439
0.030855
0.030152
0.031004
0.007015
0.031020
0.020271
0.028680
0.006399
0.031522
0.028282
0.010034
0.010702
0.027140
0.029335
0.027810
0.014407
0.019899
0.006477
0.028059
0.021242
0.024194
0.004735
0.029811
0.005311
0.004535
0.028426
0.030255
0.028291
0.003822
0.008998
0.030752
0.030680
0.011605
0.028779
0.028685
0.026870
0.007137
0.028071
0.028459
0.028123
0.026674
0.028382
0.019623
0.002949
0.028935
0.003831
0.026696
0.007240
0.030858
0.013017
0.009600
0.030756
0.030788
0.010977
0.028874
0.013812
0.031046
0.028778
0.005643
0.007626
0.030751
0.006198
0.028540
0.006597
0.007383
0.009157
0.030232
0.024368
0.011775
0.023041
0.029695
0.011315
0.030490
0.029932
0.018420
0.029210
0.028281
0.028376
0.028270
0.028196
0.028439
0.028213
0.028056
0.028335
0.021457
0.028674
0.029132
0.028680
0.031246
0.007980
0.028410
0.030891
0.030833
0.016770
0.006123
0.025493
0.026676
0.027414
0.028797
0.010198
0.026325
0.028283
0.013315
0.019599
0.006855
0.007686
0.022577
0.005943
0.025572
0.003902
0.025059
0.027871
0.029803
0.029560
0.008226
0.030335
0.016419
0.030446
0.028218
0.028401
0.010486
0.029628
0.008104
0.030703
0.019806
0.007403
0.027970
0.027913
0.008698
0.005310
0.028965
0.015394
0.029141
0.027919
0.027980
0.027911
0.028344
0.027574
0.009799
0.008385
0.012165
0.030428
0.006572
0.006089
0.009458
0.027750
0.010265
0.013075
0.028793
0.027034
0.003738
0.025329
0.029780
0.027846
0.011573
0.022672
0.030639
0.030176
0.003047
0.029352
0.027887
0.029191
0.027933
0.007677
0.030612
0.028230
0.027803
0.030579
0.028161
0.030618
0.027723
0.028295
0.028316
0.028148
0.002157
0.028032
0.026470
0.017963
0.030654
0.011929
0.030606
0.025808
0.028723
0.027987
0.002052
0.027695
0.028547
0.030773
0.029858
0.020989
0.006464
0.005236
0.030658
0.006876
0.028181
0.027595
0.010873
0.019928
0.026510
0.019133
0.008695
0.028249
0.022119
0.027176
0.007336
0.006852
0.004664
0.030106
0.006480
0.024348
0.029313
0.005797
0.005185
0.029588
0.027790
0.029477
0.011557
0.027840
0.027523
0.003267
0.012139
0.026040
0.009087
0.009628
0.030254
0.009917
0.027813
0.027923
0.027492
0.027589
0.029406
0.017450
0.014949
0.010544
0.029193
0.002155
0.023766
0.008597
0.014335
0.026069
0.027511
0.027304
0.027199
0.024226
0.008484
0.011082
0.029978
0.008224
0.010480
0.004551
0.012703
0.021186
0.007043
0.012948
0.028178
0.030171
0.030442
0.029191
0.028838
0.002912
0.027776
0.030382
0.030563
0.030530
0.030332
0.028036
0.006064
0.027700
0.010998
0.027118
0.028013
0.018338
0.027877
0.007108
0.027674
0.027411
0.027305
0.030511
0.008487
0.027587
0.028022
0.027280
0.005983
0.016629
0.002955
0.006390
0.030567
0.000920
0.007107
0.029725
0.029769
0.030452
0.029875
0.028391
0.020578
0.004096
0.025625
0.028235
0.027822
0.030448
0.030509
0.002167
0.027993
0.012103
0.011366
0.025575
0.019899
0.018675
0.027334
0.013314
0.009143
0.007858
0.008825
0.026709
0.021488
0.013341
0.024498
0.004039
0.028921
0.026834
0.027457
0.005052
0.015367
0.027815
0.009771
0.011020
0.008010
0.002316
0.002617
0.009197
0.028985
0.011773
0.011539
0.007486
0.025281
0.024727
0.009480
0.026971
0.004067
0.029360
0.022541
0.029853
0.029293
0.011508
0.027915
0.018673
0.030092
0.029111
0.027452
0.027301
0.025089
0.009627
0.008333
0.016149
0.012937
0.005307
0.023890
0.027200
0.030161
0.028485
0.027754
0.030399
0.026938
0.026974
0.027671
0.029027
0.027494
0.010349
0.027523
0.026945
0.002998
0.030212
0.027938
0.027713
0.026507
0.030395
0.030216
0.027081
0.026592
0.027388
0.023397
0.006717
0.011111
0.010745
0.030375
0.029952
0.030220
0.029579
0.006303
0.018425
0.027740
0.020166
0.029551
0.016300
0.030340
0.005897
0.030307
0.005753
0.026536
0.029480
0.030208
0.006993
0.014354
0.007674
0.003218
0.027116
0.028118
0.012423
0.010400
0.024667
0.029242
0.026571
0.019798
0.008848
0.007391
0.007570
0.025844
0.007024
0.025935
0.023534
0.018859
0.006191
0.026775
0.025641
0.014144
0.002676
0.027494
0.012917
0.010267
0.029152
0.013356
0.003114
0.016408
0.012376
0.011904
0.013833
0.022404
0.029904
0.008115
0.029428
0.024230
0.026129
0.009868
0.026399
0.009691
0.021151
0.028846
0.009035
0.012362
0.009439
0.004632
0.011102
0.009549
0.014453
0.026387
0.028653
0.027453
0.027601
0.017496
0.027501
0.004575
0.028186
0.028913
0.029984
0.028955
0.007725
0.029759
0.029538
0.011805
0.017467
0.027257
0.027282
0.027293
0.027027
0.010017
0.026495
0.027455
0.027779
0.030172
0.030245
0.011672
0.027146
0.027126
0.025824
0.023772
0.030181
0.030261
0.006831
0.023172
0.005759
0.021292
0.027159
0.023115
0.026337
0.017183
0.030090
0.026534
0.002085
0.029967
0.028984
0.029655
0.029881
0.030089
0.008012
0.030073
0.026366
0.005268
0.030030
0.030213
0.005466
0.030129
0.028837
0.013241
0.028935
0.019854
0.023738
0.013927
0.025830
0.027464
0.008591
0.009597
0.010302
0.020825
0.005357
0.017674
0.029008
0.010869
0.022936
0.004101
0.004109
0.028291
0.026930
0.007218
0.005474
0.026842
0.002764
0.028692
0.026710
0.005857
0.008633
0.027158
0.026759
0.003060
0.025579
0.029158
0.016385
0.007495
0.007659
0.021102
0.012750
0.010035
0.025045
0.029466
0.008773
0.025628
0.024794
0.015345
0.010373
0.029961
0.025671
0.028630
0.012815
0.009528
0.012949
0.029727
0.022480
0.010153
0.029600
0.029189
0.005049
0.028685
0.027330
0.011013
0.012461
0.010732
0.002159
0.014637
0.018630
0.016351
0.012564
0.029356
0.028519
0.007236
0.029858
0.030036
0.027033
0.026511
0.003580
0.027289
0.028838
0.030094
0.029257
0.030155
0.027149
0.030006
0.027160
0.013939
0.015452
0.004746
0.029865
0.009348
0.029920
0.026634
0.012487
0.006156
0.029385
0.030372
0.026880
0.029844
0.022091
0.025722
0.006677
0.029860
0.029950
0.010380
0.030017
0.027595
0.012300
0.027913
0.027009
0.028616
0.013285
0.013906
0.011323
0.019804
0.029718
0.024798
0.029016
0.028861
0.026866
0.010349
0.026156
0.008855
0.028459
0.008739
0.008064
0.024989
0.025811
0.028498
0.016505
0.004697
0.006524
0.026611
0.021961
0.003143
0.003506
0.026549
0.005356
0.013542
0.005805
0.026842
0.015307
0.017302
0.026181
0.001651
0.005809
0.013434
0.029212
0.026770
0.029220
0.029713
0.028181
0.013013
0.009707
0.010504
0.014050
0.014470
0.018627
0.008041
0.011841
0.011483
0.019682
0.029705
0.029643
0.013205
0.026499
0.007423
0.029934
0.026860
0.026802
0.008614
0.024854
0.029170
0.028326
0.029560
0.029962
0.026714
0.014936
0.029689
0.027000
0.028959
0.011621
0.006108
0.025421
0.029398
0.007176
0.007005
0.022778
0.029839
0.029932
0.026407
0.021350
0.007644
0.002595
0.010610
0.026706
0.012030
0.029598
0.004193
0.003593
0.028153
0.007108
0.010718
0.029908
0.029761
0.029808
0.028903
0.024167
0.002242
0.029796
0.015455
0.023981
0.026044
0.003442
0.009353
0.015569
0.014751
0.026535
0.014309
0.028248
0.012128
0.015323
0.023180
0.015571
0.021936
0.010871
0.025379
0.026814
0.029575
0.012581
0.010016
0.020564
0.009830
0.029084
0.029275
0.013060
0.028387
0.005335
0.008001
0.009117
0.007532
0.026320
0.002763
0.007311
0.015767
0.027777
0.004628
0.006169
0.027603
0.004090
0.008248
0.024749
0.003048
0.001887
0.029257
0.026373
0.009273
0.013996
0.026132
0.024028
0.029553
0.026305
0.024763
0.011032
0.028693
0.013289
0.017539
0.029444
0.029080
0.028460
0.005061
0.026494
0.001325
0.013440
0.011204
0.008152
0.028646
0.028276
0.014061
0.018509
0.028876
0.008997
0.025889
0.016069
0.008197
0.014789
0.026689
0.025831
0.029833
0.025580
0.016605
0.029542
0.025050
0.024836
0.027755
0.029668
0.026618
0.029728
0.028473
0.003567
0.029008
0.006304
0.029669
0.007597
0.025927
0.023577
0.024030
0.030469
0.026797
0.029528
0.028946
0.010982
0.004161
0.021143
0.013824
0.026659
0.007416
0.018942
0.011413
0.016205
0.006492
0.027540
0.029783
0.029656
0.028900
0.029133
0.006864
0.008284
0.029384
0.007056
0.025225
0.002029
0.024292
0.020453
0.011689
0.027297
0.007514
0.030763
0.026145
0.014185
0.021093
0.023308
0.012640
0.026302
0.010319
0.028327
0.009351
0.028829
0.008530
0.025229
0.024252
0.012683
0.008026
0.028965
0.014745
0.029354
0.028336
0.017841
0.003630
0.021541
0.028559
0.007818
0.012020
0.027380
0.027124
0.014548
0.006778
0.026037
0.022942
0.001263
0.029547
0.009884
0.007617
0.004546
0.029428
0.003086
0.006056
0.011472
0.011501
0.001753
0.005442
0.025320
0.025488
0.027401
0.006949
0.016858
0.016875
0.015026
0.015149
0.029066
0.026136
0.021784
0.029484
0.028068
0.014128
0.003508
0.024038
0.028158
0.015578
0.027966
0.007810
0.017251
0.005727
0.008769
0.020316
0.008222
0.014044
0.002060
0.002452
0.019149
0.028694