# vtk DataFile Version 2.0
Test
ASCII
DATASET POLYDATA
POINTS 7341 float
0.000000 0.000000 0.000000
1.000000 0.000000 0.000000
1.000000 1.000000 0.000000
0.000000 1.000000 0.000000
0.000000 0.500000 0.000000
0.500000 0.500000 0.000000
1.000000 0.500000 0.000000
0.499000 0.499000 0.000000
0.900000 0.010000 0.000000
0.029412 0.000000 0.000000
0.058824 0.000000 0.000000
0.088235 0.000000 0.000000
0.117647 0.000000 0.000000
0.147059 0.000000 0.000000
0.176471 0.000000 0.000000
0.205882 0.000000 0.000000
0.235294 0.000000 0.000000
0.264706 0.000000 0.000000
0.294118 0.000000 0.000000
0.323529 0.000000 0.000000
0.352941 0.000000 0.000000
0.382353 0.000000 0.000000
0.411765 0.000000 0.000000
0.441176 0.000000 0.000000
0.470588 0.000000 0.000000
0.500000 0.000000 0.000000
0.529412 0.000000 0.000000
0.558824 0.000000 0.000000
0.588235 0.000000 0.000000
0.617647 0.000000 0.000000
0.647059 0.000000 0.000000
0.676471 0.000000 0.000000
0.705882 0.000000 0.000000
0.735294 0.000000 0.000000
0.764706 0.000000 0.000000
0.794118 0.000000 0.000000
0.823529 0.000000 0.000000
0.852941 0.000000 0.000000
0.882353 0.000000 0.000000
0.911765 0.000000 0.000000
0.941176 0.000000 0.000000
0.970588 0.000000 0.000000
1.000000 0.029412 0.000000
1.000000 0.058824 0.000000
1.000000 0.088235 0.000000
1.000000 0.117647 0.000000
1.000000 0.147059 0.000000
1.000000 0.176471 0.000000
1.000000 0.205882 0.000000
1.000000 0.235294 0.000000
1.000000 0.264706 0.000000
1.000000 0.294118 0.000000
1.000000 0.323529 0.000000
1.000000 0.352941 0.000000
1.000000 0.382353 0.000000
1.000000 0.411765 0.000000
1.000000 0.441176 0.000000
1.000000 0.470588 0.000000
1.000000 0.529412 0.000000
1.000000 0.558824 0.000000
1.000000 0.588235 0.000000
1.000000 0.617647 0.000000
1.000000 0.647059 0.000000
1.000000 0.676471 0.000000
1.000000 0.705882 0.000000
1.000000 0.735294 0.000000
1.000000 0.764706 0.000000
1.000000 0.794118 0.000000
1.000000 0.823529 0.000000
1.000000 0.852941 0.000000
1.000000 0.882353 0.000000
1.000000 0.911765 0.000000
1.000000 0.941176 0.000000
1.000000 0.970588 0.000000
0.970588 1.000000 0.000000
0.941176 1.000000 0.000000
0.911765 1.000000 0.000000
0.882353 1.000000 0.000000
0.852941 1.000000 0.000000
0.823529 1.000000 0.000000
0.794118 1.000000 0.000000
0.764706 1.000000 0.000000
0.735294 1.000000 0.000000
0.705882 1.000000 0.000000
0.676471 1.000000 0.000000
0.647059 1.000000 0.000000
0.617647 1.000000 0.000000
0.588235 1.000000 0.000000
0.558824 1.000000 0.000000
0.529412 1.000000 0.000000
0.500000 1.000000 0.000000
0.470588 1.000000 0.000000
0.441176 1.000000 0.000000
0.411765 1.000000 0.000000
0.382353 1.000000 0.000000
0.352941 1.000000 0.000000
0.323529 1.000000 0.000000
0.294118 1.000000 0.000000
0.264706 1.000000 0.000000
0.235294 1.000000 0.000000
0.205882 1.000000 0.000000
0.176471 1.000000 0.000000
0.147059 1.000000 0.000000
0.117647 1.000000 0.000000
0.088235 1.000000 0.000000
0.058824 1.000000 0.000000
0.029412 1.000000 0.000000
0.000000 0.970588 0.000000
0.000000 0.941176 0.000000
0.000000 0.911765 0.000000
0.000000 0.882353 0.000000
0.000000 0.852941 0.000000
0.000000 0.823529 0.000000
0.000000 0.794118 0.000000
0.000000 0.764706 0.000000
0.000000 0.735294 0.000000
0.000000 0.705882 0.000000
0.000000 0.676471 0.000000
0.000000 0.647059 0.000000
0.000000 0.617647 0.000000
0.000000 0.588235 0.000000
0.000000 0.558824 0.000000
0.000000 0.529412 0.000000
0.007246 0.500000 0.000000
0.014493 0.500000 0.000000
0.021739 0.500000 0.000000
0.028986 0.500000 0.000000
0.036232 0.500000 0.000000
0.043478 0.500000 0.000000
0.050725 0.500000 0.000000
0.057971 0.500000 0.000000
0.065217 0.500000 0.000000
0.072464 0.500000 0.000000
0.079710 0.500000 0.000000
0.086957 0.500000 0.000000
0.094203 0.500000 0.000000
0.101449 0.500000 0.000000
0.108696 0.500000 0.000000
0.115942 0.500000 0.000000
0.123188 0.500000 0.000000
0.130435 0.500000 0.000000
0.137681 0.500000 0.000000
0.144928 0.500000 0.000000
0.152174 0.500000 0.000000
0.159420 0.500000 0.000000
0.166667 0.500000 0.000000
0.173913 0.500000 0.000000
0.181159 0.500000 0.000000
0.188406 0.500000 0.000000
0.195652 0.500000 0.000000
0.202899 0.500000 0.000000
0.210145 0.500000 0.000000
0.217391 0.500000 0.000000
0.224638 0.500000 0.000000
0.231884 0.500000 0.000000
0.239130 0.500000 0.000000
0.246377 0.500000 0.000000
0.253623 0.500000 0.000000
0.260870 0.500000 0.000000
0.268116 0.500000 0.000000
0.275362 0.500000 0.000000
0.282609 0.500000 0.000000
0.289855 0.500000 0.000000
0.297101 0.500000 0.000000
0.304348 0.500000 0.000000
0.311594 0.500000 0.000000
0.318841 0.500000 0.000000
0.326087 0.500000 0.000000
0.333333 0.500000 0.000000
0.340580 0.500000 0.000000
0.347826 0.500000 0.000000
0.355072 0.500000 0.000000
0.362319 0.500000 0.000000
0.369565 0.500000 0.000000
0.376812 0.500000 0.000000
0.384058 0.500000 0.000000
0.391304 0.500000 0.000000
0.398551 0.500000 0.000000
0.405797 0.500000 0.000000
0.413043 0.500000 0.000000
0.420290 0.500000 0.000000
0.427536 0.500000 0.000000
0.434783 0.500000 0.000000
0.442029 0.500000 0.000000
0.449275 0.500000 0.000000
0.456522 0.500000 0.000000
0.463768 0.500000 0.000000
0.471014 0.500000 0.000000
0.478261 0.500000 0.000000
0.485507 0.500000 0.000000
0.492754 0.500000 0.000000
0.510004 0.500000 0.000000
0.520408 0.500000 0.000000
0.531229 0.500000 0.000000
0.542483 0.500000 0.000000
0.554187 0.500000 0.000000
0.566359 0.500000 0.000000
0.579019 0.500000 0.000000
0.592185 0.500000 0.000000
0.605877 0.500000 0.000000
0.620118 0.500000 0.000000
0.634929 0.500000 0.000000
0.650332 0.500000 0.000000
0.666352 0.500000 0.000000
0.683013 0.500000 0.000000
0.700340 0.500000 0.000000
0.718361 0.500000 0.000000
0.737103 0.500000 0.000000
0.756595 0.500000 0.000000
0.776867 0.500000 0.000000
0.797950 0.500000 0.000000
0.819877 0.500000 0.000000
0.842681 0.500000 0.000000
0.866398 0.500000 0.000000
0.891064 0.500000 0.000000
0.916716 0.500000 0.000000
0.943396 0.500000 0.000000
0.971143 0.500000 0.000000
0.000000 0.470588 0.000000
0.000000 0.441176 0.000000
0.000000 0.411765 0.000000
0.000000 0.382353 0.000000
0.000000 0.352941 0.000000
0.000000 0.323529 0.000000
0.000000 0.294118 0.000000
0.000000 0.264706 0.000000
0.000000 0.235294 0.000000
0.000000 0.205882 0.000000
0.000000 0.176471 0.000000
0.000000 0.147059 0.000000
0.000000 0.117647 0.000000
0.000000 0.088235 0.000000
0.000000 0.058824 0.000000
0.000000 0.029412 0.000000
0.500341 0.497365 0.000000
0.501682 0.495729 0.000000
0.503023 0.494094 0.000000
0.504365 0.492458 0.000000
0.505706 0.490823 0.000000
0.507047 0.489187 0.000000
0.508388 0.487552 0.000000
0.509729 0.485916 0.000000
0.511070 0.484281 0.000000
0.512411 0.482645 0.000000
0.513753 0.481010 0.000000
0.515094 0.479375 0.000000
0.516435 0.477739 0.000000
0.517776 0.476104 0.000000
0.519117 0.474468 0.000000
0.520458 0.472833 0.000000
0.521799 0.471197 0.000000
0.523140 0.469562 0.000000
0.524482 0.467926 0.000000
0.525823 0.466291 0.000000
0.527164 0.464656 0.000000
0.528505 0.463020 0.000000
0.529846 0.461385 0.000000
0.531187 0.459749 0.000000
0.532528 0.458114 0.000000
0.533870 0.456478 0.000000
0.535211 0.454843 0.000000
0.536552 0.453207 0.000000
0.537893 0.451572 0.000000
0.539234 0.449936 0.000000
0.540575 0.448301 0.000000
0.541916 0.446666 0.000000
0.543258 0.445030 0.000000
0.544599 0.443395 0.000000
0.545940 0.441759 0.000000
0.547281 0.440124 0.000000
0.548622 0.438488 0.000000
0.549963 0.436853 0.000000
0.551304 0.435217 0.000000
0.552645 0.433582 0.000000
0.553987 0.431946 0.000000
0.555328 0.430311 0.000000
0.556669 0.428676 0.000000
0.558010 0.427040 0.000000
0.559351 0.425405 0.000000
0.560692 0.423769 0.000000
0.562033 0.422134 0.000000
0.563375 0.420498 0.000000
0.564716 0.418863 0.000000
0.566057 0.417227 0.000000
0.567398 0.415592 0.000000
0.568739 0.413957 0.000000
0.570080 0.412321 0.000000
0.571421 0.410686 0.000000
0.572763 0.409050 0.000000
0.574104 0.407415 0.000000
0.575445 0.405779 0.000000
0.576786 0.404144 0.000000
0.578127 0.402508 0.000000
0.579468 0.400873 0.000000
0.580809 0.399237 0.000000
0.582151 0.397602 0.000000
0.583492 0.395967 0.000000
0.584833 0.394331 0.000000
0.586174 0.392696 0.000000
0.587515 0.391060 0.000000
0.588856 0.389425 0.000000
0.590197 0.387789 0.000000
0.591538 0.386154 0.000000
0.592880 0.384518 0.000000
0.594221 0.382883 0.000000
0.595562 0.381247 0.000000
0.596903 0.379612 0.000000
0.598244 0.377977 0.000000
0.599585 0.376341 0.000000
0.600926 0.374706 0.000000
0.602268 0.373070 0.000000
0.603609 0.371435 0.000000
0.604950 0.369799 0.000000
0.606291 0.368164 0.000000
0.607632 0.366528 0.000000
0.608973 0.364893 0.000000
0.610314 0.363258 0.000000
0.611656 0.361622 0.000000
0.612997 0.359987 0.000000
0.614338 0.358351 0.000000
0.615679 0.356716 0.000000
0.617020 0.355080 0.000000
0.618361 0.353445 0.000000
0.619702 0.351809 0.000000
0.621043 0.350174 0.000000
0.622385 0.348538 0.000000
0.623726 0.346903 0.000000
0.625067 0.345268 0.000000
0.626408 0.343632 0.000000
0.627749 0.341997 0.000000
0.629090 0.340361 0.000000
0.630431 0.338726 0.000000
0.631773 0.337090 0.000000
0.633114 0.335455 0.000000
0.634455 0.333819 0.000000
0.635796 0.332184 0.000000
0.637137 0.330548 0.000000
0.638478 0.328913 0.000000
0.639819 0.327278 0.000000
0.641161 0.325642 0.000000
0.642502 0.324007 0.000000
0.643843 0.322371 0.000000
0.645184 0.320736 0.000000
0.646525 0.319100 0.000000
0.647866 0.317465 0.000000
0.649207 0.315829 0.000000
0.650548 0.314194 0.000000
0.651890 0.312559 0.000000
0.653231 0.310923 0.000000
0.654572 0.309288 0.000000
0.655913 0.307652 0.000000
0.657254 0.306017 0.000000
0.658595 0.304381 0.000000
0.659936 0.302746 0.000000
0.661278 0.301110 0.000000
0.662619 0.299475 0.000000
0.663960 0.297839 0.000000
0.665301 0.296204 0.000000
0.666642 0.294569 0.000000
0.667983 0.292933 0.000000
0.669324 0.291298 0.000000
0.670666 0.289662 0.000000
0.672007 0.288027 0.000000
0.673348 0.286391 0.000000
0.674689 0.284756 0.000000
0.676030 0.283120 0.000000
0.677371 0.281485 0.000000
[...]
POINT_DATA 7341
SCALARS UX float 1
LOOKUP_TABLE default
0.000000
0.000000
0.285500
0.285500
0.039849
0.050964
0.167072
0.050532
0.000705
-0.000000
0.000000
0.000000
0.000000
0.000000
0.000000
0.000000
0.000000
0.000000
0.000000
0.000000
0.000000
0.000000
0.000000
0.000000
0.000000
0.000000
0.000000
0.000000
0.000000
0.000000
0.000000
0.000000
0.000000
0.000000
0.000000
0.000000
0.000000
0.000000
0.000000
0.000000
0.000000
-0.000000
0.007601
0.021155
0.031295
0.039621
0.045817
0.049659
0.058262
0.068686
0.077657
0.083177
0.094994
0.106199
0.116162
0.129595
0.141937
0.154205
0.178856
0.188615
0.198178
0.206632
0.213817
0.221158
0.228304
0.234855
0.240959
0.246962
0.252830
0.258593
0.264231
0.269719
0.275103
0.280341
0.285500
0.285500
0.285500
0.285500
0.285500
0.285500
0.285500
0.285500
0.285500
0.285500
0.285500
0.285500
0.285500
0.285500
0.285500
0.285500
0.285500
0.285500
0.285500
0.285500
0.285500
0.285500
0.285500
0.285500
0.285500
0.285500
0.285500
0.285500
0.285500
0.285500
0.285500
0.285500
0.285500
0.270213
0.254851
0.239416
0.223727
0.207901
0.191756
0.175439
0.159026
0.142786
0.126724
0.111658
0.097485
0.084492
0.072941
0.062698
0.053140
0.039565
0.039277
0.039000
0.038723
0.038465
0.038202
0.037930
0.037684
0.037550
0.037327
0.037114
0.037022
0.036963
0.036824
0.036705
0.036662
0.036653
0.037379
0.037457
0.037514
0.039048
0.040097
0.040180
0.040274
0.037128
0.041452
0.041601
0.041118
0.041259
0.041405
0.042213
0.040137
0.038927
0.040827
0.040668
0.043709
0.043861
0.040311
0.043127
0.043187
0.043085
0.042984
0.042847
0.042710
0.042579
0.042460
0.042337
0.042268
0.042192
0.042194
0.042226
0.042327
0.042529
0.042757
0.043015
0.043368
0.043728
0.044154
0.044616
0.045112
0.045624
0.046195
0.046781
0.047389
0.048000
0.048662
0.049311
0.050110
0.052248
0.053741
0.055389
0.057150
0.059042
0.061055
0.063159
0.065420
0.067780
0.070284
0.072884
0.075633
0.078570
0.081706
0.085608
0.089863
0.094600
0.099880
0.105709
0.111830
0.118129
0.123521
0.129366
0.136022
0.143324
0.151302
0.159239
0.033442
0.030018
0.026663
0.023848
0.021778
0.019549
0.017728
0.015879
0.014048
0.012537
0.011512
0.010021
0.009034
0.008153
0.007110
0.005581
0.050182
0.049835
0.049493
0.049151
0.048815
0.048484
0.048156
0.047836
0.047516
0.047202
0.046894
0.046586
0.046283
0.045981
0.045679
0.045380
0.045081
0.044792
0.044501
0.044214
0.043928
0.043645
0.043365
0.043084
0.042802
0.042523
0.042246
0.041969
0.041694
0.041420
0.041145
0.040872
0.040600
0.040328
0.040057
0.039789
0.039522
0.039257
0.038995
0.038736
0.038481
0.038230
0.037981
0.037740
0.037503
0.037268
0.037040
0.036816
0.036597
0.036382
0.036171
0.035966
0.035766
0.035573
0.035375
0.035156
0.034933
0.034711
0.034490
0.034269
0.034048
0.033829
0.033613
0.033399
0.033188
0.032981
0.032778
0.032579
0.032385
0.032195
0.032011
0.031830
0.031656
0.031484
0.031314
0.031135
0.030938
0.030729
0.030517
0.030302
0.030086
0.029869
0.029654
0.029440
0.029228
0.029019
0.028813
0.028611
0.028412
0.028217
0.028025
0.027841
0.027663
0.027491
0.027325
0.027169
0.027023
0.026883
0.026752
0.026628
0.026512
0.026405
0.026308
0.026219
0.026138
0.026067
0.026005
0.025953
0.025911
0.025875
0.025846
0.025823
0.025803
0.025790
0.025785
0.025791
0.025796
0.025773
0.025591
0.025382
0.025158
0.024927
0.024694
0.024462
0.024231
0.024001
0.023772
0.023545
0.023321
0.023099
0.022878
0.022660
0.022444
0.022230
0.022017
0.021806
0.021597
0.021390
0.021185
0.020981
0.020779
0.020579
0.020382
0.020186
0.019991
0.019796
0.019601
0.019407
0.019212
0.019018
0.018823
0.018629
0.018433
0.018236
0.018039
0.017841
0.017641
0.017440
0.017237
0.017034
0.016828
0.016621
0.016411
0.016199
0.015986
0.015771
0.015558
0.015343
0.015127
0.014910
0.014692
0.014474
0.014256
0.014039
0.013821
0.013603
0.013387
0.013170
0.012953
0.012738
0.012524
0.012309
0.012097
0.011886
0.011676
0.011467
0.011260
0.011054
0.010850
0.010647
0.010446
0.010247
0.010049
0.009854
0.009659
0.009468
0.009278
0.009091
0.008905
0.008722
0.008541
0.008362
0.008186
0.008013
0.007843
0.007675
0.007511
0.007350
0.007191
0.007035
0.006882
0.006733
0.006588
0.006445
0.006306
0.006171
0.006040
0.005913
0.005790
0.005669
0.005553
0.005441
0.005332
0.005226
0.005124
0.005026
0.004931
0.004840
0.004751
0.004666
0.004584
0.004506
0.004431
0.004357
0.004286
0.004217
0.004151
0.004088
0.004027
0.003968
0.003912
0.003858
0.003806
0.003757
0.003711
0.003667
0.003626
0.003587
0.003551
0.003519
0.003489
0.003459
0.003432
0.003405
0.003380
0.003354
0.003327
0.003301
0.003275
0.003249
0.003221
0.003195
0.003167
0.003138
0.003106
0.003075
0.003041
0.003006
0.002966
0.002926
0.002881
0.002834
0.002785
0.002736
0.002682
0.002619
0.002553
0.002483
0.002413
0.002336
0.002257
0.002176
0.002095
0.002013
0.001933
0.001853
0.001769
0.001686
0.001601
0.001515
0.001422
0.001330
0.001238
0.001147
0.001059
0.000972
0.000884
0.000797
0.032750
0.040850
0.040449
0.000452
0.000755
0.108948
0.000611
0.088024
0.034468
0.075327
0.072963
0.000184
0.016529
0.034452
0.042780
0.011385
0.063032
0.000092
0.000859
0.041922
0.021390
0.035161
0.057387
0.007646
0.043750
0.025070
0.036243
0.108520
0.125606
0.045506
0.002515
0.037160
0.040606
0.034341
0.033919
0.000663
0.051743
0.005214
0.046695
0.000579
0.040688
0.040455
0.040640
0.034872
0.002204
0.049357
0.001651
0.047561
0.032276
0.037378
0.000509
0.053614
0.030565
0.022736
0.000041
0.058808
0.067806
0.020562
0.078941
0.098225
0.053565
0.060082
0.000240
0.000370
0.042670
0.044432
0.014837
0.132559
0.139993
0.000715
0.113799
0.000791
0.086317
0.000482
0.041162
0.010345
0.000515
0.146325
0.006980
0.002974
0.005669
0.003323
0.003700
0.040781
0.033382
0.034374
0.040816
0.040788
0.040440
0.034086
0.034612
0.034369
0.034339
0.034369
0.034407
0.034594
0.036814
0.035923
0.035735
0.035516
0.048822
0.001304
0.049313
0.049801
0.038793
0.038526
0.001120
0.042568
0.001649
0.031618
0.077449
0.000850
0.015367
0.032594
0.046983
0.045757
0.000386
0.100584
0.016201
0.020226
0.053918
0.010604
0.000997
0.032037
0.048556
0.001267
0.047648
0.049131
0.038653
0.033926
0.006126
0.127592
0.048305
0.051505
0.000915
0.032515
0.030382
0.000157
0.055752
0.046551
0.039431
0.061178
0.000069
0.023921
0.045033
0.065667
0.010027
0.070574
0.018767
0.066393
0.076206
0.084050
0.000484
0.093714
0.001514
0.104150
0.043356
0.000789
0.097196
0.000602
0.119006
0.042335
0.118823
0.000425
0.013137
0.133299
0.041541
0.000662
0.008878
0.004215
0.001989
0.005193
0.040896
0.040541
0.034804
0.039833
0.040274
0.040255
0.040562
0.039997
0.032942
0.033816
0.033157
0.034111
0.034145
0.033939
0.049381
0.050216
0.033912
0.034642
0.034753
0.050702
0.036073
0.034081
0.036528
0.048442
0.048883
0.048455
0.041306
0.002372
0.085333
0.070808
0.036376
0.061221
0.039822
0.053003
0.044717
0.032836
0.000925
0.040740
0.012124
0.110169
0.122702
0.001475
0.003750
0.001569
0.039145
0.032189
0.000583
0.033180
0.038716
0.047747
0.017148
0.031682
0.038058
0.032993
0.043665
0.000732
0.112124
0.057529
0.054856
0.032242
0.000380
0.090611
0.065642
0.001603
0.092225
0.061650
0.053658
0.001236
0.076318
0.013992
0.047472
0.001105
0.001323
0.000971
0.048776
0.000383
0.023875
0.041537
0.042022
0.047146
0.104873
0.096572
0.001170
0.021998
0.068504
0.009417
0.047962
0.008022
0.006941
0.001036
0.005416
0.004703
0.038663
0.038615
0.038705
0.038392
0.036374
0.000445
0.038694
0.026737
0.029662
0.032684
0.052174
0.031657
0.032848
0.034879
0.032433
0.032416
0.032139
0.038408
0.034187
0.032729
0.047772
0.048035
0.047890
0.032172
0.049224
0.034827
0.008572
0.049840
0.047485
0.046943
0.042978
0.050509
0.037524
0.036302
0.040965
0.001871
0.085933
0.063565
0.001781
0.013425
0.031049
0.000900
0.002004
0.096921
0.016983
0.021964
0.000897
0.051206
0.008747
0.037117
0.032709
0.031531
0.002374
0.030978
0.001583
0.044680
0.078165
0.059203
0.063506
0.001489
0.068620
0.043577
0.040102
0.011390
0.079870
0.001565
0.040255
0.025508
0.050403
0.039897
0.116346
0.016451
0.100783
0.046733
0.002509
0.047049
0.007396
0.006306
0.004509
0.004917
0.073196
0.040930
0.002345
0.002495
0.039431
0.001607
0.038794
0.038680
0.089257
0.033915
0.032257
0.031596
0.038449
0.026497
0.031843
0.037918
0.032783
0.047078
0.037054
0.000492
0.030980
0.030848
0.031747
0.018816
0.035048
0.028015
0.034179
0.032276
0.042422
0.048386
0.046787
0.047294
0.047461
0.033314
0.031128
0.030943
0.046832
0.087650
0.032291
0.047042
0.049053
0.046571
0.051143
0.002343
0.003068
0.079115
0.002590
0.066262
0.030091
0.060061
0.035241
0.012581
0.054196
0.029725
0.000978
0.048433
0.049479
0.036565
0.046065
0.046345
0.071887
0.039082
0.003257
0.008122
0.002398
0.030985
0.052301
0.020390
0.005413
0.001810
0.002116
0.028414
0.037134
0.036861
0.000863
0.013235
0.058567
0.032028
0.047659
0.034875
0.095823
0.106977
0.061012
0.031160
0.030556
0.048111
0.055780
0.024426
0.001718
0.039502
0.092663
0.071214
0.038548
0.037778
0.003618
0.018496
0.046249
0.102391
0.030592
0.006904
0.023616
0.001821
0.001516
0.014994
0.081690
0.010114
0.005811
0.040504
0.042902
0.041479
0.045916
0.036767
0.002077
0.036188
0.036792
0.079577
0.001025
0.030655
0.042335
0.036230
0.038549
0.047128
0.045615
0.031243
0.030958
0.046526
0.030497
0.027652
0.030786
0.028796
0.000771
0.046525
0.030591
0.057867
0.047641
0.033500
0.030683
0.046344
0.036190
0.034265
0.040017
0.065751
0.056439
0.001552
0.050862
0.021949
0.019350
0.013873
0.035644
0.001517
0.085588
0.029421
0.002487
0.032314
0.047353
0.047659
0.038521
0.024890
0.001116
0.040233
0.009538
0.002641
0.003309
0.037356
0.048162
0.001328
0.052449
0.029179
0.045724
0.044585
0.067769
0.029684
0.029668
0.014219
0.002538
0.011020
0.082290
0.002902
0.005029
0.064642
0.003375
0.007686
0.001230
0.046403
0.094091
0.074881
0.075530
0.023080
0.006494
0.051494
0.002364
0.002557
0.041130
0.052656
0.038993
0.045840
0.017733
0.104631
0.046377
0.035889
0.036690
0.030807
0.038142
0.029039
0.035384
0.029671
0.046039
0.047047
0.031294
0.002863
0.029434
0.049637
0.036189
0.030792
0.036506
0.036655
0.041706
0.002290
0.009190
0.053511
0.054507
0.047329
0.031807
0.036251
0.045506
0.019741
0.029624
0.114834
0.045995
0.037834
0.088129
0.043444
0.034346
0.046028
0.046027
0.030553
0.036261
0.003519
0.070576
0.003309
0.061917
0.035319
0.016505
0.018963
0.013760
0.004025
0.001554
0.046287
0.034617
0.004191
0.072711
0.024379
0.034449
0.001805
0.075648
0.067515
0.003217
0.034047
0.039809
0.002114
0.044348
0.042307
0.035100
0.036529
0.031485
0.059676
0.035646
0.028106
0.049710
0.037499
0.029363
0.016031
0.034167
0.044790
0.029465
0.010408
0.021311
0.003951
0.050293
0.089811
0.002425
0.000768
0.008074
0.002790
0.050499
0.011198
0.046339
0.003060
0.050044
0.006117
0.022919
0.058069
0.026421
0.001583
0.009027
0.003939
0.043773
0.046365
0.045255
0.045153
0.073808
0.039462
0.041155
0.034910
0.096575
0.002777
0.029386
0.034889
0.001387
0.045497
0.028325
0.082122
0.045616
0.045466
0.032872
0.036935
0.031075
0.028969
0.037166
0.011960
0.029243
0.026572
0.046492
0.017345
0.056295
0.045396
0.031560
0.001729
0.046893
0.036922
0.045505
0.045621
0.004919
0.002479
0.020527
0.001949
0.009546
0.055186
0.001713
0.006133
0.033762
0.010038
0.045530
0.046282
0.003866
0.027996
0.020608
0.078360
0.046258
0.003250
0.002192
0.068868
0.003563
0.007257
0.004375
0.003200
0.037968
0.042629
0.044974
0.033853
0.027753
0.005491
0.047562
0.046898
0.044719
0.044128
0.048629
0.040463
0.064491
0.001317
0.082471
0.035400
0.073189
0.078797
0.022716
0.012191
0.027828
0.032592
0.031433
0.032314
0.003386
0.028485
0.002019
0.003702
0.001982
0.048333
0.030576
0.062400
0.084040
0.034285
0.017973
0.003658
0.006429
0.017397
0.039830
0.014067
0.038640
0.041162
0.043370
0.045427
0.034045
0.069773
0.035806
0.034977
0.034612
0.030258
0.029431
0.004385
0.034634
0.028552
0.088329
0.028043
0.044991
0.045914
0.035439
0.029174
0.045094
0.000300
0.049040
0.060834
0.045277
0.003599
0.044881
0.015442
0.035965
0.002714
0.046723
0.034468
0.004076
0.004085
0.065282
0.056750
0.029098
0.027832
0.015079
0.002567
0.033034
0.053239
0.020255
0.005647
0.044819
0.002078
0.001832
0.026993
0.045179
0.032375
0.004507
0.005248
0.044437
0.043984
0.006006
0.060550
0.066242
0.069849
0.003465
0.028333
0.033372
0.031538
0.023858
0.033838
0.049946
0.001001
0.037260
0.006189
0.073019
0.003834
0.044586
0.023027
0.004344
0.045236
0.044231
0.004355
0.027549
0.008773
0.046503
0.036494
0.002014
0.011542
0.044761
0.002344
0.028088
0.003073
0.004047
0.003144
0.047266
0.068478
0.006735
0.018781
0.040485
0.004821
0.043331
0.041455
0.013486
0.038460
0.033005
0.032387
0.032100
0.027023
0.034771
0.033016
0.026096
0.030532
0.016876
0.027611
0.057122
0.035383
0.047320
0.004447
0.034019
0.045055
0.044782
0.011672
0.002375
0.022062
0.075837
0.064337
0.036882
0.005891
0.059751
0.052357
0.021527
0.014836
0.002957
0.010106
0.018305
0.002517
0.064938
0.004271
0.021537
0.031893
0.044376
0.040067
0.004738
0.045030
0.011361
0.043273
0.033668
0.035045
0.003985
0.045456
0.004525
0.045323
0.047751
0.003629
0.031985
0.026211
0.005165
0.006614
0.057674
0.031122
0.054806
0.030241
0.031236
0.030806
0.034306
0.062557
0.004203
0.004883
0.005432
0.043164
0.002639
0.002492
0.004493
0.025621
0.003962
0.008041
0.063568
0.067550
0.001515
0.067499
0.045222
0.026989
0.005457
0.059171
0.044397
0.042314
0.003624
0.039210
0.027458
0.038508
0.032498
0.004052
0.043857
0.032640
0.026576
0.045335
0.033906
0.044737
0.028309
0.032257
0.032635
0.026372
0.002440
0.026567
0.023624
0.013069
0.044255
0.018128
0.044467
0.073198
0.058132
0.032580
0.000884
0.029424
0.035764
0.044697
0.044118
0.016433
0.002603
0.002193
0.044119
0.008551
0.034384
0.031435
0.005039
0.045675
0.058848
0.014429
0.005089
0.050983
0.017885
0.026264
0.003357
0.007190
0.005174
0.042181
0.002946
0.060329
0.043289
0.002553
0.002366
0.040237
0.054930
0.043040
0.004799
0.030665
0.059569
0.003503
0.005250
0.023090
0.005589
0.014169
0.044532
0.006180
0.030845
0.033184
0.025790
0.029713
0.045416
0.012615
0.009854
0.005291
0.043462
0.002367
0.019778
0.011660
0.025119
0.061157
0.025375
0.029240
0.027805
0.064655
0.004989
0.004911
0.057466
0.004527
0.005577
0.002065
0.006253
0.050426
0.003087
0.007425
0.053278
0.042324
0.044476
0.038713
0.037179
0.003223
0.031072
0.043142
0.044111
0.044187
0.043847
0.033339
0.007043
0.030234
0.015610
0.025753
0.032542
0.042246
0.030821
0.003256
0.031036
0.027163
0.024938
0.043793
0.004986
0.031117
0.054038
0.025256
0.007878
0.039144
0.001239
0.002650
0.045117
0.000388
0.003218
0.061929
0.043560
0.044365
0.041299
0.035327
0.016077
0.004370
0.062375
0.033818
0.057728
0.044099
0.043633
0.001131
0.033862
0.005766
0.006460
0.054940
0.043255
0.014021
0.049910
0.019559
0.005549
0.003925
0.010810
0.025938
0.017301
0.006546
0.058287
0.004087
0.042124
0.052021
0.030071
0.002453
0.028844
0.032318
0.006276
0.014045
0.004171
0.001804
0.002733
0.005680
0.052646
0.004915
0.004937
0.003517
0.055720
0.055942
0.006003
0.055207
0.001915
0.043042
0.055841
0.041289
0.039200
0.006113
0.032800
0.040868
0.043319
0.043848
0.029726
0.028872
0.021714
0.006170
0.004574
0.011104
0.006947
0.006154
0.060427
0.050935
0.042424
0.035822
0.032488
0.043575
0.025137
0.026887
0.030482
0.037994
0.048135
0.015075
0.031043
0.024543
0.001606
0.043896
0.033365
0.030284
0.025114
0.043746
0.043449
0.028104
0.024278
0.030160
0.019421
0.003042
0.017871
0.005203
0.043327
0.043934
0.043606
0.046703
0.002945
0.045856
0.030235
0.015723
0.040184
0.034746
0.043712
0.006195
0.042982
0.002682
0.057157
0.042794
0.044144
0.003185
0.009158
0.008740
0.003296
0.029806
0.034463
0.007076
0.007030
0.051469
0.039102
0.047168
0.015383
0.005123
0.007259
0.003770
0.024336
0.003453
0.049536
0.054433
0.039601
0.002988
0.027963
0.053896
0.008454
0.002696
0.031766
0.005818
0.012247
0.042125
0.006363
0.001961
0.032627
0.016968
0.005900
0.007357
0.052476
0.043560
0.004198
0.042417
0.051556
0.023809
0.006444
0.048261
0.006216
0.047866
0.042528
0.005376
0.005711
0.005948
0.004792
0.006905
0.012272
0.023652
0.026851
0.036600
0.031209
0.031846
0.012621
0.047113
0.002271
0.049552
0.043753
0.042918
0.037970
0.003799
0.041051
0.040220
0.016203
0.036043
0.029138
0.028883
0.028738
0.027941
0.012654
0.026464
0.049166
0.032978
0.043902
0.043053
0.005994
0.028627
0.029470
0.022898
0.052867
0.043175
0.043286
0.003404
0.019355
0.002857
0.017276
0.029169
0.054512
0.025648
0.037149
0.042255
0.023982
0.002138
0.043038
0.041933
0.042989
0.055822
0.048415
0.004092
0.042970
0.024520
0.005500
0.043429
0.042774
0.002726
0.043281
0.037417
0.006524
0.038027
0.040991
0.047994
0.020391
0.044919
0.046012
0.004757
0.006059
0.011297
0.016692
0.005240
0.034586
0.044710
0.007205
0.049860
0.003973
0.002182
0.035256
0.028171
0.003756
0.002898
0.044713
0.002694
0.041162
0.046340
0.003098
0.004838
0.030359
0.027323
0.002153
0.052181
0.041870
0.011362
0.003771
0.003809
0.045111
0.005720
0.006612
0.021830
0.040056
0.009602
0.023310
0.050579
0.026702
0.006966
0.043548
0.024527
0.036816
0.006821
0.010411
0.005896
0.042495
0.049846
0.006774
0.042641
0.051946
0.002626
0.042528
0.031081
0.012973
0.015926
0.007379
0.002124
0.007919
0.013937
0.030474
0.006879
0.042027
0.036264
0.003576
0.042355
0.042681
0.029349
0.026957
0.001959
0.030519
0.041220
0.042514
0.039267
0.042878
0.028587
0.043451
0.028364
0.007790
0.010042
0.004642
0.041471
0.010718
0.042633
0.027578
0.019094
0.003103
0.046814
0.044470
0.028379
0.042759
0.049296
0.022931
0.003401
0.042629
0.042513
0.007030
0.042095
0.031027
0.007448
0.033911
0.030197
0.036917
0.008094
0.006628
0.008122
0.038912
0.041840
0.049418
0.040828
0.045017
0.043895
0.010637
0.025750
0.008959
0.042344
0.004959
0.004328
0.022861
0.025282
0.041526
0.028932
0.002552
0.003388
0.028121
0.046134
0.003121
0.002117
0.027466
0.002985
0.007678
0.003201
0.027313
0.009480
0.012160
0.026299
0.001583
0.005634
0.006419
0.041844
0.027141
0.039258
0.048819
0.048375
0.006638
0.010015
0.007208
0.006843
0.007457
0.036744
0.008305
0.014280
0.008352
0.015128
0.042067
0.042150
0.018107
0.026423
0.003862
0.042274
0.029557
0.045594
0.004793
0.021727
0.041547
0.035734
0.040480
0.042238
0.027239
0.008637
0.042752
0.029690
0.038251
0.014478
0.003215
0.022729
0.042031
0.003810
0.003694
0.047322
0.043058
0.041919
0.054649
0.044514
0.003722
0.001878
0.007261
0.027587
0.007940
0.042215
0.002476
0.002466
0.034922
0.003386
0.007449
0.053559
0.042420
0.041988
0.041178
0.020534
0.002160
0.041309
0.010321
0.047400
0.043968
0.001632
0.005739
0.025947
0.023235
0.028718
0.007300
0.035651
0.009213
0.008098
0.044459
0.024388
0.044375
0.007726
0.041997
0.042875
0.041288
0.015419
0.006634
0.016138
0.009612
0.046543
0.039583
0.008482
0.047959
0.004884
0.004324
0.005443
0.004067
0.026187
0.002615
0.004047
0.009174
0.033634
0.002714
0.003401
0.032534
0.002661
0.007888
0.021835
0.002326
0.001790
0.041401
0.026647
0.005628
0.007678
0.043244
0.046495
0.041782
0.041859
0.048045
0.012058
0.040605
0.017433
0.032344
0.041815
0.050075
0.043027
0.002811
0.027506
0.001290
0.007856
0.008022
0.004368
0.037193
0.041263
0.006791
0.013452
0.040932
0.008477
0.024837
0.009943
0.004316
0.022096
0.028845
0.025115
0.041730
0.050116
0.010962
0.041948
0.023557
0.022937
0.033203
0.041820
0.026737
0.041519
0.041065
0.003605
0.041138
0.006305
0.042051
0.003978
0.025664
0.049924
0.020602
0.051956
0.028877
0.040507
0.038353
0.007804
0.002847
0.042056
0.006617
0.026733
0.006691
0.036007
0.008295
0.010810
0.003485
0.032075
0.041367
0.041409
0.040554
0.041106
0.003714
0.009878
0.041725
0.003116
0.022925
0.001475
0.020570
0.040684
0.008206
0.028756
0.004171
0.056646
0.026574
0.008800
0.040548
0.043803
0.014766
0.041101
0.009961
0.036117
0.005787
0.040213
0.004898
0.042736
0.022038
0.008989
0.004441
0.038572
0.020977
0.041438
0.046639
0.031915
0.003560
0.017587
0.039742
0.004475
0.009077
0.031963
0.030723
0.008489
0.003726
0.025798
0.044788
0.001273
0.040815
0.006465
0.004385
0.002833
0.040716
0.002972
0.003418
0.008416
0.012595
0.001380
0.003206
0.024004
0.024026
0.044878
0.006163
0.028796
0.010439
0.007608
0.007782
0.040785
0.042204
0.042187
0.041444
0.041229
0.007454
0.002666
0.045505
0.040502
0.008617
0.034493
0.004282
0.011325
0.005192
0.005047
0.038808
0.004404
0.019750
0.001929
0.002294
0.035467
0.040433