# vtk DataFile Version 2.0
Test
ASCII
DATASET POLYDATA
POINTS 7341 float
0.000000 0.000000 0.000000
1.000000 0.000000 0.000000
1.000000 1.000000 0.000000
0.000000 1.000000 0.000000
0.000000 0.500000 0.000000
0.500000 0.500000 0.000000
1.000000 0.500000 0.000000
0.499000 0.499000 0.000000
0.900000 0.010000 0.000000
0.029412 0.000000 0.000000
0.058824 0.000000 0.000000
0.088235 0.000000 0.000000
0.117647 0.000000 0.000000
0.147059 0.000000 0.000000
0.176471 0.000000 0.000000
0.205882 0.000000 0.000000
0.235294 0.000000 0.000000
0.264706 0.000000 0.000000
0.294118 0.000000 0.000000
0.323529 0.000000 0.000000
0.352941 0.000000 0.000000
0.382353 0.000000 0.000000
0.411765 0.000000 0.000000
0.441176 0.000000 0.000000
0.470588 0.000000 0.000000
0.500000 0.000000 0.000000
0.529412 0.000000 0.000000
0.558824 0.000000 0.000000
0.588235 0.000000 0.000000
0.617647 0.000000 0.000000
0.647059 0.000000 0.000000
0.676471 0.000000 0.000000
0.705882 0.000000 0.000000
0.735294 0.000000 0.000000
0.764706 0.000000 0.000000
0.794118 0.000000 0.000000
0.823529 0.000000 0.000000
0.852941 0.000000 0.000000
0.882353 0.000000 0.000000
0.911765 0.000000 0.000000
0.941176 0.000000 0.000000
0.970588 0.000000 0.000000
1.000000 0.029412 0.000000
1.000000 0.058824 0.000000
1.000000 0.088235 0.000000
1.000000 0.117647 0.000000
1.000000 0.147059 0.000000
1.000000 0.176471 0.000000
1.000000 0.205882 0.000000
1.000000 0.235294 0.000000
1.000000 0.264706 0.000000
1.000000 0.294118 0.000000
1.000000 0.323529 0.000000
1.000000 0.352941 0.000000
1.000000 0.382353 0.000000
1.000000 0.411765 0.000000
1.000000 0.441176 0.000000
1.000000 0.470588 0.000000
1.000000 0.529412 0.000000
1.000000 0.558824 0.000000
1.000000 0.588235 0.000000
1.000000 0.617647 0.000000
1.000000 0.647059 0.000000
1.000000 0.676471 0.000000
1.000000 0.705882 0.000000
1.000000 0.735294 0.000000
1.000000 0.764706 0.000000
1.000000 0.794118 0.000000
1.000000 0.823529 0.000000
1.000000 0.852941 0.000000
1.000000 0.882353 0.000000
1.000000 0.911765 0.000000
1.000000 0.941176 0.000000
1.000000 0.970588 0.000000
0.970588 1.000000 0.000000
0.941176 1.000000 0.000000
0.911765 1.000000 0.000000
0.882353 1.000000 0.000000
0.852941 1.000000 0.000000
0.823529 1.000000 0.000000
0.794118 1.000000 0.000000
0.764706 1.000000 0.000000
0.735294 1.000000 0.000000
0.705882 1.000000 0.000000
0.676471 1.000000 0.000000
0.647059 1.000000 0.000000
0.617647 1.000000 0.000000
0.588235 1.000000 0.000000
0.558824 1.000000 0.000000
0.529412 1.000000 0.000000
0.500000 1.000000 0.000000
0.470588 1.000000 0.000000
0.441176 1.000000 0.000000
0.411765 1.000000 0.000000
0.382353 1.000000 0.000000
0.352941 1.000000 0.000000
0.323529 1.000000 0.000000
0.294118 1.000000 0.000000
0.264706 1.000000 0.000000
0.235294 1.000000 0.000000
0.205882 1.000000 0.000000
0.176471 1.000000 0.000000
0.147059 1.000000 0.000000
0.117647 1.000000 0.000000
0.088235 1.000000 0.000000
0.058824 1.000000 0.000000
0.029412 1.000000 0.000000
0.000000 0.970588 0.000000
0.000000 0.941176 0.000000
0.000000 0.911765 0.000000
0.000000 0.882353 0.000000
0.000000 0.852941 0.000000
0.000000 0.823529 0.000000
0.000000 0.794118 0.000000
0.000000 0.764706 0.000000
0.000000 0.735294 0.000000
0.000000 0.705882 0.000000
0.000000 0.676471 0.000000
0.000000 0.647059 0.000000
0.000000 0.617647 0.000000
0.000000 0.588235 0.000000
0.000000 0.558824 0.000000
0.000000 0.529412 0.000000
0.007246 0.500000 0.000000
0.014493 0.500000 0.000000
0.021739 0.500000 0.000000
0.028986 0.500000 0.000000
0.036232 0.500000 0.000000
0.043478 0.500000 0.000000
0.050725 0.500000 0.000000
0.057971 0.500000 0.000000
0.065217 0.500000 0.000000
0.072464 0.500000 0.000000
0.079710 0.500000 0.000000
0.086957 0.500000 0.000000
0.094203 0.500000 0.000000
0.101449 0.500000 0.000000
0.108696 0.500000 0.000000
0.115942 0.500000 0.000000
0.123188 0.500000 0.000000
0.130435 0.500000 0.000000
0.137681 0.500000 0.000000
0.144928 0.500000 0.000000
0.152174 0.500000 0.000000
0.159420 0.500000 0.000000
0.166667 0.500000 0.000000
0.173913 0.500000 0.000000
0.181159 0.500000 0.000000
0.188406 0.500000 0.000000
0.195652 0.500000 0.000000
0.202899 0.500000 0.000000
0.210145 0.500000 0.000000
0.217391 0.500000 0.000000
0.224638 0.500000 0.000000
0.231884 0.500000 0.000000
0.239130 0.500000 0.000000
0.246377 0.500000 0.000000
0.253623 0.500000 0.000000
0.260870 0.500000 0.000000
0.268116 0.500000 0.000000
0.275362 0.500000 0.000000
0.282609 0.500000 0.000000
0.289855 0.500000 0.000000
0.297101 0.500000 0.000000
0.304348 0.500000 0.000000
0.311594 0.500000 0.000000
0.318841 0.500000 0.000000
0.326087 0.500000 0.000000
0.333333 0.500000 0.000000
0.340580 0.500000 0.000000
0.347826 0.500000 0.000000
0.355072 0.500000 0.000000
0.362319 0.500000 0.000000
0.369565 0.500000 0.000000
0.376812 0.500000 0.000000
0.384058 0.500000 0.000000
0.391304 0.500000 0.000000
0.398551 0.500000 0.000000
0.405797 0.500000 0.000000
0.413043 0.500000 0.000000
0.420290 0.500000 0.000000
0.427536 0.500000 0.000000
0.434783 0.500000 0.000000
0.442029 0.500000 0.000000
0.449275 0.500000 0.000000
0.456522 0.500000 0.000000
0.463768 0.500000 0.000000
0.471014 0.500000 0.000000
0.478261 0.500000 0.000000
0.485507 0.500000 0.000000
0.492754 0.500000 0.000000
0.510004 0.500000 0.000000
0.520408 0.500000 0.000000
0.531229 0.500000 0.000000
0.542483 0.500000 0.000000
0.554187 0.500000 0.000000
0.566359 0.500000 0.000000
0.579019 0.500000 0.000000
0.592185 0.500000 0.000000
0.605877 0.500000 0.000000
0.620118 0.500000 0.000000
0.634929 0.500000 0.000000
0.650332 0.500000 0.000000
0.666352 0.500000 0.000000
0.683013 0.500000 0.000000
0.700340 0.500000 0.000000
0.718361 0.500000 0.000000
0.737103 0.500000 0.000000
0.756595 0.500000 0.000000
0.776867 0.500000 0.000000
0.797950 0.500000 0.000000
0.819877 0.500000 0.000000
0.842681 0.500000 0.000000
0.866398 0.500000 0.000000
0.891064 0.500000 0.000000
0.916716 0.500000 0.000000
0.943396 0.500000 0.000000
0.971143 0.500000 0.000000
0.000000 0.470588 0.000000
0.000000 0.441176 0.000000
0.000000 0.411765 0.000000
0.000000 0.382353 0.000000
0.000000 0.352941 0.000000
0.000000 0.323529 0.000000
0.000000 0.294118 0.000000
0.000000 0.264706 0.000000
0.000000 0.235294 0.000000
0.000000 0.205882 0.000000
0.000000 0.176471 0.000000
0.000000 0.147059 0.000000
0.000000 0.117647 0.000000
0.000000 0.088235 0.000000
0.000000 0.058824 0.000000
0.000000 0.029412 0.000000
0.500341 0.497365 0.000000
0.501682 0.495729 0.000000
0.503023 0.494094 0.000000
0.504365 0.492458 0.000000
0.505706 0.490823 0.000000
0.507047 0.489187 0.000000
0.508388 0.487552 0.000000
0.509729 0.485916 0.000000
0.511070 0.484281 0.000000
0.512411 0.482645 0.000000
0.513753 0.481010 0.000000
0.515094 0.479375 0.000000
0.516435 0.477739 0.000000
0.517776 0.476104 0.000000
0.519117 0.474468 0.000000
0.520458 0.472833 0.000000
0.521799 0.471197 0.000000
0.523140 0.469562 0.000000
0.524482 0.467926 0.000000
0.525823 0.466291 0.000000
0.527164 0.464656 0.000000
0.528505 0.463020 0.000000
0.529846 0.461385 0.000000
0.531187 0.459749 0.000000
0.532528 0.458114 0.000000
0.533870 0.456478 0.000000
0.535211 0.454843 0.000000
0.536552 0.453207 0.000000
0.537893 0.451572 0.000000
0.539234 0.449936 0.000000
0.540575 0.448301 0.000000
0.541916 0.446666 0.000000
0.543258 0.445030 0.000000
0.544599 0.443395 0.000000
0.545940 0.441759 0.000000
0.547281 0.440124 0.000000
0.548622 0.438488 0.000000
0.549963 0.436853 0.000000
0.551304 0.435217 0.000000
0.552645 0.433582 0.000000
0.553987 0.431946 0.000000
0.555328 0.430311 0.000000
0.556669 0.428676 0.000000
0.558010 0.427040 0.000000
0.559351 0.425405 0.000000
0.560692 0.423769 0.000000
0.562033 0.422134 0.000000
0.563375 0.420498 0.000000
0.564716 0.418863 0.000000
0.566057 0.417227 0.000000
0.567398 0.415592 0.000000
0.568739 0.413957 0.000000
0.570080 0.412321 0.000000
0.571421 0.410686 0.000000
0.572763 0.409050 0.000000
0.574104 0.407415 0.000000
0.575445 0.405779 0.000000
0.576786 0.404144 0.000000
0.578127 0.402508 0.000000
0.579468 0.400873 0.000000
0.580809 0.399237 0.000000
0.582151 0.397602 0.000000
0.583492 0.395967 0.000000
0.584833 0.394331 0.000000
0.586174 0.392696 0.000000
0.587515 0.391060 0.000000
0.588856 0.389425 0.000000
0.590197 0.387789 0.000000
0.591538 0.386154 0.000000
0.592880 0.384518 0.000000
0.594221 0.382883 0.000000
0.595562 0.381247 0.000000
0.596903 0.379612 0.000000
0.598244 0.377977 0.000000
0.599585 0.376341 0.000000
0.600926 0.374706 0.000000
0.602268 0.373070 0.000000
0.603609 0.371435 0.000000
0.604950 0.369799 0.000000
0.606291 0.368164 0.000000
0.607632 0.366528 0.000000
0.608973 0.364893 0.000000
0.610314 0.363258 0.000000
0.611656 0.361622 0.000000
0.612997 0.359987 0.000000
0.614338 0.358351 0.000000
0.615679 0.356716 0.000000
0.617020 0.355080 0.000000
0.618361 0.353445 0.000000
0.619702 0.351809 0.000000
0.621043 0.350174 0.000000
0.622385 0.348538 0.000000
0.623726 0.346903 0.000000
0.625067 0.345268 0.000000
0.626408 0.343632 0.000000
0.627749 0.341997 0.000000
0.629090 0.340361 0.000000
0.630431 0.338726 0.000000
0.631773 0.337090 0.000000
0.633114 0.335455 0.000000
0.634455 0.333819 0.000000
0.635796 0.332184 0.000000
0.637137 0.330548 0.000000
0.638478 0.328913 0.000000
0.639819 0.327278 0.000000
0.641161 0.325642 0.000000
0.642502 0.324007 0.000000
0.643843 0.322371 0.000000
0.645184 0.320736 0.000000
0.646525 0.319100 0.000000
0.647866 0.317465 0.000000
0.649207 0.315829 0.000000
0.650548 0.314194 0.000000
0.651890 0.312559 0.000000
0.653231 0.310923 0.000000
0.654572 0.309288 0.000000
0.655913 0.307652 0.000000
0.657254 0.306017 0.000000
0.658595 0.304381 0.000000
0.659936 0.302746 0.000000
0.661278 0.301110 0.000000
0.662619 0.299475 0.000000
0.663960 0.297839 0.000000
0.665301 0.296204 0.000000
0.666642 0.294569 0.000000
0.667983 0.292933 0.000000
0.669324 0.291298 0.000000
0.670666 0.289662 0.000000
0.672007 0.288027 0.000000
0.673348 0.286391 0.000000
0.674689 0.284756 0.000000
0.676030 0.283120 0.000000
0.677371 0.281485 0.000000
[...]
POINT_DATA 7341
SCALARS UX float 1
LOOKUP_TABLE default
0.000000
0.000000
0.248000
0.248000
0.091368
0.080213
0.074981
0.072553
0.000157
-0.000000
0.000000
0.000000
0.000000
0.000000
0.000000
0.000000
0.000000
0.000000
0.000000
0.000000
0.000000
0.000000
0.000000
0.000000
0.000000
0.000000
0.000000
0.000000
0.000000
0.000000
0.000000
0.000000
0.000000
0.000000
0.000000
0.000000
0.000000
0.000000
0.000000
0.000000
0.000000
-0.000000
0.002232
0.003496
0.004924
0.006705
0.008779
0.010718
0.012970
0.015359
0.018219
0.021571
0.025343
0.029850
0.035532
0.042555
0.051822
0.061804
0.088225
0.100487
0.113095
0.125451
0.137218
0.148327
0.158852
0.168682
0.178143
0.187429
0.196384
0.205196
0.213895
0.222500
0.231056
0.239546
0.248000
0.248000
0.248000
0.248000
0.248000
0.248000
0.248000
0.248000
0.248000
0.248000
0.248000
0.248000
0.248000
0.248000
0.248000
0.248000
0.248000
0.248000
0.248000
0.248000
0.248000
0.248000
0.248000
0.248000
0.248000
0.248000
0.248000
0.248000
0.248000
0.248000
0.248000
0.248000
0.248000
0.240825
0.233622
0.226399
0.219085
0.211731
0.204200
0.196645
0.188813
0.180503
0.171961
0.161662
0.150234
0.138424
0.126827
0.115299
0.103929
0.089835
0.088727
0.086903
0.085525
0.084569
0.084324
0.083353
0.082758
0.079804
0.077761
0.077610
0.076075
0.074148
0.073851
0.071958
0.073571
0.069735
0.071130
0.070511
0.070327
0.069845
0.070550
0.067985
0.068249
0.067818
0.069880
0.065757
0.066376
0.066613
0.066463
0.068054
0.068933
0.070349
0.071801
0.067808
0.070947
0.073725
0.069523
0.075770
0.070961
0.074824
0.071513
0.073818
0.076348
0.073035
0.074848
0.077006
0.078311
0.080388
0.075551
0.081801
0.077606
0.078678
0.073522
0.076857
0.073208
0.076781
0.074953
0.073564
0.071487
0.075560
0.074217
0.073632
0.071759
0.076118
0.073874
0.078180
0.079181
0.077705
0.075969
0.074495
0.073350
0.072350
0.071465
0.070837
0.070593
0.070572
0.070821
0.071188
0.071350
0.071686
0.071999
0.072463
0.072684
0.072710
0.072708
0.072800
0.072956
0.073160
0.073517
0.073566
0.073683
0.073886
0.074184
0.074552
0.066625
0.055931
0.047978
0.041691
0.037314
0.033067
0.029422
0.025902
0.022971
0.020342
0.018182
0.015867
0.013985
0.012134
0.009924
0.006937
0.068717
0.063330
0.061002
0.058729
0.056625
0.055077
0.054436
0.053672
0.052800
0.051949
0.051137
0.050328
0.049582
0.048865
0.048159
0.047504
0.046850
0.046250
0.045664
0.045107
0.044575
0.044050
0.043554
0.043075
0.042608
0.042163
0.041729
0.041309
0.040908
0.040516
0.040136
0.039770
0.039415
0.039070
0.038732
0.038406
0.038089
0.037778
0.037476
0.037182
0.036893
0.036611
0.036334
0.036064
0.035797
0.035536
0.035281
0.035029
0.034783
0.034540
0.034302
0.034066
0.033835
0.033608
0.033384
0.033163
0.032945
0.032730
0.032517
0.032306
0.032097
0.031890
0.031685
0.031481
0.031278
0.031076
0.030876
0.030676
0.030479
0.030283
0.030089
0.029896
0.029706
0.029517
0.029330
0.029145
0.028963
0.028782
0.028604
0.028427
0.028253
0.028079
0.027907
0.027737
0.027569
0.027401
0.027234
0.027069
0.026904
0.026740
0.026576
0.026414
0.026251
0.026090
0.025928
0.025767
0.025605
0.025444
0.025282
0.025121
0.024959
0.024798
0.024635
0.024473
0.024310
0.024147
0.023983
0.023819
0.023655
0.023490
0.023325
0.023159
0.022993
0.022827
0.022661
0.022494
0.022327
0.022160
0.021992
0.021825
0.021657
0.021490
0.021322
0.021153
0.020985
0.020816
0.020647
0.020477
0.020307
0.020137
0.019966
0.019794
0.019621
0.019448
0.019273
0.019098
0.018921
0.018743
0.018564
0.018383
0.018201
0.018017
0.017831
0.017643
0.017454
0.017262
0.017068
0.016871
0.016672
0.016471
0.016268
0.016062
0.015855
0.015645
0.015434
0.015221
0.015008
0.014794
0.014581
0.014368
0.014158
0.013950
0.013744
0.013542
0.013344
0.013149
0.012958
0.012770
0.012586
0.012405
0.012229
0.012055
0.011885
0.011718
0.011554
0.011392
0.011234
0.011077
0.010923
0.010771
0.010622
0.010473
0.010327
0.010182
0.010039
0.009898
0.009758
0.009619
0.009482
0.009346
0.009211
0.009078
0.008945
0.008814
0.008684
0.008555
0.008427
0.008300
0.008173
0.008048
0.007923
0.007800
0.007677
0.007555
0.007434
0.007313
0.007194
0.007075
0.006957
0.006839
0.006723
0.006606
0.006491
0.006376
0.006262
0.006149
0.006037
0.005925
0.005813
0.005703
0.005593
0.005483
0.005375
0.005267
0.005160
0.005054
0.004948
0.004843
0.004739
0.004637
0.004536
0.004436
0.004336
0.004238
0.004140
0.004043
0.003947
0.003852
0.003758
0.003665
0.003573
0.003483
0.003393
0.003304
0.003216
0.003129
0.003044
0.002959
0.002875
0.002793
0.002712
0.002631
0.002552
0.002473
0.002395
0.002319
0.002243
0.002169
0.002096
0.002024
0.001953
0.001883
0.001815
0.001748
0.001681
0.001616
0.001553
0.001490
0.001429
0.001369
0.001310
0.001252
0.001196
0.001141
0.001087
0.001034
0.000983
0.000933
0.000884
0.000836
0.000790
0.000745
0.000702
0.000659
0.000618
0.000578
0.000539
0.000502
0.000465
0.000429
0.000393
0.000359
0.000326
0.000293
0.000262
0.000233
0.000204
0.000181
0.054702
0.051996
0.051992
0.000881
0.001057
0.063737
0.001244
0.064332
0.057830
0.020682
0.063817
0.001099
0.028077
0.062479
0.009699
0.019109
0.061035
0.000810
0.001462
0.051763
0.004087
0.067790
0.061531
0.012412
0.052342
0.044867
0.073552
0.034720
0.062335
0.053291
0.002408
0.053666
0.052201
0.060254
0.056582
0.000328
0.059906
0.001586
0.054784
0.000912
0.052891
0.052136
0.050916
0.065999
0.000710
0.060552
0.000463
0.056788
0.063777
0.078208
0.000587
0.060086
0.005640
0.040113
0.000924
0.060377
0.062190
0.035623
0.064416
0.063844
0.012065
0.014643
0.001167
0.001214
0.051377
0.052982
0.024775
0.050381
0.062054
0.001248
0.063371
0.001207
0.024583
0.000820
0.051312
0.016844
0.000972
0.061587
0.010578
0.003118
0.007608
0.003650
0.004094
0.052952
0.054553
0.055716
0.052588
0.051947
0.052332
0.056406
0.064191
0.061642
0.059639
0.059226
0.058759
0.057406
0.075951
0.072148
0.070959
0.070016
0.057310
0.000368
0.058395
0.066861
0.048113
0.049711
0.002032
0.049331
0.002445
0.054327
0.023696
0.002211
0.026507
0.057565
0.011981
0.052080
0.001621
0.055507
0.003929
0.035530
0.053531
0.017987
0.002152
0.052284
0.057462
0.001002
0.053372
0.052545
0.048698
0.066447
0.009253
0.051353
0.058147
0.063264
0.000299
0.056570
0.057128
0.000643
0.061687
0.055667
0.007848
0.061201
0.000958
0.042959
0.053575
0.061930
0.002588
0.063248
0.032307
0.017068
0.064720
0.064727
0.001183
0.064247
0.002451
0.063831
0.052379
0.001104
0.028931
0.000908
0.062601
0.051849
0.041174
0.000800
0.022160
0.062227
0.051819
0.001174
0.014587
0.004743
0.001864
0.006602
0.051355
0.052115
0.053888
0.052349
0.050765
0.051261
0.051780
0.050266
0.055089
0.055849
0.056755
0.060637
0.057921
0.062158
0.059533
0.065422
0.063358
0.066029
0.067390
0.062659
0.073240
0.067113
0.075229
0.055195
0.059907
0.055876
0.009823
0.003579
0.058090
0.057320
0.010026
0.054219
0.047936
0.054155
0.051331
0.059534
0.001980
0.048327
0.020881
0.053899
0.052497
0.002762
0.003924
0.000789
0.047753
0.063226
0.001364
0.063682
0.047746
0.053768
0.029825
0.053065
0.048544
0.061116
0.050245
0.002177
0.040839
0.053733
0.053148
0.057679
0.001803
0.029036
0.056064
0.002328
0.055998
0.017429
0.014343
0.002017
0.057606
0.023797
0.055156
0.002277
0.002393
0.001953
0.055681
0.001714
0.005329
0.048702
0.048919
0.052150
0.054701
0.055967
0.002398
0.039113
0.020316
0.015690
0.056059
0.013313
0.011234
0.002312
0.007813
0.005632
0.047300
0.047964
0.048257
0.050068
0.050843
0.001500
0.048548
0.048562
0.055384
0.051896
0.054455
0.053927
0.063592
0.070424
0.056083
0.055273
0.054449
0.047510
0.067908
0.061737
0.053980
0.055514
0.053549
0.056526
0.054999
0.008059
0.002381
0.060038
0.052966
0.053394
0.049722
0.065654
0.046039
0.048333
0.047359
0.003395
0.049738
0.020262
0.003371
0.023141
0.054069
0.002563
0.004008
0.047241
0.004760
0.039366
0.002174
0.048695
0.014666
0.046401
0.050257
0.060054
0.003737
0.055116
0.003482
0.050624
0.026478
0.053577
0.054946
0.002251
0.057293
0.050167
0.046964
0.019760
0.056470
0.003171
0.048073
0.046328
0.049104
0.011582
0.053101
0.028855
0.034179
0.051447
0.003218
0.053144
0.012177
0.009992
0.005881
0.006803
0.057140
0.048247
0.003519
0.003675
0.047807
0.003406
0.047647
0.048346
0.049338
0.051151
0.055438
0.053425
0.047890
0.007461
0.062489
0.050201
0.062331
0.051856
0.046047
0.001908
0.052250
0.052492
0.061438
0.032725
0.071147
0.051056
0.068245
0.059197
0.048488
0.057633
0.052165
0.052629
0.052164
0.008778
0.006672
0.054293
0.051386
0.056358
0.060407
0.051996
0.053523
0.053260
0.067174
0.005102
0.004930
0.044141
0.004303
0.050470
0.050636
0.049640
0.011367
0.021810
0.047635
0.052160
0.002062
0.045801
0.049135
0.047125
0.050751
0.050893
0.050756
0.046531
0.004803
0.013518
0.004354
0.056510
0.048816
0.036252
0.007999
0.003282
0.003651
0.008643
0.045837
0.046776
0.002494
0.003729
0.017984
0.050540
0.051071
0.049744
0.034690
0.044487
0.048494
0.057719
0.052536
0.053197
0.047502
0.006249
0.003702
0.046643
0.048383
0.023288
0.046349
0.046093
0.004931
0.032492
0.049942
0.046261
0.055117
0.011168
0.042588
0.003562
0.003159
0.026064
0.048954
0.017201
0.008942
0.047138
0.048473
0.047649
0.013401
0.046281
0.003521
0.048708
0.045993
0.051133
0.002692
0.058387
0.048103
0.074558
0.049234
0.055397
0.051221
0.051204
0.051628
0.051252
0.058233
0.050766
0.053404
0.053518
0.002193
0.050640
0.054126
0.048338
0.050327
0.049416
0.057818
0.050657
0.044835
0.047273
0.046133
0.022854
0.044802
0.003322
0.043836
0.007374
0.034444
0.004517
0.045392
0.002691
0.042336
0.053370
0.004207
0.049038
0.045522
0.049404
0.045573
0.045267
0.001873
0.012928
0.016167
0.004334
0.004918
0.045180
0.048320
0.002921
0.043638
0.051036
0.050100
0.049666
0.049614
0.055835
0.053251
0.024755
0.005505
0.019121
0.043478
0.005833
0.007153
0.050525
0.005099
0.012637
0.002879
0.048684
0.039679
0.049988
0.043687
0.041716
0.010223
0.015670
0.005068
0.004911
0.046998
0.017549
0.045730
0.049445
0.031394
0.040257
0.052064
0.044780
0.046449
0.052987
0.046205
0.054388
0.044888
0.050700
0.050671
0.050918
0.010008
0.004989
0.052072
0.057651
0.049160
0.057687
0.047408
0.046884
0.046959
0.003629
0.002764
0.049005
0.044381
0.050989
0.052770
0.047849
0.052299
0.006342
0.055849
0.045694
0.049205
0.045303
0.030198
0.048743
0.048338
0.050283
0.049958
0.049857
0.044151
0.006479
0.039460
0.005034
0.044665
0.012680
0.006251
0.033891
0.023957
0.007868
0.002485
0.043580
0.043727
0.006108
0.026179
0.044345
0.046148
0.003589
0.038238
0.045011
0.006902
0.046788
0.045650
0.003843
0.048762
0.047323
0.045803
0.044911
0.049264
0.044789
0.044759
0.052053
0.045131
0.044490
0.050865
0.028254
0.047594
0.014899
0.054350
0.017914
0.038322
0.006445
0.052138
0.041084
0.005023
0.001299
0.002756
0.004509
0.044627
0.003625
0.047891
0.004711
0.053448
0.009275
0.008392
0.019899
0.009690
0.003301
0.015152
0.006433
0.049058
0.049188
0.049739
0.049357
0.045237
0.045880
0.046691
0.045162
0.038101
0.005091
0.049126
0.044754
0.002778
0.049341
0.050084
0.029628
0.048811
0.048269
0.048349
0.045057
0.049502
0.054010
0.045966
0.003082
0.052152
0.048652
0.049639
0.005445
0.053982
0.048963
0.050832
0.003472
0.045900
0.044357
0.049599
0.052402
0.007940
0.004226
0.008545
0.003447
0.003584
0.020260
0.002371
0.002072
0.043879
0.017060
0.043348
0.045930
0.005687
0.050957
0.037121
0.029621
0.047152
0.006620
0.003964
0.040066
0.005262
0.011646
0.006259
0.006856
0.044586
0.047336
0.047780
0.044361
0.051242
0.008586
0.042358
0.043551
0.048395
0.048249
0.042091
0.014967
0.044528
0.001776
0.035708
0.043239
0.039262
0.037018
0.041151
0.021125
0.048983
0.046982
0.047575
0.046256
0.006546
0.051295
0.003058
0.007604
0.003631
0.049577
0.011026
0.023146
0.033607
0.046481
0.007134
0.006438
0.001955
0.030907
0.045347
0.005235
0.044862
0.046034
0.047823
0.046912
0.043563
0.044467
0.044036
0.043777
0.045270
0.048206
0.047961
0.007732
0.045889
0.048981
0.033384
0.049903
0.048127
0.048243
0.044761
0.054278
0.049377
0.000590
0.045415
0.044966
0.047764
0.005356
0.048839
0.027219
0.043336
0.004465
0.049587
0.042210
0.008224
0.008720
0.035329
0.041351
0.046436
0.011214
0.026477
0.004111
0.042647
0.020753
0.036482
0.002059
0.041861
0.002878
0.002217
0.048778
0.043598
0.045239
0.001524
0.007554
0.047212
0.047593
0.010231
0.040035
0.040195
0.033878
0.005145
0.047498
0.044982
0.045519
0.043318
0.043762
0.018101
0.001256
0.043691
0.001718
0.032599
0.005652
0.047899
0.009649
0.007993
0.046124
0.048177
0.009079
0.050597
0.014504
0.046915
0.043432
0.003313
0.004323
0.046615
0.004073
0.048999
0.004784
0.005862
0.006683
0.043104
0.026082
0.010695
0.033596
0.045673
0.009611
0.047512
0.046015
0.023381
0.044390
0.044160
0.047155
0.046393
0.048043
0.043037
0.043674
0.047752
0.047599
0.029908
0.049497
0.040735
0.043922
0.047631
0.006146
0.043730
0.047237
0.047234
0.020084
0.004162
0.039943
0.031843
0.036134
0.042989
0.008955
0.032903
0.037578
0.010020
0.025894
0.004683
0.004376
0.032610
0.003371
0.030194
0.001536
0.038888
0.042816
0.041930
0.044914
0.006653
0.044021
0.019366
0.046916
0.042919
0.042323
0.008536
0.041098
0.006159
0.045757
0.018507
0.005288
0.043351
0.047167
0.007214
0.002459
0.040291
0.012403
0.040441
0.046373
0.046046
0.045367
0.042948
0.036474
0.008088
0.006667
0.011086
0.047076
0.004285
0.003562
0.007931
0.046687
0.008375
0.012978
0.040371
0.034925
0.001657
0.028811
0.041674
0.047029
0.010095
0.023131
0.046321
0.046641
0.001161
0.044413
0.047095
0.044086
0.042492
0.005690
0.047192
0.044296
0.046911
0.045093
0.042088
0.045739
0.046403
0.045549
0.044989
0.047960
0.000889
0.047541
0.042811
0.022463
0.046703
0.008510
0.045963
0.029153
0.039587
0.042749
0.000701
0.045938
0.042497
0.046896
0.042230
0.028947
0.004004
0.002751
0.047026
0.003678
0.041448
0.041547
0.009624
0.018816
0.033344
0.024958
0.006625
0.037374
0.031646
0.045107
0.004852
0.003670
0.002004
0.045874
0.003807
0.027149
0.040324
0.003192
0.002641
0.044755
0.036455
0.041007
0.010279
0.044408
0.036092
0.001183
0.011053
0.041696
0.007275
0.006182
0.043862
0.008609
0.043760
0.041232
0.045986
0.044438
0.040357
0.021438
0.016499
0.009345
0.039872
0.000707
0.035516
0.005206
0.011180
0.032200
0.045936
0.044781
0.044872
0.026001
0.006862
0.009813
0.043744
0.006086
0.009294
0.002170
0.012064
0.020779
0.004759
0.012644
0.037393
0.046375
0.044901
0.043595
0.042867
0.001037
0.043160
0.046530
0.046197
0.045803
0.044840
0.041965
0.003019
0.045186
0.007549
0.044960
0.042961
0.016329
0.046068
0.004961
0.042559
0.045690
0.045284
0.046343
0.006961
0.041918
0.037034
0.045323
0.002956
0.013882
0.001186
0.003861
0.045154
0.000257
0.004529
0.043563
0.042041
0.045060
0.045536
0.041774
0.028112
0.001642
0.030831
0.042825
0.036804
0.045329
0.046671
0.000704
0.040648
0.011372
0.010472
0.030937
0.018889
0.024042
0.034922
0.010071
0.006977
0.005454
0.005430
0.043753
0.030269
0.013211
0.027990
0.001600
0.039196
0.033785
0.042302
0.002508
0.012420
0.041868
0.008401
0.007603
0.005745
0.000697
0.000866
0.007260
0.039722
0.010511
0.010371
0.005065
0.030212
0.028772
0.007908
0.034327
0.001822
0.040553
0.023022
0.045210
0.043661
0.010645
0.041876
0.016938
0.043860
0.039554
0.044881
0.044048
0.039088
0.007940
0.006101
0.018819
0.012557
0.002453
0.025672
0.034641
0.045881
0.041806
0.040994
0.045775
0.044432
0.044389
0.043208
0.043281
0.035236
0.006891
0.041590
0.044286
0.001125
0.044051
0.041028
0.043887
0.043241
0.045447
0.044542
0.044423
0.043396
0.041770
0.034722
0.004060
0.007647
0.009542
0.046043
0.042709
0.044375
0.040851
0.003600
0.016333
0.044485
0.027274
0.044375
0.013526
0.045077
0.002904
0.046119
0.003098
0.033314
0.041106
0.043845
0.004359
0.015285
0.004377
0.001141
0.040406
0.040756
0.011951
0.008898
0.028868
0.043293
0.033034
0.026525
0.006518
0.004149
0.004864
0.041393
0.004258
0.031671
0.025838
0.017322
0.003460
0.043292
0.031072
0.014831
0.000870
0.040005
0.012491
0.006850
0.040025
0.013240
0.001149
0.013744
0.009037
0.011126
0.014168
0.022992
0.042657
0.005578
0.041034
0.027838
0.042152
0.008085
0.032658
0.007657
0.020837
0.038880
0.006784
0.011722
0.007962
0.001982
0.010110
0.006120
0.011373
0.042610
0.042066
0.040747
0.040845
0.021572
0.035237
0.002148
0.037129
0.038950
0.043606
0.042556
0.005408
0.044673
0.044112
0.008413
0.015213
0.042110
0.042672
0.043270
0.043175
0.006584
0.043006
0.035182
0.040298
0.043824
0.045397
0.010840
0.043949
0.040924
0.041178
0.026628
0.044664
0.045122
0.004039
0.034297
0.003062
0.029911
0.041467
0.024613
0.042682
0.014732
0.045512
0.043158
0.000638
0.043371
0.039459
0.041783
0.043151
0.042518
0.005537
0.044149
0.042847
0.002429
0.043392
0.045637
0.002818
0.044150
0.042408
0.013151
0.042262
0.018945
0.026968
0.010816
0.031426
0.035155
0.006066
0.007259
0.006917
0.028889
0.002504
0.015613
0.039166
0.009775
0.024914
0.001642
0.001801
0.040994
0.041197
0.004378
0.002792
0.033639
0.000902
0.038640
0.033340
0.003103
0.006242
0.039760
0.042809
0.001090
0.030913
0.040133
0.019286
0.004740
0.004996
0.020911
0.012267
0.007917
0.039083
0.043688
0.005402
0.040811
0.029200
0.012462
0.009042
0.042945
0.040873
0.041497
0.012497
0.006138
0.012510
0.042456
0.023698
0.008289
0.041703
0.040307
0.002474
0.038381
0.039881
0.007629
0.009181
0.009410
0.000643
0.015716
0.023993
0.013749
0.012145
0.040902
0.041394
0.004479
0.043424
0.044285
0.040456
0.042446
0.001460
0.040597
0.039135
0.045042
0.043128
0.044928
0.042114
0.043243
0.042704
0.014398
0.017401
0.002067
0.044875
0.005948
0.043509
0.043133
0.009116
0.003388
0.040253
0.044516
0.040648
0.042900
0.022744
0.040965
0.003861
0.043121
0.043874
0.008766
0.045118
0.042079
0.011767
0.039908
0.038770
0.041231
0.013224
0.014255
0.010090
0.019013
0.043085
0.029247
0.040009
0.038752
0.033719
0.006995
0.041380
0.005502
0.037743
0.006138
0.005304
0.039120
0.041150
0.037951
0.014070
0.002199
0.003696
0.039212
0.022987
0.001094
0.001384
0.039654
0.002676
0.013633
0.003037
0.042504
0.017091
0.021192
0.041842
0.000440
0.002848
0.013460
0.040367
0.041671
0.042795
0.041309
0.037087
0.012794
0.006335
0.008572
0.014527
0.015363
0.017095
0.004726
0.008519
0.010392
0.026314
0.042734
0.042279
0.010001
0.041958
0.004598
0.044106
0.038722
0.033544
0.006151
0.038648
0.040321
0.040573
0.043806
0.044384
0.040973
0.016333
0.042070
0.039653
0.042114
0.008260
0.003317
0.040214
0.041096
0.004308
0.004145
0.024865
0.042629
0.044663
0.032887
0.021657
0.005044
0.000842
0.009389
0.040483
0.011357
0.041971
0.001824
0.001402
0.040346
0.004407
0.009067
0.042790
0.042721
0.043545
0.039392
0.036754
0.000667
0.044513
0.017438
0.027567
0.031887
0.001419
0.006932
0.012813
0.011789
0.037624
0.014938
0.040105
0.011211
0.017023
0.026073
0.012910
0.023241
0.008908
0.030567
0.033638
0.042763
0.009355
0.007604
0.028309
0.006483
0.039398
0.042767
0.012858
0.037703
0.002500
0.005197
0.006536
0.004658
0.039779
0.000895
0.004392
0.018007
0.039274
0.002121
0.003341
0.039562
0.001726
0.004939
0.038440
0.001065
0.000521
0.040797
0.039536
0.006788
0.014370
0.032083
0.027744
0.042087
0.032506
0.029226
0.007688
0.038803
0.010142
0.015537
0.041454
0.039793
0.037707
0.002456
0.039257
0.000331
0.013473
0.009802
0.005434
0.041096
0.037336
0.014541
0.023765
0.039378
0.005664
0.040491
0.018642
0.005585
0.011901
0.038618
0.040806
0.044123
0.030907
0.019750
0.041875
0.039187
0.038693
0.039719
0.042769
0.041072
0.043597
0.037951
0.001324
0.039825
0.003232
0.042523
0.004783
0.041337
0.026436
0.036516
0.044000
0.039428
0.043482
0.041866
0.009266
0.001757
0.021605
0.014114
0.041741
0.004191
0.017727
0.010370
0.018926
0.003641
0.039845
0.044288
0.043195
0.039646
0.040387
0.003977
0.004933
0.041209
0.004552
0.039746
0.000583
0.036966
0.020073
0.010828
0.043583
0.004598
0.046256
0.038196
0.014621
0.021795
0.026427
0.009473
0.032539
0.007003
0.040118
0.006718
0.039513
0.005727
0.030260
0.037157
0.012253
0.005171
0.041717
0.011915
0.041262
0.037509
0.016097
0.001359
0.030570
0.038622
0.004878
0.010952
0.038705
0.038758
0.015244
0.003882
0.038498
0.025523
0.000323
0.043180
0.007407
0.004658
0.002043
0.042419
0.001060
0.003230
0.010008
0.008203
0.000451
0.002718
0.039691
0.039771
0.035024
0.003792
0.014657
0.020306
0.016310
0.016610
0.040263
0.032116
0.023236
0.041993
0.036775
0.014611
0.001326
0.027846
0.037105
0.017590
0.039524
0.004938
0.021111
0.002798
0.006107
0.020126
0.005550
0.011006
0.000583
0.000749
0.018160
0.038867