# vtk DataFile Version 2.0
Test
ASCII
DATASET POLYDATA
POINTS 7341 float
0.000000 0.000000 0.000000
1.000000 0.000000 0.000000
1.000000 1.000000 0.000000
0.000000 1.000000 0.000000
0.000000 0.500000 0.000000
0.500000 0.500000 0.000000
1.000000 0.500000 0.000000
0.499000 0.499000 0.000000
0.900000 0.010000 0.000000
0.029412 0.000000 0.000000
0.058824 0.000000 0.000000
0.088235 0.000000 0.000000
0.117647 0.000000 0.000000
0.147059 0.000000 0.000000
0.176471 0.000000 0.000000
0.205882 0.000000 0.000000
0.235294 0.000000 0.000000
0.264706 0.000000 0.000000
0.294118 0.000000 0.000000
0.323529 0.000000 0.000000
0.352941 0.000000 0.000000
0.382353 0.000000 0.000000
0.411765 0.000000 0.000000
0.441176 0.000000 0.000000
0.470588 0.000000 0.000000
0.500000 0.000000 0.000000
0.529412 0.000000 0.000000
0.558824 0.000000 0.000000
0.588235 0.000000 0.000000
0.617647 0.000000 0.000000
0.647059 0.000000 0.000000
0.676471 0.000000 0.000000
0.705882 0.000000 0.000000
0.735294 0.000000 0.000000
0.764706 0.000000 0.000000
0.794118 0.000000 0.000000
0.823529 0.000000 0.000000
0.852941 0.000000 0.000000
0.882353 0.000000 0.000000
0.911765 0.000000 0.000000
0.941176 0.000000 0.000000
0.970588 0.000000 0.000000
1.000000 0.029412 0.000000
1.000000 0.058824 0.000000
1.000000 0.088235 0.000000
1.000000 0.117647 0.000000
1.000000 0.147059 0.000000
1.000000 0.176471 0.000000
1.000000 0.205882 0.000000
1.000000 0.235294 0.000000
1.000000 0.264706 0.000000
1.000000 0.294118 0.000000
1.000000 0.323529 0.000000
1.000000 0.352941 0.000000
1.000000 0.382353 0.000000
1.000000 0.411765 0.000000
1.000000 0.441176 0.000000
1.000000 0.470588 0.000000
1.000000 0.529412 0.000000
1.000000 0.558824 0.000000
1.000000 0.588235 0.000000
1.000000 0.617647 0.000000
1.000000 0.647059 0.000000
1.000000 0.676471 0.000000
1.000000 0.705882 0.000000
1.000000 0.735294 0.000000
1.000000 0.764706 0.000000
1.000000 0.794118 0.000000
1.000000 0.823529 0.000000
1.000000 0.852941 0.000000
1.000000 0.882353 0.000000
1.000000 0.911765 0.000000
1.000000 0.941176 0.000000
1.000000 0.970588 0.000000
0.970588 1.000000 0.000000
0.941176 1.000000 0.000000
0.911765 1.000000 0.000000
0.882353 1.000000 0.000000
0.852941 1.000000 0.000000
0.823529 1.000000 0.000000
0.794118 1.000000 0.000000
0.764706 1.000000 0.000000
0.735294 1.000000 0.000000
0.705882 1.000000 0.000000
0.676471 1.000000 0.000000
0.647059 1.000000 0.000000
0.617647 1.000000 0.000000
0.588235 1.000000 0.000000
0.558824 1.000000 0.000000
0.529412 1.000000 0.000000
0.500000 1.000000 0.000000
0.470588 1.000000 0.000000
0.441176 1.000000 0.000000
0.411765 1.000000 0.000000
0.382353 1.000000 0.000000
0.352941 1.000000 0.000000
0.323529 1.000000 0.000000
0.294118 1.000000 0.000000
0.264706 1.000000 0.000000
0.235294 1.000000 0.000000
0.205882 1.000000 0.000000
0.176471 1.000000 0.000000
0.147059 1.000000 0.000000
0.117647 1.000000 0.000000
0.088235 1.000000 0.000000
0.058824 1.000000 0.000000
0.029412 1.000000 0.000000
0.000000 0.970588 0.000000
0.000000 0.941176 0.000000
0.000000 0.911765 0.000000
0.000000 0.882353 0.000000
0.000000 0.852941 0.000000
0.000000 0.823529 0.000000
0.000000 0.794118 0.000000
0.000000 0.764706 0.000000
0.000000 0.735294 0.000000
0.000000 0.705882 0.000000
0.000000 0.676471 0.000000
0.000000 0.647059 0.000000
0.000000 0.617647 0.000000
0.000000 0.588235 0.000000
0.000000 0.558824 0.000000
0.000000 0.529412 0.000000
0.007246 0.500000 0.000000
0.014493 0.500000 0.000000
0.021739 0.500000 0.000000
0.028986 0.500000 0.000000
0.036232 0.500000 0.000000
0.043478 0.500000 0.000000
0.050725 0.500000 0.000000
0.057971 0.500000 0.000000
0.065217 0.500000 0.000000
0.072464 0.500000 0.000000
0.079710 0.500000 0.000000
0.086957 0.500000 0.000000
0.094203 0.500000 0.000000
0.101449 0.500000 0.000000
0.108696 0.500000 0.000000
0.115942 0.500000 0.000000
0.123188 0.500000 0.000000
0.130435 0.500000 0.000000
0.137681 0.500000 0.000000
0.144928 0.500000 0.000000
0.152174 0.500000 0.000000
0.159420 0.500000 0.000000
0.166667 0.500000 0.000000
0.173913 0.500000 0.000000
0.181159 0.500000 0.000000
0.188406 0.500000 0.000000
0.195652 0.500000 0.000000
0.202899 0.500000 0.000000
0.210145 0.500000 0.000000
0.217391 0.500000 0.000000
0.224638 0.500000 0.000000
0.231884 0.500000 0.000000
0.239130 0.500000 0.000000
0.246377 0.500000 0.000000
0.253623 0.500000 0.000000
0.260870 0.500000 0.000000
0.268116 0.500000 0.000000
0.275362 0.500000 0.000000
0.282609 0.500000 0.000000
0.289855 0.500000 0.000000
0.297101 0.500000 0.000000
0.304348 0.500000 0.000000
0.311594 0.500000 0.000000
0.318841 0.500000 0.000000
0.326087 0.500000 0.000000
0.333333 0.500000 0.000000
0.340580 0.500000 0.000000
0.347826 0.500000 0.000000
0.355072 0.500000 0.000000
0.362319 0.500000 0.000000
0.369565 0.500000 0.000000
0.376812 0.500000 0.000000
0.384058 0.500000 0.000000
0.391304 0.500000 0.000000
0.398551 0.500000 0.000000
0.405797 0.500000 0.000000
0.413043 0.500000 0.000000
0.420290 0.500000 0.000000
0.427536 0.500000 0.000000
0.434783 0.500000 0.000000
0.442029 0.500000 0.000000
0.449275 0.500000 0.000000
0.456522 0.500000 0.000000
0.463768 0.500000 0.000000
0.471014 0.500000 0.000000
0.478261 0.500000 0.000000
0.485507 0.500000 0.000000
0.492754 0.500000 0.000000
0.510004 0.500000 0.000000
0.520408 0.500000 0.000000
0.531229 0.500000 0.000000
0.542483 0.500000 0.000000
0.554187 0.500000 0.000000
0.566359 0.500000 0.000000
0.579019 0.500000 0.000000
0.592185 0.500000 0.000000
0.605877 0.500000 0.000000
0.620118 0.500000 0.000000
0.634929 0.500000 0.000000
0.650332 0.500000 0.000000
0.666352 0.500000 0.000000
0.683013 0.500000 0.000000
0.700340 0.500000 0.000000
0.718361 0.500000 0.000000
0.737103 0.500000 0.000000
0.756595 0.500000 0.000000
0.776867 0.500000 0.000000
0.797950 0.500000 0.000000
0.819877 0.500000 0.000000
0.842681 0.500000 0.000000
0.866398 0.500000 0.000000
0.891064 0.500000 0.000000
0.916716 0.500000 0.000000
0.943396 0.500000 0.000000
0.971143 0.500000 0.000000
0.000000 0.470588 0.000000
0.000000 0.441176 0.000000
0.000000 0.411765 0.000000
0.000000 0.382353 0.000000
0.000000 0.352941 0.000000
0.000000 0.323529 0.000000
0.000000 0.294118 0.000000
0.000000 0.264706 0.000000
0.000000 0.235294 0.000000
0.000000 0.205882 0.000000
0.000000 0.176471 0.000000
0.000000 0.147059 0.000000
0.000000 0.117647 0.000000
0.000000 0.088235 0.000000
0.000000 0.058824 0.000000
0.000000 0.029412 0.000000
0.500341 0.497365 0.000000
0.501682 0.495729 0.000000
0.503023 0.494094 0.000000
0.504365 0.492458 0.000000
0.505706 0.490823 0.000000
0.507047 0.489187 0.000000
0.508388 0.487552 0.000000
0.509729 0.485916 0.000000
0.511070 0.484281 0.000000
0.512411 0.482645 0.000000
0.513753 0.481010 0.000000
0.515094 0.479375 0.000000
0.516435 0.477739 0.000000
0.517776 0.476104 0.000000
0.519117 0.474468 0.000000
0.520458 0.472833 0.000000
0.521799 0.471197 0.000000
0.523140 0.469562 0.000000
0.524482 0.467926 0.000000
0.525823 0.466291 0.000000
0.527164 0.464656 0.000000
0.528505 0.463020 0.000000
0.529846 0.461385 0.000000
0.531187 0.459749 0.000000
0.532528 0.458114 0.000000
0.533870 0.456478 0.000000
0.535211 0.454843 0.000000
0.536552 0.453207 0.000000
0.537893 0.451572 0.000000
0.539234 0.449936 0.000000
0.540575 0.448301 0.000000
0.541916 0.446666 0.000000
0.543258 0.445030 0.000000
0.544599 0.443395 0.000000
0.545940 0.441759 0.000000
0.547281 0.440124 0.000000
0.548622 0.438488 0.000000
0.549963 0.436853 0.000000
0.551304 0.435217 0.000000
0.552645 0.433582 0.000000
0.553987 0.431946 0.000000
0.555328 0.430311 0.000000
0.556669 0.428676 0.000000
0.558010 0.427040 0.000000
0.559351 0.425405 0.000000
0.560692 0.423769 0.000000
0.562033 0.422134 0.000000
0.563375 0.420498 0.000000
0.564716 0.418863 0.000000
0.566057 0.417227 0.000000
0.567398 0.415592 0.000000
0.568739 0.413957 0.000000
0.570080 0.412321 0.000000
0.571421 0.410686 0.000000
0.572763 0.409050 0.000000
0.574104 0.407415 0.000000
0.575445 0.405779 0.000000
0.576786 0.404144 0.000000
0.578127 0.402508 0.000000
0.579468 0.400873 0.000000
0.580809 0.399237 0.000000
0.582151 0.397602 0.000000
0.583492 0.395967 0.000000
0.584833 0.394331 0.000000
0.586174 0.392696 0.000000
0.587515 0.391060 0.000000
0.588856 0.389425 0.000000
0.590197 0.387789 0.000000
0.591538 0.386154 0.000000
0.592880 0.384518 0.000000
0.594221 0.382883 0.000000
0.595562 0.381247 0.000000
0.596903 0.379612 0.000000
0.598244 0.377977 0.000000
0.599585 0.376341 0.000000
0.600926 0.374706 0.000000
0.602268 0.373070 0.000000
0.603609 0.371435 0.000000
0.604950 0.369799 0.000000
0.606291 0.368164 0.000000
0.607632 0.366528 0.000000
0.608973 0.364893 0.000000
0.610314 0.363258 0.000000
0.611656 0.361622 0.000000
0.612997 0.359987 0.000000
0.614338 0.358351 0.000000
0.615679 0.356716 0.000000
0.617020 0.355080 0.000000
0.618361 0.353445 0.000000
0.619702 0.351809 0.000000
0.621043 0.350174 0.000000
0.622385 0.348538 0.000000
0.623726 0.346903 0.000000
0.625067 0.345268 0.000000
0.626408 0.343632 0.000000
0.627749 0.341997 0.000000
0.629090 0.340361 0.000000
0.630431 0.338726 0.000000
0.631773 0.337090 0.000000
0.633114 0.335455 0.000000
0.634455 0.333819 0.000000
0.635796 0.332184 0.000000
0.637137 0.330548 0.000000
0.638478 0.328913 0.000000
0.639819 0.327278 0.000000
0.641161 0.325642 0.000000
0.642502 0.324007 0.000000
0.643843 0.322371 0.000000
0.645184 0.320736 0.000000
0.646525 0.319100 0.000000
0.647866 0.317465 0.000000
0.649207 0.315829 0.000000
0.650548 0.314194 0.000000
0.651890 0.312559 0.000000
0.653231 0.310923 0.000000
0.654572 0.309288 0.000000
0.655913 0.307652 0.000000
0.657254 0.306017 0.000000
0.658595 0.304381 0.000000
0.659936 0.302746 0.000000
0.661278 0.301110 0.000000
0.662619 0.299475 0.000000
0.663960 0.297839 0.000000
0.665301 0.296204 0.000000
0.666642 0.294569 0.000000
0.667983 0.292933 0.000000
0.669324 0.291298 0.000000
0.670666 0.289662 0.000000
0.672007 0.288027 0.000000
0.673348 0.286391 0.000000
0.674689 0.284756 0.000000
0.676030 0.283120 0.000000
0.677371 0.281485 0.000000
[...]
POINT_DATA 7341
SCALARS UX float 1
LOOKUP_TABLE default
0.000000
0.000000
0.103000
0.103000
0.053384
0.043765
0.043920
0.041557
0.000484
-0.000000
0.000000
0.000000
0.000000
0.000000
0.000000
0.000000
0.000000
0.000000
0.000000
0.000000
0.000000
0.000000
0.000000
0.000000
0.000000
0.000000
0.000000
0.000000
0.000000
0.000000
0.000000
0.000000
0.000000
0.000000
0.000000
0.000000
0.000000
0.000000
0.000000
0.000000
0.000000
-0.000000
0.003037
0.004600
0.006137
0.007790
0.009622
0.011595
0.013727
0.015899
0.018269
0.020753
0.023375
0.026155
0.029095
0.032289
0.035853
0.039686
0.048264
0.052396
0.056363
0.060079
0.063645
0.067144
0.070546
0.073880
0.077177
0.080457
0.083707
0.086941
0.090164
0.093378
0.096589
0.099797
0.103000
0.103000
0.103000
0.103000
0.103000
0.103000
0.103000
0.103000
0.103000
0.103000
0.103000
0.103000
0.103000
0.103000
0.103000
0.103000
0.103000
0.103000
0.103000
0.103000
0.103000
0.103000
0.103000
0.103000
0.103000
0.103000
0.103000
0.103000
0.103000
0.103000
0.103000
0.103000
0.103000
0.099947
0.096899
0.093850
0.090814
0.087782
0.084767
0.081756
0.078765
0.075795
0.072830
0.069907
0.067014
0.064158
0.061355
0.058570
0.055844
0.052413
0.051824
0.051075
0.050445
0.050143
0.050108
0.050056
0.050346
0.049153
0.048608
0.048789
0.048929
0.048741
0.049582
0.049508
0.050554
0.046454
0.048539
0.049129
0.049578
0.049402
0.049462
0.047323
0.047505
0.047940
0.049088
0.046995
0.047366
0.047615
0.047794
0.048227
0.047986
0.047885
0.048218
0.046716
0.047143
0.047243
0.044957
0.046741
0.045064
0.045515
0.043426
0.044213
0.044868
0.042997
0.043375
0.043702
0.043947
0.044261
0.042187
0.044379
0.043261
0.044038
0.042884
0.044022
0.042875
0.043886
0.043181
0.042600
0.041984
0.043401
0.043029
0.042812
0.042062
0.043222
0.042115
0.043295
0.043409
0.043122
0.042776
0.042591
0.042524
0.042481
0.042415
0.042351
0.042322
0.042274
0.042234
0.042182
0.042135
0.042128
0.042129
0.042138
0.042155
0.042188
0.042238
0.042302
0.042384
0.042486
0.042608
0.042756
0.042931
0.043135
0.043375
0.043636
0.040146
0.035862
0.032605
0.029874
0.027673
0.025607
0.023747
0.021938
0.020258
0.018611
0.016915
0.015062
0.012949
0.010548
0.007587
0.004354
0.040405
0.038839
0.038189
0.037609
0.037257
0.036865
0.036569
0.036311
0.036067
0.035845
0.035645
0.035453
0.035281
0.035119
0.034952
0.034835
0.034651
0.034469
0.034287
0.034117
0.033951
0.033786
0.033626
0.033468
0.033310
0.033156
0.033003
0.032850
0.032700
0.032551
0.032403
0.032256
0.032109
0.031963
0.031817
0.031672
0.031526
0.031381
0.031235
0.031090
0.030944
0.030798
0.030653
0.030507
0.030362
0.030217
0.030072
0.029927
0.029782
0.029637
0.029492
0.029347
0.029202
0.029057
0.028912
0.028767
0.028622
0.028477
0.028332
0.028186
0.028041
0.027896
0.027750
0.027605
0.027460
0.027314
0.027168
0.027022
0.026876
0.026730
0.026584
0.026438
0.026291
0.026145
0.025998
0.025851
0.025704
0.025557
0.025410
0.025262
0.025115
0.024967
0.024819
0.024671
0.024523
0.024375
0.024227
0.024079
0.023931
0.023782
0.023634
0.023485
0.023337
0.023188
0.023039
0.022891
0.022742
0.022593
0.022444
0.022296
0.022147
0.021998
0.021849
0.021701
0.021552
0.021403
0.021255
0.021106
0.020958
0.020810
0.020661
0.020513
0.020365
0.020217
0.020070
0.019922
0.019775
0.019627
0.019480
0.019333
0.019187
0.019040
0.018894
0.018748
0.018602
0.018456
0.018311
0.018165
0.018021
0.017876
0.017732
0.017587
0.017444
0.017300
0.017157
0.017014
0.016872
0.016729
0.016587
0.016446
0.016305
0.016165
0.016025
0.015885
0.015746
0.015608
0.015469
0.015331
0.015194
0.015057
0.014920
0.014784
0.014648
0.014512
0.014377
0.014243
0.014108
0.013975
0.013841
0.013708
0.013576
0.013444
0.013312
0.013181
0.013050
0.012920
0.012790
0.012661
0.012532
0.012403
0.012275
0.012148
0.012021
0.011894
0.011768
0.011642
0.011517
0.011393
0.011269
0.011145
0.011022
0.010899
0.010777
0.010656
0.010535
0.010414
0.010294
0.010175
0.010056
0.009938
0.009820
0.009703
0.009586
0.009470
0.009355
0.009240
0.009126
0.009012
0.008899
0.008786
0.008674
0.008563
0.008452
0.008342
0.008233
0.008124
0.008015
0.007907
0.007800
0.007694
0.007588
0.007483
0.007378
0.007274
0.007171
0.007068
0.006966
0.006865
0.006764
0.006664
0.006564
0.006465
0.006367
0.006270
0.006173
0.006077
0.005981
0.005886
0.005792
0.005698
0.005605
0.005513
0.005421
0.005330
0.005240
0.005150
0.005061
0.004972
0.004885
0.004798
0.004711
0.004625
0.004540
0.004456
0.004372
0.004289
0.004206
0.004124
0.004043
0.003962
0.003883
0.003803
0.003725
0.003647
0.003569
0.003492
0.003416
0.003341
0.003265
0.003191
0.003118
0.003044
0.002972
0.002900
0.002828
0.002757
0.002686
0.002616
0.002546
0.002477
0.002408
0.002339
0.002271
0.002203
0.002135
0.002068
0.002001
0.001935
0.001868
0.001802
0.001735
0.001669
0.001602
0.001535
0.001469
0.001402
0.001334
0.001265
0.001196
0.001126
0.001054
0.000983
0.000911
0.000838
0.000765
0.000693
0.000621
0.000553
0.036203
0.035599
0.035393
0.001604
0.001155
0.039053
0.001029
0.038903
0.037018
0.020177
0.038997
0.000945
0.023244
0.038161
0.010830
0.017905
0.039180
0.000871
0.002319
0.035465
0.005478
0.040455
0.039278
0.012027
0.035670
0.031660
0.043014
0.028649
0.039130
0.035949
0.002896
0.036121
0.035520
0.037263
0.036733
0.000759
0.038272
0.002470
0.036439
0.001278
0.035905
0.035411
0.035133
0.039839
0.001460
0.038061
0.001164
0.036823
0.039467
0.045498
0.001000
0.038562
0.007038
0.029456
0.000877
0.039007
0.039107
0.027153
0.038785
0.038928
0.013151
0.015421
0.000958
0.000987
0.035369
0.035863
0.021388
0.035234
0.039441
0.001062
0.039091
0.001087
0.022890
0.001317
0.035311
0.016116
0.001754
0.039458
0.009400
0.002496
0.005553
0.001601
0.001993
0.035924
0.036256
0.036509
0.035821
0.035527
0.035464
0.036712
0.039098
0.037738
0.037118
0.037136
0.037113
0.036923
0.044236
0.042309
0.041809
0.041364
0.037123
0.001000
0.037590
0.039846
0.034179
0.034522
0.002722
0.034656
0.002272
0.035396
0.022260
0.001946
0.022504
0.036218
0.013141
0.035638
0.001758
0.036040
0.005433
0.027346
0.037026
0.017194
0.003390
0.034913
0.037133
0.001753
0.036214
0.036335
0.034316
0.040250
0.008592
0.035462
0.037540
0.039028
0.000831
0.035941
0.036768
0.000798
0.039197
0.036711
0.008888
0.039285
0.000847
0.031074
0.036064
0.039243
0.003824
0.039136
0.025408
0.017429
0.039031
0.038969
0.000963
0.038983
0.002190
0.039023
0.035688
0.001087
0.025598
0.001124
0.039016
0.035502
0.031626
0.001415
0.019833
0.039306
0.035488
0.002012
0.014205
0.005372
0.002643
0.005300
0.035292
0.035428
0.036085
0.035572
0.035151
0.035167
0.035427
0.034877
0.036283
0.036488
0.036685
0.037380
0.036865
0.037890
0.037885
0.039365
0.038461
0.039691
0.040311
0.038743
0.042971
0.040579
0.044046
0.036731
0.037846
0.036878
0.011096
0.003319
0.036657
0.036333
0.011291
0.036703
0.034199
0.037106
0.035258
0.036932
0.003089
0.034345
0.019115
0.035847
0.035726
0.004119
0.005075
0.001599
0.034117
0.039308
0.001774
0.039012
0.034085
0.036294
0.024301
0.035049
0.034177
0.037549
0.035005
0.001963
0.031299
0.036972
0.036881
0.036308
0.001719
0.025584
0.036502
0.002299
0.036074
0.017734
0.015192
0.002396
0.036359
0.020895
0.036494
0.001971
0.002092
0.002868
0.036880
0.001726
0.006755
0.034470
0.034536
0.035856
0.035935
0.036136
0.003720
0.029176
0.019898
0.015418
0.036693
0.013364
0.011178
0.002024
0.007878
0.005312
0.033955
0.034113
0.034196
0.034560
0.034675
0.001768
0.034286
0.033671
0.036444
0.034882
0.037099
0.035319
0.039207
0.042039
0.035818
0.035617
0.035382
0.033984
0.040898
0.038020
0.036288
0.036501
0.036287
0.035897
0.036825
0.009255
0.003739
0.038020
0.036090
0.036110
0.034738
0.039484
0.033475
0.033809
0.034034
0.003993
0.033766
0.019796
0.003067
0.020630
0.035101
0.002625
0.005590
0.033183
0.006224
0.029468
0.002564
0.035531
0.014828
0.033530
0.034139
0.037927
0.003400
0.035490
0.004816
0.035184
0.023967
0.036729
0.036541
0.002415
0.036519
0.034846
0.033866
0.018491
0.036016
0.002936
0.034254
0.032800
0.035679
0.012721
0.035762
0.023942
0.028295
0.035631
0.004494
0.035899
0.012656
0.010377
0.007258
0.007712
0.036210
0.034317
0.003487
0.003513
0.034143
0.004519
0.034070
0.034224
0.033630
0.034672
0.035624
0.035156
0.034069
0.008754
0.039095
0.034496
0.038429
0.035854
0.033436
0.001758
0.034576
0.034608
0.038657
0.025819
0.042454
0.034347
0.041114
0.036883
0.034463
0.037312
0.035635
0.035981
0.035943
0.010045
0.008005
0.035182
0.035657
0.036119
0.037446
0.035824
0.036525
0.036059
0.039957
0.006481
0.004903
0.031675
0.004087
0.034293
0.033898
0.034799
0.012501
0.019948
0.035012
0.034445
0.002574
0.034648
0.035617
0.033604
0.035362
0.035420
0.034142
0.033700
0.004523
0.014157
0.005974
0.036049
0.035544
0.027893
0.009409
0.002952
0.003995
0.009931
0.033382
0.033567
0.002673
0.005214
0.018095
0.034168
0.035825
0.034097
0.028409
0.032497
0.034111
0.036547
0.034581
0.036270
0.034756
0.007594
0.005200
0.033744
0.033435
0.021879
0.033622
0.033505
0.006503
0.025891
0.035308
0.033002
0.035555
0.012127
0.031038
0.004413
0.002992
0.022380
0.033475
0.016760
0.009966
0.033938
0.034547
0.034163
0.014373
0.033446
0.003173
0.033844
0.033386
0.034223
0.002643
0.037550
0.034415
0.043999
0.034424
0.036586
0.035367
0.034270
0.034364
0.035534
0.037582
0.034729
0.034866
0.035803
0.002459
0.035473
0.035149
0.034729
0.035690
0.033836
0.036992
0.035413
0.032975
0.033217
0.033657
0.021520
0.033312
0.003491
0.033799
0.008701
0.027096
0.005975
0.033070
0.003305
0.031131
0.035078
0.004065
0.033553
0.034552
0.035506
0.033356
0.032368
0.002510
0.013903
0.016177
0.003997
0.004584
0.033166
0.035310
0.003308
0.033488
0.034016
0.035080
0.034956
0.033892
0.036548
0.034949
0.021756
0.007068
0.018210
0.031433
0.007501
0.008735
0.034453
0.004926
0.013616
0.002755
0.035194
0.030374
0.033837
0.031526
0.030718
0.011526
0.016289
0.006253
0.005548
0.034026
0.017691
0.033439
0.035131
0.025476
0.030875
0.035641
0.032932
0.033469
0.034732
0.033559
0.036119
0.032905
0.033883
0.035297
0.035657
0.011258
0.005158
0.034457
0.037454
0.033929
0.036724
0.033655
0.033561
0.034053
0.003739
0.004217
0.035561
0.033443
0.035737
0.035045
0.033706
0.035539
0.007709
0.036708
0.033130
0.035155
0.033231
0.026143
0.034669
0.033423
0.035266
0.035242
0.033639
0.032765
0.006669
0.029897
0.004879
0.032578
0.013649
0.007625
0.026922
0.021419
0.009425
0.003194
0.033862
0.032475
0.005802
0.023675
0.031954
0.033041
0.003659
0.029365
0.032300
0.008258
0.033098
0.033523
0.003766
0.034778
0.034196
0.033071
0.033026
0.033548
0.032885
0.032901
0.035169
0.034400
0.032976
0.033937
0.023763
0.033221
0.015591
0.035530
0.017545
0.029071
0.008097
0.036371
0.030788
0.005984
0.001836
0.004209
0.004232
0.034167
0.005100
0.035047
0.004358
0.036638
0.010744
0.009689
0.019440
0.010929
0.003592
0.015579
0.006250
0.034711
0.035263
0.035072
0.034892
0.032181
0.033526
0.033933
0.032902
0.029824
0.005487
0.033291
0.032802
0.003281
0.035011
0.033727
0.025742
0.034998
0.034918
0.033314
0.033101
0.033580
0.035777
0.033427
0.004497
0.034546
0.033834
0.035350
0.006850
0.037092
0.034946
0.034202
0.003444
0.034649
0.032883
0.035022
0.035747
0.007605
0.004253
0.009818
0.003997
0.005040
0.019622
0.003183
0.003449
0.032415
0.017032
0.033760
0.034630
0.005346
0.034351
0.028562
0.025653
0.034879
0.007304
0.004221
0.030272
0.005178
0.012852
0.005913
0.008011
0.033052
0.034234
0.034717
0.032553
0.034757
0.010125
0.033406
0.033868
0.034717
0.034627
0.033231
0.015559
0.032297
0.002527
0.028499
0.032429
0.029693
0.028958
0.030500
0.019661
0.033281
0.032794
0.032881
0.032660
0.006978
0.034349
0.003808
0.009055
0.004066
0.035564
0.012168
0.021639
0.027656
0.033084
0.008468
0.006426
0.003285
0.025354
0.033463
0.006645
0.033196
0.033809
0.034457
0.034719
0.032361
0.031993
0.032689
0.032529
0.032878
0.033013
0.032863
0.009327
0.033016
0.033219
0.027656
0.033730
0.034720
0.035060
0.032878
0.035701
0.034939
0.000867
0.034517
0.032822
0.034831
0.005138
0.034785
0.023316
0.032521
0.004592
0.035401
0.032061
0.008627
0.009783
0.028192
0.031820
0.032285
0.012305
0.022999
0.004659
0.031973
0.019911
0.028289
0.003427
0.033233
0.003710
0.003107
0.033498
0.033827
0.032503
0.002770
0.007157
0.034530
0.034456
0.011577
0.030822
0.030482
0.027479
0.005228
0.032652
0.032618
0.032390
0.031463
0.032391
0.018025
0.001917
0.032763
0.002894
0.026972
0.005354
0.034640
0.010859
0.007960
0.034512
0.034560
0.010273
0.034362
0.015152
0.034881
0.032608
0.003969
0.005767
0.034514
0.004424
0.033244
0.004763
0.005507
0.007627
0.033710
0.023530
0.012013
0.026842
0.033626
0.010877
0.034381
0.033836
0.021173
0.033071
0.032377
0.032782
0.032607
0.033002
0.032300
0.032257
0.033398
0.032814
0.024913
0.033663
0.031499
0.032614
0.035094
0.006006
0.032405
0.034688
0.034622
0.019093
0.004361
0.029943
0.026671
0.028693
0.032561
0.008481
0.027268
0.030521
0.011168
0.022718
0.004983
0.005798
0.026376
0.004223
0.025701
0.002795
0.029436
0.031869
0.033232
0.033411
0.006301
0.033948
0.018645
0.034232
0.032130
0.032166
0.009393
0.032936
0.006109
0.034435
0.018260
0.005462
0.032026
0.032825
0.006813
0.003866
0.031222
0.013359
0.031642
0.032341
0.032334
0.032196
0.032220
0.029033
0.008262
0.006413
0.012006
0.034250
0.004739
0.004340
0.007749
0.032884
0.009012
0.013939
0.030728
0.027883
0.002503
0.025043
0.033196
0.032510
0.011391
0.021567
0.034384
0.034075
0.002232
0.033182
0.032503
0.033014
0.031859
0.005711
0.034371
0.032352
0.032519
0.034285
0.031953
0.034344
0.032238
0.032538
0.032498
0.033291
0.001638
0.032887
0.031185
0.020654
0.034435
0.009754
0.034340
0.025312
0.030847
0.031942
0.001294
0.032123
0.032302
0.034551
0.033318
0.024441
0.004649
0.003655
0.034406
0.005109
0.031875
0.031456
0.009528
0.018426
0.027632
0.022167
0.006657
0.030557
0.025885
0.031739
0.005399
0.005067
0.003347
0.033882
0.004670
0.024011
0.032610
0.004107
0.003621
0.033407
0.029664
0.032839
0.010749
0.032033
0.029088
0.002324
0.011845
0.030641
0.007081
0.007541
0.033855
0.008118
0.031942
0.031646
0.032232
0.031825
0.032617
0.019982
0.016638
0.008984
0.032439
0.001552
0.027828
0.006596
0.012234
0.026762
0.032440
0.031668
0.031639
0.023415
0.006537
0.009891
0.032729
0.006207
0.008859
0.003127
0.012935
0.019874
0.005145
0.013593
0.030312
0.034033
0.034110
0.032943
0.032574
0.002092
0.031844
0.034135
0.034323
0.034250
0.033994
0.031841
0.004440
0.032006
0.008835
0.031722
0.031996
0.016596
0.032263
0.005202
0.031682
0.031948
0.032251
0.034278
0.006575
0.031513
0.030041
0.032046
0.004402
0.014688
0.001933
0.004589
0.034265
0.000558
0.005201
0.032132
0.033220
0.034132
0.033739
0.032081
0.023988
0.002920
0.025969
0.032124
0.029582
0.034142
0.034232
0.001387
0.031616
0.011127
0.009854
0.026414
0.018420
0.021560
0.029271
0.011169
0.007080
0.005865
0.006791
0.031184
0.025135
0.013699
0.024434
0.002852
0.032114
0.028438
0.031477
0.003522
0.013337
0.031668
0.007917
0.008851
0.006007
0.001533
0.001851
0.007163
0.031536
0.011187
0.010599
0.005532
0.025879
0.024972
0.007531
0.028491
0.002762
0.032679
0.021439
0.033642
0.033024
0.010104
0.031740
0.016996
0.033691
0.032289
0.031780
0.031546
0.029485
0.007645
0.006307
0.018231
0.013426
0.003844
0.023156
0.029020
0.033904
0.032157
0.031483
0.034128
0.031568
0.031433
0.031763
0.032776
0.029625
0.008215
0.031412
0.031714
0.001981
0.033823
0.031629
0.031870
0.031006
0.034098
0.033861
0.031473
0.031228
0.031342
0.027435
0.004869
0.008954
0.009286
0.034102
0.033458
0.033853
0.032777
0.004525
0.016672
0.031956
0.023485
0.033314
0.014338
0.034018
0.004287
0.034029
0.004076
0.027779
0.032857
0.033806
0.005103
0.015671
0.005771
0.002267
0.030913
0.031728
0.011163
0.008474
0.025205
0.032931
0.028314
0.022986
0.006786
0.005513
0.005607
0.030229
0.005134
0.027274
0.023136
0.017228
0.004436
0.031059
0.026604
0.015233
0.001873
0.031137
0.012672
0.008123
0.032434
0.013570
0.002080
0.014469
0.010204
0.010762
0.014535
0.021361
0.033410
0.006096
0.032805
0.024492
0.030661
0.007863
0.028003
0.007636
0.019863
0.031976
0.006969
0.011577
0.007529
0.003299
0.009477
0.007455
0.012365
0.030713
0.032321
0.031219
0.031345
0.019982
0.029706
0.003153
0.030555
0.032003
0.033569
0.032617
0.005747
0.033486
0.033259
0.009628
0.015646
0.031287
0.031373
0.031447
0.031216
0.007890
0.030871
0.029497
0.031400
0.033768
0.033949
0.010375
0.031417
0.031008
0.030364
0.023656
0.033837
0.033947
0.004971
0.027195
0.004086
0.024885
0.031121
0.022404
0.030740
0.015315
0.033811
0.031201
0.001474
0.033534
0.032210
0.033092
0.032670
0.033428
0.006004
0.033696
0.030888
0.003790
0.033595
0.033922
0.003851
0.033749
0.032509
0.012652
0.032560
0.018400
0.023971
0.011816
0.027358
0.029730
0.006535
0.007509
0.008152
0.024249
0.003847
0.015896
0.032077
0.009152
0.022524
0.002883
0.002802
0.031895
0.030902
0.005303
0.003863
0.028887
0.001922
0.031840
0.028571
0.004171
0.006580
0.030840
0.030961
0.002053
0.026631
0.032458
0.018481
0.005541
0.005685
0.019850
0.012290
0.007966
0.029430
0.033144
0.006733
0.030055
0.025490
0.013323
0.008515
0.033492
0.029982
0.032224
0.011839
0.007423
0.012874
0.033230
0.021755
0.008132
0.033036
0.031869
0.003525
0.031739
0.030992
0.008841
0.010292
0.008871
0.001505
0.015569
0.021445
0.014419
0.011424
0.032730
0.032126
0.005315
0.033439
0.033673
0.030859
0.030731
0.002409
0.031073
0.032045
0.033781
0.032917
0.033832
0.031197
0.033560
0.031272
0.014799
0.017123
0.003374
0.033581
0.007260
0.033502
0.030950
0.010317
0.004410
0.032488
0.034018
0.030777
0.033378
0.021136
0.030222
0.004843
0.033413
0.033561
0.008422
0.033718
0.031546
0.010933
0.031448
0.030571
0.032177
0.012175
0.013916
0.009495
0.018374
0.033284
0.025597
0.032333
0.031835
0.028981
0.008193
0.030301
0.006801
0.031421
0.006670
0.006048
0.029261
0.030091
0.031529
0.014608
0.003254
0.004717
0.030334
0.021223
0.002199
0.002363
0.030361
0.003774
0.012690
0.004133
0.030982
0.016798
0.019643
0.030416
0.001135
0.004203
0.013041
0.032537
0.030824
0.032844
0.032843
0.030625
0.012223
0.007586
0.008475
0.014406
0.015189
0.016989
0.006079
0.009664
0.009716
0.022776
0.033239
0.033139
0.011059
0.030639
0.005480
0.033566
0.030448
0.028762
0.006559
0.029195
0.032498
0.031862
0.033227
0.033613
0.030694
0.016136
0.033156
0.030702
0.032557
0.009444
0.004374
0.029845
0.032791
0.005269
0.005123
0.022471
0.033348
0.033609
0.027714
0.020338
0.005672
0.001721
0.008809
0.030617
0.010533
0.033066
0.002876
0.002443
0.031697
0.005204
0.008756
0.032822
0.033287
0.033406
0.032141
0.028387
0.001552
0.033487
0.017236
0.024417
0.027730
0.002296
0.007265
0.013576
0.012692
0.030016
0.014107
0.031738
0.010425
0.016252
0.023353
0.013594
0.021339
0.008849
0.026866
0.028977
0.033130
0.010417
0.007914
0.023857
0.007698
0.032060
0.032884
0.011808
0.030946
0.003818
0.005991
0.007029
0.005578
0.030207
0.001909
0.005388
0.017177
0.031251
0.003208
0.004428
0.031157
0.002808
0.006253
0.029051
0.002056
0.001296
0.032637
0.030207
0.007184
0.013420
0.027913
0.024578
0.033041
0.028279
0.025651
0.008858
0.031879
0.011151
0.015765
0.032875
0.031821
0.031383
0.003541
0.030253
0.000906
0.012465
0.009318
0.006127
0.032182
0.031221
0.014270
0.021207
0.032120
0.006923
0.029958
0.017738
0.006169
0.012741
0.030297
0.029986
0.033478
0.026739
0.018593
0.033007
0.029239
0.029044
0.031298
0.033211
0.030625
0.033342
0.031526
0.002510
0.032296
0.004608
0.033186
0.005633
0.030176
0.023560
0.028220
0.033748
0.030512
0.033165
0.032516
0.009010
0.002868
0.020229
0.013664
0.030739
0.005524
0.017377
0.009674
0.018131
0.004693
0.031148
0.033452
0.033241
0.032187
0.032481
0.005005
0.006306
0.032795
0.005157
0.029566
0.001324
0.028515
0.019161
0.010058
0.031485
0.005564
0.033933
0.029805
0.013357
0.020287
0.023621
0.010482
0.028321
0.008162
0.031802
0.007249
0.032112
0.006472
0.026601
0.028327
0.011265
0.006014
0.032513
0.012704
0.032778
0.030954
0.016125
0.002542
0.025080
0.031753
0.005832
0.010256
0.030854
0.030660
0.014041
0.004934
0.029774
0.022938
0.000871
0.033149
0.007779
0.005656
0.003151
0.032971
0.002144
0.004338
0.009575
0.009323
0.001142
0.003848
0.029461
0.029558
0.029712
0.005126
0.015017
0.018726
0.015504
0.015837
0.032411
0.027992
0.021276
0.032972
0.030924
0.013731
0.002393
0.024686
0.031099
0.016770
0.031434
0.005823
0.019374
0.004127
0.006696
0.019131
0.006191
0.011946
0.001412
0.001686
0.017636
0.031893