# vtk DataFile Version 2.0
Test
ASCII
DATASET POLYDATA
POINTS 7341 float
0.000000 0.000000 0.000000
1.000000 0.000000 0.000000
1.000000 1.000000 0.000000
0.000000 1.000000 0.000000
0.000000 0.500000 0.000000
0.500000 0.500000 0.000000
1.000000 0.500000 0.000000
0.499000 0.499000 0.000000
0.900000 0.010000 0.000000
0.029412 0.000000 0.000000
0.058824 0.000000 0.000000
0.088235 0.000000 0.000000
0.117647 0.000000 0.000000
0.147059 0.000000 0.000000
0.176471 0.000000 0.000000
0.205882 0.000000 0.000000
0.235294 0.000000 0.000000
0.264706 0.000000 0.000000
0.294118 0.000000 0.000000
0.323529 0.000000 0.000000
0.352941 0.000000 0.000000
0.382353 0.000000 0.000000
0.411765 0.000000 0.000000
0.441176 0.000000 0.000000
0.470588 0.000000 0.000000
0.500000 0.000000 0.000000
0.529412 0.000000 0.000000
0.558824 0.000000 0.000000
0.588235 0.000000 0.000000
0.617647 0.000000 0.000000
0.647059 0.000000 0.000000
0.676471 0.000000 0.000000
0.705882 0.000000 0.000000
0.735294 0.000000 0.000000
0.764706 0.000000 0.000000
0.794118 0.000000 0.000000
0.823529 0.000000 0.000000
0.852941 0.000000 0.000000
0.882353 0.000000 0.000000
0.911765 0.000000 0.000000
0.941176 0.000000 0.000000
0.970588 0.000000 0.000000
1.000000 0.029412 0.000000
1.000000 0.058824 0.000000
1.000000 0.088235 0.000000
1.000000 0.117647 0.000000
1.000000 0.147059 0.000000
1.000000 0.176471 0.000000
1.000000 0.205882 0.000000
1.000000 0.235294 0.000000
1.000000 0.264706 0.000000
1.000000 0.294118 0.000000
1.000000 0.323529 0.000000
1.000000 0.352941 0.000000
1.000000 0.382353 0.000000
1.000000 0.411765 0.000000
1.000000 0.441176 0.000000
1.000000 0.470588 0.000000
1.000000 0.529412 0.000000
1.000000 0.558824 0.000000
1.000000 0.588235 0.000000
1.000000 0.617647 0.000000
1.000000 0.647059 0.000000
1.000000 0.676471 0.000000
1.000000 0.705882 0.000000
1.000000 0.735294 0.000000
1.000000 0.764706 0.000000
1.000000 0.794118 0.000000
1.000000 0.823529 0.000000
1.000000 0.852941 0.000000
1.000000 0.882353 0.000000
1.000000 0.911765 0.000000
1.000000 0.941176 0.000000
1.000000 0.970588 0.000000
0.970588 1.000000 0.000000
0.941176 1.000000 0.000000
0.911765 1.000000 0.000000
0.882353 1.000000 0.000000
0.852941 1.000000 0.000000
0.823529 1.000000 0.000000
0.794118 1.000000 0.000000
0.764706 1.000000 0.000000
0.735294 1.000000 0.000000
0.705882 1.000000 0.000000
0.676471 1.000000 0.000000
0.647059 1.000000 0.000000
0.617647 1.000000 0.000000
0.588235 1.000000 0.000000
0.558824 1.000000 0.000000
0.529412 1.000000 0.000000
0.500000 1.000000 0.000000
0.470588 1.000000 0.000000
0.441176 1.000000 0.000000
0.411765 1.000000 0.000000
0.382353 1.000000 0.000000
0.352941 1.000000 0.000000
0.323529 1.000000 0.000000
0.294118 1.000000 0.000000
0.264706 1.000000 0.000000
0.235294 1.000000 0.000000
0.205882 1.000000 0.000000
0.176471 1.000000 0.000000
0.147059 1.000000 0.000000
0.117647 1.000000 0.000000
0.088235 1.000000 0.000000
0.058824 1.000000 0.000000
0.029412 1.000000 0.000000
0.000000 0.970588 0.000000
0.000000 0.941176 0.000000
0.000000 0.911765 0.000000
0.000000 0.882353 0.000000
0.000000 0.852941 0.000000
0.000000 0.823529 0.000000
0.000000 0.794118 0.000000
0.000000 0.764706 0.000000
0.000000 0.735294 0.000000
0.000000 0.705882 0.000000
0.000000 0.676471 0.000000
0.000000 0.647059 0.000000
0.000000 0.617647 0.000000
0.000000 0.588235 0.000000
0.000000 0.558824 0.000000
0.000000 0.529412 0.000000
0.007246 0.500000 0.000000
0.014493 0.500000 0.000000
0.021739 0.500000 0.000000
0.028986 0.500000 0.000000
0.036232 0.500000 0.000000
0.043478 0.500000 0.000000
0.050725 0.500000 0.000000
0.057971 0.500000 0.000000
0.065217 0.500000 0.000000
0.072464 0.500000 0.000000
0.079710 0.500000 0.000000
0.086957 0.500000 0.000000
0.094203 0.500000 0.000000
0.101449 0.500000 0.000000
0.108696 0.500000 0.000000
0.115942 0.500000 0.000000
0.123188 0.500000 0.000000
0.130435 0.500000 0.000000
0.137681 0.500000 0.000000
0.144928 0.500000 0.000000
0.152174 0.500000 0.000000
0.159420 0.500000 0.000000
0.166667 0.500000 0.000000
0.173913 0.500000 0.000000
0.181159 0.500000 0.000000
0.188406 0.500000 0.000000
0.195652 0.500000 0.000000
0.202899 0.500000 0.000000
0.210145 0.500000 0.000000
0.217391 0.500000 0.000000
0.224638 0.500000 0.000000
0.231884 0.500000 0.000000
0.239130 0.500000 0.000000
0.246377 0.500000 0.000000
0.253623 0.500000 0.000000
0.260870 0.500000 0.000000
0.268116 0.500000 0.000000
0.275362 0.500000 0.000000
0.282609 0.500000 0.000000
0.289855 0.500000 0.000000
0.297101 0.500000 0.000000
0.304348 0.500000 0.000000
0.311594 0.500000 0.000000
0.318841 0.500000 0.000000
0.326087 0.500000 0.000000
0.333333 0.500000 0.000000
0.340580 0.500000 0.000000
0.347826 0.500000 0.000000
0.355072 0.500000 0.000000
0.362319 0.500000 0.000000
0.369565 0.500000 0.000000
0.376812 0.500000 0.000000
0.384058 0.500000 0.000000
0.391304 0.500000 0.000000
0.398551 0.500000 0.000000
0.405797 0.500000 0.000000
0.413043 0.500000 0.000000
0.420290 0.500000 0.000000
0.427536 0.500000 0.000000
0.434783 0.500000 0.000000
0.442029 0.500000 0.000000
0.449275 0.500000 0.000000
0.456522 0.500000 0.000000
0.463768 0.500000 0.000000
0.471014 0.500000 0.000000
0.478261 0.500000 0.000000
0.485507 0.500000 0.000000
0.492754 0.500000 0.000000
0.510004 0.500000 0.000000
0.520408 0.500000 0.000000
0.531229 0.500000 0.000000
0.542483 0.500000 0.000000
0.554187 0.500000 0.000000
0.566359 0.500000 0.000000
0.579019 0.500000 0.000000
0.592185 0.500000 0.000000
0.605877 0.500000 0.000000
0.620118 0.500000 0.000000
0.634929 0.500000 0.000000
0.650332 0.500000 0.000000
0.666352 0.500000 0.000000
0.683013 0.500000 0.000000
0.700340 0.500000 0.000000
0.718361 0.500000 0.000000
0.737103 0.500000 0.000000
0.756595 0.500000 0.000000
0.776867 0.500000 0.000000
0.797950 0.500000 0.000000
0.819877 0.500000 0.000000
0.842681 0.500000 0.000000
0.866398 0.500000 0.000000
0.891064 0.500000 0.000000
0.916716 0.500000 0.000000
0.943396 0.500000 0.000000
0.971143 0.500000 0.000000
0.000000 0.470588 0.000000
0.000000 0.441176 0.000000
0.000000 0.411765 0.000000
0.000000 0.382353 0.000000
0.000000 0.352941 0.000000
0.000000 0.323529 0.000000
0.000000 0.294118 0.000000
0.000000 0.264706 0.000000
0.000000 0.235294 0.000000
0.000000 0.205882 0.000000
0.000000 0.176471 0.000000
0.000000 0.147059 0.000000
0.000000 0.117647 0.000000
0.000000 0.088235 0.000000
0.000000 0.058824 0.000000
0.000000 0.029412 0.000000
0.500341 0.497365 0.000000
0.501682 0.495729 0.000000
0.503023 0.494094 0.000000
0.504365 0.492458 0.000000
0.505706 0.490823 0.000000
0.507047 0.489187 0.000000
0.508388 0.487552 0.000000
0.509729 0.485916 0.000000
0.511070 0.484281 0.000000
0.512411 0.482645 0.000000
0.513753 0.481010 0.000000
0.515094 0.479375 0.000000
0.516435 0.477739 0.000000
0.517776 0.476104 0.000000
0.519117 0.474468 0.000000
0.520458 0.472833 0.000000
0.521799 0.471197 0.000000
0.523140 0.469562 0.000000
0.524482 0.467926 0.000000
0.525823 0.466291 0.000000
0.527164 0.464656 0.000000
0.528505 0.463020 0.000000
0.529846 0.461385 0.000000
0.531187 0.459749 0.000000
0.532528 0.458114 0.000000
0.533870 0.456478 0.000000
0.535211 0.454843 0.000000
0.536552 0.453207 0.000000
0.537893 0.451572 0.000000
0.539234 0.449936 0.000000
0.540575 0.448301 0.000000
0.541916 0.446666 0.000000
0.543258 0.445030 0.000000
0.544599 0.443395 0.000000
0.545940 0.441759 0.000000
0.547281 0.440124 0.000000
0.548622 0.438488 0.000000
0.549963 0.436853 0.000000
0.551304 0.435217 0.000000
0.552645 0.433582 0.000000
0.553987 0.431946 0.000000
0.555328 0.430311 0.000000
0.556669 0.428676 0.000000
0.558010 0.427040 0.000000
0.559351 0.425405 0.000000
0.560692 0.423769 0.000000
0.562033 0.422134 0.000000
0.563375 0.420498 0.000000
0.564716 0.418863 0.000000
0.566057 0.417227 0.000000
0.567398 0.415592 0.000000
0.568739 0.413957 0.000000
0.570080 0.412321 0.000000
0.571421 0.410686 0.000000
0.572763 0.409050 0.000000
0.574104 0.407415 0.000000
0.575445 0.405779 0.000000
0.576786 0.404144 0.000000
0.578127 0.402508 0.000000
0.579468 0.400873 0.000000
0.580809 0.399237 0.000000
0.582151 0.397602 0.000000
0.583492 0.395967 0.000000
0.584833 0.394331 0.000000
0.586174 0.392696 0.000000
0.587515 0.391060 0.000000
0.588856 0.389425 0.000000
0.590197 0.387789 0.000000
0.591538 0.386154 0.000000
0.592880 0.384518 0.000000
0.594221 0.382883 0.000000
0.595562 0.381247 0.000000
0.596903 0.379612 0.000000
0.598244 0.377977 0.000000
0.599585 0.376341 0.000000
0.600926 0.374706 0.000000
0.602268 0.373070 0.000000
0.603609 0.371435 0.000000
0.604950 0.369799 0.000000
0.606291 0.368164 0.000000
0.607632 0.366528 0.000000
0.608973 0.364893 0.000000
0.610314 0.363258 0.000000
0.611656 0.361622 0.000000
0.612997 0.359987 0.000000
0.614338 0.358351 0.000000
0.615679 0.356716 0.000000
0.617020 0.355080 0.000000
0.618361 0.353445 0.000000
0.619702 0.351809 0.000000
0.621043 0.350174 0.000000
0.622385 0.348538 0.000000
0.623726 0.346903 0.000000
0.625067 0.345268 0.000000
0.626408 0.343632 0.000000
0.627749 0.341997 0.000000
0.629090 0.340361 0.000000
0.630431 0.338726 0.000000
0.631773 0.337090 0.000000
0.633114 0.335455 0.000000
0.634455 0.333819 0.000000
0.635796 0.332184 0.000000
0.637137 0.330548 0.000000
0.638478 0.328913 0.000000
0.639819 0.327278 0.000000
0.641161 0.325642 0.000000
0.642502 0.324007 0.000000
0.643843 0.322371 0.000000
0.645184 0.320736 0.000000
0.646525 0.319100 0.000000
0.647866 0.317465 0.000000
0.649207 0.315829 0.000000
0.650548 0.314194 0.000000
0.651890 0.312559 0.000000
0.653231 0.310923 0.000000
0.654572 0.309288 0.000000
0.655913 0.307652 0.000000
0.657254 0.306017 0.000000
0.658595 0.304381 0.000000
0.659936 0.302746 0.000000
0.661278 0.301110 0.000000
0.662619 0.299475 0.000000
0.663960 0.297839 0.000000
0.665301 0.296204 0.000000
0.666642 0.294569 0.000000
0.667983 0.292933 0.000000
0.669324 0.291298 0.000000
0.670666 0.289662 0.000000
0.672007 0.288027 0.000000
0.673348 0.286391 0.000000
0.674689 0.284756 0.000000
0.676030 0.283120 0.000000
0.677371 0.281485 0.000000
[...]
POINT_DATA 7341
SCALARS UX float 1
LOOKUP_TABLE default
0.000000
0.000000
0.245500
0.245500
0.085851
0.083891
0.130475
0.083554
0.001123
-0.000000
0.000000
0.000000
0.000000
0.000000
0.000000
0.000000
0.000000
0.000000
0.000000
0.000000
0.000000
0.000000
0.000000
0.000000
0.000000
0.000000
0.000000
0.000000
0.000000
0.000000
0.000000
0.000000
0.000000
0.000000
0.000000
0.000000
0.000000
0.000000
0.000000
0.000000
0.000000
-0.000000
0.007961
0.018360
0.025919
0.031677
0.036706
0.041081
0.045899
0.050076
0.055120
0.061786
0.069106
0.077005
0.084668
0.093893
0.104795
0.116757
0.141685
0.150964
0.151904
0.151664
0.155287
0.161917
0.168319
0.175530
0.182939
0.190591
0.198349
0.206145
0.213983
0.221841
0.229708
0.237616
0.245500
0.245500
0.245500
0.245500
0.245500
0.245500
0.245500
0.245500
0.245500
0.245500
0.245500
0.245500
0.245500
0.245500
0.245500
0.245500
0.245500
0.245500
0.245500
0.245500
0.245500
0.245500
0.245500
0.245500
0.245500
0.245500
0.245500
0.245500
0.245500
0.245500
0.245500
0.245500
0.245500
0.236150
0.226811
0.217453
0.208125
0.198808
0.189546
0.180311
0.171182
0.162154
0.153263
0.144545
0.135958
0.127446
0.118848
0.110421
0.100238
0.085943
0.085372
0.085023
0.084691
0.084463
0.084264
0.084065
0.083852
0.083622
0.083393
0.083278
0.083176
0.083016
0.082886
0.082833
0.082851
0.082790
0.082800
0.082882
0.082931
0.083015
0.083089
0.083206
0.083355
0.083499
0.083755
0.083946
0.084166
0.084394
0.084639
0.084855
0.084990
0.085138
0.085226
0.085317
0.085422
0.085395
0.085390
0.085382
0.085343
0.085307
0.085169
0.084849
0.084575
0.084409
0.084234
0.084069
0.083886
0.083703
0.083543
0.083381
0.083241
0.083128
0.083038
0.082970
0.082943
0.082914
0.082904
0.082908
0.082904
0.082894
0.082923
0.082971
0.083048
0.083127
0.083285
0.083454
0.083667
0.084090
0.084173
0.084275
0.084401
0.084561
0.084779
0.085054
0.085466
0.085984
0.086673
0.087460
0.088364
0.089365
0.090425
0.091611
0.092908
0.094350
0.096086
0.098232
0.100757
0.103504
0.106219
0.109903
0.117120
0.122980
0.126608
0.129595
0.079081
0.071934
0.065862
0.060199
0.055060
0.049917
0.045222
0.040338
0.035994
0.031835
0.027856
0.023816
0.020070
0.016573
0.012853
0.008969
0.083090
0.082626
0.082167
0.081699
0.081234
0.080765
0.080299
0.079836
0.079375
0.078916
0.078459
0.078002
0.077547
0.077092
0.076637
0.076182
0.075726
0.075270
0.074811
0.074351
0.073890
0.073427
0.072962
0.072495
0.072027
0.071558
0.071089
0.070619
0.070149
0.069678
0.069208
0.068738
0.068268
0.067798
0.067329
0.066860
0.066391
0.065924
0.065457
0.064991
0.064526
0.064062
0.063600
0.063138
0.062678
0.062219
0.061763
0.061308
0.060854
0.060403
0.059953
0.059506
0.059061
0.058618
0.058177
0.057739
0.057303
0.056869
0.056438
0.056010
0.055584
0.055161
0.054740
0.054322
0.053907
0.053494
0.053085
0.052679
0.052275
0.051875
0.051478
0.051084
0.050693
0.050305
0.049920
0.049539
0.049160
0.048785
0.048414
0.048045
0.047680
0.047318
0.046960
0.046605
0.046253
0.045905
0.045559
0.045217
0.044878
0.044543
0.044211
0.043882
0.043556
0.043233
0.042913
0.042596
0.042282
0.041972
0.041665
0.041361
0.041059
0.040760
0.040464
0.040171
0.039880
0.039592
0.039306
0.039023
0.038742
0.038465
0.038189
0.037917
0.037645
0.037378
0.037115
0.036854
0.036597
0.036343
0.036096
0.035855
0.035618
0.035389
0.035170
0.034962
0.034766
0.034584
0.034416
0.034260
0.034112
0.033973
0.033845
0.033731
0.033627
0.033536
0.033458
0.033394
0.033345
0.033306
0.033277
0.033256
0.033245
0.033241
0.033243
0.033248
0.033255
0.033266
0.033275
0.033288
0.033296
0.033290
0.033198
0.032828
0.032407
0.031975
0.031562
0.031160
0.030769
0.030384
0.030005
0.029631
0.029264
0.028906
0.028554
0.028209
0.027874
0.027545
0.027223
0.026907
0.026600
0.026298
0.026000
0.025705
0.025415
0.025127
0.024842
0.024560
0.024281
0.024003
0.023728
0.023455
0.023185
0.022915
0.022647
0.022381
0.022117
0.021855
0.021594
0.021335
0.021077
0.020822
0.020567
0.020314
0.020063
0.019814
0.019566
0.019320
0.019075
0.018833
0.018591
0.018352
0.018114
0.017878
0.017643
0.017410
0.017180
0.016951
0.016722
0.016490
0.016262
0.016039
0.015818
0.015600
0.015383
0.015167
0.014953
0.014741
0.014530
0.014321
0.014114
0.013908
0.013704
0.013502
0.013301
0.013102
0.012905
0.012709
0.012515
0.012323
0.012132
0.011944
0.011756
0.011571
0.011387
0.011205
0.011024
0.010845
0.010667
0.010491
0.010317
0.010144
0.009972
0.009802
0.009633
0.009466
0.009301
0.009136
0.008973
0.008812
0.008652
0.008493
0.008335
0.008178
0.008023
0.007868
0.007715
0.007562
0.007410
0.007260
0.007110
0.006961
0.006814
0.006667
0.006522
0.006378
0.006234
0.006092
0.005952
0.005812
0.005672
0.005531
0.005396
0.005259
0.005119
0.004984
0.004848
0.004711
0.004573
0.004433
0.004291
0.004148
0.004004
0.003857
0.003709
0.003559
0.003408
0.003256
0.003101
0.002945
0.002787
0.002627
0.002464
0.002300
0.002134
0.001967
0.001800
0.001630
0.001459
0.001293
0.080195
0.081693
0.080957
0.001411
0.001139
0.096875
0.001564
0.088836
0.078571
0.059136
0.083942
0.001929
0.043372
0.079123
0.035204
0.029993
0.081382
0.001987
0.002312
0.080728
0.016817
0.080374
0.081277
0.017945
0.080765
0.063227
0.081701
0.082074
0.112261
0.080863
0.003838
0.081018
0.081566
0.078684
0.078845
0.001806
0.080853
0.005625
0.081183
0.001145
0.081390
0.081375
0.080687
0.079881
0.003167
0.082319
0.002678
0.081476
0.077225
0.083004
0.002339
0.080815
0.022035
0.058423
0.001957
0.080840
0.082381
0.053115
0.085743
0.092379
0.040370
0.045395
0.001860
0.001807
0.080690
0.080854
0.038585
0.103330
0.117152
0.001466
0.099413
0.001353
0.066557
0.001159
0.080632
0.025929
0.001558
0.116860
0.014466
0.004458
0.009769
0.004981
0.005536
0.081500
0.080477
0.079609
0.081626
0.081657
0.081239
0.079034
0.079575
0.078975
0.078589
0.078543
0.078524
0.078617
0.082274
0.081389
0.081064
0.080787
0.081612
0.002358
0.081232
0.082944
0.078851
0.077821
0.002618
0.078999
0.002892
0.075245
0.063191
0.003708
0.041070
0.076038
0.036622
0.079762
0.003842
0.090702
0.013013
0.053025
0.077947
0.028206
0.003207
0.075414
0.081580
0.003961
0.080001
0.078401
0.078253
0.078748
0.012881
0.104748
0.081980
0.081769
0.001990
0.075706
0.073143
0.001852
0.081303
0.081424
0.029802
0.081340
0.001801
0.061344
0.080997
0.082015
0.010072
0.083300
0.048862
0.051182
0.085079
0.087628
0.001604
0.090810
0.003133
0.094726
0.080841
0.001187
0.073672
0.001045
0.104706
0.080783
0.091726
0.001240
0.034647
0.115796
0.080683
0.001846
0.021901
0.007342
0.003187
0.009052
0.080653
0.080808
0.080432
0.080411
0.080772
0.081092
0.081407
0.080478
0.079526
0.078862
0.078302
0.078510
0.078027
0.078418
0.081662
0.082708
0.078524
0.079583
0.079801
0.081745
0.081414
0.078961
0.081959
0.080268
0.082091
0.080986
0.031497
0.004555
0.085444
0.079806
0.028703
0.077525
0.078499
0.078387
0.079594
0.076660
0.002903
0.078798
0.032633
0.101724
0.106255
0.004209
0.006556
0.003675
0.078267
0.076958
0.003940
0.077834
0.078467
0.080294
0.045607
0.075082
0.077343
0.077149
0.079393
0.003913
0.090644
0.077584
0.077581
0.075645
0.003647
0.072267
0.078327
0.002647
0.087171
0.050167
0.042253
0.002374
0.081946
0.037005
0.080909
0.003367
0.003279
0.002712
0.080141
0.003724
0.017780
0.078940
0.078914
0.079198
0.094252
0.089064
0.003599
0.057146
0.056189
0.024269
0.081190
0.020104
0.016383
0.003666
0.011388
0.008183
0.077880
0.078650
0.078710
0.077382
0.076695
0.003896
0.078431
0.066703
0.072242
0.075765
0.078661
0.075147
0.077491
0.080044
0.075461
0.075323
0.074793
0.078169
0.079272
0.076966
0.080744
0.080781
0.079532
0.075277
0.079606
0.025636
0.009221
0.081358
0.079676
0.080589
0.078989
0.082536
0.075941
0.074631
0.077260
0.004220
0.082226
0.053966
0.005532
0.035942
0.073186
0.005491
0.005955
0.091340
0.014440
0.057307
0.005503
0.075363
0.022831
0.076354
0.072799
0.075504
0.005074
0.073544
0.004911
0.079212
0.066057
0.077284
0.077774
0.002558
0.079283
0.078843
0.077068
0.030806
0.082823
0.005587
0.078616
0.064576
0.075880
0.032209
0.105121
0.044129
0.080610
0.078983
0.005220
0.080242
0.018577
0.014831
0.009779
0.010502
0.080549
0.078649
0.004143
0.004441
0.078314
0.004613
0.078364
0.078541
0.083438
0.075616
0.075072
0.074974
0.078382
0.020692
0.076561
0.076426
0.077144
0.079610
0.075963
0.003629
0.072730
0.072532
0.076002
0.049443
0.080327
0.068583
0.079289
0.075966
0.078009
0.081829
0.079730
0.080039
0.078893
0.025515
0.022425
0.073155
0.078739
0.085607
0.076291
0.079403
0.078898
0.080460
0.082654
0.007083
0.005906
0.077040
0.007570
0.075119
0.070333
0.073906
0.029595
0.033736
0.073769
0.070911
0.005551
0.073667
0.076160
0.075288
0.079224
0.078812
0.077272
0.076717
0.006100
0.021237
0.006653
0.073978
0.075177
0.053702
0.013005
0.005061
0.004359
0.022865
0.075610
0.075911
0.005642
0.012028
0.049404
0.072531
0.078031
0.073739
0.080824
0.096235
0.072839
0.074495
0.072178
0.079146
0.073222
0.018416
0.005375
0.076777
0.085653
0.060063
0.076426
0.076002
0.008133
0.049069
0.077853
0.096073
0.073139
0.017397
0.060798
0.004616
0.005853
0.040192
0.080086
0.026986
0.013785
0.077140
0.077827
0.077402
0.037697
0.075861
0.005140
0.074010
0.075757
0.080332
0.005436
0.074232
0.077566
0.081748
0.078028
0.081309
0.079320
0.072241
0.072269
0.079220
0.074050
0.068588
0.072657
0.070779
0.005261
0.078284
0.072732
0.073376
0.077558
0.072097
0.074066
0.078450
0.073690
0.071914
0.075768
0.057346
0.070078
0.007190
0.070940
0.019439
0.051239
0.013468
0.074113
0.007014
0.082452
0.071281
0.007759
0.070628
0.073763
0.076920
0.075127
0.063396
0.005452
0.034105
0.025457
0.006807
0.006619
0.074417
0.075940
0.006947
0.070085
0.069760
0.078414
0.078553
0.075176
0.072530
0.071458
0.038077
0.007835
0.029718
0.078849
0.008531
0.012073
0.074695
0.006259
0.020205
0.005524
0.076824
0.088789
0.078036
0.075132
0.059705
0.016478
0.043775
0.006841
0.006183
0.076633
0.046206
0.075345
0.077620
0.047298
0.089911
0.079794
0.073528
0.075736
0.072435
0.076186
0.071435
0.073428
0.069979
0.078936
0.078212
0.025924
0.006024
0.070605
0.080484
0.073523
0.074173
0.075140
0.075509
0.076509
0.004246
0.009759
0.075030
0.070070
0.078136
0.075321
0.074792
0.079795
0.017394
0.072485
0.097595
0.077361
0.074672
0.073304
0.078057
0.071079
0.078325
0.077983
0.069743
0.072524
0.008033
0.070926
0.009081
0.070517
0.031815
0.016736
0.050164
0.036676
0.011430
0.006816
0.072051
0.071343
0.007697
0.063740
0.062283
0.072327
0.007419
0.075263
0.072639
0.009517
0.071753
0.075168
0.007389
0.078004
0.076808
0.073322
0.073868
0.070133
0.070069
0.073414
0.069581
0.072626
0.073441
0.069853
0.043018
0.071181
0.039382
0.071723
0.027883
0.055884
0.010067
0.077867
0.087008
0.006584
0.004090
0.009476
0.007524
0.071922
0.011495
0.076221
0.006846
0.078611
0.015575
0.021166
0.051000
0.024243
0.007451
0.024108
0.007917
0.078064
0.077206
0.078665
0.078052
0.075101
0.075508
0.076260
0.073047
0.086428
0.006282
0.068153
0.072836
0.006935
0.077687
0.068384
0.071317
0.077176
0.076781
0.070075
0.074159
0.069949
0.071141
0.075877
0.011127
0.070503
0.066642
0.077507
0.015424
0.077857
0.077371
0.072357
0.006901
0.074266
0.073055
0.077970
0.080232
0.009982
0.008426
0.021168
0.008345
0.011185
0.049983
0.006820
0.007914
0.070923
0.026726
0.072051
0.074505
0.008642
0.068806
0.054129
0.070550
0.075623
0.008518
0.008621
0.070178
0.009798
0.019177
0.008283
0.009251
0.073705
0.076824
0.076504
0.071361
0.068861
0.013945
0.070237
0.071808
0.077113
0.077464
0.069565
0.037342
0.071270
0.005511
0.081600
0.070944
0.072771
0.078849
0.058830
0.032527
0.067125
0.068759
0.068151
0.069285
0.008251
0.069381
0.008039
0.010744
0.008429
0.076799
0.027506
0.056304
0.078504
0.072099
0.018415
0.007913
0.007905
0.046251
0.074844
0.014625
0.074162
0.075607
0.077283
0.075685
0.070788
0.073107
0.072219
0.071570
0.072621
0.067838
0.066960
0.011742
0.072614
0.067556
0.078152
0.068063
0.076788
0.076629
0.073318
0.071417
0.078247
0.002026
0.073097
0.070432
0.076425
0.009291
0.077547
0.041246
0.071402
0.009176
0.077365
0.069296
0.010568
0.011779
0.066526
0.067010
0.065267
0.027335
0.039910
0.009638
0.068952
0.049704
0.052996
0.007747
0.070456
0.007866
0.006688
0.066677
0.072471
0.069511
0.006549
0.009726
0.076132
0.076595
0.015892
0.066968
0.069024
0.071745
0.010255
0.065832
0.070838
0.068385
0.060983
0.070863
0.045349
0.004278
0.072507
0.006995
0.074868
0.009237
0.076689
0.023628
0.010021
0.075045
0.077208
0.012482
0.068318
0.023483
0.075354
0.071836
0.008327
0.012772
0.075590
0.009071
0.067310
0.009235
0.008246
0.008815
0.071177
0.062383
0.017848
0.049405
0.075223
0.013473
0.076932
0.075593
0.035663
0.073622
0.070176
0.068285
0.068603
0.065895
0.070383
0.069940
0.065693
0.067475
0.044525
0.067524
0.066561
0.071929
0.075650
0.011094
0.070980
0.076043
0.076097
0.030910
0.008832
0.057130
0.074875
0.065797
0.071710
0.011493
0.061782
0.062897
0.024221
0.038901
0.010091
0.012630
0.047770
0.008890
0.068679
0.006446
0.055550
0.068048
0.070700
0.074438
0.010188
0.072977
0.029944
0.076154
0.069703
0.069859
0.011338
0.069253
0.011533
0.074672
0.044673
0.010835
0.068512
0.064892
0.009687
0.008637
0.066307
0.030312
0.065989
0.066118
0.066960
0.067255
0.070066
0.064896
0.010242
0.011388
0.015169
0.076427
0.009743
0.009099
0.009911
0.064555
0.010937
0.021860
0.068221
0.068793
0.005486
0.068423
0.070078
0.064732
0.014683
0.055119
0.075403
0.076176
0.005234
0.073825
0.064985
0.073348
0.068354
0.010992
0.076223
0.069734
0.064520
0.074004
0.068798
0.074823
0.064690
0.069352
0.069843
0.065796
0.003488
0.065295
0.060152
0.034297
0.075737
0.020920
0.075083
0.069185
0.065872
0.068688
0.002994
0.065091
0.070582
0.075831
0.071174
0.042958
0.009663
0.007778
0.076019
0.011208
0.068697
0.066499
0.012289
0.044304
0.061097
0.037550
0.012763
0.062607
0.046240
0.062379
0.011090
0.010979
0.007494
0.075307
0.009786
0.064171
0.068846
0.008679
0.007732
0.074291
0.062281
0.069900
0.013570
0.067180
0.063343
0.005446
0.014930
0.058617
0.012917
0.016307
0.072974
0.011264
0.067287
0.067497
0.063410
0.065862
0.068252
0.032993
0.026214
0.011842
0.068145
0.003495
0.051477
0.014282
0.026950
0.063266
0.063590
0.063810
0.062898
0.061394
0.011030
0.012642
0.069058
0.012120
0.011840
0.006750
0.016812
0.048811
0.010478
0.019576
0.062803
0.075872
0.074086
0.072930
0.071742
0.004882
0.067317
0.075751
0.075334
0.074988
0.074169
0.068326
0.009777
0.066080
0.018836
0.062112
0.068860
0.039747
0.066204
0.010439
0.066897
0.063344
0.062988
0.075479
0.009917
0.066511
0.062593
0.062702
0.009790
0.035287
0.004329
0.009577
0.074144
0.001325
0.010768
0.069803
0.071121
0.074270
0.075097
0.069745
0.041676
0.006637
0.065551
0.069665
0.063393
0.074582
0.075778
0.003205
0.067736
0.014755
0.013504
0.057719
0.043793
0.036380
0.059593
0.024205
0.013753
0.011897
0.014573
0.060818
0.044305
0.017968
0.063549
0.006430
0.067518
0.058753
0.065642
0.007550
0.029926
0.067552
0.011371
0.018825
0.011987
0.003543
0.004293
0.013391
0.065204
0.014048
0.013536
0.011297
0.058575
0.059807
0.012610
0.060227
0.006026
0.069257
0.054087
0.074728
0.073065
0.013683
0.067895
0.040051
0.073294
0.067561
0.064732
0.064518
0.055531
0.013624
0.012468
0.029340
0.018337
0.008521
0.060165
0.059449
0.075246
0.070123
0.066774
0.075016
0.061474
0.061896
0.066635
0.072437
0.059868
0.017627
0.066168
0.061626
0.004447
0.073367
0.067484
0.066623
0.060032
0.074728
0.073944
0.062657
0.060323
0.065367
0.050172
0.010164
0.019226
0.012123
0.075256
0.071826
0.073757
0.068540
0.009516
0.041499
0.066622
0.040504
0.073884
0.033179
0.074407
0.009387
0.075366
0.008635
0.060004
0.070118
0.073083
0.010607
0.024561
0.012451
0.005268
0.063987
0.068339
0.015557
0.014673
0.055072
0.072668
0.056841
0.039586
0.013498
0.011827
0.011621
0.057857
0.010723
0.055605
0.060344
0.040284
0.009353
0.061976
0.056916
0.021873
0.004350
0.065417
0.016639
0.017235
0.068775
0.017872
0.004673
0.033025
0.021912
0.014366
0.019525
0.053451
0.071885
0.012453
0.070135
0.055859
0.058734
0.014453
0.056565
0.014562
0.048372
0.066900
0.013715
0.015312
0.011463
0.007329
0.013135
0.015962
0.027230
0.060122
0.070768
0.065566
0.066161
0.033237
0.059876
0.006820
0.062349
0.066667
0.073093
0.071715
0.011587
0.074151
0.073594
0.020597
0.036162
0.064484
0.064519
0.064543
0.063320
0.016815
0.060338
0.059838
0.066684
0.073122
0.074713
0.013946
0.063729
0.064011
0.057822
0.058985
0.074074
0.074475
0.010414
0.049370
0.008673
0.043744
0.064077
0.056934
0.059628
0.035810
0.074876
0.060194
0.003353
0.072830
0.067976
0.070965
0.068496
0.070150
0.012227
0.073615
0.059522
0.008345
0.072771
0.074933
0.008210
0.073584
0.071414
0.017278
0.071426
0.043456
0.052742
0.025798
0.054298
0.059803
0.013281
0.014912
0.017258
0.042493
0.008432
0.036434
0.066718
0.012898
0.057296
0.006448
0.006126
0.069101
0.062826
0.011085
0.008248
0.057553
0.004454
0.066900
0.057151
0.008859
0.013204
0.064010
0.062191
0.004633
0.055714
0.069015
0.030075
0.011515
0.011751
0.048015
0.016213
0.015435
0.055289
0.073134
0.014361
0.057069
0.054162
0.029707
0.012869
0.072227
0.057420
0.070317
0.016312
0.015749
0.016793
0.071912
0.054246
0.015248
0.070960
0.065932
0.007571
0.066108
0.064743
0.018782
0.022100
0.013972
0.003463
0.021374
0.036446
0.032622
0.015807
0.070067
0.070000
0.011074
0.072951
0.073747
0.063548
0.061096
0.005331
0.064828
0.067676
0.074411
0.072508
0.074310
0.063882
0.072595
0.063919
0.020309
0.026336
0.007454
0.074315
0.015462
0.073024
0.061172
0.022224
0.009317
0.067664
0.073693
0.062648
0.072365
0.052379
0.057430
0.010173
0.072625
0.073375
0.015292
0.074495
0.066545
0.015372
0.067277
0.063198
0.070079
0.017454
0.018984
0.015442
0.043471
0.072626
0.053232
0.069091
0.065938
0.057702
0.017325
0.059674
0.014439
0.065104
0.013618
0.012518
0.055079
0.058060
0.065669
0.032930
0.007040
0.009933
0.061394
0.052431
0.005085
0.005250
0.060993
0.008084
0.017956
0.008795
0.062472
0.024363
0.032143
0.059677
0.002629
0.009167
0.017758
0.069358
0.062049
0.072154
0.068468
0.062367
0.016744
0.016041
0.016211
0.019501
0.020744
0.039248
0.012999
0.020638
0.014973
0.039353
0.072272
0.071764
0.023929
0.061023
0.011427
0.073584
0.062546
0.057407
0.013258
0.054609
0.069374
0.068978
0.073253
0.073827
0.061709
0.022573
0.071392
0.063299
0.071314
0.020150
0.009260
0.056410
0.070322
0.011028
0.010738
0.054710
0.071995
0.074072
0.058558
0.049665
0.011687
0.003942
0.012767
0.061699
0.014935
0.071390
0.006292
0.005430
0.068342
0.010834
0.016348
0.068500
0.072221
0.073063
0.068089
0.052493
0.003587
0.073947
0.027589
0.051740
0.054831
0.005084
0.014560
0.030278
0.028010
0.061063
0.019821
0.068484
0.016451
0.022882
0.049726
0.030211
0.052563
0.017152
0.052613
0.057637
0.072294
0.022371
0.015846
0.041683
0.016251
0.066440
0.072151
0.017034
0.063185
0.008340
0.012428
0.014307
0.011641
0.059765
0.004412
0.011282
0.024537
0.066557
0.006962
0.009382
0.065828
0.006168
0.013297
0.054230
0.004653
0.003000
0.070061
0.060052
0.014489
0.018999
0.055080
0.050881
0.071588
0.055770
0.052304
0.018797
0.067314
0.024124
0.035930
0.070832
0.065652
0.064837
0.007617
0.060770
0.002110
0.017752
0.016688
0.012649
0.070022
0.064697
0.019451
0.035304
0.068135
0.014637
0.058441
0.025933
0.012653
0.028064
0.061762
0.058483
0.073579
0.054827
0.028481
0.071321
0.055492
0.054684
0.066542
0.072315
0.061269
0.073088
0.065793
0.005753
0.068756
0.010016
0.072044
0.011725
0.058634
0.055445
0.051993
0.070750
0.062329
0.072923
0.071074
0.017150
0.006297
0.049047
0.018724
0.061587
0.011796
0.040406
0.014364
0.028197
0.009897
0.065588
0.073721
0.072710
0.068620
0.069564
0.010516
0.013570
0.070538
0.010646
0.055778
0.003080
0.053015
0.045870
0.014480
0.064549
0.011630
0.071443
0.059095
0.019509
0.049123
0.048887
0.022491
0.055871
0.017237
0.068668
0.014805
0.068483
0.013390
0.052241
0.052929
0.016349
0.012501
0.070959
0.027900
0.070654
0.063186
0.036793
0.005776
0.044602
0.067214
0.012175
0.017201
0.064759
0.063684
0.020327
0.010382
0.058465
0.050535
0.002019
0.072650
0.015670
0.011832
0.006857
0.071922
0.004940
0.009210
0.018099
0.019835
0.002688
0.008246
0.056658
0.057028
0.059696
0.010984
0.033902
0.027735
0.021855
0.022284
0.069449
0.055108
0.050737
0.071506
0.063704
0.019339
0.005348
0.050111
0.064483
0.023748
0.067337
0.012127
0.029633
0.008974
0.013730
0.045601
0.012743
0.026076
0.003271
0.003904
0.041183
0.067458