# vtk DataFile Version 2.0
Test
ASCII
DATASET POLYDATA
POINTS 7341 float
0.000000 0.000000 0.000000
1.000000 0.000000 0.000000
1.000000 1.000000 0.000000
0.000000 1.000000 0.000000
0.000000 0.500000 0.000000
0.500000 0.500000 0.000000
1.000000 0.500000 0.000000
0.499000 0.499000 0.000000
0.900000 0.010000 0.000000
0.029412 0.000000 0.000000
0.058824 0.000000 0.000000
0.088235 0.000000 0.000000
0.117647 0.000000 0.000000
0.147059 0.000000 0.000000
0.176471 0.000000 0.000000
0.205882 0.000000 0.000000
0.235294 0.000000 0.000000
0.264706 0.000000 0.000000
0.294118 0.000000 0.000000
0.323529 0.000000 0.000000
0.352941 0.000000 0.000000
0.382353 0.000000 0.000000
0.411765 0.000000 0.000000
0.441176 0.000000 0.000000
0.470588 0.000000 0.000000
0.500000 0.000000 0.000000
0.529412 0.000000 0.000000
0.558824 0.000000 0.000000
0.588235 0.000000 0.000000
0.617647 0.000000 0.000000
0.647059 0.000000 0.000000
0.676471 0.000000 0.000000
0.705882 0.000000 0.000000
0.735294 0.000000 0.000000
0.764706 0.000000 0.000000
0.794118 0.000000 0.000000
0.823529 0.000000 0.000000
0.852941 0.000000 0.000000
0.882353 0.000000 0.000000
0.911765 0.000000 0.000000
0.941176 0.000000 0.000000
0.970588 0.000000 0.000000
1.000000 0.029412 0.000000
1.000000 0.058824 0.000000
1.000000 0.088235 0.000000
1.000000 0.117647 0.000000
1.000000 0.147059 0.000000
1.000000 0.176471 0.000000
1.000000 0.205882 0.000000
1.000000 0.235294 0.000000
1.000000 0.264706 0.000000
1.000000 0.294118 0.000000
1.000000 0.323529 0.000000
1.000000 0.352941 0.000000
1.000000 0.382353 0.000000
1.000000 0.411765 0.000000
1.000000 0.441176 0.000000
1.000000 0.470588 0.000000
1.000000 0.529412 0.000000
1.000000 0.558824 0.000000
1.000000 0.588235 0.000000
1.000000 0.617647 0.000000
1.000000 0.647059 0.000000
1.000000 0.676471 0.000000
1.000000 0.705882 0.000000
1.000000 0.735294 0.000000
1.000000 0.764706 0.000000
1.000000 0.794118 0.000000
1.000000 0.823529 0.000000
1.000000 0.852941 0.000000
1.000000 0.882353 0.000000
1.000000 0.911765 0.000000
1.000000 0.941176 0.000000
1.000000 0.970588 0.000000
0.970588 1.000000 0.000000
0.941176 1.000000 0.000000
0.911765 1.000000 0.000000
0.882353 1.000000 0.000000
0.852941 1.000000 0.000000
0.823529 1.000000 0.000000
0.794118 1.000000 0.000000
0.764706 1.000000 0.000000
0.735294 1.000000 0.000000
0.705882 1.000000 0.000000
0.676471 1.000000 0.000000
0.647059 1.000000 0.000000
0.617647 1.000000 0.000000
0.588235 1.000000 0.000000
0.558824 1.000000 0.000000
0.529412 1.000000 0.000000
0.500000 1.000000 0.000000
0.470588 1.000000 0.000000
0.441176 1.000000 0.000000
0.411765 1.000000 0.000000
0.382353 1.000000 0.000000
0.352941 1.000000 0.000000
0.323529 1.000000 0.000000
0.294118 1.000000 0.000000
0.264706 1.000000 0.000000
0.235294 1.000000 0.000000
0.205882 1.000000 0.000000
0.176471 1.000000 0.000000
0.147059 1.000000 0.000000
0.117647 1.000000 0.000000
0.088235 1.000000 0.000000
0.058824 1.000000 0.000000
0.029412 1.000000 0.000000
0.000000 0.970588 0.000000
0.000000 0.941176 0.000000
0.000000 0.911765 0.000000
0.000000 0.882353 0.000000
0.000000 0.852941 0.000000
0.000000 0.823529 0.000000
0.000000 0.794118 0.000000
0.000000 0.764706 0.000000
0.000000 0.735294 0.000000
0.000000 0.705882 0.000000
0.000000 0.676471 0.000000
0.000000 0.647059 0.000000
0.000000 0.617647 0.000000
0.000000 0.588235 0.000000
0.000000 0.558824 0.000000
0.000000 0.529412 0.000000
0.007246 0.500000 0.000000
0.014493 0.500000 0.000000
0.021739 0.500000 0.000000
0.028986 0.500000 0.000000
0.036232 0.500000 0.000000
0.043478 0.500000 0.000000
0.050725 0.500000 0.000000
0.057971 0.500000 0.000000
0.065217 0.500000 0.000000
0.072464 0.500000 0.000000
0.079710 0.500000 0.000000
0.086957 0.500000 0.000000
0.094203 0.500000 0.000000
0.101449 0.500000 0.000000
0.108696 0.500000 0.000000
0.115942 0.500000 0.000000
0.123188 0.500000 0.000000
0.130435 0.500000 0.000000
0.137681 0.500000 0.000000
0.144928 0.500000 0.000000
0.152174 0.500000 0.000000
0.159420 0.500000 0.000000
0.166667 0.500000 0.000000
0.173913 0.500000 0.000000
0.181159 0.500000 0.000000
0.188406 0.500000 0.000000
0.195652 0.500000 0.000000
0.202899 0.500000 0.000000
0.210145 0.500000 0.000000
0.217391 0.500000 0.000000
0.224638 0.500000 0.000000
0.231884 0.500000 0.000000
0.239130 0.500000 0.000000
0.246377 0.500000 0.000000
0.253623 0.500000 0.000000
0.260870 0.500000 0.000000
0.268116 0.500000 0.000000
0.275362 0.500000 0.000000
0.282609 0.500000 0.000000
0.289855 0.500000 0.000000
0.297101 0.500000 0.000000
0.304348 0.500000 0.000000
0.311594 0.500000 0.000000
0.318841 0.500000 0.000000
0.326087 0.500000 0.000000
0.333333 0.500000 0.000000
0.340580 0.500000 0.000000
0.347826 0.500000 0.000000
0.355072 0.500000 0.000000
0.362319 0.500000 0.000000
0.369565 0.500000 0.000000
0.376812 0.500000 0.000000
0.384058 0.500000 0.000000
0.391304 0.500000 0.000000
0.398551 0.500000 0.000000
0.405797 0.500000 0.000000
0.413043 0.500000 0.000000
0.420290 0.500000 0.000000
0.427536 0.500000 0.000000
0.434783 0.500000 0.000000
0.442029 0.500000 0.000000
0.449275 0.500000 0.000000
0.456522 0.500000 0.000000
0.463768 0.500000 0.000000
0.471014 0.500000 0.000000
0.478261 0.500000 0.000000
0.485507 0.500000 0.000000
0.492754 0.500000 0.000000
0.510004 0.500000 0.000000
0.520408 0.500000 0.000000
0.531229 0.500000 0.000000
0.542483 0.500000 0.000000
0.554187 0.500000 0.000000
0.566359 0.500000 0.000000
0.579019 0.500000 0.000000
0.592185 0.500000 0.000000
0.605877 0.500000 0.000000
0.620118 0.500000 0.000000
0.634929 0.500000 0.000000
0.650332 0.500000 0.000000
0.666352 0.500000 0.000000
0.683013 0.500000 0.000000
0.700340 0.500000 0.000000
0.718361 0.500000 0.000000
0.737103 0.500000 0.000000
0.756595 0.500000 0.000000
0.776867 0.500000 0.000000
0.797950 0.500000 0.000000
0.819877 0.500000 0.000000
0.842681 0.500000 0.000000
0.866398 0.500000 0.000000
0.891064 0.500000 0.000000
0.916716 0.500000 0.000000
0.943396 0.500000 0.000000
0.971143 0.500000 0.000000
0.000000 0.470588 0.000000
0.000000 0.441176 0.000000
0.000000 0.411765 0.000000
0.000000 0.382353 0.000000
0.000000 0.352941 0.000000
0.000000 0.323529 0.000000
0.000000 0.294118 0.000000
0.000000 0.264706 0.000000
0.000000 0.235294 0.000000
0.000000 0.205882 0.000000
0.000000 0.176471 0.000000
0.000000 0.147059 0.000000
0.000000 0.117647 0.000000
0.000000 0.088235 0.000000
0.000000 0.058824 0.000000
0.000000 0.029412 0.000000
0.500341 0.497365 0.000000
0.501682 0.495729 0.000000
0.503023 0.494094 0.000000
0.504365 0.492458 0.000000
0.505706 0.490823 0.000000
0.507047 0.489187 0.000000
0.508388 0.487552 0.000000
0.509729 0.485916 0.000000
0.511070 0.484281 0.000000
0.512411 0.482645 0.000000
0.513753 0.481010 0.000000
0.515094 0.479375 0.000000
0.516435 0.477739 0.000000
0.517776 0.476104 0.000000
0.519117 0.474468 0.000000
0.520458 0.472833 0.000000
0.521799 0.471197 0.000000
0.523140 0.469562 0.000000
0.524482 0.467926 0.000000
0.525823 0.466291 0.000000
0.527164 0.464656 0.000000
0.528505 0.463020 0.000000
0.529846 0.461385 0.000000
0.531187 0.459749 0.000000
0.532528 0.458114 0.000000
0.533870 0.456478 0.000000
0.535211 0.454843 0.000000
0.536552 0.453207 0.000000
0.537893 0.451572 0.000000
0.539234 0.449936 0.000000
0.540575 0.448301 0.000000
0.541916 0.446666 0.000000
0.543258 0.445030 0.000000
0.544599 0.443395 0.000000
0.545940 0.441759 0.000000
0.547281 0.440124 0.000000
0.548622 0.438488 0.000000
0.549963 0.436853 0.000000
0.551304 0.435217 0.000000
0.552645 0.433582 0.000000
0.553987 0.431946 0.000000
0.555328 0.430311 0.000000
0.556669 0.428676 0.000000
0.558010 0.427040 0.000000
0.559351 0.425405 0.000000
0.560692 0.423769 0.000000
0.562033 0.422134 0.000000
0.563375 0.420498 0.000000
0.564716 0.418863 0.000000
0.566057 0.417227 0.000000
0.567398 0.415592 0.000000
0.568739 0.413957 0.000000
0.570080 0.412321 0.000000
0.571421 0.410686 0.000000
0.572763 0.409050 0.000000
0.574104 0.407415 0.000000
0.575445 0.405779 0.000000
0.576786 0.404144 0.000000
0.578127 0.402508 0.000000
0.579468 0.400873 0.000000
0.580809 0.399237 0.000000
0.582151 0.397602 0.000000
0.583492 0.395967 0.000000
0.584833 0.394331 0.000000
0.586174 0.392696 0.000000
0.587515 0.391060 0.000000
0.588856 0.389425 0.000000
0.590197 0.387789 0.000000
0.591538 0.386154 0.000000
0.592880 0.384518 0.000000
0.594221 0.382883 0.000000
0.595562 0.381247 0.000000
0.596903 0.379612 0.000000
0.598244 0.377977 0.000000
0.599585 0.376341 0.000000
0.600926 0.374706 0.000000
0.602268 0.373070 0.000000
0.603609 0.371435 0.000000
0.604950 0.369799 0.000000
0.606291 0.368164 0.000000
0.607632 0.366528 0.000000
0.608973 0.364893 0.000000
0.610314 0.363258 0.000000
0.611656 0.361622 0.000000
0.612997 0.359987 0.000000
0.614338 0.358351 0.000000
0.615679 0.356716 0.000000
0.617020 0.355080 0.000000
0.618361 0.353445 0.000000
0.619702 0.351809 0.000000
0.621043 0.350174 0.000000
0.622385 0.348538 0.000000
0.623726 0.346903 0.000000
0.625067 0.345268 0.000000
0.626408 0.343632 0.000000
0.627749 0.341997 0.000000
0.629090 0.340361 0.000000
0.630431 0.338726 0.000000
0.631773 0.337090 0.000000
0.633114 0.335455 0.000000
0.634455 0.333819 0.000000
0.635796 0.332184 0.000000
0.637137 0.330548 0.000000
0.638478 0.328913 0.000000
0.639819 0.327278 0.000000
0.641161 0.325642 0.000000
0.642502 0.324007 0.000000
0.643843 0.322371 0.000000
0.645184 0.320736 0.000000
0.646525 0.319100 0.000000
0.647866 0.317465 0.000000
0.649207 0.315829 0.000000
0.650548 0.314194 0.000000
0.651890 0.312559 0.000000
0.653231 0.310923 0.000000
0.654572 0.309288 0.000000
0.655913 0.307652 0.000000
0.657254 0.306017 0.000000
0.658595 0.304381 0.000000
0.659936 0.302746 0.000000
0.661278 0.301110 0.000000
0.662619 0.299475 0.000000
0.663960 0.297839 0.000000
0.665301 0.296204 0.000000
0.666642 0.294569 0.000000
0.667983 0.292933 0.000000
0.669324 0.291298 0.000000
0.670666 0.289662 0.000000
0.672007 0.288027 0.000000
0.673348 0.286391 0.000000
0.674689 0.284756 0.000000
0.676030 0.283120 0.000000
0.677371 0.281485 0.000000
[...]
POINT_DATA 7341
SCALARS UX float 1
LOOKUP_TABLE default
0.000000
0.000000
0.080500
0.080500
0.040871
0.034261
0.035372
0.033339
0.000458
-0.000000
0.000000
0.000000
0.000000
0.000000
0.000000
0.000000
0.000000
0.000000
0.000000
0.000000
0.000000
0.000000
0.000000
0.000000
0.000000
0.000000
0.000000
0.000000
0.000000
0.000000
0.000000
0.000000
0.000000
0.000000
0.000000
0.000000
0.000000
0.000000
0.000000
0.000000
0.000000
-0.000000
0.002749
0.004196
0.005611
0.007103
0.008728
0.010450
0.012290
0.014157
0.016161
0.018236
0.020392
0.022639
0.024966
0.027406
0.029975
0.032626
0.038173
0.040964
0.043734
0.046458
0.049148
0.051817
0.054465
0.057093
0.059708
0.062319
0.064923
0.067524
0.070122
0.072716
0.075310
0.077906
0.080500
0.080500
0.080500
0.080500
0.080500
0.080500
0.080500
0.080500
0.080500
0.080500
0.080500
0.080500
0.080500
0.080500
0.080500
0.080500
0.080500
0.080500
0.080500
0.080500
0.080500
0.080500
0.080500
0.080500
0.080500
0.080500
0.080500
0.080500
0.080500
0.080500
0.080500
0.080500
0.080500
0.078045
0.075593
0.073141
0.070696
0.068253
0.065818
0.063385
0.060963
0.058549
0.056139
0.053738
0.051342
0.048951
0.046572
0.044196
0.041919
0.040216
0.039863
0.039141
0.038627
0.038322
0.038217
0.037984
0.037937
0.036911
0.035992
0.036128
0.035950
0.035712
0.036032
0.036056
0.036827
0.035072
0.035617
0.035932
0.036234
0.036162
0.036228
0.035195
0.035324
0.035624
0.036256
0.034930
0.035151
0.035248
0.035306
0.035605
0.035434
0.035396
0.035642
0.034771
0.035179
0.035404
0.034412
0.035233
0.034388
0.034801
0.034079
0.034444
0.034762
0.034067
0.034246
0.034370
0.034462
0.034604
0.033713
0.034618
0.034090
0.034472
0.033858
0.034393
0.033840
0.034328
0.034038
0.033829
0.033520
0.034148
0.033983
0.033937
0.033590
0.034150
0.033633
0.034160
0.034183
0.033989
0.033878
0.033829
0.033818
0.033813
0.033802
0.033787
0.033787
0.033778
0.033777
0.033773
0.033781
0.033791
0.033802
0.033820
0.033848
0.033886
0.033935
0.033996
0.034070
0.034160
0.034266
0.034393
0.034541
0.034715
0.034917
0.035137
0.032186
0.029809
0.027879
0.026112
0.024464
0.022851
0.021285
0.019739
0.018234
0.016760
0.015297
0.013878
0.012541
0.011257
0.010011
0.009261
0.032845
0.032167
0.031838
0.031551
0.031354
0.031137
0.030956
0.030788
0.030623
0.030467
0.030318
0.030173
0.030035
0.029901
0.029768
0.029639
0.029509
0.029382
0.029251
0.029120
0.028991
0.028861
0.028732
0.028605
0.028477
0.028352
0.028226
0.028101
0.027978
0.027855
0.027732
0.027610
0.027489
0.027367
0.027246
0.027126
0.027006
0.026886
0.026766
0.026646
0.026526
0.026407
0.026288
0.026168
0.026049
0.025929
0.025810
0.025691
0.025571
0.025452
0.025332
0.025213
0.025093
0.024973
0.024854
0.024734
0.024614
0.024494
0.024374
0.024253
0.024133
0.024012
0.023892
0.023771
0.023650
0.023529
0.023408
0.023286
0.023165
0.023043
0.022922
0.022800
0.022678
0.022556
0.022434
0.022312
0.022190
0.022067
0.021945
0.021822
0.021699
0.021576
0.021454
0.021331
0.021207
0.021084
0.020961
0.020838
0.020714
0.020591
0.020468
0.020344
0.020221
0.020097
0.019973
0.019850
0.019726
0.019602
0.019479
0.019355
0.019231
0.019108
0.018984
0.018860
0.018737
0.018613
0.018490
0.018366
0.018243
0.018119
0.017996
0.017873
0.017750
0.017627
0.017503
0.017381
0.017258
0.017135
0.017012
0.016890
0.016767
0.016645
0.016523
0.016401
0.016279
0.016158
0.016036
0.015915
0.015794
0.015673
0.015552
0.015431
0.015311
0.015190
0.015071
0.014952
0.014833
0.014715
0.014596
0.014478
0.014360
0.014243
0.014125
0.014008
0.013891
0.013775
0.013658
0.013542
0.013426
0.013311
0.013195
0.013080
0.012966
0.012851
0.012737
0.012623
0.012510
0.012396
0.012283
0.012171
0.012058
0.011946
0.011834
0.011723
0.011612
0.011501
0.011391
0.011281
0.011171
0.011061
0.010952
0.010844
0.010735
0.010627
0.010520
0.010412
0.010305
0.010199
0.010092
0.009987
0.009881
0.009776
0.009671
0.009567
0.009463
0.009360
0.009257
0.009154
0.009052
0.008950
0.008848
0.008747
0.008647
0.008546
0.008447
0.008347
0.008248
0.008150
0.008052
0.007954
0.007857
0.007761
0.007665
0.007569
0.007474
0.007379
0.007284
0.007191
0.007097
0.007004
0.006912
0.006820
0.006728
0.006637
0.006547
0.006457
0.006367
0.006278
0.006190
0.006102
0.006014
0.005927
0.005841
0.005755
0.005669
0.005584
0.005500
0.005416
0.005332
0.005249
0.005166
0.005084
0.005003
0.004922
0.004841
0.004761
0.004682
0.004603
0.004525
0.004447
0.004369
0.004292
0.004216
0.004140
0.004064
0.003989
0.003915
0.003841
0.003768
0.003695
0.003622
0.003550
0.003479
0.003408
0.003337
0.003267
0.003198
0.003129
0.003060
0.002992
0.002924
0.002857
0.002790
0.002724
0.002658
0.002592
0.002527
0.002462
0.002397
0.002333
0.002269
0.002205
0.002141
0.002078
0.002015
0.001952
0.001890
0.001828
0.001765
0.001703
0.001640
0.001578
0.001515
0.001452
0.001389
0.001326
0.001262
0.001197
0.001132
0.001066
0.000999
0.000931
0.000863
0.000794
0.000725
0.000657
0.000588
0.000524
0.031208
0.030740
0.030441
0.001508
0.001086
0.032038
0.000927
0.031933
0.031795
0.017761
0.031995
0.000844
0.021092
0.032449
0.009796
0.016499
0.032097
0.000814
0.002141
0.030338
0.005041
0.032990
0.032212
0.012131
0.030347
0.027389
0.033812
0.024618
0.032128
0.030468
0.003217
0.031078
0.030629
0.032138
0.031575
0.000730
0.031784
0.002256
0.030766
0.001215
0.030958
0.030531
0.030258
0.032921
0.001355
0.031768
0.001096
0.031009
0.031754
0.035160
0.000956
0.031891
0.006452
0.025912
0.000807
0.032040
0.032046
0.024237
0.031863
0.031950
0.011809
0.013751
0.000849
0.000877
0.030232
0.030430
0.019487
0.029550
0.032388
0.000966
0.032071
0.000999
0.019999
0.001252
0.030295
0.014973
0.001632
0.032434
0.010701
0.004184
0.008758
0.004733
0.005906
0.030947
0.031224
0.031403
0.030868
0.030669
0.030510
0.031532
0.032651
0.032309
0.032012
0.032010
0.031933
0.031723
0.034411
0.033482
0.033299
0.033237
0.031284
0.000951
0.031528
0.032569
0.029683
0.030059
0.002622
0.029670
0.002103
0.030755
0.019469
0.001752
0.020620
0.031338
0.011803
0.030306
0.001630
0.030063
0.005022
0.024447
0.030895
0.016123
0.003343
0.030387
0.031270
0.001662
0.030745
0.030662
0.029878
0.032444
0.010212
0.029688
0.031419
0.032192
0.000799
0.031183
0.030347
0.000755
0.032192
0.030895
0.008096
0.032176
0.000759
0.027053
0.030531
0.032132
0.003517
0.032080
0.022865
0.015457
0.032011
0.031974
0.000861
0.031984
0.002009
0.032013
0.030386
0.001011
0.022192
0.001065
0.032036
0.030334
0.026905
0.001339
0.018136
0.032268
0.030368
0.001852
0.013542
0.006098
0.002560
0.007962
0.030321
0.030430
0.031087
0.030780
0.030479
0.030406
0.030585
0.030150
0.031256
0.031392
0.031554
0.032151
0.031745
0.032178
0.031687
0.032409
0.032265
0.032722
0.032781
0.032077
0.033753
0.032508
0.034307
0.031039
0.031641
0.031146
0.010033
0.003068
0.030509
0.030356
0.010203
0.030646
0.029544
0.030987
0.030027
0.031645
0.003024
0.029584
0.017729
0.029924
0.029853
0.004103
0.005299
0.001520
0.029531
0.031779
0.001667
0.032048
0.029573
0.030796
0.022084
0.030494
0.029777
0.031800
0.029859
0.001770
0.026648
0.030827
0.030796
0.031311
0.001568
0.022175
0.030499
0.002149
0.030104
0.015712
0.013556
0.002283
0.030341
0.019213
0.030886
0.001783
0.001905
0.002785
0.031097
0.001587
0.006209
0.029616
0.029623
0.030497
0.029987
0.030136
0.003688
0.025741
0.017513
0.014679
0.031021
0.013155
0.011676
0.001827
0.009222
0.006987
0.029430
0.029651
0.029749
0.030097
0.030193
0.001650
0.029842
0.028663
0.030201
0.030353
0.031020
0.030693
0.031978
0.033142
0.031100
0.030935
0.030752
0.029512
0.032607
0.031788
0.030784
0.030921
0.030748
0.031128
0.031020
0.008426
0.003464
0.031730
0.030659
0.030626
0.029695
0.032446
0.029017
0.029482
0.029217
0.003837
0.028482
0.017417
0.002784
0.019098
0.030512
0.002407
0.005663
0.028022
0.005742
0.025953
0.002382
0.029949
0.014353
0.029158
0.029762
0.031365
0.003123
0.030711
0.004779
0.029981
0.020842
0.030670
0.030534
0.002280
0.030491
0.029729
0.029155
0.017301
0.030099
0.002662
0.029549
0.028157
0.030066
0.011436
0.029868
0.021809
0.024317
0.030358
0.004533
0.030530
0.012674
0.011041
0.007563
0.008383
0.030259
0.029536
0.003268
0.003271
0.029528
0.004431
0.029542
0.029781
0.028370
0.030198
0.030946
0.030573
0.029632
0.007989
0.031610
0.030052
0.031853
0.030516
0.029043
0.001589
0.030115
0.030138
0.031512
0.023268
0.033358
0.029004
0.032668
0.031458
0.029459
0.031333
0.030363
0.030596
0.030516
0.009118
0.007322
0.030554
0.030351
0.030144
0.031565
0.030493
0.030800
0.030582
0.032646
0.006426
0.004600
0.026914
0.003715
0.028954
0.029542
0.029364
0.011241
0.018505
0.029553
0.029939
0.002401
0.029328
0.030071
0.029283
0.030164
0.030231
0.028812
0.029094
0.004187
0.013762
0.006107
0.030897
0.029941
0.024836
0.009635
0.002686
0.003803
0.009018
0.028958
0.029232
0.002462
0.004829
0.016003
0.029785
0.030370
0.029730
0.024390
0.027513
0.028864
0.031045
0.030108
0.030704
0.029366
0.006966
0.005222
0.029094
0.028216
0.019138
0.029066
0.029020
0.006693
0.023349
0.030082
0.027884
0.030644
0.012124
0.027019
0.004283
0.002716
0.020521
0.028284
0.015845
0.010363
0.029179
0.029489
0.029273
0.012852
0.029101
0.002898
0.029516
0.029019
0.028837
0.002412
0.030989
0.029381
0.034175
0.029978
0.030870
0.030145
0.029869
0.029945
0.030305
0.030858
0.029318
0.030327
0.029887
0.002277
0.030211
0.030478
0.029334
0.030263
0.029509
0.030953
0.030194
0.028574
0.028968
0.028899
0.018826
0.028286
0.003200
0.028676
0.007940
0.024201
0.005519
0.028760
0.003069
0.026480
0.030165
0.003695
0.029262
0.029281
0.030120
0.028758
0.027900
0.002350
0.012445
0.015375
0.003646
0.004221
0.028668
0.029903
0.003054
0.028438
0.029597
0.030028
0.029852
0.028651
0.030507
0.030187
0.019968
0.007089
0.017055
0.026717
0.007616
0.008922
0.029083
0.004590
0.013238
0.002504
0.029928
0.025899
0.028575
0.026808
0.026797
0.011498
0.014481
0.006136
0.005328
0.029118
0.015651
0.028795
0.029965
0.022967
0.026301
0.030339
0.028557
0.029135
0.030226
0.029041
0.030168
0.028585
0.029519
0.030137
0.030301
0.010170
0.004875
0.029907
0.031389
0.029588
0.030968
0.029336
0.029237
0.029151
0.003527
0.003918
0.029936
0.028391
0.030335
0.030486
0.029389
0.030227
0.007066
0.030438
0.027982
0.029950
0.028691
0.022601
0.029606
0.029152
0.030103
0.030058
0.029326
0.028313
0.006293
0.025526
0.004435
0.027677
0.012219
0.006990
0.023988
0.019599
0.009434
0.002974
0.028765
0.028143
0.005368
0.020582
0.027643
0.028793
0.003343
0.025100
0.027437
0.008134
0.028857
0.028784
0.003426
0.029710
0.029267
0.028800
0.028595
0.029255
0.027931
0.028548
0.029666
0.029115
0.028432
0.029552
0.021603
0.028975
0.013879
0.030297
0.016434
0.025645
0.008270
0.030615
0.026214
0.005813
0.001730
0.003918
0.003853
0.028943
0.004730
0.029826
0.003995
0.030822
0.010768
0.008803
0.017105
0.009879
0.003302
0.014832
0.005820
0.029679
0.029989
0.029937
0.029847
0.027326
0.028832
0.029059
0.028627
0.025482
0.005225
0.029013
0.028510
0.003040
0.029905
0.029309
0.022262
0.029851
0.029757
0.029055
0.028638
0.029280
0.030128
0.029014
0.004156
0.029917
0.028834
0.030065
0.006305
0.030920
0.029842
0.029815
0.003137
0.029379
0.028384
0.029939
0.030340
0.007029
0.003874
0.008910
0.003688
0.004678
0.017240
0.002971
0.003216
0.028153
0.015949
0.028711
0.029394
0.004888
0.029511
0.025217
0.022174
0.029673
0.007001
0.003865
0.025830
0.004705
0.012562
0.005443
0.007816
0.028470
0.029307
0.029628
0.028305
0.029497
0.010186
0.028368
0.028745
0.029677
0.029578
0.028233
0.013837
0.027446
0.002371
0.024423
0.028016
0.025361
0.024780
0.026628
0.018175
0.028951
0.028598
0.028673
0.028473
0.006635
0.029650
0.003532
0.008976
0.003740
0.030135
0.010948
0.018903
0.023768
0.028838
0.007732
0.006023
0.003055
0.022765
0.028727
0.006121
0.028561
0.028955
0.029472
0.029561
0.028064
0.027191
0.028272
0.028170
0.028619
0.028783
0.028646
0.009409
0.028762
0.028938
0.023781
0.029266
0.029677
0.029808
0.028544
0.030215
0.029825
0.000827
0.029212
0.027873
0.029664
0.004673
0.029754
0.021142
0.028071
0.004186
0.030082
0.027698
0.008167
0.009467
0.024158
0.027103
0.028142
0.011059
0.020770
0.004282
0.027711
0.017463
0.024949
0.003201
0.028275
0.003449
0.002905
0.028937
0.028787
0.028315
0.002587
0.006584
0.029481
0.029478
0.011415
0.026286
0.026002
0.023593
0.004754
0.028451
0.028399
0.028228
0.027315
0.028119
0.015914
0.001810
0.028228
0.002678
0.023196
0.004880
0.029594
0.009812
0.007441
0.029401
0.029585
0.010005
0.029374
0.014440
0.029627
0.028124
0.003671
0.005332
0.029435
0.004055
0.028942
0.004331
0.005052
0.007377
0.028603
0.020445
0.011821
0.023838
0.028835
0.010648
0.029403
0.028981
0.019294
0.028451
0.028162
0.028587
0.028430
0.028678
0.027928
0.028029
0.028615
0.028612
0.022300
0.029150
0.026843
0.028228
0.029764
0.005453
0.028119
0.029561
0.029527
0.017614
0.003985
0.026194
0.022965
0.024561
0.028056
0.007783
0.023406
0.026069
0.010072
0.020446
0.004551
0.005360
0.023382
0.003913
0.022160
0.002615
0.025776
0.027676
0.028303
0.028672
0.005749
0.028899
0.017183
0.029303
0.027833
0.027770
0.009018
0.028014
0.005543
0.029328
0.016095
0.004970
0.027839
0.028451
0.006246
0.003606
0.026618
0.011962
0.026972
0.028195
0.028189
0.028060
0.027878
0.024836
0.007771
0.005828
0.011539
0.029317
0.004346
0.004013
0.007207
0.028330
0.008591
0.013423
0.026204
0.023913
0.002354
0.021643
0.028208
0.028300
0.011182
0.018827
0.029346
0.029166
0.002079
0.028511
0.028309
0.028395
0.027625
0.005186
0.029407
0.028151
0.028289
0.029175
0.027623
0.029286
0.028095
0.028354
0.028302
0.028694
0.001510
0.028545
0.027118
0.018784
0.029385
0.008850
0.029299
0.021881
0.026313
0.027710
0.001235
0.028001
0.027865
0.029468
0.028397
0.021826
0.004282
0.003403
0.029415
0.004740
0.027521
0.027265
0.008871
0.016219
0.023699
0.019928
0.006032
0.026106
0.022911
0.027645
0.004944
0.004701
0.003130
0.029033
0.004315
0.020790
0.027794
0.003812
0.003376
0.028661
0.025356
0.028023
0.010163
0.027897
0.024882
0.002178
0.011317
0.026697
0.006418
0.006913
0.028853
0.007427
0.027799
0.027357
0.028024
0.027724
0.027759
0.018183
0.015580
0.008295
0.027635
0.001449
0.024533
0.006075
0.010990
0.023001
0.028093
0.027600
0.027572
0.020333
0.005951
0.009253
0.027823
0.005632
0.008152
0.002927
0.012419
0.017418
0.004703
0.013093
0.025892
0.029125
0.029097
0.028323
0.028055
0.001956
0.027689
0.029231
0.029293
0.029241
0.029037
0.027544
0.004134
0.027895
0.008048
0.027621
0.027773
0.014705
0.028126
0.004742
0.027523
0.027834
0.027909
0.029277
0.006011
0.027343
0.025667
0.027846
0.004097
0.013105
0.001828
0.004233
0.029183
0.000538
0.004777
0.027327
0.028341
0.029123
0.028891
0.027677
0.021387
0.002734
0.022367
0.027814
0.025286
0.029151
0.029306
0.001322
0.027300
0.010306
0.009009
0.022707
0.016202
0.019391
0.025042
0.010066
0.006408
0.005349
0.006246
0.027171
0.022254
0.012968
0.021122
0.002675
0.027411
0.024354
0.027354
0.003288
0.011935
0.027431
0.007223
0.008057
0.005463
0.001456
0.001736
0.006486
0.026900
0.010642
0.009953
0.005056
0.022277
0.021548
0.006840
0.024397
0.002593
0.027874
0.018706
0.028838
0.028378
0.009268
0.027475
0.015026
0.028797
0.027511
0.027697
0.027483
0.025790
0.006926
0.005726
0.016811
0.012892
0.003588
0.020105
0.024832
0.029057
0.027728
0.027231
0.029165
0.027479
0.027390
0.027629
0.028203
0.025342
0.007505
0.027241
0.027550
0.001874
0.028876
0.027331
0.027744
0.027015
0.029133
0.028944
0.027428
0.027183
0.027214
0.024161
0.004490
0.008155
0.008603
0.029177
0.028534
0.028925
0.027888
0.004189
0.014782
0.027836
0.020928
0.028593
0.012798
0.029067
0.003994
0.029151
0.003787
0.023817
0.028055
0.028839
0.004695
0.014775
0.005335
0.002129
0.026800
0.027383
0.010167
0.007666
0.021722
0.028304
0.024256
0.020488
0.006155
0.005102
0.005146
0.026352
0.004732
0.023401
0.020064
0.015210
0.004111
0.027062
0.022859
0.014383
0.001760
0.026929
0.011870
0.007418
0.027703
0.012778
0.001966
0.012898
0.009232
0.009931
0.013717
0.018627
0.028515
0.005563
0.028030
0.021148
0.026717
0.007112
0.023999
0.006902
0.017395
0.027286
0.006313
0.010753
0.006857
0.003088
0.008644
0.006834
0.011096
0.026764
0.027849
0.027035
0.027128
0.018143
0.025411
0.002953
0.026112
0.027284
0.028713
0.028066
0.005237
0.028727
0.028552
0.008735
0.013891
0.027198
0.027293
0.027375
0.027185
0.007216
0.026902
0.025232
0.027131
0.028823
0.029047
0.009542
0.027373
0.026907
0.026474
0.020477
0.028939
0.029028
0.004590
0.023909
0.003799
0.021998
0.027031
0.019475
0.026790
0.013622
0.028981
0.027150
0.001382
0.028671
0.027508
0.028260
0.027788
0.028381
0.005477
0.028825
0.026912
0.003540
0.028698
0.029054
0.003587
0.028853
0.027988
0.011645
0.028015
0.016173
0.020716
0.010617
0.023470
0.025433
0.005948
0.006796
0.007440
0.021456
0.003593
0.014090
0.027338
0.008330
0.019553
0.002705
0.002633
0.027509
0.026851
0.004887
0.003600
0.024735
0.001809
0.027213
0.024470
0.003878
0.005978
0.026704
0.026966
0.001941
0.022878
0.027740
0.016967
0.005091
0.005211
0.017371
0.011464
0.007193
0.025723
0.028463
0.006192
0.026210
0.021950
0.011914
0.007727
0.028592
0.026137
0.027755
0.010834
0.006801
0.012126
0.028424
0.018932
0.007345
0.028231
0.027178
0.003293
0.027092
0.026819
0.008044
0.009303
0.008030
0.001416
0.014508
0.019265
0.012847
0.010432
0.027985
0.027685
0.004892
0.028629
0.028821
0.026766
0.026770
0.002270
0.026925
0.027395
0.028932
0.028290
0.028952
0.027129
0.028663
0.027213
0.013981
0.015885
0.003159
0.028801
0.006659
0.028670
0.026969
0.009337
0.004091
0.027664
0.029010
0.026722
0.028545
0.018430
0.026357
0.004478
0.028587
0.028730
0.007611
0.028901
0.027382
0.009934
0.027145
0.026457
0.027710
0.011020
0.012873
0.008569
0.016141
0.028516
0.022033
0.027685
0.027149
0.024812
0.007473
0.026389
0.006250
0.026834
0.006073
0.005538
0.025534
0.026227
0.026939
0.012996
0.003047
0.004367
0.026305
0.018487
0.002067
0.002229
0.026353
0.003521
0.011534
0.003845
0.026972
0.015593
0.017844
0.026500
0.001071
0.003918
0.012032
0.027815
0.026814
0.028227
0.027948
0.026174
0.011221
0.006941
0.007643
0.013408
0.014139
0.014999
0.005609
0.008758
0.008774
0.020291
0.028461
0.028362
0.009966
0.026677
0.005042
0.028749
0.026363
0.024631
0.005965
0.025518
0.027797
0.027464
0.028524
0.028793
0.026680
0.015020
0.028335
0.026599
0.028007
0.008570
0.004061
0.026042
0.028042
0.004859
0.004729
0.019502
0.028494
0.028808
0.023763
0.017763
0.005194
0.001632
0.008004
0.026594
0.009555
0.028288
0.002701
0.002302
0.027340
0.004790
0.007900
0.027922
0.028483
0.028618
0.027486
0.024889
0.001462
0.028724
0.016010
0.021075
0.023779
0.002165
0.006585
0.012123
0.011369
0.025993
0.012898
0.027354
0.009384
0.014955
0.020205
0.012129
0.018574
0.007970
0.023067
0.024809
0.028403
0.009407
0.007157
0.021125
0.007038
0.027328
0.028251
0.010671
0.026441
0.003566
0.005491
0.006388
0.005132
0.026245
0.001798
0.004967
0.015806
0.026974
0.003006
0.004112
0.026921
0.002640
0.005763
0.025382
0.001943
0.001223
0.027937
0.026233
0.006517
0.012213
0.023930
0.021202
0.028293
0.024232
0.022075
0.008054
0.027276
0.010040
0.013970
0.028135
0.027143
0.026793
0.003308
0.026249
0.000856
0.011304
0.008401
0.005605
0.027706
0.026689
0.013229
0.019051
0.027480
0.006355
0.026085
0.016294
0.005633
0.011404
0.026247
0.026123
0.028698
0.022964
0.016996
0.028251
0.025499
0.025343
0.027030
0.028449
0.026630
0.028583
0.026947
0.002357
0.027632
0.004286
0.028412
0.005176
0.026296
0.020390
0.024718
0.028641
0.026448
0.028468
0.027966
0.008118
0.002695
0.017664
0.012603
0.026748
0.005111
0.015312
0.008751
0.016662
0.004348
0.026929
0.028690
0.028498
0.027563
0.027807
0.004626
0.005814
0.028065
0.004732
0.025797
0.001261
0.025030
0.016790
0.009111
0.027418
0.005123
0.028747
0.025860
0.012048
0.017705
0.020420
0.009457
0.024277
0.007442
0.027397
0.006586
0.027512
0.005916
0.022849
0.024734
0.010172
0.005516
0.027955
0.011366
0.028067
0.026440
0.014264
0.002388
0.022091
0.027203
0.005361
0.009226
0.026662
0.026522
0.012706
0.004564
0.025853
0.019871
0.000821
0.028440
0.007041
0.005207
0.002955
0.028284
0.002018
0.004031
0.008618
0.008457
0.001089
0.003589
0.025676
0.025748
0.025418
0.004753
0.013334
0.017039
0.014220
0.014553
0.027760
0.023995
0.018514
0.028249
0.026440
0.012529
0.002256
0.021287
0.026604
0.015432
0.027115
0.005348
0.017582
0.003848
0.006102
0.016757
0.005657
0.010723
0.001333
0.001590
0.015521
0.027298