# vtk DataFile Version 2.0
Test
ASCII
DATASET POLYDATA
POINTS 7341 float
0.000000 0.000000 0.000000
1.000000 0.000000 0.000000
1.000000 1.000000 0.000000
0.000000 1.000000 0.000000
0.000000 0.500000 0.000000
0.500000 0.500000 0.000000
1.000000 0.500000 0.000000
0.499000 0.499000 0.000000
0.900000 0.010000 0.000000
0.029412 0.000000 0.000000
0.058824 0.000000 0.000000
0.088235 0.000000 0.000000
0.117647 0.000000 0.000000
0.147059 0.000000 0.000000
0.176471 0.000000 0.000000
0.205882 0.000000 0.000000
0.235294 0.000000 0.000000
0.264706 0.000000 0.000000
0.294118 0.000000 0.000000
0.323529 0.000000 0.000000
0.352941 0.000000 0.000000
0.382353 0.000000 0.000000
0.411765 0.000000 0.000000
0.441176 0.000000 0.000000
0.470588 0.000000 0.000000
0.500000 0.000000 0.000000
0.529412 0.000000 0.000000
0.558824 0.000000 0.000000
0.588235 0.000000 0.000000
0.617647 0.000000 0.000000
0.647059 0.000000 0.000000
0.676471 0.000000 0.000000
0.705882 0.000000 0.000000
0.735294 0.000000 0.000000
0.764706 0.000000 0.000000
0.794118 0.000000 0.000000
0.823529 0.000000 0.000000
0.852941 0.000000 0.000000
0.882353 0.000000 0.000000
0.911765 0.000000 0.000000
0.941176 0.000000 0.000000
0.970588 0.000000 0.000000
1.000000 0.029412 0.000000
1.000000 0.058824 0.000000
1.000000 0.088235 0.000000
1.000000 0.117647 0.000000
1.000000 0.147059 0.000000
1.000000 0.176471 0.000000
1.000000 0.205882 0.000000
1.000000 0.235294 0.000000
1.000000 0.264706 0.000000
1.000000 0.294118 0.000000
1.000000 0.323529 0.000000
1.000000 0.352941 0.000000
1.000000 0.382353 0.000000
1.000000 0.411765 0.000000
1.000000 0.441176 0.000000
1.000000 0.470588 0.000000
1.000000 0.529412 0.000000
1.000000 0.558824 0.000000
1.000000 0.588235 0.000000
1.000000 0.617647 0.000000
1.000000 0.647059 0.000000
1.000000 0.676471 0.000000
1.000000 0.705882 0.000000
1.000000 0.735294 0.000000
1.000000 0.764706 0.000000
1.000000 0.794118 0.000000
1.000000 0.823529 0.000000
1.000000 0.852941 0.000000
1.000000 0.882353 0.000000
1.000000 0.911765 0.000000
1.000000 0.941176 0.000000
1.000000 0.970588 0.000000
0.970588 1.000000 0.000000
0.941176 1.000000 0.000000
0.911765 1.000000 0.000000
0.882353 1.000000 0.000000
0.852941 1.000000 0.000000
0.823529 1.000000 0.000000
0.794118 1.000000 0.000000
0.764706 1.000000 0.000000
0.735294 1.000000 0.000000
0.705882 1.000000 0.000000
0.676471 1.000000 0.000000
0.647059 1.000000 0.000000
0.617647 1.000000 0.000000
0.588235 1.000000 0.000000
0.558824 1.000000 0.000000
0.529412 1.000000 0.000000
0.500000 1.000000 0.000000
0.470588 1.000000 0.000000
0.441176 1.000000 0.000000
0.411765 1.000000 0.000000
0.382353 1.000000 0.000000
0.352941 1.000000 0.000000
0.323529 1.000000 0.000000
0.294118 1.000000 0.000000
0.264706 1.000000 0.000000
0.235294 1.000000 0.000000
0.205882 1.000000 0.000000
0.176471 1.000000 0.000000
0.147059 1.000000 0.000000
0.117647 1.000000 0.000000
0.088235 1.000000 0.000000
0.058824 1.000000 0.000000
0.029412 1.000000 0.000000
0.000000 0.970588 0.000000
0.000000 0.941176 0.000000
0.000000 0.911765 0.000000
0.000000 0.882353 0.000000
0.000000 0.852941 0.000000
0.000000 0.823529 0.000000
0.000000 0.794118 0.000000
0.000000 0.764706 0.000000
0.000000 0.735294 0.000000
0.000000 0.705882 0.000000
0.000000 0.676471 0.000000
0.000000 0.647059 0.000000
0.000000 0.617647 0.000000
0.000000 0.588235 0.000000
0.000000 0.558824 0.000000
0.000000 0.529412 0.000000
0.007246 0.500000 0.000000
0.014493 0.500000 0.000000
0.021739 0.500000 0.000000
0.028986 0.500000 0.000000
0.036232 0.500000 0.000000
0.043478 0.500000 0.000000
0.050725 0.500000 0.000000
0.057971 0.500000 0.000000
0.065217 0.500000 0.000000
0.072464 0.500000 0.000000
0.079710 0.500000 0.000000
0.086957 0.500000 0.000000
0.094203 0.500000 0.000000
0.101449 0.500000 0.000000
0.108696 0.500000 0.000000
0.115942 0.500000 0.000000
0.123188 0.500000 0.000000
0.130435 0.500000 0.000000
0.137681 0.500000 0.000000
0.144928 0.500000 0.000000
0.152174 0.500000 0.000000
0.159420 0.500000 0.000000
0.166667 0.500000 0.000000
0.173913 0.500000 0.000000
0.181159 0.500000 0.000000
0.188406 0.500000 0.000000
0.195652 0.500000 0.000000
0.202899 0.500000 0.000000
0.210145 0.500000 0.000000
0.217391 0.500000 0.000000
0.224638 0.500000 0.000000
0.231884 0.500000 0.000000
0.239130 0.500000 0.000000
0.246377 0.500000 0.000000
0.253623 0.500000 0.000000
0.260870 0.500000 0.000000
0.268116 0.500000 0.000000
0.275362 0.500000 0.000000
0.282609 0.500000 0.000000
0.289855 0.500000 0.000000
0.297101 0.500000 0.000000
0.304348 0.500000 0.000000
0.311594 0.500000 0.000000
0.318841 0.500000 0.000000
0.326087 0.500000 0.000000
0.333333 0.500000 0.000000
0.340580 0.500000 0.000000
0.347826 0.500000 0.000000
0.355072 0.500000 0.000000
0.362319 0.500000 0.000000
0.369565 0.500000 0.000000
0.376812 0.500000 0.000000
0.384058 0.500000 0.000000
0.391304 0.500000 0.000000
0.398551 0.500000 0.000000
0.405797 0.500000 0.000000
0.413043 0.500000 0.000000
0.420290 0.500000 0.000000
0.427536 0.500000 0.000000
0.434783 0.500000 0.000000
0.442029 0.500000 0.000000
0.449275 0.500000 0.000000
0.456522 0.500000 0.000000
0.463768 0.500000 0.000000
0.471014 0.500000 0.000000
0.478261 0.500000 0.000000
0.485507 0.500000 0.000000
0.492754 0.500000 0.000000
0.510004 0.500000 0.000000
0.520408 0.500000 0.000000
0.531229 0.500000 0.000000
0.542483 0.500000 0.000000
0.554187 0.500000 0.000000
0.566359 0.500000 0.000000
0.579019 0.500000 0.000000
0.592185 0.500000 0.000000
0.605877 0.500000 0.000000
0.620118 0.500000 0.000000
0.634929 0.500000 0.000000
0.650332 0.500000 0.000000
0.666352 0.500000 0.000000
0.683013 0.500000 0.000000
0.700340 0.500000 0.000000
0.718361 0.500000 0.000000
0.737103 0.500000 0.000000
0.756595 0.500000 0.000000
0.776867 0.500000 0.000000
0.797950 0.500000 0.000000
0.819877 0.500000 0.000000
0.842681 0.500000 0.000000
0.866398 0.500000 0.000000
0.891064 0.500000 0.000000
0.916716 0.500000 0.000000
0.943396 0.500000 0.000000
0.971143 0.500000 0.000000
0.000000 0.470588 0.000000
0.000000 0.441176 0.000000
0.000000 0.411765 0.000000
0.000000 0.382353 0.000000
0.000000 0.352941 0.000000
0.000000 0.323529 0.000000
0.000000 0.294118 0.000000
0.000000 0.264706 0.000000
0.000000 0.235294 0.000000
0.000000 0.205882 0.000000
0.000000 0.176471 0.000000
0.000000 0.147059 0.000000
0.000000 0.117647 0.000000
0.000000 0.088235 0.000000
0.000000 0.058824 0.000000
0.000000 0.029412 0.000000
0.500341 0.497365 0.000000
0.501682 0.495729 0.000000
0.503023 0.494094 0.000000
0.504365 0.492458 0.000000
0.505706 0.490823 0.000000
0.507047 0.489187 0.000000
0.508388 0.487552 0.000000
0.509729 0.485916 0.000000
0.511070 0.484281 0.000000
0.512411 0.482645 0.000000
0.513753 0.481010 0.000000
0.515094 0.479375 0.000000
0.516435 0.477739 0.000000
0.517776 0.476104 0.000000
0.519117 0.474468 0.000000
0.520458 0.472833 0.000000
0.521799 0.471197 0.000000
0.523140 0.469562 0.000000
0.524482 0.467926 0.000000
0.525823 0.466291 0.000000
0.527164 0.464656 0.000000
0.528505 0.463020 0.000000
0.529846 0.461385 0.000000
0.531187 0.459749 0.000000
0.532528 0.458114 0.000000
0.533870 0.456478 0.000000
0.535211 0.454843 0.000000
0.536552 0.453207 0.000000
0.537893 0.451572 0.000000
0.539234 0.449936 0.000000
0.540575 0.448301 0.000000
0.541916 0.446666 0.000000
0.543258 0.445030 0.000000
0.544599 0.443395 0.000000
0.545940 0.441759 0.000000
0.547281 0.440124 0.000000
0.548622 0.438488 0.000000
0.549963 0.436853 0.000000
0.551304 0.435217 0.000000
0.552645 0.433582 0.000000
0.553987 0.431946 0.000000
0.555328 0.430311 0.000000
0.556669 0.428676 0.000000
0.558010 0.427040 0.000000
0.559351 0.425405 0.000000
0.560692 0.423769 0.000000
0.562033 0.422134 0.000000
0.563375 0.420498 0.000000
0.564716 0.418863 0.000000
0.566057 0.417227 0.000000
0.567398 0.415592 0.000000
0.568739 0.413957 0.000000
0.570080 0.412321 0.000000
0.571421 0.410686 0.000000
0.572763 0.409050 0.000000
0.574104 0.407415 0.000000
0.575445 0.405779 0.000000
0.576786 0.404144 0.000000
0.578127 0.402508 0.000000
0.579468 0.400873 0.000000
0.580809 0.399237 0.000000
0.582151 0.397602 0.000000
0.583492 0.395967 0.000000
0.584833 0.394331 0.000000
0.586174 0.392696 0.000000
0.587515 0.391060 0.000000
0.588856 0.389425 0.000000
0.590197 0.387789 0.000000
0.591538 0.386154 0.000000
0.592880 0.384518 0.000000
0.594221 0.382883 0.000000
0.595562 0.381247 0.000000
0.596903 0.379612 0.000000
0.598244 0.377977 0.000000
0.599585 0.376341 0.000000
0.600926 0.374706 0.000000
0.602268 0.373070 0.000000
0.603609 0.371435 0.000000
0.604950 0.369799 0.000000
0.606291 0.368164 0.000000
0.607632 0.366528 0.000000
0.608973 0.364893 0.000000
0.610314 0.363258 0.000000
0.611656 0.361622 0.000000
0.612997 0.359987 0.000000
0.614338 0.358351 0.000000
0.615679 0.356716 0.000000
0.617020 0.355080 0.000000
0.618361 0.353445 0.000000
0.619702 0.351809 0.000000
0.621043 0.350174 0.000000
0.622385 0.348538 0.000000
0.623726 0.346903 0.000000
0.625067 0.345268 0.000000
0.626408 0.343632 0.000000
0.627749 0.341997 0.000000
0.629090 0.340361 0.000000
0.630431 0.338726 0.000000
0.631773 0.337090 0.000000
0.633114 0.335455 0.000000
0.634455 0.333819 0.000000
0.635796 0.332184 0.000000
0.637137 0.330548 0.000000
0.638478 0.328913 0.000000
0.639819 0.327278 0.000000
0.641161 0.325642 0.000000
0.642502 0.324007 0.000000
0.643843 0.322371 0.000000
0.645184 0.320736 0.000000
0.646525 0.319100 0.000000
0.647866 0.317465 0.000000
0.649207 0.315829 0.000000
0.650548 0.314194 0.000000
0.651890 0.312559 0.000000
0.653231 0.310923 0.000000
0.654572 0.309288 0.000000
0.655913 0.307652 0.000000
0.657254 0.306017 0.000000
0.658595 0.304381 0.000000
0.659936 0.302746 0.000000
0.661278 0.301110 0.000000
0.662619 0.299475 0.000000
0.663960 0.297839 0.000000
0.665301 0.296204 0.000000
0.666642 0.294569 0.000000
0.667983 0.292933 0.000000
0.669324 0.291298 0.000000
0.670666 0.289662 0.000000
0.672007 0.288027 0.000000
0.673348 0.286391 0.000000
0.674689 0.284756 0.000000
0.676030 0.283120 0.000000
0.677371 0.281485 0.000000
[...]
POINT_DATA 7341
SCALARS UX float 1
LOOKUP_TABLE default
0.000000
0.000000
0.068000
0.068000
0.034428
0.028983
0.030207
0.028405
0.000423
-0.000000
0.000000
0.000000
0.000000
0.000000
0.000000
0.000000
0.000000
0.000000
0.000000
0.000000
0.000000
0.000000
0.000000
0.000000
0.000000
0.000000
0.000000
0.000000
0.000000
0.000000
0.000000
0.000000
0.000000
0.000000
0.000000
0.000000
0.000000
0.000000
0.000000
0.000000
0.000000
-0.000000
0.002524
0.003865
0.005160
0.006499
0.007930
0.009427
0.011013
0.012617
0.014323
0.016083
0.017903
0.019791
0.021733
0.023753
0.025851
0.027999
0.032464
0.034732
0.036995
0.039249
0.041490
0.043720
0.045944
0.048160
0.050369
0.052576
0.054781
0.056986
0.059190
0.061391
0.063593
0.065797
0.068000
0.068000
0.068000
0.068000
0.068000
0.068000
0.068000
0.068000
0.068000
0.068000
0.068000
0.068000
0.068000
0.068000
0.068000
0.068000
0.068000
0.068000
0.068000
0.068000
0.068000
0.068000
0.068000
0.068000
0.068000
0.068000
0.068000
0.068000
0.068000
0.068000
0.068000
0.068000
0.068000
0.065907
0.063817
0.061727
0.059647
0.057569
0.055502
0.053439
0.051388
0.049349
0.047315
0.045297
0.043287
0.041286
0.039302
0.037321
0.035424
0.033882
0.033551
0.033010
0.032595
0.032362
0.032262
0.032107
0.032045
0.031346
0.030774
0.030858
0.030713
0.030502
0.030678
0.030619
0.031151
0.029942
0.030286
0.030462
0.030660
0.030598
0.030648
0.029954
0.030049
0.030229
0.030687
0.029739
0.029911
0.029960
0.029976
0.030187
0.030054
0.030018
0.030198
0.029576
0.029885
0.030038
0.029321
0.029918
0.029295
0.029596
0.029095
0.029352
0.029574
0.029085
0.029204
0.029279
0.029331
0.029424
0.028781
0.029446
0.029055
0.029330
0.028879
0.029267
0.028867
0.029224
0.029024
0.028885
0.028665
0.029115
0.028995
0.028959
0.028700
0.029086
0.028696
0.029025
0.028987
0.028820
0.028763
0.028742
0.028742
0.028742
0.028736
0.028728
0.028728
0.028723
0.028727
0.028731
0.028737
0.028749
0.028764
0.028788
0.028818
0.028858
0.028906
0.028965
0.029035
0.029119
0.029217
0.029333
0.029467
0.029623
0.029803
0.029998
0.027912
0.025836
0.024136
0.022583
0.021144
0.019732
0.018363
0.017008
0.015685
0.014377
0.013080
0.011799
0.010576
0.009393
0.008308
0.007691
0.027946
0.027510
0.027296
0.027103
0.026968
0.026812
0.026675
0.026545
0.026415
0.026291
0.026171
0.026052
0.025938
0.025825
0.025712
0.025600
0.025487
0.025377
0.025266
0.025157
0.025048
0.024939
0.024832
0.024725
0.024619
0.024513
0.024408
0.024302
0.024198
0.024093
0.023989
0.023885
0.023781
0.023678
0.023574
0.023471
0.023367
0.023264
0.023160
0.023057
0.022954
0.022850
0.022747
0.022644
0.022540
0.022437
0.022334
0.022230
0.022127
0.022023
0.021920
0.021816
0.021713
0.021609
0.021505
0.021402
0.021298
0.021194
0.021090
0.020987
0.020883
0.020779
0.020675
0.020571
0.020467
0.020363
0.020258
0.020154
0.020050
0.019946
0.019841
0.019737
0.019633
0.019528
0.019424
0.019319
0.019215
0.019110
0.019005
0.018901
0.018796
0.018691
0.018587
0.018482
0.018377
0.018272
0.018168
0.018063
0.017958
0.017853
0.017749
0.017644
0.017539
0.017434
0.017330
0.017225
0.017121
0.017016
0.016911
0.016807
0.016702
0.016598
0.016493
0.016389
0.016285
0.016180
0.016076
0.015972
0.015868
0.015764
0.015660
0.015556
0.015452
0.015348
0.015245
0.015141
0.015038
0.014934
0.014831
0.014728
0.014626
0.014523
0.014421
0.014319
0.014217
0.014115
0.014013
0.013911
0.013810
0.013709
0.013607
0.013506
0.013406
0.013305
0.013204
0.013104
0.013004
0.012904
0.012804
0.012704
0.012604
0.012505
0.012406
0.012307
0.012208
0.012109
0.012011
0.011913
0.011815
0.011717
0.011619
0.011522
0.011424
0.011327
0.011231
0.011134
0.011038
0.010941
0.010846
0.010750
0.010654
0.010559
0.010464
0.010369
0.010275
0.010181
0.010087
0.009993
0.009899
0.009806
0.009713
0.009620
0.009528
0.009435
0.009344
0.009252
0.009160
0.009069
0.008978
0.008888
0.008798
0.008708
0.008618
0.008528
0.008439
0.008350
0.008262
0.008174
0.008086
0.007998
0.007911
0.007824
0.007737
0.007651
0.007565
0.007479
0.007394
0.007309
0.007225
0.007140
0.007056
0.006973
0.006889
0.006807
0.006724
0.006642
0.006560
0.006479
0.006397
0.006317
0.006236
0.006156
0.006077
0.005997
0.005918
0.005840
0.005762
0.005684
0.005607
0.005530
0.005453
0.005377
0.005301
0.005225
0.005150
0.005076
0.005001
0.004927
0.004854
0.004781
0.004708
0.004635
0.004564
0.004492
0.004421
0.004350
0.004279
0.004209
0.004139
0.004070
0.004001
0.003933
0.003865
0.003797
0.003729
0.003662
0.003596
0.003530
0.003464
0.003398
0.003333
0.003269
0.003204
0.003140
0.003077
0.003013
0.002950
0.002888
0.002825
0.002763
0.002702
0.002641
0.002580
0.002519
0.002459
0.002399
0.002339
0.002279
0.002220
0.002161
0.002102
0.002043
0.001985
0.001926
0.001868
0.001810
0.001752
0.001695
0.001637
0.001579
0.001521
0.001463
0.001404
0.001346
0.001287
0.001228
0.001169
0.001109
0.001048
0.000987
0.000924
0.000862
0.000799
0.000735
0.000672
0.000608
0.000544
0.000484
0.026961
0.026573
0.026324
0.001550
0.001014
0.027430
0.000848
0.027322
0.027445
0.015666
0.027352
0.000770
0.018180
0.028021
0.008848
0.014165
0.027438
0.000760
0.002364
0.026254
0.004645
0.028528
0.027553
0.010272
0.026291
0.023684
0.029253
0.021430
0.027534
0.026401
0.003479
0.026848
0.026479
0.027755
0.027262
0.000683
0.027275
0.002074
0.026632
0.001158
0.026747
0.026399
0.026188
0.028427
0.001246
0.027217
0.001012
0.026801
0.027556
0.030332
0.000897
0.027338
0.005916
0.022388
0.000748
0.027414
0.027398
0.020924
0.027257
0.027346
0.010589
0.012253
0.000773
0.000798
0.026181
0.026372
0.016781
0.025494
0.027772
0.000887
0.027466
0.000921
0.017558
0.001216
0.026215
0.012826
0.001735
0.027826
0.009049
0.004158
0.007496
0.004428
0.005166
0.026737
0.026968
0.027116
0.026678
0.026521
0.026382
0.027226
0.028192
0.027910
0.027648
0.027634
0.027567
0.027387
0.029750
0.028992
0.028830
0.028761
0.026899
0.000882
0.027099
0.027866
0.025704
0.026007
0.002503
0.025756
0.001935
0.026584
0.017094
0.001596
0.017760
0.027090
0.010569
0.026159
0.001509
0.025846
0.004625
0.021093
0.026535
0.013864
0.003379
0.026278
0.026868
0.001546
0.026517
0.026432
0.025860
0.028108
0.008784
0.025591
0.026995
0.027576
0.000746
0.026951
0.026303
0.000708
0.027549
0.026722
0.007368
0.027515
0.000697
0.023375
0.026456
0.027471
0.003248
0.027414
0.019728
0.013711
0.027369
0.027350
0.000785
0.027368
0.001840
0.027402
0.026309
0.000938
0.019402
0.001003
0.027448
0.026255
0.023328
0.001336
0.015601
0.027660
0.026270
0.002016
0.011548
0.005883
0.002818
0.007115
0.026233
0.026316
0.026856
0.026608
0.026365
0.026302
0.026447
0.026095
0.026998
0.027111
0.027249
0.027771
0.027408
0.027815
0.027209
0.027714
0.027897
0.028291
0.028369
0.027494
0.029210
0.028175
0.029671
0.026735
0.027113
0.026818
0.009042
0.002806
0.026191
0.026067
0.009177
0.026312
0.025601
0.026618
0.026048
0.027361
0.003005
0.025643
0.015253
0.025747
0.025711
0.004259
0.005365
0.001415
0.025583
0.027550
0.001549
0.027748
0.025614
0.026563
0.019034
0.026366
0.025771
0.027504
0.025928
0.001613
0.023100
0.026457
0.026453
0.027069
0.001442
0.019374
0.026187
0.001987
0.025870
0.013913
0.012072
0.002147
0.026053
0.016541
0.026564
0.001625
0.001740
0.002708
0.026775
0.001464
0.005691
0.025681
0.025699
0.026319
0.025790
0.025900
0.003800
0.022226
0.015439
0.012605
0.026675
0.011277
0.010031
0.001665
0.008212
0.006466
0.025496
0.025676
0.025755
0.026038
0.026119
0.001531
0.025829
0.024797
0.026168
0.026247
0.026660
0.026529
0.027697
0.028740
0.026877
0.026736
0.026578
0.025560
0.028273
0.027507
0.026545
0.026652
0.026510
0.026905
0.026713
0.007644
0.003202
0.027244
0.026447
0.026438
0.025803
0.027748
0.025141
0.025509
0.025352
0.003598
0.024552
0.015342
0.002530
0.016444
0.026370
0.002207
0.005553
0.024189
0.005268
0.022402
0.002196
0.025803
0.012379
0.025252
0.025738
0.027154
0.002848
0.026547
0.004621
0.025967
0.018235
0.026335
0.026218
0.002124
0.026176
0.025818
0.025286
0.014901
0.025861
0.002420
0.025609
0.024341
0.025890
0.010239
0.025712
0.018789
0.021164
0.026211
0.004681
0.026370
0.010970
0.009633
0.007168
0.007701
0.025989
0.025607
0.003010
0.003001
0.025583
0.004235
0.025590
0.025781
0.024463
0.026117
0.026745
0.026428
0.025658
0.007249
0.027413
0.025998
0.027571
0.026341
0.025157
0.001453
0.026032
0.026049
0.027304
0.020067
0.028926
0.025111
0.028336
0.027205
0.025579
0.026999
0.026268
0.026422
0.026328
0.008238
0.006679
0.026406
0.026201
0.025900
0.027308
0.026319
0.026541
0.026398
0.027894
0.006067
0.004215
0.023257
0.003367
0.024933
0.025534
0.025277
0.010059
0.015950
0.025456
0.025873
0.002216
0.025308
0.025906
0.025346
0.026048
0.026111
0.024816
0.025223
0.003815
0.011958
0.006007
0.026716
0.025785
0.021424
0.008768
0.002444
0.003534
0.008142
0.025088
0.025309
0.002262
0.004447
0.014147
0.025756
0.026206
0.025716
0.021210
0.023790
0.024865
0.026852
0.026022
0.026471
0.025294
0.006356
0.005096
0.025228
0.024341
0.016799
0.025193
0.025147
0.006539
0.020128
0.025981
0.024084
0.026492
0.010625
0.023338
0.004044
0.002470
0.017676
0.024387
0.013661
0.009230
0.025312
0.025578
0.025408
0.011457
0.025201
0.002638
0.025536
0.025134
0.024838
0.002206
0.026835
0.025496
0.029624
0.025942
0.026744
0.026045
0.025824
0.025887
0.026172
0.026738
0.025367
0.026210
0.025879
0.002098
0.026087
0.026341
0.025260
0.026126
0.025522
0.026786
0.026077
0.024757
0.025061
0.025071
0.016521
0.024388
0.002922
0.024734
0.007197
0.020864
0.005062
0.024905
0.002820
0.022908
0.026075
0.003349
0.025303
0.025262
0.025977
0.024937
0.024108
0.002173
0.011095
0.013299
0.003308
0.003836
0.024849
0.025782
0.002800
0.024523
0.025575
0.025943
0.025838
0.024685
0.026403
0.026091
0.017203
0.006711
0.014718
0.023099
0.007223
0.008281
0.025040
0.004188
0.011599
0.002279
0.025831
0.022445
0.024622
0.023165
0.023137
0.010215
0.012849
0.005760
0.004945
0.025267
0.013832
0.024973
0.025887
0.019791
0.022797
0.026188
0.024739
0.025227
0.026123
0.025168
0.026112
0.024757
0.025512
0.026011
0.026153
0.009136
0.004481
0.025844
0.026991
0.025596
0.026791
0.025390
0.025309
0.025296
0.003260
0.003620
0.025771
0.024477
0.026178
0.026358
0.025432
0.026165
0.006433
0.026359
0.024185
0.025870
0.024873
0.019717
0.025645
0.025213
0.026005
0.025965
0.025349
0.024540
0.005745
0.022093
0.004008
0.023877
0.010890
0.006358
0.020677
0.016897
0.008691
0.002737
0.024844
0.024380
0.004868
0.018000
0.023875
0.024918
0.003044
0.021750
0.023681
0.007532
0.024967
0.024968
0.003109
0.025701
0.025379
0.024931
0.024779
0.025293
0.024087
0.024729
0.025663
0.025114
0.024651
0.025538
0.018611
0.025063
0.012320
0.026198
0.014224
0.022126
0.007788
0.026364
0.022696
0.005427
0.001608
0.003618
0.003491
0.024967
0.004354
0.025707
0.003626
0.026537
0.009707
0.007943
0.015063
0.008874
0.003018
0.012895
0.005286
0.025695
0.025892
0.025889
0.025807
0.023593
0.025009
0.025216
0.024785
0.022108
0.004821
0.025073
0.024689
0.002791
0.025843
0.025323
0.019420
0.025791
0.025710
0.025125
0.024819
0.025312
0.026064
0.025135
0.003839
0.025854
0.024930
0.025959
0.005763
0.026545
0.025789
0.025779
0.002854
0.025338
0.024606
0.025871
0.026277
0.006336
0.003512
0.008029
0.003372
0.004302
0.015164
0.002736
0.002974
0.024378
0.013850
0.024799
0.025348
0.004419
0.025506
0.021748
0.019334
0.025578
0.006429
0.003517
0.022343
0.004248
0.011111
0.004924
0.007214
0.024686
0.025399
0.025607
0.024506
0.025507
0.009289
0.024509
0.024824
0.025658
0.025606
0.024380
0.012269
0.023686
0.002193
0.021203
0.024280
0.021962
0.021491
0.022984
0.015688
0.025012
0.024730
0.024788
0.024628
0.006074
0.025624
0.003239
0.008271
0.003414
0.025995
0.009797
0.016571
0.020666
0.024954
0.007006
0.005484
0.002825
0.019616
0.024916
0.005593
0.024768
0.025113
0.025518
0.025514
0.024307
0.023478
0.024501
0.024406
0.024775
0.024878
0.024756
0.008684
0.024894
0.025005
0.020688
0.025285
0.025652
0.025739
0.024724
0.026133
0.025813
0.000776
0.025202
0.024039
0.025629
0.004221
0.025721
0.018216
0.024331
0.003796
0.025966
0.024000
0.007409
0.008610
0.020944
0.023393
0.024320
0.009883
0.017906
0.003901
0.023999
0.015340
0.021513
0.002959
0.024436
0.003166
0.002679
0.025001
0.024862
0.024499
0.002394
0.005931
0.025488
0.025494
0.010262
0.022714
0.022482
0.020485
0.004296
0.024583
0.024579
0.024416
0.023584
0.024351
0.014040
0.001682
0.024473
0.002475
0.020162
0.004407
0.025587
0.008807
0.006729
0.025374
0.025573
0.009084
0.025391
0.012617
0.025538
0.024379
0.003360
0.004890
0.025431
0.003690
0.025006
0.003917
0.004570
0.006795
0.024703
0.017869
0.010562
0.020547
0.025011
0.009634
0.025458
0.025120
0.016651
0.024670
0.024377
0.024717
0.024586
0.024773
0.024200
0.024266
0.024731
0.024732
0.019218
0.025185
0.023176
0.024459
0.025662
0.004910
0.024353
0.025541
0.025520
0.015236
0.003621
0.022601
0.019978
0.021276
0.024320
0.006978
0.020302
0.022518
0.009023
0.017639
0.004127
0.004910
0.020155
0.003582
0.019279
0.002421
0.022235
0.023958
0.024462
0.024860
0.005178
0.024954
0.014895
0.025351
0.024109
0.024066
0.008197
0.024214
0.004989
0.025308
0.014182
0.004491
0.024096
0.024574
0.005626
0.003331
0.022988
0.010658
0.023281
0.024371
0.024372
0.024266
0.024153
0.021502
0.007039
0.005242
0.010333
0.025359
0.003954
0.003670
0.006509
0.024474
0.007801
0.011837
0.022649
0.020745
0.002179
0.018857
0.024378
0.024447
0.010074
0.016494
0.025363
0.025267
0.001921
0.024721
0.024456
0.024620
0.023921
0.004674
0.025435
0.024365
0.024435
0.025178
0.023932
0.025289
0.024275
0.024529
0.024491
0.024790
0.001389
0.024656
0.023409
0.016235
0.025405
0.007969
0.025313
0.019074
0.022733
0.023994
0.001153
0.024200
0.024151
0.025467
0.024541
0.018817
0.003904
0.003128
0.025436
0.004355
0.023847
0.023607
0.007966
0.014275
0.020542
0.017210
0.005419
0.022547
0.019754
0.023877
0.004487
0.004316
0.002894
0.025136
0.003942
0.018124
0.024033
0.003494
0.003105
0.024844
0.021924
0.024229
0.009129
0.024132
0.021535
0.002016
0.010135
0.023041
0.005758
0.006284
0.024919
0.006660
0.024052
0.023699
0.024202
0.023975
0.023996
0.015744
0.013575
0.007441
0.023897
0.001335
0.021153
0.005545
0.009815
0.019968
0.024262
0.023853
0.023822
0.017761
0.005353
0.008313
0.023998
0.005072
0.007307
0.002700
0.011054
0.015290
0.004267
0.011590
0.022372
0.025217
0.025128
0.024553
0.024319
0.001809
0.023962
0.025292
0.025324
0.025270
0.025093
0.023861
0.003808
0.024118
0.007271
0.023854
0.024046
0.013001
0.024314
0.004293
0.023821
0.024045
0.024102
0.025319
0.005413
0.023670
0.022184
0.024045
0.003778
0.011649
0.001698
0.003864
0.025189
0.000504
0.004345
0.023585
0.024496
0.025154
0.025033
0.023985
0.018448
0.002530
0.019444
0.024094
0.021870
0.025189
0.025349
0.001233
0.023652
0.009190
0.008037
0.019703
0.014250
0.016766
0.021650
0.009010
0.005753
0.004838
0.005692
0.023467
0.019196
0.011487
0.018395
0.002476
0.023709
0.021076
0.023670
0.003027
0.010627
0.023756
0.006476
0.007272
0.004931
0.001353
0.001605
0.005817
0.023219
0.009555
0.008929
0.004583
0.019348
0.018742
0.006131
0.021118
0.002398
0.024103
0.016379
0.024981
0.024597
0.008269
0.023798
0.013263
0.024890
0.023790
0.023942
0.023761
0.022249
0.006204
0.005160
0.014601
0.011434
0.003313
0.017556
0.021476
0.025153
0.024030
0.023587
0.025222
0.023728
0.023660
0.023906
0.024449
0.021898
0.006801
0.023583
0.023787
0.001741
0.024947
0.023678
0.024001
0.023328
0.025186
0.025020
0.023699
0.023467
0.023553
0.020833
0.004095
0.007371
0.007719
0.025240
0.024657
0.024998
0.024100
0.003832
0.013081
0.024075
0.018064
0.024780
0.011376
0.025125
0.003679
0.025224
0.003474
0.020636
0.024257
0.024912
0.004275
0.012942
0.004883
0.001971
0.023198
0.023726
0.009028
0.006849
0.018872
0.024530
0.020982
0.017699
0.005541
0.004671
0.004674
0.022753
0.004314
0.020269
0.017501
0.013410
0.003764
0.023386
0.019826
0.012635
0.001629
0.023323
0.010551
0.006714
0.023960
0.011321
0.001825
0.011451
0.008290
0.008857
0.012098
0.016299
0.024643
0.005032
0.024238
0.018394
0.023063
0.006365
0.020769
0.006181
0.015260
0.023600
0.005675
0.009581
0.006151
0.002855
0.007715
0.006209
0.009898
0.023120
0.024137
0.023410
0.023494
0.015721
0.021958
0.002724
0.022551
0.023596
0.024824
0.024325
0.004735
0.024883
0.024740
0.007863
0.012296
0.023531
0.023609
0.023675
0.023503
0.006541
0.023238
0.021808
0.023503
0.024902
0.025127
0.008513
0.023662
0.023287
0.022847
0.017840
0.025023
0.025103
0.004189
0.020620
0.003486
0.018984
0.023390
0.017011
0.023137
0.012076
0.025087
0.023437
0.001274
0.024784
0.023792
0.024431
0.023968
0.024510
0.004954
0.024924
0.023235
0.003267
0.024801
0.025141
0.003297
0.024941
0.024258
0.010317
0.024278
0.014215
0.018021
0.009480
0.020316
0.021977
0.005369
0.006101
0.006728
0.018529
0.003314
0.012455
0.023641
0.007437
0.017059
0.002503
0.002434
0.023837
0.023229
0.004453
0.003309
0.021383
0.001675
0.023541
0.021160
0.003559
0.005388
0.023121
0.023309
0.001802
0.019836
0.023992
0.014743
0.004629
0.004730
0.015227
0.010197
0.006438
0.022193
0.024660
0.005639
0.022624
0.019057
0.010600
0.006907
0.024708
0.022570
0.024053
0.009611
0.006171
0.010778
0.024577
0.016542
0.006568
0.024408
0.023452
0.003032
0.023433
0.023224
0.007256
0.008345
0.007167
0.001308
0.012739
0.016668
0.011399
0.009261
0.024202
0.023992
0.004454
0.024761
0.024929
0.023166
0.023134
0.002104
0.023310
0.023698
0.025035
0.024514
0.025044
0.023468
0.024770
0.023536
0.012313
0.013856
0.002919
0.024941
0.006050
0.024792
0.023302
0.008388
0.003747
0.023906
0.025053
0.023122
0.024678
0.016123
0.022746
0.004091
0.024718
0.024849
0.006800
0.025018
0.023703
0.008823
0.023517
0.022907
0.024011
0.009747
0.011366
0.007632
0.014179
0.024669
0.019122
0.023950
0.023471
0.021454
0.006753
0.022806
0.005686
0.023211
0.005482
0.005022
0.022042
0.022651
0.023304
0.011516
0.002811
0.003994
0.022764
0.016158
0.001914
0.002066
0.022801
0.003239
0.010194
0.003530
0.023320
0.013623
0.015479
0.022896
0.000990
0.003609
0.010651
0.024057
0.023189
0.024456
0.024124
0.022605
0.009949
0.006291
0.006828
0.011826
0.012433
0.013222
0.005123
0.007873
0.007811
0.017539
0.024616
0.024527
0.008918
0.023060
0.004589
0.024873
0.022823
0.021294
0.005381
0.022016
0.024043
0.023797
0.024707
0.024914
0.023077
0.013158
0.024497
0.023026
0.024268
0.007713
0.003722
0.022475
0.024251
0.004430
0.004315
0.017007
0.024630
0.024936
0.020585
0.015550
0.004712
0.001517
0.007151
0.023007
0.008493
0.024462
0.002498
0.002133
0.023689
0.004361
0.007050
0.024083
0.024629
0.024760
0.023777
0.021466
0.001352
0.024873
0.013946
0.018317
0.020573
0.002007
0.005921
0.010771
0.010126
0.022499
0.011364
0.023699
0.008334
0.013097
0.017583
0.010769
0.016224
0.007112
0.019970
0.021457
0.024578
0.008430
0.006421
0.018252
0.006372
0.023615
0.024472
0.009446
0.022832
0.003289
0.004982
0.005756
0.004670
0.022700
0.001666
0.004527
0.013802
0.023367
0.002775
0.003769
0.023319
0.002442
0.005255
0.021902
0.001803
0.001131
0.024164
0.022692
0.005865
0.010775
0.020699
0.018419
0.024472
0.020962
0.019152
0.007260
0.023597
0.008976
0.012345
0.024333
0.023426
0.023173
0.003047
0.022712
0.000792
0.009994
0.007485
0.005078
0.024005
0.023088
0.011668
0.016494
0.023773
0.005775
0.022544
0.014202
0.005097
0.010150
0.022719
0.022570
0.024839
0.019903
0.014779
0.024432
0.022019
0.021879
0.023415
0.024610
0.023031
0.024738
0.023312
0.002182
0.023903
0.003941
0.024573
0.004707
0.022715
0.017757
0.021323
0.024694
0.022891
0.024654
0.024229
0.007239
0.002492
0.015457
0.011132
0.023128
0.004676
0.013478
0.007793
0.014499
0.003978
0.023324
0.024841
0.024662
0.023846
0.024054
0.004225
0.005309
0.024273
0.004302
0.022267
0.001173
0.021586
0.014725
0.008107
0.023709
0.004664
0.024771
0.022374
0.010618
0.015485
0.017759
0.008468
0.021005
0.006722
0.023735
0.005932
0.023804
0.005354
0.019788
0.021355
0.009017
0.005006
0.024216
0.010111
0.024278
0.022846
0.012587
0.002211
0.019077
0.023538
0.004875
0.008197
0.023091
0.022966
0.011181
0.004171
0.022363
0.017305
0.000759
0.024622
0.006322
0.004740
0.002728
0.024481
0.001869
0.003697
0.007672
0.007607
0.001013
0.003302
0.022179
0.022247
0.021974
0.004356
0.011797
0.014821
0.012480
0.012762
0.024016
0.020758
0.016166
0.024437
0.022872
0.011048
0.002091
0.018486
0.023017
0.013493
0.023490
0.004860
0.015269
0.003544
0.005510
0.014689
0.005122
0.009565
0.001233
0.001473
0.013648
0.023617