# vtk DataFile Version 2.0
Test
ASCII
DATASET POLYDATA
POINTS 7341 float
0.000000 0.000000 0.000000
1.000000 0.000000 0.000000
1.000000 1.000000 0.000000
0.000000 1.000000 0.000000
0.000000 0.500000 0.000000
0.500000 0.500000 0.000000
1.000000 0.500000 0.000000
0.499000 0.499000 0.000000
0.900000 0.010000 0.000000
0.029412 0.000000 0.000000
0.058824 0.000000 0.000000
0.088235 0.000000 0.000000
0.117647 0.000000 0.000000
0.147059 0.000000 0.000000
0.176471 0.000000 0.000000
0.205882 0.000000 0.000000
0.235294 0.000000 0.000000
0.264706 0.000000 0.000000
0.294118 0.000000 0.000000
0.323529 0.000000 0.000000
0.352941 0.000000 0.000000
0.382353 0.000000 0.000000
0.411765 0.000000 0.000000
0.441176 0.000000 0.000000
0.470588 0.000000 0.000000
0.500000 0.000000 0.000000
0.529412 0.000000 0.000000
0.558824 0.000000 0.000000
0.588235 0.000000 0.000000
0.617647 0.000000 0.000000
0.647059 0.000000 0.000000
0.676471 0.000000 0.000000
0.705882 0.000000 0.000000
0.735294 0.000000 0.000000
0.764706 0.000000 0.000000
0.794118 0.000000 0.000000
0.823529 0.000000 0.000000
0.852941 0.000000 0.000000
0.882353 0.000000 0.000000
0.911765 0.000000 0.000000
0.941176 0.000000 0.000000
0.970588 0.000000 0.000000
1.000000 0.029412 0.000000
1.000000 0.058824 0.000000
1.000000 0.088235 0.000000
1.000000 0.117647 0.000000
1.000000 0.147059 0.000000
1.000000 0.176471 0.000000
1.000000 0.205882 0.000000
1.000000 0.235294 0.000000
1.000000 0.264706 0.000000
1.000000 0.294118 0.000000
1.000000 0.323529 0.000000
1.000000 0.352941 0.000000
1.000000 0.382353 0.000000
1.000000 0.411765 0.000000
1.000000 0.441176 0.000000
1.000000 0.470588 0.000000
1.000000 0.529412 0.000000
1.000000 0.558824 0.000000
1.000000 0.588235 0.000000
1.000000 0.617647 0.000000
1.000000 0.647059 0.000000
1.000000 0.676471 0.000000
1.000000 0.705882 0.000000
1.000000 0.735294 0.000000
1.000000 0.764706 0.000000
1.000000 0.794118 0.000000
1.000000 0.823529 0.000000
1.000000 0.852941 0.000000
1.000000 0.882353 0.000000
1.000000 0.911765 0.000000
1.000000 0.941176 0.000000
1.000000 0.970588 0.000000
0.970588 1.000000 0.000000
0.941176 1.000000 0.000000
0.911765 1.000000 0.000000
0.882353 1.000000 0.000000
0.852941 1.000000 0.000000
0.823529 1.000000 0.000000
0.794118 1.000000 0.000000
0.764706 1.000000 0.000000
0.735294 1.000000 0.000000
0.705882 1.000000 0.000000
0.676471 1.000000 0.000000
0.647059 1.000000 0.000000
0.617647 1.000000 0.000000
0.588235 1.000000 0.000000
0.558824 1.000000 0.000000
0.529412 1.000000 0.000000
0.500000 1.000000 0.000000
0.470588 1.000000 0.000000
0.441176 1.000000 0.000000
0.411765 1.000000 0.000000
0.382353 1.000000 0.000000
0.352941 1.000000 0.000000
0.323529 1.000000 0.000000
0.294118 1.000000 0.000000
0.264706 1.000000 0.000000
0.235294 1.000000 0.000000
0.205882 1.000000 0.000000
0.176471 1.000000 0.000000
0.147059 1.000000 0.000000
0.117647 1.000000 0.000000
0.088235 1.000000 0.000000
0.058824 1.000000 0.000000
0.029412 1.000000 0.000000
0.000000 0.970588 0.000000
0.000000 0.941176 0.000000
0.000000 0.911765 0.000000
0.000000 0.882353 0.000000
0.000000 0.852941 0.000000
0.000000 0.823529 0.000000
0.000000 0.794118 0.000000
0.000000 0.764706 0.000000
0.000000 0.735294 0.000000
0.000000 0.705882 0.000000
0.000000 0.676471 0.000000
0.000000 0.647059 0.000000
0.000000 0.617647 0.000000
0.000000 0.588235 0.000000
0.000000 0.558824 0.000000
0.000000 0.529412 0.000000
0.007246 0.500000 0.000000
0.014493 0.500000 0.000000
0.021739 0.500000 0.000000
0.028986 0.500000 0.000000
0.036232 0.500000 0.000000
0.043478 0.500000 0.000000
0.050725 0.500000 0.000000
0.057971 0.500000 0.000000
0.065217 0.500000 0.000000
0.072464 0.500000 0.000000
0.079710 0.500000 0.000000
0.086957 0.500000 0.000000
0.094203 0.500000 0.000000
0.101449 0.500000 0.000000
0.108696 0.500000 0.000000
0.115942 0.500000 0.000000
0.123188 0.500000 0.000000
0.130435 0.500000 0.000000
0.137681 0.500000 0.000000
0.144928 0.500000 0.000000
0.152174 0.500000 0.000000
0.159420 0.500000 0.000000
0.166667 0.500000 0.000000
0.173913 0.500000 0.000000
0.181159 0.500000 0.000000
0.188406 0.500000 0.000000
0.195652 0.500000 0.000000
0.202899 0.500000 0.000000
0.210145 0.500000 0.000000
0.217391 0.500000 0.000000
0.224638 0.500000 0.000000
0.231884 0.500000 0.000000
0.239130 0.500000 0.000000
0.246377 0.500000 0.000000
0.253623 0.500000 0.000000
0.260870 0.500000 0.000000
0.268116 0.500000 0.000000
0.275362 0.500000 0.000000
0.282609 0.500000 0.000000
0.289855 0.500000 0.000000
0.297101 0.500000 0.000000
0.304348 0.500000 0.000000
0.311594 0.500000 0.000000
0.318841 0.500000 0.000000
0.326087 0.500000 0.000000
0.333333 0.500000 0.000000
0.340580 0.500000 0.000000
0.347826 0.500000 0.000000
0.355072 0.500000 0.000000
0.362319 0.500000 0.000000
0.369565 0.500000 0.000000
0.376812 0.500000 0.000000
0.384058 0.500000 0.000000
0.391304 0.500000 0.000000
0.398551 0.500000 0.000000
0.405797 0.500000 0.000000
0.413043 0.500000 0.000000
0.420290 0.500000 0.000000
0.427536 0.500000 0.000000
0.434783 0.500000 0.000000
0.442029 0.500000 0.000000
0.449275 0.500000 0.000000
0.456522 0.500000 0.000000
0.463768 0.500000 0.000000
0.471014 0.500000 0.000000
0.478261 0.500000 0.000000
0.485507 0.500000 0.000000
0.492754 0.500000 0.000000
0.510004 0.500000 0.000000
0.520408 0.500000 0.000000
0.531229 0.500000 0.000000
0.542483 0.500000 0.000000
0.554187 0.500000 0.000000
0.566359 0.500000 0.000000
0.579019 0.500000 0.000000
0.592185 0.500000 0.000000
0.605877 0.500000 0.000000
0.620118 0.500000 0.000000
0.634929 0.500000 0.000000
0.650332 0.500000 0.000000
0.666352 0.500000 0.000000
0.683013 0.500000 0.000000
0.700340 0.500000 0.000000
0.718361 0.500000 0.000000
0.737103 0.500000 0.000000
0.756595 0.500000 0.000000
0.776867 0.500000 0.000000
0.797950 0.500000 0.000000
0.819877 0.500000 0.000000
0.842681 0.500000 0.000000
0.866398 0.500000 0.000000
0.891064 0.500000 0.000000
0.916716 0.500000 0.000000
0.943396 0.500000 0.000000
0.971143 0.500000 0.000000
0.000000 0.470588 0.000000
0.000000 0.441176 0.000000
0.000000 0.411765 0.000000
0.000000 0.382353 0.000000
0.000000 0.352941 0.000000
0.000000 0.323529 0.000000
0.000000 0.294118 0.000000
0.000000 0.264706 0.000000
0.000000 0.235294 0.000000
0.000000 0.205882 0.000000
0.000000 0.176471 0.000000
0.000000 0.147059 0.000000
0.000000 0.117647 0.000000
0.000000 0.088235 0.000000
0.000000 0.058824 0.000000
0.000000 0.029412 0.000000
0.500341 0.497365 0.000000
0.501682 0.495729 0.000000
0.503023 0.494094 0.000000
0.504365 0.492458 0.000000
0.505706 0.490823 0.000000
0.507047 0.489187 0.000000
0.508388 0.487552 0.000000
0.509729 0.485916 0.000000
0.511070 0.484281 0.000000
0.512411 0.482645 0.000000
0.513753 0.481010 0.000000
0.515094 0.479375 0.000000
0.516435 0.477739 0.000000
0.517776 0.476104 0.000000
0.519117 0.474468 0.000000
0.520458 0.472833 0.000000
0.521799 0.471197 0.000000
0.523140 0.469562 0.000000
0.524482 0.467926 0.000000
0.525823 0.466291 0.000000
0.527164 0.464656 0.000000
0.528505 0.463020 0.000000
0.529846 0.461385 0.000000
0.531187 0.459749 0.000000
0.532528 0.458114 0.000000
0.533870 0.456478 0.000000
0.535211 0.454843 0.000000
0.536552 0.453207 0.000000
0.537893 0.451572 0.000000
0.539234 0.449936 0.000000
0.540575 0.448301 0.000000
0.541916 0.446666 0.000000
0.543258 0.445030 0.000000
0.544599 0.443395 0.000000
0.545940 0.441759 0.000000
0.547281 0.440124 0.000000
0.548622 0.438488 0.000000
0.549963 0.436853 0.000000
0.551304 0.435217 0.000000
0.552645 0.433582 0.000000
0.553987 0.431946 0.000000
0.555328 0.430311 0.000000
0.556669 0.428676 0.000000
0.558010 0.427040 0.000000
0.559351 0.425405 0.000000
0.560692 0.423769 0.000000
0.562033 0.422134 0.000000
0.563375 0.420498 0.000000
0.564716 0.418863 0.000000
0.566057 0.417227 0.000000
0.567398 0.415592 0.000000
0.568739 0.413957 0.000000
0.570080 0.412321 0.000000
0.571421 0.410686 0.000000
0.572763 0.409050 0.000000
0.574104 0.407415 0.000000
0.575445 0.405779 0.000000
0.576786 0.404144 0.000000
0.578127 0.402508 0.000000
0.579468 0.400873 0.000000
0.580809 0.399237 0.000000
0.582151 0.397602 0.000000
0.583492 0.395967 0.000000
0.584833 0.394331 0.000000
0.586174 0.392696 0.000000
0.587515 0.391060 0.000000
0.588856 0.389425 0.000000
0.590197 0.387789 0.000000
0.591538 0.386154 0.000000
0.592880 0.384518 0.000000
0.594221 0.382883 0.000000
0.595562 0.381247 0.000000
0.596903 0.379612 0.000000
0.598244 0.377977 0.000000
0.599585 0.376341 0.000000
0.600926 0.374706 0.000000
0.602268 0.373070 0.000000
0.603609 0.371435 0.000000
0.604950 0.369799 0.000000
0.606291 0.368164 0.000000
0.607632 0.366528 0.000000
0.608973 0.364893 0.000000
0.610314 0.363258 0.000000
0.611656 0.361622 0.000000
0.612997 0.359987 0.000000
0.614338 0.358351 0.000000
0.615679 0.356716 0.000000
0.617020 0.355080 0.000000
0.618361 0.353445 0.000000
0.619702 0.351809 0.000000
0.621043 0.350174 0.000000
0.622385 0.348538 0.000000
0.623726 0.346903 0.000000
0.625067 0.345268 0.000000
0.626408 0.343632 0.000000
0.627749 0.341997 0.000000
0.629090 0.340361 0.000000
0.630431 0.338726 0.000000
0.631773 0.337090 0.000000
0.633114 0.335455 0.000000
0.634455 0.333819 0.000000
0.635796 0.332184 0.000000
0.637137 0.330548 0.000000
0.638478 0.328913 0.000000
0.639819 0.327278 0.000000
0.641161 0.325642 0.000000
0.642502 0.324007 0.000000
0.643843 0.322371 0.000000
0.645184 0.320736 0.000000
0.646525 0.319100 0.000000
0.647866 0.317465 0.000000
0.649207 0.315829 0.000000
0.650548 0.314194 0.000000
0.651890 0.312559 0.000000
0.653231 0.310923 0.000000
0.654572 0.309288 0.000000
0.655913 0.307652 0.000000
0.657254 0.306017 0.000000
0.658595 0.304381 0.000000
0.659936 0.302746 0.000000
0.661278 0.301110 0.000000
0.662619 0.299475 0.000000
0.663960 0.297839 0.000000
0.665301 0.296204 0.000000
0.666642 0.294569 0.000000
0.667983 0.292933 0.000000
0.669324 0.291298 0.000000
0.670666 0.289662 0.000000
0.672007 0.288027 0.000000
0.673348 0.286391 0.000000
0.674689 0.284756 0.000000
0.676030 0.283120 0.000000
0.677371 0.281485 0.000000
[...]
POINT_DATA 7341
SCALARS UX float 1
LOOKUP_TABLE default
0.000000
0.000000
0.283000
0.283000
0.089273
0.080162
0.110112
0.078062
0.002162
-0.000000
0.000000
0.000000
0.000000
0.000000
0.000000
0.000000
0.000000
0.000000
0.000000
0.000000
0.000000
0.000000
0.000000
0.000000
0.000000
0.000000
0.000000
0.000000
0.000000
0.000000
0.000000
0.000000
0.000000
0.000000
0.000000
0.000000
0.000000
0.000000
0.000000
0.000000
0.000000
-0.000000
0.007625
0.002804
0.004424
0.006506
0.009038
0.012175
0.016274
0.020856
0.027151
0.034688
0.043312
0.052816
0.063003
0.074045
0.085898
0.097919
0.122345
0.134667
0.147215
0.160630
0.173154
0.184832
0.195968
0.206345
0.216074
0.225481
0.234331
0.242882
0.251199
0.259323
0.267340
0.275211
0.283000
0.283000
0.283000
0.283000
0.283000
0.283000
0.283000
0.283000
0.283000
0.283000
0.283000
0.283000
0.283000
0.283000
0.283000
0.283000
0.283000
0.283000
0.283000
0.283000
0.283000
0.283000
0.283000
0.283000
0.283000
0.283000
0.283000
0.283000
0.283000
0.283000
0.283000
0.283000
0.283000
0.272951
0.262869
0.252771
0.242497
0.232125
0.221272
0.210145
0.198309
0.186122
0.173684
0.160790
0.147778
0.134640
0.121453
0.108770
0.097842
0.088255
0.087414
0.086096
0.085218
0.084584
0.084184
0.083845
0.083028
0.081395
0.080416
0.080671
0.080015
0.079380
0.079234
0.078668
0.079063
0.077010
0.077299
0.077137
0.077245
0.077273
0.077474
0.076778
0.077329
0.078103
0.081954
0.079936
0.082290
0.082343
0.082398
0.082521
0.082496
0.082460
0.082444
0.082419
0.082412
0.082502
0.078045
0.079650
0.075526
0.077213
0.075944
0.076589
0.077536
0.076069
0.075944
0.075695
0.075380
0.075295
0.073097
0.074773
0.073527
0.074657
0.073136
0.074574
0.073678
0.075249
0.075288
0.075733
0.075965
0.078254
0.078559
0.078873
0.078112
0.079360
0.076403
0.079284
0.079777
0.079371
0.079680
0.080507
0.081459
0.082421
0.083947
0.086114
0.088835
0.091794
0.094675
0.097554
0.100558
0.103144
0.104980
0.106103
0.106220
0.106318
0.106409
0.106882
0.107109
0.107299
0.107854
0.108812
0.108907
0.109078
0.109350
0.109701
0.072892
0.063452
0.055444
0.048462
0.043182
0.038075
0.033787
0.029691
0.026399
0.023494
0.021243
0.018703
0.016686
0.014567
0.012011
0.008335
0.076951
0.075282
0.074353
0.073785
0.072974
0.072329
0.071910
0.071432
0.071006
0.070534
0.070008
0.069392
0.068776
0.068152
0.067558
0.067004
0.066467
0.065949
0.065440
0.064940
0.064447
0.063960
0.063480
0.063007
0.062539
0.062079
0.061624
0.061175
0.060733
0.060294
0.059858
0.059427
0.059000
0.058575
0.058151
0.057731
0.057312
0.056895
0.056482
0.056071
0.055666
0.055261
0.054854
0.054448
0.054030
0.053624
0.053222
0.052823
0.052429
0.052038
0.051650
0.051244
0.050745
0.050455
0.050095
0.049728
0.049357
0.048982
0.048605
0.048225
0.047843
0.047458
0.047074
0.046687
0.046300
0.045914
0.045528
0.045143
0.044762
0.044382
0.044010
0.043642
0.043278
0.042915
0.042557
0.042197
0.041840
0.041481
0.041122
0.040764
0.040405
0.040046
0.039686
0.039329
0.038974
0.038618
0.038265
0.037913
0.037563
0.037214
0.036868
0.036524
0.036183
0.035845
0.035510
0.035178
0.034849
0.034522
0.034199
0.033878
0.033559
0.033244
0.032929
0.032618
0.032307
0.031998
0.031690
0.031383
0.031077
0.030770
0.030463
0.030155
0.029846
0.029534
0.029218
0.028898
0.028572
0.028239
0.027901
0.027563
0.027231
0.026914
0.026611
0.026333
0.026073
0.025827
0.025589
0.025360
0.025137
0.024918
0.024704
0.024494
0.024289
0.024085
0.023888
0.023695
0.023506
0.023322
0.023143
0.022971
0.022805
0.022645
0.022494
0.022352
0.022218
0.022094
0.021981
0.021877
0.021782
0.021694
0.021512
0.021180
0.020853
0.020531
0.020211
0.019889
0.019572
0.019259
0.018950
0.018647
0.018348
0.018052
0.017758
0.017468
0.017183
0.016898
0.016643
0.016378
0.016113
0.015838
0.015577
0.015323
0.015074
0.014830
0.014591
0.014356
0.014126
0.013897
0.013672
0.013450
0.013230
0.013011
0.012797
0.012586
0.012379
0.012177
0.011978
0.011782
0.011590
0.011401
0.011215
0.011030
0.010848
0.010669
0.010491
0.010317
0.010144
0.009974
0.009805
0.009639
0.009475
0.009314
0.009154
0.008996
0.008841
0.008688
0.008536
0.008388
0.008241
0.008097
0.007954
0.007813
0.007674
0.007536
0.007400
0.007266
0.007132
0.007000
0.006869
0.006740
0.006613
0.006487
0.006363
0.006240
0.006118
0.005998
0.005879
0.005761
0.005643
0.005526
0.005409
0.005293
0.005177
0.005062
0.004948
0.004831
0.004715
0.004600
0.004485
0.004370
0.004253
0.004137
0.004023
0.003918
0.003816
0.003708
0.003616
0.003522
0.003427
0.003332
0.003242
0.003154
0.003072
0.002995
0.002897
0.002832
0.002764
0.002710
0.002628
0.002570
0.002523
0.002479
0.002421
0.002387
0.002356
0.002330
0.002316
0.002311
0.002309
0.002314
0.002323
0.002338
0.002365
0.002396
0.002438
0.002494
0.002561
0.002646
0.002753
0.002922
0.003070
0.003208
0.003327
0.003293
0.003247
0.003271
0.003299
0.003335
0.003363
0.003372
0.003345
0.003379
0.003329
0.003253
0.003145
0.002924
0.002672
0.002419
0.067933
0.066969
0.064800
0.001075
0.000739
0.098930
0.000878
0.099277
0.070249
0.033594
0.095991
0.001054
0.032102
0.072228
0.011029
0.021926
0.085771
0.001184
0.002015
0.065720
0.003675
0.074883
0.078296
0.014816
0.070766
0.052284
0.078241
0.062328
0.098573
0.071432
0.003284
0.067970
0.066086
0.071356
0.069289
0.001061
0.074326
0.006817
0.072211
0.000782
0.067482
0.065435
0.064376
0.074013
0.005191
0.074710
0.004155
0.072937
0.070373
0.081068
0.001390
0.074868
0.005597
0.046788
0.001136
0.080280
0.091000
0.041292
0.099204
0.098859
0.015173
0.020277
0.001014
0.000981
0.066854
0.071101
0.028292
0.084745
0.098291
0.000841
0.099027
0.000799
0.042460
0.000817
0.064789
0.019575
0.001218
0.097808
0.012781
0.004076
0.009393
0.004698
0.005028
0.067509
0.067954
0.067594
0.067401
0.066576
0.065108
0.068785
0.073011
0.071913
0.071140
0.070995
0.070848
0.070101
0.079799
0.077297
0.076514
0.076027
0.073246
0.002506
0.073746
0.076335
0.062210
0.064479
0.001892
0.067152
0.001806
0.066893
0.041168
0.001961
0.030176
0.068751
0.015487
0.069215
0.002027
0.090944
0.003683
0.041270
0.074404
0.020522
0.002509
0.065177
0.073158
0.002100
0.071109
0.071303
0.063556
0.072990
0.011232
0.086169
0.074016
0.074890
0.001328
0.068319
0.064632
0.001135
0.075621
0.072711
0.008066
0.083394
0.001012
0.050246
0.071486
0.088810
0.002224
0.093770
0.037189
0.025289
0.098295
0.099555
0.000883
0.099263
0.001838
0.098736
0.068927
0.000739
0.051695
0.000695
0.098827
0.066312
0.072544
0.000908
0.025332
0.098470
0.065324
0.001484
0.017167
0.006061
0.002835
0.008262
0.064676
0.064770
0.066899
0.066933
0.066082
0.065183
0.066088
0.063908
0.067717
0.067830
0.069639
0.071380
0.070224
0.071614
0.073958
0.075112
0.071982
0.073719
0.074277
0.074529
0.077949
0.073306
0.079183
0.072326
0.074265
0.072632
0.011693
0.002869
0.093605
0.090797
0.012336
0.083076
0.062537
0.073170
0.068805
0.069580
0.002210
0.063685
0.023713
0.089491
0.087646
0.003491
0.005213
0.002097
0.061939
0.070010
0.002078
0.071310
0.061767
0.071133
0.034163
0.065643
0.063169
0.070189
0.067985
0.002056
0.072315
0.078772
0.075494
0.068385
0.001932
0.052515
0.086960
0.001750
0.091361
0.026789
0.020157
0.001674
0.092721
0.027053
0.071516
0.001836
0.001849
0.002005
0.072998
0.001964
0.005456
0.065085
0.066084
0.070444
0.090469
0.091338
0.002903
0.045632
0.033458
0.018125
0.072197
0.015563
0.013334
0.001959
0.009490
0.007101
0.061375
0.062118
0.062706
0.064635
0.065149
0.002060
0.063304
0.056480
0.063105
0.065199
0.073320
0.066428
0.070900
0.075625
0.068029
0.067659
0.066854
0.061488
0.073848
0.070069
0.070914
0.071629
0.071603
0.067952
0.072490
0.008780
0.001995
0.074056
0.070910
0.070945
0.067129
0.074983
0.059782
0.062014
0.064118
0.003121
0.084768
0.033854
0.002986
0.026143
0.065720
0.002752
0.004742
0.081598
0.004958
0.045961
0.002661
0.071563
0.016802
0.059916
0.063637
0.067969
0.003055
0.066032
0.003801
0.068195
0.047836
0.080732
0.085212
0.001770
0.089401
0.067344
0.062834
0.022292
0.092228
0.002935
0.063017
0.054111
0.070961
0.015025
0.088480
0.032906
0.061831
0.069849
0.004302
0.070345
0.014134
0.011822
0.007323
0.008329
0.091666
0.064019
0.002860
0.002965
0.062160
0.003506
0.061711
0.062945
0.084102
0.064863
0.067564
0.065931
0.062099
0.008348
0.069310
0.064512
0.070338
0.070199
0.059506
0.001916
0.064651
0.064685
0.068675
0.037745
0.076031
0.058829
0.074076
0.068751
0.065807
0.073654
0.069795
0.070123
0.070911
0.010162
0.007003
0.065685
0.069983
0.091888
0.069118
0.070236
0.071577
0.070636
0.075259
0.005524
0.004294
0.077934
0.004068
0.084231
0.062595
0.080273
0.014859
0.024457
0.074250
0.063294
0.002643
0.068619
0.070322
0.060702
0.068977
0.069331
0.086345
0.061437
0.004107
0.015396
0.005311
0.066377
0.072566
0.042134
0.009539
0.002792
0.003199
0.010202
0.059362
0.060334
0.002793
0.003565
0.028432
0.063585
0.070068
0.063421
0.063036
0.077711
0.079892
0.066842
0.064501
0.071935
0.075914
0.006614
0.004236
0.061982
0.083136
0.040603
0.060820
0.060018
0.006233
0.037452
0.068969
0.080211
0.065488
0.012905
0.049815
0.003466
0.003028
0.029546
0.084160
0.019500
0.010565
0.063428
0.065462
0.064910
0.018600
0.059651
0.002934
0.062390
0.059325
0.086778
0.002760
0.066171
0.065037
0.078329
0.064120
0.072528
0.068196
0.063875
0.064170
0.069539
0.065713
0.058808
0.065167
0.061414
0.002599
0.069485
0.065185
0.078244
0.069701
0.063116
0.066068
0.069293
0.057971
0.059668
0.062272
0.040007
0.074979
0.003542
0.069863
0.008485
0.039791
0.004827
0.058084
0.003198
0.075097
0.063178
0.004083
0.062238
0.067721
0.069374
0.060533
0.052966
0.002561
0.017834
0.018234
0.003856
0.004273
0.059213
0.069182
0.003305
0.071229
0.062139
0.068532
0.067209
0.084435
0.063936
0.063589
0.027860
0.006176
0.021451
0.076670
0.006797
0.008607
0.083292
0.004432
0.014374
0.002832
0.068261
0.071135
0.085956
0.077738
0.048800
0.011851
0.023436
0.005281
0.004675
0.063773
0.027807
0.061080
0.068429
0.035959
0.071667
0.069623
0.057685
0.059827
0.064881
0.060378
0.062427
0.057420
0.062289
0.068958
0.069985
0.012550
0.004476
0.062874
0.073417
0.063080
0.066269
0.061032
0.060417
0.064181
0.003043
0.002383
0.073793
0.073413
0.070050
0.065405
0.061434
0.069326
0.006988
0.063696
0.079012
0.068397
0.059733
0.055043
0.066124
0.061966
0.068880
0.068790
0.061938
0.057661
0.006094
0.071806
0.004925
0.078046
0.017525
0.007043
0.038958
0.026777
0.009012
0.003049
0.066146
0.055940
0.005502
0.047517
0.051968
0.058351
0.003717
0.069271
0.080604
0.007470
0.058898
0.061727
0.003805
0.066779
0.064529
0.058278
0.058316
0.062006
0.076804
0.057483
0.060226
0.069412
0.058950
0.062233
0.032056
0.060207
0.022036
0.063403
0.020008
0.044646
0.007729
0.071763
0.073278
0.005035
0.002134
0.002530
0.004161
0.069905
0.003577
0.067857
0.004131
0.072016
0.010839
0.010063
0.033271
0.012161
0.003605
0.017035
0.005864
0.066333
0.068512
0.067863
0.067780
0.080372
0.061617
0.063514
0.057435
0.068618
0.004723
0.060255
0.056987
0.003233
0.068100
0.060529
0.054303
0.067945
0.067523
0.061382
0.058758
0.062089
0.062280
0.059492
0.002661
0.062621
0.056683
0.068865
0.005875
0.077246
0.067858
0.063558
0.003505
0.067444
0.058365
0.068198
0.070052
0.007557
0.004312
0.010440
0.003915
0.003670
0.034327
0.002979
0.002072
0.055428
0.019014
0.065404
0.066974
0.005266
0.060105
0.043052
0.054512
0.067482
0.006541
0.004251
0.073411
0.005269
0.013314
0.005734
0.007213
0.059427
0.064495
0.066934
0.055974
0.059529
0.010051
0.066587
0.066612
0.067070
0.066454
0.067216
0.022348
0.079438
0.002534
0.065223
0.056345
0.070785
0.067401
0.048110
0.023556
0.059268
0.059246
0.059970
0.057335
0.006299
0.061101
0.003614
0.008479
0.004033
0.069747
0.014431
0.040960
0.061707
0.058661
0.008318
0.005942
0.002143
0.035195
0.061538
0.005801
0.060194
0.062923
0.065510
0.066745
0.055360
0.079980
0.057184
0.056286
0.057395
0.059844
0.058998
0.009029
0.058143
0.059785
0.061077
0.060000
0.067146
0.067731
0.057340
0.062766
0.067692
0.001235
0.068968
0.077603
0.067101
0.005178
0.067382
0.030650
0.056897
0.004658
0.068907
0.054911
0.008153
0.009272
0.065667
0.072781
0.057137
0.014901
0.029625
0.004618
0.053896
0.035664
0.042140
0.002068
0.064193
0.003461
0.002863
0.057906
0.065190
0.056082
0.002445
0.007160
0.066247
0.066120
0.011718
0.076259
0.074291
0.062564
0.005333
0.057924
0.056384
0.055931
0.050816
0.055372
0.029324
0.002197
0.058259
0.003630
0.060336
0.005362
0.066733
0.012212
0.007680
0.066249
0.066568
0.009892
0.059189
0.016306
0.067569
0.057417
0.003834
0.004702
0.066111
0.004434
0.059542
0.004836
0.005366
0.006818
0.066705
0.047538
0.012277
0.038456
0.062261
0.010719
0.065451
0.063147
0.026000
0.059754
0.055280
0.059871
0.057637
0.057733
0.055666
0.054766
0.055831
0.059290
0.033802
0.059171
0.072619
0.056736
0.068358
0.006186
0.055469
0.066652
0.066483
0.022303
0.004409
0.046567
0.058869
0.067590
0.057549
0.008778
0.061400
0.067367
0.012935
0.028842
0.005044
0.004878
0.037104
0.003982
0.056212
0.002264
0.045193
0.053232
0.063828
0.061471
0.006390
0.065197
0.021469
0.065222
0.054609
0.055493
0.008844
0.064339
0.006313
0.066157
0.030412
0.005585
0.053841
0.056115
0.006850
0.002397
0.072729
0.017118
0.070950
0.057004
0.057535
0.055422
0.055197
0.069528
0.007879
0.006623
0.012117
0.065179
0.004739
0.004158
0.007561
0.054836
0.008475
0.014696
0.075489
0.064304
0.002483
0.053491
0.064443
0.056711
0.011449
0.041110
0.065691
0.064151
0.003857
0.060462
0.056982
0.059642
0.053360
0.005866
0.065822
0.055222
0.056358
0.065873
0.054333
0.065666
0.056747
0.056358
0.055966
0.056561
0.005530
0.056840
0.050262
0.024883
0.065821
0.010490
0.065553
0.053860
0.072832
0.053622
0.001698
0.056206
0.056240
0.066224
0.063702
0.032514
0.004568
0.003351
0.065920
0.003934
0.054424
0.051842
0.009529
0.031264
0.062004
0.027692
0.006958
0.066293
0.035807
0.054136
0.005438
0.004067
0.002104
0.063807
0.004475
0.050260
0.062137
0.003809
0.003255
0.061550
0.065311
0.062188
0.010568
0.054160
0.068021
0.002824
0.011860
0.048892
0.007453
0.007089
0.064698
0.008432
0.053618
0.053199
0.054914
0.053637
0.063872
0.023702
0.018394
0.009161
0.062061
0.004844
0.040827
0.005904
0.014939
0.060566
0.054289
0.054923
0.054445
0.047579
0.006715
0.009797
0.074812
0.006429
0.009130
0.002817
0.013405
0.035888
0.005201
0.014300
0.067726
0.064118
0.065079
0.059610
0.057782
0.003625
0.053136
0.064926
0.065421
0.065253
0.064497
0.053751
0.003039
0.055141
0.009060
0.053721
0.053777
0.025439
0.056905
0.005292
0.052479
0.055237
0.053301
0.065289
0.006654
0.051910
0.067391
0.053852
0.002866
0.020035
0.002208
0.004460
0.065726
0.000798
0.005172
0.077349
0.063090
0.065050
0.062843
0.055475
0.031423
0.002163
0.057399
0.054683
0.068331
0.064945
0.065370
0.001843
0.053541
0.011489
0.010522
0.056271
0.031513
0.026600
0.063241
0.013073
0.007465
0.005996
0.006262
0.052460
0.034016
0.014373
0.051995
0.002202
0.060497
0.062293
0.051690
0.003119
0.017232
0.052781
0.008272
0.009213
0.006186
0.002360
0.003753
0.007566
0.068975
0.011036
0.010506
0.005610
0.055956
0.053866
0.007939
0.062463
0.002567
0.062008
0.041045
0.062710
0.060087
0.010683
0.053210
0.026925
0.063571
0.062180
0.054813
0.052814
0.045467
0.008126
0.006537
0.020868
0.014096
0.002503
0.047054
0.061875
0.064014
0.055975
0.052433
0.064794
0.052897
0.053540
0.052851
0.058770
0.063136
0.008103
0.051578
0.052307
0.002254
0.064190
0.053262
0.053402
0.051445
0.064725
0.064009
0.054053
0.051342
0.051191
0.039749
0.004732
0.009108
0.009398
0.064781
0.063693
0.064066
0.065089
0.004266
0.025290
0.053977
0.030363
0.061330
0.019402
0.064501
0.003042
0.064577
0.003723
0.059806
0.061973
0.064342
0.005031
0.017111
0.004989
0.002703
0.049784
0.054170
0.012215
0.009195
0.052101
0.059822
0.059272
0.029426
0.007093
0.004787
0.005606
0.048947
0.004997
0.057908
0.047509
0.027848
0.004123
0.052192
0.055268
0.016573
0.003419
0.051239
0.013003
0.008192
0.060873
0.014172
0.002312
0.019805
0.011389
0.011203
0.015583
0.041090
0.063318
0.006238
0.061555
0.050772
0.049739
0.008428
0.060628
0.008154
0.036134
0.060691
0.007327
0.011909
0.007864
0.002231
0.010162
0.007126
0.015337
0.050918
0.056853
0.051140
0.051762
0.023836
0.061957
0.002784
0.064966
0.061689
0.063084
0.058410
0.005877
0.062248
0.061238
0.010412
0.023014
0.050991
0.051382
0.051809
0.051223
0.007784
0.051900
0.064413
0.052530
0.064102
0.064193
0.010888
0.052718
0.049981
0.048266
0.049488
0.063848
0.064197
0.004774
0.039148
0.003680
0.033442
0.050349
0.044776
0.051171
0.021919
0.063681
0.050903
0.004548
0.063088
0.060445
0.062419
0.073388
0.067276
0.006144
0.063402
0.050811
0.002597
0.063475
0.064141
0.003427
0.063669
0.057811
0.013457
0.058311
0.031663
0.047722
0.014385
0.056254
0.060738
0.006762
0.007992
0.008323
0.032195
0.002723
0.023916
0.062537
0.009840
0.045535
0.002231
0.002538
0.055050
0.049549
0.005163
0.003392
0.059022
0.003146
0.059285
0.059469
0.003717
0.006838
0.049824
0.050506
0.002340
0.055397
0.060646
0.021358
0.005505
0.005716
0.036341
0.012616
0.008577
0.045484
0.060872
0.006304
0.047933
0.052033
0.017353
0.009157
0.063417
0.048377
0.056793
0.012773
0.007255
0.013234
0.062167
0.042650
0.008785
0.062028
0.068864
0.003068
0.060357
0.050539
0.009288
0.011636
0.009671
0.004318
0.017033
0.026481
0.019842
0.012400
0.061089
0.056217
0.005227
0.062499
0.063247
0.049508
0.050035
0.002388
0.050467
0.059565
0.063588
0.059884
0.063780
0.050683
0.063434
0.051065
0.015977
0.019320
0.002355
0.062706
0.006981
0.062782
0.051319
0.011453
0.004051
0.064746
0.064908
0.049114
0.062613
0.040516
0.048041
0.004590
0.062589
0.062879
0.009148
0.063329
0.051999
0.012052
0.053237
0.049141
0.056740
0.013703
0.014782
0.010536
0.031761
0.061886
0.051687
0.059469
0.062415
0.057960
0.008450
0.048028
0.006475
0.059722
0.006909
0.006113
0.045767
0.049083
0.059226
0.020494
0.002802
0.004411
0.047708
0.041034
0.002689
0.002355
0.047684
0.003254
0.014075
0.003638
0.050151
0.018893
0.023363
0.049290
0.004111
0.003062
0.013812
0.060702
0.049367
0.059689
0.066901
0.063895
0.013069
0.007553
0.009246
0.015325
0.016447
0.027332
0.005496
0.010625
0.010791
0.029065
0.061888
0.061749
0.012961
0.049026
0.005393
0.062832
0.048537
0.060493
0.006802
0.044912
0.060363
0.055302
0.061296
0.062977
0.048821
0.017908
0.062279
0.049191
0.058428
0.010220
0.003965
0.047069
0.061162
0.005100
0.004918
0.044465
0.062807
0.062919
0.059553
0.038086
0.005724
0.002267
0.009478
0.048542
0.011643
0.061686
0.002521
0.002339
0.054419
0.005121
0.009604
0.071706
0.062207
0.062273
0.059623
0.042377
0.004044
0.062369
0.019384
0.048217
0.057370
0.002382
0.007676
0.018029
0.016106
0.047190
0.015415
0.054967
0.011827
0.017985
0.044512
0.018173
0.041499
0.009761
0.052986
0.056763
0.061256
0.011910
0.008501
0.031272
0.007770
0.063937
0.059939
0.013351
0.063955
0.002794
0.006027
0.007359
0.005485
0.047124
0.003026
0.005215
0.019448
0.052656
0.002723
0.003986
0.051752
0.002424
0.005805
0.044621
0.002382
0.004168
0.060379
0.047138
0.007566
0.014841
0.056417
0.048033
0.061308
0.055103
0.051360
0.009394
0.058773
0.013197
0.023665
0.061069
0.067081
0.060185
0.003029
0.047352
0.003652
0.013934
0.010342
0.006223
0.056907
0.058544
0.015197
0.026109
0.059350
0.006712
0.046606
0.020347
0.006304
0.016295
0.047864
0.047169
0.062442
0.055863
0.021689
0.061376
0.046200
0.045322
0.052469
0.061692
0.048600
0.061952
0.058809
0.002348
0.059737
0.003548
0.061768
0.005587
0.049455
0.048038
0.042040
0.070918
0.048403
0.061118
0.058369
0.009962
0.002423
0.037854
0.014559
0.049115
0.004896
0.028695
0.010686
0.020907
0.004349
0.051446
0.062276
0.061616
0.059037
0.059909
0.004742
0.005662
0.060879
0.005149
0.046502
0.002032
0.042677
0.034331
0.011114
0.052125
0.005440
0.076097
0.045923
0.015270
0.037163
0.044671
0.012081
0.054274
0.008465
0.055375
0.007625
0.058624
0.006613
0.052761
0.042781
0.012741
0.006031
0.058457
0.016283
0.060605
0.062734
0.024822
0.002312
0.033981
0.057768
0.005759
0.011641
0.050791
0.049629
0.015876
0.004635
0.045734
0.043937
0.003538
0.061159
0.008320
0.005525
0.002644
0.060598
0.002662
0.003850
0.010729
0.010164
0.002098
0.003282
0.045701
0.045446
0.059501
0.004371
0.021671
0.021891
0.017003
0.017405
0.059524
0.055351
0.039808
0.060952
0.058071
0.015065
0.002328
0.047716
0.057672
0.018787
0.053586
0.005789
0.022966
0.003075
0.006927
0.034358
0.006312
0.014705
0.003754
0.003509
0.029613
0.058611