# vtk DataFile Version 2.0
Test
ASCII
DATASET POLYDATA
POINTS 7341 float
0.000000 0.000000 0.000000
1.000000 0.000000 0.000000
1.000000 1.000000 0.000000
0.000000 1.000000 0.000000
0.000000 0.500000 0.000000
0.500000 0.500000 0.000000
1.000000 0.500000 0.000000
0.499000 0.499000 0.000000
0.900000 0.010000 0.000000
0.029412 0.000000 0.000000
0.058824 0.000000 0.000000
0.088235 0.000000 0.000000
0.117647 0.000000 0.000000
0.147059 0.000000 0.000000
0.176471 0.000000 0.000000
0.205882 0.000000 0.000000
0.235294 0.000000 0.000000
0.264706 0.000000 0.000000
0.294118 0.000000 0.000000
0.323529 0.000000 0.000000
0.352941 0.000000 0.000000
0.382353 0.000000 0.000000
0.411765 0.000000 0.000000
0.441176 0.000000 0.000000
0.470588 0.000000 0.000000
0.500000 0.000000 0.000000
0.529412 0.000000 0.000000
0.558824 0.000000 0.000000
0.588235 0.000000 0.000000
0.617647 0.000000 0.000000
0.647059 0.000000 0.000000
0.676471 0.000000 0.000000
0.705882 0.000000 0.000000
0.735294 0.000000 0.000000
0.764706 0.000000 0.000000
0.794118 0.000000 0.000000
0.823529 0.000000 0.000000
0.852941 0.000000 0.000000
0.882353 0.000000 0.000000
0.911765 0.000000 0.000000
0.941176 0.000000 0.000000
0.970588 0.000000 0.000000
1.000000 0.029412 0.000000
1.000000 0.058824 0.000000
1.000000 0.088235 0.000000
1.000000 0.117647 0.000000
1.000000 0.147059 0.000000
1.000000 0.176471 0.000000
1.000000 0.205882 0.000000
1.000000 0.235294 0.000000
1.000000 0.264706 0.000000
1.000000 0.294118 0.000000
1.000000 0.323529 0.000000
1.000000 0.352941 0.000000
1.000000 0.382353 0.000000
1.000000 0.411765 0.000000
1.000000 0.441176 0.000000
1.000000 0.470588 0.000000
1.000000 0.529412 0.000000
1.000000 0.558824 0.000000
1.000000 0.588235 0.000000
1.000000 0.617647 0.000000
1.000000 0.647059 0.000000
1.000000 0.676471 0.000000
1.000000 0.705882 0.000000
1.000000 0.735294 0.000000
1.000000 0.764706 0.000000
1.000000 0.794118 0.000000
1.000000 0.823529 0.000000
1.000000 0.852941 0.000000
1.000000 0.882353 0.000000
1.000000 0.911765 0.000000
1.000000 0.941176 0.000000
1.000000 0.970588 0.000000
0.970588 1.000000 0.000000
0.941176 1.000000 0.000000
0.911765 1.000000 0.000000
0.882353 1.000000 0.000000
0.852941 1.000000 0.000000
0.823529 1.000000 0.000000
0.794118 1.000000 0.000000
0.764706 1.000000 0.000000
0.735294 1.000000 0.000000
0.705882 1.000000 0.000000
0.676471 1.000000 0.000000
0.647059 1.000000 0.000000
0.617647 1.000000 0.000000
0.588235 1.000000 0.000000
0.558824 1.000000 0.000000
0.529412 1.000000 0.000000
0.500000 1.000000 0.000000
0.470588 1.000000 0.000000
0.441176 1.000000 0.000000
0.411765 1.000000 0.000000
0.382353 1.000000 0.000000
0.352941 1.000000 0.000000
0.323529 1.000000 0.000000
0.294118 1.000000 0.000000
0.264706 1.000000 0.000000
0.235294 1.000000 0.000000
0.205882 1.000000 0.000000
0.176471 1.000000 0.000000
0.147059 1.000000 0.000000
0.117647 1.000000 0.000000
0.088235 1.000000 0.000000
0.058824 1.000000 0.000000
0.029412 1.000000 0.000000
0.000000 0.970588 0.000000
0.000000 0.941176 0.000000
0.000000 0.911765 0.000000
0.000000 0.882353 0.000000
0.000000 0.852941 0.000000
0.000000 0.823529 0.000000
0.000000 0.794118 0.000000
0.000000 0.764706 0.000000
0.000000 0.735294 0.000000
0.000000 0.705882 0.000000
0.000000 0.676471 0.000000
0.000000 0.647059 0.000000
0.000000 0.617647 0.000000
0.000000 0.588235 0.000000
0.000000 0.558824 0.000000
0.000000 0.529412 0.000000
0.007246 0.500000 0.000000
0.014493 0.500000 0.000000
0.021739 0.500000 0.000000
0.028986 0.500000 0.000000
0.036232 0.500000 0.000000
0.043478 0.500000 0.000000
0.050725 0.500000 0.000000
0.057971 0.500000 0.000000
0.065217 0.500000 0.000000
0.072464 0.500000 0.000000
0.079710 0.500000 0.000000
0.086957 0.500000 0.000000
0.094203 0.500000 0.000000
0.101449 0.500000 0.000000
0.108696 0.500000 0.000000
0.115942 0.500000 0.000000
0.123188 0.500000 0.000000
0.130435 0.500000 0.000000
0.137681 0.500000 0.000000
0.144928 0.500000 0.000000
0.152174 0.500000 0.000000
0.159420 0.500000 0.000000
0.166667 0.500000 0.000000
0.173913 0.500000 0.000000
0.181159 0.500000 0.000000
0.188406 0.500000 0.000000
0.195652 0.500000 0.000000
0.202899 0.500000 0.000000
0.210145 0.500000 0.000000
0.217391 0.500000 0.000000
0.224638 0.500000 0.000000
0.231884 0.500000 0.000000
0.239130 0.500000 0.000000
0.246377 0.500000 0.000000
0.253623 0.500000 0.000000
0.260870 0.500000 0.000000
0.268116 0.500000 0.000000
0.275362 0.500000 0.000000
0.282609 0.500000 0.000000
0.289855 0.500000 0.000000
0.297101 0.500000 0.000000
0.304348 0.500000 0.000000
0.311594 0.500000 0.000000
0.318841 0.500000 0.000000
0.326087 0.500000 0.000000
0.333333 0.500000 0.000000
0.340580 0.500000 0.000000
0.347826 0.500000 0.000000
0.355072 0.500000 0.000000
0.362319 0.500000 0.000000
0.369565 0.500000 0.000000
0.376812 0.500000 0.000000
0.384058 0.500000 0.000000
0.391304 0.500000 0.000000
0.398551 0.500000 0.000000
0.405797 0.500000 0.000000
0.413043 0.500000 0.000000
0.420290 0.500000 0.000000
0.427536 0.500000 0.000000
0.434783 0.500000 0.000000
0.442029 0.500000 0.000000
0.449275 0.500000 0.000000
0.456522 0.500000 0.000000
0.463768 0.500000 0.000000
0.471014 0.500000 0.000000
0.478261 0.500000 0.000000
0.485507 0.500000 0.000000
0.492754 0.500000 0.000000
0.510004 0.500000 0.000000
0.520408 0.500000 0.000000
0.531229 0.500000 0.000000
0.542483 0.500000 0.000000
0.554187 0.500000 0.000000
0.566359 0.500000 0.000000
0.579019 0.500000 0.000000
0.592185 0.500000 0.000000
0.605877 0.500000 0.000000
0.620118 0.500000 0.000000
0.634929 0.500000 0.000000
0.650332 0.500000 0.000000
0.666352 0.500000 0.000000
0.683013 0.500000 0.000000
0.700340 0.500000 0.000000
0.718361 0.500000 0.000000
0.737103 0.500000 0.000000
0.756595 0.500000 0.000000
0.776867 0.500000 0.000000
0.797950 0.500000 0.000000
0.819877 0.500000 0.000000
0.842681 0.500000 0.000000
0.866398 0.500000 0.000000
0.891064 0.500000 0.000000
0.916716 0.500000 0.000000
0.943396 0.500000 0.000000
0.971143 0.500000 0.000000
0.000000 0.470588 0.000000
0.000000 0.441176 0.000000
0.000000 0.411765 0.000000
0.000000 0.382353 0.000000
0.000000 0.352941 0.000000
0.000000 0.323529 0.000000
0.000000 0.294118 0.000000
0.000000 0.264706 0.000000
0.000000 0.235294 0.000000
0.000000 0.205882 0.000000
0.000000 0.176471 0.000000
0.000000 0.147059 0.000000
0.000000 0.117647 0.000000
0.000000 0.088235 0.000000
0.000000 0.058824 0.000000
0.000000 0.029412 0.000000
0.500341 0.497365 0.000000
0.501682 0.495729 0.000000
0.503023 0.494094 0.000000
0.504365 0.492458 0.000000
0.505706 0.490823 0.000000
0.507047 0.489187 0.000000
0.508388 0.487552 0.000000
0.509729 0.485916 0.000000
0.511070 0.484281 0.000000
0.512411 0.482645 0.000000
0.513753 0.481010 0.000000
0.515094 0.479375 0.000000
0.516435 0.477739 0.000000
0.517776 0.476104 0.000000
0.519117 0.474468 0.000000
0.520458 0.472833 0.000000
0.521799 0.471197 0.000000
0.523140 0.469562 0.000000
0.524482 0.467926 0.000000
0.525823 0.466291 0.000000
0.527164 0.464656 0.000000
0.528505 0.463020 0.000000
0.529846 0.461385 0.000000
0.531187 0.459749 0.000000
0.532528 0.458114 0.000000
0.533870 0.456478 0.000000
0.535211 0.454843 0.000000
0.536552 0.453207 0.000000
0.537893 0.451572 0.000000
0.539234 0.449936 0.000000
0.540575 0.448301 0.000000
0.541916 0.446666 0.000000
0.543258 0.445030 0.000000
0.544599 0.443395 0.000000
0.545940 0.441759 0.000000
0.547281 0.440124 0.000000
0.548622 0.438488 0.000000
0.549963 0.436853 0.000000
0.551304 0.435217 0.000000
0.552645 0.433582 0.000000
0.553987 0.431946 0.000000
0.555328 0.430311 0.000000
0.556669 0.428676 0.000000
0.558010 0.427040 0.000000
0.559351 0.425405 0.000000
0.560692 0.423769 0.000000
0.562033 0.422134 0.000000
0.563375 0.420498 0.000000
0.564716 0.418863 0.000000
0.566057 0.417227 0.000000
0.567398 0.415592 0.000000
0.568739 0.413957 0.000000
0.570080 0.412321 0.000000
0.571421 0.410686 0.000000
0.572763 0.409050 0.000000
0.574104 0.407415 0.000000
0.575445 0.405779 0.000000
0.576786 0.404144 0.000000
0.578127 0.402508 0.000000
0.579468 0.400873 0.000000
0.580809 0.399237 0.000000
0.582151 0.397602 0.000000
0.583492 0.395967 0.000000
0.584833 0.394331 0.000000
0.586174 0.392696 0.000000
0.587515 0.391060 0.000000
0.588856 0.389425 0.000000
0.590197 0.387789 0.000000
0.591538 0.386154 0.000000
0.592880 0.384518 0.000000
0.594221 0.382883 0.000000
0.595562 0.381247 0.000000
0.596903 0.379612 0.000000
0.598244 0.377977 0.000000
0.599585 0.376341 0.000000
0.600926 0.374706 0.000000
0.602268 0.373070 0.000000
0.603609 0.371435 0.000000
0.604950 0.369799 0.000000
0.606291 0.368164 0.000000
0.607632 0.366528 0.000000
0.608973 0.364893 0.000000
0.610314 0.363258 0.000000
0.611656 0.361622 0.000000
0.612997 0.359987 0.000000
0.614338 0.358351 0.000000
0.615679 0.356716 0.000000
0.617020 0.355080 0.000000
0.618361 0.353445 0.000000
0.619702 0.351809 0.000000
0.621043 0.350174 0.000000
0.622385 0.348538 0.000000
0.623726 0.346903 0.000000
0.625067 0.345268 0.000000
0.626408 0.343632 0.000000
0.627749 0.341997 0.000000
0.629090 0.340361 0.000000
0.630431 0.338726 0.000000
0.631773 0.337090 0.000000
0.633114 0.335455 0.000000
0.634455 0.333819 0.000000
0.635796 0.332184 0.000000
0.637137 0.330548 0.000000
0.638478 0.328913 0.000000
0.639819 0.327278 0.000000
0.641161 0.325642 0.000000
0.642502 0.324007 0.000000
0.643843 0.322371 0.000000
0.645184 0.320736 0.000000
0.646525 0.319100 0.000000
0.647866 0.317465 0.000000
0.649207 0.315829 0.000000
0.650548 0.314194 0.000000
0.651890 0.312559 0.000000
0.653231 0.310923 0.000000
0.654572 0.309288 0.000000
0.655913 0.307652 0.000000
0.657254 0.306017 0.000000
0.658595 0.304381 0.000000
0.659936 0.302746 0.000000
0.661278 0.301110 0.000000
0.662619 0.299475 0.000000
0.663960 0.297839 0.000000
0.665301 0.296204 0.000000
0.666642 0.294569 0.000000
0.667983 0.292933 0.000000
0.669324 0.291298 0.000000
0.670666 0.289662 0.000000
0.672007 0.288027 0.000000
0.673348 0.286391 0.000000
0.674689 0.284756 0.000000
0.676030 0.283120 0.000000
0.677371 0.281485 0.000000
[...]
POINT_DATA 7341
SCALARS UX float 1
LOOKUP_TABLE default
0.000000
0.000000
0.233000
0.233000
0.056074
0.089767
0.112951
0.086026
0.000658
-0.000000
0.000000
0.000000
0.000000
0.000000
0.000000
0.000000
0.000000
0.000000
0.000000
0.000000
0.000000
0.000000
0.000000
0.000000
0.000000
0.000000
0.000000
0.000000
0.000000
0.000000
0.000000
0.000000
0.000000
0.000000
0.000000
0.000000
0.000000
0.000000
0.000000
0.000000
0.000000
-0.000000
0.003338
0.002549
0.004779
0.007425
0.010815
0.015236
0.021089
0.027645
0.035912
0.044953
0.054280
0.063661
0.073175
0.082880
0.092781
0.102784
0.122010
0.130859
0.138668
0.146254
0.153640
0.160965
0.168302
0.175498
0.182506
0.189409
0.196078
0.202566
0.208888
0.215058
0.221136
0.227098
0.233000
0.233000
0.233000
0.233000
0.233000
0.233000
0.233000
0.233000
0.233000
0.233000
0.233000
0.233000
0.233000
0.233000
0.233000
0.233000
0.233000
0.233000
0.233000
0.233000
0.233000
0.233000
0.233000
0.233000
0.233000
0.233000
0.233000
0.233000
0.233000
0.233000
0.233000
0.233000
0.233000
0.227538
0.221922
0.216173
0.209828
0.203020
0.195125
0.185989
0.175551
0.163919
0.151229
0.137910
0.124678
0.111745
0.099617
0.088374
0.077562
0.056045
0.056012
0.056177
0.056144
0.056011
0.055883
0.056259
0.057974
0.057945
0.057940
0.057941
0.057911
0.057874
0.058067
0.057968
0.059040
0.058949
0.060481
0.060434
0.060433
0.060461
0.060496
0.060464
0.060475
0.060482
0.060890
0.060884
0.060931
0.060992
0.061065
0.061134
0.061202
0.061281
0.061361
0.061445
0.061551
0.061648
0.061721
0.062959
0.063061
0.063188
0.063297
0.064505
0.065538
0.065687
0.066625
0.067444
0.068178
0.068570
0.068753
0.072650
0.072826
0.073973
0.074175
0.076135
0.076338
0.077768
0.077971
0.078172
0.078359
0.080756
0.080924
0.081102
0.081301
0.084279
0.084465
0.087595
0.087815
0.089966
0.090131
0.090526
0.091170
0.091802
0.091890
0.092655
0.093108
0.093848
0.094661
0.095590
0.096743
0.097898
0.098942
0.100884
0.101712
0.102121
0.102458
0.102775
0.103079
0.103422
0.103876
0.104569
0.105676
0.107425
0.109649
0.111957
0.048564
0.043068
0.037921
0.033180
0.029264
0.025739
0.022588
0.019504
0.016996
0.014703
0.012679
0.010741
0.008974
0.007245
0.005337
0.004324
0.083909
0.081321
0.080128
0.078807
0.077671
0.076530
0.075452
0.074402
0.073354
0.072345
0.071373
0.070412
0.069490
0.068591
0.067701
0.066842
0.065985
0.065161
0.064342
0.063545
0.062765
0.061988
0.061233
0.060491
0.059758
0.059045
0.058340
0.057649
0.056978
0.056318
0.055670
0.055041
0.054426
0.053825
0.053233
0.052658
0.052096
0.051546
0.051009
0.050485
0.049974
0.049475
0.048987
0.048514
0.048051
0.047601
0.047163
0.046735
0.046320
0.045913
0.045519
0.045133
0.044760
0.044398
0.044044
0.043702
0.043369
0.043046
0.042734
0.042431
0.042139
0.041856
0.041588
0.041329
0.041084
0.040850
0.040630
0.040422
0.040227
0.040043
0.039876
0.039719
0.039578
0.039449
0.039336
0.039230
0.039137
0.039031
0.038912
0.038762
0.038566
0.038319
0.038028
0.037710
0.037381
0.037041
0.036702
0.036363
0.036022
0.035679
0.035339
0.035000
0.034663
0.034330
0.034000
0.033674
0.033349
0.033028
0.032710
0.032393
0.032081
0.031772
0.031464
0.031161
0.030860
0.030562
0.030269
0.029977
0.029689
0.029404
0.029123
0.028846
0.028573
0.028302
0.028036
0.027775
0.027517
0.027265
0.027018
0.026772
0.026534
0.026301
0.026071
0.025847
0.025627
0.025413
0.025203
0.024998
0.024799
0.024603
0.024414
0.024228
0.024049
0.023871
0.023700
0.023532
0.023371
0.023213
0.023061
0.022914
0.022772
0.022634
0.022503
0.022376
0.022254
0.022136
0.022021
0.021910
0.021800
0.021692
0.021584
0.021475
0.021361
0.021239
0.021111
0.020974
0.020819
0.020665
0.020495
0.020269
0.019980
0.019542
0.019216
0.018863
0.018506
0.018157
0.017877
0.017553
0.017242
0.016957
0.016676
0.016398
0.016145
0.015899
0.015635
0.015388
0.015192
0.014997
0.014781
0.014607
0.014431
0.014253
0.014160
0.014021
0.013856
0.013674
0.013457
0.013224
0.012999
0.012773
0.012546
0.012322
0.012102
0.011888
0.011677
0.011469
0.011261
0.011055
0.010849
0.010644
0.010443
0.010245
0.010047
0.009850
0.009653
0.009457
0.009262
0.009067
0.008887
0.008715
0.008546
0.008408
0.008252
0.008077
0.007900
0.007733
0.007564
0.007397
0.007237
0.007081
0.006933
0.006788
0.006644
0.006499
0.006355
0.006214
0.006072
0.005934
0.005798
0.005663
0.005529
0.005394
0.005262
0.005133
0.005002
0.004871
0.004737
0.004590
0.004467
0.004336
0.004199
0.004073
0.003948
0.003828
0.003708
0.003588
0.003470
0.003352
0.003236
0.003122
0.003012
0.002903
0.002796
0.002692
0.002590
0.002493
0.002400
0.002309
0.002218
0.002131
0.002050
0.001969
0.001892
0.001823
0.001755
0.001690
0.001629
0.001575
0.001523
0.001475
0.001427
0.001385
0.001348
0.001317
0.001290
0.001269
0.001252
0.001243
0.001240
0.001244
0.001254
0.001262
0.001254
0.001273
0.001288
0.001311
0.001310
0.001351
0.001310
0.001290
0.001250
0.001227
0.001201
0.001114
0.001025
0.000930
0.000835
0.000747
0.053095
0.055310
0.058822
0.000941
0.001118
0.097054
0.001189
0.096185
0.052867
0.043848
0.089962
0.001133
0.022057
0.053366
0.013723
0.014183
0.085628
0.001031
0.001145
0.062018
0.003849
0.053351
0.084377
0.008334
0.064881
0.036697
0.053303
0.072551
0.098646
0.067540
0.001718
0.053365
0.055872
0.052984
0.052902
0.000725
0.080761
0.002946
0.070586
0.001073
0.054077
0.056964
0.059134
0.053215
0.002015
0.079442
0.001451
0.072818
0.048232
0.053846
0.001025
0.081990
0.006250
0.032752
0.001065
0.083760
0.087635
0.028708
0.094894
0.096623
0.019810
0.026995
0.001170
0.001195
0.063087
0.066176
0.018994
0.091815
0.102731
0.001192
0.097322
0.001175
0.053481
0.000999
0.060401
0.012099
0.000943
0.102600
0.006661
0.002263
0.004451
0.002622
0.003154
0.054097
0.053100
0.052982
0.054140
0.055363
0.057100
0.052869
0.053437
0.053180
0.052881
0.052801
0.052736
0.052804
0.053683
0.053232
0.053075
0.052953
0.077728
0.001125
0.078717
0.082433
0.053644
0.050822
0.002271
0.062044
0.002396
0.050143
0.052117
0.002211
0.021103
0.050411
0.020408
0.068658
0.001858
0.091216
0.003851
0.029261
0.076974
0.013633
0.002198
0.050074
0.076585
0.001394
0.074161
0.074247
0.051343
0.050976
0.006262
0.092920
0.075804
0.082511
0.000849
0.050291
0.044635
0.000922
0.084117
0.071170
0.009524
0.085240
0.001026
0.035898
0.067069
0.086921
0.001643
0.089003
0.025714
0.033718
0.093953
0.095963
0.001142
0.096596
0.002384
0.096901
0.064338
0.001116
0.062599
0.001016
0.097618
0.062725
0.081567
0.000947
0.016720
0.100461
0.061204
0.001024
0.010187
0.003336
0.001362
0.004350
0.059742
0.058925
0.052821
0.052694
0.053261
0.055361
0.055099
0.056202
0.052644
0.052494
0.052396
0.052654
0.052220
0.052163
0.079359
0.082703
0.051893
0.052699
0.052197
0.081626
0.052857
0.050897
0.053050
0.075941
0.077235
0.076599
0.014765
0.003475
0.091973
0.088610
0.015661
0.079797
0.057652
0.077220
0.065962
0.050685
0.002161
0.059298
0.016023
0.091649
0.094014
0.002411
0.002929
0.001197
0.056173
0.048889
0.001741
0.050552
0.054367
0.074532
0.024067
0.049956
0.050523
0.050725
0.063771
0.002214
0.081257
0.078336
0.076947
0.049887
0.001923
0.063306
0.082076
0.002329
0.091077
0.035599
0.026969
0.002170
0.090489
0.018495
0.072961
0.002229
0.002325
0.002204
0.076264
0.001881
0.006017
0.060585
0.061287
0.072535
0.091285
0.091292
0.002256
0.032406
0.043653
0.011632
0.074600
0.009684
0.007978
0.002286
0.005678
0.003797
0.055016
0.052889
0.052240
0.050567
0.050335
0.001808
0.051635
0.040335
0.044579
0.050137
0.077497
0.050074
0.050021
0.051191
0.050137
0.050131
0.049771
0.053430
0.050878
0.050185
0.074478
0.075336
0.074144
0.049815
0.076083
0.010542
0.001572
0.079743
0.073592
0.071408
0.062615
0.083038
0.053510
0.048572
0.059298
0.003498
0.086094
0.044077
0.003339
0.018294
0.048230
0.002739
0.003744
0.085527
0.005376
0.033044
0.002470
0.071673
0.011237
0.051210
0.048115
0.048523
0.003617
0.048195
0.003571
0.066056
0.058660
0.078712
0.080957
0.002320
0.085024
0.063653
0.058128
0.015354
0.090379
0.003188
0.058476
0.039073
0.071765
0.019759
0.092467
0.023478
0.072043
0.071595
0.002575
0.072297
0.009191
0.007373
0.004575
0.005083
0.089586
0.059612
0.003462
0.003585
0.056848
0.003569
0.054911
0.051873
0.085949
0.049893
0.049865
0.049908
0.052252
0.009812
0.048066
0.050097
0.050098
0.072684
0.051830
0.001983
0.048180
0.047989
0.048416
0.026600
0.051081
0.041106
0.050586
0.049888
0.061598
0.075642
0.071866
0.073297
0.072707
0.012534
0.008069
0.048101
0.071560
0.091043
0.049748
0.072505
0.074884
0.070482
0.084290
0.004994
0.004742
0.080967
0.004323
0.084724
0.046245
0.076905
0.019500
0.017286
0.072160
0.046341
0.002394
0.067471
0.071536
0.049189
0.069906
0.070708
0.085906
0.056691
0.004608
0.010542
0.003865
0.048197
0.072240
0.030228
0.006384
0.003219
0.003667
0.012462
0.052626
0.049915
0.002724
0.003672
0.037554
0.047999
0.071971
0.048535
0.073053
0.085746
0.078840
0.048352
0.047637
0.073954
0.072843
0.007511
0.003648
0.057268
0.085734
0.051486
0.055785
0.054190
0.004070
0.026795
0.069750
0.085756
0.047676
0.008656
0.035895
0.003686
0.003216
0.020893
0.085287
0.013212
0.006864
0.058651
0.062586
0.060053
0.024933
0.050392
0.003430
0.048341
0.051138
0.086806
0.002815
0.047187
0.061508
0.051840
0.050922
0.071412
0.068535
0.047836
0.047863
0.071246
0.046357
0.042427
0.047863
0.043859
0.002454
0.070615
0.047632
0.074603
0.071386
0.047495
0.047576
0.070466
0.051755
0.046600
0.057636
0.050838
0.073983
0.003567
0.067284
0.009876
0.028720
0.005205
0.049350
0.003061
0.080178
0.046013
0.004284
0.046362
0.066641
0.070656
0.055599
0.038496
0.002228
0.023922
0.012564
0.004244
0.004723
0.054029
0.070025
0.003241
0.068464
0.045538
0.069206
0.066312
0.084711
0.046017
0.046367
0.019825
0.005258
0.014980
0.080615
0.005349
0.005946
0.083314
0.004882
0.010025
0.002962
0.068918
0.079851
0.085634
0.080392
0.035386
0.008151
0.031281
0.005009
0.004833
0.059445
0.036772
0.056211
0.068892
0.025957
0.080660
0.070353
0.051053
0.049991
0.047773
0.054967
0.044869
0.049556
0.045904
0.069978
0.071321
0.015872
0.004820
0.045962
0.078026
0.048296
0.047849
0.049016
0.049460
0.060499
0.003595
0.002310
0.072927
0.070936
0.071634
0.050096
0.048656
0.067869
0.007929
0.045433
0.086879
0.068875
0.054694
0.065672
0.063658
0.046487
0.069796
0.069524
0.045795
0.052258
0.006095
0.075888
0.005106
0.080843
0.023495
0.007918
0.028249
0.019184
0.007017
0.002859
0.063854
0.049458
0.005763
0.058315
0.037908
0.047115
0.003794
0.074880
0.081495
0.006490
0.046546
0.057238
0.003962
0.065971
0.061655
0.048033
0.052505
0.046058
0.079636
0.050447
0.043610
0.067560
0.053829
0.045736
0.023026
0.046252
0.029493
0.046089
0.014113
0.032297
0.005592
0.074763
0.079835
0.004976
0.001688
0.002433
0.004467
0.067637
0.003654
0.068196
0.004556
0.075535
0.007620
0.012068
0.043369
0.015157
0.003601
0.011924
0.006029
0.064478
0.069261
0.067955
0.067862
0.081848
0.056825
0.059514
0.048231
0.077960
0.004946
0.044468
0.048665
0.003127
0.068381
0.044290
0.064932
0.068127
0.067529
0.045852
0.053293
0.045938
0.045092
0.052396
0.002557
0.045719
0.041223
0.069752
0.006390
0.078077
0.067964
0.047907
0.003617
0.066787
0.053119
0.068577
0.068020
0.007289
0.004435
0.012474
0.003896
0.003742
0.044529
0.002745
0.001615
0.047507
0.013533
0.063056
0.066369
0.005503
0.043876
0.031259
0.065108
0.067475
0.006295
0.004315
0.076745
0.005415
0.009418
0.005922
0.006491
0.054423
0.062369
0.066535
0.047242
0.043293
0.007273
0.063649
0.064233
0.066640
0.065573
0.064285
0.029831
0.080980
0.002127
0.074279
0.050750
0.075492
0.074409
0.035031
0.016774
0.043406
0.044584
0.044302
0.044717
0.006193
0.044596
0.003521
0.006929
0.004046
0.071305
0.018828
0.051739
0.071714
0.046881
0.009555
0.006040
0.001384
0.025516
0.057236
0.006210
0.055375
0.059577
0.063910
0.066428
0.048420
0.081063
0.051616
0.050197
0.047697
0.044189
0.043496
0.006761
0.047409
0.043943
0.071207
0.043872
0.066813
0.068028
0.049893
0.045550
0.067706
0.000952
0.067426
0.080658
0.066914
0.005361
0.067163
0.022101
0.051440
0.004773
0.069944
0.049098
0.007590
0.007980
0.071067
0.077101
0.042070
0.019546
0.021429
0.004680
0.047218
0.045955
0.030656
0.001697
0.060956
0.003327
0.002574
0.042351
0.063069
0.045114
0.001296
0.007002
0.065405
0.065065
0.008654
0.076890
0.077002
0.069903
0.005471
0.042585
0.046277
0.044089
0.037127
0.047772
0.038582
0.001636
0.053137
0.001726
0.069391
0.005547
0.066104
0.015121
0.007330
0.065561
0.065773
0.008178
0.043198
0.011555
0.067500
0.052090
0.003789
0.004991
0.065401
0.004499
0.043674
0.004981
0.005608
0.006370
0.064070
0.058296
0.008847
0.027946
0.058362
0.008469
0.063893
0.060148
0.018722
0.054977
0.046147
0.044285
0.044246
0.042256
0.049904
0.046434
0.040762
0.043838
0.024561
0.043255
0.077001
0.050919
0.068772
0.006266
0.048169
0.066239
0.065882
0.015969
0.004497
0.033965
0.068957
0.072234
0.052351
0.008138
0.068118
0.072498
0.016218
0.020907
0.005165
0.005129
0.026994
0.003931
0.065360
0.001334
0.032972
0.045236
0.060652
0.057589
0.006398
0.063398
0.015437
0.063614
0.048216
0.049814
0.007872
0.060803
0.006419
0.065324
0.039855
0.005736
0.045148
0.041069
0.006769
0.002183
0.076820
0.022904
0.075221
0.042634
0.043093
0.043168
0.049275
0.072825
0.007438
0.006630
0.009680
0.063514
0.004822
0.004140
0.007269
0.040114
0.007741
0.010551
0.077269
0.070531
0.001993
0.063924
0.061113
0.041581
0.008693
0.051838
0.064704
0.061830
0.001580
0.056111
0.041866
0.054962
0.046369
0.006000
0.064609
0.045638
0.041280
0.064715
0.048383
0.064678
0.041649
0.044911
0.045449
0.041383
0.002236
0.041595
0.036758
0.017974
0.064789
0.012403
0.064531
0.064400
0.076246
0.046360
0.001147
0.041841
0.050736
0.065521
0.060741
0.023649
0.004614
0.003182
0.064840
0.004009
0.048570
0.045030
0.008651
0.040805
0.068699
0.020087
0.007089
0.070913
0.026070
0.039713
0.005589
0.004097
0.001727
0.061402
0.004488
0.060752
0.058108
0.003724
0.003048
0.057850
0.072360
0.058516
0.009267
0.043393
0.072388
0.001297
0.009763
0.035742
0.007443
0.007889
0.062784
0.007906
0.043719
0.047088
0.040201
0.042180
0.060162
0.017145
0.013200
0.008414
0.057878
0.001844
0.029714
0.006272
0.019584
0.067206
0.039745
0.040714
0.040136
0.058275
0.006674
0.008838
0.076927
0.006591
0.008379
0.002490
0.010272
0.046142
0.005332
0.010431
0.072827
0.061832
0.063678
0.055133
0.052689
0.001459
0.044076
0.063172
0.064229
0.064043
0.062871
0.047660
0.003008
0.042283
0.010456
0.039398
0.046156
0.033713
0.042615
0.005432
0.044160
0.040557
0.039012
0.063903
0.006612
0.044461
0.072766
0.039416
0.002806
0.026843
0.001556
0.004486
0.064566
0.000541
0.005286
0.080059
0.060040
0.063687
0.059832
0.049842
0.022859
0.001439
0.065629
0.048536
0.073170
0.063572
0.063927
0.001137
0.047530
0.010056
0.009329
0.064999
0.041071
0.019302
0.068570
0.016365
0.007660
0.006200
0.006697
0.038431
0.024780
0.011272
0.061579
0.001464
0.055931
0.068141
0.043026
0.002868
0.023073
0.046313
0.007803
0.010562
0.006382
0.001181
0.001456
0.007626
0.072038
0.009426
0.009321
0.005779
0.064206
0.062387
0.007654
0.069565
0.002113
0.058080
0.051700
0.059711
0.055872
0.009439
0.046963
0.035505
0.061426
0.057994
0.041328
0.041064
0.033183
0.007941
0.006735
0.015049
0.010498
0.002250
0.057712
0.068814
0.061750
0.050465
0.046183
0.063195
0.038733
0.039343
0.043393
0.053975
0.067320
0.009189
0.044446
0.038282
0.001476
0.062281
0.047183
0.043094
0.037714
0.063190
0.062121
0.039874
0.037565
0.043206
0.028944
0.004782
0.010621
0.008570
0.063056
0.061056
0.062199
0.061715
0.004245
0.033593
0.042864
0.022083
0.057646
0.025995
0.062873
0.002943
0.062659
0.003615
0.068492
0.058366
0.062380
0.005123
0.012381
0.005183
0.001270
0.042823
0.048279
0.010487
0.008709
0.061375
0.055564
0.064602
0.021406
0.007354
0.004890
0.005770
0.035861
0.005074
0.063955
0.057948
0.036634
0.004078
0.039116
0.064831
0.012136
0.001365
0.044839
0.010983
0.009186
0.056660
0.011393
0.001446
0.026655
0.013548
0.009834
0.011846
0.051728
0.060653
0.006478
0.057908
0.060168
0.036374
0.008377
0.064816
0.008308
0.046384
0.056113
0.007564
0.010360
0.007534
0.001790
0.009088
0.007848
0.020240
0.037733
0.051572
0.044629
0.045388
0.017275
0.065925
0.002437
0.068690
0.057442
0.060709
0.053634
0.006064
0.059078
0.057577
0.012192
0.030581
0.041985
0.041681
0.041394
0.040217
0.008681
0.037979
0.068273
0.046335
0.062090
0.062216
0.009594
0.040429
0.042417
0.035275
0.058840
0.061845
0.062329
0.004818
0.028526
0.003558
0.024410
0.042032
0.055432
0.037403
0.029245
0.061263
0.037238
0.001696
0.060677
0.055960
0.059217
0.074456
0.064442
0.006370
0.061190
0.037182
0.002318
0.061172
0.062027
0.003248
0.061602
0.052815
0.011462
0.053543
0.041243
0.057577
0.018645
0.060805
0.064075
0.007055
0.008343
0.009309
0.023480
0.002469
0.031648
0.058603
0.008884
0.055589
0.001546
0.002048
0.049346
0.040908
0.005258
0.003196
0.062695
0.001307
0.054424
0.064262
0.003599
0.007106
0.043214
0.039255
0.001375
0.063908
0.056487
0.015461
0.005653
0.005896
0.046613
0.010820
0.008834
0.033200
0.057099
0.006694
0.035063
0.061266
0.023266
0.008492
0.060915
0.035469
0.051549
0.010917
0.007937
0.010926
0.059253
0.053387
0.008876
0.058767
0.069921
0.002802
0.055737
0.044035
0.010596
0.013831
0.008944
0.001539
0.013083
0.019262
0.026692
0.010627
0.057355
0.050801
0.005336
0.059832
0.060905
0.042256
0.038363
0.001726
0.043752
0.054895
0.061244
0.055695
0.061640
0.041374
0.061069
0.041054
0.011919
0.014048
0.001939
0.059779
0.007596
0.060261
0.038566
0.013789
0.003990
0.061420
0.063330
0.041107
0.059943
0.051142
0.035105
0.004606
0.059957
0.060378
0.008840
0.060762
0.044284
0.010373
0.047161
0.042477
0.051499
0.011525
0.012340
0.009699
0.041342
0.058903
0.060478
0.055191
0.058732
0.061422
0.009442
0.037320
0.006882
0.055090
0.007234
0.006346
0.033435
0.035971
0.054308
0.027518
0.002459
0.004400
0.040623
0.051624
0.001259
0.001631
0.039962
0.003029
0.011814
0.003500
0.039697
0.013889
0.016999
0.037242
0.001390
0.002924
0.011720
0.056671
0.039741
0.055461
0.063983
0.066506
0.011165
0.008296
0.009464
0.012455
0.012943
0.035991
0.005691
0.012365
0.009762
0.021219
0.058929
0.058676
0.016117
0.038479
0.005520
0.060231
0.041805
0.063695
0.007086
0.032788
0.056297
0.049670
0.057735
0.060390
0.039885
0.013423
0.059228
0.042466
0.053728
0.011848
0.003888
0.034395
0.057532
0.005184
0.004978
0.054678
0.060080
0.060192
0.067474
0.048509
0.005907
0.001221
0.008671
0.040216
0.010109
0.058507
0.002024
0.001590
0.048582
0.005219
0.009411
0.070412
0.059372
0.059441
0.055069
0.030906
0.001453
0.059307
0.014006
0.057723
0.060582
0.001737
0.008035
0.024217
0.021498
0.040334
0.012861
0.049258
0.010619
0.014262
0.054205
0.024413
0.051235
0.010106
0.057062
0.059453
0.057952
0.014195
0.008970
0.022972
0.008559
0.060768
0.055840
0.011290
0.064741
0.002512
0.006247
0.007737
0.005622
0.038640
0.001279
0.005311
0.014758
0.046457
0.002340
0.003911
0.045425
0.001886
0.006032
0.032612
0.001338
0.001424
0.056536
0.039062
0.007940
0.012410
0.060038
0.057012
0.058058
0.058445
0.059331
0.010681
0.053923
0.016511
0.031319
0.057587
0.066646
0.055860
0.002752
0.039953
0.001222
0.011690
0.009763
0.006471
0.051733
0.053582
0.012522
0.019096
0.054779
0.007164
0.036546
0.015141
0.006558
0.021492
0.041047
0.036238
0.059542
0.063004
0.015921
0.058097
0.033756
0.033086
0.046257
0.058639
0.039336
0.058876
0.053784
0.001303
0.055395
0.003471
0.058745
0.005743
0.036400
0.057800
0.030682
0.068186
0.041510
0.057524
0.053675
0.010009
0.001885
0.047634
0.012237
0.039209
0.004976
0.037653
0.009589
0.015235
0.004326
0.045077
0.059212
0.058433
0.054564
0.055838
0.004775
0.005940
0.057273
0.005264
0.034011
0.001126
0.031112
0.044296
0.009797
0.041251
0.005569
0.073356
0.038675
0.012653
0.047127
0.053719
0.014383
0.057082
0.009441
0.049778
0.008057
0.054055
0.006923
0.057282
0.031555
0.010907
0.006252
0.053823
0.021122
0.056968
0.062107
0.032849
0.001350
0.025006
0.052777
0.005935
0.010661
0.044307
0.043019
0.013132
0.004652
0.037977
0.054056
0.001183
0.057675
0.008798
0.005665
0.002226
0.056974
0.001257
0.003755
0.010343
0.011684
0.001113
0.003058
0.034644
0.035250
0.061726
0.004379
0.028309
0.016509
0.013893
0.014059
0.055354
0.058834
0.049937
0.057561
0.053196
0.012600
0.001488
0.055955
0.052511
0.014569
0.047566
0.005972
0.017044
0.002906
0.007266
0.043704
0.006571
0.019249
0.001419
0.001340
0.038741
0.053778