# vtk DataFile Version 2.0
Test
ASCII
DATASET POLYDATA
POINTS 7341 float
0.000000 0.000000 0.000000
1.000000 0.000000 0.000000
1.000000 1.000000 0.000000
0.000000 1.000000 0.000000
0.000000 0.500000 0.000000
0.500000 0.500000 0.000000
1.000000 0.500000 0.000000
0.499000 0.499000 0.000000
0.900000 0.010000 0.000000
0.029412 0.000000 0.000000
0.058824 0.000000 0.000000
0.088235 0.000000 0.000000
0.117647 0.000000 0.000000
0.147059 0.000000 0.000000
0.176471 0.000000 0.000000
0.205882 0.000000 0.000000
0.235294 0.000000 0.000000
0.264706 0.000000 0.000000
0.294118 0.000000 0.000000
0.323529 0.000000 0.000000
0.352941 0.000000 0.000000
0.382353 0.000000 0.000000
0.411765 0.000000 0.000000
0.441176 0.000000 0.000000
0.470588 0.000000 0.000000
0.500000 0.000000 0.000000
0.529412 0.000000 0.000000
0.558824 0.000000 0.000000
0.588235 0.000000 0.000000
0.617647 0.000000 0.000000
0.647059 0.000000 0.000000
0.676471 0.000000 0.000000
0.705882 0.000000 0.000000
0.735294 0.000000 0.000000
0.764706 0.000000 0.000000
0.794118 0.000000 0.000000
0.823529 0.000000 0.000000
0.852941 0.000000 0.000000
0.882353 0.000000 0.000000
0.911765 0.000000 0.000000
0.941176 0.000000 0.000000
0.970588 0.000000 0.000000
1.000000 0.029412 0.000000
1.000000 0.058824 0.000000
1.000000 0.088235 0.000000
1.000000 0.117647 0.000000
1.000000 0.147059 0.000000
1.000000 0.176471 0.000000
1.000000 0.205882 0.000000
1.000000 0.235294 0.000000
1.000000 0.264706 0.000000
1.000000 0.294118 0.000000
1.000000 0.323529 0.000000
1.000000 0.352941 0.000000
1.000000 0.382353 0.000000
1.000000 0.411765 0.000000
1.000000 0.441176 0.000000
1.000000 0.470588 0.000000
1.000000 0.529412 0.000000
1.000000 0.558824 0.000000
1.000000 0.588235 0.000000
1.000000 0.617647 0.000000
1.000000 0.647059 0.000000
1.000000 0.676471 0.000000
1.000000 0.705882 0.000000
1.000000 0.735294 0.000000
1.000000 0.764706 0.000000
1.000000 0.794118 0.000000
1.000000 0.823529 0.000000
1.000000 0.852941 0.000000
1.000000 0.882353 0.000000
1.000000 0.911765 0.000000
1.000000 0.941176 0.000000
1.000000 0.970588 0.000000
0.970588 1.000000 0.000000
0.941176 1.000000 0.000000
0.911765 1.000000 0.000000
0.882353 1.000000 0.000000
0.852941 1.000000 0.000000
0.823529 1.000000 0.000000
0.794118 1.000000 0.000000
0.764706 1.000000 0.000000
0.735294 1.000000 0.000000
0.705882 1.000000 0.000000
0.676471 1.000000 0.000000
0.647059 1.000000 0.000000
0.617647 1.000000 0.000000
0.588235 1.000000 0.000000
0.558824 1.000000 0.000000
0.529412 1.000000 0.000000
0.500000 1.000000 0.000000
0.470588 1.000000 0.000000
0.441176 1.000000 0.000000
0.411765 1.000000 0.000000
0.382353 1.000000 0.000000
0.352941 1.000000 0.000000
0.323529 1.000000 0.000000
0.294118 1.000000 0.000000
0.264706 1.000000 0.000000
0.235294 1.000000 0.000000
0.205882 1.000000 0.000000
0.176471 1.000000 0.000000
0.147059 1.000000 0.000000
0.117647 1.000000 0.000000
0.088235 1.000000 0.000000
0.058824 1.000000 0.000000
0.029412 1.000000 0.000000
0.000000 0.970588 0.000000
0.000000 0.941176 0.000000
0.000000 0.911765 0.000000
0.000000 0.882353 0.000000
0.000000 0.852941 0.000000
0.000000 0.823529 0.000000
0.000000 0.794118 0.000000
0.000000 0.764706 0.000000
0.000000 0.735294 0.000000
0.000000 0.705882 0.000000
0.000000 0.676471 0.000000
0.000000 0.647059 0.000000
0.000000 0.617647 0.000000
0.000000 0.588235 0.000000
0.000000 0.558824 0.000000
0.000000 0.529412 0.000000
0.007246 0.500000 0.000000
0.014493 0.500000 0.000000
0.021739 0.500000 0.000000
0.028986 0.500000 0.000000
0.036232 0.500000 0.000000
0.043478 0.500000 0.000000
0.050725 0.500000 0.000000
0.057971 0.500000 0.000000
0.065217 0.500000 0.000000
0.072464 0.500000 0.000000
0.079710 0.500000 0.000000
0.086957 0.500000 0.000000
0.094203 0.500000 0.000000
0.101449 0.500000 0.000000
0.108696 0.500000 0.000000
0.115942 0.500000 0.000000
0.123188 0.500000 0.000000
0.130435 0.500000 0.000000
0.137681 0.500000 0.000000
0.144928 0.500000 0.000000
0.152174 0.500000 0.000000
0.159420 0.500000 0.000000
0.166667 0.500000 0.000000
0.173913 0.500000 0.000000
0.181159 0.500000 0.000000
0.188406 0.500000 0.000000
0.195652 0.500000 0.000000
0.202899 0.500000 0.000000
0.210145 0.500000 0.000000
0.217391 0.500000 0.000000
0.224638 0.500000 0.000000
0.231884 0.500000 0.000000
0.239130 0.500000 0.000000
0.246377 0.500000 0.000000
0.253623 0.500000 0.000000
0.260870 0.500000 0.000000
0.268116 0.500000 0.000000
0.275362 0.500000 0.000000
0.282609 0.500000 0.000000
0.289855 0.500000 0.000000
0.297101 0.500000 0.000000
0.304348 0.500000 0.000000
0.311594 0.500000 0.000000
0.318841 0.500000 0.000000
0.326087 0.500000 0.000000
0.333333 0.500000 0.000000
0.340580 0.500000 0.000000
0.347826 0.500000 0.000000
0.355072 0.500000 0.000000
0.362319 0.500000 0.000000
0.369565 0.500000 0.000000
0.376812 0.500000 0.000000
0.384058 0.500000 0.000000
0.391304 0.500000 0.000000
0.398551 0.500000 0.000000
0.405797 0.500000 0.000000
0.413043 0.500000 0.000000
0.420290 0.500000 0.000000
0.427536 0.500000 0.000000
0.434783 0.500000 0.000000
0.442029 0.500000 0.000000
0.449275 0.500000 0.000000
0.456522 0.500000 0.000000
0.463768 0.500000 0.000000
0.471014 0.500000 0.000000
0.478261 0.500000 0.000000
0.485507 0.500000 0.000000
0.492754 0.500000 0.000000
0.510004 0.500000 0.000000
0.520408 0.500000 0.000000
0.531229 0.500000 0.000000
0.542483 0.500000 0.000000
0.554187 0.500000 0.000000
0.566359 0.500000 0.000000
0.579019 0.500000 0.000000
0.592185 0.500000 0.000000
0.605877 0.500000 0.000000
0.620118 0.500000 0.000000
0.634929 0.500000 0.000000
0.650332 0.500000 0.000000
0.666352 0.500000 0.000000
0.683013 0.500000 0.000000
0.700340 0.500000 0.000000
0.718361 0.500000 0.000000
0.737103 0.500000 0.000000
0.756595 0.500000 0.000000
0.776867 0.500000 0.000000
0.797950 0.500000 0.000000
0.819877 0.500000 0.000000
0.842681 0.500000 0.000000
0.866398 0.500000 0.000000
0.891064 0.500000 0.000000
0.916716 0.500000 0.000000
0.943396 0.500000 0.000000
0.971143 0.500000 0.000000
0.000000 0.470588 0.000000
0.000000 0.441176 0.000000
0.000000 0.411765 0.000000
0.000000 0.382353 0.000000
0.000000 0.352941 0.000000
0.000000 0.323529 0.000000
0.000000 0.294118 0.000000
0.000000 0.264706 0.000000
0.000000 0.235294 0.000000
0.000000 0.205882 0.000000
0.000000 0.176471 0.000000
0.000000 0.147059 0.000000
0.000000 0.117647 0.000000
0.000000 0.088235 0.000000
0.000000 0.058824 0.000000
0.000000 0.029412 0.000000
0.500341 0.497365 0.000000
0.501682 0.495729 0.000000
0.503023 0.494094 0.000000
0.504365 0.492458 0.000000
0.505706 0.490823 0.000000
0.507047 0.489187 0.000000
0.508388 0.487552 0.000000
0.509729 0.485916 0.000000
0.511070 0.484281 0.000000
0.512411 0.482645 0.000000
0.513753 0.481010 0.000000
0.515094 0.479375 0.000000
0.516435 0.477739 0.000000
0.517776 0.476104 0.000000
0.519117 0.474468 0.000000
0.520458 0.472833 0.000000
0.521799 0.471197 0.000000
0.523140 0.469562 0.000000
0.524482 0.467926 0.000000
0.525823 0.466291 0.000000
0.527164 0.464656 0.000000
0.528505 0.463020 0.000000
0.529846 0.461385 0.000000
0.531187 0.459749 0.000000
0.532528 0.458114 0.000000
0.533870 0.456478 0.000000
0.535211 0.454843 0.000000
0.536552 0.453207 0.000000
0.537893 0.451572 0.000000
0.539234 0.449936 0.000000
0.540575 0.448301 0.000000
0.541916 0.446666 0.000000
0.543258 0.445030 0.000000
0.544599 0.443395 0.000000
0.545940 0.441759 0.000000
0.547281 0.440124 0.000000
0.548622 0.438488 0.000000
0.549963 0.436853 0.000000
0.551304 0.435217 0.000000
0.552645 0.433582 0.000000
0.553987 0.431946 0.000000
0.555328 0.430311 0.000000
0.556669 0.428676 0.000000
0.558010 0.427040 0.000000
0.559351 0.425405 0.000000
0.560692 0.423769 0.000000
0.562033 0.422134 0.000000
0.563375 0.420498 0.000000
0.564716 0.418863 0.000000
0.566057 0.417227 0.000000
0.567398 0.415592 0.000000
0.568739 0.413957 0.000000
0.570080 0.412321 0.000000
0.571421 0.410686 0.000000
0.572763 0.409050 0.000000
0.574104 0.407415 0.000000
0.575445 0.405779 0.000000
0.576786 0.404144 0.000000
0.578127 0.402508 0.000000
0.579468 0.400873 0.000000
0.580809 0.399237 0.000000
0.582151 0.397602 0.000000
0.583492 0.395967 0.000000
0.584833 0.394331 0.000000
0.586174 0.392696 0.000000
0.587515 0.391060 0.000000
0.588856 0.389425 0.000000
0.590197 0.387789 0.000000
0.591538 0.386154 0.000000
0.592880 0.384518 0.000000
0.594221 0.382883 0.000000
0.595562 0.381247 0.000000
0.596903 0.379612 0.000000
0.598244 0.377977 0.000000
0.599585 0.376341 0.000000
0.600926 0.374706 0.000000
0.602268 0.373070 0.000000
0.603609 0.371435 0.000000
0.604950 0.369799 0.000000
0.606291 0.368164 0.000000
0.607632 0.366528 0.000000
0.608973 0.364893 0.000000
0.610314 0.363258 0.000000
0.611656 0.361622 0.000000
0.612997 0.359987 0.000000
0.614338 0.358351 0.000000
0.615679 0.356716 0.000000
0.617020 0.355080 0.000000
0.618361 0.353445 0.000000
0.619702 0.351809 0.000000
0.621043 0.350174 0.000000
0.622385 0.348538 0.000000
0.623726 0.346903 0.000000
0.625067 0.345268 0.000000
0.626408 0.343632 0.000000
0.627749 0.341997 0.000000
0.629090 0.340361 0.000000
0.630431 0.338726 0.000000
0.631773 0.337090 0.000000
0.633114 0.335455 0.000000
0.634455 0.333819 0.000000
0.635796 0.332184 0.000000
0.637137 0.330548 0.000000
0.638478 0.328913 0.000000
0.639819 0.327278 0.000000
0.641161 0.325642 0.000000
0.642502 0.324007 0.000000
0.643843 0.322371 0.000000
0.645184 0.320736 0.000000
0.646525 0.319100 0.000000
0.647866 0.317465 0.000000
0.649207 0.315829 0.000000
0.650548 0.314194 0.000000
0.651890 0.312559 0.000000
0.653231 0.310923 0.000000
0.654572 0.309288 0.000000
0.655913 0.307652 0.000000
0.657254 0.306017 0.000000
0.658595 0.304381 0.000000
0.659936 0.302746 0.000000
0.661278 0.301110 0.000000
0.662619 0.299475 0.000000
0.663960 0.297839 0.000000
0.665301 0.296204 0.000000
0.666642 0.294569 0.000000
0.667983 0.292933 0.000000
0.669324 0.291298 0.000000
0.670666 0.289662 0.000000
0.672007 0.288027 0.000000
0.673348 0.286391 0.000000
0.674689 0.284756 0.000000
0.676030 0.283120 0.000000
0.677371 0.281485 0.000000
[...]
POINT_DATA 7341
SCALARS UX float 1
LOOKUP_TABLE default
0.000000
0.000000
0.260500
0.260500
0.088832
0.079107
0.106961
0.076737
0.000378
-0.000000
0.000000
0.000000
0.000000
0.000000
0.000000
0.000000
0.000000
0.000000
0.000000
0.000000
0.000000
0.000000
0.000000
0.000000
0.000000
0.000000
0.000000
0.000000
0.000000
0.000000
0.000000
0.000000
0.000000
0.000000
0.000000
0.000000
0.000000
0.000000
0.000000
0.000000
0.000000
-0.000000
0.001950
0.001141
0.003577
0.005988
0.009071
0.012770
0.017589
0.020997
0.027861
0.035993
0.044939
0.054539
0.064565
0.075051
0.085691
0.096315
0.117774
0.128893
0.139971
0.151291
0.162243
0.172657
0.182371
0.191472
0.200090
0.208459
0.216394
0.224091
0.231605
0.238968
0.246245
0.253406
0.260500
0.260500
0.260500
0.260500
0.260500
0.260500
0.260500
0.260500
0.260500
0.260500
0.260500
0.260500
0.260500
0.260500
0.260500
0.260500
0.260500
0.260500
0.260500
0.260500
0.260500
0.260500
0.260500
0.260500
0.260500
0.260500
0.260500
0.260500
0.260500
0.260500
0.260500
0.260500
0.260500
0.252987
0.245403
0.237800
0.229863
0.221841
0.212903
0.203961
0.194037
0.183066
0.171573
0.159426
0.146882
0.134125
0.121775
0.110051
0.098844
0.087493
0.086087
0.084521
0.083959
0.083571
0.083266
0.083073
0.082311
0.079806
0.078738
0.079477
0.079031
0.078555
0.078668
0.078222
0.078764
0.076615
0.076979
0.076931
0.077083
0.077041
0.077270
0.076467
0.076916
0.077371
0.079543
0.077049
0.077554
0.079262
0.079017
0.076511
0.077053
0.078646
0.078689
0.078899
0.081122
0.082058
0.077731
0.079253
0.075378
0.077108
0.075396
0.075834
0.076566
0.074839
0.074720
0.074484
0.074275
0.074307
0.072132
0.074015
0.072748
0.073890
0.072313
0.073761
0.072718
0.074217
0.074030
0.074161
0.073890
0.075951
0.076264
0.076914
0.076527
0.078273
0.077058
0.078406
0.078375
0.078574
0.079143
0.080501
0.082041
0.083809
0.085654
0.087599
0.089572
0.091572
0.093571
0.095684
0.097919
0.099936
0.101535
0.102647
0.103468
0.103989
0.104068
0.104652
0.104676
0.104695
0.105408
0.105514
0.105640
0.105847
0.106165
0.106563
0.071371
0.062554
0.055104
0.048515
0.043332
0.038388
0.034163
0.030146
0.026837
0.023902
0.021582
0.019043
0.016990
0.014831
0.012185
0.008317
0.075616
0.073950
0.073054
0.071591
0.071236
0.070476
0.070447
0.070275
0.069737
0.069282
0.068822
0.068271
0.067726
0.067175
0.066662
0.066193
0.065742
0.065303
0.064855
0.064410
0.063962
0.063512
0.063065
0.062619
0.062175
0.061734
0.061297
0.060860
0.060429
0.059997
0.059567
0.059139
0.058711
0.058284
0.057855
0.057427
0.056998
0.056568
0.056139
0.055709
0.055279
0.054853
0.054426
0.054002
0.053578
0.053156
0.052737
0.052319
0.051904
0.051489
0.051077
0.050663
0.050253
0.049844
0.049434
0.049025
0.048616
0.048208
0.047801
0.047394
0.046989
0.046585
0.046186
0.045787
0.045391
0.044998
0.044609
0.044223
0.043842
0.043463
0.043089
0.042718
0.042351
0.041985
0.041624
0.041262
0.040904
0.040547
0.040191
0.039839
0.039488
0.039138
0.038791
0.038447
0.038107
0.037768
0.037432
0.037100
0.036770
0.036442
0.036118
0.035796
0.035478
0.035163
0.034851
0.034543
0.034237
0.033935
0.033635
0.033338
0.033043
0.032751
0.032460
0.032171
0.031883
0.031596
0.031311
0.031025
0.030740
0.030455
0.030169
0.029882
0.029595
0.029306
0.029014
0.028720
0.028421
0.028117
0.027806
0.027492
0.027176
0.026863
0.026554
0.026255
0.025968
0.025689
0.025421
0.025161
0.024908
0.024658
0.024414
0.024172
0.023935
0.023697
0.023465
0.023235
0.023009
0.022785
0.022565
0.022349
0.022138
0.021928
0.021725
0.021526
0.021332
0.021144
0.020961
0.020785
0.020616
0.020454
0.020300
0.020154
0.020017
0.019890
0.019772
0.019666
0.019572
0.019486
0.019422
0.019118
0.018798
0.018487
0.018181
0.017878
0.017582
0.017291
0.017007
0.016727
0.016450
0.016176
0.015907
0.015636
0.015384
0.015129
0.014884
0.014644
0.014410
0.014177
0.013943
0.013714
0.013490
0.013268
0.013054
0.012841
0.012633
0.012429
0.012228
0.012028
0.011832
0.011637
0.011444
0.011253
0.011063
0.010876
0.010690
0.010506
0.010324
0.010145
0.009967
0.009792
0.009618
0.009448
0.009278
0.009111
0.008946
0.008783
0.008622
0.008464
0.008307
0.008152
0.007998
0.007844
0.007692
0.007540
0.007388
0.007237
0.007085
0.006934
0.006784
0.006634
0.006485
0.006336
0.006188
0.006041
0.005895
0.005750
0.005606
0.005465
0.005327
0.005190
0.005053
0.004919
0.004784
0.004648
0.004514
0.004384
0.004260
0.004140
0.004023
0.003908
0.003795
0.003682
0.003567
0.003449
0.003331
0.003210
0.003089
0.002966
0.002832
0.002713
0.002579
0.002450
0.002329
0.002214
0.002097
0.001987
0.001878
0.001771
0.001663
0.001561
0.001470
0.001378
0.001295
0.001227
0.001159
0.001097
0.001042
0.000995
0.000952
0.000915
0.000879
0.000844
0.000807
0.000770
0.000732
0.000705
0.000687
0.000673
0.000660
0.000638
0.000620
0.000595
0.000587
0.000581
0.000580
0.000580
0.000577
0.000569
0.000563
0.000563
0.000576
0.000595
0.000606
0.000600
0.000580
0.000522
0.000471
0.000423
0.067117
0.065652
0.063601
0.001013
0.000682
0.097420
0.000807
0.097276
0.069493
0.034948
0.093415
0.000874
0.032532
0.071703
0.011511
0.022272
0.085972
0.000823
0.002007
0.064174
0.002942
0.074009
0.080932
0.015051
0.066294
0.052313
0.076812
0.063969
0.096738
0.069085
0.003276
0.067319
0.064721
0.070827
0.068358
0.000570
0.074044
0.001647
0.070280
0.000717
0.066426
0.064135
0.063173
0.073328
0.001195
0.072843
0.000774
0.070571
0.069810
0.080052
0.000808
0.076599
0.005035
0.046988
0.000844
0.082240
0.089654
0.041585
0.096009
0.096835
0.016431
0.020468
0.000876
0.000870
0.064643
0.067504
0.028702
0.084747
0.096580
0.000780
0.097554
0.000744
0.044144
0.000752
0.063501
0.019854
0.001168
0.096196
0.012972
0.004031
0.009460
0.004613
0.004947
0.066410
0.067021
0.067865
0.066252
0.065244
0.063869
0.068036
0.072448
0.071393
0.070574
0.070406
0.070206
0.069214
0.078381
0.075897
0.075205
0.074892
0.071194
0.000485
0.070877
0.074755
0.060951
0.063090
0.001759
0.064822
0.001696
0.066269
0.042826
0.001740
0.030569
0.068183
0.016625
0.067617
0.001474
0.090151
0.003152
0.041589
0.076085
0.020781
0.002380
0.065155
0.071051
0.001034
0.069513
0.070373
0.062144
0.072018
0.011369
0.086009
0.071278
0.074555
0.000467
0.067714
0.064137
0.000741
0.079192
0.070292
0.008074
0.084550
0.000801
0.050395
0.068497
0.088074
0.000388
0.091810
0.037538
0.025915
0.095229
0.097551
0.000800
0.097219
0.001719
0.097100
0.065762
0.000686
0.053473
0.000638
0.096932
0.064520
0.073716
0.000844
0.025716
0.096687
0.063930
0.001451
0.017425
0.006099
0.002881
0.008319
0.063446
0.063584
0.066955
0.065277
0.064783
0.063847
0.064731
0.062679
0.067542
0.067784
0.068683
0.070855
0.069526
0.071064
0.071870
0.074495
0.071391
0.072973
0.073365
0.073467
0.076514
0.072198
0.078030
0.071491
0.072370
0.070546
0.012286
0.002709
0.092061
0.088758
0.013025
0.082457
0.061151
0.075258
0.067334
0.069048
0.002079
0.061978
0.024029
0.088876
0.087289
0.003426
0.005254
0.000841
0.060678
0.069236
0.001331
0.070647
0.060541
0.069288
0.034550
0.065376
0.061735
0.069650
0.066876
0.001778
0.073502
0.079625
0.076943
0.067836
0.001546
0.054302
0.085614
0.001644
0.090014
0.027590
0.020426
0.001557
0.091008
0.027408
0.069528
0.001680
0.001715
0.001873
0.071521
0.001507
0.004838
0.062954
0.063740
0.069158
0.089719
0.090338
0.002799
0.045856
0.034813
0.018335
0.070108
0.015752
0.013495
0.001770
0.009580
0.007148
0.060140
0.060831
0.061352
0.063201
0.064060
0.001413
0.061899
0.056525
0.063002
0.064798
0.074409
0.065924
0.070217
0.074636
0.067401
0.066964
0.066229
0.060250
0.072681
0.069534
0.068751
0.069567
0.070306
0.067375
0.071306
0.009101
0.000466
0.072100
0.069535
0.068978
0.066051
0.073963
0.058535
0.060462
0.062240
0.002944
0.084074
0.035249
0.002752
0.026441
0.065116
0.002297
0.004582
0.081971
0.004249
0.046169
0.002019
0.072276
0.016944
0.058668
0.063028
0.067535
0.002880
0.065489
0.003609
0.066851
0.049563
0.080823
0.084098
0.001656
0.087635
0.066126
0.061092
0.022525
0.090761
0.002661
0.061493
0.054190
0.071601
0.016067
0.088015
0.033254
0.063474
0.068501
0.004305
0.068263
0.014257
0.011928
0.007354
0.008397
0.089680
0.062152
0.002707
0.002807
0.060850
0.003313
0.060490
0.061563
0.083742
0.064100
0.066906
0.065562
0.060782
0.008653
0.068707
0.063187
0.069774
0.068585
0.058288
0.001593
0.064164
0.064200
0.068047
0.038093
0.075233
0.058632
0.072986
0.068239
0.064208
0.071106
0.067902
0.068185
0.069706
0.010569
0.006875
0.065109
0.068741
0.090487
0.068612
0.068772
0.069893
0.068829
0.074212
0.005287
0.004101
0.077878
0.003802
0.082415
0.062141
0.079248
0.015822
0.024671
0.074724
0.062756
0.001933
0.068814
0.070701
0.059277
0.067275
0.067940
0.084820
0.059920
0.003914
0.015484
0.005189
0.065890
0.073377
0.042405
0.009573
0.002589
0.003024
0.010598
0.058137
0.058985
0.002280
0.003104
0.029408
0.063311
0.068927
0.062360
0.064637
0.078424
0.078629
0.066385
0.063989
0.070736
0.075785
0.006493
0.004050
0.060358
0.083078
0.042244
0.059417
0.058737
0.006201
0.037786
0.067847
0.080683
0.064985
0.012981
0.049952
0.003276
0.002718
0.029876
0.083221
0.019684
0.010635
0.061614
0.064531
0.062941
0.019043
0.058380
0.002746
0.060811
0.058101
0.085679
0.002365
0.065792
0.063884
0.077529
0.062714
0.070426
0.066770
0.063407
0.063656
0.067959
0.065324
0.058774
0.064549
0.061316
0.002014
0.068296
0.064639
0.077518
0.068810
0.061921
0.065722
0.068051
0.056753
0.058057
0.060804
0.041628
0.073918
0.003121
0.070270
0.008744
0.040053
0.004143
0.056858
0.002609
0.076053
0.062754
0.003793
0.061457
0.067704
0.068749
0.059110
0.053014
0.001753
0.018323
0.018348
0.003629
0.004069
0.057890
0.069174
0.002796
0.071196
0.061644
0.067168
0.065638
0.082521
0.063690
0.063115
0.028121
0.005936
0.021614
0.077199
0.006597
0.008575
0.081660
0.004236
0.014418
0.002490
0.067446
0.072425
0.084853
0.077030
0.048926
0.011888
0.024007
0.005044
0.004454
0.062255
0.028778
0.059635
0.067320
0.036250
0.072889
0.067523
0.056488
0.058519
0.064297
0.059047
0.062241
0.056232
0.061887
0.067388
0.068863
0.013236
0.004274
0.062369
0.071927
0.061511
0.065874
0.059573
0.059030
0.062701
0.002881
0.001323
0.074614
0.072784
0.068930
0.065232
0.059914
0.067752
0.007103
0.063445
0.079569
0.067361
0.058367
0.056792
0.064789
0.060010
0.067615
0.067621
0.061434
0.056482
0.005862
0.071860
0.004662
0.075730
0.018029
0.007168
0.039177
0.026966
0.008777
0.002398
0.066084
0.054813
0.005290
0.049242
0.051987
0.056940
0.003343
0.070717
0.078265
0.007196
0.057357
0.060397
0.003485
0.065403
0.063294
0.056954
0.057070
0.061165
0.074981
0.056296
0.060097
0.069816
0.057754
0.061791
0.032348
0.058477
0.022600
0.063037
0.020097
0.044840
0.007621
0.072023
0.074452
0.004802
0.001291
0.001613
0.003916
0.070359
0.003120
0.067223
0.003918
0.071754
0.010821
0.010410
0.034657
0.012777
0.003159
0.017095
0.005649
0.064963
0.067538
0.066414
0.066481
0.079589
0.060158
0.062101
0.056197
0.070030
0.004509
0.060033
0.055797
0.002678
0.066949
0.060095
0.056055
0.066914
0.066567
0.060107
0.057476
0.061307
0.062063
0.058274
0.001553
0.062147
0.056656
0.067835
0.005475
0.078574
0.066768
0.063246
0.003153
0.067346
0.057170
0.066967
0.068578
0.007331
0.003990
0.010811
0.003468
0.003205
0.035776
0.002276
0.000625
0.054296
0.019045
0.065253
0.066735
0.005036
0.059798
0.043226
0.056259
0.066985
0.006288
0.003880
0.072866
0.005007
0.013304
0.005516
0.006944
0.058232
0.063560
0.065992
0.054795
0.059374
0.009951
0.066828
0.066664
0.065989
0.065234
0.067555
0.023001
0.076721
0.001644
0.066764
0.055317
0.071637
0.068898
0.048205
0.023700
0.058899
0.057233
0.058484
0.055733
0.006056
0.060709
0.003095
0.008216
0.003615
0.069539
0.015334
0.042589
0.063340
0.057189
0.008546
0.005720
0.000363
0.035429
0.060300
0.005395
0.058968
0.061837
0.064356
0.066111
0.054251
0.078153
0.056014
0.055148
0.056125
0.059238
0.058615
0.008862
0.056781
0.059494
0.062725
0.059596
0.066146
0.066878
0.056158
0.062488
0.066341
0.000760
0.069274
0.075579
0.066208
0.004928
0.066207
0.030875
0.055880
0.004341
0.067915
0.054032
0.007891
0.008983
0.066207
0.070578
0.056341
0.015735
0.029775
0.004247
0.052879
0.037176
0.042277
0.000762
0.064075
0.002900
0.002093
0.057630
0.064979
0.054732
0.000382
0.006938
0.065335
0.065097
0.011557
0.070718
0.072659
0.064165
0.005062
0.057641
0.055106
0.054451
0.050813
0.054250
0.030435
0.001250
0.057215
0.000617
0.061976
0.005121
0.065729
0.012816
0.007440
0.065728
0.065423
0.009604
0.058970
0.016317
0.067192
0.056402
0.003364
0.004053
0.065365
0.004068
0.059210
0.004550
0.005143
0.006556
0.066855
0.049309
0.012199
0.038623
0.061061
0.010452
0.064309
0.062118
0.026117
0.058617
0.054104
0.057658
0.055875
0.057406
0.054643
0.053644
0.055761
0.058426
0.033968
0.058817
0.070052
0.055581
0.068163
0.005952
0.054349
0.065827
0.065611
0.022372
0.004062
0.046644
0.060550
0.066552
0.056600
0.008554
0.062342
0.064727
0.013563
0.028922
0.004737
0.004276
0.037212
0.003518
0.057938
0.000470
0.045241
0.052191
0.063648
0.060427
0.006161
0.064947
0.021473
0.064235
0.053565
0.054616
0.008563
0.064386
0.006088
0.065715
0.031615
0.005326
0.052743
0.055869
0.006627
0.001355
0.069756
0.017642
0.068922
0.056179
0.055334
0.053877
0.054167
0.067979
0.007627
0.006397
0.011839
0.064128
0.004389
0.003718
0.007330
0.054735
0.008203
0.014620
0.072231
0.065886
0.001502
0.055243
0.064404
0.056466
0.011227
0.042778
0.064936
0.063121
0.000633
0.059394
0.056799
0.058570
0.052355
0.005624
0.064861
0.054022
0.056093
0.065546
0.053447
0.065119
0.056189
0.054937
0.054667
0.056369
0.001327
0.056549
0.050224
0.024925
0.064972
0.010845
0.064895
0.055618
0.069199
0.052590
0.000915
0.055393
0.055350
0.065403
0.063475
0.032611
0.004181
0.002753
0.065007
0.003452
0.053645
0.050945
0.009268
0.032529
0.062585
0.027703
0.006767
0.063919
0.035851
0.053902
0.005150
0.003571
0.000868
0.062886
0.004054
0.051906
0.061970
0.003318
0.002616
0.060570
0.064625
0.061953
0.010293
0.052899
0.066032
0.000443
0.011573
0.048837
0.007259
0.007204
0.064387
0.008212
0.052466
0.052419
0.054675
0.052290
0.063969
0.023668
0.018353
0.008931
0.061947
0.001030
0.040925
0.005571
0.015726
0.062145
0.054132
0.053944
0.053847
0.049361
0.006489
0.009532
0.073223
0.006220
0.008901
0.001999
0.013157
0.037422
0.004901
0.014153
0.064868
0.063113
0.064627
0.058668
0.056857
0.000567
0.052057
0.064003
0.064641
0.064569
0.063947
0.052855
0.002482
0.053499
0.009320
0.053554
0.052724
0.026326
0.055573
0.005009
0.051464
0.054945
0.053207
0.064449
0.006428
0.050965
0.064799
0.053652
0.002168
0.020560
0.001156
0.004053
0.065343
0.000462
0.004841
0.074690
0.062830
0.064557
0.061865
0.054664
0.031461
0.000626
0.059114
0.053656
0.066148
0.064346
0.064472
0.000869
0.052836
0.011224
0.010289
0.057857
0.032806
0.026549
0.060532
0.013673
0.007316
0.005771
0.006069
0.051956
0.034025
0.014113
0.053670
0.000734
0.060292
0.061244
0.050707
0.002420
0.017736
0.051858
0.008056
0.009462
0.005971
0.000724
0.000599
0.007387
0.067272
0.010751
0.010238
0.005344
0.057352
0.054824
0.007735
0.061404
0.001604
0.061802
0.042676
0.061796
0.059191
0.010444
0.052304
0.027924
0.063105
0.062131
0.053330
0.051461
0.045465
0.007941
0.006343
0.020816
0.013894
0.001541
0.048845
0.060856
0.063122
0.055161
0.051660
0.064019
0.052702
0.053125
0.051767
0.057819
0.059984
0.008303
0.050671
0.052177
0.001045
0.063775
0.052515
0.052227
0.051208
0.064033
0.063443
0.052978
0.051182
0.050263
0.039793
0.004339
0.009384
0.009155
0.063947
0.063421
0.063560
0.065307
0.003823
0.026130
0.052673
0.030351
0.060421
0.019917
0.063876
0.002443
0.063707
0.003216
0.061510
0.061716
0.063983
0.004675
0.016995
0.004408
0.000482
0.049013
0.053454
0.011972
0.009025
0.053378
0.058986
0.056834
0.029359
0.006949
0.004209
0.005320
0.048640
0.004617
0.056609
0.048811
0.028857
0.003667
0.050668
0.057511
0.016395
0.000548
0.050572
0.012739
0.008363
0.060628
0.013912
0.000977
0.020323
0.011833
0.010952
0.015346
0.042707
0.063016
0.006041
0.061280
0.051783
0.049560
0.008269
0.057186
0.008021
0.037694
0.060535
0.007184
0.011646
0.007649
0.000997
0.009938
0.007212
0.015965
0.050354
0.056023
0.050353
0.050985
0.023748
0.059447
0.001938
0.062951
0.061653
0.062601
0.057591
0.005640
0.061406
0.060388
0.010744
0.023814
0.050038
0.050370
0.050708
0.050083
0.007932
0.051283
0.060434
0.051852
0.063716
0.063426
0.010643
0.051339
0.049149
0.048185
0.050094
0.063214
0.063496
0.004364
0.039129
0.003165
0.033439
0.049462
0.046647
0.050550
0.022591
0.062836
0.050782
0.000936
0.062657
0.060211
0.062134
0.072032
0.067604
0.005937
0.062831
0.050587
0.001674
0.063086
0.063322
0.002839
0.063148
0.056972
0.013200
0.057547
0.032980
0.048700
0.014755
0.053539
0.058730
0.006619
0.007912
0.008489
0.032007
0.001890
0.024831
0.062587
0.009625
0.046176
0.000846
0.001522
0.054317
0.048703
0.004795
0.002789
0.056103
0.000599
0.059025
0.056682
0.003213
0.006686
0.049147
0.049391
0.000891
0.056422
0.060384
0.021247
0.005198
0.005449
0.037591
0.012354
0.008486
0.045427
0.060080
0.006121
0.047722
0.053316
0.017862
0.008959
0.063088
0.047750
0.056055
0.012519
0.007332
0.012965
0.061791
0.044476
0.008657
0.061726
0.067628
0.002347
0.060218
0.049867
0.009526
0.012086
0.009493
0.000805
0.016807
0.026394
0.020382
0.012152
0.060801
0.055465
0.004880
0.061967
0.062612
0.048728
0.048918
0.001226
0.049682
0.059299
0.062828
0.059098
0.063065
0.049736
0.063065
0.050049
0.015760
0.019168
0.001219
0.061881
0.007010
0.062274
0.050808
0.011934
0.003586
0.064951
0.064510
0.048319
0.062212
0.042052
0.047926
0.004159
0.062142
0.062291
0.008997
0.062528
0.051037
0.011817
0.052593
0.048566
0.056048
0.013457
0.014540
0.010389
0.032600
0.061344
0.052794
0.059172
0.062441
0.055716
0.008614
0.047178
0.006349
0.059567
0.006788
0.005898
0.045319
0.048461
0.059010
0.021108
0.001957
0.003967
0.047063
0.042622
0.000523
0.001129
0.046996
0.002607
0.013821
0.003115
0.049149
0.018707
0.023232
0.048319
0.000742
0.002447
0.013559
0.060429
0.048490
0.058957
0.067158
0.062304
0.012811
0.007653
0.009159
0.015081
0.016213
0.028338
0.005047
0.010958
0.010626
0.028957
0.061428
0.061361
0.013515
0.048098
0.005060
0.062179
0.047956
0.056494
0.006656
0.044821
0.060080
0.054632
0.060534
0.062282
0.048015
0.017697
0.061959
0.048512
0.057707
0.010525
0.003493
0.046920
0.060863
0.004718
0.004512
0.045079
0.062463
0.062165
0.059440
0.039210
0.005463
0.000785
0.009273
0.047775
0.011420
0.061335
0.001482
0.001061
0.053748
0.004767
0.009486
0.070889
0.061791
0.061675
0.059351
0.042368
0.000610
0.061585
0.019289
0.049270
0.053489
0.001261
0.007591
0.018535
0.016691
0.046692
0.015169
0.054350
0.011685
0.017781
0.045380
0.018677
0.041576
0.009714
0.050592
0.054991
0.060703
0.012365
0.008477
0.031126
0.007880
0.064025
0.059242
0.013115
0.062803
0.001964
0.005797
0.007277
0.005160
0.046449
0.000606
0.004841
0.019259
0.052063
0.001822
0.003518
0.051131
0.001329
0.005460
0.044486
0.000826
0.000597
0.060067
0.046474
0.007486
0.014584
0.053277
0.049006
0.060907
0.052942
0.052016
0.009625
0.058488
0.013696
0.024619
0.060735
0.066248
0.060048
0.002290
0.046704
0.000684
0.013682
0.010220
0.006025
0.056252
0.058327
0.014957
0.025996
0.059070
0.006643
0.045896
0.020173
0.006116
0.016857
0.047283
0.046446
0.061741
0.055510
0.021535
0.061013
0.045623
0.044838
0.051838
0.061197
0.047795
0.061302
0.058562
0.000542
0.059455
0.003059
0.061338
0.005286
0.048101
0.048776
0.041976
0.071147
0.047738
0.060405
0.057693
0.009877
0.001312
0.037992
0.014314
0.048234
0.004340
0.029796
0.010502
0.020760
0.003898
0.050799
0.061527
0.061012
0.058743
0.059606
0.004312
0.005256
0.060558
0.004823
0.046141
0.000677
0.042716
0.034857
0.010909
0.050949
0.005103
0.075267
0.045377
0.015013
0.037332
0.045528
0.012523
0.052501
0.008620
0.054780
0.007577
0.058324
0.006472
0.050629
0.042281
0.012522
0.005799
0.057819
0.016752
0.060262
0.061932
0.025890
0.000735
0.033773
0.057467
0.005474
0.011527
0.050230
0.049061
0.015619
0.004194
0.045174
0.044738
0.000660
0.060507
0.008297
0.005197
0.001688
0.060040
0.000565
0.003370
0.010644
0.010447
0.000561
0.002642
0.045140
0.044848
0.057905
0.003805
0.022456
0.021743
0.016789
0.017197
0.059214
0.052673
0.040110
0.060530
0.057789
0.014809
0.000948
0.048587
0.057438
0.018590
0.052988
0.005515
0.022830
0.002444
0.006814
0.034201
0.006126
0.015085
0.000606
0.000584
0.030707
0.058322