# vtk DataFile Version 2.0
Test
ASCII
DATASET POLYDATA
POINTS 7341 float
0.000000 0.000000 0.000000
1.000000 0.000000 0.000000
1.000000 1.000000 0.000000
0.000000 1.000000 0.000000
0.000000 0.500000 0.000000
0.500000 0.500000 0.000000
1.000000 0.500000 0.000000
0.499000 0.499000 0.000000
0.900000 0.010000 0.000000
0.029412 0.000000 0.000000
0.058824 0.000000 0.000000
0.088235 0.000000 0.000000
0.117647 0.000000 0.000000
0.147059 0.000000 0.000000
0.176471 0.000000 0.000000
0.205882 0.000000 0.000000
0.235294 0.000000 0.000000
0.264706 0.000000 0.000000
0.294118 0.000000 0.000000
0.323529 0.000000 0.000000
0.352941 0.000000 0.000000
0.382353 0.000000 0.000000
0.411765 0.000000 0.000000
0.441176 0.000000 0.000000
0.470588 0.000000 0.000000
0.500000 0.000000 0.000000
0.529412 0.000000 0.000000
0.558824 0.000000 0.000000
0.588235 0.000000 0.000000
0.617647 0.000000 0.000000
0.647059 0.000000 0.000000
0.676471 0.000000 0.000000
0.705882 0.000000 0.000000
0.735294 0.000000 0.000000
0.764706 0.000000 0.000000
0.794118 0.000000 0.000000
0.823529 0.000000 0.000000
0.852941 0.000000 0.000000
0.882353 0.000000 0.000000
0.911765 0.000000 0.000000
0.941176 0.000000 0.000000
0.970588 0.000000 0.000000
1.000000 0.029412 0.000000
1.000000 0.058824 0.000000
1.000000 0.088235 0.000000
1.000000 0.117647 0.000000
1.000000 0.147059 0.000000
1.000000 0.176471 0.000000
1.000000 0.205882 0.000000
1.000000 0.235294 0.000000
1.000000 0.264706 0.000000
1.000000 0.294118 0.000000
1.000000 0.323529 0.000000
1.000000 0.352941 0.000000
1.000000 0.382353 0.000000
1.000000 0.411765 0.000000
1.000000 0.441176 0.000000
1.000000 0.470588 0.000000
1.000000 0.529412 0.000000
1.000000 0.558824 0.000000
1.000000 0.588235 0.000000
1.000000 0.617647 0.000000
1.000000 0.647059 0.000000
1.000000 0.676471 0.000000
1.000000 0.705882 0.000000
1.000000 0.735294 0.000000
1.000000 0.764706 0.000000
1.000000 0.794118 0.000000
1.000000 0.823529 0.000000
1.000000 0.852941 0.000000
1.000000 0.882353 0.000000
1.000000 0.911765 0.000000
1.000000 0.941176 0.000000
1.000000 0.970588 0.000000
0.970588 1.000000 0.000000
0.941176 1.000000 0.000000
0.911765 1.000000 0.000000
0.882353 1.000000 0.000000
0.852941 1.000000 0.000000
0.823529 1.000000 0.000000
0.794118 1.000000 0.000000
0.764706 1.000000 0.000000
0.735294 1.000000 0.000000
0.705882 1.000000 0.000000
0.676471 1.000000 0.000000
0.647059 1.000000 0.000000
0.617647 1.000000 0.000000
0.588235 1.000000 0.000000
0.558824 1.000000 0.000000
0.529412 1.000000 0.000000
0.500000 1.000000 0.000000
0.470588 1.000000 0.000000
0.441176 1.000000 0.000000
0.411765 1.000000 0.000000
0.382353 1.000000 0.000000
0.352941 1.000000 0.000000
0.323529 1.000000 0.000000
0.294118 1.000000 0.000000
0.264706 1.000000 0.000000
0.235294 1.000000 0.000000
0.205882 1.000000 0.000000
0.176471 1.000000 0.000000
0.147059 1.000000 0.000000
0.117647 1.000000 0.000000
0.088235 1.000000 0.000000
0.058824 1.000000 0.000000
0.029412 1.000000 0.000000
0.000000 0.970588 0.000000
0.000000 0.941176 0.000000
0.000000 0.911765 0.000000
0.000000 0.882353 0.000000
0.000000 0.852941 0.000000
0.000000 0.823529 0.000000
0.000000 0.794118 0.000000
0.000000 0.764706 0.000000
0.000000 0.735294 0.000000
0.000000 0.705882 0.000000
0.000000 0.676471 0.000000
0.000000 0.647059 0.000000
0.000000 0.617647 0.000000
0.000000 0.588235 0.000000
0.000000 0.558824 0.000000
0.000000 0.529412 0.000000
0.007246 0.500000 0.000000
0.014493 0.500000 0.000000
0.021739 0.500000 0.000000
0.028986 0.500000 0.000000
0.036232 0.500000 0.000000
0.043478 0.500000 0.000000
0.050725 0.500000 0.000000
0.057971 0.500000 0.000000
0.065217 0.500000 0.000000
0.072464 0.500000 0.000000
0.079710 0.500000 0.000000
0.086957 0.500000 0.000000
0.094203 0.500000 0.000000
0.101449 0.500000 0.000000
0.108696 0.500000 0.000000
0.115942 0.500000 0.000000
0.123188 0.500000 0.000000
0.130435 0.500000 0.000000
0.137681 0.500000 0.000000
0.144928 0.500000 0.000000
0.152174 0.500000 0.000000
0.159420 0.500000 0.000000
0.166667 0.500000 0.000000
0.173913 0.500000 0.000000
0.181159 0.500000 0.000000
0.188406 0.500000 0.000000
0.195652 0.500000 0.000000
0.202899 0.500000 0.000000
0.210145 0.500000 0.000000
0.217391 0.500000 0.000000
0.224638 0.500000 0.000000
0.231884 0.500000 0.000000
0.239130 0.500000 0.000000
0.246377 0.500000 0.000000
0.253623 0.500000 0.000000
0.260870 0.500000 0.000000
0.268116 0.500000 0.000000
0.275362 0.500000 0.000000
0.282609 0.500000 0.000000
0.289855 0.500000 0.000000
0.297101 0.500000 0.000000
0.304348 0.500000 0.000000
0.311594 0.500000 0.000000
0.318841 0.500000 0.000000
0.326087 0.500000 0.000000
0.333333 0.500000 0.000000
0.340580 0.500000 0.000000
0.347826 0.500000 0.000000
0.355072 0.500000 0.000000
0.362319 0.500000 0.000000
0.369565 0.500000 0.000000
0.376812 0.500000 0.000000
0.384058 0.500000 0.000000
0.391304 0.500000 0.000000
0.398551 0.500000 0.000000
0.405797 0.500000 0.000000
0.413043 0.500000 0.000000
0.420290 0.500000 0.000000
0.427536 0.500000 0.000000
0.434783 0.500000 0.000000
0.442029 0.500000 0.000000
0.449275 0.500000 0.000000
0.456522 0.500000 0.000000
0.463768 0.500000 0.000000
0.471014 0.500000 0.000000
0.478261 0.500000 0.000000
0.485507 0.500000 0.000000
0.492754 0.500000 0.000000
0.510004 0.500000 0.000000
0.520408 0.500000 0.000000
0.531229 0.500000 0.000000
0.542483 0.500000 0.000000
0.554187 0.500000 0.000000
0.566359 0.500000 0.000000
0.579019 0.500000 0.000000
0.592185 0.500000 0.000000
0.605877 0.500000 0.000000
0.620118 0.500000 0.000000
0.634929 0.500000 0.000000
0.650332 0.500000 0.000000
0.666352 0.500000 0.000000
0.683013 0.500000 0.000000
0.700340 0.500000 0.000000
0.718361 0.500000 0.000000
0.737103 0.500000 0.000000
0.756595 0.500000 0.000000
0.776867 0.500000 0.000000
0.797950 0.500000 0.000000
0.819877 0.500000 0.000000
0.842681 0.500000 0.000000
0.866398 0.500000 0.000000
0.891064 0.500000 0.000000
0.916716 0.500000 0.000000
0.943396 0.500000 0.000000
0.971143 0.500000 0.000000
0.000000 0.470588 0.000000
0.000000 0.441176 0.000000
0.000000 0.411765 0.000000
0.000000 0.382353 0.000000
0.000000 0.352941 0.000000
0.000000 0.323529 0.000000
0.000000 0.294118 0.000000
0.000000 0.264706 0.000000
0.000000 0.235294 0.000000
0.000000 0.205882 0.000000
0.000000 0.176471 0.000000
0.000000 0.147059 0.000000
0.000000 0.117647 0.000000
0.000000 0.088235 0.000000
0.000000 0.058824 0.000000
0.000000 0.029412 0.000000
0.500341 0.497365 0.000000
0.501682 0.495729 0.000000
0.503023 0.494094 0.000000
0.504365 0.492458 0.000000
0.505706 0.490823 0.000000
0.507047 0.489187 0.000000
0.508388 0.487552 0.000000
0.509729 0.485916 0.000000
0.511070 0.484281 0.000000
0.512411 0.482645 0.000000
0.513753 0.481010 0.000000
0.515094 0.479375 0.000000
0.516435 0.477739 0.000000
0.517776 0.476104 0.000000
0.519117 0.474468 0.000000
0.520458 0.472833 0.000000
0.521799 0.471197 0.000000
0.523140 0.469562 0.000000
0.524482 0.467926 0.000000
0.525823 0.466291 0.000000
0.527164 0.464656 0.000000
0.528505 0.463020 0.000000
0.529846 0.461385 0.000000
0.531187 0.459749 0.000000
0.532528 0.458114 0.000000
0.533870 0.456478 0.000000
0.535211 0.454843 0.000000
0.536552 0.453207 0.000000
0.537893 0.451572 0.000000
0.539234 0.449936 0.000000
0.540575 0.448301 0.000000
0.541916 0.446666 0.000000
0.543258 0.445030 0.000000
0.544599 0.443395 0.000000
0.545940 0.441759 0.000000
0.547281 0.440124 0.000000
0.548622 0.438488 0.000000
0.549963 0.436853 0.000000
0.551304 0.435217 0.000000
0.552645 0.433582 0.000000
0.553987 0.431946 0.000000
0.555328 0.430311 0.000000
0.556669 0.428676 0.000000
0.558010 0.427040 0.000000
0.559351 0.425405 0.000000
0.560692 0.423769 0.000000
0.562033 0.422134 0.000000
0.563375 0.420498 0.000000
0.564716 0.418863 0.000000
0.566057 0.417227 0.000000
0.567398 0.415592 0.000000
0.568739 0.413957 0.000000
0.570080 0.412321 0.000000
0.571421 0.410686 0.000000
0.572763 0.409050 0.000000
0.574104 0.407415 0.000000
0.575445 0.405779 0.000000
0.576786 0.404144 0.000000
0.578127 0.402508 0.000000
0.579468 0.400873 0.000000
0.580809 0.399237 0.000000
0.582151 0.397602 0.000000
0.583492 0.395967 0.000000
0.584833 0.394331 0.000000
0.586174 0.392696 0.000000
0.587515 0.391060 0.000000
0.588856 0.389425 0.000000
0.590197 0.387789 0.000000
0.591538 0.386154 0.000000
0.592880 0.384518 0.000000
0.594221 0.382883 0.000000
0.595562 0.381247 0.000000
0.596903 0.379612 0.000000
0.598244 0.377977 0.000000
0.599585 0.376341 0.000000
0.600926 0.374706 0.000000
0.602268 0.373070 0.000000
0.603609 0.371435 0.000000
0.604950 0.369799 0.000000
0.606291 0.368164 0.000000
0.607632 0.366528 0.000000
0.608973 0.364893 0.000000
0.610314 0.363258 0.000000
0.611656 0.361622 0.000000
0.612997 0.359987 0.000000
0.614338 0.358351 0.000000
0.615679 0.356716 0.000000
0.617020 0.355080 0.000000
0.618361 0.353445 0.000000
0.619702 0.351809 0.000000
0.621043 0.350174 0.000000
0.622385 0.348538 0.000000
0.623726 0.346903 0.000000
0.625067 0.345268 0.000000
0.626408 0.343632 0.000000
0.627749 0.341997 0.000000
0.629090 0.340361 0.000000
0.630431 0.338726 0.000000
0.631773 0.337090 0.000000
0.633114 0.335455 0.000000
0.634455 0.333819 0.000000
0.635796 0.332184 0.000000
0.637137 0.330548 0.000000
0.638478 0.328913 0.000000
0.639819 0.327278 0.000000
0.641161 0.325642 0.000000
0.642502 0.324007 0.000000
0.643843 0.322371 0.000000
0.645184 0.320736 0.000000
0.646525 0.319100 0.000000
0.647866 0.317465 0.000000
0.649207 0.315829 0.000000
0.650548 0.314194 0.000000
0.651890 0.312559 0.000000
0.653231 0.310923 0.000000
0.654572 0.309288 0.000000
0.655913 0.307652 0.000000
0.657254 0.306017 0.000000
0.658595 0.304381 0.000000
0.659936 0.302746 0.000000
0.661278 0.301110 0.000000
0.662619 0.299475 0.000000
0.663960 0.297839 0.000000
0.665301 0.296204 0.000000
0.666642 0.294569 0.000000
0.667983 0.292933 0.000000
0.669324 0.291298 0.000000
0.670666 0.289662 0.000000
0.672007 0.288027 0.000000
0.673348 0.286391 0.000000
0.674689 0.284756 0.000000
0.676030 0.283120 0.000000
0.677371 0.281485 0.000000
[...]
POINT_DATA 7341
SCALARS UX float 1
LOOKUP_TABLE default
0.000000
0.000000
0.305500
0.305500
0.041489
0.058664
0.148179
0.055393
0.000054
-0.000000
0.000000
0.000000
0.000000
0.000000
0.000000
0.000000
0.000000
0.000000
0.000000
0.000000
0.000000
0.000000
0.000000
0.000000
0.000000
0.000000
0.000000
0.000000
0.000000
0.000000
0.000000
0.000000
0.000000
0.000000
0.000000
0.000000
0.000000
0.000000
0.000000
0.000000
0.000000
-0.000000
0.001292
0.003294
0.003160
0.005129
0.006640
0.008826
0.012161
0.015992
0.021276
0.029598
0.042986
0.059323
0.076649
0.094212
0.111742
0.130309
0.157866
0.167397
0.176429
0.187295
0.198127
0.208854
0.219220
0.229101
0.238571
0.247808
0.256612
0.265170
0.273516
0.281674
0.289728
0.297649
0.305500
0.305500
0.305500
0.305500
0.305500
0.305500
0.305500
0.305500
0.305500
0.305500
0.305500
0.305500
0.305500
0.305500
0.305500
0.305500
0.305500
0.305500
0.305500
0.305500
0.305500
0.305500
0.305500
0.305500
0.305500
0.305500
0.305500
0.305500
0.305500
0.305500
0.305500
0.305500
0.305500
0.290723
0.275725
0.260566
0.244672
0.228467
0.211279
0.193622
0.175171
0.156463
0.137424
0.118649
0.100710
0.085829
0.074829
0.064930
0.053973
0.041252
0.041010
0.040835
0.040654
0.040516
0.040370
0.040221
0.040089
0.040003
0.039897
0.039827
0.039818
0.039818
0.039800
0.039724
0.039758
0.039720
0.041256
0.041262
0.041293
0.041357
0.041430
0.041465
0.041518
0.041578
0.041943
0.041979
0.042050
0.042122
0.042198
0.042252
0.042277
0.042311
0.042363
0.042399
0.042488
0.042517
0.042532
0.042660
0.042705
0.042776
0.042823
0.042919
0.043023
0.043087
0.043177
0.043262
0.043353
0.043439
0.043505
0.044580
0.044666
0.044821
0.044934
0.045728
0.045859
0.046144
0.046295
0.046462
0.046637
0.048546
0.048727
0.048933
0.049162
0.052100
0.052319
0.055572
0.056613
0.058895
0.059249
0.060080
0.061304
0.062893
0.064863
0.067058
0.069736
0.072948
0.076894
0.081499
0.086644
0.091323
0.095335
0.098580
0.101382
0.103451
0.105483
0.107691
0.110991
0.115039
0.117333
0.120667
0.124631
0.129142
0.135208
0.141618
0.034402
0.030319
0.027018
0.024181
0.021935
0.019455
0.017334
0.015341
0.013342
0.011546
0.010157
0.008443
0.007098
0.005797
0.004396
0.003210
0.054330
0.052532
0.051792
0.050865
0.050056
0.049245
0.048506
0.047803
0.047112
0.046441
0.045790
0.045146
0.044525
0.043918
0.043317
0.042736
0.042157
0.041601
0.041053
0.040519
0.039996
0.039478
0.038976
0.038485
0.038002
0.037532
0.037071
0.036620
0.036181
0.035749
0.035326
0.034914
0.034511
0.034117
0.033728
0.033349
0.032978
0.032612
0.032256
0.031906
0.031563
0.031228
0.030897
0.030576
0.030259
0.029948
0.029644
0.029345
0.029053
0.028763
0.028481
0.028202
0.027929
0.027662
0.027399
0.027142
0.026888
0.026638
0.026392
0.026146
0.025904
0.025664
0.025428
0.025194
0.024963
0.024735
0.024511
0.024290
0.024073
0.023859
0.023650
0.023443
0.023240
0.023040
0.022844
0.022649
0.022460
0.022271
0.022085
0.021902
0.021720
0.021540
0.021362
0.021187
0.021014
0.020843
0.020674
0.020507
0.020341
0.020178
0.020016
0.019857
0.019699
0.019544
0.019390
0.019239
0.019090
0.018942
0.018797
0.018653
0.018512
0.018372
0.018234
0.018098
0.017963
0.017830
0.017699
0.017569
0.017441
0.017314
0.017188
0.017064
0.016940
0.016817
0.016694
0.016572
0.016450
0.016326
0.016201
0.016073
0.015945
0.015815
0.015683
0.015552
0.015421
0.015290
0.015160
0.015031
0.014903
0.014776
0.014651
0.014527
0.014405
0.014283
0.014164
0.014045
0.013929
0.013813
0.013700
0.013587
0.013476
0.013367
0.013258
0.013151
0.013046
0.012941
0.012838
0.012736
0.012635
0.012535
0.012436
0.012338
0.012241
0.012145
0.012050
0.011956
0.011862
0.011768
0.011674
0.011581
0.011487
0.011393
0.011299
0.011204
0.011108
0.011011
0.010914
0.010815
0.010717
0.010614
0.010484
0.010356
0.010227
0.010101
0.009977
0.009854
0.009734
0.009613
0.009494
0.009376
0.009258
0.009141
0.009025
0.008909
0.008793
0.008678
0.008564
0.008449
0.008336
0.008223
0.008110
0.007998
0.007886
0.007774
0.007664
0.007554
0.007444
0.007336
0.007229
0.007123
0.007018
0.006914
0.006811
0.006711
0.006611
0.006514
0.006418
0.006324
0.006232
0.006141
0.006051
0.005963
0.005876
0.005789
0.005703
0.005618
0.005534
0.005449
0.005365
0.005281
0.005197
0.005113
0.005028
0.004943
0.004858
0.004773
0.004687
0.004601
0.004515
0.004428
0.004341
0.004254
0.004167
0.004079
0.003991
0.003903
0.003814
0.003726
0.003639
0.003551
0.003464
0.003380
0.003295
0.003216
0.003137
0.003061
0.002987
0.002916
0.002846
0.002778
0.002712
0.002648
0.002587
0.002532
0.002480
0.002426
0.002377
0.002329
0.002282
0.002236
0.002190
0.002145
0.002099
0.002052
0.002005
0.001958
0.001908
0.001857
0.001804
0.001748
0.001691
0.001631
0.001568
0.001504
0.001437
0.001367
0.001295
0.001222
0.001147
0.001072
0.000997
0.000921
0.000845
0.000772
0.000699
0.000627
0.000556
0.000495
0.000437
0.000383
0.000333
0.000286
0.000245
0.000208
0.000173
0.000141
0.000112
0.000082
0.036134
0.036951
0.037542
0.000826
0.000961
0.103203
0.000940
0.093560
0.036367
0.028088
0.080372
0.000883
0.016564
0.036830
0.007745
0.010802
0.063142
0.000860
0.000845
0.038006
0.002574
0.037551
0.057135
0.006177
0.038922
0.025786
0.038197
0.075601
0.113315
0.040661
0.001123
0.036139
0.036892
0.036536
0.036292
0.000622
0.052170
0.000637
0.043160
0.000944
0.036461
0.037095
0.037469
0.037394
0.000060
0.051102
0.000219
0.045242
0.033596
0.038935
0.000934
0.053408
0.004324
0.023445
0.000859
0.058020
0.070924
0.021114
0.087847
0.097596
0.011112
0.015107
0.000887
0.000908
0.038031
0.039597
0.014630
0.109831
0.124821
0.000965
0.105177
0.000972
0.041792
0.000897
0.037583
0.009377
0.000771
0.129441
0.005006
0.001432
0.003339
0.001685
0.001988
0.036423
0.036111
0.036213
0.036399
0.036910
0.037063
0.036252
0.037136
0.036713
0.036461
0.036396
0.036349
0.036322
0.038566
0.037999
0.037854
0.037726
0.050090
0.000433
0.050636
0.052851
0.034655
0.034166
0.001930
0.037468
0.001933
0.034402
0.039975
0.001744
0.015696
0.034809
0.011222
0.042582
0.001604
0.093179
0.002310
0.021092
0.050406
0.010279
0.001783
0.034146
0.049125
0.001462
0.047691
0.047466
0.034247
0.035876
0.004473
0.111992
0.047413
0.053378
0.000586
0.034678
0.031034
0.000794
0.055723
0.043210
0.005780
0.061043
0.000806
0.024993
0.040269
0.067033
0.002662
0.076238
0.019058
0.019312
0.084942
0.091953
0.000883
0.095818
0.001894
0.101458
0.038761
0.000946
0.057669
0.000882
0.108199
0.038156
0.092048
0.000852
0.012815
0.119491
0.037820
0.000796
0.007685
0.002378
0.000944
0.003064
0.037563
0.037479
0.035817
0.035545
0.035625
0.036358
0.036558
0.036239
0.035886
0.035920
0.035980
0.036323
0.035950
0.036283
0.051189
0.053595
0.036312
0.037066
0.036983
0.052714
0.037863
0.035898
0.038108
0.048792
0.049186
0.049339
0.008288
0.002764
0.086300
0.074124
0.008823
0.057596
0.035381
0.050132
0.040189
0.035128
0.001790
0.035989
0.012086
0.098910
0.109420
0.001811
0.002100
0.001214
0.034972
0.033975
0.001596
0.035404
0.034623
0.047952
0.017649
0.034160
0.033782
0.035340
0.038661
0.001768
0.091977
0.053494
0.050910
0.034493
0.001579
0.059274
0.065195
0.001910
0.089243
0.020581
0.014905
0.001837
0.080790
0.014039
0.046414
0.001745
0.001832
0.001866
0.049016
0.001580
0.004202
0.036572
0.036963
0.046598
0.095091
0.091928
0.001750
0.023014
0.028066
0.008762
0.047657
0.007117
0.005752
0.001798
0.003941
0.002701
0.034453
0.034388
0.034362
0.034102
0.034118
0.001605
0.034269
0.027768
0.030595
0.034140
0.049836
0.034326
0.034941
0.036392
0.034553
0.034490
0.034197
0.034270
0.035973
0.035087
0.047834
0.048469
0.047612
0.034374
0.048813
0.005642
0.002276
0.051382
0.047299
0.044990
0.037862
0.053756
0.033257
0.032707
0.036163
0.002902
0.082217
0.028806
0.002650
0.013778
0.033219
0.002300
0.002867
0.086670
0.003683
0.023275
0.002205
0.046057
0.008362
0.033033
0.032815
0.033669
0.002860
0.033243
0.002872
0.040535
0.051625
0.054860
0.061371
0.001935
0.070595
0.038826
0.035325
0.011564
0.082276
0.002556
0.035651
0.026831
0.045935
0.010947
0.104709
0.017221
0.075099
0.046008
0.001878
0.046299
0.006695
0.005276
0.003288
0.003590
0.077107
0.036053
0.002812
0.002876
0.035115
0.002928
0.034681
0.034283
0.083510
0.033907
0.034343
0.034167
0.034165
0.005345
0.033395
0.033865
0.035040
0.046739
0.032940
0.001602
0.033044
0.032951
0.033559
0.019441
0.036429
0.028613
0.035802
0.034598
0.037628
0.047769
0.046162
0.047132
0.046650
0.006981
0.005302
0.033147
0.045949
0.085667
0.034659
0.046610
0.047950
0.043843
0.054555
0.003971
0.003865
0.074868
0.003454
0.064657
0.031760
0.053855
0.010825
0.013076
0.047195
0.031894
0.002193
0.042892
0.045558
0.032671
0.044797
0.045450
0.071974
0.034474
0.003676
0.007866
0.002900
0.033304
0.046758
0.021588
0.004604
0.002543
0.003044
0.007077
0.032930
0.032830
0.002325
0.002259
0.022349
0.032774
0.046039
0.032960
0.077411
0.096233
0.054344
0.033473
0.032740
0.047446
0.048254
0.004921
0.002856
0.034816
0.084496
0.039275
0.034071
0.033471
0.002982
0.019421
0.044740
0.091700
0.032887
0.006339
0.024981
0.003042
0.002604
0.015576
0.078778
0.009999
0.004917
0.035701
0.038530
0.036692
0.013647
0.032732
0.002705
0.032659
0.032749
0.077492
0.002327
0.032519
0.037804
0.037534
0.034154
0.043982
0.043199
0.032742
0.032801
0.045803
0.031937
0.028999
0.032943
0.029965
0.002144
0.045320
0.032829
0.050784
0.045588
0.032355
0.032940
0.045262
0.032104
0.031484
0.035566
0.038498
0.047105
0.002967
0.042667
0.005442
0.020675
0.003624
0.031911
0.002710
0.076373
0.031654
0.003444
0.031693
0.042270
0.045023
0.034082
0.026488
0.002117
0.013067
0.009537
0.003359
0.003752
0.033074
0.044509
0.002779
0.043460
0.031326
0.044480
0.041495
0.066632
0.031631
0.031918
0.014890
0.004097
0.011352
0.075522
0.004069
0.004344
0.061676
0.003934
0.007527
0.002416
0.044026
0.083600
0.073766
0.071827
0.024672
0.006006
0.017613
0.004048
0.003994
0.036625
0.021570
0.034527
0.044208
0.018857
0.091200
0.044819
0.031873
0.032689
0.032855
0.033755
0.030663
0.031641
0.031553
0.044951
0.045710
0.008977
0.003967
0.031632
0.050199
0.032723
0.033115
0.032691
0.032692
0.037613
0.002953
0.002007
0.047659
0.045390
0.045869
0.034207
0.032632
0.041729
0.005069
0.031114
0.101766
0.044141
0.033485
0.063877
0.039289
0.031646
0.044847
0.044637
0.031441
0.032248
0.005034
0.065442
0.004063
0.055471
0.012844
0.005123
0.020376
0.014478
0.005437
0.002595
0.040409
0.030920
0.004626
0.051232
0.026148
0.031431
0.003117
0.066777
0.064112
0.005160
0.031342
0.035586
0.003212
0.041872
0.038465
0.031684
0.032384
0.031550
0.051400
0.031718
0.029860
0.043023
0.033369
0.031451
0.016967
0.031391
0.016269
0.031718
0.010774
0.022836
0.004157
0.047701
0.079149
0.004076
0.001624
0.002011
0.003551
0.043072
0.002362
0.043486
0.003607
0.048322
0.005651
0.007064
0.028134
0.008698
0.003020
0.009085
0.004902
0.040066
0.044315
0.043347
0.043587
0.070724
0.034995
0.036910
0.031455
0.086515
0.004086
0.030598
0.031349
0.002728
0.043929
0.030465
0.062824
0.043684
0.043260
0.031330
0.032719
0.031502
0.030949
0.032989
0.002267
0.031453
0.028220
0.044661
0.004289
0.052527
0.043637
0.032752
0.002957
0.042351
0.032831
0.044075
0.041547
0.005928
0.003588
0.007456
0.003267
0.002565
0.029750
0.002547
0.001967
0.030553
0.010403
0.039919
0.042121
0.004359
0.030100
0.022214
0.063305
0.042956
0.005174
0.003524
0.064134
0.004299
0.007120
0.004732
0.005225
0.033835
0.039217
0.042655
0.030761
0.029682
0.005464
0.040058
0.040639
0.042832
0.041965
0.040281
0.016064
0.059877
0.002096
0.071411
0.031642
0.066513
0.067988
0.024447
0.012754
0.029877
0.030489
0.030419
0.030407
0.005118
0.030637
0.003042
0.005450
0.003356
0.045378
0.010506
0.039909
0.075388
0.031423
0.005494
0.004958
0.001985
0.018609
0.035812
0.004262
0.034487
0.037513
0.040397
0.042387
0.030557
0.066475
0.031849
0.031178
0.031331
0.030400
0.029972
0.005144
0.031468
0.030255
0.074323
0.030162
0.042874
0.043494
0.031602
0.031332
0.043399
0.000846
0.042882
0.053597
0.042837
0.004248
0.043165
0.016407
0.032159
0.003842
0.044732
0.030992
0.006262
0.006415
0.057153
0.046010
0.029088
0.010803
0.016015
0.003794
0.029850
0.031548
0.021862
0.001970
0.038482
0.002926
0.002455
0.029062
0.039953
0.030351
0.001562
0.005639
0.041956
0.041837
0.006673
0.052138
0.060717
0.058225
0.004343
0.029388
0.030723
0.029980
0.025684
0.030526
0.022664
0.001655
0.033378
0.001362
0.060436
0.004391
0.042460
0.008797
0.006050
0.041767
0.042247
0.006512
0.029609
0.008857
0.042909
0.032654
0.003208
0.003575
0.041812
0.003661
0.030070
0.003985
0.004457
0.005189
0.040477
0.051281
0.006735
0.020208
0.036613
0.006682
0.040767
0.038178
0.014197
0.034492
0.030361
0.030366
0.030223
0.029088
0.031103
0.030195
0.027943
0.030163
0.018042
0.029714
0.046338
0.031495
0.043709
0.004919
0.030593
0.042377
0.042201
0.012228
0.003647
0.023819
0.064638
0.057027
0.033200
0.006605
0.049416
0.038991
0.009342
0.015724
0.004118
0.003754
0.019646
0.003316
0.051047
0.001633
0.023263
0.029478
0.038336
0.036571
0.005075
0.040189
0.011908
0.040905
0.030253
0.031502
0.006394
0.038186
0.005012
0.041559
0.023602
0.004519
0.029721
0.028242
0.005411
0.002017
0.047081
0.011534
0.043119
0.029421
0.029638
0.029559
0.030717
0.054217
0.006154
0.005201
0.007732
0.040755
0.003885
0.003448
0.005968
0.027532
0.006340
0.008154
0.057012
0.057800
0.002043
0.054553
0.038521
0.028702
0.006793
0.040253
0.041395
0.039367
0.000723
0.035536
0.028911
0.034711
0.029564
0.004716
0.041534
0.030261
0.028478
0.041096
0.030509
0.041237
0.028815
0.030342
0.030419
0.028388
0.000038
0.028622
0.025492
0.013731
0.041529
0.007535
0.041220
0.062163
0.047771
0.029675
0.001130
0.028952
0.032156
0.041940
0.038443
0.017508
0.003753
0.002842
0.041626
0.002887
0.031045
0.028873
0.007166
0.024679
0.047975
0.015241
0.005445
0.037749
0.019112
0.027556
0.004388
0.003091
0.001989
0.039512
0.003675
0.046201
0.036608
0.003184
0.002764
0.037035
0.041676
0.037000
0.007564
0.029478
0.049094
0.001159
0.007835
0.024931
0.005726
0.005449
0.039838
0.006364
0.029442
0.030018
0.027756
0.028983
0.037568
0.013224
0.010242
0.006909
0.036342
0.000251
0.021325
0.004619
0.010727
0.050058
0.027349
0.028290
0.027918
0.051350
0.005267
0.007312
0.047720
0.005105
0.006852
0.002420
0.008158
0.031882
0.004227
0.008138
0.039785
0.039621
0.040532
0.035375
0.033614
0.000738
0.029356
0.040639
0.041128
0.040939
0.040116
0.030054
0.002363
0.029139
0.006406
0.027322
0.029739
0.018890
0.029393
0.004304
0.029112
0.028115
0.026857
0.040998
0.005259
0.028874
0.040546
0.027224
0.002194
0.013445
0.001625
0.003672
0.041037
0.000505
0.004190
0.055226
0.038029
0.040577
0.038325
0.031891
0.017060
0.001753
0.049289
0.030348
0.046309
0.040587
0.041080
0.001142
0.030697
0.008317
0.007616
0.041727
0.024969
0.014788
0.035151
0.009427
0.005785
0.004796
0.004957
0.026813
0.018348
0.009017
0.043657
0.001798
0.035179
0.036750
0.028733
0.002655
0.011574
0.029356
0.006241
0.006572
0.004938
0.001032
0.000668
0.005811
0.040528
0.007625
0.007668
0.004516
0.042750
0.041897
0.006015
0.041516
0.002170
0.036661
0.040132
0.038424
0.036013
0.007760
0.029657
0.020170
0.039149
0.036253
0.028636
0.028434
0.023425
0.006134
0.005180
0.011690
0.008269
0.002077
0.050166
0.035874
0.039748
0.032427
0.029490
0.040509
0.026873
0.027408
0.029171
0.034498
0.034280
0.005974
0.028730
0.026471
0.001596
0.039625
0.030197
0.029251
0.026332
0.040427
0.039668
0.027784
0.026110
0.028541
0.020893
0.003865
0.006341
0.007076
0.040500
0.038703
0.039664
0.038482
0.003517
0.019227
0.029279
0.016625
0.037123
0.013107
0.040177
0.002423
0.040304
0.003115
0.044660
0.036946
0.039628
0.004085
0.009683
0.003919
0.001215
0.027949
0.031279
0.008586
0.006751
0.036574
0.035946
0.031880
0.016265
0.005554
0.003767
0.004499
0.025270
0.004054
0.033149
0.039563
0.021007
0.003408
0.027384
0.039697
0.009571
0.000808
0.029010
0.008909
0.006053
0.035799
0.009168
0.001608
0.013521
0.008222
0.008138
0.009453
0.040150
0.038474
0.004956
0.036690
0.036539
0.025433
0.006327
0.032383
0.006197
0.032228
0.035123
0.005704
0.008541
0.005980
0.002030
0.007365
0.005500
0.010838
0.026523
0.033261
0.028641
0.029034
0.013390
0.033723
0.002397
0.036594
0.035696
0.038727
0.034761
0.004717
0.038108
0.037175
0.007494
0.016420
0.028392
0.028469
0.028482
0.027974
0.005848
0.026627
0.034843
0.029950
0.039476
0.039928
0.007918
0.028118
0.028011
0.024695
0.037695
0.039561
0.039917
0.003887
0.020688
0.003076
0.018204
0.028153
0.041187
0.026235
0.015452
0.039447
0.025867
0.000293
0.038652
0.035281
0.037541
0.045493
0.040537
0.004895
0.039105
0.025967
0.002178
0.038907
0.039884
0.002884
0.039310
0.034157
0.009439
0.034778
0.025113
0.031899
0.010220
0.029348
0.033089
0.005320
0.006134
0.006142
0.017701
0.002280
0.017150
0.036254
0.007148
0.034432
0.001871
0.002154
0.032061
0.027778
0.004172
0.002848
0.031207
0.000946
0.034266
0.031685
0.003094
0.005381
0.028094
0.027466
0.001528
0.036631
0.035741
0.012075
0.004424
0.004578
0.032508
0.008844
0.006476
0.023479
0.036916
0.004993
0.024698
0.035023
0.011668
0.006725
0.038671
0.025110
0.033577
0.008998
0.005583
0.008814
0.037709
0.035308
0.006557
0.037288
0.040507
0.002616
0.034705
0.028536
0.006664
0.008397
0.007019
0.000448
0.010464
0.014841
0.013489
0.008740
0.036374
0.033057
0.004223
0.038245
0.038999
0.027812
0.026977
0.001892
0.028277
0.034661
0.039355
0.036070
0.039526
0.028218
0.038819
0.028250
0.009469
0.011050
0.002103
0.038542
0.005419
0.038479
0.027047
0.008261
0.003348
0.038007
0.040264
0.027618
0.038166
0.035687
0.024631
0.003747
0.038228
0.038632
0.006739
0.039121
0.028914
0.008450
0.030906
0.027947
0.033573
0.009390
0.010024
0.007519
0.025208
0.037698
0.033154
0.035052
0.036002
0.030918
0.006231
0.026405
0.005108
0.034063
0.005414
0.004857
0.023830
0.025471
0.033901
0.013968
0.002418
0.003611
0.027039
0.030905
0.001223
0.001829
0.027000
0.002744
0.009692
0.003028
0.027673
0.010997
0.013268
0.026313
0.000274
0.002474
0.009618
0.035893
0.027569
0.035928
0.039745
0.035848
0.009210
0.005745
0.006848
0.010023
0.010376
0.020373
0.004355
0.007676
0.007655
0.016230
0.037617
0.037375
0.009327
0.027050
0.004341
0.038620
0.027569
0.031514
0.005352
0.023273
0.035691
0.032493
0.037295
0.038770
0.027432
0.010691
0.037607
0.027743
0.034897
0.007367
0.003277
0.024256
0.036512
0.004123
0.003988
0.031275
0.038172
0.038737
0.040342
0.030131
0.004587
0.001239
0.006920
0.027353
0.008178
0.037213
0.002157
0.001823
0.031808
0.004148
0.007019
0.043571
0.037834
0.038085
0.034824
0.022101
0.000574
0.038245
0.010938
0.031031
0.029305
0.001856
0.005931
0.012093
0.011110
0.027009
0.010541
0.032252
0.008230
0.011418
0.027610
0.012175
0.028294
0.007165
0.027325
0.030420
0.037148
0.008588
0.006459
0.017450
0.005869
0.037178
0.036125
0.009149
0.036191
0.002334
0.004796
0.005713
0.004406
0.026710
0.001012
0.004204
0.011762
0.030616
0.002353
0.003284
0.029667
0.002074
0.004608
0.023221
0.001477
0.000403
0.035929
0.026741
0.005857
0.010180
0.029196
0.029733
0.037017
0.029046
0.031058
0.006777
0.034085
0.009458
0.016822
0.036622
0.039103
0.034290
0.002585
0.026865
0.000176
0.009566
0.007424
0.004936
0.033695
0.033261
0.010131
0.014802
0.034676
0.005263
0.025999
0.012008
0.004998
0.011102
0.027195
0.025781
0.038285
0.033552
0.012540
0.036983
0.024161
0.023689
0.030261
0.037484
0.027294
0.037823
0.033685
0.001513
0.035107
0.002760
0.037471
0.004482
0.025778
0.034311
0.022022
0.043350
0.027360
0.037130
0.034840
0.007242
0.002084
0.026710
0.009998
0.027375
0.003871
0.021715
0.007596
0.011974
0.003558
0.029251
0.038157
0.037500
0.034643
0.035474
0.003853
0.004444
0.036404
0.004176
0.024115
0.000916
0.022183
0.029131
0.007850
0.028472
0.004371
0.048333
0.026248
0.010290
0.024528
0.026894
0.008702
0.028784
0.006262
0.032519
0.005883
0.034354
0.005200
0.027360
0.022841
0.008767
0.004798
0.034884
0.011067
0.036262
0.035491
0.017825
0.001604
0.018787
0.033473
0.004603
0.008137
0.029278
0.028297
0.010714
0.003770
0.026129
0.027970
0.000130
0.037130
0.006343
0.004432
0.002289
0.036582
0.001242
0.003182
0.007660
0.007357
0.000683
0.002753
0.024804
0.025247
0.032452
0.003424
0.014951
0.013066
0.011223
0.011297
0.035199
0.028828
0.025430
0.036746
0.032737
0.010340
0.001734
0.028452
0.032722
0.011631
0.031278
0.004626
0.013417
0.002508
0.005421
0.025326
0.005001
0.010354
0.000529
0.000794
0.022659
0.034034