# vtk DataFile Version 2.0
Test
ASCII
DATASET POLYDATA
POINTS 7341 float
0.000000 0.000000 0.000000
1.000000 0.000000 0.000000
1.000000 1.000000 0.000000
0.000000 1.000000 0.000000
0.000000 0.500000 0.000000
0.500000 0.500000 0.000000
1.000000 0.500000 0.000000
0.499000 0.499000 0.000000
0.900000 0.010000 0.000000
0.029412 0.000000 0.000000
0.058824 0.000000 0.000000
0.088235 0.000000 0.000000
0.117647 0.000000 0.000000
0.147059 0.000000 0.000000
0.176471 0.000000 0.000000
0.205882 0.000000 0.000000
0.235294 0.000000 0.000000
0.264706 0.000000 0.000000
0.294118 0.000000 0.000000
0.323529 0.000000 0.000000
0.352941 0.000000 0.000000
0.382353 0.000000 0.000000
0.411765 0.000000 0.000000
0.441176 0.000000 0.000000
0.470588 0.000000 0.000000
0.500000 0.000000 0.000000
0.529412 0.000000 0.000000
0.558824 0.000000 0.000000
0.588235 0.000000 0.000000
0.617647 0.000000 0.000000
0.647059 0.000000 0.000000
0.676471 0.000000 0.000000
0.705882 0.000000 0.000000
0.735294 0.000000 0.000000
0.764706 0.000000 0.000000
0.794118 0.000000 0.000000
0.823529 0.000000 0.000000
0.852941 0.000000 0.000000
0.882353 0.000000 0.000000
0.911765 0.000000 0.000000
0.941176 0.000000 0.000000
0.970588 0.000000 0.000000
1.000000 0.029412 0.000000
1.000000 0.058824 0.000000
1.000000 0.088235 0.000000
1.000000 0.117647 0.000000
1.000000 0.147059 0.000000
1.000000 0.176471 0.000000
1.000000 0.205882 0.000000
1.000000 0.235294 0.000000
1.000000 0.264706 0.000000
1.000000 0.294118 0.000000
1.000000 0.323529 0.000000
1.000000 0.352941 0.000000
1.000000 0.382353 0.000000
1.000000 0.411765 0.000000
1.000000 0.441176 0.000000
1.000000 0.470588 0.000000
1.000000 0.529412 0.000000
1.000000 0.558824 0.000000
1.000000 0.588235 0.000000
1.000000 0.617647 0.000000
1.000000 0.647059 0.000000
1.000000 0.676471 0.000000
1.000000 0.705882 0.000000
1.000000 0.735294 0.000000
1.000000 0.764706 0.000000
1.000000 0.794118 0.000000
1.000000 0.823529 0.000000
1.000000 0.852941 0.000000
1.000000 0.882353 0.000000
1.000000 0.911765 0.000000
1.000000 0.941176 0.000000
1.000000 0.970588 0.000000
0.970588 1.000000 0.000000
0.941176 1.000000 0.000000
0.911765 1.000000 0.000000
0.882353 1.000000 0.000000
0.852941 1.000000 0.000000
0.823529 1.000000 0.000000
0.794118 1.000000 0.000000
0.764706 1.000000 0.000000
0.735294 1.000000 0.000000
0.705882 1.000000 0.000000
0.676471 1.000000 0.000000
0.647059 1.000000 0.000000
0.617647 1.000000 0.000000
0.588235 1.000000 0.000000
0.558824 1.000000 0.000000
0.529412 1.000000 0.000000
0.500000 1.000000 0.000000
0.470588 1.000000 0.000000
0.441176 1.000000 0.000000
0.411765 1.000000 0.000000
0.382353 1.000000 0.000000
0.352941 1.000000 0.000000
0.323529 1.000000 0.000000
0.294118 1.000000 0.000000
0.264706 1.000000 0.000000
0.235294 1.000000 0.000000
0.205882 1.000000 0.000000
0.176471 1.000000 0.000000
0.147059 1.000000 0.000000
0.117647 1.000000 0.000000
0.088235 1.000000 0.000000
0.058824 1.000000 0.000000
0.029412 1.000000 0.000000
0.000000 0.970588 0.000000
0.000000 0.941176 0.000000
0.000000 0.911765 0.000000
0.000000 0.882353 0.000000
0.000000 0.852941 0.000000
0.000000 0.823529 0.000000
0.000000 0.794118 0.000000
0.000000 0.764706 0.000000
0.000000 0.735294 0.000000
0.000000 0.705882 0.000000
0.000000 0.676471 0.000000
0.000000 0.647059 0.000000
0.000000 0.617647 0.000000
0.000000 0.588235 0.000000
0.000000 0.558824 0.000000
0.000000 0.529412 0.000000
0.007246 0.500000 0.000000
0.014493 0.500000 0.000000
0.021739 0.500000 0.000000
0.028986 0.500000 0.000000
0.036232 0.500000 0.000000
0.043478 0.500000 0.000000
0.050725 0.500000 0.000000
0.057971 0.500000 0.000000
0.065217 0.500000 0.000000
0.072464 0.500000 0.000000
0.079710 0.500000 0.000000
0.086957 0.500000 0.000000
0.094203 0.500000 0.000000
0.101449 0.500000 0.000000
0.108696 0.500000 0.000000
0.115942 0.500000 0.000000
0.123188 0.500000 0.000000
0.130435 0.500000 0.000000
0.137681 0.500000 0.000000
0.144928 0.500000 0.000000
0.152174 0.500000 0.000000
0.159420 0.500000 0.000000
0.166667 0.500000 0.000000
0.173913 0.500000 0.000000
0.181159 0.500000 0.000000
0.188406 0.500000 0.000000
0.195652 0.500000 0.000000
0.202899 0.500000 0.000000
0.210145 0.500000 0.000000
0.217391 0.500000 0.000000
0.224638 0.500000 0.000000
0.231884 0.500000 0.000000
0.239130 0.500000 0.000000
0.246377 0.500000 0.000000
0.253623 0.500000 0.000000
0.260870 0.500000 0.000000
0.268116 0.500000 0.000000
0.275362 0.500000 0.000000
0.282609 0.500000 0.000000
0.289855 0.500000 0.000000
0.297101 0.500000 0.000000
0.304348 0.500000 0.000000
0.311594 0.500000 0.000000
0.318841 0.500000 0.000000
0.326087 0.500000 0.000000
0.333333 0.500000 0.000000
0.340580 0.500000 0.000000
0.347826 0.500000 0.000000
0.355072 0.500000 0.000000
0.362319 0.500000 0.000000
0.369565 0.500000 0.000000
0.376812 0.500000 0.000000
0.384058 0.500000 0.000000
0.391304 0.500000 0.000000
0.398551 0.500000 0.000000
0.405797 0.500000 0.000000
0.413043 0.500000 0.000000
0.420290 0.500000 0.000000
0.427536 0.500000 0.000000
0.434783 0.500000 0.000000
0.442029 0.500000 0.000000
0.449275 0.500000 0.000000
0.456522 0.500000 0.000000
0.463768 0.500000 0.000000
0.471014 0.500000 0.000000
0.478261 0.500000 0.000000
0.485507 0.500000 0.000000
0.492754 0.500000 0.000000
0.510004 0.500000 0.000000
0.520408 0.500000 0.000000
0.531229 0.500000 0.000000
0.542483 0.500000 0.000000
0.554187 0.500000 0.000000
0.566359 0.500000 0.000000
0.579019 0.500000 0.000000
0.592185 0.500000 0.000000
0.605877 0.500000 0.000000
0.620118 0.500000 0.000000
0.634929 0.500000 0.000000
0.650332 0.500000 0.000000
0.666352 0.500000 0.000000
0.683013 0.500000 0.000000
0.700340 0.500000 0.000000
0.718361 0.500000 0.000000
0.737103 0.500000 0.000000
0.756595 0.500000 0.000000
0.776867 0.500000 0.000000
0.797950 0.500000 0.000000
0.819877 0.500000 0.000000
0.842681 0.500000 0.000000
0.866398 0.500000 0.000000
0.891064 0.500000 0.000000
0.916716 0.500000 0.000000
0.943396 0.500000 0.000000
0.971143 0.500000 0.000000
0.000000 0.470588 0.000000
0.000000 0.441176 0.000000
0.000000 0.411765 0.000000
0.000000 0.382353 0.000000
0.000000 0.352941 0.000000
0.000000 0.323529 0.000000
0.000000 0.294118 0.000000
0.000000 0.264706 0.000000
0.000000 0.235294 0.000000
0.000000 0.205882 0.000000
0.000000 0.176471 0.000000
0.000000 0.147059 0.000000
0.000000 0.117647 0.000000
0.000000 0.088235 0.000000
0.000000 0.058824 0.000000
0.000000 0.029412 0.000000
0.500341 0.497365 0.000000
0.501682 0.495729 0.000000
0.503023 0.494094 0.000000
0.504365 0.492458 0.000000
0.505706 0.490823 0.000000
0.507047 0.489187 0.000000
0.508388 0.487552 0.000000
0.509729 0.485916 0.000000
0.511070 0.484281 0.000000
0.512411 0.482645 0.000000
0.513753 0.481010 0.000000
0.515094 0.479375 0.000000
0.516435 0.477739 0.000000
0.517776 0.476104 0.000000
0.519117 0.474468 0.000000
0.520458 0.472833 0.000000
0.521799 0.471197 0.000000
0.523140 0.469562 0.000000
0.524482 0.467926 0.000000
0.525823 0.466291 0.000000
0.527164 0.464656 0.000000
0.528505 0.463020 0.000000
0.529846 0.461385 0.000000
0.531187 0.459749 0.000000
0.532528 0.458114 0.000000
0.533870 0.456478 0.000000
0.535211 0.454843 0.000000
0.536552 0.453207 0.000000
0.537893 0.451572 0.000000
0.539234 0.449936 0.000000
0.540575 0.448301 0.000000
0.541916 0.446666 0.000000
0.543258 0.445030 0.000000
0.544599 0.443395 0.000000
0.545940 0.441759 0.000000
0.547281 0.440124 0.000000
0.548622 0.438488 0.000000
0.549963 0.436853 0.000000
0.551304 0.435217 0.000000
0.552645 0.433582 0.000000
0.553987 0.431946 0.000000
0.555328 0.430311 0.000000
0.556669 0.428676 0.000000
0.558010 0.427040 0.000000
0.559351 0.425405 0.000000
0.560692 0.423769 0.000000
0.562033 0.422134 0.000000
0.563375 0.420498 0.000000
0.564716 0.418863 0.000000
0.566057 0.417227 0.000000
0.567398 0.415592 0.000000
0.568739 0.413957 0.000000
0.570080 0.412321 0.000000
0.571421 0.410686 0.000000
0.572763 0.409050 0.000000
0.574104 0.407415 0.000000
0.575445 0.405779 0.000000
0.576786 0.404144 0.000000
0.578127 0.402508 0.000000
0.579468 0.400873 0.000000
0.580809 0.399237 0.000000
0.582151 0.397602 0.000000
0.583492 0.395967 0.000000
0.584833 0.394331 0.000000
0.586174 0.392696 0.000000
0.587515 0.391060 0.000000
0.588856 0.389425 0.000000
0.590197 0.387789 0.000000
0.591538 0.386154 0.000000
0.592880 0.384518 0.000000
0.594221 0.382883 0.000000
0.595562 0.381247 0.000000
0.596903 0.379612 0.000000
0.598244 0.377977 0.000000
0.599585 0.376341 0.000000
0.600926 0.374706 0.000000
0.602268 0.373070 0.000000
0.603609 0.371435 0.000000
0.604950 0.369799 0.000000
0.606291 0.368164 0.000000
0.607632 0.366528 0.000000
0.608973 0.364893 0.000000
0.610314 0.363258 0.000000
0.611656 0.361622 0.000000
0.612997 0.359987 0.000000
0.614338 0.358351 0.000000
0.615679 0.356716 0.000000
0.617020 0.355080 0.000000
0.618361 0.353445 0.000000
0.619702 0.351809 0.000000
0.621043 0.350174 0.000000
0.622385 0.348538 0.000000
0.623726 0.346903 0.000000
0.625067 0.345268 0.000000
0.626408 0.343632 0.000000
0.627749 0.341997 0.000000
0.629090 0.340361 0.000000
0.630431 0.338726 0.000000
0.631773 0.337090 0.000000
0.633114 0.335455 0.000000
0.634455 0.333819 0.000000
0.635796 0.332184 0.000000
0.637137 0.330548 0.000000
0.638478 0.328913 0.000000
0.639819 0.327278 0.000000
0.641161 0.325642 0.000000
0.642502 0.324007 0.000000
0.643843 0.322371 0.000000
0.645184 0.320736 0.000000
0.646525 0.319100 0.000000
0.647866 0.317465 0.000000
0.649207 0.315829 0.000000
0.650548 0.314194 0.000000
0.651890 0.312559 0.000000
0.653231 0.310923 0.000000
0.654572 0.309288 0.000000
0.655913 0.307652 0.000000
0.657254 0.306017 0.000000
0.658595 0.304381 0.000000
0.659936 0.302746 0.000000
0.661278 0.301110 0.000000
0.662619 0.299475 0.000000
0.663960 0.297839 0.000000
0.665301 0.296204 0.000000
0.666642 0.294569 0.000000
0.667983 0.292933 0.000000
0.669324 0.291298 0.000000
0.670666 0.289662 0.000000
0.672007 0.288027 0.000000
0.673348 0.286391 0.000000
0.674689 0.284756 0.000000
0.676030 0.283120 0.000000
0.677371 0.281485 0.000000
[...]
POINT_DATA 7341
SCALARS UX float 1
LOOKUP_TABLE default
0.000000
0.000000
0.163000
0.163000
0.080522
0.068019
0.064867
0.065718
0.000501
-0.000000
0.000000
0.000000
0.000000
0.000000
0.000000
0.000000
0.000000
0.000000
0.000000
0.000000
0.000000
0.000000
0.000000
0.000000
0.000000
0.000000
0.000000
0.000000
0.000000
0.000000
0.000000
0.000000
0.000000
0.000000
0.000000
0.000000
0.000000
0.000000
0.000000
0.000000
0.000000
-0.000000
0.003395
0.005254
0.007190
0.009360
0.011837
0.014587
0.017638
0.020779
0.024286
0.027997
0.031936
0.036128
0.040568
0.045416
0.050969
0.057147
0.072745
0.079775
0.086315
0.092335
0.098078
0.103702
0.109180
0.114575
0.119949
0.125318
0.130683
0.136053
0.141430
0.146812
0.152200
0.157599
0.163000
0.163000
0.163000
0.163000
0.163000
0.163000
0.163000
0.163000
0.163000
0.163000
0.163000
0.163000
0.163000
0.163000
0.163000
0.163000
0.163000
0.163000
0.163000
0.163000
0.163000
0.163000
0.163000
0.163000
0.163000
0.163000
0.163000
0.163000
0.163000
0.163000
0.163000
0.163000
0.163000
0.157970
0.152946
0.147920
0.142915
0.137916
0.132951
0.127991
0.123075
0.118200
0.113344
0.108562
0.103825
0.099132
0.094470
0.089811
0.085083
0.079320
0.078559
0.077554
0.076680
0.076127
0.075967
0.075599
0.075694
0.073999
0.072878
0.073083
0.073206
0.072715
0.074860
0.075353
0.077638
0.073247
0.076098
0.076758
0.077154
0.076877
0.076957
0.074032
0.074425
0.074954
0.076819
0.074255
0.074615
0.075122
0.075284
0.075390
0.073937
0.073021
0.072606
0.069136
0.069419
0.068559
0.064058
0.068007
0.064475
0.065045
0.061276
0.062578
0.064187
0.061906
0.062939
0.064238
0.065220
0.066536
0.064754
0.068614
0.068096
0.069711
0.069010
0.070741
0.070183
0.071564
0.071400
0.071258
0.070849
0.072152
0.071898
0.071703
0.070885
0.071404
0.069911
0.070162
0.069138
0.066977
0.066340
0.065733
0.065657
0.065587
0.065511
0.065439
0.065394
0.065293
0.065250
0.064906
0.064809
0.064660
0.064437
0.063953
0.063568
0.063330
0.063291
0.063272
0.063292
0.063341
0.063419
0.063534
0.063693
0.063903
0.064180
0.064500
0.063332
0.056698
0.051084
0.046033
0.041692
0.037663
0.034029
0.030508
0.027196
0.023927
0.020654
0.017292
0.013944
0.010553
0.007079
0.003893
0.064289
0.062516
0.061489
0.060393
0.059615
0.058850
0.058144
0.057393
0.056663
0.055965
0.055369
0.054790
0.054251
0.053711
0.053177
0.052705
0.052245
0.051801
0.051360
0.050959
0.050579
0.050204
0.049855
0.049520
0.049195
0.048888
0.048587
0.048297
0.048020
0.047750
0.047486
0.047229
0.046978
0.046732
0.046489
0.046250
0.046015
0.045782
0.045552
0.045326
0.045101
0.044879
0.044659
0.044442
0.044225
0.044010
0.043797
0.043583
0.043371
0.043159
0.042949
0.042738
0.042528
0.042318
0.042107
0.041897
0.041686
0.041475
0.041264
0.041053
0.040841
0.040627
0.040415
0.040201
0.039987
0.039772
0.039556
0.039339
0.039123
0.038905
0.038687
0.038469
0.038250
0.038031
0.037812
0.037592
0.037371
0.037150
0.036929
0.036706
0.036483
0.036259
0.036034
0.035809
0.035583
0.035358
0.035132
0.034905
0.034679
0.034453
0.034226
0.033999
0.033772
0.033545
0.033317
0.033089
0.032861
0.032633
0.032405
0.032177
0.031948
0.031719
0.031491
0.031261
0.031032
0.030802
0.030573
0.030343
0.030112
0.029882
0.029652
0.029422
0.029192
0.028962
0.028733
0.028503
0.028274
0.028044
0.027815
0.027587
0.027358
0.027130
0.026902
0.026675
0.026447
0.026221
0.025994
0.025768
0.025543
0.025317
0.025093
0.024868
0.024645
0.024421
0.024199
0.023976
0.023755
0.023533
0.023313
0.023093
0.022874
0.022655
0.022437
0.022219
0.022003
0.021786
0.021571
0.021356
0.021143
0.020929
0.020717
0.020505
0.020294
0.020084
0.019875
0.019667
0.019459
0.019253
0.019047
0.018842
0.018638
0.018435
0.018233
0.018032
0.017831
0.017632
0.017434
0.017237
0.017040
0.016845
0.016651
0.016458
0.016265
0.016074
0.015884
0.015695
0.015507
0.015320
0.015133
0.014948
0.014765
0.014581
0.014399
0.014218
0.014038
0.013860
0.013682
0.013505
0.013329
0.013155
0.012981
0.012809
0.012637
0.012467
0.012298
0.012130
0.011964
0.011798
0.011634
0.011471
0.011308
0.011147
0.010987
0.010828
0.010670
0.010513
0.010357
0.010202
0.010048
0.009895
0.009743
0.009593
0.009443
0.009295
0.009148
0.009002
0.008857
0.008713
0.008570
0.008428
0.008288
0.008148
0.008010
0.007873
0.007737
0.007602
0.007468
0.007335
0.007203
0.007072
0.006943
0.006814
0.006687
0.006561
0.006436
0.006312
0.006189
0.006068
0.005947
0.005828
0.005709
0.005592
0.005476
0.005361
0.005247
0.005134
0.005023
0.004913
0.004803
0.004695
0.004589
0.004483
0.004378
0.004275
0.004172
0.004071
0.003971
0.003872
0.003774
0.003677
0.003582
0.003487
0.003394
0.003302
0.003210
0.003120
0.003030
0.002942
0.002855
0.002768
0.002682
0.002598
0.002514
0.002431
0.002348
0.002267
0.002187
0.002107
0.002028
0.001949
0.001871
0.001794
0.001717
0.001640
0.001564
0.001488
0.001411
0.001335
0.001259
0.001182
0.001104
0.001027
0.000949
0.000871
0.000794
0.000718
0.000642
0.000573
0.053079
0.053083
0.055034
0.001602
0.001231
0.057041
0.001236
0.057031
0.055349
0.027241
0.057028
0.001362
0.033179
0.059970
0.013582
0.022852
0.058114
0.001179
0.002428
0.056565
0.006365
0.065253
0.059587
0.012544
0.057311
0.049530
0.067931
0.039996
0.056745
0.058891
0.003026
0.053062
0.053714
0.057008
0.054199
0.000806
0.059228
0.002715
0.059818
0.001333
0.052912
0.054186
0.055207
0.063902
0.001556
0.061702
0.001226
0.060120
0.062509
0.070660
0.001135
0.059087
0.008403
0.045333
0.001263
0.058618
0.056837
0.040831
0.056690
0.057066
0.016881
0.020186
0.001372
0.001341
0.056570
0.057873
0.029566
0.050035
0.056994
0.001218
0.056973
0.001205
0.031309
0.001354
0.056047
0.019443
0.001757
0.056888
0.009048
0.001852
0.004605
0.000388
0.001368
0.053045
0.053126
0.053490
0.053022
0.053239
0.054590
0.053985
0.062171
0.058854
0.056418
0.056113
0.055860
0.054965
0.069188
0.067236
0.066732
0.066385
0.060183
0.001044
0.059806
0.063847
0.052448
0.051402
0.002875
0.055084
0.002565
0.052537
0.030472
0.002635
0.031814
0.055497
0.016953
0.057052
0.002319
0.051919
0.006339
0.041246
0.054789
0.021697
0.003492
0.051565
0.060168
0.001973
0.057562
0.055383
0.051522
0.064385
0.007978
0.050484
0.060868
0.061006
0.000859
0.054391
0.058330
0.001003
0.059809
0.059702
0.010886
0.058726
0.001236
0.048461
0.058551
0.058011
0.004294
0.056934
0.037395
0.023132
0.057062
0.057076
0.001217
0.057243
0.002559
0.057117
0.057246
0.001174
0.035389
0.001185
0.056695
0.056742
0.044492
0.001430
0.026553
0.056900
0.056456
0.002055
0.016056
0.005473
0.002824
0.004169
0.055736
0.055397
0.052978
0.052473
0.052414
0.053544
0.053343
0.053921
0.053207
0.053578
0.054391
0.057679
0.055293
0.060070
0.060386
0.062953
0.061801
0.063953
0.064948
0.060935
0.067689
0.064633
0.068833
0.058171
0.061054
0.059158
0.014028
0.003884
0.053228
0.052482
0.014376
0.053075
0.053863
0.055436
0.056771
0.058064
0.003192
0.054276
0.025303
0.051397
0.050996
0.004300
0.005385
0.001747
0.053304
0.062592
0.002169
0.062921
0.052631
0.057945
0.035291
0.051782
0.051208
0.060070
0.055895
0.002723
0.044105
0.053901
0.054242
0.056247
0.002400
0.035473
0.052586
0.002535
0.052171
0.023682
0.019938
0.002556
0.052586
0.028685
0.058955
0.002493
0.002541
0.002995
0.057965
0.002353
0.008079
0.054626
0.054790
0.056364
0.051646
0.052175
0.003848
0.044780
0.026930
0.018389
0.059502
0.014842
0.011490
0.002643
0.007304
0.004701
0.052735
0.052130
0.051893
0.051360
0.051381
0.002235
0.051624
0.053255
0.057959
0.051512
0.055824
0.052272
0.062979
0.066157
0.053958
0.053279
0.052679
0.052260
0.064935
0.061451
0.058632
0.058733
0.056955
0.054625
0.057092
0.011460
0.004201
0.060150
0.057077
0.058467
0.055266
0.062683
0.051753
0.050478
0.053293
0.004332
0.048594
0.026875
0.003979
0.028221
0.052839
0.003516
0.005953
0.047385
0.007417
0.045300
0.003238
0.051967
0.017529
0.051242
0.050597
0.061079
0.004085
0.054337
0.005135
0.056227
0.033159
0.053285
0.052634
0.002614
0.052683
0.055464
0.053023
0.024191
0.052084
0.003908
0.054035
0.051671
0.052443
0.016436
0.051153
0.034559
0.039578
0.055971
0.004740
0.057789
0.013901
0.010493
0.007812
0.007977
0.052302
0.054254
0.003921
0.004026
0.053660
0.004840
0.052790
0.051724
0.048282
0.051301
0.053477
0.051965
0.051874
0.010842
0.062110
0.051216
0.062125
0.056900
0.051329
0.002461
0.051315
0.051485
0.061780
0.038244
0.066606
0.054322
0.065037
0.058518
0.054269
0.060706
0.056993
0.057497
0.055979
0.012611
0.009738
0.053194
0.055666
0.052327
0.060260
0.056607
0.056091
0.058297
0.063073
0.007103
0.005599
0.045506
0.005353
0.048842
0.050407
0.049930
0.016187
0.026974
0.050527
0.051869
0.003176
0.050536
0.052691
0.050616
0.056191
0.055624
0.049159
0.052635
0.005348
0.016813
0.006376
0.056712
0.051810
0.042246
0.010420
0.003731
0.004383
0.012507
0.051437
0.050847
0.003517
0.006089
0.024305
0.050621
0.054879
0.050629
0.039871
0.046114
0.048738
0.058362
0.051594
0.056369
0.050031
0.009234
0.005534
0.052756
0.047878
0.030005
0.052397
0.051951
0.006978
0.038358
0.054619
0.046995
0.055099
0.013701
0.048321
0.004768
0.004013
0.031556
0.048255
0.021019
0.010719
0.053132
0.054111
0.053508
0.018823
0.050942
0.003915
0.050433
0.051102
0.049496
0.003583
0.060171
0.053786
0.068594
0.051409
0.059950
0.056308
0.050779
0.050962
0.056251
0.059897
0.055188
0.052322
0.056974
0.003175
0.055098
0.053430
0.049910
0.054266
0.050241
0.059615
0.055233
0.050627
0.049637
0.052050
0.029557
0.047723
0.004604
0.048765
0.010822
0.040596
0.007125
0.050357
0.004102
0.044421
0.054672
0.005379
0.049818
0.050560
0.053496
0.051616
0.050796
0.003031
0.018212
0.020201
0.005046
0.005535
0.051175
0.052428
0.004238
0.048201
0.051013
0.054979
0.055166
0.048510
0.058612
0.053753
0.030354
0.007756
0.023791
0.044996
0.008231
0.009683
0.049202
0.005735
0.016310
0.003731
0.053420
0.043036
0.048799
0.045261
0.047612
0.013249
0.021635
0.006872
0.006146
0.052788
0.023795
0.051730
0.054260
0.037455
0.043592
0.057072
0.050470
0.050835
0.051949
0.052211
0.057714
0.050211
0.050500
0.055780
0.055120
0.014403
0.005822
0.052138
0.058618
0.050465
0.059069
0.050569
0.050688
0.052698
0.004154
0.004811
0.051664
0.048032
0.055014
0.051715
0.050462
0.057144
0.009450
0.058603
0.046980
0.054031
0.051329
0.036420
0.054443
0.049725
0.055015
0.054657
0.049968
0.050155
0.007662
0.042853
0.006399
0.046655
0.017911
0.009378
0.040140
0.029737
0.010691
0.003907
0.049347
0.049470
0.006930
0.032835
0.049859
0.049716
0.004867
0.041892
0.046392
0.009288
0.049564
0.051570
0.005016
0.054406
0.052999
0.050006
0.050796
0.049792
0.047017
0.050346
0.056079
0.049840
0.050548
0.050706
0.034156
0.049541
0.020699
0.056422
0.022767
0.044423
0.008924
0.054707
0.043783
0.006596
0.002187
0.004828
0.005445
0.049354
0.005973
0.052727
0.005362
0.055722
0.012319
0.012233
0.026435
0.013997
0.004672
0.019419
0.007348
0.054457
0.053832
0.055330
0.054455
0.046383
0.051840
0.052430
0.049930
0.042104
0.006144
0.049550
0.049914
0.004127
0.054251
0.050813
0.035920
0.053765
0.053329
0.049513
0.051006
0.049842
0.057286
0.051448
0.005140
0.052662
0.053584
0.054217
0.008278
0.054488
0.053927
0.050670
0.004607
0.050941
0.050400
0.054506
0.057727
0.009179
0.005646
0.012464
0.005066
0.005926
0.026793
0.003844
0.003877
0.049198
0.021955
0.049308
0.051109
0.006698
0.053746
0.043293
0.035880
0.052106
0.008272
0.005529
0.043432
0.006825
0.015312
0.007201
0.009034
0.050650
0.052992
0.052999
0.049346
0.055322
0.011538
0.048329
0.049230
0.053546
0.053704
0.047977
0.020743
0.046317
0.003000
0.040342
0.049337
0.042506
0.041158
0.047041
0.026521
0.049953
0.048836
0.048861
0.048786
0.007950
0.052950
0.004705
0.010269
0.005225
0.053376
0.015768
0.029832
0.038960
0.049661
0.010552
0.007460
0.003659
0.037124
0.051277
0.008045
0.050899
0.051851
0.053481
0.052189
0.049189
0.046023
0.049990
0.049611
0.049776
0.049045
0.048861
0.010520
0.049791
0.049555
0.038847
0.051103
0.053281
0.053184
0.050232
0.057139
0.054730
0.001027
0.050157
0.046950
0.052939
0.006677
0.053931
0.033265
0.049493
0.006070
0.054085
0.048488
0.010035
0.011321
0.040318
0.045649
0.047966
0.016026
0.032630
0.005955
0.048376
0.027307
0.042622
0.003868
0.048350
0.004534
0.003708
0.051670
0.049564
0.048811
0.003057
0.008753
0.052599
0.052952
0.013578
0.044241
0.043771
0.039033
0.006911
0.048619
0.049204
0.048443
0.048686
0.049191
0.024386
0.002239
0.049905
0.003186
0.038144
0.006846
0.053137
0.013955
0.009392
0.051556
0.053399
0.011926
0.054329
0.018849
0.051833
0.049633
0.004966
0.006883
0.052097
0.005752
0.049722
0.006307
0.006790
0.008607
0.048871
0.032719
0.014161
0.039866
0.051535
0.012692
0.053062
0.051852
0.029276
0.050510
0.048935
0.048762
0.048623
0.049752
0.049078
0.048822
0.052671
0.048748
0.036198
0.051396
0.045219
0.049815
0.052143
0.007878
0.049252
0.052545
0.052582
0.025539
0.005743
0.045779
0.037593
0.041108
0.049385
0.010477
0.038983
0.043957
0.014450
0.032043
0.006526
0.006954
0.038852
0.005208
0.036315
0.003097
0.044595
0.048084
0.048460
0.050977
0.007979
0.049913
0.024734
0.052491
0.048719
0.048672
0.010870
0.047741
0.008051
0.051228
0.024816
0.007208
0.048320
0.050127
0.008434
0.004420
0.044838
0.017559
0.045461
0.048057
0.048133
0.048052
0.048913
0.041643
0.009667
0.008327
0.014330
0.052666
0.006118
0.005400
0.009222
0.051421
0.010444
0.016994
0.044120
0.039748
0.002927
0.035192
0.048166
0.048628
0.013361
0.029808
0.051905
0.052339
0.002419
0.050569
0.048490
0.050293
0.048126
0.007544
0.052630
0.048806
0.048811
0.050686
0.048291
0.051364
0.047930
0.048774
0.048899
0.051835
0.001760
0.049853
0.047840
0.028292
0.052213
0.012422
0.051617
0.035473
0.044302
0.048285
0.001442
0.047716
0.048906
0.052323
0.048715
0.035222
0.005884
0.004427
0.052473
0.006044
0.048020
0.047299
0.011433
0.025139
0.039578
0.030944
0.008805
0.044030
0.037781
0.047315
0.006952
0.006020
0.003784
0.051732
0.005800
0.033719
0.047425
0.005023
0.004346
0.050879
0.042662
0.047956
0.012775
0.047996
0.041761
0.002538
0.014144
0.046544
0.009301
0.009303
0.049885
0.010127
0.047987
0.047625
0.048573
0.047511
0.047227
0.027017
0.021296
0.010929
0.047085
0.001653
0.041597
0.008022
0.015980
0.038136
0.049938
0.047031
0.046975
0.032641
0.008377
0.011807
0.046876
0.008207
0.010866
0.003698
0.015615
0.027330
0.006701
0.016512
0.043637
0.052135
0.050734
0.049974
0.049340
0.002262
0.047923
0.052168
0.051833
0.051524
0.050811
0.048079
0.005173
0.047676
0.011132
0.047416
0.048374
0.022325
0.047969
0.006842
0.047684
0.047547
0.049955
0.051964
0.008243
0.047402
0.043230
0.048553
0.005099
0.019426
0.002216
0.005761
0.050790
0.000600
0.006613
0.046073
0.048657
0.050888
0.051492
0.048389
0.034272
0.003258
0.036813
0.048707
0.042497
0.051158
0.052226
0.001522
0.047452
0.013609
0.012331
0.037768
0.025204
0.029738
0.042213
0.014507
0.009384
0.007658
0.008318
0.046346
0.036252
0.016794
0.034453
0.003189
0.046707
0.040935
0.047258
0.004195
0.017580
0.047735
0.009993
0.011197
0.007913
0.001652
0.001990
0.009466
0.045356
0.013295
0.012663
0.007179
0.036868
0.035390
0.009741
0.040946
0.003221
0.047620
0.029699
0.051241
0.050054
0.012537
0.047880
0.022996
0.050103
0.046819
0.047255
0.046991
0.044461
0.010007
0.008329
0.023979
0.016305
0.004407
0.032340
0.041818
0.051712
0.048488
0.047314
0.051543
0.047327
0.046682
0.047717
0.049701
0.042768
0.010246
0.047205
0.048375
0.002226
0.050159
0.047558
0.047784
0.046154
0.051286
0.050619
0.046704
0.047025
0.047039
0.040685
0.006094
0.011256
0.011229
0.051756
0.049105
0.050474
0.047411
0.005575
0.022357
0.047798
0.033227
0.050606
0.018979
0.051005
0.004999
0.051842
0.004953
0.039850
0.048058
0.049949
0.006443
0.019738
0.006947
0.002476
0.046213
0.047628
0.014140
0.011126
0.035926
0.049790
0.040875
0.032196
0.008963
0.006633
0.007122
0.044800
0.006414
0.039265
0.032470
0.023406
0.005431
0.046083
0.038112
0.019055
0.002017
0.046592
0.015473
0.010188
0.047322
0.016667
0.002325
0.019238
0.013124
0.013218
0.018025
0.029669
0.049127
0.007913
0.048047
0.034753
0.045886
0.010373
0.040383
0.010131
0.027389
0.046439
0.009232
0.014143
0.009596
0.003741
0.011947
0.009224
0.016223
0.045485
0.048756
0.046813
0.047053
0.026936
0.042907
0.003708
0.044065
0.046379
0.049950
0.049213
0.007534
0.050828
0.050413
0.012287
0.020994
0.046869
0.046957
0.046990
0.046494
0.009838
0.045752
0.042562
0.047060
0.049975
0.051281
0.012805
0.046718
0.046393
0.045809
0.033349
0.050731
0.051067
0.006167
0.040020
0.004940
0.035609
0.046593
0.031291
0.045577
0.020443
0.051418
0.047274
0.001566
0.049757
0.046915
0.048540
0.046840
0.048296
0.007816
0.050358
0.046087
0.004359
0.049717
0.051474
0.004623
0.050334
0.049068
0.015786
0.049014
0.025243
0.034043
0.015479
0.039505
0.042965
0.008539
0.009957
0.010262
0.034339
0.004446
0.021435
0.046440
0.011635
0.031614
0.003236
0.003244
0.047901
0.046160
0.006615
0.004617
0.041774
0.002078
0.046357
0.041274
0.005029
0.008660
0.046052
0.046011
0.002276
0.038218
0.047427
0.024358
0.007001
0.007256
0.027453
0.015018
0.010598
0.044113
0.050095
0.008270
0.044718
0.036441
0.017620
0.010996
0.049349
0.044309
0.048407
0.014858
0.009233
0.015693
0.049113
0.030379
0.010787
0.048522
0.045835
0.004179
0.046064
0.046331
0.011218
0.013297
0.011584
0.001601
0.019651
0.029434
0.019224
0.014387
0.047988
0.048285
0.006678
0.049852
0.050473
0.046107
0.045578
0.002749
0.046526
0.046727
0.051035
0.049677
0.050939
0.046671
0.049597
0.046728
0.018402
0.022076
0.003846
0.050965
0.008989
0.049900
0.045877
0.013239
0.005374
0.046960
0.050421
0.045941
0.049425
0.029400
0.045359
0.005971
0.049609
0.050177
0.011112
0.051113
0.047456
0.013947
0.047020
0.045497
0.048232
0.015721
0.017409
0.012529
0.025273
0.049622
0.036672
0.047409
0.046063
0.041933
0.010351
0.044884
0.008388
0.045587
0.008687
0.007716
0.043173
0.044460
0.045807
0.019575
0.003816
0.005784
0.045088
0.029633
0.002400
0.002675
0.045146
0.004484
0.016215
0.004963
0.046139
0.021546
0.026285
0.045015
0.001193
0.004907
0.016254
0.047604
0.045947
0.049432
0.047385
0.044198
0.015278
0.009484
0.011289
0.017988
0.019110
0.023113
0.007387
0.012406
0.012759
0.031718
0.049357
0.049011
0.014394
0.045505
0.006875
0.050353
0.045280
0.041575
0.008603
0.043508
0.047595
0.047688
0.050175
0.050556
0.045758
0.020510
0.048789
0.045791
0.048919
0.012067
0.005306
0.044511
0.048131
0.006551
0.006347
0.031609
0.049179
0.050772
0.039809
0.028259
0.007272
0.001877
0.011299
0.045631
0.013519
0.048774
0.003317
0.002753
0.047447
0.006549
0.011630
0.047138
0.049323
0.049952
0.046925
0.042285
0.001654
0.050686
0.022281
0.034815
0.040083
0.002634
0.009597
0.018044
0.016746
0.044453
0.017947
0.047364
0.013851
0.020833
0.033190
0.018130
0.029874
0.011826
0.038835
0.041953
0.049400
0.013512
0.010496
0.033576
0.009665
0.046326
0.049410
0.015335
0.044662
0.004423
0.007611
0.009200
0.006986
0.044855
0.002065
0.006692
0.022196
0.046578
0.003739
0.005361
0.046546
0.003214
0.007649
0.043059
0.002269
0.001369
0.047959
0.044856
0.009460
0.017145
0.040371
0.035133
0.048893
0.040948
0.036823
0.011279
0.046516
0.014563
0.021302
0.048418
0.045825
0.045484
0.004181
0.044936
0.000945
0.016006
0.012367
0.007851
0.048154
0.045349
0.017870
0.028950
0.046932
0.008585
0.044322
0.023079
0.007974
0.016868
0.045005
0.044310
0.050377
0.038445
0.024487
0.048724
0.043022
0.042732
0.046778
0.049393
0.045610
0.049997
0.045836
0.002770
0.047254
0.005429
0.049201
0.007098
0.044598
0.033290
0.041746
0.048627
0.045427
0.049928
0.048744
0.012019
0.003279
0.028162
0.017119
0.045761
0.006671
0.023763
0.012611
0.023736
0.005735
0.046588
0.050510
0.049708
0.047153
0.047674
0.006164
0.007664
0.048242
0.006590
0.043783
0.001417
0.042737
0.026485
0.013003
0.046990
0.006943
0.048690
0.044091
0.017435
0.028309
0.033678
0.013645
0.041046
0.010338
0.047405
0.009480
0.047067
0.008291
0.038418
0.041455
0.014700
0.007616
0.048641
0.016859
0.048301
0.044706
0.021893
0.002816
0.035718
0.046416
0.007310
0.013683
0.045923
0.045643
0.018200
0.006056
0.044040
0.032485
0.000909
0.049702
0.010286
0.007050
0.003653
0.049159
0.002340
0.005229
0.012791
0.011961
0.001201
0.004565
0.043393
0.043593
0.042973
0.006143
0.020233
0.024724
0.019837
0.020268
0.047599
0.040517
0.029858
0.048841
0.044895
0.017486
0.002677
0.035371
0.045211
0.021590
0.046855
0.007335
0.025784
0.004824
0.008688
0.026500
0.007969
0.015709
0.001498
0.001809
0.024201
0.046573