# vtk DataFile Version 2.0
Test
ASCII
DATASET POLYDATA
POINTS 7341 float
0.000000 0.000000 0.000000
1.000000 0.000000 0.000000
1.000000 1.000000 0.000000
0.000000 1.000000 0.000000
0.000000 0.500000 0.000000
0.500000 0.500000 0.000000
1.000000 0.500000 0.000000
0.499000 0.499000 0.000000
0.900000 0.010000 0.000000
0.029412 0.000000 0.000000
0.058824 0.000000 0.000000
0.088235 0.000000 0.000000
0.117647 0.000000 0.000000
0.147059 0.000000 0.000000
0.176471 0.000000 0.000000
0.205882 0.000000 0.000000
0.235294 0.000000 0.000000
0.264706 0.000000 0.000000
0.294118 0.000000 0.000000
0.323529 0.000000 0.000000
0.352941 0.000000 0.000000
0.382353 0.000000 0.000000
0.411765 0.000000 0.000000
0.441176 0.000000 0.000000
0.470588 0.000000 0.000000
0.500000 0.000000 0.000000
0.529412 0.000000 0.000000
0.558824 0.000000 0.000000
0.588235 0.000000 0.000000
0.617647 0.000000 0.000000
0.647059 0.000000 0.000000
0.676471 0.000000 0.000000
0.705882 0.000000 0.000000
0.735294 0.000000 0.000000
0.764706 0.000000 0.000000
0.794118 0.000000 0.000000
0.823529 0.000000 0.000000
0.852941 0.000000 0.000000
0.882353 0.000000 0.000000
0.911765 0.000000 0.000000
0.941176 0.000000 0.000000
0.970588 0.000000 0.000000
1.000000 0.029412 0.000000
1.000000 0.058824 0.000000
1.000000 0.088235 0.000000
1.000000 0.117647 0.000000
1.000000 0.147059 0.000000
1.000000 0.176471 0.000000
1.000000 0.205882 0.000000
1.000000 0.235294 0.000000
1.000000 0.264706 0.000000
1.000000 0.294118 0.000000
1.000000 0.323529 0.000000
1.000000 0.352941 0.000000
1.000000 0.382353 0.000000
1.000000 0.411765 0.000000
1.000000 0.441176 0.000000
1.000000 0.470588 0.000000
1.000000 0.529412 0.000000
1.000000 0.558824 0.000000
1.000000 0.588235 0.000000
1.000000 0.617647 0.000000
1.000000 0.647059 0.000000
1.000000 0.676471 0.000000
1.000000 0.705882 0.000000
1.000000 0.735294 0.000000
1.000000 0.764706 0.000000
1.000000 0.794118 0.000000
1.000000 0.823529 0.000000
1.000000 0.852941 0.000000
1.000000 0.882353 0.000000
1.000000 0.911765 0.000000
1.000000 0.941176 0.000000
1.000000 0.970588 0.000000
0.970588 1.000000 0.000000
0.941176 1.000000 0.000000
0.911765 1.000000 0.000000
0.882353 1.000000 0.000000
0.852941 1.000000 0.000000
0.823529 1.000000 0.000000
0.794118 1.000000 0.000000
0.764706 1.000000 0.000000
0.735294 1.000000 0.000000
0.705882 1.000000 0.000000
0.676471 1.000000 0.000000
0.647059 1.000000 0.000000
0.617647 1.000000 0.000000
0.588235 1.000000 0.000000
0.558824 1.000000 0.000000
0.529412 1.000000 0.000000
0.500000 1.000000 0.000000
0.470588 1.000000 0.000000
0.441176 1.000000 0.000000
0.411765 1.000000 0.000000
0.382353 1.000000 0.000000
0.352941 1.000000 0.000000
0.323529 1.000000 0.000000
0.294118 1.000000 0.000000
0.264706 1.000000 0.000000
0.235294 1.000000 0.000000
0.205882 1.000000 0.000000
0.176471 1.000000 0.000000
0.147059 1.000000 0.000000
0.117647 1.000000 0.000000
0.088235 1.000000 0.000000
0.058824 1.000000 0.000000
0.029412 1.000000 0.000000
0.000000 0.970588 0.000000
0.000000 0.941176 0.000000
0.000000 0.911765 0.000000
0.000000 0.882353 0.000000
0.000000 0.852941 0.000000
0.000000 0.823529 0.000000
0.000000 0.794118 0.000000
0.000000 0.764706 0.000000
0.000000 0.735294 0.000000
0.000000 0.705882 0.000000
0.000000 0.676471 0.000000
0.000000 0.647059 0.000000
0.000000 0.617647 0.000000
0.000000 0.588235 0.000000
0.000000 0.558824 0.000000
0.000000 0.529412 0.000000
0.007246 0.500000 0.000000
0.014493 0.500000 0.000000
0.021739 0.500000 0.000000
0.028986 0.500000 0.000000
0.036232 0.500000 0.000000
0.043478 0.500000 0.000000
0.050725 0.500000 0.000000
0.057971 0.500000 0.000000
0.065217 0.500000 0.000000
0.072464 0.500000 0.000000
0.079710 0.500000 0.000000
0.086957 0.500000 0.000000
0.094203 0.500000 0.000000
0.101449 0.500000 0.000000
0.108696 0.500000 0.000000
0.115942 0.500000 0.000000
0.123188 0.500000 0.000000
0.130435 0.500000 0.000000
0.137681 0.500000 0.000000
0.144928 0.500000 0.000000
0.152174 0.500000 0.000000
0.159420 0.500000 0.000000
0.166667 0.500000 0.000000
0.173913 0.500000 0.000000
0.181159 0.500000 0.000000
0.188406 0.500000 0.000000
0.195652 0.500000 0.000000
0.202899 0.500000 0.000000
0.210145 0.500000 0.000000
0.217391 0.500000 0.000000
0.224638 0.500000 0.000000
0.231884 0.500000 0.000000
0.239130 0.500000 0.000000
0.246377 0.500000 0.000000
0.253623 0.500000 0.000000
0.260870 0.500000 0.000000
0.268116 0.500000 0.000000
0.275362 0.500000 0.000000
0.282609 0.500000 0.000000
0.289855 0.500000 0.000000
0.297101 0.500000 0.000000
0.304348 0.500000 0.000000
0.311594 0.500000 0.000000
0.318841 0.500000 0.000000
0.326087 0.500000 0.000000
0.333333 0.500000 0.000000
0.340580 0.500000 0.000000
0.347826 0.500000 0.000000
0.355072 0.500000 0.000000
0.362319 0.500000 0.000000
0.369565 0.500000 0.000000
0.376812 0.500000 0.000000
0.384058 0.500000 0.000000
0.391304 0.500000 0.000000
0.398551 0.500000 0.000000
0.405797 0.500000 0.000000
0.413043 0.500000 0.000000
0.420290 0.500000 0.000000
0.427536 0.500000 0.000000
0.434783 0.500000 0.000000
0.442029 0.500000 0.000000
0.449275 0.500000 0.000000
0.456522 0.500000 0.000000
0.463768 0.500000 0.000000
0.471014 0.500000 0.000000
0.478261 0.500000 0.000000
0.485507 0.500000 0.000000
0.492754 0.500000 0.000000
0.510004 0.500000 0.000000
0.520408 0.500000 0.000000
0.531229 0.500000 0.000000
0.542483 0.500000 0.000000
0.554187 0.500000 0.000000
0.566359 0.500000 0.000000
0.579019 0.500000 0.000000
0.592185 0.500000 0.000000
0.605877 0.500000 0.000000
0.620118 0.500000 0.000000
0.634929 0.500000 0.000000
0.650332 0.500000 0.000000
0.666352 0.500000 0.000000
0.683013 0.500000 0.000000
0.700340 0.500000 0.000000
0.718361 0.500000 0.000000
0.737103 0.500000 0.000000
0.756595 0.500000 0.000000
0.776867 0.500000 0.000000
0.797950 0.500000 0.000000
0.819877 0.500000 0.000000
0.842681 0.500000 0.000000
0.866398 0.500000 0.000000
0.891064 0.500000 0.000000
0.916716 0.500000 0.000000
0.943396 0.500000 0.000000
0.971143 0.500000 0.000000
0.000000 0.470588 0.000000
0.000000 0.441176 0.000000
0.000000 0.411765 0.000000
0.000000 0.382353 0.000000
0.000000 0.352941 0.000000
0.000000 0.323529 0.000000
0.000000 0.294118 0.000000
0.000000 0.264706 0.000000
0.000000 0.235294 0.000000
0.000000 0.205882 0.000000
0.000000 0.176471 0.000000
0.000000 0.147059 0.000000
0.000000 0.117647 0.000000
0.000000 0.088235 0.000000
0.000000 0.058824 0.000000
0.000000 0.029412 0.000000
0.500341 0.497365 0.000000
0.501682 0.495729 0.000000
0.503023 0.494094 0.000000
0.504365 0.492458 0.000000
0.505706 0.490823 0.000000
0.507047 0.489187 0.000000
0.508388 0.487552 0.000000
0.509729 0.485916 0.000000
0.511070 0.484281 0.000000
0.512411 0.482645 0.000000
0.513753 0.481010 0.000000
0.515094 0.479375 0.000000
0.516435 0.477739 0.000000
0.517776 0.476104 0.000000
0.519117 0.474468 0.000000
0.520458 0.472833 0.000000
0.521799 0.471197 0.000000
0.523140 0.469562 0.000000
0.524482 0.467926 0.000000
0.525823 0.466291 0.000000
0.527164 0.464656 0.000000
0.528505 0.463020 0.000000
0.529846 0.461385 0.000000
0.531187 0.459749 0.000000
0.532528 0.458114 0.000000
0.533870 0.456478 0.000000
0.535211 0.454843 0.000000
0.536552 0.453207 0.000000
0.537893 0.451572 0.000000
0.539234 0.449936 0.000000
0.540575 0.448301 0.000000
0.541916 0.446666 0.000000
0.543258 0.445030 0.000000
0.544599 0.443395 0.000000
0.545940 0.441759 0.000000
0.547281 0.440124 0.000000
0.548622 0.438488 0.000000
0.549963 0.436853 0.000000
0.551304 0.435217 0.000000
0.552645 0.433582 0.000000
0.553987 0.431946 0.000000
0.555328 0.430311 0.000000
0.556669 0.428676 0.000000
0.558010 0.427040 0.000000
0.559351 0.425405 0.000000
0.560692 0.423769 0.000000
0.562033 0.422134 0.000000
0.563375 0.420498 0.000000
0.564716 0.418863 0.000000
0.566057 0.417227 0.000000
0.567398 0.415592 0.000000
0.568739 0.413957 0.000000
0.570080 0.412321 0.000000
0.571421 0.410686 0.000000
0.572763 0.409050 0.000000
0.574104 0.407415 0.000000
0.575445 0.405779 0.000000
0.576786 0.404144 0.000000
0.578127 0.402508 0.000000
0.579468 0.400873 0.000000
0.580809 0.399237 0.000000
0.582151 0.397602 0.000000
0.583492 0.395967 0.000000
0.584833 0.394331 0.000000
0.586174 0.392696 0.000000
0.587515 0.391060 0.000000
0.588856 0.389425 0.000000
0.590197 0.387789 0.000000
0.591538 0.386154 0.000000
0.592880 0.384518 0.000000
0.594221 0.382883 0.000000
0.595562 0.381247 0.000000
0.596903 0.379612 0.000000
0.598244 0.377977 0.000000
0.599585 0.376341 0.000000
0.600926 0.374706 0.000000
0.602268 0.373070 0.000000
0.603609 0.371435 0.000000
0.604950 0.369799 0.000000
0.606291 0.368164 0.000000
0.607632 0.366528 0.000000
0.608973 0.364893 0.000000
0.610314 0.363258 0.000000
0.611656 0.361622 0.000000
0.612997 0.359987 0.000000
0.614338 0.358351 0.000000
0.615679 0.356716 0.000000
0.617020 0.355080 0.000000
0.618361 0.353445 0.000000
0.619702 0.351809 0.000000
0.621043 0.350174 0.000000
0.622385 0.348538 0.000000
0.623726 0.346903 0.000000
0.625067 0.345268 0.000000
0.626408 0.343632 0.000000
0.627749 0.341997 0.000000
0.629090 0.340361 0.000000
0.630431 0.338726 0.000000
0.631773 0.337090 0.000000
0.633114 0.335455 0.000000
0.634455 0.333819 0.000000
0.635796 0.332184 0.000000
0.637137 0.330548 0.000000
0.638478 0.328913 0.000000
0.639819 0.327278 0.000000
0.641161 0.325642 0.000000
0.642502 0.324007 0.000000
0.643843 0.322371 0.000000
0.645184 0.320736 0.000000
0.646525 0.319100 0.000000
0.647866 0.317465 0.000000
0.649207 0.315829 0.000000
0.650548 0.314194 0.000000
0.651890 0.312559 0.000000
0.653231 0.310923 0.000000
0.654572 0.309288 0.000000
0.655913 0.307652 0.000000
0.657254 0.306017 0.000000
0.658595 0.304381 0.000000
0.659936 0.302746 0.000000
0.661278 0.301110 0.000000
0.662619 0.299475 0.000000
0.663960 0.297839 0.000000
0.665301 0.296204 0.000000
0.666642 0.294569 0.000000
0.667983 0.292933 0.000000
0.669324 0.291298 0.000000
0.670666 0.289662 0.000000
0.672007 0.288027 0.000000
0.673348 0.286391 0.000000
0.674689 0.284756 0.000000
0.676030 0.283120 0.000000
0.677371 0.281485 0.000000
[...]
POINT_DATA 7341
SCALARS UX float 1
LOOKUP_TABLE default
0.000000
0.000000
0.160500
0.160500
0.074852
0.067867
0.064481
0.064379
0.000437
-0.000000
0.000000
0.000000
0.000000
0.000000
0.000000
0.000000
0.000000
0.000000
0.000000
0.000000
0.000000
0.000000
0.000000
0.000000
0.000000
0.000000
0.000000
0.000000
0.000000
0.000000
0.000000
0.000000
0.000000
0.000000
0.000000
0.000000
0.000000
0.000000
0.000000
0.000000
0.000000
-0.000000
0.003180
0.004947
0.006822
0.008942
0.011375
0.014098
0.017142
0.020286
0.023822
0.027573
0.031558
0.035790
0.040260
0.045120
0.050655
0.056800
0.072307
0.079252
0.085705
0.091662
0.097367
0.102972
0.108441
0.113824
0.119154
0.124460
0.129704
0.134908
0.140074
0.145206
0.150322
0.155418
0.160500
0.160500
0.160500
0.160500
0.160500
0.160500
0.160500
0.160500
0.160500
0.160500
0.160500
0.160500
0.160500
0.160500
0.160500
0.160500
0.160500
0.160500
0.160500
0.160500
0.160500
0.160500
0.160500
0.160500
0.160500
0.160500
0.160500
0.160500
0.160500
0.160500
0.160500
0.160500
0.160500
0.155523
0.150546
0.145569
0.140585
0.135599
0.130594
0.125589
0.120565
0.115518
0.110464
0.105351
0.100188
0.094951
0.089625
0.084244
0.078855
0.074020
0.073692
0.072229
0.071290
0.070886
0.070800
0.070276
0.071276
0.069229
0.067334
0.069547
0.068771
0.068708
0.068547
0.068278
0.069188
0.066046
0.067154
0.067515
0.067945
0.067810
0.067989
0.066710
0.067167
0.067944
0.069780
0.068257
0.068547
0.068112
0.067713
0.067548
0.066739
0.066282
0.066567
0.064609
0.065245
0.065350
0.062901
0.064943
0.062751
0.063405
0.061391
0.062328
0.063164
0.061476
0.062393
0.063152
0.064271
0.065395
0.063416
0.068132
0.067442
0.069297
0.068652
0.070642
0.069814
0.071274
0.070935
0.070569
0.070033
0.071543
0.071245
0.070931
0.069967
0.070649
0.068909
0.069525
0.068450
0.065731
0.063456
0.063421
0.063472
0.063519
0.063902
0.063922
0.063980
0.064017
0.064000
0.063942
0.063812
0.063678
0.063572
0.063469
0.063409
0.062920
0.062875
0.062836
0.062846
0.062890
0.062971
0.063097
0.063272
0.063498
0.063785
0.064111
0.055940
0.051387
0.047502
0.043806
0.040335
0.036965
0.033722
0.030604
0.027539
0.024556
0.021643
0.018592
0.015585
0.012759
0.009834
0.006806
0.062323
0.059731
0.058706
0.057610
0.056850
0.056151
0.055358
0.054653
0.053898
0.053192
0.052620
0.052081
0.051601
0.051144
0.050698
0.050301
0.049909
0.049557
0.049209
0.048887
0.048577
0.048268
0.047979
0.047703
0.047435
0.047183
0.046935
0.046691
0.046451
0.046213
0.045989
0.045775
0.045562
0.045354
0.045154
0.044954
0.044757
0.044560
0.044366
0.044173
0.043980
0.043787
0.043594
0.043401
0.043207
0.043012
0.042817
0.042621
0.042424
0.042227
0.042029
0.041829
0.041630
0.041429
0.041227
0.041025
0.040821
0.040617
0.040412
0.040206
0.039999
0.039791
0.039583
0.039373
0.039162
0.038951
0.038739
0.038525
0.038311
0.038095
0.037880
0.037663
0.037445
0.037226
0.037006
0.036785
0.036564
0.036341
0.036118
0.035894
0.035669
0.035443
0.035217
0.034990
0.034762
0.034534
0.034306
0.034076
0.033847
0.033617
0.033387
0.033156
0.032926
0.032695
0.032464
0.032232
0.032001
0.031770
0.031538
0.031307
0.031075
0.030843
0.030612
0.030381
0.030150
0.029919
0.029688
0.029457
0.029226
0.028996
0.028766
0.028536
0.028307
0.028077
0.027849
0.027620
0.027393
0.027165
0.026938
0.026711
0.026485
0.026260
0.026035
0.025811
0.025587
0.025363
0.025141
0.024918
0.024697
0.024476
0.024255
0.024036
0.023817
0.023598
0.023380
0.023163
0.022946
0.022730
0.022515
0.022301
0.022087
0.021873
0.021661
0.021449
0.021238
0.021028
0.020819
0.020610
0.020402
0.020195
0.019988
0.019783
0.019578
0.019374
0.019171
0.018968
0.018767
0.018567
0.018367
0.018168
0.017970
0.017773
0.017577
0.017381
0.017187
0.016994
0.016802
0.016610
0.016419
0.016230
0.016041
0.015853
0.015666
0.015481
0.015296
0.015112
0.014929
0.014747
0.014566
0.014386
0.014207
0.014029
0.013851
0.013675
0.013500
0.013326
0.013152
0.012980
0.012809
0.012639
0.012470
0.012302
0.012135
0.011969
0.011804
0.011640
0.011477
0.011315
0.011154
0.010994
0.010835
0.010678
0.010521
0.010365
0.010210
0.010057
0.009904
0.009752
0.009601
0.009451
0.009303
0.009155
0.009009
0.008863
0.008719
0.008576
0.008434
0.008293
0.008154
0.008015
0.007878
0.007742
0.007606
0.007473
0.007340
0.007208
0.007077
0.006948
0.006819
0.006692
0.006566
0.006441
0.006318
0.006195
0.006073
0.005953
0.005834
0.005716
0.005599
0.005483
0.005368
0.005254
0.005141
0.005030
0.004920
0.004811
0.004703
0.004596
0.004490
0.004386
0.004283
0.004180
0.004079
0.003979
0.003880
0.003782
0.003686
0.003591
0.003496
0.003403
0.003312
0.003220
0.003131
0.003042
0.002955
0.002868
0.002782
0.002698
0.002614
0.002532
0.002450
0.002370
0.002290
0.002211
0.002133
0.002056
0.001980
0.001905
0.001831
0.001757
0.001685
0.001612
0.001540
0.001469
0.001398
0.001328
0.001257
0.001187
0.001117
0.001047
0.000975
0.000904
0.000834
0.000764
0.000694
0.000626
0.000559
0.000499
0.054939
0.053568
0.052373
0.001583
0.001177
0.056596
0.001170
0.056848
0.056071
0.026811
0.057357
0.001289
0.033078
0.058768
0.013091
0.023418
0.057171
0.001106
0.001491
0.053753
0.006000
0.059228
0.057281
0.014141
0.054819
0.046549
0.058909
0.039688
0.056348
0.056527
0.002026
0.054600
0.053067
0.058034
0.055536
0.000721
0.056317
0.002508
0.057056
0.001289
0.054210
0.052631
0.052222
0.059747
0.001398
0.058891
0.001086
0.057841
0.055155
0.061644
0.001033
0.056330
0.007990
0.043375
0.001191
0.056631
0.057463
0.039771
0.056827
0.056653
0.016375
0.019691
0.001298
0.001270
0.053960
0.055438
0.029740
0.049724
0.056633
0.001156
0.056535
0.001147
0.030928
0.001326
0.052951
0.020346
0.001630
0.056538
0.011290
0.002792
0.007340
0.003387
0.004257
0.054179
0.054956
0.055380
0.053993
0.053401
0.052657
0.055607
0.059234
0.058537
0.057654
0.057406
0.056984
0.055738
0.059894
0.058352
0.058255
0.058507
0.057522
0.000922
0.056965
0.061915
0.050755
0.052076
0.002789
0.052860
0.002456
0.053499
0.030084
0.002503
0.031823
0.055666
0.016447
0.054667
0.002189
0.051536
0.005963
0.040175
0.053031
0.022125
0.003413
0.052825
0.057568
0.001806
0.054890
0.052761
0.051605
0.056823
0.009930
0.050164
0.058565
0.058158
0.000762
0.055058
0.052530
0.000932
0.057262
0.057240
0.010426
0.057439
0.001169
0.045857
0.056147
0.057691
0.003996
0.057604
0.036840
0.022659
0.057373
0.057045
0.001159
0.056882
0.002446
0.056678
0.054698
0.001120
0.035049
0.001139
0.056277
0.054028
0.044198
0.001420
0.026912
0.056523
0.053531
0.001603
0.017248
0.004771
0.001635
0.006517
0.052593
0.052520
0.054639
0.053828
0.053036
0.052440
0.053090
0.051686
0.055060
0.055351
0.055419
0.058090
0.056130
0.057956
0.057503
0.060173
0.058012
0.058987
0.058132
0.058011
0.058759
0.056755
0.059835
0.055380
0.058626
0.056460
0.013529
0.003729
0.052958
0.052684
0.013874
0.053041
0.051697
0.053367
0.054479
0.056542
0.003147
0.052055
0.025624
0.051031
0.050661
0.003585
0.004058
0.001581
0.050925
0.055441
0.002010
0.056789
0.050543
0.055391
0.035017
0.053022
0.051405
0.056838
0.053621
0.002585
0.043808
0.053142
0.052844
0.055595
0.002274
0.035138
0.052966
0.002432
0.051802
0.023216
0.019442
0.002464
0.052631
0.028864
0.056510
0.002373
0.002426
0.002931
0.055152
0.002226
0.007663
0.052404
0.052575
0.053626
0.051269
0.051793
0.003553
0.042982
0.026500
0.019140
0.056949
0.015825
0.012828
0.002513
0.008455
0.005600
0.050649
0.050765
0.051118
0.052174
0.052418
0.002107
0.051461
0.049317
0.052383
0.052758
0.053532
0.053396
0.056280
0.057678
0.054669
0.053931
0.053436
0.050401
0.056823
0.056623
0.056057
0.056106
0.054159
0.054976
0.054225
0.010985
0.003889
0.057263
0.054389
0.056064
0.053031
0.060021
0.049847
0.050742
0.051152
0.004204
0.048238
0.026447
0.003798
0.028290
0.053048
0.003338
0.005624
0.047056
0.007009
0.043420
0.003052
0.050496
0.017983
0.049729
0.051334
0.055335
0.003918
0.053807
0.005027
0.053927
0.032804
0.052916
0.052946
0.002515
0.053020
0.053220
0.050894
0.024356
0.051972
0.003725
0.051834
0.048256
0.050666
0.015928
0.050803
0.034281
0.039269
0.053316
0.003586
0.055279
0.014559
0.011440
0.006653
0.007478
0.052436
0.052049
0.003778
0.003873
0.051012
0.004728
0.050607
0.051272
0.047937
0.052391
0.054093
0.053164
0.050803
0.010370
0.055017
0.052075
0.056603
0.054263
0.049523
0.002335
0.052044
0.052071
0.055143
0.037614
0.058039
0.049886
0.056844
0.055980
0.052072
0.058305
0.054459
0.054930
0.053146
0.012122
0.009294
0.053234
0.052961
0.051981
0.056151
0.053960
0.053351
0.055941
0.060158
0.006951
0.005418
0.045166
0.005126
0.049461
0.050723
0.050364
0.015674
0.026771
0.049643
0.051579
0.002981
0.049000
0.050740
0.050237
0.053709
0.053084
0.049110
0.050573
0.005154
0.016628
0.005756
0.054461
0.050614
0.040972
0.009466
0.003565
0.004244
0.012016
0.049543
0.050048
0.003333
0.005715
0.023845
0.051370
0.052188
0.051298
0.039564
0.045800
0.049254
0.054873
0.051986
0.053521
0.050407
0.008791
0.005380
0.050634
0.047543
0.029614
0.050318
0.049962
0.005904
0.037709
0.051906
0.046671
0.053713
0.013455
0.045753
0.004643
0.003825
0.031417
0.047888
0.021207
0.010374
0.050999
0.051878
0.051351
0.018321
0.049668
0.003749
0.050821
0.049446
0.049102
0.003407
0.054343
0.051585
0.059449
0.051884
0.057724
0.053888
0.051517
0.051671
0.053680
0.053760
0.050773
0.052520
0.051861
0.003001
0.052401
0.053092
0.050308
0.051701
0.050762
0.054593
0.052593
0.048758
0.049573
0.049968
0.029163
0.048033
0.004380
0.048496
0.010348
0.039508
0.006722
0.048950
0.003860
0.044120
0.052491
0.005148
0.050166
0.048886
0.051125
0.049531
0.047654
0.002825
0.017705
0.019990
0.004837
0.005329
0.049181
0.050391
0.004016
0.048251
0.050755
0.052566
0.052822
0.048785
0.053470
0.052427
0.030038
0.007582
0.023604
0.044683
0.007904
0.008725
0.049748
0.005541
0.015638
0.003552
0.050911
0.042736
0.048582
0.045037
0.045216
0.012463
0.021152
0.006722
0.005984
0.050652
0.023330
0.049654
0.051643
0.036762
0.043290
0.054601
0.048656
0.049785
0.052253
0.050103
0.052636
0.048595
0.050652
0.053284
0.052335
0.013896
0.005647
0.051530
0.055773
0.050979
0.054682
0.050388
0.050100
0.050554
0.004012
0.004471
0.050617
0.048217
0.052267
0.053025
0.050528
0.054795
0.008998
0.053088
0.046669
0.051398
0.049294
0.036093
0.052178
0.049955
0.052443
0.052038
0.050244
0.048226
0.007459
0.042625
0.006137
0.046841
0.017397
0.008925
0.038952
0.029106
0.010419
0.003662
0.047769
0.047733
0.006699
0.032481
0.046994
0.049168
0.004640
0.041607
0.046375
0.009114
0.049329
0.049529
0.004792
0.052087
0.050824
0.049134
0.048860
0.050122
0.047339
0.048588
0.051581
0.048473
0.048623
0.050698
0.033704
0.049577
0.020205
0.052988
0.022176
0.042688
0.008218
0.052387
0.043483
0.006440
0.002023
0.004486
0.005219
0.048804
0.005599
0.050398
0.005153
0.053151
0.011479
0.011739
0.026000
0.013488
0.004439
0.018812
0.007126
0.052171
0.051278
0.052934
0.052122
0.046085
0.049765
0.050310
0.048711
0.041802
0.005974
0.049513
0.048438
0.003904
0.051695
0.050050
0.035594
0.051195
0.050820
0.049709
0.049050
0.050161
0.052662
0.049561
0.004801
0.051620
0.049737
0.051575
0.007849
0.053309
0.051378
0.051416
0.004394
0.049113
0.048446
0.052005
0.055367
0.008915
0.005396
0.011965
0.004799
0.005553
0.026360
0.003595
0.003570
0.047710
0.021189
0.047691
0.049192
0.006448
0.050950
0.041666
0.035559
0.049933
0.008082
0.005267
0.043274
0.006546
0.014544
0.006952
0.008852
0.048703
0.050811
0.050543
0.048034
0.051200
0.010883
0.047500
0.047676
0.051088
0.051430
0.047661
0.020242
0.046415
0.002789
0.040052
0.047468
0.042205
0.040875
0.044760
0.025947
0.049242
0.048701
0.048816
0.048461
0.007755
0.051083
0.004429
0.010061
0.004962
0.051117
0.015252
0.029442
0.038661
0.049283
0.010078
0.007248
0.003363
0.036213
0.049267
0.007618
0.048921
0.049788
0.051255
0.049906
0.047537
0.045871
0.048098
0.047815
0.048724
0.049023
0.048697
0.010063
0.049080
0.049312
0.038541
0.049968
0.050792
0.050705
0.048541
0.052880
0.052375
0.000938
0.048743
0.047229
0.050492
0.006405
0.051520
0.032569
0.047610
0.005800
0.051460
0.046669
0.009813
0.011114
0.040049
0.045773
0.047582
0.015504
0.031671
0.005658
0.046767
0.026878
0.040981
0.003562
0.046884
0.004258
0.003459
0.049438
0.047847
0.048126
0.002789
0.008480
0.050205
0.050583
0.013150
0.044207
0.043621
0.038756
0.006618
0.048233
0.048287
0.047925
0.046143
0.047641
0.023924
0.002065
0.047972
0.002928
0.037857
0.006581
0.050683
0.013442
0.009155
0.049425
0.051153
0.011725
0.050806
0.018112
0.049757
0.047723
0.004694
0.006485
0.049787
0.005476
0.049274
0.006039
0.006548
0.008421
0.047607
0.032368
0.013519
0.038529
0.049503
0.012487
0.050883
0.049747
0.028392
0.048531
0.047756
0.048652
0.048345
0.048596
0.047251
0.047460
0.049179
0.048653
0.035088
0.049775
0.045279
0.047967
0.050075
0.007580
0.047646
0.050167
0.050191
0.024719
0.005478
0.043704
0.037296
0.040901
0.047449
0.010179
0.038729
0.043847
0.013929
0.030927
0.006227
0.006554
0.037427
0.004907
0.036015
0.002828
0.042659
0.046722
0.046902
0.048920
0.007697
0.048084
0.023872
0.050179
0.047038
0.046817
0.010654
0.046664
0.007737
0.049189
0.024353
0.006898
0.047075
0.048213
0.008161
0.004094
0.044851
0.017038
0.045536
0.047738
0.047779
0.047537
0.047134
0.041472
0.009439
0.008025
0.014122
0.050411
0.005822
0.005098
0.008976
0.048392
0.010225
0.016392
0.044014
0.039474
0.002712
0.034877
0.046840
0.047812
0.013086
0.029417
0.049624
0.050209
0.002194
0.048549
0.047876
0.048300
0.046589
0.007237
0.050253
0.047750
0.047747
0.048773
0.046513
0.049236
0.047452
0.048212
0.048092
0.049066
0.001597
0.048330
0.045551
0.027301
0.049875
0.011920
0.049402
0.035155
0.044279
0.046776
0.001311
0.047291
0.047013
0.049977
0.047126
0.033976
0.005583
0.004150
0.050099
0.005668
0.046192
0.045810
0.011176
0.024673
0.039344
0.029809
0.008458
0.043914
0.036311
0.046388
0.006621
0.005647
0.003484
0.049491
0.005477
0.033383
0.046105
0.004724
0.004067
0.048790
0.042514
0.046445
0.012522
0.047215
0.041597
0.002300
0.013916
0.044507
0.008968
0.008849
0.048044
0.009823
0.047008
0.045884
0.047153
0.046812
0.046337
0.026095
0.020582
0.010652
0.045916
0.001480
0.039970
0.007595
0.015453
0.037851
0.047587
0.046423
0.046307
0.032291
0.008080
0.011555
0.047131
0.007870
0.010578
0.003444
0.015404
0.026895
0.006390
0.016092
0.043519
0.049943
0.048740
0.047949
0.047388
0.002044
0.046771
0.049849
0.049559
0.049317
0.048743
0.046354
0.004823
0.047146
0.010646
0.046302
0.046916
0.021835
0.047609
0.006537
0.046411
0.046842
0.047340
0.049659
0.007962
0.046009
0.043101
0.046814
0.004749
0.018921
0.002037
0.005452
0.048836
0.000540
0.006284
0.046162
0.047043
0.048848
0.049350
0.046512
0.032976
0.002982
0.036518
0.046989
0.042377
0.049027
0.049885
0.001379
0.045652
0.013330
0.012012
0.037481
0.024730
0.028704
0.041957
0.013981
0.009010
0.007312
0.007884
0.045370
0.034829
0.016556
0.034126
0.002919
0.045489
0.040675
0.046064
0.003918
0.017053
0.046146
0.009679
0.010709
0.007571
0.001488
0.001790
0.009110
0.045412
0.013050
0.012406
0.006845
0.036572
0.035069
0.009410
0.040740
0.002987
0.046206
0.029302
0.049068
0.047994
0.012233
0.046219
0.022504
0.048167
0.045794
0.046676
0.046258
0.042570
0.009658
0.007979
0.023219
0.016012
0.004083
0.031984
0.041553
0.049446
0.046592
0.045632
0.049307
0.045975
0.045879
0.046646
0.047710
0.042528
0.009776
0.045779
0.046300
0.002039
0.048247
0.045794
0.046888
0.045001
0.049111
0.048576
0.046009
0.045361
0.045759
0.039054
0.005765
0.010771
0.010960
0.049475
0.047397
0.048471
0.046731
0.005255
0.021874
0.047072
0.031967
0.048496
0.018464
0.048888
0.004658
0.049547
0.004652
0.039616
0.046503
0.048086
0.006110
0.019202
0.006548
0.002244
0.044833
0.045799
0.013805
0.010760
0.035583
0.047732
0.040505
0.031044
0.008585
0.006245
0.006767
0.043575
0.006070
0.038915
0.032107
0.022910
0.005113
0.045262
0.037819
0.018679
0.001816
0.044943
0.015178
0.009717
0.045917
0.016392
0.002126
0.018716
0.012611
0.012933
0.017776
0.029265
0.047406
0.007550
0.046486
0.034401
0.044347
0.010006
0.040024
0.009745
0.026948
0.045351
0.008854
0.013861
0.009279
0.003446
0.011614
0.008772
0.015690
0.044547
0.046821
0.045274
0.045438
0.026112
0.042659
0.003449
0.043926
0.045456
0.048026
0.047213
0.007198
0.048658
0.048293
0.011784
0.020481
0.045738
0.045926
0.046079
0.045627
0.009373
0.044825
0.042316
0.045316
0.048098
0.049073
0.012511
0.045986
0.045102
0.043932
0.032993
0.048647
0.048915
0.005826
0.038410
0.004635
0.034243
0.045386
0.030912
0.044551
0.019935
0.049172
0.045375
0.001397
0.047885
0.045612
0.046926
0.047061
0.047892
0.007460
0.048347
0.044760
0.004040
0.047873
0.049223
0.004329
0.048346
0.047094
0.015482
0.047019
0.024759
0.033644
0.014944
0.039042
0.042706
0.008158
0.009547
0.009790
0.033101
0.004126
0.020916
0.045628
0.011293
0.031225
0.002967
0.003003
0.046039
0.045008
0.006260
0.004319
0.041407
0.001873
0.045141
0.040904
0.004717
0.008286
0.044547
0.045119
0.002075
0.037893
0.045976
0.023680
0.006643
0.006904
0.027002
0.014725
0.010187
0.042325
0.047992
0.007838
0.043254
0.036084
0.017086
0.010647
0.047584
0.043132
0.046476
0.014548
0.008781
0.015412
0.047359
0.029975
0.010394
0.046899
0.045917
0.003899
0.045070
0.044749
0.010729
0.012779
0.011215
0.001429
0.019353
0.028495
0.018695
0.014067
0.046431
0.046374
0.006328
0.047917
0.048418
0.044788
0.044653
0.002532
0.045069
0.045414
0.048848
0.047616
0.048790
0.045585
0.047779
0.045743
0.018125
0.021579
0.003549
0.048771
0.008542
0.047971
0.045023
0.012728
0.005055
0.046372
0.048495
0.044733
0.047613
0.028983
0.043624
0.005633
0.047747
0.048178
0.010733
0.048901
0.046101
0.013593
0.045245
0.043965
0.046317
0.015350
0.017072
0.012129
0.024778
0.047709
0.036284
0.045920
0.045368
0.041564
0.009877
0.043853
0.007955
0.044670
0.008297
0.007343
0.041802
0.043358
0.044771
0.019037
0.003549
0.005451
0.043809
0.029206
0.002174
0.002458
0.043952
0.004189
0.015880
0.004651
0.045185
0.021158
0.025588
0.044021
0.001055
0.004571
0.015943
0.046108
0.044894
0.047391
0.047040
0.044047
0.014976
0.009027
0.010869
0.017661
0.018795
0.022604
0.006977
0.011900
0.012362
0.030665
0.047524
0.047265
0.013866
0.044516
0.006515
0.048302
0.043811
0.041205
0.008224
0.041824
0.046086
0.045836
0.048060
0.048447
0.044641
0.020195
0.047113
0.044363
0.046929
0.011566
0.004986
0.042912
0.046553
0.006195
0.005997
0.031208
0.047432
0.048607
0.039547
0.027812
0.006926
0.001699
0.010952
0.044469
0.013150
0.047082
0.003068
0.002526
0.045621
0.006207
0.011220
0.047322
0.047517
0.047970
0.045554
0.040557
0.001479
0.048519
0.021653
0.034400
0.039620
0.002428
0.009191
0.017504
0.016207
0.043033
0.017617
0.045557
0.013421
0.020446
0.032727
0.017583
0.029442
0.011378
0.038279
0.041505
0.047505
0.012991
0.010060
0.032439
0.009205
0.045789
0.047378
0.014941
0.044484
0.004106
0.007236
0.008795
0.006619
0.043735
0.001862
0.006329
0.021820
0.044852
0.003471
0.005036
0.044836
0.002966
0.007234
0.041487
0.002064
0.001217
0.046393
0.043711
0.009054
0.016820
0.039902
0.034688
0.047157
0.040429
0.036391
0.010789
0.045210
0.014032
0.020773
0.046784
0.045704
0.044655
0.003898
0.043720
0.000830
0.015656
0.011961
0.007479
0.046253
0.044380
0.017527
0.028117
0.045541
0.008148
0.043229
0.022665
0.007605
0.016324
0.043608
0.043230
0.048277
0.038079
0.023965
0.047033
0.041771
0.041404
0.045033
0.047536
0.044519
0.047969
0.044748
0.002521
0.045801
0.005076
0.047405
0.006733
0.043541
0.032916
0.040107
0.048581
0.044081
0.047849
0.046775
0.011586
0.003025
0.027704
0.016791
0.044729
0.006283
0.023251
0.012226
0.023194
0.005400
0.044909
0.048368
0.047740
0.045701
0.046147
0.005817
0.007246
0.046638
0.006270
0.042363
0.001273
0.040967
0.026006
0.012623
0.046154
0.006574
0.048995
0.042900
0.017052
0.027838
0.033186
0.013122
0.040527
0.009865
0.045606
0.009064
0.045625
0.007900
0.037861
0.040111
0.014295
0.007236
0.046693
0.016312
0.046677
0.044372
0.021361
0.002566
0.034460
0.045081
0.006930
0.013248
0.044272
0.044063
0.017855
0.005710
0.042914
0.032040
0.000799
0.047686
0.009853
0.006675
0.003386
0.047279
0.002119
0.004907
0.012348
0.011460
0.001069
0.004263
0.042216
0.042452
0.042621
0.005771
0.019692
0.024244
0.019450
0.019875
0.046076
0.040037
0.029396
0.047103
0.043997
0.017163
0.002449
0.034885
0.044206
0.021212
0.045104
0.006960
0.025231
0.004493
0.008295
0.026011
0.007597
0.015170
0.001335
0.001623
0.023687
0.045241