# vtk DataFile Version 2.0
Test
ASCII
DATASET POLYDATA
POINTS 7341 float
0.000000 0.000000 0.000000
1.000000 0.000000 0.000000
1.000000 1.000000 0.000000
0.000000 1.000000 0.000000
0.000000 0.500000 0.000000
0.500000 0.500000 0.000000
1.000000 0.500000 0.000000
0.499000 0.499000 0.000000
0.900000 0.010000 0.000000
0.029412 0.000000 0.000000
0.058824 0.000000 0.000000
0.088235 0.000000 0.000000
0.117647 0.000000 0.000000
0.147059 0.000000 0.000000
0.176471 0.000000 0.000000
0.205882 0.000000 0.000000
0.235294 0.000000 0.000000
0.264706 0.000000 0.000000
0.294118 0.000000 0.000000
0.323529 0.000000 0.000000
0.352941 0.000000 0.000000
0.382353 0.000000 0.000000
0.411765 0.000000 0.000000
0.441176 0.000000 0.000000
0.470588 0.000000 0.000000
0.500000 0.000000 0.000000
0.529412 0.000000 0.000000
0.558824 0.000000 0.000000
0.588235 0.000000 0.000000
0.617647 0.000000 0.000000
0.647059 0.000000 0.000000
0.676471 0.000000 0.000000
0.705882 0.000000 0.000000
0.735294 0.000000 0.000000
0.764706 0.000000 0.000000
0.794118 0.000000 0.000000
0.823529 0.000000 0.000000
0.852941 0.000000 0.000000
0.882353 0.000000 0.000000
0.911765 0.000000 0.000000
0.941176 0.000000 0.000000
0.970588 0.000000 0.000000
1.000000 0.029412 0.000000
1.000000 0.058824 0.000000
1.000000 0.088235 0.000000
1.000000 0.117647 0.000000
1.000000 0.147059 0.000000
1.000000 0.176471 0.000000
1.000000 0.205882 0.000000
1.000000 0.235294 0.000000
1.000000 0.264706 0.000000
1.000000 0.294118 0.000000
1.000000 0.323529 0.000000
1.000000 0.352941 0.000000
1.000000 0.382353 0.000000
1.000000 0.411765 0.000000
1.000000 0.441176 0.000000
1.000000 0.470588 0.000000
1.000000 0.529412 0.000000
1.000000 0.558824 0.000000
1.000000 0.588235 0.000000
1.000000 0.617647 0.000000
1.000000 0.647059 0.000000
1.000000 0.676471 0.000000
1.000000 0.705882 0.000000
1.000000 0.735294 0.000000
1.000000 0.764706 0.000000
1.000000 0.794118 0.000000
1.000000 0.823529 0.000000
1.000000 0.852941 0.000000
1.000000 0.882353 0.000000
1.000000 0.911765 0.000000
1.000000 0.941176 0.000000
1.000000 0.970588 0.000000
0.970588 1.000000 0.000000
0.941176 1.000000 0.000000
0.911765 1.000000 0.000000
0.882353 1.000000 0.000000
0.852941 1.000000 0.000000
0.823529 1.000000 0.000000
0.794118 1.000000 0.000000
0.764706 1.000000 0.000000
0.735294 1.000000 0.000000
0.705882 1.000000 0.000000
0.676471 1.000000 0.000000
0.647059 1.000000 0.000000
0.617647 1.000000 0.000000
0.588235 1.000000 0.000000
0.558824 1.000000 0.000000
0.529412 1.000000 0.000000
0.500000 1.000000 0.000000
0.470588 1.000000 0.000000
0.441176 1.000000 0.000000
0.411765 1.000000 0.000000
0.382353 1.000000 0.000000
0.352941 1.000000 0.000000
0.323529 1.000000 0.000000
0.294118 1.000000 0.000000
0.264706 1.000000 0.000000
0.235294 1.000000 0.000000
0.205882 1.000000 0.000000
0.176471 1.000000 0.000000
0.147059 1.000000 0.000000
0.117647 1.000000 0.000000
0.088235 1.000000 0.000000
0.058824 1.000000 0.000000
0.029412 1.000000 0.000000
0.000000 0.970588 0.000000
0.000000 0.941176 0.000000
0.000000 0.911765 0.000000
0.000000 0.882353 0.000000
0.000000 0.852941 0.000000
0.000000 0.823529 0.000000
0.000000 0.794118 0.000000
0.000000 0.764706 0.000000
0.000000 0.735294 0.000000
0.000000 0.705882 0.000000
0.000000 0.676471 0.000000
0.000000 0.647059 0.000000
0.000000 0.617647 0.000000
0.000000 0.588235 0.000000
0.000000 0.558824 0.000000
0.000000 0.529412 0.000000
0.007246 0.500000 0.000000
0.014493 0.500000 0.000000
0.021739 0.500000 0.000000
0.028986 0.500000 0.000000
0.036232 0.500000 0.000000
0.043478 0.500000 0.000000
0.050725 0.500000 0.000000
0.057971 0.500000 0.000000
0.065217 0.500000 0.000000
0.072464 0.500000 0.000000
0.079710 0.500000 0.000000
0.086957 0.500000 0.000000
0.094203 0.500000 0.000000
0.101449 0.500000 0.000000
0.108696 0.500000 0.000000
0.115942 0.500000 0.000000
0.123188 0.500000 0.000000
0.130435 0.500000 0.000000
0.137681 0.500000 0.000000
0.144928 0.500000 0.000000
0.152174 0.500000 0.000000
0.159420 0.500000 0.000000
0.166667 0.500000 0.000000
0.173913 0.500000 0.000000
0.181159 0.500000 0.000000
0.188406 0.500000 0.000000
0.195652 0.500000 0.000000
0.202899 0.500000 0.000000
0.210145 0.500000 0.000000
0.217391 0.500000 0.000000
0.224638 0.500000 0.000000
0.231884 0.500000 0.000000
0.239130 0.500000 0.000000
0.246377 0.500000 0.000000
0.253623 0.500000 0.000000
0.260870 0.500000 0.000000
0.268116 0.500000 0.000000
0.275362 0.500000 0.000000
0.282609 0.500000 0.000000
0.289855 0.500000 0.000000
0.297101 0.500000 0.000000
0.304348 0.500000 0.000000
0.311594 0.500000 0.000000
0.318841 0.500000 0.000000
0.326087 0.500000 0.000000
0.333333 0.500000 0.000000
0.340580 0.500000 0.000000
0.347826 0.500000 0.000000
0.355072 0.500000 0.000000
0.362319 0.500000 0.000000
0.369565 0.500000 0.000000
0.376812 0.500000 0.000000
0.384058 0.500000 0.000000
0.391304 0.500000 0.000000
0.398551 0.500000 0.000000
0.405797 0.500000 0.000000
0.413043 0.500000 0.000000
0.420290 0.500000 0.000000
0.427536 0.500000 0.000000
0.434783 0.500000 0.000000
0.442029 0.500000 0.000000
0.449275 0.500000 0.000000
0.456522 0.500000 0.000000
0.463768 0.500000 0.000000
0.471014 0.500000 0.000000
0.478261 0.500000 0.000000
0.485507 0.500000 0.000000
0.492754 0.500000 0.000000
0.510004 0.500000 0.000000
0.520408 0.500000 0.000000
0.531229 0.500000 0.000000
0.542483 0.500000 0.000000
0.554187 0.500000 0.000000
0.566359 0.500000 0.000000
0.579019 0.500000 0.000000
0.592185 0.500000 0.000000
0.605877 0.500000 0.000000
0.620118 0.500000 0.000000
0.634929 0.500000 0.000000
0.650332 0.500000 0.000000
0.666352 0.500000 0.000000
0.683013 0.500000 0.000000
0.700340 0.500000 0.000000
0.718361 0.500000 0.000000
0.737103 0.500000 0.000000
0.756595 0.500000 0.000000
0.776867 0.500000 0.000000
0.797950 0.500000 0.000000
0.819877 0.500000 0.000000
0.842681 0.500000 0.000000
0.866398 0.500000 0.000000
0.891064 0.500000 0.000000
0.916716 0.500000 0.000000
0.943396 0.500000 0.000000
0.971143 0.500000 0.000000
0.000000 0.470588 0.000000
0.000000 0.441176 0.000000
0.000000 0.411765 0.000000
0.000000 0.382353 0.000000
0.000000 0.352941 0.000000
0.000000 0.323529 0.000000
0.000000 0.294118 0.000000
0.000000 0.264706 0.000000
0.000000 0.235294 0.000000
0.000000 0.205882 0.000000
0.000000 0.176471 0.000000
0.000000 0.147059 0.000000
0.000000 0.117647 0.000000
0.000000 0.088235 0.000000
0.000000 0.058824 0.000000
0.000000 0.029412 0.000000
0.500341 0.497365 0.000000
0.501682 0.495729 0.000000
0.503023 0.494094 0.000000
0.504365 0.492458 0.000000
0.505706 0.490823 0.000000
0.507047 0.489187 0.000000
0.508388 0.487552 0.000000
0.509729 0.485916 0.000000
0.511070 0.484281 0.000000
0.512411 0.482645 0.000000
0.513753 0.481010 0.000000
0.515094 0.479375 0.000000
0.516435 0.477739 0.000000
0.517776 0.476104 0.000000
0.519117 0.474468 0.000000
0.520458 0.472833 0.000000
0.521799 0.471197 0.000000
0.523140 0.469562 0.000000
0.524482 0.467926 0.000000
0.525823 0.466291 0.000000
0.527164 0.464656 0.000000
0.528505 0.463020 0.000000
0.529846 0.461385 0.000000
0.531187 0.459749 0.000000
0.532528 0.458114 0.000000
0.533870 0.456478 0.000000
0.535211 0.454843 0.000000
0.536552 0.453207 0.000000
0.537893 0.451572 0.000000
0.539234 0.449936 0.000000
0.540575 0.448301 0.000000
0.541916 0.446666 0.000000
0.543258 0.445030 0.000000
0.544599 0.443395 0.000000
0.545940 0.441759 0.000000
0.547281 0.440124 0.000000
0.548622 0.438488 0.000000
0.549963 0.436853 0.000000
0.551304 0.435217 0.000000
0.552645 0.433582 0.000000
0.553987 0.431946 0.000000
0.555328 0.430311 0.000000
0.556669 0.428676 0.000000
0.558010 0.427040 0.000000
0.559351 0.425405 0.000000
0.560692 0.423769 0.000000
0.562033 0.422134 0.000000
0.563375 0.420498 0.000000
0.564716 0.418863 0.000000
0.566057 0.417227 0.000000
0.567398 0.415592 0.000000
0.568739 0.413957 0.000000
0.570080 0.412321 0.000000
0.571421 0.410686 0.000000
0.572763 0.409050 0.000000
0.574104 0.407415 0.000000
0.575445 0.405779 0.000000
0.576786 0.404144 0.000000
0.578127 0.402508 0.000000
0.579468 0.400873 0.000000
0.580809 0.399237 0.000000
0.582151 0.397602 0.000000
0.583492 0.395967 0.000000
0.584833 0.394331 0.000000
0.586174 0.392696 0.000000
0.587515 0.391060 0.000000
0.588856 0.389425 0.000000
0.590197 0.387789 0.000000
0.591538 0.386154 0.000000
0.592880 0.384518 0.000000
0.594221 0.382883 0.000000
0.595562 0.381247 0.000000
0.596903 0.379612 0.000000
0.598244 0.377977 0.000000
0.599585 0.376341 0.000000
0.600926 0.374706 0.000000
0.602268 0.373070 0.000000
0.603609 0.371435 0.000000
0.604950 0.369799 0.000000
0.606291 0.368164 0.000000
0.607632 0.366528 0.000000
0.608973 0.364893 0.000000
0.610314 0.363258 0.000000
0.611656 0.361622 0.000000
0.612997 0.359987 0.000000
0.614338 0.358351 0.000000
0.615679 0.356716 0.000000
0.617020 0.355080 0.000000
0.618361 0.353445 0.000000
0.619702 0.351809 0.000000
0.621043 0.350174 0.000000
0.622385 0.348538 0.000000
0.623726 0.346903 0.000000
0.625067 0.345268 0.000000
0.626408 0.343632 0.000000
0.627749 0.341997 0.000000
0.629090 0.340361 0.000000
0.630431 0.338726 0.000000
0.631773 0.337090 0.000000
0.633114 0.335455 0.000000
0.634455 0.333819 0.000000
0.635796 0.332184 0.000000
0.637137 0.330548 0.000000
0.638478 0.328913 0.000000
0.639819 0.327278 0.000000
0.641161 0.325642 0.000000
0.642502 0.324007 0.000000
0.643843 0.322371 0.000000
0.645184 0.320736 0.000000
0.646525 0.319100 0.000000
0.647866 0.317465 0.000000
0.649207 0.315829 0.000000
0.650548 0.314194 0.000000
0.651890 0.312559 0.000000
0.653231 0.310923 0.000000
0.654572 0.309288 0.000000
0.655913 0.307652 0.000000
0.657254 0.306017 0.000000
0.658595 0.304381 0.000000
0.659936 0.302746 0.000000
0.661278 0.301110 0.000000
0.662619 0.299475 0.000000
0.663960 0.297839 0.000000
0.665301 0.296204 0.000000
0.666642 0.294569 0.000000
0.667983 0.292933 0.000000
0.669324 0.291298 0.000000
0.670666 0.289662 0.000000
0.672007 0.288027 0.000000
0.673348 0.286391 0.000000
0.674689 0.284756 0.000000
0.676030 0.283120 0.000000
0.677371 0.281485 0.000000
[...]
POINT_DATA 7341
SCALARS UX float 1
LOOKUP_TABLE default
0.000000
0.000000
0.218000
0.218000
0.041977
0.047786
0.120510
0.047439
0.000676
-0.000000
0.000000
0.000000
0.000000
0.000000
0.000000
0.000000
0.000000
0.000000
0.000000
0.000000
0.000000
0.000000
0.000000
0.000000
0.000000
0.000000
0.000000
0.000000
0.000000
0.000000
0.000000
0.000000
0.000000
0.000000
0.000000
0.000000
0.000000
0.000000
0.000000
0.000000
0.000000
-0.000000
0.006862
0.019368
0.028604
0.036289
0.043190
0.049503
0.055214
0.060845
0.066724
0.072527
0.078821
0.085445
0.091932
0.098631
0.105225
0.112145
0.128636
0.134952
0.141137
0.145919
0.150499
0.155422
0.160648
0.166255
0.171906
0.177632
0.183525
0.189381
0.195187
0.200943
0.206667
0.212349
0.218000
0.218000
0.218000
0.218000
0.218000
0.218000
0.218000
0.218000
0.218000
0.218000
0.218000
0.218000
0.218000
0.218000
0.218000
0.218000
0.218000
0.218000
0.218000
0.218000
0.218000
0.218000
0.218000
0.218000
0.218000
0.218000
0.218000
0.218000
0.218000
0.218000
0.218000
0.218000
0.218000
0.206870
0.195802
0.184765
0.173812
0.162891
0.151962
0.141017
0.129978
0.118856
0.107696
0.096688
0.085990
0.075801
0.066035
0.056681
0.047650
0.041586
0.041194
0.040785
0.040380
0.039977
0.039583
0.039195
0.038829
0.038495
0.038195
0.037920
0.037686
0.037461
0.037274
0.037088
0.036913
0.036760
0.036679
0.036706
0.036467
0.036491
0.036563
0.036840
0.037126
0.037450
0.037773
0.037974
0.038237
0.038645
0.038987
0.039338
0.039823
0.040252
0.040893
0.041352
0.041840
0.042266
0.042686
0.043135
0.043565
0.044038
0.044441
0.044629
0.044770
0.044802
0.044751
0.044709
0.044659
0.044611
0.044587
0.044556
0.044547
0.044566
0.044589
0.044615
0.044677
0.044740
0.044838
0.044955
0.045093
0.045243
0.045463
0.045707
0.045981
0.046265
0.046608
0.046950
0.047357
0.048434
0.049213
0.050115
0.051118
0.052250
0.053543
0.054940
0.056659
0.058521
0.060777
0.063196
0.066140
0.069468
0.072995
0.076518
0.080088
0.082878
0.086623
0.089920
0.093246
0.096721
0.100217
0.103715
0.107272
0.110941
0.114043
0.117465
0.039812
0.035309
0.031368
0.027865
0.025188
0.022630
0.020469
0.018451
0.016354
0.014577
0.013295
0.011495
0.010246
0.009175
0.007248
0.004854
0.047054
0.046670
0.046289
0.045912
0.045539
0.045171
0.044806
0.044445
0.044086
0.043732
0.043382
0.043037
0.042693
0.042353
0.042013
0.041677
0.041342
0.041013
0.040685
0.040360
0.040037
0.039717
0.039399
0.039083
0.038768
0.038456
0.038146
0.037839
0.037536
0.037236
0.036938
0.036645
0.036355
0.036067
0.035781
0.035499
0.035220
0.034942
0.034669
0.034400
0.034135
0.033875
0.033617
0.033367
0.033119
0.032874
0.032634
0.032398
0.032167
0.031939
0.031716
0.031497
0.031283
0.031077
0.030873
0.030675
0.030480
0.030290
0.030107
0.029929
0.029756
0.029587
0.029425
0.029268
0.029119
0.028974
0.028836
0.028702
0.028574
0.028451
0.028334
0.028220
0.028114
0.028013
0.027919
0.027832
0.027756
0.027686
0.027622
0.027569
0.027526
0.027497
0.027479
0.027473
0.027481
0.027502
0.027531
0.027560
0.027589
0.027553
0.027418
0.027201
0.026966
0.026731
0.026499
0.026269
0.026044
0.025825
0.025610
0.025399
0.025191
0.024987
0.024785
0.024586
0.024390
0.024196
0.024004
0.023814
0.023626
0.023438
0.023251
0.023065
0.022879
0.022693
0.022508
0.022324
0.022139
0.021955
0.021769
0.021583
0.021397
0.021210
0.021022
0.020834
0.020644
0.020454
0.020262
0.020070
0.019877
0.019683
0.019489
0.019293
0.019098
0.018901
0.018704
0.018507
0.018310
0.018113
0.017917
0.017721
0.017526
0.017331
0.017137
0.016945
0.016753
0.016563
0.016373
0.016186
0.016000
0.015817
0.015635
0.015456
0.015278
0.015102
0.014929
0.014759
0.014591
0.014426
0.014262
0.014101
0.013936
0.013756
0.013572
0.013389
0.013208
0.013028
0.012850
0.012674
0.012499
0.012325
0.012153
0.011983
0.011815
0.011648
0.011482
0.011319
0.011156
0.010995
0.010835
0.010677
0.010520
0.010364
0.010210
0.010057
0.009905
0.009755
0.009605
0.009457
0.009311
0.009166
0.009022
0.008880
0.008739
0.008599
0.008461
0.008325
0.008190
0.008056
0.007924
0.007793
0.007664
0.007537
0.007411
0.007286
0.007164
0.007043
0.006923
0.006805
0.006688
0.006573
0.006458
0.006346
0.006236
0.006127
0.006020
0.005915
0.005811
0.005710
0.005610
0.005511
0.005415
0.005320
0.005226
0.005134
0.005045
0.004956
0.004870
0.004786
0.004703
0.004623
0.004544
0.004468
0.004393
0.004319
0.004246
0.004174
0.004103
0.004033
0.003964
0.003896
0.003830
0.003765
0.003701
0.003639
0.003578
0.003519
0.003462
0.003406
0.003353
0.003303
0.003254
0.003206
0.003160
0.003114
0.003070
0.003027
0.002984
0.002943
0.002902
0.002862
0.002822
0.002783
0.002744
0.002705
0.002665
0.002626
0.002586
0.002545
0.002504
0.002462
0.002417
0.002372
0.002326
0.002279
0.002230
0.002177
0.002122
0.002065
0.002008
0.001948
0.001888
0.001827
0.001767
0.001706
0.001648
0.001592
0.001530
0.001469
0.001406
0.001342
0.001267
0.001194
0.001120
0.001044
0.000971
0.000899
0.000826
0.000754
0.036866
0.042308
0.042915
0.000459
0.000692
0.090979
0.000432
0.077670
0.035343
0.066038
0.064026
0.000269
0.018651
0.035623
0.040762
0.012636
0.054161
0.000305
0.001115
0.043030
0.018182
0.036936
0.050236
0.007996
0.043369
0.029129
0.038577
0.086799
0.100867
0.044025
0.002337
0.038183
0.042850
0.035228
0.035591
0.000624
0.046877
0.004634
0.044659
0.000669
0.039183
0.042941
0.042876
0.036444
0.002004
0.046317
0.001497
0.045158
0.037870
0.040237
0.000588
0.047890
0.026287
0.026096
0.000266
0.051033
0.058309
0.023302
0.070603
0.083780
0.047465
0.053527
0.000233
0.000296
0.043057
0.043641
0.016630
0.100725
0.106768
0.000507
0.094383
0.000568
0.073071
0.000479
0.042903
0.011345
0.000566
0.109444
0.007182
0.002532
0.005008
0.002563
0.002520
0.039990
0.037280
0.036252
0.040963
0.042558
0.042935
0.035792
0.035985
0.035458
0.035204
0.035194
0.035213
0.035373
0.039370
0.038197
0.037843
0.037516
0.045726
0.001140
0.045775
0.046830
0.041280
0.037774
0.001100
0.041920
0.001239
0.034255
0.067186
0.000793
0.016836
0.034425
0.041967
0.043462
0.000746
0.085508
0.012576
0.022656
0.047202
0.011362
0.001074
0.034623
0.045600
0.001265
0.044422
0.044595
0.039823
0.037064
0.006004
0.098537
0.045733
0.047095
0.000800
0.034339
0.035665
0.000320
0.049275
0.044744
0.034690
0.052771
0.000235
0.027435
0.043933
0.056340
0.008419
0.061245
0.021240
0.059308
0.067430
0.074666
0.000344
0.081127
0.001138
0.087449
0.043305
0.000615
0.079781
0.000681
0.097543
0.043088
0.093556
0.000411
0.014783
0.103914
0.042974
0.000794
0.009595
0.003873
0.001933
0.004708
0.042905
0.042888
0.037430
0.038019
0.041294
0.042633
0.042573
0.042503
0.036299
0.035766
0.035269
0.035208
0.035056
0.035519
0.045996
0.046861
0.035861
0.036520
0.036985
0.046676
0.038768
0.037414
0.039609
0.044934
0.046006
0.045259
0.035950
0.001863
0.074517
0.061591
0.031650
0.052184
0.041387
0.046759
0.042980
0.034886
0.000943
0.041553
0.013185
0.091618
0.096666
0.001763
0.003489
0.001401
0.041265
0.036819
0.000882
0.036249
0.041208
0.044602
0.018980
0.034329
0.039094
0.035264
0.042505
0.000762
0.088949
0.049466
0.047693
0.034317
0.000652
0.075753
0.056576
0.001322
0.078669
0.055265
0.048018
0.001393
0.067459
0.015259
0.044796
0.000878
0.001015
0.000943
0.045048
0.000700
0.019350
0.041670
0.041729
0.043819
0.088640
0.082246
0.001363
0.024878
0.060660
0.009909
0.045149
0.008303
0.007020
0.000886
0.005348
0.004300
0.040961
0.041019
0.040765
0.036638
0.035576
0.000798
0.040153
0.030881
0.034609
0.034866
0.046373
0.034245
0.036372
0.038850
0.034282
0.034234
0.034089
0.040899
0.037802
0.035552
0.044832
0.044968
0.044343
0.034199
0.045081
0.029416
0.007027
0.046086
0.044199
0.044404
0.042034
0.046917
0.039647
0.036836
0.040417
0.001865
0.073848
0.056299
0.001580
0.014359
0.033488
0.001225
0.002293
0.082802
0.012840
0.024713
0.001319
0.044863
0.009058
0.039517
0.033871
0.035267
0.001863
0.033518
0.001636
0.042729
0.067450
0.050571
0.054320
0.001453
0.059690
0.042138
0.040205
0.012148
0.070308
0.001456
0.041427
0.029227
0.044517
0.035218
0.094172
0.017897
0.082150
0.043511
0.002543
0.044254
0.007585
0.006366
0.004578
0.004911
0.065337
0.041435
0.002052
0.002034
0.041303
0.001563
0.041229
0.040455
0.076921
0.034900
0.034181
0.034204
0.040681
0.021341
0.036995
0.035863
0.035812
0.043962
0.039478
0.000658
0.033435
0.033316
0.036055
0.020970
0.039277
0.032659
0.038181
0.034724
0.041254
0.045676
0.043875
0.044266
0.043862
0.028287
0.026064
0.033434
0.043461
0.075622
0.035107
0.043853
0.044728
0.044186
0.047275
0.002436
0.002986
0.068243
0.002345
0.058578
0.032537
0.051231
0.030453
0.013332
0.046392
0.032577
0.001383
0.042738
0.044051
0.037921
0.043285
0.043232
0.062844
0.039998
0.002672
0.008454
0.002760
0.033866
0.045489
0.022673
0.005626
0.001525
0.002284
0.023567
0.039375
0.038702
0.001275
0.010136
0.052511
0.033625
0.043649
0.034626
0.078601
0.086929
0.052184
0.034257
0.033152
0.044308
0.047410
0.019222
0.001891
0.039993
0.079991
0.062117
0.039893
0.039699
0.003759
0.020335
0.042788
0.085395
0.033421
0.007135
0.026875
0.001739
0.001472
0.016164
0.070005
0.010720
0.005938
0.040288
0.041280
0.040612
0.041140
0.039010
0.001692
0.035757
0.039227
0.068800
0.001218
0.034917
0.040946
0.040208
0.039251
0.044897
0.043145
0.033366
0.033323
0.043507
0.035309
0.031810
0.033292
0.033356
0.001191
0.043110
0.033227
0.049175
0.043474
0.033867
0.034410
0.043079
0.038066
0.035644
0.039233
0.057633
0.048015
0.001842
0.043630
0.017357
0.021249
0.010405
0.037915
0.001944
0.074396
0.032620
0.002299
0.033100
0.042117
0.043268
0.038754
0.028328
0.001443
0.035386
0.010084
0.002290
0.002706
0.038448
0.043235
0.001793
0.044622
0.032126
0.042732
0.042296
0.059694
0.033840
0.032656
0.015149
0.002802
0.011680
0.071684
0.003350
0.005267
0.056014
0.002983
0.008099
0.001278
0.042508
0.078623
0.064869
0.064494
0.026067
0.006795
0.046911
0.002321
0.002364
0.040018
0.047166
0.038875
0.042465
0.019247
0.084561
0.043725
0.037940
0.038760
0.033226
0.039800
0.033391
0.037682
0.032328
0.043131
0.043375
0.026588
0.003124
0.032390
0.045630
0.035004
0.034264
0.037730
0.038234
0.040074
0.002234
0.007124
0.046235
0.046316
0.043505
0.034517
0.037439
0.043386
0.015145
0.034192
0.091084
0.042458
0.038515
0.073944
0.041591
0.033897
0.042855
0.042713
0.032391
0.037099
0.003599
0.060097
0.002989
0.054409
0.030642
0.012686
0.020679
0.014581
0.004571
0.001937
0.041010
0.036389
0.003596
0.062547
0.027587
0.035995
0.001938
0.065950
0.058109
0.003312
0.035606
0.038769
0.002035
0.041884
0.040443
0.036876
0.038176
0.032700
0.051456
0.037825
0.032195
0.043269
0.037502
0.032224
0.017256
0.034692
0.040134
0.032944
0.011031
0.023762
0.004316
0.045061
0.076799
0.002263
0.001009
0.006208
0.002479
0.043607
0.008457
0.042268
0.002549
0.045168
0.006464
0.018471
0.051359
0.021871
0.001961
0.009594
0.003917
0.041699
0.042617
0.042629
0.042275
0.062736
0.039005
0.039764
0.037008
0.079490
0.002781
0.031625
0.037143
0.001845
0.042299
0.031434
0.069544
0.042169
0.041936
0.033150
0.038344
0.032552
0.032953
0.039514
0.009460
0.032294
0.030375
0.042799
0.013009
0.048669
0.042115
0.033464
0.001774
0.041980
0.037343
0.042423
0.043692
0.004976
0.002410
0.016385
0.002406
0.007194
0.048304
0.002026
0.004776
0.035919
0.010657
0.040539
0.041694
0.003351
0.031406
0.022779
0.066309
0.042026
0.002955
0.002429
0.057907
0.003232
0.007740
0.003728
0.003155
0.037624
0.040552
0.041543
0.035977
0.031640
0.005889
0.041364
0.041318
0.041633
0.041499
0.041882
0.035339
0.056018
0.001563
0.070254
0.035969
0.063455
0.068248
0.025507
0.012890
0.030904
0.033179
0.032132
0.034122
0.003132
0.031691
0.002420
0.004040
0.002392
0.043610
0.025822
0.054104
0.070603
0.035805
0.014105
0.004037
0.005257
0.018754
0.038529
0.010558
0.037951
0.039335
0.041084
0.041541
0.035981
0.059517
0.036954
0.036545
0.036544
0.031650
0.031188
0.004875
0.036260
0.031272
0.073561
0.031185
0.041656
0.042149
0.037701
0.032946
0.042340
0.000423
0.042955
0.053354
0.041697
0.003217
0.041907
0.016486
0.036152
0.002691
0.042882
0.034788
0.003696
0.004054
0.055497
0.049449
0.030502
0.023163
0.016014
0.002953
0.034681
0.045644
0.022261
0.004394
0.039687
0.002426
0.002062
0.030269
0.040430
0.034250
0.003697
0.004710
0.041087
0.041018
0.006631
0.051836
0.055502
0.060210
0.003245
0.030557
0.035203
0.033572
0.026840
0.035942
0.044057
0.001171
0.036698
0.005296
0.062382
0.003389
0.041385
0.018668
0.004555
0.041220
0.041421
0.004551
0.031189
0.009387
0.042088
0.036330
0.002459
0.008694
0.041098
0.002636
0.031077
0.002854
0.003442
0.002962
0.041396
0.058401
0.007263
0.020390
0.038908
0.005256
0.040871
0.039415
0.014249
0.037518
0.035018
0.032538
0.033513
0.030176
0.035648
0.035117
0.029675
0.031627
0.018064
0.030812
0.050047
0.036785
0.042656
0.003977
0.036076
0.041430
0.041282
0.012332
0.002512
0.024581
0.064255
0.053761
0.036053
0.005813
0.049720
0.045917
0.017287
0.015709
0.003078
0.007672
0.019740
0.002859
0.054855
0.003401
0.023856
0.033899
0.039466
0.038295
0.004166
0.040474
0.012030
0.040459
0.035216
0.035041
0.003811
0.039814
0.004070
0.041157
0.041166
0.003462
0.034022
0.029382
0.004501
0.005101
0.050489
0.026249
0.047131
0.031200
0.032252
0.032910
0.035454
0.051714
0.003969
0.004329
0.005718
0.040537
0.002960
0.002876
0.005003
0.028963
0.003656
0.008776
0.053820
0.058153
0.001663
0.056756
0.039854
0.029798
0.006038
0.050358
0.040808
0.040054
0.003162
0.037711
0.030034
0.037295
0.034244
0.003691
0.040792
0.034586
0.029569
0.040963
0.034517
0.040838
0.030104
0.034146
0.034495
0.029714
0.002225
0.029738
0.026471
0.013794
0.040836
0.014399
0.040748
0.061819
0.050317
0.034464
0.000903
0.030577
0.035374
0.041138
0.039417
0.017494
0.003014
0.002472
0.040858
0.006533
0.034159
0.032935
0.004895
0.038240
0.048304
0.015260
0.004584
0.044110
0.019172
0.028662
0.003614
0.005652
0.004054
0.039543
0.003260
0.049827
0.038321
0.002842
0.002553
0.038252
0.046947
0.038399
0.004534
0.032841
0.049303
0.002912
0.005326
0.025767
0.004975
0.010999
0.040162
0.005605
0.032954
0.033570
0.028839
0.032077
0.039557
0.013361
0.010520
0.005998
0.038283
0.002123
0.021606
0.008952
0.020436
0.051592
0.028506
0.030115
0.029285
0.054395
0.004405
0.004514
0.049190
0.004147
0.006021
0.002196
0.006751
0.042047
0.003271
0.008119
0.046820
0.039890
0.040449
0.037025
0.036056
0.002777
0.033125
0.040213
0.040607
0.040540
0.040067
0.034218
0.005409
0.032106
0.012347
0.028385
0.034537
0.036418
0.031483
0.003243
0.033034
0.029297
0.028069
0.040466
0.004361
0.032922
0.046896
0.028292
0.005999
0.034409
0.001311
0.003041
0.040870
0.000391
0.003542
0.054211
0.039036
0.040433
0.039071
0.034706
0.017055
0.003465
0.052719
0.035182
0.048614
0.040356
0.040488
0.001077
0.033415
0.005437
0.006993
0.044943
0.035058
0.014880
0.043713
0.015516
0.005012
0.003960
0.008489
0.027937
0.018397
0.006880
0.048120
0.003274
0.037253
0.043771
0.032124
0.002561
0.023758
0.033683
0.005515
0.011211
0.004001
0.001533
0.002356
0.005076
0.044873
0.004767
0.004550
0.003684
0.046048
0.046215
0.005306
0.045778
0.001975
0.038251
0.046414
0.038871
0.037240
0.007021
0.033922
0.034143
0.039463
0.038403
0.030999
0.031242
0.024033
0.005473
0.004272
0.011831
0.007570
0.004750
0.049977
0.043877
0.039632
0.034890
0.033105
0.040170
0.027902
0.028644
0.032608
0.036591
0.042337
0.011867
0.032697
0.027510
0.001532
0.039863
0.033492
0.032506
0.027355
0.040177
0.039740
0.029279
0.027078
0.032071
0.021108
0.003375
0.014148
0.005582
0.040112
0.039460
0.039787
0.040430
0.003216
0.040632
0.032513
0.016671
0.038007
0.029730
0.040053
0.004861
0.039965
0.002904
0.046506
0.038283
0.039946
0.003521
0.009920
0.006839
0.002706
0.031178
0.033711
0.008170
0.006235
0.041897
0.036990
0.041063
0.016405
0.004781
0.005886
0.004012
0.026246
0.003710
0.041017
0.043956
0.032152
0.003211
0.029405
0.043666
0.009137
0.002291
0.032092
0.005631
0.009862
0.037522
0.006511
0.001771
0.027034
0.013529
0.005895
0.007869
0.042516
0.039232
0.004271
0.038029
0.041939
0.026327
0.005745
0.041214
0.005566
0.038761
0.037398
0.004921
0.005327
0.005236
0.003793
0.006793
0.009708
0.018887
0.027931
0.035332
0.032277
0.032689
0.013528
0.040941
0.002316
0.042597
0.038142
0.039141
0.036132
0.003789
0.038485
0.037870
0.012933
0.029797
0.031321
0.031254
0.031252
0.030524
0.010098
0.027900
0.043489
0.032833
0.039798
0.039753
0.006589
0.030698
0.031193
0.025489
0.042765
0.039605
0.039807
0.003635
0.020893
0.003005
0.018317
0.031168
0.043983
0.027371
0.031597
0.039384
0.026813
0.001904
0.039145
0.037217
0.038615
0.047539
0.041880
0.004143
0.039331
0.026932
0.004318
0.039389
0.039678
0.002839
0.039523
0.035839
0.006207
0.035990
0.032201
0.038631
0.016066
0.038773
0.039748
0.004674
0.005537
0.009245
0.017898
0.004186
0.027634
0.038764
0.006606
0.039514
0.003204
0.002135
0.034160
0.030321
0.003950
0.002936
0.039518
0.002252
0.036464
0.041085
0.003169
0.004616
0.031168
0.029851
0.001878
0.042022
0.037399
0.012190
0.004013
0.004034
0.035400
0.005447
0.005933
0.024095
0.037580
0.007751
0.025521
0.040896
0.021354
0.006169
0.039319
0.026177
0.035072
0.007082
0.008515
0.005869
0.038532
0.039365
0.006061
0.038379
0.044160
0.002654
0.037230
0.031656
0.010516
0.012752
0.006562
0.001868
0.008400
0.014996
0.024520
0.007754
0.037744
0.034790
0.003835
0.038739
0.039196
0.030881
0.029032
0.001874
0.031760
0.036662
0.039333
0.036964
0.039506
0.030903
0.039355
0.030880
0.008390
0.010816
0.003715
0.038754
0.008654
0.038936
0.028641
0.015271
0.003267
0.040322
0.040330
0.030265
0.038830
0.039055
0.025413
0.003593
0.038817
0.038971
0.006246
0.039141
0.032913
0.008118
0.032962
0.030508
0.034969
0.009331
0.006486
0.007230
0.029847
0.038319
0.039681
0.036695
0.038827
0.038370
0.008859
0.028243
0.007416
0.036893
0.004878
0.004467
0.024640
0.026736
0.036467
0.022565
0.002506
0.003542
0.029401
0.035812
0.002561
0.001945
0.029178
0.002945
0.008236
0.003209
0.029993
0.010177
0.013165
0.028026
0.001423
0.004517
0.006124
0.037458
0.029756
0.036792
0.041799
0.041361
0.006451
0.008307
0.006463
0.006883
0.007772
0.028855
0.006714
0.011559
0.007391
0.016425
0.038351
0.038262
0.014373
0.029124
0.004063
0.038895
0.030099
0.040673
0.004647
0.023865
0.037255
0.034099
0.037817
0.038961
0.029595
0.009249
0.038564
0.030686
0.036008
0.011689
0.003316
0.024996
0.037808
0.003974
0.003858
0.037318
0.038930
0.038877
0.044589
0.034356
0.003952
0.001624
0.006381
0.029637
0.007878
0.038205
0.002323
0.002176
0.033635
0.003681
0.006634
0.045533
0.038566
0.038550
0.036720
0.022490
0.001872
0.038514
0.011114
0.038168
0.038861
0.001653
0.005335
0.020307
0.018244
0.029004
0.007083
0.033811
0.008184
0.008418
0.035521
0.018772
0.034281
0.006914
0.036861
0.037279
0.037883
0.012378
0.006041
0.017651
0.008086
0.039939
0.036933
0.009124
0.040950
0.003978
0.004469
0.005228
0.004221
0.028413
0.002177
0.004155
0.009837
0.032474
0.002576
0.003439
0.032170
0.002403
0.006569
0.023825
0.001987
0.001582
0.037316
0.028581
0.005297
0.007651
0.038851
0.037301
0.037972
0.037171
0.038459
0.009940
0.036160
0.013833
0.025196
0.037791
0.042656
0.037296
0.002758
0.029005
0.001178
0.009011
0.007132
0.004490
0.035025
0.036087
0.006734
0.014618
0.036558
0.007189
0.027482
0.010707
0.004406
0.017156
0.029589
0.027519
0.038586
0.040692
0.011822
0.038009
0.025256
0.024589
0.032554
0.038210
0.029303
0.038290
0.036177
0.002906
0.036834
0.005019
0.038275
0.004174
0.027274
0.040151
0.022414
0.044324
0.030026
0.037691
0.035937
0.006972
0.002528
0.032022
0.006399
0.029448
0.005593
0.027595
0.007283
0.011624
0.003589
0.032136
0.038450
0.038094
0.036401
0.036995
0.003832
0.007743
0.037654
0.003440
0.024897
0.001274
0.022588
0.031131
0.007551
0.031271
0.004283
0.048163
0.027866
0.010194
0.030804
0.035076
0.011919
0.036143
0.008462
0.034044
0.005519
0.036142
0.004924
0.036856
0.023811
0.008721
0.004562
0.035982
0.016238
0.037493
0.039915
0.024385
0.002881
0.019140
0.035542
0.004547
0.008087
0.031394
0.030796
0.008750
0.003815
0.027534
0.035604
0.001177
0.037746
0.005943
0.004441
0.002619
0.037433
0.002441
0.003410
0.007491
0.010362
0.001182
0.003092
0.026360
0.026625
0.038629
0.005149
0.022088
0.011318
0.007643
0.007916
0.036754
0.038099
0.032538
0.037735
0.035865
0.007237
0.002282
0.036384
0.035529
0.009144
0.032987
0.004420
0.012297
0.004247
0.004978
0.029294
0.004498
0.015466
0.001677
0.001942
0.026822
0.036069