# vtk DataFile Version 2.0
Test
ASCII
DATASET POLYDATA
POINTS 7341 float
0.000000 0.000000 0.000000
1.000000 0.000000 0.000000
1.000000 1.000000 0.000000
0.000000 1.000000 0.000000
0.000000 0.500000 0.000000
0.500000 0.500000 0.000000
1.000000 0.500000 0.000000
0.499000 0.499000 0.000000
0.900000 0.010000 0.000000
0.029412 0.000000 0.000000
0.058824 0.000000 0.000000
0.088235 0.000000 0.000000
0.117647 0.000000 0.000000
0.147059 0.000000 0.000000
0.176471 0.000000 0.000000
0.205882 0.000000 0.000000
0.235294 0.000000 0.000000
0.264706 0.000000 0.000000
0.294118 0.000000 0.000000
0.323529 0.000000 0.000000
0.352941 0.000000 0.000000
0.382353 0.000000 0.000000
0.411765 0.000000 0.000000
0.441176 0.000000 0.000000
0.470588 0.000000 0.000000
0.500000 0.000000 0.000000
0.529412 0.000000 0.000000
0.558824 0.000000 0.000000
0.588235 0.000000 0.000000
0.617647 0.000000 0.000000
0.647059 0.000000 0.000000
0.676471 0.000000 0.000000
0.705882 0.000000 0.000000
0.735294 0.000000 0.000000
0.764706 0.000000 0.000000
0.794118 0.000000 0.000000
0.823529 0.000000 0.000000
0.852941 0.000000 0.000000
0.882353 0.000000 0.000000
0.911765 0.000000 0.000000
0.941176 0.000000 0.000000
0.970588 0.000000 0.000000
1.000000 0.029412 0.000000
1.000000 0.058824 0.000000
1.000000 0.088235 0.000000
1.000000 0.117647 0.000000
1.000000 0.147059 0.000000
1.000000 0.176471 0.000000
1.000000 0.205882 0.000000
1.000000 0.235294 0.000000
1.000000 0.264706 0.000000
1.000000 0.294118 0.000000
1.000000 0.323529 0.000000
1.000000 0.352941 0.000000
1.000000 0.382353 0.000000
1.000000 0.411765 0.000000
1.000000 0.441176 0.000000
1.000000 0.470588 0.000000
1.000000 0.529412 0.000000
1.000000 0.558824 0.000000
1.000000 0.588235 0.000000
1.000000 0.617647 0.000000
1.000000 0.647059 0.000000
1.000000 0.676471 0.000000
1.000000 0.705882 0.000000
1.000000 0.735294 0.000000
1.000000 0.764706 0.000000
1.000000 0.794118 0.000000
1.000000 0.823529 0.000000
1.000000 0.852941 0.000000
1.000000 0.882353 0.000000
1.000000 0.911765 0.000000
1.000000 0.941176 0.000000
1.000000 0.970588 0.000000
0.970588 1.000000 0.000000
0.941176 1.000000 0.000000
0.911765 1.000000 0.000000
0.882353 1.000000 0.000000
0.852941 1.000000 0.000000
0.823529 1.000000 0.000000
0.794118 1.000000 0.000000
0.764706 1.000000 0.000000
0.735294 1.000000 0.000000
0.705882 1.000000 0.000000
0.676471 1.000000 0.000000
0.647059 1.000000 0.000000
0.617647 1.000000 0.000000
0.588235 1.000000 0.000000
0.558824 1.000000 0.000000
0.529412 1.000000 0.000000
0.500000 1.000000 0.000000
0.470588 1.000000 0.000000
0.441176 1.000000 0.000000
0.411765 1.000000 0.000000
0.382353 1.000000 0.000000
0.352941 1.000000 0.000000
0.323529 1.000000 0.000000
0.294118 1.000000 0.000000
0.264706 1.000000 0.000000
0.235294 1.000000 0.000000
0.205882 1.000000 0.000000
0.176471 1.000000 0.000000
0.147059 1.000000 0.000000
0.117647 1.000000 0.000000
0.088235 1.000000 0.000000
0.058824 1.000000 0.000000
0.029412 1.000000 0.000000
0.000000 0.970588 0.000000
0.000000 0.941176 0.000000
0.000000 0.911765 0.000000
0.000000 0.882353 0.000000
0.000000 0.852941 0.000000
0.000000 0.823529 0.000000
0.000000 0.794118 0.000000
0.000000 0.764706 0.000000
0.000000 0.735294 0.000000
0.000000 0.705882 0.000000
0.000000 0.676471 0.000000
0.000000 0.647059 0.000000
0.000000 0.617647 0.000000
0.000000 0.588235 0.000000
0.000000 0.558824 0.000000
0.000000 0.529412 0.000000
0.007246 0.500000 0.000000
0.014493 0.500000 0.000000
0.021739 0.500000 0.000000
0.028986 0.500000 0.000000
0.036232 0.500000 0.000000
0.043478 0.500000 0.000000
0.050725 0.500000 0.000000
0.057971 0.500000 0.000000
0.065217 0.500000 0.000000
0.072464 0.500000 0.000000
0.079710 0.500000 0.000000
0.086957 0.500000 0.000000
0.094203 0.500000 0.000000
0.101449 0.500000 0.000000
0.108696 0.500000 0.000000
0.115942 0.500000 0.000000
0.123188 0.500000 0.000000
0.130435 0.500000 0.000000
0.137681 0.500000 0.000000
0.144928 0.500000 0.000000
0.152174 0.500000 0.000000
0.159420 0.500000 0.000000
0.166667 0.500000 0.000000
0.173913 0.500000 0.000000
0.181159 0.500000 0.000000
0.188406 0.500000 0.000000
0.195652 0.500000 0.000000
0.202899 0.500000 0.000000
0.210145 0.500000 0.000000
0.217391 0.500000 0.000000
0.224638 0.500000 0.000000
0.231884 0.500000 0.000000
0.239130 0.500000 0.000000
0.246377 0.500000 0.000000
0.253623 0.500000 0.000000
0.260870 0.500000 0.000000
0.268116 0.500000 0.000000
0.275362 0.500000 0.000000
0.282609 0.500000 0.000000
0.289855 0.500000 0.000000
0.297101 0.500000 0.000000
0.304348 0.500000 0.000000
0.311594 0.500000 0.000000
0.318841 0.500000 0.000000
0.326087 0.500000 0.000000
0.333333 0.500000 0.000000
0.340580 0.500000 0.000000
0.347826 0.500000 0.000000
0.355072 0.500000 0.000000
0.362319 0.500000 0.000000
0.369565 0.500000 0.000000
0.376812 0.500000 0.000000
0.384058 0.500000 0.000000
0.391304 0.500000 0.000000
0.398551 0.500000 0.000000
0.405797 0.500000 0.000000
0.413043 0.500000 0.000000
0.420290 0.500000 0.000000
0.427536 0.500000 0.000000
0.434783 0.500000 0.000000
0.442029 0.500000 0.000000
0.449275 0.500000 0.000000
0.456522 0.500000 0.000000
0.463768 0.500000 0.000000
0.471014 0.500000 0.000000
0.478261 0.500000 0.000000
0.485507 0.500000 0.000000
0.492754 0.500000 0.000000
0.510004 0.500000 0.000000
0.520408 0.500000 0.000000
0.531229 0.500000 0.000000
0.542483 0.500000 0.000000
0.554187 0.500000 0.000000
0.566359 0.500000 0.000000
0.579019 0.500000 0.000000
0.592185 0.500000 0.000000
0.605877 0.500000 0.000000
0.620118 0.500000 0.000000
0.634929 0.500000 0.000000
0.650332 0.500000 0.000000
0.666352 0.500000 0.000000
0.683013 0.500000 0.000000
0.700340 0.500000 0.000000
0.718361 0.500000 0.000000
0.737103 0.500000 0.000000
0.756595 0.500000 0.000000
0.776867 0.500000 0.000000
0.797950 0.500000 0.000000
0.819877 0.500000 0.000000
0.842681 0.500000 0.000000
0.866398 0.500000 0.000000
0.891064 0.500000 0.000000
0.916716 0.500000 0.000000
0.943396 0.500000 0.000000
0.971143 0.500000 0.000000
0.000000 0.470588 0.000000
0.000000 0.441176 0.000000
0.000000 0.411765 0.000000
0.000000 0.382353 0.000000
0.000000 0.352941 0.000000
0.000000 0.323529 0.000000
0.000000 0.294118 0.000000
0.000000 0.264706 0.000000
0.000000 0.235294 0.000000
0.000000 0.205882 0.000000
0.000000 0.176471 0.000000
0.000000 0.147059 0.000000
0.000000 0.117647 0.000000
0.000000 0.088235 0.000000
0.000000 0.058824 0.000000
0.000000 0.029412 0.000000
0.500341 0.497365 0.000000
0.501682 0.495729 0.000000
0.503023 0.494094 0.000000
0.504365 0.492458 0.000000
0.505706 0.490823 0.000000
0.507047 0.489187 0.000000
0.508388 0.487552 0.000000
0.509729 0.485916 0.000000
0.511070 0.484281 0.000000
0.512411 0.482645 0.000000
0.513753 0.481010 0.000000
0.515094 0.479375 0.000000
0.516435 0.477739 0.000000
0.517776 0.476104 0.000000
0.519117 0.474468 0.000000
0.520458 0.472833 0.000000
0.521799 0.471197 0.000000
0.523140 0.469562 0.000000
0.524482 0.467926 0.000000
0.525823 0.466291 0.000000
0.527164 0.464656 0.000000
0.528505 0.463020 0.000000
0.529846 0.461385 0.000000
0.531187 0.459749 0.000000
0.532528 0.458114 0.000000
0.533870 0.456478 0.000000
0.535211 0.454843 0.000000
0.536552 0.453207 0.000000
0.537893 0.451572 0.000000
0.539234 0.449936 0.000000
0.540575 0.448301 0.000000
0.541916 0.446666 0.000000
0.543258 0.445030 0.000000
0.544599 0.443395 0.000000
0.545940 0.441759 0.000000
0.547281 0.440124 0.000000
0.548622 0.438488 0.000000
0.549963 0.436853 0.000000
0.551304 0.435217 0.000000
0.552645 0.433582 0.000000
0.553987 0.431946 0.000000
0.555328 0.430311 0.000000
0.556669 0.428676 0.000000
0.558010 0.427040 0.000000
0.559351 0.425405 0.000000
0.560692 0.423769 0.000000
0.562033 0.422134 0.000000
0.563375 0.420498 0.000000
0.564716 0.418863 0.000000
0.566057 0.417227 0.000000
0.567398 0.415592 0.000000
0.568739 0.413957 0.000000
0.570080 0.412321 0.000000
0.571421 0.410686 0.000000
0.572763 0.409050 0.000000
0.574104 0.407415 0.000000
0.575445 0.405779 0.000000
0.576786 0.404144 0.000000
0.578127 0.402508 0.000000
0.579468 0.400873 0.000000
0.580809 0.399237 0.000000
0.582151 0.397602 0.000000
0.583492 0.395967 0.000000
0.584833 0.394331 0.000000
0.586174 0.392696 0.000000
0.587515 0.391060 0.000000
0.588856 0.389425 0.000000
0.590197 0.387789 0.000000
0.591538 0.386154 0.000000
0.592880 0.384518 0.000000
0.594221 0.382883 0.000000
0.595562 0.381247 0.000000
0.596903 0.379612 0.000000
0.598244 0.377977 0.000000
0.599585 0.376341 0.000000
0.600926 0.374706 0.000000
0.602268 0.373070 0.000000
0.603609 0.371435 0.000000
0.604950 0.369799 0.000000
0.606291 0.368164 0.000000
0.607632 0.366528 0.000000
0.608973 0.364893 0.000000
0.610314 0.363258 0.000000
0.611656 0.361622 0.000000
0.612997 0.359987 0.000000
0.614338 0.358351 0.000000
0.615679 0.356716 0.000000
0.617020 0.355080 0.000000
0.618361 0.353445 0.000000
0.619702 0.351809 0.000000
0.621043 0.350174 0.000000
0.622385 0.348538 0.000000
0.623726 0.346903 0.000000
0.625067 0.345268 0.000000
0.626408 0.343632 0.000000
0.627749 0.341997 0.000000
0.629090 0.340361 0.000000
0.630431 0.338726 0.000000
0.631773 0.337090 0.000000
0.633114 0.335455 0.000000
0.634455 0.333819 0.000000
0.635796 0.332184 0.000000
0.637137 0.330548 0.000000
0.638478 0.328913 0.000000
0.639819 0.327278 0.000000
0.641161 0.325642 0.000000
0.642502 0.324007 0.000000
0.643843 0.322371 0.000000
0.645184 0.320736 0.000000
0.646525 0.319100 0.000000
0.647866 0.317465 0.000000
0.649207 0.315829 0.000000
0.650548 0.314194 0.000000
0.651890 0.312559 0.000000
0.653231 0.310923 0.000000
0.654572 0.309288 0.000000
0.655913 0.307652 0.000000
0.657254 0.306017 0.000000
0.658595 0.304381 0.000000
0.659936 0.302746 0.000000
0.661278 0.301110 0.000000
0.662619 0.299475 0.000000
0.663960 0.297839 0.000000
0.665301 0.296204 0.000000
0.666642 0.294569 0.000000
0.667983 0.292933 0.000000
0.669324 0.291298 0.000000
0.670666 0.289662 0.000000
0.672007 0.288027 0.000000
0.673348 0.286391 0.000000
0.674689 0.284756 0.000000
0.676030 0.283120 0.000000
0.677371 0.281485 0.000000
[...]
POINT_DATA 7341
SCALARS UX float 1
LOOKUP_TABLE default
0.000000
0.000000
0.130500
0.130500
0.064368
0.057219
0.053926
0.053097
0.000483
-0.000000
0.000000
0.000000
0.000000
0.000000
0.000000
0.000000
0.000000
0.000000
0.000000
0.000000
0.000000
0.000000
0.000000
0.000000
0.000000
0.000000
0.000000
0.000000
0.000000
0.000000
0.000000
0.000000
0.000000
0.000000
0.000000
0.000000
0.000000
0.000000
0.000000
0.000000
0.000000
-0.000000
0.003173
0.004854
0.006564
0.008452
0.010577
0.012905
0.015454
0.018066
0.020948
0.023979
0.027183
0.030580
0.034174
0.038098
0.042590
0.047590
0.060600
0.066462
0.071819
0.076645
0.081200
0.085650
0.089943
0.094134
0.098273
0.102387
0.106453
0.110493
0.114515
0.118521
0.122522
0.126514
0.130500
0.130500
0.130500
0.130500
0.130500
0.130500
0.130500
0.130500
0.130500
0.130500
0.130500
0.130500
0.130500
0.130500
0.130500
0.130500
0.130500
0.130500
0.130500
0.130500
0.130500
0.130500
0.130500
0.130500
0.130500
0.130500
0.130500
0.130500
0.130500
0.130500
0.130500
0.130500
0.130500
0.126664
0.122828
0.118994
0.115155
0.111316
0.107466
0.103617
0.099759
0.095886
0.092012
0.088097
0.084146
0.080137
0.076053
0.071916
0.067743
0.063713
0.063455
0.062408
0.061727
0.061538
0.061603
0.061139
0.061849
0.060607
0.059085
0.060277
0.059277
0.058704
0.058756
0.058409
0.059410
0.056477
0.057537
0.057867
0.058245
0.058119
0.058297
0.057054
0.057477
0.058215
0.060020
0.058481
0.058914
0.059532
0.059862
0.060045
0.059082
0.058657
0.058644
0.056669
0.057134
0.057228
0.054914
0.056748
0.054892
0.055528
0.053764
0.054609
0.055294
0.053663
0.054278
0.054732
0.055312
0.055885
0.053771
0.057120
0.056070
0.057478
0.056380
0.058114
0.056931
0.058450
0.057803
0.057179
0.056472
0.058485
0.058117
0.057769
0.056650
0.057954
0.056063
0.057342
0.057022
0.055545
0.054229
0.053415
0.052976
0.052692
0.052383
0.052178
0.052059
0.051905
0.051789
0.051627
0.051630
0.051635
0.051655
0.051685
0.051747
0.051816
0.051879
0.051962
0.052069
0.052198
0.052350
0.052532
0.052745
0.052991
0.053279
0.053591
0.047616
0.043775
0.040511
0.037426
0.034546
0.031782
0.029161
0.026671
0.024269
0.021947
0.019599
0.017149
0.014538
0.012078
0.009312
0.006357
0.050931
0.048055
0.046995
0.046009
0.045379
0.044735
0.044277
0.043871
0.043696
0.043454
0.043109
0.042848
0.042572
0.042283
0.042015
0.041770
0.041533
0.041323
0.041133
0.040918
0.040710
0.040513
0.040333
0.040147
0.039963
0.039774
0.039584
0.039391
0.039206
0.039022
0.038841
0.038663
0.038487
0.038312
0.038137
0.037964
0.037792
0.037620
0.037450
0.037279
0.037108
0.036938
0.036768
0.036598
0.036428
0.036258
0.036087
0.035916
0.035745
0.035574
0.035402
0.035230
0.035058
0.034885
0.034712
0.034538
0.034364
0.034190
0.034015
0.033840
0.033665
0.033488
0.033312
0.033135
0.032958
0.032780
0.032603
0.032424
0.032245
0.032066
0.031887
0.031707
0.031526
0.031346
0.031165
0.030983
0.030802
0.030620
0.030437
0.030255
0.030072
0.029888
0.029705
0.029521
0.029337
0.029152
0.028968
0.028783
0.028598
0.028413
0.028228
0.028042
0.027857
0.027671
0.027485
0.027299
0.027113
0.026927
0.026741
0.026555
0.026369
0.026183
0.025997
0.025811
0.025625
0.025439
0.025253
0.025068
0.024882
0.024697
0.024512
0.024327
0.024142
0.023957
0.023773
0.023589
0.023405
0.023221
0.023038
0.022855
0.022672
0.022490
0.022308
0.022126
0.021945
0.021764
0.021583
0.021403
0.021223
0.021044
0.020865
0.020686
0.020508
0.020330
0.020153
0.019976
0.019800
0.019624
0.019449
0.019274
0.019100
0.018926
0.018753
0.018580
0.018408
0.018236
0.018065
0.017895
0.017725
0.017556
0.017387
0.017219
0.017051
0.016884
0.016718
0.016552
0.016387
0.016223
0.016059
0.015896
0.015733
0.015571
0.015410
0.015249
0.015089
0.014930
0.014771
0.014614
0.014457
0.014301
0.014145
0.013990
0.013836
0.013683
0.013530
0.013378
0.013227
0.013076
0.012926
0.012776
0.012628
0.012479
0.012332
0.012185
0.012039
0.011894
0.011749
0.011605
0.011462
0.011319
0.011178
0.011037
0.010897
0.010757
0.010618
0.010481
0.010343
0.010207
0.010071
0.009936
0.009802
0.009669
0.009537
0.009405
0.009274
0.009144
0.009015
0.008886
0.008758
0.008632
0.008506
0.008380
0.008256
0.008133
0.008010
0.007888
0.007767
0.007647
0.007528
0.007409
0.007292
0.007175
0.007060
0.006945
0.006831
0.006717
0.006605
0.006493
0.006383
0.006273
0.006164
0.006056
0.005949
0.005842
0.005737
0.005632
0.005528
0.005425
0.005323
0.005222
0.005122
0.005022
0.004924
0.004826
0.004729
0.004633
0.004538
0.004443
0.004350
0.004257
0.004166
0.004075
0.003985
0.003896
0.003808
0.003720
0.003634
0.003548
0.003463
0.003379
0.003296
0.003214
0.003132
0.003051
0.002971
0.002891
0.002813
0.002735
0.002657
0.002581
0.002505
0.002429
0.002354
0.002280
0.002206
0.002133
0.002061
0.001989
0.001917
0.001846
0.001775
0.001704
0.001634
0.001563
0.001493
0.001422
0.001351
0.001279
0.001207
0.001135
0.001061
0.000987
0.000913
0.000838
0.000764
0.000691
0.000619
0.000551
0.045771
0.045204
0.043883
0.001547
0.001164
0.046897
0.001092
0.046600
0.047536
0.023316
0.046542
0.001086
0.028619
0.049981
0.012027
0.020989
0.046493
0.000978
0.001599
0.043606
0.005826
0.050639
0.046495
0.013302
0.044129
0.039703
0.050433
0.033659
0.046986
0.044716
0.002044
0.045840
0.044814
0.049366
0.046012
0.000774
0.045770
0.002553
0.045294
0.001277
0.045631
0.044398
0.043289
0.050811
0.001481
0.047089
0.001173
0.045576
0.046971
0.052812
0.001049
0.045847
0.007604
0.037051
0.001008
0.046176
0.046569
0.034058
0.046344
0.046685
0.014792
0.017531
0.001093
0.001100
0.043563
0.044498
0.025956
0.041773
0.047359
0.001108
0.046955
0.001117
0.026629
0.001310
0.043424
0.018485
0.001596
0.047329
0.010689
0.002685
0.006936
0.003159
0.003913
0.045668
0.045937
0.045790
0.045552
0.045066
0.044350
0.045853
0.050366
0.049776
0.049058
0.048883
0.048521
0.046984
0.051227
0.049993
0.049993
0.050296
0.045615
0.001006
0.045509
0.050137
0.042560
0.043659
0.002739
0.042662
0.002365
0.044669
0.025904
0.002182
0.027584
0.047347
0.014816
0.043863
0.001952
0.042841
0.005787
0.034374
0.043569
0.019867
0.003315
0.044003
0.045392
0.001836
0.043947
0.043395
0.043305
0.048559
0.009408
0.042087
0.046448
0.047141
0.000838
0.046841
0.044736
0.000872
0.046453
0.045940
0.009741
0.046576
0.000982
0.039115
0.044890
0.046767
0.003993
0.046687
0.031655
0.019962
0.046653
0.046672
0.001043
0.046745
0.002313
0.046843
0.044099
0.001103
0.029936
0.001127
0.046841
0.043704
0.037308
0.001396
0.023732
0.047207
0.043643
0.001623
0.015957
0.004646
0.001725
0.006205
0.043414
0.043799
0.045780
0.045171
0.044625
0.044214
0.044804
0.043366
0.045742
0.045662
0.046276
0.049398
0.047711
0.049260
0.046175
0.048608
0.049283
0.050220
0.049776
0.046857
0.050213
0.048459
0.051133
0.044318
0.046295
0.044920
0.012371
0.003522
0.043594
0.043057
0.012632
0.043313
0.041929
0.043798
0.043798
0.048046
0.003068
0.042115
0.022670
0.042606
0.042445
0.003565
0.004023
0.001651
0.041928
0.047250
0.001922
0.048380
0.042187
0.044169
0.030151
0.044089
0.043104
0.048275
0.043193
0.002230
0.036942
0.043518
0.043401
0.047270
0.001970
0.029960
0.043175
0.002367
0.042863
0.020371
0.017289
0.002422
0.043164
0.025233
0.044595
0.002148
0.002242
0.002872
0.044319
0.001953
0.007299
0.042338
0.042486
0.043541
0.042714
0.042954
0.003466
0.036710
0.023019
0.017436
0.044879
0.014662
0.012032
0.002237
0.008034
0.005385
0.041811
0.042598
0.042922
0.043703
0.043827
0.001941
0.043206
0.042015
0.044613
0.044007
0.043915
0.044405
0.047998
0.049175
0.046498
0.045653
0.044876
0.042171
0.048474
0.048094
0.044365
0.044541
0.043892
0.046780
0.044377
0.010199
0.003900
0.045968
0.043761
0.044423
0.042783
0.048560
0.041148
0.042503
0.041866
0.004090
0.040059
0.022935
0.003397
0.024739
0.045068
0.002964
0.005420
0.039334
0.006707
0.037064
0.002824
0.041938
0.016382
0.041639
0.042925
0.047064
0.003648
0.045796
0.004857
0.043512
0.028041
0.043296
0.043175
0.002463
0.043248
0.042985
0.041576
0.021592
0.042761
0.003291
0.041988
0.041117
0.042105
0.014347
0.042497
0.029530
0.033280
0.043369
0.003602
0.044066
0.013472
0.010734
0.006412
0.007148
0.042943
0.042099
0.003637
0.003697
0.041901
0.004586
0.042053
0.043049
0.039890
0.043764
0.045936
0.044183
0.042638
0.009642
0.046863
0.043579
0.048133
0.043684
0.041318
0.002011
0.043471
0.043598
0.046993
0.032265
0.049500
0.042506
0.048452
0.047554
0.042395
0.045806
0.043719
0.043891
0.043521
0.011151
0.008736
0.045293
0.043247
0.042910
0.047681
0.043583
0.043783
0.044383
0.049156
0.006655
0.005174
0.037608
0.004571
0.040690
0.042522
0.041212
0.014111
0.023478
0.041375
0.043787
0.002813
0.041040
0.042145
0.042109
0.043411
0.043223
0.040527
0.041291
0.004846
0.015160
0.005577
0.046283
0.041945
0.035018
0.008932
0.003233
0.004119
0.011040
0.041093
0.041955
0.002988
0.005554
0.020844
0.042947
0.042991
0.042909
0.033471
0.038464
0.040459
0.046596
0.043705
0.043777
0.041116
0.008279
0.005180
0.041362
0.039648
0.025484
0.041204
0.041130
0.005751
0.032320
0.042686
0.039100
0.045688
0.012449
0.039019
0.004509
0.003374
0.027229
0.039718
0.019032
0.009752
0.041764
0.042432
0.042005
0.016332
0.041611
0.003442
0.042552
0.041341
0.040611
0.003002
0.046244
0.042216
0.050772
0.043514
0.045338
0.043490
0.043050
0.043172
0.043448
0.045788
0.043223
0.044512
0.044161
0.002728
0.042978
0.045190
0.041112
0.042694
0.042486
0.046358
0.043027
0.040469
0.041544
0.041177
0.025085
0.039576
0.003925
0.040080
0.009603
0.033780
0.006439
0.040979
0.003627
0.036906
0.044650
0.004573
0.042042
0.041004
0.042342
0.040829
0.040604
0.002716
0.015795
0.017968
0.004394
0.004957
0.040607
0.041918
0.003675
0.039760
0.042918
0.042926
0.042958
0.040235
0.045447
0.044620
0.026099
0.007224
0.020922
0.037293
0.007521
0.008276
0.040862
0.005248
0.014271
0.003122
0.042195
0.035930
0.040165
0.037460
0.038558
0.011554
0.018651
0.006452
0.005764
0.041649
0.020390
0.040943
0.042455
0.031523
0.036471
0.043793
0.040466
0.041727
0.044105
0.041154
0.044775
0.040606
0.042544
0.043251
0.043053
0.012624
0.005414
0.043819
0.045092
0.042670
0.046419
0.042227
0.041998
0.041660
0.003879
0.004432
0.041959
0.039719
0.043023
0.044114
0.042333
0.043917
0.008439
0.045186
0.039222
0.042435
0.040670
0.030692
0.042623
0.041861
0.042892
0.042693
0.042143
0.040055
0.007087
0.035559
0.005480
0.038758
0.015516
0.008361
0.033294
0.025328
0.009771
0.003481
0.040256
0.039827
0.006273
0.027738
0.040037
0.041205
0.004137
0.034845
0.038417
0.008636
0.041343
0.040930
0.004253
0.042590
0.041836
0.041174
0.040489
0.042025
0.039107
0.040480
0.043872
0.040699
0.040265
0.042694
0.029042
0.041554
0.017842
0.045018
0.019714
0.036432
0.007828
0.043155
0.036465
0.006194
0.001969
0.004436
0.004697
0.040450
0.005439
0.041880
0.004747
0.043661
0.010687
0.010782
0.022538
0.012258
0.004018
0.016937
0.006716
0.042624
0.042411
0.043040
0.042661
0.038242
0.041059
0.041491
0.040802
0.035229
0.005737
0.041623
0.040531
0.003621
0.042453
0.042452
0.030251
0.042235
0.042023
0.041686
0.040551
0.042065
0.044750
0.041215
0.004736
0.043938
0.042340
0.042587
0.007438
0.043683
0.042269
0.042975
0.003897
0.041158
0.040175
0.042629
0.044284
0.008303
0.004811
0.010956
0.004432
0.005387
0.022797
0.003450
0.003595
0.039932
0.018881
0.040198
0.041188
0.005890
0.043345
0.035547
0.030185
0.041610
0.007700
0.004748
0.036035
0.005839
0.013321
0.006448
0.008407
0.040337
0.041848
0.041821
0.040234
0.043539
0.010171
0.039676
0.040210
0.042046
0.042249
0.039492
0.017840
0.038427
0.002714
0.033715
0.039574
0.035274
0.034315
0.038152
0.022782
0.041651
0.040889
0.041028
0.040664
0.007383
0.043483
0.004175
0.009470
0.004534
0.042349
0.013737
0.025273
0.032651
0.041302
0.009353
0.006864
0.003408
0.031053
0.040806
0.007220
0.040504
0.041231
0.042124
0.041556
0.039731
0.038048
0.039991
0.039850
0.040825
0.041218
0.040985
0.009456
0.041131
0.041519
0.032602
0.042470
0.041925
0.042043
0.040505
0.044913
0.042778
0.000924
0.040851
0.039035
0.041846
0.005748
0.042322
0.028109
0.039650
0.005193
0.042535
0.039049
0.009250
0.010440
0.033528
0.037918
0.040122
0.013926
0.027380
0.005193
0.039172
0.023184
0.034944
0.003581
0.039563
0.004047
0.003349
0.042072
0.040331
0.040361
0.002859
0.007851
0.041593
0.041751
0.012135
0.036753
0.036311
0.032579
0.005919
0.040648
0.040474
0.040228
0.039296
0.039857
0.020836
0.002040
0.039895
0.002987
0.031912
0.005950
0.041835
0.012199
0.008598
0.041279
0.042100
0.010964
0.043206
0.016324
0.041515
0.039727
0.004378
0.006217
0.041427
0.004962
0.041567
0.005383
0.006031
0.008018
0.039997
0.027608
0.012443
0.032923
0.041004
0.011605
0.041921
0.041217
0.024744
0.040287
0.040027
0.040875
0.040593
0.041207
0.039447
0.039765
0.041864
0.040927
0.030127
0.042347
0.037551
0.039930
0.041716
0.006770
0.039837
0.041657
0.041621
0.021769
0.004920
0.037227
0.031505
0.034170
0.039578
0.009376
0.032454
0.036449
0.012590
0.026792
0.005618
0.006267
0.032015
0.004629
0.030406
0.002891
0.036308
0.039187
0.039621
0.040668
0.006996
0.040484
0.021078
0.041500
0.039345
0.039145
0.010033
0.039183
0.006910
0.041156
0.021155
0.006186
0.039478
0.040993
0.007506
0.004068
0.037231
0.015195
0.037724
0.040209
0.040186
0.039947
0.039384
0.034615
0.008887
0.007197
0.013045
0.041640
0.005305
0.004778
0.008405
0.041197
0.009640
0.014878
0.036624
0.033111
0.002671
0.029545
0.039443
0.040393
0.012095
0.025222
0.041314
0.041503
0.002282
0.040404
0.040397
0.040178
0.039057
0.006466
0.041568
0.040033
0.040408
0.040914
0.038951
0.041149
0.040033
0.040440
0.040324
0.041757
0.001669
0.041048
0.038753
0.023867
0.041399
0.010901
0.041201
0.029818
0.036796
0.039203
0.001348
0.039880
0.039278
0.041491
0.039771
0.029237
0.005161
0.003970
0.041504
0.005480
0.038726
0.038488
0.010405
0.021388
0.032931
0.025915
0.007555
0.036498
0.031131
0.039226
0.006047
0.005448
0.003501
0.041047
0.005139
0.028319
0.038882
0.004484
0.003916
0.040579
0.035427
0.039233
0.011675
0.039643
0.034717
0.002386
0.012894
0.037833
0.008005
0.008281
0.040447
0.009004
0.039454
0.038516
0.039977
0.039366
0.038856
0.022908
0.018374
0.009873
0.038654
0.001573
0.034086
0.007185
0.013864
0.031791
0.040484
0.039193
0.039140
0.027510
0.007299
0.010772
0.038935
0.007043
0.009771
0.003356
0.014107
0.023171
0.005788
0.014635
0.036200
0.041339
0.040856
0.039993
0.039556
0.002137
0.039249
0.041300
0.041211
0.041122
0.040793
0.038851
0.004721
0.039675
0.009816
0.039180
0.039320
0.019119
0.040088
0.005879
0.038957
0.039570
0.040293
0.041215
0.007277
0.038641
0.035879
0.039746
0.004665
0.016770
0.002041
0.005075
0.040949
0.000573
0.005790
0.038250
0.039702
0.040888
0.040954
0.038949
0.028460
0.003033
0.030773
0.039301
0.035324
0.040975
0.041347
0.001435
0.038355
0.012291
0.010989
0.031446
0.021411
0.025055
0.034992
0.012614
0.008052
0.006613
0.007426
0.038420
0.029977
0.015134
0.028879
0.002967
0.038348
0.033988
0.038695
0.003795
0.015189
0.038724
0.008818
0.009853
0.006806
0.001571
0.001886
0.008125
0.037611
0.012147
0.011550
0.006218
0.030748
0.029591
0.008463
0.034037
0.002944
0.039008
0.025100
0.040764
0.040036
0.011230
0.038766
0.019637
0.040439
0.038489
0.039350
0.038967
0.036210
0.008639
0.007157
0.020554
0.014588
0.004051
0.027231
0.034685
0.041019
0.039008
0.038343
0.041020
0.038948
0.038815
0.039161
0.039799
0.035415
0.009076
0.038469
0.039352
0.002074
0.040546
0.038453
0.039373
0.038131
0.040955
0.040654
0.038901
0.038483
0.038456
0.033333
0.005378
0.009937
0.010179
0.041069
0.039994
0.040619
0.039016
0.004959
0.019179
0.039547
0.027687
0.040379
0.016373
0.040847
0.004562
0.041107
0.004436
0.033144
0.039287
0.040464
0.005662
0.017234
0.006250
0.002329
0.037767
0.038461
0.012546
0.009601
0.029950
0.039862
0.033844
0.026984
0.007706
0.005969
0.006242
0.037011
0.005668
0.032583
0.027274
0.019945
0.004846
0.038275
0.031707
0.016820
0.001911
0.037849
0.013982
0.009000
0.038775
0.015017
0.002171
0.016557
0.011463
0.011913
0.016126
0.025040
0.039987
0.006858
0.039262
0.029035
0.037626
0.008923
0.033480
0.008691
0.023189
0.038170
0.007927
0.012780
0.008410
0.003458
0.010592
0.008200
0.014043
0.037765
0.039182
0.038093
0.038209
0.022949
0.035513
0.003375
0.036505
0.038174
0.040311
0.039487
0.006492
0.040484
0.040241
0.010771
0.017993
0.038448
0.038612
0.038760
0.038457
0.008714
0.037992
0.035263
0.038116
0.040458
0.040839
0.011507
0.038792
0.037961
0.037323
0.027951
0.040653
0.040798
0.005468
0.032837
0.004436
0.029565
0.038171
0.026342
0.037780
0.017568
0.040827
0.038538
0.001492
0.040248
0.038489
0.039600
0.038871
0.039695
0.006762
0.040477
0.037947
0.004003
0.040279
0.040887
0.004166
0.040515
0.039388
0.014135
0.039367
0.021412
0.028416
0.013405
0.032690
0.035545
0.007379
0.008551
0.009049
0.028688
0.004075
0.018324
0.038257
0.010254
0.026547
0.003007
0.002976
0.038635
0.037883
0.005851
0.004169
0.034529
0.001966
0.038074
0.034151
0.004522
0.007457
0.037560
0.038099
0.002133
0.031768
0.038836
0.020952
0.006153
0.006344
0.023205
0.013567
0.009087
0.035998
0.040039
0.007374
0.036744
0.030332
0.015197
0.009583
0.040103
0.036674
0.038973
0.013263
0.008187
0.014188
0.039892
0.025571
0.009258
0.039572
0.037989
0.003789
0.037899
0.037709
0.009857
0.011588
0.010036
0.001526
0.017481
0.024921
0.016521
0.012813
0.039206
0.038886
0.005885
0.040184
0.040476
0.037728
0.037778
0.002540
0.037944
0.038337
0.040661
0.039789
0.040684
0.038338
0.040222
0.038486
0.016388
0.019228
0.003547
0.040558
0.007988
0.040246
0.038120
0.011578
0.004807
0.038704
0.040712
0.037676
0.040066
0.024791
0.037052
0.005311
0.040128
0.040336
0.009564
0.040643
0.038713
0.012318
0.038071
0.037129
0.038879
0.013818
0.015563
0.010801
0.021406
0.040017
0.030488
0.038776
0.037990
0.034647
0.009112
0.037136
0.007465
0.037538
0.007521
0.006750
0.035620
0.036846
0.037685
0.016778
0.003478
0.005159
0.036994
0.024937
0.002259
0.002482
0.037086
0.004061
0.014352
0.004471
0.038094
0.018908
0.022550
0.037326
0.001143
0.004476
0.014559
0.038950
0.037824
0.039643
0.039080
0.036598
0.013669
0.008389
0.009675
0.016097
0.017040
0.019678
0.006618
0.010843
0.011036
0.026714
0.039946
0.039803
0.012502
0.037609
0.006064
0.040368
0.037012
0.034380
0.007419
0.035587
0.038931
0.038518
0.040084
0.040439
0.037606
0.018144
0.039737
0.037421
0.039322
0.010570
0.004757
0.036468
0.039295
0.005804
0.005632
0.026511
0.039977
0.040459
0.033095
0.023833
0.006344
0.001774
0.009895
0.037471
0.011886
0.039682
0.003048
0.002558
0.038350
0.005766
0.009978
0.039041
0.039975
0.040170
0.038472
0.034551
0.001576
0.040388
0.019271
0.029000
0.033136
0.002427
0.008255
0.015524
0.014455
0.036423
0.015931
0.038335
0.011910
0.018421
0.027674
0.015569
0.025105
0.010124
0.032089
0.034647
0.039848
0.011752
0.009013
0.028177
0.008532
0.038247
0.039638
0.013419
0.036971
0.004050
0.006672
0.007948
0.006167
0.036908
0.001953
0.005932
0.019528
0.037794
0.003418
0.004811
0.037772
0.002964
0.006833
0.035332
0.002130
0.001310
0.039149
0.036894
0.008148
0.015188
0.033356
0.029221
0.039708
0.033804
0.030575
0.009894
0.038172
0.012627
0.018188
0.039450
0.037938
0.037483
0.003798
0.036918
0.000907
0.014123
0.010624
0.006853
0.038854
0.037333
0.015967
0.024643
0.038468
0.007622
0.036627
0.020194
0.006928
0.014535
0.036856
0.036693
0.040292
0.031923
0.021240
0.039634
0.035610
0.035319
0.037916
0.039922
0.037522
0.040119
0.037697
0.002593
0.038691
0.004932
0.039886
0.006247
0.036976
0.027866
0.034211
0.040033
0.037205
0.039950
0.039235
0.010296
0.003026
0.023724
0.015297
0.037717
0.005994
0.020179
0.010957
0.020577
0.005124
0.037824
0.040297
0.039991
0.038599
0.038957
0.005486
0.006866
0.039341
0.005755
0.036047
0.001353
0.034893
0.022384
0.011367
0.038842
0.006141
0.040254
0.036297
0.015257
0.023815
0.028029
0.011846
0.033873
0.009089
0.038389
0.008196
0.038527
0.007240
0.031766
0.034311
0.012808
0.006688
0.039205
0.014508
0.039352
0.036982
0.018648
0.002632
0.029822
0.038077
0.006452
0.011734
0.037360
0.037203
0.016010
0.005399
0.036290
0.027138
0.000872
0.039907
0.008844
0.006239
0.003348
0.039672
0.002204
0.004703
0.010953
0.010455
0.001157
0.004137
0.035937
0.036068
0.035538
0.005539
0.017295
0.021523
0.017551
0.017932
0.038891
0.033457
0.025051
0.039633
0.036981
0.015515
0.002496
0.029372
0.037214
0.019048
0.037989
0.006457
0.022310
0.004399
0.007538
0.022370
0.006939
0.013578
0.001431
0.001718
0.020515
0.038207