# vtk DataFile Version 2.0
Test
ASCII
DATASET POLYDATA
POINTS 7341 float
0.000000 0.000000 0.000000
1.000000 0.000000 0.000000
1.000000 1.000000 0.000000
0.000000 1.000000 0.000000
0.000000 0.500000 0.000000
0.500000 0.500000 0.000000
1.000000 0.500000 0.000000
0.499000 0.499000 0.000000
0.900000 0.010000 0.000000
0.029412 0.000000 0.000000
0.058824 0.000000 0.000000
0.088235 0.000000 0.000000
0.117647 0.000000 0.000000
0.147059 0.000000 0.000000
0.176471 0.000000 0.000000
0.205882 0.000000 0.000000
0.235294 0.000000 0.000000
0.264706 0.000000 0.000000
0.294118 0.000000 0.000000
0.323529 0.000000 0.000000
0.352941 0.000000 0.000000
0.382353 0.000000 0.000000
0.411765 0.000000 0.000000
0.441176 0.000000 0.000000
0.470588 0.000000 0.000000
0.500000 0.000000 0.000000
0.529412 0.000000 0.000000
0.558824 0.000000 0.000000
0.588235 0.000000 0.000000
0.617647 0.000000 0.000000
0.647059 0.000000 0.000000
0.676471 0.000000 0.000000
0.705882 0.000000 0.000000
0.735294 0.000000 0.000000
0.764706 0.000000 0.000000
0.794118 0.000000 0.000000
0.823529 0.000000 0.000000
0.852941 0.000000 0.000000
0.882353 0.000000 0.000000
0.911765 0.000000 0.000000
0.941176 0.000000 0.000000
0.970588 0.000000 0.000000
1.000000 0.029412 0.000000
1.000000 0.058824 0.000000
1.000000 0.088235 0.000000
1.000000 0.117647 0.000000
1.000000 0.147059 0.000000
1.000000 0.176471 0.000000
1.000000 0.205882 0.000000
1.000000 0.235294 0.000000
1.000000 0.264706 0.000000
1.000000 0.294118 0.000000
1.000000 0.323529 0.000000
1.000000 0.352941 0.000000
1.000000 0.382353 0.000000
1.000000 0.411765 0.000000
1.000000 0.441176 0.000000
1.000000 0.470588 0.000000
1.000000 0.529412 0.000000
1.000000 0.558824 0.000000
1.000000 0.588235 0.000000
1.000000 0.617647 0.000000
1.000000 0.647059 0.000000
1.000000 0.676471 0.000000
1.000000 0.705882 0.000000
1.000000 0.735294 0.000000
1.000000 0.764706 0.000000
1.000000 0.794118 0.000000
1.000000 0.823529 0.000000
1.000000 0.852941 0.000000
1.000000 0.882353 0.000000
1.000000 0.911765 0.000000
1.000000 0.941176 0.000000
1.000000 0.970588 0.000000
0.970588 1.000000 0.000000
0.941176 1.000000 0.000000
0.911765 1.000000 0.000000
0.882353 1.000000 0.000000
0.852941 1.000000 0.000000
0.823529 1.000000 0.000000
0.794118 1.000000 0.000000
0.764706 1.000000 0.000000
0.735294 1.000000 0.000000
0.705882 1.000000 0.000000
0.676471 1.000000 0.000000
0.647059 1.000000 0.000000
0.617647 1.000000 0.000000
0.588235 1.000000 0.000000
0.558824 1.000000 0.000000
0.529412 1.000000 0.000000
0.500000 1.000000 0.000000
0.470588 1.000000 0.000000
0.441176 1.000000 0.000000
0.411765 1.000000 0.000000
0.382353 1.000000 0.000000
0.352941 1.000000 0.000000
0.323529 1.000000 0.000000
0.294118 1.000000 0.000000
0.264706 1.000000 0.000000
0.235294 1.000000 0.000000
0.205882 1.000000 0.000000
0.176471 1.000000 0.000000
0.147059 1.000000 0.000000
0.117647 1.000000 0.000000
0.088235 1.000000 0.000000
0.058824 1.000000 0.000000
0.029412 1.000000 0.000000
0.000000 0.970588 0.000000
0.000000 0.941176 0.000000
0.000000 0.911765 0.000000
0.000000 0.882353 0.000000
0.000000 0.852941 0.000000
0.000000 0.823529 0.000000
0.000000 0.794118 0.000000
0.000000 0.764706 0.000000
0.000000 0.735294 0.000000
0.000000 0.705882 0.000000
0.000000 0.676471 0.000000
0.000000 0.647059 0.000000
0.000000 0.617647 0.000000
0.000000 0.588235 0.000000
0.000000 0.558824 0.000000
0.000000 0.529412 0.000000
0.007246 0.500000 0.000000
0.014493 0.500000 0.000000
0.021739 0.500000 0.000000
0.028986 0.500000 0.000000
0.036232 0.500000 0.000000
0.043478 0.500000 0.000000
0.050725 0.500000 0.000000
0.057971 0.500000 0.000000
0.065217 0.500000 0.000000
0.072464 0.500000 0.000000
0.079710 0.500000 0.000000
0.086957 0.500000 0.000000
0.094203 0.500000 0.000000
0.101449 0.500000 0.000000
0.108696 0.500000 0.000000
0.115942 0.500000 0.000000
0.123188 0.500000 0.000000
0.130435 0.500000 0.000000
0.137681 0.500000 0.000000
0.144928 0.500000 0.000000
0.152174 0.500000 0.000000
0.159420 0.500000 0.000000
0.166667 0.500000 0.000000
0.173913 0.500000 0.000000
0.181159 0.500000 0.000000
0.188406 0.500000 0.000000
0.195652 0.500000 0.000000
0.202899 0.500000 0.000000
0.210145 0.500000 0.000000
0.217391 0.500000 0.000000
0.224638 0.500000 0.000000
0.231884 0.500000 0.000000
0.239130 0.500000 0.000000
0.246377 0.500000 0.000000
0.253623 0.500000 0.000000
0.260870 0.500000 0.000000
0.268116 0.500000 0.000000
0.275362 0.500000 0.000000
0.282609 0.500000 0.000000
0.289855 0.500000 0.000000
0.297101 0.500000 0.000000
0.304348 0.500000 0.000000
0.311594 0.500000 0.000000
0.318841 0.500000 0.000000
0.326087 0.500000 0.000000
0.333333 0.500000 0.000000
0.340580 0.500000 0.000000
0.347826 0.500000 0.000000
0.355072 0.500000 0.000000
0.362319 0.500000 0.000000
0.369565 0.500000 0.000000
0.376812 0.500000 0.000000
0.384058 0.500000 0.000000
0.391304 0.500000 0.000000
0.398551 0.500000 0.000000
0.405797 0.500000 0.000000
0.413043 0.500000 0.000000
0.420290 0.500000 0.000000
0.427536 0.500000 0.000000
0.434783 0.500000 0.000000
0.442029 0.500000 0.000000
0.449275 0.500000 0.000000
0.456522 0.500000 0.000000
0.463768 0.500000 0.000000
0.471014 0.500000 0.000000
0.478261 0.500000 0.000000
0.485507 0.500000 0.000000
0.492754 0.500000 0.000000
0.510004 0.500000 0.000000
0.520408 0.500000 0.000000
0.531229 0.500000 0.000000
0.542483 0.500000 0.000000
0.554187 0.500000 0.000000
0.566359 0.500000 0.000000
0.579019 0.500000 0.000000
0.592185 0.500000 0.000000
0.605877 0.500000 0.000000
0.620118 0.500000 0.000000
0.634929 0.500000 0.000000
0.650332 0.500000 0.000000
0.666352 0.500000 0.000000
0.683013 0.500000 0.000000
0.700340 0.500000 0.000000
0.718361 0.500000 0.000000
0.737103 0.500000 0.000000
0.756595 0.500000 0.000000
0.776867 0.500000 0.000000
0.797950 0.500000 0.000000
0.819877 0.500000 0.000000
0.842681 0.500000 0.000000
0.866398 0.500000 0.000000
0.891064 0.500000 0.000000
0.916716 0.500000 0.000000
0.943396 0.500000 0.000000
0.971143 0.500000 0.000000
0.000000 0.470588 0.000000
0.000000 0.441176 0.000000
0.000000 0.411765 0.000000
0.000000 0.382353 0.000000
0.000000 0.352941 0.000000
0.000000 0.323529 0.000000
0.000000 0.294118 0.000000
0.000000 0.264706 0.000000
0.000000 0.235294 0.000000
0.000000 0.205882 0.000000
0.000000 0.176471 0.000000
0.000000 0.147059 0.000000
0.000000 0.117647 0.000000
0.000000 0.088235 0.000000
0.000000 0.058824 0.000000
0.000000 0.029412 0.000000
0.500341 0.497365 0.000000
0.501682 0.495729 0.000000
0.503023 0.494094 0.000000
0.504365 0.492458 0.000000
0.505706 0.490823 0.000000
0.507047 0.489187 0.000000
0.508388 0.487552 0.000000
0.509729 0.485916 0.000000
0.511070 0.484281 0.000000
0.512411 0.482645 0.000000
0.513753 0.481010 0.000000
0.515094 0.479375 0.000000
0.516435 0.477739 0.000000
0.517776 0.476104 0.000000
0.519117 0.474468 0.000000
0.520458 0.472833 0.000000
0.521799 0.471197 0.000000
0.523140 0.469562 0.000000
0.524482 0.467926 0.000000
0.525823 0.466291 0.000000
0.527164 0.464656 0.000000
0.528505 0.463020 0.000000
0.529846 0.461385 0.000000
0.531187 0.459749 0.000000
0.532528 0.458114 0.000000
0.533870 0.456478 0.000000
0.535211 0.454843 0.000000
0.536552 0.453207 0.000000
0.537893 0.451572 0.000000
0.539234 0.449936 0.000000
0.540575 0.448301 0.000000
0.541916 0.446666 0.000000
0.543258 0.445030 0.000000
0.544599 0.443395 0.000000
0.545940 0.441759 0.000000
0.547281 0.440124 0.000000
0.548622 0.438488 0.000000
0.549963 0.436853 0.000000
0.551304 0.435217 0.000000
0.552645 0.433582 0.000000
0.553987 0.431946 0.000000
0.555328 0.430311 0.000000
0.556669 0.428676 0.000000
0.558010 0.427040 0.000000
0.559351 0.425405 0.000000
0.560692 0.423769 0.000000
0.562033 0.422134 0.000000
0.563375 0.420498 0.000000
0.564716 0.418863 0.000000
0.566057 0.417227 0.000000
0.567398 0.415592 0.000000
0.568739 0.413957 0.000000
0.570080 0.412321 0.000000
0.571421 0.410686 0.000000
0.572763 0.409050 0.000000
0.574104 0.407415 0.000000
0.575445 0.405779 0.000000
0.576786 0.404144 0.000000
0.578127 0.402508 0.000000
0.579468 0.400873 0.000000
0.580809 0.399237 0.000000
0.582151 0.397602 0.000000
0.583492 0.395967 0.000000
0.584833 0.394331 0.000000
0.586174 0.392696 0.000000
0.587515 0.391060 0.000000
0.588856 0.389425 0.000000
0.590197 0.387789 0.000000
0.591538 0.386154 0.000000
0.592880 0.384518 0.000000
0.594221 0.382883 0.000000
0.595562 0.381247 0.000000
0.596903 0.379612 0.000000
0.598244 0.377977 0.000000
0.599585 0.376341 0.000000
0.600926 0.374706 0.000000
0.602268 0.373070 0.000000
0.603609 0.371435 0.000000
0.604950 0.369799 0.000000
0.606291 0.368164 0.000000
0.607632 0.366528 0.000000
0.608973 0.364893 0.000000
0.610314 0.363258 0.000000
0.611656 0.361622 0.000000
0.612997 0.359987 0.000000
0.614338 0.358351 0.000000
0.615679 0.356716 0.000000
0.617020 0.355080 0.000000
0.618361 0.353445 0.000000
0.619702 0.351809 0.000000
0.621043 0.350174 0.000000
0.622385 0.348538 0.000000
0.623726 0.346903 0.000000
0.625067 0.345268 0.000000
0.626408 0.343632 0.000000
0.627749 0.341997 0.000000
0.629090 0.340361 0.000000
0.630431 0.338726 0.000000
0.631773 0.337090 0.000000
0.633114 0.335455 0.000000
0.634455 0.333819 0.000000
0.635796 0.332184 0.000000
0.637137 0.330548 0.000000
0.638478 0.328913 0.000000
0.639819 0.327278 0.000000
0.641161 0.325642 0.000000
0.642502 0.324007 0.000000
0.643843 0.322371 0.000000
0.645184 0.320736 0.000000
0.646525 0.319100 0.000000
0.647866 0.317465 0.000000
0.649207 0.315829 0.000000
0.650548 0.314194 0.000000
0.651890 0.312559 0.000000
0.653231 0.310923 0.000000
0.654572 0.309288 0.000000
0.655913 0.307652 0.000000
0.657254 0.306017 0.000000
0.658595 0.304381 0.000000
0.659936 0.302746 0.000000
0.661278 0.301110 0.000000
0.662619 0.299475 0.000000
0.663960 0.297839 0.000000
0.665301 0.296204 0.000000
0.666642 0.294569 0.000000
0.667983 0.292933 0.000000
0.669324 0.291298 0.000000
0.670666 0.289662 0.000000
0.672007 0.288027 0.000000
0.673348 0.286391 0.000000
0.674689 0.284756 0.000000
0.676030 0.283120 0.000000
0.677371 0.281485 0.000000
[...]
POINT_DATA 7341
SCALARS UX float 1
LOOKUP_TABLE default
0.000000
0.000000
0.105500
0.105500
0.052605
0.044568
0.044760
0.042094
0.000473
-0.000000
0.000000
0.000000
0.000000
0.000000
0.000000
0.000000
0.000000
0.000000
0.000000
0.000000
0.000000
0.000000
0.000000
0.000000
0.000000
0.000000
0.000000
0.000000
0.000000
0.000000
0.000000
0.000000
0.000000
0.000000
0.000000
0.000000
0.000000
0.000000
0.000000
0.000000
0.000000
-0.000000
0.003014
0.004566
0.006101
0.007763
0.009609
0.011603
0.013763
0.015965
0.018374
0.020902
0.023575
0.026413
0.029420
0.032694
0.036366
0.040331
0.049303
0.053597
0.057702
0.061531
0.065196
0.068788
0.072276
0.075690
0.079066
0.082425
0.085751
0.089061
0.092360
0.095650
0.098937
0.102221
0.105500
0.105500
0.105500
0.105500
0.105500
0.105500
0.105500
0.105500
0.105500
0.105500
0.105500
0.105500
0.105500
0.105500
0.105500
0.105500
0.105500
0.105500
0.105500
0.105500
0.105500
0.105500
0.105500
0.105500
0.105500
0.105500
0.105500
0.105500
0.105500
0.105500
0.105500
0.105500
0.105500
0.102369
0.099241
0.096114
0.092991
0.089869
0.086751
0.083635
0.080526
0.077416
0.074313
0.071197
0.068062
0.064891
0.061663
0.058393
0.055080
0.051987
0.051741
0.050889
0.050351
0.050350
0.050592
0.050187
0.050479
0.049755
0.048420
0.048722
0.048022
0.047481
0.047710
0.047492
0.048415
0.045831
0.046837
0.047243
0.047622
0.047584
0.047715
0.046521
0.046825
0.047441
0.048837
0.047323
0.047801
0.048316
0.048612
0.049005
0.048687
0.048560
0.048792
0.047292
0.047642
0.047735
0.045493
0.047131
0.045491
0.045952
0.044016
0.044781
0.045390
0.043629
0.044031
0.044337
0.044593
0.044893
0.042818
0.045018
0.043891
0.044711
0.043519
0.044687
0.043501
0.044548
0.043806
0.043189
0.042542
0.044037
0.043645
0.043409
0.042614
0.043850
0.042674
0.043953
0.044104
0.043845
0.043426
0.043207
0.043138
0.043109
0.043057
0.043007
0.042998
0.042963
0.042933
0.042890
0.042855
0.042855
0.042864
0.042883
0.042907
0.042946
0.043004
0.043076
0.043166
0.043275
0.043405
0.043561
0.043742
0.043953
0.044200
0.044468
0.038606
0.035585
0.033048
0.030684
0.028482
0.026359
0.024327
0.022378
0.020514
0.018752
0.016989
0.015215
0.013273
0.011398
0.008977
0.006200
0.040813
0.039070
0.038377
0.037758
0.037395
0.036989
0.036691
0.036437
0.036198
0.035984
0.035794
0.035611
0.035453
0.035317
0.035185
0.035009
0.034849
0.034678
0.034500
0.034335
0.034173
0.034011
0.033855
0.033701
0.033547
0.033397
0.033246
0.033097
0.032951
0.032804
0.032659
0.032514
0.032371
0.032227
0.032083
0.031940
0.031796
0.031653
0.031509
0.031365
0.031220
0.031076
0.030931
0.030787
0.030642
0.030497
0.030353
0.030209
0.030064
0.029919
0.029775
0.029630
0.029485
0.029340
0.029195
0.029050
0.028904
0.028759
0.028613
0.028467
0.028322
0.028176
0.028030
0.027883
0.027737
0.027590
0.027444
0.027297
0.027150
0.027003
0.026855
0.026708
0.026560
0.026412
0.026264
0.026115
0.025967
0.025818
0.025669
0.025520
0.025371
0.025222
0.025072
0.024922
0.024773
0.024623
0.024473
0.024322
0.024172
0.024022
0.023871
0.023720
0.023570
0.023419
0.023268
0.023117
0.022966
0.022815
0.022664
0.022513
0.022362
0.022211
0.022060
0.021909
0.021758
0.021607
0.021456
0.021305
0.021155
0.021004
0.020853
0.020703
0.020552
0.020402
0.020252
0.020102
0.019952
0.019802
0.019653
0.019503
0.019354
0.019205
0.019056
0.018908
0.018759
0.018611
0.018463
0.018316
0.018168
0.018021
0.017874
0.017728
0.017582
0.017436
0.017290
0.017145
0.017000
0.016855
0.016711
0.016567
0.016423
0.016280
0.016137
0.015994
0.015852
0.015711
0.015570
0.015430
0.015290
0.015151
0.015012
0.014873
0.014735
0.014598
0.014460
0.014324
0.014187
0.014051
0.013916
0.013781
0.013646
0.013512
0.013379
0.013245
0.013113
0.012980
0.012849
0.012717
0.012586
0.012456
0.012326
0.012197
0.012068
0.011939
0.011812
0.011684
0.011557
0.011431
0.011305
0.011180
0.011055
0.010931
0.010807
0.010684
0.010561
0.010439
0.010318
0.010197
0.010076
0.009956
0.009837
0.009718
0.009600
0.009483
0.009366
0.009249
0.009134
0.009019
0.008904
0.008790
0.008677
0.008564
0.008452
0.008340
0.008230
0.008119
0.008010
0.007901
0.007792
0.007685
0.007577
0.007471
0.007365
0.007260
0.007156
0.007052
0.006949
0.006846
0.006745
0.006643
0.006543
0.006443
0.006344
0.006246
0.006148
0.006051
0.005954
0.005859
0.005764
0.005669
0.005575
0.005482
0.005390
0.005298
0.005207
0.005117
0.005027
0.004938
0.004850
0.004762
0.004675
0.004589
0.004503
0.004418
0.004334
0.004251
0.004168
0.004085
0.004004
0.003923
0.003843
0.003763
0.003685
0.003606
0.003529
0.003452
0.003375
0.003300
0.003225
0.003150
0.003077
0.003004
0.002931
0.002859
0.002788
0.002716
0.002646
0.002576
0.002507
0.002438
0.002369
0.002301
0.002233
0.002166
0.002099
0.002032
0.001966
0.001900
0.001834
0.001768
0.001703
0.001637
0.001571
0.001505
0.001440
0.001374
0.001307
0.001239
0.001171
0.001102
0.001032
0.000962
0.000891
0.000819
0.000748
0.000677
0.000606
0.000540
0.036842
0.036087
0.035694
0.001499
0.001118
0.039670
0.001011
0.039485
0.038437
0.020315
0.039543
0.000937
0.023971
0.040195
0.010828
0.018099
0.039687
0.000860
0.001669
0.035685
0.005434
0.041021
0.039684
0.012335
0.035870
0.032402
0.041184
0.028962
0.039761
0.036137
0.002017
0.036682
0.035943
0.039571
0.037662
0.000742
0.038509
0.002444
0.036620
0.001228
0.036446
0.035781
0.035388
0.040981
0.001436
0.038243
0.001140
0.036996
0.038106
0.042807
0.000980
0.038854
0.007003
0.030389
0.000868
0.039431
0.039638
0.028127
0.039342
0.039527
0.013177
0.015481
0.000950
0.000976
0.035571
0.036064
0.021902
0.035723
0.040083
0.001041
0.039715
0.001061
0.023080
0.001259
0.035547
0.016189
0.001573
0.040098
0.010129
0.002592
0.006710
0.003018
0.003748
0.036454
0.036863
0.037208
0.036339
0.035992
0.035811
0.037529
0.040562
0.039966
0.039314
0.039196
0.038961
0.038156
0.041621
0.040892
0.040918
0.041097
0.037248
0.000978
0.037744
0.040210
0.034491
0.035023
0.002629
0.034831
0.002229
0.036414
0.022439
0.001930
0.023226
0.038061
0.013168
0.035777
0.001740
0.036537
0.005386
0.028366
0.037361
0.017299
0.003204
0.035601
0.037270
0.001723
0.036329
0.036521
0.034756
0.039524
0.008943
0.035958
0.037736
0.039297
0.000811
0.037684
0.036323
0.000785
0.039564
0.036918
0.008866
0.039758
0.000840
0.031929
0.036266
0.039765
0.003784
0.039679
0.026300
0.017519
0.039590
0.039545
0.000949
0.039578
0.002155
0.039633
0.035896
0.001056
0.025843
0.001084
0.039641
0.035716
0.032013
0.001343
0.020184
0.039944
0.035722
0.001651
0.014321
0.004509
0.001755
0.005975
0.035540
0.035711
0.036670
0.036122
0.035638
0.035553
0.035866
0.035182
0.036953
0.037241
0.037744
0.039632
0.038454
0.039632
0.038054
0.039638
0.039710
0.040545
0.040435
0.038980
0.040882
0.039441
0.041462
0.036863
0.038024
0.036999
0.011096
0.003275
0.037148
0.036771
0.011294
0.037099
0.034409
0.037403
0.035420
0.038653
0.002952
0.034540
0.019445
0.036349
0.036231
0.003548
0.003956
0.001569
0.034349
0.038363
0.001751
0.039145
0.034358
0.036404
0.025179
0.035837
0.034629
0.038881
0.035178
0.001949
0.031678
0.037351
0.037224
0.038038
0.001706
0.025830
0.036919
0.002248
0.036557
0.017831
0.015249
0.002323
0.036819
0.021404
0.036620
0.001949
0.002064
0.002759
0.037028
0.001710
0.006717
0.034655
0.034715
0.035984
0.036435
0.036629
0.003392
0.030122
0.020033
0.015435
0.036816
0.013314
0.011178
0.002005
0.007632
0.005193
0.034198
0.034444
0.034569
0.035081
0.035241
0.001747
0.034708
0.034147
0.036210
0.035524
0.037365
0.036234
0.038926
0.039872
0.037455
0.036958
0.036512
0.034274
0.039412
0.038788
0.036395
0.036611
0.036424
0.037643
0.036990
0.009235
0.003694
0.038207
0.036210
0.036243
0.034911
0.039780
0.033707
0.034286
0.034210
0.003895
0.034182
0.019932
0.003046
0.021083
0.036453
0.002606
0.005220
0.033602
0.006182
0.030380
0.002540
0.035829
0.014631
0.033830
0.034756
0.038052
0.003363
0.036950
0.004641
0.035339
0.024183
0.037112
0.036947
0.002353
0.036952
0.035012
0.034049
0.018666
0.036474
0.002919
0.034455
0.033434
0.035965
0.012743
0.036266
0.024726
0.028604
0.035754
0.003593
0.036006
0.012303
0.010015
0.006161
0.006815
0.036654
0.034506
0.003426
0.003461
0.034364
0.004379
0.034328
0.034621
0.034048
0.035274
0.037093
0.036000
0.034419
0.008730
0.038031
0.035035
0.038874
0.035965
0.033703
0.001746
0.035441
0.035550
0.038124
0.026777
0.040114
0.034571
0.039337
0.038299
0.034633
0.037475
0.035738
0.036086
0.036087
0.010034
0.007976
0.036594
0.035794
0.036596
0.038436
0.035940
0.036703
0.036198
0.040302
0.006296
0.004838
0.032043
0.004071
0.034678
0.034686
0.035164
0.012522
0.020145
0.035342
0.035548
0.002548
0.034941
0.035877
0.034001
0.035474
0.035538
0.034539
0.033895
0.004479
0.013637
0.005413
0.037324
0.035856
0.028848
0.008404
0.002927
0.003910
0.009920
0.033624
0.033924
0.002652
0.005166
0.018198
0.034820
0.035993
0.034657
0.028721
0.032906
0.034473
0.037575
0.035594
0.036419
0.035095
0.007560
0.004960
0.033933
0.033855
0.022053
0.033827
0.033728
0.005595
0.026825
0.035467
0.033421
0.036879
0.011418
0.031848
0.004296
0.002977
0.022983
0.033876
0.016683
0.009126
0.034117
0.034710
0.034336
0.014419
0.033761
0.003143
0.034346
0.033667
0.034637
0.002633
0.037438
0.034583
0.041115
0.034901
0.036760
0.035493
0.035009
0.035161
0.035644
0.037143
0.035051
0.036085
0.035824
0.002437
0.035620
0.036518
0.035081
0.035865
0.034412
0.037424
0.035548
0.033201
0.033672
0.033832
0.021689
0.033654
0.003474
0.034120
0.008678
0.027925
0.005931
0.033363
0.003278
0.031496
0.036116
0.004052
0.034146
0.034833
0.035701
0.033544
0.033035
0.002481
0.013943
0.015870
0.003973
0.004548
0.033368
0.035550
0.003285
0.033816
0.034957
0.035194
0.035095
0.034275
0.036745
0.036105
0.022143
0.006833
0.018173
0.031800
0.007135
0.007844
0.034834
0.004873
0.012901
0.002742
0.035359
0.030729
0.034235
0.031886
0.031499
0.010652
0.016364
0.006100
0.005442
0.034199
0.017790
0.033622
0.035289
0.026235
0.031244
0.035761
0.033166
0.033804
0.035844
0.033772
0.036249
0.033169
0.034716
0.035408
0.035814
0.011263
0.005081
0.035555
0.037632
0.034460
0.037451
0.034073
0.033937
0.034218
0.003668
0.004169
0.035886
0.033780
0.035898
0.035774
0.034156
0.035687
0.007677
0.036613
0.033559
0.035331
0.033426
0.026404
0.034826
0.033952
0.035397
0.035389
0.034351
0.032966
0.006594
0.030228
0.004868
0.032933
0.013687
0.007593
0.027574
0.021566
0.009109
0.003164
0.034144
0.032703
0.005762
0.023887
0.032615
0.033421
0.003646
0.029691
0.032661
0.008079
0.033524
0.033697
0.003754
0.034916
0.034355
0.033415
0.033243
0.034178
0.033236
0.033144
0.035519
0.034712
0.033163
0.034820
0.024370
0.033704
0.015657
0.036373
0.017239
0.029908
0.007453
0.036598
0.031150
0.005853
0.001810
0.004159
0.004212
0.034485
0.005052
0.035245
0.004328
0.036842
0.009919
0.009677
0.019571
0.010931
0.003572
0.015051
0.006200
0.034861
0.035442
0.035194
0.035014
0.032548
0.033704
0.034102
0.033208
0.030168
0.005397
0.033990
0.033078
0.003256
0.035156
0.034596
0.025996
0.035170
0.035113
0.033866
0.033310
0.034242
0.036178
0.033679
0.004452
0.035625
0.034347
0.035520
0.006811
0.037453
0.035101
0.034893
0.003432
0.034917
0.033077
0.035153
0.035912
0.007575
0.004243
0.009809
0.003974
0.004993
0.019758
0.003152
0.003402
0.032676
0.016580
0.034033
0.034888
0.005324
0.035137
0.029258
0.025906
0.035099
0.007197
0.004205
0.030607
0.005170
0.012119
0.005882
0.007860
0.033235
0.034389
0.034903
0.032839
0.035247
0.009484
0.033713
0.034159
0.034869
0.034768
0.033546
0.015626
0.032653
0.002496
0.028812
0.032629
0.030024
0.029279
0.031205
0.019617
0.034031
0.033279
0.033425
0.033091
0.006888
0.035275
0.003780
0.008823
0.004045
0.035768
0.012185
0.021812
0.027952
0.033487
0.008444
0.006364
0.003240
0.025895
0.033634
0.006605
0.033375
0.033978
0.034606
0.034925
0.032598
0.032352
0.032897
0.032749
0.033200
0.033623
0.033476
0.008858
0.033376
0.033931
0.027952
0.034586
0.034884
0.035221
0.033131
0.036286
0.035064
0.000851
0.034820
0.033175
0.035047
0.005125
0.034922
0.023676
0.032715
0.004582
0.035572
0.032262
0.008546
0.009644
0.028494
0.032157
0.032806
0.012327
0.023127
0.004638
0.032205
0.020053
0.028829
0.003381
0.033517
0.003679
0.003074
0.034229
0.034091
0.032868
0.002728
0.007134
0.034718
0.034614
0.011126
0.031157
0.030818
0.027769
0.005222
0.033250
0.032951
0.032788
0.032085
0.032644
0.018132
0.001889
0.032946
0.002856
0.027253
0.005339
0.034807
0.010862
0.007907
0.034735
0.034700
0.010103
0.035002
0.014554
0.035118
0.032797
0.003943
0.005723
0.034719
0.004407
0.033975
0.004755
0.005481
0.007499
0.034012
0.023741
0.011389
0.027313
0.033796
0.010657
0.034530
0.034002
0.021117
0.033248
0.032674
0.033291
0.033058
0.033688
0.032507
0.032528
0.033982
0.033380
0.025209
0.034470
0.031835
0.032829
0.035332
0.006003
0.032651
0.034896
0.034823
0.018829
0.004347
0.030537
0.026947
0.029003
0.032744
0.008470
0.027555
0.030844
0.011177
0.022677
0.004970
0.005755
0.026649
0.004193
0.025958
0.002751
0.029890
0.032130
0.033507
0.033582
0.006288
0.034204
0.018285
0.034393
0.032355
0.032362
0.009276
0.033235
0.006108
0.034664
0.018373
0.005457
0.032306
0.033470
0.006795
0.003818
0.031557
0.013395
0.031975
0.032839
0.032792
0.032604
0.032433
0.029347
0.008196
0.006409
0.011854
0.034407
0.004722
0.004312
0.007706
0.033504
0.008914
0.013385
0.031065
0.028181
0.002471
0.025286
0.033493
0.033094
0.011079
0.021741
0.034587
0.034235
0.002196
0.033355
0.033083
0.033190
0.032097
0.005708
0.034538
0.032663
0.033107
0.034530
0.032159
0.034562
0.032764
0.032923
0.032844
0.033952
0.001614
0.033546
0.031725
0.020436
0.034635
0.009746
0.034549
0.025559
0.031180
0.032185
0.001270
0.032609
0.032492
0.034754
0.033584
0.024541
0.004627
0.003623
0.034586
0.005064
0.032072
0.031690
0.009488
0.018543
0.027925
0.022003
0.006660
0.030877
0.025991
0.032198
0.005383
0.005023
0.003301
0.034051
0.004642
0.024235
0.032895
0.004076
0.003587
0.033578
0.029983
0.033108
0.010670
0.032384
0.029402
0.002285
0.011729
0.031081
0.007086
0.007510
0.034103
0.008111
0.032259
0.031854
0.032775
0.032198
0.032921
0.019691
0.016173
0.008962
0.032733
0.001524
0.028212
0.006558
0.012256
0.027039
0.033041
0.032096
0.032082
0.023625
0.006530
0.009839
0.033073
0.006208
0.008844
0.003092
0.012733
0.020017
0.005132
0.013176
0.030635
0.034198
0.034337
0.033119
0.032756
0.002057
0.032132
0.034304
0.034527
0.034456
0.034211
0.032054
0.004393
0.032423
0.008818
0.032179
0.032248
0.016681
0.032737
0.005192
0.031949
0.032437
0.032856
0.034477
0.006561
0.031760
0.030363
0.032576
0.004353
0.014741
0.001903
0.004564
0.034502
0.000546
0.005180
0.032482
0.033480
0.034353
0.033910
0.032273
0.023951
0.002876
0.026231
0.032344
0.029902
0.034355
0.034406
0.001360
0.031816
0.011106
0.009860
0.026687
0.018540
0.021344
0.029584
0.011180
0.007087
0.005856
0.006756
0.031571
0.025116
0.013575
0.024667
0.002809
0.032399
0.028744
0.031750
0.003487
0.013374
0.031894
0.007915
0.008835
0.006003
0.001504
0.001818
0.007171
0.031863
0.011090
0.010538
0.005519
0.026141
0.025217
0.007535
0.028797
0.002727
0.032956
0.021612
0.033815
0.033200
0.010103
0.031959
0.017089
0.033914
0.032587
0.032201
0.031919
0.029856
0.007653
0.006307
0.017871
0.013128
0.003796
0.023362
0.029331
0.034074
0.032346
0.031696
0.034329
0.032007
0.031852
0.032062
0.032954
0.029937
0.008190
0.031652
0.032233
0.001948
0.034053
0.031833
0.032201
0.031368
0.034303
0.034075
0.031892
0.031642
0.031599
0.027669
0.004843
0.008936
0.009257
0.034289
0.033713
0.034072
0.033085
0.004495
0.016756
0.032320
0.023362
0.033488
0.014388
0.034228
0.004240
0.034204
0.004043
0.028075
0.033121
0.034046
0.005080
0.015263
0.005729
0.002229
0.031149
0.031925
0.011186
0.008491
0.025457
0.033110
0.028618
0.022830
0.006787
0.005472
0.005587
0.030506
0.005107
0.027565
0.023344
0.017327
0.004404
0.031423
0.026881
0.014928
0.001839
0.031350
0.012617
0.008101
0.032706
0.013481
0.002046
0.014522
0.010203
0.010749
0.014372
0.021534
0.033659
0.006086
0.033064
0.024729
0.030997
0.007876
0.028305
0.007648
0.020009
0.032268
0.006975
0.011548
0.007528
0.003254
0.009485
0.007426
0.012391
0.031051
0.032507
0.031444
0.031563
0.019723
0.030017
0.003117
0.030873
0.032304
0.033790
0.032799
0.005739
0.033661
0.033434
0.009621
0.015717
0.031567
0.031674
0.031774
0.031557
0.007864
0.031225
0.029811
0.031606
0.034003
0.034144
0.010369
0.031797
0.031254
0.030732
0.023875
0.034044
0.034150
0.004942
0.027309
0.004052
0.024809
0.031382
0.022597
0.031077
0.015380
0.033986
0.031648
0.001446
0.033761
0.032489
0.033347
0.033009
0.033741
0.005995
0.033908
0.031239
0.003743
0.033829
0.034105
0.003816
0.033967
0.032691
0.012653
0.032745
0.018521
0.024200
0.011837
0.027655
0.030039
0.006529
0.007518
0.008132
0.024148
0.003801
0.015974
0.032382
0.009162
0.022722
0.002840
0.002766
0.032089
0.031167
0.005276
0.003826
0.029189
0.001888
0.032120
0.028877
0.004135
0.006579
0.031064
0.031298
0.002018
0.026909
0.032724
0.018176
0.005519
0.005667
0.019997
0.012248
0.007982
0.029725
0.033324
0.006699
0.030319
0.025748
0.013362
0.008527
0.033736
0.030240
0.032414
0.011854
0.007396
0.012797
0.033465
0.021938
0.008149
0.033286
0.032196
0.003488
0.032034
0.031210
0.008827
0.010295
0.008891
0.001476
0.015465
0.021247
0.014474
0.011444
0.032985
0.032316
0.005291
0.033654
0.033879
0.031100
0.031061
0.002374
0.031304
0.032319
0.033972
0.033099
0.034031
0.031483
0.033797
0.031582
0.014581
0.016831
0.003329
0.033757
0.007231
0.033720
0.031311
0.010317
0.004377
0.032798
0.034252
0.031030
0.033609
0.021307
0.030545
0.004812
0.033638
0.033770
0.008440
0.033899
0.031799
0.010961
0.031650
0.030792
0.032370
0.012222
0.013899
0.009524
0.018497
0.033497
0.025858
0.032587
0.032142
0.029282
0.008175
0.030596
0.006769
0.031718
0.006663
0.006030
0.029448
0.030367
0.031819
0.014668
0.003217
0.004685
0.030571
0.021397
0.002161
0.002327
0.030607
0.003737
0.012730
0.004096
0.031300
0.016582
0.019420
0.030726
0.001112
0.004157
0.013034
0.032799
0.031113
0.033031
0.033160
0.030941
0.012232
0.007561
0.008496
0.014360
0.015120
0.017086
0.006040
0.009660
0.009745
0.022634
0.033462
0.033371
0.011071
0.030947
0.005455
0.033768
0.030672
0.029071
0.006556
0.029427
0.032757
0.032059
0.033410
0.033811
0.030963
0.015984
0.033402
0.030931
0.032746
0.009436
0.004340
0.030108
0.033043
0.005241
0.005094
0.022670
0.033589
0.033796
0.028010
0.020496
0.005656
0.001689
0.008821
0.030873
0.010561
0.033305
0.002838
0.002405
0.031895
0.005180
0.008779
0.033154
0.033515
0.033613
0.032410
0.028616
0.001522
0.033667
0.016866
0.024657
0.028027
0.002262
0.007270
0.013621
0.012724
0.030243
0.014134
0.031940
0.010466
0.016229
0.023573
0.013642
0.021517
0.008874
0.027152
0.029276
0.033341
0.010423
0.007925
0.023766
0.007676
0.032371
0.033075
0.011855
0.031262
0.003773
0.005971
0.007027
0.005552
0.030460
0.001874
0.005359
0.017090
0.031458
0.003170
0.004393
0.031365
0.002770
0.006218
0.029237
0.002020
0.001270
0.032885
0.030456
0.007186
0.013460
0.028207
0.024821
0.033271
0.028562
0.025914
0.008846
0.032150
0.011165
0.015843
0.033118
0.032143
0.031684
0.003503
0.030494
0.000886
0.012509
0.009347
0.006111
0.032379
0.031514
0.014243
0.021044
0.032386
0.006894
0.030229
0.017601
0.006157
0.012777
0.030526
0.030262
0.033673
0.027021
0.018410
0.033244
0.029438
0.029217
0.031503
0.033429
0.030899
0.033542
0.031813
0.002470
0.032557
0.004563
0.033412
0.005610
0.030464
0.023779
0.028371
0.034074
0.030745
0.033354
0.032710
0.009037
0.002829
0.020387
0.013659
0.031034
0.005485
0.017482
0.009701
0.017887
0.004660
0.031359
0.033638
0.033447
0.032443
0.032732
0.004974
0.006268
0.033040
0.005138
0.029780
0.001297
0.028846
0.019298
0.010086
0.031829
0.005537
0.034279
0.030043
0.013423
0.020447
0.023847
0.010491
0.028608
0.008146
0.032007
0.007248
0.032367
0.006457
0.026885
0.028456
0.011309
0.005993
0.032712
0.012741
0.033018
0.031267
0.016210
0.002501
0.025032
0.032018
0.005807
0.010296
0.031067
0.030878
0.014104
0.004902
0.030016
0.023149
0.000852
0.033347
0.007786
0.005629
0.003112
0.033181
0.002107
0.004302
0.009609
0.009318
0.001117
0.003809
0.029693
0.029806
0.030019
0.005085
0.015085
0.018654
0.015514
0.015833
0.032660
0.028287
0.021455
0.033199
0.031221
0.013764
0.002356
0.024933
0.031388
0.016720
0.031641
0.005799
0.019254
0.004082
0.006688
0.019270
0.006177
0.011970
0.001384
0.001654
0.017747
0.032162