# vtk DataFile Version 2.0
Test
ASCII
DATASET POLYDATA
POINTS 7341 float
0.000000 0.000000 0.000000
1.000000 0.000000 0.000000
1.000000 1.000000 0.000000
0.000000 1.000000 0.000000
0.000000 0.500000 0.000000
0.500000 0.500000 0.000000
1.000000 0.500000 0.000000
0.499000 0.499000 0.000000
0.900000 0.010000 0.000000
0.029412 0.000000 0.000000
0.058824 0.000000 0.000000
0.088235 0.000000 0.000000
0.117647 0.000000 0.000000
0.147059 0.000000 0.000000
0.176471 0.000000 0.000000
0.205882 0.000000 0.000000
0.235294 0.000000 0.000000
0.264706 0.000000 0.000000
0.294118 0.000000 0.000000
0.323529 0.000000 0.000000
0.352941 0.000000 0.000000
0.382353 0.000000 0.000000
0.411765 0.000000 0.000000
0.441176 0.000000 0.000000
0.470588 0.000000 0.000000
0.500000 0.000000 0.000000
0.529412 0.000000 0.000000
0.558824 0.000000 0.000000
0.588235 0.000000 0.000000
0.617647 0.000000 0.000000
0.647059 0.000000 0.000000
0.676471 0.000000 0.000000
0.705882 0.000000 0.000000
0.735294 0.000000 0.000000
0.764706 0.000000 0.000000
0.794118 0.000000 0.000000
0.823529 0.000000 0.000000
0.852941 0.000000 0.000000
0.882353 0.000000 0.000000
0.911765 0.000000 0.000000
0.941176 0.000000 0.000000
0.970588 0.000000 0.000000
1.000000 0.029412 0.000000
1.000000 0.058824 0.000000
1.000000 0.088235 0.000000
1.000000 0.117647 0.000000
1.000000 0.147059 0.000000
1.000000 0.176471 0.000000
1.000000 0.205882 0.000000
1.000000 0.235294 0.000000
1.000000 0.264706 0.000000
1.000000 0.294118 0.000000
1.000000 0.323529 0.000000
1.000000 0.352941 0.000000
1.000000 0.382353 0.000000
1.000000 0.411765 0.000000
1.000000 0.441176 0.000000
1.000000 0.470588 0.000000
1.000000 0.529412 0.000000
1.000000 0.558824 0.000000
1.000000 0.588235 0.000000
1.000000 0.617647 0.000000
1.000000 0.647059 0.000000
1.000000 0.676471 0.000000
1.000000 0.705882 0.000000
1.000000 0.735294 0.000000
1.000000 0.764706 0.000000
1.000000 0.794118 0.000000
1.000000 0.823529 0.000000
1.000000 0.852941 0.000000
1.000000 0.882353 0.000000
1.000000 0.911765 0.000000
1.000000 0.941176 0.000000
1.000000 0.970588 0.000000
0.970588 1.000000 0.000000
0.941176 1.000000 0.000000
0.911765 1.000000 0.000000
0.882353 1.000000 0.000000
0.852941 1.000000 0.000000
0.823529 1.000000 0.000000
0.794118 1.000000 0.000000
0.764706 1.000000 0.000000
0.735294 1.000000 0.000000
0.705882 1.000000 0.000000
0.676471 1.000000 0.000000
0.647059 1.000000 0.000000
0.617647 1.000000 0.000000
0.588235 1.000000 0.000000
0.558824 1.000000 0.000000
0.529412 1.000000 0.000000
0.500000 1.000000 0.000000
0.470588 1.000000 0.000000
0.441176 1.000000 0.000000
0.411765 1.000000 0.000000
0.382353 1.000000 0.000000
0.352941 1.000000 0.000000
0.323529 1.000000 0.000000
0.294118 1.000000 0.000000
0.264706 1.000000 0.000000
0.235294 1.000000 0.000000
0.205882 1.000000 0.000000
0.176471 1.000000 0.000000
0.147059 1.000000 0.000000
0.117647 1.000000 0.000000
0.088235 1.000000 0.000000
0.058824 1.000000 0.000000
0.029412 1.000000 0.000000
0.000000 0.970588 0.000000
0.000000 0.941176 0.000000
0.000000 0.911765 0.000000
0.000000 0.882353 0.000000
0.000000 0.852941 0.000000
0.000000 0.823529 0.000000
0.000000 0.794118 0.000000
0.000000 0.764706 0.000000
0.000000 0.735294 0.000000
0.000000 0.705882 0.000000
0.000000 0.676471 0.000000
0.000000 0.647059 0.000000
0.000000 0.617647 0.000000
0.000000 0.588235 0.000000
0.000000 0.558824 0.000000
0.000000 0.529412 0.000000
0.007246 0.500000 0.000000
0.014493 0.500000 0.000000
0.021739 0.500000 0.000000
0.028986 0.500000 0.000000
0.036232 0.500000 0.000000
0.043478 0.500000 0.000000
0.050725 0.500000 0.000000
0.057971 0.500000 0.000000
0.065217 0.500000 0.000000
0.072464 0.500000 0.000000
0.079710 0.500000 0.000000
0.086957 0.500000 0.000000
0.094203 0.500000 0.000000
0.101449 0.500000 0.000000
0.108696 0.500000 0.000000
0.115942 0.500000 0.000000
0.123188 0.500000 0.000000
0.130435 0.500000 0.000000
0.137681 0.500000 0.000000
0.144928 0.500000 0.000000
0.152174 0.500000 0.000000
0.159420 0.500000 0.000000
0.166667 0.500000 0.000000
0.173913 0.500000 0.000000
0.181159 0.500000 0.000000
0.188406 0.500000 0.000000
0.195652 0.500000 0.000000
0.202899 0.500000 0.000000
0.210145 0.500000 0.000000
0.217391 0.500000 0.000000
0.224638 0.500000 0.000000
0.231884 0.500000 0.000000
0.239130 0.500000 0.000000
0.246377 0.500000 0.000000
0.253623 0.500000 0.000000
0.260870 0.500000 0.000000
0.268116 0.500000 0.000000
0.275362 0.500000 0.000000
0.282609 0.500000 0.000000
0.289855 0.500000 0.000000
0.297101 0.500000 0.000000
0.304348 0.500000 0.000000
0.311594 0.500000 0.000000
0.318841 0.500000 0.000000
0.326087 0.500000 0.000000
0.333333 0.500000 0.000000
0.340580 0.500000 0.000000
0.347826 0.500000 0.000000
0.355072 0.500000 0.000000
0.362319 0.500000 0.000000
0.369565 0.500000 0.000000
0.376812 0.500000 0.000000
0.384058 0.500000 0.000000
0.391304 0.500000 0.000000
0.398551 0.500000 0.000000
0.405797 0.500000 0.000000
0.413043 0.500000 0.000000
0.420290 0.500000 0.000000
0.427536 0.500000 0.000000
0.434783 0.500000 0.000000
0.442029 0.500000 0.000000
0.449275 0.500000 0.000000
0.456522 0.500000 0.000000
0.463768 0.500000 0.000000
0.471014 0.500000 0.000000
0.478261 0.500000 0.000000
0.485507 0.500000 0.000000
0.492754 0.500000 0.000000
0.510004 0.500000 0.000000
0.520408 0.500000 0.000000
0.531229 0.500000 0.000000
0.542483 0.500000 0.000000
0.554187 0.500000 0.000000
0.566359 0.500000 0.000000
0.579019 0.500000 0.000000
0.592185 0.500000 0.000000
0.605877 0.500000 0.000000
0.620118 0.500000 0.000000
0.634929 0.500000 0.000000
0.650332 0.500000 0.000000
0.666352 0.500000 0.000000
0.683013 0.500000 0.000000
0.700340 0.500000 0.000000
0.718361 0.500000 0.000000
0.737103 0.500000 0.000000
0.756595 0.500000 0.000000
0.776867 0.500000 0.000000
0.797950 0.500000 0.000000
0.819877 0.500000 0.000000
0.842681 0.500000 0.000000
0.866398 0.500000 0.000000
0.891064 0.500000 0.000000
0.916716 0.500000 0.000000
0.943396 0.500000 0.000000
0.971143 0.500000 0.000000
0.000000 0.470588 0.000000
0.000000 0.441176 0.000000
0.000000 0.411765 0.000000
0.000000 0.382353 0.000000
0.000000 0.352941 0.000000
0.000000 0.323529 0.000000
0.000000 0.294118 0.000000
0.000000 0.264706 0.000000
0.000000 0.235294 0.000000
0.000000 0.205882 0.000000
0.000000 0.176471 0.000000
0.000000 0.147059 0.000000
0.000000 0.117647 0.000000
0.000000 0.088235 0.000000
0.000000 0.058824 0.000000
0.000000 0.029412 0.000000
0.500341 0.497365 0.000000
0.501682 0.495729 0.000000
0.503023 0.494094 0.000000
0.504365 0.492458 0.000000
0.505706 0.490823 0.000000
0.507047 0.489187 0.000000
0.508388 0.487552 0.000000
0.509729 0.485916 0.000000
0.511070 0.484281 0.000000
0.512411 0.482645 0.000000
0.513753 0.481010 0.000000
0.515094 0.479375 0.000000
0.516435 0.477739 0.000000
0.517776 0.476104 0.000000
0.519117 0.474468 0.000000
0.520458 0.472833 0.000000
0.521799 0.471197 0.000000
0.523140 0.469562 0.000000
0.524482 0.467926 0.000000
0.525823 0.466291 0.000000
0.527164 0.464656 0.000000
0.528505 0.463020 0.000000
0.529846 0.461385 0.000000
0.531187 0.459749 0.000000
0.532528 0.458114 0.000000
0.533870 0.456478 0.000000
0.535211 0.454843 0.000000
0.536552 0.453207 0.000000
0.537893 0.451572 0.000000
0.539234 0.449936 0.000000
0.540575 0.448301 0.000000
0.541916 0.446666 0.000000
0.543258 0.445030 0.000000
0.544599 0.443395 0.000000
0.545940 0.441759 0.000000
0.547281 0.440124 0.000000
0.548622 0.438488 0.000000
0.549963 0.436853 0.000000
0.551304 0.435217 0.000000
0.552645 0.433582 0.000000
0.553987 0.431946 0.000000
0.555328 0.430311 0.000000
0.556669 0.428676 0.000000
0.558010 0.427040 0.000000
0.559351 0.425405 0.000000
0.560692 0.423769 0.000000
0.562033 0.422134 0.000000
0.563375 0.420498 0.000000
0.564716 0.418863 0.000000
0.566057 0.417227 0.000000
0.567398 0.415592 0.000000
0.568739 0.413957 0.000000
0.570080 0.412321 0.000000
0.571421 0.410686 0.000000
0.572763 0.409050 0.000000
0.574104 0.407415 0.000000
0.575445 0.405779 0.000000
0.576786 0.404144 0.000000
0.578127 0.402508 0.000000
0.579468 0.400873 0.000000
0.580809 0.399237 0.000000
0.582151 0.397602 0.000000
0.583492 0.395967 0.000000
0.584833 0.394331 0.000000
0.586174 0.392696 0.000000
0.587515 0.391060 0.000000
0.588856 0.389425 0.000000
0.590197 0.387789 0.000000
0.591538 0.386154 0.000000
0.592880 0.384518 0.000000
0.594221 0.382883 0.000000
0.595562 0.381247 0.000000
0.596903 0.379612 0.000000
0.598244 0.377977 0.000000
0.599585 0.376341 0.000000
0.600926 0.374706 0.000000
0.602268 0.373070 0.000000
0.603609 0.371435 0.000000
0.604950 0.369799 0.000000
0.606291 0.368164 0.000000
0.607632 0.366528 0.000000
0.608973 0.364893 0.000000
0.610314 0.363258 0.000000
0.611656 0.361622 0.000000
0.612997 0.359987 0.000000
0.614338 0.358351 0.000000
0.615679 0.356716 0.000000
0.617020 0.355080 0.000000
0.618361 0.353445 0.000000
0.619702 0.351809 0.000000
0.621043 0.350174 0.000000
0.622385 0.348538 0.000000
0.623726 0.346903 0.000000
0.625067 0.345268 0.000000
0.626408 0.343632 0.000000
0.627749 0.341997 0.000000
0.629090 0.340361 0.000000
0.630431 0.338726 0.000000
0.631773 0.337090 0.000000
0.633114 0.335455 0.000000
0.634455 0.333819 0.000000
0.635796 0.332184 0.000000
0.637137 0.330548 0.000000
0.638478 0.328913 0.000000
0.639819 0.327278 0.000000
0.641161 0.325642 0.000000
0.642502 0.324007 0.000000
0.643843 0.322371 0.000000
0.645184 0.320736 0.000000
0.646525 0.319100 0.000000
0.647866 0.317465 0.000000
0.649207 0.315829 0.000000
0.650548 0.314194 0.000000
0.651890 0.312559 0.000000
0.653231 0.310923 0.000000
0.654572 0.309288 0.000000
0.655913 0.307652 0.000000
0.657254 0.306017 0.000000
0.658595 0.304381 0.000000
0.659936 0.302746 0.000000
0.661278 0.301110 0.000000
0.662619 0.299475 0.000000
0.663960 0.297839 0.000000
0.665301 0.296204 0.000000
0.666642 0.294569 0.000000
0.667983 0.292933 0.000000
0.669324 0.291298 0.000000
0.670666 0.289662 0.000000
0.672007 0.288027 0.000000
0.673348 0.286391 0.000000
0.674689 0.284756 0.000000
0.676030 0.283120 0.000000
0.677371 0.281485 0.000000
[...]
POINT_DATA 7341
SCALARS UX float 1
LOOKUP_TABLE default
0.000000
0.000000
0.158000
0.158000
0.078481
0.066223
0.063081
0.063698
0.000508
-0.000000
0.000000
0.000000
0.000000
0.000000
0.000000
0.000000
0.000000
0.000000
0.000000
0.000000
0.000000
0.000000
0.000000
0.000000
0.000000
0.000000
0.000000
0.000000
0.000000
0.000000
0.000000
0.000000
0.000000
0.000000
0.000000
0.000000
0.000000
0.000000
0.000000
0.000000
0.000000
-0.000000
0.003396
0.005240
0.007147
0.009276
0.011699
0.014381
0.017349
0.020400
0.023798
0.027388
0.031196
0.035245
0.039533
0.044215
0.049582
0.055560
0.070806
0.077678
0.084045
0.089880
0.095436
0.100875
0.106168
0.111380
0.116567
0.121747
0.126917
0.132087
0.137261
0.142438
0.147619
0.152809
0.158000
0.158000
0.158000
0.158000
0.158000
0.158000
0.158000
0.158000
0.158000
0.158000
0.158000
0.158000
0.158000
0.158000
0.158000
0.158000
0.158000
0.158000
0.158000
0.158000
0.158000
0.158000
0.158000
0.158000
0.158000
0.158000
0.158000
0.158000
0.158000
0.158000
0.158000
0.158000
0.158000
0.153152
0.148311
0.143467
0.138644
0.133827
0.129045
0.124268
0.119533
0.114838
0.110162
0.105557
0.100996
0.096473
0.091979
0.087483
0.082920
0.077290
0.076535
0.075546
0.074685
0.074151
0.074004
0.073650
0.073762
0.072076
0.070984
0.071165
0.071379
0.070902
0.073057
0.073531
0.075684
0.070897
0.073779
0.074405
0.074779
0.074511
0.074630
0.071623
0.072074
0.072314
0.073851
0.071266
0.071922
0.072864
0.073284
0.073921
0.073291
0.072728
0.072229
0.068938
0.069067
0.068056
0.063360
0.067233
0.063591
0.064002
0.059795
0.060944
0.062335
0.059579
0.060415
0.061539
0.062456
0.063800
0.061860
0.065885
0.065314
0.067006
0.066289
0.068190
0.067642
0.069162
0.069009
0.068862
0.068443
0.069813
0.069554
0.069346
0.068481
0.069043
0.067466
0.067719
0.066315
0.064929
0.064265
0.063627
0.063554
0.063482
0.063406
0.063340
0.063287
0.063238
0.063199
0.063178
0.062558
0.062298
0.062163
0.061864
0.061602
0.061425
0.061418
0.061433
0.061463
0.061521
0.061610
0.061735
0.061902
0.062118
0.062398
0.062717
0.061517
0.055028
0.049576
0.044704
0.040557
0.036717
0.033259
0.029906
0.026738
0.023595
0.020430
0.017160
0.013880
0.010544
0.007102
0.003917
0.062274
0.060430
0.059422
0.058360
0.057620
0.056895
0.056241
0.055557
0.054881
0.054306
0.053702
0.053166
0.052651
0.052158
0.051687
0.051250
0.050828
0.050394
0.049994
0.049614
0.049246
0.048885
0.048546
0.048222
0.047906
0.047608
0.047315
0.047031
0.046761
0.046496
0.046238
0.045986
0.045740
0.045498
0.045259
0.045025
0.044793
0.044564
0.044338
0.044114
0.043892
0.043673
0.043456
0.043240
0.043026
0.042814
0.042602
0.042391
0.042182
0.041973
0.041766
0.041558
0.041351
0.041144
0.040937
0.040730
0.040524
0.040317
0.040110
0.039903
0.039696
0.039488
0.039280
0.039072
0.038863
0.038654
0.038444
0.038233
0.038023
0.037812
0.037600
0.037388
0.037176
0.036963
0.036750
0.036536
0.036322
0.036107
0.035892
0.035677
0.035461
0.035244
0.035028
0.034811
0.034593
0.034376
0.034158
0.033939
0.033721
0.033499
0.033277
0.033056
0.032834
0.032612
0.032390
0.032167
0.031945
0.031722
0.031499
0.031276
0.031053
0.030830
0.030607
0.030383
0.030160
0.029937
0.029713
0.029490
0.029267
0.029044
0.028821
0.028598
0.028375
0.028152
0.027930
0.027708
0.027486
0.027264
0.027043
0.026822
0.026601
0.026381
0.026160
0.025941
0.025721
0.025502
0.025284
0.025066
0.024848
0.024631
0.024414
0.024198
0.023982
0.023767
0.023552
0.023338
0.023124
0.022911
0.022699
0.022487
0.022276
0.022065
0.021855
0.021646
0.021437
0.021229
0.021021
0.020815
0.020609
0.020404
0.020199
0.019995
0.019792
0.019590
0.019388
0.019187
0.018988
0.018788
0.018590
0.018393
0.018196
0.018000
0.017806
0.017612
0.017419
0.017227
0.017035
0.016845
0.016656
0.016467
0.016280
0.016093
0.015908
0.015723
0.015540
0.015357
0.015176
0.014995
0.014815
0.014636
0.014458
0.014281
0.014105
0.013930
0.013756
0.013583
0.013411
0.013240
0.013070
0.012901
0.012734
0.012568
0.012403
0.012238
0.012074
0.011912
0.011750
0.011590
0.011430
0.011271
0.011114
0.010957
0.010801
0.010646
0.010493
0.010340
0.010188
0.010038
0.009888
0.009740
0.009592
0.009446
0.009300
0.009156
0.009013
0.008871
0.008729
0.008589
0.008450
0.008312
0.008175
0.008039
0.007905
0.007771
0.007638
0.007507
0.007376
0.007246
0.007118
0.006990
0.006864
0.006739
0.006615
0.006492
0.006370
0.006249
0.006129
0.006010
0.005892
0.005775
0.005660
0.005545
0.005432
0.005319
0.005208
0.005098
0.004988
0.004880
0.004773
0.004667
0.004563
0.004459
0.004357
0.004255
0.004155
0.004055
0.003957
0.003860
0.003763
0.003668
0.003574
0.003481
0.003389
0.003299
0.003208
0.003119
0.003031
0.002944
0.002857
0.002772
0.002687
0.002604
0.002520
0.002438
0.002357
0.002276
0.002196
0.002117
0.002039
0.001960
0.001883
0.001806
0.001729
0.001652
0.001576
0.001501
0.001424
0.001348
0.001271
0.001194
0.001116
0.001038
0.000960
0.000881
0.000803
0.000726
0.000650
0.000580
0.051826
0.051296
0.052972
0.001609
0.001226
0.055348
0.001207
0.055250
0.054848
0.026648
0.055244
0.001321
0.032423
0.057977
0.013396
0.022544
0.056348
0.001161
0.002426
0.054700
0.006334
0.063221
0.057637
0.012520
0.055416
0.048050
0.066000
0.038969
0.055118
0.056744
0.002968
0.051611
0.051749
0.055318
0.053789
0.000812
0.057283
0.002723
0.057334
0.001330
0.051356
0.052157
0.053135
0.061818
0.001568
0.059637
0.001238
0.058118
0.060700
0.068734
0.001134
0.057152
0.008335
0.044009
0.001239
0.056730
0.055668
0.039703
0.054891
0.055331
0.016607
0.019815
0.001323
0.001295
0.054752
0.055916
0.028980
0.048662
0.055390
0.001199
0.055302
0.001193
0.030581
0.001352
0.053953
0.019247
0.001768
0.055299
0.009075
0.001834
0.004678
0.000498
0.001421
0.051439
0.051793
0.052492
0.051360
0.051381
0.052526
0.053414
0.060078
0.056928
0.054892
0.054812
0.054865
0.054588
0.067266
0.065295
0.064780
0.064406
0.058157
0.001055
0.057811
0.061689
0.050613
0.049832
0.002863
0.053307
0.002537
0.051762
0.029763
0.002559
0.031102
0.053842
0.016669
0.055129
0.002282
0.050392
0.006306
0.040083
0.053244
0.021411
0.003492
0.050346
0.058144
0.001975
0.055684
0.053753
0.049840
0.062478
0.008034
0.049086
0.058837
0.058988
0.000870
0.053043
0.056608
0.000990
0.057845
0.057474
0.010765
0.056939
0.001211
0.046998
0.056515
0.056178
0.004292
0.055573
0.036433
0.022672
0.055249
0.055277
0.001188
0.055490
0.002519
0.055401
0.055377
0.001168
0.034522
0.001182
0.055051
0.054933
0.043314
0.001431
0.026100
0.055285
0.054468
0.002064
0.015954
0.005407
0.002799
0.004264
0.053630
0.053314
0.051575
0.050965
0.050712
0.051576
0.051437
0.051944
0.052058
0.052745
0.053990
0.055865
0.054582
0.058029
0.058356
0.060842
0.059713
0.061905
0.062962
0.058904
0.065773
0.062744
0.066923
0.056283
0.058999
0.057182
0.013824
0.003825
0.051591
0.050831
0.014157
0.051606
0.051991
0.053829
0.054845
0.056118
0.003188
0.052626
0.024882
0.049924
0.049569
0.004298
0.005342
0.001755
0.051388
0.060756
0.002150
0.060980
0.050802
0.056035
0.034412
0.050747
0.049576
0.058011
0.054043
0.002651
0.042927
0.052460
0.052754
0.054436
0.002351
0.034593
0.051086
0.002515
0.050600
0.023196
0.019567
0.002544
0.050939
0.028121
0.056979
0.002430
0.002491
0.002986
0.056099
0.002310
0.008012
0.052908
0.053044
0.054523
0.050146
0.050622
0.003851
0.043464
0.026338
0.018216
0.057503
0.014765
0.011487
0.002572
0.007330
0.004696
0.050897
0.050323
0.050112
0.049832
0.049936
0.002208
0.049906
0.051643
0.056235
0.050212
0.054177
0.051454
0.061082
0.064285
0.052789
0.052433
0.051877
0.050457
0.063055
0.059444
0.056671
0.056771
0.055162
0.053098
0.055301
0.011320
0.004200
0.058149
0.055242
0.056506
0.053466
0.060585
0.050063
0.048951
0.051626
0.004304
0.047179
0.026277
0.003878
0.027663
0.051622
0.003451
0.005931
0.046045
0.007360
0.043949
0.003201
0.050599
0.017369
0.049540
0.049282
0.059206
0.004010
0.052686
0.005110
0.054357
0.032349
0.051810
0.051149
0.002599
0.051044
0.053641
0.051365
0.023798
0.050470
0.003810
0.052428
0.050088
0.051046
0.016160
0.049706
0.033711
0.038558
0.054154
0.004724
0.055866
0.013832
0.010491
0.007748
0.007908
0.050660
0.052577
0.003881
0.003976
0.051648
0.004814
0.050948
0.049975
0.046883
0.049923
0.052474
0.051031
0.050092
0.010711
0.060297
0.049732
0.060169
0.055041
0.049638
0.002404
0.050336
0.050516
0.059946
0.037226
0.064737
0.052697
0.063171
0.056518
0.052537
0.058664
0.055116
0.055599
0.054288
0.012438
0.009639
0.051822
0.053970
0.050736
0.058230
0.054780
0.054397
0.056342
0.060983
0.007051
0.005534
0.044189
0.005227
0.047675
0.049327
0.048608
0.015912
0.026456
0.049262
0.050574
0.003145
0.049203
0.051276
0.048987
0.054330
0.053898
0.047628
0.051048
0.005264
0.016614
0.006352
0.054786
0.050454
0.041030
0.010319
0.003644
0.004351
0.012332
0.049759
0.049175
0.003455
0.006058
0.023792
0.049362
0.053290
0.049216
0.038832
0.044847
0.047523
0.056377
0.050579
0.054639
0.048722
0.009141
0.005510
0.051106
0.046506
0.029303
0.050809
0.050281
0.006945
0.037326
0.052932
0.045683
0.053299
0.013564
0.046849
0.004739
0.003920
0.030850
0.046850
0.020738
0.010627
0.051472
0.052399
0.051828
0.018478
0.049263
0.003834
0.048944
0.049425
0.048025
0.003514
0.058358
0.052095
0.066705
0.049795
0.057967
0.054436
0.049658
0.049916
0.054431
0.058120
0.053508
0.051189
0.055262
0.003123
0.053424
0.051911
0.048598
0.052729
0.048878
0.057730
0.053521
0.049066
0.048152
0.050460
0.028865
0.046565
0.004522
0.047500
0.010687
0.039463
0.007071
0.048741
0.004061
0.043180
0.052825
0.005256
0.048512
0.049225
0.052017
0.050007
0.049212
0.003009
0.017879
0.019910
0.004934
0.005437
0.049626
0.051024
0.004168
0.046977
0.049797
0.053219
0.053378
0.046948
0.056811
0.052031
0.029703
0.007698
0.023389
0.043719
0.008173
0.009605
0.047963
0.005656
0.016087
0.003657
0.051943
0.041869
0.047338
0.044044
0.046147
0.013095
0.021205
0.006820
0.006095
0.051161
0.023292
0.050145
0.052612
0.036476
0.042422
0.055168
0.048899
0.049163
0.050894
0.050604
0.055958
0.048626
0.049405
0.053920
0.053498
0.014177
0.005762
0.050701
0.056724
0.049015
0.057119
0.048963
0.049040
0.051092
0.004118
0.004800
0.050320
0.046822
0.053411
0.050582
0.048899
0.055210
0.009347
0.056844
0.045694
0.052414
0.049754
0.035502
0.052710
0.048329
0.053292
0.052990
0.048833
0.048648
0.007572
0.041683
0.006256
0.045358
0.017582
0.009273
0.039044
0.029101
0.010582
0.003872
0.048046
0.047980
0.006817
0.032031
0.048267
0.048161
0.004777
0.040748
0.045068
0.009200
0.048057
0.050020
0.004917
0.052677
0.051372
0.048412
0.049251
0.048548
0.045841
0.048770
0.054341
0.048533
0.049031
0.049574
0.033338
0.048097
0.020290
0.054499
0.022363
0.043101
0.008860
0.053145
0.042577
0.006545
0.002174
0.004815
0.005320
0.048075
0.005941
0.051294
0.005257
0.054068
0.012186
0.012060
0.025845
0.013777
0.004593
0.019115
0.007243
0.052723
0.052335
0.053528
0.052745
0.045082
0.050277
0.050836
0.048346
0.040979
0.006087
0.048407
0.048345
0.004081
0.052558
0.049453
0.035012
0.052166
0.051785
0.048168
0.049476
0.048645
0.055481
0.049755
0.005126
0.051062
0.051916
0.052641
0.008201
0.052987
0.052284
0.049474
0.004519
0.049594
0.048880
0.052878
0.055707
0.009026
0.005539
0.012281
0.004992
0.005892
0.026187
0.003815
0.003877
0.047694
0.021553
0.048010
0.049757
0.006560
0.051899
0.042029
0.034969
0.050710
0.008189
0.005433
0.042260
0.006676
0.015103
0.007068
0.008948
0.049140
0.051366
0.051464
0.047817
0.053557
0.011421
0.047062
0.047932
0.051929
0.052034
0.046733
0.020327
0.045000
0.002983
0.039265
0.047879
0.041336
0.040046
0.045578
0.025997
0.048669
0.047455
0.047563
0.047347
0.007865
0.051194
0.004658
0.010164
0.005143
0.051908
0.015500
0.029126
0.037939
0.048126
0.010419
0.007364
0.003663
0.036182
0.049776
0.007970
0.049385
0.050322
0.051823
0.050783
0.047705
0.044726
0.048493
0.048124
0.048202
0.047838
0.047676
0.010421
0.048220
0.048389
0.037836
0.049608
0.051707
0.051710
0.048655
0.055275
0.052975
0.001020
0.048836
0.045704
0.051440
0.006527
0.052292
0.032494
0.048035
0.005958
0.052558
0.047082
0.009912
0.011190
0.039236
0.044462
0.046736
0.015746
0.031877
0.005862
0.046948
0.026680
0.041406
0.003866
0.047074
0.004493
0.003684
0.049927
0.048260
0.047323
0.003065
0.008594
0.051082
0.051369
0.013405
0.043061
0.042587
0.037994
0.006779
0.047434
0.047677
0.047004
0.047109
0.047692
0.023858
0.002230
0.048445
0.003194
0.037142
0.006695
0.051561
0.013732
0.009260
0.050185
0.051770
0.011783
0.052505
0.018541
0.050454
0.048177
0.004909
0.006831
0.050670
0.005656
0.048514
0.006184
0.006661
0.008524
0.047584
0.031914
0.013980
0.038801
0.050042
0.012534
0.051434
0.050308
0.028638
0.049027
0.047433
0.047419
0.047219
0.048359
0.047629
0.047339
0.050977
0.047497
0.035307
0.049762
0.044024
0.048324
0.050750
0.007704
0.047755
0.051084
0.051092
0.025023
0.005640
0.044374
0.036614
0.040007
0.047958
0.010281
0.037951
0.042792
0.014209
0.031298
0.006411
0.006898
0.037846
0.005155
0.035375
0.003104
0.043272
0.046656
0.047183
0.049476
0.007810
0.048600
0.024229
0.050925
0.047277
0.047264
0.010745
0.046480
0.007878
0.049872
0.024270
0.007074
0.046869
0.048514
0.008275
0.004410
0.043648
0.017235
0.044271
0.046772
0.046778
0.046652
0.047469
0.040541
0.009541
0.008141
0.014129
0.051063
0.006018
0.005340
0.009084
0.049710
0.010322
0.016731
0.042930
0.038680
0.002916
0.034296
0.046894
0.047385
0.013189
0.029099
0.050474
0.050751
0.002431
0.049097
0.047284
0.048828
0.046708
0.007395
0.051078
0.047311
0.047503
0.049350
0.046888
0.050002
0.046725
0.047299
0.047397
0.050066
0.001771
0.048351
0.046300
0.027670
0.050735
0.012236
0.050214
0.034571
0.043132
0.046853
0.001445
0.046455
0.047494
0.050861
0.047434
0.034364
0.005806
0.004391
0.050953
0.006005
0.046649
0.045930
0.011260
0.024580
0.038536
0.030225
0.008629
0.042877
0.036819
0.046096
0.006840
0.005979
0.003782
0.050198
0.005734
0.032870
0.046170
0.004976
0.004315
0.049384
0.041556
0.046692
0.012601
0.046564
0.040669
0.002548
0.013947
0.045116
0.009094
0.009196
0.048575
0.009929
0.046550
0.046260
0.047188
0.046124
0.045978
0.026426
0.020902
0.010744
0.045835
0.001666
0.040450
0.007944
0.015698
0.037129
0.048272
0.045750
0.045749
0.031835
0.008194
0.011636
0.045698
0.008048
0.010673
0.003678
0.015381
0.026699
0.006586
0.016258
0.042482
0.050521
0.049397
0.048534
0.047922
0.002274
0.046496
0.050635
0.050392
0.050118
0.049452
0.046681
0.005150
0.046315
0.010979
0.046166
0.046931
0.021858
0.046654
0.006718
0.046279
0.046343
0.048288
0.050489
0.008076
0.046021
0.042091
0.047082
0.005079
0.019052
0.002212
0.005690
0.049451
0.000603
0.006521
0.044796
0.047379
0.049545
0.049942
0.047008
0.033439
0.003262
0.035853
0.047270
0.041391
0.049784
0.050712
0.001528
0.046111
0.013384
0.012090
0.036780
0.024639
0.029055
0.041097
0.014260
0.009196
0.007524
0.008230
0.045142
0.035344
0.016527
0.033577
0.003192
0.045465
0.039878
0.045877
0.004169
0.017251
0.046346
0.009787
0.011039
0.007766
0.001663
0.002002
0.009256
0.044193
0.013116
0.012483
0.007058
0.035907
0.034478
0.009525
0.039886
0.003209
0.046362
0.028989
0.049727
0.048616
0.012304
0.046488
0.022504
0.048783
0.045574
0.045936
0.045642
0.043166
0.009784
0.008170
0.023494
0.016053
0.004396
0.031540
0.040725
0.050197
0.047109
0.045959
0.050105
0.046031
0.045471
0.046300
0.048271
0.041630
0.010117
0.045837
0.046834
0.002228
0.048841
0.046201
0.046361
0.044943
0.049883
0.049263
0.045460
0.045669
0.045676
0.039597
0.006020
0.011103
0.011047
0.050282
0.047815
0.049137
0.046164
0.005517
0.021893
0.046385
0.032424
0.049135
0.018614
0.049626
0.004977
0.050341
0.004910
0.038810
0.046794
0.048638
0.006357
0.019386
0.006889
0.002487
0.044899
0.046286
0.013851
0.010874
0.034994
0.048372
0.039791
0.031429
0.008791
0.006579
0.007021
0.043617
0.006337
0.038241
0.031661
0.022897
0.005379
0.044808
0.037117
0.018721
0.002030
0.045275
0.015231
0.010054
0.046071
0.016400
0.002328
0.018861
0.012915
0.012991
0.017722
0.028957
0.047838
0.007778
0.046784
0.033856
0.044621
0.010145
0.039325
0.009921
0.026754
0.045200
0.009050
0.013914
0.009390
0.003738
0.011703
0.009117
0.015929
0.044262
0.047371
0.045473
0.045706
0.026349
0.041766
0.003690
0.042907
0.045143
0.048628
0.047819
0.007399
0.049359
0.048962
0.012101
0.020563
0.045509
0.045587
0.045619
0.045159
0.009714
0.044539
0.041429
0.045732
0.048664
0.049846
0.012576
0.045399
0.045068
0.044463
0.032507
0.049354
0.049664
0.006097
0.038968
0.004900
0.034725
0.045254
0.030524
0.044379
0.020033
0.049932
0.045840
0.001579
0.048451
0.045671
0.047267
0.045675
0.047038
0.007681
0.049005
0.044854
0.004348
0.048413
0.050006
0.004589
0.048995
0.047676
0.015501
0.047637
0.024673
0.033167
0.015202
0.038452
0.041821
0.008387
0.009760
0.010123
0.033501
0.004432
0.020986
0.045205
0.011388
0.030830
0.003238
0.003235
0.046554
0.044845
0.006536
0.004585
0.040646
0.002090
0.045123
0.040169
0.004989
0.008499
0.044751
0.044708
0.002282
0.037223
0.046177
0.023856
0.006907
0.007149
0.026812
0.014780
0.010377
0.042867
0.048672
0.008181
0.043517
0.035493
0.017287
0.010751
0.048055
0.043133
0.047052
0.014574
0.009121
0.015450
0.047827
0.029640
0.010549
0.047250
0.044678
0.004155
0.044831
0.045021
0.011057
0.013079
0.011319
0.001614
0.019299
0.028763
0.018844
0.014105
0.046728
0.046929
0.006593
0.048519
0.049100
0.044798
0.044306
0.002746
0.045198
0.045489
0.049602
0.048272
0.049531
0.045321
0.048296
0.045371
0.018088
0.021648
0.003841
0.049498
0.008884
0.048572
0.044630
0.013030
0.005325
0.045725
0.049095
0.044640
0.048130
0.028695
0.044073
0.005908
0.048302
0.048823
0.010864
0.049655
0.046070
0.013650
0.045710
0.044227
0.046892
0.015373
0.017101
0.012238
0.024698
0.048291
0.035715
0.046164
0.044839
0.040801
0.010207
0.043631
0.008295
0.044362
0.008536
0.007603
0.042032
0.043269
0.044579
0.019179
0.003799
0.005727
0.043830
0.028916
0.002411
0.002675
0.043885
0.004456
0.015878
0.004926
0.044817
0.021134
0.025721
0.043778
0.001205
0.004885
0.015966
0.046351
0.044635
0.048047
0.046153
0.043031
0.014996
0.009363
0.011045
0.017678
0.018772
0.022610
0.007317
0.012212
0.012463
0.030972
0.048051
0.047728
0.014147
0.044217
0.006788
0.048976
0.044015
0.040454
0.008446
0.042316
0.046344
0.046364
0.048756
0.049159
0.044462
0.020131
0.047511
0.044500
0.047554
0.011884
0.005260
0.043295
0.046869
0.006475
0.006276
0.030819
0.047890
0.049343
0.038775
0.027590
0.007161
0.001886
0.011051
0.044345
0.013223
0.047497
0.003309
0.002754
0.046125
0.006465
0.011364
0.045966
0.048028
0.048599
0.045684
0.041128
0.001667
0.049243
0.021849
0.033912
0.039000
0.002630
0.009413
0.017694
0.016434
0.043226
0.017597
0.046060
0.013521
0.020436
0.032335
0.017774
0.029146
0.011569
0.037778
0.040816
0.048070
0.013285
0.010288
0.032766
0.009537
0.045106
0.048035
0.014984
0.043490
0.004407
0.007503
0.009034
0.006898
0.043610
0.002077
0.006614
0.021765
0.045292
0.003725
0.005316
0.045244
0.003209
0.007571
0.041906
0.002276
0.001382
0.046702
0.043610
0.009283
0.016795
0.039273
0.034217
0.047609
0.039830
0.035857
0.011113
0.045283
0.014308
0.020854
0.047150
0.044650
0.044264
0.004159
0.043686
0.000955
0.015663
0.012082
0.007732
0.046824
0.044127
0.017556
0.028298
0.045692
0.008484
0.043090
0.022621
0.007842
0.016549
0.043751
0.043089
0.048979
0.037441
0.023982
0.047449
0.041876
0.041602
0.045472
0.048078
0.044320
0.048626
0.044609
0.002778
0.046009
0.005399
0.047904
0.007004
0.043388
0.032443
0.040630
0.047383
0.044153
0.048533
0.047393
0.011750
0.003275
0.027492
0.016812
0.044457
0.006614
0.023236
0.012322
0.023255
0.005680
0.045276
0.049087
0.048357
0.045912
0.046423
0.006099
0.007590
0.046978
0.006494
0.042621
0.001427
0.041536
0.025871
0.012711
0.045624
0.006859
0.047446
0.042879
0.017036
0.027628
0.032802
0.013412
0.039925
0.010192
0.046106
0.009310
0.045829
0.008165
0.037377
0.040362
0.014356
0.007510
0.047302
0.016537
0.047037
0.043522
0.021423
0.002822
0.034836
0.045189
0.007217
0.013360
0.044652
0.044371
0.017802
0.005995
0.042834
0.031657
0.000919
0.048334
0.010087
0.006965
0.003642
0.047831
0.002351
0.005188
0.012493
0.011774
0.001213
0.004537
0.042216
0.042396
0.041823
0.006096
0.019814
0.024212
0.019454
0.019880
0.046350
0.039410
0.029115
0.047552
0.043680
0.017139
0.002681
0.034441
0.043991
0.021175
0.045565
0.007238
0.025239
0.004802
0.008541
0.025883
0.007842
0.015422
0.001510
0.001821
0.023658
0.045341