# vtk DataFile Version 2.0
Test
ASCII
DATASET POLYDATA
POINTS 7341 float
0.000000 0.000000 0.000000
1.000000 0.000000 0.000000
1.000000 1.000000 0.000000
0.000000 1.000000 0.000000
0.000000 0.500000 0.000000
0.500000 0.500000 0.000000
1.000000 0.500000 0.000000
0.499000 0.499000 0.000000
0.900000 0.010000 0.000000
0.029412 0.000000 0.000000
0.058824 0.000000 0.000000
0.088235 0.000000 0.000000
0.117647 0.000000 0.000000
0.147059 0.000000 0.000000
0.176471 0.000000 0.000000
0.205882 0.000000 0.000000
0.235294 0.000000 0.000000
0.264706 0.000000 0.000000
0.294118 0.000000 0.000000
0.323529 0.000000 0.000000
0.352941 0.000000 0.000000
0.382353 0.000000 0.000000
0.411765 0.000000 0.000000
0.441176 0.000000 0.000000
0.470588 0.000000 0.000000
0.500000 0.000000 0.000000
0.529412 0.000000 0.000000
0.558824 0.000000 0.000000
0.588235 0.000000 0.000000
0.617647 0.000000 0.000000
0.647059 0.000000 0.000000
0.676471 0.000000 0.000000
0.705882 0.000000 0.000000
0.735294 0.000000 0.000000
0.764706 0.000000 0.000000
0.794118 0.000000 0.000000
0.823529 0.000000 0.000000
0.852941 0.000000 0.000000
0.882353 0.000000 0.000000
0.911765 0.000000 0.000000
0.941176 0.000000 0.000000
0.970588 0.000000 0.000000
1.000000 0.029412 0.000000
1.000000 0.058824 0.000000
1.000000 0.088235 0.000000
1.000000 0.117647 0.000000
1.000000 0.147059 0.000000
1.000000 0.176471 0.000000
1.000000 0.205882 0.000000
1.000000 0.235294 0.000000
1.000000 0.264706 0.000000
1.000000 0.294118 0.000000
1.000000 0.323529 0.000000
1.000000 0.352941 0.000000
1.000000 0.382353 0.000000
1.000000 0.411765 0.000000
1.000000 0.441176 0.000000
1.000000 0.470588 0.000000
1.000000 0.529412 0.000000
1.000000 0.558824 0.000000
1.000000 0.588235 0.000000
1.000000 0.617647 0.000000
1.000000 0.647059 0.000000
1.000000 0.676471 0.000000
1.000000 0.705882 0.000000
1.000000 0.735294 0.000000
1.000000 0.764706 0.000000
1.000000 0.794118 0.000000
1.000000 0.823529 0.000000
1.000000 0.852941 0.000000
1.000000 0.882353 0.000000
1.000000 0.911765 0.000000
1.000000 0.941176 0.000000
1.000000 0.970588 0.000000
0.970588 1.000000 0.000000
0.941176 1.000000 0.000000
0.911765 1.000000 0.000000
0.882353 1.000000 0.000000
0.852941 1.000000 0.000000
0.823529 1.000000 0.000000
0.794118 1.000000 0.000000
0.764706 1.000000 0.000000
0.735294 1.000000 0.000000
0.705882 1.000000 0.000000
0.676471 1.000000 0.000000
0.647059 1.000000 0.000000
0.617647 1.000000 0.000000
0.588235 1.000000 0.000000
0.558824 1.000000 0.000000
0.529412 1.000000 0.000000
0.500000 1.000000 0.000000
0.470588 1.000000 0.000000
0.441176 1.000000 0.000000
0.411765 1.000000 0.000000
0.382353 1.000000 0.000000
0.352941 1.000000 0.000000
0.323529 1.000000 0.000000
0.294118 1.000000 0.000000
0.264706 1.000000 0.000000
0.235294 1.000000 0.000000
0.205882 1.000000 0.000000
0.176471 1.000000 0.000000
0.147059 1.000000 0.000000
0.117647 1.000000 0.000000
0.088235 1.000000 0.000000
0.058824 1.000000 0.000000
0.029412 1.000000 0.000000
0.000000 0.970588 0.000000
0.000000 0.941176 0.000000
0.000000 0.911765 0.000000
0.000000 0.882353 0.000000
0.000000 0.852941 0.000000
0.000000 0.823529 0.000000
0.000000 0.794118 0.000000
0.000000 0.764706 0.000000
0.000000 0.735294 0.000000
0.000000 0.705882 0.000000
0.000000 0.676471 0.000000
0.000000 0.647059 0.000000
0.000000 0.617647 0.000000
0.000000 0.588235 0.000000
0.000000 0.558824 0.000000
0.000000 0.529412 0.000000
0.007246 0.500000 0.000000
0.014493 0.500000 0.000000
0.021739 0.500000 0.000000
0.028986 0.500000 0.000000
0.036232 0.500000 0.000000
0.043478 0.500000 0.000000
0.050725 0.500000 0.000000
0.057971 0.500000 0.000000
0.065217 0.500000 0.000000
0.072464 0.500000 0.000000
0.079710 0.500000 0.000000
0.086957 0.500000 0.000000
0.094203 0.500000 0.000000
0.101449 0.500000 0.000000
0.108696 0.500000 0.000000
0.115942 0.500000 0.000000
0.123188 0.500000 0.000000
0.130435 0.500000 0.000000
0.137681 0.500000 0.000000
0.144928 0.500000 0.000000
0.152174 0.500000 0.000000
0.159420 0.500000 0.000000
0.166667 0.500000 0.000000
0.173913 0.500000 0.000000
0.181159 0.500000 0.000000
0.188406 0.500000 0.000000
0.195652 0.500000 0.000000
0.202899 0.500000 0.000000
0.210145 0.500000 0.000000
0.217391 0.500000 0.000000
0.224638 0.500000 0.000000
0.231884 0.500000 0.000000
0.239130 0.500000 0.000000
0.246377 0.500000 0.000000
0.253623 0.500000 0.000000
0.260870 0.500000 0.000000
0.268116 0.500000 0.000000
0.275362 0.500000 0.000000
0.282609 0.500000 0.000000
0.289855 0.500000 0.000000
0.297101 0.500000 0.000000
0.304348 0.500000 0.000000
0.311594 0.500000 0.000000
0.318841 0.500000 0.000000
0.326087 0.500000 0.000000
0.333333 0.500000 0.000000
0.340580 0.500000 0.000000
0.347826 0.500000 0.000000
0.355072 0.500000 0.000000
0.362319 0.500000 0.000000
0.369565 0.500000 0.000000
0.376812 0.500000 0.000000
0.384058 0.500000 0.000000
0.391304 0.500000 0.000000
0.398551 0.500000 0.000000
0.405797 0.500000 0.000000
0.413043 0.500000 0.000000
0.420290 0.500000 0.000000
0.427536 0.500000 0.000000
0.434783 0.500000 0.000000
0.442029 0.500000 0.000000
0.449275 0.500000 0.000000
0.456522 0.500000 0.000000
0.463768 0.500000 0.000000
0.471014 0.500000 0.000000
0.478261 0.500000 0.000000
0.485507 0.500000 0.000000
0.492754 0.500000 0.000000
0.510004 0.500000 0.000000
0.520408 0.500000 0.000000
0.531229 0.500000 0.000000
0.542483 0.500000 0.000000
0.554187 0.500000 0.000000
0.566359 0.500000 0.000000
0.579019 0.500000 0.000000
0.592185 0.500000 0.000000
0.605877 0.500000 0.000000
0.620118 0.500000 0.000000
0.634929 0.500000 0.000000
0.650332 0.500000 0.000000
0.666352 0.500000 0.000000
0.683013 0.500000 0.000000
0.700340 0.500000 0.000000
0.718361 0.500000 0.000000
0.737103 0.500000 0.000000
0.756595 0.500000 0.000000
0.776867 0.500000 0.000000
0.797950 0.500000 0.000000
0.819877 0.500000 0.000000
0.842681 0.500000 0.000000
0.866398 0.500000 0.000000
0.891064 0.500000 0.000000
0.916716 0.500000 0.000000
0.943396 0.500000 0.000000
0.971143 0.500000 0.000000
0.000000 0.470588 0.000000
0.000000 0.441176 0.000000
0.000000 0.411765 0.000000
0.000000 0.382353 0.000000
0.000000 0.352941 0.000000
0.000000 0.323529 0.000000
0.000000 0.294118 0.000000
0.000000 0.264706 0.000000
0.000000 0.235294 0.000000
0.000000 0.205882 0.000000
0.000000 0.176471 0.000000
0.000000 0.147059 0.000000
0.000000 0.117647 0.000000
0.000000 0.088235 0.000000
0.000000 0.058824 0.000000
0.000000 0.029412 0.000000
0.500341 0.497365 0.000000
0.501682 0.495729 0.000000
0.503023 0.494094 0.000000
0.504365 0.492458 0.000000
0.505706 0.490823 0.000000
0.507047 0.489187 0.000000
0.508388 0.487552 0.000000
0.509729 0.485916 0.000000
0.511070 0.484281 0.000000
0.512411 0.482645 0.000000
0.513753 0.481010 0.000000
0.515094 0.479375 0.000000
0.516435 0.477739 0.000000
0.517776 0.476104 0.000000
0.519117 0.474468 0.000000
0.520458 0.472833 0.000000
0.521799 0.471197 0.000000
0.523140 0.469562 0.000000
0.524482 0.467926 0.000000
0.525823 0.466291 0.000000
0.527164 0.464656 0.000000
0.528505 0.463020 0.000000
0.529846 0.461385 0.000000
0.531187 0.459749 0.000000
0.532528 0.458114 0.000000
0.533870 0.456478 0.000000
0.535211 0.454843 0.000000
0.536552 0.453207 0.000000
0.537893 0.451572 0.000000
0.539234 0.449936 0.000000
0.540575 0.448301 0.000000
0.541916 0.446666 0.000000
0.543258 0.445030 0.000000
0.544599 0.443395 0.000000
0.545940 0.441759 0.000000
0.547281 0.440124 0.000000
0.548622 0.438488 0.000000
0.549963 0.436853 0.000000
0.551304 0.435217 0.000000
0.552645 0.433582 0.000000
0.553987 0.431946 0.000000
0.555328 0.430311 0.000000
0.556669 0.428676 0.000000
0.558010 0.427040 0.000000
0.559351 0.425405 0.000000
0.560692 0.423769 0.000000
0.562033 0.422134 0.000000
0.563375 0.420498 0.000000
0.564716 0.418863 0.000000
0.566057 0.417227 0.000000
0.567398 0.415592 0.000000
0.568739 0.413957 0.000000
0.570080 0.412321 0.000000
0.571421 0.410686 0.000000
0.572763 0.409050 0.000000
0.574104 0.407415 0.000000
0.575445 0.405779 0.000000
0.576786 0.404144 0.000000
0.578127 0.402508 0.000000
0.579468 0.400873 0.000000
0.580809 0.399237 0.000000
0.582151 0.397602 0.000000
0.583492 0.395967 0.000000
0.584833 0.394331 0.000000
0.586174 0.392696 0.000000
0.587515 0.391060 0.000000
0.588856 0.389425 0.000000
0.590197 0.387789 0.000000
0.591538 0.386154 0.000000
0.592880 0.384518 0.000000
0.594221 0.382883 0.000000
0.595562 0.381247 0.000000
0.596903 0.379612 0.000000
0.598244 0.377977 0.000000
0.599585 0.376341 0.000000
0.600926 0.374706 0.000000
0.602268 0.373070 0.000000
0.603609 0.371435 0.000000
0.604950 0.369799 0.000000
0.606291 0.368164 0.000000
0.607632 0.366528 0.000000
0.608973 0.364893 0.000000
0.610314 0.363258 0.000000
0.611656 0.361622 0.000000
0.612997 0.359987 0.000000
0.614338 0.358351 0.000000
0.615679 0.356716 0.000000
0.617020 0.355080 0.000000
0.618361 0.353445 0.000000
0.619702 0.351809 0.000000
0.621043 0.350174 0.000000
0.622385 0.348538 0.000000
0.623726 0.346903 0.000000
0.625067 0.345268 0.000000
0.626408 0.343632 0.000000
0.627749 0.341997 0.000000
0.629090 0.340361 0.000000
0.630431 0.338726 0.000000
0.631773 0.337090 0.000000
0.633114 0.335455 0.000000
0.634455 0.333819 0.000000
0.635796 0.332184 0.000000
0.637137 0.330548 0.000000
0.638478 0.328913 0.000000
0.639819 0.327278 0.000000
0.641161 0.325642 0.000000
0.642502 0.324007 0.000000
0.643843 0.322371 0.000000
0.645184 0.320736 0.000000
0.646525 0.319100 0.000000
0.647866 0.317465 0.000000
0.649207 0.315829 0.000000
0.650548 0.314194 0.000000
0.651890 0.312559 0.000000
0.653231 0.310923 0.000000
0.654572 0.309288 0.000000
0.655913 0.307652 0.000000
0.657254 0.306017 0.000000
0.658595 0.304381 0.000000
0.659936 0.302746 0.000000
0.661278 0.301110 0.000000
0.662619 0.299475 0.000000
0.663960 0.297839 0.000000
0.665301 0.296204 0.000000
0.666642 0.294569 0.000000
0.667983 0.292933 0.000000
0.669324 0.291298 0.000000
0.670666 0.289662 0.000000
0.672007 0.288027 0.000000
0.673348 0.286391 0.000000
0.674689 0.284756 0.000000
0.676030 0.283120 0.000000
0.677371 0.281485 0.000000
[...]
POINT_DATA 7341
SCALARS UX float 1
LOOKUP_TABLE default
0.000000
0.000000
0.148000
0.148000
0.074305
0.061962
0.059625
0.059600
0.000518
-0.000000
0.000000
0.000000
0.000000
0.000000
0.000000
0.000000
0.000000
0.000000
0.000000
0.000000
0.000000
0.000000
0.000000
0.000000
0.000000
0.000000
0.000000
0.000000
0.000000
0.000000
0.000000
0.000000
0.000000
0.000000
0.000000
0.000000
0.000000
0.000000
0.000000
0.000000
0.000000
-0.000000
0.003390
0.005207
0.007062
0.009118
0.011447
0.014008
0.016827
0.019719
0.022919
0.026289
0.029849
0.033621
0.037608
0.041955
0.046931
0.052488
0.067043
0.073529
0.079474
0.084895
0.090063
0.095128
0.100059
0.104912
0.109733
0.114543
0.119331
0.124113
0.128891
0.133666
0.138442
0.143222
0.148000
0.148000
0.148000
0.148000
0.148000
0.148000
0.148000
0.148000
0.148000
0.148000
0.148000
0.148000
0.148000
0.148000
0.148000
0.148000
0.148000
0.148000
0.148000
0.148000
0.148000
0.148000
0.148000
0.148000
0.148000
0.148000
0.148000
0.148000
0.148000
0.148000
0.148000
0.148000
0.148000
0.143524
0.139054
0.134583
0.130131
0.125685
0.121269
0.116858
0.112484
0.108144
0.103820
0.099555
0.095326
0.091128
0.086951
0.082772
0.078525
0.073164
0.072445
0.071517
0.070704
0.070217
0.070100
0.069775
0.069928
0.068297
0.067282
0.067460
0.067804
0.067410
0.069431
0.069798
0.071691
0.066716
0.069520
0.070100
0.070442
0.070174
0.070284
0.067308
0.067665
0.067681
0.068908
0.066032
0.066572
0.067054
0.067471
0.068545
0.069184
0.069378
0.069562
0.067182
0.067410
0.066553
0.062175
0.065700
0.062368
0.062662
0.058167
0.059215
0.060361
0.056945
0.057449
0.058138
0.058736
0.059771
0.057389
0.061386
0.060547
0.062132
0.061217
0.063203
0.062401
0.064080
0.063864
0.063710
0.063302
0.064977
0.064693
0.064445
0.063509
0.064497
0.062978
0.063658
0.062863
0.060877
0.060274
0.059736
0.059417
0.059333
0.058766
0.058669
0.058625
0.058578
0.058513
0.058471
0.058453
0.058307
0.058276
0.058139
0.058031
0.057930
0.057923
0.057930
0.057964
0.058028
0.058124
0.058260
0.058440
0.058667
0.058951
0.059269
0.057964
0.051868
0.046811
0.042337
0.038568
0.035083
0.031942
0.028894
0.025990
0.023081
0.020112
0.017009
0.013842
0.010586
0.007177
0.003967
0.058162
0.056334
0.055377
0.054374
0.053685
0.053005
0.052355
0.051775
0.051269
0.050719
0.050196
0.049738
0.049303
0.048888
0.048495
0.048139
0.047797
0.047440
0.047110
0.046802
0.046501
0.046214
0.045929
0.045656
0.045383
0.045122
0.044864
0.044611
0.044366
0.044125
0.043888
0.043656
0.043428
0.043204
0.042981
0.042763
0.042547
0.042333
0.042121
0.041912
0.041703
0.041498
0.041293
0.041089
0.040887
0.040685
0.040484
0.040284
0.040084
0.039884
0.039685
0.039485
0.039286
0.039087
0.038887
0.038687
0.038487
0.038287
0.038087
0.037886
0.037684
0.037482
0.037281
0.037078
0.036875
0.036672
0.036468
0.036264
0.036060
0.035856
0.035651
0.035446
0.035241
0.035035
0.034829
0.034623
0.034417
0.034211
0.034004
0.033797
0.033590
0.033383
0.033175
0.032968
0.032760
0.032552
0.032344
0.032136
0.031928
0.031720
0.031511
0.031303
0.031094
0.030886
0.030677
0.030469
0.030260
0.030051
0.029843
0.029634
0.029425
0.029217
0.029009
0.028800
0.028592
0.028384
0.028176
0.027968
0.027761
0.027553
0.027346
0.027139
0.026933
0.026726
0.026520
0.026314
0.026108
0.025903
0.025698
0.025493
0.025288
0.025084
0.024880
0.024677
0.024474
0.024271
0.024068
0.023865
0.023662
0.023456
0.023252
0.023050
0.022846
0.022643
0.022441
0.022240
0.022039
0.021838
0.021639
0.021440
0.021241
0.021043
0.020846
0.020650
0.020454
0.020258
0.020064
0.019870
0.019677
0.019485
0.019293
0.019102
0.018912
0.018723
0.018534
0.018346
0.018159
0.017973
0.017787
0.017602
0.017418
0.017235
0.017053
0.016871
0.016690
0.016511
0.016332
0.016153
0.015976
0.015799
0.015623
0.015448
0.015274
0.015101
0.014929
0.014757
0.014587
0.014418
0.014249
0.014082
0.013915
0.013749
0.013584
0.013420
0.013256
0.013093
0.012931
0.012770
0.012610
0.012451
0.012293
0.012136
0.011979
0.011823
0.011668
0.011515
0.011362
0.011209
0.011058
0.010908
0.010758
0.010610
0.010462
0.010315
0.010170
0.010025
0.009881
0.009738
0.009596
0.009455
0.009315
0.009176
0.009037
0.008900
0.008764
0.008629
0.008495
0.008361
0.008229
0.008097
0.007967
0.007838
0.007709
0.007582
0.007456
0.007330
0.007206
0.007082
0.006960
0.006838
0.006717
0.006598
0.006479
0.006362
0.006245
0.006129
0.006015
0.005901
0.005788
0.005676
0.005566
0.005456
0.005347
0.005239
0.005132
0.005026
0.004922
0.004818
0.004715
0.004613
0.004513
0.004413
0.004314
0.004216
0.004119
0.004023
0.003928
0.003834
0.003741
0.003649
0.003558
0.003468
0.003379
0.003291
0.003203
0.003116
0.003030
0.002945
0.002861
0.002778
0.002695
0.002613
0.002531
0.002450
0.002370
0.002291
0.002212
0.002135
0.002057
0.001979
0.001903
0.001826
0.001749
0.001673
0.001597
0.001522
0.001445
0.001368
0.001291
0.001214
0.001135
0.001056
0.000978
0.000898
0.000819
0.000741
0.000663
0.000591
0.049935
0.048401
0.049329
0.001631
0.001217
0.052072
0.001168
0.052082
0.052898
0.025581
0.051887
0.001250
0.031143
0.054618
0.013060
0.022069
0.052494
0.001111
0.002429
0.050614
0.006274
0.059412
0.053554
0.012548
0.051608
0.045379
0.062205
0.037063
0.051957
0.052226
0.002908
0.049316
0.048531
0.052527
0.052384
0.000825
0.053288
0.002731
0.053413
0.001326
0.048856
0.048724
0.049410
0.058055
0.001587
0.055575
0.001257
0.054082
0.057178
0.064878
0.001136
0.053131
0.008208
0.041675
0.001186
0.052757
0.052065
0.037751
0.051701
0.052008
0.016116
0.019151
0.001243
0.001228
0.050768
0.052000
0.028004
0.046046
0.052283
0.001172
0.052058
0.001174
0.029259
0.001354
0.050050
0.018976
0.001795
0.052221
0.009175
0.001890
0.004828
0.000693
0.001513
0.048849
0.049749
0.051010
0.048682
0.048375
0.048994
0.052107
0.056458
0.053730
0.052288
0.052386
0.052617
0.052832
0.063446
0.061506
0.060995
0.060603
0.054184
0.001075
0.053870
0.057700
0.047363
0.047227
0.002850
0.049848
0.002489
0.050042
0.028480
0.002432
0.029903
0.051154
0.016163
0.051412
0.002202
0.047490
0.006243
0.038075
0.049781
0.020976
0.003506
0.048418
0.054172
0.001978
0.051896
0.050210
0.047002
0.058795
0.008183
0.046415
0.054723
0.054987
0.000888
0.050686
0.053327
0.000977
0.053764
0.053721
0.010546
0.052965
0.001152
0.044396
0.052406
0.052466
0.004286
0.052083
0.034785
0.021848
0.051970
0.052101
0.001135
0.052151
0.002453
0.052097
0.051487
0.001155
0.032932
0.001175
0.051857
0.050837
0.041102
0.001443
0.025365
0.052153
0.050463
0.002086
0.015850
0.005357
0.002768
0.004458
0.049813
0.049603
0.049379
0.048545
0.047916
0.048275
0.048332
0.048461
0.050336
0.051356
0.052413
0.052891
0.052513
0.054575
0.054373
0.056725
0.056035
0.058143
0.059192
0.054901
0.061996
0.059071
0.063124
0.052351
0.054912
0.053278
0.013459
0.003730
0.048580
0.047993
0.013766
0.048602
0.048323
0.050267
0.051059
0.052903
0.003194
0.048820
0.024203
0.047107
0.046838
0.004306
0.005292
0.001769
0.047917
0.057200
0.002117
0.057310
0.047490
0.052225
0.032918
0.049002
0.046820
0.054486
0.050411
0.002519
0.040722
0.049224
0.049402
0.051530
0.002256
0.032983
0.048180
0.002480
0.047642
0.022327
0.018904
0.002526
0.048070
0.027185
0.053137
0.002339
0.002404
0.002981
0.052333
0.002223
0.007891
0.049270
0.049667
0.051021
0.047285
0.047680
0.003867
0.041162
0.025274
0.017984
0.053595
0.014701
0.011543
0.002460
0.007451
0.004767
0.047537
0.047150
0.047049
0.047314
0.047594
0.002161
0.046996
0.048682
0.052963
0.048155
0.050561
0.049771
0.057447
0.060590
0.050580
0.050496
0.050058
0.047216
0.059382
0.055794
0.052818
0.052906
0.051498
0.050591
0.051557
0.011069
0.004197
0.054197
0.051521
0.052625
0.049953
0.056509
0.046838
0.046369
0.048413
0.004265
0.044477
0.025204
0.003716
0.026736
0.049430
0.003332
0.005907
0.043520
0.007257
0.041595
0.003118
0.047644
0.017156
0.046468
0.047126
0.055661
0.003888
0.050086
0.005081
0.050657
0.030880
0.048748
0.048281
0.002573
0.048175
0.050075
0.048067
0.023167
0.047593
0.003641
0.048559
0.047235
0.047995
0.015667
0.046935
0.032266
0.036668
0.050637
0.004708
0.052082
0.013781
0.010559
0.007675
0.007863
0.047835
0.048860
0.003816
0.003894
0.048089
0.004781
0.047595
0.046992
0.044241
0.047709
0.050403
0.049326
0.046989
0.010475
0.056781
0.047296
0.056514
0.051306
0.046524
0.002300
0.048439
0.048572
0.056416
0.035480
0.061035
0.049678
0.059510
0.053182
0.049175
0.054608
0.051398
0.051828
0.050675
0.012129
0.009458
0.049509
0.050467
0.047753
0.054666
0.051056
0.050771
0.052483
0.056911
0.006975
0.005432
0.041760
0.005013
0.045285
0.047278
0.046018
0.015421
0.025593
0.046576
0.048339
0.003090
0.046509
0.048173
0.046170
0.050705
0.050322
0.045023
0.047660
0.005131
0.016344
0.006326
0.051677
0.047538
0.038928
0.010192
0.003511
0.004301
0.012020
0.046604
0.046246
0.003343
0.005998
0.022874
0.047293
0.049828
0.046887
0.036908
0.042459
0.045089
0.053010
0.048569
0.050999
0.046130
0.008973
0.005486
0.047785
0.043922
0.028039
0.047462
0.046988
0.006903
0.035556
0.049561
0.043209
0.050479
0.013407
0.044255
0.004700
0.003753
0.029654
0.044139
0.020310
0.010545
0.048222
0.049068
0.048584
0.017863
0.046256
0.003703
0.046445
0.046358
0.045171
0.003385
0.054906
0.048810
0.062933
0.047099
0.053948
0.050804
0.047719
0.047998
0.050785
0.054719
0.050401
0.049076
0.052044
0.003035
0.049987
0.049475
0.045999
0.049354
0.046618
0.054250
0.050087
0.046037
0.045603
0.047390
0.027619
0.044175
0.004374
0.045023
0.010444
0.037499
0.006972
0.045796
0.003976
0.040878
0.049952
0.005042
0.046315
0.046522
0.048768
0.046919
0.046421
0.002967
0.017287
0.019470
0.004758
0.005277
0.046567
0.047968
0.004059
0.044545
0.047612
0.049873
0.049894
0.044749
0.053442
0.049383
0.028590
0.007613
0.022741
0.041354
0.008088
0.009494
0.045477
0.005532
0.015758
0.003501
0.048708
0.039699
0.044715
0.041644
0.043603
0.012883
0.020437
0.006743
0.006019
0.048018
0.022393
0.047056
0.049307
0.034781
0.040234
0.051441
0.045902
0.046197
0.048853
0.047195
0.052668
0.045682
0.047311
0.050357
0.049996
0.013774
0.005670
0.048362
0.052893
0.046601
0.053659
0.046203
0.046168
0.047974
0.004060
0.004780
0.047441
0.044413
0.049919
0.048773
0.046236
0.051372
0.009162
0.053509
0.043264
0.049115
0.046687
0.033818
0.049325
0.045974
0.049893
0.049633
0.046768
0.045757
0.007433
0.039513
0.006007
0.043090
0.016995
0.009084
0.037121
0.028007
0.010404
0.003804
0.045527
0.045144
0.006641
0.030574
0.045549
0.045430
0.004613
0.038626
0.042736
0.009058
0.045447
0.047006
0.004716
0.049304
0.048217
0.045578
0.046190
0.046427
0.043508
0.045796
0.051157
0.045943
0.046115
0.047445
0.031922
0.045632
0.019562
0.051315
0.021712
0.040814
0.008766
0.049691
0.040339
0.006468
0.002151
0.004790
0.005113
0.045546
0.005881
0.048181
0.005087
0.050477
0.011984
0.011750
0.024788
0.013384
0.004453
0.018644
0.007079
0.049344
0.049009
0.050012
0.049443
0.042575
0.047185
0.047750
0.045475
0.038887
0.006000
0.046267
0.045453
0.003984
0.049300
0.047162
0.033355
0.048922
0.048594
0.045894
0.046383
0.046564
0.052193
0.046609
0.005099
0.048586
0.048916
0.049276
0.008063
0.049619
0.049049
0.047479
0.004352
0.046819
0.045969
0.049505
0.051885
0.008787
0.005337
0.011953
0.004870
0.005829
0.025099
0.003757
0.003876
0.044896
0.020895
0.045494
0.046947
0.006335
0.049010
0.039836
0.033310
0.047711
0.008059
0.005262
0.040097
0.006414
0.014776
0.006862
0.008807
0.046224
0.048221
0.048339
0.045010
0.050423
0.011235
0.044635
0.045426
0.048748
0.048780
0.044326
0.019584
0.042778
0.002951
0.037285
0.045109
0.039144
0.037995
0.043077
0.025120
0.046410
0.045075
0.045323
0.044840
0.007733
0.048532
0.004564
0.009993
0.004996
0.048679
0.015022
0.027855
0.036065
0.045449
0.010179
0.007214
0.003669
0.034517
0.046837
0.007834
0.046452
0.047333
0.048601
0.047763
0.044908
0.042390
0.045608
0.045273
0.045370
0.045687
0.045510
0.010262
0.045443
0.046209
0.035977
0.047222
0.048553
0.048512
0.045703
0.051986
0.049529
0.001014
0.046201
0.043382
0.048303
0.006270
0.049042
0.031142
0.045257
0.005760
0.049173
0.044423
0.009714
0.010968
0.037221
0.042216
0.044526
0.015245
0.030551
0.005706
0.044265
0.025553
0.039271
0.003862
0.044655
0.004413
0.003638
0.047268
0.045707
0.044678
0.003078
0.008343
0.048025
0.048266
0.013118
0.040890
0.040396
0.036094
0.006531
0.045238
0.044935
0.044468
0.044490
0.044893
0.022914
0.002216
0.045640
0.003206
0.035313
0.006446
0.048435
0.013331
0.009052
0.047285
0.048593
0.011540
0.049473
0.018047
0.047507
0.045391
0.004799
0.006735
0.047668
0.005483
0.046301
0.005941
0.006448
0.008392
0.045111
0.030459
0.013685
0.036904
0.047083
0.012265
0.048293
0.047340
0.027542
0.046166
0.044688
0.045107
0.044781
0.046023
0.044881
0.044595
0.048046
0.045302
0.033713
0.047254
0.041800
0.045449
0.047747
0.007399
0.044948
0.048007
0.048024
0.024158
0.005458
0.041979
0.034830
0.037981
0.045231
0.009968
0.036046
0.040657
0.013776
0.029988
0.006206
0.006795
0.036032
0.005052
0.033664
0.003114
0.040983
0.044004
0.044755
0.046621
0.007534
0.045990
0.023374
0.047887
0.044551
0.044592
0.010535
0.044101
0.007573
0.047033
0.023291
0.006832
0.044192
0.045996
0.008012
0.004392
0.041451
0.016655
0.042050
0.044516
0.044416
0.044184
0.044732
0.038487
0.009341
0.007819
0.013779
0.048005
0.005839
0.005223
0.008866
0.046898
0.010120
0.016294
0.040742
0.036718
0.002894
0.032669
0.044488
0.045129
0.012899
0.027822
0.047508
0.047735
0.002451
0.046266
0.045058
0.046012
0.044053
0.007110
0.048025
0.044595
0.045206
0.046609
0.044244
0.047131
0.044518
0.044696
0.044713
0.047284
0.001788
0.045934
0.043771
0.026599
0.047731
0.011902
0.047292
0.032934
0.040962
0.044177
0.001451
0.044214
0.044806
0.047829
0.044981
0.032830
0.005661
0.004321
0.047921
0.005934
0.044057
0.043376
0.010980
0.023571
0.036598
0.028962
0.008292
0.040737
0.035083
0.043857
0.006644
0.005903
0.003777
0.047275
0.005611
0.031330
0.043823
0.004886
0.004254
0.046550
0.039460
0.044306
0.012305
0.043997
0.038608
0.002566
0.013603
0.042714
0.008729
0.009004
0.045966
0.009606
0.043940
0.043695
0.044838
0.043653
0.043633
0.025404
0.020238
0.010451
0.043509
0.001687
0.038405
0.007802
0.015190
0.035268
0.045655
0.043473
0.043526
0.030379
0.007885
0.011358
0.043372
0.007751
0.010364
0.003639
0.014975
0.025562
0.006381
0.015828
0.040359
0.047579
0.046644
0.045784
0.045215
0.002295
0.043870
0.047646
0.047443
0.047213
0.046664
0.044054
0.005107
0.043916
0.010703
0.043902
0.044243
0.021021
0.044352
0.006497
0.043676
0.044120
0.045609
0.047528
0.007803
0.043452
0.039983
0.044667
0.005042
0.018386
0.002207
0.005556
0.046689
0.000611
0.006349
0.042561
0.044930
0.046749
0.047057
0.044388
0.031957
0.003268
0.034098
0.044552
0.039300
0.046937
0.047716
0.001540
0.043585
0.013014
0.011700
0.034943
0.023617
0.027849
0.039043
0.013815
0.008848
0.007282
0.008071
0.042923
0.033712
0.016055
0.031981
0.003197
0.043168
0.037867
0.043324
0.004117
0.016662
0.043746
0.009448
0.010752
0.007501
0.001681
0.002024
0.008889
0.041975
0.012804
0.012182
0.006839
0.034130
0.032807
0.009155
0.037871
0.003186
0.044002
0.027711
0.046866
0.045867
0.011929
0.043877
0.021618
0.046115
0.043262
0.043604
0.043237
0.040906
0.009392
0.007880
0.022661
0.015622
0.004375
0.030095
0.038683
0.047272
0.044489
0.043421
0.047204
0.043737
0.043252
0.043706
0.045536
0.039555
0.009883
0.043293
0.044341
0.002232
0.046182
0.043650
0.043791
0.042718
0.047018
0.046503
0.043220
0.043332
0.043148
0.037633
0.005880
0.010829
0.010758
0.047353
0.045314
0.046401
0.043802
0.005408
0.021065
0.043862
0.030996
0.046336
0.017962
0.046805
0.004934
0.047399
0.004827
0.036855
0.044399
0.046016
0.006199
0.018784
0.006781
0.002504
0.042461
0.043751
0.013381
0.010429
0.033262
0.045659
0.037798
0.030055
0.008482
0.006477
0.006837
0.041438
0.006191
0.036322
0.030189
0.021979
0.005279
0.042520
0.035259
0.018144
0.002051
0.042815
0.014809
0.009811
0.043734
0.015928
0.002334
0.018184
0.012536
0.012622
0.017188
0.027670
0.045331
0.007538
0.044390
0.032214
0.042361
0.009736
0.037356
0.009529
0.025603
0.042918
0.008722
0.013532
0.009048
0.003731
0.011307
0.008921
0.015400
0.042041
0.044736
0.042978
0.043190
0.025316
0.039683
0.003655
0.040767
0.042862
0.045977
0.045159
0.007157
0.046544
0.046189
0.011766
0.019787
0.043001
0.043080
0.043136
0.042754
0.009491
0.042324
0.039363
0.043237
0.046035
0.046984
0.012206
0.043046
0.042613
0.042139
0.030969
0.046575
0.046834
0.005966
0.037060
0.004822
0.033123
0.042775
0.029132
0.042177
0.019297
0.047045
0.043438
0.001600
0.045841
0.043362
0.044827
0.043350
0.044610
0.007437
0.046284
0.042613
0.004324
0.045820
0.047115
0.004524
0.046281
0.045019
0.015025
0.045007
0.023638
0.031544
0.014702
0.036524
0.039734
0.008115
0.009409
0.009871
0.031973
0.004404
0.020176
0.042918
0.010982
0.029402
0.003240
0.003216
0.044002
0.042410
0.006388
0.004524
0.038614
0.002110
0.042851
0.038160
0.004912
0.008210
0.042333
0.042360
0.002292
0.035357
0.043832
0.022979
0.006732
0.006955
0.025646
0.014371
0.009979
0.040657
0.045938
0.008018
0.041327
0.033726
0.016685
0.010337
0.045516
0.040966
0.044474
0.014109
0.008915
0.015024
0.045312
0.028294
0.010127
0.044810
0.042423
0.004107
0.042573
0.042581
0.010763
0.012684
0.010864
0.001635
0.018671
0.027564
0.018158
0.013643
0.044338
0.044352
0.006434
0.045870
0.046357
0.042370
0.042011
0.002740
0.042730
0.043194
0.046774
0.045579
0.046719
0.042836
0.045720
0.042897
0.017538
0.020902
0.003829
0.046667
0.008693
0.045922
0.042381
0.012654
0.005231
0.043397
0.046394
0.042229
0.045568
0.027413
0.041804
0.005788
0.045702
0.046125
0.010419
0.046810
0.043494
0.013167
0.043241
0.041866
0.044341
0.014799
0.016567
0.011729
0.023652
0.045668
0.033934
0.043819
0.042580
0.038759
0.009945
0.041355
0.008123
0.042133
0.008265
0.007395
0.039925
0.041088
0.042340
0.018462
0.003765
0.005618
0.041502
0.027606
0.002428
0.002673
0.041553
0.004403
0.015323
0.004854
0.042418
0.020409
0.024717
0.041539
0.001225
0.004842
0.015478
0.043992
0.042227
0.045390
0.043794
0.040887
0.014530
0.009143
0.010606
0.017129
0.018169
0.021699
0.007188
0.011859
0.011950
0.029619
0.045478
0.045219
0.013699
0.041881
0.006626
0.046247
0.041671
0.038432
0.008166
0.040165
0.043986
0.043855
0.046020
0.046399
0.042067
0.019460
0.045040
0.042106
0.044943
0.011551
0.005172
0.041099
0.044465
0.006332
0.006142
0.029382
0.045372
0.046546
0.036822
0.026366
0.006961
0.001901
0.010640
0.041964
0.012736
0.045023
0.003292
0.002755
0.043626
0.006307
0.010896
0.043622
0.045472
0.045927
0.043376
0.039048
0.001688
0.046449
0.021107
0.032237
0.037045
0.002621
0.009085
0.017061
0.015870
0.040951
0.017005
0.043593
0.012943
0.019726
0.030752
0.017126
0.027813
0.011114
0.035881
0.038772
0.045469
0.012874
0.009920
0.031283
0.009305
0.042831
0.045389
0.014403
0.041314
0.004377
0.007304
0.008739
0.006736
0.041302
0.002096
0.006470
0.020990
0.042871
0.003697
0.005229
0.042803
0.003198
0.007428
0.039800
0.002288
0.001402
0.044311
0.041305
0.008966
0.016214
0.037304
0.032520
0.045104
0.037829
0.034067
0.010809
0.043003
0.013846
0.020040
0.044716
0.042402
0.042042
0.004114
0.041374
0.000973
0.015098
0.011577
0.007514
0.044293
0.041915
0.017003
0.027121
0.043384
0.008299
0.040837
0.021800
0.007608
0.015970
0.041429
0.040868
0.046238
0.035565
0.023082
0.044976
0.039763
0.039513
0.043017
0.045492
0.041939
0.045938
0.042370
0.002791
0.043677
0.005340
0.045357
0.006831
0.041187
0.030897
0.038602
0.044914
0.041793
0.045833
0.044812
0.011269
0.003264
0.026265
0.016284
0.042073
0.006507
0.022277
0.011828
0.022406
0.005576
0.042821
0.046319
0.045712
0.043587
0.044057
0.005977
0.007456
0.044562
0.006318
0.040483
0.001446
0.039404
0.024751
0.012221
0.043166
0.006702
0.044987
0.040640
0.016371
0.026384
0.031186
0.012987
0.037916
0.009925
0.043646
0.009006
0.043510
0.007934
0.035510
0.038342
0.013781
0.007316
0.044742
0.015950
0.044612
0.041352
0.020568
0.002833
0.033205
0.042916
0.007045
0.012786
0.042271
0.042000
0.017142
0.005879
0.040602
0.030124
0.000936
0.045676
0.009734
0.006807
0.003618
0.045253
0.002368
0.005108
0.011972
0.011436
0.001233
0.004484
0.040062
0.040206
0.039736
0.006008
0.019053
0.023286
0.018781
0.019192
0.043990
0.037431
0.027771
0.045044
0.041493
0.016558
0.002686
0.032729
0.041789
0.020429
0.043132
0.007058
0.024255
0.004759
0.008277
0.024753
0.007614
0.014903
0.001532
0.001842
0.022666
0.043057