# vtk DataFile Version 2.0
Test
ASCII
DATASET POLYDATA
POINTS 7341 float
0.000000 0.000000 0.000000
1.000000 0.000000 0.000000
1.000000 1.000000 0.000000
0.000000 1.000000 0.000000
0.000000 0.500000 0.000000
0.500000 0.500000 0.000000
1.000000 0.500000 0.000000
0.499000 0.499000 0.000000
0.900000 0.010000 0.000000
0.029412 0.000000 0.000000
0.058824 0.000000 0.000000
0.088235 0.000000 0.000000
0.117647 0.000000 0.000000
0.147059 0.000000 0.000000
0.176471 0.000000 0.000000
0.205882 0.000000 0.000000
0.235294 0.000000 0.000000
0.264706 0.000000 0.000000
0.294118 0.000000 0.000000
0.323529 0.000000 0.000000
0.352941 0.000000 0.000000
0.382353 0.000000 0.000000
0.411765 0.000000 0.000000
0.441176 0.000000 0.000000
0.470588 0.000000 0.000000
0.500000 0.000000 0.000000
0.529412 0.000000 0.000000
0.558824 0.000000 0.000000
0.588235 0.000000 0.000000
0.617647 0.000000 0.000000
0.647059 0.000000 0.000000
0.676471 0.000000 0.000000
0.705882 0.000000 0.000000
0.735294 0.000000 0.000000
0.764706 0.000000 0.000000
0.794118 0.000000 0.000000
0.823529 0.000000 0.000000
0.852941 0.000000 0.000000
0.882353 0.000000 0.000000
0.911765 0.000000 0.000000
0.941176 0.000000 0.000000
0.970588 0.000000 0.000000
1.000000 0.029412 0.000000
1.000000 0.058824 0.000000
1.000000 0.088235 0.000000
1.000000 0.117647 0.000000
1.000000 0.147059 0.000000
1.000000 0.176471 0.000000
1.000000 0.205882 0.000000
1.000000 0.235294 0.000000
1.000000 0.264706 0.000000
1.000000 0.294118 0.000000
1.000000 0.323529 0.000000
1.000000 0.352941 0.000000
1.000000 0.382353 0.000000
1.000000 0.411765 0.000000
1.000000 0.441176 0.000000
1.000000 0.470588 0.000000
1.000000 0.529412 0.000000
1.000000 0.558824 0.000000
1.000000 0.588235 0.000000
1.000000 0.617647 0.000000
1.000000 0.647059 0.000000
1.000000 0.676471 0.000000
1.000000 0.705882 0.000000
1.000000 0.735294 0.000000
1.000000 0.764706 0.000000
1.000000 0.794118 0.000000
1.000000 0.823529 0.000000
1.000000 0.852941 0.000000
1.000000 0.882353 0.000000
1.000000 0.911765 0.000000
1.000000 0.941176 0.000000
1.000000 0.970588 0.000000
0.970588 1.000000 0.000000
0.941176 1.000000 0.000000
0.911765 1.000000 0.000000
0.882353 1.000000 0.000000
0.852941 1.000000 0.000000
0.823529 1.000000 0.000000
0.794118 1.000000 0.000000
0.764706 1.000000 0.000000
0.735294 1.000000 0.000000
0.705882 1.000000 0.000000
0.676471 1.000000 0.000000
0.647059 1.000000 0.000000
0.617647 1.000000 0.000000
0.588235 1.000000 0.000000
0.558824 1.000000 0.000000
0.529412 1.000000 0.000000
0.500000 1.000000 0.000000
0.470588 1.000000 0.000000
0.441176 1.000000 0.000000
0.411765 1.000000 0.000000
0.382353 1.000000 0.000000
0.352941 1.000000 0.000000
0.323529 1.000000 0.000000
0.294118 1.000000 0.000000
0.264706 1.000000 0.000000
0.235294 1.000000 0.000000
0.205882 1.000000 0.000000
0.176471 1.000000 0.000000
0.147059 1.000000 0.000000
0.117647 1.000000 0.000000
0.088235 1.000000 0.000000
0.058824 1.000000 0.000000
0.029412 1.000000 0.000000
0.000000 0.970588 0.000000
0.000000 0.941176 0.000000
0.000000 0.911765 0.000000
0.000000 0.882353 0.000000
0.000000 0.852941 0.000000
0.000000 0.823529 0.000000
0.000000 0.794118 0.000000
0.000000 0.764706 0.000000
0.000000 0.735294 0.000000
0.000000 0.705882 0.000000
0.000000 0.676471 0.000000
0.000000 0.647059 0.000000
0.000000 0.617647 0.000000
0.000000 0.588235 0.000000
0.000000 0.558824 0.000000
0.000000 0.529412 0.000000
0.007246 0.500000 0.000000
0.014493 0.500000 0.000000
0.021739 0.500000 0.000000
0.028986 0.500000 0.000000
0.036232 0.500000 0.000000
0.043478 0.500000 0.000000
0.050725 0.500000 0.000000
0.057971 0.500000 0.000000
0.065217 0.500000 0.000000
0.072464 0.500000 0.000000
0.079710 0.500000 0.000000
0.086957 0.500000 0.000000
0.094203 0.500000 0.000000
0.101449 0.500000 0.000000
0.108696 0.500000 0.000000
0.115942 0.500000 0.000000
0.123188 0.500000 0.000000
0.130435 0.500000 0.000000
0.137681 0.500000 0.000000
0.144928 0.500000 0.000000
0.152174 0.500000 0.000000
0.159420 0.500000 0.000000
0.166667 0.500000 0.000000
0.173913 0.500000 0.000000
0.181159 0.500000 0.000000
0.188406 0.500000 0.000000
0.195652 0.500000 0.000000
0.202899 0.500000 0.000000
0.210145 0.500000 0.000000
0.217391 0.500000 0.000000
0.224638 0.500000 0.000000
0.231884 0.500000 0.000000
0.239130 0.500000 0.000000
0.246377 0.500000 0.000000
0.253623 0.500000 0.000000
0.260870 0.500000 0.000000
0.268116 0.500000 0.000000
0.275362 0.500000 0.000000
0.282609 0.500000 0.000000
0.289855 0.500000 0.000000
0.297101 0.500000 0.000000
0.304348 0.500000 0.000000
0.311594 0.500000 0.000000
0.318841 0.500000 0.000000
0.326087 0.500000 0.000000
0.333333 0.500000 0.000000
0.340580 0.500000 0.000000
0.347826 0.500000 0.000000
0.355072 0.500000 0.000000
0.362319 0.500000 0.000000
0.369565 0.500000 0.000000
0.376812 0.500000 0.000000
0.384058 0.500000 0.000000
0.391304 0.500000 0.000000
0.398551 0.500000 0.000000
0.405797 0.500000 0.000000
0.413043 0.500000 0.000000
0.420290 0.500000 0.000000
0.427536 0.500000 0.000000
0.434783 0.500000 0.000000
0.442029 0.500000 0.000000
0.449275 0.500000 0.000000
0.456522 0.500000 0.000000
0.463768 0.500000 0.000000
0.471014 0.500000 0.000000
0.478261 0.500000 0.000000
0.485507 0.500000 0.000000
0.492754 0.500000 0.000000
0.510004 0.500000 0.000000
0.520408 0.500000 0.000000
0.531229 0.500000 0.000000
0.542483 0.500000 0.000000
0.554187 0.500000 0.000000
0.566359 0.500000 0.000000
0.579019 0.500000 0.000000
0.592185 0.500000 0.000000
0.605877 0.500000 0.000000
0.620118 0.500000 0.000000
0.634929 0.500000 0.000000
0.650332 0.500000 0.000000
0.666352 0.500000 0.000000
0.683013 0.500000 0.000000
0.700340 0.500000 0.000000
0.718361 0.500000 0.000000
0.737103 0.500000 0.000000
0.756595 0.500000 0.000000
0.776867 0.500000 0.000000
0.797950 0.500000 0.000000
0.819877 0.500000 0.000000
0.842681 0.500000 0.000000
0.866398 0.500000 0.000000
0.891064 0.500000 0.000000
0.916716 0.500000 0.000000
0.943396 0.500000 0.000000
0.971143 0.500000 0.000000
0.000000 0.470588 0.000000
0.000000 0.441176 0.000000
0.000000 0.411765 0.000000
0.000000 0.382353 0.000000
0.000000 0.352941 0.000000
0.000000 0.323529 0.000000
0.000000 0.294118 0.000000
0.000000 0.264706 0.000000
0.000000 0.235294 0.000000
0.000000 0.205882 0.000000
0.000000 0.176471 0.000000
0.000000 0.147059 0.000000
0.000000 0.117647 0.000000
0.000000 0.088235 0.000000
0.000000 0.058824 0.000000
0.000000 0.029412 0.000000
0.500341 0.497365 0.000000
0.501682 0.495729 0.000000
0.503023 0.494094 0.000000
0.504365 0.492458 0.000000
0.505706 0.490823 0.000000
0.507047 0.489187 0.000000
0.508388 0.487552 0.000000
0.509729 0.485916 0.000000
0.511070 0.484281 0.000000
0.512411 0.482645 0.000000
0.513753 0.481010 0.000000
0.515094 0.479375 0.000000
0.516435 0.477739 0.000000
0.517776 0.476104 0.000000
0.519117 0.474468 0.000000
0.520458 0.472833 0.000000
0.521799 0.471197 0.000000
0.523140 0.469562 0.000000
0.524482 0.467926 0.000000
0.525823 0.466291 0.000000
0.527164 0.464656 0.000000
0.528505 0.463020 0.000000
0.529846 0.461385 0.000000
0.531187 0.459749 0.000000
0.532528 0.458114 0.000000
0.533870 0.456478 0.000000
0.535211 0.454843 0.000000
0.536552 0.453207 0.000000
0.537893 0.451572 0.000000
0.539234 0.449936 0.000000
0.540575 0.448301 0.000000
0.541916 0.446666 0.000000
0.543258 0.445030 0.000000
0.544599 0.443395 0.000000
0.545940 0.441759 0.000000
0.547281 0.440124 0.000000
0.548622 0.438488 0.000000
0.549963 0.436853 0.000000
0.551304 0.435217 0.000000
0.552645 0.433582 0.000000
0.553987 0.431946 0.000000
0.555328 0.430311 0.000000
0.556669 0.428676 0.000000
0.558010 0.427040 0.000000
0.559351 0.425405 0.000000
0.560692 0.423769 0.000000
0.562033 0.422134 0.000000
0.563375 0.420498 0.000000
0.564716 0.418863 0.000000
0.566057 0.417227 0.000000
0.567398 0.415592 0.000000
0.568739 0.413957 0.000000
0.570080 0.412321 0.000000
0.571421 0.410686 0.000000
0.572763 0.409050 0.000000
0.574104 0.407415 0.000000
0.575445 0.405779 0.000000
0.576786 0.404144 0.000000
0.578127 0.402508 0.000000
0.579468 0.400873 0.000000
0.580809 0.399237 0.000000
0.582151 0.397602 0.000000
0.583492 0.395967 0.000000
0.584833 0.394331 0.000000
0.586174 0.392696 0.000000
0.587515 0.391060 0.000000
0.588856 0.389425 0.000000
0.590197 0.387789 0.000000
0.591538 0.386154 0.000000
0.592880 0.384518 0.000000
0.594221 0.382883 0.000000
0.595562 0.381247 0.000000
0.596903 0.379612 0.000000
0.598244 0.377977 0.000000
0.599585 0.376341 0.000000
0.600926 0.374706 0.000000
0.602268 0.373070 0.000000
0.603609 0.371435 0.000000
0.604950 0.369799 0.000000
0.606291 0.368164 0.000000
0.607632 0.366528 0.000000
0.608973 0.364893 0.000000
0.610314 0.363258 0.000000
0.611656 0.361622 0.000000
0.612997 0.359987 0.000000
0.614338 0.358351 0.000000
0.615679 0.356716 0.000000
0.617020 0.355080 0.000000
0.618361 0.353445 0.000000
0.619702 0.351809 0.000000
0.621043 0.350174 0.000000
0.622385 0.348538 0.000000
0.623726 0.346903 0.000000
0.625067 0.345268 0.000000
0.626408 0.343632 0.000000
0.627749 0.341997 0.000000
0.629090 0.340361 0.000000
0.630431 0.338726 0.000000
0.631773 0.337090 0.000000
0.633114 0.335455 0.000000
0.634455 0.333819 0.000000
0.635796 0.332184 0.000000
0.637137 0.330548 0.000000
0.638478 0.328913 0.000000
0.639819 0.327278 0.000000
0.641161 0.325642 0.000000
0.642502 0.324007 0.000000
0.643843 0.322371 0.000000
0.645184 0.320736 0.000000
0.646525 0.319100 0.000000
0.647866 0.317465 0.000000
0.649207 0.315829 0.000000
0.650548 0.314194 0.000000
0.651890 0.312559 0.000000
0.653231 0.310923 0.000000
0.654572 0.309288 0.000000
0.655913 0.307652 0.000000
0.657254 0.306017 0.000000
0.658595 0.304381 0.000000
0.659936 0.302746 0.000000
0.661278 0.301110 0.000000
0.662619 0.299475 0.000000
0.663960 0.297839 0.000000
0.665301 0.296204 0.000000
0.666642 0.294569 0.000000
0.667983 0.292933 0.000000
0.669324 0.291298 0.000000
0.670666 0.289662 0.000000
0.672007 0.288027 0.000000
0.673348 0.286391 0.000000
0.674689 0.284756 0.000000
0.676030 0.283120 0.000000
0.677371 0.281485 0.000000
[...]
POINT_DATA 7341
SCALARS UX float 1
LOOKUP_TABLE default
0.000000
0.000000
0.155500
0.155500
0.073129
0.065932
0.062630
0.062390
0.000445
-0.000000
0.000000
0.000000
0.000000
0.000000
0.000000
0.000000
0.000000
0.000000
0.000000
0.000000
0.000000
0.000000
0.000000
0.000000
0.000000
0.000000
0.000000
0.000000
0.000000
0.000000
0.000000
0.000000
0.000000
0.000000
0.000000
0.000000
0.000000
0.000000
0.000000
0.000000
0.000000
-0.000000
0.003176
0.004925
0.006767
0.008841
0.011213
0.013859
0.016808
0.019851
0.023262
0.026877
0.030716
0.034794
0.039104
0.043797
0.049155
0.055120
0.070292
0.077068
0.083343
0.089109
0.094620
0.100031
0.105304
0.110489
0.115623
0.120731
0.125781
0.130794
0.135774
0.140726
0.145665
0.150588
0.155500
0.155500
0.155500
0.155500
0.155500
0.155500
0.155500
0.155500
0.155500
0.155500
0.155500
0.155500
0.155500
0.155500
0.155500
0.155500
0.155500
0.155500
0.155500
0.155500
0.155500
0.155500
0.155500
0.155500
0.155500
0.155500
0.155500
0.155500
0.155500
0.155500
0.155500
0.155500
0.155500
0.150711
0.145921
0.141132
0.136336
0.131538
0.126724
0.121910
0.117080
0.112228
0.107371
0.102461
0.097504
0.092480
0.087370
0.082205
0.077026
0.072325
0.072009
0.070612
0.069715
0.069351
0.069298
0.068783
0.069741
0.067850
0.066046
0.068147
0.067225
0.066982
0.066841
0.066540
0.067504
0.064396
0.065483
0.065839
0.066268
0.066131
0.066317
0.065073
0.065550
0.066398
0.068360
0.067071
0.067514
0.067211
0.066876
0.066452
0.065411
0.064880
0.065145
0.063206
0.063839
0.063972
0.061549
0.063517
0.061363
0.061976
0.059948
0.060766
0.061485
0.059733
0.060404
0.060960
0.061821
0.062741
0.060826
0.065281
0.064467
0.066401
0.065733
0.067980
0.067229
0.069023
0.068787
0.068505
0.068010
0.069653
0.069405
0.069148
0.068219
0.068969
0.067263
0.067921
0.066798
0.063840
0.062323
0.060913
0.060962
0.061005
0.061313
0.061328
0.061372
0.061660
0.061672
0.061678
0.061426
0.061387
0.061340
0.061239
0.061170
0.061090
0.061032
0.060986
0.060998
0.061042
0.061126
0.061254
0.061431
0.061657
0.061943
0.062266
0.054552
0.050107
0.046306
0.042687
0.039299
0.036024
0.032888
0.029884
0.026933
0.024054
0.021227
0.018273
0.015331
0.012571
0.009686
0.006682
0.060236
0.057529
0.056527
0.055456
0.054749
0.054118
0.053385
0.052681
0.051975
0.051323
0.050800
0.050310
0.049875
0.049462
0.049059
0.048703
0.048351
0.048035
0.047722
0.047432
0.047152
0.046873
0.046607
0.046347
0.046090
0.045845
0.045600
0.045357
0.045125
0.044893
0.044676
0.044469
0.044263
0.044060
0.043858
0.043658
0.043460
0.043263
0.043068
0.042874
0.042680
0.042487
0.042295
0.042103
0.041911
0.041720
0.041528
0.041336
0.041144
0.040951
0.040759
0.040565
0.040371
0.040176
0.039980
0.039784
0.039587
0.039389
0.039190
0.038990
0.038789
0.038587
0.038384
0.038180
0.037976
0.037770
0.037563
0.037356
0.037147
0.036938
0.036728
0.036517
0.036306
0.036094
0.035880
0.035666
0.035452
0.035237
0.035021
0.034804
0.034587
0.034369
0.034151
0.033932
0.033713
0.033493
0.033273
0.033052
0.032831
0.032610
0.032388
0.032166
0.031944
0.031722
0.031499
0.031277
0.031054
0.030832
0.030609
0.030386
0.030163
0.029940
0.029718
0.029495
0.029272
0.029050
0.028827
0.028605
0.028383
0.028161
0.027939
0.027718
0.027497
0.027276
0.027056
0.026836
0.026617
0.026398
0.026180
0.025961
0.025744
0.025527
0.025310
0.025094
0.024879
0.024664
0.024449
0.024236
0.024022
0.023810
0.023598
0.023386
0.023175
0.022965
0.022755
0.022546
0.022337
0.022129
0.021922
0.021716
0.021510
0.021304
0.021100
0.020896
0.020692
0.020490
0.020288
0.020087
0.019886
0.019687
0.019488
0.019289
0.019092
0.018895
0.018699
0.018504
0.018310
0.018116
0.017923
0.017731
0.017541
0.017350
0.017161
0.016972
0.016785
0.016598
0.016412
0.016227
0.016043
0.015859
0.015677
0.015496
0.015315
0.015135
0.014956
0.014778
0.014601
0.014425
0.014250
0.014076
0.013902
0.013730
0.013558
0.013387
0.013218
0.013049
0.012881
0.012714
0.012548
0.012383
0.012219
0.012057
0.011894
0.011733
0.011573
0.011414
0.011256
0.011099
0.010943
0.010788
0.010633
0.010480
0.010328
0.010176
0.010026
0.009876
0.009727
0.009580
0.009433
0.009288
0.009144
0.009000
0.008858
0.008717
0.008577
0.008439
0.008301
0.008164
0.008028
0.007893
0.007760
0.007628
0.007496
0.007366
0.007237
0.007109
0.006982
0.006856
0.006731
0.006607
0.006484
0.006362
0.006242
0.006123
0.006004
0.005887
0.005770
0.005655
0.005541
0.005428
0.005316
0.005205
0.005095
0.004987
0.004879
0.004772
0.004667
0.004562
0.004459
0.004357
0.004256
0.004156
0.004057
0.003959
0.003862
0.003767
0.003672
0.003578
0.003486
0.003394
0.003305
0.003215
0.003127
0.003040
0.002954
0.002868
0.002784
0.002701
0.002618
0.002537
0.002457
0.002377
0.002298
0.002220
0.002143
0.002067
0.001992
0.001918
0.001844
0.001771
0.001698
0.001626
0.001555
0.001484
0.001413
0.001343
0.001272
0.001202
0.001131
0.001061
0.000989
0.000918
0.000847
0.000776
0.000705
0.000637
0.000569
0.000508
0.053287
0.052076
0.050791
0.001568
0.001167
0.054838
0.001145
0.054970
0.054330
0.026133
0.055333
0.001249
0.032243
0.057332
0.012877
0.022936
0.054813
0.001085
0.001504
0.051996
0.005961
0.057845
0.055010
0.013921
0.053098
0.045365
0.057496
0.038541
0.054641
0.054511
0.002034
0.053021
0.051632
0.056609
0.053542
0.000729
0.054172
0.002514
0.054954
0.001281
0.052661
0.051221
0.050438
0.058281
0.001412
0.056662
0.001100
0.055598
0.053788
0.060178
0.001035
0.054154
0.007909
0.042251
0.001166
0.054376
0.055376
0.038729
0.054891
0.054860
0.016061
0.019266
0.001249
0.001225
0.052295
0.053651
0.029025
0.048239
0.054943
0.001137
0.054794
0.001132
0.030100
0.001319
0.051102
0.019954
0.001608
0.054857
0.011124
0.002769
0.007228
0.003333
0.004171
0.052646
0.053334
0.053651
0.052474
0.051923
0.051198
0.053718
0.057771
0.057106
0.056220
0.055953
0.055476
0.053818
0.058451
0.056960
0.056886
0.057167
0.055380
0.000936
0.054846
0.059849
0.049322
0.050544
0.002766
0.051147
0.002419
0.051720
0.029279
0.002428
0.031007
0.054265
0.016123
0.052711
0.002151
0.049914
0.005922
0.039109
0.051084
0.021656
0.003375
0.051186
0.055427
0.001809
0.052890
0.050909
0.050121
0.055453
0.009786
0.048655
0.056244
0.055931
0.000774
0.053626
0.051223
0.000915
0.055014
0.055187
0.010285
0.055085
0.001139
0.044676
0.054291
0.055305
0.003991
0.055540
0.035880
0.022131
0.055383
0.055105
0.001128
0.055064
0.002398
0.054903
0.053010
0.001108
0.034070
0.001130
0.054557
0.052346
0.042897
0.001411
0.026304
0.054826
0.051680
0.001586
0.016951
0.004738
0.001657
0.006433
0.050792
0.050824
0.053041
0.052259
0.051528
0.051035
0.051638
0.050209
0.053380
0.053577
0.053409
0.056663
0.054523
0.056529
0.055345
0.057897
0.056572
0.057560
0.056778
0.055826
0.057334
0.055373
0.058386
0.053363
0.056412
0.054387
0.013297
0.003660
0.051233
0.050848
0.013625
0.051086
0.049721
0.051408
0.052555
0.055133
0.003119
0.050498
0.025036
0.049457
0.049128
0.003551
0.004045
0.001592
0.049105
0.054076
0.001989
0.055407
0.048990
0.053257
0.034094
0.051346
0.049908
0.055419
0.051823
0.002512
0.042510
0.051118
0.050889
0.054197
0.002224
0.034146
0.051033
0.002402
0.050138
0.022660
0.019018
0.002442
0.050856
0.028159
0.054446
0.002318
0.002366
0.002908
0.053136
0.002182
0.007586
0.050772
0.050903
0.051725
0.049671
0.050147
0.003507
0.041854
0.025825
0.018767
0.054850
0.015547
0.012622
0.002446
0.008343
0.005543
0.048779
0.049352
0.049694
0.050624
0.050836
0.002078
0.049998
0.048075
0.051082
0.051142
0.051575
0.051639
0.054913
0.056259
0.053204
0.052291
0.051682
0.048924
0.055430
0.055210
0.054001
0.054049
0.052217
0.053574
0.052256
0.010824
0.003885
0.055120
0.052428
0.053986
0.051285
0.057563
0.048113
0.049231
0.049526
0.004159
0.046696
0.025766
0.003700
0.027579
0.051575
0.003272
0.005550
0.045603
0.006944
0.042273
0.003007
0.048855
0.017621
0.048297
0.049766
0.053962
0.003832
0.052418
0.004972
0.052038
0.031890
0.050949
0.050992
0.002489
0.051129
0.051417
0.049302
0.023785
0.050253
0.003628
0.050319
0.047025
0.049063
0.015613
0.049252
0.033364
0.038129
0.051446
0.003576
0.053267
0.014296
0.011259
0.006587
0.007391
0.050644
0.050457
0.003726
0.003812
0.049346
0.004679
0.048924
0.049829
0.046423
0.050798
0.052562
0.051463
0.049389
0.010221
0.053655
0.050514
0.055206
0.052328
0.048010
0.002276
0.050408
0.050429
0.053789
0.036616
0.056615
0.048637
0.055442
0.054573
0.050365
0.056111
0.052483
0.052904
0.051276
0.011926
0.009178
0.051810
0.051114
0.050297
0.054739
0.052042
0.051453
0.053874
0.057971
0.006862
0.005340
0.043747
0.004999
0.047819
0.049179
0.048552
0.015364
0.026091
0.048387
0.050115
0.002944
0.047539
0.049116
0.048780
0.051806
0.051236
0.047503
0.049022
0.005061
0.016289
0.005684
0.053067
0.048904
0.039875
0.009329
0.003481
0.004195
0.011818
0.047911
0.048618
0.003272
0.005678
0.023260
0.049795
0.050401
0.049741
0.038406
0.044417
0.047586
0.053473
0.050368
0.051616
0.048150
0.008684
0.005314
0.049066
0.046058
0.028818
0.048807
0.048292
0.005851
0.036692
0.050153
0.045246
0.052326
0.013211
0.044563
0.004594
0.003732
0.030594
0.046344
0.020741
0.010216
0.049391
0.050171
0.049702
0.017928
0.048247
0.003670
0.049296
0.047987
0.047502
0.003333
0.052995
0.049906
0.058004
0.050368
0.055496
0.051988
0.049928
0.050067
0.051790
0.052429
0.049496
0.050993
0.050568
0.002952
0.050603
0.051691
0.048435
0.049959
0.049218
0.053210
0.050782
0.047251
0.048093
0.048401
0.028378
0.046505
0.004298
0.046365
0.010195
0.038430
0.006661
0.047527
0.003816
0.042762
0.051115
0.005025
0.048645
0.047450
0.049444
0.048004
0.046421
0.002804
0.017327
0.019544
0.004726
0.005223
0.047686
0.048796
0.003949
0.046342
0.049251
0.050764
0.051016
0.047189
0.052123
0.051045
0.029244
0.007476
0.023035
0.043295
0.007787
0.008604
0.048074
0.005452
0.015318
0.003469
0.049252
0.041449
0.046996
0.043615
0.044023
0.012240
0.020662
0.006639
0.005912
0.049041
0.022757
0.048114
0.049916
0.035755
0.042000
0.052633
0.047152
0.048365
0.050658
0.048630
0.051315
0.047147
0.049112
0.051425
0.050538
0.013642
0.005572
0.050107
0.053710
0.049440
0.053287
0.048915
0.048657
0.048939
0.003962
0.004457
0.048972
0.046642
0.050474
0.051369
0.049034
0.052834
0.008882
0.051767
0.045269
0.049692
0.047786
0.035062
0.050438
0.048446
0.050648
0.050275
0.048730
0.046770
0.007352
0.041300
0.005987
0.045343
0.017026
0.008808
0.037871
0.028332
0.010243
0.003626
0.046436
0.046308
0.006581
0.031573
0.045754
0.047726
0.004548
0.040335
0.044872
0.008983
0.047864
0.047985
0.004684
0.050337
0.049186
0.047711
0.047383
0.048606
0.045816
0.047100
0.050272
0.047252
0.047134
0.049163
0.032788
0.048089
0.019741
0.051611
0.021641
0.041541
0.008102
0.050558
0.042159
0.006363
0.002008
0.004470
0.005094
0.046935
0.005562
0.048795
0.005050
0.051260
0.011280
0.011546
0.025329
0.013241
0.004361
0.018390
0.007011
0.050425
0.049582
0.051107
0.050361
0.044608
0.048214
0.048717
0.047299
0.040557
0.005898
0.048042
0.047017
0.003844
0.049965
0.048606
0.034574
0.049508
0.049169
0.048209
0.047566
0.048646
0.051320
0.047974
0.004783
0.050227
0.048467
0.049851
0.007762
0.051289
0.049676
0.049833
0.004300
0.047673
0.046972
0.050249
0.053394
0.008757
0.005286
0.011761
0.004727
0.005515
0.025672
0.003565
0.003570
0.046308
0.020680
0.046365
0.047732
0.006308
0.049597
0.040521
0.034535
0.048386
0.007972
0.005173
0.041916
0.006401
0.014251
0.006818
0.008728
0.047209
0.049171
0.048919
0.046633
0.049885
0.010696
0.045744
0.046395
0.049414
0.049733
0.045576
0.019772
0.044904
0.002773
0.038854
0.046047
0.040904
0.039639
0.043557
0.025283
0.047793
0.047246
0.047361
0.047019
0.007647
0.049712
0.004381
0.009902
0.004881
0.049438
0.014951
0.028642
0.037521
0.047829
0.009930
0.007138
0.003367
0.035206
0.047739
0.007534
0.047414
0.048224
0.049577
0.048351
0.046132
0.044400
0.046653
0.046385
0.047312
0.047571
0.047266
0.009896
0.047649
0.047849
0.037412
0.048559
0.049144
0.049066
0.047073
0.051518
0.050595
0.000936
0.047387
0.045711
0.048873
0.006257
0.049809
0.031677
0.046172
0.005688
0.049746
0.045292
0.009663
0.010940
0.038823
0.044307
0.046202
0.015191
0.030804
0.005568
0.045399
0.026166
0.039832
0.003560
0.045525
0.004217
0.003436
0.048086
0.046525
0.046709
0.002798
0.008318
0.048612
0.048954
0.012894
0.042846
0.042283
0.037592
0.006484
0.046826
0.046877
0.046506
0.044892
0.046238
0.023324
0.002056
0.046527
0.002935
0.036733
0.006429
0.049045
0.013193
0.009008
0.047924
0.049476
0.011531
0.049476
0.017704
0.048234
0.046297
0.004630
0.006427
0.048239
0.005381
0.047813
0.005910
0.006414
0.008307
0.046061
0.031458
0.013255
0.037444
0.047959
0.012264
0.049233
0.048186
0.027639
0.047050
0.046364
0.047200
0.046905
0.047185
0.045845
0.046075
0.047902
0.047214
0.034106
0.048394
0.043845
0.046532
0.048522
0.007399
0.046239
0.048581
0.048601
0.024091
0.005376
0.042496
0.036198
0.039640
0.046037
0.009980
0.037550
0.042496
0.013662
0.030089
0.006115
0.006492
0.036368
0.004851
0.034955
0.002835
0.041447
0.045365
0.045561
0.047417
0.007523
0.046777
0.023271
0.048585
0.045651
0.045433
0.010491
0.045111
0.007565
0.047717
0.023733
0.006764
0.045703
0.046853
0.007993
0.004083
0.043444
0.016674
0.044074
0.046338
0.046365
0.046131
0.045736
0.040189
0.009292
0.007831
0.013861
0.048798
0.005724
0.005034
0.008826
0.047105
0.010070
0.016035
0.042681
0.038277
0.002702
0.033866
0.045412
0.046414
0.012836
0.028613
0.048090
0.048613
0.002207
0.047070
0.046480
0.046836
0.045234
0.007084
0.048654
0.046356
0.046350
0.047354
0.045145
0.047749
0.046082
0.046787
0.046682
0.047744
0.001608
0.046944
0.044277
0.026586
0.048314
0.011715
0.047892
0.034140
0.042906
0.045415
0.001316
0.045918
0.045621
0.048408
0.045779
0.033032
0.005498
0.004114
0.048515
0.005626
0.044843
0.044487
0.010983
0.024037
0.038141
0.029015
0.008280
0.042573
0.035295
0.045055
0.006511
0.005603
0.003482
0.047952
0.005410
0.032422
0.044724
0.004676
0.004036
0.047298
0.041219
0.045123
0.012311
0.045826
0.040310
0.002313
0.013668
0.043232
0.008755
0.008732
0.046719
0.009621
0.045632
0.044549
0.045780
0.045435
0.044710
0.025424
0.020089
0.010458
0.044476
0.001495
0.038833
0.007508
0.015138
0.036708
0.046265
0.045084
0.044987
0.031380
0.007890
0.011359
0.045627
0.007712
0.010379
0.003425
0.015095
0.026178
0.006278
0.015744
0.042178
0.048368
0.047308
0.046512
0.045982
0.002058
0.045406
0.048284
0.048029
0.047813
0.047296
0.044995
0.004798
0.045758
0.010478
0.044963
0.045550
0.021305
0.046209
0.006416
0.045064
0.045498
0.046048
0.048116
0.007792
0.044682
0.041778
0.045461
0.004727
0.018498
0.002035
0.005378
0.047404
0.000546
0.006186
0.044700
0.045701
0.047400
0.047819
0.045148
0.032075
0.002987
0.035433
0.045601
0.041067
0.047554
0.048319
0.001387
0.044332
0.013082
0.011767
0.036343
0.024088
0.027956
0.040657
0.013708
0.008826
0.007181
0.007788
0.044087
0.033876
0.016227
0.033133
0.002923
0.044108
0.039425
0.044726
0.003892
0.016685
0.044803
0.009470
0.010535
0.007428
0.001501
0.001805
0.008908
0.043902
0.012827
0.012194
0.006727
0.035473
0.034034
0.009186
0.039482
0.002976
0.044862
0.028497
0.047560
0.046558
0.011993
0.044868
0.021946
0.046774
0.044288
0.045315
0.044906
0.041347
0.009427
0.007824
0.022641
0.015673
0.004071
0.031079
0.040268
0.047913
0.045225
0.044310
0.047798
0.044641
0.044579
0.045283
0.046287
0.041191
0.009633
0.044462
0.044980
0.002043
0.046863
0.044465
0.045512
0.043724
0.047623
0.047139
0.044699
0.044043
0.044439
0.037941
0.005690
0.010602
0.010766
0.047946
0.046088
0.047050
0.044957
0.005196
0.021348
0.045686
0.031112
0.047027
0.018053
0.047423
0.004634
0.048009
0.004607
0.038399
0.045191
0.046736
0.006020
0.018753
0.006484
0.002256
0.043552
0.044473
0.013512
0.010498
0.034522
0.046316
0.039255
0.030233
0.008420
0.006186
0.006662
0.042362
0.005990
0.037697
0.031188
0.022334
0.005059
0.043969
0.036665
0.018252
0.001830
0.043655
0.014896
0.009571
0.044592
0.016073
0.002131
0.018292
0.012381
0.012690
0.017398
0.028456
0.046086
0.007419
0.045158
0.033388
0.043070
0.009777
0.038804
0.009537
0.026225
0.043917
0.008679
0.013604
0.009065
0.003443
0.011369
0.008654
0.015363
0.043300
0.045449
0.043969
0.044124
0.025447
0.041312
0.003432
0.042491
0.043936
0.046636
0.045825
0.007067
0.047183
0.046841
0.011580
0.019994
0.044407
0.044585
0.044731
0.044300
0.009239
0.043570
0.041003
0.044011
0.046735
0.047581
0.012271
0.044651
0.043811
0.042662
0.032037
0.047197
0.047442
0.005754
0.037331
0.004594
0.033332
0.044075
0.030041
0.043306
0.019471
0.047662
0.044066
0.001413
0.046512
0.044264
0.045588
0.045568
0.045819
0.007329
0.046923
0.043480
0.004028
0.046515
0.047714
0.004295
0.046930
0.045710
0.015172
0.045644
0.024111
0.032656
0.014639
0.037842
0.041252
0.008011
0.009360
0.009639
0.032242
0.004111
0.020410
0.044047
0.011045
0.030335
0.002970
0.002995
0.044707
0.043707
0.006178
0.004287
0.040059
0.001887
0.043789
0.039645
0.004676
0.008130
0.043275
0.043818
0.002083
0.036737
0.044662
0.023090
0.006546
0.006794
0.026271
0.014451
0.009975
0.041109
0.046564
0.007741
0.042030
0.035002
0.016713
0.010396
0.046253
0.041946
0.045125
0.014252
0.008659
0.015124
0.046011
0.029134
0.010163
0.045562
0.044392
0.003875
0.043616
0.043469
0.010553
0.012541
0.010944
0.001445
0.018936
0.027764
0.018268
0.013777
0.045102
0.045026
0.006240
0.046524
0.046980
0.043509
0.043381
0.002530
0.043776
0.044088
0.047372
0.046210
0.047324
0.044258
0.046429
0.044408
0.017726
0.021058
0.003544
0.047290
0.008428
0.046579
0.043751
0.012497
0.005004
0.044620
0.047094
0.043451
0.046255
0.028180
0.042366
0.005568
0.046375
0.046762
0.010480
0.047414
0.044770
0.013295
0.043942
0.042721
0.044975
0.015001
0.016727
0.011835
0.024126
0.046325
0.035191
0.044611
0.043791
0.040160
0.009721
0.042610
0.007854
0.043220
0.008149
0.007226
0.040656
0.042163
0.043362
0.018594
0.003532
0.005391
0.042569
0.028389
0.002186
0.002459
0.042702
0.004161
0.015535
0.004612
0.043873
0.020659
0.024947
0.042787
0.001070
0.004548
0.015624
0.044797
0.043591
0.046003
0.045136
0.042514
0.014675
0.008896
0.010633
0.017305
0.018403
0.022034
0.006901
0.011687
0.012064
0.029879
0.046156
0.045913
0.013594
0.043236
0.006425
0.046866
0.042571
0.039933
0.008073
0.040631
0.044779
0.044514
0.046630
0.047006
0.043349
0.019739
0.045781
0.043099
0.045562
0.011366
0.004938
0.041689
0.045223
0.006117
0.005923
0.030314
0.046095
0.047145
0.038329
0.027048
0.006813
0.001710
0.010701
0.043191
0.012854
0.045742
0.003061
0.002528
0.044309
0.006119
0.010967
0.045701
0.046157
0.046564
0.044243
0.039395
0.001494
0.047058
0.021125
0.033379
0.038396
0.002425
0.009016
0.017114
0.015860
0.041827
0.017239
0.044249
0.013090
0.020001
0.031767
0.017187
0.028612
0.011134
0.037106
0.040110
0.046129
0.012743
0.009863
0.031609
0.009068
0.044149
0.045995
0.014591
0.042937
0.004090
0.007124
0.008635
0.006529
0.042482
0.001875
0.006249
0.021324
0.043569
0.003457
0.004989
0.043553
0.002962
0.007150
0.040323
0.002073
0.001232
0.045070
0.042465
0.008884
0.016455
0.038669
0.033653
0.045803
0.039123
0.035291
0.010608
0.043898
0.013753
0.020268
0.045450
0.044308
0.043183
0.003875
0.042482
0.000843
0.015309
0.011673
0.007357
0.044915
0.042972
0.017172
0.027408
0.044239
0.008040
0.042005
0.022131
0.007475
0.015970
0.042377
0.042023
0.046844
0.036924
0.023382
0.045690
0.040640
0.040282
0.043741
0.046163
0.043229
0.046557
0.043366
0.002531
0.044499
0.005043
0.046043
0.006637
0.042335
0.031960
0.038978
0.046268
0.042829
0.046437
0.045418
0.011327
0.003022
0.026939
0.016450
0.043433
0.006221
0.022654
0.011935
0.022627
0.005343
0.043623
0.046922
0.046347
0.044399
0.044825
0.005749
0.007166
0.045306
0.006170
0.041185
0.001285
0.039793
0.025307
0.012330
0.044804
0.006487
0.047352
0.041694
0.016655
0.027067
0.032206
0.012867
0.039177
0.009708
0.044296
0.008898
0.044320
0.007771
0.036704
0.039042
0.013954
0.007127
0.045343
0.015955
0.045345
0.042884
0.020831
0.002575
0.033576
0.043789
0.006834
0.012923
0.043014
0.042815
0.017448
0.005647
0.041702
0.031109
0.000811
0.046291
0.009664
0.006587
0.003375
0.045907
0.002131
0.004864
0.012061
0.011258
0.001083
0.004235
0.041061
0.041271
0.041168
0.005721
0.019222
0.023671
0.019029
0.019445
0.044757
0.038740
0.028567
0.045742
0.042594
0.016794
0.002454
0.033838
0.042827
0.020742
0.043814
0.006860
0.024619
0.004470
0.008150
0.025309
0.007470
0.014854
0.001351
0.001638
0.023071
0.043937