# vtk DataFile Version 2.0
Test
ASCII
DATASET POLYDATA
POINTS 7341 float
0.000000 0.000000 0.000000
1.000000 0.000000 0.000000
1.000000 1.000000 0.000000
0.000000 1.000000 0.000000
0.000000 0.500000 0.000000
0.500000 0.500000 0.000000
1.000000 0.500000 0.000000
0.499000 0.499000 0.000000
0.900000 0.010000 0.000000
0.029412 0.000000 0.000000
0.058824 0.000000 0.000000
0.088235 0.000000 0.000000
0.117647 0.000000 0.000000
0.147059 0.000000 0.000000
0.176471 0.000000 0.000000
0.205882 0.000000 0.000000
0.235294 0.000000 0.000000
0.264706 0.000000 0.000000
0.294118 0.000000 0.000000
0.323529 0.000000 0.000000
0.352941 0.000000 0.000000
0.382353 0.000000 0.000000
0.411765 0.000000 0.000000
0.441176 0.000000 0.000000
0.470588 0.000000 0.000000
0.500000 0.000000 0.000000
0.529412 0.000000 0.000000
0.558824 0.000000 0.000000
0.588235 0.000000 0.000000
0.617647 0.000000 0.000000
0.647059 0.000000 0.000000
0.676471 0.000000 0.000000
0.705882 0.000000 0.000000
0.735294 0.000000 0.000000
0.764706 0.000000 0.000000
0.794118 0.000000 0.000000
0.823529 0.000000 0.000000
0.852941 0.000000 0.000000
0.882353 0.000000 0.000000
0.911765 0.000000 0.000000
0.941176 0.000000 0.000000
0.970588 0.000000 0.000000
1.000000 0.029412 0.000000
1.000000 0.058824 0.000000
1.000000 0.088235 0.000000
1.000000 0.117647 0.000000
1.000000 0.147059 0.000000
1.000000 0.176471 0.000000
1.000000 0.205882 0.000000
1.000000 0.235294 0.000000
1.000000 0.264706 0.000000
1.000000 0.294118 0.000000
1.000000 0.323529 0.000000
1.000000 0.352941 0.000000
1.000000 0.382353 0.000000
1.000000 0.411765 0.000000
1.000000 0.441176 0.000000
1.000000 0.470588 0.000000
1.000000 0.529412 0.000000
1.000000 0.558824 0.000000
1.000000 0.588235 0.000000
1.000000 0.617647 0.000000
1.000000 0.647059 0.000000
1.000000 0.676471 0.000000
1.000000 0.705882 0.000000
1.000000 0.735294 0.000000
1.000000 0.764706 0.000000
1.000000 0.794118 0.000000
1.000000 0.823529 0.000000
1.000000 0.852941 0.000000
1.000000 0.882353 0.000000
1.000000 0.911765 0.000000
1.000000 0.941176 0.000000
1.000000 0.970588 0.000000
0.970588 1.000000 0.000000
0.941176 1.000000 0.000000
0.911765 1.000000 0.000000
0.882353 1.000000 0.000000
0.852941 1.000000 0.000000
0.823529 1.000000 0.000000
0.794118 1.000000 0.000000
0.764706 1.000000 0.000000
0.735294 1.000000 0.000000
0.705882 1.000000 0.000000
0.676471 1.000000 0.000000
0.647059 1.000000 0.000000
0.617647 1.000000 0.000000
0.588235 1.000000 0.000000
0.558824 1.000000 0.000000
0.529412 1.000000 0.000000
0.500000 1.000000 0.000000
0.470588 1.000000 0.000000
0.441176 1.000000 0.000000
0.411765 1.000000 0.000000
0.382353 1.000000 0.000000
0.352941 1.000000 0.000000
0.323529 1.000000 0.000000
0.294118 1.000000 0.000000
0.264706 1.000000 0.000000
0.235294 1.000000 0.000000
0.205882 1.000000 0.000000
0.176471 1.000000 0.000000
0.147059 1.000000 0.000000
0.117647 1.000000 0.000000
0.088235 1.000000 0.000000
0.058824 1.000000 0.000000
0.029412 1.000000 0.000000
0.000000 0.970588 0.000000
0.000000 0.941176 0.000000
0.000000 0.911765 0.000000
0.000000 0.882353 0.000000
0.000000 0.852941 0.000000
0.000000 0.823529 0.000000
0.000000 0.794118 0.000000
0.000000 0.764706 0.000000
0.000000 0.735294 0.000000
0.000000 0.705882 0.000000
0.000000 0.676471 0.000000
0.000000 0.647059 0.000000
0.000000 0.617647 0.000000
0.000000 0.588235 0.000000
0.000000 0.558824 0.000000
0.000000 0.529412 0.000000
0.007246 0.500000 0.000000
0.014493 0.500000 0.000000
0.021739 0.500000 0.000000
0.028986 0.500000 0.000000
0.036232 0.500000 0.000000
0.043478 0.500000 0.000000
0.050725 0.500000 0.000000
0.057971 0.500000 0.000000
0.065217 0.500000 0.000000
0.072464 0.500000 0.000000
0.079710 0.500000 0.000000
0.086957 0.500000 0.000000
0.094203 0.500000 0.000000
0.101449 0.500000 0.000000
0.108696 0.500000 0.000000
0.115942 0.500000 0.000000
0.123188 0.500000 0.000000
0.130435 0.500000 0.000000
0.137681 0.500000 0.000000
0.144928 0.500000 0.000000
0.152174 0.500000 0.000000
0.159420 0.500000 0.000000
0.166667 0.500000 0.000000
0.173913 0.500000 0.000000
0.181159 0.500000 0.000000
0.188406 0.500000 0.000000
0.195652 0.500000 0.000000
0.202899 0.500000 0.000000
0.210145 0.500000 0.000000
0.217391 0.500000 0.000000
0.224638 0.500000 0.000000
0.231884 0.500000 0.000000
0.239130 0.500000 0.000000
0.246377 0.500000 0.000000
0.253623 0.500000 0.000000
0.260870 0.500000 0.000000
0.268116 0.500000 0.000000
0.275362 0.500000 0.000000
0.282609 0.500000 0.000000
0.289855 0.500000 0.000000
0.297101 0.500000 0.000000
0.304348 0.500000 0.000000
0.311594 0.500000 0.000000
0.318841 0.500000 0.000000
0.326087 0.500000 0.000000
0.333333 0.500000 0.000000
0.340580 0.500000 0.000000
0.347826 0.500000 0.000000
0.355072 0.500000 0.000000
0.362319 0.500000 0.000000
0.369565 0.500000 0.000000
0.376812 0.500000 0.000000
0.384058 0.500000 0.000000
0.391304 0.500000 0.000000
0.398551 0.500000 0.000000
0.405797 0.500000 0.000000
0.413043 0.500000 0.000000
0.420290 0.500000 0.000000
0.427536 0.500000 0.000000
0.434783 0.500000 0.000000
0.442029 0.500000 0.000000
0.449275 0.500000 0.000000
0.456522 0.500000 0.000000
0.463768 0.500000 0.000000
0.471014 0.500000 0.000000
0.478261 0.500000 0.000000
0.485507 0.500000 0.000000
0.492754 0.500000 0.000000
0.510004 0.500000 0.000000
0.520408 0.500000 0.000000
0.531229 0.500000 0.000000
0.542483 0.500000 0.000000
0.554187 0.500000 0.000000
0.566359 0.500000 0.000000
0.579019 0.500000 0.000000
0.592185 0.500000 0.000000
0.605877 0.500000 0.000000
0.620118 0.500000 0.000000
0.634929 0.500000 0.000000
0.650332 0.500000 0.000000
0.666352 0.500000 0.000000
0.683013 0.500000 0.000000
0.700340 0.500000 0.000000
0.718361 0.500000 0.000000
0.737103 0.500000 0.000000
0.756595 0.500000 0.000000
0.776867 0.500000 0.000000
0.797950 0.500000 0.000000
0.819877 0.500000 0.000000
0.842681 0.500000 0.000000
0.866398 0.500000 0.000000
0.891064 0.500000 0.000000
0.916716 0.500000 0.000000
0.943396 0.500000 0.000000
0.971143 0.500000 0.000000
0.000000 0.470588 0.000000
0.000000 0.441176 0.000000
0.000000 0.411765 0.000000
0.000000 0.382353 0.000000
0.000000 0.352941 0.000000
0.000000 0.323529 0.000000
0.000000 0.294118 0.000000
0.000000 0.264706 0.000000
0.000000 0.235294 0.000000
0.000000 0.205882 0.000000
0.000000 0.176471 0.000000
0.000000 0.147059 0.000000
0.000000 0.117647 0.000000
0.000000 0.088235 0.000000
0.000000 0.058824 0.000000
0.000000 0.029412 0.000000
0.500341 0.497365 0.000000
0.501682 0.495729 0.000000
0.503023 0.494094 0.000000
0.504365 0.492458 0.000000
0.505706 0.490823 0.000000
0.507047 0.489187 0.000000
0.508388 0.487552 0.000000
0.509729 0.485916 0.000000
0.511070 0.484281 0.000000
0.512411 0.482645 0.000000
0.513753 0.481010 0.000000
0.515094 0.479375 0.000000
0.516435 0.477739 0.000000
0.517776 0.476104 0.000000
0.519117 0.474468 0.000000
0.520458 0.472833 0.000000
0.521799 0.471197 0.000000
0.523140 0.469562 0.000000
0.524482 0.467926 0.000000
0.525823 0.466291 0.000000
0.527164 0.464656 0.000000
0.528505 0.463020 0.000000
0.529846 0.461385 0.000000
0.531187 0.459749 0.000000
0.532528 0.458114 0.000000
0.533870 0.456478 0.000000
0.535211 0.454843 0.000000
0.536552 0.453207 0.000000
0.537893 0.451572 0.000000
0.539234 0.449936 0.000000
0.540575 0.448301 0.000000
0.541916 0.446666 0.000000
0.543258 0.445030 0.000000
0.544599 0.443395 0.000000
0.545940 0.441759 0.000000
0.547281 0.440124 0.000000
0.548622 0.438488 0.000000
0.549963 0.436853 0.000000
0.551304 0.435217 0.000000
0.552645 0.433582 0.000000
0.553987 0.431946 0.000000
0.555328 0.430311 0.000000
0.556669 0.428676 0.000000
0.558010 0.427040 0.000000
0.559351 0.425405 0.000000
0.560692 0.423769 0.000000
0.562033 0.422134 0.000000
0.563375 0.420498 0.000000
0.564716 0.418863 0.000000
0.566057 0.417227 0.000000
0.567398 0.415592 0.000000
0.568739 0.413957 0.000000
0.570080 0.412321 0.000000
0.571421 0.410686 0.000000
0.572763 0.409050 0.000000
0.574104 0.407415 0.000000
0.575445 0.405779 0.000000
0.576786 0.404144 0.000000
0.578127 0.402508 0.000000
0.579468 0.400873 0.000000
0.580809 0.399237 0.000000
0.582151 0.397602 0.000000
0.583492 0.395967 0.000000
0.584833 0.394331 0.000000
0.586174 0.392696 0.000000
0.587515 0.391060 0.000000
0.588856 0.389425 0.000000
0.590197 0.387789 0.000000
0.591538 0.386154 0.000000
0.592880 0.384518 0.000000
0.594221 0.382883 0.000000
0.595562 0.381247 0.000000
0.596903 0.379612 0.000000
0.598244 0.377977 0.000000
0.599585 0.376341 0.000000
0.600926 0.374706 0.000000
0.602268 0.373070 0.000000
0.603609 0.371435 0.000000
0.604950 0.369799 0.000000
0.606291 0.368164 0.000000
0.607632 0.366528 0.000000
0.608973 0.364893 0.000000
0.610314 0.363258 0.000000
0.611656 0.361622 0.000000
0.612997 0.359987 0.000000
0.614338 0.358351 0.000000
0.615679 0.356716 0.000000
0.617020 0.355080 0.000000
0.618361 0.353445 0.000000
0.619702 0.351809 0.000000
0.621043 0.350174 0.000000
0.622385 0.348538 0.000000
0.623726 0.346903 0.000000
0.625067 0.345268 0.000000
0.626408 0.343632 0.000000
0.627749 0.341997 0.000000
0.629090 0.340361 0.000000
0.630431 0.338726 0.000000
0.631773 0.337090 0.000000
0.633114 0.335455 0.000000
0.634455 0.333819 0.000000
0.635796 0.332184 0.000000
0.637137 0.330548 0.000000
0.638478 0.328913 0.000000
0.639819 0.327278 0.000000
0.641161 0.325642 0.000000
0.642502 0.324007 0.000000
0.643843 0.322371 0.000000
0.645184 0.320736 0.000000
0.646525 0.319100 0.000000
0.647866 0.317465 0.000000
0.649207 0.315829 0.000000
0.650548 0.314194 0.000000
0.651890 0.312559 0.000000
0.653231 0.310923 0.000000
0.654572 0.309288 0.000000
0.655913 0.307652 0.000000
0.657254 0.306017 0.000000
0.658595 0.304381 0.000000
0.659936 0.302746 0.000000
0.661278 0.301110 0.000000
0.662619 0.299475 0.000000
0.663960 0.297839 0.000000
0.665301 0.296204 0.000000
0.666642 0.294569 0.000000
0.667983 0.292933 0.000000
0.669324 0.291298 0.000000
0.670666 0.289662 0.000000
0.672007 0.288027 0.000000
0.673348 0.286391 0.000000
0.674689 0.284756 0.000000
0.676030 0.283120 0.000000
0.677371 0.281485 0.000000
[...]
POINT_DATA 7341
SCALARS UX float 1
LOOKUP_TABLE default
0.000000
0.000000
0.125500
0.125500
0.062240
0.054657
0.052499
0.050746
0.000486
-0.000000
0.000000
0.000000
0.000000
0.000000
0.000000
0.000000
0.000000
0.000000
0.000000
0.000000
0.000000
0.000000
0.000000
0.000000
0.000000
0.000000
0.000000
0.000000
0.000000
0.000000
0.000000
0.000000
0.000000
0.000000
0.000000
0.000000
0.000000
0.000000
0.000000
0.000000
0.000000
-0.000000
0.003161
0.004828
0.006514
0.008369
0.010453
0.012729
0.015216
0.017761
0.020562
0.023506
0.026618
0.029919
0.033415
0.037239
0.041618
0.046488
0.058708
0.064223
0.069312
0.073921
0.078279
0.082536
0.086644
0.090655
0.094617
0.098556
0.102449
0.106319
0.110173
0.114014
0.117849
0.121677
0.125500
0.125500
0.125500
0.125500
0.125500
0.125500
0.125500
0.125500
0.125500
0.125500
0.125500
0.125500
0.125500
0.125500
0.125500
0.125500
0.125500
0.125500
0.125500
0.125500
0.125500
0.125500
0.125500
0.125500
0.125500
0.125500
0.125500
0.125500
0.125500
0.125500
0.125500
0.125500
0.125500
0.121823
0.118148
0.114473
0.110795
0.107117
0.103432
0.099747
0.096056
0.092353
0.088650
0.084911
0.081137
0.077310
0.073408
0.069455
0.065462
0.061600
0.061346
0.060348
0.059698
0.059544
0.059637
0.059192
0.059838
0.058728
0.057248
0.058242
0.057278
0.056686
0.056777
0.056444
0.057429
0.054554
0.055594
0.055925
0.056293
0.056163
0.056328
0.055074
0.055470
0.056169
0.057914
0.056342
0.056785
0.057497
0.057876
0.058169
0.057350
0.057018
0.057032
0.055093
0.055516
0.055590
0.053299
0.055106
0.053330
0.053975
0.052282
0.053181
0.053887
0.052313
0.052975
0.053439
0.053969
0.054457
0.052233
0.055286
0.054163
0.055361
0.054128
0.055630
0.054283
0.055598
0.054734
0.053911
0.053055
0.054976
0.054430
0.053942
0.052758
0.054246
0.052505
0.054102
0.054114
0.053315
0.052290
0.051714
0.051469
0.051381
0.051229
0.051105
0.050969
0.050802
0.050669
0.050533
0.050387
0.050376
0.050377
0.050391
0.050440
0.050502
0.050561
0.050636
0.050734
0.050852
0.050994
0.051164
0.051365
0.051598
0.051873
0.052174
0.045999
0.042311
0.039182
0.036230
0.033477
0.030834
0.028327
0.025945
0.023657
0.021456
0.019223
0.016895
0.014380
0.012000
0.009264
0.006317
0.048742
0.046065
0.044986
0.044065
0.043565
0.043016
0.042644
0.042329
0.042036
0.041774
0.041573
0.041385
0.041189
0.041047
0.040824
0.040577
0.040351
0.040144
0.039989
0.039791
0.039590
0.039388
0.039194
0.039008
0.038829
0.038655
0.038484
0.038300
0.038121
0.037944
0.037769
0.037598
0.037428
0.037259
0.037091
0.036925
0.036758
0.036592
0.036426
0.036260
0.036094
0.035929
0.035763
0.035598
0.035431
0.035265
0.035099
0.034933
0.034767
0.034600
0.034433
0.034266
0.034099
0.033932
0.033764
0.033597
0.033428
0.033260
0.033091
0.032922
0.032753
0.032583
0.032413
0.032242
0.032071
0.031900
0.031728
0.031556
0.031384
0.031211
0.031038
0.030864
0.030691
0.030516
0.030342
0.030167
0.029992
0.029816
0.029640
0.029464
0.029288
0.029111
0.028934
0.028756
0.028579
0.028401
0.028223
0.028045
0.027867
0.027688
0.027509
0.027330
0.027151
0.026972
0.026793
0.026614
0.026434
0.026255
0.026075
0.025895
0.025716
0.025536
0.025357
0.025177
0.024998
0.024818
0.024639
0.024460
0.024280
0.024101
0.023922
0.023744
0.023565
0.023387
0.023208
0.023030
0.022853
0.022675
0.022498
0.022321
0.022144
0.021967
0.021791
0.021615
0.021440
0.021265
0.021090
0.020915
0.020741
0.020567
0.020394
0.020221
0.020048
0.019876
0.019704
0.019533
0.019362
0.019192
0.019022
0.018852
0.018683
0.018515
0.018347
0.018179
0.018012
0.017846
0.017680
0.017515
0.017350
0.017185
0.017022
0.016859
0.016696
0.016534
0.016372
0.016211
0.016051
0.015892
0.015732
0.015574
0.015416
0.015259
0.015103
0.014947
0.014793
0.014639
0.014486
0.014333
0.014180
0.014028
0.013877
0.013727
0.013577
0.013428
0.013279
0.013131
0.012984
0.012837
0.012690
0.012545
0.012400
0.012256
0.012112
0.011969
0.011827
0.011685
0.011545
0.011404
0.011265
0.011126
0.010988
0.010851
0.010714
0.010578
0.010443
0.010309
0.010175
0.010042
0.009910
0.009778
0.009648
0.009518
0.009389
0.009260
0.009132
0.009005
0.008879
0.008754
0.008629
0.008505
0.008382
0.008260
0.008139
0.008018
0.007898
0.007780
0.007661
0.007544
0.007428
0.007312
0.007197
0.007083
0.006970
0.006857
0.006746
0.006635
0.006525
0.006416
0.006308
0.006200
0.006094
0.005988
0.005883
0.005779
0.005676
0.005573
0.005471
0.005371
0.005271
0.005171
0.005073
0.004976
0.004879
0.004783
0.004688
0.004594
0.004500
0.004408
0.004316
0.004225
0.004136
0.004047
0.003958
0.003871
0.003784
0.003698
0.003613
0.003529
0.003445
0.003362
0.003281
0.003199
0.003119
0.003040
0.002960
0.002882
0.002804
0.002728
0.002651
0.002576
0.002500
0.002426
0.002352
0.002278
0.002205
0.002133
0.002061
0.001990
0.001919
0.001848
0.001778
0.001707
0.001637
0.001567
0.001497
0.001426
0.001355
0.001284
0.001212
0.001140
0.001066
0.000992
0.000918
0.000843
0.000769
0.000696
0.000622
0.000555
0.044078
0.043565
0.042338
0.001554
0.001164
0.045845
0.001086
0.045599
0.045965
0.022858
0.045623
0.001060
0.027818
0.048239
0.011868
0.020546
0.045677
0.000959
0.001624
0.042056
0.005787
0.048932
0.045949
0.013190
0.042326
0.038405
0.048772
0.032910
0.045912
0.042572
0.002040
0.044181
0.043175
0.047641
0.044499
0.000776
0.044384
0.002549
0.043120
0.001278
0.043992
0.042771
0.041792
0.049051
0.001484
0.045108
0.001178
0.043493
0.045382
0.051029
0.001045
0.044810
0.007536
0.035872
0.000983
0.045627
0.045720
0.033014
0.045385
0.045661
0.014568
0.017234
0.001068
0.001081
0.041917
0.042574
0.025274
0.040832
0.046265
0.001105
0.045893
0.001116
0.026074
0.001312
0.041925
0.018155
0.001610
0.046237
0.010622
0.002667
0.006897
0.003130
0.003874
0.044030
0.044248
0.044121
0.043916
0.043423
0.042743
0.044290
0.048615
0.048035
0.047349
0.047193
0.046863
0.045455
0.049506
0.048363
0.048379
0.048676
0.043477
0.001011
0.043895
0.047938
0.041021
0.042086
0.002740
0.040972
0.002359
0.043186
0.025365
0.002143
0.026838
0.045712
0.014586
0.041906
0.001928
0.041877
0.005748
0.033316
0.042736
0.019474
0.003323
0.042428
0.043552
0.001831
0.042244
0.042213
0.041729
0.046950
0.009350
0.041137
0.044408
0.045725
0.000842
0.045239
0.043231
0.000861
0.045792
0.043646
0.009632
0.045894
0.000956
0.037840
0.042838
0.045836
0.003980
0.045795
0.030719
0.019599
0.045704
0.045678
0.001033
0.045727
0.002301
0.045803
0.042350
0.001103
0.029288
0.001128
0.045777
0.042102
0.036464
0.001399
0.023153
0.046121
0.042120
0.001647
0.015744
0.004630
0.001734
0.006171
0.041923
0.042278
0.044113
0.043538
0.043000
0.042582
0.043164
0.041806
0.044049
0.044042
0.044769
0.047671
0.046110
0.047545
0.044381
0.046665
0.047573
0.048492
0.048124
0.045406
0.048537
0.046847
0.049403
0.042817
0.044421
0.043088
0.012201
0.003503
0.042623
0.042098
0.012453
0.042386
0.040483
0.042819
0.041583
0.046378
0.003072
0.040610
0.022149
0.041644
0.041486
0.003590
0.004020
0.001650
0.040486
0.045661
0.001904
0.046736
0.040694
0.042346
0.029287
0.042537
0.041545
0.046601
0.041370
0.002182
0.036101
0.042618
0.042532
0.045638
0.001918
0.029306
0.042225
0.002364
0.041900
0.019992
0.016994
0.002423
0.042200
0.024592
0.042827
0.002124
0.002224
0.002874
0.043014
0.001909
0.007234
0.040741
0.040819
0.041800
0.041751
0.041989
0.003483
0.035545
0.022563
0.017150
0.043043
0.014485
0.011926
0.002205
0.007983
0.005359
0.040364
0.041047
0.041349
0.042131
0.042251
0.001919
0.041632
0.040614
0.043112
0.042426
0.042862
0.042904
0.046383
0.047509
0.044921
0.044138
0.043402
0.040666
0.046851
0.046432
0.042521
0.042681
0.042291
0.045176
0.043087
0.010078
0.003889
0.044453
0.042088
0.042436
0.041058
0.046759
0.039737
0.040993
0.040231
0.004086
0.039114
0.022477
0.003349
0.024128
0.043558
0.002907
0.005421
0.038419
0.006651
0.035882
0.002787
0.040949
0.016128
0.040160
0.041417
0.045456
0.003622
0.044240
0.004852
0.041446
0.027434
0.042371
0.042234
0.002463
0.042294
0.041113
0.040011
0.021122
0.041794
0.003235
0.040519
0.039751
0.041116
0.014126
0.041537
0.028697
0.032534
0.041569
0.003615
0.042077
0.013314
0.010643
0.006386
0.007108
0.041980
0.040564
0.003627
0.003683
0.040462
0.004582
0.040583
0.041476
0.038953
0.042196
0.044395
0.042655
0.041082
0.009529
0.045282
0.042016
0.046481
0.041854
0.039876
0.001963
0.041997
0.042145
0.045410
0.031304
0.047820
0.041090
0.046818
0.045909
0.040703
0.043896
0.041759
0.041965
0.041890
0.011006
0.008645
0.043768
0.041545
0.041946
0.046032
0.041805
0.042371
0.042400
0.047459
0.006634
0.005153
0.036690
0.004500
0.039702
0.041089
0.040221
0.013892
0.022926
0.040385
0.042338
0.002781
0.040020
0.041124
0.040602
0.041483
0.041410
0.039549
0.039843
0.004814
0.014938
0.005582
0.044696
0.040961
0.033930
0.008866
0.003195
0.004113
0.010895
0.039679
0.040449
0.002938
0.005518
0.020448
0.041443
0.041665
0.041392
0.032711
0.037580
0.039457
0.044992
0.042261
0.042308
0.040122
0.008195
0.005177
0.039874
0.038721
0.024951
0.039782
0.039722
0.005746
0.031357
0.041275
0.038197
0.044134
0.012308
0.037748
0.004505
0.003312
0.026504
0.038768
0.018671
0.009671
0.040100
0.040709
0.040425
0.016059
0.040129
0.003409
0.041046
0.039888
0.039648
0.002942
0.044673
0.040566
0.049049
0.041940
0.043218
0.041538
0.041557
0.041690
0.041571
0.044243
0.041767
0.043033
0.042673
0.002688
0.041363
0.043667
0.040115
0.041521
0.041001
0.044764
0.041252
0.039097
0.040096
0.039743
0.024559
0.038565
0.003857
0.039069
0.009489
0.032750
0.006386
0.039545
0.003584
0.036024
0.043144
0.004496
0.040591
0.039933
0.041229
0.039395
0.039261
0.002691
0.015533
0.017645
0.004343
0.004916
0.039219
0.040860
0.003622
0.038744
0.041509
0.041130
0.041092
0.039250
0.043895
0.043121
0.025428
0.007199
0.020480
0.036392
0.007497
0.008229
0.039871
0.005219
0.014071
0.003061
0.041005
0.035090
0.039195
0.036532
0.037308
0.011431
0.018316
0.006432
0.005749
0.040171
0.020002
0.039484
0.041103
0.030598
0.035635
0.041831
0.039091
0.040235
0.042649
0.039742
0.043254
0.039207
0.041128
0.041372
0.041518
0.012441
0.005395
0.042367
0.043760
0.041163
0.044821
0.040717
0.040493
0.040155
0.003871
0.004414
0.040982
0.038706
0.041674
0.042539
0.040827
0.041841
0.008349
0.043656
0.038328
0.041088
0.039267
0.030010
0.040834
0.040411
0.041186
0.041223
0.040711
0.038714
0.007050
0.034668
0.005393
0.037772
0.015258
0.008269
0.032288
0.024693
0.009705
0.003445
0.039225
0.038493
0.006225
0.027132
0.038723
0.039759
0.004063
0.033997
0.037450
0.008589
0.039900
0.039577
0.004177
0.040893
0.040312
0.039723
0.039116
0.040582
0.038109
0.039099
0.042384
0.039692
0.038916
0.041286
0.028234
0.040112
0.017524
0.043484
0.019319
0.035280
0.007799
0.042123
0.035603
0.006177
0.001954
0.004416
0.004632
0.039458
0.005403
0.040737
0.004701
0.042442
0.010587
0.010639
0.022087
0.012081
0.003954
0.016648
0.006671
0.040862
0.041141
0.041203
0.040955
0.037293
0.039586
0.040038
0.039378
0.034415
0.005719
0.040231
0.039132
0.003574
0.041007
0.041066
0.029574
0.040956
0.040825
0.040253
0.039173
0.040625
0.043223
0.039788
0.004714
0.042477
0.040919
0.041279
0.007368
0.042823
0.040924
0.041475
0.003825
0.040061
0.038826
0.040994
0.042201
0.008229
0.004725
0.010807
0.004372
0.005350
0.022334
0.003418
0.003586
0.038577
0.018517
0.039145
0.040093
0.005822
0.041896
0.034437
0.029503
0.040499
0.007664
0.004670
0.035122
0.005742
0.013150
0.006389
0.008363
0.038998
0.040351
0.040581
0.038852
0.042065
0.010090
0.038668
0.039189
0.040596
0.040675
0.038461
0.017518
0.037453
0.002693
0.032920
0.038278
0.034404
0.033492
0.036923
0.022259
0.040296
0.039496
0.039639
0.039272
0.007347
0.042038
0.004128
0.009408
0.004467
0.041284
0.013524
0.024736
0.031894
0.039855
0.009241
0.006824
0.003402
0.030152
0.039461
0.007152
0.039185
0.039821
0.040586
0.040398
0.038399
0.037092
0.038653
0.038518
0.039399
0.039828
0.039614
0.009396
0.039686
0.040146
0.031856
0.041082
0.040622
0.040848
0.039118
0.043378
0.041032
0.000917
0.039842
0.038042
0.040634
0.005662
0.040750
0.027346
0.038357
0.005102
0.041259
0.037799
0.009187
0.010360
0.032692
0.036934
0.038791
0.013706
0.026651
0.005118
0.037879
0.022705
0.033865
0.003570
0.038555
0.004004
0.003321
0.040690
0.039257
0.038973
0.002857
0.007774
0.040351
0.040371
0.012006
0.035803
0.035383
0.031792
0.005816
0.039304
0.039073
0.038859
0.038020
0.038510
0.020431
0.002028
0.038603
0.002984
0.031156
0.005871
0.040494
0.012020
0.008534
0.040150
0.040588
0.010871
0.041752
0.016054
0.040437
0.038437
0.004323
0.006166
0.040252
0.004885
0.040205
0.005290
0.005970
0.007978
0.038970
0.026999
0.012301
0.031937
0.039639
0.011495
0.040436
0.039818
0.024134
0.038970
0.038658
0.039489
0.039212
0.039876
0.038154
0.038417
0.040466
0.039548
0.029271
0.040961
0.036576
0.038594
0.040652
0.006662
0.038495
0.040456
0.040405
0.021288
0.004835
0.036044
0.030770
0.033306
0.038312
0.009273
0.031642
0.035498
0.012398
0.026091
0.005523
0.006213
0.031074
0.004577
0.029687
0.002888
0.035173
0.037880
0.038560
0.039318
0.006908
0.039391
0.020626
0.040148
0.038045
0.037895
0.009961
0.038182
0.006795
0.040050
0.020737
0.006080
0.038148
0.039667
0.007425
0.004051
0.036266
0.014942
0.036740
0.038868
0.038837
0.038601
0.038090
0.033727
0.008825
0.007091
0.012899
0.040233
0.005225
0.004720
0.008338
0.039836
0.009574
0.014660
0.035682
0.032299
0.002654
0.028863
0.038452
0.039082
0.011971
0.024681
0.040111
0.040079
0.002284
0.039062
0.039075
0.038867
0.037768
0.006355
0.040254
0.038662
0.039105
0.039816
0.037699
0.040022
0.038713
0.039051
0.038936
0.040378
0.001671
0.039724
0.037510
0.023296
0.040184
0.010751
0.040044
0.029138
0.035843
0.037901
0.001345
0.038559
0.038027
0.040309
0.038707
0.028424
0.005092
0.003932
0.040246
0.005439
0.037510
0.037238
0.010309
0.020958
0.032097
0.025255
0.007425
0.035542
0.030234
0.037958
0.005956
0.005406
0.003491
0.039739
0.005078
0.027667
0.037873
0.004437
0.003882
0.039274
0.034514
0.038186
0.011567
0.038305
0.033817
0.002387
0.012755
0.036638
0.007875
0.008189
0.039355
0.008899
0.038124
0.037299
0.038698
0.038053
0.037850
0.022381
0.018031
0.009775
0.037678
0.001577
0.033050
0.007114
0.013642
0.031010
0.039170
0.037907
0.037863
0.026897
0.007199
0.010675
0.037934
0.006921
0.009668
0.003331
0.013926
0.022688
0.005695
0.014429
0.035259
0.039963
0.039746
0.038710
0.038300
0.002140
0.037933
0.039991
0.040046
0.039951
0.039679
0.037598
0.004693
0.038352
0.009690
0.037923
0.038007
0.018759
0.038750
0.005779
0.037663
0.038279
0.038978
0.039983
0.007191
0.037374
0.034949
0.038477
0.004640
0.016479
0.002032
0.005010
0.039833
0.000574
0.005710
0.037273
0.038636
0.039792
0.039615
0.037725
0.027685
0.003028
0.030034
0.038008
0.034402
0.039861
0.040083
0.001434
0.037167
0.012155
0.010853
0.030661
0.020976
0.024438
0.034080
0.012419
0.007912
0.006506
0.007349
0.037186
0.029136
0.014927
0.028203
0.002961
0.037351
0.033112
0.037417
0.003764
0.014933
0.037465
0.008708
0.009723
0.006690
0.001573
0.001889
0.007988
0.036624
0.012029
0.011442
0.006121
0.029993
0.028882
0.008340
0.033151
0.002926
0.038005
0.024557
0.039473
0.038779
0.011098
0.037512
0.019258
0.039291
0.037506
0.038051
0.037682
0.035085
0.008502
0.007033
0.020126
0.014388
0.004033
0.026619
0.033778
0.039729
0.037789
0.037129
0.039819
0.037707
0.037557
0.037850
0.038528
0.034491
0.008967
0.037216
0.038093
0.002068
0.039403
0.037246
0.038050
0.036915
0.039785
0.039517
0.037633
0.037266
0.037196
0.032336
0.005311
0.009810
0.010081
0.039829
0.038923
0.039490
0.038018
0.004905
0.018821
0.038218
0.026951
0.039123
0.016089
0.039703
0.004534
0.039818
0.004392
0.032297
0.038230
0.039341
0.005587
0.016937
0.006195
0.002330
0.036561
0.037274
0.012375
0.009447
0.029216
0.038639
0.032980
0.026286
0.007573
0.005917
0.006156
0.035846
0.005598
0.031748
0.026650
0.019554
0.004796
0.037037
0.030908
0.016543
0.001914
0.036672
0.013817
0.008888
0.037748
0.014818
0.002166
0.016265
0.011295
0.011779
0.015881
0.024494
0.038910
0.006751
0.038196
0.028338
0.036443
0.008775
0.032612
0.008540
0.022700
0.037182
0.007788
0.012637
0.008298
0.003446
0.010456
0.008107
0.013813
0.036558
0.037961
0.036879
0.036995
0.022425
0.034580
0.003352
0.035546
0.037189
0.039159
0.038268
0.006383
0.039238
0.039011
0.010621
0.017660
0.037185
0.037338
0.037480
0.037200
0.008610
0.036774
0.034348
0.036936
0.039323
0.039615
0.011375
0.037522
0.036736
0.036154
0.027299
0.039490
0.039614
0.005405
0.031866
0.004394
0.028749
0.036928
0.025752
0.036576
0.017250
0.039563
0.037317
0.001497
0.039102
0.037475
0.038529
0.037866
0.038674
0.006655
0.039324
0.036744
0.003984
0.039143
0.039651
0.004129
0.039375
0.038163
0.013951
0.038166
0.020973
0.027736
0.013188
0.031850
0.034605
0.007259
0.008401
0.008934
0.027919
0.004054
0.017978
0.037261
0.010117
0.025941
0.003000
0.002960
0.037446
0.036658
0.005781
0.004134
0.033629
0.001968
0.037066
0.033286
0.004481
0.007330
0.036383
0.036866
0.002130
0.030962
0.037789
0.020512
0.006071
0.006255
0.022711
0.013410
0.008926
0.034886
0.038820
0.007296
0.035597
0.029579
0.014937
0.009444
0.039005
0.035525
0.037785
0.013088
0.008091
0.014015
0.038747
0.025000
0.009098
0.038498
0.036988
0.003760
0.036912
0.036531
0.009725
0.011415
0.009880
0.001531
0.017194
0.024316
0.016226
0.012643
0.038133
0.037693
0.005810
0.039025
0.039302
0.036521
0.036566
0.002530
0.036733
0.037311
0.039410
0.038569
0.039484
0.037082
0.039094
0.037221
0.016130
0.018860
0.003534
0.039313
0.007897
0.039090
0.036893
0.011410
0.004759
0.037689
0.039595
0.036465
0.038918
0.024248
0.035895
0.005252
0.038973
0.039171
0.009406
0.039416
0.037439
0.012144
0.036914
0.035991
0.037705
0.013606
0.015349
0.010622
0.020963
0.038852
0.029727
0.037700
0.037001
0.033738
0.008993
0.035958
0.007383
0.036550
0.007401
0.006655
0.034523
0.035687
0.036693
0.016472
0.003455
0.005104
0.035834
0.024383
0.002260
0.002473
0.035914
0.004029
0.014140
0.004432
0.036857
0.018557
0.022049
0.036141
0.001148
0.004449
0.014369
0.037892
0.036601
0.038448
0.038044
0.035635
0.013491
0.008287
0.009504
0.015866
0.016774
0.019291
0.006554
0.010687
0.010858
0.026034
0.038782
0.038651
0.012307
0.036403
0.005987
0.039182
0.035872
0.033492
0.007297
0.034494
0.037865
0.037355
0.038876
0.039235
0.036397
0.017827
0.038662
0.036245
0.038133
0.010422
0.004711
0.035335
0.038216
0.005736
0.005568
0.025901
0.038863
0.039233
0.032244
0.023315
0.006251
0.001774
0.009756
0.036272
0.011713
0.038558
0.003033
0.002551
0.037185
0.005691
0.009806
0.038026
0.038823
0.038998
0.037435
0.033502
0.001580
0.039163
0.018896
0.028294
0.032287
0.002416
0.008113
0.015252
0.014212
0.035321
0.015694
0.037187
0.011705
0.018110
0.027014
0.015293
0.024541
0.009941
0.031266
0.033734
0.038683
0.011573
0.008856
0.027436
0.008426
0.037226
0.038463
0.013209
0.035988
0.004028
0.006581
0.007818
0.006091
0.035743
0.001956
0.005863
0.019166
0.036658
0.003398
0.004766
0.036617
0.002952
0.006763
0.034250
0.002128
0.001315
0.038058
0.035732
0.008011
0.014961
0.032498
0.028504
0.038546
0.032920
0.029809
0.009758
0.037140
0.012426
0.017842
0.038342
0.036934
0.036496
0.003770
0.035758
0.000912
0.013910
0.010442
0.006754
0.037689
0.036343
0.015741
0.024056
0.037422
0.007534
0.035477
0.019799
0.006822
0.014286
0.035719
0.035541
0.039086
0.031113
0.020799
0.038497
0.034515
0.034238
0.036760
0.038760
0.036318
0.038933
0.036702
0.002592
0.037632
0.004898
0.038716
0.006166
0.035810
0.027210
0.033180
0.039021
0.036037
0.038753
0.038061
0.010113
0.003013
0.023205
0.015087
0.036501
0.005939
0.019773
0.010787
0.020157
0.005071
0.036655
0.039077
0.038816
0.037529
0.037873
0.005426
0.006799
0.038243
0.005672
0.034931
0.001356
0.033825
0.021910
0.011198
0.037559
0.006067
0.039248
0.035176
0.015005
0.023290
0.027353
0.011662
0.032983
0.008969
0.037246
0.008062
0.037454
0.007136
0.030955
0.033281
0.012604
0.006598
0.038039
0.014258
0.038236
0.036008
0.018286
0.002629
0.029007
0.037028
0.006372
0.011527
0.036233
0.036067
0.015750
0.005342
0.035165
0.026499
0.000877
0.038724
0.008692
0.006165
0.003330
0.038509
0.002205
0.004660
0.010758
0.010305
0.001161
0.004105
0.034826
0.034950
0.034592
0.005492
0.016971
0.021082
0.017272
0.017640
0.037803
0.032589
0.024485
0.038477
0.035996
0.015285
0.002491
0.028652
0.036221
0.018709
0.036851
0.006374
0.021830
0.004371
0.007420
0.021893
0.006836
0.013354
0.001435
0.001722
0.020096
0.037167