# vtk DataFile Version 2.0
Test
ASCII
DATASET POLYDATA
POINTS 7341 float
0.000000 0.000000 0.000000
1.000000 0.000000 0.000000
1.000000 1.000000 0.000000
0.000000 1.000000 0.000000
0.000000 0.500000 0.000000
0.500000 0.500000 0.000000
1.000000 0.500000 0.000000
0.499000 0.499000 0.000000
0.900000 0.010000 0.000000
0.029412 0.000000 0.000000
0.058824 0.000000 0.000000
0.088235 0.000000 0.000000
0.117647 0.000000 0.000000
0.147059 0.000000 0.000000
0.176471 0.000000 0.000000
0.205882 0.000000 0.000000
0.235294 0.000000 0.000000
0.264706 0.000000 0.000000
0.294118 0.000000 0.000000
0.323529 0.000000 0.000000
0.352941 0.000000 0.000000
0.382353 0.000000 0.000000
0.411765 0.000000 0.000000
0.441176 0.000000 0.000000
0.470588 0.000000 0.000000
0.500000 0.000000 0.000000
0.529412 0.000000 0.000000
0.558824 0.000000 0.000000
0.588235 0.000000 0.000000
0.617647 0.000000 0.000000
0.647059 0.000000 0.000000
0.676471 0.000000 0.000000
0.705882 0.000000 0.000000
0.735294 0.000000 0.000000
0.764706 0.000000 0.000000
0.794118 0.000000 0.000000
0.823529 0.000000 0.000000
0.852941 0.000000 0.000000
0.882353 0.000000 0.000000
0.911765 0.000000 0.000000
0.941176 0.000000 0.000000
0.970588 0.000000 0.000000
1.000000 0.029412 0.000000
1.000000 0.058824 0.000000
1.000000 0.088235 0.000000
1.000000 0.117647 0.000000
1.000000 0.147059 0.000000
1.000000 0.176471 0.000000
1.000000 0.205882 0.000000
1.000000 0.235294 0.000000
1.000000 0.264706 0.000000
1.000000 0.294118 0.000000
1.000000 0.323529 0.000000
1.000000 0.352941 0.000000
1.000000 0.382353 0.000000
1.000000 0.411765 0.000000
1.000000 0.441176 0.000000
1.000000 0.470588 0.000000
1.000000 0.529412 0.000000
1.000000 0.558824 0.000000
1.000000 0.588235 0.000000
1.000000 0.617647 0.000000
1.000000 0.647059 0.000000
1.000000 0.676471 0.000000
1.000000 0.705882 0.000000
1.000000 0.735294 0.000000
1.000000 0.764706 0.000000
1.000000 0.794118 0.000000
1.000000 0.823529 0.000000
1.000000 0.852941 0.000000
1.000000 0.882353 0.000000
1.000000 0.911765 0.000000
1.000000 0.941176 0.000000
1.000000 0.970588 0.000000
0.970588 1.000000 0.000000
0.941176 1.000000 0.000000
0.911765 1.000000 0.000000
0.882353 1.000000 0.000000
0.852941 1.000000 0.000000
0.823529 1.000000 0.000000
0.794118 1.000000 0.000000
0.764706 1.000000 0.000000
0.735294 1.000000 0.000000
0.705882 1.000000 0.000000
0.676471 1.000000 0.000000
0.647059 1.000000 0.000000
0.617647 1.000000 0.000000
0.588235 1.000000 0.000000
0.558824 1.000000 0.000000
0.529412 1.000000 0.000000
0.500000 1.000000 0.000000
0.470588 1.000000 0.000000
0.441176 1.000000 0.000000
0.411765 1.000000 0.000000
0.382353 1.000000 0.000000
0.352941 1.000000 0.000000
0.323529 1.000000 0.000000
0.294118 1.000000 0.000000
0.264706 1.000000 0.000000
0.235294 1.000000 0.000000
0.205882 1.000000 0.000000
0.176471 1.000000 0.000000
0.147059 1.000000 0.000000
0.117647 1.000000 0.000000
0.088235 1.000000 0.000000
0.058824 1.000000 0.000000
0.029412 1.000000 0.000000
0.000000 0.970588 0.000000
0.000000 0.941176 0.000000
0.000000 0.911765 0.000000
0.000000 0.882353 0.000000
0.000000 0.852941 0.000000
0.000000 0.823529 0.000000
0.000000 0.794118 0.000000
0.000000 0.764706 0.000000
0.000000 0.735294 0.000000
0.000000 0.705882 0.000000
0.000000 0.676471 0.000000
0.000000 0.647059 0.000000
0.000000 0.617647 0.000000
0.000000 0.588235 0.000000
0.000000 0.558824 0.000000
0.000000 0.529412 0.000000
0.007246 0.500000 0.000000
0.014493 0.500000 0.000000
0.021739 0.500000 0.000000
0.028986 0.500000 0.000000
0.036232 0.500000 0.000000
0.043478 0.500000 0.000000
0.050725 0.500000 0.000000
0.057971 0.500000 0.000000
0.065217 0.500000 0.000000
0.072464 0.500000 0.000000
0.079710 0.500000 0.000000
0.086957 0.500000 0.000000
0.094203 0.500000 0.000000
0.101449 0.500000 0.000000
0.108696 0.500000 0.000000
0.115942 0.500000 0.000000
0.123188 0.500000 0.000000
0.130435 0.500000 0.000000
0.137681 0.500000 0.000000
0.144928 0.500000 0.000000
0.152174 0.500000 0.000000
0.159420 0.500000 0.000000
0.166667 0.500000 0.000000
0.173913 0.500000 0.000000
0.181159 0.500000 0.000000
0.188406 0.500000 0.000000
0.195652 0.500000 0.000000
0.202899 0.500000 0.000000
0.210145 0.500000 0.000000
0.217391 0.500000 0.000000
0.224638 0.500000 0.000000
0.231884 0.500000 0.000000
0.239130 0.500000 0.000000
0.246377 0.500000 0.000000
0.253623 0.500000 0.000000
0.260870 0.500000 0.000000
0.268116 0.500000 0.000000
0.275362 0.500000 0.000000
0.282609 0.500000 0.000000
0.289855 0.500000 0.000000
0.297101 0.500000 0.000000
0.304348 0.500000 0.000000
0.311594 0.500000 0.000000
0.318841 0.500000 0.000000
0.326087 0.500000 0.000000
0.333333 0.500000 0.000000
0.340580 0.500000 0.000000
0.347826 0.500000 0.000000
0.355072 0.500000 0.000000
0.362319 0.500000 0.000000
0.369565 0.500000 0.000000
0.376812 0.500000 0.000000
0.384058 0.500000 0.000000
0.391304 0.500000 0.000000
0.398551 0.500000 0.000000
0.405797 0.500000 0.000000
0.413043 0.500000 0.000000
0.420290 0.500000 0.000000
0.427536 0.500000 0.000000
0.434783 0.500000 0.000000
0.442029 0.500000 0.000000
0.449275 0.500000 0.000000
0.456522 0.500000 0.000000
0.463768 0.500000 0.000000
0.471014 0.500000 0.000000
0.478261 0.500000 0.000000
0.485507 0.500000 0.000000
0.492754 0.500000 0.000000
0.510004 0.500000 0.000000
0.520408 0.500000 0.000000
0.531229 0.500000 0.000000
0.542483 0.500000 0.000000
0.554187 0.500000 0.000000
0.566359 0.500000 0.000000
0.579019 0.500000 0.000000
0.592185 0.500000 0.000000
0.605877 0.500000 0.000000
0.620118 0.500000 0.000000
0.634929 0.500000 0.000000
0.650332 0.500000 0.000000
0.666352 0.500000 0.000000
0.683013 0.500000 0.000000
0.700340 0.500000 0.000000
0.718361 0.500000 0.000000
0.737103 0.500000 0.000000
0.756595 0.500000 0.000000
0.776867 0.500000 0.000000
0.797950 0.500000 0.000000
0.819877 0.500000 0.000000
0.842681 0.500000 0.000000
0.866398 0.500000 0.000000
0.891064 0.500000 0.000000
0.916716 0.500000 0.000000
0.943396 0.500000 0.000000
0.971143 0.500000 0.000000
0.000000 0.470588 0.000000
0.000000 0.441176 0.000000
0.000000 0.411765 0.000000
0.000000 0.382353 0.000000
0.000000 0.352941 0.000000
0.000000 0.323529 0.000000
0.000000 0.294118 0.000000
0.000000 0.264706 0.000000
0.000000 0.235294 0.000000
0.000000 0.205882 0.000000
0.000000 0.176471 0.000000
0.000000 0.147059 0.000000
0.000000 0.117647 0.000000
0.000000 0.088235 0.000000
0.000000 0.058824 0.000000
0.000000 0.029412 0.000000
0.500341 0.497365 0.000000
0.501682 0.495729 0.000000
0.503023 0.494094 0.000000
0.504365 0.492458 0.000000
0.505706 0.490823 0.000000
0.507047 0.489187 0.000000
0.508388 0.487552 0.000000
0.509729 0.485916 0.000000
0.511070 0.484281 0.000000
0.512411 0.482645 0.000000
0.513753 0.481010 0.000000
0.515094 0.479375 0.000000
0.516435 0.477739 0.000000
0.517776 0.476104 0.000000
0.519117 0.474468 0.000000
0.520458 0.472833 0.000000
0.521799 0.471197 0.000000
0.523140 0.469562 0.000000
0.524482 0.467926 0.000000
0.525823 0.466291 0.000000
0.527164 0.464656 0.000000
0.528505 0.463020 0.000000
0.529846 0.461385 0.000000
0.531187 0.459749 0.000000
0.532528 0.458114 0.000000
0.533870 0.456478 0.000000
0.535211 0.454843 0.000000
0.536552 0.453207 0.000000
0.537893 0.451572 0.000000
0.539234 0.449936 0.000000
0.540575 0.448301 0.000000
0.541916 0.446666 0.000000
0.543258 0.445030 0.000000
0.544599 0.443395 0.000000
0.545940 0.441759 0.000000
0.547281 0.440124 0.000000
0.548622 0.438488 0.000000
0.549963 0.436853 0.000000
0.551304 0.435217 0.000000
0.552645 0.433582 0.000000
0.553987 0.431946 0.000000
0.555328 0.430311 0.000000
0.556669 0.428676 0.000000
0.558010 0.427040 0.000000
0.559351 0.425405 0.000000
0.560692 0.423769 0.000000
0.562033 0.422134 0.000000
0.563375 0.420498 0.000000
0.564716 0.418863 0.000000
0.566057 0.417227 0.000000
0.567398 0.415592 0.000000
0.568739 0.413957 0.000000
0.570080 0.412321 0.000000
0.571421 0.410686 0.000000
0.572763 0.409050 0.000000
0.574104 0.407415 0.000000
0.575445 0.405779 0.000000
0.576786 0.404144 0.000000
0.578127 0.402508 0.000000
0.579468 0.400873 0.000000
0.580809 0.399237 0.000000
0.582151 0.397602 0.000000
0.583492 0.395967 0.000000
0.584833 0.394331 0.000000
0.586174 0.392696 0.000000
0.587515 0.391060 0.000000
0.588856 0.389425 0.000000
0.590197 0.387789 0.000000
0.591538 0.386154 0.000000
0.592880 0.384518 0.000000
0.594221 0.382883 0.000000
0.595562 0.381247 0.000000
0.596903 0.379612 0.000000
0.598244 0.377977 0.000000
0.599585 0.376341 0.000000
0.600926 0.374706 0.000000
0.602268 0.373070 0.000000
0.603609 0.371435 0.000000
0.604950 0.369799 0.000000
0.606291 0.368164 0.000000
0.607632 0.366528 0.000000
0.608973 0.364893 0.000000
0.610314 0.363258 0.000000
0.611656 0.361622 0.000000
0.612997 0.359987 0.000000
0.614338 0.358351 0.000000
0.615679 0.356716 0.000000
0.617020 0.355080 0.000000
0.618361 0.353445 0.000000
0.619702 0.351809 0.000000
0.621043 0.350174 0.000000
0.622385 0.348538 0.000000
0.623726 0.346903 0.000000
0.625067 0.345268 0.000000
0.626408 0.343632 0.000000
0.627749 0.341997 0.000000
0.629090 0.340361 0.000000
0.630431 0.338726 0.000000
0.631773 0.337090 0.000000
0.633114 0.335455 0.000000
0.634455 0.333819 0.000000
0.635796 0.332184 0.000000
0.637137 0.330548 0.000000
0.638478 0.328913 0.000000
0.639819 0.327278 0.000000
0.641161 0.325642 0.000000
0.642502 0.324007 0.000000
0.643843 0.322371 0.000000
0.645184 0.320736 0.000000
0.646525 0.319100 0.000000
0.647866 0.317465 0.000000
0.649207 0.315829 0.000000
0.650548 0.314194 0.000000
0.651890 0.312559 0.000000
0.653231 0.310923 0.000000
0.654572 0.309288 0.000000
0.655913 0.307652 0.000000
0.657254 0.306017 0.000000
0.658595 0.304381 0.000000
0.659936 0.302746 0.000000
0.661278 0.301110 0.000000
0.662619 0.299475 0.000000
0.663960 0.297839 0.000000
0.665301 0.296204 0.000000
0.666642 0.294569 0.000000
0.667983 0.292933 0.000000
0.669324 0.291298 0.000000
0.670666 0.289662 0.000000
0.672007 0.288027 0.000000
0.673348 0.286391 0.000000
0.674689 0.284756 0.000000
0.676030 0.283120 0.000000
0.677371 0.281485 0.000000
[...]
POINT_DATA 7341
SCALARS UX float 1
LOOKUP_TABLE default
0.000000
0.000000
0.193000
0.193000
0.095915
0.115570
0.124978
0.113017
0.001146
-0.000000
0.000000
0.000000
0.000000
0.000000
0.000000
0.000000
0.000000
0.000000
0.000000
0.000000
0.000000
0.000000
0.000000
0.000000
0.000000
0.000000
0.000000
0.000000
0.000000
0.000000
0.000000
0.000000
0.000000
0.000000
0.000000
0.000000
0.000000
0.000000
0.000000
0.000000
0.000000
-0.000000
0.004880
0.008652
0.013047
0.018035
0.023854
0.030324
0.037378
0.044503
0.051948
0.059423
0.066836
0.074320
0.082119
0.090641
0.100822
0.112111
0.131248
0.135744
0.139976
0.144056
0.147992
0.151868
0.155681
0.159451
0.163194
0.166927
0.170658
0.174384
0.178108
0.181829
0.185550
0.189276
0.193000
0.193000
0.193000
0.193000
0.193000
0.193000
0.193000
0.193000
0.193000
0.193000
0.193000
0.193000
0.193000
0.193000
0.193000
0.193000
0.193000
0.193000
0.193000
0.193000
0.193000
0.193000
0.193000
0.193000
0.193000
0.193000
0.193000
0.193000
0.193000
0.193000
0.193000
0.193000
0.193000
0.188627
0.184258
0.179887
0.175522
0.171158
0.166794
0.162432
0.158073
0.153705
0.149346
0.144954
0.140527
0.136018
0.131318
0.126510
0.120555
0.095808
0.095714
0.095980
0.095777
0.097096
0.096879
0.096839
0.100809
0.100741
0.100687
0.100682
0.100729
0.100759
0.101216
0.101114
0.103010
0.102902
0.106981
0.106924
0.106931
0.106959
0.106988
0.106896
0.106838
0.106784
0.106643
0.106549
0.106524
0.106515
0.106516
0.106507
0.106417
0.106327
0.106240
0.106165
0.106117
0.105999
0.105937
0.105930
0.105908
0.105895
0.105916
0.106049
0.106187
0.106232
0.106240
0.104105
0.105121
0.105301
0.105417
0.111442
0.111662
0.111943
0.112183
0.112429
0.112616
0.112840
0.113061
0.113313
0.113580
0.114204
0.114437
0.114657
0.114900
0.115171
0.115300
0.115496
0.115594
0.115495
0.115364
0.115272
0.115239
0.115242
0.115177
0.115132
0.115103
0.115076
0.115049
0.115039
0.115023
0.115024
0.115066
0.115096
0.115169
0.115248
0.115357
0.115482
0.115634
0.114222
0.114429
0.114703
0.115683
0.117098
0.119163
0.121800
0.084518
0.080163
0.075826
0.071661
0.067438
0.063103
0.058505
0.053403
0.047463
0.040782
0.033729
0.026693
0.020540
0.015482
0.011185
0.006993
0.108856
0.104724
0.101792
0.098934
0.097027
0.095169
0.093747
0.092563
0.091441
0.090449
0.089599
0.088821
0.088163
0.087564
0.086991
0.086480
0.085983
0.085551
0.085142
0.084774
0.084437
0.084112
0.083820
0.083549
0.083294
0.083059
0.082837
0.082624
0.082424
0.082230
0.082041
0.081859
0.081681
0.081506
0.081333
0.081163
0.080993
0.080825
0.080658
0.080491
0.080324
0.080157
0.079989
0.079820
0.079650
0.079479
0.079307
0.079133
0.078957
0.078780
0.078600
0.078419
0.078235
0.078048
0.077859
0.077666
0.077471
0.077273
0.077071
0.076867
0.076659
0.076447
0.076230
0.076011
0.075787
0.075559
0.075326
0.075088
0.074846
0.074599
0.074346
0.074089
0.073826
0.073559
0.073286
0.073009
0.072726
0.072438
0.072145
0.071847
0.071544
0.071237
0.070925
0.070608
0.070287
0.069962
0.069634
0.069301
0.068966
0.068628
0.068287
0.067945
0.067602
0.067257
0.066912
0.066567
0.066222
0.065877
0.065531
0.065186
0.064841
0.064497
0.064155
0.063815
0.063475
0.063134
0.062792
0.062446
0.062093
0.061740
0.061389
0.061043
0.060699
0.060371
0.060038
0.059702
0.059369
0.059043
0.058685
0.058359
0.058026
0.057697
0.057379
0.057047
0.056712
0.056386
0.056056
0.055701
0.055329
0.054985
0.054602
0.054250
0.053884
0.053534
0.053170
0.052811
0.052450
0.052080
0.051703
0.051335
0.050958
0.050582
0.050178
0.049786
0.049391
0.048992
0.048586
0.048182
0.047775
0.047373
0.046969
0.046565
0.046160
0.045756
0.045351
0.044944
0.044537
0.044129
0.043718
0.043304
0.042886
0.042469
0.042053
0.041637
0.041224
0.040810
0.040396
0.039982
0.039567
0.039146
0.038723
0.038299
0.037876
0.037453
0.037031
0.036611
0.036191
0.035771
0.035353
0.034935
0.034519
0.034102
0.033688
0.033274
0.032862
0.032452
0.032043
0.031635
0.031230
0.030826
0.030425
0.030024
0.029626
0.029229
0.028835
0.028443
0.028053
0.027665
0.027279
0.026896
0.026516
0.026138
0.025761
0.025387
0.025016
0.024647
0.024281
0.023918
0.023557
0.023199
0.022844
0.022492
0.022142
0.021795
0.021451
0.021110
0.020771
0.020434
0.020100
0.019769
0.019441
0.019116
0.018793
0.018473
0.018156
0.017841
0.017528
0.017218
0.016911
0.016607
0.016304
0.016004
0.015707
0.015412
0.015121
0.014832
0.014545
0.014261
0.013979
0.013699
0.013422
0.013147
0.012874
0.012605
0.012338
0.012073
0.011812
0.011553
0.011295
0.011041
0.010791
0.010541
0.010294
0.010051
0.009808
0.009570
0.009335
0.009102
0.008870
0.008641
0.008416
0.008191
0.007969
0.007752
0.007535
0.007320
0.007108
0.006899
0.006690
0.006485
0.006281
0.006080
0.005880
0.005682
0.005486
0.005292
0.005100
0.004911
0.004724
0.004539
0.004356
0.004174
0.003994
0.003815
0.003636
0.003459
0.003281
0.003104
0.002926
0.002749
0.002570
0.002392
0.002213
0.002033
0.001854
0.001675
0.001496
0.001322
0.091385
0.092670
0.092208
0.003540
0.003124
0.102061
0.003053
0.103863
0.091811
0.058622
0.102679
0.002966
0.058100
0.092850
0.028849
0.040306
0.101174
0.002838
0.003939
0.091893
0.012152
0.092465
0.101635
0.019654
0.091984
0.074795
0.092209
0.081611
0.104347
0.092832
0.004403
0.090878
0.091934
0.092191
0.091609
0.002188
0.098867
0.004284
0.095907
0.003281
0.092309
0.091711
0.091729
0.092401
0.002892
0.102232
0.002674
0.096914
0.084369
0.092715
0.003013
0.098851
0.016799
0.071198
0.002877
0.100108
0.101992
0.066940
0.102842
0.103318
0.036594
0.043948
0.003009
0.003047
0.091119
0.092671
0.052804
0.099558
0.109040
0.003083
0.101832
0.003083
0.066261
0.003262
0.091605
0.033003
0.003591
0.111787
0.014636
0.004852
0.009535
0.004979
0.004938
0.092015
0.091215
0.091509
0.091682
0.092416
0.091506
0.091439
0.092967
0.092482
0.091933
0.091713
0.091506
0.091576
0.092493
0.091961
0.091757
0.091574
0.097938
0.002541
0.097738
0.108130
0.086626
0.086525
0.006728
0.087797
0.006291
0.087433
0.065215
0.005875
0.056813
0.088167
0.037413
0.090852
0.005445
0.093622
0.012834
0.067515
0.091139
0.039380
0.007264
0.086831
0.097589
0.004951
0.092696
0.090449
0.086524
0.088608
0.014195
0.100669
0.100607
0.103036
0.002318
0.088074
0.081539
0.002568
0.101466
0.097514
0.022456
0.101504
0.002712
0.074004
0.093757
0.102052
0.007503
0.102761
0.063266
0.050212
0.103319
0.104130
0.002915
0.103718
0.006201
0.103451
0.092475
0.003012
0.073531
0.002954
0.102946
0.091871
0.089408
0.003332
0.047564
0.106552
0.091828
0.003762
0.025998
0.008666
0.004139
0.009529
0.091765
0.091894
0.090397
0.089900
0.089771
0.090532
0.091448
0.089531
0.090717
0.090667
0.090788
0.091474
0.090581
0.090636
0.099411
0.106408
0.090074
0.091270
0.090385
0.102209
0.091404
0.088531
0.091592
0.093973
0.100877
0.095696
0.030637
0.009209
0.096394
0.094177
0.032020
0.092378
0.087071
0.091704
0.089731
0.088390
0.006955
0.087352
0.046397
0.095231
0.098608
0.007710
0.008285
0.004353
0.086829
0.085810
0.005348
0.087907
0.086481
0.093362
0.061143
0.086869
0.085692
0.088235
0.088964
0.005993
0.089201
0.091867
0.091018
0.087367
0.005366
0.074170
0.093287
0.006215
0.093788
0.051911
0.044023
0.006167
0.095158
0.052136
0.094540
0.005817
0.006052
0.006791
0.094012
0.005365
0.016756
0.087624
0.087583
0.090920
0.094351
0.093722
0.007436
0.070788
0.058487
0.032477
0.095636
0.025269
0.019280
0.006020
0.013246
0.009061
0.085989
0.086259
0.086330
0.086541
0.086873
0.005419
0.086442
0.077877
0.081443
0.086833
0.092194
0.087205
0.087246
0.088999
0.087799
0.087668
0.087063
0.085995
0.088532
0.087413
0.094285
0.094664
0.092019
0.087384
0.092913
0.024657
0.008083
0.099191
0.091987
0.093258
0.087955
0.105786
0.084471
0.084200
0.086006
0.009905
0.088439
0.058852
0.009059
0.052109
0.085492
0.008010
0.011328
0.089310
0.015783
0.071325
0.007703
0.087388
0.031979
0.084386
0.084532
0.085509
0.009618
0.085471
0.010769
0.089462
0.070526
0.091830
0.092743
0.006360
0.094119
0.088123
0.085623
0.045265
0.094344
0.008767
0.087123
0.076710
0.087587
0.036845
0.096572
0.060491
0.081243
0.090375
0.007783
0.092690
0.024529
0.018284
0.012284
0.012740
0.094346
0.087142
0.009306
0.009552
0.086893
0.010528
0.086465
0.086361
0.088696
0.086436
0.087388
0.086881
0.085947
0.023869
0.084773
0.086227
0.087327
0.091607
0.084262
0.005431
0.085002
0.084912
0.085241
0.064411
0.088836
0.078579
0.088245
0.087204
0.086966
0.099339
0.091612
0.092513
0.090484
0.027801
0.020427
0.085386
0.090009
0.094488
0.086934
0.091245
0.091435
0.093129
0.107267
0.014692
0.013026
0.084813
0.012137
0.089061
0.083038
0.088481
0.036657
0.050440
0.087208
0.083502
0.007664
0.085469
0.087603
0.084049
0.090374
0.089942
0.089276
0.085234
0.012499
0.030591
0.011537
0.085377
0.087656
0.068536
0.017118
0.008620
0.010207
0.028002
0.084166
0.084208
0.008136
0.012717
0.053629
0.084466
0.089256
0.084669
0.082162
0.091024
0.087585
0.085484
0.084645
0.091321
0.087235
0.019887
0.011104
0.085363
0.088834
0.064776
0.084964
0.084638
0.011680
0.064689
0.088534
0.090210
0.084893
0.023819
0.073941
0.010608
0.008982
0.056742
0.087911
0.039000
0.017692
0.085810
0.087107
0.086225
0.042103
0.084028
0.009143
0.084177
0.084056
0.089641
0.008054
0.084038
0.086699
0.090171
0.086363
0.096361
0.090114
0.084449
0.084578
0.090650
0.083123
0.079509
0.085050
0.080805
0.007459
0.089216
0.084904
0.087757
0.088552
0.083676
0.084545
0.089403
0.083193
0.082498
0.084982
0.064328
0.085514
0.010557
0.084804
0.024207
0.066951
0.015479
0.083055
0.009767
0.085179
0.083156
0.012146
0.082771
0.085237
0.087679
0.084355
0.076161
0.007372
0.041191
0.037776
0.011624
0.012883
0.083825
0.086793
0.009935
0.084824
0.082626
0.089143
0.088679
0.088508
0.082908
0.083554
0.055297
0.015604
0.044936
0.085058
0.015800
0.016580
0.089037
0.013351
0.029686
0.008337
0.087320
0.085943
0.088739
0.084361
0.073445
0.023029
0.048111
0.014602
0.013768
0.085724
0.053035
0.084539
0.088140
0.063758
0.088609
0.091352
0.083018
0.083993
0.084883
0.084779
0.081736
0.082770
0.082803
0.089983
0.089263
0.032568
0.013411
0.083148
0.096087
0.084309
0.084891
0.084100
0.084048
0.085875
0.009805
0.009855
0.087964
0.085283
0.089243
0.086936
0.084042
0.090864
0.020864
0.082243
0.094431
0.087867
0.084058
0.076147
0.087558
0.082669
0.089134
0.088655
0.082518
0.082946
0.017441
0.081620
0.014547
0.085510
0.040848
0.020997
0.066479
0.054471
0.021242
0.009360
0.084152
0.082016
0.016087
0.070336
0.075629
0.082450
0.011070
0.081806
0.085424
0.019390
0.082318
0.084666
0.011314
0.088071
0.086291
0.082771
0.083392
0.082598
0.085586
0.082883
0.080604
0.085287
0.083481
0.082731
0.060067
0.082358
0.046611
0.083155
0.043215
0.070594
0.016100
0.089601
0.085493
0.014369
0.005436
0.010271
0.012435
0.085147
0.012812
0.086645
0.012445
0.091356
0.021927
0.027761
0.058346
0.031936
0.010818
0.036425
0.016987
0.087777
0.087784
0.089196
0.088485
0.085395
0.084731
0.085564
0.082502
0.086190
0.013942
0.081377
0.082417
0.009781
0.088143
0.081456
0.075633
0.087571
0.087111
0.082246
0.083610
0.082555
0.082053
0.084255
0.009969
0.082916
0.078462
0.088170
0.018089
0.092014
0.087760
0.084432
0.010403
0.085403
0.083257
0.088495
0.092220
0.021207
0.012822
0.028546
0.011915
0.012980
0.059325
0.009236
0.008083
0.081540
0.042089
0.083965
0.085218
0.015433
0.081038
0.069581
0.075812
0.086056
0.018311
0.012734
0.082047
0.015522
0.028290
0.016665
0.019204
0.083659
0.086419
0.086738
0.081683
0.080358
0.021386
0.083739
0.084198
0.087327
0.087491
0.083741
0.047070
0.085261
0.007317
0.081630
0.082241
0.081853
0.081700
0.073100
0.049776
0.080560
0.081136
0.081022
0.081079
0.017874
0.081785
0.011183
0.020918
0.012190
0.087607
0.036019
0.065122
0.080925
0.082436
0.023868
0.017136
0.007260
0.063339
0.084521
0.017874
0.083969
0.085233
0.087029
0.085991
0.081655
0.084957
0.082709
0.082229
0.082340
0.081034
0.080458
0.020093
0.082500
0.080955
0.080654
0.081086
0.087030
0.087026
0.082757
0.082553
0.088677
0.002706
0.085332
0.085717
0.086705
0.015223
0.087822
0.058962
0.082481
0.013868
0.088076
0.081494
0.022473
0.024180
0.078912
0.083671
0.079201
0.036856
0.058179
0.013936
0.080902
0.060515
0.068986
0.008304
0.083239
0.010807
0.008925
0.079623
0.084040
0.081056
0.006296
0.020248
0.086304
0.086665
0.026560
0.082531
0.082259
0.078595
0.015774
0.079672
0.081565
0.080530
0.074933
0.081568
0.054547
0.005568
0.083038
0.005806
0.078252
0.015678
0.086861
0.032104
0.021469
0.085407
0.087289
0.025012
0.080327
0.035825
0.085816
0.082693
0.011754
0.015176
0.085830
0.013318
0.080761
0.014323
0.015707
0.018680
0.084036
0.070375
0.026764
0.066190
0.084858
0.026114
0.086762
0.085304
0.053906
0.083693
0.081149
0.080910
0.080808
0.079515
0.081909
0.081053
0.078084
0.080686
0.062274
0.080501
0.083277
0.082476
0.086307
0.017979
0.081673
0.086295
0.086310
0.048372
0.013173
0.072105
0.078157
0.079398
0.082620
0.024242
0.076943
0.081395
0.033443
0.057586
0.015046
0.015569
0.065169
0.012346
0.075245
0.006615
0.071168
0.080253
0.083219
0.084363
0.018351
0.084207
0.047485
0.086133
0.081316
0.081755
0.023636
0.082981
0.018397
0.085132
0.055614
0.016519
0.080400
0.078443
0.019494
0.009586
0.082937
0.040311
0.083155
0.079644
0.079948
0.079925
0.081663
0.079763
0.021901
0.019035
0.030323
0.086323
0.014238
0.012774
0.021201
0.077538
0.023071
0.033078
0.082536
0.078866
0.007144
0.074407
0.083202
0.078816
0.026880
0.065253
0.085626
0.085902
0.004685
0.083902
0.079047
0.083565
0.080563
0.017220
0.086303
0.080992
0.078571
0.084718
0.081217
0.085179
0.078835
0.081028
0.081157
0.078702
0.003036
0.078920
0.074587
0.052785
0.085913
0.028635
0.085363
0.075268
0.082408
0.080652
0.003744
0.079001
0.082068
0.086051
0.083314
0.061242
0.013840
0.010564
0.086158
0.013456
0.081184
0.079791
0.026132
0.056405
0.077339
0.056522
0.020175
0.081295
0.064186
0.077113
0.016228
0.013617
0.008297
0.085287
0.013702
0.071608
0.082434
0.011925
0.010369
0.084314
0.080348
0.082678
0.028331
0.079892
0.079674
0.005384
0.030440
0.073651
0.021274
0.021048
0.084042
0.023422
0.079892
0.080625
0.077613
0.079156
0.082661
0.051463
0.041640
0.025220
0.082264
0.003313
0.068044
0.018091
0.036944
0.076418
0.077234
0.078049
0.077537
0.070386
0.019216
0.026773
0.084979
0.018809
0.025117
0.008885
0.032530
0.060702
0.015521
0.032940
0.081197
0.085707
0.084620
0.083373
0.082648
0.004607
0.079867
0.085787
0.085540
0.085261
0.084610
0.080918
0.011491
0.079305
0.025582
0.076838
0.080660
0.050543
0.079602
0.015725
0.079722
0.077864
0.076577
0.085643
0.019010
0.079666
0.080869
0.076927
0.011108
0.044123
0.005508
0.013584
0.084750
0.001664
0.015520
0.084780
0.083156
0.084733
0.084981
0.081634
0.060367
0.007107
0.075384
0.081378
0.080373
0.084930
0.085880
0.003902
0.080694
0.031080
0.028575
0.075097
0.056624
0.055463
0.079445
0.033729
0.021568
0.017738
0.018937
0.076001
0.062775
0.035766
0.072216
0.007108
0.081833
0.078245
0.079149
0.010006
0.040525
0.080354
0.023067
0.025887
0.018215
0.004044
0.004199
0.021669
0.082693
0.029050
0.028443
0.016684
0.074371
0.072928
0.022349
0.078478
0.007790
0.082497
0.065192
0.084753
0.083505
0.029003
0.080619
0.052089
0.083999
0.082166
0.078557
0.078357
0.071330
0.022927
0.019143
0.046779
0.033266
0.009710
0.069850
0.079123
0.085289
0.081800
0.080236
0.085236
0.076258
0.076825
0.079572
0.083052
0.079814
0.023369
0.079571
0.075922
0.005501
0.084109
0.080640
0.079605
0.075341
0.085016
0.084420
0.077337
0.075237
0.079095
0.067250
0.014369
0.025693
0.025818
0.085411
0.083483
0.084315
0.082998
0.013188
0.050344
0.079599
0.059492
0.084079
0.043417
0.084767
0.011252
0.085459
0.011758
0.077416
0.082679
0.083997
0.015154
0.039403
0.015734
0.005380
0.078660
0.080940
0.032760
0.025542
0.072770
0.083281
0.077837
0.058726
0.020663
0.015156
0.016716
0.073748
0.015112
0.076191
0.069302
0.053012
0.012854
0.076767
0.075280
0.038803
0.004386
0.079607
0.034249
0.023505
0.082166
0.035984
0.005661
0.044170
0.030484
0.030373
0.037841
0.065178
0.083404
0.018414
0.082591
0.071564
0.074153
0.023783
0.077378
0.023277
0.060902
0.081744
0.021247
0.032071
0.022086
0.008356
0.027685
0.021053
0.037631
0.075532
0.082129
0.079515
0.079876
0.051874
0.079834
0.008884
0.081135
0.081889
0.083841
0.082681
0.017395
0.084358
0.083919
0.028452
0.047940
0.078614
0.078578
0.078520
0.077747
0.022573
0.075698
0.079719
0.080230
0.083980
0.084957
0.029551
0.077868
0.078562
0.073206
0.070171
0.084491
0.084787
0.014546
0.066836
0.011714
0.062507
0.078495
0.067767
0.075141
0.046620
0.084999
0.074972
0.003287
0.083710
0.081918
0.082968
0.084602
0.083912
0.018150
0.084166
0.074868
0.009774
0.083731
0.085102
0.010983
0.084176
0.082490
0.035926
0.082536
0.056750
0.070226
0.036045
0.076176
0.079763
0.019825
0.023004
0.023783
0.061665
0.010070
0.048993
0.082069
0.026925
0.067593
0.007315
0.007810
0.081283
0.077902
0.015577
0.010949
0.078552
0.004603
0.081480
0.078193
0.011898
0.020006
0.078834
0.076998
0.005496
0.075182
0.082168
0.047971
0.016454
0.017007
0.061068
0.033620
0.024418
0.071318
0.083637
0.018959
0.072987
0.073138
0.040765
0.025329
0.083518
0.073491
0.081907
0.034235
0.021281
0.034248
0.083196
0.065944
0.024764
0.082882
0.082973
0.009946
0.081521
0.079237
0.026036
0.030993
0.026649
0.003483
0.041590
0.055591
0.044267
0.033265
0.082477
0.081732
0.015715
0.083709
0.084234
0.078411
0.076255
0.006672
0.079101
0.081685
0.084689
0.083208
0.084643
0.078310
0.083654
0.078239
0.038150
0.044478
0.008684
0.084518
0.020634
0.083773
0.076266
0.030608
0.012714
0.082737
0.084377
0.077907
0.083440
0.064475
0.073032
0.014093
0.083555
0.083979
0.025507
0.084713
0.079637
0.032331
0.080413
0.078487
0.081794
0.036362
0.038709
0.028810
0.056828
0.083480
0.073206
0.081938
0.081891
0.078626
0.024067
0.075533
0.019330
0.081201
0.020218
0.018087
0.071610
0.074032
0.081225
0.045127
0.009100
0.013658
0.077486
0.064428
0.005298
0.006475
0.077208
0.010622
0.037356
0.011728
0.077374
0.044127
0.051489
0.075262
0.002674
0.011141
0.036714
0.082249
0.077340
0.083014
0.083390
0.081081
0.035007
0.021954
0.025977
0.039240
0.040971
0.052491
0.016897
0.028901
0.029378
0.058732
0.083309
0.083080
0.033549
0.076473
0.016173
0.084095
0.078151
0.078432
0.019925
0.070929
0.082181
0.081215
0.083746
0.084256
0.077333
0.042732
0.083046
0.078449
0.082493
0.028040
0.012542
0.072382
0.082550
0.015427
0.014954
0.067239
0.083325
0.084401
0.077162
0.062263
0.017021
0.004582
0.026081
0.077442
0.031325
0.082939
0.007933
0.006580
0.080903
0.015412
0.026701
0.084357
0.083327
0.083748
0.081777
0.069164
0.003672
0.084262
0.044154
0.070960
0.076761
0.006447
0.022207
0.041796
0.038906
0.077415
0.040527
0.080974
0.031871
0.044670
0.068697
0.042066
0.064545
0.027272
0.075224
0.078547
0.083251
0.031561
0.024314
0.061253
0.022450
0.082304
0.083040
0.035474
0.081397
0.010097
0.017860
0.021394
0.016431
0.076515
0.004648
0.015746
0.046284
0.080059
0.008895
0.012652
0.079791
0.007651
0.017615
0.070775
0.005423
0.003081
0.082334
0.076731
0.021932
0.039237
0.077022
0.071151
0.082952
0.077510
0.073198
0.026264
0.081458
0.034009
0.048776
0.082663
0.082633
0.081233
0.009925
0.077151
0.002139
0.036967
0.028414
0.018382
0.081780
0.080908
0.039342
0.055460
0.081729
0.019875
0.075023
0.047328
0.018601
0.039256
0.077749
0.074585
0.084056
0.075269
0.049201
0.082867
0.072169
0.071432
0.080100
0.083308
0.077031
0.083731
0.081174
0.006116
0.081928
0.012318
0.083197
0.016685
0.074485
0.069667
0.068949
0.084989
0.077952
0.083553
0.082378
0.027638
0.007767
0.061827
0.038389
0.077012
0.015340
0.053832
0.029084
0.047517
0.013532
0.079693
0.084123
0.083496
0.081755
0.082127
0.014527
0.017400
0.082548
0.015438
0.072069
0.003558
0.069379
0.059179
0.030070
0.078472
0.016330
0.086398
0.076408
0.040093
0.061848
0.069132
0.031931
0.077544
0.024098
0.081085
0.022081
0.081643
0.019422
0.074775
0.070253
0.033981
0.017879
0.082336
0.039287
0.082531
0.081247
0.050040
0.006316
0.063773
0.081232
0.017177
0.031464
0.079252
0.078737
0.041567
0.014271
0.076039
0.067927
0.002018
0.083420
0.023861
0.016571
0.008670
0.083006
0.005243
0.012336
0.029406
0.027921
0.003024
0.010780
0.073178
0.073924
0.079643
0.014115
0.046573
0.050476
0.043524
0.044001
0.082025
0.077101
0.064238
0.082873
0.080612
0.039774
0.006339
0.071259
0.080713
0.045631
0.080416
0.017236
0.051667
0.011028
0.020262
0.059013
0.018623
0.036638
0.003397
0.004087
0.054709
0.081452