# vtk DataFile Version 2.0
Test
ASCII
DATASET POLYDATA
POINTS 7341 float
0.000000 0.000000 0.000000
1.000000 0.000000 0.000000
1.000000 1.000000 0.000000
0.000000 1.000000 0.000000
0.000000 0.500000 0.000000
0.500000 0.500000 0.000000
1.000000 0.500000 0.000000
0.499000 0.499000 0.000000
0.900000 0.010000 0.000000
0.029412 0.000000 0.000000
0.058824 0.000000 0.000000
0.088235 0.000000 0.000000
0.117647 0.000000 0.000000
0.147059 0.000000 0.000000
0.176471 0.000000 0.000000
0.205882 0.000000 0.000000
0.235294 0.000000 0.000000
0.264706 0.000000 0.000000
0.294118 0.000000 0.000000
0.323529 0.000000 0.000000
0.352941 0.000000 0.000000
0.382353 0.000000 0.000000
0.411765 0.000000 0.000000
0.441176 0.000000 0.000000
0.470588 0.000000 0.000000
0.500000 0.000000 0.000000
0.529412 0.000000 0.000000
0.558824 0.000000 0.000000
0.588235 0.000000 0.000000
0.617647 0.000000 0.000000
0.647059 0.000000 0.000000
0.676471 0.000000 0.000000
0.705882 0.000000 0.000000
0.735294 0.000000 0.000000
0.764706 0.000000 0.000000
0.794118 0.000000 0.000000
0.823529 0.000000 0.000000
0.852941 0.000000 0.000000
0.882353 0.000000 0.000000
0.911765 0.000000 0.000000
0.941176 0.000000 0.000000
0.970588 0.000000 0.000000
1.000000 0.029412 0.000000
1.000000 0.058824 0.000000
1.000000 0.088235 0.000000
1.000000 0.117647 0.000000
1.000000 0.147059 0.000000
1.000000 0.176471 0.000000
1.000000 0.205882 0.000000
1.000000 0.235294 0.000000
1.000000 0.264706 0.000000
1.000000 0.294118 0.000000
1.000000 0.323529 0.000000
1.000000 0.352941 0.000000
1.000000 0.382353 0.000000
1.000000 0.411765 0.000000
1.000000 0.441176 0.000000
1.000000 0.470588 0.000000
1.000000 0.529412 0.000000
1.000000 0.558824 0.000000
1.000000 0.588235 0.000000
1.000000 0.617647 0.000000
1.000000 0.647059 0.000000
1.000000 0.676471 0.000000
1.000000 0.705882 0.000000
1.000000 0.735294 0.000000
1.000000 0.764706 0.000000
1.000000 0.794118 0.000000
1.000000 0.823529 0.000000
1.000000 0.852941 0.000000
1.000000 0.882353 0.000000
1.000000 0.911765 0.000000
1.000000 0.941176 0.000000
1.000000 0.970588 0.000000
0.970588 1.000000 0.000000
0.941176 1.000000 0.000000
0.911765 1.000000 0.000000
0.882353 1.000000 0.000000
0.852941 1.000000 0.000000
0.823529 1.000000 0.000000
0.794118 1.000000 0.000000
0.764706 1.000000 0.000000
0.735294 1.000000 0.000000
0.705882 1.000000 0.000000
0.676471 1.000000 0.000000
0.647059 1.000000 0.000000
0.617647 1.000000 0.000000
0.588235 1.000000 0.000000
0.558824 1.000000 0.000000
0.529412 1.000000 0.000000
0.500000 1.000000 0.000000
0.470588 1.000000 0.000000
0.441176 1.000000 0.000000
0.411765 1.000000 0.000000
0.382353 1.000000 0.000000
0.352941 1.000000 0.000000
0.323529 1.000000 0.000000
0.294118 1.000000 0.000000
0.264706 1.000000 0.000000
0.235294 1.000000 0.000000
0.205882 1.000000 0.000000
0.176471 1.000000 0.000000
0.147059 1.000000 0.000000
0.117647 1.000000 0.000000
0.088235 1.000000 0.000000
0.058824 1.000000 0.000000
0.029412 1.000000 0.000000
0.000000 0.970588 0.000000
0.000000 0.941176 0.000000
0.000000 0.911765 0.000000
0.000000 0.882353 0.000000
0.000000 0.852941 0.000000
0.000000 0.823529 0.000000
0.000000 0.794118 0.000000
0.000000 0.764706 0.000000
0.000000 0.735294 0.000000
0.000000 0.705882 0.000000
0.000000 0.676471 0.000000
0.000000 0.647059 0.000000
0.000000 0.617647 0.000000
0.000000 0.588235 0.000000
0.000000 0.558824 0.000000
0.000000 0.529412 0.000000
0.007246 0.500000 0.000000
0.014493 0.500000 0.000000
0.021739 0.500000 0.000000
0.028986 0.500000 0.000000
0.036232 0.500000 0.000000
0.043478 0.500000 0.000000
0.050725 0.500000 0.000000
0.057971 0.500000 0.000000
0.065217 0.500000 0.000000
0.072464 0.500000 0.000000
0.079710 0.500000 0.000000
0.086957 0.500000 0.000000
0.094203 0.500000 0.000000
0.101449 0.500000 0.000000
0.108696 0.500000 0.000000
0.115942 0.500000 0.000000
0.123188 0.500000 0.000000
0.130435 0.500000 0.000000
0.137681 0.500000 0.000000
0.144928 0.500000 0.000000
0.152174 0.500000 0.000000
0.159420 0.500000 0.000000
0.166667 0.500000 0.000000
0.173913 0.500000 0.000000
0.181159 0.500000 0.000000
0.188406 0.500000 0.000000
0.195652 0.500000 0.000000
0.202899 0.500000 0.000000
0.210145 0.500000 0.000000
0.217391 0.500000 0.000000
0.224638 0.500000 0.000000
0.231884 0.500000 0.000000
0.239130 0.500000 0.000000
0.246377 0.500000 0.000000
0.253623 0.500000 0.000000
0.260870 0.500000 0.000000
0.268116 0.500000 0.000000
0.275362 0.500000 0.000000
0.282609 0.500000 0.000000
0.289855 0.500000 0.000000
0.297101 0.500000 0.000000
0.304348 0.500000 0.000000
0.311594 0.500000 0.000000
0.318841 0.500000 0.000000
0.326087 0.500000 0.000000
0.333333 0.500000 0.000000
0.340580 0.500000 0.000000
0.347826 0.500000 0.000000
0.355072 0.500000 0.000000
0.362319 0.500000 0.000000
0.369565 0.500000 0.000000
0.376812 0.500000 0.000000
0.384058 0.500000 0.000000
0.391304 0.500000 0.000000
0.398551 0.500000 0.000000
0.405797 0.500000 0.000000
0.413043 0.500000 0.000000
0.420290 0.500000 0.000000
0.427536 0.500000 0.000000
0.434783 0.500000 0.000000
0.442029 0.500000 0.000000
0.449275 0.500000 0.000000
0.456522 0.500000 0.000000
0.463768 0.500000 0.000000
0.471014 0.500000 0.000000
0.478261 0.500000 0.000000
0.485507 0.500000 0.000000
0.492754 0.500000 0.000000
0.510004 0.500000 0.000000
0.520408 0.500000 0.000000
0.531229 0.500000 0.000000
0.542483 0.500000 0.000000
0.554187 0.500000 0.000000
0.566359 0.500000 0.000000
0.579019 0.500000 0.000000
0.592185 0.500000 0.000000
0.605877 0.500000 0.000000
0.620118 0.500000 0.000000
0.634929 0.500000 0.000000
0.650332 0.500000 0.000000
0.666352 0.500000 0.000000
0.683013 0.500000 0.000000
0.700340 0.500000 0.000000
0.718361 0.500000 0.000000
0.737103 0.500000 0.000000
0.756595 0.500000 0.000000
0.776867 0.500000 0.000000
0.797950 0.500000 0.000000
0.819877 0.500000 0.000000
0.842681 0.500000 0.000000
0.866398 0.500000 0.000000
0.891064 0.500000 0.000000
0.916716 0.500000 0.000000
0.943396 0.500000 0.000000
0.971143 0.500000 0.000000
0.000000 0.470588 0.000000
0.000000 0.441176 0.000000
0.000000 0.411765 0.000000
0.000000 0.382353 0.000000
0.000000 0.352941 0.000000
0.000000 0.323529 0.000000
0.000000 0.294118 0.000000
0.000000 0.264706 0.000000
0.000000 0.235294 0.000000
0.000000 0.205882 0.000000
0.000000 0.176471 0.000000
0.000000 0.147059 0.000000
0.000000 0.117647 0.000000
0.000000 0.088235 0.000000
0.000000 0.058824 0.000000
0.000000 0.029412 0.000000
0.500341 0.497365 0.000000
0.501682 0.495729 0.000000
0.503023 0.494094 0.000000
0.504365 0.492458 0.000000
0.505706 0.490823 0.000000
0.507047 0.489187 0.000000
0.508388 0.487552 0.000000
0.509729 0.485916 0.000000
0.511070 0.484281 0.000000
0.512411 0.482645 0.000000
0.513753 0.481010 0.000000
0.515094 0.479375 0.000000
0.516435 0.477739 0.000000
0.517776 0.476104 0.000000
0.519117 0.474468 0.000000
0.520458 0.472833 0.000000
0.521799 0.471197 0.000000
0.523140 0.469562 0.000000
0.524482 0.467926 0.000000
0.525823 0.466291 0.000000
0.527164 0.464656 0.000000
0.528505 0.463020 0.000000
0.529846 0.461385 0.000000
0.531187 0.459749 0.000000
0.532528 0.458114 0.000000
0.533870 0.456478 0.000000
0.535211 0.454843 0.000000
0.536552 0.453207 0.000000
0.537893 0.451572 0.000000
0.539234 0.449936 0.000000
0.540575 0.448301 0.000000
0.541916 0.446666 0.000000
0.543258 0.445030 0.000000
0.544599 0.443395 0.000000
0.545940 0.441759 0.000000
0.547281 0.440124 0.000000
0.548622 0.438488 0.000000
0.549963 0.436853 0.000000
0.551304 0.435217 0.000000
0.552645 0.433582 0.000000
0.553987 0.431946 0.000000
0.555328 0.430311 0.000000
0.556669 0.428676 0.000000
0.558010 0.427040 0.000000
0.559351 0.425405 0.000000
0.560692 0.423769 0.000000
0.562033 0.422134 0.000000
0.563375 0.420498 0.000000
0.564716 0.418863 0.000000
0.566057 0.417227 0.000000
0.567398 0.415592 0.000000
0.568739 0.413957 0.000000
0.570080 0.412321 0.000000
0.571421 0.410686 0.000000
0.572763 0.409050 0.000000
0.574104 0.407415 0.000000
0.575445 0.405779 0.000000
0.576786 0.404144 0.000000
0.578127 0.402508 0.000000
0.579468 0.400873 0.000000
0.580809 0.399237 0.000000
0.582151 0.397602 0.000000
0.583492 0.395967 0.000000
0.584833 0.394331 0.000000
0.586174 0.392696 0.000000
0.587515 0.391060 0.000000
0.588856 0.389425 0.000000
0.590197 0.387789 0.000000
0.591538 0.386154 0.000000
0.592880 0.384518 0.000000
0.594221 0.382883 0.000000
0.595562 0.381247 0.000000
0.596903 0.379612 0.000000
0.598244 0.377977 0.000000
0.599585 0.376341 0.000000
0.600926 0.374706 0.000000
0.602268 0.373070 0.000000
0.603609 0.371435 0.000000
0.604950 0.369799 0.000000
0.606291 0.368164 0.000000
0.607632 0.366528 0.000000
0.608973 0.364893 0.000000
0.610314 0.363258 0.000000
0.611656 0.361622 0.000000
0.612997 0.359987 0.000000
0.614338 0.358351 0.000000
0.615679 0.356716 0.000000
0.617020 0.355080 0.000000
0.618361 0.353445 0.000000
0.619702 0.351809 0.000000
0.621043 0.350174 0.000000
0.622385 0.348538 0.000000
0.623726 0.346903 0.000000
0.625067 0.345268 0.000000
0.626408 0.343632 0.000000
0.627749 0.341997 0.000000
0.629090 0.340361 0.000000
0.630431 0.338726 0.000000
0.631773 0.337090 0.000000
0.633114 0.335455 0.000000
0.634455 0.333819 0.000000
0.635796 0.332184 0.000000
0.637137 0.330548 0.000000
0.638478 0.328913 0.000000
0.639819 0.327278 0.000000
0.641161 0.325642 0.000000
0.642502 0.324007 0.000000
0.643843 0.322371 0.000000
0.645184 0.320736 0.000000
0.646525 0.319100 0.000000
0.647866 0.317465 0.000000
0.649207 0.315829 0.000000
0.650548 0.314194 0.000000
0.651890 0.312559 0.000000
0.653231 0.310923 0.000000
0.654572 0.309288 0.000000
0.655913 0.307652 0.000000
0.657254 0.306017 0.000000
0.658595 0.304381 0.000000
0.659936 0.302746 0.000000
0.661278 0.301110 0.000000
0.662619 0.299475 0.000000
0.663960 0.297839 0.000000
0.665301 0.296204 0.000000
0.666642 0.294569 0.000000
0.667983 0.292933 0.000000
0.669324 0.291298 0.000000
0.670666 0.289662 0.000000
0.672007 0.288027 0.000000
0.673348 0.286391 0.000000
0.674689 0.284756 0.000000
0.676030 0.283120 0.000000
0.677371 0.281485 0.000000
[...]
POINT_DATA 7341
SCALARS UX float 1
LOOKUP_TABLE default
0.000000
0.000000
0.205500
0.205500
0.106218
0.054586
0.076972
0.051668
0.000320
-0.000000
0.000000
0.000000
0.000000
0.000000
0.000000
0.000000
0.000000
0.000000
0.000000
0.000000
0.000000
0.000000
0.000000
0.000000
0.000000
0.000000
0.000000
0.000000
0.000000
0.000000
0.000000
0.000000
0.000000
0.000000
0.000000
0.000000
0.000000
0.000000
0.000000
0.000000
0.000000
-0.000000
0.003785
0.010595
0.015613
0.020011
0.024144
0.028060
0.031923
0.035699
0.039844
0.044108
0.048575
0.053185
0.057765
0.062567
0.067278
0.071961
0.081300
0.085448
0.090039
0.095663
0.102066
0.108848
0.116438
0.124632
0.133079
0.141672
0.150598
0.159629
0.168728
0.177872
0.187044
0.196264
0.205500
0.205500
0.205500
0.205500
0.205500
0.205500
0.205500
0.205500
0.205500
0.205500
0.205500
0.205500
0.205500
0.205500
0.205500
0.205500
0.205500
0.205500
0.205500
0.205500
0.205500
0.205500
0.205500
0.205500
0.205500
0.205500
0.205500
0.205500
0.205500
0.205500
0.205500
0.205500
0.205500
0.196819
0.188136
0.179451
0.170750
0.162042
0.153302
0.144553
0.135772
0.126967
0.118143
0.109298
0.100455
0.091637
0.082957
0.074361
0.066644
0.101070
0.094713
0.086231
0.080392
0.076215
0.072279
0.074848
0.069829
0.070282
0.070431
0.070562
0.071605
0.071708
0.069615
0.072106
0.070339
0.070420
0.064412
0.062278
0.064856
0.073002
0.065466
0.067448
0.064380
0.065361
0.065004
0.098498
0.072741
-0.002599
0.045468
0.062623
0.069232
0.074112
0.026105
0.089761
0.066965
0.027711
0.053309
0.054540
0.057501
0.044038
0.054164
0.055656
0.055726
0.056946
0.060786
0.066030
0.093472
0.049307
0.053180
0.051868
0.052310
0.053321
0.052894
0.052950
0.052895
0.053029
0.053171
0.053162
0.052529
0.052319
0.052540
0.052720
0.051902
0.052290
0.051179
0.051499
0.052106
0.053410
0.052717
0.051929
0.051018
0.050181
0.049412
0.048660
0.048132
0.047626
0.047417
0.047235
0.047313
0.047476
0.047673
0.048168
0.048875
0.049900
0.051177
0.052743
0.054536
0.056609
0.058930
0.061481
0.064219
0.067317
0.070370
0.073641
0.075103
0.068398
0.064190
0.060582
0.057184
0.053689
0.050206
0.046761
0.043265
0.039829
0.036255
0.032687
0.029069
0.025202
0.020236
0.014485
0.050262
0.048022
0.047415
0.046890
0.046562
0.046297
0.046122
0.045855
0.045483
0.045091
0.044787
0.044483
0.044137
0.043779
0.043394
0.042877
0.042205
0.041475
0.041255
0.040819
0.040338
0.039942
0.039473
0.039188
0.038950
0.038527
0.038110
0.037641
0.037150
0.036661
0.036627
0.036167
0.035627
0.035391
0.035011
0.034580
0.034169
0.033824
0.033451
0.033034
0.032615
0.032196
0.031783
0.031374
0.030968
0.030561
0.030158
0.029756
0.029355
0.028957
0.028560
0.028166
0.027774
0.027387
0.027002
0.026622
0.026244
0.025871
0.025502
0.025136
0.024774
0.024414
0.024057
0.023706
0.023358
0.023014
0.022674
0.022339
0.022008
0.021682
0.021360
0.021042
0.020728
0.020420
0.020115
0.019816
0.019521
0.019232
0.018945
0.018663
0.018386
0.018115
0.017847
0.017583
0.017323
0.017069
0.016821
0.016575
0.016333
0.016095
0.015860
0.015631
0.015405
0.015182
0.014964
0.014749
0.014538
0.014330
0.014123
0.013920
0.013722
0.013527
0.013337
0.013150
0.012965
0.012782
0.012602
0.012427
0.012254
0.012082
0.011912
0.011744
0.011580
0.011417
0.011257
0.011098
0.010941
0.010785
0.010631
0.010478
0.010329
0.010183
0.010039
0.009897
0.009755
0.009615
0.009477
0.009341
0.009207
0.009074
0.008942
0.008812
0.008683
0.008555
0.008429
0.008303
0.008178
0.008055
0.007932
0.007810
0.007689
0.007570
0.007453
0.007336
0.007220
0.007105
0.006990
0.006876
0.006762
0.006650
0.006539
0.006429
0.006319
0.006210
0.006103
0.005997
0.005892
0.005788
0.005686
0.005584
0.005483
0.005384
0.005286
0.005189
0.005094
0.005001
0.004909
0.004819
0.004729
0.004642
0.004556
0.004471
0.004388
0.004306
0.004226
0.004147
0.004070
0.003994
0.003919
0.003845
0.003773
0.003702
0.003632
0.003563
0.003496
0.003430
0.003365
0.003300
0.003238
0.003176
0.003116
0.003057
0.002999
0.002942
0.002886
0.002832
0.002778
0.002726
0.002674
0.002624
0.002574
0.002525
0.002477
0.002431
0.002385
0.002341
0.002297
0.002254
0.002211
0.002170
0.002129
0.002089
0.002050
0.002012
0.001975
0.001939
0.001903
0.001869
0.001835
0.001801
0.001769
0.001738
0.001707
0.001677
0.001648
0.001619
0.001592
0.001565
0.001538
0.001513
0.001488
0.001464
0.001441
0.001418
0.001395
0.001373
0.001351
0.001330
0.001309
0.001289
0.001269
0.001250
0.001232
0.001214
0.001197
0.001181
0.001165
0.001150
0.001136
0.001123
0.001111
0.001099
0.001088
0.001077
0.001066
0.001056
0.001045
0.001036
0.001026
0.001017
0.001008
0.000999
0.000991
0.000982
0.000973
0.000964
0.000955
0.000945
0.000935
0.000925
0.000913
0.000902
0.000889
0.000877
0.000864
0.000849
0.000834
0.000818
0.000802
0.000784
0.000767
0.000748
0.000730
0.000710
0.000692
0.000674
0.000652
0.000630
0.000608
0.000584
0.000555
0.000527
0.000498
0.000468
0.000440
0.000411
0.000382
0.000353
0.068940
0.061120
0.056534
0.000990
0.000263
0.051998
-0.000081
0.045310
0.072789
0.038670
0.042954
-0.000311
0.049468
0.070693
0.022435
0.038472
0.043640
-0.000157
0.002579
0.052280
0.009857
0.072361
0.045884
0.026792
0.049602
0.063000
0.074779
0.053086
0.059493
0.048141
0.001493
0.064738
0.061772
0.070237
0.069691
0.000145
0.048322
0.002539
0.046449
0.000535
0.063274
0.061719
0.054791
0.072087
0.001059
0.047133
0.000711
0.045773
0.072917
0.080883
0.000045
0.047159
0.014193
0.060038
-0.000217
0.044642
0.043097
0.056473
0.043309
0.048015
0.026435
0.030458
-0.000325
-0.000273
0.050896
0.049024
0.045708
0.063154
0.065892
-0.000004
0.054230
0.000072
0.043598
0.000672
0.053505
0.034582
0.001190
0.068385
0.022214
0.003542
0.014801
0.003957
0.006490
0.063069
0.068311
0.071575
0.061724
0.060696
0.058929
0.069298
0.071102
0.069854
0.069983
0.069985
0.069194
0.070902
0.077388
0.074308
0.073635
0.073302
0.046271
0.000462
0.047559
0.049010
0.057055
0.062130
0.001390
0.048141
0.000343
0.069107
0.038649
-0.000295
0.047940
0.069693
0.022782
0.045352
-0.000179
0.047767
0.006725
0.056826
0.042705
0.036782
0.002714
0.067311
0.045920
0.000295
0.045455
0.046394
0.060708
0.072851
0.019688
0.060310
0.045653
0.050131
0.000243
0.069327
0.069352
-0.000097
0.046773
0.048104
0.018916
0.044265
-0.000272
0.062405
0.048684
0.043407
0.004587
0.043128
0.053453
0.034281
0.043251
0.044478
-0.000159
0.046796
0.000192
0.049945
0.050288
0.000160
0.048262
0.000369
0.056577
0.051567
0.058036
0.000914
0.042528
0.062627
0.052999
0.002162
0.030822
0.008645
0.001306
0.012395
0.054238
0.055641
0.066832
0.064007
0.061390
0.062788
0.060901
0.057071
0.070189
0.071919
0.070110
0.070019
0.069437
0.070790
0.047392
0.048628
0.071387
0.072030
0.072610
0.050860
0.075679
0.073341
0.078336
0.046668
0.046053
0.045994
0.019280
0.000606
0.042522
0.039218
0.016600
0.039860
0.052334
0.043694
0.046547
0.070147
0.002141
0.050686
0.040965
0.052293
0.057789
0.005858
0.007017
0.000426
0.053639
0.072240
-0.000016
0.071650
0.055844
0.045258
0.051386
0.068984
0.060859
0.070488
0.047524
-0.000354
0.053773
0.040929
0.041814
0.069599
-0.000309
0.044493
0.039232
0.000493
0.044053
0.031149
0.026568
0.000882
0.040154
0.044601
0.045228
-0.000121
0.000034
0.001564
0.047291
-0.000241
0.010314
0.049330
0.048904
0.044930
0.049836
0.045923
0.004003
0.059742
0.034499
0.032976
0.045311
0.028743
0.024296
-0.000206
0.016197
0.010667
0.054183
0.058673
0.060511
0.062783
0.064074
-0.000108
0.060463
0.065570
0.068928
0.066605
0.044548
0.069201
0.071871
0.076115
0.069048
0.068792
0.068585
0.056307
0.073967
0.070877
0.044853
0.045307
0.046082
0.069365
0.048339
0.015639
0.003765
0.048782
0.045384
0.044993
0.047651
0.048982
0.052758
0.061184
0.047375
0.001868
0.040533
0.031042
-0.000040
0.043738
0.068568
-0.000197
0.007099
0.045766
0.006727
0.060378
-0.000002
0.040259
0.031194
0.056206
0.064298
0.070547
0.000506
0.068942
0.003784
0.045869
0.037948
0.040132
0.039406
0.000730
0.039280
0.046757
0.048537
0.039128
0.040529
-0.000142
0.051707
0.064714
0.041327
0.018578
0.054940
0.050340
0.048957
0.044393
0.006048
0.044691
0.026263
0.021447
0.011664
0.013818
0.039438
0.049937
0.000967
0.000825
0.052956
0.002866
0.055103
0.060284
0.042010
0.064945
0.068886
0.069504
0.059681
0.011048
0.072237
0.063237
0.071166
0.044825
0.054828
-0.000345
0.068035
0.068048
0.071352
0.054147
0.077006
0.066298
0.074503
0.070026
0.046697
0.045580
0.044301
0.044542
0.045629
0.014793
0.013917
0.068699
0.044370
0.042666
0.070423
0.044840
0.047576
0.045443
0.049502
0.005975
0.001619
0.036697
0.000171
0.035806
0.065983
0.036375
0.015749
0.041380
0.037613
0.067684
0.000075
0.039129
0.042150
0.059463
0.044113
0.044079
0.036651
0.050024
0.001090
0.028357
0.009104
0.069223
0.039601
0.057681
0.016216
0.000065
0.001546
0.012094
0.053257
0.058845
-0.000142
0.005317
0.028924
0.065065
0.046054
0.063128
0.045616
0.050316
0.035037
0.069568
0.068022
0.046628
0.036771
0.010074
0.005228
0.049179
0.043742
0.034701
0.050820
0.052083
0.009796
0.054120
0.043937
0.048195
0.068833
0.023592
0.062539
0.002427
-0.000172
0.047144
0.038563
0.035173
0.018704
0.047987
0.045796
0.046987
0.022025
0.057062
0.000240
0.061735
0.055332
0.038649
-0.000240
0.070093
0.046127
0.079335
0.061464
0.046293
0.044689
0.066357
0.067050
0.044257
0.070210
0.066945
0.068227
0.068156
-0.000092
0.044084
0.068638
0.036442
0.046624
0.062984
0.069628
0.043371
0.051046
0.060126
0.046205
0.031228
0.033536
-0.000035
0.035422
0.008832
0.055958
0.005330
0.055256
0.000240
0.039987
0.068206
0.000109
0.062816
0.039856
0.045185
0.047786
0.064295
0.000169
0.018445
0.032972
0.000364
0.000985
0.049271
0.042726
0.000060
0.034314
0.066763
0.043694
0.044743
0.035511
0.069039
0.068240
0.045113
0.007912
0.037561
0.038373
0.011114
0.014194
0.035832
0.001475
0.025765
-0.000248
0.044372
0.043858
0.037029
0.035110
0.062129
0.020937
0.025483
0.004776
0.002800
0.046091
0.025155
0.047218
0.043319
0.052808
0.049524
0.044585
0.051699
0.058034
0.067897
0.051460
0.068517
0.053652
0.066178
0.044103
0.045221
0.013636
0.001931
0.067774
0.048119
0.062367
0.069562
0.059892
0.059088
0.044999
0.001235
0.003754
0.039112
0.033912
0.045731
0.068416
0.060527
0.045808
0.007752
0.069171
0.054321
0.043690
0.048502
0.042576
0.045441
0.061665
0.043307
0.043063
0.064790
0.047775
0.002859
0.032244
0.000405
0.032630
0.015661
0.006370
0.055084
0.043281
0.014968
0.000301
0.037923
0.049937
0.001679
0.034143
0.063813
0.058456
-0.000048
0.034759
0.033483
0.008343
0.059463
0.045353
-0.000013
0.044096
0.044686
0.057605
0.050393
0.063481
0.032795
0.052318
0.067505
0.037389
0.046404
0.066501
0.049310
0.060652
0.021051
0.068442
0.034739
0.059685
0.012630
0.044365
0.041877
0.003716
0.000073
0.003160
0.000326
0.036465
0.004331
0.043699
0.000696
0.045717
0.018519
0.009319
0.027519
0.011074
0.000049
0.030319
0.002074
0.044961
0.044340
0.044058
0.043419
0.034929
0.046655
0.045331
0.055628
0.045307
0.002424
0.064254
0.054067
0.000144
0.042920
0.066525
0.038952
0.043096
0.042928
0.061852
0.049896
0.063998
0.068276
0.053974
0.005088
0.067868
0.066003
0.044513
0.006698
0.041612
0.042638
0.065646
-0.000107
0.040918
0.047109
0.043121
0.046435
0.002594
0.000104
0.008175
0.000303
0.003574
0.025259
0.000391
0.002446
0.052416
0.032228
0.038439
0.041926
0.000969
0.067233
0.058428
0.036340
0.044009
0.004289
0.000157
0.031697
0.000474
0.023069
0.001597
0.006964
0.045840
0.044254
0.041968
0.054037
0.067183
0.016833
0.035341
0.037271
0.042596
0.043439
0.034465
0.018052
0.032771
0.000267
0.037831
0.046377
0.033567
0.036164
0.061724
0.039502
0.065513
0.060172
0.061226
0.059036
0.003490
0.067460
0.000444
0.011916
0.000232
0.044038
0.013131
0.028599
0.038763
0.058983
0.007051
0.002392
0.002767
0.051760
0.044648
0.005301
0.045428
0.044061
0.044087
0.042474
0.050505
0.033687
0.048372
0.049280
0.056316
0.062529
0.062559
0.014965
0.057974
0.064561
0.041461
0.066646
0.042180
0.043680
0.052917
0.068367
0.043530
-0.000034
0.038098
0.032830
0.042849
0.000569
0.042932
0.047447
0.045728
0.000207
0.044810
0.044956
0.004972
0.009626
0.029389
0.030708
0.060618
0.011643
0.045620
0.000459
0.048783
0.023447
0.057392
0.002159
0.036472
0.000505
0.000457
0.066238
0.039302
0.057303
0.001880
0.002187
0.041807
0.042451
0.019574
0.030022
0.031004
0.031418
0.000428
0.062596
0.056365
0.058029
0.063104
0.051784
0.022900
0.000173
0.044699
0.002860
0.032781
0.000786
0.042239
0.009332
0.003411
0.042209
0.042964
0.012429
0.066994
0.028122
0.043164
0.045169
0.000386
0.004338
0.041899
0.000258
0.065058
0.000291
0.001228
0.005467
0.036423
0.031121
0.020795
0.054237
0.044332
0.015823
0.043516
0.043613
0.041474
0.044606
0.054245
0.060524
0.059373
0.065247
0.046863
0.052683
0.065647
0.061552
0.049845
0.066552
0.030232
0.048913
0.042854
0.000844
0.051299
0.042524
0.042244
0.036843
0.000157
0.060539
0.034224
0.028980
0.043660
0.002893
0.026534
0.028002
0.008540
0.043838
0.000377
0.003716
0.052400
0.000647
0.028473
0.001660
0.059082
0.051120
0.037098
0.043458
0.001329
0.040254
0.034495
0.042468
0.048610
0.044469
0.007776
0.034847
0.000842
0.041835
0.021022
0.000506
0.052698
0.065184
0.001881
0.002499
0.029930
0.013233
0.030195
0.060043
0.059213
0.058056
0.047445
0.028480
0.004073
0.001132
0.016066
0.042913
0.000408
0.000597
0.002977
0.065155
0.006232
0.024331
0.030631
0.030441
0.000358
0.029636
0.035850
0.063436
0.019180
0.026139
0.041578
0.043501
0.001662
0.043617
0.062814
0.043891
0.049129
0.000639
0.042080
0.054910
0.063938
0.041161
0.045443
0.041539
0.061066
0.057876
0.056724
0.065824
0.001200
0.065199
0.062496
0.038962
0.041777
0.007085
0.040827
0.033045
0.029503
0.049933
0.000170
0.059782
0.043964
0.042124
0.038002
0.047810
0.000541
0.000573
0.041801
0.003139
0.043307
0.047545
0.004722
0.019298
0.026179
0.041393
0.001044
0.027934
0.050357
0.061131
0.000675
0.002584
0.001906
0.042328
0.000789
0.025787
0.035190
0.000691
0.000657
0.042944
0.027263
0.036733
0.008513
0.056190
0.027636
0.001416
0.013749
0.061114
0.001365
0.005410
0.040618
0.002543
0.054596
0.044226
0.063710
0.056748
0.033811
0.036092
0.029852
0.003607
0.034299
0.001084
0.055751
0.004353
0.010154
0.027099
0.064580
0.058359
0.059253
0.028448
0.001328
0.005624
0.032374
0.000809
0.003330
0.000556
0.020095
0.021353
0.000477
0.022939
0.027826
0.042981
0.040876
0.042698
0.043072
0.001399
0.052878
0.042060
0.041525
0.040761
0.040458
0.045948
0.002570
0.058104
0.006022
0.061735
0.050775
0.018488
0.059491
0.000422
0.051210
0.060982
0.064291
0.041408
0.001591
0.049133
0.027573
0.063638
0.002967
0.017675
0.000273
0.000611
0.041172
0.000060
0.000737
0.032030
0.038314
0.040916
0.042945
0.042956
0.045785
0.001633
0.027393
0.047957
0.027797
0.040790
0.041751
0.000267
0.042234
0.006364
0.003801
0.024114
0.017586
0.038791
0.025733
0.007534
0.001212
0.000738
0.004037
0.059263
0.047730
0.019297
0.024953
0.001458
0.034145
0.025051
0.051302
0.000700
0.011860
0.047266
0.002301
0.005350
0.000724
0.000537
0.001140
0.001333
0.029874
0.010586
0.007200
0.000659
0.024351
0.024144
0.001784
0.025848
0.000508
0.035816
0.023820
0.042402
0.042276
0.004236
0.046526
0.017146
0.039722
0.033539
0.058077
0.056571
0.058761
0.001713
0.000846
0.032469
0.021849
0.002253
0.025886
0.025583
0.042027
0.042500
0.044503
0.041187
0.061881
0.059256
0.053400
0.042943
0.026031
0.005815
0.048193
0.063223
0.000414
0.040035
0.043537
0.055199
0.059511
0.040627
0.040090
0.058429
0.061633
0.049723
0.054136
0.000784
0.007014
0.004104
0.041367
0.038828
0.039826
0.033816
0.000824
0.021066
0.056553
0.043605
0.042360
0.015033
0.040405
0.002202
0.041721
0.000760
0.025592
0.037273
0.040109
0.000784
0.026798
0.003196
0.001266
0.046230
0.041865
0.004793
0.002198
0.022256
0.041767
0.023923
0.041353
0.001056
0.002625
0.000963
0.057231
0.000962
0.023069
0.022775
0.016060
0.000863
0.056554
0.023684
0.025066
0.001066
0.043023
0.011712
0.004634
0.035649
0.016851
0.000547
0.013534
0.006515
0.005463
0.022201
0.021735
0.038962
0.000902
0.037608
0.022065
0.059913
0.001741
0.023723
0.001523
0.019604
0.033260
0.001133
0.007514
0.001952
0.001697
0.003348
0.004651
0.009277
0.056686
0.042205
0.045491
0.044936
0.035019
0.026103
0.000638
0.027870
0.032640
0.039438
0.041698
0.000648
0.041822
0.041885
0.006245
0.014917
0.051479
0.053056
0.054661
0.055193
0.004813
0.057512
0.025954
0.042410
0.039958
0.040925
0.004716
0.056813
0.047986
0.060144
0.022277
0.040279
0.040562
0.000981
0.052690
0.000840
0.045981
0.049768
0.022705
0.057818
0.015957
0.041696
0.061985
0.000931
0.039132
0.034786
0.038014
0.032196
0.035091
0.000831
0.039986
0.059807
0.001947
0.039516
0.041369
0.000799
0.039776
0.041996
0.008196
0.041166
0.016141
0.020356
0.007735
0.022247
0.026121
0.001036
0.001389
0.004233
0.043331
0.001823
0.013726
0.032436
0.003010
0.020550
0.001369
0.000610
0.041569
0.049853
0.001097
0.000872
0.024465
0.001016
0.033884
0.024145
0.000942
0.000983
0.043957
0.055165
0.000626
0.023029
0.036216
0.031809
0.001011
0.000930
0.017950
0.009839
0.001660
0.058048
0.041399
0.003572
0.058012
0.021916
0.010540
0.002422
0.040048
0.055865
0.041035
0.006043
0.003903
0.013976
0.038728
0.020347
0.001825
0.037946
0.030571
0.000770
0.032413
0.043472
0.004897
0.005992
0.002525
0.000872
0.023731
0.037478
0.012168
0.005304
0.037228
0.041352
0.000975
0.039582
0.040208
0.046839
0.055240
0.000533
0.045933
0.034696
0.040938
0.041335
0.040600
0.051882
0.039520
0.053519
0.023452
0.028653
0.001611
0.041649
0.004028
0.039497
0.056827
0.007502
0.000923
0.032941
0.040537
0.048245
0.038805
0.020036
0.059493
0.001008
0.039098
0.039884
0.002093
0.041357
0.049751
0.004393
0.040822
0.041917
0.040526
0.005391
0.012523
0.002815
0.014968
0.039527
0.021424
0.036368
0.031609
0.024610
0.003947
0.053555
0.003324
0.031428
0.001149
0.001140
0.055090
0.055459
0.032297
0.011075
0.000746
0.001023
0.044818
0.018530
0.001159
0.000592
0.046491
0.000910
0.006470
0.000989
0.053987
0.027228
0.033266
0.055096
0.000654
0.001969
0.009533
0.036838
0.051872
0.040844
0.033370
0.027981
0.007012
0.003732
0.001969
0.016470
0.020522
0.014343
0.003048
0.005366
0.003034
0.039808
0.039014
0.038463
0.006833
0.053711
0.001103
0.040257
0.042395
0.024340
0.001006
0.057023
0.037128
0.040437
0.041144
0.040482
0.050010
0.025282
0.038494
0.044398
0.040734
0.005500
0.000980
0.058103
0.037374
0.001139
0.001108
0.019469
0.039288
0.040976
0.024803
0.017610
0.000851
0.000544
0.002692
0.048480
0.003924
0.038128
0.000720
0.000729
0.040734
0.000886
0.002217
0.032611
0.038798
0.039878
0.035264
0.055838
0.000849
0.041314
0.029898
0.020238
0.022587
0.000413
0.001291
0.009930
0.008869
0.040817
0.010169
0.039752
0.003401
0.020788
0.018651
0.009026
0.017810
0.002150
0.021101
0.024618
0.039494
0.005695
0.001603
0.041510
0.003552
0.031819
0.040532
0.004877
0.028684
0.001672
0.001184
0.001275
0.001200
0.047850
0.000949
0.001244
0.026091
0.039944
0.000808
0.001060
0.041385
0.000792
0.002894
0.056016
0.000702
0.000713
0.036998
0.046875
0.001276
0.007799
0.022744
0.019872
0.038468
0.023242
0.020918
0.004496
0.034556
0.006453
0.012427
0.037852
0.030564
0.030982
0.000844
0.045468
0.000548
0.005925
0.002609
0.001108
0.040111
0.031346
0.014571
0.035981
0.035520
0.003127
0.051875
0.028006
0.000992
0.008205
0.042805
0.053467
0.040539
0.022558
0.030363
0.038182
0.053533
0.053865
0.041087
0.039206
0.050658
0.040168
0.032627
0.001321
0.036048
0.002230
0.038801
0.001117
0.055060
0.021012
0.054655
0.035043
0.044656
0.040697
0.040301
0.002309
0.000864
0.016488
0.011036
0.052434
0.002409
0.013715
0.003092
0.030230
0.001074
0.042378
0.040981
0.039848
0.036010
0.036696
0.001143
0.003656
0.037580
0.000655
0.056423
0.000420
0.056744
0.015747
0.003461
0.055445
0.001269
0.034802
0.043725
0.006511
0.015879
0.018459
0.005334
0.023346
0.003649
0.039445
0.001417
0.036067
0.001325
0.020889
0.051495
0.004298
0.001265
0.039934
0.007609
0.037656
0.028816
0.011983
0.001256
0.044089
0.035102
0.001367
0.003212
0.040265
0.041418
0.007980
0.001161
0.045051
0.018639
0.000562
0.040146
0.001557
0.001367
0.000854
0.039443
0.001069
0.001073
0.002686
0.004647
0.000420
0.000998
0.052837
0.051730
0.026112
0.002184
0.010768
0.028990
0.015653
0.017930
0.036748
0.022764
0.016899
0.038567
0.030331
0.008873
0.000817
0.019473
0.031426
0.024277
0.039698
0.001246
0.031064
0.001787
0.001227
0.014849
0.001072
0.007323