# vtk DataFile Version 2.0
Test
ASCII
DATASET POLYDATA
POINTS 7341 float
0.000000 0.000000 0.000000
1.000000 0.000000 0.000000
1.000000 1.000000 0.000000
0.000000 1.000000 0.000000
0.000000 0.500000 0.000000
0.500000 0.500000 0.000000
1.000000 0.500000 0.000000
0.499000 0.499000 0.000000
0.900000 0.010000 0.000000
0.029412 0.000000 0.000000
0.058824 0.000000 0.000000
0.088235 0.000000 0.000000
0.117647 0.000000 0.000000
0.147059 0.000000 0.000000
0.176471 0.000000 0.000000
0.205882 0.000000 0.000000
0.235294 0.000000 0.000000
0.264706 0.000000 0.000000
0.294118 0.000000 0.000000
0.323529 0.000000 0.000000
0.352941 0.000000 0.000000
0.382353 0.000000 0.000000
0.411765 0.000000 0.000000
0.441176 0.000000 0.000000
0.470588 0.000000 0.000000
0.500000 0.000000 0.000000
0.529412 0.000000 0.000000
0.558824 0.000000 0.000000
0.588235 0.000000 0.000000
0.617647 0.000000 0.000000
0.647059 0.000000 0.000000
0.676471 0.000000 0.000000
0.705882 0.000000 0.000000
0.735294 0.000000 0.000000
0.764706 0.000000 0.000000
0.794118 0.000000 0.000000
0.823529 0.000000 0.000000
0.852941 0.000000 0.000000
0.882353 0.000000 0.000000
0.911765 0.000000 0.000000
0.941176 0.000000 0.000000
0.970588 0.000000 0.000000
1.000000 0.029412 0.000000
1.000000 0.058824 0.000000
1.000000 0.088235 0.000000
1.000000 0.117647 0.000000
1.000000 0.147059 0.000000
1.000000 0.176471 0.000000
1.000000 0.205882 0.000000
1.000000 0.235294 0.000000
1.000000 0.264706 0.000000
1.000000 0.294118 0.000000
1.000000 0.323529 0.000000
1.000000 0.352941 0.000000
1.000000 0.382353 0.000000
1.000000 0.411765 0.000000
1.000000 0.441176 0.000000
1.000000 0.470588 0.000000
1.000000 0.529412 0.000000
1.000000 0.558824 0.000000
1.000000 0.588235 0.000000
1.000000 0.617647 0.000000
1.000000 0.647059 0.000000
1.000000 0.676471 0.000000
1.000000 0.705882 0.000000
1.000000 0.735294 0.000000
1.000000 0.764706 0.000000
1.000000 0.794118 0.000000
1.000000 0.823529 0.000000
1.000000 0.852941 0.000000
1.000000 0.882353 0.000000
1.000000 0.911765 0.000000
1.000000 0.941176 0.000000
1.000000 0.970588 0.000000
0.970588 1.000000 0.000000
0.941176 1.000000 0.000000
0.911765 1.000000 0.000000
0.882353 1.000000 0.000000
0.852941 1.000000 0.000000
0.823529 1.000000 0.000000
0.794118 1.000000 0.000000
0.764706 1.000000 0.000000
0.735294 1.000000 0.000000
0.705882 1.000000 0.000000
0.676471 1.000000 0.000000
0.647059 1.000000 0.000000
0.617647 1.000000 0.000000
0.588235 1.000000 0.000000
0.558824 1.000000 0.000000
0.529412 1.000000 0.000000
0.500000 1.000000 0.000000
0.470588 1.000000 0.000000
0.441176 1.000000 0.000000
0.411765 1.000000 0.000000
0.382353 1.000000 0.000000
0.352941 1.000000 0.000000
0.323529 1.000000 0.000000
0.294118 1.000000 0.000000
0.264706 1.000000 0.000000
0.235294 1.000000 0.000000
0.205882 1.000000 0.000000
0.176471 1.000000 0.000000
0.147059 1.000000 0.000000
0.117647 1.000000 0.000000
0.088235 1.000000 0.000000
0.058824 1.000000 0.000000
0.029412 1.000000 0.000000
0.000000 0.970588 0.000000
0.000000 0.941176 0.000000
0.000000 0.911765 0.000000
0.000000 0.882353 0.000000
0.000000 0.852941 0.000000
0.000000 0.823529 0.000000
0.000000 0.794118 0.000000
0.000000 0.764706 0.000000
0.000000 0.735294 0.000000
0.000000 0.705882 0.000000
0.000000 0.676471 0.000000
0.000000 0.647059 0.000000
0.000000 0.617647 0.000000
0.000000 0.588235 0.000000
0.000000 0.558824 0.000000
0.000000 0.529412 0.000000
0.007246 0.500000 0.000000
0.014493 0.500000 0.000000
0.021739 0.500000 0.000000
0.028986 0.500000 0.000000
0.036232 0.500000 0.000000
0.043478 0.500000 0.000000
0.050725 0.500000 0.000000
0.057971 0.500000 0.000000
0.065217 0.500000 0.000000
0.072464 0.500000 0.000000
0.079710 0.500000 0.000000
0.086957 0.500000 0.000000
0.094203 0.500000 0.000000
0.101449 0.500000 0.000000
0.108696 0.500000 0.000000
0.115942 0.500000 0.000000
0.123188 0.500000 0.000000
0.130435 0.500000 0.000000
0.137681 0.500000 0.000000
0.144928 0.500000 0.000000
0.152174 0.500000 0.000000
0.159420 0.500000 0.000000
0.166667 0.500000 0.000000
0.173913 0.500000 0.000000
0.181159 0.500000 0.000000
0.188406 0.500000 0.000000
0.195652 0.500000 0.000000
0.202899 0.500000 0.000000
0.210145 0.500000 0.000000
0.217391 0.500000 0.000000
0.224638 0.500000 0.000000
0.231884 0.500000 0.000000
0.239130 0.500000 0.000000
0.246377 0.500000 0.000000
0.253623 0.500000 0.000000
0.260870 0.500000 0.000000
0.268116 0.500000 0.000000
0.275362 0.500000 0.000000
0.282609 0.500000 0.000000
0.289855 0.500000 0.000000
0.297101 0.500000 0.000000
0.304348 0.500000 0.000000
0.311594 0.500000 0.000000
0.318841 0.500000 0.000000
0.326087 0.500000 0.000000
0.333333 0.500000 0.000000
0.340580 0.500000 0.000000
0.347826 0.500000 0.000000
0.355072 0.500000 0.000000
0.362319 0.500000 0.000000
0.369565 0.500000 0.000000
0.376812 0.500000 0.000000
0.384058 0.500000 0.000000
0.391304 0.500000 0.000000
0.398551 0.500000 0.000000
0.405797 0.500000 0.000000
0.413043 0.500000 0.000000
0.420290 0.500000 0.000000
0.427536 0.500000 0.000000
0.434783 0.500000 0.000000
0.442029 0.500000 0.000000
0.449275 0.500000 0.000000
0.456522 0.500000 0.000000
0.463768 0.500000 0.000000
0.471014 0.500000 0.000000
0.478261 0.500000 0.000000
0.485507 0.500000 0.000000
0.492754 0.500000 0.000000
0.510004 0.500000 0.000000
0.520408 0.500000 0.000000
0.531229 0.500000 0.000000
0.542483 0.500000 0.000000
0.554187 0.500000 0.000000
0.566359 0.500000 0.000000
0.579019 0.500000 0.000000
0.592185 0.500000 0.000000
0.605877 0.500000 0.000000
0.620118 0.500000 0.000000
0.634929 0.500000 0.000000
0.650332 0.500000 0.000000
0.666352 0.500000 0.000000
0.683013 0.500000 0.000000
0.700340 0.500000 0.000000
0.718361 0.500000 0.000000
0.737103 0.500000 0.000000
0.756595 0.500000 0.000000
0.776867 0.500000 0.000000
0.797950 0.500000 0.000000
0.819877 0.500000 0.000000
0.842681 0.500000 0.000000
0.866398 0.500000 0.000000
0.891064 0.500000 0.000000
0.916716 0.500000 0.000000
0.943396 0.500000 0.000000
0.971143 0.500000 0.000000
0.000000 0.470588 0.000000
0.000000 0.441176 0.000000
0.000000 0.411765 0.000000
0.000000 0.382353 0.000000
0.000000 0.352941 0.000000
0.000000 0.323529 0.000000
0.000000 0.294118 0.000000
0.000000 0.264706 0.000000
0.000000 0.235294 0.000000
0.000000 0.205882 0.000000
0.000000 0.176471 0.000000
0.000000 0.147059 0.000000
0.000000 0.117647 0.000000
0.000000 0.088235 0.000000
0.000000 0.058824 0.000000
0.000000 0.029412 0.000000
0.500341 0.497365 0.000000
0.501682 0.495729 0.000000
0.503023 0.494094 0.000000
0.504365 0.492458 0.000000
0.505706 0.490823 0.000000
0.507047 0.489187 0.000000
0.508388 0.487552 0.000000
0.509729 0.485916 0.000000
0.511070 0.484281 0.000000
0.512411 0.482645 0.000000
0.513753 0.481010 0.000000
0.515094 0.479375 0.000000
0.516435 0.477739 0.000000
0.517776 0.476104 0.000000
0.519117 0.474468 0.000000
0.520458 0.472833 0.000000
0.521799 0.471197 0.000000
0.523140 0.469562 0.000000
0.524482 0.467926 0.000000
0.525823 0.466291 0.000000
0.527164 0.464656 0.000000
0.528505 0.463020 0.000000
0.529846 0.461385 0.000000
0.531187 0.459749 0.000000
0.532528 0.458114 0.000000
0.533870 0.456478 0.000000
0.535211 0.454843 0.000000
0.536552 0.453207 0.000000
0.537893 0.451572 0.000000
0.539234 0.449936 0.000000
0.540575 0.448301 0.000000
0.541916 0.446666 0.000000
0.543258 0.445030 0.000000
0.544599 0.443395 0.000000
0.545940 0.441759 0.000000
0.547281 0.440124 0.000000
0.548622 0.438488 0.000000
0.549963 0.436853 0.000000
0.551304 0.435217 0.000000
0.552645 0.433582 0.000000
0.553987 0.431946 0.000000
0.555328 0.430311 0.000000
0.556669 0.428676 0.000000
0.558010 0.427040 0.000000
0.559351 0.425405 0.000000
0.560692 0.423769 0.000000
0.562033 0.422134 0.000000
0.563375 0.420498 0.000000
0.564716 0.418863 0.000000
0.566057 0.417227 0.000000
0.567398 0.415592 0.000000
0.568739 0.413957 0.000000
0.570080 0.412321 0.000000
0.571421 0.410686 0.000000
0.572763 0.409050 0.000000
0.574104 0.407415 0.000000
0.575445 0.405779 0.000000
0.576786 0.404144 0.000000
0.578127 0.402508 0.000000
0.579468 0.400873 0.000000
0.580809 0.399237 0.000000
0.582151 0.397602 0.000000
0.583492 0.395967 0.000000
0.584833 0.394331 0.000000
0.586174 0.392696 0.000000
0.587515 0.391060 0.000000
0.588856 0.389425 0.000000
0.590197 0.387789 0.000000
0.591538 0.386154 0.000000
0.592880 0.384518 0.000000
0.594221 0.382883 0.000000
0.595562 0.381247 0.000000
0.596903 0.379612 0.000000
0.598244 0.377977 0.000000
0.599585 0.376341 0.000000
0.600926 0.374706 0.000000
0.602268 0.373070 0.000000
0.603609 0.371435 0.000000
0.604950 0.369799 0.000000
0.606291 0.368164 0.000000
0.607632 0.366528 0.000000
0.608973 0.364893 0.000000
0.610314 0.363258 0.000000
0.611656 0.361622 0.000000
0.612997 0.359987 0.000000
0.614338 0.358351 0.000000
0.615679 0.356716 0.000000
0.617020 0.355080 0.000000
0.618361 0.353445 0.000000
0.619702 0.351809 0.000000
0.621043 0.350174 0.000000
0.622385 0.348538 0.000000
0.623726 0.346903 0.000000
0.625067 0.345268 0.000000
0.626408 0.343632 0.000000
0.627749 0.341997 0.000000
0.629090 0.340361 0.000000
0.630431 0.338726 0.000000
0.631773 0.337090 0.000000
0.633114 0.335455 0.000000
0.634455 0.333819 0.000000
0.635796 0.332184 0.000000
0.637137 0.330548 0.000000
0.638478 0.328913 0.000000
0.639819 0.327278 0.000000
0.641161 0.325642 0.000000
0.642502 0.324007 0.000000
0.643843 0.322371 0.000000
0.645184 0.320736 0.000000
0.646525 0.319100 0.000000
0.647866 0.317465 0.000000
0.649207 0.315829 0.000000
0.650548 0.314194 0.000000
0.651890 0.312559 0.000000
0.653231 0.310923 0.000000
0.654572 0.309288 0.000000
0.655913 0.307652 0.000000
0.657254 0.306017 0.000000
0.658595 0.304381 0.000000
0.659936 0.302746 0.000000
0.661278 0.301110 0.000000
0.662619 0.299475 0.000000
0.663960 0.297839 0.000000
0.665301 0.296204 0.000000
0.666642 0.294569 0.000000
0.667983 0.292933 0.000000
0.669324 0.291298 0.000000
0.670666 0.289662 0.000000
0.672007 0.288027 0.000000
0.673348 0.286391 0.000000
0.674689 0.284756 0.000000
0.676030 0.283120 0.000000
0.677371 0.281485 0.000000
[...]
POINT_DATA 7341
SCALARS UX float 1
LOOKUP_TABLE default
0.000000
0.000000
0.310500
0.310500
0.095675
0.084375
0.154639
0.083872
0.001006
-0.000000
0.000000
0.000000
0.000000
0.000000
0.000000
0.000000
0.000000
0.000000
0.000000
0.000000
0.000000
0.000000
0.000000
0.000000
0.000000
0.000000
0.000000
0.000000
0.000000
0.000000
0.000000
0.000000
0.000000
0.000000
0.000000
0.000000
0.000000
0.000000
0.000000
0.000000
0.000000
-0.000000
0.010190
0.031235
0.047241
0.059384
0.070983
0.082117
0.091515
0.100994
0.107421
0.112732
0.117798
0.122909
0.129587
0.136412
0.140560
0.148569
0.160277
0.165847
0.171424
0.177672
0.183767
0.190726
0.198133
0.208770
0.219149
0.229762
0.241053
0.252478
0.263984
0.275528
0.287105
0.298801
0.310500
0.310500
0.310500
0.310500
0.310500
0.310500
0.310500
0.310500
0.310500
0.310500
0.310500
0.310500
0.310500
0.310500
0.310500
0.310500
0.310500
0.310500
0.310500
0.310500
0.310500
0.310500
0.310500
0.310500
0.310500
0.310500
0.310500
0.310500
0.310500
0.310500
0.310500
0.310500
0.310500
0.297910
0.285274
0.272582
0.259778
0.246937
0.233873
0.220741
0.207322
0.193639
0.179728
0.166277
0.153570
0.141782
0.130827
0.120442
0.109953
0.095297
0.094917
0.094541
0.094182
0.093841
0.093500
0.093188
0.092889
0.092594
0.092327
0.092074
0.091870
0.091644
0.091393
0.091635
0.091689
0.091667
0.091690
0.092364
0.092409
0.092537
0.092669
0.092805
0.092945
0.093096
0.095070
0.095264
0.095579
0.095846
0.093232
0.093422
0.093519
0.093446
0.093678
0.094055
0.094383
0.094354
0.094253
0.094094
0.093889
0.093640
0.093243
0.092657
0.092064
0.091400
0.090737
0.090076
0.089462
0.088850
0.088284
0.087746
0.087272
0.086899
0.086545
0.086216
0.085999
0.085810
0.085674
0.085535
0.085411
0.085306
0.084871
0.084629
0.084205
0.083813
0.083673
0.083623
0.084071
0.084350
0.084342
0.084401
0.084514
0.084710
0.085036
0.085431
0.086054
0.086777
0.087768
0.088909
0.090404
0.092230
0.094296
0.096720
0.099325
0.102082
0.104977
0.107817
0.110825
0.113707
0.117331
0.122115
0.128680
0.135111
0.141213
0.147778
0.085714
0.079479
0.075109
0.070803
0.066687
0.062434
0.058676
0.055046
0.051390
0.048076
0.045283
0.041298
0.036920
0.032173
0.024425
0.015066
0.083174
0.082476
0.081801
0.081078
0.080358
0.079636
0.078918
0.078192
0.077459
0.076715
0.075997
0.075288
0.074586
0.073887
0.073190
0.072497
0.071804
0.071114
0.070424
0.069737
0.069051
0.068365
0.067682
0.067013
0.066355
0.065694
0.065033
0.064373
0.063716
0.063060
0.062407
0.061758
0.061113
0.060471
0.059832
0.059197
0.058566
0.057937
0.057313
0.056692
0.056074
0.055459
0.054848
0.054240
0.053635
0.053033
0.052434
0.051839
0.051247
0.050657
0.050071
0.049487
0.048907
0.048331
0.047757
0.047186
0.046619
0.046055
0.045494
0.044937
0.044383
0.043832
0.043286
0.042743
0.042204
0.041668
0.041138
0.040611
0.040090
0.039573
0.039061
0.038553
0.038051
0.037553
0.037061
0.036574
0.036094
0.035619
0.035148
0.034684
0.034227
0.033776
0.033331
0.032893
0.032463
0.032041
0.031626
0.031220
0.030821
0.030431
0.030049
0.029679
0.029318
0.028967
0.028627
0.028298
0.027982
0.027677
0.027385
0.027103
0.026834
0.026579
0.026338
0.026110
0.025897
0.025698
0.025515
0.025346
0.025195
0.025056
0.024931
0.024816
0.024710
0.024592
0.024444
0.024293
0.024144
0.024000
0.023861
0.023726
0.023597
0.023474
0.023356
0.023241
0.023129
0.023019
0.022911
0.022806
0.022700
0.022594
0.022488
0.022380
0.022271
0.022160
0.022046
0.021931
0.021813
0.021693
0.021573
0.021451
0.021328
0.021202
0.021075
0.020945
0.020814
0.020683
0.020549
0.020414
0.020277
0.020140
0.020000
0.019861
0.019721
0.019579
0.019438
0.019296
0.019151
0.019007
0.018861
0.018716
0.018567
0.018418
0.018267
0.018115
0.017962
0.017807
0.017654
0.017501
0.017347
0.017194
0.017039
0.016885
0.016732
0.016579
0.016425
0.016272
0.016118
0.015964
0.015811
0.015657
0.015504
0.015352
0.015201
0.015052
0.014904
0.014758
0.014613
0.014469
0.014328
0.014189
0.014051
0.013915
0.013781
0.013650
0.013520
0.013393
0.013269
0.013148
0.013029
0.012913
0.012799
0.012688
0.012581
0.012476
0.012373
0.012272
0.012171
0.012071
0.011971
0.011872
0.011772
0.011676
0.011581
0.011487
0.011397
0.011309
0.011222
0.011137
0.011053
0.010970
0.010888
0.010807
0.010726
0.010645
0.010566
0.010490
0.010415
0.010343
0.010272
0.010204
0.010138
0.010074
0.010009
0.009941
0.009868
0.009789
0.009705
0.009616
0.009524
0.009427
0.009328
0.009225
0.009115
0.009004
0.008891
0.008776
0.008659
0.008539
0.008419
0.008301
0.008184
0.008065
0.007943
0.007819
0.007693
0.007562
0.007428
0.007293
0.007157
0.007020
0.006879
0.006736
0.006589
0.006439
0.006286
0.006132
0.005975
0.005818
0.005661
0.005503
0.005344
0.005184
0.005023
0.004860
0.004696
0.004526
0.004355
0.004183
0.004013
0.003841
0.003673
0.003507
0.003344
0.003184
0.003026
0.002872
0.002722
0.002575
0.002429
0.002285
0.002138
0.001993
0.001849
0.001704
0.001562
0.001422
0.001282
0.001145
0.089926
0.090212
0.085190
-0.000431
-0.000325
0.107988
-0.000100
0.095348
0.087823
0.105607
0.084811
0.000338
0.056691
0.087778
0.070580
0.045962
0.080579
0.001371
0.001183
0.082916
0.030500
0.088800
0.080070
0.034454
0.082095
0.072567
0.090327
0.121527
0.123863
0.081371
0.002554
0.090906
0.088260
0.087441
0.088770
0.001780
0.079286
0.006779
0.080907
-0.000403
0.091162
0.086956
0.084143
0.088303
0.002790
0.082001
0.002298
0.080953
0.083909
0.091969
0.002258
0.079230
0.045818
0.068890
0.000935
0.079619
0.082084
0.064615
0.088815
0.101811
0.082608
0.091130
0.000107
0.000023
0.082290
0.082021
0.053128
0.135715
0.136154
-0.000156
0.112125
-0.000222
0.111600
-0.000401
0.083378
0.043110
0.000461
0.142258
0.029833
0.007108
0.020481
0.009863
0.009999
0.091057
0.090557
0.089492
0.090916
0.089579
0.086355
0.088823
0.088188
0.087655
0.087393
0.087383
0.087409
0.088124
0.091098
0.089948
0.089607
0.089303
0.080932
0.002097
0.080214
0.082955
0.083949
0.088064
-0.000605
0.079290
-0.000223
0.084888
0.104754
0.000570
0.054507
0.084752
0.075037
0.078695
0.002265
0.103273
0.021479
0.064231
0.075399
0.044351
0.000448
0.085299
0.080855
0.003864
0.078410
0.075663
0.087384
0.086774
0.028405
0.130496
0.081424
0.080716
0.001890
0.084573
0.080224
0.001556
0.080008
0.081431
0.059678
0.080425
0.000502
0.070670
0.081938
0.081502
0.012805
0.083563
0.061157
0.098720
0.087052
0.092695
-0.000045
0.098667
-0.000042
0.104297
0.082334
-0.000271
0.116546
-0.000339
0.117895
0.082684
0.128308
-0.000381
0.049817
0.130173
0.083145
0.000819
0.039154
0.010005
0.001751
0.020184
0.083779
0.084655
0.090439
0.090416
0.089919
0.087248
0.088715
0.085130
0.089386
0.088787
0.087999
0.087186
0.086967
0.086968
0.080930
0.082530
0.086963
0.087900
0.088117
0.080780
0.089961
0.086878
0.090635
0.078781
0.081629
0.079951
0.065290
0.000124
0.091166
0.079894
0.059580
0.075533
0.080421
0.075866
0.079205
0.085195
-0.000284
0.079958
0.047824
0.113797
0.124835
0.002024
0.004368
0.003595
0.081077
0.084037
0.003185
0.085770
0.082615
0.078852
0.058185
0.083631
0.086978
0.085482
0.079564
0.000854
0.122886
0.075348
0.075050
0.084228
0.001332
0.111448
0.076899
-0.000343
0.095414
0.092550
0.083219
-0.000534
0.084518
0.051609
0.079874
0.000238
0.000096
-0.000726
0.078474
0.001739
0.034621
0.079544
0.079262
0.077190
0.108440
0.099666
0.001233
0.067610
0.098021
0.041399
0.080232
0.037421
0.033180
0.000442
0.026627
0.016032
0.081080
0.084342
0.085666
0.087903
0.087626
0.002746
0.086893
0.074469
0.079101
0.087427
0.076163
0.085075
0.085219
0.088067
0.084387
0.084436
0.084179
0.082791
0.087169
0.084913
0.079547
0.079612
0.077633
0.084056
0.077505
0.054231
0.010663
0.080307
0.077915
0.079604
0.079097
0.082139
0.078442
0.084854
0.076630
-0.000483
0.090959
0.091504
0.001024
0.050614
0.082182
0.002427
0.002397
0.104665
0.023239
0.067525
0.003675
0.071765
0.040188
0.081471
0.084963
0.082919
0.000373
0.082083
0.000213
0.078408
0.102514
0.075100
0.075986
-0.000443
0.078589
0.078427
0.076789
0.046318
0.087274
0.001327
0.080076
0.072630
0.072313
0.064890
0.119416
0.056851
0.116541
0.076874
0.003068
0.078867
0.036345
0.032048
0.011073
0.017748
0.081689
0.079452
-0.000256
-0.000063
0.080710
-0.000148
0.082035
0.086264
0.094720
0.087350
0.084087
0.085127
0.084707
0.041306
0.083291
0.087297
0.085026
0.077797
0.079908
0.001026
0.082927
0.082423
0.083112
0.061437
0.088294
0.076465
0.087047
0.084288
0.077390
0.081201
0.078070
0.078445
0.076626
0.053823
0.047369
0.081986
0.076467
0.093243
0.084350
0.077487
0.076407
0.079585
0.082200
0.001607
-0.000081
0.085610
0.002106
0.073721
0.080370
0.070906
0.056988
0.049126
0.070193
0.079745
0.004161
0.069219
0.072566
0.083999
0.077473
0.076646
0.078567
0.077174
0.000441
0.039369
0.003273
0.082158
0.071689
0.064680
0.018488
0.000714
-0.000461
0.045966
0.078527
0.083224
0.002891
0.017700
0.087761
0.084690
0.075177
0.085188
0.111525
0.114732
0.069741
0.082458
0.081818
0.076927
0.069687
0.036146
0.001532
0.076760
0.099680
0.097404
0.077434
0.077994
0.005185
0.060960
0.075094
0.110131
0.081425
0.035301
0.070049
-0.000434
0.001674
0.053789
0.087024
0.043584
0.028057
0.076672
0.076707
0.076659
0.073375
0.081669
0.000576
0.084633
0.080250
0.085429
0.002000
0.081198
0.076511
0.090091
0.087935
0.080923
0.077897
0.082377
0.082722
0.077278
0.080766
0.075696
0.081784
0.077651
0.003115
0.075762
0.081365
0.070063
0.074432
0.083852
0.081348
0.076063
0.075243
0.081554
0.074173
0.090960
0.065836
0.003364
0.066207
0.034242
0.062721
0.019383
0.079262
0.005111
0.095995
0.079186
0.002449
0.082184
0.069186
0.073468
0.074172
0.071636
0.004533
0.064479
0.042726
0.001290
0.000801
0.074458
0.072144
0.004125
0.065374
0.078864
0.076152
0.076949
0.074550
0.079398
0.079639
0.052248
0.002217
0.045685
0.091166
0.003922
0.011677
0.072659
0.000237
0.036433
0.001727
0.073398
0.106206
0.081326
0.080996
0.069117
0.027852
0.080967
0.000758
0.000003
0.075282
0.079733
0.074087
0.074776
0.059515
0.115736
0.078390
0.075655
0.082298
0.081835
0.077709
0.078178
0.077242
0.079792
0.076959
0.075561
0.051127
-0.000220
0.079175
0.078878
0.084662
0.081876
0.084413
0.083559
0.074634
-0.000384
0.011695
0.071677
0.065604
0.075391
0.083973
0.084616
0.078912
0.029521
0.079183
0.121997
0.074325
0.074134
0.108523
0.076832
0.082118
0.075919
0.075344
0.080056
0.071623
0.000329
0.076694
0.002962
0.067755
0.056597
0.025160
0.061974
0.051494
0.005656
0.005434
0.066847
0.072409
0.000803
0.095539
0.070819
0.080878
0.003083
0.086867
0.072848
0.003148
0.081042
0.073036
0.002544
0.075992
0.074862
0.080699
0.074856
0.081813
0.066452
0.076081
0.076428
0.068117
0.071541
0.079380
0.055996
0.081292
0.070831
0.079309
0.044698
0.066374
0.006667
0.074940
0.100902
0.000396
0.003559
0.010693
0.001836
0.067365
0.015218
0.072463
0.001059
0.075967
0.019121
0.036513
0.084016
0.042224
0.003925
0.041865
0.000461
0.076607
0.074016
0.076811
0.075713
0.079279
0.074036
0.074467
0.078954
0.109406
-0.000124
0.078333
0.077300
0.004601
0.074965
0.077055
0.102761
0.074082
0.073458
0.081296
0.074727
0.081478
0.078074
0.079250
0.015048
0.078790
0.074007
0.074488
0.024696
0.075566
0.074450
0.082795
0.002545
0.069779
0.071619
0.075455
0.079698
0.001182
0.003317
0.032166
0.005376
0.013476
0.078786
0.005808
0.007788
0.074546
0.042851
0.066729
0.070032
0.001902
0.076330
0.065109
0.097870
0.071575
0.000984
0.004256
0.073911
0.003543
0.027856
0.001321
0.002430
0.071465
0.074664
0.073087
0.076537
0.075841
0.012732
0.064803
0.066640
0.074189
0.075059
0.064150
0.062784
0.069806
0.004886
0.096883
0.069137
0.082147
0.091664
0.068464
0.048752
0.076107
0.078976
0.079134
0.078238
0.000597
0.077287
0.006149
0.004507
0.004906
0.073329
0.048927
0.085403
0.100188
0.081116
0.028075
0.000268
0.007920
0.058848
0.072292
0.020663
0.071788
0.073010
0.075147
0.071704
0.072517
0.074912
0.071823
0.072006
0.079286
0.078406
0.077463
0.007798
0.080633
0.077321
0.105161
0.076419
0.073557
0.073146
0.076520
0.078603
0.076097
0.001875
0.068596
0.067199
0.072906
0.002815
0.074907
0.054812
0.069055
0.003999
0.074224
0.066538
0.001617
0.004319
0.072767
0.062468
0.077311
0.043679
0.054195
0.005972
0.069500
0.074369
0.064419
0.007595
0.064598
0.006449
0.005973
0.074497
0.067214
0.077537
0.005635
0.001632
0.072571
0.073504
0.013635
0.064522
0.070061
0.082309
0.004344
0.075993
0.078107
0.076662
0.069934
0.073856
0.074175
0.003911
0.069438
0.007763
0.087624
0.002451
0.073486
0.035871
0.000883
0.070733
0.074531
0.005396
0.075574
0.037102
0.071203
0.069069
0.005838
0.016683
0.071628
0.004829
0.076698
0.003497
0.001555
0.001551
0.065916
0.089299
0.019763
0.061588
0.072641
0.007020
0.074437
0.072780
0.051259
0.070700
0.076042
0.078830
0.077978
0.074520
0.069014
0.074342
0.073289
0.078349
0.057828
0.075597
0.062171
0.071991
0.071675
0.004015
0.073427
0.072318
0.072449
0.048016
0.004111
0.067304
0.091764
0.069101
0.067899
0.002107
0.065176
0.056916
0.032687
0.053961
0.005089
0.015329
0.060657
0.007063
0.078263
0.005664
0.066361
0.071589
0.064828
0.071212
0.002692
0.067856
0.044566
0.072956
0.069909
0.066646
0.003307
0.063221
0.004579
0.070182
0.069027
0.004972
0.073564
0.073124
0.002040
0.009099
0.062231
0.048486
0.060822
0.076424
0.076567
0.075588
0.069182
0.066061
0.001143
0.003742
0.007982
0.073521
0.005596
0.006804
0.000858
0.072472
0.002334
0.025912
0.067506
0.077837
0.005081
0.083339
0.064199
0.074141
0.010099
0.079720
0.071375
0.073478
0.004482
0.070495
0.074755
0.069994
0.069458
0.004512
0.072880
0.076279
0.073572
0.069263
0.066479
0.070424
0.076860
0.077684
0.077497
0.073555
0.003076
0.073702
0.069416
0.050178
0.071948
0.027898
0.070854
0.091267
0.062161
0.070548
0.002954
0.075921
0.066933
0.072027
0.065388
0.057082
0.006439
0.006703
0.072451
0.012798
0.064624
0.066529
0.001787
0.064038
0.062088
0.052252
0.005576
0.056200
0.059901
0.073563
0.006725
0.011681
0.007377
0.071804
0.007614
0.074160
0.062320
0.007272
0.006961
0.070781
0.057780
0.063591
0.004150
0.074541
0.062023
0.004610
0.006838
0.068523
0.004925
0.022058
0.067798
0.002538
0.073937
0.064318
0.072366
0.073337
0.061979
0.045089
0.037063
0.001550
0.061488
0.003028
0.063577
0.018022
0.038088
0.069641
0.071912
0.073697
0.075150
0.083159
0.003282
0.002262
0.064806
0.005489
0.001830
0.006241
0.011472
0.068659
0.005655
0.020153
0.057220
0.072847
0.069323
0.068912
0.067606
0.004133
0.072914
0.072265
0.071307
0.070736
0.069482
0.066445
0.010383
0.074662
0.024412
0.072271
0.071597
0.063284
0.076335
0.005021
0.071053
0.075164
0.071377
0.071609
0.002437
0.068394
0.057425
0.071586
0.010880
0.062200
0.004112
0.006801
0.069435
0.001310
0.007174
0.067236
0.065235
0.069604
0.071829
0.065338
0.057562
0.006122
0.073731
0.069282
0.060474
0.070103
0.072161
0.003145
0.062836
0.003034
0.002726
0.058522
0.058532
0.047872
0.052912
0.028599
0.006459
0.006548
0.017303
0.073306
0.059117
0.010935
0.069986
0.006162
0.060461
0.053577
0.070324
0.006982
0.043553
0.066972
0.003057
0.021757
0.005953
0.003403
0.003653
0.005555
0.059461
0.005383
0.003298
0.006468
0.061990
0.064897
0.004188
0.056829
0.005707
0.062785
0.073628
0.071090
0.068880
0.002395
0.066569
0.058606
0.068179
0.060842
0.073697
0.071934
0.066564
0.005056
0.006022
0.039824
0.016113
0.008833
0.076475
0.053362
0.071595
0.065410
0.063879
0.070877
0.071171
0.074337
0.072675
0.068385
0.052457
0.023756
0.067062
0.070600
0.004376
0.068276
0.063733
0.073530
0.071910
0.070377
0.069167
0.074408
0.070020
0.068498
0.063019
0.007539
0.028127
0.001597
0.071335
0.066205
0.068867
0.062559
0.007798
0.070303
0.074029
0.054376
0.069976
0.054166
0.069868
0.009839
0.071623
0.007530
0.059219
0.063828
0.067908
0.007459
0.028308
0.014051
0.004576
0.063472
0.063122
0.003447
0.005555
0.055635
0.068129
0.049296
0.050287
0.006911
0.012451
0.008066
0.070836
0.008239
0.050012
0.066019
0.054699
0.007976
0.070447
0.055770
0.022474
0.003737
0.061393
0.006578
0.019577
0.062015
0.009537
0.004626
0.048664
0.025370
0.002611
0.014972
0.067212
0.066236
0.007387
0.063792
0.057858
0.069227
0.005873
0.049717
0.006604
0.063124
0.059781
0.006729
0.003764
0.003423
0.007323
0.003108
0.019625
0.034480
0.071311
0.065966
0.063750
0.063723
0.041871
0.052164
0.006449
0.055550
0.059727
0.067896
0.066879
0.006036
0.070077
0.069379
0.024716
0.052416
0.069504
0.070380
0.070894
0.069852
0.020263
0.072613
0.052802
0.062028
0.067940
0.070474
0.002370
0.071544
0.065656
0.068187
0.062233
0.069403
0.070034
0.008369
0.062939
0.007793
0.054921
0.067733
0.067910
0.072376
0.056275
0.070973
0.069722
0.002861
0.067495
0.060986
0.064953
0.063850
0.064840
0.007013
0.068698
0.070519
0.008548
0.067419
0.070918
0.007525
0.068623
0.066639
0.004593
0.066276
0.053268
0.052319
0.028737
0.046111
0.051806
0.007660
0.007818
0.018042
0.051664
0.008662
0.047816
0.059963
0.003567
0.059070
0.006350
0.005945
0.063697
0.066819
0.008754
0.007718
0.048957
0.003895
0.059511
0.049159
0.008141
0.007016
0.061057
0.068779
0.004580
0.052961
0.062272
0.036726
0.008319
0.007860
0.057024
0.005410
0.007463
0.066677
0.068569
0.015961
0.069151
0.052807
0.038441
0.004400
0.066694
0.069925
0.064819
0.003537
0.017224
0.007664
0.066177
0.060796
0.006677
0.064902
0.060199
0.007144
0.058811
0.061203
0.020106
0.023269
0.005259
0.002973
0.015570
0.044498
0.043506
0.003320
0.063648
0.064590
0.008240
0.067718
0.068943
0.063974
0.068271
0.005222
0.063675
0.060478
0.070079
0.067733
0.069833
0.069146
0.067183
0.069809
0.017958
0.029645
0.007499
0.070220
0.017591
0.067809
0.071563
0.029145
0.008192
0.061497
0.068766
0.065133
0.066818
0.061431
0.068124
0.008508
0.067203
0.068369
0.006078
0.070338
0.069171
0.003823
0.061293
0.058429
0.064294
0.004689
0.007550
0.006380
0.048418
0.067257
0.050153
0.062213
0.059065
0.048892
0.017047
0.065544
0.015304
0.057544
0.008193
0.008646
0.068855
0.069146
0.058079
0.038863
0.006780
0.008585
0.060270
0.054931
0.004513
0.005217
0.062037
0.007706
0.004460
0.008224
0.068317
0.024873
0.037458
0.068174
0.002270
0.009504
0.005491
0.062704
0.067068
0.067061
0.062826
0.055300
0.003910
0.016607
0.007574
0.009821
0.012696
0.048790
0.014031
0.021372
0.005964
0.046626
0.066696
0.065952
0.025911
0.066680
0.008726
0.068740
0.058357
0.049103
0.007359
0.066500
0.062680
0.062903
0.068616
0.069149
0.065870
0.019870
0.065490
0.060985
0.065944
0.022032
0.008358
0.068034
0.063986
0.008929
0.008844
0.054505
0.066334
0.069641
0.055870
0.054025
0.007488
0.003845
0.004041
0.064679
0.004233
0.065442
0.006204
0.005424
0.062345
0.007882
0.006927
0.063549
0.066611
0.067936
0.060984
0.064751
0.003097
0.069599
0.034520
0.049897
0.046054
0.004879
0.007905
0.035569
0.032356
0.055579
0.006423
0.061980
0.007190
0.013441
0.047124
0.031749
0.051264
0.008448
0.043242
0.048568
0.066794
0.022030
0.008751
0.048381
0.015895
0.059952
0.066930
0.005063
0.056210
0.008551
0.008869
0.008465
0.009088
0.062450
0.003935
0.009308
0.020125
0.059951
0.006827
0.008616
0.060358
0.006168
0.013834
0.067339
0.004576
0.002597
0.063568
0.061788
0.008125
0.005126
0.045956
0.047549
0.065691
0.046191
0.047870
0.018652
0.059913
0.024337
0.042777
0.064648
0.059574
0.057346
0.007305
0.060702
0.001834
0.004490
0.006967
0.008450
0.064039
0.056839
0.008814
0.040631
0.060998
0.014781
0.063307
0.024688
0.007843
0.029492
0.058191
0.065134
0.068837
0.050277
0.030505
0.065328
0.065563
0.066458
0.060779
0.066776
0.065735
0.068053
0.058138
0.005228
0.061822
0.010512
0.066357
0.008735
0.068318
0.057102
0.065149
0.066127
0.060629
0.068011
0.065445
0.007745
0.006326
0.049231
0.006633
0.066718
0.012075
0.045431
0.005309
0.031787
0.008763
0.060988
0.069175
0.067447
0.061562
0.062873
0.009003
0.015851
0.064241
0.006768
0.069510
0.002960
0.064799
0.049536
0.004725
0.071262
0.009358
0.067535
0.057569
0.005735
0.046136
0.045169
0.020646
0.046101
0.016118
0.062091
0.009012
0.061340
0.009233
0.043372
0.062327
0.005442
0.009206
0.065152
0.027120
0.064376
0.055996
0.040417
0.005453
0.052157
0.059636
0.009659
0.007708
0.058416
0.058389
0.005947
0.009079
0.058659
0.048784
0.001767
0.067459
0.008876
0.009698
0.006798
0.066273
0.004472
0.008594
0.007942
0.018906
0.002505
0.007951
0.064247
0.062369
0.051424
0.011269
0.037033
0.024770
0.010096
0.011455
0.062684
0.045594
0.047277
0.065571
0.055616
0.005612
0.005327
0.045342
0.056426
0.016569
0.060627
0.009200
0.030066
0.009239
0.008585
0.045490
0.008223
0.026901
0.002843