# vtk DataFile Version 2.0
Test
ASCII
DATASET POLYDATA
POINTS 7341 float
0.000000 0.000000 0.000000
1.000000 0.000000 0.000000
1.000000 1.000000 0.000000
0.000000 1.000000 0.000000
0.000000 0.500000 0.000000
0.500000 0.500000 0.000000
1.000000 0.500000 0.000000
0.499000 0.499000 0.000000
0.900000 0.010000 0.000000
0.029412 0.000000 0.000000
0.058824 0.000000 0.000000
0.088235 0.000000 0.000000
0.117647 0.000000 0.000000
0.147059 0.000000 0.000000
0.176471 0.000000 0.000000
0.205882 0.000000 0.000000
0.235294 0.000000 0.000000
0.264706 0.000000 0.000000
0.294118 0.000000 0.000000
0.323529 0.000000 0.000000
0.352941 0.000000 0.000000
0.382353 0.000000 0.000000
0.411765 0.000000 0.000000
0.441176 0.000000 0.000000
0.470588 0.000000 0.000000
0.500000 0.000000 0.000000
0.529412 0.000000 0.000000
0.558824 0.000000 0.000000
0.588235 0.000000 0.000000
0.617647 0.000000 0.000000
0.647059 0.000000 0.000000
0.676471 0.000000 0.000000
0.705882 0.000000 0.000000
0.735294 0.000000 0.000000
0.764706 0.000000 0.000000
0.794118 0.000000 0.000000
0.823529 0.000000 0.000000
0.852941 0.000000 0.000000
0.882353 0.000000 0.000000
0.911765 0.000000 0.000000
0.941176 0.000000 0.000000
0.970588 0.000000 0.000000
1.000000 0.029412 0.000000
1.000000 0.058824 0.000000
1.000000 0.088235 0.000000
1.000000 0.117647 0.000000
1.000000 0.147059 0.000000
1.000000 0.176471 0.000000
1.000000 0.205882 0.000000
1.000000 0.235294 0.000000
1.000000 0.264706 0.000000
1.000000 0.294118 0.000000
1.000000 0.323529 0.000000
1.000000 0.352941 0.000000
1.000000 0.382353 0.000000
1.000000 0.411765 0.000000
1.000000 0.441176 0.000000
1.000000 0.470588 0.000000
1.000000 0.529412 0.000000
1.000000 0.558824 0.000000
1.000000 0.588235 0.000000
1.000000 0.617647 0.000000
1.000000 0.647059 0.000000
1.000000 0.676471 0.000000
1.000000 0.705882 0.000000
1.000000 0.735294 0.000000
1.000000 0.764706 0.000000
1.000000 0.794118 0.000000
1.000000 0.823529 0.000000
1.000000 0.852941 0.000000
1.000000 0.882353 0.000000
1.000000 0.911765 0.000000
1.000000 0.941176 0.000000
1.000000 0.970588 0.000000
0.970588 1.000000 0.000000
0.941176 1.000000 0.000000
0.911765 1.000000 0.000000
0.882353 1.000000 0.000000
0.852941 1.000000 0.000000
0.823529 1.000000 0.000000
0.794118 1.000000 0.000000
0.764706 1.000000 0.000000
0.735294 1.000000 0.000000
0.705882 1.000000 0.000000
0.676471 1.000000 0.000000
0.647059 1.000000 0.000000
0.617647 1.000000 0.000000
0.588235 1.000000 0.000000
0.558824 1.000000 0.000000
0.529412 1.000000 0.000000
0.500000 1.000000 0.000000
0.470588 1.000000 0.000000
0.441176 1.000000 0.000000
0.411765 1.000000 0.000000
0.382353 1.000000 0.000000
0.352941 1.000000 0.000000
0.323529 1.000000 0.000000
0.294118 1.000000 0.000000
0.264706 1.000000 0.000000
0.235294 1.000000 0.000000
0.205882 1.000000 0.000000
0.176471 1.000000 0.000000
0.147059 1.000000 0.000000
0.117647 1.000000 0.000000
0.088235 1.000000 0.000000
0.058824 1.000000 0.000000
0.029412 1.000000 0.000000
0.000000 0.970588 0.000000
0.000000 0.941176 0.000000
0.000000 0.911765 0.000000
0.000000 0.882353 0.000000
0.000000 0.852941 0.000000
0.000000 0.823529 0.000000
0.000000 0.794118 0.000000
0.000000 0.764706 0.000000
0.000000 0.735294 0.000000
0.000000 0.705882 0.000000
0.000000 0.676471 0.000000
0.000000 0.647059 0.000000
0.000000 0.617647 0.000000
0.000000 0.588235 0.000000
0.000000 0.558824 0.000000
0.000000 0.529412 0.000000
0.007246 0.500000 0.000000
0.014493 0.500000 0.000000
0.021739 0.500000 0.000000
0.028986 0.500000 0.000000
0.036232 0.500000 0.000000
0.043478 0.500000 0.000000
0.050725 0.500000 0.000000
0.057971 0.500000 0.000000
0.065217 0.500000 0.000000
0.072464 0.500000 0.000000
0.079710 0.500000 0.000000
0.086957 0.500000 0.000000
0.094203 0.500000 0.000000
0.101449 0.500000 0.000000
0.108696 0.500000 0.000000
0.115942 0.500000 0.000000
0.123188 0.500000 0.000000
0.130435 0.500000 0.000000
0.137681 0.500000 0.000000
0.144928 0.500000 0.000000
0.152174 0.500000 0.000000
0.159420 0.500000 0.000000
0.166667 0.500000 0.000000
0.173913 0.500000 0.000000
0.181159 0.500000 0.000000
0.188406 0.500000 0.000000
0.195652 0.500000 0.000000
0.202899 0.500000 0.000000
0.210145 0.500000 0.000000
0.217391 0.500000 0.000000
0.224638 0.500000 0.000000
0.231884 0.500000 0.000000
0.239130 0.500000 0.000000
0.246377 0.500000 0.000000
0.253623 0.500000 0.000000
0.260870 0.500000 0.000000
0.268116 0.500000 0.000000
0.275362 0.500000 0.000000
0.282609 0.500000 0.000000
0.289855 0.500000 0.000000
0.297101 0.500000 0.000000
0.304348 0.500000 0.000000
0.311594 0.500000 0.000000
0.318841 0.500000 0.000000
0.326087 0.500000 0.000000
0.333333 0.500000 0.000000
0.340580 0.500000 0.000000
0.347826 0.500000 0.000000
0.355072 0.500000 0.000000
0.362319 0.500000 0.000000
0.369565 0.500000 0.000000
0.376812 0.500000 0.000000
0.384058 0.500000 0.000000
0.391304 0.500000 0.000000
0.398551 0.500000 0.000000
0.405797 0.500000 0.000000
0.413043 0.500000 0.000000
0.420290 0.500000 0.000000
0.427536 0.500000 0.000000
0.434783 0.500000 0.000000
0.442029 0.500000 0.000000
0.449275 0.500000 0.000000
0.456522 0.500000 0.000000
0.463768 0.500000 0.000000
0.471014 0.500000 0.000000
0.478261 0.500000 0.000000
0.485507 0.500000 0.000000
0.492754 0.500000 0.000000
0.510004 0.500000 0.000000
0.520408 0.500000 0.000000
0.531229 0.500000 0.000000
0.542483 0.500000 0.000000
0.554187 0.500000 0.000000
0.566359 0.500000 0.000000
0.579019 0.500000 0.000000
0.592185 0.500000 0.000000
0.605877 0.500000 0.000000
0.620118 0.500000 0.000000
0.634929 0.500000 0.000000
0.650332 0.500000 0.000000
0.666352 0.500000 0.000000
0.683013 0.500000 0.000000
0.700340 0.500000 0.000000
0.718361 0.500000 0.000000
0.737103 0.500000 0.000000
0.756595 0.500000 0.000000
0.776867 0.500000 0.000000
0.797950 0.500000 0.000000
0.819877 0.500000 0.000000
0.842681 0.500000 0.000000
0.866398 0.500000 0.000000
0.891064 0.500000 0.000000
0.916716 0.500000 0.000000
0.943396 0.500000 0.000000
0.971143 0.500000 0.000000
0.000000 0.470588 0.000000
0.000000 0.441176 0.000000
0.000000 0.411765 0.000000
0.000000 0.382353 0.000000
0.000000 0.352941 0.000000
0.000000 0.323529 0.000000
0.000000 0.294118 0.000000
0.000000 0.264706 0.000000
0.000000 0.235294 0.000000
0.000000 0.205882 0.000000
0.000000 0.176471 0.000000
0.000000 0.147059 0.000000
0.000000 0.117647 0.000000
0.000000 0.088235 0.000000
0.000000 0.058824 0.000000
0.000000 0.029412 0.000000
0.500341 0.497365 0.000000
0.501682 0.495729 0.000000
0.503023 0.494094 0.000000
0.504365 0.492458 0.000000
0.505706 0.490823 0.000000
0.507047 0.489187 0.000000
0.508388 0.487552 0.000000
0.509729 0.485916 0.000000
0.511070 0.484281 0.000000
0.512411 0.482645 0.000000
0.513753 0.481010 0.000000
0.515094 0.479375 0.000000
0.516435 0.477739 0.000000
0.517776 0.476104 0.000000
0.519117 0.474468 0.000000
0.520458 0.472833 0.000000
0.521799 0.471197 0.000000
0.523140 0.469562 0.000000
0.524482 0.467926 0.000000
0.525823 0.466291 0.000000
0.527164 0.464656 0.000000
0.528505 0.463020 0.000000
0.529846 0.461385 0.000000
0.531187 0.459749 0.000000
0.532528 0.458114 0.000000
0.533870 0.456478 0.000000
0.535211 0.454843 0.000000
0.536552 0.453207 0.000000
0.537893 0.451572 0.000000
0.539234 0.449936 0.000000
0.540575 0.448301 0.000000
0.541916 0.446666 0.000000
0.543258 0.445030 0.000000
0.544599 0.443395 0.000000
0.545940 0.441759 0.000000
0.547281 0.440124 0.000000
0.548622 0.438488 0.000000
0.549963 0.436853 0.000000
0.551304 0.435217 0.000000
0.552645 0.433582 0.000000
0.553987 0.431946 0.000000
0.555328 0.430311 0.000000
0.556669 0.428676 0.000000
0.558010 0.427040 0.000000
0.559351 0.425405 0.000000
0.560692 0.423769 0.000000
0.562033 0.422134 0.000000
0.563375 0.420498 0.000000
0.564716 0.418863 0.000000
0.566057 0.417227 0.000000
0.567398 0.415592 0.000000
0.568739 0.413957 0.000000
0.570080 0.412321 0.000000
0.571421 0.410686 0.000000
0.572763 0.409050 0.000000
0.574104 0.407415 0.000000
0.575445 0.405779 0.000000
0.576786 0.404144 0.000000
0.578127 0.402508 0.000000
0.579468 0.400873 0.000000
0.580809 0.399237 0.000000
0.582151 0.397602 0.000000
0.583492 0.395967 0.000000
0.584833 0.394331 0.000000
0.586174 0.392696 0.000000
0.587515 0.391060 0.000000
0.588856 0.389425 0.000000
0.590197 0.387789 0.000000
0.591538 0.386154 0.000000
0.592880 0.384518 0.000000
0.594221 0.382883 0.000000
0.595562 0.381247 0.000000
0.596903 0.379612 0.000000
0.598244 0.377977 0.000000
0.599585 0.376341 0.000000
0.600926 0.374706 0.000000
0.602268 0.373070 0.000000
0.603609 0.371435 0.000000
0.604950 0.369799 0.000000
0.606291 0.368164 0.000000
0.607632 0.366528 0.000000
0.608973 0.364893 0.000000
0.610314 0.363258 0.000000
0.611656 0.361622 0.000000
0.612997 0.359987 0.000000
0.614338 0.358351 0.000000
0.615679 0.356716 0.000000
0.617020 0.355080 0.000000
0.618361 0.353445 0.000000
0.619702 0.351809 0.000000
0.621043 0.350174 0.000000
0.622385 0.348538 0.000000
0.623726 0.346903 0.000000
0.625067 0.345268 0.000000
0.626408 0.343632 0.000000
0.627749 0.341997 0.000000
0.629090 0.340361 0.000000
0.630431 0.338726 0.000000
0.631773 0.337090 0.000000
0.633114 0.335455 0.000000
0.634455 0.333819 0.000000
0.635796 0.332184 0.000000
0.637137 0.330548 0.000000
0.638478 0.328913 0.000000
0.639819 0.327278 0.000000
0.641161 0.325642 0.000000
0.642502 0.324007 0.000000
0.643843 0.322371 0.000000
0.645184 0.320736 0.000000
0.646525 0.319100 0.000000
0.647866 0.317465 0.000000
0.649207 0.315829 0.000000
0.650548 0.314194 0.000000
0.651890 0.312559 0.000000
0.653231 0.310923 0.000000
0.654572 0.309288 0.000000
0.655913 0.307652 0.000000
0.657254 0.306017 0.000000
0.658595 0.304381 0.000000
0.659936 0.302746 0.000000
0.661278 0.301110 0.000000
0.662619 0.299475 0.000000
0.663960 0.297839 0.000000
0.665301 0.296204 0.000000
0.666642 0.294569 0.000000
0.667983 0.292933 0.000000
0.669324 0.291298 0.000000
0.670666 0.289662 0.000000
0.672007 0.288027 0.000000
0.673348 0.286391 0.000000
0.674689 0.284756 0.000000
0.676030 0.283120 0.000000
0.677371 0.281485 0.000000
[...]
POINT_DATA 7341
SCALARS UX float 1
LOOKUP_TABLE default
0.000000
0.000000
0.083000
0.083000
0.041917
0.034616
0.035888
0.033512
0.000464
-0.000000
0.000000
0.000000
0.000000
0.000000
0.000000
0.000000
0.000000
0.000000
0.000000
0.000000
0.000000
0.000000
0.000000
0.000000
0.000000
0.000000
0.000000
0.000000
0.000000
0.000000
0.000000
0.000000
0.000000
0.000000
0.000000
0.000000
0.000000
0.000000
0.000000
0.000000
0.000000
-0.000000
0.002829
0.004297
0.005721
0.007217
0.008841
0.010557
0.012385
0.014237
0.016224
0.018289
0.020446
0.022709
0.025070
0.027569
0.030230
0.032996
0.038855
0.041809
0.044740
0.047611
0.050435
0.053233
0.056000
0.058740
0.061461
0.064176
0.066878
0.069573
0.072264
0.074949
0.077633
0.080318
0.083000
0.083000
0.083000
0.083000
0.083000
0.083000
0.083000
0.083000
0.083000
0.083000
0.083000
0.083000
0.083000
0.083000
0.083000
0.083000
0.083000
0.083000
0.083000
0.083000
0.083000
0.083000
0.083000
0.083000
0.083000
0.083000
0.083000
0.083000
0.083000
0.083000
0.083000
0.083000
0.083000
0.080446
0.077895
0.075344
0.072803
0.070266
0.067741
0.065219
0.062711
0.060214
0.057724
0.055251
0.052788
0.050336
0.047904
0.045473
0.043136
0.041090
0.040630
0.039959
0.039398
0.039124
0.039011
0.038691
0.038679
0.037266
0.035874
0.035891
0.035588
0.035193
0.035792
0.035731
0.036967
0.034391
0.035499
0.035941
0.036350
0.036280
0.036350
0.034800
0.034952
0.035350
0.036407
0.034530
0.034814
0.035024
0.035187
0.035623
0.035406
0.035375
0.035694
0.034517
0.035067
0.035309
0.033947
0.035225
0.034106
0.034618
0.033576
0.034111
0.034592
0.033637
0.033898
0.034111
0.034275
0.034496
0.033350
0.034616
0.033950
0.034437
0.033727
0.034430
0.033773
0.034410
0.034064
0.033811
0.033474
0.034297
0.034122
0.034076
0.033690
0.034379
0.033790
0.034452
0.034510
0.034305
0.034178
0.034125
0.034120
0.034120
0.034112
0.034101
0.034107
0.034105
0.034112
0.034114
0.034124
0.034136
0.034154
0.034180
0.034217
0.034265
0.034325
0.034397
0.034482
0.034583
0.034700
0.034840
0.035000
0.035187
0.035403
0.035638
0.030535
0.028122
0.026286
0.024651
0.023155
0.021682
0.020253
0.018829
0.017436
0.016061
0.014699
0.013301
0.011869
0.010356
0.008401
0.005710
0.032932
0.032139
0.031755
0.031422
0.031201
0.030958
0.030758
0.030575
0.030400
0.030238
0.030088
0.029942
0.029809
0.029682
0.029560
0.029439
0.029328
0.029167
0.029013
0.028870
0.028731
0.028594
0.028461
0.028329
0.028199
0.028070
0.027943
0.027816
0.027691
0.027566
0.027442
0.027320
0.027197
0.027075
0.026953
0.026832
0.026711
0.026590
0.026469
0.026348
0.026227
0.026107
0.025986
0.025865
0.025745
0.025625
0.025505
0.025385
0.025265
0.025145
0.025026
0.024906
0.024786
0.024667
0.024547
0.024428
0.024308
0.024188
0.024069
0.023949
0.023830
0.023710
0.023590
0.023471
0.023351
0.023231
0.023112
0.022992
0.022872
0.022752
0.022632
0.022513
0.022393
0.022273
0.022153
0.022033
0.021913
0.021793
0.021673
0.021553
0.021433
0.021313
0.021193
0.021072
0.020952
0.020832
0.020712
0.020592
0.020471
0.020351
0.020231
0.020111
0.019990
0.019870
0.019750
0.019629
0.019509
0.019389
0.019269
0.019148
0.019028
0.018908
0.018788
0.018668
0.018548
0.018427
0.018307
0.018188
0.018068
0.017948
0.017828
0.017708
0.017588
0.017469
0.017349
0.017230
0.017110
0.016991
0.016872
0.016753
0.016634
0.016515
0.016396
0.016277
0.016159
0.016041
0.015923
0.015805
0.015687
0.015570
0.015453
0.015336
0.015219
0.015102
0.014985
0.014869
0.014753
0.014637
0.014521
0.014405
0.014290
0.014175
0.014060
0.013945
0.013831
0.013717
0.013603
0.013489
0.013375
0.013262
0.013149
0.013036
0.012923
0.012811
0.012699
0.012587
0.012476
0.012364
0.012253
0.012142
0.012032
0.011922
0.011812
0.011702
0.011593
0.011484
0.011375
0.011266
0.011158
0.011050
0.010943
0.010835
0.010729
0.010622
0.010516
0.010410
0.010304
0.010199
0.010094
0.009989
0.009885
0.009781
0.009677
0.009574
0.009471
0.009369
0.009266
0.009165
0.009063
0.008962
0.008861
0.008761
0.008661
0.008562
0.008463
0.008364
0.008266
0.008168
0.008071
0.007974
0.007877
0.007781
0.007685
0.007590
0.007495
0.007401
0.007307
0.007214
0.007120
0.007028
0.006936
0.006844
0.006753
0.006662
0.006572
0.006482
0.006392
0.006304
0.006215
0.006127
0.006040
0.005953
0.005867
0.005781
0.005695
0.005610
0.005526
0.005442
0.005358
0.005275
0.005192
0.005110
0.005029
0.004948
0.004867
0.004787
0.004708
0.004629
0.004550
0.004472
0.004394
0.004317
0.004241
0.004165
0.004089
0.004014
0.003940
0.003865
0.003792
0.003719
0.003647
0.003574
0.003503
0.003432
0.003361
0.003291
0.003221
0.003152
0.003083
0.003015
0.002947
0.002879
0.002812
0.002746
0.002680
0.002614
0.002548
0.002483
0.002418
0.002354
0.002289
0.002225
0.002161
0.002098
0.002035
0.001972
0.001909
0.001846
0.001783
0.001720
0.001658
0.001595
0.001532
0.001468
0.001405
0.001341
0.001276
0.001211
0.001145
0.001079
0.001011
0.000942
0.000874
0.000804
0.000735
0.000665
0.000596
0.000531
0.029446
0.029337
0.029392
0.001904
0.001191
0.032330
0.000966
0.032176
0.029821
0.017793
0.032190
0.000847
0.019957
0.030469
0.009888
0.015622
0.032287
0.000812
0.002988
0.029561
0.005131
0.031143
0.032361
0.011236
0.029765
0.025760
0.032249
0.024695
0.032449
0.030051
0.003771
0.029459
0.029362
0.030087
0.029653
0.000732
0.031824
0.002316
0.030434
0.001380
0.029399
0.029346
0.029273
0.031064
0.001383
0.031659
0.001112
0.030740
0.030017
0.034173
0.000957
0.031972
0.006548
0.024392
0.000805
0.032191
0.032241
0.022854
0.032074
0.032216
0.011887
0.013813
0.000858
0.000893
0.029531
0.029918
0.018465
0.029769
0.032733
0.001017
0.032374
0.001065
0.020030
0.001463
0.029417
0.014193
0.002164
0.032787
0.009611
0.003486
0.006850
0.002943
0.003076
0.029444
0.029521
0.029588
0.029402
0.029314
0.029387
0.029655
0.030756
0.030291
0.029967
0.029994
0.029936
0.029764
0.033082
0.031764
0.031538
0.031452
0.031089
0.000960
0.031434
0.032604
0.028468
0.028461
0.002915
0.029054
0.002214
0.028754
0.019483
0.001773
0.019419
0.029220
0.011863
0.029937
0.001631
0.030250
0.005098
0.022991
0.030927
0.015150
0.003931
0.028537
0.031073
0.001669
0.030496
0.030573
0.028398
0.030566
0.009053
0.029905
0.031229
0.032257
0.000803
0.029080
0.028588
0.000754
0.032324
0.030567
0.008194
0.032354
0.000758
0.025403
0.030078
0.032340
0.003596
0.032270
0.021599
0.015505
0.032220
0.032208
0.000888
0.032243
0.002093
0.032293
0.029761
0.001094
0.022237
0.001186
0.032345
0.029603
0.027039
0.001624
0.017197
0.032602
0.029548
0.002548
0.012756
0.006336
0.003426
0.006692
0.029393
0.029434
0.029424
0.029146
0.028994
0.029154
0.029271
0.029017
0.029469
0.029542
0.029602
0.030108
0.029739
0.030132
0.031600
0.032444
0.030245
0.030813
0.030891
0.032107
0.032204
0.030673
0.033013
0.030876
0.031512
0.030950
0.010108
0.003183
0.030671
0.030449
0.010262
0.030713
0.028632
0.031007
0.029613
0.029549
0.003502
0.028774
0.016695
0.030126
0.030071
0.004959
0.006074
0.001530
0.028529
0.029942
0.001669
0.030067
0.028439
0.030543
0.020798
0.028579
0.028258
0.029726
0.029337
0.001781
0.026759
0.030890
0.030831
0.029202
0.001571
0.022203
0.030574
0.002286
0.030267
0.015740
0.013602
0.002498
0.030462
0.018119
0.030618
0.001826
0.001968
0.003156
0.030973
0.001589
0.006290
0.028892
0.028954
0.030238
0.030181
0.030314
0.004427
0.024193
0.017531
0.013754
0.030777
0.012233
0.010744
0.001860
0.008524
0.006482
0.028381
0.028388
0.028401
0.028455
0.028473
0.001652
0.028405
0.026914
0.028404
0.028546
0.031024
0.028723
0.030035
0.031590
0.029009
0.028869
0.028726
0.028334
0.030821
0.029748
0.030500
0.030674
0.030561
0.029017
0.030934
0.008506
0.003529
0.031688
0.030409
0.030303
0.029125
0.032501
0.028004
0.027899
0.028565
0.004121
0.028570
0.017421
0.002827
0.017941
0.028458
0.002413
0.006266
0.028135
0.005810
0.024363
0.002388
0.029902
0.013378
0.027939
0.027993
0.029396
0.003218
0.028634
0.005255
0.029518
0.020847
0.030731
0.030602
0.002455
0.030580
0.029241
0.028418
0.016236
0.030223
0.002689
0.028691
0.026413
0.030010
0.011486
0.030079
0.020501
0.024379
0.030056
0.005424
0.030203
0.011786
0.010224
0.007907
0.008256
0.030360
0.028763
0.003435
0.003413
0.028570
0.004834
0.028452
0.028387
0.028468
0.028434
0.028866
0.028630
0.028327
0.008055
0.029813
0.028373
0.029843
0.030217
0.027912
0.001592
0.028183
0.028178
0.029626
0.021913
0.031927
0.027287
0.030962
0.029372
0.028910
0.031139
0.030016
0.030297
0.030317
0.009186
0.007408
0.028491
0.030089
0.030296
0.029507
0.030200
0.030712
0.030250
0.032749
0.006813
0.004785
0.026942
0.003756
0.028966
0.027672
0.029353
0.011282
0.017378
0.029520
0.027950
0.002407
0.029232
0.029986
0.027851
0.029791
0.029878
0.028852
0.028259
0.004316
0.012907
0.006754
0.028828
0.029909
0.023325
0.009542
0.002741
0.004044
0.009077
0.027909
0.027881
0.002467
0.004896
0.016017
0.027986
0.030222
0.028020
0.024439
0.027635
0.028838
0.028991
0.028132
0.030552
0.029331
0.007038
0.005769
0.028309
0.028322
0.019139
0.028179
0.028049
0.007318
0.021946
0.029825
0.028006
0.028584
0.011427
0.025354
0.004618
0.002736
0.019296
0.028349
0.014860
0.009896
0.028482
0.029014
0.028668
0.012891
0.027841
0.002970
0.027891
0.027846
0.028913
0.002419
0.029076
0.028864
0.033010
0.028423
0.030560
0.029762
0.028008
0.028049
0.029957
0.029020
0.027505
0.028296
0.028070
0.002281
0.029949
0.028423
0.029309
0.030120
0.027789
0.028965
0.029889
0.027605
0.027425
0.028267
0.018815
0.028210
0.003211
0.028583
0.007998
0.022725
0.005579
0.027554
0.003080
0.026528
0.028162
0.003725
0.027538
0.029160
0.029966
0.028002
0.026157
0.002357
0.012476
0.014430
0.003712
0.004329
0.027813
0.029774
0.003064
0.028340
0.027660
0.029585
0.029422
0.028664
0.028583
0.028171
0.018767
0.007494
0.016015
0.026757
0.008026
0.009106
0.029089
0.004745
0.012569
0.002517
0.029764
0.025960
0.028622
0.026818
0.025136
0.011068
0.014506
0.006490
0.005611
0.028545
0.015655
0.028079
0.029677
0.021574
0.026393
0.029984
0.027549
0.027831
0.028219
0.028111
0.028291
0.027465
0.027630
0.029755
0.030102
0.010219
0.005090
0.027918
0.031330
0.027921
0.028948
0.027862
0.027846
0.028643
0.003725
0.003979
0.029917
0.028306
0.030164
0.028606
0.027855
0.029822
0.007128
0.028577
0.028131
0.029708
0.027884
0.022624
0.029177
0.027499
0.029760
0.029757
0.027508
0.027492
0.006495
0.025501
0.004474
0.027631
0.012244
0.007045
0.022533
0.018447
0.009603
0.002985
0.028625
0.027184
0.005500
0.020572
0.025909
0.027385
0.003355
0.025097
0.027421
0.008398
0.027363
0.028181
0.003447
0.029285
0.028774
0.027470
0.027666
0.027499
0.027871
0.027504
0.027797
0.029039
0.027700
0.027640
0.020300
0.027389
0.013896
0.028304
0.015491
0.024066
0.008612
0.030558
0.026270
0.006137
0.001734
0.003971
0.003907
0.028868
0.004788
0.029618
0.004083
0.030766
0.010597
0.008853
0.017098
0.009922
0.003313
0.014009
0.005978
0.029213
0.029797
0.029544
0.029416
0.027336
0.028157
0.028540
0.027386
0.025544
0.005471
0.027210
0.027353
0.003049
0.029556
0.027400
0.022270
0.029580
0.029512
0.027379
0.027744
0.027498
0.028206
0.027930
0.004231
0.027928
0.027024
0.029862
0.006368
0.030976
0.029518
0.027985
0.003151
0.029240
0.027608
0.029548
0.029950
0.007151
0.003891
0.008954
0.003702
0.004730
0.017223
0.002983
0.003264
0.027054
0.015124
0.028547
0.029231
0.004969
0.027586
0.023672
0.022171
0.029465
0.007241
0.003878
0.025797
0.004739
0.012106
0.005554
0.008069
0.027775
0.028813
0.029344
0.027120
0.027618
0.010198
0.028260
0.028625
0.029284
0.029169
0.028126
0.013844
0.027413
0.002380
0.024437
0.027226
0.025350
0.024785
0.024975
0.017110
0.027098
0.027016
0.027016
0.026976
0.006858
0.027699
0.003547
0.009175
0.003753
0.030003
0.010983
0.018881
0.023781
0.027386
0.007784
0.006204
0.003109
0.021398
0.028148
0.006177
0.027906
0.028448
0.029008
0.029364
0.027065
0.027181
0.027412
0.027249
0.027338
0.027058
0.026915
0.009574
0.027394
0.027122
0.023807
0.027358
0.029363
0.029617
0.027465
0.028259
0.029442
0.000826
0.029129
0.027821
0.029436
0.004723
0.029332
0.019885
0.027321
0.004203
0.029910
0.026935
0.008329
0.009588
0.024108
0.027010
0.026503
0.011087
0.019578
0.004298
0.026763
0.017436
0.023437
0.003244
0.028117
0.003463
0.002918
0.027069
0.028605
0.026939
0.002629
0.006692
0.029163
0.029040
0.011282
0.026215
0.025957
0.023563
0.004776
0.026721
0.027092
0.026788
0.025607
0.027053
0.015905
0.001815
0.027552
0.002736
0.023175
0.004944
0.029234
0.009849
0.007591
0.029182
0.029120
0.010080
0.027479
0.013758
0.029446
0.027408
0.003685
0.005387
0.029240
0.004070
0.027106
0.004357
0.005148
0.007630
0.028497
0.020422
0.011566
0.022413
0.028293
0.010653
0.028946
0.028475
0.018211
0.027818
0.026947
0.026975
0.026900
0.026850
0.027102
0.026896
0.026804
0.026933
0.020996
0.027255
0.026752
0.027334
0.029610
0.005495
0.027082
0.029364
0.029265
0.016653
0.004000
0.024581
0.022953
0.024502
0.027401
0.007871
0.023332
0.025937
0.010102
0.019326
0.004568
0.005409
0.022023
0.003930
0.022114
0.002653
0.024215
0.026594
0.028122
0.028128
0.005824
0.028704
0.016327
0.028807
0.026908
0.027039
0.009160
0.027878
0.005578
0.029113
0.016077
0.004989
0.026680
0.026638
0.006342
0.003652
0.026530
0.011981
0.026860
0.026594
0.026650
0.026603
0.027017
0.024767
0.007930
0.005882
0.011446
0.028830
0.004363
0.004030
0.007346
0.026532
0.008746
0.012970
0.026149
0.023873
0.002364
0.021607
0.028079
0.026549
0.011108
0.018796
0.029104
0.028681
0.002119
0.027933
0.026575
0.027785
0.026649
0.005214
0.029001
0.026898
0.026523
0.028976
0.026828
0.029054
0.026434
0.026938
0.026964
0.026855
0.001546
0.026726
0.025435
0.017802
0.029086
0.008889
0.029067
0.021862
0.026227
0.026700
0.001238
0.026408
0.027170
0.029228
0.028195
0.020598
0.004298
0.003419
0.029067
0.004788
0.026812
0.026330
0.008965
0.016192
0.023615
0.018903
0.006060
0.025960
0.021632
0.025994
0.004963
0.004743
0.003169
0.028549
0.004335
0.020737
0.027609
0.003830
0.003393
0.028130
0.025247
0.027804
0.010202
0.026551
0.024798
0.002210
0.011254
0.025067
0.006460
0.006963
0.028636
0.007510
0.026532
0.026587
0.026277
0.026332
0.027623
0.017313
0.014881
0.008390
0.027468
0.001475
0.023077
0.006125
0.011013
0.022937
0.026315
0.026084
0.026000
0.020299
0.006016
0.009338
0.027744
0.005655
0.008240
0.002941
0.012212
0.017382
0.004721
0.012740
0.025769
0.028648
0.028857
0.027752
0.027427
0.001990
0.026504
0.028785
0.029015
0.028990
0.028770
0.026717
0.004178
0.026419
0.008091
0.025953
0.026724
0.014699
0.026561
0.004760
0.026417
0.026182
0.026147
0.028942
0.006094
0.026334
0.025551
0.026108
0.004146
0.013122
0.001835
0.004251
0.028970
0.000538
0.004796
0.027276
0.028118
0.028878
0.028388
0.027002
0.020238
0.002770
0.022312
0.026919
0.025194
0.028896
0.028921
0.001328
0.026612
0.010320
0.009062
0.022614
0.016168
0.018463
0.024900
0.010091
0.006432
0.005368
0.006292
0.025602
0.021069
0.012722
0.021061
0.002707
0.027203
0.024231
0.026225
0.003306
0.011950
0.026528
0.007298
0.008095
0.005484
0.001468
0.001763
0.006520
0.026769
0.010645
0.010002
0.005075
0.022194
0.021474
0.006896
0.024290
0.002607
0.027670
0.018666
0.028342
0.027833
0.009319
0.026612
0.015010
0.028516
0.027350
0.026208
0.026083
0.024247
0.006971
0.005748
0.016047
0.012602
0.003630
0.020060
0.024699
0.028596
0.027080
0.026435
0.028846
0.025812
0.025817
0.026411
0.027603
0.025179
0.007552
0.026271
0.025834
0.001884
0.028621
0.026589
0.026444
0.025440
0.028850
0.028658
0.025899
0.025531
0.026158
0.022767
0.004509
0.008202
0.008697
0.028808
0.028313
0.028651
0.027759
0.004209
0.014785
0.026464
0.019861
0.028073
0.012810
0.028789
0.004034
0.028732
0.003806
0.023722
0.027820
0.028603
0.004714
0.014231
0.005379
0.002158
0.025880
0.026720
0.010175
0.007706
0.021626
0.027772
0.024102
0.019504
0.006177
0.005142
0.005166
0.024876
0.004753
0.023270
0.020001
0.015186
0.004131
0.025637
0.022757
0.013926
0.001785
0.026167
0.011761
0.007458
0.027469
0.012564
0.001979
0.012903
0.009263
0.009962
0.013379
0.018576
0.028277
0.005583
0.027778
0.021060
0.025135
0.007148
0.023855
0.006929
0.017352
0.027093
0.006334
0.010739
0.006925
0.003123
0.008700
0.006880
0.011113
0.025316
0.027231
0.026175
0.026301
0.017324
0.025240
0.002969
0.025953
0.027121
0.028414
0.027503
0.005256
0.028245
0.028047
0.008771
0.013884
0.026046
0.026068
0.026078
0.025848
0.007259
0.025413
0.025080
0.026417
0.028574
0.028693
0.009587
0.025950
0.025911
0.024882
0.020404
0.028631
0.028714
0.004611
0.022577
0.003819
0.020886
0.025954
0.019419
0.025285
0.013624
0.028538
0.025485
0.001404
0.028385
0.027283
0.028015
0.027694
0.028280
0.005497
0.028516
0.025328
0.003577
0.028434
0.028654
0.003607
0.028564
0.027400
0.011569
0.027472
0.016133
0.020619
0.010635
0.023312
0.025254
0.005969
0.006816
0.007477
0.020433
0.003628
0.014076
0.027186
0.008385
0.019481
0.002735
0.002648
0.026876
0.025752
0.004909
0.003620
0.024555
0.001833
0.026977
0.024307
0.003899
0.005999
0.025879
0.025618
0.001956
0.022764
0.027489
0.016246
0.005112
0.005231
0.017319
0.011394
0.007214
0.024211
0.027971
0.006234
0.024705
0.021844
0.011924
0.007779
0.028345
0.024720
0.027182
0.010812
0.006841
0.011985
0.028132
0.018869
0.007374
0.027970
0.027040
0.003311
0.026902
0.026026
0.008079
0.009330
0.008071
0.001436
0.014111
0.018389
0.012848
0.010430
0.027716
0.027085
0.004913
0.028300
0.028489
0.025813
0.025408
0.002283
0.026032
0.027146
0.028548
0.027777
0.028609
0.025950
0.028404
0.025961
0.013597
0.015278
0.003192
0.028337
0.006701
0.028356
0.025521
0.009371
0.004112
0.027527
0.028777
0.025694
0.028255
0.018373
0.024793
0.004499
0.028284
0.028399
0.007647
0.028474
0.026344
0.009948
0.026503
0.025696
0.027158
0.010988
0.012682
0.008597
0.016095
0.028166
0.021918
0.027383
0.026995
0.024631
0.007507
0.025098
0.006289
0.026643
0.006094
0.005560
0.024146
0.024829
0.026726
0.012989
0.003065
0.004389
0.025403
0.018419
0.002094
0.002243
0.025376
0.003542
0.011475
0.003867
0.025686
0.015047
0.017091
0.025132
0.001086
0.003954
0.011923
0.027555
0.025617
0.027733
0.027820
0.026006
0.011176
0.006979
0.007666
0.013148
0.013793
0.014972
0.005651
0.008788
0.008802
0.019362
0.028135
0.028055
0.009988
0.025390
0.005064
0.028393
0.025573
0.024458
0.005986
0.024047
0.027523
0.026882
0.028055
0.028422
0.025561
0.014554
0.028070
0.025744
0.027486
0.008603
0.004082
0.024533
0.027767
0.004881
0.004751
0.019421
0.028229
0.028396
0.023655
0.017703
0.005214
0.001644
0.008058
0.025542
0.009578
0.027995
0.002719
0.002319
0.026726
0.004810
0.007927
0.027814
0.028178
0.028264
0.027226
0.023450
0.001481
0.028273
0.015340
0.020968
0.023608
0.002176
0.006605
0.012126
0.011380
0.025236
0.012731
0.026794
0.009396
0.014552
0.020101
0.012128
0.018498
0.007987
0.022896
0.024626
0.028032
0.009430
0.007176
0.020160
0.007073
0.027184
0.027780
0.010654
0.026270
0.003599
0.005513
0.006409
0.005155
0.025197
0.001820
0.004991
0.015293
0.026355
0.003025
0.004134
0.026229
0.002658
0.005802
0.023953
0.001959
0.001239
0.027637
0.025227
0.006538
0.012109
0.023752
0.021086
0.027971
0.024047
0.021950
0.008087
0.027007
0.010059
0.013952
0.027836
0.026992
0.026617
0.003328
0.025311
0.000868
0.011259
0.008427
0.005626
0.027177
0.026475
0.012997
0.018228
0.027207
0.006392
0.024856
0.015718
0.005654
0.011411
0.025428
0.024823
0.028301
0.022839
0.016339
0.027946
0.024177
0.024005
0.026363
0.028108
0.025478
0.028196
0.026721
0.002387
0.027354
0.004325
0.028092
0.005198
0.024921
0.020307
0.023331
0.028545
0.025567
0.028020
0.027465
0.008139
0.002715
0.017597
0.012443
0.025522
0.005148
0.015276
0.008784
0.016005
0.004370
0.026195
0.028258
0.028120
0.027261
0.027507
0.004649
0.005860
0.027769
0.004751
0.024356
0.001269
0.023551
0.016736
0.009142
0.026081
0.005146
0.028690
0.024967
0.011968
0.017632
0.020307
0.009478
0.024090
0.007474
0.026861
0.006607
0.027197
0.005938
0.022686
0.023485
0.010171
0.005539
0.027475
0.011371
0.027754
0.026274
0.014238
0.002416
0.021060
0.026899
0.005385
0.009238
0.025993
0.025788
0.012578
0.004587
0.024900
0.019774
0.000834
0.028027
0.007061
0.005232
0.002974
0.027894
0.002042
0.004054
0.008636
0.008486
0.001097
0.003611
0.024391
0.024515
0.025239
0.004790
0.013319
0.016428
0.013914
0.014203
0.027447
0.023814
0.018432
0.027912
0.026233
0.012397
0.002275
0.021163
0.026371
0.014970
0.026526
0.005371
0.016905
0.003883
0.006123
0.016697
0.005678
0.010737
0.001349
0.001610
0.015478
0.027018