# vtk DataFile Version 2.0
Test
ASCII
DATASET POLYDATA
POINTS 7341 float
0.000000 0.000000 0.000000
1.000000 0.000000 0.000000
1.000000 1.000000 0.000000
0.000000 1.000000 0.000000
0.000000 0.500000 0.000000
0.500000 0.500000 0.000000
1.000000 0.500000 0.000000
0.499000 0.499000 0.000000
0.900000 0.010000 0.000000
0.029412 0.000000 0.000000
0.058824 0.000000 0.000000
0.088235 0.000000 0.000000
0.117647 0.000000 0.000000
0.147059 0.000000 0.000000
0.176471 0.000000 0.000000
0.205882 0.000000 0.000000
0.235294 0.000000 0.000000
0.264706 0.000000 0.000000
0.294118 0.000000 0.000000
0.323529 0.000000 0.000000
0.352941 0.000000 0.000000
0.382353 0.000000 0.000000
0.411765 0.000000 0.000000
0.441176 0.000000 0.000000
0.470588 0.000000 0.000000
0.500000 0.000000 0.000000
0.529412 0.000000 0.000000
0.558824 0.000000 0.000000
0.588235 0.000000 0.000000
0.617647 0.000000 0.000000
0.647059 0.000000 0.000000
0.676471 0.000000 0.000000
0.705882 0.000000 0.000000
0.735294 0.000000 0.000000
0.764706 0.000000 0.000000
0.794118 0.000000 0.000000
0.823529 0.000000 0.000000
0.852941 0.000000 0.000000
0.882353 0.000000 0.000000
0.911765 0.000000 0.000000
0.941176 0.000000 0.000000
0.970588 0.000000 0.000000
1.000000 0.029412 0.000000
1.000000 0.058824 0.000000
1.000000 0.088235 0.000000
1.000000 0.117647 0.000000
1.000000 0.147059 0.000000
1.000000 0.176471 0.000000
1.000000 0.205882 0.000000
1.000000 0.235294 0.000000
1.000000 0.264706 0.000000
1.000000 0.294118 0.000000
1.000000 0.323529 0.000000
1.000000 0.352941 0.000000
1.000000 0.382353 0.000000
1.000000 0.411765 0.000000
1.000000 0.441176 0.000000
1.000000 0.470588 0.000000
1.000000 0.529412 0.000000
1.000000 0.558824 0.000000
1.000000 0.588235 0.000000
1.000000 0.617647 0.000000
1.000000 0.647059 0.000000
1.000000 0.676471 0.000000
1.000000 0.705882 0.000000
1.000000 0.735294 0.000000
1.000000 0.764706 0.000000
1.000000 0.794118 0.000000
1.000000 0.823529 0.000000
1.000000 0.852941 0.000000
1.000000 0.882353 0.000000
1.000000 0.911765 0.000000
1.000000 0.941176 0.000000
1.000000 0.970588 0.000000
0.970588 1.000000 0.000000
0.941176 1.000000 0.000000
0.911765 1.000000 0.000000
0.882353 1.000000 0.000000
0.852941 1.000000 0.000000
0.823529 1.000000 0.000000
0.794118 1.000000 0.000000
0.764706 1.000000 0.000000
0.735294 1.000000 0.000000
0.705882 1.000000 0.000000
0.676471 1.000000 0.000000
0.647059 1.000000 0.000000
0.617647 1.000000 0.000000
0.588235 1.000000 0.000000
0.558824 1.000000 0.000000
0.529412 1.000000 0.000000
0.500000 1.000000 0.000000
0.470588 1.000000 0.000000
0.441176 1.000000 0.000000
0.411765 1.000000 0.000000
0.382353 1.000000 0.000000
0.352941 1.000000 0.000000
0.323529 1.000000 0.000000
0.294118 1.000000 0.000000
0.264706 1.000000 0.000000
0.235294 1.000000 0.000000
0.205882 1.000000 0.000000
0.176471 1.000000 0.000000
0.147059 1.000000 0.000000
0.117647 1.000000 0.000000
0.088235 1.000000 0.000000
0.058824 1.000000 0.000000
0.029412 1.000000 0.000000
0.000000 0.970588 0.000000
0.000000 0.941176 0.000000
0.000000 0.911765 0.000000
0.000000 0.882353 0.000000
0.000000 0.852941 0.000000
0.000000 0.823529 0.000000
0.000000 0.794118 0.000000
0.000000 0.764706 0.000000
0.000000 0.735294 0.000000
0.000000 0.705882 0.000000
0.000000 0.676471 0.000000
0.000000 0.647059 0.000000
0.000000 0.617647 0.000000
0.000000 0.588235 0.000000
0.000000 0.558824 0.000000
0.000000 0.529412 0.000000
0.007246 0.500000 0.000000
0.014493 0.500000 0.000000
0.021739 0.500000 0.000000
0.028986 0.500000 0.000000
0.036232 0.500000 0.000000
0.043478 0.500000 0.000000
0.050725 0.500000 0.000000
0.057971 0.500000 0.000000
0.065217 0.500000 0.000000
0.072464 0.500000 0.000000
0.079710 0.500000 0.000000
0.086957 0.500000 0.000000
0.094203 0.500000 0.000000
0.101449 0.500000 0.000000
0.108696 0.500000 0.000000
0.115942 0.500000 0.000000
0.123188 0.500000 0.000000
0.130435 0.500000 0.000000
0.137681 0.500000 0.000000
0.144928 0.500000 0.000000
0.152174 0.500000 0.000000
0.159420 0.500000 0.000000
0.166667 0.500000 0.000000
0.173913 0.500000 0.000000
0.181159 0.500000 0.000000
0.188406 0.500000 0.000000
0.195652 0.500000 0.000000
0.202899 0.500000 0.000000
0.210145 0.500000 0.000000
0.217391 0.500000 0.000000
0.224638 0.500000 0.000000
0.231884 0.500000 0.000000
0.239130 0.500000 0.000000
0.246377 0.500000 0.000000
0.253623 0.500000 0.000000
0.260870 0.500000 0.000000
0.268116 0.500000 0.000000
0.275362 0.500000 0.000000
0.282609 0.500000 0.000000
0.289855 0.500000 0.000000
0.297101 0.500000 0.000000
0.304348 0.500000 0.000000
0.311594 0.500000 0.000000
0.318841 0.500000 0.000000
0.326087 0.500000 0.000000
0.333333 0.500000 0.000000
0.340580 0.500000 0.000000
0.347826 0.500000 0.000000
0.355072 0.500000 0.000000
0.362319 0.500000 0.000000
0.369565 0.500000 0.000000
0.376812 0.500000 0.000000
0.384058 0.500000 0.000000
0.391304 0.500000 0.000000
0.398551 0.500000 0.000000
0.405797 0.500000 0.000000
0.413043 0.500000 0.000000
0.420290 0.500000 0.000000
0.427536 0.500000 0.000000
0.434783 0.500000 0.000000
0.442029 0.500000 0.000000
0.449275 0.500000 0.000000
0.456522 0.500000 0.000000
0.463768 0.500000 0.000000
0.471014 0.500000 0.000000
0.478261 0.500000 0.000000
0.485507 0.500000 0.000000
0.492754 0.500000 0.000000
0.510004 0.500000 0.000000
0.520408 0.500000 0.000000
0.531229 0.500000 0.000000
0.542483 0.500000 0.000000
0.554187 0.500000 0.000000
0.566359 0.500000 0.000000
0.579019 0.500000 0.000000
0.592185 0.500000 0.000000
0.605877 0.500000 0.000000
0.620118 0.500000 0.000000
0.634929 0.500000 0.000000
0.650332 0.500000 0.000000
0.666352 0.500000 0.000000
0.683013 0.500000 0.000000
0.700340 0.500000 0.000000
0.718361 0.500000 0.000000
0.737103 0.500000 0.000000
0.756595 0.500000 0.000000
0.776867 0.500000 0.000000
0.797950 0.500000 0.000000
0.819877 0.500000 0.000000
0.842681 0.500000 0.000000
0.866398 0.500000 0.000000
0.891064 0.500000 0.000000
0.916716 0.500000 0.000000
0.943396 0.500000 0.000000
0.971143 0.500000 0.000000
0.000000 0.470588 0.000000
0.000000 0.441176 0.000000
0.000000 0.411765 0.000000
0.000000 0.382353 0.000000
0.000000 0.352941 0.000000
0.000000 0.323529 0.000000
0.000000 0.294118 0.000000
0.000000 0.264706 0.000000
0.000000 0.235294 0.000000
0.000000 0.205882 0.000000
0.000000 0.176471 0.000000
0.000000 0.147059 0.000000
0.000000 0.117647 0.000000
0.000000 0.088235 0.000000
0.000000 0.058824 0.000000
0.000000 0.029412 0.000000
0.500341 0.497365 0.000000
0.501682 0.495729 0.000000
0.503023 0.494094 0.000000
0.504365 0.492458 0.000000
0.505706 0.490823 0.000000
0.507047 0.489187 0.000000
0.508388 0.487552 0.000000
0.509729 0.485916 0.000000
0.511070 0.484281 0.000000
0.512411 0.482645 0.000000
0.513753 0.481010 0.000000
0.515094 0.479375 0.000000
0.516435 0.477739 0.000000
0.517776 0.476104 0.000000
0.519117 0.474468 0.000000
0.520458 0.472833 0.000000
0.521799 0.471197 0.000000
0.523140 0.469562 0.000000
0.524482 0.467926 0.000000
0.525823 0.466291 0.000000
0.527164 0.464656 0.000000
0.528505 0.463020 0.000000
0.529846 0.461385 0.000000
0.531187 0.459749 0.000000
0.532528 0.458114 0.000000
0.533870 0.456478 0.000000
0.535211 0.454843 0.000000
0.536552 0.453207 0.000000
0.537893 0.451572 0.000000
0.539234 0.449936 0.000000
0.540575 0.448301 0.000000
0.541916 0.446666 0.000000
0.543258 0.445030 0.000000
0.544599 0.443395 0.000000
0.545940 0.441759 0.000000
0.547281 0.440124 0.000000
0.548622 0.438488 0.000000
0.549963 0.436853 0.000000
0.551304 0.435217 0.000000
0.552645 0.433582 0.000000
0.553987 0.431946 0.000000
0.555328 0.430311 0.000000
0.556669 0.428676 0.000000
0.558010 0.427040 0.000000
0.559351 0.425405 0.000000
0.560692 0.423769 0.000000
0.562033 0.422134 0.000000
0.563375 0.420498 0.000000
0.564716 0.418863 0.000000
0.566057 0.417227 0.000000
0.567398 0.415592 0.000000
0.568739 0.413957 0.000000
0.570080 0.412321 0.000000
0.571421 0.410686 0.000000
0.572763 0.409050 0.000000
0.574104 0.407415 0.000000
0.575445 0.405779 0.000000
0.576786 0.404144 0.000000
0.578127 0.402508 0.000000
0.579468 0.400873 0.000000
0.580809 0.399237 0.000000
0.582151 0.397602 0.000000
0.583492 0.395967 0.000000
0.584833 0.394331 0.000000
0.586174 0.392696 0.000000
0.587515 0.391060 0.000000
0.588856 0.389425 0.000000
0.590197 0.387789 0.000000
0.591538 0.386154 0.000000
0.592880 0.384518 0.000000
0.594221 0.382883 0.000000
0.595562 0.381247 0.000000
0.596903 0.379612 0.000000
0.598244 0.377977 0.000000
0.599585 0.376341 0.000000
0.600926 0.374706 0.000000
0.602268 0.373070 0.000000
0.603609 0.371435 0.000000
0.604950 0.369799 0.000000
0.606291 0.368164 0.000000
0.607632 0.366528 0.000000
0.608973 0.364893 0.000000
0.610314 0.363258 0.000000
0.611656 0.361622 0.000000
0.612997 0.359987 0.000000
0.614338 0.358351 0.000000
0.615679 0.356716 0.000000
0.617020 0.355080 0.000000
0.618361 0.353445 0.000000
0.619702 0.351809 0.000000
0.621043 0.350174 0.000000
0.622385 0.348538 0.000000
0.623726 0.346903 0.000000
0.625067 0.345268 0.000000
0.626408 0.343632 0.000000
0.627749 0.341997 0.000000
0.629090 0.340361 0.000000
0.630431 0.338726 0.000000
0.631773 0.337090 0.000000
0.633114 0.335455 0.000000
0.634455 0.333819 0.000000
0.635796 0.332184 0.000000
0.637137 0.330548 0.000000
0.638478 0.328913 0.000000
0.639819 0.327278 0.000000
0.641161 0.325642 0.000000
0.642502 0.324007 0.000000
0.643843 0.322371 0.000000
0.645184 0.320736 0.000000
0.646525 0.319100 0.000000
0.647866 0.317465 0.000000
0.649207 0.315829 0.000000
0.650548 0.314194 0.000000
0.651890 0.312559 0.000000
0.653231 0.310923 0.000000
0.654572 0.309288 0.000000
0.655913 0.307652 0.000000
0.657254 0.306017 0.000000
0.658595 0.304381 0.000000
0.659936 0.302746 0.000000
0.661278 0.301110 0.000000
0.662619 0.299475 0.000000
0.663960 0.297839 0.000000
0.665301 0.296204 0.000000
0.666642 0.294569 0.000000
0.667983 0.292933 0.000000
0.669324 0.291298 0.000000
0.670666 0.289662 0.000000
0.672007 0.288027 0.000000
0.673348 0.286391 0.000000
0.674689 0.284756 0.000000
0.676030 0.283120 0.000000
0.677371 0.281485 0.000000
[...]
POINT_DATA 7341
SCALARS UX float 1
LOOKUP_TABLE default
0.000000
0.000000
0.128000
0.128000
0.066061
0.055347
0.053396
0.052446
0.000520
-0.000000
0.000000
0.000000
0.000000
0.000000
0.000000
0.000000
0.000000
0.000000
0.000000
0.000000
0.000000
0.000000
0.000000
0.000000
0.000000
0.000000
0.000000
0.000000
0.000000
0.000000
0.000000
0.000000
0.000000
0.000000
0.000000
0.000000
0.000000
0.000000
0.000000
0.000000
0.000000
-0.000000
0.003299
0.005036
0.006777
0.008685
0.010827
0.013159
0.015703
0.018304
0.021157
0.024147
0.027296
0.030625
0.034142
0.037978
0.042367
0.047252
0.059823
0.065476
0.070648
0.075313
0.079722
0.084034
0.088201
0.092282
0.096322
0.100342
0.104326
0.108293
0.112248
0.116192
0.120132
0.124068
0.128000
0.128000
0.128000
0.128000
0.128000
0.128000
0.128000
0.128000
0.128000
0.128000
0.128000
0.128000
0.128000
0.128000
0.128000
0.128000
0.128000
0.128000
0.128000
0.128000
0.128000
0.128000
0.128000
0.128000
0.128000
0.128000
0.128000
0.128000
0.128000
0.128000
0.128000
0.128000
0.128000
0.124273
0.120551
0.116828
0.113119
0.109414
0.105731
0.102052
0.098397
0.094766
0.091143
0.087559
0.083999
0.080460
0.076937
0.073414
0.069822
0.065027
0.064389
0.063590
0.062884
0.062494
0.062444
0.062199
0.062445
0.060960
0.060149
0.060372
0.060877
0.060670
0.062240
0.062355
0.063814
0.058954
0.061507
0.062050
0.062382
0.062118
0.062191
0.059371
0.059742
0.060017
0.061243
0.058394
0.058707
0.058741
0.058936
0.059808
0.060131
0.060430
0.061471
0.060170
0.060835
0.060748
0.057453
0.060193
0.057701
0.058017
0.054143
0.055256
0.056355
0.053263
0.053846
0.054519
0.054944
0.055606
0.052928
0.056331
0.055258
0.056511
0.055327
0.056901
0.055746
0.057104
0.056475
0.055925
0.055248
0.057038
0.056639
0.056318
0.055254
0.056467
0.054764
0.055881
0.055506
0.054328
0.053740
0.053314
0.052967
0.052665
0.052352
0.052118
0.051951
0.051775
0.051615
0.051415
0.051399
0.051382
0.051378
0.051381
0.051412
0.051454
0.051500
0.051560
0.051643
0.051750
0.051883
0.052048
0.052248
0.052483
0.052763
0.053067
0.050882
0.045512
0.041189
0.037443
0.034357
0.031509
0.028959
0.026489
0.024143
0.021776
0.019302
0.016638
0.013782
0.010741
0.007401
0.004107
0.050880
0.048805
0.047895
0.047045
0.046438
0.045812
0.045313
0.044838
0.044617
0.044323
0.043970
0.043619
0.043254
0.043017
0.042777
0.042503
0.042225
0.041955
0.041701
0.041469
0.041248
0.041029
0.040817
0.040612
0.040412
0.040223
0.040013
0.039806
0.039610
0.039417
0.039227
0.039039
0.038858
0.038666
0.038479
0.038296
0.038104
0.037917
0.037733
0.037550
0.037368
0.037187
0.037006
0.036827
0.036646
0.036467
0.036288
0.036110
0.035932
0.035753
0.035576
0.035397
0.035219
0.035042
0.034863
0.034685
0.034507
0.034328
0.034149
0.033970
0.033791
0.033611
0.033432
0.033252
0.033072
0.032892
0.032712
0.032531
0.032350
0.032169
0.031987
0.031806
0.031624
0.031442
0.031260
0.031077
0.030894
0.030711
0.030528
0.030345
0.030161
0.029977
0.029793
0.029609
0.029424
0.029240
0.029055
0.028870
0.028685
0.028500
0.028315
0.028130
0.027944
0.027759
0.027573
0.027388
0.027202
0.027017
0.026831
0.026646
0.026460
0.026275
0.026089
0.025904
0.025719
0.025534
0.025349
0.025164
0.024980
0.024795
0.024611
0.024427
0.024243
0.024059
0.023876
0.023693
0.023510
0.023327
0.023145
0.022963
0.022781
0.022600
0.022419
0.022239
0.022058
0.021878
0.021699
0.021520
0.021341
0.021163
0.020985
0.020808
0.020631
0.020455
0.020279
0.020103
0.019928
0.019754
0.019580
0.019406
0.019233
0.019060
0.018889
0.018717
0.018547
0.018377
0.018207
0.018038
0.017871
0.017704
0.017537
0.017372
0.017206
0.017042
0.016878
0.016714
0.016551
0.016389
0.016227
0.016065
0.015905
0.015745
0.015585
0.015426
0.015268
0.015110
0.014953
0.014796
0.014640
0.014485
0.014330
0.014176
0.014022
0.013869
0.013717
0.013565
0.013414
0.013264
0.013114
0.012965
0.012817
0.012669
0.012522
0.012375
0.012230
0.012085
0.011940
0.011797
0.011654
0.011512
0.011370
0.011229
0.011089
0.010950
0.010811
0.010674
0.010537
0.010401
0.010265
0.010130
0.009996
0.009863
0.009730
0.009598
0.009468
0.009337
0.009208
0.009079
0.008952
0.008825
0.008698
0.008573
0.008448
0.008325
0.008202
0.008080
0.007958
0.007838
0.007718
0.007600
0.007482
0.007365
0.007248
0.007133
0.007019
0.006905
0.006792
0.006680
0.006568
0.006458
0.006348
0.006239
0.006132
0.006025
0.005918
0.005813
0.005708
0.005605
0.005502
0.005400
0.005298
0.005198
0.005098
0.005000
0.004902
0.004805
0.004709
0.004613
0.004519
0.004425
0.004333
0.004241
0.004150
0.004059
0.003970
0.003881
0.003793
0.003706
0.003619
0.003534
0.003450
0.003366
0.003282
0.003200
0.003118
0.003037
0.002956
0.002877
0.002797
0.002719
0.002641
0.002563
0.002486
0.002409
0.002333
0.002258
0.002183
0.002108
0.002034
0.001960
0.001886
0.001812
0.001738
0.001664
0.001590
0.001517
0.001442
0.001367
0.001291
0.001215
0.001137
0.001059
0.000981
0.000902
0.000823
0.000745
0.000667
0.000594
0.045330
0.043233
0.043592
0.001673
0.001225
0.046616
0.001138
0.046425
0.046991
0.023497
0.046502
0.001115
0.028264
0.048151
0.012286
0.020862
0.046693
0.001014
0.002431
0.044033
0.006040
0.051944
0.047067
0.012628
0.044533
0.039956
0.054703
0.033638
0.046665
0.045167
0.002949
0.044481
0.043275
0.046599
0.046951
0.000825
0.046648
0.002676
0.045836
0.001345
0.043879
0.043319
0.043384
0.050826
0.001574
0.047907
0.001255
0.046231
0.050160
0.057251
0.001106
0.046613
0.007836
0.036879
0.001038
0.046607
0.046614
0.033652
0.046239
0.046459
0.015050
0.017773
0.001124
0.001135
0.043984
0.044897
0.025717
0.041571
0.047024
0.001158
0.046655
0.001171
0.026753
0.001381
0.043744
0.018274
0.001831
0.046997
0.009430
0.002200
0.005164
0.001056
0.001693
0.043807
0.045087
0.046296
0.043605
0.043180
0.043512
0.046894
0.049599
0.047469
0.046414
0.046497
0.046661
0.047058
0.055894
0.054013
0.053513
0.053089
0.046627
0.001078
0.046658
0.050164
0.041895
0.042249
0.002875
0.043091
0.002463
0.044837
0.026040
0.002242
0.027223
0.045395
0.015075
0.044515
0.002027
0.042649
0.006007
0.033911
0.044072
0.019888
0.003551
0.043689
0.046333
0.001932
0.044907
0.044158
0.041879
0.051498
0.008517
0.041876
0.047078
0.048161
0.000896
0.045061
0.046757
0.000911
0.047132
0.046327
0.009993
0.046884
0.001007
0.039135
0.045275
0.046849
0.004171
0.046681
0.031231
0.020184
0.046571
0.046518
0.001083
0.046540
0.002401
0.046586
0.044503
0.001159
0.029995
0.001187
0.046532
0.044134
0.037205
0.001478
0.023571
0.046878
0.044022
0.002107
0.015577
0.005461
0.002760
0.004866
0.043647
0.043725
0.044614
0.043646
0.042787
0.042936
0.043109
0.042842
0.045693
0.046424
0.046844
0.046853
0.046596
0.047982
0.047230
0.049328
0.049026
0.050831
0.051764
0.047956
0.054523
0.051789
0.055600
0.045396
0.047154
0.045974
0.012633
0.003643
0.043455
0.043033
0.012895
0.043490
0.042187
0.044381
0.044323
0.046633
0.003239
0.042458
0.022569
0.042393
0.042226
0.004322
0.005292
0.001748
0.042021
0.050129
0.002003
0.050075
0.041873
0.045129
0.029687
0.044132
0.041757
0.047756
0.043660
0.002285
0.036844
0.043834
0.043838
0.045623
0.002010
0.030017
0.043237
0.002471
0.042706
0.020589
0.017533
0.002541
0.043079
0.025018
0.045456
0.002218
0.002322
0.003017
0.045431
0.002005
0.007534
0.042705
0.042866
0.044437
0.042510
0.042777
0.003900
0.036461
0.023201
0.017375
0.045827
0.014517
0.011662
0.002304
0.007796
0.005085
0.041777
0.041766
0.041780
0.042395
0.042788
0.002017
0.041833
0.042733
0.046414
0.043457
0.044562
0.044686
0.050247
0.053257
0.044990
0.045019
0.044765
0.041702
0.052096
0.048708
0.045331
0.045545
0.044863
0.044960
0.045228
0.010457
0.004088
0.047107
0.044670
0.045218
0.043235
0.049305
0.041165
0.041455
0.042278
0.004263
0.039945
0.023118
0.003486
0.024626
0.044050
0.003031
0.005905
0.039199
0.006939
0.036832
0.002920
0.042381
0.016616
0.041108
0.042391
0.048638
0.003764
0.044491
0.005094
0.044082
0.028135
0.043534
0.043286
0.002577
0.043259
0.043480
0.041870
0.021683
0.042650
0.003372
0.042299
0.041519
0.042611
0.014608
0.042280
0.029158
0.033264
0.044208
0.004709
0.044894
0.013658
0.010737
0.007659
0.007971
0.042888
0.042448
0.003775
0.003829
0.042085
0.004792
0.041893
0.041782
0.039767
0.042970
0.044877
0.044365
0.041674
0.009899
0.049781
0.042439
0.049334
0.044521
0.041051
0.002057
0.043431
0.043501
0.049395
0.031786
0.053683
0.043599
0.052243
0.046748
0.042850
0.046613
0.044501
0.044749
0.044366
0.011412
0.008983
0.044082
0.044139
0.042769
0.047805
0.044418
0.044590
0.045138
0.049819
0.006927
0.005343
0.037535
0.004672
0.040669
0.042340
0.041302
0.014372
0.023672
0.041635
0.043122
0.002914
0.041456
0.042703
0.041093
0.044084
0.043942
0.040456
0.041558
0.004989
0.015822
0.006312
0.045559
0.042337
0.034629
0.010087
0.003326
0.004285
0.011301
0.041025
0.041068
0.003076
0.005772
0.021056
0.042538
0.043789
0.042115
0.033450
0.038333
0.040502
0.046489
0.043448
0.044644
0.041307
0.008527
0.005494
0.041653
0.039518
0.025628
0.041422
0.041226
0.006877
0.031851
0.043455
0.038961
0.044710
0.013194
0.039039
0.004701
0.003452
0.027020
0.039620
0.019291
0.010546
0.042034
0.042929
0.042435
0.016583
0.040977
0.003545
0.041586
0.040962
0.040510
0.003069
0.048036
0.042687
0.055444
0.042063
0.045960
0.044137
0.042850
0.043054
0.044187
0.047933
0.044188
0.043794
0.045606
0.002817
0.043765
0.044022
0.041246
0.043452
0.041877
0.047392
0.043745
0.040520
0.040758
0.041607
0.025237
0.039654
0.004021
0.040303
0.009858
0.033474
0.006667
0.040544
0.003746
0.036830
0.044185
0.004669
0.041580
0.041445
0.043042
0.041123
0.040864
0.002822
0.016049
0.018530
0.004506
0.005093
0.040817
0.042505
0.003782
0.039919
0.042539
0.043577
0.043542
0.040191
0.046744
0.043847
0.026148
0.007547
0.021299
0.037217
0.008006
0.009372
0.040865
0.005406
0.015214
0.003193
0.042942
0.035860
0.040081
0.037394
0.038527
0.012604
0.018885
0.006697
0.005973
0.042092
0.020608
0.041262
0.043226
0.031237
0.036383
0.044524
0.040450
0.040976
0.043657
0.041317
0.046109
0.040373
0.042340
0.043885
0.043847
0.012887
0.005596
0.043106
0.046148
0.041793
0.046922
0.041166
0.041046
0.042132
0.004030
0.004636
0.042300
0.039833
0.043836
0.044003
0.041270
0.044526
0.008687
0.046852
0.039072
0.043112
0.040925
0.030732
0.043151
0.041224
0.043630
0.043494
0.041896
0.040274
0.007290
0.035523
0.005587
0.038744
0.015772
0.008606
0.033189
0.025671
0.010193
0.003604
0.040659
0.039856
0.006432
0.027841
0.040192
0.040451
0.004223
0.034817
0.038365
0.008918
0.040566
0.041359
0.004342
0.043158
0.042332
0.040491
0.040602
0.041660
0.039124
0.040397
0.044819
0.041036
0.040579
0.042433
0.028888
0.040842
0.018083
0.045095
0.020398
0.036216
0.008662
0.043822
0.036390
0.006423
0.002057
0.004639
0.004805
0.040729
0.005656
0.042568
0.004873
0.044402
0.011713
0.011041
0.022729
0.012518
0.004123
0.017762
0.006892
0.043169
0.043142
0.043647
0.043278
0.038172
0.041406
0.041945
0.040319
0.035171
0.005934
0.041409
0.040225
0.003734
0.043195
0.042098
0.030301
0.042963
0.042782
0.041172
0.040714
0.041755
0.045681
0.041067
0.004938
0.043245
0.042941
0.043307
0.007679
0.044069
0.043008
0.042679
0.003980
0.041640
0.040445
0.043307
0.044867
0.008479
0.004906
0.011212
0.004557
0.005601
0.022986
0.003578
0.003779
0.039746
0.019680
0.040623
0.041717
0.006021
0.043303
0.035441
0.030240
0.042245
0.007935
0.004856
0.035994
0.005947
0.014276
0.006599
0.008672
0.040685
0.042354
0.042553
0.039900
0.044219
0.010989
0.039949
0.040587
0.042691
0.042808
0.039697
0.018081
0.038390
0.002827
0.033700
0.039812
0.035241
0.034293
0.038137
0.023270
0.041462
0.040366
0.040624
0.040074
0.007603
0.043087
0.004310
0.009803
0.004653
0.043010
0.013997
0.025425
0.032654
0.040516
0.009604
0.007053
0.003586
0.031042
0.041234
0.007458
0.040888
0.041669
0.042654
0.042225
0.039697
0.037989
0.040164
0.039936
0.040274
0.040921
0.040738
0.010068
0.040419
0.041336
0.032603
0.042108
0.042654
0.042794
0.040354
0.045528
0.043360
0.000971
0.041228
0.039037
0.042623
0.005862
0.042940
0.028259
0.039935
0.005295
0.043284
0.039301
0.009484
0.010707
0.033529
0.037939
0.039860
0.014184
0.027790
0.005326
0.039191
0.023370
0.035005
0.003762
0.039942
0.004184
0.003480
0.041963
0.040784
0.039810
0.003020
0.008013
0.042279
0.042357
0.012716
0.036729
0.036272
0.032597
0.006027
0.040474
0.039949
0.039706
0.039384
0.039723
0.021050
0.002135
0.040255
0.003143
0.031940
0.006072
0.042519
0.012457
0.008801
0.041894
0.042668
0.011246
0.043524
0.017198
0.042118
0.040049
0.004510
0.006440
0.042130
0.005080
0.041396
0.005485
0.006170
0.008267
0.040337
0.027717
0.013252
0.033035
0.041441
0.011922
0.042445
0.041657
0.025295
0.040682
0.039671
0.040417
0.040062
0.041083
0.039637
0.039535
0.042259
0.040586
0.030402
0.042069
0.037560
0.040056
0.042318
0.006886
0.039748
0.042383
0.042388
0.022460
0.005023
0.037273
0.031538
0.034159
0.039948
0.009541
0.032475
0.036484
0.012845
0.027347
0.005735
0.006489
0.032344
0.004776
0.030469
0.003053
0.036487
0.039044
0.040017
0.041079
0.007130
0.040959
0.021798
0.042071
0.039401
0.039435
0.010292
0.039489
0.007025
0.041732
0.021366
0.006300
0.039237
0.040944
0.007656
0.004260
0.037231
0.015449
0.037761
0.039870
0.039761
0.039492
0.039526
0.034597
0.009105
0.007321
0.013308
0.042143
0.005433
0.004922
0.008596
0.041400
0.009888
0.015614
0.036588
0.033120
0.002788
0.029623
0.039810
0.040342
0.012509
0.025377
0.041975
0.041986
0.002418
0.040785
0.040297
0.040573
0.039038
0.006577
0.042191
0.039630
0.040384
0.041440
0.039160
0.041737
0.039840
0.039865
0.039800
0.041836
0.001767
0.040959
0.038867
0.024523
0.042098
0.011154
0.041829
0.029885
0.036788
0.039144
0.001424
0.039589
0.039608
0.042230
0.040191
0.029699
0.005301
0.004111
0.042166
0.005692
0.039024
0.038506
0.010615
0.021597
0.032941
0.026520
0.007673
0.036546
0.031596
0.039226
0.006188
0.005655
0.003678
0.041593
0.005293
0.028423
0.039248
0.004633
0.004062
0.041024
0.035435
0.039638
0.011924
0.039234
0.034699
0.002528
0.013145
0.038027
0.008126
0.008523
0.040930
0.009159
0.039119
0.038738
0.040024
0.038998
0.039092
0.023536
0.019102
0.010059
0.038981
0.001675
0.034314
0.007418
0.014119
0.031826
0.040538
0.038921
0.038962
0.027625
0.007429
0.010997
0.038975
0.007161
0.009947
0.003492
0.014404
0.023358
0.005914
0.015183
0.036223
0.041823
0.041400
0.040409
0.039943
0.002267
0.039002
0.041900
0.041896
0.041750
0.041345
0.039014
0.004923
0.039286
0.010064
0.039247
0.039212
0.019351
0.039718
0.005993
0.038801
0.039474
0.040398
0.041899
0.007418
0.038584
0.035892
0.039825
0.004869
0.017018
0.002142
0.005219
0.041487
0.000609
0.005938
0.038230
0.040130
0.041458
0.041426
0.039287
0.029008
0.003197
0.030829
0.039396
0.035305
0.041553
0.041984
0.001519
0.038658
0.012502
0.011153
0.031485
0.021618
0.025617
0.035022
0.012865
0.008175
0.006749
0.007658
0.038413
0.030497
0.015377
0.028973
0.003127
0.038683
0.033998
0.038537
0.003941
0.015442
0.038785
0.008965
0.010098
0.006928
0.001668
0.002005
0.008244
0.037671
0.012401
0.011789
0.006354
0.030803
0.029670
0.008594
0.034028
0.003072
0.039392
0.025258
0.041277
0.040484
0.011405
0.038880
0.019863
0.040933
0.038769
0.039029
0.038661
0.036472
0.008763
0.007278
0.021196
0.014992
0.004241
0.027353
0.034709
0.041605
0.039372
0.038525
0.041674
0.039075
0.038713
0.038896
0.040203
0.035468
0.009322
0.038449
0.039461
0.002181
0.041036
0.038705
0.039028
0.038220
0.041574
0.041202
0.038694
0.038675
0.038363
0.033711
0.005532
0.010189
0.010375
0.041732
0.040438
0.041150
0.039241
0.005116
0.019409
0.039148
0.028244
0.040859
0.016623
0.041428
0.004756
0.041725
0.004589
0.033149
0.039705
0.040959
0.005814
0.017817
0.006469
0.002468
0.037789
0.038792
0.012705
0.009726
0.030018
0.040330
0.033893
0.027491
0.007834
0.006180
0.006401
0.037115
0.005830
0.032610
0.027397
0.020167
0.005005
0.038069
0.031739
0.017249
0.002031
0.038050
0.014223
0.009239
0.039145
0.015255
0.002286
0.016804
0.011711
0.012110
0.016395
0.025200
0.040428
0.007004
0.039685
0.029123
0.037855
0.009045
0.033505
0.008813
0.023375
0.038467
0.008052
0.013002
0.008549
0.003631
0.010746
0.008437
0.014294
0.037656
0.039573
0.038185
0.038347
0.023480
0.035578
0.003515
0.036564
0.038422
0.040804
0.039926
0.006619
0.041035
0.040752
0.011019
0.018231
0.038295
0.038403
0.038500
0.038219
0.008954
0.037900
0.035302
0.038382
0.040944
0.041474
0.011692
0.038517
0.037924
0.037581
0.028062
0.041223
0.041403
0.005632
0.033284
0.004593
0.030054
0.038078
0.026481
0.037768
0.017810
0.041443
0.038712
0.001592
0.040724
0.038841
0.040028
0.038931
0.039934
0.006903
0.041011
0.038106
0.004188
0.040755
0.041527
0.004320
0.041039
0.039805
0.014339
0.039819
0.021618
0.028514
0.013653
0.032745
0.035619
0.007524
0.008684
0.009285
0.029123
0.004258
0.018559
0.038472
0.010401
0.026682
0.003165
0.003110
0.038996
0.037798
0.006020
0.004326
0.034611
0.002088
0.038402
0.034211
0.004684
0.007591
0.037675
0.037900
0.002251
0.031797
0.039221
0.021478
0.006315
0.006500
0.023390
0.013804
0.009212
0.036311
0.040567
0.007601
0.036984
0.030390
0.015446
0.009718
0.040564
0.036718
0.039389
0.013440
0.008418
0.014430
0.040328
0.025721
0.009380
0.039999
0.038068
0.003939
0.038167
0.037868
0.010098
0.011832
0.010165
0.001627
0.017714
0.025401
0.016765
0.012981
0.039617
0.039281
0.006047
0.040683
0.041033
0.037723
0.037613
0.002663
0.037996
0.038691
0.041287
0.040279
0.041288
0.038179
0.040697
0.038275
0.016710
0.019681
0.003720
0.041140
0.008220
0.040742
0.037952
0.011831
0.004969
0.038894
0.041234
0.037630
0.040521
0.024954
0.037329
0.005477
0.040595
0.040865
0.009688
0.041276
0.038627
0.012467
0.038397
0.037298
0.039299
0.013958
0.015789
0.010925
0.021610
0.040506
0.030541
0.039152
0.038176
0.034739
0.009344
0.037037
0.007690
0.037779
0.007673
0.006914
0.035811
0.036827
0.037963
0.017017
0.003624
0.005325
0.037026
0.025096
0.002394
0.002606
0.037079
0.004219
0.014509
0.004635
0.037911
0.019252
0.022984
0.037214
0.001224
0.004666
0.014775
0.039341
0.037703
0.040147
0.039245
0.036666
0.013860
0.008619
0.009799
0.016324
0.017263
0.019900
0.006837
0.011084
0.011163
0.027149
0.040397
0.040230
0.012748
0.037471
0.006232
0.040925
0.037145
0.034451
0.007560
0.035930
0.039330
0.038903
0.040645
0.041021
0.037533
0.018414
0.040174
0.037500
0.039785
0.010814
0.004921
0.036757
0.039707
0.005975
0.005802
0.026644
0.040437
0.041090
0.033098
0.024008
0.006494
0.001878
0.010035
0.037426
0.012028
0.040116
0.003188
0.002690
0.038709
0.005923
0.010100
0.039137
0.040424
0.040690
0.038837
0.034933
0.001679
0.040984
0.019856
0.029083
0.033207
0.002543
0.008394
0.015769
0.014702
0.036565
0.016123
0.038710
0.012030
0.018632
0.027782
0.015809
0.025260
0.010250
0.032163
0.034750
0.040331
0.011993
0.009156
0.028559
0.008760
0.038400
0.040165
0.013552
0.037050
0.004230
0.006840
0.008100
0.006339
0.036895
0.002074
0.006107
0.019759
0.038113
0.003567
0.004979
0.038042
0.003105
0.007051
0.035659
0.002250
0.001400
0.039546
0.036886
0.008293
0.015354
0.033435
0.029298
0.040122
0.033905
0.030627
0.010130
0.038518
0.012869
0.018420
0.039866
0.038037
0.037699
0.003951
0.036930
0.000975
0.014271
0.010746
0.007014
0.039277
0.037587
0.016195
0.025042
0.038836
0.007844
0.036585
0.020470
0.007080
0.014778
0.036956
0.036631
0.040874
0.031951
0.021583
0.040054
0.035689
0.035470
0.038214
0.040387
0.037446
0.040661
0.037991
0.002741
0.039072
0.005131
0.040315
0.006414
0.036913
0.027976
0.034610
0.040225
0.037255
0.040521
0.039699
0.010417
0.003170
0.023898
0.015515
0.037594
0.006202
0.020394
0.011088
0.020992
0.005292
0.038054
0.040901
0.040502
0.038965
0.039343
0.005658
0.007092
0.039751
0.005898
0.036275
0.001439
0.035186
0.022576
0.011504
0.038555
0.006316
0.040360
0.036334
0.015386
0.023986
0.028128
0.012082
0.033984
0.009317
0.038769
0.008353
0.038884
0.007410
0.031834
0.034482
0.012937
0.006860
0.039664
0.014747
0.039758
0.037081
0.018874
0.002779
0.030175
0.038409
0.006630
0.011853
0.037623
0.037404
0.016154
0.005572
0.036312
0.027257
0.000937
0.040437
0.008993
0.006419
0.003497
0.040145
0.002335
0.004871
0.011074
0.010691
0.001235
0.004299
0.035946
0.036061
0.035618
0.005741
0.017529
0.021760
0.017764
0.018145
0.039269
0.033548
0.025205
0.040055
0.037215
0.015695
0.002629
0.029448
0.037471
0.019261
0.038332
0.006630
0.022600
0.004585
0.007696
0.022560
0.007097
0.013821
0.001526
0.001828
0.020725
0.038559