# vtk DataFile Version 2.0
Test
ASCII
DATASET POLYDATA
POINTS 7341 float
0.000000 0.000000 0.000000
1.000000 0.000000 0.000000
1.000000 1.000000 0.000000
0.000000 1.000000 0.000000
0.000000 0.500000 0.000000
0.500000 0.500000 0.000000
1.000000 0.500000 0.000000
0.499000 0.499000 0.000000
0.900000 0.010000 0.000000
0.029412 0.000000 0.000000
0.058824 0.000000 0.000000
0.088235 0.000000 0.000000
0.117647 0.000000 0.000000
0.147059 0.000000 0.000000
0.176471 0.000000 0.000000
0.205882 0.000000 0.000000
0.235294 0.000000 0.000000
0.264706 0.000000 0.000000
0.294118 0.000000 0.000000
0.323529 0.000000 0.000000
0.352941 0.000000 0.000000
0.382353 0.000000 0.000000
0.411765 0.000000 0.000000
0.441176 0.000000 0.000000
0.470588 0.000000 0.000000
0.500000 0.000000 0.000000
0.529412 0.000000 0.000000
0.558824 0.000000 0.000000
0.588235 0.000000 0.000000
0.617647 0.000000 0.000000
0.647059 0.000000 0.000000
0.676471 0.000000 0.000000
0.705882 0.000000 0.000000
0.735294 0.000000 0.000000
0.764706 0.000000 0.000000
0.794118 0.000000 0.000000
0.823529 0.000000 0.000000
0.852941 0.000000 0.000000
0.882353 0.000000 0.000000
0.911765 0.000000 0.000000
0.941176 0.000000 0.000000
0.970588 0.000000 0.000000
1.000000 0.029412 0.000000
1.000000 0.058824 0.000000
1.000000 0.088235 0.000000
1.000000 0.117647 0.000000
1.000000 0.147059 0.000000
1.000000 0.176471 0.000000
1.000000 0.205882 0.000000
1.000000 0.235294 0.000000
1.000000 0.264706 0.000000
1.000000 0.294118 0.000000
1.000000 0.323529 0.000000
1.000000 0.352941 0.000000
1.000000 0.382353 0.000000
1.000000 0.411765 0.000000
1.000000 0.441176 0.000000
1.000000 0.470588 0.000000
1.000000 0.529412 0.000000
1.000000 0.558824 0.000000
1.000000 0.588235 0.000000
1.000000 0.617647 0.000000
1.000000 0.647059 0.000000
1.000000 0.676471 0.000000
1.000000 0.705882 0.000000
1.000000 0.735294 0.000000
1.000000 0.764706 0.000000
1.000000 0.794118 0.000000
1.000000 0.823529 0.000000
1.000000 0.852941 0.000000
1.000000 0.882353 0.000000
1.000000 0.911765 0.000000
1.000000 0.941176 0.000000
1.000000 0.970588 0.000000
0.970588 1.000000 0.000000
0.941176 1.000000 0.000000
0.911765 1.000000 0.000000
0.882353 1.000000 0.000000
0.852941 1.000000 0.000000
0.823529 1.000000 0.000000
0.794118 1.000000 0.000000
0.764706 1.000000 0.000000
0.735294 1.000000 0.000000
0.705882 1.000000 0.000000
0.676471 1.000000 0.000000
0.647059 1.000000 0.000000
0.617647 1.000000 0.000000
0.588235 1.000000 0.000000
0.558824 1.000000 0.000000
0.529412 1.000000 0.000000
0.500000 1.000000 0.000000
0.470588 1.000000 0.000000
0.441176 1.000000 0.000000
0.411765 1.000000 0.000000
0.382353 1.000000 0.000000
0.352941 1.000000 0.000000
0.323529 1.000000 0.000000
0.294118 1.000000 0.000000
0.264706 1.000000 0.000000
0.235294 1.000000 0.000000
0.205882 1.000000 0.000000
0.176471 1.000000 0.000000
0.147059 1.000000 0.000000
0.117647 1.000000 0.000000
0.088235 1.000000 0.000000
0.058824 1.000000 0.000000
0.029412 1.000000 0.000000
0.000000 0.970588 0.000000
0.000000 0.941176 0.000000
0.000000 0.911765 0.000000
0.000000 0.882353 0.000000
0.000000 0.852941 0.000000
0.000000 0.823529 0.000000
0.000000 0.794118 0.000000
0.000000 0.764706 0.000000
0.000000 0.735294 0.000000
0.000000 0.705882 0.000000
0.000000 0.676471 0.000000
0.000000 0.647059 0.000000
0.000000 0.617647 0.000000
0.000000 0.588235 0.000000
0.000000 0.558824 0.000000
0.000000 0.529412 0.000000
0.007246 0.500000 0.000000
0.014493 0.500000 0.000000
0.021739 0.500000 0.000000
0.028986 0.500000 0.000000
0.036232 0.500000 0.000000
0.043478 0.500000 0.000000
0.050725 0.500000 0.000000
0.057971 0.500000 0.000000
0.065217 0.500000 0.000000
0.072464 0.500000 0.000000
0.079710 0.500000 0.000000
0.086957 0.500000 0.000000
0.094203 0.500000 0.000000
0.101449 0.500000 0.000000
0.108696 0.500000 0.000000
0.115942 0.500000 0.000000
0.123188 0.500000 0.000000
0.130435 0.500000 0.000000
0.137681 0.500000 0.000000
0.144928 0.500000 0.000000
0.152174 0.500000 0.000000
0.159420 0.500000 0.000000
0.166667 0.500000 0.000000
0.173913 0.500000 0.000000
0.181159 0.500000 0.000000
0.188406 0.500000 0.000000
0.195652 0.500000 0.000000
0.202899 0.500000 0.000000
0.210145 0.500000 0.000000
0.217391 0.500000 0.000000
0.224638 0.500000 0.000000
0.231884 0.500000 0.000000
0.239130 0.500000 0.000000
0.246377 0.500000 0.000000
0.253623 0.500000 0.000000
0.260870 0.500000 0.000000
0.268116 0.500000 0.000000
0.275362 0.500000 0.000000
0.282609 0.500000 0.000000
0.289855 0.500000 0.000000
0.297101 0.500000 0.000000
0.304348 0.500000 0.000000
0.311594 0.500000 0.000000
0.318841 0.500000 0.000000
0.326087 0.500000 0.000000
0.333333 0.500000 0.000000
0.340580 0.500000 0.000000
0.347826 0.500000 0.000000
0.355072 0.500000 0.000000
0.362319 0.500000 0.000000
0.369565 0.500000 0.000000
0.376812 0.500000 0.000000
0.384058 0.500000 0.000000
0.391304 0.500000 0.000000
0.398551 0.500000 0.000000
0.405797 0.500000 0.000000
0.413043 0.500000 0.000000
0.420290 0.500000 0.000000
0.427536 0.500000 0.000000
0.434783 0.500000 0.000000
0.442029 0.500000 0.000000
0.449275 0.500000 0.000000
0.456522 0.500000 0.000000
0.463768 0.500000 0.000000
0.471014 0.500000 0.000000
0.478261 0.500000 0.000000
0.485507 0.500000 0.000000
0.492754 0.500000 0.000000
0.510004 0.500000 0.000000
0.520408 0.500000 0.000000
0.531229 0.500000 0.000000
0.542483 0.500000 0.000000
0.554187 0.500000 0.000000
0.566359 0.500000 0.000000
0.579019 0.500000 0.000000
0.592185 0.500000 0.000000
0.605877 0.500000 0.000000
0.620118 0.500000 0.000000
0.634929 0.500000 0.000000
0.650332 0.500000 0.000000
0.666352 0.500000 0.000000
0.683013 0.500000 0.000000
0.700340 0.500000 0.000000
0.718361 0.500000 0.000000
0.737103 0.500000 0.000000
0.756595 0.500000 0.000000
0.776867 0.500000 0.000000
0.797950 0.500000 0.000000
0.819877 0.500000 0.000000
0.842681 0.500000 0.000000
0.866398 0.500000 0.000000
0.891064 0.500000 0.000000
0.916716 0.500000 0.000000
0.943396 0.500000 0.000000
0.971143 0.500000 0.000000
0.000000 0.470588 0.000000
0.000000 0.441176 0.000000
0.000000 0.411765 0.000000
0.000000 0.382353 0.000000
0.000000 0.352941 0.000000
0.000000 0.323529 0.000000
0.000000 0.294118 0.000000
0.000000 0.264706 0.000000
0.000000 0.235294 0.000000
0.000000 0.205882 0.000000
0.000000 0.176471 0.000000
0.000000 0.147059 0.000000
0.000000 0.117647 0.000000
0.000000 0.088235 0.000000
0.000000 0.058824 0.000000
0.000000 0.029412 0.000000
0.500341 0.497365 0.000000
0.501682 0.495729 0.000000
0.503023 0.494094 0.000000
0.504365 0.492458 0.000000
0.505706 0.490823 0.000000
0.507047 0.489187 0.000000
0.508388 0.487552 0.000000
0.509729 0.485916 0.000000
0.511070 0.484281 0.000000
0.512411 0.482645 0.000000
0.513753 0.481010 0.000000
0.515094 0.479375 0.000000
0.516435 0.477739 0.000000
0.517776 0.476104 0.000000
0.519117 0.474468 0.000000
0.520458 0.472833 0.000000
0.521799 0.471197 0.000000
0.523140 0.469562 0.000000
0.524482 0.467926 0.000000
0.525823 0.466291 0.000000
0.527164 0.464656 0.000000
0.528505 0.463020 0.000000
0.529846 0.461385 0.000000
0.531187 0.459749 0.000000
0.532528 0.458114 0.000000
0.533870 0.456478 0.000000
0.535211 0.454843 0.000000
0.536552 0.453207 0.000000
0.537893 0.451572 0.000000
0.539234 0.449936 0.000000
0.540575 0.448301 0.000000
0.541916 0.446666 0.000000
0.543258 0.445030 0.000000
0.544599 0.443395 0.000000
0.545940 0.441759 0.000000
0.547281 0.440124 0.000000
0.548622 0.438488 0.000000
0.549963 0.436853 0.000000
0.551304 0.435217 0.000000
0.552645 0.433582 0.000000
0.553987 0.431946 0.000000
0.555328 0.430311 0.000000
0.556669 0.428676 0.000000
0.558010 0.427040 0.000000
0.559351 0.425405 0.000000
0.560692 0.423769 0.000000
0.562033 0.422134 0.000000
0.563375 0.420498 0.000000
0.564716 0.418863 0.000000
0.566057 0.417227 0.000000
0.567398 0.415592 0.000000
0.568739 0.413957 0.000000
0.570080 0.412321 0.000000
0.571421 0.410686 0.000000
0.572763 0.409050 0.000000
0.574104 0.407415 0.000000
0.575445 0.405779 0.000000
0.576786 0.404144 0.000000
0.578127 0.402508 0.000000
0.579468 0.400873 0.000000
0.580809 0.399237 0.000000
0.582151 0.397602 0.000000
0.583492 0.395967 0.000000
0.584833 0.394331 0.000000
0.586174 0.392696 0.000000
0.587515 0.391060 0.000000
0.588856 0.389425 0.000000
0.590197 0.387789 0.000000
0.591538 0.386154 0.000000
0.592880 0.384518 0.000000
0.594221 0.382883 0.000000
0.595562 0.381247 0.000000
0.596903 0.379612 0.000000
0.598244 0.377977 0.000000
0.599585 0.376341 0.000000
0.600926 0.374706 0.000000
0.602268 0.373070 0.000000
0.603609 0.371435 0.000000
0.604950 0.369799 0.000000
0.606291 0.368164 0.000000
0.607632 0.366528 0.000000
0.608973 0.364893 0.000000
0.610314 0.363258 0.000000
0.611656 0.361622 0.000000
0.612997 0.359987 0.000000
0.614338 0.358351 0.000000
0.615679 0.356716 0.000000
0.617020 0.355080 0.000000
0.618361 0.353445 0.000000
0.619702 0.351809 0.000000
0.621043 0.350174 0.000000
0.622385 0.348538 0.000000
0.623726 0.346903 0.000000
0.625067 0.345268 0.000000
0.626408 0.343632 0.000000
0.627749 0.341997 0.000000
0.629090 0.340361 0.000000
0.630431 0.338726 0.000000
0.631773 0.337090 0.000000
0.633114 0.335455 0.000000
0.634455 0.333819 0.000000
0.635796 0.332184 0.000000
0.637137 0.330548 0.000000
0.638478 0.328913 0.000000
0.639819 0.327278 0.000000
0.641161 0.325642 0.000000
0.642502 0.324007 0.000000
0.643843 0.322371 0.000000
0.645184 0.320736 0.000000
0.646525 0.319100 0.000000
0.647866 0.317465 0.000000
0.649207 0.315829 0.000000
0.650548 0.314194 0.000000
0.651890 0.312559 0.000000
0.653231 0.310923 0.000000
0.654572 0.309288 0.000000
0.655913 0.307652 0.000000
0.657254 0.306017 0.000000
0.658595 0.304381 0.000000
0.659936 0.302746 0.000000
0.661278 0.301110 0.000000
0.662619 0.299475 0.000000
0.663960 0.297839 0.000000
0.665301 0.296204 0.000000
0.666642 0.294569 0.000000
0.667983 0.292933 0.000000
0.669324 0.291298 0.000000
0.670666 0.289662 0.000000
0.672007 0.288027 0.000000
0.673348 0.286391 0.000000
0.674689 0.284756 0.000000
0.676030 0.283120 0.000000
0.677371 0.281485 0.000000
[...]
POINT_DATA 7341
SCALARS UX float 1
LOOKUP_TABLE default
0.000000
0.000000
0.085500
0.085500
0.041216
0.034013
0.035189
0.032593
0.000407
-0.000000
0.000000
0.000000
0.000000
0.000000
0.000000
0.000000
0.000000
0.000000
0.000000
0.000000
0.000000
0.000000
0.000000
0.000000
0.000000
0.000000
0.000000
0.000000
0.000000
0.000000
0.000000
0.000000
0.000000
0.000000
0.000000
0.000000
0.000000
0.000000
0.000000
0.000000
0.000000
-0.000000
0.002637
0.003939
0.005198
0.006536
0.008001
0.009570
0.011264
0.012995
0.014895
0.016894
0.019016
0.021276
0.023669
0.026252
0.029065
0.032034
0.038449
0.041673
0.044855
0.047943
0.050964
0.053949
0.056891
0.059798
0.062684
0.065561
0.068423
0.071278
0.074128
0.076972
0.079815
0.082659
0.085500
0.085500
0.085500
0.085500
0.085500
0.085500
0.085500
0.085500
0.085500
0.085500
0.085500
0.085500
0.085500
0.085500
0.085500
0.085500
0.085500
0.085500
0.085500
0.085500
0.085500
0.085500
0.085500
0.085500
0.085500
0.085500
0.085500
0.085500
0.085500
0.085500
0.085500
0.085500
0.085500
0.082811
0.080125
0.077439
0.074757
0.072076
0.069399
0.066723
0.064053
0.061385
0.058720
0.056051
0.053376
0.050691
0.047998
0.045296
0.042646
0.040669
0.040400
0.039811
0.039412
0.039211
0.039170
0.038743
0.038658
0.037408
0.035700
0.035660
0.035246
0.034868
0.035571
0.035788
0.036951
0.033929
0.035233
0.035888
0.036357
0.036230
0.036220
0.034430
0.034527
0.035031
0.036043
0.033981
0.034305
0.034576
0.034772
0.035256
0.035033
0.034980
0.035326
0.033932
0.034459
0.034769
0.033164
0.034483
0.033176
0.033753
0.032504
0.033100
0.033633
0.032507
0.032829
0.033095
0.033324
0.033615
0.032292
0.033733
0.032976
0.033585
0.032748
0.033594
0.032829
0.033596
0.033190
0.032894
0.032500
0.033480
0.033285
0.033230
0.032754
0.033586
0.032885
0.033698
0.033807
0.033606
0.033427
0.033349
0.033339
0.033341
0.033333
0.033322
0.033335
0.033335
0.033342
0.033346
0.033364
0.033375
0.033392
0.033416
0.033451
0.033498
0.033558
0.033632
0.033720
0.033824
0.033947
0.034092
0.034259
0.034453
0.034680
0.034925
0.028684
0.026677
0.025066
0.023564
0.022111
0.020675
0.019248
0.017836
0.016422
0.015037
0.013628
0.012261
0.010887
0.009562
0.007917
0.006016
0.031858
0.030841
0.030375
0.029976
0.029728
0.029449
0.029231
0.029036
0.028851
0.028684
0.028534
0.028390
0.028263
0.028144
0.028029
0.027911
0.027795
0.027625
0.027460
0.027309
0.027165
0.027022
0.026884
0.026750
0.026616
0.026486
0.026356
0.026228
0.026102
0.025977
0.025853
0.025730
0.025608
0.025486
0.025365
0.025244
0.025123
0.025003
0.024882
0.024762
0.024642
0.024522
0.024402
0.024282
0.024162
0.024043
0.023924
0.023805
0.023686
0.023567
0.023449
0.023330
0.023211
0.023093
0.022975
0.022857
0.022738
0.022620
0.022502
0.022384
0.022266
0.022148
0.022030
0.021912
0.021795
0.021677
0.021559
0.021441
0.021323
0.021205
0.021087
0.020969
0.020851
0.020733
0.020615
0.020496
0.020378
0.020260
0.020142
0.020024
0.019906
0.019787
0.019669
0.019551
0.019433
0.019314
0.019196
0.019078
0.018960
0.018841
0.018723
0.018605
0.018487
0.018368
0.018250
0.018132
0.018014
0.017896
0.017778
0.017660
0.017542
0.017424
0.017306
0.017189
0.017071
0.016954
0.016836
0.016719
0.016601
0.016484
0.016367
0.016250
0.016134
0.016017
0.015900
0.015784
0.015668
0.015552
0.015436
0.015320
0.015204
0.015089
0.014973
0.014858
0.014744
0.014629
0.014514
0.014400
0.014286
0.014172
0.014059
0.013945
0.013832
0.013719
0.013607
0.013494
0.013382
0.013271
0.013159
0.013048
0.012937
0.012827
0.012717
0.012607
0.012497
0.012388
0.012279
0.012170
0.012062
0.011954
0.011846
0.011739
0.011632
0.011525
0.011419
0.011313
0.011207
0.011102
0.010997
0.010892
0.010788
0.010684
0.010581
0.010478
0.010375
0.010272
0.010170
0.010069
0.009967
0.009866
0.009766
0.009666
0.009566
0.009466
0.009367
0.009269
0.009171
0.009073
0.008975
0.008878
0.008782
0.008686
0.008590
0.008494
0.008400
0.008305
0.008211
0.008117
0.008024
0.007931
0.007839
0.007747
0.007656
0.007565
0.007474
0.007384
0.007294
0.007205
0.007116
0.007028
0.006940
0.006853
0.006766
0.006680
0.006594
0.006509
0.006423
0.006339
0.006255
0.006172
0.006088
0.006006
0.005924
0.005842
0.005761
0.005680
0.005600
0.005521
0.005441
0.005363
0.005285
0.005207
0.005130
0.005053
0.004977
0.004901
0.004826
0.004751
0.004677
0.004603
0.004530
0.004457
0.004385
0.004313
0.004242
0.004171
0.004101
0.004031
0.003962
0.003893
0.003825
0.003757
0.003690
0.003623
0.003556
0.003491
0.003425
0.003360
0.003296
0.003232
0.003169
0.003105
0.003043
0.002981
0.002919
0.002858
0.002797
0.002737
0.002677
0.002618
0.002559
0.002500
0.002442
0.002384
0.002327
0.002269
0.002213
0.002156
0.002100
0.002044
0.001989
0.001933
0.001878
0.001823
0.001768
0.001714
0.001660
0.001606
0.001551
0.001497
0.001443
0.001389
0.001334
0.001279
0.001224
0.001169
0.001113
0.001057
0.000999
0.000942
0.000882
0.000823
0.000763
0.000702
0.000641
0.000581
0.000521
0.000464
0.028147
0.027843
0.027787
0.001336
0.000987
0.031325
0.000835
0.031149
0.028673
0.016381
0.031159
0.000730
0.019071
0.029255
0.008913
0.014698
0.031233
0.000687
0.001624
0.027924
0.004618
0.029666
0.031268
0.010319
0.028152
0.024668
0.030413
0.023265
0.031452
0.028439
0.002036
0.028093
0.027818
0.028913
0.028476
0.000622
0.030572
0.002132
0.028861
0.001099
0.027997
0.027771
0.027621
0.029738
0.001246
0.030244
0.000979
0.029196
0.028288
0.031971
0.000810
0.030773
0.005886
0.023395
0.000686
0.031089
0.031212
0.021921
0.031031
0.031197
0.010753
0.012564
0.000742
0.000774
0.027888
0.028320
0.017563
0.028553
0.031754
0.000875
0.031373
0.000908
0.018578
0.001130
0.027770
0.013185
0.001408
0.031808
0.008704
0.002525
0.006204
0.002872
0.003638
0.028021
0.028212
0.028352
0.027942
0.027782
0.027789
0.028456
0.029515
0.029075
0.028798
0.028842
0.028780
0.028606
0.030969
0.029982
0.029848
0.029826
0.029553
0.000832
0.030029
0.031441
0.026836
0.027002
0.002320
0.027387
0.001884
0.027537
0.018024
0.001537
0.018601
0.028030
0.010704
0.028298
0.001395
0.029053
0.004547
0.022104
0.029648
0.014214
0.002844
0.027219
0.029548
0.001431
0.028920
0.029153
0.026875
0.028963
0.007895
0.028698
0.029763
0.031068
0.000685
0.027906
0.027132
0.000636
0.031206
0.029022
0.007371
0.031294
0.000651
0.024379
0.028489
0.031294
0.003262
0.031247
0.020689
0.014175
0.031195
0.031183
0.000770
0.031224
0.001797
0.031284
0.028155
0.000921
0.020781
0.000965
0.031341
0.027970
0.025686
0.001202
0.016281
0.031616
0.027923
0.001516
0.011762
0.004248
0.001784
0.005493
0.027757
0.027819
0.028081
0.027743
0.027495
0.027577
0.027728
0.027383
0.028198
0.028314
0.028425
0.028923
0.028586
0.028866
0.030212
0.031234
0.028929
0.029399
0.029363
0.030872
0.030298
0.029003
0.030851
0.029387
0.030077
0.029423
0.009083
0.002725
0.029486
0.029211
0.009203
0.029455
0.026941
0.029710
0.027925
0.028314
0.002619
0.027082
0.015824
0.028931
0.028877
0.003242
0.003778
0.001316
0.026849
0.028342
0.001425
0.028605
0.026783
0.028957
0.019965
0.027304
0.026753
0.028437
0.027686
0.001541
0.025384
0.029633
0.029546
0.028005
0.001350
0.020729
0.029325
0.001925
0.029057
0.014382
0.012342
0.002037
0.029241
0.017263
0.029036
0.001582
0.001698
0.002443
0.029524
0.001362
0.005619
0.027209
0.027279
0.028658
0.028985
0.029115
0.003036
0.023239
0.016116
0.012765
0.029208
0.011168
0.009552
0.001612
0.006825
0.004812
0.026705
0.026771
0.026817
0.027018
0.027071
0.001411
0.026866
0.025743
0.027018
0.027210
0.029709
0.027497
0.028534
0.029552
0.027838
0.027684
0.027530
0.026690
0.029064
0.028390
0.028881
0.029090
0.029045
0.027842
0.029519
0.007617
0.003159
0.030352
0.028836
0.028691
0.027466
0.031331
0.026326
0.026441
0.026882
0.003360
0.027240
0.015998
0.002452
0.017098
0.027284
0.002080
0.004614
0.026807
0.005161
0.023416
0.002052
0.028504
0.012278
0.026312
0.026645
0.028005
0.002771
0.027457
0.004064
0.027881
0.019370
0.029464
0.029346
0.002038
0.029345
0.027578
0.026722
0.015316
0.028990
0.002332
0.026997
0.025311
0.028613
0.010331
0.028884
0.019681
0.022940
0.028442
0.003394
0.028551
0.010482
0.008713
0.005620
0.006162
0.029122
0.027071
0.002898
0.002903
0.026884
0.003818
0.026784
0.026824
0.027140
0.027068
0.027690
0.027383
0.026725
0.007177
0.028184
0.026952
0.028440
0.028595
0.026259
0.001374
0.026942
0.026957
0.028125
0.021046
0.029763
0.026025
0.029106
0.028122
0.027256
0.029640
0.028342
0.028667
0.028788
0.008220
0.006631
0.027322
0.028508
0.029082
0.028198
0.028591
0.029293
0.028642
0.031650
0.005429
0.004050
0.025532
0.003263
0.027606
0.026424
0.027985
0.010129
0.016444
0.028123
0.026775
0.002068
0.027779
0.028565
0.026316
0.028106
0.028228
0.027505
0.026559
0.003700
0.011555
0.004841
0.027613
0.028521
0.022435
0.007436
0.002374
0.003347
0.008100
0.026238
0.026306
0.002124
0.004345
0.014638
0.026658
0.028744
0.026628
0.022995
0.026295
0.027444
0.027737
0.026926
0.029069
0.027932
0.006267
0.004359
0.026609
0.026995
0.017679
0.026482
0.026363
0.005101
0.021106
0.028253
0.026679
0.027396
0.009826
0.024339
0.003717
0.002372
0.018460
0.026997
0.013825
0.008020
0.026792
0.027346
0.026999
0.011655
0.026230
0.002567
0.026456
0.026206
0.027587
0.002089
0.027684
0.027230
0.030522
0.026936
0.029005
0.028089
0.026723
0.026786
0.028298
0.027567
0.026285
0.027114
0.026760
0.001960
0.028371
0.027253
0.027922
0.028651
0.026417
0.027652
0.028277
0.025927
0.025971
0.026583
0.017354
0.026772
0.002776
0.027128
0.007109
0.021849
0.004937
0.025936
0.002657
0.025119
0.026980
0.003236
0.026189
0.027690
0.028497
0.026302
0.025084
0.002025
0.011248
0.013257
0.003217
0.003730
0.026117
0.028318
0.002643
0.026887
0.026472
0.027888
0.027723
0.027293
0.027275
0.026997
0.017883
0.005909
0.014987
0.025350
0.006212
0.006949
0.027728
0.004047
0.010983
0.002178
0.028272
0.024547
0.027270
0.025396
0.024138
0.009220
0.013186
0.005236
0.004628
0.026898
0.014278
0.026382
0.028084
0.020724
0.025003
0.028325
0.025879
0.026239
0.027029
0.026419
0.026993
0.025824
0.026402
0.028069
0.028577
0.009143
0.004275
0.026750
0.029961
0.026509
0.027669
0.026346
0.026292
0.026935
0.003120
0.003534
0.028542
0.026864
0.028663
0.027318
0.026371
0.028186
0.006328
0.027219
0.026823
0.028151
0.026185
0.021152
0.027457
0.026105
0.028121
0.028152
0.026233
0.025798
0.005491
0.024041
0.003893
0.026201
0.011020
0.006239
0.021629
0.017468
0.007786
0.002574
0.027127
0.025516
0.004728
0.019091
0.024852
0.025861
0.002905
0.023640
0.026000
0.006867
0.025886
0.026483
0.002991
0.027581
0.027061
0.025904
0.025981
0.026177
0.026440
0.025842
0.026570
0.027596
0.026000
0.026432
0.019449
0.025962
0.012591
0.027094
0.014291
0.023132
0.006559
0.029168
0.024860
0.005003
0.001482
0.003506
0.003392
0.027422
0.004232
0.028120
0.003529
0.029379
0.008610
0.007878
0.015675
0.008857
0.002863
0.012637
0.005113
0.027502
0.028280
0.027847
0.027712
0.025924
0.026464
0.026829
0.025788
0.024122
0.004560
0.025958
0.025728
0.002630
0.027917
0.026227
0.020791
0.028004
0.027955
0.026010
0.026052
0.026196
0.026956
0.026264
0.003792
0.026762
0.025874
0.028336
0.005645
0.029715
0.027900
0.026677
0.002730
0.027764
0.025909
0.027880
0.028319
0.006173
0.003379
0.007961
0.003203
0.004167
0.015790
0.002573
0.002887
0.025424
0.013764
0.027034
0.027745
0.004310
0.026424
0.022733
0.020688
0.027967
0.006045
0.003362
0.024338
0.004127
0.010340
0.004797
0.006651
0.026074
0.027098
0.027768
0.025514
0.026425
0.008205
0.026776
0.027140
0.027618
0.027461
0.026647
0.012532
0.025984
0.002046
0.022978
0.025533
0.023893
0.023328
0.023976
0.016056
0.025912
0.025616
0.025667
0.025528
0.005762
0.026537
0.003067
0.007501
0.003249
0.028542
0.009840
0.017414
0.022315
0.025884
0.006902
0.005276
0.002768
0.020498
0.026442
0.005459
0.026204
0.026738
0.027295
0.027841
0.025409
0.025756
0.025724
0.025573
0.025758
0.025757
0.025636
0.007643
0.025850
0.025893
0.022347
0.026196
0.027758
0.028101
0.025813
0.027027
0.027741
0.000697
0.027681
0.026393
0.027893
0.004109
0.027644
0.018966
0.025623
0.003651
0.028409
0.025245
0.007075
0.008062
0.022624
0.025549
0.025196
0.009928
0.018564
0.003729
0.025107
0.015993
0.022469
0.002857
0.026599
0.002995
0.002518
0.025928
0.027083
0.025426
0.002328
0.005794
0.027561
0.027351
0.009435
0.024750
0.024496
0.022080
0.004159
0.025467
0.025537
0.025321
0.024557
0.025415
0.014512
0.001554
0.025848
0.002466
0.021692
0.004298
0.027594
0.008779
0.006500
0.027654
0.027409
0.008464
0.026314
0.012226
0.027959
0.025707
0.003188
0.004753
0.027683
0.003529
0.025899
0.003790
0.004455
0.006326
0.027017
0.018938
0.009712
0.021462
0.026584
0.008943
0.027231
0.026763
0.017120
0.026112
0.025361
0.025598
0.025477
0.025683
0.025416
0.025284
0.025681
0.025609
0.020022
0.026103
0.025288
0.025651
0.028138
0.004794
0.025435
0.027829
0.027717
0.015447
0.003470
0.023576
0.021472
0.023021
0.025697
0.006844
0.021838
0.024452
0.009007
0.018212
0.003970
0.004762
0.021007
0.003406
0.020621
0.002337
0.023185
0.024980
0.026591
0.026417
0.005066
0.027178
0.014991
0.027096
0.025243
0.025344
0.007730
0.026369
0.004870
0.027587
0.014672
0.004347
0.025087
0.025503
0.005502
0.003214
0.025064
0.010765
0.025391
0.025246
0.025254
0.025160
0.025338
0.023285
0.006762
0.005131
0.009816
0.027115
0.003787
0.003493
0.006312
0.025428
0.007404
0.011255
0.024687
0.022391
0.002034
0.020115
0.026576
0.025342
0.009326
0.017326
0.027570
0.026968
0.001893
0.026224
0.025345
0.026077
0.025004
0.004548
0.027333
0.025331
0.025339
0.027457
0.025144
0.027510
0.025154
0.025446
0.025431
0.025729
0.001406
0.025576
0.024368
0.016580
0.027502
0.007893
0.027513
0.020374
0.024757
0.025061
0.001055
0.025074
0.025470
0.027718
0.026655
0.019538
0.003729
0.002957
0.027440
0.004209
0.025120
0.024687
0.007739
0.014780
0.022122
0.017679
0.005301
0.024472
0.020537
0.024765
0.004318
0.004160
0.002782
0.026842
0.003763
0.019244
0.026072
0.003319
0.002936
0.026420
0.023762
0.026250
0.008769
0.025049
0.023313
0.001949
0.009677
0.023982
0.005652
0.006155
0.027097
0.006540
0.024992
0.024906
0.025116
0.024872
0.026112
0.015969
0.013390
0.007273
0.025938
0.001314
0.022069
0.005400
0.009853
0.021443
0.025205
0.024725
0.024695
0.018812
0.005243
0.008046
0.026300
0.004940
0.007159
0.002541
0.010540
0.015937
0.004105
0.011015
0.024285
0.026936
0.027307
0.026044
0.025722
0.001765
0.024931
0.027097
0.027453
0.027430
0.027199
0.025041
0.003668
0.025002
0.007166
0.024750
0.025094
0.013344
0.025191
0.004142
0.024819
0.024927
0.025058
0.027329
0.005296
0.024710
0.024067
0.024971
0.003650
0.011850
0.001574
0.003688
0.027441
0.000455
0.004170
0.025836
0.026565
0.027324
0.026676
0.025304
0.019090
0.002433
0.020817
0.025248
0.023711
0.027331
0.027269
0.001136
0.024924
0.008994
0.007926
0.021116
0.014753
0.017140
0.023407
0.008990
0.005635
0.004680
0.005543
0.024345
0.019893
0.011119
0.019565
0.002370
0.025652
0.022736
0.024645
0.002862
0.010730
0.024871
0.006365
0.007163
0.004785
0.001268
0.001557
0.005710
0.025290
0.009140
0.008625
0.004419
0.020697
0.019976
0.006029
0.022798
0.002249
0.026122
0.017195
0.026635
0.026127
0.008140
0.024945
0.013639
0.026934
0.025823
0.024818
0.024646
0.023179
0.006106
0.005022
0.014621
0.010906
0.003187
0.018572
0.023207
0.026900
0.025380
0.024762
0.027246
0.024634
0.024535
0.024856
0.025896
0.023685
0.006683
0.024639
0.024727
0.001621
0.027058
0.024905
0.024926
0.024212
0.027271
0.027074
0.024569
0.024385
0.024556
0.021702
0.003917
0.007275
0.007527
0.027169
0.026763
0.027075
0.026257
0.003653
0.013434
0.024982
0.018626
0.026365
0.011547
0.027211
0.003533
0.027059
0.003299
0.022228
0.026258
0.027050
0.004098
0.012625
0.004727
0.001896
0.024251
0.025029
0.008952
0.006765
0.020128
0.026069
0.022606
0.018190
0.005404
0.004509
0.004500
0.023619
0.004134
0.021771
0.018511
0.013805
0.003586
0.024253
0.021258
0.012297
0.001570
0.024497
0.010268
0.006585
0.025907
0.011001
0.001708
0.011629
0.008228
0.008689
0.011767
0.017105
0.026717
0.004871
0.026207
0.019563
0.023965
0.006270
0.022358
0.006080
0.015905
0.025549
0.005547
0.009363
0.006043
0.002734
0.007614
0.006071
0.009941
0.023981
0.025530
0.024521
0.024637
0.015929
0.023746
0.002567
0.024461
0.025590
0.026821
0.025801
0.004581
0.026547
0.026345
0.007780
0.012560
0.024484
0.024537
0.024583
0.024391
0.006410
0.024103
0.023588
0.024735
0.027014
0.027067
0.008367
0.024539
0.024301
0.023772
0.018910
0.027033
0.027113
0.004009
0.021442
0.003312
0.019629
0.024369
0.017936
0.024004
0.012317
0.026853
0.024368
0.001243
0.026799
0.025725
0.026450
0.026242
0.026804
0.004795
0.026917
0.024127
0.003132
0.026862
0.026995
0.003126
0.026978
0.025697
0.010180
0.025775
0.014717
0.019124
0.009492
0.021814
0.023759
0.005216
0.005979
0.006597
0.019103
0.003172
0.012738
0.025664
0.007343
0.017996
0.002389
0.002287
0.025182
0.024185
0.004274
0.003139
0.023057
0.001607
0.025413
0.022810
0.003385
0.005244
0.024229
0.024185
0.001690
0.021265
0.025918
0.014779
0.004452
0.004558
0.015871
0.009947
0.006339
0.023100
0.026276
0.005485
0.023505
0.020345
0.010700
0.006817
0.026783
0.023421
0.025487
0.009510
0.006026
0.010449
0.026542
0.017392
0.006478
0.026395
0.025560
0.002868
0.025359
0.024366
0.007144
0.008285
0.007089
0.001264
0.012546
0.017013
0.011572
0.009172
0.026136
0.025389
0.004276
0.026690
0.026875
0.024195
0.024000
0.001970
0.024390
0.025576
0.026901
0.026080
0.026989
0.024405
0.026835
0.024450
0.011970
0.013739
0.002790
0.026645
0.005904
0.026754
0.024166
0.008333
0.003570
0.026022
0.027230
0.024104
0.026667
0.016905
0.023657
0.003912
0.026688
0.026786
0.006717
0.026800
0.024728
0.008758
0.024819
0.024043
0.025467
0.009729
0.011204
0.007573
0.014679
0.026544
0.020419
0.025788
0.025470
0.023133
0.006621
0.023667
0.005529
0.025099
0.005328
0.004851
0.022885
0.023501
0.025172
0.011702
0.002653
0.003815
0.023789
0.016948
0.001836
0.001936
0.023784
0.003072
0.010157
0.003358
0.024211
0.013490
0.015644
0.023752
0.000953
0.003459
0.010499
0.025980
0.024100
0.026043
0.026333
0.024510
0.009829
0.006147
0.006745
0.011621
0.012243
0.013596
0.004963
0.007788
0.007754
0.017996
0.026527
0.026457
0.008892
0.023936
0.004411
0.026764
0.023928
0.022961
0.005232
0.022903
0.025941
0.025193
0.026367
0.026785
0.024012
0.012985
0.026493
0.024105
0.025794
0.007622
0.003546
0.023364
0.026184
0.004250
0.004135
0.017936
0.026654
0.026733
0.022159
0.016245
0.004542
0.001419
0.007059
0.023968
0.008431
0.026404
0.002352
0.002007
0.025038
0.004184
0.006976
0.026353
0.026581
0.026637
0.025650
0.022351
0.001300
0.026589
0.013836
0.019471
0.022111
0.001873
0.005789
0.010887
0.010187
0.023599
0.011306
0.025111
0.008305
0.013034
0.018609
0.010886
0.017026
0.007039
0.021399
0.023122
0.026398
0.008374
0.006303
0.018788
0.006228
0.025670
0.026098
0.009430
0.024771
0.003143
0.004810
0.005611
0.004493
0.023638
0.001592
0.004348
0.013762
0.024677
0.002620
0.003593
0.024553
0.002302
0.005093
0.022765
0.001696
0.001086
0.026043
0.023651
0.005727
0.010742
0.022254
0.019589
0.026365
0.022544
0.020450
0.007147
0.025429
0.008954
0.012618
0.026242
0.025507
0.025078
0.002885
0.023710
0.000761
0.009969
0.007425
0.004910
0.025492
0.024921
0.011496
0.016810
0.025626
0.005618
0.023403
0.014193
0.004934
0.010214
0.023794
0.023418
0.026648
0.021340
0.014842
0.026348
0.022846
0.022706
0.024682
0.026491
0.023948
0.026551
0.025162
0.002092
0.025770
0.003787
0.026487
0.004530
0.023565
0.018814
0.022174
0.027095
0.023941
0.026343
0.025780
0.007172
0.002353
0.016142
0.010992
0.024026
0.004510
0.013887
0.007730
0.014501
0.003800
0.024522
0.026584
0.026481
0.025666
0.025912
0.004046
0.005156
0.026176
0.004130
0.023128
0.001092
0.022500
0.015301
0.008045
0.024607
0.004486
0.027273
0.023368
0.010653
0.016176
0.018815
0.008415
0.022581
0.006588
0.025182
0.005789
0.025597
0.005189
0.021189
0.022150
0.008993
0.004833
0.025797
0.010173
0.026152
0.024767
0.012890
0.002113
0.019697
0.025306
0.004699
0.008166
0.024324
0.024129
0.011210
0.003992
0.023321
0.018285
0.000733
0.026368
0.006198
0.004563
0.002578
0.026250
0.001787
0.003523
0.007622
0.007508
0.000945
0.003135
0.023010
0.023087
0.023735
0.004191
0.012014
0.014927
0.012426
0.012699
0.025846
0.022316
0.016961
0.026297
0.024681
0.010999
0.001972
0.019666
0.024809
0.013443
0.024846
0.004684
0.015420
0.003392
0.005354
0.015263
0.004956
0.009584
0.001181
0.001408
0.014081
0.025435