# vtk DataFile Version 2.0
Test
ASCII
DATASET POLYDATA
POINTS 7341 float
0.000000 0.000000 0.000000
1.000000 0.000000 0.000000
1.000000 1.000000 0.000000
0.000000 1.000000 0.000000
0.000000 0.500000 0.000000
0.500000 0.500000 0.000000
1.000000 0.500000 0.000000
0.499000 0.499000 0.000000
0.900000 0.010000 0.000000
0.029412 0.000000 0.000000
0.058824 0.000000 0.000000
0.088235 0.000000 0.000000
0.117647 0.000000 0.000000
0.147059 0.000000 0.000000
0.176471 0.000000 0.000000
0.205882 0.000000 0.000000
0.235294 0.000000 0.000000
0.264706 0.000000 0.000000
0.294118 0.000000 0.000000
0.323529 0.000000 0.000000
0.352941 0.000000 0.000000
0.382353 0.000000 0.000000
0.411765 0.000000 0.000000
0.441176 0.000000 0.000000
0.470588 0.000000 0.000000
0.500000 0.000000 0.000000
0.529412 0.000000 0.000000
0.558824 0.000000 0.000000
0.588235 0.000000 0.000000
0.617647 0.000000 0.000000
0.647059 0.000000 0.000000
0.676471 0.000000 0.000000
0.705882 0.000000 0.000000
0.735294 0.000000 0.000000
0.764706 0.000000 0.000000
0.794118 0.000000 0.000000
0.823529 0.000000 0.000000
0.852941 0.000000 0.000000
0.882353 0.000000 0.000000
0.911765 0.000000 0.000000
0.941176 0.000000 0.000000
0.970588 0.000000 0.000000
1.000000 0.029412 0.000000
1.000000 0.058824 0.000000
1.000000 0.088235 0.000000
1.000000 0.117647 0.000000
1.000000 0.147059 0.000000
1.000000 0.176471 0.000000
1.000000 0.205882 0.000000
1.000000 0.235294 0.000000
1.000000 0.264706 0.000000
1.000000 0.294118 0.000000
1.000000 0.323529 0.000000
1.000000 0.352941 0.000000
1.000000 0.382353 0.000000
1.000000 0.411765 0.000000
1.000000 0.441176 0.000000
1.000000 0.470588 0.000000
1.000000 0.529412 0.000000
1.000000 0.558824 0.000000
1.000000 0.588235 0.000000
1.000000 0.617647 0.000000
1.000000 0.647059 0.000000
1.000000 0.676471 0.000000
1.000000 0.705882 0.000000
1.000000 0.735294 0.000000
1.000000 0.764706 0.000000
1.000000 0.794118 0.000000
1.000000 0.823529 0.000000
1.000000 0.852941 0.000000
1.000000 0.882353 0.000000
1.000000 0.911765 0.000000
1.000000 0.941176 0.000000
1.000000 0.970588 0.000000
0.970588 1.000000 0.000000
0.941176 1.000000 0.000000
0.911765 1.000000 0.000000
0.882353 1.000000 0.000000
0.852941 1.000000 0.000000
0.823529 1.000000 0.000000
0.794118 1.000000 0.000000
0.764706 1.000000 0.000000
0.735294 1.000000 0.000000
0.705882 1.000000 0.000000
0.676471 1.000000 0.000000
0.647059 1.000000 0.000000
0.617647 1.000000 0.000000
0.588235 1.000000 0.000000
0.558824 1.000000 0.000000
0.529412 1.000000 0.000000
0.500000 1.000000 0.000000
0.470588 1.000000 0.000000
0.441176 1.000000 0.000000
0.411765 1.000000 0.000000
0.382353 1.000000 0.000000
0.352941 1.000000 0.000000
0.323529 1.000000 0.000000
0.294118 1.000000 0.000000
0.264706 1.000000 0.000000
0.235294 1.000000 0.000000
0.205882 1.000000 0.000000
0.176471 1.000000 0.000000
0.147059 1.000000 0.000000
0.117647 1.000000 0.000000
0.088235 1.000000 0.000000
0.058824 1.000000 0.000000
0.029412 1.000000 0.000000
0.000000 0.970588 0.000000
0.000000 0.941176 0.000000
0.000000 0.911765 0.000000
0.000000 0.882353 0.000000
0.000000 0.852941 0.000000
0.000000 0.823529 0.000000
0.000000 0.794118 0.000000
0.000000 0.764706 0.000000
0.000000 0.735294 0.000000
0.000000 0.705882 0.000000
0.000000 0.676471 0.000000
0.000000 0.647059 0.000000
0.000000 0.617647 0.000000
0.000000 0.588235 0.000000
0.000000 0.558824 0.000000
0.000000 0.529412 0.000000
0.007246 0.500000 0.000000
0.014493 0.500000 0.000000
0.021739 0.500000 0.000000
0.028986 0.500000 0.000000
0.036232 0.500000 0.000000
0.043478 0.500000 0.000000
0.050725 0.500000 0.000000
0.057971 0.500000 0.000000
0.065217 0.500000 0.000000
0.072464 0.500000 0.000000
0.079710 0.500000 0.000000
0.086957 0.500000 0.000000
0.094203 0.500000 0.000000
0.101449 0.500000 0.000000
0.108696 0.500000 0.000000
0.115942 0.500000 0.000000
0.123188 0.500000 0.000000
0.130435 0.500000 0.000000
0.137681 0.500000 0.000000
0.144928 0.500000 0.000000
0.152174 0.500000 0.000000
0.159420 0.500000 0.000000
0.166667 0.500000 0.000000
0.173913 0.500000 0.000000
0.181159 0.500000 0.000000
0.188406 0.500000 0.000000
0.195652 0.500000 0.000000
0.202899 0.500000 0.000000
0.210145 0.500000 0.000000
0.217391 0.500000 0.000000
0.224638 0.500000 0.000000
0.231884 0.500000 0.000000
0.239130 0.500000 0.000000
0.246377 0.500000 0.000000
0.253623 0.500000 0.000000
0.260870 0.500000 0.000000
0.268116 0.500000 0.000000
0.275362 0.500000 0.000000
0.282609 0.500000 0.000000
0.289855 0.500000 0.000000
0.297101 0.500000 0.000000
0.304348 0.500000 0.000000
0.311594 0.500000 0.000000
0.318841 0.500000 0.000000
0.326087 0.500000 0.000000
0.333333 0.500000 0.000000
0.340580 0.500000 0.000000
0.347826 0.500000 0.000000
0.355072 0.500000 0.000000
0.362319 0.500000 0.000000
0.369565 0.500000 0.000000
0.376812 0.500000 0.000000
0.384058 0.500000 0.000000
0.391304 0.500000 0.000000
0.398551 0.500000 0.000000
0.405797 0.500000 0.000000
0.413043 0.500000 0.000000
0.420290 0.500000 0.000000
0.427536 0.500000 0.000000
0.434783 0.500000 0.000000
0.442029 0.500000 0.000000
0.449275 0.500000 0.000000
0.456522 0.500000 0.000000
0.463768 0.500000 0.000000
0.471014 0.500000 0.000000
0.478261 0.500000 0.000000
0.485507 0.500000 0.000000
0.492754 0.500000 0.000000
0.510004 0.500000 0.000000
0.520408 0.500000 0.000000
0.531229 0.500000 0.000000
0.542483 0.500000 0.000000
0.554187 0.500000 0.000000
0.566359 0.500000 0.000000
0.579019 0.500000 0.000000
0.592185 0.500000 0.000000
0.605877 0.500000 0.000000
0.620118 0.500000 0.000000
0.634929 0.500000 0.000000
0.650332 0.500000 0.000000
0.666352 0.500000 0.000000
0.683013 0.500000 0.000000
0.700340 0.500000 0.000000
0.718361 0.500000 0.000000
0.737103 0.500000 0.000000
0.756595 0.500000 0.000000
0.776867 0.500000 0.000000
0.797950 0.500000 0.000000
0.819877 0.500000 0.000000
0.842681 0.500000 0.000000
0.866398 0.500000 0.000000
0.891064 0.500000 0.000000
0.916716 0.500000 0.000000
0.943396 0.500000 0.000000
0.971143 0.500000 0.000000
0.000000 0.470588 0.000000
0.000000 0.441176 0.000000
0.000000 0.411765 0.000000
0.000000 0.382353 0.000000
0.000000 0.352941 0.000000
0.000000 0.323529 0.000000
0.000000 0.294118 0.000000
0.000000 0.264706 0.000000
0.000000 0.235294 0.000000
0.000000 0.205882 0.000000
0.000000 0.176471 0.000000
0.000000 0.147059 0.000000
0.000000 0.117647 0.000000
0.000000 0.088235 0.000000
0.000000 0.058824 0.000000
0.000000 0.029412 0.000000
0.500341 0.497365 0.000000
0.501682 0.495729 0.000000
0.503023 0.494094 0.000000
0.504365 0.492458 0.000000
0.505706 0.490823 0.000000
0.507047 0.489187 0.000000
0.508388 0.487552 0.000000
0.509729 0.485916 0.000000
0.511070 0.484281 0.000000
0.512411 0.482645 0.000000
0.513753 0.481010 0.000000
0.515094 0.479375 0.000000
0.516435 0.477739 0.000000
0.517776 0.476104 0.000000
0.519117 0.474468 0.000000
0.520458 0.472833 0.000000
0.521799 0.471197 0.000000
0.523140 0.469562 0.000000
0.524482 0.467926 0.000000
0.525823 0.466291 0.000000
0.527164 0.464656 0.000000
0.528505 0.463020 0.000000
0.529846 0.461385 0.000000
0.531187 0.459749 0.000000
0.532528 0.458114 0.000000
0.533870 0.456478 0.000000
0.535211 0.454843 0.000000
0.536552 0.453207 0.000000
0.537893 0.451572 0.000000
0.539234 0.449936 0.000000
0.540575 0.448301 0.000000
0.541916 0.446666 0.000000
0.543258 0.445030 0.000000
0.544599 0.443395 0.000000
0.545940 0.441759 0.000000
0.547281 0.440124 0.000000
0.548622 0.438488 0.000000
0.549963 0.436853 0.000000
0.551304 0.435217 0.000000
0.552645 0.433582 0.000000
0.553987 0.431946 0.000000
0.555328 0.430311 0.000000
0.556669 0.428676 0.000000
0.558010 0.427040 0.000000
0.559351 0.425405 0.000000
0.560692 0.423769 0.000000
0.562033 0.422134 0.000000
0.563375 0.420498 0.000000
0.564716 0.418863 0.000000
0.566057 0.417227 0.000000
0.567398 0.415592 0.000000
0.568739 0.413957 0.000000
0.570080 0.412321 0.000000
0.571421 0.410686 0.000000
0.572763 0.409050 0.000000
0.574104 0.407415 0.000000
0.575445 0.405779 0.000000
0.576786 0.404144 0.000000
0.578127 0.402508 0.000000
0.579468 0.400873 0.000000
0.580809 0.399237 0.000000
0.582151 0.397602 0.000000
0.583492 0.395967 0.000000
0.584833 0.394331 0.000000
0.586174 0.392696 0.000000
0.587515 0.391060 0.000000
0.588856 0.389425 0.000000
0.590197 0.387789 0.000000
0.591538 0.386154 0.000000
0.592880 0.384518 0.000000
0.594221 0.382883 0.000000
0.595562 0.381247 0.000000
0.596903 0.379612 0.000000
0.598244 0.377977 0.000000
0.599585 0.376341 0.000000
0.600926 0.374706 0.000000
0.602268 0.373070 0.000000
0.603609 0.371435 0.000000
0.604950 0.369799 0.000000
0.606291 0.368164 0.000000
0.607632 0.366528 0.000000
0.608973 0.364893 0.000000
0.610314 0.363258 0.000000
0.611656 0.361622 0.000000
0.612997 0.359987 0.000000
0.614338 0.358351 0.000000
0.615679 0.356716 0.000000
0.617020 0.355080 0.000000
0.618361 0.353445 0.000000
0.619702 0.351809 0.000000
0.621043 0.350174 0.000000
0.622385 0.348538 0.000000
0.623726 0.346903 0.000000
0.625067 0.345268 0.000000
0.626408 0.343632 0.000000
0.627749 0.341997 0.000000
0.629090 0.340361 0.000000
0.630431 0.338726 0.000000
0.631773 0.337090 0.000000
0.633114 0.335455 0.000000
0.634455 0.333819 0.000000
0.635796 0.332184 0.000000
0.637137 0.330548 0.000000
0.638478 0.328913 0.000000
0.639819 0.327278 0.000000
0.641161 0.325642 0.000000
0.642502 0.324007 0.000000
0.643843 0.322371 0.000000
0.645184 0.320736 0.000000
0.646525 0.319100 0.000000
0.647866 0.317465 0.000000
0.649207 0.315829 0.000000
0.650548 0.314194 0.000000
0.651890 0.312559 0.000000
0.653231 0.310923 0.000000
0.654572 0.309288 0.000000
0.655913 0.307652 0.000000
0.657254 0.306017 0.000000
0.658595 0.304381 0.000000
0.659936 0.302746 0.000000
0.661278 0.301110 0.000000
0.662619 0.299475 0.000000
0.663960 0.297839 0.000000
0.665301 0.296204 0.000000
0.666642 0.294569 0.000000
0.667983 0.292933 0.000000
0.669324 0.291298 0.000000
0.670666 0.289662 0.000000
0.672007 0.288027 0.000000
0.673348 0.286391 0.000000
0.674689 0.284756 0.000000
0.676030 0.283120 0.000000
0.677371 0.281485 0.000000
[...]
POINT_DATA 7341
SCALARS UX float 1
LOOKUP_TABLE default
0.000000
0.000000
0.303000
0.303000
0.117728
0.052618
0.125637
0.052358
0.000558
-0.000000
0.000000
0.000000
0.000000
0.000000
0.000000
0.000000
0.000000
0.000000
0.000000
0.000000
0.000000
0.000000
0.000000
0.000000
0.000000
0.000000
0.000000
0.000000
0.000000
0.000000
0.000000
0.000000
0.000000
0.000000
0.000000
0.000000
0.000000
0.000000
0.000000
0.000000
0.000000
-0.000000
0.005746
0.016315
0.024203
0.030875
0.037026
0.043095
0.046935
0.053414
0.058598
0.064325
0.070808
0.078050
0.085398
0.093558
0.101603
0.113326
0.144033
0.158615
0.182176
0.188512
0.193555
0.197236
0.195986
0.201745
0.209373
0.218076
0.229095
0.240647
0.252619
0.264908
0.277372
0.290121
0.303000
0.303000
0.303000
0.303000
0.303000
0.303000
0.303000
0.303000
0.303000
0.303000
0.303000
0.303000
0.303000
0.303000
0.303000
0.303000
0.303000
0.303000
0.303000
0.303000
0.303000
0.303000
0.303000
0.303000
0.303000
0.303000
0.303000
0.303000
0.303000
0.303000
0.303000
0.303000
0.303000
0.289768
0.276578
0.263421
0.250321
0.237237
0.224178
0.211161
0.198069
0.184451
0.170454
0.155227
0.139733
0.124296
0.109735
0.096270
0.086153
0.111640
0.108037
0.100596
0.096964
0.095543
0.091148
0.097902
0.088417
0.104154
0.110826
0.114699
0.120350
0.125110
0.067359
0.120459
0.053921
0.094078
0.092545
0.092993
0.091820
0.089765
0.088131
0.087033
0.086465
0.086095
0.081698
0.080552
0.080662
0.079678
0.078260
0.076361
0.077169
0.069380
0.071164
0.070462
0.069543
0.072079
0.072332
0.064196
0.063117
0.066138
0.057224
0.061174
0.063049
0.064919
0.067361
0.058515
0.062831
0.066275
0.072983
0.068611
0.064482
0.061229
0.057735
0.060370
0.063070
0.059856
0.056769
0.058673
0.054408
0.055795
0.056434
0.056773
0.061858
0.055676
0.054823
0.053713
0.053143
0.052029
0.051617
0.051270
0.051018
0.050939
0.051042
0.051194
0.051815
0.052493
0.053602
0.054782
0.056452
0.058527
0.060768
0.063637
0.066874
0.070506
0.074524
0.078947
0.083803
0.089099
0.094424
0.099575
0.104708
0.109891
0.115149
0.120541
0.120317
0.113606
0.105344
0.090642
0.078919
0.070251
0.063930
0.057942
0.052890
0.048131
0.043032
0.037969
0.032771
0.027132
0.021053
0.018914
0.051740
0.051124
0.050515
0.049935
0.049360
0.048791
0.048221
0.047649
0.047073
0.046499
0.045930
0.045368
0.044812
0.044259
0.043712
0.043176
0.042652
0.042138
0.041634
0.041135
0.040643
0.040160
0.039688
0.039220
0.038756
0.038297
0.037849
0.037410
0.036985
0.036561
0.036143
0.035731
0.035324
0.034922
0.034527
0.034143
0.033764
0.033385
0.033013
0.032646
0.032282
0.031922
0.031567
0.031220
0.030888
0.030553
0.030228
0.029909
0.029604
0.029307
0.028995
0.028691
0.028396
0.028115
0.027840
0.027569
0.027304
0.027049
0.026803
0.026562
0.026325
0.026091
0.025864
0.025643
0.025428
0.025215
0.025009
0.024806
0.024609
0.024416
0.024228
0.024044
0.023865
0.023691
0.023521
0.023356
0.023195
0.023038
0.022882
0.022729
0.022581
0.022438
0.022296
0.022156
0.022018
0.021882
0.021750
0.021619
0.021486
0.021356
0.021226
0.021098
0.020969
0.020840
0.020711
0.020583
0.020453
0.020320
0.020187
0.020050
0.019913
0.019774
0.019632
0.019489
0.019344
0.019196
0.019047
0.018895
0.018742
0.018586
0.018428
0.018267
0.018106
0.017942
0.017777
0.017611
0.017443
0.017274
0.017104
0.016931
0.016758
0.016585
0.016411
0.016236
0.016059
0.015883
0.015706
0.015529
0.015351
0.015173
0.014994
0.014815
0.014635
0.014455
0.014274
0.014094
0.013913
0.013732
0.013552
0.013371
0.013190
0.013010
0.012830
0.012650
0.012471
0.012292
0.012113
0.011935
0.011757
0.011580
0.011404
0.011230
0.011056
0.010883
0.010711
0.010542
0.010374
0.010207
0.010043
0.009880
0.009715
0.009540
0.009361
0.009183
0.009007
0.008831
0.008657
0.008484
0.008311
0.008140
0.007970
0.007801
0.007633
0.007466
0.007301
0.007136
0.006974
0.006812
0.006652
0.006494
0.006337
0.006181
0.006028
0.005876
0.005727
0.005579
0.005434
0.005290
0.005149
0.005011
0.004875
0.004743
0.004613
0.004486
0.004361
0.004241
0.004123
0.004008
0.003897
0.003788
0.003683
0.003581
0.003483
0.003388
0.003297
0.003208
0.003123
0.003042
0.002964
0.002889
0.002817
0.002749
0.002684
0.002623
0.002564
0.002510
0.002459
0.002411
0.002366
0.002323
0.002284
0.002248
0.002215
0.002184
0.002156
0.002132
0.002110
0.002090
0.002072
0.002057
0.002044
0.002035
0.002026
0.002019
0.002012
0.002007
0.002002
0.002000
0.001998
0.001997
0.001998
0.001999
0.002000
0.002003
0.002007
0.002011
0.002017
0.002023
0.002030
0.002039
0.002048
0.002056
0.002064
0.002071
0.002078
0.002083
0.002086
0.002088
0.002091
0.002091
0.002090
0.002088
0.002083
0.002076
0.002067
0.002057
0.002044
0.002029
0.002012
0.001992
0.001968
0.001943
0.001914
0.001886
0.001854
0.001816
0.001776
0.001733
0.001689
0.001641
0.001591
0.001541
0.001490
0.001439
0.001389
0.001341
0.001288
0.001235
0.001181
0.001125
0.001061
0.000998
0.000935
0.000870
0.000808
0.000747
0.000685
0.000624
0.077340
0.069199
0.068669
0.000128
0.000960
0.083214
0.000335
0.066063
0.085695
0.055423
0.053540
-0.000197
0.061801
0.100935
0.034950
0.046094
0.048095
-0.000246
0.000637
0.058793
0.015471
0.122282
0.047248
0.030023
0.055687
0.096190
0.119239
0.078025
0.096199
0.055835
0.002565
0.076219
0.068994
0.093307
0.082385
0.000455
0.047293
0.003900
0.053471
0.000606
0.076373
0.068197
0.062648
0.116789
0.001689
0.050974
0.001258
0.052011
0.115115
0.108817
0.000237
0.046936
0.022455
0.086318
-0.000314
0.046953
0.050105
0.075802
0.058488
0.073961
0.040394
0.045485
-0.000126
-0.000010
0.057037
0.055516
0.056136
0.096661
0.105704
0.000577
0.087585
0.000800
0.062833
0.000416
0.061386
0.040670
-0.000076
0.109113
0.023707
-0.008626
0.014482
-0.001175
0.012688
0.071361
0.076844
0.079275
0.065014
0.069103
0.068228
0.080943
0.110482
0.097894
0.091280
0.090017
0.088432
0.084427
0.113329
0.125200
0.124091
0.123658
0.050055
0.000955
0.049012
0.051834
0.067214
0.073615
0.001710
0.054125
0.001543
0.081868
0.055346
0.000101
0.059570
0.092294
0.034745
0.051210
-0.000311
0.077270
0.010828
0.075517
0.043953
0.044051
0.000265
0.077433
0.050296
0.000775
0.048108
0.044707
0.069454
0.121101
0.021011
0.093958
0.051630
0.048712
0.000651
0.089174
0.114366
-0.000117
0.047369
0.054454
0.029654
0.047643
-0.000265
0.088507
0.055312
0.049119
0.007118
0.051926
0.068933
0.050237
0.056133
0.062828
0.000140
0.070430
0.001194
0.078686
0.056279
0.001126
0.070085
0.000715
0.091771
0.058031
0.086810
0.000251
0.051469
0.100848
0.061868
0.002164
0.035585
0.008456
0.000715
0.012498
0.062379
0.065938
0.076235
0.076677
0.068576
0.068254
0.069040
0.069126
0.077987
0.079868
0.083213
0.095227
0.086962
0.103998
0.049684
0.050905
0.111665
0.118633
0.121661
0.049011
0.116753
0.120553
0.113034
0.047949
0.051032
0.049209
0.030269
0.002069
0.064363
0.051725
0.025926
0.045126
0.058405
0.044278
0.054592
0.098275
0.000832
0.056711
0.049051
0.084399
0.091570
0.004678
0.004767
0.001067
0.060174
0.117405
-0.000023
0.117478
0.065426
0.048562
0.064626
0.078955
0.070258
0.104912
0.054037
-0.000082
0.080518
0.044168
0.043714
0.093905
-0.000338
0.064257
0.047587
0.001889
0.069856
0.045078
0.039476
0.001775
0.056885
0.054396
0.050302
0.000509
0.000855
0.001231
0.047495
-0.000333
0.016610
0.055296
0.054552
0.047071
0.080811
0.073729
0.002629
0.081991
0.049491
0.038385
0.050171
0.032980
0.027579
0.000336
0.016595
0.004252
0.061725
0.067210
0.067966
0.074869
0.075973
-0.000214
0.068965
0.099255
0.111529
0.076832
0.044605
0.080809
0.117965
0.115219
0.087661
0.084926
0.082906
0.066266
0.118475
0.111056
0.049405
0.049214
0.047060
0.090417
0.046380
0.025097
0.006028
0.048888
0.047654
0.050668
0.053704
0.050433
0.059076
0.071959
0.053102
0.003689
0.065495
0.044444
0.000776
0.053184
0.086124
-0.000222
0.004817
0.074174
0.011087
0.079829
-0.000089
0.041433
0.035176
0.065463
0.075898
0.111498
0.001835
0.090388
0.002378
0.052357
0.054624
0.044310
0.046266
0.002219
0.049806
0.053017
0.054061
0.046280
0.060126
0.000411
0.057474
0.090302
0.041826
0.028254
0.087911
0.062589
0.072081
0.047063
0.004504
0.049319
0.029871
0.024702
0.007287
0.008318
0.053998
0.055892
0.002752
0.002506
0.059158
0.003041
0.064071
0.068423
0.068417
0.076149
0.086232
0.079841
0.067427
0.017921
0.115080
0.075312
0.114321
0.047917
0.062893
-0.000250
0.079848
0.080904
0.115683
0.069902
0.114749
0.108943
0.116512
0.099469
0.052545
0.051113
0.048528
0.048524
0.046262
0.023611
0.022314
0.087509
0.046499
0.066280
0.105974
0.047556
0.045396
0.051267
0.050261
0.005361
0.003890
0.060241
0.001072
0.048209
0.078988
0.043201
0.023731
0.048688
0.040774
0.084763
0.000040
0.039731
0.042042
0.068020
0.048631
0.047176
0.053619
0.055494
0.002966
0.029894
0.004728
0.094477
0.041406
0.074639
0.010537
0.000986
0.003606
0.019167
0.060070
0.066955
-0.000244
0.008777
0.041633
0.076417
0.044734
0.075104
0.067947
0.079123
0.043551
0.098576
0.081876
0.046263
0.040989
0.016483
0.003487
0.054601
0.071319
0.049846
0.056399
0.057989
0.005654
0.069068
0.045382
0.077170
0.091592
0.023187
0.084673
0.003844
0.000258
0.057726
0.061819
0.040441
0.017276
0.053567
0.051301
0.052693
0.032792
0.065806
0.001376
0.073147
0.063624
0.060114
-0.000128
0.109928
0.051718
0.113221
0.071754
0.052668
0.049963
0.077836
0.078789
0.047795
0.112736
0.097632
0.084595
0.105557
-0.000209
0.045930
0.088477
0.041952
0.044052
0.075080
0.104694
0.046435
0.056590
0.070126
0.051505
0.045174
0.040251
0.000036
0.038228
0.014147
0.070225
0.008968
0.063659
0.000252
0.065511
0.090287
0.000818
0.075142
0.039773
0.043176
0.053028
0.085256
0.000262
0.027370
0.036752
0.001629
0.002702
0.054447
0.041931
-0.000016
0.038332
0.082603
0.047252
0.050206
0.049871
0.102990
0.089095
0.054313
0.006560
0.042462
0.063168
0.005846
0.009863
0.046604
0.003600
0.024968
0.000039
0.043553
0.069516
0.056278
0.056974
0.080518
0.018159
0.037099
0.004804
0.004841
0.051495
0.036260
0.052491
0.045337
0.065409
0.075793
0.049557
0.057562
0.066356
0.083120
0.057085
0.102253
0.060570
0.079961
0.047953
0.045393
0.020980
0.004335
0.085901
0.047546
0.074248
0.101679
0.068858
0.067361
0.050283
0.003202
0.006195
0.041531
0.039209
0.045082
0.078158
0.070303
0.052179
0.012723
0.107265
0.084068
0.044719
0.053650
0.062169
0.051312
0.073484
0.046580
0.045857
0.077663
0.052664
0.005557
0.052997
0.001442
0.044890
0.023006
0.010355
0.067679
0.050976
0.008863
0.000390
0.038212
0.055104
0.003975
0.050356
0.082023
0.066785
0.000181
0.057678
0.050174
0.007634
0.068723
0.050427
0.000488
0.048994
0.049958
0.065757
0.055609
0.075908
0.042584
0.058563
0.095566
0.039101
0.051381
0.081072
0.060178
0.071400
0.030663
0.093261
0.038823
0.075552
0.007728
0.043844
0.067715
0.005389
0.000187
0.005423
0.001470
0.038741
0.007356
0.042720
0.002231
0.044731
0.012379
0.014424
0.039762
0.016693
0.000057
0.032505
0.004741
0.050994
0.044181
0.048818
0.047409
0.055356
0.051964
0.050595
0.063985
0.070192
0.004719
0.078126
0.061381
0.000092
0.045946
0.083258
0.057668
0.044725
0.044139
0.074101
0.055103
0.076593
0.097500
0.061545
0.008097
0.087150
0.090293
0.044596
0.011127
0.044085
0.045389
0.077050
0.000216
0.040257
0.052045
0.046586
0.053481
0.005581
0.000602
0.012266
0.000302
0.006214
0.037108
0.000598
0.004172
0.058663
0.035506
0.038227
0.040606
0.002697
0.088181
0.072206
0.055253
0.041959
0.006410
0.000338
0.051124
0.001462
0.018348
0.003718
0.007129
0.050797
0.049368
0.044163
0.061555
0.092003
0.013705
0.037006
0.038046
0.045902
0.047936
0.036820
0.026281
0.047484
0.000505
0.060922
0.050999
0.055705
0.059444
0.077852
0.045412
0.081362
0.071305
0.073890
0.068501
0.005945
0.087377
0.000542
0.010249
0.000261
0.042884
0.019529
0.042616
0.060675
0.067705
0.011094
0.005163
0.004536
0.062815
0.049532
0.008897
0.050384
0.048894
0.049320
0.042393
0.055781
0.052041
0.053235
0.054167
0.064649
0.075912
0.076518
0.009509
0.066119
0.079060
0.062972
0.084223
0.044712
0.043546
0.059356
0.095874
0.048028
0.000043
0.039315
0.043692
0.043673
0.001848
0.046666
0.056992
0.050347
0.000674
0.044207
0.049181
0.007511
0.009605
0.048719
0.040436
0.074438
0.016934
0.053996
0.000556
0.053505
0.035536
0.070375
0.003834
0.036817
0.000689
0.000784
0.084881
0.038631
0.065539
0.003201
0.004802
0.044111
0.045983
0.016359
0.044330
0.048865
0.052402
0.001179
0.077182
0.064485
0.066846
0.079671
0.057706
0.033404
0.000427
0.049277
0.004501
0.053831
0.002347
0.045107
0.013676
0.006478
0.041583
0.047051
0.011713
0.089070
0.029111
0.041548
0.049771
0.000415
0.007399
0.042680
0.000413
0.080181
0.001025
0.003111
0.006705
0.037631
0.047544
0.015090
0.066298
0.049205
0.012994
0.048322
0.048297
0.048476
0.049297
0.061955
0.072416
0.069572
0.081693
0.051421
0.059252
0.086554
0.074743
0.060117
0.084762
0.040930
0.053766
0.041739
0.002212
0.056957
0.043197
0.043594
0.042138
0.000439
0.075263
0.055024
0.047319
0.047833
0.005900
0.043521
0.037194
0.012160
0.052327
0.000743
0.006384
0.064106
0.000837
0.047497
0.002957
0.073292
0.056860
0.037010
0.047884
0.003252
0.039143
0.039343
0.046243
0.053262
0.048657
0.008630
0.035964
0.002088
0.041067
0.031261
0.001222
0.059486
0.082444
0.004186
0.004443
0.041597
0.019180
0.038822
0.072680
0.070145
0.067304
0.051971
0.045459
0.006951
0.002841
0.015637
0.047161
0.000565
0.000720
0.006072
0.083939
0.008038
0.022580
0.046838
0.050856
0.000745
0.048382
0.036551
0.078885
0.014835
0.040299
0.042714
0.048267
0.002694
0.048032
0.077904
0.048340
0.053969
0.001639
0.045281
0.062837
0.079800
0.040251
0.049661
0.041524
0.075469
0.066394
0.064821
0.084772
0.001874
0.082087
0.078323
0.045720
0.043541
0.010317
0.042087
0.051964
0.042192
0.055057
0.000537
0.072853
0.048105
0.043181
0.037470
0.057796
0.000624
0.000859
0.044329
0.005507
0.047002
0.051928
0.007884
0.029489
0.042290
0.049780
0.002354
0.036064
0.061976
0.076440
0.000930
0.004578
0.003512
0.046101
0.000997
0.042775
0.035452
0.000963
0.001074
0.047094
0.039714
0.036349
0.009986
0.064338
0.043115
0.002509
0.013667
0.076443
0.003119
0.008635
0.039252
0.005271
0.062384
0.048045
0.079826
0.065415
0.035274
0.042469
0.032439
0.006892
0.034919
0.001794
0.068631
0.007208
0.014500
0.045112
0.081815
0.070450
0.073165
0.045055
0.003207
0.008514
0.040826
0.001860
0.006513
0.001024
0.017814
0.033354
0.000799
0.021732
0.038103
0.047364
0.040633
0.046545
0.046998
0.002373
0.059905
0.045477
0.042911
0.042192
0.041130
0.050136
0.004633
0.068047
0.008949
0.077267
0.056264
0.027157
0.071361
0.000944
0.057141
0.075918
0.081597
0.043654
0.003692
0.054029
0.038881
0.079893
0.005228
0.025818
0.000678
0.000719
0.040481
0.000243
0.000911
0.045152
0.037483
0.040935
0.047215
0.046615
0.055703
0.003006
0.045919
0.052490
0.041940
0.041583
0.044581
0.000742
0.045348
0.009404
0.007025
0.039092
0.027503
0.046914
0.035739
0.010492
0.002594
0.001265
0.006491
0.074202
0.058979
0.018745
0.041709
0.002809
0.034374
0.037378
0.057448
0.001221
0.017027
0.051593
0.004791
0.007676
0.001518
0.001258
0.002008
0.002974
0.037171
0.011158
0.009477
0.001017
0.040086
0.040202
0.003876
0.039642
0.001038
0.035784
0.037864
0.046197
0.045856
0.007569
0.050732
0.025680
0.040194
0.034554
0.068959
0.065688
0.073225
0.003697
0.001831
0.036952
0.020249
0.004114
0.042057
0.036620
0.045584
0.045978
0.048277
0.042983
0.077586
0.073733
0.060747
0.046873
0.034164
0.008968
0.052761
0.079427
0.001024
0.039961
0.047180
0.063148
0.074770
0.042193
0.041123
0.071608
0.077348
0.054970
0.066985
0.000957
0.010718
0.007395
0.043901
0.038144
0.040677
0.035730
0.001103
0.030567
0.064889
0.053492
0.046051
0.021820
0.041650
0.004052
0.044752
0.001128
0.040610
0.036606
0.039495
0.000946
0.027779
0.005428
0.002328
0.050248
0.044841
0.008105
0.004436
0.036222
0.045013
0.033879
0.051030
0.002143
0.004452
0.001206
0.071783
0.001209
0.035179
0.037837
0.024551
0.001216
0.067438
0.037934
0.025680
0.001955
0.046236
0.012819
0.006784
0.035425
0.016927
0.001297
0.019634
0.009086
0.008719
0.021552
0.035348
0.038271
0.001379
0.036703
0.036272
0.075325
0.003701
0.034650
0.003218
0.031348
0.033917
0.002397
0.010144
0.004200
0.003246
0.006402
0.007247
0.013101
0.069424
0.045576
0.049366
0.048731
0.041621
0.033361
0.001222
0.035033
0.033961
0.040223
0.044822
0.001227
0.045209
0.045280
0.008870
0.021994
0.057889
0.060383
0.062618
0.063724
0.007277
0.071184
0.035044
0.045504
0.039644
0.043130
0.008061
0.066700
0.052554
0.075358
0.037019
0.041651
0.042275
0.001279
0.065725
0.001310
0.056968
0.055172
0.037350
0.072194
0.023279
0.044846
0.077725
0.001610
0.039722
0.034741
0.037436
0.039585
0.037143
0.001338
0.041054
0.075246
0.003662
0.039405
0.044091
0.001316
0.040684
0.045286
0.010862
0.043940
0.025648
0.033183
0.010763
0.032302
0.032595
0.001721
0.002786
0.006003
0.053505
0.003463
0.020563
0.034176
0.005848
0.033961
0.002716
0.001284
0.044436
0.055468
0.001407
0.001488
0.031815
0.001922
0.033899
0.033185
0.001511
0.001881
0.047359
0.064250
0.001458
0.036388
0.035689
0.036833
0.001252
0.001195
0.029121
0.011603
0.003407
0.072683
0.044431
0.005612
0.072962
0.035299
0.015070
0.004851
0.038670
0.069539
0.043648
0.009271
0.005821
0.014472
0.038801
0.033474
0.003799
0.037533
0.036818
0.001394
0.033386
0.046766
0.006856
0.008203
0.004950
0.001580
0.022746
0.045713
0.017697
0.008614
0.036753
0.044152
0.001209
0.040577
0.041660
0.051043
0.065133
0.001209
0.049892
0.034564
0.043323
0.044294
0.042522
0.058610
0.039169
0.061098
0.023423
0.031942
0.003127
0.044896
0.006165
0.040391
0.068859
0.010749
0.001359
0.035261
0.040134
0.053039
0.039256
0.032776
0.074634
0.001371
0.039746
0.041164
0.004259
0.044215
0.054911
0.007634
0.043118
0.044486
0.042789
0.008651
0.013942
0.005352
0.024017
0.040600
0.034190
0.036172
0.033845
0.031190
0.005459
0.062647
0.005076
0.032723
0.001801
0.001468
0.068992
0.068237
0.032964
0.016318
0.001449
0.001449
0.048424
0.030389
0.002196
0.001366
0.050689
0.001623
0.009618
0.001640
0.062061
0.030272
0.039667
0.066034
0.001195
0.003670
0.011774
0.036049
0.058885
0.043430
0.036281
0.034227
0.010038
0.005389
0.004000
0.017125
0.020615
0.022189
0.004978
0.007345
0.005680
0.048876
0.039717
0.038854
0.009432
0.062156
0.001388
0.041892
0.045156
0.032535
0.001787
0.071528
0.036165
0.042597
0.043978
0.042457
0.055897
0.025956
0.037983
0.047911
0.043211
0.007645
0.001503
0.073007
0.037042
0.001490
0.001476
0.032020
0.038585
0.043527
0.038743
0.028753
0.001126
0.001292
0.005296
0.053486
0.007032
0.038270
0.001523
0.001636
0.043044
0.001086
0.004438
0.038301
0.039311
0.041245
0.034949
0.069754
0.001587
0.044276
0.033200
0.032738
0.031642
0.000944
0.002467
0.014292
0.012537
0.042779
0.012362
0.041440
0.006202
0.021382
0.030279
0.013124
0.029149
0.004290
0.030299
0.030513
0.040676
0.007750
0.003072
0.050903
0.004981
0.034570
0.042871
0.008106
0.034111
0.003211
0.001499
0.002108
0.001529
0.052785
0.001853
0.001652
0.026901
0.041659
0.001621
0.001661
0.043895
0.001707
0.004558
0.070343
0.001593
0.001333
0.037042
0.051311
0.002319
0.010660
0.031055
0.031938
0.038906
0.029890
0.033049
0.006145
0.034351
0.008874
0.018816
0.037783
0.035791
0.032730
0.001567
0.049298
0.000985
0.009152
0.005043
0.001465
0.042062
0.032284
0.015622
0.043468
0.035058
0.004612
0.060169
0.030776
0.001431
0.011657
0.045723
0.063480
0.042696
0.035082
0.034983
0.038370
0.066017
0.067018
0.043487
0.040059
0.057035
0.041955
0.033016
0.002503
0.035645
0.004055
0.039368
0.001397
0.066877
0.034642
0.068443
0.038436
0.048218
0.043158
0.042434
0.004580
0.001847
0.026862
0.012872
0.059870
0.004009
0.021666
0.005784
0.035082
0.001570
0.045344
0.043641
0.041332
0.035758
0.036595
0.001587
0.006028
0.037452
0.000833
0.070912
0.001030
0.070410
0.025527
0.006364
0.063737
0.001648
0.040688
0.046992
0.009660
0.025861
0.029847
0.007251
0.029347
0.004952
0.040930
0.002275
0.035793
0.001745
0.030708
0.063565
0.007423
0.001597
0.041802
0.010913
0.037809
0.033467
0.018501
0.002462
0.054292
0.034548
0.001760
0.005947
0.042069
0.043783
0.010776
0.001652
0.048862
0.030385
0.000983
0.042061
0.002875
0.001799
0.001747
0.040705
0.002084
0.001736
0.005177
0.006263
0.000983
0.001799
0.063726
0.060828
0.031858
0.003765
0.016196
0.031420
0.016795
0.018816
0.036649
0.030239
0.027588
0.039100
0.031685
0.011428
0.001805
0.031094
0.032076
0.024141
0.041299
0.001572
0.035387
0.003361
0.001825
0.024128
0.001476
0.010216
0.001416
0.001648