# vtk DataFile Version 2.0
Test
ASCII
DATASET POLYDATA
POINTS 7341 float
0.000000 0.000000 0.000000
1.000000 0.000000 0.000000
1.000000 1.000000 0.000000
0.000000 1.000000 0.000000
0.000000 0.500000 0.000000
0.500000 0.500000 0.000000
1.000000 0.500000 0.000000
0.499000 0.499000 0.000000
0.900000 0.010000 0.000000
0.029412 0.000000 0.000000
0.058824 0.000000 0.000000
0.088235 0.000000 0.000000
0.117647 0.000000 0.000000
0.147059 0.000000 0.000000
0.176471 0.000000 0.000000
0.205882 0.000000 0.000000
0.235294 0.000000 0.000000
0.264706 0.000000 0.000000
0.294118 0.000000 0.000000
0.323529 0.000000 0.000000
0.352941 0.000000 0.000000
0.382353 0.000000 0.000000
0.411765 0.000000 0.000000
0.441176 0.000000 0.000000
0.470588 0.000000 0.000000
0.500000 0.000000 0.000000
0.529412 0.000000 0.000000
0.558824 0.000000 0.000000
0.588235 0.000000 0.000000
0.617647 0.000000 0.000000
0.647059 0.000000 0.000000
0.676471 0.000000 0.000000
0.705882 0.000000 0.000000
0.735294 0.000000 0.000000
0.764706 0.000000 0.000000
0.794118 0.000000 0.000000
0.823529 0.000000 0.000000
0.852941 0.000000 0.000000
0.882353 0.000000 0.000000
0.911765 0.000000 0.000000
0.941176 0.000000 0.000000
0.970588 0.000000 0.000000
1.000000 0.029412 0.000000
1.000000 0.058824 0.000000
1.000000 0.088235 0.000000
1.000000 0.117647 0.000000
1.000000 0.147059 0.000000
1.000000 0.176471 0.000000
1.000000 0.205882 0.000000
1.000000 0.235294 0.000000
1.000000 0.264706 0.000000
1.000000 0.294118 0.000000
1.000000 0.323529 0.000000
1.000000 0.352941 0.000000
1.000000 0.382353 0.000000
1.000000 0.411765 0.000000
1.000000 0.441176 0.000000
1.000000 0.470588 0.000000
1.000000 0.529412 0.000000
1.000000 0.558824 0.000000
1.000000 0.588235 0.000000
1.000000 0.617647 0.000000
1.000000 0.647059 0.000000
1.000000 0.676471 0.000000
1.000000 0.705882 0.000000
1.000000 0.735294 0.000000
1.000000 0.764706 0.000000
1.000000 0.794118 0.000000
1.000000 0.823529 0.000000
1.000000 0.852941 0.000000
1.000000 0.882353 0.000000
1.000000 0.911765 0.000000
1.000000 0.941176 0.000000
1.000000 0.970588 0.000000
0.970588 1.000000 0.000000
0.941176 1.000000 0.000000
0.911765 1.000000 0.000000
0.882353 1.000000 0.000000
0.852941 1.000000 0.000000
0.823529 1.000000 0.000000
0.794118 1.000000 0.000000
0.764706 1.000000 0.000000
0.735294 1.000000 0.000000
0.705882 1.000000 0.000000
0.676471 1.000000 0.000000
0.647059 1.000000 0.000000
0.617647 1.000000 0.000000
0.588235 1.000000 0.000000
0.558824 1.000000 0.000000
0.529412 1.000000 0.000000
0.500000 1.000000 0.000000
0.470588 1.000000 0.000000
0.441176 1.000000 0.000000
0.411765 1.000000 0.000000
0.382353 1.000000 0.000000
0.352941 1.000000 0.000000
0.323529 1.000000 0.000000
0.294118 1.000000 0.000000
0.264706 1.000000 0.000000
0.235294 1.000000 0.000000
0.205882 1.000000 0.000000
0.176471 1.000000 0.000000
0.147059 1.000000 0.000000
0.117647 1.000000 0.000000
0.088235 1.000000 0.000000
0.058824 1.000000 0.000000
0.029412 1.000000 0.000000
0.000000 0.970588 0.000000
0.000000 0.941176 0.000000
0.000000 0.911765 0.000000
0.000000 0.882353 0.000000
0.000000 0.852941 0.000000
0.000000 0.823529 0.000000
0.000000 0.794118 0.000000
0.000000 0.764706 0.000000
0.000000 0.735294 0.000000
0.000000 0.705882 0.000000
0.000000 0.676471 0.000000
0.000000 0.647059 0.000000
0.000000 0.617647 0.000000
0.000000 0.588235 0.000000
0.000000 0.558824 0.000000
0.000000 0.529412 0.000000
0.007246 0.500000 0.000000
0.014493 0.500000 0.000000
0.021739 0.500000 0.000000
0.028986 0.500000 0.000000
0.036232 0.500000 0.000000
0.043478 0.500000 0.000000
0.050725 0.500000 0.000000
0.057971 0.500000 0.000000
0.065217 0.500000 0.000000
0.072464 0.500000 0.000000
0.079710 0.500000 0.000000
0.086957 0.500000 0.000000
0.094203 0.500000 0.000000
0.101449 0.500000 0.000000
0.108696 0.500000 0.000000
0.115942 0.500000 0.000000
0.123188 0.500000 0.000000
0.130435 0.500000 0.000000
0.137681 0.500000 0.000000
0.144928 0.500000 0.000000
0.152174 0.500000 0.000000
0.159420 0.500000 0.000000
0.166667 0.500000 0.000000
0.173913 0.500000 0.000000
0.181159 0.500000 0.000000
0.188406 0.500000 0.000000
0.195652 0.500000 0.000000
0.202899 0.500000 0.000000
0.210145 0.500000 0.000000
0.217391 0.500000 0.000000
0.224638 0.500000 0.000000
0.231884 0.500000 0.000000
0.239130 0.500000 0.000000
0.246377 0.500000 0.000000
0.253623 0.500000 0.000000
0.260870 0.500000 0.000000
0.268116 0.500000 0.000000
0.275362 0.500000 0.000000
0.282609 0.500000 0.000000
0.289855 0.500000 0.000000
0.297101 0.500000 0.000000
0.304348 0.500000 0.000000
0.311594 0.500000 0.000000
0.318841 0.500000 0.000000
0.326087 0.500000 0.000000
0.333333 0.500000 0.000000
0.340580 0.500000 0.000000
0.347826 0.500000 0.000000
0.355072 0.500000 0.000000
0.362319 0.500000 0.000000
0.369565 0.500000 0.000000
0.376812 0.500000 0.000000
0.384058 0.500000 0.000000
0.391304 0.500000 0.000000
0.398551 0.500000 0.000000
0.405797 0.500000 0.000000
0.413043 0.500000 0.000000
0.420290 0.500000 0.000000
0.427536 0.500000 0.000000
0.434783 0.500000 0.000000
0.442029 0.500000 0.000000
0.449275 0.500000 0.000000
0.456522 0.500000 0.000000
0.463768 0.500000 0.000000
0.471014 0.500000 0.000000
0.478261 0.500000 0.000000
0.485507 0.500000 0.000000
0.492754 0.500000 0.000000
0.510004 0.500000 0.000000
0.520408 0.500000 0.000000
0.531229 0.500000 0.000000
0.542483 0.500000 0.000000
0.554187 0.500000 0.000000
0.566359 0.500000 0.000000
0.579019 0.500000 0.000000
0.592185 0.500000 0.000000
0.605877 0.500000 0.000000
0.620118 0.500000 0.000000
0.634929 0.500000 0.000000
0.650332 0.500000 0.000000
0.666352 0.500000 0.000000
0.683013 0.500000 0.000000
0.700340 0.500000 0.000000
0.718361 0.500000 0.000000
0.737103 0.500000 0.000000
0.756595 0.500000 0.000000
0.776867 0.500000 0.000000
0.797950 0.500000 0.000000
0.819877 0.500000 0.000000
0.842681 0.500000 0.000000
0.866398 0.500000 0.000000
0.891064 0.500000 0.000000
0.916716 0.500000 0.000000
0.943396 0.500000 0.000000
0.971143 0.500000 0.000000
0.000000 0.470588 0.000000
0.000000 0.441176 0.000000
0.000000 0.411765 0.000000
0.000000 0.382353 0.000000
0.000000 0.352941 0.000000
0.000000 0.323529 0.000000
0.000000 0.294118 0.000000
0.000000 0.264706 0.000000
0.000000 0.235294 0.000000
0.000000 0.205882 0.000000
0.000000 0.176471 0.000000
0.000000 0.147059 0.000000
0.000000 0.117647 0.000000
0.000000 0.088235 0.000000
0.000000 0.058824 0.000000
0.000000 0.029412 0.000000
0.500341 0.497365 0.000000
0.501682 0.495729 0.000000
0.503023 0.494094 0.000000
0.504365 0.492458 0.000000
0.505706 0.490823 0.000000
0.507047 0.489187 0.000000
0.508388 0.487552 0.000000
0.509729 0.485916 0.000000
0.511070 0.484281 0.000000
0.512411 0.482645 0.000000
0.513753 0.481010 0.000000
0.515094 0.479375 0.000000
0.516435 0.477739 0.000000
0.517776 0.476104 0.000000
0.519117 0.474468 0.000000
0.520458 0.472833 0.000000
0.521799 0.471197 0.000000
0.523140 0.469562 0.000000
0.524482 0.467926 0.000000
0.525823 0.466291 0.000000
0.527164 0.464656 0.000000
0.528505 0.463020 0.000000
0.529846 0.461385 0.000000
0.531187 0.459749 0.000000
0.532528 0.458114 0.000000
0.533870 0.456478 0.000000
0.535211 0.454843 0.000000
0.536552 0.453207 0.000000
0.537893 0.451572 0.000000
0.539234 0.449936 0.000000
0.540575 0.448301 0.000000
0.541916 0.446666 0.000000
0.543258 0.445030 0.000000
0.544599 0.443395 0.000000
0.545940 0.441759 0.000000
0.547281 0.440124 0.000000
0.548622 0.438488 0.000000
0.549963 0.436853 0.000000
0.551304 0.435217 0.000000
0.552645 0.433582 0.000000
0.553987 0.431946 0.000000
0.555328 0.430311 0.000000
0.556669 0.428676 0.000000
0.558010 0.427040 0.000000
0.559351 0.425405 0.000000
0.560692 0.423769 0.000000
0.562033 0.422134 0.000000
0.563375 0.420498 0.000000
0.564716 0.418863 0.000000
0.566057 0.417227 0.000000
0.567398 0.415592 0.000000
0.568739 0.413957 0.000000
0.570080 0.412321 0.000000
0.571421 0.410686 0.000000
0.572763 0.409050 0.000000
0.574104 0.407415 0.000000
0.575445 0.405779 0.000000
0.576786 0.404144 0.000000
0.578127 0.402508 0.000000
0.579468 0.400873 0.000000
0.580809 0.399237 0.000000
0.582151 0.397602 0.000000
0.583492 0.395967 0.000000
0.584833 0.394331 0.000000
0.586174 0.392696 0.000000
0.587515 0.391060 0.000000
0.588856 0.389425 0.000000
0.590197 0.387789 0.000000
0.591538 0.386154 0.000000
0.592880 0.384518 0.000000
0.594221 0.382883 0.000000
0.595562 0.381247 0.000000
0.596903 0.379612 0.000000
0.598244 0.377977 0.000000
0.599585 0.376341 0.000000
0.600926 0.374706 0.000000
0.602268 0.373070 0.000000
0.603609 0.371435 0.000000
0.604950 0.369799 0.000000
0.606291 0.368164 0.000000
0.607632 0.366528 0.000000
0.608973 0.364893 0.000000
0.610314 0.363258 0.000000
0.611656 0.361622 0.000000
0.612997 0.359987 0.000000
0.614338 0.358351 0.000000
0.615679 0.356716 0.000000
0.617020 0.355080 0.000000
0.618361 0.353445 0.000000
0.619702 0.351809 0.000000
0.621043 0.350174 0.000000
0.622385 0.348538 0.000000
0.623726 0.346903 0.000000
0.625067 0.345268 0.000000
0.626408 0.343632 0.000000
0.627749 0.341997 0.000000
0.629090 0.340361 0.000000
0.630431 0.338726 0.000000
0.631773 0.337090 0.000000
0.633114 0.335455 0.000000
0.634455 0.333819 0.000000
0.635796 0.332184 0.000000
0.637137 0.330548 0.000000
0.638478 0.328913 0.000000
0.639819 0.327278 0.000000
0.641161 0.325642 0.000000
0.642502 0.324007 0.000000
0.643843 0.322371 0.000000
0.645184 0.320736 0.000000
0.646525 0.319100 0.000000
0.647866 0.317465 0.000000
0.649207 0.315829 0.000000
0.650548 0.314194 0.000000
0.651890 0.312559 0.000000
0.653231 0.310923 0.000000
0.654572 0.309288 0.000000
0.655913 0.307652 0.000000
0.657254 0.306017 0.000000
0.658595 0.304381 0.000000
0.659936 0.302746 0.000000
0.661278 0.301110 0.000000
0.662619 0.299475 0.000000
0.663960 0.297839 0.000000
0.665301 0.296204 0.000000
0.666642 0.294569 0.000000
0.667983 0.292933 0.000000
0.669324 0.291298 0.000000
0.670666 0.289662 0.000000
0.672007 0.288027 0.000000
0.673348 0.286391 0.000000
0.674689 0.284756 0.000000
0.676030 0.283120 0.000000
0.677371 0.281485 0.000000
[...]
POINT_DATA 7341
SCALARS UX float 1
LOOKUP_TABLE default
0.000000
0.000000
0.265500
0.265500
0.121783
0.105126
0.095492
0.098479
0.000431
-0.000000
0.000000
0.000000
0.000000
0.000000
0.000000
0.000000
0.000000
0.000000
0.000000
0.000000
0.000000
0.000000
0.000000
0.000000
0.000000
0.000000
0.000000
0.000000
0.000000
0.000000
0.000000
0.000000
0.000000
0.000000
0.000000
0.000000
0.000000
0.000000
0.000000
0.000000
0.000000
-0.000000
0.004225
0.006385
0.008615
0.011079
0.013892
0.017050
0.020676
0.024436
0.028920
0.033921
0.039630
0.046204
0.053655
0.062350
0.072555
0.083458
0.108324
0.121665
0.135465
0.149013
0.161843
0.173980
0.185170
0.195294
0.204646
0.213615
0.221806
0.229613
0.237131
0.244424
0.251593
0.258590
0.265500
0.265500
0.265500
0.265500
0.265500
0.265500
0.265500
0.265500
0.265500
0.265500
0.265500
0.265500
0.265500
0.265500
0.265500
0.265500
0.265500
0.265500
0.265500
0.265500
0.265500
0.265500
0.265500
0.265500
0.265500
0.265500
0.265500
0.265500
0.265500
0.265500
0.265500
0.265500
0.265500
0.258987
0.252403
0.245795
0.238923
0.231952
0.224543
0.217013
0.209038
0.200691
0.192169
0.183131
0.173825
0.164244
0.154440
0.144522
0.134145
0.119777
0.118250
0.116486
0.114850
0.114311
0.114242
0.113750
0.114519
0.111017
0.108479
0.108636
0.107768
0.106359
0.107993
0.106592
0.110571
0.103110
0.106694
0.106794
0.106941
0.106073
0.106200
0.101568
0.101750
0.101469
0.104498
0.099166
0.099711
0.100097
0.100515
0.102278
0.102265
0.101854
0.102107
0.098379
0.099341
0.097957
0.091727
0.095707
0.092257
0.094783
0.091247
0.094634
0.097861
0.093058
0.094460
0.095917
0.096889
0.098274
0.091732
0.099745
0.095693
0.097752
0.094845
0.098735
0.095891
0.099812
0.098880
0.098434
0.097879
0.102879
0.102778
0.102933
0.101657
0.105028
0.102999
0.105751
0.105555
0.102027
0.099567
0.097722
0.096571
0.095522
0.094631
0.093931
0.093467
0.093060
0.092877
0.092843
0.093051
0.093283
0.093301
0.093343
0.093397
0.093448
0.093490
0.093525
0.093597
0.093674
0.093751
0.093872
0.094046
0.094282
0.094600
0.094986
0.092618
0.081246
0.072185
0.064438
0.057995
0.051919
0.046459
0.041208
0.036532
0.032162
0.028065
0.024035
0.020197
0.016393
0.012286
0.007924
0.095124
0.090598
0.088358
0.085347
0.084500
0.083983
0.083375
0.082342
0.081338
0.080362
0.079488
0.078850
0.078326
0.077526
0.076865
0.076204
0.075454
0.074659
0.074010
0.073360
0.072692
0.072013
0.071419
0.070701
0.070068
0.069435
0.068806
0.068163
0.067491
0.066858
0.066192
0.065545
0.064931
0.064303
0.063674
0.063061
0.062448
0.061848
0.061269
0.060687
0.060125
0.059564
0.059019
0.058487
0.057959
0.057440
0.056922
0.056416
0.055915
0.055418
0.054933
0.054449
0.053972
0.053505
0.053042
0.052591
0.052145
0.051704
0.051275
0.050843
0.050418
0.050003
0.049593
0.049189
0.048790
0.048397
0.048008
0.047624
0.047244
0.046867
0.046495
0.046125
0.045759
0.045394
0.045034
0.044673
0.044317
0.043962
0.043609
0.043259
0.042910
0.042563
0.042218
0.041876
0.041536
0.041198
0.040862
0.040529
0.040198
0.039869
0.039544
0.039221
0.038900
0.038583
0.038269
0.037957
0.037647
0.037341
0.037037
0.036736
0.036437
0.036141
0.035847
0.035555
0.035266
0.034978
0.034693
0.034408
0.034126
0.033845
0.033566
0.033287
0.033010
0.032732
0.032455
0.032179
0.031903
0.031627
0.031351
0.031075
0.030799
0.030525
0.030251
0.029980
0.029710
0.029443
0.029180
0.028920
0.028665
0.028414
0.028166
0.027922
0.027682
0.027444
0.027210
0.026978
0.026749
0.026522
0.026296
0.026073
0.025850
0.025629
0.025409
0.025189
0.024970
0.024752
0.024534
0.024316
0.024098
0.023880
0.023661
0.023443
0.023224
0.023005
0.022785
0.022566
0.022347
0.022127
0.021908
0.021688
0.021467
0.021246
0.021024
0.020801
0.020577
0.020352
0.020127
0.019902
0.019676
0.019450
0.019224
0.018998
0.018771
0.018544
0.018317
0.018091
0.017864
0.017638
0.017412
0.017187
0.016962
0.016738
0.016514
0.016292
0.016070
0.015849
0.015629
0.015411
0.015194
0.014979
0.014766
0.014554
0.014343
0.014135
0.013928
0.013723
0.013520
0.013318
0.013118
0.012919
0.012722
0.012527
0.012334
0.012142
0.011953
0.011766
0.011580
0.011396
0.011213
0.011031
0.010850
0.010671
0.010494
0.010317
0.010142
0.009969
0.009797
0.009626
0.009457
0.009289
0.009122
0.008957
0.008794
0.008632
0.008471
0.008312
0.008155
0.007999
0.007844
0.007691
0.007539
0.007389
0.007240
0.007093
0.006948
0.006803
0.006661
0.006520
0.006380
0.006241
0.006105
0.005969
0.005835
0.005702
0.005571
0.005441
0.005313
0.005186
0.005061
0.004937
0.004814
0.004693
0.004573
0.004454
0.004337
0.004221
0.004107
0.003994
0.003882
0.003772
0.003663
0.003556
0.003450
0.003345
0.003242
0.003140
0.003039
0.002940
0.002842
0.002746
0.002651
0.002557
0.002464
0.002373
0.002283
0.002195
0.002107
0.002021
0.001936
0.001851
0.001769
0.001687
0.001607
0.001527
0.001449
0.001372
0.001295
0.001219
0.001144
0.001069
0.000994
0.000920
0.000846
0.000773
0.000702
0.000631
0.000559
0.000496
0.082614
0.077075
0.075740
0.001971
0.001516
0.084336
0.001706
0.084905
0.086713
0.032701
0.085556
0.001610
0.045190
0.090721
0.015647
0.030778
0.084914
0.001240
0.001905
0.078682
0.007420
0.095328
0.085771
0.018396
0.082312
0.069520
0.100326
0.052669
0.083378
0.083818
0.002627
0.080524
0.075983
0.088694
0.085749
0.000750
0.084875
0.003202
0.085124
0.001685
0.079182
0.075505
0.075689
0.093946
0.001617
0.088291
0.001142
0.085752
0.091058
0.105652
0.001121
0.084916
0.009738
0.063250
0.001364
0.084902
0.084649
0.056583
0.084869
0.084585
0.019493
0.023530
0.001711
0.001769
0.080185
0.083230
0.039944
0.071046
0.083411
0.001655
0.084078
0.001578
0.038562
0.001745
0.076976
0.026547
0.001991
0.083093
0.014455
0.002874
0.008910
0.002693
0.003702
0.078902
0.082084
0.084235
0.078352
0.076650
0.075734
0.085574
0.092315
0.089993
0.088154
0.087876
0.087513
0.086406
0.102833
0.098912
0.097895
0.097179
0.085223
0.000931
0.085125
0.093557
0.072618
0.075691
0.003688
0.079313
0.003387
0.082444
0.037236
0.003269
0.043223
0.085319
0.019437
0.081762
0.002508
0.075858
0.007200
0.057121
0.079986
0.029355
0.004513
0.079692
0.085317
0.001952
0.082448
0.080267
0.074136
0.093638
0.012983
0.072079
0.086767
0.087152
0.000757
0.084450
0.083712
0.001036
0.085880
0.086231
0.012584
0.085366
0.001398
0.067851
0.084065
0.085054
0.005021
0.085968
0.051471
0.027240
0.085580
0.085216
0.001676
0.084919
0.003428
0.084579
0.082010
0.001473
0.044941
0.001473
0.083472
0.079623
0.060742
0.001834
0.035713
0.083441
0.078000
0.002048
0.022476
0.006508
0.002137
0.008032
0.076437
0.076115
0.081099
0.078955
0.076483
0.074995
0.076031
0.074372
0.083342
0.084700
0.085799
0.089008
0.086606
0.089799
0.085259
0.092064
0.090725
0.093573
0.094647
0.087409
0.100010
0.094249
0.102355
0.083404
0.086616
0.084115
0.015996
0.005148
0.078719
0.078270
0.016297
0.078583
0.074382
0.080647
0.081055
0.087077
0.004174
0.076216
0.034092
0.074466
0.073241
0.005015
0.005739
0.001669
0.073338
0.090768
0.002270
0.091044
0.072564
0.082911
0.048298
0.080826
0.074106
0.088362
0.080470
0.003229
0.060228
0.079426
0.079456
0.085290
0.002688
0.045060
0.078286
0.003269
0.076662
0.027856
0.023095
0.003212
0.078212
0.038741
0.083980
0.003298
0.003402
0.003911
0.083147
0.002593
0.009184
0.078776
0.078924
0.080908
0.075151
0.076507
0.004785
0.062376
0.032230
0.025238
0.084544
0.020991
0.017048
0.003392
0.011355
0.007166
0.072628
0.072477
0.072912
0.076209
0.077399
0.002393
0.073684
0.075179
0.082889
0.079014
0.081034
0.081964
0.091035
0.097616
0.084002
0.083302
0.082454
0.072208
0.095008
0.088981
0.083437
0.083599
0.081712
0.084243
0.082182
0.013025
0.004711
0.085806
0.081755
0.083380
0.079508
0.091600
0.071519
0.073781
0.076628
0.005621
0.069989
0.032094
0.005032
0.038092
0.081556
0.003920
0.007862
0.067173
0.008294
0.063130
0.003491
0.075810
0.024119
0.071055
0.076845
0.087684
0.005426
0.082562
0.006901
0.080296
0.041356
0.078715
0.078425
0.003309
0.078593
0.079316
0.075071
0.032612
0.077114
0.004765
0.075190
0.072739
0.076438
0.018741
0.073780
0.047133
0.052006
0.080331
0.005031
0.082666
0.019684
0.015537
0.009510
0.010408
0.077900
0.076929
0.005112
0.005304
0.073769
0.006449
0.072695
0.073238
0.069261
0.077886
0.083343
0.081302
0.072461
0.012183
0.090111
0.076453
0.089701
0.081514
0.070941
0.002828
0.079652
0.079891
0.089111
0.052669
0.098502
0.077014
0.095416
0.086513
0.077789
0.086209
0.081730
0.082305
0.080261
0.014257
0.011124
0.081742
0.079834
0.077059
0.087603
0.081097
0.081112
0.083269
0.091887
0.009722
0.007365
0.063867
0.006584
0.072955
0.077471
0.072643
0.018388
0.036165
0.073718
0.079223
0.003388
0.073072
0.076708
0.072056
0.080741
0.079863
0.072103
0.073740
0.007096
0.022698
0.008206
0.083825
0.075671
0.058547
0.013469
0.004841
0.005661
0.014062
0.071071
0.071472
0.003866
0.006796
0.028639
0.077352
0.079391
0.075931
0.052648
0.064334
0.070013
0.084943
0.079870
0.080853
0.072760
0.010402
0.007416
0.074560
0.068318
0.036519
0.072907
0.071862
0.008544
0.052758
0.078432
0.066212
0.082469
0.018584
0.067674
0.006277
0.004772
0.042757
0.069436
0.028445
0.014472
0.075848
0.077576
0.076815
0.021637
0.070886
0.005158
0.074308
0.070729
0.071849
0.004078
0.086215
0.077206
0.102104
0.075050
0.085546
0.080992
0.078341
0.078872
0.080674
0.086071
0.078210
0.080814
0.081149
0.003451
0.079068
0.081488
0.072560
0.078627
0.075586
0.085319
0.078857
0.070154
0.072105
0.074849
0.035807
0.067626
0.005163
0.069446
0.012082
0.055959
0.007870
0.069892
0.004411
0.061600
0.080544
0.006471
0.075197
0.073043
0.077523
0.072873
0.071481
0.003183
0.020839
0.027098
0.006516
0.007324
0.071455
0.076174
0.004638
0.068097
0.077856
0.079024
0.079550
0.071640
0.083586
0.080437
0.040820
0.010663
0.031852
0.062804
0.011192
0.012554
0.072601
0.007582
0.021657
0.004344
0.077334
0.058691
0.070980
0.063658
0.066650
0.017522
0.025162
0.009351
0.008132
0.075941
0.027903
0.073563
0.077890
0.051231
0.059474
0.081816
0.069860
0.071045
0.080382
0.072333
0.082193
0.069493
0.077496
0.080122
0.079362
0.016254
0.007643
0.079097
0.084188
0.075009
0.084984
0.072501
0.071676
0.075730
0.005381
0.005323
0.075558
0.067652
0.079615
0.080375
0.073100
0.081856
0.010525
0.083735
0.065732
0.077835
0.072018
0.046644
0.077873
0.073886
0.078610
0.078298
0.076495
0.069948
0.010185
0.058799
0.007825
0.067473
0.020425
0.010381
0.055046
0.039589
0.014718
0.004156
0.070597
0.068455
0.009210
0.040774
0.070214
0.070610
0.005548
0.056777
0.066650
0.012907
0.071400
0.073984
0.005905
0.078388
0.076118
0.070223
0.070514
0.075654
0.067382
0.069651
0.079596
0.071751
0.071270
0.077672
0.046326
0.072597
0.023910
0.081545
0.030135
0.061781
0.011817
0.079519
0.060247
0.008870
0.002261
0.005244
0.006864
0.070805
0.006567
0.076326
0.007046
0.080719
0.016297
0.013678
0.031424
0.015738
0.005186
0.025752
0.009751
0.078633
0.077992
0.079723
0.078370
0.065893
0.074471
0.075418
0.069512
0.056831
0.008097
0.075449
0.069171
0.004481
0.077755
0.076660
0.045802
0.077318
0.076859
0.074078
0.070967
0.076039
0.081542
0.071064
0.005864
0.079194
0.075732
0.078248
0.009216
0.079949
0.077386
0.077826
0.005324
0.073651
0.070626
0.078073
0.082787
0.012202
0.006574
0.013915
0.005545
0.006445
0.031850
0.004057
0.004146
0.068076
0.028914
0.070515
0.073881
0.008698
0.077882
0.059951
0.045709
0.075421
0.011171
0.006231
0.060113
0.008248
0.020330
0.009519
0.012469
0.071821
0.076193
0.076327
0.068507
0.078552
0.015475
0.068245
0.070324
0.076683
0.077314
0.067343
0.023913
0.066767
0.003118
0.053756
0.068609
0.057962
0.055350
0.065835
0.035171
0.075240
0.071787
0.073110
0.070477
0.010636
0.078214
0.005058
0.014257
0.005777
0.077525
0.017841
0.036142
0.051136
0.071027
0.011718
0.009890
0.003982
0.050418
0.073529
0.008872
0.072640
0.074481
0.076894
0.075420
0.067996
0.065543
0.069519
0.068740
0.069565
0.074249
0.073914
0.014296
0.070296
0.075221
0.050895
0.076472
0.076408
0.076943
0.069490
0.081616
0.078810
0.001031
0.072362
0.067720
0.076405
0.008311
0.077311
0.044671
0.069121
0.007003
0.078271
0.067068
0.013592
0.015764
0.053683
0.063924
0.071777
0.018119
0.043363
0.006589
0.066706
0.032494
0.058748
0.004076
0.068279
0.004839
0.003882
0.075254
0.071019
0.069144
0.003203
0.011596
0.075864
0.075968
0.018450
0.061768
0.060927
0.051333
0.008125
0.073260
0.069039
0.069354
0.068641
0.068020
0.028623
0.002288
0.070598
0.003572
0.049683
0.008720
0.076249
0.015658
0.012553
0.074446
0.076760
0.016658
0.077610
0.024919
0.075069
0.069643
0.005394
0.007534
0.075212
0.006445
0.075239
0.007482
0.008924
0.011761
0.069457
0.040521
0.018991
0.054358
0.074020
0.017657
0.076339
0.074515
0.038624
0.071965
0.068097
0.072244
0.070751
0.074081
0.068017
0.067626
0.074521
0.073325
0.048656
0.076032
0.063151
0.069126
0.075632
0.009695
0.068091
0.075945
0.075784
0.033568
0.006530
0.063878
0.048697
0.055307
0.069326
0.013851
0.051000
0.059411
0.016228
0.042309
0.007418
0.007568
0.052561
0.005607
0.046321
0.003192
0.062004
0.066430
0.068560
0.073079
0.010313
0.071678
0.032452
0.075265
0.067273
0.067533
0.015005
0.066716
0.009776
0.073949
0.029138
0.008392
0.067013
0.073134
0.011114
0.004712
0.062444
0.019963
0.062969
0.071372
0.070386
0.069092
0.067658
0.056470
0.012993
0.010469
0.019995
0.075654
0.006827
0.005850
0.012285
0.073025
0.014279
0.022700
0.061797
0.052634
0.003009
0.044426
0.067804
0.072641
0.018380
0.036045
0.074855
0.075335
0.002559
0.071983
0.072706
0.071450
0.066318
0.009022
0.075617
0.068151
0.072539
0.073069
0.066608
0.074062
0.071772
0.069500
0.068904
0.074394
0.001937
0.073510
0.067634
0.037131
0.075283
0.013847
0.074347
0.044979
0.061470
0.066604
0.001411
0.070876
0.068153
0.075490
0.069175
0.046948
0.006465
0.004698
0.075744
0.006535
0.066207
0.064901
0.015383
0.029512
0.052130
0.040794
0.010608
0.059222
0.050861
0.069997
0.007770
0.006467
0.003942
0.074120
0.006284
0.041868
0.065958
0.005378
0.004586
0.072853
0.057487
0.067343
0.017560
0.067813
0.056395
0.002563
0.019755
0.065804
0.011550
0.010258
0.071604
0.013338
0.067156
0.065336
0.071385
0.067661
0.065292
0.035535
0.028122
0.014558
0.065024
0.001642
0.056991
0.008794
0.018044
0.049472
0.071715
0.068857
0.069518
0.040328
0.010710
0.015985
0.066361
0.009727
0.014409
0.003851
0.021631
0.032449
0.007569
0.022317
0.059016
0.074906
0.073039
0.070860
0.069368
0.002307
0.066582
0.074705
0.074691
0.074186
0.073066
0.066176
0.005538
0.068912
0.012346
0.069846
0.066793
0.025909
0.070679
0.007861
0.065915
0.070779
0.071060
0.074853
0.010766
0.065217
0.058412
0.070602
0.005498
0.022291
0.002232
0.006284
0.073216
0.000565
0.007304
0.065842
0.069025
0.073271
0.073859
0.067077
0.045525
0.003346
0.047148
0.067269
0.057692
0.073583
0.074989
0.001465
0.065008
0.018366
0.016246
0.048551
0.029532
0.039381
0.055514
0.016289
0.011229
0.008713
0.009106
0.068062
0.048665
0.023349
0.042992
0.003238
0.064107
0.053602
0.065388
0.004402
0.019963
0.065595
0.013073
0.012413
0.009176
0.001547
0.001962
0.011607
0.062214
0.018447
0.017274
0.008090
0.047000
0.044447
0.012432
0.054198
0.003313
0.066488
0.035808
0.073337
0.071037
0.016613
0.065817
0.026732
0.071743
0.064318
0.068659
0.067085
0.062038
0.012575
0.009768
0.031653
0.022305
0.004662
0.039760
0.055018
0.074036
0.067380
0.064734
0.074183
0.069193
0.068903
0.066482
0.070306
0.056108
0.011333
0.064820
0.069369
0.002200
0.072011
0.065209
0.067144
0.067400
0.073771
0.072631
0.068678
0.067881
0.064790
0.055535
0.006639
0.012511
0.015022
0.074431
0.069986
0.072462
0.065769
0.006008
0.026002
0.067805
0.044181
0.072205
0.021698
0.073296
0.005310
0.074228
0.005281
0.052590
0.067606
0.071698
0.007067
0.026363
0.007532
0.002468
0.063042
0.065415
0.018550
0.014055
0.045138
0.070411
0.052476
0.043020
0.010472
0.007153
0.007860
0.064680
0.006989
0.050108
0.039742
0.027224
0.005829
0.066285
0.049099
0.025777
0.001963
0.063301
0.021294
0.011241
0.065756
0.023125
0.002287
0.021985
0.014659
0.017728
0.024857
0.035662
0.070029
0.008933
0.067589
0.043174
0.066028
0.012890
0.051837
0.012320
0.032445
0.063347
0.010918
0.019181
0.012435
0.003864
0.015675
0.010143
0.018321
0.065905
0.068139
0.063909
0.064278
0.035731
0.056112
0.003848
0.058900
0.063169
0.071421
0.069134
0.008625
0.072521
0.071742
0.013681
0.024174
0.064941
0.065478
0.066047
0.065754
0.010844
0.066746
0.055975
0.064184
0.071689
0.073620
0.017057
0.067044
0.063598
0.064888
0.041013
0.072746
0.073368
0.006686
0.054690
0.005253
0.048015
0.064199
0.038022
0.066451
0.023507
0.073549
0.067697
0.001505
0.071101
0.064689
0.068757
0.065867
0.068165
0.008858
0.072075
0.066912
0.004575
0.071155
0.073768
0.004887
0.072154
0.068838
0.021259
0.068646
0.029504
0.041798
0.017437
0.049642
0.055948
0.009723
0.011707
0.011326
0.046423
0.004662
0.024703
0.063290
0.015199
0.038279
0.003279
0.003318
0.066064
0.063649
0.007205
0.004869
0.053497
0.002013
0.063237
0.053000
0.005342
0.010009
0.062451
0.065226
0.002220
0.048838
0.066048
0.032366
0.007693
0.008048
0.032418
0.020527
0.012782
0.061820
0.071040
0.009036
0.064021
0.045925
0.019991
0.014169
0.070505
0.063736
0.067255
0.019744
0.010138
0.021742
0.069895
0.036533
0.013282
0.068692
0.062965
0.004373
0.062310
0.062870
0.012437
0.014869
0.014784
0.001515
0.027067
0.039285
0.021948
0.018996
0.067458
0.066996
0.007308
0.071133
0.072216
0.062984
0.064817
0.002769
0.063489
0.064234
0.073063
0.070153
0.073108
0.064797
0.070920
0.065345
0.025203
0.029606
0.003973
0.072750
0.009862
0.071253
0.066394
0.014800
0.005752
0.064563
0.072528
0.063017
0.070486
0.035170
0.064458
0.006447
0.070804
0.071720
0.013913
0.073033
0.065373
0.018185
0.064094
0.061216
0.066840
0.020328
0.023700
0.015841
0.029455
0.070631
0.045920
0.066002
0.062305
0.053596
0.011432
0.063143
0.009165
0.061072
0.009846
0.008554
0.061389
0.063881
0.061686
0.022363
0.003957
0.006223
0.061127
0.035337
0.002369
0.002672
0.061562
0.004710
0.021281
0.005260
0.064798
0.029200
0.035179
0.064196
0.001096
0.005189
0.021994
0.066493
0.063878
0.069583
0.065650
0.058844
0.020457
0.010424
0.013787
0.024755
0.026355
0.026805
0.008019
0.013824
0.016246
0.042650
0.070252
0.069677
0.016162
0.063937
0.007519
0.071935
0.060932
0.053349
0.009861
0.061054
0.066470
0.065617
0.071225
0.072242
0.063158
0.028071
0.069261
0.062098
0.068405
0.013425
0.005664
0.063254
0.067793
0.007120
0.006880
0.038138
0.070044
0.072451
0.052028
0.033431
0.008103
0.001793
0.014663
0.062648
0.017554
0.069189
0.003387
0.002743
0.065074
0.007172
0.014435
0.065837
0.070276
0.071246
0.064767
0.058430
0.001560
0.072217
0.029594
0.042994
0.050441
0.002662
0.011154
0.020490
0.018937
0.059303
0.024048
0.064899
0.017429
0.028446
0.040222
0.020590
0.035567
0.014350
0.047977
0.053411
0.069993
0.015131
0.012261
0.045458
0.010636
0.062977
0.069537
0.019711
0.059681
0.004626
0.008407
0.010491
0.007635
0.061474
0.001988
0.007272
0.030359
0.063136
0.003860
0.005718
0.063104
0.003260
0.008313
0.060628
0.002204
0.001264
0.067349
0.061256
0.010910
0.022677
0.050771
0.043168
0.069403
0.051461
0.045778
0.012512
0.063712
0.016368
0.024516
0.068427
0.062547
0.060833
0.004367
0.061054
0.000857
0.020850
0.015476
0.008744
0.066665
0.060511
0.024431
0.038907
0.064799
0.009388
0.061808
0.031411
0.008959
0.019080
0.060576
0.062477
0.071788
0.048791
0.033064
0.069062
0.061054
0.060610
0.063572
0.070215
0.063123
0.071077
0.061813
0.002779
0.065591
0.005788
0.070015
0.007788
0.063794
0.040765
0.057903
0.069195
0.061586
0.070776
0.067997
0.014800
0.003328
0.033179
0.023200
0.063802
0.007188
0.027565
0.016186
0.031872
0.006156
0.063248
0.071920
0.070426
0.065363
0.066663
0.006657
0.008359
0.068023
0.007313
0.062401
0.001314
0.058950
0.031009
0.016809
0.066409
0.007571
0.069430
0.059489
0.022367
0.033281
0.040686
0.015301
0.051478
0.011426
0.065014
0.010786
0.065146
0.009227
0.047434
0.058173
0.018832
0.008392
0.067775
0.019076
0.068159
0.059517
0.025234
0.002815
0.048710
0.063499
0.007998
0.017098
0.061801
0.061401
0.023751
0.006525
0.059748
0.039227
0.000834
0.070327
0.011925
0.007684
0.003757
0.069331
0.002291
0.005562
0.015839
0.013312
0.001086
0.004795
0.061165
0.060862
0.055700
0.006585
0.023172
0.033613
0.026833
0.027548
0.066469
0.050798
0.035400
0.069248
0.059419
0.023304
0.002650
0.043207
0.060210
0.029550
0.063746
0.008051
0.034933
0.005085
0.009803
0.030932
0.008916
0.017712
0.001389
0.001713
0.028062
0.063875