# vtk DataFile Version 2.0
Test
ASCII
DATASET POLYDATA
POINTS 7341 float
0.000000 0.000000 0.000000
1.000000 0.000000 0.000000
1.000000 1.000000 0.000000
0.000000 1.000000 0.000000
0.000000 0.500000 0.000000
0.500000 0.500000 0.000000
1.000000 0.500000 0.000000
0.499000 0.499000 0.000000
0.900000 0.010000 0.000000
0.029412 0.000000 0.000000
0.058824 0.000000 0.000000
0.088235 0.000000 0.000000
0.117647 0.000000 0.000000
0.147059 0.000000 0.000000
0.176471 0.000000 0.000000
0.205882 0.000000 0.000000
0.235294 0.000000 0.000000
0.264706 0.000000 0.000000
0.294118 0.000000 0.000000
0.323529 0.000000 0.000000
0.352941 0.000000 0.000000
0.382353 0.000000 0.000000
0.411765 0.000000 0.000000
0.441176 0.000000 0.000000
0.470588 0.000000 0.000000
0.500000 0.000000 0.000000
0.529412 0.000000 0.000000
0.558824 0.000000 0.000000
0.588235 0.000000 0.000000
0.617647 0.000000 0.000000
0.647059 0.000000 0.000000
0.676471 0.000000 0.000000
0.705882 0.000000 0.000000
0.735294 0.000000 0.000000
0.764706 0.000000 0.000000
0.794118 0.000000 0.000000
0.823529 0.000000 0.000000
0.852941 0.000000 0.000000
0.882353 0.000000 0.000000
0.911765 0.000000 0.000000
0.941176 0.000000 0.000000
0.970588 0.000000 0.000000
1.000000 0.029412 0.000000
1.000000 0.058824 0.000000
1.000000 0.088235 0.000000
1.000000 0.117647 0.000000
1.000000 0.147059 0.000000
1.000000 0.176471 0.000000
1.000000 0.205882 0.000000
1.000000 0.235294 0.000000
1.000000 0.264706 0.000000
1.000000 0.294118 0.000000
1.000000 0.323529 0.000000
1.000000 0.352941 0.000000
1.000000 0.382353 0.000000
1.000000 0.411765 0.000000
1.000000 0.441176 0.000000
1.000000 0.470588 0.000000
1.000000 0.529412 0.000000
1.000000 0.558824 0.000000
1.000000 0.588235 0.000000
1.000000 0.617647 0.000000
1.000000 0.647059 0.000000
1.000000 0.676471 0.000000
1.000000 0.705882 0.000000
1.000000 0.735294 0.000000
1.000000 0.764706 0.000000
1.000000 0.794118 0.000000
1.000000 0.823529 0.000000
1.000000 0.852941 0.000000
1.000000 0.882353 0.000000
1.000000 0.911765 0.000000
1.000000 0.941176 0.000000
1.000000 0.970588 0.000000
0.970588 1.000000 0.000000
0.941176 1.000000 0.000000
0.911765 1.000000 0.000000
0.882353 1.000000 0.000000
0.852941 1.000000 0.000000
0.823529 1.000000 0.000000
0.794118 1.000000 0.000000
0.764706 1.000000 0.000000
0.735294 1.000000 0.000000
0.705882 1.000000 0.000000
0.676471 1.000000 0.000000
0.647059 1.000000 0.000000
0.617647 1.000000 0.000000
0.588235 1.000000 0.000000
0.558824 1.000000 0.000000
0.529412 1.000000 0.000000
0.500000 1.000000 0.000000
0.470588 1.000000 0.000000
0.441176 1.000000 0.000000
0.411765 1.000000 0.000000
0.382353 1.000000 0.000000
0.352941 1.000000 0.000000
0.323529 1.000000 0.000000
0.294118 1.000000 0.000000
0.264706 1.000000 0.000000
0.235294 1.000000 0.000000
0.205882 1.000000 0.000000
0.176471 1.000000 0.000000
0.147059 1.000000 0.000000
0.117647 1.000000 0.000000
0.088235 1.000000 0.000000
0.058824 1.000000 0.000000
0.029412 1.000000 0.000000
0.000000 0.970588 0.000000
0.000000 0.941176 0.000000
0.000000 0.911765 0.000000
0.000000 0.882353 0.000000
0.000000 0.852941 0.000000
0.000000 0.823529 0.000000
0.000000 0.794118 0.000000
0.000000 0.764706 0.000000
0.000000 0.735294 0.000000
0.000000 0.705882 0.000000
0.000000 0.676471 0.000000
0.000000 0.647059 0.000000
0.000000 0.617647 0.000000
0.000000 0.588235 0.000000
0.000000 0.558824 0.000000
0.000000 0.529412 0.000000
0.007246 0.500000 0.000000
0.014493 0.500000 0.000000
0.021739 0.500000 0.000000
0.028986 0.500000 0.000000
0.036232 0.500000 0.000000
0.043478 0.500000 0.000000
0.050725 0.500000 0.000000
0.057971 0.500000 0.000000
0.065217 0.500000 0.000000
0.072464 0.500000 0.000000
0.079710 0.500000 0.000000
0.086957 0.500000 0.000000
0.094203 0.500000 0.000000
0.101449 0.500000 0.000000
0.108696 0.500000 0.000000
0.115942 0.500000 0.000000
0.123188 0.500000 0.000000
0.130435 0.500000 0.000000
0.137681 0.500000 0.000000
0.144928 0.500000 0.000000
0.152174 0.500000 0.000000
0.159420 0.500000 0.000000
0.166667 0.500000 0.000000
0.173913 0.500000 0.000000
0.181159 0.500000 0.000000
0.188406 0.500000 0.000000
0.195652 0.500000 0.000000
0.202899 0.500000 0.000000
0.210145 0.500000 0.000000
0.217391 0.500000 0.000000
0.224638 0.500000 0.000000
0.231884 0.500000 0.000000
0.239130 0.500000 0.000000
0.246377 0.500000 0.000000
0.253623 0.500000 0.000000
0.260870 0.500000 0.000000
0.268116 0.500000 0.000000
0.275362 0.500000 0.000000
0.282609 0.500000 0.000000
0.289855 0.500000 0.000000
0.297101 0.500000 0.000000
0.304348 0.500000 0.000000
0.311594 0.500000 0.000000
0.318841 0.500000 0.000000
0.326087 0.500000 0.000000
0.333333 0.500000 0.000000
0.340580 0.500000 0.000000
0.347826 0.500000 0.000000
0.355072 0.500000 0.000000
0.362319 0.500000 0.000000
0.369565 0.500000 0.000000
0.376812 0.500000 0.000000
0.384058 0.500000 0.000000
0.391304 0.500000 0.000000
0.398551 0.500000 0.000000
0.405797 0.500000 0.000000
0.413043 0.500000 0.000000
0.420290 0.500000 0.000000
0.427536 0.500000 0.000000
0.434783 0.500000 0.000000
0.442029 0.500000 0.000000
0.449275 0.500000 0.000000
0.456522 0.500000 0.000000
0.463768 0.500000 0.000000
0.471014 0.500000 0.000000
0.478261 0.500000 0.000000
0.485507 0.500000 0.000000
0.492754 0.500000 0.000000
0.510004 0.500000 0.000000
0.520408 0.500000 0.000000
0.531229 0.500000 0.000000
0.542483 0.500000 0.000000
0.554187 0.500000 0.000000
0.566359 0.500000 0.000000
0.579019 0.500000 0.000000
0.592185 0.500000 0.000000
0.605877 0.500000 0.000000
0.620118 0.500000 0.000000
0.634929 0.500000 0.000000
0.650332 0.500000 0.000000
0.666352 0.500000 0.000000
0.683013 0.500000 0.000000
0.700340 0.500000 0.000000
0.718361 0.500000 0.000000
0.737103 0.500000 0.000000
0.756595 0.500000 0.000000
0.776867 0.500000 0.000000
0.797950 0.500000 0.000000
0.819877 0.500000 0.000000
0.842681 0.500000 0.000000
0.866398 0.500000 0.000000
0.891064 0.500000 0.000000
0.916716 0.500000 0.000000
0.943396 0.500000 0.000000
0.971143 0.500000 0.000000
0.000000 0.470588 0.000000
0.000000 0.441176 0.000000
0.000000 0.411765 0.000000
0.000000 0.382353 0.000000
0.000000 0.352941 0.000000
0.000000 0.323529 0.000000
0.000000 0.294118 0.000000
0.000000 0.264706 0.000000
0.000000 0.235294 0.000000
0.000000 0.205882 0.000000
0.000000 0.176471 0.000000
0.000000 0.147059 0.000000
0.000000 0.117647 0.000000
0.000000 0.088235 0.000000
0.000000 0.058824 0.000000
0.000000 0.029412 0.000000
0.500341 0.497365 0.000000
0.501682 0.495729 0.000000
0.503023 0.494094 0.000000
0.504365 0.492458 0.000000
0.505706 0.490823 0.000000
0.507047 0.489187 0.000000
0.508388 0.487552 0.000000
0.509729 0.485916 0.000000
0.511070 0.484281 0.000000
0.512411 0.482645 0.000000
0.513753 0.481010 0.000000
0.515094 0.479375 0.000000
0.516435 0.477739 0.000000
0.517776 0.476104 0.000000
0.519117 0.474468 0.000000
0.520458 0.472833 0.000000
0.521799 0.471197 0.000000
0.523140 0.469562 0.000000
0.524482 0.467926 0.000000
0.525823 0.466291 0.000000
0.527164 0.464656 0.000000
0.528505 0.463020 0.000000
0.529846 0.461385 0.000000
0.531187 0.459749 0.000000
0.532528 0.458114 0.000000
0.533870 0.456478 0.000000
0.535211 0.454843 0.000000
0.536552 0.453207 0.000000
0.537893 0.451572 0.000000
0.539234 0.449936 0.000000
0.540575 0.448301 0.000000
0.541916 0.446666 0.000000
0.543258 0.445030 0.000000
0.544599 0.443395 0.000000
0.545940 0.441759 0.000000
0.547281 0.440124 0.000000
0.548622 0.438488 0.000000
0.549963 0.436853 0.000000
0.551304 0.435217 0.000000
0.552645 0.433582 0.000000
0.553987 0.431946 0.000000
0.555328 0.430311 0.000000
0.556669 0.428676 0.000000
0.558010 0.427040 0.000000
0.559351 0.425405 0.000000
0.560692 0.423769 0.000000
0.562033 0.422134 0.000000
0.563375 0.420498 0.000000
0.564716 0.418863 0.000000
0.566057 0.417227 0.000000
0.567398 0.415592 0.000000
0.568739 0.413957 0.000000
0.570080 0.412321 0.000000
0.571421 0.410686 0.000000
0.572763 0.409050 0.000000
0.574104 0.407415 0.000000
0.575445 0.405779 0.000000
0.576786 0.404144 0.000000
0.578127 0.402508 0.000000
0.579468 0.400873 0.000000
0.580809 0.399237 0.000000
0.582151 0.397602 0.000000
0.583492 0.395967 0.000000
0.584833 0.394331 0.000000
0.586174 0.392696 0.000000
0.587515 0.391060 0.000000
0.588856 0.389425 0.000000
0.590197 0.387789 0.000000
0.591538 0.386154 0.000000
0.592880 0.384518 0.000000
0.594221 0.382883 0.000000
0.595562 0.381247 0.000000
0.596903 0.379612 0.000000
0.598244 0.377977 0.000000
0.599585 0.376341 0.000000
0.600926 0.374706 0.000000
0.602268 0.373070 0.000000
0.603609 0.371435 0.000000
0.604950 0.369799 0.000000
0.606291 0.368164 0.000000
0.607632 0.366528 0.000000
0.608973 0.364893 0.000000
0.610314 0.363258 0.000000
0.611656 0.361622 0.000000
0.612997 0.359987 0.000000
0.614338 0.358351 0.000000
0.615679 0.356716 0.000000
0.617020 0.355080 0.000000
0.618361 0.353445 0.000000
0.619702 0.351809 0.000000
0.621043 0.350174 0.000000
0.622385 0.348538 0.000000
0.623726 0.346903 0.000000
0.625067 0.345268 0.000000
0.626408 0.343632 0.000000
0.627749 0.341997 0.000000
0.629090 0.340361 0.000000
0.630431 0.338726 0.000000
0.631773 0.337090 0.000000
0.633114 0.335455 0.000000
0.634455 0.333819 0.000000
0.635796 0.332184 0.000000
0.637137 0.330548 0.000000
0.638478 0.328913 0.000000
0.639819 0.327278 0.000000
0.641161 0.325642 0.000000
0.642502 0.324007 0.000000
0.643843 0.322371 0.000000
0.645184 0.320736 0.000000
0.646525 0.319100 0.000000
0.647866 0.317465 0.000000
0.649207 0.315829 0.000000
0.650548 0.314194 0.000000
0.651890 0.312559 0.000000
0.653231 0.310923 0.000000
0.654572 0.309288 0.000000
0.655913 0.307652 0.000000
0.657254 0.306017 0.000000
0.658595 0.304381 0.000000
0.659936 0.302746 0.000000
0.661278 0.301110 0.000000
0.662619 0.299475 0.000000
0.663960 0.297839 0.000000
0.665301 0.296204 0.000000
0.666642 0.294569 0.000000
0.667983 0.292933 0.000000
0.669324 0.291298 0.000000
0.670666 0.289662 0.000000
0.672007 0.288027 0.000000
0.673348 0.286391 0.000000
0.674689 0.284756 0.000000
0.676030 0.283120 0.000000
0.677371 0.281485 0.000000
[...]
POINT_DATA 7341
SCALARS UX float 1
LOOKUP_TABLE default
0.000000
0.000000
0.278000
0.278000
0.040970
0.051467
0.163691
0.051041
0.000725
-0.000000
0.000000
0.000000
0.000000
0.000000
0.000000
0.000000
0.000000
0.000000
0.000000
0.000000
0.000000
0.000000
0.000000
0.000000
0.000000
0.000000
0.000000
0.000000
0.000000
0.000000
0.000000
0.000000
0.000000
0.000000
0.000000
0.000000
0.000000
0.000000
0.000000
0.000000
0.000000
-0.000000
0.007621
0.020988
0.030874
0.038611
0.044561
0.050495
0.058620
0.067418
0.074293
0.079382
0.091554
0.102900
0.114507
0.126446
0.138996
0.151496
0.171400
0.181416
0.191077
0.199070
0.206151
0.213392
0.220354
0.226824
0.232911
0.238916
0.244834
0.250656
0.256364
0.261931
0.267401
0.272737
0.278000
0.278000
0.278000
0.278000
0.278000
0.278000
0.278000
0.278000
0.278000
0.278000
0.278000
0.278000
0.278000
0.278000
0.278000
0.278000
0.278000
0.278000
0.278000
0.278000
0.278000
0.278000
0.278000
0.278000
0.278000
0.278000
0.278000
0.278000
0.278000
0.278000
0.278000
0.278000
0.278000
0.263184
0.248309
0.233372
0.218215
0.202923
0.187344
0.171601
0.155856
0.140367
0.125106
0.110797
0.097296
0.084861
0.073798
0.063950
0.054885
0.040641
0.040311
0.040045
0.039820
0.039508
0.039189
0.038917
0.038669
0.038539
0.038318
0.038106
0.038012
0.037947
0.037818
0.037716
0.037652
0.037631
0.039694
0.039721
0.039742
0.040544
0.040608
0.040702
0.040786
0.040861
0.044940
0.041098
0.040238
0.040373
0.040526
0.040691
0.039916
0.040109
0.039878
0.040020
0.044278
0.044400
0.044574
0.043909
0.043846
0.043700
0.043643
0.043546
0.043444
0.043352
0.043265
0.043163
0.043133
0.043090
0.043105
0.043137
0.043220
0.043383
0.043566
0.043775
0.044076
0.044384
0.044763
0.045181
0.045642
0.046122
0.046683
0.047264
0.047872
0.048489
0.049167
0.049841
0.050636
0.052688
0.054087
0.055625
0.057247
0.058973
0.060812
0.062732
0.064779
0.066918
0.069271
0.071724
0.074326
0.077071
0.079987
0.083553
0.087473
0.091878
0.096806
0.102279
0.108381
0.113998
0.119240
0.125246
0.131781
0.139368
0.147428
0.155680
0.034341
0.031005
0.027664
0.024767
0.022572
0.020250
0.018347
0.016411
0.014547
0.013000
0.011877
0.010379
0.009342
0.008405
0.007321
0.005709
0.050692
0.050344
0.050000
0.049658
0.049322
0.048991
0.048662
0.048340
0.048019
0.047703
0.047393
0.047085
0.046779
0.046474
0.046169
0.045864
0.045560
0.045261
0.044962
0.044666
0.044371
0.044078
0.043788
0.043498
0.043209
0.042922
0.042639
0.042356
0.042077
0.041799
0.041522
0.041248
0.040976
0.040705
0.040435
0.040169
0.039905
0.039642
0.039383
0.039128
0.038877
0.038630
0.038387
0.038152
0.037920
0.037691
0.037469
0.037253
0.037040
0.036832
0.036628
0.036428
0.036233
0.036044
0.035849
0.035634
0.035414
0.035194
0.034972
0.034749
0.034527
0.034305
0.034087
0.033869
0.033656
0.033445
0.033239
0.033037
0.032840
0.032647
0.032460
0.032277
0.032100
0.031926
0.031755
0.031575
0.031377
0.031168
0.030956
0.030744
0.030532
0.030321
0.030111
0.029904
0.029700
0.029496
0.029297
0.029100
0.028904
0.028711
0.028521
0.028337
0.028156
0.027980
0.027810
0.027647
0.027492
0.027342
0.027199
0.027061
0.026931
0.026808
0.026693
0.026585
0.026483
0.026390
0.026305
0.026228
0.026159
0.026096
0.026040
0.025988
0.025940
0.025898
0.025864
0.025838
0.025813
0.025764
0.025581
0.025377
0.025162
0.024942
0.024720
0.024500
0.024280
0.024062
0.023845
0.023631
0.023420
0.023210
0.023003
0.022798
0.022595
0.022395
0.022195
0.021997
0.021801
0.021607
0.021414
0.021221
0.021031
0.020841
0.020654
0.020466
0.020279
0.020092
0.019904
0.019716
0.019528
0.019339
0.019149
0.018960
0.018769
0.018577
0.018385
0.018191
0.017996
0.017799
0.017601
0.017404
0.017203
0.017000
0.016796
0.016590
0.016382
0.016173
0.015965
0.015755
0.015543
0.015331
0.015117
0.014903
0.014688
0.014472
0.014256
0.014039
0.013823
0.013605
0.013388
0.013170
0.012953
0.012736
0.012519
0.012304
0.012089
0.011875
0.011662
0.011450
0.011239
0.011030
0.010823
0.010617
0.010412
0.010210
0.010010
0.009812
0.009616
0.009423
0.009232
0.009043
0.008857
0.008673
0.008493
0.008315
0.008141
0.007969
0.007800
0.007635
0.007473
0.007313
0.007157
0.007005
0.006856
0.006710
0.006567
0.006430
0.006295
0.006165
0.006038
0.005914
0.005795
0.005680
0.005567
0.005458
0.005353
0.005252
0.005154
0.005059
0.004967
0.004880
0.004795
0.004715
0.004637
0.004560
0.004486
0.004415
0.004345
0.004280
0.004216
0.004154
0.004094
0.004037
0.003982
0.003929
0.003879
0.003831
0.003785
0.003741
0.003700
0.003662
0.003626
0.003591
0.003558
0.003525
0.003493
0.003461
0.003428
0.003397
0.003366
0.003335
0.003303
0.003272
0.003240
0.003208
0.003173
0.003139
0.003102
0.003063
0.003021
0.002978
0.002931
0.002882
0.002830
0.002780
0.002724
0.002660
0.002593
0.002523
0.002451
0.002373
0.002294
0.002212
0.002130
0.002048
0.001967
0.001886
0.001801
0.001717
0.001632
0.001546
0.001451
0.001358
0.001266
0.001173
0.001083
0.000996
0.000907
0.000818
0.033455
0.041533
0.041365
0.000486
0.000760
0.104923
0.000619
0.085433
0.035802
0.072072
0.071765
0.000217
0.017170
0.035330
0.043332
0.011863
0.062516
0.000122
0.000900
0.042581
0.021190
0.036126
0.057312
0.007975
0.044246
0.026080
0.037250
0.105521
0.121719
0.045953
0.002603
0.037900
0.041405
0.035291
0.034789
0.000675
0.052124
0.005247
0.047156
0.000600
0.041411
0.041326
0.041518
0.035823
0.002253
0.049872
0.001693
0.048048
0.033196
0.038378
0.000533
0.053830
0.030068
0.023672
0.000075
0.058610
0.066975
0.021370
0.077162
0.095036
0.051647
0.058005
0.000267
0.000395
0.043231
0.044904
0.015380
0.129647
0.136726
0.000715
0.109829
0.000786
0.083025
0.000514
0.041934
0.010723
0.000547
0.143134
0.007243
0.003087
0.005879
0.003452
0.003813
0.041451
0.034053
0.035280
0.041458
0.041504
0.041332
0.034903
0.035521
0.035255
0.035261
0.035268
0.035282
0.034559
0.037846
0.036921
0.036727
0.036502
0.049333
0.001327
0.049811
0.050319
0.039680
0.039190
0.001178
0.043045
0.001646
0.032960
0.074297
0.000914
0.015995
0.033408
0.045565
0.046196
0.000450
0.096789
0.016057
0.021073
0.053990
0.011067
0.001068
0.032808
0.049066
0.001311
0.048148
0.049586
0.039340
0.034899
0.006393
0.124707
0.048819
0.051930
0.000928
0.033322
0.031343
0.000180
0.055813
0.047011
0.038240
0.060794
0.000103
0.024929
0.045493
0.064980
0.010055
0.069551
0.019494
0.064616
0.074727
0.081801
0.000498
0.090686
0.001520
0.100390
0.043875
0.000786
0.094019
0.000616
0.114979
0.042941
0.117545
0.000458
0.013653
0.130235
0.042256
0.000694
0.009248
0.004367
0.002051
0.005395
0.041724
0.041438
0.035421
0.040668
0.040931
0.041092
0.041319
0.040902
0.033559
0.034821
0.034446
0.034960
0.035012
0.034816
0.049883
0.050713
0.034831
0.035595
0.035723
0.051167
0.037090
0.035060
0.037543
0.048948
0.049399
0.048962
0.039924
0.002383
0.082681
0.069577
0.035624
0.060829
0.040548
0.053158
0.045139
0.033686
0.000995
0.041346
0.012635
0.106359
0.119557
0.001552
0.003875
0.001600
0.039991
0.033124
0.000646
0.034133
0.039621
0.048245
0.017855
0.032973
0.038736
0.033882
0.044110
0.000799
0.109545
0.057371
0.054856
0.033064
0.000445
0.087591
0.064908
0.001608
0.088917
0.059098
0.050700
0.001273
0.074466
0.014537
0.047964
0.001138
0.001342
0.001032
0.049278
0.000448
0.023511
0.042069
0.042525
0.047640
0.100962
0.092861
0.001240
0.022933
0.065921
0.009802
0.048467
0.008386
0.007257
0.001086
0.005657
0.004882
0.039541
0.039480
0.039494
0.039109
0.037198
0.000508
0.039408
0.027762
0.030657
0.033872
0.052408
0.032962
0.033802
0.035904
0.033215
0.033223
0.032888
0.039305
0.035174
0.033670
0.048271
0.048538
0.048396
0.032971
0.049715
0.034068
0.008596
0.050325
0.047984
0.047416
0.043434
0.050990
0.038369
0.037002
0.041451
0.001948
0.082665
0.060856
0.001867
0.013967
0.031839
0.000994
0.002114
0.093239
0.016807
0.022917
0.000994
0.051403
0.009119
0.037999
0.033795
0.032468
0.002396
0.031803
0.001679
0.045095
0.075310
0.058948
0.062928
0.001509
0.067644
0.044003
0.040637
0.011877
0.077588
0.001658
0.040910
0.026535
0.050668
0.038599
0.113189
0.017142
0.098119
0.047214
0.002597
0.047529
0.007738
0.006597
0.004697
0.005131
0.071674
0.041499
0.002366
0.002506
0.040224
0.001701
0.039696
0.039427
0.085775
0.034987
0.033005
0.032897
0.039279
0.026061
0.032766
0.038653
0.033727
0.047563
0.037948
0.000556
0.031828
0.031637
0.032682
0.019582
0.036068
0.029029
0.035167
0.033144
0.042859
0.048900
0.047259
0.047781
0.047968
0.032585
0.030510
0.031744
0.047322
0.084818
0.033207
0.047529
0.049534
0.047030
0.051603
0.002468
0.003125
0.076090
0.002709
0.065206
0.030804
0.059662
0.034312
0.013088
0.054234
0.030555
0.001076
0.048767
0.049820
0.037299
0.046513
0.046810
0.070151
0.039697
0.003282
0.008469
0.002519
0.031844
0.052421
0.021270
0.005653
0.001868
0.002182
0.028032
0.038000
0.037650
0.000959
0.013147
0.056467
0.033026
0.048168
0.035813
0.092803
0.103917
0.060488
0.032039
0.031286
0.048619
0.055721
0.024072
0.001821
0.040069
0.089003
0.068467
0.039237
0.038587
0.003760
0.019274
0.046734
0.099183
0.031440
0.007220
0.024619
0.001912
0.001613
0.015610
0.078749
0.010557
0.006076
0.041015
0.043311
0.041938
0.044316
0.037624
0.002118
0.036905
0.037685
0.077098
0.001116
0.031595
0.042755
0.037216
0.039207
0.047598
0.046050
0.032171
0.031714
0.046992
0.031441
0.028662
0.031622
0.029796
0.000862
0.047012
0.031412
0.057635
0.048141
0.034510
0.031614
0.046817
0.036994
0.035018
0.040480
0.063409
0.056201
0.001671
0.051067
0.021764
0.020182
0.013791
0.036519
0.001648
0.082217
0.030310
0.002611
0.033219
0.047753
0.048138
0.039073
0.025909
0.001211
0.038999
0.009950
0.002723
0.003345
0.038020
0.048579
0.001453
0.052550
0.030041
0.046166
0.044996
0.066462
0.030630
0.030534
0.014792
0.002670
0.011483
0.079033
0.003045
0.005243
0.063800
0.003414
0.008011
0.001322
0.046910
0.090949
0.072809
0.072850
0.024069
0.006785
0.050260
0.002487
0.002669
0.041566
0.050803
0.039513
0.046307
0.018485
0.101583
0.046834
0.036723
0.037517
0.031556
0.038897
0.030007
0.036262
0.030271
0.046487
0.047557
0.030728
0.002951
0.030289
0.050125
0.036953
0.031717
0.037223
0.037414
0.042107
0.002330
0.009180
0.053570
0.054443
0.047844
0.032817
0.036958
0.045938
0.019527
0.030584
0.111655
0.046481
0.038437
0.085272
0.043845
0.035144
0.046487
0.046494
0.031256
0.036917
0.003658
0.068059
0.003445
0.061025
0.034404
0.016461
0.019772
0.014302
0.004192
0.001681
0.046701
0.035411
0.004235
0.070247
0.025383
0.035224
0.001923
0.072763
0.065965
0.003366
0.034805
0.040249
0.002233
0.044751
0.042700
0.035908
0.037295
0.032296
0.059080
0.036503
0.029090
0.049956
0.038042
0.030162
0.016699
0.034962
0.043416
0.030383
0.010836
0.022243
0.004118
0.050646
0.086651
0.002546
0.000831
0.008089
0.002899
0.050715
0.011153
0.046835
0.003116
0.050450
0.006384
0.022705
0.055990
0.026013
0.001711
0.009408
0.004032
0.044170
0.046870
0.045679
0.045575
0.071494
0.039955
0.041569
0.035767
0.093764
0.002884
0.029945
0.035765
0.001515
0.045941
0.029238
0.079416
0.046085
0.045940
0.033731
0.037656
0.031815
0.029925
0.038050
0.011938
0.030112
0.027589
0.046996
0.017189
0.056207
0.045843
0.032474
0.001840
0.047324
0.037517
0.045944
0.046058
0.005054
0.002612
0.020369
0.002107
0.009557
0.053522
0.001839
0.006171
0.034626
0.010439
0.045964
0.046742
0.003960
0.028924
0.021505
0.075836
0.046742
0.003403
0.002334
0.066648
0.003708
0.007562
0.004430
0.003351
0.038473
0.043014
0.045425
0.034722
0.028740
0.005719
0.047911
0.047279
0.045135
0.044521
0.048939
0.039354
0.063260
0.001411
0.079639
0.036048
0.070426
0.076008
0.023687
0.012672
0.028656
0.033386
0.032204
0.033140
0.003535
0.029386
0.002173
0.003862
0.002135
0.048772
0.029919
0.060465
0.081397
0.035048
0.017921
0.003780
0.006474
0.018123
0.040249
0.014005
0.039112
0.041549
0.043754
0.045913
0.034865
0.067898
0.036508
0.035740
0.035451
0.030904
0.030016
0.004568
0.035425
0.029243
0.085549
0.028940
0.045431
0.046411
0.036310
0.030121
0.045513
0.000323
0.049325
0.060108
0.045750
0.003732
0.045298
0.016070
0.036555
0.002858
0.047234
0.035111
0.004270
0.004263
0.063032
0.056248
0.029769
0.027336
0.015676
0.002749
0.033817
0.051870
0.021124
0.005695
0.045260
0.002228
0.001953
0.027936
0.045626
0.033202
0.004567
0.005333
0.044864
0.044372
0.006236
0.059507
0.064423
0.067507
0.003622
0.028956
0.034208
0.032388
0.024834
0.034690
0.048428
0.001064
0.037748
0.006240
0.070643
0.003952
0.045004
0.022734
0.004527
0.045714
0.044625
0.004536
0.028515
0.009134
0.046976
0.037034
0.002174
0.011525
0.045226
0.002500
0.028904
0.003215
0.004116
0.003297
0.047625
0.066368
0.007012
0.019570
0.040886
0.005007
0.043709
0.041832
0.014004
0.038909
0.033871
0.033179
0.032914
0.027972
0.035465
0.033882
0.027106
0.031222
0.017557
0.028530
0.056528
0.036121
0.047767
0.004595
0.034860
0.045526
0.045235
0.012119
0.002516
0.022997
0.073437
0.062239
0.037349
0.006040
0.057911
0.052048
0.021330
0.015409
0.003125
0.010141
0.019053
0.002687
0.062999
0.004325
0.022441
0.032743
0.044825
0.040455
0.004855
0.045484
0.011784
0.043641
0.034436
0.035634
0.004167
0.045885
0.004686
0.045794
0.046541
0.003797
0.032855
0.027160
0.005247
0.006653
0.056984
0.030478
0.054454
0.030971
0.032031
0.031653
0.035033
0.060806
0.004395
0.005014
0.005642
0.043533
0.002817
0.002667
0.004662
0.026612
0.004152
0.008366
0.062156
0.065163
0.001603
0.065521
0.045653
0.027745
0.005660
0.057560
0.044846
0.042686
0.003693
0.039616
0.028164
0.038935
0.033295
0.004214
0.044245
0.033500
0.027421
0.045797
0.034593
0.045204
0.028970
0.033074
0.033470
0.027339
0.002489
0.027519
0.024581
0.013554
0.044684
0.018042
0.044925
0.070954
0.057335
0.033397
0.000913
0.030140
0.036291
0.045152
0.044568
0.017079
0.002790
0.002340
0.044528
0.008600
0.034961
0.032208
0.005281
0.044730
0.057163
0.014962
0.005269
0.050817
0.018602
0.027016
0.003568
0.007288
0.005228
0.042532
0.003132
0.058744
0.043754
0.002718
0.002509
0.040612
0.054264
0.043491
0.005028
0.031541
0.058233
0.003561
0.005467
0.024024
0.005745
0.014210
0.044986
0.006281
0.031730
0.033862
0.026735
0.030598
0.045856
0.013067
0.010236
0.005513
0.043935
0.002423
0.020616
0.011728
0.024786
0.059203
0.026340
0.029986
0.028550
0.062829
0.005115
0.005154
0.057050
0.004708
0.005777
0.002182
0.006477
0.049342
0.003272
0.007702
0.052859
0.042687
0.044935
0.039106
0.037620
0.003285
0.031953
0.043506
0.044545
0.044631
0.044284
0.034059
0.007103
0.031064
0.015621
0.026560
0.033381
0.041161
0.031590
0.003423
0.031896
0.027868
0.025914
0.044199
0.005089
0.031930
0.053510
0.026209
0.007903
0.038100
0.001296
0.002835
0.045581
0.000397
0.003425
0.060955
0.044004
0.044822
0.041664
0.035838
0.016695
0.004427
0.060511
0.034567
0.056757
0.044544
0.044018
0.001159
0.034427
0.006064
0.006687
0.053479
0.042558
0.014527
0.049664
0.019485
0.005746
0.004143
0.010929
0.026703
0.017937
0.006789
0.056783
0.004144
0.042600
0.051430
0.030947
0.002588
0.028358
0.033077
0.006357
0.014099
0.004367
0.001832
0.002787
0.005851
0.052491
0.005128
0.005184
0.003726
0.054174
0.054505
0.006132
0.054251
0.002010
0.043501
0.054502
0.041643
0.039574
0.006381
0.033542
0.040029
0.043737
0.044325
0.030511
0.029749
0.022610
0.006321
0.004770
0.011513
0.007196
0.006203
0.058842
0.050556
0.042776
0.036294
0.033201
0.043982
0.026020
0.027642
0.031375
0.038410
0.048105
0.015107
0.031833
0.025498
0.001654
0.044337
0.034011
0.031177
0.025909
0.044171
0.043868
0.028883
0.025185
0.031000
0.020235
0.003237
0.017819
0.005442
0.043708
0.044378
0.044035
0.047097
0.003125
0.044394
0.031124
0.016307
0.040546
0.033941
0.044141
0.006272
0.043343
0.002845
0.055749
0.043233
0.044594
0.003390
0.009502
0.008849
0.003349
0.030577
0.034980
0.007377
0.007188
0.050252
0.039465
0.047060
0.015947
0.005356
0.007411
0.003992
0.025132
0.003655
0.048936
0.053227
0.038952
0.003164
0.028753
0.052562
0.008750
0.002746
0.032463
0.006082
0.012353
0.042571
0.006621
0.002007
0.031991
0.016955
0.006198
0.007615
0.051368
0.043999
0.004436
0.042841
0.050407
0.024686
0.006608
0.047983
0.006402
0.047014
0.043026
0.005592
0.006007
0.006056
0.004851
0.007064
0.012371
0.023435
0.027609
0.037033
0.031960
0.032582
0.013071
0.047196
0.002385
0.049538
0.044245
0.043319
0.038352
0.004000
0.041395
0.040571
0.016191
0.035329
0.030037
0.029807
0.029671
0.028861
0.012749
0.027269
0.049022
0.033601
0.044344
0.043434
0.006280
0.029466
0.030276
0.023817
0.051735
0.043579
0.043690
0.003599
0.020099
0.003018
0.017908
0.030028
0.053294
0.026422
0.036276
0.042603
0.024925
0.002188
0.043446
0.042393
0.043419
0.055558
0.048730
0.004322
0.043369
0.025358
0.005568
0.043856
0.043133
0.002876
0.043695
0.037821
0.006872
0.038394
0.040501
0.047084
0.020340
0.044891
0.046209
0.005012
0.006329
0.011430
0.017310
0.005319
0.034071
0.045186
0.007309
0.048960
0.004031
0.002271
0.035722
0.029056
0.003962
0.003046
0.044906
0.002741
0.041624
0.046351
0.003261
0.005078
0.031106
0.028214
0.002195
0.051060
0.042299
0.011770
0.003990
0.004034
0.044447
0.006003
0.006830
0.022717
0.040400
0.009756
0.024158
0.049434
0.026378
0.007089
0.043986
0.025298
0.037209
0.007166
0.010559
0.006151
0.042887
0.048934
0.006949
0.043057
0.051932
0.002758
0.043044
0.031807
0.013067
0.015984
0.007537
0.002170
0.008208
0.014442
0.030013
0.007206
0.042432
0.036682
0.003786
0.042732
0.043066
0.030135
0.027802
0.002025
0.031281
0.041658
0.042873
0.039618
0.043261
0.029504
0.043881
0.029301
0.008058
0.010399
0.004710
0.041813
0.010856
0.043021
0.028352
0.018972
0.003277
0.047208
0.044926
0.029214
0.043158
0.048395
0.023829
0.003590
0.043019
0.042894
0.007192
0.042440
0.031855
0.007703
0.034421
0.030912
0.037294
0.008425
0.006949
0.008295
0.038571
0.042201
0.048379
0.041190
0.045486
0.044169
0.010795
0.026652
0.009133
0.042881
0.005222
0.004565
0.023691
0.026048
0.042044
0.028676
0.002665
0.003572
0.028892
0.045456
0.003171
0.002175
0.028277
0.003126
0.008057
0.003361
0.028264
0.009807
0.012599
0.027105
0.001620
0.005724
0.006757
0.042261
0.028093
0.039600
0.049122
0.048503
0.006988
0.010176
0.007408
0.007140
0.007749
0.036326
0.008467
0.014369
0.008465
0.015697
0.042435
0.042526
0.018114
0.027359
0.004076
0.042641
0.030295
0.045698
0.005044
0.022587
0.041945
0.036143
0.040818
0.042598
0.028152
0.008939
0.043165
0.030447
0.038604
0.014538
0.003387
0.023592
0.042429
0.004014
0.003893
0.046581
0.043478
0.042263
0.053536
0.043904
0.003946
0.001911
0.007312
0.028448
0.008118
0.042600
0.002560
0.002522
0.035376
0.003594
0.007619
0.053518
0.042804
0.042350
0.041599
0.021378
0.002203
0.041647
0.010704
0.046477
0.044099
0.001701
0.006015
0.025738
0.023098
0.029444
0.007693
0.036045
0.009345
0.008439
0.043780
0.024347
0.043821
0.007961
0.042187
0.043233
0.041637
0.015523
0.006941
0.016759
0.009787
0.046941
0.039920
0.008751
0.048189
0.004971
0.004559
0.005722
0.004282
0.027066
0.002659
0.004253
0.009515
0.034131
0.002818
0.003574
0.033143
0.002735
0.008071
0.022664
0.002366
0.001828
0.041769
0.027486
0.005909
0.008080
0.043463
0.045633
0.042143
0.042210
0.047173
0.012197
0.041020
0.017498
0.032050
0.042189
0.050224
0.043556
0.002939
0.028293
0.001322
0.008220
0.008193
0.004609
0.037555
0.041807
0.007098
0.013962
0.041336
0.008665
0.025774
0.010301
0.004560
0.022068
0.029598
0.025989
0.042076
0.049279
0.011356
0.042320
0.024283
0.023757
0.033763
0.042182
0.027679
0.041868
0.041563
0.003659
0.041531
0.006401
0.042420
0.004198
0.026435
0.048964
0.021404
0.052108
0.029641
0.040843
0.038698
0.007991
0.002920
0.041611
0.006958
0.027698
0.006868
0.035777
0.008344
0.011193
0.003668
0.032739
0.041706
0.041759
0.040914
0.041469
0.003907
0.009993
0.042100
0.003321
0.023755
0.001499
0.021429
0.040271
0.008327
0.029673
0.004384
0.056449
0.027351
0.009198
0.040212
0.043130
0.014921
0.041504
0.010146
0.036495
0.006076
0.040560
0.005149
0.042797
0.022756
0.009167
0.004674
0.038914
0.021047
0.041795
0.046974
0.031803
0.003614
0.018242
0.040105
0.004697
0.009242
0.032566
0.031411
0.008919
0.003917
0.026609
0.044137
0.001306
0.041157
0.006775
0.004599
0.002928
0.041061
0.003020
0.003587
0.008596
0.012747
0.001401
0.003347
0.024842
0.024939
0.045186
0.006322
0.028689
0.010844
0.007968
0.008135
0.041135
0.042513
0.041775
0.041796
0.041796
0.007855
0.002717
0.044730
0.041023
0.008955
0.034937
0.004507
0.011756
0.005291
0.005311
0.038525
0.004648
0.019768
0.001967
0.002336
0.035327
0.040831