# vtk DataFile Version 2.0
Test
ASCII
DATASET POLYDATA
POINTS 7341 float
0.000000 0.000000 0.000000
1.000000 0.000000 0.000000
1.000000 1.000000 0.000000
0.000000 1.000000 0.000000
0.000000 0.500000 0.000000
0.500000 0.500000 0.000000
1.000000 0.500000 0.000000
0.499000 0.499000 0.000000
0.900000 0.010000 0.000000
0.029412 0.000000 0.000000
0.058824 0.000000 0.000000
0.088235 0.000000 0.000000
0.117647 0.000000 0.000000
0.147059 0.000000 0.000000
0.176471 0.000000 0.000000
0.205882 0.000000 0.000000
0.235294 0.000000 0.000000
0.264706 0.000000 0.000000
0.294118 0.000000 0.000000
0.323529 0.000000 0.000000
0.352941 0.000000 0.000000
0.382353 0.000000 0.000000
0.411765 0.000000 0.000000
0.441176 0.000000 0.000000
0.470588 0.000000 0.000000
0.500000 0.000000 0.000000
0.529412 0.000000 0.000000
0.558824 0.000000 0.000000
0.588235 0.000000 0.000000
0.617647 0.000000 0.000000
0.647059 0.000000 0.000000
0.676471 0.000000 0.000000
0.705882 0.000000 0.000000
0.735294 0.000000 0.000000
0.764706 0.000000 0.000000
0.794118 0.000000 0.000000
0.823529 0.000000 0.000000
0.852941 0.000000 0.000000
0.882353 0.000000 0.000000
0.911765 0.000000 0.000000
0.941176 0.000000 0.000000
0.970588 0.000000 0.000000
1.000000 0.029412 0.000000
1.000000 0.058824 0.000000
1.000000 0.088235 0.000000
1.000000 0.117647 0.000000
1.000000 0.147059 0.000000
1.000000 0.176471 0.000000
1.000000 0.205882 0.000000
1.000000 0.235294 0.000000
1.000000 0.264706 0.000000
1.000000 0.294118 0.000000
1.000000 0.323529 0.000000
1.000000 0.352941 0.000000
1.000000 0.382353 0.000000
1.000000 0.411765 0.000000
1.000000 0.441176 0.000000
1.000000 0.470588 0.000000
1.000000 0.529412 0.000000
1.000000 0.558824 0.000000
1.000000 0.588235 0.000000
1.000000 0.617647 0.000000
1.000000 0.647059 0.000000
1.000000 0.676471 0.000000
1.000000 0.705882 0.000000
1.000000 0.735294 0.000000
1.000000 0.764706 0.000000
1.000000 0.794118 0.000000
1.000000 0.823529 0.000000
1.000000 0.852941 0.000000
1.000000 0.882353 0.000000
1.000000 0.911765 0.000000
1.000000 0.941176 0.000000
1.000000 0.970588 0.000000
0.970588 1.000000 0.000000
0.941176 1.000000 0.000000
0.911765 1.000000 0.000000
0.882353 1.000000 0.000000
0.852941 1.000000 0.000000
0.823529 1.000000 0.000000
0.794118 1.000000 0.000000
0.764706 1.000000 0.000000
0.735294 1.000000 0.000000
0.705882 1.000000 0.000000
0.676471 1.000000 0.000000
0.647059 1.000000 0.000000
0.617647 1.000000 0.000000
0.588235 1.000000 0.000000
0.558824 1.000000 0.000000
0.529412 1.000000 0.000000
0.500000 1.000000 0.000000
0.470588 1.000000 0.000000
0.441176 1.000000 0.000000
0.411765 1.000000 0.000000
0.382353 1.000000 0.000000
0.352941 1.000000 0.000000
0.323529 1.000000 0.000000
0.294118 1.000000 0.000000
0.264706 1.000000 0.000000
0.235294 1.000000 0.000000
0.205882 1.000000 0.000000
0.176471 1.000000 0.000000
0.147059 1.000000 0.000000
0.117647 1.000000 0.000000
0.088235 1.000000 0.000000
0.058824 1.000000 0.000000
0.029412 1.000000 0.000000
0.000000 0.970588 0.000000
0.000000 0.941176 0.000000
0.000000 0.911765 0.000000
0.000000 0.882353 0.000000
0.000000 0.852941 0.000000
0.000000 0.823529 0.000000
0.000000 0.794118 0.000000
0.000000 0.764706 0.000000
0.000000 0.735294 0.000000
0.000000 0.705882 0.000000
0.000000 0.676471 0.000000
0.000000 0.647059 0.000000
0.000000 0.617647 0.000000
0.000000 0.588235 0.000000
0.000000 0.558824 0.000000
0.000000 0.529412 0.000000
0.007246 0.500000 0.000000
0.014493 0.500000 0.000000
0.021739 0.500000 0.000000
0.028986 0.500000 0.000000
0.036232 0.500000 0.000000
0.043478 0.500000 0.000000
0.050725 0.500000 0.000000
0.057971 0.500000 0.000000
0.065217 0.500000 0.000000
0.072464 0.500000 0.000000
0.079710 0.500000 0.000000
0.086957 0.500000 0.000000
0.094203 0.500000 0.000000
0.101449 0.500000 0.000000
0.108696 0.500000 0.000000
0.115942 0.500000 0.000000
0.123188 0.500000 0.000000
0.130435 0.500000 0.000000
0.137681 0.500000 0.000000
0.144928 0.500000 0.000000
0.152174 0.500000 0.000000
0.159420 0.500000 0.000000
0.166667 0.500000 0.000000
0.173913 0.500000 0.000000
0.181159 0.500000 0.000000
0.188406 0.500000 0.000000
0.195652 0.500000 0.000000
0.202899 0.500000 0.000000
0.210145 0.500000 0.000000
0.217391 0.500000 0.000000
0.224638 0.500000 0.000000
0.231884 0.500000 0.000000
0.239130 0.500000 0.000000
0.246377 0.500000 0.000000
0.253623 0.500000 0.000000
0.260870 0.500000 0.000000
0.268116 0.500000 0.000000
0.275362 0.500000 0.000000
0.282609 0.500000 0.000000
0.289855 0.500000 0.000000
0.297101 0.500000 0.000000
0.304348 0.500000 0.000000
0.311594 0.500000 0.000000
0.318841 0.500000 0.000000
0.326087 0.500000 0.000000
0.333333 0.500000 0.000000
0.340580 0.500000 0.000000
0.347826 0.500000 0.000000
0.355072 0.500000 0.000000
0.362319 0.500000 0.000000
0.369565 0.500000 0.000000
0.376812 0.500000 0.000000
0.384058 0.500000 0.000000
0.391304 0.500000 0.000000
0.398551 0.500000 0.000000
0.405797 0.500000 0.000000
0.413043 0.500000 0.000000
0.420290 0.500000 0.000000
0.427536 0.500000 0.000000
0.434783 0.500000 0.000000
0.442029 0.500000 0.000000
0.449275 0.500000 0.000000
0.456522 0.500000 0.000000
0.463768 0.500000 0.000000
0.471014 0.500000 0.000000
0.478261 0.500000 0.000000
0.485507 0.500000 0.000000
0.492754 0.500000 0.000000
0.510004 0.500000 0.000000
0.520408 0.500000 0.000000
0.531229 0.500000 0.000000
0.542483 0.500000 0.000000
0.554187 0.500000 0.000000
0.566359 0.500000 0.000000
0.579019 0.500000 0.000000
0.592185 0.500000 0.000000
0.605877 0.500000 0.000000
0.620118 0.500000 0.000000
0.634929 0.500000 0.000000
0.650332 0.500000 0.000000
0.666352 0.500000 0.000000
0.683013 0.500000 0.000000
0.700340 0.500000 0.000000
0.718361 0.500000 0.000000
0.737103 0.500000 0.000000
0.756595 0.500000 0.000000
0.776867 0.500000 0.000000
0.797950 0.500000 0.000000
0.819877 0.500000 0.000000
0.842681 0.500000 0.000000
0.866398 0.500000 0.000000
0.891064 0.500000 0.000000
0.916716 0.500000 0.000000
0.943396 0.500000 0.000000
0.971143 0.500000 0.000000
0.000000 0.470588 0.000000
0.000000 0.441176 0.000000
0.000000 0.411765 0.000000
0.000000 0.382353 0.000000
0.000000 0.352941 0.000000
0.000000 0.323529 0.000000
0.000000 0.294118 0.000000
0.000000 0.264706 0.000000
0.000000 0.235294 0.000000
0.000000 0.205882 0.000000
0.000000 0.176471 0.000000
0.000000 0.147059 0.000000
0.000000 0.117647 0.000000
0.000000 0.088235 0.000000
0.000000 0.058824 0.000000
0.000000 0.029412 0.000000
0.500341 0.497365 0.000000
0.501682 0.495729 0.000000
0.503023 0.494094 0.000000
0.504365 0.492458 0.000000
0.505706 0.490823 0.000000
0.507047 0.489187 0.000000
0.508388 0.487552 0.000000
0.509729 0.485916 0.000000
0.511070 0.484281 0.000000
0.512411 0.482645 0.000000
0.513753 0.481010 0.000000
0.515094 0.479375 0.000000
0.516435 0.477739 0.000000
0.517776 0.476104 0.000000
0.519117 0.474468 0.000000
0.520458 0.472833 0.000000
0.521799 0.471197 0.000000
0.523140 0.469562 0.000000
0.524482 0.467926 0.000000
0.525823 0.466291 0.000000
0.527164 0.464656 0.000000
0.528505 0.463020 0.000000
0.529846 0.461385 0.000000
0.531187 0.459749 0.000000
0.532528 0.458114 0.000000
0.533870 0.456478 0.000000
0.535211 0.454843 0.000000
0.536552 0.453207 0.000000
0.537893 0.451572 0.000000
0.539234 0.449936 0.000000
0.540575 0.448301 0.000000
0.541916 0.446666 0.000000
0.543258 0.445030 0.000000
0.544599 0.443395 0.000000
0.545940 0.441759 0.000000
0.547281 0.440124 0.000000
0.548622 0.438488 0.000000
0.549963 0.436853 0.000000
0.551304 0.435217 0.000000
0.552645 0.433582 0.000000
0.553987 0.431946 0.000000
0.555328 0.430311 0.000000
0.556669 0.428676 0.000000
0.558010 0.427040 0.000000
0.559351 0.425405 0.000000
0.560692 0.423769 0.000000
0.562033 0.422134 0.000000
0.563375 0.420498 0.000000
0.564716 0.418863 0.000000
0.566057 0.417227 0.000000
0.567398 0.415592 0.000000
0.568739 0.413957 0.000000
0.570080 0.412321 0.000000
0.571421 0.410686 0.000000
0.572763 0.409050 0.000000
0.574104 0.407415 0.000000
0.575445 0.405779 0.000000
0.576786 0.404144 0.000000
0.578127 0.402508 0.000000
0.579468 0.400873 0.000000
0.580809 0.399237 0.000000
0.582151 0.397602 0.000000
0.583492 0.395967 0.000000
0.584833 0.394331 0.000000
0.586174 0.392696 0.000000
0.587515 0.391060 0.000000
0.588856 0.389425 0.000000
0.590197 0.387789 0.000000
0.591538 0.386154 0.000000
0.592880 0.384518 0.000000
0.594221 0.382883 0.000000
0.595562 0.381247 0.000000
0.596903 0.379612 0.000000
0.598244 0.377977 0.000000
0.599585 0.376341 0.000000
0.600926 0.374706 0.000000
0.602268 0.373070 0.000000
0.603609 0.371435 0.000000
0.604950 0.369799 0.000000
0.606291 0.368164 0.000000
0.607632 0.366528 0.000000
0.608973 0.364893 0.000000
0.610314 0.363258 0.000000
0.611656 0.361622 0.000000
0.612997 0.359987 0.000000
0.614338 0.358351 0.000000
0.615679 0.356716 0.000000
0.617020 0.355080 0.000000
0.618361 0.353445 0.000000
0.619702 0.351809 0.000000
0.621043 0.350174 0.000000
0.622385 0.348538 0.000000
0.623726 0.346903 0.000000
0.625067 0.345268 0.000000
0.626408 0.343632 0.000000
0.627749 0.341997 0.000000
0.629090 0.340361 0.000000
0.630431 0.338726 0.000000
0.631773 0.337090 0.000000
0.633114 0.335455 0.000000
0.634455 0.333819 0.000000
0.635796 0.332184 0.000000
0.637137 0.330548 0.000000
0.638478 0.328913 0.000000
0.639819 0.327278 0.000000
0.641161 0.325642 0.000000
0.642502 0.324007 0.000000
0.643843 0.322371 0.000000
0.645184 0.320736 0.000000
0.646525 0.319100 0.000000
0.647866 0.317465 0.000000
0.649207 0.315829 0.000000
0.650548 0.314194 0.000000
0.651890 0.312559 0.000000
0.653231 0.310923 0.000000
0.654572 0.309288 0.000000
0.655913 0.307652 0.000000
0.657254 0.306017 0.000000
0.658595 0.304381 0.000000
0.659936 0.302746 0.000000
0.661278 0.301110 0.000000
0.662619 0.299475 0.000000
0.663960 0.297839 0.000000
0.665301 0.296204 0.000000
0.666642 0.294569 0.000000
0.667983 0.292933 0.000000
0.669324 0.291298 0.000000
0.670666 0.289662 0.000000
0.672007 0.288027 0.000000
0.673348 0.286391 0.000000
0.674689 0.284756 0.000000
0.676030 0.283120 0.000000
0.677371 0.281485 0.000000
[...]
POINT_DATA 7341
SCALARS UX float 1
LOOKUP_TABLE default
0.000000
0.000000
0.183000
0.183000
0.096826
0.088585
0.077680
0.080318
0.000407
-0.000000
0.000000
0.000000
0.000000
0.000000
0.000000
0.000000
0.000000
0.000000
0.000000
0.000000
0.000000
0.000000
0.000000
0.000000
0.000000
0.000000
0.000000
0.000000
0.000000
0.000000
0.000000
0.000000
0.000000
0.000000
0.000000
0.000000
0.000000
0.000000
0.000000
0.000000
0.000000
-0.000000
0.003325
0.005011
0.006825
0.008895
0.011299
0.014028
0.017150
0.020400
0.024174
0.028268
0.032735
0.037609
0.042876
0.048794
0.055942
0.064812
0.089551
0.098455
0.106287
0.113021
0.119208
0.125166
0.130807
0.136255
0.141609
0.146918
0.152142
0.157327
0.162488
0.167629
0.172762
0.177885
0.183000
0.183000
0.183000
0.183000
0.183000
0.183000
0.183000
0.183000
0.183000
0.183000
0.183000
0.183000
0.183000
0.183000
0.183000
0.183000
0.183000
0.183000
0.183000
0.183000
0.183000
0.183000
0.183000
0.183000
0.183000
0.183000
0.183000
0.183000
0.183000
0.183000
0.183000
0.183000
0.183000
0.178047
0.173096
0.168145
0.163197
0.158249
0.153299
0.148351
0.143400
0.138438
0.133477
0.128480
0.123448
0.118360
0.113196
0.107986
0.102734
0.091139
0.086158
0.078489
0.071308
0.070552
0.072007
0.072788
0.075773
0.067396
0.064419
0.065876
0.065533
0.065278
0.067349
0.067259
0.074165
0.065521
0.069436
0.070912
0.072833
0.072854
0.074370
0.068267
0.068729
0.070201
0.076077
0.066637
0.066800
0.067019
0.067558
0.068938
0.068064
0.068314
0.069437
0.065897
0.069677
0.071656
0.068003
0.079953
0.076146
0.080368
0.075402
0.081719
0.087251
0.084154
0.087213
0.089677
0.090819
0.091710
0.087807
0.092370
0.091544
0.093278
0.092010
0.093523
0.092518
0.093742
0.092969
0.091924
0.090643
0.092426
0.091801
0.090791
0.088621
0.090142
0.087175
0.089236
0.088920
0.085985
0.084159
0.082621
0.081412
0.080464
0.079326
0.078809
0.078044
0.077617
0.077047
0.076880
0.076521
0.076207
0.076074
0.075811
0.075638
0.075486
0.075525
0.075563
0.075646
0.075762
0.075911
0.076095
0.076320
0.076582
0.076903
0.077274
0.056768
0.052841
0.049540
0.046465
0.043515
0.040613
0.037732
0.034886
0.032007
0.029148
0.026197
0.023270
0.020372
0.017514
0.014360
0.011561
0.075918
0.070022
0.067759
0.065378
0.063890
0.062303
0.061086
0.060375
0.059738
0.059057
0.058171
0.057588
0.056939
0.056278
0.055636
0.055073
0.054524
0.054043
0.053594
0.053184
0.052804
0.052431
0.052086
0.051758
0.051439
0.051138
0.050845
0.050562
0.050290
0.050024
0.049763
0.049509
0.049259
0.049012
0.048766
0.048524
0.048285
0.048046
0.047810
0.047574
0.047340
0.047108
0.046875
0.046645
0.046414
0.046184
0.045955
0.045725
0.045497
0.045267
0.045038
0.044809
0.044579
0.044349
0.044118
0.043887
0.043655
0.043422
0.043189
0.042954
0.042719
0.042483
0.042246
0.042007
0.041768
0.041528
0.041287
0.041044
0.040801
0.040557
0.040311
0.040065
0.039817
0.039568
0.039318
0.039067
0.038815
0.038562
0.038307
0.038051
0.037794
0.037536
0.037277
0.037016
0.036754
0.036491
0.036227
0.035961
0.035694
0.035426
0.035157
0.034887
0.034616
0.034344
0.034072
0.033798
0.033524
0.033250
0.032975
0.032700
0.032424
0.032149
0.031873
0.031598
0.031323
0.031048
0.030773
0.030499
0.030226
0.029953
0.029682
0.029411
0.029140
0.028871
0.028602
0.028335
0.028069
0.027804
0.027540
0.027276
0.027015
0.026754
0.026495
0.026237
0.025980
0.025724
0.025470
0.025217
0.024965
0.024715
0.024466
0.024218
0.023972
0.023727
0.023484
0.023242
0.023001
0.022762
0.022524
0.022288
0.022053
0.021820
0.021588
0.021357
0.021128
0.020900
0.020673
0.020448
0.020224
0.020001
0.019780
0.019559
0.019340
0.019122
0.018906
0.018691
0.018477
0.018264
0.018052
0.017841
0.017632
0.017424
0.017217
0.017011
0.016807
0.016603
0.016401
0.016200
0.016000
0.015802
0.015604
0.015408
0.015213
0.015020
0.014827
0.014636
0.014446
0.014257
0.014070
0.013884
0.013699
0.013515
0.013333
0.013151
0.012971
0.012793
0.012615
0.012439
0.012265
0.012091
0.011919
0.011748
0.011578
0.011409
0.011241
0.011075
0.010909
0.010745
0.010583
0.010421
0.010262
0.010103
0.009946
0.009790
0.009635
0.009482
0.009330
0.009179
0.009030
0.008882
0.008735
0.008589
0.008445
0.008302
0.008161
0.008020
0.007881
0.007744
0.007607
0.007472
0.007338
0.007206
0.007074
0.006944
0.006815
0.006688
0.006561
0.006436
0.006312
0.006190
0.006068
0.005948
0.005829
0.005711
0.005595
0.005480
0.005365
0.005253
0.005141
0.005031
0.004922
0.004814
0.004708
0.004602
0.004498
0.004395
0.004294
0.004194
0.004095
0.003997
0.003901
0.003805
0.003711
0.003618
0.003526
0.003436
0.003346
0.003258
0.003171
0.003086
0.003002
0.002918
0.002836
0.002755
0.002675
0.002596
0.002519
0.002442
0.002366
0.002292
0.002218
0.002145
0.002073
0.002003
0.001933
0.001864
0.001796
0.001729
0.001663
0.001597
0.001532
0.001467
0.001403
0.001339
0.001276
0.001213
0.001149
0.001087
0.001024
0.000961
0.000896
0.000833
0.000769
0.000705
0.000642
0.000580
0.000519
0.000464
0.055618
0.054735
0.055410
0.001618
0.001287
0.065530
0.001220
0.065576
0.057443
0.027398
0.064970
0.001112
0.037442
0.058919
0.012928
0.028511
0.064352
0.000899
0.001966
0.057875
0.005917
0.059501
0.064616
0.019181
0.060820
0.048785
0.060742
0.042232
0.064924
0.061676
0.002972
0.055383
0.054996
0.058481
0.056811
0.000616
0.063574
0.002577
0.062491
0.001371
0.055116
0.055003
0.054898
0.059506
0.001385
0.067394
0.001022
0.063135
0.056258
0.063680
0.000868
0.063646
0.007856
0.046183
0.000975
0.063944
0.064636
0.043193
0.065067
0.065479
0.016268
0.019733
0.001152
0.001187
0.058628
0.061634
0.034403
0.054822
0.064985
0.001243
0.065428
0.001250
0.032007
0.001381
0.056269
0.025347
0.001694
0.064630
0.015900
0.004189
0.011308
0.005064
0.006835
0.055225
0.055708
0.056251
0.055063
0.054720
0.055502
0.056693
0.059124
0.058744
0.058134
0.058205
0.057992
0.057211
0.061680
0.060195
0.059760
0.059770
0.064179
0.000833
0.064285
0.073862
0.052721
0.053187
0.002984
0.058027
0.002612
0.055060
0.031057
0.002285
0.036562
0.056447
0.016301
0.059802
0.001841
0.058117
0.005799
0.043609
0.059233
0.027616
0.003739
0.054086
0.063295
0.001572
0.060479
0.058801
0.052799
0.058005
0.014480
0.055573
0.065215
0.067886
0.000658
0.056108
0.053844
0.000760
0.064658
0.063829
0.010272
0.064546
0.000980
0.048253
0.062498
0.064736
0.003979
0.065003
0.040700
0.022881
0.065324
0.065812
0.001153
0.065712
0.002547
0.065611
0.060675
0.001229
0.036761
0.001230
0.064949
0.058614
0.047679
0.001455
0.031789
0.065013
0.057392
0.001806
0.022294
0.006928
0.002328
0.009796
0.055640
0.055638
0.055387
0.054626
0.053946
0.054323
0.054656
0.054027
0.055827
0.056314
0.056807
0.058429
0.057409
0.058065
0.065951
0.072172
0.058075
0.059003
0.058923
0.067643
0.060376
0.057993
0.061434
0.061097
0.065222
0.062722
0.013313
0.003857
0.060155
0.059428
0.013630
0.059243
0.053927
0.059612
0.059505
0.056989
0.003381
0.055225
0.030930
0.057220
0.056427
0.004443
0.005750
0.001393
0.053094
0.056583
0.001716
0.057471
0.052650
0.060779
0.039300
0.054394
0.052644
0.057157
0.059108
0.002282
0.047305
0.059421
0.058982
0.056334
0.001935
0.036896
0.059281
0.002612
0.058569
0.023468
0.019440
0.002652
0.059611
0.033863
0.061497
0.002322
0.002452
0.003126
0.061098
0.001884
0.007459
0.057495
0.057645
0.059383
0.057659
0.058534
0.004076
0.045920
0.027061
0.024556
0.062190
0.021203
0.017856
0.002380
0.012308
0.008255
0.052649
0.052571
0.052634
0.053301
0.053550
0.001772
0.052757
0.051071
0.053704
0.053963
0.059911
0.054892
0.057209
0.058933
0.055925
0.055483
0.055082
0.052459
0.058122
0.057062
0.061194
0.061733
0.060057
0.055991
0.060682
0.010749
0.003784
0.065385
0.060048
0.061108
0.058246
0.072200
0.051975
0.052260
0.055435
0.004544
0.053629
0.027005
0.003585
0.033613
0.054679
0.002887
0.006747
0.051851
0.006760
0.046332
0.002631
0.055740
0.023700
0.051788
0.052934
0.056115
0.003971
0.055108
0.005632
0.058936
0.034206
0.059097
0.059142
0.002709
0.059618
0.058202
0.054431
0.029995
0.058791
0.003410
0.054999
0.050233
0.055867
0.015731
0.056766
0.038796
0.041759
0.058956
0.004847
0.060502
0.019932
0.016225
0.009328
0.010721
0.059302
0.055151
0.004011
0.004065
0.053377
0.005204
0.052717
0.052670
0.053167
0.053629
0.055546
0.054601
0.052479
0.010078
0.056157
0.053267
0.057134
0.059821
0.051719
0.002016
0.053777
0.053863
0.056196
0.041469
0.059310
0.051572
0.058079
0.056528
0.056734
0.063960
0.059848
0.060317
0.059158
0.011858
0.009093
0.054780
0.058670
0.058824
0.056654
0.059563
0.059588
0.060957
0.073585
0.007998
0.005746
0.049409
0.004762
0.055473
0.052734
0.055407
0.015445
0.032392
0.055126
0.053562
0.002580
0.053712
0.055624
0.051875
0.059068
0.058602
0.055005
0.053250
0.005312
0.022271
0.007257
0.055430
0.055909
0.044335
0.013179
0.003456
0.004569
0.011714
0.051752
0.051803
0.002872
0.005503
0.024153
0.053015
0.058048
0.052798
0.042170
0.050036
0.054237
0.055658
0.053836
0.059699
0.054839
0.008538
0.006200
0.053650
0.052570
0.030536
0.052784
0.052145
0.007972
0.041638
0.057237
0.051268
0.054960
0.018569
0.048223
0.005066
0.003444
0.036359
0.053186
0.026931
0.014678
0.054888
0.056586
0.055678
0.018237
0.051652
0.003713
0.052361
0.051608
0.054903
0.002976
0.055320
0.056118
0.061016
0.052995
0.062599
0.059115
0.053245
0.053424
0.059189
0.054935
0.052280
0.054294
0.053231
0.002575
0.057855
0.054638
0.055013
0.057247
0.052474
0.055390
0.058042
0.051242
0.051476
0.053658
0.030025
0.052299
0.003850
0.052513
0.010016
0.043208
0.006434
0.051167
0.003400
0.047980
0.054019
0.004707
0.052102
0.053439
0.056040
0.052628
0.049816
0.002459
0.017568
0.025848
0.004687
0.005396
0.051892
0.055268
0.003508
0.052163
0.052901
0.057887
0.057913
0.054545
0.054491
0.054071
0.035289
0.008946
0.029422
0.048742
0.009721
0.011832
0.055388
0.005797
0.021000
0.003146
0.056001
0.046150
0.054258
0.049250
0.047860
0.017116
0.021247
0.007597
0.006547
0.054730
0.023578
0.052986
0.056840
0.040953
0.046762
0.059859
0.051114
0.051680
0.054077
0.052412
0.053828
0.050974
0.052722
0.058688
0.058254
0.013615
0.006052
0.053514
0.061815
0.052519
0.055463
0.051961
0.051805
0.054743
0.004289
0.004297
0.056098
0.052323
0.058158
0.054323
0.052075
0.059901
0.008687
0.054257
0.051085
0.056603
0.052190
0.038030
0.057034
0.051851
0.057770
0.057308
0.052314
0.051138
0.008062
0.046005
0.005704
0.051555
0.017225
0.008578
0.042843
0.034554
0.012915
0.003230
0.052194
0.050450
0.006928
0.033819
0.049384
0.051155
0.004109
0.044713
0.051232
0.010676
0.051283
0.053181
0.004317
0.057083
0.055206
0.051167
0.051408
0.052128
0.051896
0.051028
0.052959
0.053396
0.051714
0.052802
0.038413
0.051523
0.020213
0.054231
0.028055
0.045809
0.010711
0.058348
0.047134
0.007164
0.001735
0.004264
0.004955
0.053087
0.005344
0.055208
0.005124
0.059344
0.015531
0.011395
0.026498
0.013170
0.003902
0.024575
0.007509
0.057144
0.056519
0.058145
0.057216
0.050729
0.053293
0.054371
0.050938
0.044951
0.006472
0.051790
0.050815
0.003417
0.056802
0.052383
0.037449
0.056264
0.055774
0.051730
0.051636
0.052197
0.053834
0.051763
0.004691
0.053546
0.051472
0.056960
0.007557
0.059624
0.056425
0.053107
0.003908
0.053664
0.051442
0.057161
0.060588
0.009355
0.004854
0.011599
0.004261
0.005263
0.026880
0.003181
0.003394
0.050292
0.026948
0.052016
0.053679
0.006341
0.052782
0.045065
0.037395
0.054590
0.008993
0.004687
0.046860
0.006047
0.019418
0.007075
0.010198
0.051933
0.055286
0.055364
0.050474
0.052693
0.014341
0.051487
0.052221
0.055983
0.056213
0.051300
0.020231
0.051115
0.002439
0.042794
0.050524
0.045471
0.043802
0.047584
0.031692
0.051720
0.050953
0.051120
0.050719
0.008502
0.053051
0.003948
0.012134
0.004402
0.056270
0.014985
0.030323
0.041089
0.051234
0.009713
0.007735
0.003239
0.040594
0.052959
0.007289
0.052303
0.053792
0.055986
0.054527
0.050250
0.050480
0.050934
0.050574
0.050910
0.051349
0.051129
0.012848
0.051107
0.051675
0.040948
0.052318
0.055677
0.055674
0.050962
0.054035
0.057484
0.000777
0.053531
0.051933
0.055324
0.006046
0.056511
0.037543
0.050728
0.005216
0.056826
0.049877
0.010905
0.013018
0.042676
0.049720
0.050252
0.015227
0.036838
0.005077
0.049686
0.027432
0.044601
0.003354
0.051039
0.003800
0.003067
0.051734
0.052158
0.050450
0.002654
0.008737
0.054882
0.055275
0.016876
0.048081
0.047394
0.041125
0.006031
0.050804
0.050577
0.050331
0.048818
0.050268
0.024206
0.001785
0.051272
0.002891
0.040059
0.006339
0.055482
0.013097
0.009871
0.053905
0.055963
0.014012
0.052507
0.023617
0.054356
0.050928
0.004179
0.006169
0.054353
0.004885
0.051694
0.005506
0.006552
0.009528
0.051966
0.033660
0.017774
0.042588
0.053352
0.015256
0.055494
0.053827
0.033933
0.051977
0.050240
0.050957
0.050669
0.051239
0.050272
0.050071
0.051116
0.051039
0.039744
0.052117
0.049160
0.050750
0.054842
0.007113
0.050298
0.054871
0.054890
0.030496
0.004891
0.046828
0.039414
0.043737
0.050844
0.010587
0.040996
0.047101
0.013580
0.036212
0.005607
0.006207
0.041771
0.004416
0.037810
0.002659
0.046096
0.049530
0.051065
0.052715
0.007563
0.052415
0.029547
0.054679
0.049934
0.050072
0.012253
0.050564
0.007209
0.053612
0.024653
0.006279
0.049759
0.050848
0.008262
0.003856
0.048691
0.016827
0.049239
0.050328
0.050299
0.050078
0.050112
0.044488
0.010327
0.007673
0.017044
0.054911
0.005223
0.004585
0.009562
0.050624
0.011561
0.021251
0.047990
0.041982
0.002383
0.036507
0.050937
0.050553
0.016368
0.030270
0.054129
0.054518
0.002132
0.052196
0.050562
0.051826
0.049512
0.006672
0.054878
0.050214
0.050539
0.053125
0.049685
0.053641
0.050178
0.050514
0.050430
0.051290
0.001612
0.051010
0.048478
0.032881
0.054452
0.011532
0.053831
0.036883
0.048021
0.049631
0.001125
0.050008
0.050332
0.054603
0.051249
0.038869
0.005021
0.003711
0.054720
0.005346
0.049556
0.048914
0.012200
0.024982
0.041765
0.035187
0.007880
0.047085
0.040923
0.049403
0.006007
0.005295
0.003255
0.053723
0.004963
0.034731
0.049966
0.004254
0.003647
0.052639
0.045703
0.050416
0.014339
0.049818
0.044649
0.002166
0.016554
0.047738
0.008526
0.008474
0.052298
0.010059
0.049674
0.049177
0.050074
0.049550
0.050047
0.031616
0.026050
0.011346
0.049660
0.001429
0.043869
0.007230
0.015157
0.039949
0.050211
0.049338
0.049284
0.033537
0.007858
0.012803
0.051387
0.007256
0.011151
0.003067
0.018920
0.027425
0.005766
0.020478
0.046784
0.054229
0.053029
0.051600
0.050861
0.001953
0.049517
0.054298
0.054036
0.053716
0.052991
0.049500
0.004528
0.049821
0.010245
0.049361
0.049708
0.021928
0.050207
0.005913
0.049274
0.049731
0.049881
0.054151
0.007934
0.049013
0.046341
0.049764
0.004487
0.018836
0.001774
0.004913
0.053182
0.000451
0.005702
0.050689
0.051103
0.053148
0.053397
0.049917
0.038048
0.002785
0.038379
0.049939
0.045702
0.053350
0.054411
0.001197
0.049098
0.014716
0.012617
0.039440
0.025023
0.034095
0.044782
0.013615
0.008400
0.006667
0.007494
0.048587
0.039708
0.020029
0.035564
0.002702
0.049152
0.043311
0.048998
0.003517
0.016827
0.049227
0.009763
0.010288
0.006926
0.001325
0.001691
0.008597
0.048872
0.015227
0.013989
0.006215
0.038372
0.036624
0.009186
0.043455
0.002649
0.050114
0.030113
0.053119
0.051735
0.013016
0.049338
0.022629
0.052294
0.049444
0.049502
0.049162
0.046130
0.009306
0.007342
0.028698
0.019998
0.003824
0.033149
0.044364
0.053729
0.050048
0.048920
0.053697
0.049114
0.048968
0.049417
0.051266
0.045335
0.009384
0.048858
0.049244
0.001791
0.052432
0.049141
0.049587
0.048310
0.053446
0.052771
0.049043
0.048594
0.048785
0.043212
0.005230
0.010393
0.011807
0.053891
0.051540
0.052657
0.050412
0.004762
0.021993
0.049724
0.037166
0.052363
0.018333
0.053164
0.004345
0.053937
0.004196
0.042055
0.050471
0.052288
0.005549
0.024180
0.006177
0.002094
0.048110
0.049276
0.014628
0.010475
0.037189
0.051493
0.043003
0.036303
0.007932
0.005858
0.006188
0.047172
0.005538
0.041100
0.033238
0.023050
0.004636
0.048450
0.039843
0.023253
0.001696
0.048354
0.017627
0.009290
0.049730
0.019576
0.001885
0.018580
0.012210
0.014088
0.021705
0.030044
0.051492
0.006913
0.050407
0.035822
0.047782
0.009572
0.042453
0.009190
0.027460
0.048929
0.008216
0.015502
0.009210
0.003196
0.012033
0.008371
0.015388
0.047920
0.050340
0.048537
0.048715
0.031505
0.045436
0.003083
0.047000
0.048997
0.052107
0.050870
0.006552
0.052679
0.052186
0.011377
0.020454
0.048745
0.048889
0.049009
0.048690
0.008960
0.048142
0.045153
0.048750
0.052275
0.053383
0.013452
0.048977
0.048286
0.047348
0.034228
0.052853
0.053192
0.005314
0.042776
0.004192
0.039248
0.048482
0.031896
0.047937
0.019887
0.053412
0.048537
0.001328
0.051954
0.049333
0.050912
0.051114
0.051608
0.006819
0.052481
0.048126
0.003758
0.051977
0.053542
0.003905
0.052493
0.050685
0.017214
0.050717
0.025034
0.034928
0.014600
0.041261
0.045433
0.007506
0.008896
0.009346
0.038210
0.003826
0.020899
0.049159
0.011536
0.032210
0.002732
0.002676
0.049550
0.048186
0.005734
0.003906
0.043961
0.001736
0.048728
0.043444
0.004280
0.007628
0.047943
0.048322
0.001850
0.039890
0.049795
0.028983
0.006081
0.006311
0.027494
0.016828
0.009600
0.046023
0.051884
0.007428
0.046905
0.037747
0.016846
0.010581
0.051678
0.046819
0.050095
0.015758
0.008350
0.018180
0.051328
0.030812
0.009907
0.050845
0.049379
0.003508
0.048556
0.048150
0.010293
0.012367
0.011066
0.001339
0.023381
0.033825
0.018542
0.015067
0.050304
0.049942
0.005781
0.051957
0.052561
0.048048
0.047980
0.002245
0.048332
0.049087
0.053082
0.051418
0.053030
0.048630
0.051877
0.048756
0.022321
0.026586
0.003281
0.052865
0.008124
0.052029
0.048280
0.012347
0.004590
0.049952
0.052750
0.047974
0.051630
0.029706
0.047145
0.005138
0.051771
0.052269
0.010371
0.053100
0.049067
0.014245
0.048770
0.047474
0.049970
0.016192
0.019649
0.011943
0.025034
0.051700
0.037973
0.049664
0.048810
0.044112
0.009419
0.047360
0.007527
0.048054
0.007653
0.006754
0.045745
0.046995
0.048216
0.018886
0.003186
0.004969
0.047251
0.029929
0.002016
0.002185
0.047344
0.003791
0.017088
0.004225
0.048355
0.025889
0.030843
0.047505
0.000984
0.004247
0.017952
0.049947
0.048115
0.051216
0.050682
0.047047
0.016439
0.008581
0.010347
0.020851
0.022507
0.022701
0.006578
0.011468
0.012294
0.035907
0.051487
0.051197
0.013483
0.047860
0.005973
0.052412
0.047316
0.043764
0.007566
0.045669
0.049904
0.049428
0.052012
0.052597
0.047904
0.024571
0.051084
0.047758
0.050668
0.011140
0.004533
0.046600
0.050428
0.005679
0.005489
0.032169
0.051460
0.052756
0.041936
0.028375
0.006320
0.001511
0.011018
0.047759
0.013607
0.051000
0.002748
0.002263
0.049172
0.005655
0.010811
0.051156
0.051498
0.052014
0.049266
0.044535
0.001374
0.052588
0.026924
0.035794
0.041927
0.002137
0.008531
0.017271
0.015914
0.046622
0.019666
0.049167
0.013322
0.024217
0.033869
0.017338
0.030175
0.010840
0.040388
0.044091
0.051449
0.012570
0.009408
0.037564
0.008746
0.049261
0.051246
0.015580
0.047561
0.003793
0.006660
0.008144
0.006084
0.047174
0.001715
0.005817
0.026247
0.048404
0.003124
0.004589
0.048332
0.002664
0.006814
0.045443
0.001850
0.001128
0.050204
0.047144
0.008393
0.018343
0.042246
0.036116
0.051053
0.042887
0.038097
0.010337
0.048835
0.013642
0.020729
0.050648
0.049147
0.048008
0.003516
0.047161
0.000775
0.016688
0.011650
0.006878
0.049940
0.047729
0.020426
0.033366
0.049248
0.007702
0.046865
0.027387
0.006978
0.016022
0.047120
0.046883
0.052371
0.040099
0.028973
0.050926
0.045730
0.045429
0.048543
0.051494
0.047821
0.052006
0.048211
0.002340
0.049558
0.004735
0.051350
0.006180
0.047136
0.034114
0.044248
0.052551
0.047496
0.051809
0.050544
0.011137
0.002727
0.028232
0.019084
0.048002
0.005881
0.023379
0.012257
0.028278
0.004929
0.048354
0.052442
0.051737
0.049411
0.049924
0.005325
0.006865
0.050486
0.005675
0.046191
0.001123
0.044773
0.026375
0.012861
0.049068
0.006050
0.053429
0.046469
0.018090
0.028368
0.034393
0.012689
0.042981
0.009394
0.049244
0.008419
0.049305
0.007305
0.039906
0.044371
0.014703
0.006671
0.050491
0.015995
0.050505
0.047500
0.021342
0.002367
0.039455
0.048676
0.006397
0.013037
0.047814
0.047583
0.019309
0.005228
0.046479
0.033086
0.000752
0.051663
0.009197
0.006157
0.003052
0.051179
0.001954
0.004472
0.011981
0.011007
0.000949
0.003870
0.046088
0.046261
0.045373
0.005382
0.019566
0.028968
0.022476
0.023261
0.049827
0.042388
0.030108
0.050972
0.047254
0.018939
0.002205
0.036349
0.047538
0.025350
0.048676
0.006409
0.030208
0.004160
0.007664
0.026363
0.006983
0.014821
0.001232
0.001495
0.023836
0.048874