# vtk DataFile Version 2.0
Test
ASCII
DATASET POLYDATA
POINTS 7341 float
0.000000 0.000000 0.000000
1.000000 0.000000 0.000000
1.000000 1.000000 0.000000
0.000000 1.000000 0.000000
0.000000 0.500000 0.000000
0.500000 0.500000 0.000000
1.000000 0.500000 0.000000
0.499000 0.499000 0.000000
0.900000 0.010000 0.000000
0.029412 0.000000 0.000000
0.058824 0.000000 0.000000
0.088235 0.000000 0.000000
0.117647 0.000000 0.000000
0.147059 0.000000 0.000000
0.176471 0.000000 0.000000
0.205882 0.000000 0.000000
0.235294 0.000000 0.000000
0.264706 0.000000 0.000000
0.294118 0.000000 0.000000
0.323529 0.000000 0.000000
0.352941 0.000000 0.000000
0.382353 0.000000 0.000000
0.411765 0.000000 0.000000
0.441176 0.000000 0.000000
0.470588 0.000000 0.000000
0.500000 0.000000 0.000000
0.529412 0.000000 0.000000
0.558824 0.000000 0.000000
0.588235 0.000000 0.000000
0.617647 0.000000 0.000000
0.647059 0.000000 0.000000
0.676471 0.000000 0.000000
0.705882 0.000000 0.000000
0.735294 0.000000 0.000000
0.764706 0.000000 0.000000
0.794118 0.000000 0.000000
0.823529 0.000000 0.000000
0.852941 0.000000 0.000000
0.882353 0.000000 0.000000
0.911765 0.000000 0.000000
0.941176 0.000000 0.000000
0.970588 0.000000 0.000000
1.000000 0.029412 0.000000
1.000000 0.058824 0.000000
1.000000 0.088235 0.000000
1.000000 0.117647 0.000000
1.000000 0.147059 0.000000
1.000000 0.176471 0.000000
1.000000 0.205882 0.000000
1.000000 0.235294 0.000000
1.000000 0.264706 0.000000
1.000000 0.294118 0.000000
1.000000 0.323529 0.000000
1.000000 0.352941 0.000000
1.000000 0.382353 0.000000
1.000000 0.411765 0.000000
1.000000 0.441176 0.000000
1.000000 0.470588 0.000000
1.000000 0.529412 0.000000
1.000000 0.558824 0.000000
1.000000 0.588235 0.000000
1.000000 0.617647 0.000000
1.000000 0.647059 0.000000
1.000000 0.676471 0.000000
1.000000 0.705882 0.000000
1.000000 0.735294 0.000000
1.000000 0.764706 0.000000
1.000000 0.794118 0.000000
1.000000 0.823529 0.000000
1.000000 0.852941 0.000000
1.000000 0.882353 0.000000
1.000000 0.911765 0.000000
1.000000 0.941176 0.000000
1.000000 0.970588 0.000000
0.970588 1.000000 0.000000
0.941176 1.000000 0.000000
0.911765 1.000000 0.000000
0.882353 1.000000 0.000000
0.852941 1.000000 0.000000
0.823529 1.000000 0.000000
0.794118 1.000000 0.000000
0.764706 1.000000 0.000000
0.735294 1.000000 0.000000
0.705882 1.000000 0.000000
0.676471 1.000000 0.000000
0.647059 1.000000 0.000000
0.617647 1.000000 0.000000
0.588235 1.000000 0.000000
0.558824 1.000000 0.000000
0.529412 1.000000 0.000000
0.500000 1.000000 0.000000
0.470588 1.000000 0.000000
0.441176 1.000000 0.000000
0.411765 1.000000 0.000000
0.382353 1.000000 0.000000
0.352941 1.000000 0.000000
0.323529 1.000000 0.000000
0.294118 1.000000 0.000000
0.264706 1.000000 0.000000
0.235294 1.000000 0.000000
0.205882 1.000000 0.000000
0.176471 1.000000 0.000000
0.147059 1.000000 0.000000
0.117647 1.000000 0.000000
0.088235 1.000000 0.000000
0.058824 1.000000 0.000000
0.029412 1.000000 0.000000
0.000000 0.970588 0.000000
0.000000 0.941176 0.000000
0.000000 0.911765 0.000000
0.000000 0.882353 0.000000
0.000000 0.852941 0.000000
0.000000 0.823529 0.000000
0.000000 0.794118 0.000000
0.000000 0.764706 0.000000
0.000000 0.735294 0.000000
0.000000 0.705882 0.000000
0.000000 0.676471 0.000000
0.000000 0.647059 0.000000
0.000000 0.617647 0.000000
0.000000 0.588235 0.000000
0.000000 0.558824 0.000000
0.000000 0.529412 0.000000
0.007246 0.500000 0.000000
0.014493 0.500000 0.000000
0.021739 0.500000 0.000000
0.028986 0.500000 0.000000
0.036232 0.500000 0.000000
0.043478 0.500000 0.000000
0.050725 0.500000 0.000000
0.057971 0.500000 0.000000
0.065217 0.500000 0.000000
0.072464 0.500000 0.000000
0.079710 0.500000 0.000000
0.086957 0.500000 0.000000
0.094203 0.500000 0.000000
0.101449 0.500000 0.000000
0.108696 0.500000 0.000000
0.115942 0.500000 0.000000
0.123188 0.500000 0.000000
0.130435 0.500000 0.000000
0.137681 0.500000 0.000000
0.144928 0.500000 0.000000
0.152174 0.500000 0.000000
0.159420 0.500000 0.000000
0.166667 0.500000 0.000000
0.173913 0.500000 0.000000
0.181159 0.500000 0.000000
0.188406 0.500000 0.000000
0.195652 0.500000 0.000000
0.202899 0.500000 0.000000
0.210145 0.500000 0.000000
0.217391 0.500000 0.000000
0.224638 0.500000 0.000000
0.231884 0.500000 0.000000
0.239130 0.500000 0.000000
0.246377 0.500000 0.000000
0.253623 0.500000 0.000000
0.260870 0.500000 0.000000
0.268116 0.500000 0.000000
0.275362 0.500000 0.000000
0.282609 0.500000 0.000000
0.289855 0.500000 0.000000
0.297101 0.500000 0.000000
0.304348 0.500000 0.000000
0.311594 0.500000 0.000000
0.318841 0.500000 0.000000
0.326087 0.500000 0.000000
0.333333 0.500000 0.000000
0.340580 0.500000 0.000000
0.347826 0.500000 0.000000
0.355072 0.500000 0.000000
0.362319 0.500000 0.000000
0.369565 0.500000 0.000000
0.376812 0.500000 0.000000
0.384058 0.500000 0.000000
0.391304 0.500000 0.000000
0.398551 0.500000 0.000000
0.405797 0.500000 0.000000
0.413043 0.500000 0.000000
0.420290 0.500000 0.000000
0.427536 0.500000 0.000000
0.434783 0.500000 0.000000
0.442029 0.500000 0.000000
0.449275 0.500000 0.000000
0.456522 0.500000 0.000000
0.463768 0.500000 0.000000
0.471014 0.500000 0.000000
0.478261 0.500000 0.000000
0.485507 0.500000 0.000000
0.492754 0.500000 0.000000
0.510004 0.500000 0.000000
0.520408 0.500000 0.000000
0.531229 0.500000 0.000000
0.542483 0.500000 0.000000
0.554187 0.500000 0.000000
0.566359 0.500000 0.000000
0.579019 0.500000 0.000000
0.592185 0.500000 0.000000
0.605877 0.500000 0.000000
0.620118 0.500000 0.000000
0.634929 0.500000 0.000000
0.650332 0.500000 0.000000
0.666352 0.500000 0.000000
0.683013 0.500000 0.000000
0.700340 0.500000 0.000000
0.718361 0.500000 0.000000
0.737103 0.500000 0.000000
0.756595 0.500000 0.000000
0.776867 0.500000 0.000000
0.797950 0.500000 0.000000
0.819877 0.500000 0.000000
0.842681 0.500000 0.000000
0.866398 0.500000 0.000000
0.891064 0.500000 0.000000
0.916716 0.500000 0.000000
0.943396 0.500000 0.000000
0.971143 0.500000 0.000000
0.000000 0.470588 0.000000
0.000000 0.441176 0.000000
0.000000 0.411765 0.000000
0.000000 0.382353 0.000000
0.000000 0.352941 0.000000
0.000000 0.323529 0.000000
0.000000 0.294118 0.000000
0.000000 0.264706 0.000000
0.000000 0.235294 0.000000
0.000000 0.205882 0.000000
0.000000 0.176471 0.000000
0.000000 0.147059 0.000000
0.000000 0.117647 0.000000
0.000000 0.088235 0.000000
0.000000 0.058824 0.000000
0.000000 0.029412 0.000000
0.500341 0.497365 0.000000
0.501682 0.495729 0.000000
0.503023 0.494094 0.000000
0.504365 0.492458 0.000000
0.505706 0.490823 0.000000
0.507047 0.489187 0.000000
0.508388 0.487552 0.000000
0.509729 0.485916 0.000000
0.511070 0.484281 0.000000
0.512411 0.482645 0.000000
0.513753 0.481010 0.000000
0.515094 0.479375 0.000000
0.516435 0.477739 0.000000
0.517776 0.476104 0.000000
0.519117 0.474468 0.000000
0.520458 0.472833 0.000000
0.521799 0.471197 0.000000
0.523140 0.469562 0.000000
0.524482 0.467926 0.000000
0.525823 0.466291 0.000000
0.527164 0.464656 0.000000
0.528505 0.463020 0.000000
0.529846 0.461385 0.000000
0.531187 0.459749 0.000000
0.532528 0.458114 0.000000
0.533870 0.456478 0.000000
0.535211 0.454843 0.000000
0.536552 0.453207 0.000000
0.537893 0.451572 0.000000
0.539234 0.449936 0.000000
0.540575 0.448301 0.000000
0.541916 0.446666 0.000000
0.543258 0.445030 0.000000
0.544599 0.443395 0.000000
0.545940 0.441759 0.000000
0.547281 0.440124 0.000000
0.548622 0.438488 0.000000
0.549963 0.436853 0.000000
0.551304 0.435217 0.000000
0.552645 0.433582 0.000000
0.553987 0.431946 0.000000
0.555328 0.430311 0.000000
0.556669 0.428676 0.000000
0.558010 0.427040 0.000000
0.559351 0.425405 0.000000
0.560692 0.423769 0.000000
0.562033 0.422134 0.000000
0.563375 0.420498 0.000000
0.564716 0.418863 0.000000
0.566057 0.417227 0.000000
0.567398 0.415592 0.000000
0.568739 0.413957 0.000000
0.570080 0.412321 0.000000
0.571421 0.410686 0.000000
0.572763 0.409050 0.000000
0.574104 0.407415 0.000000
0.575445 0.405779 0.000000
0.576786 0.404144 0.000000
0.578127 0.402508 0.000000
0.579468 0.400873 0.000000
0.580809 0.399237 0.000000
0.582151 0.397602 0.000000
0.583492 0.395967 0.000000
0.584833 0.394331 0.000000
0.586174 0.392696 0.000000
0.587515 0.391060 0.000000
0.588856 0.389425 0.000000
0.590197 0.387789 0.000000
0.591538 0.386154 0.000000
0.592880 0.384518 0.000000
0.594221 0.382883 0.000000
0.595562 0.381247 0.000000
0.596903 0.379612 0.000000
0.598244 0.377977 0.000000
0.599585 0.376341 0.000000
0.600926 0.374706 0.000000
0.602268 0.373070 0.000000
0.603609 0.371435 0.000000
0.604950 0.369799 0.000000
0.606291 0.368164 0.000000
0.607632 0.366528 0.000000
0.608973 0.364893 0.000000
0.610314 0.363258 0.000000
0.611656 0.361622 0.000000
0.612997 0.359987 0.000000
0.614338 0.358351 0.000000
0.615679 0.356716 0.000000
0.617020 0.355080 0.000000
0.618361 0.353445 0.000000
0.619702 0.351809 0.000000
0.621043 0.350174 0.000000
0.622385 0.348538 0.000000
0.623726 0.346903 0.000000
0.625067 0.345268 0.000000
0.626408 0.343632 0.000000
0.627749 0.341997 0.000000
0.629090 0.340361 0.000000
0.630431 0.338726 0.000000
0.631773 0.337090 0.000000
0.633114 0.335455 0.000000
0.634455 0.333819 0.000000
0.635796 0.332184 0.000000
0.637137 0.330548 0.000000
0.638478 0.328913 0.000000
0.639819 0.327278 0.000000
0.641161 0.325642 0.000000
0.642502 0.324007 0.000000
0.643843 0.322371 0.000000
0.645184 0.320736 0.000000
0.646525 0.319100 0.000000
0.647866 0.317465 0.000000
0.649207 0.315829 0.000000
0.650548 0.314194 0.000000
0.651890 0.312559 0.000000
0.653231 0.310923 0.000000
0.654572 0.309288 0.000000
0.655913 0.307652 0.000000
0.657254 0.306017 0.000000
0.658595 0.304381 0.000000
0.659936 0.302746 0.000000
0.661278 0.301110 0.000000
0.662619 0.299475 0.000000
0.663960 0.297839 0.000000
0.665301 0.296204 0.000000
0.666642 0.294569 0.000000
0.667983 0.292933 0.000000
0.669324 0.291298 0.000000
0.670666 0.289662 0.000000
0.672007 0.288027 0.000000
0.673348 0.286391 0.000000
0.674689 0.284756 0.000000
0.676030 0.283120 0.000000
0.677371 0.281485 0.000000
[...]
POINT_DATA 7341
SCALARS UX float 1
LOOKUP_TABLE default
0.000000
0.000000
0.173000
0.173000
0.055439
0.079172
0.102260
0.076840
0.000357
-0.000000
0.000000
0.000000
0.000000
0.000000
0.000000
0.000000
0.000000
0.000000
0.000000
0.000000
0.000000
0.000000
0.000000
0.000000
0.000000
0.000000
0.000000
0.000000
0.000000
0.000000
0.000000
0.000000
0.000000
0.000000
0.000000
0.000000
0.000000
0.000000
0.000000
0.000000
0.000000
-0.000000
0.002954
0.003983
0.005475
0.007790
0.010861
0.014553
0.021024
0.029594
0.039540
0.049302
0.057642
0.064713
0.071698
0.078430
0.085861
0.094388
0.105912
0.109800
0.113569
0.117600
0.121684
0.125713
0.129982
0.134294
0.138583
0.142866
0.147185
0.151502
0.155813
0.160113
0.164411
0.168708
0.173000
0.173000
0.173000
0.173000
0.173000
0.173000
0.173000
0.173000
0.173000
0.173000
0.173000
0.173000
0.173000
0.173000
0.173000
0.173000
0.173000
0.173000
0.173000
0.173000
0.173000
0.173000
0.173000
0.173000
0.173000
0.173000
0.173000
0.173000
0.173000
0.173000
0.173000
0.173000
0.173000
0.168702
0.164402
0.160088
0.155671
0.151180
0.146432
0.141512
0.136206
0.130663
0.124890
0.118684
0.112390
0.105507
0.097910
0.089260
0.078802
0.055486
0.055460
0.055501
0.055583
0.055528
0.055467
0.055493
0.057171
0.057204
0.057265
0.057327
0.057457
0.057521
0.057623
0.057681
0.057789
0.057851
0.061725
0.061805
0.061899
0.061997
0.062095
0.062156
0.062225
0.062285
0.062897
0.062958
0.063058
0.063364
0.064122
0.065463
0.065552
0.065640
0.065713
0.065774
0.065851
0.065917
0.065983
0.066086
0.066162
0.066252
0.066333
0.066929
0.067499
0.067583
0.067703
0.067826
0.067925
0.068025
0.068087
0.069790
0.069855
0.069970
0.070072
0.071012
0.071123
0.071264
0.071387
0.071508
0.071625
0.072736
0.072854
0.072991
0.073116
0.075384
0.075525
0.077376
0.077954
0.079293
0.079635
0.080130
0.080824
0.081584
0.082364
0.083183
0.083978
0.084742
0.085455
0.086152
0.086774
0.087340
0.087848
0.088251
0.088581
0.088866
0.089153
0.089496
0.089892
0.090388
0.091017
0.091865
0.093053
0.094701
0.096838
0.099206
0.049226
0.045054
0.040978
0.036813
0.032724
0.028547
0.024729
0.021162
0.017868
0.014917
0.012296
0.009829
0.007673
0.005898
0.004363
0.002763
0.075541
0.073995
0.073266
0.072478
0.071818
0.071127
0.070503
0.069907
0.069323
0.068760
0.068217
0.067682
0.067166
0.066661
0.066161
0.065673
0.065186
0.064713
0.064241
0.063777
0.063317
0.062858
0.062405
0.061954
0.061504
0.061059
0.060616
0.060172
0.059733
0.059294
0.058856
0.058421
0.057988
0.057555
0.057122
0.056691
0.056261
0.055830
0.055401
0.054972
0.054543
0.054118
0.053692
0.053268
0.052844
0.052422
0.052002
0.051583
0.051165
0.050748
0.050334
0.049920
0.049509
0.049100
0.048691
0.048286
0.047882
0.047481
0.047082
0.046684
0.046290
0.045897
0.045509
0.045122
0.044738
0.044357
0.043979
0.043604
0.043232
0.042862
0.042497
0.042135
0.041775
0.041418
0.041066
0.040715
0.040369
0.040026
0.039685
0.039349
0.039016
0.038685
0.038358
0.038035
0.037716
0.037399
0.037086
0.036778
0.036472
0.036170
0.035871
0.035577
0.035286
0.035000
0.034717
0.034439
0.034164
0.033893
0.033627
0.033364
0.033105
0.032852
0.032602
0.032357
0.032117
0.031882
0.031652
0.031426
0.031207
0.030992
0.030783
0.030579
0.030380
0.030184
0.029992
0.029802
0.029612
0.029420
0.029223
0.029023
0.028822
0.028619
0.028417
0.028216
0.028018
0.027822
0.027629
0.027440
0.027256
0.027074
0.026897
0.026725
0.026556
0.026392
0.026231
0.026074
0.025922
0.025774
0.025629
0.025488
0.025352
0.025219
0.025091
0.024967
0.024847
0.024732
0.024620
0.024513
0.024411
0.024314
0.024221
0.024133
0.024049
0.023970
0.023896
0.023827
0.023762
0.023703
0.023650
0.023602
0.023560
0.023527
0.023501
0.023485
0.023474
0.023461
0.023441
0.023381
0.023191
0.022710
0.022236
0.021767
0.021314
0.020874
0.020447
0.020028
0.019623
0.019221
0.018829
0.018442
0.018061
0.017682
0.017312
0.016948
0.016593
0.016248
0.015911
0.015582
0.015261
0.014949
0.014643
0.014343
0.014048
0.013761
0.013480
0.013208
0.012938
0.012677
0.012422
0.012172
0.011929
0.011692
0.011458
0.011231
0.011009
0.010794
0.010582
0.010378
0.010179
0.009987
0.009797
0.009613
0.009432
0.009255
0.009083
0.008913
0.008745
0.008579
0.008417
0.008257
0.008100
0.007944
0.007790
0.007638
0.007488
0.007338
0.007189
0.007043
0.006899
0.006756
0.006615
0.006475
0.006339
0.006203
0.006070
0.005938
0.005810
0.005683
0.005558
0.005434
0.005312
0.005192
0.005074
0.004960
0.004846
0.004734
0.004625
0.004518
0.004411
0.004306
0.004204
0.004102
0.004002
0.003905
0.003808
0.003712
0.003623
0.003532
0.003445
0.003351
0.003263
0.003175
0.003075
0.002985
0.002898
0.002818
0.002712
0.002626
0.002533
0.002449
0.002371
0.002281
0.002192
0.002104
0.002017
0.001933
0.001870
0.001805
0.001737
0.001668
0.001598
0.001529
0.001460
0.001391
0.001322
0.001252
0.001183
0.001111
0.001039
0.000966
0.000893
0.000820
0.000749
0.000680
0.000611
0.000546
0.000481
0.000419
0.055373
0.057768
0.059669
0.001095
0.000918
0.085095
0.001010
0.084001
0.054321
0.048403
0.082751
0.001237
0.024501
0.053857
0.013525
0.014677
0.080125
0.001235
0.001415
0.060625
0.004962
0.053499
0.078005
0.007252
0.062110
0.040075
0.053381
0.071136
0.087625
0.064135
0.001821
0.055831
0.057971
0.054022
0.054544
0.000907
0.074448
0.001974
0.066508
0.000994
0.056788
0.058621
0.059727
0.053566
0.000947
0.072750
0.000894
0.068246
0.049045
0.053719
0.001287
0.075592
0.006933
0.036562
0.001245
0.078359
0.081551
0.032418
0.083389
0.084353
0.020279
0.029113
0.001219
0.001172
0.060960
0.062976
0.020891
0.085011
0.091990
0.000953
0.085610
0.000913
0.057019
0.000994
0.060001
0.011962
0.001136
0.094178
0.005538
0.001987
0.003723
0.001993
0.001933
0.056776
0.055394
0.055000
0.056767
0.057761
0.058644
0.054531
0.053895
0.053797
0.053987
0.053955
0.053923
0.054287
0.053612
0.053251
0.053172
0.053139
0.071734
0.000915
0.072528
0.074572
0.055003
0.053018
0.002119
0.060168
0.001995
0.051783
0.056024
0.002309
0.023718
0.051500
0.021283
0.065419
0.002267
0.080195
0.004904
0.033149
0.073653
0.014330
0.002340
0.051918
0.070985
0.002010
0.069656
0.070530
0.053380
0.051442
0.005360
0.085918
0.070097
0.075133
0.000927
0.051614
0.046329
0.001122
0.077194
0.066585
0.010107
0.079598
0.001159
0.039482
0.063783
0.081082
0.003349
0.082352
0.028861
0.037597
0.083365
0.083967
0.001038
0.084286
0.002054
0.084741
0.061831
0.000874
0.063923
0.000885
0.086241
0.060904
0.077464
0.001019
0.017922
0.089725
0.060363
0.001250
0.009520
0.003344
0.001620
0.003752
0.059933
0.059644
0.055098
0.055091
0.055667
0.057344
0.057340
0.057615
0.054659
0.054195
0.053930
0.053422
0.053509
0.052867
0.072918
0.074970
0.052484
0.053002
0.052547
0.074526
0.053004
0.051367
0.053052
0.070886
0.071292
0.071115
0.014906
0.003123
0.080454
0.078645
0.016100
0.076471
0.057186
0.073390
0.063247
0.051545
0.002212
0.058174
0.017394
0.081238
0.084503
0.002630
0.003101
0.001728
0.056377
0.049629
0.002220
0.051068
0.055330
0.069829
0.027200
0.051694
0.052536
0.051398
0.061597
0.002419
0.077402
0.075343
0.073965
0.050957
0.002227
0.064574
0.077674
0.001936
0.079791
0.039920
0.029490
0.001915
0.079505
0.020561
0.068645
0.002133
0.002109
0.002147
0.071236
0.002232
0.006855
0.059010
0.059540
0.068761
0.080513
0.080078
0.002448
0.036351
0.048278
0.011749
0.069700
0.009260
0.007133
0.002296
0.005029
0.003569
0.055513
0.054548
0.054244
0.052896
0.052545
0.002254
0.053648
0.043063
0.046311
0.052123
0.073030
0.051742
0.050671
0.051521
0.051529
0.051653
0.051396
0.054584
0.051350
0.050809
0.069693
0.070278
0.069871
0.051078
0.071368
0.010822
0.003236
0.073273
0.069357
0.067454
0.060727
0.075197
0.053913
0.050728
0.058379
0.003245
0.076010
0.048718
0.003454
0.020639
0.049942
0.003248
0.003872
0.076283
0.006254
0.037051
0.003127
0.070246
0.011589
0.052525
0.050293
0.049463
0.003350
0.049666
0.003589
0.063518
0.061066
0.075744
0.077058
0.001976
0.078466
0.061632
0.057299
0.016902
0.079210
0.003425
0.057646
0.042106
0.070013
0.020678
0.082598
0.026826
0.070787
0.068120
0.002793
0.068290
0.009020
0.006806
0.004552
0.004808
0.078851
0.058315
0.003052
0.003182
0.056729
0.003486
0.055647
0.053965
0.075990
0.052020
0.051351
0.051624
0.054086
0.010253
0.048989
0.052405
0.050743
0.068697
0.052802
0.002236
0.050128
0.049933
0.049292
0.030163
0.051412
0.043608
0.051079
0.050751
0.060195
0.070147
0.068083
0.069016
0.069070
0.012844
0.008967
0.049762
0.068216
0.079689
0.050513
0.068639
0.070778
0.066671
0.075967
0.005024
0.004400
0.072442
0.004693
0.074184
0.048555
0.073027
0.020490
0.019737
0.070937
0.048440
0.003106
0.067295
0.069505
0.051127
0.066775
0.067502
0.075191
0.056092
0.004335
0.011108
0.004010
0.049457
0.070838
0.034334
0.006311
0.003197
0.003340
0.012920
0.053246
0.051597
0.003301
0.004777
0.042132
0.050112
0.068917
0.050865
0.071531
0.078778
0.072166
0.049501
0.049598
0.069936
0.071218
0.008500
0.003739
0.056588
0.076007
0.055463
0.055441
0.054374
0.004192
0.030606
0.067215
0.077329
0.049150
0.008773
0.039582
0.003507
0.003551
0.023819
0.075334
0.014224
0.006580
0.057796
0.061091
0.059044
0.027077
0.051900
0.003310
0.050619
0.052259
0.076332
0.003252
0.048375
0.060275
0.052100
0.052993
0.067239
0.065553
0.049885
0.049895
0.067765
0.047697
0.044720
0.049692
0.045782
0.003039
0.067690
0.049297
0.072070
0.068674
0.049816
0.048776
0.067477
0.052302
0.048846
0.057507
0.054906
0.068802
0.004224
0.067103
0.010433
0.033003
0.006059
0.050689
0.003904
0.072432
0.047868
0.004746
0.048766
0.066525
0.068380
0.055565
0.041739
0.002985
0.025910
0.013764
0.004330
0.004564
0.054066
0.068318
0.003983
0.067297
0.047862
0.066496
0.063971
0.073920
0.047531
0.048220
0.022882
0.005380
0.016803
0.072405
0.005500
0.006017
0.073956
0.004585
0.010761
0.003336
0.067059
0.073960
0.075191
0.071799
0.039259
0.008449
0.034936
0.004977
0.004653
0.058827
0.041363
0.056174
0.066627
0.029946
0.076949
0.066952
0.051758
0.051590
0.049658
0.054906
0.046629
0.050669
0.048234
0.066910
0.068313
0.016525
0.004522
0.048082
0.072399
0.050645
0.049071
0.050930
0.051332
0.059856
0.003202
0.003706
0.071473
0.068184
0.068606
0.051859
0.050617
0.064805
0.008876
0.047037
0.081418
0.066756
0.054711
0.066247
0.061947
0.048902
0.066997
0.066953
0.048227
0.052911
0.005990
0.068717
0.005671
0.069802
0.025455
0.008892
0.032735
0.022389
0.007501
0.003740
0.064781
0.050392
0.005639
0.060793
0.041381
0.049039
0.004411
0.068965
0.071194
0.006732
0.048690
0.057450
0.004464
0.063976
0.060758
0.049691
0.052877
0.048476
0.069381
0.051297
0.045716
0.067556
0.054573
0.048065
0.026619
0.048638
0.032944
0.047806
0.016015
0.036523
0.005727
0.071153
0.072881
0.004883
0.002244
0.003811
0.004731
0.067576
0.004808
0.066749
0.004495
0.071452
0.007993
0.012717
0.048070
0.015952
0.004326
0.013241
0.005881
0.062643
0.067152
0.065393
0.065577
0.072469
0.056787
0.059066
0.049725
0.074967
0.004717
0.047127
0.049939
0.003918
0.066164
0.046827
0.065691
0.066232
0.065943
0.048347
0.053470
0.048366
0.046880
0.053156
0.003882
0.047800
0.043860
0.067402
0.007439
0.074973
0.065983
0.049974
0.004137
0.066396
0.053801
0.066185
0.064794
0.007440
0.005080
0.013294
0.004754
0.004911
0.049188
0.003683
0.003064
0.048827
0.015488
0.064144
0.065969
0.005676
0.046206
0.035737
0.065787
0.066420
0.006298
0.005082
0.068753
0.006102
0.010214
0.005952
0.006641
0.055213
0.061387
0.065254
0.048712
0.045550
0.007714
0.064641
0.065124
0.065007
0.063922
0.064847
0.033503
0.070279
0.002953
0.069718
0.052071
0.068959
0.069126
0.039084
0.019392
0.046172
0.047244
0.047043
0.047217
0.006140
0.046867
0.004449
0.007326
0.004868
0.068925
0.019816
0.055656
0.070335
0.048856
0.010231
0.005897
0.002803
0.029744
0.057653
0.007313
0.056066
0.059492
0.062520
0.065564
0.049530
0.071308
0.052245
0.051000
0.049292
0.046935
0.046364
0.007164
0.049218
0.046671
0.070129
0.046448
0.065334
0.066432
0.050885
0.047296
0.065369
0.001174
0.067400
0.069763
0.065614
0.005894
0.065228
0.025821
0.052872
0.005515
0.067624
0.051164
0.007774
0.008396
0.065423
0.066150
0.045238
0.020727
0.025269
0.005579
0.048579
0.050516
0.035329
0.003107
0.062784
0.004292
0.003554
0.045128
0.064038
0.047254
0.002262
0.007197
0.064490
0.063936
0.009475
0.066480
0.068207
0.065800
0.006268
0.045619
0.048071
0.046626
0.040879
0.049035
0.043292
0.002280
0.054587
0.002214
0.066252
0.005896
0.064781
0.016076
0.007442
0.065131
0.064226
0.008728
0.045580
0.012995
0.066546
0.053593
0.004684
0.005885
0.064767
0.005320
0.046422
0.005651
0.005684
0.006438
0.065029
0.060745
0.009620
0.032622
0.058547
0.009180
0.062709
0.060037
0.022041
0.056021
0.047809
0.047024
0.046903
0.045231
0.051190
0.047937
0.043606
0.046656
0.028918
0.045911
0.065838
0.051607
0.067432
0.007082
0.049345
0.065243
0.064917
0.018606
0.005251
0.038306
0.067120
0.065586
0.054319
0.008592
0.062356
0.061567
0.017342
0.024831
0.006025
0.006084
0.031791
0.004909
0.062825
0.002387
0.037576
0.046904
0.062527
0.058273
0.006795
0.064128
0.018102
0.062906
0.049420
0.051966
0.008186
0.062611
0.007311
0.065083
0.044642
0.006608
0.046897
0.044207
0.007031
0.003554
0.065710
0.024793
0.064821
0.045692
0.046047
0.045982
0.050482
0.065129
0.007578
0.007269
0.010638
0.062660
0.005703
0.005091
0.007379
0.043213
0.007983
0.011915
0.067576
0.065682
0.002873
0.063495
0.062908
0.044766
0.009523
0.055732
0.064274
0.061256
0.001617
0.057155
0.045022
0.056230
0.047858
0.006845
0.063746
0.047452
0.044498
0.064837
0.050357
0.064509
0.044898
0.047203
0.047480
0.044286
0.001024
0.044672
0.040714
0.021302
0.064175
0.013371
0.064278
0.065194
0.065384
0.047823
0.001557
0.045067
0.052920
0.064748
0.062510
0.028068
0.005539
0.004187
0.064063
0.005127
0.051342
0.046853
0.009060
0.045626
0.062048
0.023997
0.008157
0.060798
0.030955
0.043332
0.006558
0.005227
0.003114
0.061392
0.005475
0.060068
0.060731
0.004730
0.004098
0.058631
0.061864
0.060988
0.009809
0.045934
0.063704
0.001868
0.010623
0.039976
0.008325
0.008901
0.063644
0.008398
0.045992
0.049667
0.043621
0.045165
0.061967
0.020429
0.015267
0.008810
0.060504
0.001136
0.034560
0.007414
0.020847
0.062526
0.043096
0.044210
0.043739
0.060715
0.007208
0.009271
0.068107
0.007574
0.008829
0.003525
0.011519
0.050709
0.006237
0.011800
0.061809
0.061444
0.063984
0.056741
0.054774
0.001616
0.046093
0.062743
0.063907
0.063917
0.063299
0.049531
0.004306
0.045371
0.011295
0.043050
0.047651
0.038046
0.045680
0.006295
0.046061
0.044023
0.042435
0.063547
0.006951
0.046294
0.061882
0.042965
0.004122
0.029674
0.002237
0.005430
0.064670
0.000709
0.006260
0.069072
0.061967
0.063923
0.060040
0.052549
0.027316
0.002598
0.062199
0.049743
0.063357
0.063706
0.063400
0.001593
0.050854
0.010790
0.010082
0.058794
0.045902
0.023174
0.058111
0.017600
0.008862
0.007198
0.007841
0.042365
0.029647
0.012664
0.059319
0.002623
0.059101
0.058311
0.045233
0.003947
0.025039
0.047969
0.008380
0.011514
0.007368
0.001554
0.001494
0.008747
0.063484
0.010080
0.009848
0.006747
0.059062
0.058562
0.008397
0.060386
0.003105
0.060712
0.055603
0.060160
0.057434
0.010163
0.048721
0.040057
0.062447
0.060450
0.044667
0.044385
0.037828
0.008811
0.007762
0.017717
0.011865
0.003605
0.060116
0.058403
0.061751
0.053218
0.048729
0.063180
0.042498
0.043102
0.045666
0.055796
0.057495
0.009992
0.046312
0.042010
0.002203
0.063115
0.050030
0.045640
0.041761
0.063321
0.062771
0.043554
0.041537
0.045309
0.033927
0.005762
0.011363
0.008979
0.062927
0.062603
0.062906
0.062980
0.005252
0.037818
0.045617
0.026548
0.058694
0.028713
0.063201
0.004238
0.062508
0.004653
0.060971
0.060840
0.063290
0.006102
0.014339
0.006193
0.001888
0.045206
0.051637
0.011534
0.009692
0.055565
0.057388
0.054865
0.025876
0.008495
0.005948
0.006795
0.040335
0.006083
0.055045
0.056799
0.041251
0.005106
0.043002
0.057962
0.014025
0.001566
0.048080
0.011955
0.010121
0.059672
0.012692
0.002220
0.029647
0.014787
0.010560
0.013525
0.055567
0.062264
0.007526
0.060477
0.055377
0.040621
0.009332
0.055136
0.009659
0.050939
0.059107
0.008746
0.011139
0.008142
0.003146
0.009854
0.008892
0.021617
0.041921
0.054203
0.046935
0.047827
0.020653
0.056986
0.003514
0.059951
0.059833
0.061931
0.055965
0.007029
0.059923
0.058818
0.013266
0.034589
0.044530
0.044498
0.044466
0.043729
0.009600
0.042076
0.057961
0.049721
0.063043
0.062485
0.010312
0.043960
0.044726
0.039648
0.055905
0.062482
0.062708
0.005834
0.033639
0.004625
0.029412
0.044465
0.056972
0.041591
0.032887
0.061528
0.041226
0.001130
0.061997
0.059158
0.061349
0.067242
0.065111
0.007397
0.062127
0.041305
0.003653
0.062418
0.062192
0.004330
0.062482
0.055237
0.012556
0.056083
0.046052
0.052148
0.019934
0.051939
0.056359
0.008167
0.009689
0.010294
0.028476
0.003787
0.035952
0.060508
0.009687
0.053516
0.002726
0.003099
0.052638
0.043716
0.006290
0.004306
0.054092
0.001647
0.057983
0.054696
0.004690
0.008211
0.046165
0.043049
0.002125
0.056422
0.059522
0.018370
0.006681
0.006920
0.051134
0.011706
0.010353
0.037914
0.058646
0.007862
0.039605
0.054763
0.025330
0.009345
0.062376
0.040091
0.054587
0.011969
0.008990
0.011993
0.061129
0.053796
0.009962
0.060991
0.063824
0.003913
0.058645
0.047133
0.011626
0.015221
0.009941
0.001232
0.015016
0.023211
0.029745
0.011661
0.060053
0.053888
0.006351
0.061252
0.061827
0.044681
0.042419
0.002656
0.046041
0.058373
0.061785
0.057638
0.062190
0.044215
0.062388
0.044146
0.013691
0.016503
0.003274
0.060487
0.008688
0.061586
0.042576
0.014876
0.005040
0.062449
0.063843
0.043785
0.061551
0.053656
0.039548
0.005633
0.061476
0.061541
0.009853
0.061295
0.046140
0.011451
0.051059
0.046277
0.054723
0.012888
0.013653
0.010872
0.046124
0.060593
0.053586
0.058492
0.060186
0.053735
0.010469
0.041616
0.008062
0.057891
0.008372
0.007419
0.038363
0.040545
0.057650
0.030685
0.003585
0.005442
0.043603
0.050794
0.001875
0.002569
0.042992
0.004167
0.013155
0.004613
0.043303
0.016274
0.020344
0.041585
0.000911
0.004214
0.012855
0.059623
0.043176
0.057635
0.064191
0.059424
0.012223
0.009338
0.010767
0.013921
0.014702
0.040560
0.006822
0.013615
0.010928
0.025731
0.060748
0.060702
0.017439
0.042452
0.006557
0.061319
0.045431
0.054480
0.008196
0.037617
0.059327
0.053289
0.059198
0.061337
0.043082
0.015581
0.061254
0.045313
0.056372
0.012995
0.004960
0.039006
0.060142
0.006221
0.006010
0.051366
0.061775
0.061022
0.059184
0.050266
0.006921
0.001784
0.009508
0.043197
0.011186
0.060670
0.003130
0.002547
0.052297
0.006217
0.010504
0.066545
0.061129
0.060870
0.058497
0.035861
0.001310
0.060271
0.016396
0.051560
0.051868
0.002585
0.009306
0.026556
0.023168
0.044618
0.014350
0.053178
0.011980
0.016311
0.048480
0.026835
0.048865
0.011690
0.049280
0.053105
0.059907
0.015696
0.010432
0.027937
0.009604
0.061443
0.058023
0.012645
0.059889
0.003816
0.007321
0.008949
0.006676
0.042148
0.001674
0.006364
0.017231
0.050756
0.003497
0.004998
0.049301
0.002999
0.007196
0.037535
0.002050
0.001085
0.059395
0.042379
0.009189
0.013841
0.051651
0.050542
0.060247
0.051291
0.052150
0.011788
0.057646
0.017877
0.035629
0.060071
0.062811
0.058169
0.003894
0.043005
0.000701
0.013051
0.010951
0.007546
0.055047
0.056885
0.013933
0.023022
0.058273
0.008317
0.041013
0.017843
0.007624
0.023046
0.044550
0.040817
0.060706
0.054843
0.018929
0.060357
0.038773
0.038143
0.050169
0.060489
0.042824
0.060360
0.057356
0.002201
0.058698
0.004690
0.060670
0.006789
0.040923
0.053779
0.035745
0.067553
0.044385
0.059198
0.056481
0.011154
0.003031
0.047617
0.013511
0.042881
0.006062
0.042280
0.010686
0.018068
0.005382
0.048573
0.060318
0.060147
0.058059
0.058930
0.005817
0.007066
0.059887
0.006221
0.038782
0.001388
0.035951
0.048905
0.010872
0.044437
0.006630
0.070058
0.042192
0.014288
0.045659
0.047708
0.016004
0.050901
0.010495
0.053697
0.009312
0.057670
0.008046
0.049372
0.036920
0.012220
0.007337
0.056711
0.023089
0.059612
0.059242
0.037294
0.002301
0.030377
0.056774
0.007022
0.012037
0.048697
0.047009
0.014801
0.005703
0.041606
0.048884
0.000646
0.059491
0.010205
0.006741
0.003402
0.059204
0.001873
0.004861
0.011628
0.012937
0.001159
0.004218
0.039573
0.040048
0.055669
0.005500
0.032613
0.019520
0.015697
0.015951
0.058562
0.051077
0.046517
0.059860
0.056236
0.014042
0.002413
0.049414
0.056183
0.016840
0.051790
0.007044
0.020311
0.004187
0.008410
0.046761
0.007647
0.020407
0.001213
0.001476
0.043393
0.057535