# vtk DataFile Version 2.0
Test
ASCII
DATASET POLYDATA
POINTS 7341 float
0.000000 0.000000 0.000000
1.000000 0.000000 0.000000
1.000000 1.000000 0.000000
0.000000 1.000000 0.000000
0.000000 0.500000 0.000000
0.500000 0.500000 0.000000
1.000000 0.500000 0.000000
0.499000 0.499000 0.000000
0.900000 0.010000 0.000000
0.029412 0.000000 0.000000
0.058824 0.000000 0.000000
0.088235 0.000000 0.000000
0.117647 0.000000 0.000000
0.147059 0.000000 0.000000
0.176471 0.000000 0.000000
0.205882 0.000000 0.000000
0.235294 0.000000 0.000000
0.264706 0.000000 0.000000
0.294118 0.000000 0.000000
0.323529 0.000000 0.000000
0.352941 0.000000 0.000000
0.382353 0.000000 0.000000
0.411765 0.000000 0.000000
0.441176 0.000000 0.000000
0.470588 0.000000 0.000000
0.500000 0.000000 0.000000
0.529412 0.000000 0.000000
0.558824 0.000000 0.000000
0.588235 0.000000 0.000000
0.617647 0.000000 0.000000
0.647059 0.000000 0.000000
0.676471 0.000000 0.000000
0.705882 0.000000 0.000000
0.735294 0.000000 0.000000
0.764706 0.000000 0.000000
0.794118 0.000000 0.000000
0.823529 0.000000 0.000000
0.852941 0.000000 0.000000
0.882353 0.000000 0.000000
0.911765 0.000000 0.000000
0.941176 0.000000 0.000000
0.970588 0.000000 0.000000
1.000000 0.029412 0.000000
1.000000 0.058824 0.000000
1.000000 0.088235 0.000000
1.000000 0.117647 0.000000
1.000000 0.147059 0.000000
1.000000 0.176471 0.000000
1.000000 0.205882 0.000000
1.000000 0.235294 0.000000
1.000000 0.264706 0.000000
1.000000 0.294118 0.000000
1.000000 0.323529 0.000000
1.000000 0.352941 0.000000
1.000000 0.382353 0.000000
1.000000 0.411765 0.000000
1.000000 0.441176 0.000000
1.000000 0.470588 0.000000
1.000000 0.529412 0.000000
1.000000 0.558824 0.000000
1.000000 0.588235 0.000000
1.000000 0.617647 0.000000
1.000000 0.647059 0.000000
1.000000 0.676471 0.000000
1.000000 0.705882 0.000000
1.000000 0.735294 0.000000
1.000000 0.764706 0.000000
1.000000 0.794118 0.000000
1.000000 0.823529 0.000000
1.000000 0.852941 0.000000
1.000000 0.882353 0.000000
1.000000 0.911765 0.000000
1.000000 0.941176 0.000000
1.000000 0.970588 0.000000
0.970588 1.000000 0.000000
0.941176 1.000000 0.000000
0.911765 1.000000 0.000000
0.882353 1.000000 0.000000
0.852941 1.000000 0.000000
0.823529 1.000000 0.000000
0.794118 1.000000 0.000000
0.764706 1.000000 0.000000
0.735294 1.000000 0.000000
0.705882 1.000000 0.000000
0.676471 1.000000 0.000000
0.647059 1.000000 0.000000
0.617647 1.000000 0.000000
0.588235 1.000000 0.000000
0.558824 1.000000 0.000000
0.529412 1.000000 0.000000
0.500000 1.000000 0.000000
0.470588 1.000000 0.000000
0.441176 1.000000 0.000000
0.411765 1.000000 0.000000
0.382353 1.000000 0.000000
0.352941 1.000000 0.000000
0.323529 1.000000 0.000000
0.294118 1.000000 0.000000
0.264706 1.000000 0.000000
0.235294 1.000000 0.000000
0.205882 1.000000 0.000000
0.176471 1.000000 0.000000
0.147059 1.000000 0.000000
0.117647 1.000000 0.000000
0.088235 1.000000 0.000000
0.058824 1.000000 0.000000
0.029412 1.000000 0.000000
0.000000 0.970588 0.000000
0.000000 0.941176 0.000000
0.000000 0.911765 0.000000
0.000000 0.882353 0.000000
0.000000 0.852941 0.000000
0.000000 0.823529 0.000000
0.000000 0.794118 0.000000
0.000000 0.764706 0.000000
0.000000 0.735294 0.000000
0.000000 0.705882 0.000000
0.000000 0.676471 0.000000
0.000000 0.647059 0.000000
0.000000 0.617647 0.000000
0.000000 0.588235 0.000000
0.000000 0.558824 0.000000
0.000000 0.529412 0.000000
0.007246 0.500000 0.000000
0.014493 0.500000 0.000000
0.021739 0.500000 0.000000
0.028986 0.500000 0.000000
0.036232 0.500000 0.000000
0.043478 0.500000 0.000000
0.050725 0.500000 0.000000
0.057971 0.500000 0.000000
0.065217 0.500000 0.000000
0.072464 0.500000 0.000000
0.079710 0.500000 0.000000
0.086957 0.500000 0.000000
0.094203 0.500000 0.000000
0.101449 0.500000 0.000000
0.108696 0.500000 0.000000
0.115942 0.500000 0.000000
0.123188 0.500000 0.000000
0.130435 0.500000 0.000000
0.137681 0.500000 0.000000
0.144928 0.500000 0.000000
0.152174 0.500000 0.000000
0.159420 0.500000 0.000000
0.166667 0.500000 0.000000
0.173913 0.500000 0.000000
0.181159 0.500000 0.000000
0.188406 0.500000 0.000000
0.195652 0.500000 0.000000
0.202899 0.500000 0.000000
0.210145 0.500000 0.000000
0.217391 0.500000 0.000000
0.224638 0.500000 0.000000
0.231884 0.500000 0.000000
0.239130 0.500000 0.000000
0.246377 0.500000 0.000000
0.253623 0.500000 0.000000
0.260870 0.500000 0.000000
0.268116 0.500000 0.000000
0.275362 0.500000 0.000000
0.282609 0.500000 0.000000
0.289855 0.500000 0.000000
0.297101 0.500000 0.000000
0.304348 0.500000 0.000000
0.311594 0.500000 0.000000
0.318841 0.500000 0.000000
0.326087 0.500000 0.000000
0.333333 0.500000 0.000000
0.340580 0.500000 0.000000
0.347826 0.500000 0.000000
0.355072 0.500000 0.000000
0.362319 0.500000 0.000000
0.369565 0.500000 0.000000
0.376812 0.500000 0.000000
0.384058 0.500000 0.000000
0.391304 0.500000 0.000000
0.398551 0.500000 0.000000
0.405797 0.500000 0.000000
0.413043 0.500000 0.000000
0.420290 0.500000 0.000000
0.427536 0.500000 0.000000
0.434783 0.500000 0.000000
0.442029 0.500000 0.000000
0.449275 0.500000 0.000000
0.456522 0.500000 0.000000
0.463768 0.500000 0.000000
0.471014 0.500000 0.000000
0.478261 0.500000 0.000000
0.485507 0.500000 0.000000
0.492754 0.500000 0.000000
0.510004 0.500000 0.000000
0.520408 0.500000 0.000000
0.531229 0.500000 0.000000
0.542483 0.500000 0.000000
0.554187 0.500000 0.000000
0.566359 0.500000 0.000000
0.579019 0.500000 0.000000
0.592185 0.500000 0.000000
0.605877 0.500000 0.000000
0.620118 0.500000 0.000000
0.634929 0.500000 0.000000
0.650332 0.500000 0.000000
0.666352 0.500000 0.000000
0.683013 0.500000 0.000000
0.700340 0.500000 0.000000
0.718361 0.500000 0.000000
0.737103 0.500000 0.000000
0.756595 0.500000 0.000000
0.776867 0.500000 0.000000
0.797950 0.500000 0.000000
0.819877 0.500000 0.000000
0.842681 0.500000 0.000000
0.866398 0.500000 0.000000
0.891064 0.500000 0.000000
0.916716 0.500000 0.000000
0.943396 0.500000 0.000000
0.971143 0.500000 0.000000
0.000000 0.470588 0.000000
0.000000 0.441176 0.000000
0.000000 0.411765 0.000000
0.000000 0.382353 0.000000
0.000000 0.352941 0.000000
0.000000 0.323529 0.000000
0.000000 0.294118 0.000000
0.000000 0.264706 0.000000
0.000000 0.235294 0.000000
0.000000 0.205882 0.000000
0.000000 0.176471 0.000000
0.000000 0.147059 0.000000
0.000000 0.117647 0.000000
0.000000 0.088235 0.000000
0.000000 0.058824 0.000000
0.000000 0.029412 0.000000
0.500341 0.497365 0.000000
0.501682 0.495729 0.000000
0.503023 0.494094 0.000000
0.504365 0.492458 0.000000
0.505706 0.490823 0.000000
0.507047 0.489187 0.000000
0.508388 0.487552 0.000000
0.509729 0.485916 0.000000
0.511070 0.484281 0.000000
0.512411 0.482645 0.000000
0.513753 0.481010 0.000000
0.515094 0.479375 0.000000
0.516435 0.477739 0.000000
0.517776 0.476104 0.000000
0.519117 0.474468 0.000000
0.520458 0.472833 0.000000
0.521799 0.471197 0.000000
0.523140 0.469562 0.000000
0.524482 0.467926 0.000000
0.525823 0.466291 0.000000
0.527164 0.464656 0.000000
0.528505 0.463020 0.000000
0.529846 0.461385 0.000000
0.531187 0.459749 0.000000
0.532528 0.458114 0.000000
0.533870 0.456478 0.000000
0.535211 0.454843 0.000000
0.536552 0.453207 0.000000
0.537893 0.451572 0.000000
0.539234 0.449936 0.000000
0.540575 0.448301 0.000000
0.541916 0.446666 0.000000
0.543258 0.445030 0.000000
0.544599 0.443395 0.000000
0.545940 0.441759 0.000000
0.547281 0.440124 0.000000
0.548622 0.438488 0.000000
0.549963 0.436853 0.000000
0.551304 0.435217 0.000000
0.552645 0.433582 0.000000
0.553987 0.431946 0.000000
0.555328 0.430311 0.000000
0.556669 0.428676 0.000000
0.558010 0.427040 0.000000
0.559351 0.425405 0.000000
0.560692 0.423769 0.000000
0.562033 0.422134 0.000000
0.563375 0.420498 0.000000
0.564716 0.418863 0.000000
0.566057 0.417227 0.000000
0.567398 0.415592 0.000000
0.568739 0.413957 0.000000
0.570080 0.412321 0.000000
0.571421 0.410686 0.000000
0.572763 0.409050 0.000000
0.574104 0.407415 0.000000
0.575445 0.405779 0.000000
0.576786 0.404144 0.000000
0.578127 0.402508 0.000000
0.579468 0.400873 0.000000
0.580809 0.399237 0.000000
0.582151 0.397602 0.000000
0.583492 0.395967 0.000000
0.584833 0.394331 0.000000
0.586174 0.392696 0.000000
0.587515 0.391060 0.000000
0.588856 0.389425 0.000000
0.590197 0.387789 0.000000
0.591538 0.386154 0.000000
0.592880 0.384518 0.000000
0.594221 0.382883 0.000000
0.595562 0.381247 0.000000
0.596903 0.379612 0.000000
0.598244 0.377977 0.000000
0.599585 0.376341 0.000000
0.600926 0.374706 0.000000
0.602268 0.373070 0.000000
0.603609 0.371435 0.000000
0.604950 0.369799 0.000000
0.606291 0.368164 0.000000
0.607632 0.366528 0.000000
0.608973 0.364893 0.000000
0.610314 0.363258 0.000000
0.611656 0.361622 0.000000
0.612997 0.359987 0.000000
0.614338 0.358351 0.000000
0.615679 0.356716 0.000000
0.617020 0.355080 0.000000
0.618361 0.353445 0.000000
0.619702 0.351809 0.000000
0.621043 0.350174 0.000000
0.622385 0.348538 0.000000
0.623726 0.346903 0.000000
0.625067 0.345268 0.000000
0.626408 0.343632 0.000000
0.627749 0.341997 0.000000
0.629090 0.340361 0.000000
0.630431 0.338726 0.000000
0.631773 0.337090 0.000000
0.633114 0.335455 0.000000
0.634455 0.333819 0.000000
0.635796 0.332184 0.000000
0.637137 0.330548 0.000000
0.638478 0.328913 0.000000
0.639819 0.327278 0.000000
0.641161 0.325642 0.000000
0.642502 0.324007 0.000000
0.643843 0.322371 0.000000
0.645184 0.320736 0.000000
0.646525 0.319100 0.000000
0.647866 0.317465 0.000000
0.649207 0.315829 0.000000
0.650548 0.314194 0.000000
0.651890 0.312559 0.000000
0.653231 0.310923 0.000000
0.654572 0.309288 0.000000
0.655913 0.307652 0.000000
0.657254 0.306017 0.000000
0.658595 0.304381 0.000000
0.659936 0.302746 0.000000
0.661278 0.301110 0.000000
0.662619 0.299475 0.000000
0.663960 0.297839 0.000000
0.665301 0.296204 0.000000
0.666642 0.294569 0.000000
0.667983 0.292933 0.000000
0.669324 0.291298 0.000000
0.670666 0.289662 0.000000
0.672007 0.288027 0.000000
0.673348 0.286391 0.000000
0.674689 0.284756 0.000000
0.676030 0.283120 0.000000
0.677371 0.281485 0.000000
[...]
POINT_DATA 7341
SCALARS UX float 1
LOOKUP_TABLE default
0.000000
0.000000
0.208000
0.208000
0.051823
0.044817
0.108331
0.044465
0.001072
-0.000000
0.000000
0.000000
0.000000
0.000000
0.000000
0.000000
0.000000
0.000000
0.000000
0.000000
0.000000
0.000000
0.000000
0.000000
0.000000
0.000000
0.000000
0.000000
0.000000
0.000000
0.000000
0.000000
0.000000
0.000000
0.000000
0.000000
0.000000
0.000000
0.000000
0.000000
0.000000
-0.000000
0.004471
0.011344
0.019551
0.030099
0.036607
0.041685
0.046824
0.051886
0.058352
0.064551
0.070782
0.077362
0.083729
0.089965
0.095694
0.101654
0.112297
0.116979
0.121730
0.126750
0.131909
0.137265
0.142839
0.148900
0.155195
0.161635
0.168361
0.175113
0.181832
0.188469
0.195044
0.201547
0.208000
0.208000
0.208000
0.208000
0.208000
0.208000
0.208000
0.208000
0.208000
0.208000
0.208000
0.208000
0.208000
0.208000
0.208000
0.208000
0.208000
0.208000
0.208000
0.208000
0.208000
0.208000
0.208000
0.208000
0.208000
0.208000
0.208000
0.208000
0.208000
0.208000
0.208000
0.208000
0.208000
0.196891
0.185815
0.174749
0.163768
0.152818
0.142014
0.131250
0.120695
0.110355
0.100166
0.090312
0.080548
0.070743
0.060849
0.050892
0.041440
0.053548
0.054078
0.055379
0.041064
0.046386
0.051986
0.048465
0.045748
0.044283
0.045274
0.045635
0.052306
0.044353
0.044386
0.043861
0.042669
0.041850
0.038280
0.040796
0.040531
0.039597
0.038691
0.038498
0.039140
0.037960
0.036409
0.037373
0.036476
0.036260
0.037062
0.036428
0.035562
0.034675
0.034878
0.035267
0.034768
0.034931
0.034757
0.034800
0.035013
0.035178
0.035180
0.035366
0.035536
0.035764
0.036033
0.036282
0.036598
0.036893
0.037225
0.037586
0.037967
0.038386
0.038794
0.039197
0.039613
0.040025
0.040441
0.040852
0.041259
0.041663
0.042057
0.042450
0.042844
0.043242
0.043641
0.044042
0.044429
0.045383
0.046030
0.046782
0.047642
0.048630
0.049740
0.050931
0.052339
0.053845
0.055076
0.056761
0.057584
0.058320
0.059357
0.061519
0.064348
0.067846
0.071694
0.075689
0.079696
0.083632
0.087458
0.091189
0.094915
0.098366
0.102472
0.104540
0.049055
0.043840
0.039172
0.034448
0.031441
0.028128
0.024280
0.024074
0.021033
0.021070
0.019677
0.017920
0.015799
0.014033
0.010938
0.006584
0.044056
0.043648
0.043235
0.042830
0.042425
0.042027
0.041634
0.041246
0.040862
0.040483
0.040111
0.039745
0.039385
0.039032
0.038684
0.038344
0.038007
0.037680
0.037356
0.037039
0.036726
0.036420
0.036121
0.035826
0.035536
0.035252
0.034972
0.034697
0.034430
0.034167
0.033908
0.033658
0.033413
0.033175
0.032939
0.032711
0.032487
0.032266
0.032052
0.031843
0.031639
0.031446
0.031256
0.031077
0.030902
0.030733
0.030575
0.030424
0.030282
0.030143
0.030010
0.029882
0.029760
0.029651
0.029550
0.029428
0.029165
0.028836
0.028491
0.028147
0.027804
0.027469
0.027153
0.026843
0.026545
0.026259
0.025986
0.025723
0.025468
0.025219
0.024976
0.024737
0.024504
0.024276
0.024051
0.023830
0.023614
0.023400
0.023189
0.022980
0.022775
0.022574
0.022374
0.022177
0.021983
0.021792
0.021604
0.021418
0.021234
0.021052
0.020872
0.020696
0.020522
0.020350
0.020180
0.020013
0.019848
0.019684
0.019522
0.019361
0.019202
0.019045
0.018889
0.018735
0.018583
0.018432
0.018283
0.018134
0.017988
0.017843
0.017699
0.017555
0.017413
0.017271
0.017131
0.016993
0.016855
0.016719
0.016583
0.016447
0.016312
0.016178
0.016045
0.015912
0.015778
0.015646
0.015513
0.015381
0.015249
0.015117
0.014984
0.014852
0.014720
0.014589
0.014456
0.014325
0.014194
0.014063
0.013932
0.013802
0.013673
0.013544
0.013417
0.013290
0.013164
0.013039
0.012915
0.012792
0.012670
0.012550
0.012432
0.012315
0.012199
0.012085
0.011973
0.011863
0.011755
0.011649
0.011544
0.011441
0.011332
0.011208
0.011078
0.010948
0.010820
0.010692
0.010565
0.010440
0.010315
0.010192
0.010069
0.009947
0.009827
0.009707
0.009588
0.009471
0.009355
0.009240
0.009125
0.009012
0.008900
0.008788
0.008678
0.008568
0.008460
0.008352
0.008246
0.008140
0.008035
0.007931
0.007829
0.007727
0.007626
0.007526
0.007427
0.007329
0.007231
0.007135
0.007039
0.006945
0.006851
0.006757
0.006665
0.006574
0.006483
0.006394
0.006305
0.006217
0.006129
0.006043
0.005957
0.005872
0.005788
0.005705
0.005623
0.005542
0.005462
0.005383
0.005305
0.005228
0.005152
0.005077
0.005003
0.004931
0.004859
0.004788
0.004719
0.004651
0.004584
0.004518
0.004453
0.004391
0.004329
0.004269
0.004211
0.004153
0.004098
0.004045
0.003993
0.003942
0.003894
0.003848
0.003804
0.003762
0.003722
0.003685
0.003650
0.003619
0.003590
0.003564
0.003541
0.003520
0.003502
0.003486
0.003473
0.003464
0.003458
0.003456
0.003456
0.003458
0.003464
0.003474
0.003490
0.003507
0.003529
0.003553
0.003579
0.003607
0.003640
0.003676
0.003715
0.003757
0.003800
0.003850
0.003902
0.003963
0.004027
0.004093
0.004158
0.004228
0.004303
0.004401
0.004502
0.004612
0.004699
0.004611
0.004233
0.003829
0.003483
0.003167
0.002889
0.002623
0.002383
0.002152
0.001920
0.001706
0.001494
0.001285
0.034705
0.033825
0.035580
0.000168
0.000467
0.078280
0.000251
0.062529
0.037785
0.057942
0.052755
0.000157
0.022260
0.042289
0.032275
0.016766
0.050321
0.000338
0.000804
0.037854
0.016727
0.045918
0.046901
0.011170
0.039406
0.036321
0.049436
0.078579
0.089018
0.040605
0.001262
0.033751
0.034330
0.039863
0.036245
0.001294
0.043738
0.003861
0.041444
0.000510
0.033576
0.034759
0.036211
0.044725
0.002513
0.043282
0.002791
0.042034
0.047869
0.048516
0.000869
0.044703
0.019799
0.031957
0.000245
0.047664
0.052311
0.028161
0.055793
0.070050
0.038196
0.044747
0.000084
0.000096
0.038521
0.039926
0.019958
0.091206
0.096379
0.000360
0.082074
0.000484
0.065338
0.000641
0.036978
0.015400
0.000339
0.098408
0.008920
0.001527
0.004173
0.001585
0.001305
0.033863
0.034517
0.035363
0.033678
0.033979
0.035022
0.035946
0.044308
0.041167
0.039599
0.039511
0.038975
0.037131
0.050458
0.047541
0.044077
0.043216
0.042641
0.002998
0.042658
0.043839
0.033477
0.032454
0.001204
0.037826
0.000870
0.035845
0.059160
0.000448
0.019089
0.039252
0.033124
0.040112
0.000728
0.073054
0.013507
0.026597
0.044235
0.012960
0.000429
0.034007
0.042512
0.001763
0.041220
0.041488
0.032485
0.047572
0.004931
0.088438
0.042687
0.043967
0.002104
0.038855
0.044876
0.000407
0.045999
0.041509
0.027198
0.049212
0.000168
0.033658
0.040384
0.051819
0.009448
0.052461
0.025720
0.050872
0.054249
0.059516
0.000150
0.066772
0.000694
0.074293
0.039134
0.000417
0.071818
0.000448
0.085572
0.038255
0.084801
0.000402
0.019003
0.092920
0.037431
0.000574
0.013570
0.002374
0.001040
0.003531
0.036608
0.035893
0.034049
0.033525
0.033377
0.034298
0.034046
0.034838
0.034544
0.035901
0.036516
0.040264
0.038203
0.042999
0.042907
0.043830
0.043791
0.044987
0.045123
0.043578
0.049784
0.048044
0.050512
0.041770
0.042959
0.042128
0.026957
0.001185
0.060078
0.049718
0.023099
0.048276
0.035463
0.043762
0.039466
0.041154
0.000617
0.036377
0.015291
0.080052
0.086679
0.001103
0.001852
0.002385
0.034640
0.046784
0.001002
0.044777
0.033757
0.041417
0.021782
0.034655
0.032212
0.042923
0.038730
0.000491
0.079981
0.046496
0.044764
0.039624
0.000522
0.067757
0.047790
0.000872
0.065267
0.047047
0.039524
0.000992
0.053309
0.017533
0.041640
0.000464
0.000570
0.000948
0.041886
0.000621
0.015441
0.037060
0.037400
0.040569
0.076658
0.069314
0.000791
0.030107
0.052569
0.011490
0.042031
0.009383
0.007083
0.000489
0.003868
0.002958
0.034002
0.033105
0.032829
0.032718
0.033158
0.000842
0.032549
0.038704
0.044097
0.033887
0.043340
0.035569
0.045387
0.049610
0.038650
0.037405
0.036026
0.033309
0.049108
0.043268
0.041677
0.041819
0.041138
0.038789
0.041938
0.020858
0.010806
0.042974
0.040977
0.041193
0.038098
0.043856
0.032933
0.031706
0.036032
0.001584
0.060644
0.048132
0.000977
0.014618
0.037158
0.001046
0.001155
0.071100
0.011632
0.029385
0.001325
0.042135
0.008102
0.032066
0.032864
0.043242
0.001111
0.038285
0.000917
0.039231
0.058992
0.047503
0.047846
0.001019
0.048691
0.038401
0.035393
0.012049
0.055801
0.000952
0.035907
0.036019
0.041698
0.026772
0.083524
0.019066
0.073691
0.040229
0.001449
0.041037
0.006350
0.004907
0.002528
0.003165
0.051184
0.036499
0.001326
0.001329
0.035006
0.001303
0.034002
0.032651
0.064117
0.033364
0.037647
0.035059
0.032806
0.015173
0.047304
0.032846
0.043802
0.040718
0.032270
0.000472
0.034568
0.034970
0.045599
0.024369
0.049838
0.041266
0.048970
0.041550
0.037290
0.042615
0.040619
0.041052
0.040629
0.019867
0.018685
0.037768
0.040185
0.061726
0.042733
0.040600
0.041591
0.040940
0.044201
0.001250
0.001839
0.055113
0.001598
0.045992
0.033523
0.044228
0.022826
0.011720
0.044103
0.036038
0.001452
0.040052
0.041166
0.031423
0.039953
0.039916
0.049522
0.034548
0.001661
0.005939
0.001469
0.039745
0.042844
0.026356
0.003247
0.000909
0.001638
0.016650
0.032508
0.031606
0.001154
0.010834
0.044370
0.033120
0.040450
0.032513
0.069745
0.077134
0.043300
0.041184
0.035194
0.041107
0.044615
0.014052
0.000775
0.034880
0.067695
0.053792
0.034051
0.033248
0.001924
0.023199
0.039469
0.074722
0.038497
0.004858
0.032620
0.001533
0.001030
0.016635
0.056494
0.010030
0.003997
0.035687
0.037481
0.036421
0.032804
0.031690
0.001002
0.031899
0.031932
0.055055
0.000961
0.043258
0.037023
0.050750
0.032513
0.041736
0.039772
0.033506
0.033986
0.040214
0.044883
0.039512
0.036535
0.042137
0.001146
0.039810
0.037763
0.044365
0.040302
0.032271
0.041895
0.039762
0.031683
0.030847
0.034833
0.048985
0.041117
0.001579
0.041525
0.012932
0.023563
0.009580
0.030986
0.001970
0.062257
0.037764
0.001632
0.032004
0.039333
0.040146
0.033713
0.034362
0.001596
0.027263
0.007628
0.001459
0.001676
0.032765
0.040261
0.001691
0.041452
0.034718
0.039354
0.038794
0.046728
0.041465
0.037389
0.014058
0.001168
0.009718
0.059007
0.001602
0.002598
0.045197
0.001848
0.004829
0.000937
0.039258
0.068486
0.051453
0.051533
0.030979
0.003977
0.038719
0.001464
0.002291
0.035864
0.038920
0.034068
0.039110
0.020546
0.075172
0.040437
0.031397
0.031556
0.035752
0.033640
0.041257
0.030890
0.033809
0.039791
0.040118
0.019254
0.002017
0.036410
0.042494
0.032196
0.041631
0.031467
0.031446
0.036126
0.001474
0.010207
0.043674
0.041144
0.040276
0.034227
0.031564
0.040010
0.011685
0.042836
0.081315
0.039126
0.033155
0.065460
0.037904
0.031515
0.039508
0.039371
0.032720
0.031603
0.002721
0.047571
0.002128
0.042552
0.023269
0.010236
0.022152
0.012088
0.001994
0.002028
0.038368
0.030266
0.002237
0.053638
0.032778
0.030468
0.001578
0.053538
0.045818
0.001397
0.030622
0.034451
0.001512
0.038356
0.036608
0.030615
0.032008
0.032217
0.041580
0.031172
0.039445
0.040819
0.032543
0.034138
0.017375
0.030964
0.031977
0.039222
0.007613
0.027506
0.002088
0.042052
0.065667
0.001701
0.001207
0.008156
0.001650
0.041355
0.008865
0.039059
0.001588
0.042100
0.003253
0.013778
0.042894
0.016408
0.001758
0.006045
0.002415
0.038081
0.039336
0.039210
0.038838
0.049833
0.034405
0.035700
0.030476
0.069919
0.002223
0.032390
0.030480
0.001813
0.038902
0.034567
0.060635
0.038802
0.038570
0.031462
0.032389
0.032399
0.040133
0.032480
0.013098
0.036712
0.037206
0.039514
0.010854
0.045732
0.038715
0.033265
0.001373
0.039082
0.032124
0.039021
0.040329
0.003169
0.001880
0.012786
0.002297
0.007542
0.039526
0.002175
0.008371
0.029676
0.006433
0.037791
0.038686
0.002199
0.036597
0.025433
0.057021
0.038868
0.002915
0.002093
0.045688
0.002375
0.004000
0.002377
0.001795
0.032870
0.036786
0.038124
0.029801
0.038431
0.002689
0.039200
0.038791
0.038155
0.037947
0.039978
0.027445
0.043926
0.001790
0.059560
0.030675
0.050807
0.056540
0.029647
0.009867
0.033293
0.030360
0.030823
0.029905
0.003000
0.036350
0.002449
0.001746
0.002200
0.040560
0.019369
0.045018
0.060769
0.030546
0.011101
0.002540
0.009661
0.018932
0.034304
0.009096
0.033396
0.035367
0.037428
0.038260
0.029817
0.047070
0.031239
0.030548
0.030313
0.031413
0.031319
0.002211
0.030446
0.032561
0.064294
0.034926
0.038226
0.038851
0.030970
0.039880
0.038900
0.000586
0.040396
0.042102
0.038328
0.002252
0.038441
0.015174
0.031075
0.002180
0.039632
0.029697
0.003693
0.002178
0.043615
0.039400
0.030004
0.017750
0.013579
0.002738
0.028934
0.036673
0.024104
0.007009
0.037133
0.002507
0.002270
0.034728
0.037567
0.029514
0.008396
0.003048
0.037615
0.037462
0.002867
0.040755
0.043746
0.048363
0.002551
0.031165
0.029734
0.029384
0.031138
0.029715
0.035550
0.001460
0.032026
0.006457
0.051214
0.002311
0.037905
0.014567
0.003364
0.037981
0.037884
0.001972
0.037118
0.005195
0.038995
0.031445
0.002416
0.008218
0.037724
0.002327
0.032878
0.002154
0.002216
0.002215
0.039011
0.049018
0.003341
0.021050
0.034821
0.002250
0.037222
0.035514
0.010769
0.033058
0.029341
0.030475
0.029908
0.033050
0.030187
0.029218
0.035779
0.030890
0.016994
0.034944
0.039320
0.030889
0.039624
0.002920
0.029826
0.038060
0.037863
0.008272
0.002108
0.027732
0.053762
0.042144
0.031493
0.003856
0.038887
0.036381
0.013889
0.012489
0.002626
0.007256
0.019338
0.002880
0.043755
0.007120
0.026055
0.028413
0.036788
0.034219
0.002811
0.037512
0.007349
0.036823
0.029418
0.030098
0.002538
0.037603
0.003067
0.037979
0.032649
0.002803
0.028653
0.033203
0.002952
0.006916
0.039412
0.020194
0.038404
0.029819
0.029525
0.029077
0.029848
0.040621
0.003671
0.003103
0.002703
0.036879
0.002667
0.002848
0.003224
0.034168
0.003024
0.004075
0.042400
0.046080
0.001975
0.046218
0.037433
0.031398
0.002581
0.041027
0.037390
0.036275
0.005145
0.033501
0.031124
0.032943
0.028590
0.002829
0.037233
0.029236
0.031703
0.037883
0.029298
0.037546
0.030109
0.029601
0.029500
0.034585
0.002454
0.033097
0.030036
0.009498
0.037362
0.011760
0.037379
0.051949
0.039419
0.028720
0.001352
0.029495
0.030609
0.037728
0.036605
0.015429
0.002867
0.002596
0.037346
0.006756
0.029366
0.027704
0.004385
0.030014
0.037831
0.011322
0.003550
0.035851
0.017821
0.029526
0.003271
0.005859
0.006118
0.035790
0.003228
0.039602
0.035816
0.002905
0.002722
0.034235
0.036976
0.035632
0.003467
0.028651
0.038795
0.007198
0.002820
0.028431
0.003703
0.009218
0.037114
0.003756
0.028437
0.028558
0.031360
0.028344
0.037588
0.008444
0.005657
0.004010
0.035957
0.003295
0.022512
0.007981
0.016118
0.040384
0.032644
0.028450
0.028731
0.044616
0.003057
0.004668
0.040567
0.003281
0.004017
0.002457
0.003119
0.033292
0.002853
0.003692
0.036638
0.036131
0.037211
0.032841
0.031619
0.005487
0.028244
0.036575
0.037145
0.037131
0.036700
0.028905
0.006248
0.028807
0.010285
0.029731
0.028768
0.028405
0.029532
0.002698
0.027963
0.029730
0.032513
0.036941
0.002901
0.027716
0.036799
0.031263
0.007145
0.026542
0.001714
0.002952
0.037731
0.000739
0.003324
0.042324
0.036134
0.037149
0.035187
0.030059
0.014235
0.006223
0.041534
0.029486
0.038297
0.036982
0.036919
0.001739
0.028759
0.005555
0.004832
0.035233
0.027476
0.010395
0.034338
0.012916
0.003959
0.003419
0.007635
0.028125
0.016132
0.003494
0.037865
0.005389
0.034808
0.034622
0.027518
0.002778
0.018576
0.028270
0.003743
0.009703
0.003304
0.003068
0.005167
0.003863
0.037494
0.002989
0.004198
0.003254
0.036002
0.036148
0.003754
0.036121
0.002320
0.035616
0.037160
0.035015
0.033149
0.004889
0.028550
0.026576
0.036118
0.036290
0.028505
0.027873
0.025780
0.004018
0.003461
0.006786
0.003474
0.006191
0.040151
0.034624
0.035916
0.030372
0.028067
0.036648
0.029631
0.028462
0.028075
0.032282
0.033848
0.009811
0.027541
0.030858
0.002117
0.036625
0.028592
0.028324
0.027959
0.036717
0.036325
0.028234
0.029188
0.027283
0.021137
0.003290
0.011248
0.004171
0.036531
0.036499
0.036431
0.038574
0.003227
0.032419
0.028541
0.013224
0.034024
0.022811
0.036626
0.005581
0.036325
0.002997
0.036551
0.035421
0.036807
0.003366
0.004793
0.006592
0.006488
0.026517
0.029157
0.005841
0.004556
0.032934
0.032931
0.032427
0.012454
0.003924
0.005860
0.003776
0.026102
0.003621
0.032499
0.034603
0.025140
0.003251
0.027140
0.034319
0.004417
0.005916
0.027316
0.004085
0.008681
0.034803
0.003850
0.002558
0.021020
0.011467
0.005249
0.003952
0.033673
0.036195
0.003773
0.035086
0.032951
0.027660
0.004327
0.032642
0.004325
0.030535
0.035175
0.003959
0.005484
0.003598
0.005379
0.004668
0.008428
0.015276
0.026690
0.030941
0.027288
0.027656
0.008469
0.033507
0.002618
0.035315
0.036251
0.035745
0.031959
0.003213
0.034633
0.033923
0.010939
0.023171
0.027140
0.027339
0.027551
0.027195
0.008740
0.027135
0.034185
0.028107
0.036603
0.036172
0.005002
0.027709
0.026629
0.027492
0.033568
0.036118
0.036290
0.003590
0.020207
0.003119
0.015556
0.026816
0.034812
0.027034
0.024454
0.035666
0.029466
0.003500
0.035817
0.034635
0.035631
0.039917
0.039830
0.003620
0.035867
0.027919
0.005449
0.036157
0.036035
0.003000
0.036127
0.031571
0.006476
0.031874
0.025441
0.030536
0.013465
0.030714
0.033120
0.004045
0.004515
0.008339
0.014540
0.005088
0.021723
0.037081
0.004564
0.031190
0.004883
0.002550
0.029719
0.026385
0.003857
0.003122
0.031803
0.005850
0.033972
0.032252
0.003292
0.003863
0.026504
0.026770
0.002896
0.033150
0.034573
0.006884
0.003825
0.003748
0.028015
0.004671
0.004681
0.025296
0.033651
0.007123
0.026084
0.032222
0.017083
0.004346
0.036216
0.025380
0.030851
0.006204
0.007686
0.003842
0.035249
0.031160
0.004649
0.035322
0.037703
0.002903
0.035204
0.026907
0.009305
0.011040
0.004723
0.004028
0.004809
0.010311
0.019388
0.005940
0.034728
0.030476
0.003701
0.035246
0.035655
0.026367
0.026412
0.002395
0.026901
0.034001
0.035690
0.032959
0.035935
0.026977
0.036160
0.027183
0.004116
0.005737
0.005003
0.034957
0.007747
0.035490
0.027063
0.012483
0.003327
0.038609
0.037150
0.026150
0.035523
0.030951
0.026925
0.003581
0.035435
0.035448
0.004652
0.035425
0.027748
0.005772
0.028523
0.026061
0.030816
0.006821
0.005543
0.005312
0.023889
0.034769
0.031335
0.033619
0.037254
0.031563
0.008105
0.025532
0.006885
0.035113
0.004277
0.004159
0.024050
0.025468
0.034360
0.018224
0.002836
0.003558
0.025353
0.028510
0.005824
0.002565
0.025361
0.003177
0.007049
0.003358
0.026709
0.005496
0.008145
0.025904
0.002896
0.005154
0.005997
0.034552
0.026306
0.032827
0.039854
0.034965
0.006514
0.007598
0.005031
0.004853
0.004810
0.022801
0.006408
0.010145
0.005370
0.012258
0.034905
0.034927
0.012218
0.026107
0.003927
0.035296
0.025738
0.032077
0.003960
0.024512
0.034280
0.029853
0.033949
0.035327
0.026000
0.005082
0.035447
0.026158
0.031955
0.010163
0.003398
0.025822
0.034740
0.003899
0.003808
0.029578
0.035763
0.035166
0.035152
0.027412
0.003623
0.002854
0.004449
0.025837
0.005570
0.034961
0.002801
0.002990
0.029281
0.003541
0.005024
0.039738
0.035207
0.034965
0.033954
0.022972
0.004618
0.034720
0.005920
0.030183
0.030610
0.002100
0.004433
0.016542
0.015025
0.024947
0.007309
0.029644
0.006042
0.006136
0.028231
0.015597
0.027402
0.005433
0.029103
0.031185
0.034273
0.010831
0.004983
0.014022
0.007488
0.037970
0.033028
0.006617
0.035274
0.004743
0.004205
0.004518
0.004088
0.025067
0.005267
0.004075
0.006207
0.028142
0.002966
0.003527
0.027596
0.002998
0.006269
0.023938
0.003221
0.003541
0.034159
0.025065
0.004466
0.007654
0.030423
0.029532
0.034584
0.030118
0.030442
0.008943
0.033448
0.011915
0.020175
0.034567
0.037251
0.035674
0.003039
0.025166
0.002197
0.006954
0.005326
0.004131
0.030944
0.034208
0.005364
0.010144
0.033724
0.006730
0.024831
0.006500
0.003950
0.014383
0.025383
0.025000
0.034891
0.032200
0.007170
0.034715
0.023776
0.023478
0.028040
0.034705
0.025889
0.034614
0.033936
0.005747
0.033904
0.005444
0.034865
0.003999
0.025527
0.031619
0.022279
0.042008
0.025729
0.033860
0.031937
0.005356
0.003177
0.025792
0.006022
0.026189
0.005573
0.022144
0.005219
0.006627
0.003619
0.027436
0.034683
0.034446
0.033368
0.033878
0.003811
0.007148
0.034471
0.003182
0.024856
0.002671
0.023669
0.024977
0.005356
0.027666
0.004170
0.042285
0.024357
0.007872
0.024916
0.027855
0.010526
0.029866
0.007809
0.029952
0.004799
0.033061
0.004543
0.029181
0.021991
0.006289
0.004324
0.032041
0.013771
0.034215
0.035046
0.019775
0.005156
0.016025
0.032654
0.004391
0.006031
0.026982
0.026327
0.008340
0.003810
0.024274
0.028319
0.002004
0.033999
0.004965
0.004325
0.003076
0.033768
0.005269
0.003526
0.005686
0.009306
0.003050
0.003338
0.024060
0.024144
0.032703
0.005259
0.018036
0.007778
0.006728
0.006387
0.033587
0.030034
0.026145
0.034288
0.034284
0.007733
0.003341
0.028825
0.033524
0.006129
0.028740
0.004234
0.008228
0.004814
0.004424
0.023769
0.004086
0.013135
0.004231
0.005401
0.021746
0.033283