# vtk DataFile Version 2.0
Test
ASCII
DATASET POLYDATA
POINTS 7341 float
0.000000 0.000000 0.000000
1.000000 0.000000 0.000000
1.000000 1.000000 0.000000
0.000000 1.000000 0.000000
0.000000 0.500000 0.000000
0.500000 0.500000 0.000000
1.000000 0.500000 0.000000
0.499000 0.499000 0.000000
0.900000 0.010000 0.000000
0.029412 0.000000 0.000000
0.058824 0.000000 0.000000
0.088235 0.000000 0.000000
0.117647 0.000000 0.000000
0.147059 0.000000 0.000000
0.176471 0.000000 0.000000
0.205882 0.000000 0.000000
0.235294 0.000000 0.000000
0.264706 0.000000 0.000000
0.294118 0.000000 0.000000
0.323529 0.000000 0.000000
0.352941 0.000000 0.000000
0.382353 0.000000 0.000000
0.411765 0.000000 0.000000
0.441176 0.000000 0.000000
0.470588 0.000000 0.000000
0.500000 0.000000 0.000000
0.529412 0.000000 0.000000
0.558824 0.000000 0.000000
0.588235 0.000000 0.000000
0.617647 0.000000 0.000000
0.647059 0.000000 0.000000
0.676471 0.000000 0.000000
0.705882 0.000000 0.000000
0.735294 0.000000 0.000000
0.764706 0.000000 0.000000
0.794118 0.000000 0.000000
0.823529 0.000000 0.000000
0.852941 0.000000 0.000000
0.882353 0.000000 0.000000
0.911765 0.000000 0.000000
0.941176 0.000000 0.000000
0.970588 0.000000 0.000000
1.000000 0.029412 0.000000
1.000000 0.058824 0.000000
1.000000 0.088235 0.000000
1.000000 0.117647 0.000000
1.000000 0.147059 0.000000
1.000000 0.176471 0.000000
1.000000 0.205882 0.000000
1.000000 0.235294 0.000000
1.000000 0.264706 0.000000
1.000000 0.294118 0.000000
1.000000 0.323529 0.000000
1.000000 0.352941 0.000000
1.000000 0.382353 0.000000
1.000000 0.411765 0.000000
1.000000 0.441176 0.000000
1.000000 0.470588 0.000000
1.000000 0.529412 0.000000
1.000000 0.558824 0.000000
1.000000 0.588235 0.000000
1.000000 0.617647 0.000000
1.000000 0.647059 0.000000
1.000000 0.676471 0.000000
1.000000 0.705882 0.000000
1.000000 0.735294 0.000000
1.000000 0.764706 0.000000
1.000000 0.794118 0.000000
1.000000 0.823529 0.000000
1.000000 0.852941 0.000000
1.000000 0.882353 0.000000
1.000000 0.911765 0.000000
1.000000 0.941176 0.000000
1.000000 0.970588 0.000000
0.970588 1.000000 0.000000
0.941176 1.000000 0.000000
0.911765 1.000000 0.000000
0.882353 1.000000 0.000000
0.852941 1.000000 0.000000
0.823529 1.000000 0.000000
0.794118 1.000000 0.000000
0.764706 1.000000 0.000000
0.735294 1.000000 0.000000
0.705882 1.000000 0.000000
0.676471 1.000000 0.000000
0.647059 1.000000 0.000000
0.617647 1.000000 0.000000
0.588235 1.000000 0.000000
0.558824 1.000000 0.000000
0.529412 1.000000 0.000000
0.500000 1.000000 0.000000
0.470588 1.000000 0.000000
0.441176 1.000000 0.000000
0.411765 1.000000 0.000000
0.382353 1.000000 0.000000
0.352941 1.000000 0.000000
0.323529 1.000000 0.000000
0.294118 1.000000 0.000000
0.264706 1.000000 0.000000
0.235294 1.000000 0.000000
0.205882 1.000000 0.000000
0.176471 1.000000 0.000000
0.147059 1.000000 0.000000
0.117647 1.000000 0.000000
0.088235 1.000000 0.000000
0.058824 1.000000 0.000000
0.029412 1.000000 0.000000
0.000000 0.970588 0.000000
0.000000 0.941176 0.000000
0.000000 0.911765 0.000000
0.000000 0.882353 0.000000
0.000000 0.852941 0.000000
0.000000 0.823529 0.000000
0.000000 0.794118 0.000000
0.000000 0.764706 0.000000
0.000000 0.735294 0.000000
0.000000 0.705882 0.000000
0.000000 0.676471 0.000000
0.000000 0.647059 0.000000
0.000000 0.617647 0.000000
0.000000 0.588235 0.000000
0.000000 0.558824 0.000000
0.000000 0.529412 0.000000
0.007246 0.500000 0.000000
0.014493 0.500000 0.000000
0.021739 0.500000 0.000000
0.028986 0.500000 0.000000
0.036232 0.500000 0.000000
0.043478 0.500000 0.000000
0.050725 0.500000 0.000000
0.057971 0.500000 0.000000
0.065217 0.500000 0.000000
0.072464 0.500000 0.000000
0.079710 0.500000 0.000000
0.086957 0.500000 0.000000
0.094203 0.500000 0.000000
0.101449 0.500000 0.000000
0.108696 0.500000 0.000000
0.115942 0.500000 0.000000
0.123188 0.500000 0.000000
0.130435 0.500000 0.000000
0.137681 0.500000 0.000000
0.144928 0.500000 0.000000
0.152174 0.500000 0.000000
0.159420 0.500000 0.000000
0.166667 0.500000 0.000000
0.173913 0.500000 0.000000
0.181159 0.500000 0.000000
0.188406 0.500000 0.000000
0.195652 0.500000 0.000000
0.202899 0.500000 0.000000
0.210145 0.500000 0.000000
0.217391 0.500000 0.000000
0.224638 0.500000 0.000000
0.231884 0.500000 0.000000
0.239130 0.500000 0.000000
0.246377 0.500000 0.000000
0.253623 0.500000 0.000000
0.260870 0.500000 0.000000
0.268116 0.500000 0.000000
0.275362 0.500000 0.000000
0.282609 0.500000 0.000000
0.289855 0.500000 0.000000
0.297101 0.500000 0.000000
0.304348 0.500000 0.000000
0.311594 0.500000 0.000000
0.318841 0.500000 0.000000
0.326087 0.500000 0.000000
0.333333 0.500000 0.000000
0.340580 0.500000 0.000000
0.347826 0.500000 0.000000
0.355072 0.500000 0.000000
0.362319 0.500000 0.000000
0.369565 0.500000 0.000000
0.376812 0.500000 0.000000
0.384058 0.500000 0.000000
0.391304 0.500000 0.000000
0.398551 0.500000 0.000000
0.405797 0.500000 0.000000
0.413043 0.500000 0.000000
0.420290 0.500000 0.000000
0.427536 0.500000 0.000000
0.434783 0.500000 0.000000
0.442029 0.500000 0.000000
0.449275 0.500000 0.000000
0.456522 0.500000 0.000000
0.463768 0.500000 0.000000
0.471014 0.500000 0.000000
0.478261 0.500000 0.000000
0.485507 0.500000 0.000000
0.492754 0.500000 0.000000
0.510004 0.500000 0.000000
0.520408 0.500000 0.000000
0.531229 0.500000 0.000000
0.542483 0.500000 0.000000
0.554187 0.500000 0.000000
0.566359 0.500000 0.000000
0.579019 0.500000 0.000000
0.592185 0.500000 0.000000
0.605877 0.500000 0.000000
0.620118 0.500000 0.000000
0.634929 0.500000 0.000000
0.650332 0.500000 0.000000
0.666352 0.500000 0.000000
0.683013 0.500000 0.000000
0.700340 0.500000 0.000000
0.718361 0.500000 0.000000
0.737103 0.500000 0.000000
0.756595 0.500000 0.000000
0.776867 0.500000 0.000000
0.797950 0.500000 0.000000
0.819877 0.500000 0.000000
0.842681 0.500000 0.000000
0.866398 0.500000 0.000000
0.891064 0.500000 0.000000
0.916716 0.500000 0.000000
0.943396 0.500000 0.000000
0.971143 0.500000 0.000000
0.000000 0.470588 0.000000
0.000000 0.441176 0.000000
0.000000 0.411765 0.000000
0.000000 0.382353 0.000000
0.000000 0.352941 0.000000
0.000000 0.323529 0.000000
0.000000 0.294118 0.000000
0.000000 0.264706 0.000000
0.000000 0.235294 0.000000
0.000000 0.205882 0.000000
0.000000 0.176471 0.000000
0.000000 0.147059 0.000000
0.000000 0.117647 0.000000
0.000000 0.088235 0.000000
0.000000 0.058824 0.000000
0.000000 0.029412 0.000000
0.500341 0.497365 0.000000
0.501682 0.495729 0.000000
0.503023 0.494094 0.000000
0.504365 0.492458 0.000000
0.505706 0.490823 0.000000
0.507047 0.489187 0.000000
0.508388 0.487552 0.000000
0.509729 0.485916 0.000000
0.511070 0.484281 0.000000
0.512411 0.482645 0.000000
0.513753 0.481010 0.000000
0.515094 0.479375 0.000000
0.516435 0.477739 0.000000
0.517776 0.476104 0.000000
0.519117 0.474468 0.000000
0.520458 0.472833 0.000000
0.521799 0.471197 0.000000
0.523140 0.469562 0.000000
0.524482 0.467926 0.000000
0.525823 0.466291 0.000000
0.527164 0.464656 0.000000
0.528505 0.463020 0.000000
0.529846 0.461385 0.000000
0.531187 0.459749 0.000000
0.532528 0.458114 0.000000
0.533870 0.456478 0.000000
0.535211 0.454843 0.000000
0.536552 0.453207 0.000000
0.537893 0.451572 0.000000
0.539234 0.449936 0.000000
0.540575 0.448301 0.000000
0.541916 0.446666 0.000000
0.543258 0.445030 0.000000
0.544599 0.443395 0.000000
0.545940 0.441759 0.000000
0.547281 0.440124 0.000000
0.548622 0.438488 0.000000
0.549963 0.436853 0.000000
0.551304 0.435217 0.000000
0.552645 0.433582 0.000000
0.553987 0.431946 0.000000
0.555328 0.430311 0.000000
0.556669 0.428676 0.000000
0.558010 0.427040 0.000000
0.559351 0.425405 0.000000
0.560692 0.423769 0.000000
0.562033 0.422134 0.000000
0.563375 0.420498 0.000000
0.564716 0.418863 0.000000
0.566057 0.417227 0.000000
0.567398 0.415592 0.000000
0.568739 0.413957 0.000000
0.570080 0.412321 0.000000
0.571421 0.410686 0.000000
0.572763 0.409050 0.000000
0.574104 0.407415 0.000000
0.575445 0.405779 0.000000
0.576786 0.404144 0.000000
0.578127 0.402508 0.000000
0.579468 0.400873 0.000000
0.580809 0.399237 0.000000
0.582151 0.397602 0.000000
0.583492 0.395967 0.000000
0.584833 0.394331 0.000000
0.586174 0.392696 0.000000
0.587515 0.391060 0.000000
0.588856 0.389425 0.000000
0.590197 0.387789 0.000000
0.591538 0.386154 0.000000
0.592880 0.384518 0.000000
0.594221 0.382883 0.000000
0.595562 0.381247 0.000000
0.596903 0.379612 0.000000
0.598244 0.377977 0.000000
0.599585 0.376341 0.000000
0.600926 0.374706 0.000000
0.602268 0.373070 0.000000
0.603609 0.371435 0.000000
0.604950 0.369799 0.000000
0.606291 0.368164 0.000000
0.607632 0.366528 0.000000
0.608973 0.364893 0.000000
0.610314 0.363258 0.000000
0.611656 0.361622 0.000000
0.612997 0.359987 0.000000
0.614338 0.358351 0.000000
0.615679 0.356716 0.000000
0.617020 0.355080 0.000000
0.618361 0.353445 0.000000
0.619702 0.351809 0.000000
0.621043 0.350174 0.000000
0.622385 0.348538 0.000000
0.623726 0.346903 0.000000
0.625067 0.345268 0.000000
0.626408 0.343632 0.000000
0.627749 0.341997 0.000000
0.629090 0.340361 0.000000
0.630431 0.338726 0.000000
0.631773 0.337090 0.000000
0.633114 0.335455 0.000000
0.634455 0.333819 0.000000
0.635796 0.332184 0.000000
0.637137 0.330548 0.000000
0.638478 0.328913 0.000000
0.639819 0.327278 0.000000
0.641161 0.325642 0.000000
0.642502 0.324007 0.000000
0.643843 0.322371 0.000000
0.645184 0.320736 0.000000
0.646525 0.319100 0.000000
0.647866 0.317465 0.000000
0.649207 0.315829 0.000000
0.650548 0.314194 0.000000
0.651890 0.312559 0.000000
0.653231 0.310923 0.000000
0.654572 0.309288 0.000000
0.655913 0.307652 0.000000
0.657254 0.306017 0.000000
0.658595 0.304381 0.000000
0.659936 0.302746 0.000000
0.661278 0.301110 0.000000
0.662619 0.299475 0.000000
0.663960 0.297839 0.000000
0.665301 0.296204 0.000000
0.666642 0.294569 0.000000
0.667983 0.292933 0.000000
0.669324 0.291298 0.000000
0.670666 0.289662 0.000000
0.672007 0.288027 0.000000
0.673348 0.286391 0.000000
0.674689 0.284756 0.000000
0.676030 0.283120 0.000000
0.677371 0.281485 0.000000
[...]
POINT_DATA 7341
SCALARS UX float 1
LOOKUP_TABLE default
0.000000
0.000000
0.203000
0.203000
0.069277
0.064650
0.112426
0.064423
0.002127
-0.000000
0.000000
0.000000
0.000000
0.000000
0.000000
0.000000
0.000000
0.000000
0.000000
0.000000
0.000000
0.000000
0.000000
0.000000
0.000000
0.000000
0.000000
0.000000
0.000000
0.000000
0.000000
0.000000
0.000000
0.000000
0.000000
0.000000
0.000000
0.000000
0.000000
0.000000
0.000000
-0.000000
0.006298
0.017202
0.027934
0.037180
0.044983
0.049288
0.051777
0.055558
0.061837
0.067653
0.073772
0.080172
0.086619
0.093411
0.100030
0.106241
0.112482
0.113657
0.116494
0.120193
0.124663
0.129624
0.135239
0.141318
0.147589
0.153977
0.160669
0.167507
0.174463
0.181505
0.188600
0.195783
0.203000
0.203000
0.203000
0.203000
0.203000
0.203000
0.203000
0.203000
0.203000
0.203000
0.203000
0.203000
0.203000
0.203000
0.203000
0.203000
0.203000
0.203000
0.203000
0.203000
0.203000
0.203000
0.203000
0.203000
0.203000
0.203000
0.203000
0.203000
0.203000
0.203000
0.203000
0.203000
0.203000
0.194528
0.186104
0.177683
0.169400
0.161163
0.153125
0.145134
0.137369
0.129806
0.122344
0.115227
0.108316
0.101600
0.094993
0.088442
0.081372
0.069010
0.068728
0.068525
0.068307
0.068154
0.067986
0.067836
0.067654
0.067468
0.067252
0.067052
0.066866
0.066661
0.066494
0.066342
0.066254
0.066189
0.066106
0.066058
0.066003
0.065967
0.065934
0.065921
0.065904
0.065950
0.066030
0.066082
0.066162
0.066281
0.066400
0.066529
0.066704
0.066885
0.067059
0.067233
0.067430
0.067528
0.067626
0.067695
0.067732
0.067763
0.067750
0.067785
0.067783
0.067352
0.067210
0.067068
0.066899
0.066722
0.066607
0.066464
0.066330
0.066202
0.066078
0.065957
0.065854
0.065746
0.065652
0.065559
0.065466
0.065372
0.065282
0.065193
0.065106
0.065018
0.064934
0.064845
0.064736
0.064477
0.064679
0.064459
0.064371
0.064284
0.064244
0.064216
0.064299
0.064413
0.064695
0.065032
0.065628
0.066427
0.067334
0.068691
0.070366
0.072453
0.074908
0.077757
0.080956
0.084556
0.088495
0.092438
0.096238
0.099730
0.104415
0.108499
0.061736
0.056940
0.052338
0.048160
0.044499
0.041006
0.037773
0.034700
0.031773
0.028923
0.026211
0.023196
0.019941
0.016777
0.013173
0.009058
0.064006
0.063570
0.063112
0.062742
0.062364
0.061973
0.061601
0.060980
0.060470
0.059997
0.059593
0.059196
0.058811
0.058426
0.058038
0.057654
0.057277
0.056900
0.056527
0.056173
0.055822
0.055448
0.055117
0.054780
0.054441
0.054090
0.053737
0.053400
0.053043
0.052675
0.052301
0.051926
0.051548
0.051171
0.050798
0.050425
0.050054
0.049684
0.049316
0.048952
0.048590
0.048230
0.047872
0.047517
0.047165
0.046814
0.046467
0.046123
0.045781
0.045443
0.045106
0.044772
0.044442
0.044115
0.043791
0.043472
0.043156
0.042845
0.042538
0.042236
0.041937
0.041642
0.041350
0.041064
0.040781
0.040501
0.040226
0.039954
0.039687
0.039424
0.039164
0.038908
0.038656
0.038408
0.038162
0.037921
0.037684
0.037451
0.037220
0.036993
0.036770
0.036552
0.036337
0.036126
0.035918
0.035714
0.035514
0.035316
0.035121
0.034929
0.034740
0.034553
0.034370
0.034188
0.034008
0.033830
0.033655
0.033480
0.033308
0.033136
0.032965
0.032795
0.032626
0.032457
0.032290
0.032122
0.031955
0.031788
0.031621
0.031454
0.031286
0.031118
0.030950
0.030781
0.030611
0.030442
0.030271
0.030100
0.029927
0.029754
0.029579
0.029405
0.029229
0.029053
0.028876
0.028698
0.028513
0.028304
0.028087
0.027883
0.027698
0.027516
0.027333
0.027149
0.026964
0.026780
0.026594
0.026409
0.026223
0.026037
0.025850
0.025663
0.025476
0.025289
0.025102
0.024914
0.024726
0.024538
0.024350
0.024163
0.023975
0.023787
0.023600
0.023412
0.023225
0.023038
0.022852
0.022665
0.022479
0.022293
0.022107
0.021921
0.021735
0.021550
0.021366
0.021181
0.020997
0.020813
0.020630
0.020447
0.020264
0.020082
0.019900
0.019718
0.019537
0.019356
0.019175
0.018995
0.018815
0.018636
0.018457
0.018278
0.018100
0.017922
0.017745
0.017568
0.017392
0.017216
0.017041
0.016867
0.016693
0.016521
0.016348
0.016177
0.016006
0.015837
0.015668
0.015500
0.015333
0.015167
0.015002
0.014838
0.014675
0.014513
0.014353
0.014194
0.014035
0.013879
0.013723
0.013569
0.013416
0.013264
0.013114
0.012965
0.012818
0.012673
0.012529
0.012387
0.012246
0.012107
0.011969
0.011834
0.011700
0.011568
0.011438
0.011310
0.011183
0.011059
0.010936
0.010816
0.010698
0.010582
0.010469
0.010357
0.010248
0.010142
0.010038
0.009937
0.009839
0.009744
0.009651
0.009562
0.009476
0.009394
0.009315
0.009240
0.009168
0.009102
0.009040
0.008982
0.008928
0.008877
0.008833
0.008792
0.008757
0.008728
0.008704
0.008686
0.008675
0.008666
0.008665
0.008673
0.008689
0.008710
0.008738
0.008772
0.008813
0.008858
0.008917
0.008983
0.009058
0.009145
0.009238
0.009353
0.009485
0.009670
0.009879
0.010100
0.010314
0.010471
0.010594
0.010343
0.009775
0.009248
0.008742
0.008231
0.007709
0.007176
0.006643
0.006114
0.005614
0.005123
0.004651
0.004204
0.003758
0.003343
0.002934
0.002533
0.061622
0.064677
0.064614
0.000821
0.000792
0.080412
0.000732
0.068644
0.061602
0.061465
0.062568
0.001061
0.036597
0.062684
0.039876
0.027583
0.061140
0.001488
0.003686
0.064051
0.025834
0.063969
0.061552
0.018394
0.063641
0.050476
0.065202
0.081496
0.090171
0.063336
0.004627
0.062187
0.064699
0.062114
0.061430
0.003527
0.061680
0.006057
0.063282
0.001016
0.062834
0.064814
0.064401
0.063528
0.004609
0.063247
0.005358
0.063271
0.060559
0.066436
0.002724
0.061458
0.031114
0.046971
0.001291
0.061089
0.061511
0.043221
0.064516
0.073708
0.044303
0.049318
0.000905
0.000843
0.063770
0.063593
0.033409
0.095493
0.098781
0.000694
0.083818
0.000652
0.068191
0.001219
0.064199
0.024806
0.001611
0.100812
0.015194
0.005265
0.010716
0.006017
0.006138
0.063060
0.061734
0.061434
0.063260
0.064685
0.064758
0.061416
0.063140
0.062481
0.061967
0.061846
0.061756
0.061531
0.065745
0.064862
0.064607
0.064368
0.062523
0.005948
0.062553
0.063919
0.062802
0.059296
0.002009
0.062082
0.001593
0.058700
0.062609
0.001994
0.034919
0.059749
0.038711
0.061918
0.002827
0.076229
0.023766
0.043127
0.059034
0.026213
0.002515
0.058344
0.062732
0.004968
0.061343
0.059687
0.061748
0.062355
0.014059
0.092643
0.063536
0.062480
0.005278
0.059405
0.057731
0.001580
0.061713
0.063612
0.035885
0.061266
0.001064
0.049094
0.063597
0.061375
0.015558
0.062109
0.040307
0.055061
0.063611
0.066800
0.000742
0.071397
0.001655
0.076984
0.063783
0.000642
0.074685
0.000893
0.087014
0.063963
0.088366
0.000970
0.030807
0.094941
0.064131
0.002190
0.021801
0.008315
0.003771
0.010122
0.064312
0.064500
0.061563
0.061594
0.062165
0.064370
0.064536
0.064212
0.061180
0.061094
0.061141
0.062004
0.061248
0.062050
0.062793
0.063477
0.062142
0.063202
0.063347
0.062562
0.064863
0.062524
0.065395
0.061575
0.063273
0.062088
0.034093
0.002646
0.066856
0.060147
0.030353
0.058314
0.062494
0.059432
0.062136
0.060375
0.002012
0.062404
0.029316
0.081808
0.089118
0.005320
0.008457
0.006178
0.062544
0.060578
0.003420
0.061394
0.062704
0.061595
0.038013
0.058332
0.060300
0.060807
0.062229
0.002233
0.083880
0.058544
0.058681
0.059431
0.002326
0.070780
0.058746
0.001542
0.070399
0.051695
0.044622
0.001773
0.062492
0.032244
0.062597
0.001724
0.001693
0.002029
0.061354
0.002551
0.025620
0.062264
0.062109
0.060479
0.079067
0.073376
0.003607
0.046051
0.056723
0.023560
0.062650
0.020460
0.017228
0.001939
0.012776
0.009171
0.062287
0.062418
0.062381
0.058997
0.058677
0.003084
0.062050
0.053031
0.056956
0.058372
0.059709
0.058543
0.061104
0.063567
0.059154
0.058951
0.058467
0.062359
0.062777
0.060588
0.062129
0.061989
0.060795
0.059079
0.060766
0.029361
0.018363
0.062462
0.060978
0.062447
0.061972
0.063433
0.060757
0.057869
0.060629
0.002912
0.067200
0.052976
0.003106
0.031396
0.057404
0.003776
0.006078
0.074239
0.020715
0.046141
0.004398
0.057048
0.022473
0.060764
0.056790
0.059410
0.002867
0.057691
0.003650
0.061678
0.063127
0.058212
0.058412
0.001670
0.059512
0.061636
0.060728
0.027975
0.064049
0.003261
0.062406
0.051430
0.057502
0.033710
0.085621
0.036916
0.077130
0.060606
0.007429
0.061925
0.019344
0.015992
0.011475
0.012298
0.061077
0.062165
0.002559
0.002692
0.062493
0.003302
0.062670
0.062147
0.069528
0.058138
0.058814
0.058328
0.062208
0.023765
0.060159
0.058443
0.060750
0.061289
0.060707
0.002183
0.056951
0.056860
0.059862
0.040639
0.063782
0.054468
0.062751
0.059773
0.061037
0.063289
0.061507
0.061640
0.060247
0.027863
0.028724
0.057382
0.060044
0.067933
0.059964
0.061002
0.060138
0.062460
0.063522
0.005644
0.003831
0.063347
0.004605
0.057261
0.055432
0.055848
0.030784
0.029906
0.055747
0.055814
0.004678
0.055765
0.057767
0.059585
0.061103
0.060706
0.059700
0.060810
0.003804
0.021446
0.007888
0.058050
0.056853
0.043563
0.014801
0.002792
0.002881
0.024859
0.060534
0.060208
0.004065
0.020188
0.049496
0.056690
0.059557
0.057141
0.073962
0.080224
0.055294
0.058478
0.056644
0.060552
0.055372
0.023428
0.004532
0.060661
0.071892
0.058349
0.060808
0.060742
0.009348
0.040317
0.059297
0.077590
0.057394
0.018635
0.048673
0.003238
0.003563
0.034251
0.064409
0.025285
0.015345
0.060660
0.060654
0.060631
0.038893
0.060368
0.002841
0.057331
0.060410
0.063459
0.003536
0.058436
0.060545
0.065205
0.059863
0.063273
0.061409
0.056592
0.056652
0.061141
0.058303
0.054288
0.057008
0.055897
0.003983
0.059648
0.057079
0.055496
0.059096
0.056355
0.058226
0.060129
0.058943
0.056540
0.059257
0.054633
0.053396
0.005096
0.053677
0.021250
0.041816
0.017938
0.059138
0.005918
0.067613
0.056086
0.004854
0.055493
0.055889
0.058525
0.059235
0.050526
0.004942
0.034735
0.024259
0.003942
0.004075
0.059161
0.057659
0.005364
0.053152
0.055062
0.060420
0.060864
0.057720
0.057100
0.056192
0.032812
0.006884
0.027252
0.065674
0.009180
0.013292
0.056721
0.004025
0.020963
0.003437
0.058582
0.072522
0.061040
0.061016
0.047864
0.018173
0.044211
0.005059
0.004146
0.059859
0.045112
0.059221
0.059368
0.039061
0.079230
0.061664
0.058890
0.060191
0.056838
0.060778
0.056310
0.058674
0.055210
0.060909
0.059684
0.027438
0.003934
0.055595
0.061440
0.057056
0.058254
0.059480
0.059813
0.059470
0.002706
0.020285
0.056714
0.053234
0.059754
0.058405
0.058580
0.062071
0.020124
0.057116
0.085247
0.058828
0.059129
0.069338
0.060724
0.055742
0.060212
0.059697
0.055061
0.057601
0.005316
0.058224
0.005755
0.054555
0.031893
0.018276
0.041105
0.031951
0.012198
0.006006
0.054512
0.057109
0.005069
0.059335
0.049721
0.057516
0.005056
0.061616
0.057035
0.007793
0.056922
0.058607
0.004735
0.060251
0.059596
0.058303
0.058993
0.055239
0.053834
0.058786
0.054934
0.054909
0.057773
0.055132
0.036127
0.055899
0.038978
0.056437
0.026168
0.045114
0.011238
0.059150
0.070095
0.004582
0.003877
0.016967
0.004501
0.054377
0.017318
0.058065
0.004059
0.059797
0.017125
0.022210
0.049091
0.024988
0.005526
0.023473
0.005281
0.060592
0.058784
0.060726
0.060162
0.059941
0.059191
0.059388
0.058301
0.074250
0.004152
0.054066
0.058217
0.005605
0.059641
0.054145
0.065587
0.058951
0.058522
0.055174
0.059118
0.055153
0.056050
0.060739
0.021625
0.055520
0.052830
0.058999
0.019397
0.058816
0.059293
0.056611
0.004515
0.056327
0.057749
0.059969
0.062554
0.006879
0.005638
0.021399
0.006718
0.015353
0.047079
0.006291
0.017900
0.056799
0.025539
0.054543
0.056567
0.005370
0.054370
0.043905
0.062959
0.057561
0.005785
0.006275
0.057003
0.006381
0.020266
0.005478
0.007102
0.057760
0.059478
0.058512
0.057122
0.054384
0.014905
0.053081
0.054289
0.059210
0.059754
0.052626
0.036122
0.055617
0.005334
0.065414
0.056250
0.060124
0.063447
0.047257
0.029227
0.053370
0.054506
0.054000
0.055120
0.005485
0.054760
0.006964
0.010177
0.006525
0.058371
0.028068
0.052255
0.066403
0.057412
0.019278
0.005250
0.017196
0.038395
0.058168
0.017034
0.057936
0.058540
0.059759
0.057466
0.056676
0.057966
0.057521
0.057191
0.057895
0.053849
0.053321
0.012738
0.057712
0.053689
0.069267
0.053906
0.058825
0.058197
0.058639
0.056224
0.060392
0.002011
0.055279
0.054234
0.058179
0.005821
0.059663
0.034982
0.056330
0.006373
0.059056
0.054821
0.007147
0.009403
0.055223
0.052028
0.052262
0.026977
0.034204
0.007674
0.055189
0.045755
0.043192
0.015472
0.053243
0.007052
0.006453
0.052907
0.054916
0.055604
0.015375
0.006705
0.058265
0.058838
0.016676
0.053240
0.055614
0.057803
0.007036
0.052625
0.056530
0.054804
0.048840
0.056735
0.043233
0.004424
0.056627
0.011719
0.059419
0.005731
0.058777
0.023478
0.006731
0.057046
0.059455
0.011073
0.053996
0.023142
0.057283
0.056394
0.006943
0.016065
0.057440
0.006805
0.053521
0.006095
0.005285
0.006301
0.053788
0.056310
0.018157
0.040672
0.058344
0.013271
0.059368
0.058400
0.031407
0.057314
0.056210
0.054119
0.054495
0.052523
0.055988
0.056099
0.052127
0.053597
0.037328
0.053516
0.051973
0.057401
0.057470
0.007263
0.056797
0.057831
0.058126
0.028324
0.006288
0.046115
0.061104
0.054410
0.055756
0.008218
0.051845
0.049478
0.023182
0.033639
0.007425
0.014701
0.039669
0.007843
0.054269
0.015791
0.045123
0.054684
0.053460
0.057521
0.006629
0.055344
0.027767
0.058524
0.055761
0.054988
0.008428
0.052300
0.007740
0.056772
0.041796
0.007664
0.055053
0.051730
0.006663
0.014880
0.052093
0.029534
0.051185
0.052776
0.053406
0.053906
0.055860
0.053303
0.006845
0.007371
0.013963
0.058847
0.007536
0.007811
0.006709
0.051343
0.007667
0.021384
0.054558
0.056557
0.005692
0.055521
0.052929
0.051883
0.015657
0.049864
0.057487
0.058797
0.009633
0.057136
0.052080
0.056895
0.054735
0.007448
0.058464
0.055815
0.051689
0.056208
0.054620
0.056681
0.051917
0.055554
0.055799
0.052250
0.004397
0.052067
0.048340
0.030607
0.057911
0.020432
0.056986
0.059392
0.052140
0.055013
0.003904
0.052127
0.055205
0.057844
0.053868
0.036377
0.007917
0.007203
0.058211
0.014107
0.053871
0.053234
0.008312
0.040528
0.051153
0.032773
0.008819
0.049009
0.038722
0.050399
0.008777
0.012760
0.013650
0.057816
0.008547
0.050928
0.051963
0.007863
0.007430
0.057262
0.050204
0.052835
0.009831
0.054008
0.051880
0.013270
0.012697
0.047386
0.008648
0.017075
0.055368
0.008067
0.054054
0.053452
0.050881
0.053121
0.051558
0.029721
0.025205
0.008156
0.051423
0.006201
0.042240
0.015540
0.025720
0.052624
0.050759
0.051372
0.050780
0.053524
0.007185
0.008568
0.053001
0.008496
0.008306
0.006813
0.016824
0.043864
0.007922
0.019970
0.049761
0.058437
0.056169
0.056228
0.055569
0.010128
0.054155
0.058126
0.057551
0.057092
0.056293
0.054386
0.013499
0.052978
0.018576
0.050166
0.055216
0.037697
0.052867
0.007534
0.053879
0.051058
0.050279
0.057744
0.006700
0.053410
0.049970
0.050310
0.015036
0.034804
0.004943
0.008051
0.056353
0.002185
0.008832
0.054388
0.053850
0.056225
0.057847
0.054315
0.035573
0.014268
0.053020
0.055645
0.051388
0.056627
0.058061
0.004781
0.052883
0.010093
0.009731
0.048976
0.039088
0.031947
0.047815
0.022400
0.009736
0.009064
0.015115
0.049397
0.037437
0.016610
0.050049
0.012452
0.050920
0.048309
0.052974
0.007509
0.028411
0.054025
0.008211
0.018010
0.008744
0.007672
0.009363
0.009130
0.050420
0.010867
0.009408
0.008745
0.049376
0.049159
0.008551
0.049655
0.006442
0.052305
0.047552
0.057408
0.056188
0.009618
0.054167
0.037063
0.055589
0.050996
0.052019
0.052100
0.045232
0.009175
0.008972
0.027264
0.018883
0.013526
0.050712
0.048151
0.057720
0.054356
0.053024
0.057337
0.049665
0.050133
0.053633
0.055973
0.047276
0.017848
0.053036
0.049473
0.005774
0.055531
0.053249
0.053591
0.048818
0.057020
0.056305
0.050615
0.048773
0.052712
0.041457
0.008699
0.019551
0.008262
0.057610
0.054440
0.055963
0.051816
0.008513
0.040089
0.053654
0.034792
0.056789
0.032137
0.056697
0.012345
0.057776
0.008020
0.050122
0.053022
0.055481
0.008882
0.023238
0.013742
0.013602
0.051253
0.053069
0.011199
0.010165
0.046865
0.055751
0.046170
0.034111
0.009933
0.012706
0.009677
0.047338
0.009306
0.046519
0.047321
0.036475
0.008536
0.050211
0.048257
0.021910
0.010387
0.051728
0.012570
0.016635
0.051928
0.015399
0.006689
0.031119
0.020453
0.009849
0.019089
0.045444
0.054514
0.009771
0.053040
0.046646
0.047774
0.009855
0.046467
0.010177
0.042278
0.050462
0.009890
0.010583
0.008095
0.012167
0.009699
0.016139
0.025208
0.048935
0.054642
0.052355
0.052677
0.029586
0.046982
0.007123
0.048564
0.050340
0.055609
0.055084
0.008635
0.056802
0.056431
0.019590
0.033651
0.052136
0.052120
0.052137
0.051311
0.016602
0.049090
0.047613
0.052345
0.055394
0.057137
0.009651
0.051435
0.051578
0.046942
0.046855
0.056484
0.056858
0.009217
0.041012
0.008237
0.037054
0.051816
0.046995
0.048594
0.034083
0.057361
0.048563
0.006592
0.055224
0.051279
0.053738
0.052472
0.053041
0.009466
0.056083
0.048403
0.012193
0.055005
0.057398
0.007978
0.055978
0.054983
0.011991
0.054721
0.037814
0.044546
0.023346
0.044685
0.046667
0.010297
0.011027
0.016289
0.036125
0.011545
0.033028
0.050422
0.009591
0.044652
0.011380
0.006897
0.053392
0.050931
0.009724
0.008198
0.045471
0.011414
0.050433
0.045940
0.008555
0.009889
0.050985
0.050468
0.007360
0.047227
0.052129
0.027355
0.009739
0.009651
0.040697
0.011685
0.011001
0.045189
0.055957
0.014470
0.046686
0.046363
0.027381
0.009524
0.054758
0.047040
0.053954
0.011356
0.015292
0.013620
0.054510
0.044187
0.010575
0.053665
0.050642
0.007734
0.049879
0.051376
0.017594
0.020130
0.010338
0.007556
0.019825
0.031688
0.030005
0.011147
0.052971
0.053861
0.009481
0.055564
0.056260
0.051078
0.049686
0.006472
0.051844
0.051053
0.056945
0.055506
0.056778
0.051690
0.054906
0.051684
0.020280
0.024777
0.011460
0.056858
0.015312
0.055589
0.049669
0.021386
0.008661
0.051205
0.055970
0.050695
0.054871
0.043576
0.046765
0.009173
0.055228
0.055934
0.010432
0.057020
0.053511
0.011346
0.052048
0.049903
0.053638
0.012839
0.014086
0.011533
0.036678
0.055342
0.045596
0.052286
0.049905
0.045270
0.016059
0.048765
0.014188
0.049144
0.010731
0.010397
0.045324
0.047488
0.049514
0.029391
0.007548
0.009109
0.049292
0.041978
0.013326
0.006796
0.049339
0.008278
0.012692
0.008660
0.050691
0.023631
0.028516
0.048666
0.005588
0.011629
0.012517
0.052408
0.050334
0.055116
0.051875
0.048300
0.011586
0.015257
0.011411
0.015880
0.018208
0.034811
0.013488
0.018888
0.011494
0.033691
0.054984
0.054525
0.021714
0.049689
0.009879
0.056182
0.049606
0.045734
0.010118
0.044801
0.052421
0.052915
0.055959
0.056433
0.050119
0.021675
0.053951
0.050541
0.054515
0.018754
0.008774
0.046142
0.053173
0.009779
0.009600
0.043384
0.054406
0.056646
0.048921
0.040620
0.009445
0.007203
0.009571
0.050068
0.011324
0.054083
0.007383
0.007636
0.052632
0.009193
0.011218
0.052234
0.054893
0.055728
0.051388
0.043189
0.008407
0.056503
0.025669
0.044396
0.044493
0.005858
0.010960
0.027233
0.025310
0.048152
0.013978
0.052384
0.012826
0.019199
0.042409
0.026539
0.041186
0.012255
0.043158
0.044957
0.055125
0.020034
0.011956
0.035349
0.015186
0.050360
0.055022
0.012873
0.048614
0.010954
0.010450
0.011184
0.010151
0.048648
0.011741
0.010080
0.022468
0.051301
0.007775
0.009000
0.051438
0.007738
0.013316
0.044625
0.008020
0.006767
0.053061
0.048762
0.011068
0.013312
0.044276
0.043865
0.054416
0.043959
0.044762
0.017253
0.050773
0.021518
0.031839
0.053671
0.050249
0.049002
0.007982
0.049017
0.004272
0.012759
0.011715
0.010375
0.053469
0.048791
0.015089
0.030760
0.051428
0.014035
0.047843
0.024231
0.010097
0.024852
0.049165
0.047862
0.056233
0.046345
0.026233
0.054133
0.045644
0.045047
0.051738
0.055056
0.049768
0.055819
0.049590
0.013633
0.051927
0.012088
0.054783
0.010031
0.047901
0.045357
0.042948
0.053577
0.049872
0.055591
0.054224
0.011920
0.008088
0.039317
0.013470
0.050015
0.012284
0.034653
0.011081
0.026114
0.009204
0.051635
0.056298
0.055486
0.051904
0.052667
0.009578
0.014463
0.053412
0.008578
0.045802
0.006628
0.043425
0.038002
0.011081
0.052185
0.010270
0.054199
0.047581
0.014264
0.038619
0.042173
0.019806
0.043750
0.015736
0.052407
0.011692
0.051876
0.011101
0.043296
0.043757
0.012703
0.010635
0.054045
0.024315
0.053637
0.048412
0.031871
0.012277
0.037570
0.050753
0.010672
0.012963
0.050373
0.050076
0.014411
0.009561
0.047424
0.042411
0.003875
0.055359
0.011971
0.010525
0.007961
0.054783
0.012671
0.008982
0.012500
0.017896
0.007429
0.008573
0.046477
0.046851
0.046333
0.011787
0.029622
0.025080
0.016689
0.017761
0.052662
0.043891
0.040092
0.054379
0.048084
0.013531
0.008307
0.043221
0.048600
0.020958
0.051669
0.010443
0.026870
0.011068
0.010976
0.037017
0.010319
0.023181
0.007800
0.009863
0.034510
0.050891