# vtk DataFile Version 2.0
Test
ASCII
DATASET POLYDATA
POINTS 7341 float
0.000000 0.000000 0.000000
1.000000 0.000000 0.000000
1.000000 1.000000 0.000000
0.000000 1.000000 0.000000
0.000000 0.500000 0.000000
0.500000 0.500000 0.000000
1.000000 0.500000 0.000000
0.499000 0.499000 0.000000
0.900000 0.010000 0.000000
0.029412 0.000000 0.000000
0.058824 0.000000 0.000000
0.088235 0.000000 0.000000
0.117647 0.000000 0.000000
0.147059 0.000000 0.000000
0.176471 0.000000 0.000000
0.205882 0.000000 0.000000
0.235294 0.000000 0.000000
0.264706 0.000000 0.000000
0.294118 0.000000 0.000000
0.323529 0.000000 0.000000
0.352941 0.000000 0.000000
0.382353 0.000000 0.000000
0.411765 0.000000 0.000000
0.441176 0.000000 0.000000
0.470588 0.000000 0.000000
0.500000 0.000000 0.000000
0.529412 0.000000 0.000000
0.558824 0.000000 0.000000
0.588235 0.000000 0.000000
0.617647 0.000000 0.000000
0.647059 0.000000 0.000000
0.676471 0.000000 0.000000
0.705882 0.000000 0.000000
0.735294 0.000000 0.000000
0.764706 0.000000 0.000000
0.794118 0.000000 0.000000
0.823529 0.000000 0.000000
0.852941 0.000000 0.000000
0.882353 0.000000 0.000000
0.911765 0.000000 0.000000
0.941176 0.000000 0.000000
0.970588 0.000000 0.000000
1.000000 0.029412 0.000000
1.000000 0.058824 0.000000
1.000000 0.088235 0.000000
1.000000 0.117647 0.000000
1.000000 0.147059 0.000000
1.000000 0.176471 0.000000
1.000000 0.205882 0.000000
1.000000 0.235294 0.000000
1.000000 0.264706 0.000000
1.000000 0.294118 0.000000
1.000000 0.323529 0.000000
1.000000 0.352941 0.000000
1.000000 0.382353 0.000000
1.000000 0.411765 0.000000
1.000000 0.441176 0.000000
1.000000 0.470588 0.000000
1.000000 0.529412 0.000000
1.000000 0.558824 0.000000
1.000000 0.588235 0.000000
1.000000 0.617647 0.000000
1.000000 0.647059 0.000000
1.000000 0.676471 0.000000
1.000000 0.705882 0.000000
1.000000 0.735294 0.000000
1.000000 0.764706 0.000000
1.000000 0.794118 0.000000
1.000000 0.823529 0.000000
1.000000 0.852941 0.000000
1.000000 0.882353 0.000000
1.000000 0.911765 0.000000
1.000000 0.941176 0.000000
1.000000 0.970588 0.000000
0.970588 1.000000 0.000000
0.941176 1.000000 0.000000
0.911765 1.000000 0.000000
0.882353 1.000000 0.000000
0.852941 1.000000 0.000000
0.823529 1.000000 0.000000
0.794118 1.000000 0.000000
0.764706 1.000000 0.000000
0.735294 1.000000 0.000000
0.705882 1.000000 0.000000
0.676471 1.000000 0.000000
0.647059 1.000000 0.000000
0.617647 1.000000 0.000000
0.588235 1.000000 0.000000
0.558824 1.000000 0.000000
0.529412 1.000000 0.000000
0.500000 1.000000 0.000000
0.470588 1.000000 0.000000
0.441176 1.000000 0.000000
0.411765 1.000000 0.000000
0.382353 1.000000 0.000000
0.352941 1.000000 0.000000
0.323529 1.000000 0.000000
0.294118 1.000000 0.000000
0.264706 1.000000 0.000000
0.235294 1.000000 0.000000
0.205882 1.000000 0.000000
0.176471 1.000000 0.000000
0.147059 1.000000 0.000000
0.117647 1.000000 0.000000
0.088235 1.000000 0.000000
0.058824 1.000000 0.000000
0.029412 1.000000 0.000000
0.000000 0.970588 0.000000
0.000000 0.941176 0.000000
0.000000 0.911765 0.000000
0.000000 0.882353 0.000000
0.000000 0.852941 0.000000
0.000000 0.823529 0.000000
0.000000 0.794118 0.000000
0.000000 0.764706 0.000000
0.000000 0.735294 0.000000
0.000000 0.705882 0.000000
0.000000 0.676471 0.000000
0.000000 0.647059 0.000000
0.000000 0.617647 0.000000
0.000000 0.588235 0.000000
0.000000 0.558824 0.000000
0.000000 0.529412 0.000000
0.007246 0.500000 0.000000
0.014493 0.500000 0.000000
0.021739 0.500000 0.000000
0.028986 0.500000 0.000000
0.036232 0.500000 0.000000
0.043478 0.500000 0.000000
0.050725 0.500000 0.000000
0.057971 0.500000 0.000000
0.065217 0.500000 0.000000
0.072464 0.500000 0.000000
0.079710 0.500000 0.000000
0.086957 0.500000 0.000000
0.094203 0.500000 0.000000
0.101449 0.500000 0.000000
0.108696 0.500000 0.000000
0.115942 0.500000 0.000000
0.123188 0.500000 0.000000
0.130435 0.500000 0.000000
0.137681 0.500000 0.000000
0.144928 0.500000 0.000000
0.152174 0.500000 0.000000
0.159420 0.500000 0.000000
0.166667 0.500000 0.000000
0.173913 0.500000 0.000000
0.181159 0.500000 0.000000
0.188406 0.500000 0.000000
0.195652 0.500000 0.000000
0.202899 0.500000 0.000000
0.210145 0.500000 0.000000
0.217391 0.500000 0.000000
0.224638 0.500000 0.000000
0.231884 0.500000 0.000000
0.239130 0.500000 0.000000
0.246377 0.500000 0.000000
0.253623 0.500000 0.000000
0.260870 0.500000 0.000000
0.268116 0.500000 0.000000
0.275362 0.500000 0.000000
0.282609 0.500000 0.000000
0.289855 0.500000 0.000000
0.297101 0.500000 0.000000
0.304348 0.500000 0.000000
0.311594 0.500000 0.000000
0.318841 0.500000 0.000000
0.326087 0.500000 0.000000
0.333333 0.500000 0.000000
0.340580 0.500000 0.000000
0.347826 0.500000 0.000000
0.355072 0.500000 0.000000
0.362319 0.500000 0.000000
0.369565 0.500000 0.000000
0.376812 0.500000 0.000000
0.384058 0.500000 0.000000
0.391304 0.500000 0.000000
0.398551 0.500000 0.000000
0.405797 0.500000 0.000000
0.413043 0.500000 0.000000
0.420290 0.500000 0.000000
0.427536 0.500000 0.000000
0.434783 0.500000 0.000000
0.442029 0.500000 0.000000
0.449275 0.500000 0.000000
0.456522 0.500000 0.000000
0.463768 0.500000 0.000000
0.471014 0.500000 0.000000
0.478261 0.500000 0.000000
0.485507 0.500000 0.000000
0.492754 0.500000 0.000000
0.510004 0.500000 0.000000
0.520408 0.500000 0.000000
0.531229 0.500000 0.000000
0.542483 0.500000 0.000000
0.554187 0.500000 0.000000
0.566359 0.500000 0.000000
0.579019 0.500000 0.000000
0.592185 0.500000 0.000000
0.605877 0.500000 0.000000
0.620118 0.500000 0.000000
0.634929 0.500000 0.000000
0.650332 0.500000 0.000000
0.666352 0.500000 0.000000
0.683013 0.500000 0.000000
0.700340 0.500000 0.000000
0.718361 0.500000 0.000000
0.737103 0.500000 0.000000
0.756595 0.500000 0.000000
0.776867 0.500000 0.000000
0.797950 0.500000 0.000000
0.819877 0.500000 0.000000
0.842681 0.500000 0.000000
0.866398 0.500000 0.000000
0.891064 0.500000 0.000000
0.916716 0.500000 0.000000
0.943396 0.500000 0.000000
0.971143 0.500000 0.000000
0.000000 0.470588 0.000000
0.000000 0.441176 0.000000
0.000000 0.411765 0.000000
0.000000 0.382353 0.000000
0.000000 0.352941 0.000000
0.000000 0.323529 0.000000
0.000000 0.294118 0.000000
0.000000 0.264706 0.000000
0.000000 0.235294 0.000000
0.000000 0.205882 0.000000
0.000000 0.176471 0.000000
0.000000 0.147059 0.000000
0.000000 0.117647 0.000000
0.000000 0.088235 0.000000
0.000000 0.058824 0.000000
0.000000 0.029412 0.000000
0.500341 0.497365 0.000000
0.501682 0.495729 0.000000
0.503023 0.494094 0.000000
0.504365 0.492458 0.000000
0.505706 0.490823 0.000000
0.507047 0.489187 0.000000
0.508388 0.487552 0.000000
0.509729 0.485916 0.000000
0.511070 0.484281 0.000000
0.512411 0.482645 0.000000
0.513753 0.481010 0.000000
0.515094 0.479375 0.000000
0.516435 0.477739 0.000000
0.517776 0.476104 0.000000
0.519117 0.474468 0.000000
0.520458 0.472833 0.000000
0.521799 0.471197 0.000000
0.523140 0.469562 0.000000
0.524482 0.467926 0.000000
0.525823 0.466291 0.000000
0.527164 0.464656 0.000000
0.528505 0.463020 0.000000
0.529846 0.461385 0.000000
0.531187 0.459749 0.000000
0.532528 0.458114 0.000000
0.533870 0.456478 0.000000
0.535211 0.454843 0.000000
0.536552 0.453207 0.000000
0.537893 0.451572 0.000000
0.539234 0.449936 0.000000
0.540575 0.448301 0.000000
0.541916 0.446666 0.000000
0.543258 0.445030 0.000000
0.544599 0.443395 0.000000
0.545940 0.441759 0.000000
0.547281 0.440124 0.000000
0.548622 0.438488 0.000000
0.549963 0.436853 0.000000
0.551304 0.435217 0.000000
0.552645 0.433582 0.000000
0.553987 0.431946 0.000000
0.555328 0.430311 0.000000
0.556669 0.428676 0.000000
0.558010 0.427040 0.000000
0.559351 0.425405 0.000000
0.560692 0.423769 0.000000
0.562033 0.422134 0.000000
0.563375 0.420498 0.000000
0.564716 0.418863 0.000000
0.566057 0.417227 0.000000
0.567398 0.415592 0.000000
0.568739 0.413957 0.000000
0.570080 0.412321 0.000000
0.571421 0.410686 0.000000
0.572763 0.409050 0.000000
0.574104 0.407415 0.000000
0.575445 0.405779 0.000000
0.576786 0.404144 0.000000
0.578127 0.402508 0.000000
0.579468 0.400873 0.000000
0.580809 0.399237 0.000000
0.582151 0.397602 0.000000
0.583492 0.395967 0.000000
0.584833 0.394331 0.000000
0.586174 0.392696 0.000000
0.587515 0.391060 0.000000
0.588856 0.389425 0.000000
0.590197 0.387789 0.000000
0.591538 0.386154 0.000000
0.592880 0.384518 0.000000
0.594221 0.382883 0.000000
0.595562 0.381247 0.000000
0.596903 0.379612 0.000000
0.598244 0.377977 0.000000
0.599585 0.376341 0.000000
0.600926 0.374706 0.000000
0.602268 0.373070 0.000000
0.603609 0.371435 0.000000
0.604950 0.369799 0.000000
0.606291 0.368164 0.000000
0.607632 0.366528 0.000000
0.608973 0.364893 0.000000
0.610314 0.363258 0.000000
0.611656 0.361622 0.000000
0.612997 0.359987 0.000000
0.614338 0.358351 0.000000
0.615679 0.356716 0.000000
0.617020 0.355080 0.000000
0.618361 0.353445 0.000000
0.619702 0.351809 0.000000
0.621043 0.350174 0.000000
0.622385 0.348538 0.000000
0.623726 0.346903 0.000000
0.625067 0.345268 0.000000
0.626408 0.343632 0.000000
0.627749 0.341997 0.000000
0.629090 0.340361 0.000000
0.630431 0.338726 0.000000
0.631773 0.337090 0.000000
0.633114 0.335455 0.000000
0.634455 0.333819 0.000000
0.635796 0.332184 0.000000
0.637137 0.330548 0.000000
0.638478 0.328913 0.000000
0.639819 0.327278 0.000000
0.641161 0.325642 0.000000
0.642502 0.324007 0.000000
0.643843 0.322371 0.000000
0.645184 0.320736 0.000000
0.646525 0.319100 0.000000
0.647866 0.317465 0.000000
0.649207 0.315829 0.000000
0.650548 0.314194 0.000000
0.651890 0.312559 0.000000
0.653231 0.310923 0.000000
0.654572 0.309288 0.000000
0.655913 0.307652 0.000000
0.657254 0.306017 0.000000
0.658595 0.304381 0.000000
0.659936 0.302746 0.000000
0.661278 0.301110 0.000000
0.662619 0.299475 0.000000
0.663960 0.297839 0.000000
0.665301 0.296204 0.000000
0.666642 0.294569 0.000000
0.667983 0.292933 0.000000
0.669324 0.291298 0.000000
0.670666 0.289662 0.000000
0.672007 0.288027 0.000000
0.673348 0.286391 0.000000
0.674689 0.284756 0.000000
0.676030 0.283120 0.000000
0.677371 0.281485 0.000000
[...]
POINT_DATA 7341
SCALARS UX float 1
LOOKUP_TABLE default
0.000000
0.000000
0.215500
0.215500
0.121002
0.099060
0.091598
0.092766
0.000068
-0.000000
0.000000
0.000000
0.000000
0.000000
0.000000
0.000000
0.000000
0.000000
0.000000
0.000000
0.000000
0.000000
0.000000
0.000000
0.000000
0.000000
0.000000
0.000000
0.000000
0.000000
0.000000
0.000000
0.000000
0.000000
0.000000
0.000000
0.000000
0.000000
0.000000
0.000000
0.000000
-0.000000
0.001590
0.002511
0.004097
0.004356
0.007725
0.009922
0.012794
0.017709
0.023355
0.029307
0.036699
0.045085
0.054936
0.065912
0.073114
0.081305
0.100700
0.109572
0.118160
0.126258
0.133939
0.141386
0.148586
0.155563
0.162435
0.169252
0.175958
0.182618
0.189241
0.195832
0.202407
0.208961
0.215500
0.215500
0.215500
0.215500
0.215500
0.215500
0.215500
0.215500
0.215500
0.215500
0.215500
0.215500
0.215500
0.215500
0.215500
0.215500
0.215500
0.215500
0.215500
0.215500
0.215500
0.215500
0.215500
0.215500
0.215500
0.215500
0.215500
0.215500
0.215500
0.215500
0.215500
0.215500
0.215500
0.209794
0.204086
0.198376
0.192653
0.186925
0.181175
0.175417
0.169634
0.163831
0.158016
0.152172
0.146318
0.140458
0.134611
0.128773
0.123160
0.116923
0.114329
0.108959
0.105052
0.103351
0.102934
0.102946
0.104745
0.096176
0.090582
0.091535
0.090501
0.088794
0.090337
0.089901
0.095756
0.085230
0.088053
0.089122
0.091031
0.091143
0.092220
0.085192
0.086546
0.089638
0.095284
0.085624
0.086590
0.087742
0.089667
0.091730
0.091357
0.092662
0.094973
0.090497
0.094261
0.096708
0.091096
0.098080
0.094177
0.097604
0.093422
0.096777
0.099051
0.094275
0.096571
0.098309
0.099880
0.101324
0.095648
0.102086
0.099793
0.102121
0.099681
0.102569
0.100213
0.103003
0.101921
0.100684
0.099192
0.102398
0.101661
0.100526
0.098005
0.100343
0.097504
0.099508
0.099081
0.096612
0.094635
0.092897
0.091772
0.091058
0.090493
0.090188
0.090121
0.090114
0.090262
0.090453
0.090658
0.090799
0.090900
0.090917
0.090918
0.090928
0.090952
0.090946
0.090887
0.090798
0.090696
0.090707
0.090762
0.090889
0.091091
0.091352
0.080032
0.071328
0.064698
0.058879
0.053754
0.048565
0.043289
0.038280
0.033971
0.030115
0.026512
0.023031
0.019708
0.016330
0.012601
0.008431
0.089693
0.085372
0.083706
0.081914
0.080424
0.078631
0.077010
0.075367
0.074327
0.074256
0.073218
0.072263
0.071660
0.071069
0.070482
0.069912
0.069350
0.068828
0.068316
0.067816
0.067325
0.066835
0.066355
0.065880
0.065406
0.064940
0.064477
0.064017
0.063563
0.063111
0.062661
0.062216
0.061775
0.061336
0.060898
0.060465
0.060035
0.059607
0.059183
0.058761
0.058341
0.057925
0.057511
0.057100
0.056689
0.056282
0.055877
0.055473
0.055072
0.054672
0.054275
0.053878
0.053483
0.053090
0.052698
0.052308
0.051918
0.051529
0.051141
0.050754
0.050367
0.049980
0.049594
0.049207
0.048821
0.048434
0.048048
0.047662
0.047275
0.046888
0.046502
0.046115
0.045729
0.045342
0.044955
0.044567
0.044180
0.043793
0.043405
0.043017
0.042628
0.042239
0.041850
0.041461
0.041072
0.040683
0.040294
0.039905
0.039516
0.039126
0.038737
0.038348
0.037959
0.037569
0.037180
0.036791
0.036401
0.036012
0.035622
0.035233
0.034844
0.034455
0.034066
0.033678
0.033290
0.032903
0.032516
0.032131
0.031746
0.031363
0.030981
0.030602
0.030223
0.029846
0.029472
0.029099
0.028730
0.028362
0.027997
0.027634
0.027274
0.026918
0.026563
0.026213
0.025865
0.025521
0.025179
0.024841
0.024507
0.024176
0.023848
0.023523
0.023202
0.022883
0.022569
0.022257
0.021949
0.021644
0.021342
0.021044
0.020749
0.020457
0.020169
0.019884
0.019603
0.019325
0.019051
0.018780
0.018513
0.018249
0.017988
0.017731
0.017476
0.017225
0.016978
0.016734
0.016493
0.016255
0.016019
0.015787
0.015558
0.015331
0.015107
0.014886
0.014667
0.014450
0.014236
0.014024
0.013813
0.013604
0.013398
0.013193
0.012990
0.012789
0.012590
0.012392
0.012197
0.012003
0.011811
0.011620
0.011432
0.011244
0.011058
0.010874
0.010691
0.010510
0.010330
0.010151
0.009975
0.009800
0.009626
0.009454
0.009284
0.009115
0.008948
0.008784
0.008621
0.008461
0.008303
0.008146
0.007993
0.007842
0.007691
0.007543
0.007396
0.007251
0.007107
0.006965
0.006824
0.006685
0.006546
0.006410
0.006274
0.006140
0.006007
0.005875
0.005744
0.005615
0.005486
0.005359
0.005233
0.005109
0.004985
0.004863
0.004743
0.004623
0.004505
0.004390
0.004276
0.004164
0.004053
0.003944
0.003839
0.003736
0.003636
0.003539
0.003446
0.003355
0.003267
0.003181
0.003097
0.003015
0.002935
0.002858
0.002781
0.002706
0.002633
0.002561
0.002489
0.002419
0.002349
0.002280
0.002212
0.002143
0.002076
0.002009
0.001943
0.001878
0.001813
0.001749
0.001686
0.001623
0.001561
0.001501
0.001441
0.001382
0.001323
0.001266
0.001209
0.001154
0.001098
0.001045
0.000992
0.000939
0.000887
0.000837
0.000788
0.000741
0.000695
0.000651
0.000609
0.000567
0.000526
0.000487
0.000449
0.000411
0.000374
0.000340
0.000307
0.000275
0.000244
0.000214
0.000186
0.000162
0.000139
0.000118
0.000100
0.000084
0.071951
0.070243
0.070369
0.000962
0.001095
0.083441
0.001079
0.083617
0.074474
0.028469
0.083441
0.000825
0.041689
0.078047
0.009187
0.028729
0.081911
0.000514
0.001998
0.071834
0.003506
0.081195
0.081480
0.018167
0.074566
0.062618
0.085564
0.054330
0.082172
0.077177
0.002980
0.071550
0.070138
0.076408
0.073390
0.000278
0.079781
0.000974
0.079319
0.001013
0.071048
0.069907
0.069726
0.080468
0.000309
0.083444
0.000235
0.079817
0.078339
0.092224
0.000428
0.079939
0.003617
0.057654
0.000608
0.080821
0.082932
0.052112
0.083188
0.083644
0.012196
0.017174
0.000905
0.000984
0.072595
0.075862
0.036845
0.071939
0.081833
0.001109
0.083057
0.001114
0.036048
0.000918
0.070741
0.025049
0.001121
0.081324
0.014630
0.003348
0.009509
0.003049
0.003879
0.071070
0.072080
0.072727
0.070776
0.070012
0.070264
0.073156
0.079122
0.077326
0.075655
0.075586
0.075212
0.074040
0.088506
0.084142
0.083101
0.082664
0.081000
0.000264
0.080462
0.088104
0.067062
0.068003
0.002237
0.071538
0.002233
0.071208
0.034984
0.001825
0.039551
0.074224
0.012500
0.075695
0.001158
0.076510
0.003187
0.052358
0.075162
0.027187
0.002444
0.069632
0.080090
0.000824
0.075951
0.074084
0.067271
0.080174
0.013260
0.072977
0.081894
0.082950
0.000274
0.073332
0.073042
0.000405
0.081394
0.080242
0.007034
0.081872
0.000676
0.061318
0.077015
0.082728
0.001844
0.083521
0.047664
0.022011
0.083683
0.083723
0.001000
0.083814
0.002166
0.083694
0.074219
0.001084
0.044168
0.000982
0.082407
0.072507
0.064508
0.000878
0.033063
0.082048
0.071618
0.001489
0.021608
0.006349
0.002547
0.008478
0.070404
0.070629
0.071576
0.070303
0.069058
0.069150
0.069840
0.068697
0.072189
0.072728
0.073381
0.076666
0.074515
0.077525
0.082249
0.086818
0.078243
0.080122
0.080857
0.082944
0.085616
0.080646
0.088439
0.076889
0.081722
0.079389
0.009623
0.003228
0.078071
0.076685
0.010079
0.076089
0.068105
0.075515
0.074823
0.075793
0.002200
0.069139
0.031339
0.075349
0.074070
0.003522
0.005346
0.000656
0.067542
0.078191
0.000992
0.078356
0.067037
0.077110
0.044255
0.070141
0.067083
0.076665
0.073153
0.001746
0.064179
0.075639
0.075006
0.074479
0.001341
0.045096
0.076629
0.002223
0.076704
0.023193
0.017235
0.002134
0.077041
0.035536
0.078286
0.001943
0.002074
0.002164
0.076753
0.001250
0.003603
0.070174
0.070814
0.073990
0.076060
0.076861
0.002882
0.056861
0.028347
0.023698
0.079173
0.020045
0.016660
0.001951
0.011094
0.007362
0.067036
0.066848
0.066939
0.068212
0.068644
0.001069
0.067227
0.066921
0.072465
0.069441
0.075677
0.070928
0.078379
0.083788
0.072951
0.072118
0.071397
0.066754
0.081262
0.077073
0.078293
0.078525
0.074383
0.073432
0.075624
0.007371
0.001744
0.081209
0.075080
0.077384
0.072003
0.086814
0.066212
0.066761
0.069283
0.003656
0.070391
0.028646
0.002906
0.034716
0.071383
0.002012
0.004910
0.069916
0.003299
0.057494
0.001672
0.071533
0.022208
0.065862
0.068075
0.076105
0.003297
0.072515
0.004060
0.074571
0.040842
0.075569
0.076329
0.002263
0.077008
0.072698
0.068392
0.029715
0.076282
0.002700
0.068578
0.065175
0.071778
0.012173
0.074653
0.043035
0.053931
0.073585
0.004324
0.076738
0.018285
0.014792
0.008033
0.009494
0.076492
0.069380
0.003382
0.003421
0.067767
0.003902
0.067135
0.067039
0.070246
0.068893
0.072355
0.070490
0.066723
0.006915
0.077733
0.068207
0.077504
0.075101
0.065843
0.001467
0.069542
0.069770
0.077033
0.048419
0.084730
0.068201
0.081770
0.075462
0.070944
0.080719
0.075649
0.076309
0.074267
0.008414
0.005783
0.071688
0.073525
0.076739
0.076169
0.074522
0.074782
0.077209
0.087514
0.006105
0.004879
0.064128
0.003799
0.070751
0.068232
0.071376
0.012106
0.032816
0.070679
0.069902
0.001595
0.068995
0.071719
0.065989
0.074441
0.073080
0.070731
0.067437
0.004436
0.020108
0.005492
0.073651
0.071674
0.053560
0.011141
0.002838
0.003792
0.008411
0.065920
0.065827
0.001934
0.003030
0.024426
0.068253
0.072870
0.067709
0.055155
0.067470
0.069695
0.074396
0.069861
0.074794
0.070400
0.005372
0.004408
0.067790
0.070050
0.034438
0.066993
0.066406
0.006490
0.048311
0.072005
0.069081
0.072614
0.016411
0.061230
0.003964
0.002665
0.039027
0.069335
0.025955
0.012908
0.068793
0.071175
0.069780
0.015726
0.065654
0.003065
0.066972
0.065668
0.071337
0.002160
0.075039
0.070530
0.088125
0.067644
0.079547
0.074781
0.068702
0.069007
0.074196
0.074864
0.069274
0.070747
0.071314
0.001671
0.072786
0.071676
0.070783
0.072360
0.067385
0.074547
0.072786
0.065263
0.065787
0.067766
0.033870
0.066884
0.002738
0.067158
0.006993
0.051241
0.003266
0.065064
0.002179
0.063792
0.071336
0.003700
0.067026
0.068653
0.071675
0.066704
0.064330
0.001464
0.015017
0.024240
0.003810
0.004459
0.065976
0.070954
0.002348
0.066663
0.068834
0.072441
0.073528
0.069751
0.073255
0.071162
0.037237
0.006745
0.028747
0.063933
0.007343
0.009622
0.071044
0.004886
0.018336
0.002370
0.070956
0.062467
0.070024
0.063354
0.060496
0.014531
0.020199
0.005958
0.005418
0.068974
0.023840
0.067024
0.071583
0.046902
0.063252
0.075395
0.065095
0.065679
0.070309
0.066666
0.072207
0.064865
0.068322
0.073547
0.072508
0.010253
0.005124
0.069993
0.078208
0.067279
0.074381
0.066132
0.065861
0.068989
0.003610
0.002134
0.071844
0.066919
0.072671
0.070034
0.066416
0.075897
0.005712
0.073245
0.068414
0.071343
0.066250
0.047472
0.071863
0.066519
0.072413
0.072106
0.067590
0.064892
0.006884
0.058272
0.004538
0.065439
0.014759
0.005746
0.050519
0.036151
0.010144
0.002015
0.066748
0.064117
0.005804
0.040470
0.063475
0.065067
0.003020
0.057682
0.065044
0.008427
0.065436
0.067133
0.003319
0.072076
0.069530
0.065015
0.065460
0.067165
0.066110
0.064970
0.070407
0.068459
0.065463
0.068540
0.042360
0.065957
0.018949
0.072038
0.026784
0.056410
0.008404
0.073895
0.063888
0.005771
0.000968
0.002200
0.003993
0.068001
0.002950
0.070372
0.004196
0.074805
0.012778
0.008296
0.028144
0.009977
0.002711
0.022369
0.006386
0.072056
0.071328
0.073648
0.071836
0.065098
0.067342
0.068564
0.064742
0.060460
0.005434
0.066972
0.064629
0.002234
0.071456
0.068232
0.046758
0.070987
0.070530
0.066468
0.065718
0.067328
0.071871
0.065917
0.002330
0.070222
0.067565
0.071681
0.004465
0.075749
0.071105
0.068441
0.002929
0.068904
0.065215
0.071764
0.077165
0.007876
0.003691
0.008614
0.002869
0.002927
0.029003
0.001954
0.001574
0.063915
0.025218
0.066451
0.068843
0.005151
0.069448
0.054922
0.046914
0.069802
0.007544
0.003379
0.059100
0.004782
0.016440
0.005851
0.008213
0.065658
0.069584
0.070041
0.064143
0.069749
0.011527
0.065603
0.066772
0.070474
0.070730
0.065297
0.019242
0.064820
0.001432
0.056989
0.063852
0.058121
0.057300
0.059951
0.031826
0.067144
0.065312
0.065735
0.064809
0.007218
0.069664
0.002535
0.009554
0.003039
0.071871
0.011806
0.034650
0.053856
0.065255
0.006847
0.006608
0.001396
0.046324
0.066762
0.004374
0.066065
0.067717
0.070454
0.069463
0.063838
0.064277
0.064690
0.064264
0.064692
0.066202
0.065957
0.010121
0.064961
0.066896
0.053273
0.068255
0.070321
0.070559
0.064870
0.072006
0.072319
0.000388
0.068695
0.066042
0.070109
0.004847
0.070982
0.041001
0.064040
0.003921
0.071641
0.062646
0.009280
0.010588
0.052980
0.062761
0.064571
0.012308
0.039976
0.003526
0.062856
0.030117
0.054020
0.001621
0.064865
0.002399
0.001858
0.067553
0.066664
0.064168
0.001070
0.007257
0.069457
0.069599
0.013801
0.060075
0.059458
0.051871
0.004655
0.065542
0.064257
0.064184
0.062374
0.063877
0.024990
0.000986
0.064600
0.001090
0.051200
0.005114
0.070026
0.010056
0.008445
0.068828
0.070326
0.011310
0.069188
0.021060
0.069661
0.064222
0.002756
0.003241
0.069107
0.003484
0.067009
0.004285
0.005364
0.007838
0.066353
0.040459
0.014740
0.050092
0.067214
0.012358
0.069782
0.067716
0.035307
0.065506
0.063800
0.065408
0.064838
0.066484
0.063550
0.063581
0.066789
0.065701
0.044954
0.068061
0.061852
0.064488
0.070310
0.005682
0.063921
0.069654
0.069582
0.030146
0.003589
0.058467
0.051044
0.054131
0.063809
0.008782
0.049718
0.058586
0.010711
0.039074
0.004125
0.003434
0.048687
0.002848
0.046401
0.001143
0.057041
0.062723
0.064907
0.066293
0.006124
0.067030
0.028784
0.068833
0.063237
0.062858
0.010145
0.064080
0.005728
0.068554
0.025854
0.004797
0.063099
0.065979
0.006784
0.001988
0.061079
0.014427
0.062062
0.064582
0.064396
0.063903
0.063387
0.054849
0.008838
0.006165
0.014042
0.069044
0.003700
0.003005
0.008142
0.065785
0.009729
0.018253
0.060001
0.052533
0.001375
0.044970
0.064695
0.065254
0.013350
0.034749
0.068795
0.068564
0.000659
0.065633
0.065218
0.065184
0.062596
0.005243
0.069238
0.063754
0.065287
0.068006
0.062424
0.068423
0.064512
0.064338
0.064080
0.066896
0.000423
0.066183
0.061724
0.033781
0.069029
0.008673
0.068536
0.046259
0.059985
0.062843
0.000559
0.064120
0.063145
0.069309
0.065203
0.043559
0.003427
0.002318
0.069217
0.002991
0.061840
0.061422
0.010394
0.026504
0.050548
0.037480
0.006254
0.058574
0.047257
0.063289
0.004297
0.003041
0.001617
0.067624
0.003257
0.041259
0.063044
0.002710
0.002253
0.066150
0.056192
0.063807
0.011987
0.063286
0.054756
0.000816
0.013589
0.060283
0.006839
0.005770
0.066822
0.008265
0.062981
0.061393
0.064549
0.063016
0.063206
0.031847
0.023973
0.009570
0.062527
0.000339
0.052614
0.004500
0.012415
0.048611
0.064928
0.062984
0.062986
0.040427
0.006336
0.010901
0.065415
0.005677
0.009334
0.001839
0.015838
0.029903
0.004198
0.017427
0.058034
0.068189
0.067705
0.064714
0.063726
0.000623
0.062717
0.068472
0.068620
0.068345
0.067519
0.062200
0.002518
0.063596
0.007485
0.063242
0.063001
0.021793
0.064340
0.004431
0.062303
0.063819
0.064363
0.068612
0.006458
0.061749
0.057274
0.064045
0.002420
0.017095
0.000961
0.003293
0.068025
0.000213
0.003968
0.064129
0.064958
0.067811
0.067139
0.062329
0.042241
0.001278
0.046726
0.063178
0.056126
0.067962
0.068780
0.000579
0.060911
0.012454
0.010466
0.046890
0.026260
0.035687
0.054725
0.010878
0.006665
0.004951
0.004883
0.061817
0.045170
0.016877
0.042143
0.001286
0.061623
0.052386
0.061834
0.002147
0.014571
0.061929
0.007955
0.007623
0.005288
0.000577
0.000531
0.006884
0.061520
0.012556
0.011820
0.004524
0.045594
0.043267
0.007400
0.052718
0.001540
0.063293
0.034126
0.066803
0.064884
0.010885
0.062015
0.022889
0.066605
0.062157
0.063171
0.062453
0.057124
0.007480
0.005691
0.027560
0.016939
0.002017
0.039074
0.054040
0.067712
0.062438
0.061001
0.068133
0.062827
0.062473
0.062566
0.064275
0.055624
0.006654
0.061400
0.063147
0.000944
0.066884
0.061219
0.062886
0.061320
0.067956
0.067184
0.062543
0.061901
0.061390
0.051429
0.003492
0.007518
0.010016
0.068222
0.065662
0.067090
0.063828
0.003083
0.021693
0.063211
0.040782
0.065771
0.016550
0.067669
0.002453
0.068121
0.002650
0.050774
0.063897
0.066753
0.003796
0.021651
0.003552
0.000821
0.059777
0.061132
0.012187
0.008439
0.043404
0.064534
0.051784
0.039266
0.006160
0.003436
0.004329
0.059161
0.003704
0.048899
0.038330
0.023594
0.002971
0.061375
0.047281
0.020488
0.000580
0.059784
0.014613
0.006719
0.062621
0.016352
0.000971
0.017025
0.009450
0.011902
0.018670
0.033607
0.065570
0.005088
0.063785
0.041565
0.060349
0.007694
0.050938
0.007366
0.029681
0.061245
0.006461
0.013085
0.007456
0.001637
0.009899
0.005778
0.012840
0.060510
0.062831
0.060461
0.060705
0.031596
0.055750
0.001834
0.058407
0.061379
0.066298
0.063587
0.004904
0.066281
0.065554
0.008627
0.019815
0.061401
0.061702
0.061997
0.061564
0.006362
0.060962
0.055339
0.060369
0.066690
0.067670
0.011313
0.062220
0.060339
0.059527
0.039529
0.067196
0.067570
0.003504
0.050687
0.002629
0.044359
0.060851
0.036453
0.060602
0.018847
0.067384
0.061805
0.000335
0.066129
0.061932
0.064633
0.065044
0.065771
0.005044
0.066743
0.060989
0.002037
0.066226
0.067712
0.002420
0.066829
0.063322
0.014545
0.063360
0.025985
0.039901
0.012056
0.048952
0.055685
0.005638
0.007017
0.006837
0.042459
0.002123
0.020521
0.061678
0.009422
0.036330
0.001351
0.001539
0.061525
0.060320
0.003849
0.002405
0.053245
0.000637
0.060863
0.052480
0.002673
0.005842
0.059154
0.060979
0.000918
0.047210
0.062730
0.027895
0.004195
0.004467
0.029385
0.014073
0.007702
0.056921
0.065178
0.004919
0.058646
0.044055
0.014736
0.008557
0.065840
0.058476
0.062359
0.013269
0.005877
0.015026
0.065209
0.034365
0.007973
0.064508
0.062340
0.002126
0.060592
0.059477
0.007696
0.009698
0.008938
0.000383
0.020434
0.035134
0.017062
0.012628
0.063602
0.062124
0.003925
0.065995
0.066751
0.059746
0.060436
0.001236
0.060150
0.061487
0.067207
0.064461
0.067280
0.061213
0.066096
0.061513
0.019376
0.024565
0.001733
0.066601
0.005618
0.066144
0.061135
0.009468
0.002920
0.063075
0.067383
0.059787
0.065659
0.032780
0.059128
0.003348
0.065822
0.066391
0.008353
0.067059
0.061883
0.011798
0.060161
0.058032
0.062178
0.013569
0.016445
0.009664
0.025741
0.065571
0.044241
0.062480
0.061087
0.053433
0.006955
0.059176
0.005094
0.059709
0.005725
0.004814
0.056408
0.058777
0.059977
0.017672
0.001890
0.003204
0.057956
0.032741
0.000806
0.001181
0.058383
0.002310
0.014457
0.002621
0.060893
0.023558
0.030441
0.059630
0.000244
0.002425
0.015129
0.062992
0.060311
0.064231
0.064334
0.058437
0.013891
0.006142
0.008347
0.017510
0.019391
0.022917
0.004072
0.008839
0.009970
0.038461
0.065356
0.064978
0.010824
0.060040
0.004069
0.066476
0.057789
0.052973
0.005736
0.056232
0.062912
0.061253
0.065448
0.066652
0.059817
0.021878
0.064887
0.058860
0.063336
0.008485
0.002861
0.058054
0.063805
0.003787
0.003625
0.035986
0.065471
0.066690
0.050415
0.030455
0.004511
0.000695
0.008944
0.059408
0.011191
0.064704
0.001567
0.001197
0.060826
0.003849
0.008723
0.065147
0.065430
0.065968
0.061799
0.053997
0.000431
0.066294
0.025099
0.041011
0.049969
0.001185
0.006642
0.015406
0.013605
0.056332
0.016769
0.060844
0.010861
0.021257
0.038045
0.015584
0.032898
0.008773
0.047470
0.053321
0.065138
0.009961
0.007437
0.041199
0.006338
0.061909
0.064375
0.012969
0.059246
0.002136
0.004699
0.006187
0.004147
0.058253
0.000656
0.003885
0.023826
0.059479
0.001830
0.002886
0.059494
0.001485
0.004396
0.055801
0.000891
0.000320
0.063405
0.058065
0.006476
0.015634
0.050442
0.041363
0.064723
0.051365
0.044299
0.007799
0.061032
0.011065
0.020296
0.064136
0.061912
0.059648
0.002117
0.057885
0.000163
0.014062
0.009419
0.004950
0.062187
0.059117
0.017097
0.034219
0.061763
0.005331
0.058122
0.025345
0.005101
0.013824
0.057457
0.058358
0.066260
0.047404
0.027586
0.064563
0.056331
0.055785
0.059810
0.065315
0.059708
0.065822
0.059957
0.001015
0.062307
0.002720
0.065171
0.004260
0.058994
0.039005
0.053481
0.067226
0.058396
0.065271
0.063218
0.009007
0.001512
0.030028
0.016059
0.060163
0.003537
0.023580
0.009949
0.026772
0.003156
0.059685
0.066188
0.065500
0.062037
0.062929
0.003472
0.004245
0.063877
0.003986
0.057265
0.000491
0.054430
0.027527
0.010500
0.062163
0.004097
0.068547
0.056324
0.015434
0.030074
0.038702
0.010142
0.051448
0.006974
0.061042
0.006407
0.061842
0.005290
0.046762
0.053710
0.012137
0.004687
0.063233
0.013848
0.063882
0.059054
0.021133
0.001077
0.044533
0.060731
0.004403
0.010614
0.058459
0.058172
0.016628
0.003384
0.056548
0.036996
0.000143
0.065239
0.007211
0.004172
0.001765
0.064672
0.000800
0.002791
0.009715
0.008463
0.000369
0.002351
0.056910
0.057049
0.055506
0.003199
0.018695
0.027349
0.019217
0.020060
0.062750
0.050609
0.032595
0.064559
0.058290
0.016156
0.001124
0.041591
0.058762
0.022686
0.059963
0.004444
0.029169
0.002397
0.005699
0.027328
0.005071
0.012386
0.000384
0.000529
0.024041
0.061098