# vtk DataFile Version 2.0
Test
ASCII
DATASET POLYDATA
POINTS 7341 float
0.000000 0.000000 0.000000
1.000000 0.000000 0.000000
1.000000 1.000000 0.000000
0.000000 1.000000 0.000000
0.000000 0.500000 0.000000
0.500000 0.500000 0.000000
1.000000 0.500000 0.000000
0.499000 0.499000 0.000000
0.900000 0.010000 0.000000
0.029412 0.000000 0.000000
0.058824 0.000000 0.000000
0.088235 0.000000 0.000000
0.117647 0.000000 0.000000
0.147059 0.000000 0.000000
0.176471 0.000000 0.000000
0.205882 0.000000 0.000000
0.235294 0.000000 0.000000
0.264706 0.000000 0.000000
0.294118 0.000000 0.000000
0.323529 0.000000 0.000000
0.352941 0.000000 0.000000
0.382353 0.000000 0.000000
0.411765 0.000000 0.000000
0.441176 0.000000 0.000000
0.470588 0.000000 0.000000
0.500000 0.000000 0.000000
0.529412 0.000000 0.000000
0.558824 0.000000 0.000000
0.588235 0.000000 0.000000
0.617647 0.000000 0.000000
0.647059 0.000000 0.000000
0.676471 0.000000 0.000000
0.705882 0.000000 0.000000
0.735294 0.000000 0.000000
0.764706 0.000000 0.000000
0.794118 0.000000 0.000000
0.823529 0.000000 0.000000
0.852941 0.000000 0.000000
0.882353 0.000000 0.000000
0.911765 0.000000 0.000000
0.941176 0.000000 0.000000
0.970588 0.000000 0.000000
1.000000 0.029412 0.000000
1.000000 0.058824 0.000000
1.000000 0.088235 0.000000
1.000000 0.117647 0.000000
1.000000 0.147059 0.000000
1.000000 0.176471 0.000000
1.000000 0.205882 0.000000
1.000000 0.235294 0.000000
1.000000 0.264706 0.000000
1.000000 0.294118 0.000000
1.000000 0.323529 0.000000
1.000000 0.352941 0.000000
1.000000 0.382353 0.000000
1.000000 0.411765 0.000000
1.000000 0.441176 0.000000
1.000000 0.470588 0.000000
1.000000 0.529412 0.000000
1.000000 0.558824 0.000000
1.000000 0.588235 0.000000
1.000000 0.617647 0.000000
1.000000 0.647059 0.000000
1.000000 0.676471 0.000000
1.000000 0.705882 0.000000
1.000000 0.735294 0.000000
1.000000 0.764706 0.000000
1.000000 0.794118 0.000000
1.000000 0.823529 0.000000
1.000000 0.852941 0.000000
1.000000 0.882353 0.000000
1.000000 0.911765 0.000000
1.000000 0.941176 0.000000
1.000000 0.970588 0.000000
0.970588 1.000000 0.000000
0.941176 1.000000 0.000000
0.911765 1.000000 0.000000
0.882353 1.000000 0.000000
0.852941 1.000000 0.000000
0.823529 1.000000 0.000000
0.794118 1.000000 0.000000
0.764706 1.000000 0.000000
0.735294 1.000000 0.000000
0.705882 1.000000 0.000000
0.676471 1.000000 0.000000
0.647059 1.000000 0.000000
0.617647 1.000000 0.000000
0.588235 1.000000 0.000000
0.558824 1.000000 0.000000
0.529412 1.000000 0.000000
0.500000 1.000000 0.000000
0.470588 1.000000 0.000000
0.441176 1.000000 0.000000
0.411765 1.000000 0.000000
0.382353 1.000000 0.000000
0.352941 1.000000 0.000000
0.323529 1.000000 0.000000
0.294118 1.000000 0.000000
0.264706 1.000000 0.000000
0.235294 1.000000 0.000000
0.205882 1.000000 0.000000
0.176471 1.000000 0.000000
0.147059 1.000000 0.000000
0.117647 1.000000 0.000000
0.088235 1.000000 0.000000
0.058824 1.000000 0.000000
0.029412 1.000000 0.000000
0.000000 0.970588 0.000000
0.000000 0.941176 0.000000
0.000000 0.911765 0.000000
0.000000 0.882353 0.000000
0.000000 0.852941 0.000000
0.000000 0.823529 0.000000
0.000000 0.794118 0.000000
0.000000 0.764706 0.000000
0.000000 0.735294 0.000000
0.000000 0.705882 0.000000
0.000000 0.676471 0.000000
0.000000 0.647059 0.000000
0.000000 0.617647 0.000000
0.000000 0.588235 0.000000
0.000000 0.558824 0.000000
0.000000 0.529412 0.000000
0.007246 0.500000 0.000000
0.014493 0.500000 0.000000
0.021739 0.500000 0.000000
0.028986 0.500000 0.000000
0.036232 0.500000 0.000000
0.043478 0.500000 0.000000
0.050725 0.500000 0.000000
0.057971 0.500000 0.000000
0.065217 0.500000 0.000000
0.072464 0.500000 0.000000
0.079710 0.500000 0.000000
0.086957 0.500000 0.000000
0.094203 0.500000 0.000000
0.101449 0.500000 0.000000
0.108696 0.500000 0.000000
0.115942 0.500000 0.000000
0.123188 0.500000 0.000000
0.130435 0.500000 0.000000
0.137681 0.500000 0.000000
0.144928 0.500000 0.000000
0.152174 0.500000 0.000000
0.159420 0.500000 0.000000
0.166667 0.500000 0.000000
0.173913 0.500000 0.000000
0.181159 0.500000 0.000000
0.188406 0.500000 0.000000
0.195652 0.500000 0.000000
0.202899 0.500000 0.000000
0.210145 0.500000 0.000000
0.217391 0.500000 0.000000
0.224638 0.500000 0.000000
0.231884 0.500000 0.000000
0.239130 0.500000 0.000000
0.246377 0.500000 0.000000
0.253623 0.500000 0.000000
0.260870 0.500000 0.000000
0.268116 0.500000 0.000000
0.275362 0.500000 0.000000
0.282609 0.500000 0.000000
0.289855 0.500000 0.000000
0.297101 0.500000 0.000000
0.304348 0.500000 0.000000
0.311594 0.500000 0.000000
0.318841 0.500000 0.000000
0.326087 0.500000 0.000000
0.333333 0.500000 0.000000
0.340580 0.500000 0.000000
0.347826 0.500000 0.000000
0.355072 0.500000 0.000000
0.362319 0.500000 0.000000
0.369565 0.500000 0.000000
0.376812 0.500000 0.000000
0.384058 0.500000 0.000000
0.391304 0.500000 0.000000
0.398551 0.500000 0.000000
0.405797 0.500000 0.000000
0.413043 0.500000 0.000000
0.420290 0.500000 0.000000
0.427536 0.500000 0.000000
0.434783 0.500000 0.000000
0.442029 0.500000 0.000000
0.449275 0.500000 0.000000
0.456522 0.500000 0.000000
0.463768 0.500000 0.000000
0.471014 0.500000 0.000000
0.478261 0.500000 0.000000
0.485507 0.500000 0.000000
0.492754 0.500000 0.000000
0.510004 0.500000 0.000000
0.520408 0.500000 0.000000
0.531229 0.500000 0.000000
0.542483 0.500000 0.000000
0.554187 0.500000 0.000000
0.566359 0.500000 0.000000
0.579019 0.500000 0.000000
0.592185 0.500000 0.000000
0.605877 0.500000 0.000000
0.620118 0.500000 0.000000
0.634929 0.500000 0.000000
0.650332 0.500000 0.000000
0.666352 0.500000 0.000000
0.683013 0.500000 0.000000
0.700340 0.500000 0.000000
0.718361 0.500000 0.000000
0.737103 0.500000 0.000000
0.756595 0.500000 0.000000
0.776867 0.500000 0.000000
0.797950 0.500000 0.000000
0.819877 0.500000 0.000000
0.842681 0.500000 0.000000
0.866398 0.500000 0.000000
0.891064 0.500000 0.000000
0.916716 0.500000 0.000000
0.943396 0.500000 0.000000
0.971143 0.500000 0.000000
0.000000 0.470588 0.000000
0.000000 0.441176 0.000000
0.000000 0.411765 0.000000
0.000000 0.382353 0.000000
0.000000 0.352941 0.000000
0.000000 0.323529 0.000000
0.000000 0.294118 0.000000
0.000000 0.264706 0.000000
0.000000 0.235294 0.000000
0.000000 0.205882 0.000000
0.000000 0.176471 0.000000
0.000000 0.147059 0.000000
0.000000 0.117647 0.000000
0.000000 0.088235 0.000000
0.000000 0.058824 0.000000
0.000000 0.029412 0.000000
0.500341 0.497365 0.000000
0.501682 0.495729 0.000000
0.503023 0.494094 0.000000
0.504365 0.492458 0.000000
0.505706 0.490823 0.000000
0.507047 0.489187 0.000000
0.508388 0.487552 0.000000
0.509729 0.485916 0.000000
0.511070 0.484281 0.000000
0.512411 0.482645 0.000000
0.513753 0.481010 0.000000
0.515094 0.479375 0.000000
0.516435 0.477739 0.000000
0.517776 0.476104 0.000000
0.519117 0.474468 0.000000
0.520458 0.472833 0.000000
0.521799 0.471197 0.000000
0.523140 0.469562 0.000000
0.524482 0.467926 0.000000
0.525823 0.466291 0.000000
0.527164 0.464656 0.000000
0.528505 0.463020 0.000000
0.529846 0.461385 0.000000
0.531187 0.459749 0.000000
0.532528 0.458114 0.000000
0.533870 0.456478 0.000000
0.535211 0.454843 0.000000
0.536552 0.453207 0.000000
0.537893 0.451572 0.000000
0.539234 0.449936 0.000000
0.540575 0.448301 0.000000
0.541916 0.446666 0.000000
0.543258 0.445030 0.000000
0.544599 0.443395 0.000000
0.545940 0.441759 0.000000
0.547281 0.440124 0.000000
0.548622 0.438488 0.000000
0.549963 0.436853 0.000000
0.551304 0.435217 0.000000
0.552645 0.433582 0.000000
0.553987 0.431946 0.000000
0.555328 0.430311 0.000000
0.556669 0.428676 0.000000
0.558010 0.427040 0.000000
0.559351 0.425405 0.000000
0.560692 0.423769 0.000000
0.562033 0.422134 0.000000
0.563375 0.420498 0.000000
0.564716 0.418863 0.000000
0.566057 0.417227 0.000000
0.567398 0.415592 0.000000
0.568739 0.413957 0.000000
0.570080 0.412321 0.000000
0.571421 0.410686 0.000000
0.572763 0.409050 0.000000
0.574104 0.407415 0.000000
0.575445 0.405779 0.000000
0.576786 0.404144 0.000000
0.578127 0.402508 0.000000
0.579468 0.400873 0.000000
0.580809 0.399237 0.000000
0.582151 0.397602 0.000000
0.583492 0.395967 0.000000
0.584833 0.394331 0.000000
0.586174 0.392696 0.000000
0.587515 0.391060 0.000000
0.588856 0.389425 0.000000
0.590197 0.387789 0.000000
0.591538 0.386154 0.000000
0.592880 0.384518 0.000000
0.594221 0.382883 0.000000
0.595562 0.381247 0.000000
0.596903 0.379612 0.000000
0.598244 0.377977 0.000000
0.599585 0.376341 0.000000
0.600926 0.374706 0.000000
0.602268 0.373070 0.000000
0.603609 0.371435 0.000000
0.604950 0.369799 0.000000
0.606291 0.368164 0.000000
0.607632 0.366528 0.000000
0.608973 0.364893 0.000000
0.610314 0.363258 0.000000
0.611656 0.361622 0.000000
0.612997 0.359987 0.000000
0.614338 0.358351 0.000000
0.615679 0.356716 0.000000
0.617020 0.355080 0.000000
0.618361 0.353445 0.000000
0.619702 0.351809 0.000000
0.621043 0.350174 0.000000
0.622385 0.348538 0.000000
0.623726 0.346903 0.000000
0.625067 0.345268 0.000000
0.626408 0.343632 0.000000
0.627749 0.341997 0.000000
0.629090 0.340361 0.000000
0.630431 0.338726 0.000000
0.631773 0.337090 0.000000
0.633114 0.335455 0.000000
0.634455 0.333819 0.000000
0.635796 0.332184 0.000000
0.637137 0.330548 0.000000
0.638478 0.328913 0.000000
0.639819 0.327278 0.000000
0.641161 0.325642 0.000000
0.642502 0.324007 0.000000
0.643843 0.322371 0.000000
0.645184 0.320736 0.000000
0.646525 0.319100 0.000000
0.647866 0.317465 0.000000
0.649207 0.315829 0.000000
0.650548 0.314194 0.000000
0.651890 0.312559 0.000000
0.653231 0.310923 0.000000
0.654572 0.309288 0.000000
0.655913 0.307652 0.000000
0.657254 0.306017 0.000000
0.658595 0.304381 0.000000
0.659936 0.302746 0.000000
0.661278 0.301110 0.000000
0.662619 0.299475 0.000000
0.663960 0.297839 0.000000
0.665301 0.296204 0.000000
0.666642 0.294569 0.000000
0.667983 0.292933 0.000000
0.669324 0.291298 0.000000
0.670666 0.289662 0.000000
0.672007 0.288027 0.000000
0.673348 0.286391 0.000000
0.674689 0.284756 0.000000
0.676030 0.283120 0.000000
0.677371 0.281485 0.000000
[...]
POINT_DATA 7341
SCALARS UX float 1
LOOKUP_TABLE default
0.000000
0.000000
0.138000
0.138000
0.070427
0.058912
0.056333
0.056098
0.000522
-0.000000
0.000000
0.000000
0.000000
0.000000
0.000000
0.000000
0.000000
0.000000
0.000000
0.000000
0.000000
0.000000
0.000000
0.000000
0.000000
0.000000
0.000000
0.000000
0.000000
0.000000
0.000000
0.000000
0.000000
0.000000
0.000000
0.000000
0.000000
0.000000
0.000000
0.000000
0.000000
-0.000000
0.003355
0.005132
0.006928
0.008908
0.011139
0.013581
0.016256
0.018996
0.022012
0.025179
0.028515
0.032042
0.035763
0.039817
0.044455
0.049634
0.063444
0.069619
0.075222
0.080278
0.085070
0.089760
0.094307
0.098768
0.103190
0.107595
0.111967
0.116324
0.120671
0.125008
0.129341
0.133673
0.138000
0.138000
0.138000
0.138000
0.138000
0.138000
0.138000
0.138000
0.138000
0.138000
0.138000
0.138000
0.138000
0.138000
0.138000
0.138000
0.138000
0.138000
0.138000
0.138000
0.138000
0.138000
0.138000
0.138000
0.138000
0.138000
0.138000
0.138000
0.138000
0.138000
0.138000
0.138000
0.138000
0.133927
0.129860
0.125791
0.121740
0.117693
0.113671
0.109653
0.105666
0.101704
0.097755
0.093852
0.089976
0.086123
0.082283
0.078438
0.074510
0.069348
0.068676
0.067828
0.067076
0.066643
0.066567
0.066276
0.066490
0.064926
0.064007
0.064222
0.064685
0.064403
0.066236
0.066482
0.068137
0.063179
0.065878
0.066432
0.066753
0.066479
0.066568
0.063652
0.064006
0.064095
0.065299
0.062379
0.062779
0.062975
0.063289
0.064339
0.064986
0.065336
0.066146
0.064459
0.064897
0.064348
0.060420
0.063594
0.060636
0.060927
0.056529
0.057635
0.058761
0.055222
0.055732
0.056374
0.056869
0.057733
0.055026
0.058930
0.057943
0.059410
0.058343
0.060195
0.059197
0.060779
0.060371
0.060040
0.059505
0.061340
0.061046
0.060798
0.059784
0.060885
0.059138
0.060063
0.059455
0.057840
0.057251
0.056781
0.056442
0.056075
0.055610
0.055073
0.055052
0.054716
0.054701
0.054442
0.054426
0.054404
0.054393
0.054383
0.054401
0.054419
0.054447
0.054491
0.054558
0.054651
0.054775
0.054936
0.055137
0.055378
0.055669
0.055988
0.054583
0.048818
0.044100
0.039966
0.036523
0.033346
0.030494
0.027730
0.025098
0.022450
0.019716
0.016819
0.013795
0.010640
0.007267
0.004023
0.054526
0.052482
0.051527
0.050640
0.049981
0.049313
0.048786
0.048320
0.047798
0.047303
0.046866
0.046479
0.046111
0.045762
0.045432
0.045137
0.044856
0.044554
0.044285
0.044018
0.043755
0.043507
0.043271
0.043036
0.042798
0.042572
0.042348
0.042128
0.041915
0.041704
0.041496
0.041291
0.041088
0.040888
0.040689
0.040492
0.040296
0.040101
0.039907
0.039714
0.039521
0.039330
0.039138
0.038948
0.038757
0.038566
0.038375
0.038185
0.037994
0.037804
0.037613
0.037423
0.037232
0.037041
0.036850
0.036659
0.036467
0.036275
0.036083
0.035891
0.035699
0.035506
0.035313
0.035120
0.034926
0.034732
0.034538
0.034344
0.034149
0.033954
0.033759
0.033564
0.033368
0.033173
0.032976
0.032780
0.032584
0.032388
0.032191
0.031995
0.031797
0.031600
0.031403
0.031206
0.031009
0.030811
0.030613
0.030416
0.030218
0.030021
0.029823
0.029626
0.029429
0.029231
0.029033
0.028836
0.028638
0.028441
0.028244
0.028047
0.027850
0.027653
0.027456
0.027259
0.027063
0.026867
0.026672
0.026477
0.026281
0.026086
0.025891
0.025695
0.025500
0.025305
0.025111
0.024914
0.024719
0.024523
0.024328
0.024133
0.023938
0.023744
0.023549
0.023356
0.023163
0.022971
0.022779
0.022587
0.022396
0.022206
0.022016
0.021826
0.021638
0.021449
0.021261
0.021074
0.020887
0.020701
0.020516
0.020331
0.020146
0.019963
0.019780
0.019597
0.019415
0.019234
0.019054
0.018874
0.018695
0.018516
0.018338
0.018160
0.017983
0.017808
0.017633
0.017458
0.017285
0.017113
0.016941
0.016769
0.016599
0.016430
0.016261
0.016092
0.015925
0.015757
0.015591
0.015425
0.015260
0.015095
0.014931
0.014768
0.014606
0.014444
0.014283
0.014122
0.013963
0.013804
0.013645
0.013488
0.013331
0.013175
0.013019
0.012865
0.012711
0.012557
0.012405
0.012253
0.012102
0.011953
0.011803
0.011655
0.011507
0.011360
0.011214
0.011069
0.010925
0.010781
0.010638
0.010496
0.010355
0.010215
0.010075
0.009937
0.009799
0.009662
0.009526
0.009391
0.009256
0.009123
0.008990
0.008858
0.008727
0.008598
0.008468
0.008340
0.008213
0.008087
0.007961
0.007837
0.007713
0.007590
0.007468
0.007348
0.007228
0.007108
0.006990
0.006873
0.006756
0.006641
0.006526
0.006412
0.006299
0.006187
0.006076
0.005966
0.005857
0.005749
0.005641
0.005535
0.005429
0.005324
0.005220
0.005117
0.005015
0.004914
0.004814
0.004715
0.004617
0.004519
0.004423
0.004327
0.004233
0.004139
0.004046
0.003954
0.003863
0.003773
0.003683
0.003595
0.003507
0.003420
0.003334
0.003249
0.003165
0.003081
0.002998
0.002916
0.002834
0.002753
0.002673
0.002593
0.002514
0.002436
0.002358
0.002280
0.002203
0.002127
0.002051
0.001975
0.001900
0.001825
0.001750
0.001674
0.001600
0.001525
0.001449
0.001373
0.001296
0.001220
0.001141
0.001062
0.000983
0.000904
0.000825
0.000746
0.000668
0.000596
0.047849
0.045732
0.046307
0.001652
0.001222
0.049039
0.001156
0.048914
0.050204
0.024501
0.049026
0.001177
0.029742
0.051524
0.012671
0.021484
0.049281
0.001059
0.002427
0.047149
0.006165
0.055893
0.050070
0.012571
0.047837
0.042761
0.058668
0.035238
0.049039
0.048469
0.002906
0.046988
0.045754
0.049712
0.049996
0.000827
0.049808
0.002713
0.049144
0.001335
0.046396
0.045851
0.046246
0.054620
0.001588
0.051530
0.001262
0.049621
0.053832
0.061276
0.001122
0.049633
0.008028
0.039351
0.001095
0.049372
0.049158
0.035757
0.048732
0.048912
0.015575
0.018446
0.001181
0.001180
0.047177
0.048285
0.026893
0.043608
0.049403
0.001168
0.049062
0.001175
0.027950
0.001367
0.046736
0.018631
0.001814
0.049366
0.009281
0.002028
0.004980
0.000870
0.001597
0.046333
0.047581
0.048999
0.046121
0.045667
0.046084
0.049853
0.053186
0.050736
0.049515
0.049625
0.049850
0.050229
0.059878
0.057974
0.057473
0.057068
0.050177
0.001081
0.050218
0.053833
0.044486
0.044719
0.002860
0.046263
0.002479
0.047690
0.027207
0.002334
0.028596
0.048419
0.015609
0.047622
0.002102
0.044819
0.006132
0.036049
0.046667
0.020445
0.003526
0.046250
0.049820
0.001957
0.048281
0.046949
0.044358
0.055339
0.008331
0.043936
0.050580
0.051311
0.000896
0.048046
0.050182
0.000941
0.050172
0.049712
0.010272
0.049629
0.001067
0.041854
0.048693
0.049422
0.004239
0.049224
0.033054
0.020992
0.049098
0.049028
0.001110
0.049017
0.002430
0.049028
0.047759
0.001159
0.031384
0.001181
0.048910
0.047301
0.039009
0.001460
0.024495
0.049255
0.047076
0.002096
0.015707
0.005380
0.002753
0.004647
0.046576
0.046517
0.047114
0.046142
0.045289
0.045445
0.045589
0.045496
0.048294
0.049237
0.049933
0.050013
0.049791
0.051412
0.050831
0.053010
0.052677
0.054677
0.055685
0.051347
0.058463
0.055619
0.059562
0.048903
0.050725
0.049469
0.013042
0.003687
0.045742
0.045334
0.013324
0.045865
0.045069
0.047072
0.047375
0.049895
0.003213
0.045443
0.023408
0.044514
0.044313
0.004309
0.005273
0.001762
0.044815
0.053837
0.002056
0.053876
0.044541
0.048498
0.031342
0.046805
0.044225
0.051253
0.046940
0.002393
0.038638
0.046291
0.046371
0.048709
0.002118
0.031418
0.045566
0.002478
0.044917
0.021431
0.018202
0.002534
0.045370
0.026130
0.048789
0.002277
0.002364
0.002996
0.048845
0.002094
0.007718
0.045782
0.045972
0.047552
0.044654
0.044973
0.003881
0.038882
0.024199
0.017682
0.049250
0.014600
0.011586
0.002381
0.007603
0.004902
0.044512
0.044321
0.044288
0.044861
0.045251
0.002082
0.044315
0.045823
0.049830
0.045959
0.047312
0.047480
0.054029
0.057108
0.047974
0.047984
0.047647
0.044322
0.055926
0.052408
0.048685
0.048962
0.048039
0.047931
0.048164
0.010763
0.004152
0.050605
0.048000
0.048494
0.046555
0.052931
0.043862
0.043889
0.045148
0.004261
0.042015
0.024121
0.003597
0.025706
0.046917
0.003165
0.005899
0.041175
0.007103
0.039285
0.003011
0.044812
0.016886
0.043666
0.044875
0.052318
0.003826
0.047432
0.005082
0.047057
0.029439
0.045936
0.045629
0.002576
0.045579
0.046627
0.044892
0.022442
0.044906
0.003500
0.045231
0.044484
0.045096
0.015127
0.044381
0.030748
0.034856
0.047260
0.004699
0.048143
0.013709
0.010631
0.007644
0.007887
0.045175
0.045460
0.003796
0.003863
0.044920
0.004781
0.044602
0.044273
0.041811
0.045439
0.047847
0.047090
0.044201
0.010187
0.053447
0.044897
0.053097
0.047751
0.043663
0.002164
0.046129
0.046228
0.053075
0.033680
0.057543
0.046757
0.056058
0.050091
0.045864
0.050106
0.047686
0.048000
0.047305
0.011768
0.009224
0.046959
0.047098
0.045001
0.051375
0.047623
0.047455
0.048380
0.053376
0.006942
0.005387
0.039488
0.004832
0.042857
0.044959
0.043550
0.014885
0.024653
0.043944
0.045887
0.002996
0.043817
0.045234
0.043545
0.047165
0.046979
0.042612
0.044415
0.005059
0.016074
0.006310
0.048744
0.044740
0.036837
0.010115
0.003414
0.004292
0.011657
0.043684
0.043549
0.003187
0.005892
0.021934
0.045061
0.046604
0.044559
0.035068
0.040228
0.042703
0.049879
0.046193
0.047608
0.043580
0.008753
0.005484
0.044569
0.041530
0.026781
0.044226
0.043954
0.006876
0.033749
0.046308
0.040905
0.047726
0.013282
0.041734
0.004696
0.003592
0.028369
0.041690
0.019809
0.010520
0.044998
0.045835
0.045343
0.017207
0.043500
0.003622
0.044017
0.043540
0.042642
0.003207
0.051632
0.045598
0.059380
0.044536
0.049291
0.047201
0.045462
0.045708
0.047314
0.051482
0.047423
0.046617
0.048963
0.002913
0.046667
0.046899
0.043502
0.046196
0.044325
0.050975
0.046754
0.043155
0.043154
0.044328
0.026378
0.041832
0.004172
0.042547
0.010150
0.035537
0.006824
0.043061
0.003852
0.038707
0.047194
0.004842
0.044044
0.043822
0.045705
0.043926
0.043742
0.002891
0.016652
0.019002
0.004623
0.005182
0.043540
0.045045
0.003907
0.042132
0.045223
0.046530
0.046494
0.042346
0.050244
0.046748
0.027397
0.007571
0.022033
0.039133
0.008037
0.009416
0.043071
0.005468
0.015472
0.003332
0.045641
0.037644
0.042205
0.039356
0.041146
0.012723
0.019638
0.006712
0.005992
0.044900
0.021470
0.044081
0.046080
0.033051
0.038167
0.047686
0.043058
0.043474
0.046442
0.044081
0.049533
0.042918
0.044973
0.046925
0.046731
0.013323
0.005631
0.045880
0.049412
0.044225
0.050431
0.043611
0.043509
0.044908
0.004045
0.004716
0.044676
0.042031
0.046675
0.046616
0.043705
0.047600
0.008926
0.050330
0.040993
0.045939
0.043683
0.032188
0.046038
0.043638
0.046586
0.046361
0.044468
0.042912
0.007358
0.037384
0.005780
0.040837
0.016366
0.008845
0.035202
0.026862
0.010286
0.003698
0.042962
0.042400
0.006534
0.029143
0.042961
0.042863
0.004396
0.036604
0.040425
0.008978
0.042959
0.044059
0.004513
0.046041
0.045118
0.042938
0.043264
0.044163
0.041254
0.042983
0.048122
0.043340
0.043256
0.045088
0.030441
0.043236
0.018800
0.048331
0.021059
0.038580
0.008701
0.046519
0.038222
0.006439
0.002101
0.004721
0.004950
0.043003
0.005774
0.045199
0.004975
0.047201
0.011830
0.011391
0.023720
0.012942
0.004268
0.018197
0.006983
0.046057
0.045883
0.046620
0.046102
0.040193
0.044171
0.044716
0.042796
0.036901
0.005964
0.043956
0.042735
0.003848
0.046058
0.044761
0.031746
0.045759
0.045493
0.043598
0.043406
0.044291
0.049076
0.043710
0.005027
0.046053
0.046045
0.046106
0.007874
0.046592
0.045850
0.045246
0.004144
0.044068
0.043111
0.046225
0.048016
0.008629
0.005099
0.011576
0.004702
0.005719
0.024002
0.003663
0.003836
0.042226
0.020285
0.042928
0.044168
0.006167
0.046274
0.037695
0.031695
0.044805
0.007991
0.005036
0.037896
0.006160
0.014510
0.006725
0.008730
0.043358
0.045128
0.045260
0.042360
0.047448
0.011097
0.042187
0.042877
0.045571
0.045617
0.041915
0.018808
0.040467
0.002887
0.035384
0.042374
0.037068
0.036032
0.040681
0.024210
0.044055
0.042737
0.043042
0.042429
0.007663
0.045933
0.004429
0.009886
0.004811
0.045640
0.014497
0.026590
0.034260
0.042919
0.009889
0.007131
0.003637
0.032819
0.043915
0.007648
0.043558
0.044359
0.045456
0.044835
0.042207
0.040016
0.042779
0.042502
0.042725
0.043404
0.043222
0.010152
0.042844
0.043889
0.034188
0.044789
0.045428
0.045459
0.042918
0.048891
0.046259
0.000991
0.043557
0.041156
0.045254
0.006050
0.045807
0.029732
0.042511
0.005499
0.046032
0.041786
0.009593
0.010827
0.035274
0.040010
0.042260
0.014701
0.029196
0.005502
0.041646
0.024420
0.037188
0.003820
0.042196
0.004293
0.003556
0.044724
0.043107
0.042175
0.003057
0.008171
0.044982
0.045166
0.012903
0.038711
0.038204
0.034255
0.006255
0.042948
0.042356
0.042043
0.042016
0.042213
0.021949
0.002175
0.042855
0.003185
0.033540
0.006244
0.045314
0.012884
0.008923
0.044432
0.045450
0.011381
0.046616
0.017612
0.044638
0.042633
0.004644
0.006591
0.044730
0.005262
0.043967
0.005692
0.006302
0.008322
0.042604
0.029026
0.013453
0.035011
0.044136
0.012081
0.045200
0.044369
0.026435
0.043318
0.042091
0.042802
0.042413
0.043660
0.042174
0.041976
0.045261
0.043027
0.032091
0.044778
0.039605
0.042647
0.044850
0.007121
0.042251
0.045011
0.045002
0.023316
0.005213
0.039688
0.033098
0.035957
0.042504
0.009747
0.034171
0.038480
0.013297
0.028686
0.005944
0.006644
0.034222
0.004906
0.031994
0.003091
0.038786
0.041445
0.042281
0.043737
0.007317
0.043346
0.022586
0.044843
0.041890
0.041937
0.010404
0.041708
0.007276
0.044226
0.022293
0.006537
0.041632
0.043567
0.007825
0.004333
0.039252
0.016034
0.039832
0.042242
0.042099
0.041809
0.042044
0.036435
0.009218
0.007550
0.013532
0.044945
0.005621
0.005064
0.008727
0.044247
0.009996
0.015940
0.038550
0.034824
0.002841
0.031077
0.042051
0.042829
0.012691
0.026550
0.044580
0.044717
0.002443
0.043420
0.042768
0.043191
0.041466
0.006821
0.044961
0.042028
0.042889
0.043870
0.041627
0.044295
0.042252
0.042222
0.042179
0.044662
0.001785
0.043548
0.041389
0.025570
0.044741
0.011520
0.044419
0.031335
0.038781
0.041579
0.001439
0.041952
0.042128
0.044847
0.042474
0.031290
0.005468
0.004212
0.044882
0.005816
0.041470
0.040873
0.010793
0.022547
0.034679
0.027751
0.007956
0.038554
0.033365
0.041610
0.006399
0.005782
0.003734
0.044312
0.005444
0.029815
0.041457
0.004754
0.004155
0.043678
0.037351
0.041881
0.012106
0.041553
0.036557
0.002555
0.013363
0.040430
0.008402
0.008762
0.043318
0.009372
0.041456
0.041149
0.042517
0.041283
0.041288
0.024471
0.019663
0.010250
0.041176
0.001688
0.036401
0.007611
0.014638
0.033466
0.043185
0.041220
0.041291
0.028942
0.007641
0.011171
0.041108
0.007430
0.010150
0.003565
0.014678
0.024417
0.006126
0.015492
0.038195
0.044578
0.043883
0.043003
0.042494
0.002289
0.041360
0.044636
0.044508
0.044338
0.043902
0.041461
0.005020
0.041589
0.010378
0.041646
0.041644
0.020157
0.042066
0.006218
0.041164
0.041867
0.043091
0.044555
0.007598
0.040947
0.037837
0.042327
0.004961
0.017682
0.002175
0.005377
0.043934
0.000612
0.006130
0.040289
0.042424
0.043979
0.044124
0.041764
0.030499
0.003240
0.032390
0.041890
0.037210
0.044124
0.044700
0.001532
0.041057
0.012753
0.011419
0.033131
0.022579
0.026735
0.036931
0.013325
0.008483
0.006992
0.007864
0.040717
0.032120
0.015705
0.030413
0.003169
0.040867
0.035835
0.040861
0.004027
0.016032
0.041194
0.009192
0.010417
0.007188
0.001680
0.002022
0.008538
0.039747
0.012593
0.011978
0.006578
0.032391
0.031171
0.008853
0.035858
0.003130
0.041614
0.026435
0.043957
0.043080
0.011661
0.041307
0.020709
0.043425
0.040952
0.041321
0.040918
0.038737
0.009052
0.007552
0.021925
0.015294
0.004314
0.028667
0.036593
0.044312
0.041856
0.040908
0.044289
0.041476
0.041031
0.041228
0.042780
0.037418
0.009599
0.040804
0.041976
0.002209
0.043489
0.041110
0.041343
0.040521
0.044157
0.043742
0.040989
0.041068
0.040689
0.035705
0.005696
0.010504
0.010562
0.044395
0.042757
0.043669
0.041441
0.005255
0.020210
0.041452
0.029628
0.043493
0.017272
0.043993
0.004849
0.044425
0.004703
0.034912
0.041959
0.043355
0.005994
0.018290
0.006626
0.002493
0.040069
0.041206
0.013035
0.010047
0.031566
0.042901
0.035741
0.028775
0.008130
0.006329
0.006605
0.039306
0.006001
0.034366
0.028735
0.021039
0.005136
0.040291
0.033412
0.017685
0.002048
0.040373
0.014507
0.009519
0.041372
0.015581
0.002314
0.017471
0.012112
0.012361
0.016781
0.026386
0.042766
0.007251
0.041946
0.030602
0.040161
0.009361
0.035326
0.009140
0.024445
0.040638
0.008357
0.013261
0.008781
0.003687
0.011016
0.008676
0.014829
0.039862
0.042078
0.040520
0.040705
0.024396
0.037541
0.003585
0.038581
0.040585
0.043291
0.042459
0.006861
0.043677
0.043367
0.011383
0.018982
0.040583
0.040678
0.040761
0.040445
0.009218
0.040138
0.037234
0.040747
0.043367
0.044089
0.011944
0.040766
0.040209
0.039913
0.029455
0.043777
0.043984
0.005791
0.035197
0.004704
0.031594
0.040364
0.027753
0.040005
0.018529
0.044118
0.041140
0.001602
0.043183
0.041041
0.042328
0.041069
0.042167
0.007149
0.043538
0.040413
0.004261
0.043180
0.044185
0.004419
0.043555
0.042331
0.014676
0.042330
0.022588
0.029962
0.014159
0.034530
0.037591
0.007797
0.009016
0.009570
0.030546
0.004335
0.019337
0.040634
0.010677
0.027985
0.003209
0.003165
0.041432
0.040046
0.006195
0.004423
0.036520
0.002106
0.040578
0.036085
0.004795
0.007872
0.039949
0.040099
0.002276
0.033483
0.041456
0.022223
0.006511
0.006713
0.024473
0.014079
0.009562
0.038526
0.043151
0.007808
0.039194
0.031974
0.016044
0.010004
0.042923
0.038856
0.041858
0.013770
0.008662
0.014717
0.042731
0.026955
0.009721
0.042309
0.040173
0.004022
0.040319
0.040166
0.010421
0.012244
0.010487
0.001638
0.018182
0.026480
0.017436
0.013306
0.041896
0.041745
0.006230
0.043174
0.043576
0.039991
0.039792
0.002704
0.040304
0.040887
0.043898
0.042835
0.043870
0.040445
0.043095
0.040527
0.017113
0.020283
0.003780
0.043787
0.008453
0.043231
0.040176
0.012232
0.005095
0.041073
0.043676
0.039874
0.042949
0.026134
0.039615
0.005626
0.043055
0.043385
0.010021
0.043917
0.040989
0.012806
0.040760
0.039529
0.041747
0.014368
0.016169
0.011295
0.022588
0.042986
0.032143
0.041432
0.040319
0.036661
0.009636
0.039164
0.007903
0.039908
0.007947
0.007139
0.037883
0.038964
0.040106
0.017712
0.003695
0.005466
0.039216
0.026299
0.002418
0.002643
0.039268
0.004310
0.014909
0.004742
0.040117
0.019821
0.023845
0.039367
0.001229
0.004758
0.015120
0.041595
0.039910
0.042675
0.041438
0.038696
0.014190
0.008875
0.010167
0.016717
0.017706
0.020764
0.007012
0.011459
0.011528
0.028381
0.042847
0.042644
0.013207
0.039636
0.006418
0.043467
0.039357
0.036345
0.007837
0.038083
0.041586
0.041314
0.043226
0.043586
0.039745
0.018927
0.042506
0.039749
0.042281
0.011172
0.005043
0.038968
0.042005
0.006145
0.005965
0.027955
0.042793
0.043694
0.034867
0.025138
0.006711
0.001895
0.010317
0.039642
0.012368
0.042483
0.003242
0.002726
0.041105
0.006104
0.010463
0.041300
0.042866
0.043200
0.041048
0.037025
0.001690
0.043601
0.020474
0.030580
0.035025
0.002584
0.008710
0.016391
0.015265
0.038711
0.016557
0.041089
0.012451
0.019170
0.029191
0.016441
0.026482
0.010645
0.033921
0.036676
0.042801
0.012417
0.009507
0.029915
0.009025
0.040550
0.042681
0.013963
0.039107
0.004308
0.007058
0.008395
0.006528
0.039052
0.002092
0.006281
0.020366
0.040437
0.003633
0.005101
0.040365
0.003155
0.007237
0.037757
0.002274
0.001407
0.041864
0.039049
0.008603
0.015779
0.035271
0.030816
0.042535
0.035776
0.032244
0.010459
0.040712
0.013339
0.019198
0.042215
0.040148
0.039818
0.004033
0.039106
0.000978
0.014677
0.011126
0.007248
0.041711
0.039707
0.016590
0.026077
0.041053
0.008067
0.038674
0.021126
0.007325
0.015350
0.039143
0.038727
0.043437
0.033658
0.022325
0.042439
0.037723
0.037496
0.040558
0.042845
0.039639
0.043187
0.040136
0.002773
0.041313
0.005238
0.042751
0.006611
0.039047
0.029375
0.036633
0.042459
0.039473
0.043071
0.042172
0.010806
0.003220
0.025030
0.015892
0.039783
0.006354
0.021296
0.011433
0.021692
0.005429
0.040378
0.043494
0.043001
0.041227
0.041641
0.005811
0.007274
0.042083
0.006093
0.038406
0.001446
0.037336
0.023618
0.011844
0.040812
0.006500
0.042575
0.038446
0.015867
0.025132
0.029568
0.012516
0.035862
0.009611
0.041144
0.008657
0.041156
0.007656
0.033568
0.036404
0.013341
0.007075
0.042118
0.015323
0.042121
0.039146
0.019686
0.002813
0.031681
0.040628
0.006828
0.012281
0.039895
0.039649
0.016641
0.005719
0.038417
0.028626
0.000941
0.042950
0.009334
0.006604
0.003560
0.042603
0.002358
0.004987
0.011484
0.011050
0.001239
0.004391
0.037987
0.038104
0.037595
0.005875
0.018259
0.022515
0.018263
0.018659
0.041577
0.035395
0.026431
0.042469
0.039304
0.016121
0.002662
0.030985
0.039592
0.019836
0.040675
0.006833
0.023420
0.004675
0.007966
0.023609
0.007338
0.014341
0.001535
0.001841
0.021654
0.040759