# vtk DataFile Version 2.0
Test
ASCII
DATASET POLYDATA
POINTS 7341 float
0.000000 0.000000 0.000000
1.000000 0.000000 0.000000
1.000000 1.000000 0.000000
0.000000 1.000000 0.000000
0.000000 0.500000 0.000000
0.500000 0.500000 0.000000
1.000000 0.500000 0.000000
0.499000 0.499000 0.000000
0.900000 0.010000 0.000000
0.029412 0.000000 0.000000
0.058824 0.000000 0.000000
0.088235 0.000000 0.000000
0.117647 0.000000 0.000000
0.147059 0.000000 0.000000
0.176471 0.000000 0.000000
0.205882 0.000000 0.000000
0.235294 0.000000 0.000000
0.264706 0.000000 0.000000
0.294118 0.000000 0.000000
0.323529 0.000000 0.000000
0.352941 0.000000 0.000000
0.382353 0.000000 0.000000
0.411765 0.000000 0.000000
0.441176 0.000000 0.000000
0.470588 0.000000 0.000000
0.500000 0.000000 0.000000
0.529412 0.000000 0.000000
0.558824 0.000000 0.000000
0.588235 0.000000 0.000000
0.617647 0.000000 0.000000
0.647059 0.000000 0.000000
0.676471 0.000000 0.000000
0.705882 0.000000 0.000000
0.735294 0.000000 0.000000
0.764706 0.000000 0.000000
0.794118 0.000000 0.000000
0.823529 0.000000 0.000000
0.852941 0.000000 0.000000
0.882353 0.000000 0.000000
0.911765 0.000000 0.000000
0.941176 0.000000 0.000000
0.970588 0.000000 0.000000
1.000000 0.029412 0.000000
1.000000 0.058824 0.000000
1.000000 0.088235 0.000000
1.000000 0.117647 0.000000
1.000000 0.147059 0.000000
1.000000 0.176471 0.000000
1.000000 0.205882 0.000000
1.000000 0.235294 0.000000
1.000000 0.264706 0.000000
1.000000 0.294118 0.000000
1.000000 0.323529 0.000000
1.000000 0.352941 0.000000
1.000000 0.382353 0.000000
1.000000 0.411765 0.000000
1.000000 0.441176 0.000000
1.000000 0.470588 0.000000
1.000000 0.529412 0.000000
1.000000 0.558824 0.000000
1.000000 0.588235 0.000000
1.000000 0.617647 0.000000
1.000000 0.647059 0.000000
1.000000 0.676471 0.000000
1.000000 0.705882 0.000000
1.000000 0.735294 0.000000
1.000000 0.764706 0.000000
1.000000 0.794118 0.000000
1.000000 0.823529 0.000000
1.000000 0.852941 0.000000
1.000000 0.882353 0.000000
1.000000 0.911765 0.000000
1.000000 0.941176 0.000000
1.000000 0.970588 0.000000
0.970588 1.000000 0.000000
0.941176 1.000000 0.000000
0.911765 1.000000 0.000000
0.882353 1.000000 0.000000
0.852941 1.000000 0.000000
0.823529 1.000000 0.000000
0.794118 1.000000 0.000000
0.764706 1.000000 0.000000
0.735294 1.000000 0.000000
0.705882 1.000000 0.000000
0.676471 1.000000 0.000000
0.647059 1.000000 0.000000
0.617647 1.000000 0.000000
0.588235 1.000000 0.000000
0.558824 1.000000 0.000000
0.529412 1.000000 0.000000
0.500000 1.000000 0.000000
0.470588 1.000000 0.000000
0.441176 1.000000 0.000000
0.411765 1.000000 0.000000
0.382353 1.000000 0.000000
0.352941 1.000000 0.000000
0.323529 1.000000 0.000000
0.294118 1.000000 0.000000
0.264706 1.000000 0.000000
0.235294 1.000000 0.000000
0.205882 1.000000 0.000000
0.176471 1.000000 0.000000
0.147059 1.000000 0.000000
0.117647 1.000000 0.000000
0.088235 1.000000 0.000000
0.058824 1.000000 0.000000
0.029412 1.000000 0.000000
0.000000 0.970588 0.000000
0.000000 0.941176 0.000000
0.000000 0.911765 0.000000
0.000000 0.882353 0.000000
0.000000 0.852941 0.000000
0.000000 0.823529 0.000000
0.000000 0.794118 0.000000
0.000000 0.764706 0.000000
0.000000 0.735294 0.000000
0.000000 0.705882 0.000000
0.000000 0.676471 0.000000
0.000000 0.647059 0.000000
0.000000 0.617647 0.000000
0.000000 0.588235 0.000000
0.000000 0.558824 0.000000
0.000000 0.529412 0.000000
0.007246 0.500000 0.000000
0.014493 0.500000 0.000000
0.021739 0.500000 0.000000
0.028986 0.500000 0.000000
0.036232 0.500000 0.000000
0.043478 0.500000 0.000000
0.050725 0.500000 0.000000
0.057971 0.500000 0.000000
0.065217 0.500000 0.000000
0.072464 0.500000 0.000000
0.079710 0.500000 0.000000
0.086957 0.500000 0.000000
0.094203 0.500000 0.000000
0.101449 0.500000 0.000000
0.108696 0.500000 0.000000
0.115942 0.500000 0.000000
0.123188 0.500000 0.000000
0.130435 0.500000 0.000000
0.137681 0.500000 0.000000
0.144928 0.500000 0.000000
0.152174 0.500000 0.000000
0.159420 0.500000 0.000000
0.166667 0.500000 0.000000
0.173913 0.500000 0.000000
0.181159 0.500000 0.000000
0.188406 0.500000 0.000000
0.195652 0.500000 0.000000
0.202899 0.500000 0.000000
0.210145 0.500000 0.000000
0.217391 0.500000 0.000000
0.224638 0.500000 0.000000
0.231884 0.500000 0.000000
0.239130 0.500000 0.000000
0.246377 0.500000 0.000000
0.253623 0.500000 0.000000
0.260870 0.500000 0.000000
0.268116 0.500000 0.000000
0.275362 0.500000 0.000000
0.282609 0.500000 0.000000
0.289855 0.500000 0.000000
0.297101 0.500000 0.000000
0.304348 0.500000 0.000000
0.311594 0.500000 0.000000
0.318841 0.500000 0.000000
0.326087 0.500000 0.000000
0.333333 0.500000 0.000000
0.340580 0.500000 0.000000
0.347826 0.500000 0.000000
0.355072 0.500000 0.000000
0.362319 0.500000 0.000000
0.369565 0.500000 0.000000
0.376812 0.500000 0.000000
0.384058 0.500000 0.000000
0.391304 0.500000 0.000000
0.398551 0.500000 0.000000
0.405797 0.500000 0.000000
0.413043 0.500000 0.000000
0.420290 0.500000 0.000000
0.427536 0.500000 0.000000
0.434783 0.500000 0.000000
0.442029 0.500000 0.000000
0.449275 0.500000 0.000000
0.456522 0.500000 0.000000
0.463768 0.500000 0.000000
0.471014 0.500000 0.000000
0.478261 0.500000 0.000000
0.485507 0.500000 0.000000
0.492754 0.500000 0.000000
0.510004 0.500000 0.000000
0.520408 0.500000 0.000000
0.531229 0.500000 0.000000
0.542483 0.500000 0.000000
0.554187 0.500000 0.000000
0.566359 0.500000 0.000000
0.579019 0.500000 0.000000
0.592185 0.500000 0.000000
0.605877 0.500000 0.000000
0.620118 0.500000 0.000000
0.634929 0.500000 0.000000
0.650332 0.500000 0.000000
0.666352 0.500000 0.000000
0.683013 0.500000 0.000000
0.700340 0.500000 0.000000
0.718361 0.500000 0.000000
0.737103 0.500000 0.000000
0.756595 0.500000 0.000000
0.776867 0.500000 0.000000
0.797950 0.500000 0.000000
0.819877 0.500000 0.000000
0.842681 0.500000 0.000000
0.866398 0.500000 0.000000
0.891064 0.500000 0.000000
0.916716 0.500000 0.000000
0.943396 0.500000 0.000000
0.971143 0.500000 0.000000
0.000000 0.470588 0.000000
0.000000 0.441176 0.000000
0.000000 0.411765 0.000000
0.000000 0.382353 0.000000
0.000000 0.352941 0.000000
0.000000 0.323529 0.000000
0.000000 0.294118 0.000000
0.000000 0.264706 0.000000
0.000000 0.235294 0.000000
0.000000 0.205882 0.000000
0.000000 0.176471 0.000000
0.000000 0.147059 0.000000
0.000000 0.117647 0.000000
0.000000 0.088235 0.000000
0.000000 0.058824 0.000000
0.000000 0.029412 0.000000
0.500341 0.497365 0.000000
0.501682 0.495729 0.000000
0.503023 0.494094 0.000000
0.504365 0.492458 0.000000
0.505706 0.490823 0.000000
0.507047 0.489187 0.000000
0.508388 0.487552 0.000000
0.509729 0.485916 0.000000
0.511070 0.484281 0.000000
0.512411 0.482645 0.000000
0.513753 0.481010 0.000000
0.515094 0.479375 0.000000
0.516435 0.477739 0.000000
0.517776 0.476104 0.000000
0.519117 0.474468 0.000000
0.520458 0.472833 0.000000
0.521799 0.471197 0.000000
0.523140 0.469562 0.000000
0.524482 0.467926 0.000000
0.525823 0.466291 0.000000
0.527164 0.464656 0.000000
0.528505 0.463020 0.000000
0.529846 0.461385 0.000000
0.531187 0.459749 0.000000
0.532528 0.458114 0.000000
0.533870 0.456478 0.000000
0.535211 0.454843 0.000000
0.536552 0.453207 0.000000
0.537893 0.451572 0.000000
0.539234 0.449936 0.000000
0.540575 0.448301 0.000000
0.541916 0.446666 0.000000
0.543258 0.445030 0.000000
0.544599 0.443395 0.000000
0.545940 0.441759 0.000000
0.547281 0.440124 0.000000
0.548622 0.438488 0.000000
0.549963 0.436853 0.000000
0.551304 0.435217 0.000000
0.552645 0.433582 0.000000
0.553987 0.431946 0.000000
0.555328 0.430311 0.000000
0.556669 0.428676 0.000000
0.558010 0.427040 0.000000
0.559351 0.425405 0.000000
0.560692 0.423769 0.000000
0.562033 0.422134 0.000000
0.563375 0.420498 0.000000
0.564716 0.418863 0.000000
0.566057 0.417227 0.000000
0.567398 0.415592 0.000000
0.568739 0.413957 0.000000
0.570080 0.412321 0.000000
0.571421 0.410686 0.000000
0.572763 0.409050 0.000000
0.574104 0.407415 0.000000
0.575445 0.405779 0.000000
0.576786 0.404144 0.000000
0.578127 0.402508 0.000000
0.579468 0.400873 0.000000
0.580809 0.399237 0.000000
0.582151 0.397602 0.000000
0.583492 0.395967 0.000000
0.584833 0.394331 0.000000
0.586174 0.392696 0.000000
0.587515 0.391060 0.000000
0.588856 0.389425 0.000000
0.590197 0.387789 0.000000
0.591538 0.386154 0.000000
0.592880 0.384518 0.000000
0.594221 0.382883 0.000000
0.595562 0.381247 0.000000
0.596903 0.379612 0.000000
0.598244 0.377977 0.000000
0.599585 0.376341 0.000000
0.600926 0.374706 0.000000
0.602268 0.373070 0.000000
0.603609 0.371435 0.000000
0.604950 0.369799 0.000000
0.606291 0.368164 0.000000
0.607632 0.366528 0.000000
0.608973 0.364893 0.000000
0.610314 0.363258 0.000000
0.611656 0.361622 0.000000
0.612997 0.359987 0.000000
0.614338 0.358351 0.000000
0.615679 0.356716 0.000000
0.617020 0.355080 0.000000
0.618361 0.353445 0.000000
0.619702 0.351809 0.000000
0.621043 0.350174 0.000000
0.622385 0.348538 0.000000
0.623726 0.346903 0.000000
0.625067 0.345268 0.000000
0.626408 0.343632 0.000000
0.627749 0.341997 0.000000
0.629090 0.340361 0.000000
0.630431 0.338726 0.000000
0.631773 0.337090 0.000000
0.633114 0.335455 0.000000
0.634455 0.333819 0.000000
0.635796 0.332184 0.000000
0.637137 0.330548 0.000000
0.638478 0.328913 0.000000
0.639819 0.327278 0.000000
0.641161 0.325642 0.000000
0.642502 0.324007 0.000000
0.643843 0.322371 0.000000
0.645184 0.320736 0.000000
0.646525 0.319100 0.000000
0.647866 0.317465 0.000000
0.649207 0.315829 0.000000
0.650548 0.314194 0.000000
0.651890 0.312559 0.000000
0.653231 0.310923 0.000000
0.654572 0.309288 0.000000
0.655913 0.307652 0.000000
0.657254 0.306017 0.000000
0.658595 0.304381 0.000000
0.659936 0.302746 0.000000
0.661278 0.301110 0.000000
0.662619 0.299475 0.000000
0.663960 0.297839 0.000000
0.665301 0.296204 0.000000
0.666642 0.294569 0.000000
0.667983 0.292933 0.000000
0.669324 0.291298 0.000000
0.670666 0.289662 0.000000
0.672007 0.288027 0.000000
0.673348 0.286391 0.000000
0.674689 0.284756 0.000000
0.676030 0.283120 0.000000
0.677371 0.281485 0.000000
[...]
POINT_DATA 7341
SCALARS UX float 1
LOOKUP_TABLE default
0.000000
0.000000
0.028000
0.028000
0.012935
0.010566
0.011557
0.010359
0.000131
0.000000
0.000000
0.000000
0.000000
0.000000
0.000000
0.000000
0.000000
0.000000
0.000000
0.000000
0.000000
0.000000
0.000000
0.000000
0.000000
0.000000
0.000000
0.000000
0.000000
0.000000
0.000000
0.000000
0.000000
0.000000
0.000000
0.000000
0.000000
0.000000
0.000000
0.000000
0.000000
-0.000000
0.000943
0.001517
0.002023
0.002521
0.003043
0.003583
0.004158
0.004742
0.005375
0.006038
0.006735
0.007466
0.008224
0.009018
0.009843
0.010687
0.012461
0.013383
0.014311
0.015256
0.016211
0.017169
0.018137
0.019112
0.020089
0.021069
0.022054
0.023041
0.024030
0.025020
0.026012
0.027006
0.028000
0.028000
0.028000
0.028000
0.028000
0.028000
0.028000
0.028000
0.028000
0.028000
0.028000
0.028000
0.028000
0.028000
0.028000
0.028000
0.028000
0.028000
0.028000
0.028000
0.028000
0.028000
0.028000
0.028000
0.028000
0.028000
0.028000
0.028000
0.028000
0.028000
0.028000
0.028000
0.028000
0.027050
0.026102
0.025155
0.024214
0.023276
0.022346
0.021419
0.020502
0.019595
0.018690
0.017797
0.016910
0.016031
0.015161
0.014292
0.013457
0.012691
0.012514
0.012260
0.012058
0.011948
0.011896
0.011849
0.011811
0.011559
0.011385
0.011428
0.011363
0.011262
0.011304
0.011243
0.011439
0.010974
0.011087
0.011128
0.011194
0.011157
0.011178
0.010924
0.010962
0.011011
0.011195
0.010808
0.010886
0.010891
0.010880
0.010962
0.010901
0.010880
0.010958
0.010703
0.010842
0.010902
0.010600
0.010859
0.010591
0.010723
0.010528
0.010639
0.010733
0.010539
0.010590
0.010616
0.010632
0.010669
0.010402
0.010697
0.010534
0.010657
0.010470
0.010640
0.010480
0.010637
0.010568
0.010527
0.010447
0.010640
0.010600
0.010598
0.010504
0.010652
0.010485
0.010611
0.010586
0.010521
0.010514
0.010516
0.010526
0.010536
0.010543
0.010552
0.010563
0.010574
0.010588
0.010603
0.010621
0.010641
0.010663
0.010689
0.010719
0.010752
0.010791
0.010834
0.010882
0.010937
0.010999
0.011069
0.011147
0.011235
0.011335
0.011441
0.010335
0.009384
0.008610
0.007920
0.007300
0.006698
0.006125
0.005560
0.005020
0.004494
0.003978
0.003463
0.002957
0.002446
0.001875
0.001255
0.010193
0.010038
0.009956
0.009884
0.009834
0.009776
0.009724
0.009671
0.009614
0.009563
0.009513
0.009462
0.009413
0.009364
0.009315
0.009267
0.009219
0.009172
0.009125
0.009078
0.009032
0.008986
0.008940
0.008895
0.008850
0.008805
0.008760
0.008715
0.008671
0.008626
0.008582
0.008538
0.008494
0.008450
0.008407
0.008363
0.008319
0.008276
0.008233
0.008189
0.008146
0.008103
0.008059
0.008017
0.007974
0.007931
0.007888
0.007845
0.007802
0.007759
0.007717
0.007674
0.007631
0.007589
0.007547
0.007504
0.007462
0.007420
0.007378
0.007335
0.007293
0.007252
0.007210
0.007168
0.007126
0.007085
0.007043
0.007001
0.006960
0.006919
0.006877
0.006836
0.006795
0.006754
0.006713
0.006672
0.006632
0.006591
0.006550
0.006510
0.006469
0.006429
0.006388
0.006348
0.006308
0.006268
0.006228
0.006188
0.006148
0.006108
0.006069
0.006029
0.005990
0.005950
0.005911
0.005872
0.005833
0.005794
0.005755
0.005716
0.005677
0.005639
0.005600
0.005561
0.005523
0.005485
0.005447
0.005409
0.005371
0.005333
0.005295
0.005257
0.005220
0.005182
0.005145
0.005107
0.005070
0.005033
0.004996
0.004959
0.004922
0.004886
0.004849
0.004813
0.004776
0.004740
0.004704
0.004668
0.004632
0.004596
0.004560
0.004525
0.004489
0.004454
0.004419
0.004383
0.004348
0.004313
0.004278
0.004244
0.004209
0.004175
0.004140
0.004106
0.004072
0.004038
0.004004
0.003970
0.003936
0.003903
0.003869
0.003836
0.003803
0.003769
0.003736
0.003704
0.003671
0.003638
0.003606
0.003573
0.003541
0.003509
0.003477
0.003445
0.003413
0.003381
0.003350
0.003318
0.003287
0.003256
0.003224
0.003194
0.003163
0.003132
0.003101
0.003071
0.003040
0.003010
0.002980
0.002950
0.002920
0.002890
0.002861
0.002831
0.002802
0.002773
0.002744
0.002715
0.002686
0.002657
0.002628
0.002600
0.002571
0.002543
0.002515
0.002487
0.002459
0.002431
0.002404
0.002376
0.002349
0.002321
0.002294
0.002267
0.002240
0.002213
0.002187
0.002160
0.002134
0.002107
0.002081
0.002055
0.002029
0.002003
0.001977
0.001952
0.001926
0.001901
0.001876
0.001851
0.001826
0.001801
0.001776
0.001751
0.001727
0.001702
0.001678
0.001654
0.001629
0.001605
0.001581
0.001558
0.001534
0.001510
0.001487
0.001463
0.001440
0.001417
0.001394
0.001371
0.001348
0.001325
0.001302
0.001280
0.001257
0.001235
0.001213
0.001190
0.001168
0.001146
0.001124
0.001103
0.001081
0.001059
0.001037
0.001016
0.000994
0.000973
0.000952
0.000931
0.000909
0.000888
0.000867
0.000846
0.000826
0.000805
0.000784
0.000763
0.000743
0.000722
0.000702
0.000681
0.000660
0.000640
0.000620
0.000599
0.000579
0.000559
0.000539
0.000518
0.000498
0.000478
0.000457
0.000437
0.000417
0.000397
0.000376
0.000356
0.000335
0.000315
0.000294
0.000274
0.000253
0.000232
0.000211
0.000191
0.000170
0.000151
0.009597
0.009413
0.009331
0.000318
0.000277
0.010271
0.000252
0.010151
0.009856
0.005829
0.010095
0.000243
0.005990
0.010190
0.003318
0.004325
0.010072
0.000248
0.000374
0.009363
0.001776
0.010497
0.010088
0.002733
0.009450
0.008366
0.010878
0.008063
0.010382
0.009587
0.000447
0.009535
0.009377
0.010045
0.009754
0.000219
0.009965
0.000732
0.009656
0.000292
0.009485
0.009349
0.009288
0.010414
0.000404
0.009916
0.000323
0.009728
0.010166
0.011366
0.000291
0.009991
0.002252
0.007790
0.000243
0.010042
0.010082
0.007154
0.010089
0.010196
0.003945
0.004555
0.000238
0.000243
0.009362
0.009505
0.005406
0.009666
0.010531
0.000260
0.010307
0.000266
0.006556
0.000290
0.009321
0.003789
0.000326
0.010582
0.002191
0.000535
0.001419
0.000567
0.000676
0.009482
0.009595
0.009673
0.009460
0.009395
0.009349
0.009734
0.010285
0.010135
0.009987
0.009967
0.009928
0.009825
0.011109
0.010767
0.010680
0.010634
0.009793
0.000281
0.009899
0.010158
0.009047
0.009158
0.000613
0.009243
0.000554
0.009453
0.006336
0.000494
0.005760
0.009747
0.003892
0.009455
0.000491
0.009645
0.001726
0.007192
0.009679
0.004134
0.000685
0.009292
0.009776
0.000506
0.009650
0.009615
0.009095
0.010353
0.001989
0.009671
0.009825
0.010077
0.000237
0.009664
0.009576
0.000231
0.010079
0.009689
0.002788
0.010090
0.000224
0.008196
0.009560
0.010096
0.001226
0.010104
0.006645
0.005098
0.010118
0.010146
0.000236
0.010189
0.000538
0.010239
0.009437
0.000264
0.007273
0.000264
0.010323
0.009378
0.008814
0.000297
0.004919
0.010459
0.009355
0.000349
0.003266
0.001011
0.000405
0.001285
0.009316
0.009337
0.009543
0.009426
0.009319
0.009303
0.009363
0.009226
0.009618
0.009678
0.009757
0.010061
0.009848
0.010113
0.009932
0.010121
0.010172
0.010374
0.010442
0.010049
0.010870
0.010401
0.011090
0.009759
0.009861
0.009770
0.003342
0.000812
0.009712
0.009600
0.003350
0.009639
0.009062
0.009709
0.009407
0.009899
0.000645
0.009112
0.004715
0.009652
0.009690
0.000768
0.000901
0.000461
0.009031
0.010122
0.000506
0.010154
0.009019
0.009663
0.006306
0.009340
0.009054
0.009986
0.009327
0.000507
0.008686
0.009674
0.009654
0.009750
0.000464
0.007223
0.009617
0.000555
0.009615
0.005130
0.004445
0.000558
0.009623
0.005257
0.009643
0.000491
0.000517
0.000624
0.009764
0.000474
0.002125
0.009161
0.009194
0.009571
0.009645
0.009646
0.000720
0.007688
0.005701
0.003619
0.009698
0.003066
0.002535
0.000509
0.001725
0.001134
0.008983
0.009029
0.009056
0.009172
0.009211
0.000499
0.009083
0.008843
0.009493
0.009275
0.009721
0.009423
0.010149
0.010697
0.009621
0.009539
0.009457
0.008989
0.010462
0.010012
0.009640
0.009694
0.009656
0.009653
0.009744
0.002834
0.001173
0.009960
0.009625
0.009585
0.009263
0.010137
0.008839
0.008938
0.009059
0.000914
0.009090
0.005627
0.000773
0.005166
0.009390
0.000710
0.001142
0.009010
0.001933
0.007741
0.000715
0.009376
0.003456
0.008849
0.009047
0.009880
0.000838
0.009500
0.001030
0.009369
0.006740
0.009637
0.009617
0.000574
0.009630
0.009287
0.008995
0.004516
0.009565
0.000751
0.009081
0.008613
0.009407
0.003727
0.009664
0.006165
0.007924
0.009520
0.000807
0.009551
0.002866
0.002304
0.001415
0.001557
0.009583
0.009111
0.000838
0.000852
0.009042
0.000991
0.009016
0.009065
0.009074
0.009213
0.009552
0.009372
0.009017
0.002644
0.010075
0.009155
0.010059
0.009569
0.008821
0.000464
0.009198
0.009213
0.009987
0.006755
0.010788
0.009018
0.010507
0.009838
0.009174
0.009802
0.009512
0.009592
0.009583
0.003018
0.002496
0.009416
0.009521
0.009609
0.009908
0.009565
0.009664
0.009560
0.010195
0.001414
0.001170
0.008566
0.001039
0.009142
0.008979
0.009235
0.003629
0.004918
0.009264
0.009168
0.000724
0.009160
0.009410
0.008871
0.009430
0.009472
0.009129
0.008927
0.001102
0.003233
0.001196
0.009607
0.009379
0.007310
0.001954
0.000739
0.000933
0.002950
0.008808
0.008860
0.000730
0.001631
0.005184
0.009058
0.009527
0.009033
0.007907
0.008907
0.009082
0.009688
0.009208
0.009649
0.009213
0.002339
0.001087
0.008949
0.009047
0.006186
0.008897
0.008852
0.001268
0.006749
0.009428
0.008995
0.009490
0.002680
0.008159
0.000990
0.000775
0.005687
0.009006
0.003996
0.002118
0.009028
0.009183
0.009096
0.004179
0.008821
0.000788
0.008951
0.008804
0.009171
0.000704
0.009751
0.009142
0.011105
0.009130
0.009686
0.009410
0.009096
0.009129
0.009492
0.009741
0.009083
0.009309
0.009337
0.000681
0.009473
0.009397
0.009214
0.009484
0.008949
0.009691
0.009464
0.008685
0.008744
0.008940
0.006046
0.008865
0.000938
0.008954
0.002593
0.007042
0.001830
0.008699
0.000923
0.008474
0.009310
0.001044
0.008857
0.009140
0.009425
0.008836
0.008486
0.000712
0.004011
0.003800
0.000998
0.001125
0.008761
0.009353
0.000908
0.008886
0.009024
0.009395
0.009309
0.009057
0.009534
0.009302
0.005453
0.001525
0.004398
0.008527
0.001594
0.001811
0.009173
0.001188
0.003059
0.000722
0.009370
0.008344
0.009068
0.008510
0.008049
0.002502
0.004696
0.001384
0.001271
0.009036
0.005027
0.008869
0.009385
0.006572
0.008533
0.009483
0.008667
0.008828
0.009261
0.008873
0.009415
0.008650
0.008976
0.009421
0.009508
0.003296
0.001215
0.009166
0.009858
0.008978
0.009676
0.008888
0.008857
0.009053
0.000888
0.001319
0.009383
0.008885
0.009522
0.009332
0.008905
0.009451
0.002328
0.009546
0.009092
0.009382
0.008789
0.007327
0.009223
0.008813
0.009429
0.009417
0.008891
0.008639
0.001563
0.008076
0.001242
0.008709
0.003904
0.002275
0.006937
0.005294
0.002063
0.000898
0.008966
0.008524
0.001406
0.006611
0.008361
0.008686
0.000971
0.007985
0.008667
0.001827
0.008704
0.008903
0.000979
0.009264
0.009097
0.008697
0.008706
0.008857
0.008773
0.008654
0.009194
0.009094
0.008721
0.008996
0.006059
0.008746
0.004458
0.009387
0.004157
0.007597
0.001692
0.009594
0.008416
0.001344
0.000526
0.001296
0.001066
0.009042
0.001572
0.009318
0.001078
0.009664
0.002316
0.002842
0.005486
0.003170
0.000974
0.003599
0.001496
0.009238
0.009395
0.009351
0.009328
0.008664
0.008902
0.009016
0.008643
0.008235
0.001275
0.008777
0.008613
0.000909
0.009359
0.008925
0.007181
0.009345
0.009311
0.008777
0.008734
0.008869
0.009364
0.008820
0.001435
0.009184
0.008860
0.009424
0.002093
0.009700
0.009338
0.009072
0.000905
0.009170
0.008684
0.009367
0.009508
0.001826
0.001112
0.002847
0.001099
0.001534
0.005492
0.000901
0.001052
0.008490
0.003980
0.008945
0.009172
0.001325
0.009062
0.007409
0.007121
0.009265
0.001669
0.001129
0.008157
0.001324
0.002856
0.001443
0.001790
0.008751
0.009113
0.009263
0.008529
0.009105
0.002189
0.008838
0.008962
0.009273
0.009222
0.008796
0.004400
0.008653
0.000721
0.007820
0.008538
0.008047
0.007906
0.007960
0.004778
0.008778
0.008604
0.008634
0.008559
0.001615
0.009096
0.001065
0.001995
0.001107
0.009436
0.003503
0.006032
0.007635
0.008700
0.002497
0.001523
0.001008
0.006471
0.008888
0.002004
0.008801
0.008981
0.009174
0.009234
0.008482
0.008600
0.008608
0.008547
0.008634
0.008681
0.008633
0.002017
0.008678
0.008755
0.007672
0.008921
0.009280
0.009328
0.008643
0.009379
0.009318
0.000252
0.009124
0.008763
0.009277
0.001297
0.009297
0.005863
0.008575
0.001208
0.009427
0.008427
0.001995
0.002203
0.007612
0.008484
0.008439
0.003508
0.005708
0.001270
0.008362
0.005530
0.007288
0.001036
0.008795
0.001044
0.000885
0.008821
0.008969
0.008507
0.000831
0.001736
0.009207
0.009196
0.002569
0.008252
0.008195
0.007477
0.001359
0.008565
0.008546
0.008469
0.008213
0.008485
0.005070
0.000551
0.008666
0.000885
0.007378
0.001338
0.009246
0.003118
0.001878
0.009178
0.009224
0.002301
0.009029
0.003466
0.009250
0.008609
0.001100
0.001748
0.009192
0.001190
0.008765
0.001231
0.001355
0.001721
0.008916
0.006528
0.002658
0.006862
0.008933
0.002429
0.009153
0.008993
0.005167
0.008768
0.008469
0.008601
0.008542
0.008684
0.008490
0.008434
0.008748
0.008614
0.006277
0.008888
0.008404
0.008579
0.009302
0.001522
0.008492
0.009239
0.009226
0.004564
0.001158
0.007771
0.007330
0.007725
0.008608
0.002048
0.007330
0.008112
0.003172
0.005577
0.001325
0.001737
0.006674
0.001183
0.006998
0.000834
0.007592
0.008311
0.008802
0.008873
0.001560
0.009006
0.004406
0.009126
0.008417
0.008468
0.002132
0.008709
0.001559
0.009152
0.005093
0.001429
0.008356
0.008618
0.001665
0.001175
0.008337
0.003788
0.008424
0.008455
0.008451
0.008404
0.008457
0.007795
0.001930
0.001607
0.002717
0.009120
0.001281
0.001208
0.001843
0.008614
0.002063
0.003149
0.008245
0.007557
0.000718
0.006864
0.008774
0.008521
0.002538
0.005973
0.009160
0.009063
0.000657
0.008806
0.008517
0.008753
0.008320
0.001469
0.009174
0.008459
0.008525
0.009100
0.008385
0.009137
0.008425
0.008518
0.008506
0.008741
0.000461
0.008643
0.008116
0.004974
0.009173
0.002804
0.009142
0.006987
0.008243
0.008343
0.000376
0.008383
0.008519
0.009205
0.008833
0.006087
0.001277
0.001035
0.009181
0.001538
0.008382
0.008195
0.002242
0.005100
0.007408
0.005382
0.001706
0.008110
0.006485
0.008264
0.001460
0.001507
0.001004
0.009019
0.001304
0.006545
0.008622
0.001158
0.001031
0.008872
0.007908
0.008700
0.002471
0.008350
0.007788
0.000683
0.002692
0.007939
0.001784
0.002228
0.008989
0.001975
0.008322
0.008293
0.008431
0.008281
0.008621
0.004757
0.003855
0.002144
0.008569
0.000434
0.007114
0.001963
0.003458
0.007222
0.008492
0.008231
0.008225
0.006455
0.001626
0.002309
0.008721
0.001606
0.002126
0.000895
0.002930
0.005482
0.001376
0.003072
0.008066
0.009048
0.009071
0.008738
0.008618
0.000609
0.008293
0.009105
0.009140
0.009121
0.009048
0.008342
0.001339
0.008342
0.002557
0.008262
0.008356
0.004654
0.008428
0.001372
0.008246
0.008331
0.008434
0.009131
0.001618
0.008202
0.008001
0.008373
0.001342
0.004186
0.000557
0.001269
0.009102
0.000162
0.001423
0.008598
0.008812
0.009080
0.008961
0.008456
0.005916
0.000870
0.007040
0.008420
0.007907
0.009089
0.009139
0.000401
0.008307
0.002618
0.002375
0.007069
0.005064
0.005187
0.007762
0.003145
0.001822
0.001562
0.002000
0.008079
0.006233
0.003133
0.006626
0.000845
0.008483
0.007560
0.008176
0.001008
0.003754
0.008270
0.001939
0.002538
0.001577
0.000440
0.000532
0.001817
0.008382
0.002554
0.002456
0.001484
0.006950
0.006733
0.001871
0.007599
0.000794
0.008649
0.005900
0.008943
0.008766
0.002420
0.008302
0.004722
0.008962
0.008528
0.008267
0.008189
0.007587
0.001914
0.001644
0.004280
0.003041
0.001160
0.006345
0.007704
0.009036
0.008487
0.008234
0.009091
0.008214
0.008158
0.008264
0.008684
0.007837
0.002402
0.008174
0.008270
0.000572
0.008993
0.008295
0.008297
0.008025
0.009081
0.009013
0.008168
0.008109
0.008139
0.006961
0.001351
0.002612
0.002202
0.009093
0.008879
0.009007
0.008671
0.001271
0.004717
0.008325
0.005743
0.008850
0.004056
0.009057
0.001281
0.009078
0.001155
0.007427
0.008709
0.008984
0.001406
0.003601
0.001712
0.000664
0.008021
0.008350
0.002687
0.002112
0.006738
0.008744
0.007484
0.005583
0.001773
0.001624
0.001538
0.007769
0.001429
0.007232
0.006274
0.004753
0.001252
0.008029
0.007101
0.003494
0.000539
0.008132
0.002927
0.002341
0.008584
0.003116
0.000602
0.004055
0.002890
0.002548
0.003333
0.005839
0.008871
0.001635
0.008698
0.006568
0.007922
0.001981
0.007413
0.001947
0.005444
0.008443
0.001807
0.002709
0.001856
0.000983
0.002298
0.002182
0.003467
0.007918
0.008545
0.008133
0.008182
0.004747
0.007848
0.000906
0.008097
0.008450
0.008930
0.008646
0.001522
0.008910
0.008841
0.002748
0.004360
0.008111
0.008135
0.008157
0.008080
0.002291
0.007971
0.007814
0.008231
0.008976
0.009046
0.002472
0.008147
0.008037
0.007843
0.006382
0.009009
0.009041
0.001392
0.006855
0.001162
0.006135
0.008063
0.006102
0.007932
0.004303
0.009012
0.008106
0.000412
0.008916
0.008515
0.008780
0.008697
0.008845
0.001605
0.008968
0.007990
0.001133
0.008930
0.009045
0.001099
0.008980
0.008608
0.002984
0.008633
0.005026
0.006400
0.003297
0.007212
0.007844
0.001740
0.001955
0.002331
0.005937
0.001144
0.004392
0.008473
0.002232
0.006078
0.000851
0.000808
0.008411
0.007989
0.001480
0.001107
0.007608
0.000555
0.008408
0.007543
0.001190
0.001732
0.008020
0.007996
0.000594
0.007087
0.008595
0.004338
0.001528
0.001552
0.005403
0.002854
0.002042
0.007552
0.008812
0.001967
0.007723
0.006793
0.003720
0.002101
0.008896
0.007684
0.008526
0.002822
0.002145
0.002958
0.008829
0.005897
0.002059
0.008766
0.008466
0.001012
0.008376
0.008077
0.002518
0.002892
0.002198
0.000424
0.003602
0.005145
0.004013
0.002737
0.008678
0.008490
0.001473
0.008895
0.008965
0.007997
0.007921
0.000696
0.008079
0.008471
0.009001
0.008744
0.009012
0.008079
0.008918
0.008100
0.003391
0.003979
0.001002
0.008942
0.002111
0.008912
0.007995
0.002945
0.001250
0.008594
0.009042
0.007957
0.008872
0.005747
0.007791
0.001363
0.008884
0.008932
0.002111
0.008985
0.008209
0.002646
0.008268
0.007952
0.008516
0.002947
0.003249
0.002361
0.004989
0.008852
0.006802
0.008562
0.008410
0.007625
0.002328
0.007781
0.001972
0.008287
0.001784
0.001654
0.007458
0.007716
0.008317
0.004029
0.000938
0.001333
0.007836
0.005728
0.000641
0.000684
0.007829
0.001085
0.003044
0.001183
0.008004
0.003899
0.004649
0.007819
0.000316
0.001249
0.003062
0.008620
0.007955
0.008725
0.008697
0.008106
0.002897
0.002177
0.002156
0.003338
0.003517
0.004659
0.001785
0.002724
0.002405
0.005515
0.008836
0.008804
0.003095
0.007891
0.001522
0.008936
0.007903
0.007585
0.001737
0.007466
0.008610
0.008413
0.008839
0.008951
0.007918
0.003737
0.008802
0.007967
0.008636
0.002679
0.001244
0.007663
0.008696
0.001475
0.001438
0.006036
0.008859
0.008953
0.007390
0.005504
0.001541
0.000496
0.002162
0.007901
0.002563
0.008780
0.000833
0.000709
0.008354
0.001439
0.002204
0.008724
0.008847
0.008888
0.008502
0.007232
0.000439
0.008916
0.004010
0.006498
0.007300
0.000662
0.001906
0.003762
0.003530
0.007775
0.003340
0.008378
0.002590
0.003799
0.006207
0.003739
0.005733
0.002259
0.007054
0.007614
0.008808
0.002908
0.002069
0.005821
0.002195
0.008479
0.008738
0.002872
0.008189
0.001130
0.001646
0.001871
0.001553
0.007767
0.000550
0.001512
0.004013
0.008212
0.000928
0.001263
0.008161
0.000815
0.001821
0.007408
0.000595
0.000363
0.008653
0.007774
0.001895
0.003204
0.007339
0.006522
0.008776
0.007419
0.006796
0.002505
0.008424
0.003102
0.004329
0.008724
0.008439
0.008277
0.001020
0.007802
0.000251
0.003003
0.002332
0.001668
0.008521
0.008229
0.003321
0.005076
0.008496
0.001992
0.007671
0.004150
0.001663
0.003521
0.007846
0.007679
0.008913
0.007096
0.004369
0.008764
0.007442
0.007384
0.008213
0.008829
0.007892
0.008872
0.008316
0.000739
0.008549
0.001370
0.008819
0.001559
0.007742
0.006326
0.007159
0.008948
0.007899
0.008822
0.008625
0.002278
0.000834
0.005446
0.003203
0.007925
0.001617
0.004730
0.002384
0.004245
0.001331
0.008145
0.008906
0.008842
0.008518
0.008606
0.001412
0.001865
0.008700
0.001404
0.007561
0.000379
0.007296
0.005187
0.002462
0.008169
0.001555
0.009015
0.007667
0.003234
0.005440
0.006261
0.002907
0.007425
0.002307
0.008401
0.001934
0.008496
0.001766
0.006993
0.007155
0.002754
0.001659
0.008625
0.003491
0.008697
0.008181
0.004398
0.000747
0.006173
0.008387
0.001626
0.002560
0.008072
0.007989
0.003373
0.001396
0.007643
0.006115
0.000240
0.008816
0.002044
0.001585
0.000914
0.008761
0.000624
0.001241
0.002409
0.002618
0.000325
0.001109
0.007510
0.007541
0.007829
0.001504
0.004113
0.004417
0.003642
0.003710
0.008586
0.007349
0.005691
0.008757
0.008143
0.003263
0.000696
0.006532
0.008194
0.003918
0.008277
0.001614
0.004582
0.001221
0.001800
0.005154
0.001677
0.003312
0.000398
0.000482
0.004777
0.008429