# vtk DataFile Version 2.0
Test
ASCII
DATASET POLYDATA
POINTS 7341 float
0.000000 0.000000 0.000000
1.000000 0.000000 0.000000
1.000000 1.000000 0.000000
0.000000 1.000000 0.000000
0.000000 0.500000 0.000000
0.500000 0.500000 0.000000
1.000000 0.500000 0.000000
0.499000 0.499000 0.000000
0.900000 0.010000 0.000000
0.029412 0.000000 0.000000
0.058824 0.000000 0.000000
0.088235 0.000000 0.000000
0.117647 0.000000 0.000000
0.147059 0.000000 0.000000
0.176471 0.000000 0.000000
0.205882 0.000000 0.000000
0.235294 0.000000 0.000000
0.264706 0.000000 0.000000
0.294118 0.000000 0.000000
0.323529 0.000000 0.000000
0.352941 0.000000 0.000000
0.382353 0.000000 0.000000
0.411765 0.000000 0.000000
0.441176 0.000000 0.000000
0.470588 0.000000 0.000000
0.500000 0.000000 0.000000
0.529412 0.000000 0.000000
0.558824 0.000000 0.000000
0.588235 0.000000 0.000000
0.617647 0.000000 0.000000
0.647059 0.000000 0.000000
0.676471 0.000000 0.000000
0.705882 0.000000 0.000000
0.735294 0.000000 0.000000
0.764706 0.000000 0.000000
0.794118 0.000000 0.000000
0.823529 0.000000 0.000000
0.852941 0.000000 0.000000
0.882353 0.000000 0.000000
0.911765 0.000000 0.000000
0.941176 0.000000 0.000000
0.970588 0.000000 0.000000
1.000000 0.029412 0.000000
1.000000 0.058824 0.000000
1.000000 0.088235 0.000000
1.000000 0.117647 0.000000
1.000000 0.147059 0.000000
1.000000 0.176471 0.000000
1.000000 0.205882 0.000000
1.000000 0.235294 0.000000
1.000000 0.264706 0.000000
1.000000 0.294118 0.000000
1.000000 0.323529 0.000000
1.000000 0.352941 0.000000
1.000000 0.382353 0.000000
1.000000 0.411765 0.000000
1.000000 0.441176 0.000000
1.000000 0.470588 0.000000
1.000000 0.529412 0.000000
1.000000 0.558824 0.000000
1.000000 0.588235 0.000000
1.000000 0.617647 0.000000
1.000000 0.647059 0.000000
1.000000 0.676471 0.000000
1.000000 0.705882 0.000000
1.000000 0.735294 0.000000
1.000000 0.764706 0.000000
1.000000 0.794118 0.000000
1.000000 0.823529 0.000000
1.000000 0.852941 0.000000
1.000000 0.882353 0.000000
1.000000 0.911765 0.000000
1.000000 0.941176 0.000000
1.000000 0.970588 0.000000
0.970588 1.000000 0.000000
0.941176 1.000000 0.000000
0.911765 1.000000 0.000000
0.882353 1.000000 0.000000
0.852941 1.000000 0.000000
0.823529 1.000000 0.000000
0.794118 1.000000 0.000000
0.764706 1.000000 0.000000
0.735294 1.000000 0.000000
0.705882 1.000000 0.000000
0.676471 1.000000 0.000000
0.647059 1.000000 0.000000
0.617647 1.000000 0.000000
0.588235 1.000000 0.000000
0.558824 1.000000 0.000000
0.529412 1.000000 0.000000
0.500000 1.000000 0.000000
0.470588 1.000000 0.000000
0.441176 1.000000 0.000000
0.411765 1.000000 0.000000
0.382353 1.000000 0.000000
0.352941 1.000000 0.000000
0.323529 1.000000 0.000000
0.294118 1.000000 0.000000
0.264706 1.000000 0.000000
0.235294 1.000000 0.000000
0.205882 1.000000 0.000000
0.176471 1.000000 0.000000
0.147059 1.000000 0.000000
0.117647 1.000000 0.000000
0.088235 1.000000 0.000000
0.058824 1.000000 0.000000
0.029412 1.000000 0.000000
0.000000 0.970588 0.000000
0.000000 0.941176 0.000000
0.000000 0.911765 0.000000
0.000000 0.882353 0.000000
0.000000 0.852941 0.000000
0.000000 0.823529 0.000000
0.000000 0.794118 0.000000
0.000000 0.764706 0.000000
0.000000 0.735294 0.000000
0.000000 0.705882 0.000000
0.000000 0.676471 0.000000
0.000000 0.647059 0.000000
0.000000 0.617647 0.000000
0.000000 0.588235 0.000000
0.000000 0.558824 0.000000
0.000000 0.529412 0.000000
0.007246 0.500000 0.000000
0.014493 0.500000 0.000000
0.021739 0.500000 0.000000
0.028986 0.500000 0.000000
0.036232 0.500000 0.000000
0.043478 0.500000 0.000000
0.050725 0.500000 0.000000
0.057971 0.500000 0.000000
0.065217 0.500000 0.000000
0.072464 0.500000 0.000000
0.079710 0.500000 0.000000
0.086957 0.500000 0.000000
0.094203 0.500000 0.000000
0.101449 0.500000 0.000000
0.108696 0.500000 0.000000
0.115942 0.500000 0.000000
0.123188 0.500000 0.000000
0.130435 0.500000 0.000000
0.137681 0.500000 0.000000
0.144928 0.500000 0.000000
0.152174 0.500000 0.000000
0.159420 0.500000 0.000000
0.166667 0.500000 0.000000
0.173913 0.500000 0.000000
0.181159 0.500000 0.000000
0.188406 0.500000 0.000000
0.195652 0.500000 0.000000
0.202899 0.500000 0.000000
0.210145 0.500000 0.000000
0.217391 0.500000 0.000000
0.224638 0.500000 0.000000
0.231884 0.500000 0.000000
0.239130 0.500000 0.000000
0.246377 0.500000 0.000000
0.253623 0.500000 0.000000
0.260870 0.500000 0.000000
0.268116 0.500000 0.000000
0.275362 0.500000 0.000000
0.282609 0.500000 0.000000
0.289855 0.500000 0.000000
0.297101 0.500000 0.000000
0.304348 0.500000 0.000000
0.311594 0.500000 0.000000
0.318841 0.500000 0.000000
0.326087 0.500000 0.000000
0.333333 0.500000 0.000000
0.340580 0.500000 0.000000
0.347826 0.500000 0.000000
0.355072 0.500000 0.000000
0.362319 0.500000 0.000000
0.369565 0.500000 0.000000
0.376812 0.500000 0.000000
0.384058 0.500000 0.000000
0.391304 0.500000 0.000000
0.398551 0.500000 0.000000
0.405797 0.500000 0.000000
0.413043 0.500000 0.000000
0.420290 0.500000 0.000000
0.427536 0.500000 0.000000
0.434783 0.500000 0.000000
0.442029 0.500000 0.000000
0.449275 0.500000 0.000000
0.456522 0.500000 0.000000
0.463768 0.500000 0.000000
0.471014 0.500000 0.000000
0.478261 0.500000 0.000000
0.485507 0.500000 0.000000
0.492754 0.500000 0.000000
0.510004 0.500000 0.000000
0.520408 0.500000 0.000000
0.531229 0.500000 0.000000
0.542483 0.500000 0.000000
0.554187 0.500000 0.000000
0.566359 0.500000 0.000000
0.579019 0.500000 0.000000
0.592185 0.500000 0.000000
0.605877 0.500000 0.000000
0.620118 0.500000 0.000000
0.634929 0.500000 0.000000
0.650332 0.500000 0.000000
0.666352 0.500000 0.000000
0.683013 0.500000 0.000000
0.700340 0.500000 0.000000
0.718361 0.500000 0.000000
0.737103 0.500000 0.000000
0.756595 0.500000 0.000000
0.776867 0.500000 0.000000
0.797950 0.500000 0.000000
0.819877 0.500000 0.000000
0.842681 0.500000 0.000000
0.866398 0.500000 0.000000
0.891064 0.500000 0.000000
0.916716 0.500000 0.000000
0.943396 0.500000 0.000000
0.971143 0.500000 0.000000
0.000000 0.470588 0.000000
0.000000 0.441176 0.000000
0.000000 0.411765 0.000000
0.000000 0.382353 0.000000
0.000000 0.352941 0.000000
0.000000 0.323529 0.000000
0.000000 0.294118 0.000000
0.000000 0.264706 0.000000
0.000000 0.235294 0.000000
0.000000 0.205882 0.000000
0.000000 0.176471 0.000000
0.000000 0.147059 0.000000
0.000000 0.117647 0.000000
0.000000 0.088235 0.000000
0.000000 0.058824 0.000000
0.000000 0.029412 0.000000
0.500341 0.497365 0.000000
0.501682 0.495729 0.000000
0.503023 0.494094 0.000000
0.504365 0.492458 0.000000
0.505706 0.490823 0.000000
0.507047 0.489187 0.000000
0.508388 0.487552 0.000000
0.509729 0.485916 0.000000
0.511070 0.484281 0.000000
0.512411 0.482645 0.000000
0.513753 0.481010 0.000000
0.515094 0.479375 0.000000
0.516435 0.477739 0.000000
0.517776 0.476104 0.000000
0.519117 0.474468 0.000000
0.520458 0.472833 0.000000
0.521799 0.471197 0.000000
0.523140 0.469562 0.000000
0.524482 0.467926 0.000000
0.525823 0.466291 0.000000
0.527164 0.464656 0.000000
0.528505 0.463020 0.000000
0.529846 0.461385 0.000000
0.531187 0.459749 0.000000
0.532528 0.458114 0.000000
0.533870 0.456478 0.000000
0.535211 0.454843 0.000000
0.536552 0.453207 0.000000
0.537893 0.451572 0.000000
0.539234 0.449936 0.000000
0.540575 0.448301 0.000000
0.541916 0.446666 0.000000
0.543258 0.445030 0.000000
0.544599 0.443395 0.000000
0.545940 0.441759 0.000000
0.547281 0.440124 0.000000
0.548622 0.438488 0.000000
0.549963 0.436853 0.000000
0.551304 0.435217 0.000000
0.552645 0.433582 0.000000
0.553987 0.431946 0.000000
0.555328 0.430311 0.000000
0.556669 0.428676 0.000000
0.558010 0.427040 0.000000
0.559351 0.425405 0.000000
0.560692 0.423769 0.000000
0.562033 0.422134 0.000000
0.563375 0.420498 0.000000
0.564716 0.418863 0.000000
0.566057 0.417227 0.000000
0.567398 0.415592 0.000000
0.568739 0.413957 0.000000
0.570080 0.412321 0.000000
0.571421 0.410686 0.000000
0.572763 0.409050 0.000000
0.574104 0.407415 0.000000
0.575445 0.405779 0.000000
0.576786 0.404144 0.000000
0.578127 0.402508 0.000000
0.579468 0.400873 0.000000
0.580809 0.399237 0.000000
0.582151 0.397602 0.000000
0.583492 0.395967 0.000000
0.584833 0.394331 0.000000
0.586174 0.392696 0.000000
0.587515 0.391060 0.000000
0.588856 0.389425 0.000000
0.590197 0.387789 0.000000
0.591538 0.386154 0.000000
0.592880 0.384518 0.000000
0.594221 0.382883 0.000000
0.595562 0.381247 0.000000
0.596903 0.379612 0.000000
0.598244 0.377977 0.000000
0.599585 0.376341 0.000000
0.600926 0.374706 0.000000
0.602268 0.373070 0.000000
0.603609 0.371435 0.000000
0.604950 0.369799 0.000000
0.606291 0.368164 0.000000
0.607632 0.366528 0.000000
0.608973 0.364893 0.000000
0.610314 0.363258 0.000000
0.611656 0.361622 0.000000
0.612997 0.359987 0.000000
0.614338 0.358351 0.000000
0.615679 0.356716 0.000000
0.617020 0.355080 0.000000
0.618361 0.353445 0.000000
0.619702 0.351809 0.000000
0.621043 0.350174 0.000000
0.622385 0.348538 0.000000
0.623726 0.346903 0.000000
0.625067 0.345268 0.000000
0.626408 0.343632 0.000000
0.627749 0.341997 0.000000
0.629090 0.340361 0.000000
0.630431 0.338726 0.000000
0.631773 0.337090 0.000000
0.633114 0.335455 0.000000
0.634455 0.333819 0.000000
0.635796 0.332184 0.000000
0.637137 0.330548 0.000000
0.638478 0.328913 0.000000
0.639819 0.327278 0.000000
0.641161 0.325642 0.000000
0.642502 0.324007 0.000000
0.643843 0.322371 0.000000
0.645184 0.320736 0.000000
0.646525 0.319100 0.000000
0.647866 0.317465 0.000000
0.649207 0.315829 0.000000
0.650548 0.314194 0.000000
0.651890 0.312559 0.000000
0.653231 0.310923 0.000000
0.654572 0.309288 0.000000
0.655913 0.307652 0.000000
0.657254 0.306017 0.000000
0.658595 0.304381 0.000000
0.659936 0.302746 0.000000
0.661278 0.301110 0.000000
0.662619 0.299475 0.000000
0.663960 0.297839 0.000000
0.665301 0.296204 0.000000
0.666642 0.294569 0.000000
0.667983 0.292933 0.000000
0.669324 0.291298 0.000000
0.670666 0.289662 0.000000
0.672007 0.288027 0.000000
0.673348 0.286391 0.000000
0.674689 0.284756 0.000000
0.676030 0.283120 0.000000
0.677371 0.281485 0.000000
[...]
POINT_DATA 7341
SCALARS UX float 1
LOOKUP_TABLE default
0.000000
0.000000
0.225500
0.225500
0.094633
0.095250
0.090707
0.090831
0.000454
-0.000000
0.000000
0.000000
0.000000
0.000000
0.000000
0.000000
0.000000
0.000000
0.000000
0.000000
0.000000
0.000000
0.000000
0.000000
0.000000
0.000000
0.000000
0.000000
0.000000
0.000000
0.000000
0.000000
0.000000
0.000000
0.000000
0.000000
0.000000
0.000000
0.000000
0.000000
0.000000
-0.000000
0.004451
0.006901
0.009475
0.011952
0.015152
0.018648
0.022598
0.026793
0.031547
0.036329
0.041799
0.047980
0.054576
0.062459
0.071521
0.080983
0.100931
0.111475
0.121843
0.131133
0.139568
0.147585
0.155149
0.162411
0.169565
0.176679
0.183713
0.190719
0.197704
0.204665
0.211618
0.218564
0.225500
0.225500
0.225500
0.225500
0.225500
0.225500
0.225500
0.225500
0.225500
0.225500
0.225500
0.225500
0.225500
0.225500
0.225500
0.225500
0.225500
0.225500
0.225500
0.225500
0.225500
0.225500
0.225500
0.225500
0.225500
0.225500
0.225500
0.225500
0.225500
0.225500
0.225500
0.225500
0.225500
0.219591
0.213681
0.207765
0.201813
0.195847
0.189773
0.183677
0.177433
0.171024
0.164567
0.157727
0.150596
0.143073
0.135089
0.126901
0.118495
0.093815
0.093036
0.092364
0.091639
0.091783
0.092200
0.091821
0.091967
0.088588
0.086317
0.086237
0.085273
0.083682
0.083800
0.082355
0.084598
0.080800
0.082134
0.082001
0.082551
0.082246
0.082512
0.079922
0.081207
0.082563
0.086994
0.081782
0.082889
0.083087
0.082804
0.084595
0.085030
0.086044
0.088471
0.084219
0.088401
0.090928
0.085655
0.090179
0.086749
0.091929
0.090744
0.092300
0.093899
0.091407
0.094736
0.094810
0.091728
0.090472
0.085480
0.091562
0.089281
0.091915
0.089034
0.093000
0.091290
0.094696
0.093984
0.093487
0.092520
0.096599
0.096306
0.096044
0.094647
0.097201
0.095209
0.096842
0.096198
0.093646
0.092803
0.092068
0.091452
0.090890
0.090318
0.089815
0.089402
0.089025
0.088732
0.088454
0.088247
0.088086
0.087939
0.087834
0.087744
0.087733
0.087753
0.087810
0.087907
0.088048
0.088238
0.088478
0.088777
0.089161
0.089635
0.090168
0.076722
0.068269
0.061387
0.055388
0.050259
0.045300
0.040635
0.036034
0.031618
0.027308
0.023154
0.019074
0.015301
0.011701
0.008118
0.004759
0.088487
0.085261
0.083286
0.081781
0.080977
0.079920
0.078983
0.078067
0.077143
0.076254
0.075406
0.074570
0.073784
0.073026
0.072281
0.071577
0.070878
0.070218
0.069573
0.068952
0.068350
0.067753
0.067180
0.066622
0.066071
0.065539
0.065015
0.064502
0.064004
0.063513
0.063030
0.062560
0.062099
0.061646
0.061199
0.060763
0.060335
0.059913
0.059500
0.059095
0.058695
0.058303
0.057916
0.057536
0.057159
0.056789
0.056424
0.056063
0.055708
0.055355
0.055008
0.054663
0.054323
0.053987
0.053654
0.053324
0.052998
0.052675
0.052354
0.052036
0.051721
0.051408
0.051099
0.050790
0.050485
0.050181
0.049879
0.049580
0.049283
0.048986
0.048693
0.048400
0.048110
0.047820
0.047533
0.047245
0.046960
0.046676
0.046393
0.046111
0.045830
0.045550
0.045270
0.044992
0.044714
0.044437
0.044161
0.043885
0.043610
0.043335
0.043060
0.042786
0.042512
0.042239
0.041966
0.041694
0.041421
0.041148
0.040876
0.040603
0.040331
0.040058
0.039786
0.039513
0.039241
0.038968
0.038695
0.038422
0.038149
0.037876
0.037602
0.037328
0.037054
0.036780
0.036505
0.036231
0.035955
0.035680
0.035404
0.035128
0.034852
0.034575
0.034298
0.034021
0.033743
0.033465
0.033187
0.032908
0.032629
0.032349
0.032070
0.031790
0.031509
0.031228
0.030947
0.030665
0.030384
0.030101
0.029819
0.029536
0.029253
0.028969
0.028685
0.028401
0.028116
0.027831
0.027546
0.027260
0.026973
0.026686
0.026399
0.026112
0.025823
0.025535
0.025246
0.024956
0.024666
0.024376
0.024085
0.023793
0.023502
0.023210
0.022920
0.022630
0.022340
0.022049
0.021757
0.021465
0.021169
0.020887
0.020614
0.020338
0.020067
0.019796
0.019530
0.019265
0.019001
0.018737
0.018472
0.018211
0.017952
0.017694
0.017438
0.017184
0.016931
0.016679
0.016430
0.016183
0.015939
0.015697
0.015457
0.015218
0.014982
0.014749
0.014517
0.014288
0.014061
0.013837
0.013615
0.013395
0.013178
0.012964
0.012752
0.012542
0.012335
0.012130
0.011928
0.011729
0.011532
0.011338
0.011146
0.010956
0.010769
0.010584
0.010401
0.010221
0.010042
0.009866
0.009692
0.009519
0.009349
0.009181
0.009014
0.008850
0.008687
0.008526
0.008368
0.008211
0.008056
0.007904
0.007753
0.007604
0.007457
0.007312
0.007169
0.007027
0.006888
0.006750
0.006614
0.006479
0.006345
0.006213
0.006083
0.005954
0.005826
0.005699
0.005573
0.005449
0.005325
0.005202
0.005080
0.004958
0.004836
0.004713
0.004590
0.004465
0.004339
0.004214
0.004089
0.003965
0.003843
0.003722
0.003603
0.003488
0.003375
0.003263
0.003156
0.003051
0.002947
0.002846
0.002746
0.002649
0.002553
0.002459
0.002367
0.002277
0.002187
0.002099
0.002012
0.001926
0.001841
0.001757
0.001674
0.001592
0.001511
0.001431
0.001351
0.001272
0.001195
0.001118
0.001040
0.000964
0.000887
0.000811
0.000737
0.000663
0.000588
0.000522
0.066843
0.066835
0.066633
0.001602
0.001976
0.080817
0.001817
0.081245
0.071093
0.035283
0.082018
0.001358
0.039713
0.075028
0.017151
0.026168
0.082820
0.000973
0.001616
0.068466
0.008068
0.078419
0.083920
0.013670
0.071065
0.059336
0.082306
0.053788
0.080410
0.073072
0.001473
0.066227
0.066379
0.073365
0.069516
0.000718
0.082974
0.003367
0.075940
0.001898
0.066394
0.066681
0.066043
0.077305
0.001684
0.083014
0.001193
0.078377
0.075702
0.085765
0.000992
0.083074
0.010504
0.054437
0.001066
0.082981
0.082403
0.049180
0.081381
0.080931
0.021508
0.025903
0.001503
0.001658
0.069218
0.072283
0.034994
0.070318
0.080764
0.001905
0.080711
0.001965
0.040919
0.001732
0.067046
0.021848
0.001536
0.080637
0.010061
0.001705
0.005570
0.001844
0.002361
0.066874
0.066827
0.068161
0.066989
0.066824
0.066840
0.069155
0.076141
0.074434
0.072771
0.072488
0.072046
0.070589
0.083959
0.081378
0.080509
0.079932
0.079607
0.000972
0.082108
0.086932
0.062426
0.062613
0.003777
0.067956
0.003886
0.067170
0.039697
0.002964
0.038085
0.071147
0.021516
0.073579
0.002135
0.074076
0.007859
0.049607
0.077995
0.024888
0.003466
0.064579
0.079688
0.001884
0.077820
0.077002
0.062228
0.077348
0.008845
0.071179
0.081569
0.085232
0.000767
0.070159
0.070246
0.000824
0.084109
0.076071
0.013691
0.083313
0.001127
0.057977
0.073339
0.082833
0.005268
0.082384
0.045029
0.029885
0.081984
0.081547
0.001681
0.081214
0.003718
0.080938
0.070727
0.001942
0.046919
0.001796
0.080349
0.069243
0.061136
0.001616
0.031010
0.080622
0.067964
0.001567
0.017714
0.003989
0.001610
0.004963
0.066741
0.066865
0.066233
0.065249
0.065018
0.065699
0.066197
0.064905
0.067328
0.068406
0.069780
0.073672
0.071195
0.074625
0.082810
0.086647
0.075375
0.077218
0.078106
0.084905
0.081982
0.077755
0.083552
0.079448
0.081356
0.079796
0.017661
0.005543
0.076343
0.076286
0.018054
0.077230
0.063790
0.078477
0.071221
0.072704
0.003443
0.065320
0.029589
0.073062
0.072112
0.003540
0.003767
0.001667
0.062922
0.075156
0.002025
0.075493
0.062334
0.078065
0.042458
0.065520
0.061728
0.073729
0.069582
0.002803
0.060602
0.077817
0.077632
0.071322
0.002248
0.046976
0.076781
0.003881
0.074625
0.030555
0.025495
0.003703
0.076148
0.033999
0.077974
0.003244
0.003506
0.003576
0.079706
0.002187
0.009983
0.066469
0.067165
0.076462
0.073572
0.074540
0.003438
0.053713
0.034864
0.020706
0.078727
0.016369
0.012515
0.003212
0.007476
0.004333
0.062197
0.062039
0.062001
0.062686
0.063158
0.002070
0.062186
0.063616
0.069529
0.064161
0.078698
0.066662
0.075448
0.080246
0.069652
0.068555
0.067511
0.061891
0.078291
0.074104
0.077464
0.078428
0.077816
0.070254
0.079132
0.014321
0.005028
0.083152
0.077361
0.077188
0.068493
0.086846
0.060958
0.060830
0.065878
0.005810
0.068983
0.034789
0.004760
0.033529
0.067839
0.003447
0.005633
0.066764
0.009056
0.054266
0.003177
0.073710
0.019659
0.060376
0.062761
0.072949
0.005636
0.069190
0.005591
0.071355
0.043589
0.077266
0.076867
0.003935
0.076773
0.069339
0.064651
0.028266
0.075104
0.004333
0.064520
0.061655
0.074041
0.020778
0.072524
0.041541
0.053154
0.075704
0.003571
0.076361
0.015102
0.011097
0.006284
0.006752
0.075914
0.065619
0.005768
0.005863
0.063265
0.005686
0.062409
0.061996
0.068422
0.063439
0.068917
0.066025
0.061758
0.013400
0.074756
0.062614
0.074547
0.076594
0.060343
0.002391
0.065086
0.065501
0.073911
0.046054
0.080898
0.065121
0.078626
0.072351
0.067754
0.080833
0.075969
0.077021
0.076494
0.015751
0.012073
0.068238
0.075630
0.074949
0.073145
0.076454
0.077817
0.075766
0.087753
0.007868
0.008127
0.063496
0.006136
0.071228
0.063678
0.072381
0.020392
0.031836
0.072507
0.066159
0.003142
0.070660
0.073984
0.060218
0.074406
0.075016
0.070770
0.063252
0.007559
0.018158
0.005700
0.070335
0.073834
0.050713
0.009287
0.004724
0.006219
0.015542
0.060488
0.060195
0.003433
0.007425
0.031355
0.063095
0.075497
0.062146
0.053671
0.064289
0.070640
0.071155
0.065765
0.077478
0.071979
0.011352
0.005600
0.063865
0.067684
0.039070
0.062431
0.061326
0.005807
0.046154
0.074092
0.065965
0.069238
0.013944
0.057765
0.005997
0.004272
0.037751
0.068445
0.024050
0.010077
0.065226
0.068568
0.066551
0.023978
0.060057
0.005174
0.061100
0.060075
0.070540
0.003570
0.071763
0.067760
0.083339
0.062390
0.076908
0.073352
0.063877
0.064378
0.075475
0.071665
0.065772
0.067050
0.068061
0.003076
0.074828
0.068238
0.072087
0.074827
0.061961
0.071239
0.074772
0.059780
0.059799
0.064957
0.038464
0.068115
0.004689
0.068626
0.013273
0.048716
0.008589
0.059166
0.004214
0.061644
0.067783
0.005924
0.061791
0.070230
0.073981
0.062990
0.060631
0.003009
0.023144
0.022726
0.006377
0.007608
0.061454
0.073052
0.004292
0.068065
0.064841
0.073839
0.071417
0.070194
0.069819
0.067632
0.036159
0.008160
0.027602
0.062641
0.008104
0.008704
0.071626
0.008238
0.017002
0.003827
0.073026
0.059127
0.069765
0.063247
0.056937
0.012856
0.027762
0.008050
0.008171
0.066270
0.030647
0.063630
0.073462
0.044987
0.059872
0.075041
0.059396
0.060083
0.066410
0.061825
0.068739
0.058899
0.063942
0.074461
0.075243
0.018013
0.008324
0.066313
0.081186
0.061566
0.071093
0.060354
0.060115
0.067164
0.006079
0.005803
0.073953
0.068261
0.075378
0.065157
0.060507
0.072854
0.011514
0.069899
0.065518
0.073331
0.062137
0.048368
0.069435
0.060952
0.074266
0.073996
0.062834
0.060528
0.010868
0.058771
0.007340
0.066538
0.022697
0.011329
0.048121
0.035240
0.011052
0.004020
0.068059
0.058372
0.009869
0.043089
0.059660
0.059071
0.005017
0.057115
0.065803
0.010507
0.059421
0.064844
0.005341
0.071127
0.067994
0.059108
0.060263
0.062107
0.067220
0.059126
0.066795
0.070075
0.062103
0.064334
0.040952
0.060146
0.026489
0.068525
0.025960
0.053213
0.008297
0.076724
0.060501
0.008176
0.002069
0.005724
0.006574
0.069558
0.007176
0.072277
0.007140
0.077819
0.011792
0.015073
0.034172
0.017392
0.004776
0.021333
0.010676
0.070013
0.073459
0.072748
0.072746
0.065202
0.064256
0.066430
0.058758
0.057461
0.008499
0.062380
0.058559
0.004208
0.073149
0.064297
0.047589
0.072807
0.072272
0.061127
0.060824
0.062392
0.068318
0.060467
0.006371
0.066585
0.063860
0.073911
0.010070
0.078224
0.072794
0.063442
0.004776
0.070505
0.061357
0.073331
0.073281
0.013435
0.006000
0.015298
0.005293
0.007029
0.034629
0.003982
0.004477
0.057690
0.024783
0.067659
0.070404
0.008800
0.065702
0.051873
0.047490
0.071563
0.010849
0.005776
0.059903
0.007712
0.015611
0.010017
0.010698
0.062714
0.068491
0.071592
0.057975
0.066037
0.011222
0.066917
0.068132
0.071846
0.070879
0.066637
0.026505
0.065890
0.003003
0.054557
0.059771
0.058105
0.055913
0.056328
0.031049
0.063023
0.059860
0.060618
0.059025
0.010896
0.065951
0.004951
0.011105
0.005443
0.074231
0.019772
0.038802
0.052233
0.059257
0.012819
0.010786
0.004253
0.044488
0.064952
0.009671
0.063510
0.066603
0.069579
0.071071
0.057825
0.064829
0.059907
0.058822
0.058714
0.061340
0.061238
0.010422
0.058976
0.062467
0.052041
0.064382
0.071875
0.072448
0.058928
0.068459
0.072578
0.000864
0.070330
0.067125
0.071750
0.007952
0.072231
0.039728
0.060488
0.006459
0.073932
0.058879
0.013672
0.013488
0.054175
0.064086
0.059858
0.020065
0.038902
0.006329
0.057016
0.035263
0.051116
0.004408
0.065949
0.004787
0.003855
0.063658
0.067831
0.058197
0.003410
0.012526
0.070805
0.070670
0.014046
0.061695
0.060585
0.052205
0.007557
0.060993
0.058216
0.058406
0.058518
0.057698
0.031392
0.002149
0.062034
0.003751
0.050846
0.008623
0.071410
0.017258
0.013617
0.070283
0.071134
0.013626
0.065410
0.020453
0.071405
0.061139
0.005218
0.008204
0.070519
0.006045
0.062741
0.006897
0.009195
0.010708
0.067702
0.042838
0.014392
0.047796
0.065756
0.013946
0.069609
0.067010
0.034623
0.063383
0.057639
0.060143
0.059274
0.062428
0.059001
0.057313
0.062953
0.060747
0.043333
0.064192
0.063285
0.059326
0.072241
0.009345
0.057805
0.071193
0.071040
0.029681
0.006032
0.054947
0.050022
0.055565
0.061648
0.015314
0.051809
0.060210
0.017859
0.038289
0.006966
0.008212
0.046666
0.005578
0.047815
0.003411
0.053702
0.056459
0.065917
0.065309
0.010592
0.068206
0.028732
0.069582
0.057604
0.059562
0.013574
0.065232
0.009351
0.069967
0.031909
0.007859
0.056862
0.061988
0.011753
0.005126
0.062608
0.022158
0.063374
0.059675
0.059195
0.058394
0.058408
0.056544
0.013665
0.010474
0.016559
0.069427
0.006495
0.005770
0.013513
0.061867
0.013633
0.018105
0.061369
0.053299
0.002943
0.046218
0.065829
0.060986
0.014233
0.038679
0.070078
0.068154
0.002685
0.064296
0.060826
0.063475
0.056595
0.008484
0.070339
0.057654
0.061124
0.069335
0.058200
0.069738
0.059933
0.058418
0.058064
0.062981
0.002042
0.062167
0.057853
0.033487
0.070297
0.015164
0.069815
0.046785
0.061638
0.056702
0.001322
0.059373
0.060388
0.070717
0.066157
0.042246
0.006282
0.004697
0.070446
0.007103
0.058857
0.055728
0.016580
0.032269
0.052779
0.037164
0.010218
0.060111
0.045604
0.059070
0.007510
0.006993
0.004256
0.068009
0.006275
0.043911
0.063933
0.005395
0.004643
0.065522
0.058240
0.064586
0.016681
0.057466
0.056743
0.002712
0.016944
0.056551
0.011569
0.011147
0.067906
0.014492
0.056993
0.057492
0.060470
0.057582
0.064371
0.032107
0.024031
0.016231
0.063477
0.001712
0.049997
0.009534
0.019944
0.050490
0.060943
0.058384
0.058581
0.042605
0.010942
0.016646
0.066592
0.009223
0.016093
0.003878
0.017604
0.035196
0.007179
0.017816
0.059792
0.068211
0.068871
0.063713
0.061974
0.002425
0.056578
0.069305
0.069812
0.069535
0.068545
0.057539
0.006029
0.058434
0.013458
0.059112
0.056761
0.028600
0.059345
0.007365
0.056096
0.059439
0.060414
0.069721
0.011213
0.055695
0.059167
0.060023
0.005999
0.024756
0.002142
0.006169
0.069329
0.000513
0.007152
0.065345
0.065800
0.068974
0.066848
0.059901
0.041320
0.003584
0.048493
0.057821
0.058178
0.069090
0.069830
0.001418
0.058262
0.019607
0.018301
0.049682
0.032271
0.035992
0.056800
0.017868
0.010892
0.008348
0.009828
0.057756
0.044040
0.019851
0.044885
0.003454
0.062392
0.054897
0.055762
0.004492
0.022143
0.056441
0.013986
0.013470
0.008705
0.001585
0.002059
0.011489
0.062737
0.016592
0.017230
0.007767
0.048344
0.046144
0.012927
0.055122
0.003314
0.064112
0.038405
0.066828
0.064252
0.018706
0.056935
0.029426
0.067435
0.063188
0.058355
0.057430
0.053819
0.012913
0.009295
0.027942
0.017988
0.005068
0.042033
0.056270
0.068291
0.060436
0.056742
0.069152
0.058793
0.058231
0.056539
0.062894
0.057438
0.012335
0.055514
0.059175
0.002166
0.067857
0.057725
0.057027
0.057399
0.068999
0.068088
0.058158
0.057990
0.055350
0.049098
0.006594
0.013695
0.016578
0.069177
0.066581
0.068023
0.065081
0.006044
0.028698
0.057545
0.040353
0.065438
0.024109
0.068677
0.005764
0.068949
0.005346
0.053188
0.064609
0.067762
0.006978
0.022121
0.008130
0.002609
0.054490
0.058896
0.021057
0.014741
0.046752
0.064088
0.054188
0.039457
0.010075
0.007680
0.007790
0.055660
0.007007
0.051800
0.041996
0.029908
0.005903
0.057117
0.050173
0.021543
0.002060
0.056024
0.020043
0.012138
0.063278
0.020309
0.002292
0.024405
0.016003
0.019446
0.021000
0.038219
0.066411
0.008671
0.064408
0.045066
0.056630
0.013156
0.053527
0.012260
0.035165
0.062140
0.010531
0.019864
0.013087
0.004160
0.017481
0.010964
0.020227
0.056636
0.061281
0.055494
0.056082
0.032369
0.057487
0.003916
0.059912
0.062455
0.067018
0.062776
0.008196
0.066461
0.065437
0.014917
0.026751
0.055513
0.055965
0.056478
0.056576
0.011727
0.057006
0.057267
0.057300
0.067649
0.068528
0.019060
0.057525
0.054620
0.055900
0.043148
0.068040
0.068470
0.006743
0.048645
0.005365
0.043713
0.054976
0.040414
0.056764
0.026059
0.067978
0.057921
0.001571
0.066869
0.062622
0.065354
0.066219
0.067133
0.008548
0.067505
0.057157
0.004962
0.067059
0.068492
0.005003
0.067668
0.062181
0.022518
0.062758
0.032238
0.043903
0.019159
0.051732
0.057377
0.009442
0.011445
0.012178
0.042533
0.005048
0.027282
0.062848
0.016693
0.040678
0.003487
0.003357
0.059739
0.054663
0.007273
0.005026
0.055230
0.002113
0.061499
0.054715
0.005500
0.009628
0.054723
0.056451
0.002250
0.050254
0.063304
0.028788
0.007671
0.007932
0.035126
0.020167
0.012759
0.053721
0.065154
0.009696
0.055239
0.047447
0.022148
0.015104
0.066686
0.055149
0.061382
0.021987
0.010874
0.019551
0.065796
0.039038
0.013538
0.065147
0.063726
0.004500
0.061558
0.055352
0.013440
0.016176
0.015757
0.001584
0.023675
0.036001
0.024339
0.021433
0.064132
0.060822
0.007302
0.066572
0.067453
0.054324
0.056315
0.002764
0.054951
0.062044
0.067909
0.064211
0.068069
0.055478
0.066929
0.055973
0.021108
0.025728
0.004276
0.066958
0.010601
0.066790
0.057049
0.016225
0.005865
0.064343
0.068509
0.054234
0.066317
0.037749
0.055580
0.006539
0.066454
0.067028
0.014482
0.067637
0.055758
0.020649
0.058205
0.054469
0.061388
0.023177
0.023196
0.016993
0.032196
0.066015
0.047717
0.062777
0.062332
0.055329
0.012244
0.055235
0.009786
0.060743
0.009637
0.008513
0.053549
0.055375
0.060828
0.024756
0.004075
0.006343
0.053296
0.037937
0.002497
0.002685
0.053385
0.004894
0.023950
0.005447
0.055880
0.025345
0.031863
0.055907
0.001146
0.005621
0.022638
0.063531
0.055038
0.064079
0.065654
0.059919
0.022268
0.011155
0.014088
0.022734
0.023487
0.029456
0.008600
0.014975
0.017598
0.039256
0.065839
0.065478
0.017669
0.055538
0.007561
0.067071
0.053952
0.055067
0.009529
0.053211
0.063373
0.060098
0.065598
0.067256
0.054420
0.024342
0.065544
0.054224
0.062912
0.014563
0.005813
0.054732
0.064322
0.007216
0.006982
0.040577
0.066198
0.067228
0.053031
0.036111
0.007927
0.001818
0.015831
0.054020
0.019779
0.065226
0.003464
0.002794
0.059278
0.007131
0.015048
0.066501
0.066000
0.066467
0.062296
0.051292
0.001631
0.066654
0.025701
0.044943
0.052516
0.002618
0.010868
0.022689
0.020908
0.053124
0.025331
0.059856
0.019004
0.026376
0.042556
0.022765
0.038191
0.014745
0.050383
0.055157
0.065450
0.016425
0.012121
0.041882
0.011350
0.063218
0.064335
0.022471
0.060733
0.004998
0.008409
0.010288
0.007715
0.053345
0.002082
0.007404
0.027200
0.057790
0.004000
0.005901
0.056784
0.003348
0.008864
0.052949
0.002253
0.001321
0.063775
0.053190
0.010648
0.025019
0.052848
0.045329
0.065133
0.053479
0.047857
0.013462
0.061480
0.017862
0.027052
0.064572
0.063497
0.060788
0.004530
0.053134
0.000897
0.023666
0.016427
0.008658
0.061570
0.060037
0.023200
0.035753
0.062191
0.009978
0.054246
0.027983
0.008763
0.021040
0.053443
0.054899
0.066737
0.050513
0.029645
0.065019
0.053585
0.053132
0.057477
0.065742
0.054488
0.066226
0.060710
0.002948
0.062720
0.006262
0.065648
0.007813
0.055512
0.042949
0.051009
0.068674
0.053700
0.065454
0.062888
0.015433
0.003438
0.035910
0.023410
0.055117
0.007676
0.030237
0.017615
0.028257
0.006307
0.056329
0.066582
0.065858
0.062308
0.063258
0.006795
0.009017
0.064304
0.007102
0.054171
0.001336
0.051564
0.033763
0.018625
0.056816
0.007689
0.069796
0.052297
0.025442
0.036049
0.043174
0.016564
0.053477
0.012180
0.060231
0.010652
0.062037
0.009224
0.049843
0.051641
0.021298
0.008439
0.062976
0.020999
0.064227
0.060543
0.027786
0.002978
0.044619
0.060963
0.008127
0.018498
0.056105
0.054940
0.026480
0.006683
0.052332
0.041626
0.000872
0.065480
0.011772
0.007837
0.003905
0.064856
0.002408
0.005764
0.016803
0.014331
0.001119
0.005015
0.053988
0.053809
0.057158
0.007045
0.025597
0.030783
0.026253
0.026222
0.063003
0.052902
0.038079
0.064888
0.059321
0.025140
0.002722
0.045598
0.059574
0.026849
0.058639
0.008118
0.031896
0.005495
0.009657
0.033720
0.008780
0.019441
0.001451
0.001790
0.030760
0.061481