# vtk DataFile Version 2.0
Test
ASCII
DATASET POLYDATA
POINTS 7341 float
0.000000 0.000000 0.000000
1.000000 0.000000 0.000000
1.000000 1.000000 0.000000
0.000000 1.000000 0.000000
0.000000 0.500000 0.000000
0.500000 0.500000 0.000000
1.000000 0.500000 0.000000
0.499000 0.499000 0.000000
0.900000 0.010000 0.000000
0.029412 0.000000 0.000000
0.058824 0.000000 0.000000
0.088235 0.000000 0.000000
0.117647 0.000000 0.000000
0.147059 0.000000 0.000000
0.176471 0.000000 0.000000
0.205882 0.000000 0.000000
0.235294 0.000000 0.000000
0.264706 0.000000 0.000000
0.294118 0.000000 0.000000
0.323529 0.000000 0.000000
0.352941 0.000000 0.000000
0.382353 0.000000 0.000000
0.411765 0.000000 0.000000
0.441176 0.000000 0.000000
0.470588 0.000000 0.000000
0.500000 0.000000 0.000000
0.529412 0.000000 0.000000
0.558824 0.000000 0.000000
0.588235 0.000000 0.000000
0.617647 0.000000 0.000000
0.647059 0.000000 0.000000
0.676471 0.000000 0.000000
0.705882 0.000000 0.000000
0.735294 0.000000 0.000000
0.764706 0.000000 0.000000
0.794118 0.000000 0.000000
0.823529 0.000000 0.000000
0.852941 0.000000 0.000000
0.882353 0.000000 0.000000
0.911765 0.000000 0.000000
0.941176 0.000000 0.000000
0.970588 0.000000 0.000000
1.000000 0.029412 0.000000
1.000000 0.058824 0.000000
1.000000 0.088235 0.000000
1.000000 0.117647 0.000000
1.000000 0.147059 0.000000
1.000000 0.176471 0.000000
1.000000 0.205882 0.000000
1.000000 0.235294 0.000000
1.000000 0.264706 0.000000
1.000000 0.294118 0.000000
1.000000 0.323529 0.000000
1.000000 0.352941 0.000000
1.000000 0.382353 0.000000
1.000000 0.411765 0.000000
1.000000 0.441176 0.000000
1.000000 0.470588 0.000000
1.000000 0.529412 0.000000
1.000000 0.558824 0.000000
1.000000 0.588235 0.000000
1.000000 0.617647 0.000000
1.000000 0.647059 0.000000
1.000000 0.676471 0.000000
1.000000 0.705882 0.000000
1.000000 0.735294 0.000000
1.000000 0.764706 0.000000
1.000000 0.794118 0.000000
1.000000 0.823529 0.000000
1.000000 0.852941 0.000000
1.000000 0.882353 0.000000
1.000000 0.911765 0.000000
1.000000 0.941176 0.000000
1.000000 0.970588 0.000000
0.970588 1.000000 0.000000
0.941176 1.000000 0.000000
0.911765 1.000000 0.000000
0.882353 1.000000 0.000000
0.852941 1.000000 0.000000
0.823529 1.000000 0.000000
0.794118 1.000000 0.000000
0.764706 1.000000 0.000000
0.735294 1.000000 0.000000
0.705882 1.000000 0.000000
0.676471 1.000000 0.000000
0.647059 1.000000 0.000000
0.617647 1.000000 0.000000
0.588235 1.000000 0.000000
0.558824 1.000000 0.000000
0.529412 1.000000 0.000000
0.500000 1.000000 0.000000
0.470588 1.000000 0.000000
0.441176 1.000000 0.000000
0.411765 1.000000 0.000000
0.382353 1.000000 0.000000
0.352941 1.000000 0.000000
0.323529 1.000000 0.000000
0.294118 1.000000 0.000000
0.264706 1.000000 0.000000
0.235294 1.000000 0.000000
0.205882 1.000000 0.000000
0.176471 1.000000 0.000000
0.147059 1.000000 0.000000
0.117647 1.000000 0.000000
0.088235 1.000000 0.000000
0.058824 1.000000 0.000000
0.029412 1.000000 0.000000
0.000000 0.970588 0.000000
0.000000 0.941176 0.000000
0.000000 0.911765 0.000000
0.000000 0.882353 0.000000
0.000000 0.852941 0.000000
0.000000 0.823529 0.000000
0.000000 0.794118 0.000000
0.000000 0.764706 0.000000
0.000000 0.735294 0.000000
0.000000 0.705882 0.000000
0.000000 0.676471 0.000000
0.000000 0.647059 0.000000
0.000000 0.617647 0.000000
0.000000 0.588235 0.000000
0.000000 0.558824 0.000000
0.000000 0.529412 0.000000
0.007246 0.500000 0.000000
0.014493 0.500000 0.000000
0.021739 0.500000 0.000000
0.028986 0.500000 0.000000
0.036232 0.500000 0.000000
0.043478 0.500000 0.000000
0.050725 0.500000 0.000000
0.057971 0.500000 0.000000
0.065217 0.500000 0.000000
0.072464 0.500000 0.000000
0.079710 0.500000 0.000000
0.086957 0.500000 0.000000
0.094203 0.500000 0.000000
0.101449 0.500000 0.000000
0.108696 0.500000 0.000000
0.115942 0.500000 0.000000
0.123188 0.500000 0.000000
0.130435 0.500000 0.000000
0.137681 0.500000 0.000000
0.144928 0.500000 0.000000
0.152174 0.500000 0.000000
0.159420 0.500000 0.000000
0.166667 0.500000 0.000000
0.173913 0.500000 0.000000
0.181159 0.500000 0.000000
0.188406 0.500000 0.000000
0.195652 0.500000 0.000000
0.202899 0.500000 0.000000
0.210145 0.500000 0.000000
0.217391 0.500000 0.000000
0.224638 0.500000 0.000000
0.231884 0.500000 0.000000
0.239130 0.500000 0.000000
0.246377 0.500000 0.000000
0.253623 0.500000 0.000000
0.260870 0.500000 0.000000
0.268116 0.500000 0.000000
0.275362 0.500000 0.000000
0.282609 0.500000 0.000000
0.289855 0.500000 0.000000
0.297101 0.500000 0.000000
0.304348 0.500000 0.000000
0.311594 0.500000 0.000000
0.318841 0.500000 0.000000
0.326087 0.500000 0.000000
0.333333 0.500000 0.000000
0.340580 0.500000 0.000000
0.347826 0.500000 0.000000
0.355072 0.500000 0.000000
0.362319 0.500000 0.000000
0.369565 0.500000 0.000000
0.376812 0.500000 0.000000
0.384058 0.500000 0.000000
0.391304 0.500000 0.000000
0.398551 0.500000 0.000000
0.405797 0.500000 0.000000
0.413043 0.500000 0.000000
0.420290 0.500000 0.000000
0.427536 0.500000 0.000000
0.434783 0.500000 0.000000
0.442029 0.500000 0.000000
0.449275 0.500000 0.000000
0.456522 0.500000 0.000000
0.463768 0.500000 0.000000
0.471014 0.500000 0.000000
0.478261 0.500000 0.000000
0.485507 0.500000 0.000000
0.492754 0.500000 0.000000
0.510004 0.500000 0.000000
0.520408 0.500000 0.000000
0.531229 0.500000 0.000000
0.542483 0.500000 0.000000
0.554187 0.500000 0.000000
0.566359 0.500000 0.000000
0.579019 0.500000 0.000000
0.592185 0.500000 0.000000
0.605877 0.500000 0.000000
0.620118 0.500000 0.000000
0.634929 0.500000 0.000000
0.650332 0.500000 0.000000
0.666352 0.500000 0.000000
0.683013 0.500000 0.000000
0.700340 0.500000 0.000000
0.718361 0.500000 0.000000
0.737103 0.500000 0.000000
0.756595 0.500000 0.000000
0.776867 0.500000 0.000000
0.797950 0.500000 0.000000
0.819877 0.500000 0.000000
0.842681 0.500000 0.000000
0.866398 0.500000 0.000000
0.891064 0.500000 0.000000
0.916716 0.500000 0.000000
0.943396 0.500000 0.000000
0.971143 0.500000 0.000000
0.000000 0.470588 0.000000
0.000000 0.441176 0.000000
0.000000 0.411765 0.000000
0.000000 0.382353 0.000000
0.000000 0.352941 0.000000
0.000000 0.323529 0.000000
0.000000 0.294118 0.000000
0.000000 0.264706 0.000000
0.000000 0.235294 0.000000
0.000000 0.205882 0.000000
0.000000 0.176471 0.000000
0.000000 0.147059 0.000000
0.000000 0.117647 0.000000
0.000000 0.088235 0.000000
0.000000 0.058824 0.000000
0.000000 0.029412 0.000000
0.500341 0.497365 0.000000
0.501682 0.495729 0.000000
0.503023 0.494094 0.000000
0.504365 0.492458 0.000000
0.505706 0.490823 0.000000
0.507047 0.489187 0.000000
0.508388 0.487552 0.000000
0.509729 0.485916 0.000000
0.511070 0.484281 0.000000
0.512411 0.482645 0.000000
0.513753 0.481010 0.000000
0.515094 0.479375 0.000000
0.516435 0.477739 0.000000
0.517776 0.476104 0.000000
0.519117 0.474468 0.000000
0.520458 0.472833 0.000000
0.521799 0.471197 0.000000
0.523140 0.469562 0.000000
0.524482 0.467926 0.000000
0.525823 0.466291 0.000000
0.527164 0.464656 0.000000
0.528505 0.463020 0.000000
0.529846 0.461385 0.000000
0.531187 0.459749 0.000000
0.532528 0.458114 0.000000
0.533870 0.456478 0.000000
0.535211 0.454843 0.000000
0.536552 0.453207 0.000000
0.537893 0.451572 0.000000
0.539234 0.449936 0.000000
0.540575 0.448301 0.000000
0.541916 0.446666 0.000000
0.543258 0.445030 0.000000
0.544599 0.443395 0.000000
0.545940 0.441759 0.000000
0.547281 0.440124 0.000000
0.548622 0.438488 0.000000
0.549963 0.436853 0.000000
0.551304 0.435217 0.000000
0.552645 0.433582 0.000000
0.553987 0.431946 0.000000
0.555328 0.430311 0.000000
0.556669 0.428676 0.000000
0.558010 0.427040 0.000000
0.559351 0.425405 0.000000
0.560692 0.423769 0.000000
0.562033 0.422134 0.000000
0.563375 0.420498 0.000000
0.564716 0.418863 0.000000
0.566057 0.417227 0.000000
0.567398 0.415592 0.000000
0.568739 0.413957 0.000000
0.570080 0.412321 0.000000
0.571421 0.410686 0.000000
0.572763 0.409050 0.000000
0.574104 0.407415 0.000000
0.575445 0.405779 0.000000
0.576786 0.404144 0.000000
0.578127 0.402508 0.000000
0.579468 0.400873 0.000000
0.580809 0.399237 0.000000
0.582151 0.397602 0.000000
0.583492 0.395967 0.000000
0.584833 0.394331 0.000000
0.586174 0.392696 0.000000
0.587515 0.391060 0.000000
0.588856 0.389425 0.000000
0.590197 0.387789 0.000000
0.591538 0.386154 0.000000
0.592880 0.384518 0.000000
0.594221 0.382883 0.000000
0.595562 0.381247 0.000000
0.596903 0.379612 0.000000
0.598244 0.377977 0.000000
0.599585 0.376341 0.000000
0.600926 0.374706 0.000000
0.602268 0.373070 0.000000
0.603609 0.371435 0.000000
0.604950 0.369799 0.000000
0.606291 0.368164 0.000000
0.607632 0.366528 0.000000
0.608973 0.364893 0.000000
0.610314 0.363258 0.000000
0.611656 0.361622 0.000000
0.612997 0.359987 0.000000
0.614338 0.358351 0.000000
0.615679 0.356716 0.000000
0.617020 0.355080 0.000000
0.618361 0.353445 0.000000
0.619702 0.351809 0.000000
0.621043 0.350174 0.000000
0.622385 0.348538 0.000000
0.623726 0.346903 0.000000
0.625067 0.345268 0.000000
0.626408 0.343632 0.000000
0.627749 0.341997 0.000000
0.629090 0.340361 0.000000
0.630431 0.338726 0.000000
0.631773 0.337090 0.000000
0.633114 0.335455 0.000000
0.634455 0.333819 0.000000
0.635796 0.332184 0.000000
0.637137 0.330548 0.000000
0.638478 0.328913 0.000000
0.639819 0.327278 0.000000
0.641161 0.325642 0.000000
0.642502 0.324007 0.000000
0.643843 0.322371 0.000000
0.645184 0.320736 0.000000
0.646525 0.319100 0.000000
0.647866 0.317465 0.000000
0.649207 0.315829 0.000000
0.650548 0.314194 0.000000
0.651890 0.312559 0.000000
0.653231 0.310923 0.000000
0.654572 0.309288 0.000000
0.655913 0.307652 0.000000
0.657254 0.306017 0.000000
0.658595 0.304381 0.000000
0.659936 0.302746 0.000000
0.661278 0.301110 0.000000
0.662619 0.299475 0.000000
0.663960 0.297839 0.000000
0.665301 0.296204 0.000000
0.666642 0.294569 0.000000
0.667983 0.292933 0.000000
0.669324 0.291298 0.000000
0.670666 0.289662 0.000000
0.672007 0.288027 0.000000
0.673348 0.286391 0.000000
0.674689 0.284756 0.000000
0.676030 0.283120 0.000000
0.677371 0.281485 0.000000
[...]
POINT_DATA 7341
SCALARS UX float 1
LOOKUP_TABLE default
0.000000
0.000000
0.055500
0.055500
0.027270
0.022493
0.023753
0.022013
0.000317
0.000000
0.000000
0.000000
0.000000
0.000000
0.000000
0.000000
0.000000
0.000000
0.000000
0.000000
0.000000
0.000000
0.000000
0.000000
0.000000
0.000000
0.000000
0.000000
0.000000
0.000000
0.000000
0.000000
0.000000
0.000000
0.000000
0.000000
0.000000
0.000000
0.000000
0.000000
0.000000
-0.000000
0.002023
0.003077
0.004057
0.005058
0.006129
0.007255
0.008455
0.009675
0.010992
0.012366
0.013805
0.015311
0.016872
0.018506
0.020208
0.021953
0.025604
0.027473
0.029344
0.031221
0.033095
0.034963
0.036833
0.038701
0.040566
0.042431
0.044297
0.046164
0.048031
0.049896
0.051762
0.053632
0.055500
0.055500
0.055500
0.055500
0.055500
0.055500
0.055500
0.055500
0.055500
0.055500
0.055500
0.055500
0.055500
0.055500
0.055500
0.055500
0.055500
0.055500
0.055500
0.055500
0.055500
0.055500
0.055500
0.055500
0.055500
0.055500
0.055500
0.055500
0.055500
0.055500
0.055500
0.055500
0.055500
0.053727
0.051958
0.050189
0.048429
0.046672
0.044927
0.043184
0.041454
0.039735
0.038022
0.036325
0.034636
0.032956
0.031293
0.029633
0.028051
0.026769
0.026455
0.025949
0.025560
0.025342
0.025247
0.025121
0.025061
0.024454
0.023980
0.024062
0.023933
0.023742
0.023883
0.023815
0.024274
0.023223
0.023510
0.023650
0.023818
0.023759
0.023806
0.023211
0.023297
0.023445
0.023846
0.023016
0.023171
0.023207
0.023213
0.023396
0.023277
0.023244
0.023405
0.022864
0.023142
0.023275
0.022650
0.023178
0.022633
0.022901
0.022473
0.022700
0.022897
0.022479
0.022585
0.022650
0.022694
0.022777
0.022224
0.022812
0.022478
0.022724
0.022339
0.022682
0.022346
0.022662
0.022504
0.022401
0.022224
0.022619
0.022527
0.022506
0.022295
0.022622
0.022300
0.022573
0.022524
0.022364
0.022325
0.022313
0.022311
0.022309
0.022305
0.022301
0.022308
0.022312
0.022320
0.022329
0.022344
0.022363
0.022385
0.022415
0.022450
0.022493
0.022544
0.022604
0.022673
0.022754
0.022847
0.022956
0.023080
0.023222
0.023386
0.023562
0.021641
0.019881
0.018468
0.017196
0.016035
0.014901
0.013811
0.012735
0.011696
0.010677
0.009672
0.008680
0.007726
0.006782
0.005807
0.004901
0.021628
0.021266
0.021086
0.020930
0.020826
0.020703
0.020597
0.020495
0.020395
0.020299
0.020203
0.020103
0.020004
0.019905
0.019804
0.019707
0.019609
0.019516
0.019423
0.019331
0.019241
0.019150
0.019060
0.018970
0.018881
0.018793
0.018705
0.018617
0.018529
0.018442
0.018355
0.018268
0.018182
0.018096
0.018009
0.017923
0.017838
0.017752
0.017666
0.017581
0.017496
0.017410
0.017325
0.017240
0.017155
0.017070
0.016985
0.016901
0.016816
0.016731
0.016646
0.016561
0.016477
0.016392
0.016308
0.016223
0.016138
0.016054
0.015969
0.015885
0.015800
0.015716
0.015631
0.015547
0.015463
0.015378
0.015294
0.015210
0.015125
0.015041
0.014957
0.014873
0.014789
0.014705
0.014621
0.014536
0.014453
0.014369
0.014285
0.014201
0.014117
0.014033
0.013950
0.013866
0.013783
0.013699
0.013616
0.013532
0.013449
0.013366
0.013283
0.013200
0.013117
0.013034
0.012951
0.012868
0.012786
0.012703
0.012621
0.012538
0.012456
0.012374
0.012292
0.012210
0.012128
0.012046
0.011965
0.011883
0.011802
0.011721
0.011640
0.011559
0.011478
0.011398
0.011317
0.011237
0.011157
0.011077
0.010997
0.010918
0.010838
0.010759
0.010680
0.010601
0.010522
0.010443
0.010365
0.010287
0.010209
0.010131
0.010053
0.009975
0.009898
0.009821
0.009744
0.009667
0.009590
0.009514
0.009437
0.009361
0.009286
0.009210
0.009134
0.009059
0.008984
0.008909
0.008835
0.008760
0.008686
0.008612
0.008538
0.008465
0.008391
0.008318
0.008245
0.008173
0.008100
0.008028
0.007956
0.007884
0.007813
0.007742
0.007671
0.007600
0.007529
0.007459
0.007389
0.007319
0.007249
0.007180
0.007111
0.007042
0.006973
0.006905
0.006837
0.006769
0.006702
0.006634
0.006567
0.006501
0.006434
0.006368
0.006302
0.006236
0.006171
0.006105
0.006040
0.005976
0.005911
0.005847
0.005783
0.005720
0.005657
0.005594
0.005531
0.005469
0.005406
0.005345
0.005283
0.005222
0.005161
0.005100
0.005039
0.004979
0.004919
0.004860
0.004801
0.004742
0.004683
0.004624
0.004566
0.004508
0.004451
0.004394
0.004336
0.004280
0.004223
0.004167
0.004111
0.004056
0.004001
0.003946
0.003891
0.003837
0.003783
0.003729
0.003675
0.003622
0.003569
0.003516
0.003464
0.003412
0.003360
0.003308
0.003257
0.003206
0.003155
0.003104
0.003054
0.003004
0.002954
0.002905
0.002856
0.002807
0.002758
0.002710
0.002662
0.002614
0.002566
0.002519
0.002472
0.002425
0.002378
0.002331
0.002285
0.002239
0.002193
0.002148
0.002102
0.002057
0.002012
0.001967
0.001923
0.001878
0.001834
0.001790
0.001746
0.001702
0.001658
0.001615
0.001571
0.001528
0.001484
0.001441
0.001398
0.001355
0.001312
0.001269
0.001226
0.001182
0.001139
0.001096
0.001052
0.001008
0.000964
0.000920
0.000875
0.000830
0.000785
0.000739
0.000692
0.000646
0.000598
0.000551
0.000503
0.000455
0.000408
0.000363
0.020598
0.020273
0.020095
0.000895
0.000676
0.021375
0.000593
0.021238
0.021031
0.011999
0.021215
0.000548
0.013614
0.021568
0.006771
0.010430
0.021248
0.000553
0.001237
0.020092
0.003619
0.022053
0.021326
0.007386
0.020189
0.018065
0.022731
0.016597
0.021501
0.020332
0.001732
0.020500
0.020203
0.021322
0.020864
0.000503
0.021122
0.001634
0.020553
0.000739
0.020414
0.020143
0.019992
0.021948
0.000956
0.021005
0.000763
0.020710
0.021311
0.023709
0.000659
0.021157
0.004571
0.017003
0.000541
0.021217
0.021229
0.015816
0.021160
0.021280
0.008082
0.009353
0.000545
0.000562
0.020056
0.020278
0.012499
0.019893
0.021727
0.000616
0.021417
0.000633
0.013496
0.000754
0.020036
0.009387
0.000965
0.021789
0.006374
0.002174
0.004926
0.002373
0.002916
0.020408
0.020604
0.020734
0.020361
0.020234
0.020135
0.020833
0.021727
0.021467
0.021223
0.021206
0.021144
0.020979
0.023185
0.022498
0.022345
0.022277
0.020735
0.000658
0.020959
0.021559
0.019557
0.019787
0.001577
0.019754
0.001323
0.020288
0.013099
0.001130
0.013230
0.020755
0.008030
0.020128
0.001096
0.020081
0.003564
0.015925
0.020474
0.010123
0.001966
0.020017
0.020721
0.001141
0.020450
0.020401
0.019667
0.021724
0.006033
0.019951
0.020884
0.021370
0.000551
0.020625
0.020250
0.000517
0.021324
0.020616
0.005662
0.021306
0.000500
0.017786
0.020364
0.021279
0.002557
0.021255
0.014855
0.010478
0.021241
0.021250
0.000552
0.021288
0.001272
0.021339
0.020185
0.000636
0.014969
0.000654
0.021417
0.020106
0.018137
0.000800
0.011566
0.021620
0.020093
0.001087
0.008388
0.003488
0.001435
0.004508
0.020041
0.020097
0.020509
0.020294
0.020092
0.020055
0.020174
0.019894
0.020632
0.020732
0.020858
0.021342
0.021004
0.021397
0.021035
0.021449
0.021483
0.021840
0.021926
0.021300
0.022706
0.021795
0.023132
0.020664
0.020914
0.020693
0.006878
0.001929
0.020318
0.020171
0.006947
0.020328
0.019523
0.020550
0.020055
0.021006
0.001785
0.019585
0.011231
0.020029
0.020032
0.002405
0.003060
0.001049
0.019489
0.021271
0.001133
0.021389
0.019492
0.020473
0.014259
0.020095
0.019591
0.021141
0.019922
0.001147
0.017927
0.020431
0.020413
0.020748
0.001039
0.014919
0.020246
0.001340
0.020075
0.010602
0.009180
0.001394
0.020181
0.012263
0.020483
0.001140
0.001213
0.001657
0.020719
0.001059
0.004363
0.019645
0.019682
0.020302
0.020050
0.020112
0.002166
0.016847
0.011792
0.009131
0.020577
0.008078
0.007064
0.001174
0.005427
0.003968
0.019408
0.019528
0.019588
0.019812
0.019879
0.001116
0.019644
0.018961
0.020116
0.019991
0.020587
0.020239
0.021361
0.022328
0.020558
0.020427
0.020287
0.019442
0.021892
0.021162
0.020435
0.020538
0.020486
0.020594
0.020687
0.005824
0.002484
0.021089
0.020402
0.020383
0.019814
0.021489
0.019121
0.019373
0.019410
0.002320
0.018997
0.011689
0.001783
0.012137
0.020132
0.001592
0.003343
0.018744
0.004015
0.016972
0.001598
0.019866
0.008872
0.019181
0.019566
0.020889
0.001973
0.020302
0.002829
0.019978
0.013982
0.020338
0.020261
0.001407
0.020250
0.019842
0.019317
0.010897
0.020036
0.001714
0.019543
0.018567
0.019942
0.007744
0.020017
0.014030
0.016361
0.020198
0.002640
0.020271
0.007736
0.006636
0.004465
0.004937
0.020117
0.019567
0.002028
0.002042
0.019498
0.002636
0.019479
0.019606
0.018938
0.019880
0.020440
0.020151
0.019510
0.005488
0.021169
0.019778
0.021229
0.020287
0.019114
0.001041
0.019823
0.019843
0.021045
0.015098
0.022504
0.019249
0.021964
0.020882
0.019642
0.020817
0.020170
0.020331
0.020350
0.006246
0.005110
0.020170
0.020210
0.020088
0.020985
0.020282
0.020513
0.020352
0.021617
0.003828
0.002840
0.017935
0.002381
0.019238
0.019414
0.019485
0.007582
0.011697
0.019601
0.019723
0.001617
0.019456
0.019962
0.019243
0.020025
0.020099
0.019167
0.019231
0.002619
0.008461
0.003604
0.020466
0.019859
0.016173
0.005771
0.001714
0.002321
0.006146
0.019070
0.019216
0.001636
0.003404
0.010760
0.019583
0.020241
0.019545
0.016375
0.018455
0.019157
0.020594
0.019826
0.020503
0.019478
0.004833
0.003084
0.019251
0.018853
0.012840
0.019193
0.019134
0.003951
0.015121
0.020032
0.018676
0.020268
0.007370
0.017740
0.002567
0.001757
0.013128
0.018850
0.009900
0.006214
0.019356
0.019630
0.019487
0.008679
0.019134
0.001841
0.019395
0.019089
0.019209
0.001584
0.020636
0.019564
0.023125
0.019733
0.020659
0.020017
0.019644
0.019700
0.020132
0.020582
0.019418
0.019993
0.019858
0.001523
0.020119
0.020124
0.019461
0.020147
0.019386
0.020565
0.020093
0.018813
0.019005
0.019174
0.012597
0.018749
0.002106
0.018997
0.005424
0.015698
0.003838
0.018896
0.002057
0.017683
0.019930
0.002376
0.019209
0.019434
0.020024
0.019019
0.018358
0.001591
0.008374
0.009554
0.002318
0.002653
0.018917
0.019867
0.002031
0.018836
0.019469
0.019947
0.019832
0.019045
0.020261
0.019931
0.012714
0.004218
0.010701
0.017823
0.004535
0.005336
0.019316
0.002851
0.008109
0.001630
0.019908
0.017342
0.019020
0.017847
0.017559
0.006967
0.009751
0.003665
0.003220
0.019363
0.010487
0.019063
0.019943
0.014822
0.017660
0.020148
0.018791
0.019152
0.019914
0.019161
0.020030
0.018786
0.019401
0.019991
0.020203
0.006885
0.002987
0.019708
0.020902
0.019445
0.020556
0.019277
0.019214
0.019375
0.002174
0.002782
0.019854
0.018811
0.020239
0.020087
0.019310
0.020137
0.004861
0.020249
0.018794
0.019940
0.018951
0.015176
0.019695
0.019132
0.020020
0.020004
0.019257
0.018670
0.003847
0.016970
0.002839
0.018367
0.008194
0.004784
0.015526
0.012436
0.005664
0.002002
0.019086
0.018504
0.003344
0.013769
0.018151
0.018892
0.002186
0.016722
0.018234
0.004872
0.018930
0.019089
0.002218
0.019727
0.019446
0.018906
0.018840
0.019204
0.018524
0.018775
0.019645
0.019301
0.018788
0.019429
0.013859
0.019008
0.009312
0.020048
0.010258
0.016729
0.004934
0.020339
0.017528
0.003487
0.001179
0.002758
0.002458
0.019182
0.003312
0.019802
0.002524
0.020492
0.006505
0.005968
0.011445
0.006663
0.002181
0.009174
0.003601
0.019708
0.019966
0.019883
0.019820
0.018184
0.019107
0.019311
0.018794
0.017085
0.003179
0.019038
0.018724
0.002030
0.019888
0.019273
0.014917
0.019865
0.019799
0.019062
0.018882
0.019223
0.019968
0.019103
0.002980
0.019727
0.019039
0.020028
0.004366
0.020496
0.019850
0.019604
0.002044
0.019502
0.018737
0.019899
0.020242
0.004358
0.002514
0.006012
0.002450
0.003256
0.011502
0.002006
0.002274
0.018477
0.009917
0.019052
0.019514
0.003087
0.019468
0.016403
0.014830
0.019698
0.004232
0.002535
0.017161
0.003018
0.007663
0.003406
0.004692
0.018828
0.019462
0.019704
0.018570
0.019502
0.006137
0.018801
0.019069
0.019722
0.019631
0.018699
0.009244
0.018226
0.001610
0.016314
0.018462
0.016879
0.016528
0.017418
0.011451
0.019010
0.018738
0.018790
0.018653
0.004032
0.019550
0.002367
0.005386
0.002473
0.020040
0.007360
0.012614
0.015897
0.018920
0.005259
0.003704
0.002177
0.014657
0.019048
0.004217
0.018907
0.019222
0.019566
0.019636
0.018436
0.018078
0.018627
0.018534
0.018782
0.018869
0.018774
0.005648
0.018874
0.018988
0.015935
0.019252
0.019737
0.019828
0.018765
0.020012
0.019806
0.000568
0.019371
0.018492
0.019730
0.002980
0.019762
0.013513
0.018515
0.002724
0.020032
0.018237
0.004968
0.005711
0.016033
0.017950
0.018415
0.007405
0.013238
0.002831
0.018192
0.011620
0.016195
0.002250
0.018754
0.002319
0.001969
0.019041
0.019108
0.018551
0.001831
0.004105
0.019597
0.019575
0.006920
0.017426
0.017262
0.015693
0.003074
0.018639
0.018620
0.018481
0.017898
0.018460
0.010624
0.001236
0.018654
0.001927
0.015451
0.003096
0.019672
0.006590
0.004568
0.019521
0.019622
0.006035
0.019388
0.008905
0.019673
0.018565
0.002448
0.003692
0.019559
0.002666
0.018996
0.002793
0.003177
0.004440
0.018966
0.013643
0.007184
0.015404
0.019133
0.006432
0.019514
0.019231
0.012209
0.018830
0.018462
0.018729
0.018620
0.018824
0.018387
0.018381
0.018857
0.018747
0.014312
0.019180
0.017779
0.018584
0.019773
0.003481
0.018467
0.019653
0.019631
0.011051
0.002605
0.017089
0.015319
0.016289
0.018533
0.004844
0.015496
0.017225
0.006736
0.013000
0.002974
0.003692
0.015068
0.002622
0.014718
0.001841
0.016774
0.018135
0.018770
0.019008
0.003628
0.019180
0.010747
0.019448
0.018287
0.018300
0.005450
0.018568
0.003551
0.019470
0.010713
0.003223
0.018238
0.018680
0.003912
0.002528
0.017631
0.007994
0.017849
0.018451
0.018448
0.018360
0.018339
0.016459
0.004747
0.003701
0.007006
0.019442
0.002862
0.002680
0.004444
0.018632
0.005206
0.008224
0.017386
0.015888
0.001604
0.014400
0.018704
0.018541
0.006769
0.012532
0.019498
0.019355
0.001478
0.018886
0.018542
0.018794
0.018122
0.003336
0.019534
0.018448
0.018540
0.019366
0.018172
0.019445
0.018383
0.018574
0.018546
0.018879
0.001077
0.018738
0.017739
0.011846
0.019529
0.005950
0.019460
0.014599
0.017430
0.018175
0.000850
0.018314
0.018381
0.019587
0.018833
0.013967
0.002840
0.002296
0.019547
0.003281
0.018124
0.017870
0.005446
0.010767
0.015678
0.012632
0.003873
0.017239
0.014725
0.018071
0.003254
0.003236
0.002191
0.019264
0.002884
0.013791
0.018412
0.002563
0.002285
0.019001
0.016764
0.018570
0.006183
0.018253
0.016472
0.001532
0.006873
0.017426
0.004085
0.004711
0.019146
0.004641
0.018191
0.017985
0.018357
0.018124
0.018388
0.011423
0.009657
0.005129
0.018302
0.001017
0.015887
0.004161
0.007335
0.015242
0.018436
0.018029
0.018011
0.013535
0.003765
0.005660
0.018440
0.003633
0.005056
0.001989
0.007564
0.011561
0.003081
0.008005
0.017113
0.019321
0.019313
0.018750
0.018540
0.001381
0.018125
0.019407
0.019462
0.019421
0.019274
0.018105
0.002873
0.018241
0.005429
0.018058
0.018212
0.009797
0.018402
0.003087
0.018018
0.018201
0.018315
0.019450
0.003780
0.017909
0.016968
0.018238
0.002865
0.008778
0.001252
0.002818
0.019371
0.000370
0.003161
0.018133
0.018792
0.019332
0.019164
0.018249
0.013651
0.001917
0.014836
0.018282
0.016734
0.019355
0.019467
0.000911
0.017969
0.006336
0.005605
0.014997
0.010729
0.012253
0.016518
0.006708
0.004124
0.003495
0.004257
0.017731
0.014255
0.007925
0.013991
0.001868
0.018140
0.016071
0.017891
0.002231
0.007953
0.018000
0.004530
0.005415
0.003547
0.001007
0.001219
0.004142
0.017787
0.006463
0.006073
0.003316
0.014724
0.014251
0.004324
0.016119
0.001769
0.018467
0.012422
0.019128
0.018795
0.005747
0.018044
0.009979
0.019105
0.018218
0.018099
0.017950
0.016776
0.004396
0.003706
0.010487
0.007873
0.002506
0.013351
0.016385
0.019285
0.018295
0.017886
0.019370
0.017963
0.017883
0.018076
0.018656
0.016704
0.005088
0.017844
0.018037
0.001288
0.019160
0.017975
0.018148
0.017623
0.019346
0.019209
0.017908
0.017758
0.017804
0.015613
0.002992
0.005520
0.005302
0.019378
0.018927
0.019195
0.018470
0.002809
0.009882
0.018206
0.013323
0.018953
0.008546
0.019297
0.002766
0.019356
0.002553
0.015742
0.018590
0.019135
0.003117
0.009114
0.003658
0.001493
0.017535
0.018038
0.006328
0.004855
0.014325
0.018745
0.015970
0.013012
0.003988
0.003489
0.003407
0.017149
0.003156
0.015413
0.013274
0.010077
0.002764
0.017648
0.015085
0.008850
0.001232
0.017675
0.007256
0.004999
0.018343
0.007813
0.001354
0.008584
0.006169
0.006123
0.008411
0.012338
0.018912
0.003646
0.018571
0.013953
0.017420
0.004526
0.015806
0.004420
0.011519
0.018054
0.004076
0.006598
0.004317
0.002153
0.005395
0.004640
0.007382
0.017437
0.018393
0.017724
0.017801
0.011390
0.016744
0.002011
0.017233
0.018056
0.019046
0.018566
0.003414
0.019053
0.018927
0.005856
0.009229
0.017775
0.017832
0.017882
0.017741
0.004880
0.017536
0.016639
0.017838
0.019124
0.019286
0.005901
0.017870
0.017594
0.017258
0.013529
0.019207
0.019272
0.003070
0.015425
0.002566
0.014069
0.017667
0.012896
0.017458
0.009076
0.019235
0.017743
0.000965
0.019016
0.018205
0.018733
0.018407
0.018804
0.003584
0.019125
0.017553
0.002461
0.019036
0.019289
0.002429
0.019144
0.018503
0.007180
0.018533
0.010685
0.013641
0.007051
0.015427
0.016752
0.003885
0.004394
0.004998
0.013686
0.002489
0.009333
0.018092
0.005216
0.012906
0.001883
0.001801
0.018140
0.017532
0.003262
0.002442
0.016272
0.001264
0.017995
0.016106
0.002623
0.003885
0.017492
0.017584
0.001340
0.015081
0.018366
0.010585
0.003379
0.003443
0.011474
0.007018
0.004619
0.016720
0.018865
0.004206
0.017054
0.014463
0.007915
0.004868
0.018963
0.016993
0.018337
0.006710
0.004593
0.007403
0.018843
0.012508
0.004687
0.018711
0.017970
0.002239
0.017918
0.017585
0.005391
0.006196
0.005071
0.000987
0.008935
0.012161
0.008526
0.006476
0.018537
0.018278
0.003255
0.018986
0.019124
0.017502
0.017442
0.001557
0.017634
0.018122
0.019203
0.018738
0.019218
0.017720
0.019012
0.017771
0.008583
0.009852
0.002195
0.019107
0.004510
0.019015
0.017582
0.006258
0.002756
0.018310
0.019253
0.017453
0.018928
0.012183
0.017168
0.003003
0.018957
0.019058
0.004834
0.019180
0.017931
0.006200
0.017871
0.017331
0.018309
0.006885
0.007917
0.005423
0.010641
0.018905
0.014505
0.018320
0.017958
0.016323
0.005007
0.017174
0.004231
0.017737
0.003974
0.003660
0.016568
0.017056
0.017807
0.008597
0.002078
0.002935
0.017179
0.012189
0.001446
0.001532
0.017196
0.002394
0.007174
0.002606
0.017593
0.009653
0.011180
0.017250
0.000744
0.002706
0.007407
0.018418
0.017490
0.018695
0.018493
0.017268
0.006932
0.004673
0.004890
0.008233
0.008698
0.009914
0.003824
0.005842
0.005540
0.012872
0.018867
0.018798
0.006626
0.017381
0.003357
0.019072
0.017253
0.016208
0.003887
0.016568
0.018403
0.018123
0.018910
0.019105
0.017405
0.009271
0.018783
0.017406
0.018531
0.005732
0.002741
0.016938
0.018576
0.003248
0.003166
0.012851
0.018894
0.019115
0.015689
0.011714
0.003424
0.001128
0.005028
0.017355
0.005980
0.018747
0.001851
0.001587
0.018023
0.003184
0.005027
0.018487
0.018883
0.018979
0.018185
0.016125
0.001018
0.019054
0.009941
0.013866
0.015625
0.001482
0.004272
0.008031
0.007541
0.016993
0.007981
0.018047
0.005938
0.009245
0.013276
0.008013
0.012228
0.005109
0.015135
0.016318
0.018825
0.006249
0.004636
0.013453
0.004724
0.018076
0.018714
0.006683
0.017448
0.002465
0.003636
0.004170
0.003420
0.017102
0.001254
0.003323
0.009798
0.017753
0.002056
0.002778
0.017692
0.001814
0.003913
0.016465
0.001344
0.000850
0.018498
0.017102
0.004238
0.007583
0.015721
0.013937
0.018748
0.015919
0.014517
0.005383
0.018034
0.006659
0.009231
0.018639
0.017939
0.017712
0.002253
0.017130
0.000595
0.007046
0.005333
0.003696
0.018311
0.017631
0.008132
0.012010
0.018179
0.004287
0.016961
0.010124
0.003699
0.007546
0.017160
0.016983
0.019037
0.015124
0.010600
0.018720
0.016540
0.016430
0.017779
0.018858
0.017364
0.018955
0.017809
0.001649
0.018286
0.002955
0.018833
0.003440
0.017105
0.013448
0.015997
0.018971
0.017289
0.018871
0.018505
0.005178
0.001854
0.011627
0.007760
0.017439
0.003485
0.010096
0.005512
0.010375
0.002927
0.017684
0.019031
0.018893
0.018233
0.018407
0.003105
0.003974
0.018589
0.003125
0.016757
0.000871
0.016234
0.011063
0.005720
0.017909
0.003420
0.019060
0.016858
0.007535
0.011637
0.013407
0.006266
0.015948
0.004975
0.018084
0.004303
0.018195
0.003903
0.014996
0.015997
0.006386
0.003659
0.018499
0.007505
0.018589
0.017451
0.009405
0.001667
0.014130
0.017976
0.003574
0.005851
0.017510
0.017387
0.007918
0.003068
0.016838
0.013065
0.000572
0.018852
0.004571
0.003480
0.002024
0.018739
0.001408
0.002729
0.005485
0.005633
0.000752
0.002443
0.016665
0.016719
0.016741
0.003249
0.008799
0.010630
0.008790
0.008993
0.018371
0.015760
0.012169
0.018716
0.017457
0.007763
0.001559
0.013981
0.017567
0.009553
0.017865
0.003556
0.010998
0.002653
0.004001
0.011022
0.003723
0.007104
0.000926
0.001107
0.010218
0.018048