# vtk DataFile Version 2.0
Test
ASCII
DATASET POLYDATA
POINTS 7341 float
0.000000 0.000000 0.000000
1.000000 0.000000 0.000000
1.000000 1.000000 0.000000
0.000000 1.000000 0.000000
0.000000 0.500000 0.000000
0.500000 0.500000 0.000000
1.000000 0.500000 0.000000
0.499000 0.499000 0.000000
0.900000 0.010000 0.000000
0.029412 0.000000 0.000000
0.058824 0.000000 0.000000
0.088235 0.000000 0.000000
0.117647 0.000000 0.000000
0.147059 0.000000 0.000000
0.176471 0.000000 0.000000
0.205882 0.000000 0.000000
0.235294 0.000000 0.000000
0.264706 0.000000 0.000000
0.294118 0.000000 0.000000
0.323529 0.000000 0.000000
0.352941 0.000000 0.000000
0.382353 0.000000 0.000000
0.411765 0.000000 0.000000
0.441176 0.000000 0.000000
0.470588 0.000000 0.000000
0.500000 0.000000 0.000000
0.529412 0.000000 0.000000
0.558824 0.000000 0.000000
0.588235 0.000000 0.000000
0.617647 0.000000 0.000000
0.647059 0.000000 0.000000
0.676471 0.000000 0.000000
0.705882 0.000000 0.000000
0.735294 0.000000 0.000000
0.764706 0.000000 0.000000
0.794118 0.000000 0.000000
0.823529 0.000000 0.000000
0.852941 0.000000 0.000000
0.882353 0.000000 0.000000
0.911765 0.000000 0.000000
0.941176 0.000000 0.000000
0.970588 0.000000 0.000000
1.000000 0.029412 0.000000
1.000000 0.058824 0.000000
1.000000 0.088235 0.000000
1.000000 0.117647 0.000000
1.000000 0.147059 0.000000
1.000000 0.176471 0.000000
1.000000 0.205882 0.000000
1.000000 0.235294 0.000000
1.000000 0.264706 0.000000
1.000000 0.294118 0.000000
1.000000 0.323529 0.000000
1.000000 0.352941 0.000000
1.000000 0.382353 0.000000
1.000000 0.411765 0.000000
1.000000 0.441176 0.000000
1.000000 0.470588 0.000000
1.000000 0.529412 0.000000
1.000000 0.558824 0.000000
1.000000 0.588235 0.000000
1.000000 0.617647 0.000000
1.000000 0.647059 0.000000
1.000000 0.676471 0.000000
1.000000 0.705882 0.000000
1.000000 0.735294 0.000000
1.000000 0.764706 0.000000
1.000000 0.794118 0.000000
1.000000 0.823529 0.000000
1.000000 0.852941 0.000000
1.000000 0.882353 0.000000
1.000000 0.911765 0.000000
1.000000 0.941176 0.000000
1.000000 0.970588 0.000000
0.970588 1.000000 0.000000
0.941176 1.000000 0.000000
0.911765 1.000000 0.000000
0.882353 1.000000 0.000000
0.852941 1.000000 0.000000
0.823529 1.000000 0.000000
0.794118 1.000000 0.000000
0.764706 1.000000 0.000000
0.735294 1.000000 0.000000
0.705882 1.000000 0.000000
0.676471 1.000000 0.000000
0.647059 1.000000 0.000000
0.617647 1.000000 0.000000
0.588235 1.000000 0.000000
0.558824 1.000000 0.000000
0.529412 1.000000 0.000000
0.500000 1.000000 0.000000
0.470588 1.000000 0.000000
0.441176 1.000000 0.000000
0.411765 1.000000 0.000000
0.382353 1.000000 0.000000
0.352941 1.000000 0.000000
0.323529 1.000000 0.000000
0.294118 1.000000 0.000000
0.264706 1.000000 0.000000
0.235294 1.000000 0.000000
0.205882 1.000000 0.000000
0.176471 1.000000 0.000000
0.147059 1.000000 0.000000
0.117647 1.000000 0.000000
0.088235 1.000000 0.000000
0.058824 1.000000 0.000000
0.029412 1.000000 0.000000
0.000000 0.970588 0.000000
0.000000 0.941176 0.000000
0.000000 0.911765 0.000000
0.000000 0.882353 0.000000
0.000000 0.852941 0.000000
0.000000 0.823529 0.000000
0.000000 0.794118 0.000000
0.000000 0.764706 0.000000
0.000000 0.735294 0.000000
0.000000 0.705882 0.000000
0.000000 0.676471 0.000000
0.000000 0.647059 0.000000
0.000000 0.617647 0.000000
0.000000 0.588235 0.000000
0.000000 0.558824 0.000000
0.000000 0.529412 0.000000
0.007246 0.500000 0.000000
0.014493 0.500000 0.000000
0.021739 0.500000 0.000000
0.028986 0.500000 0.000000
0.036232 0.500000 0.000000
0.043478 0.500000 0.000000
0.050725 0.500000 0.000000
0.057971 0.500000 0.000000
0.065217 0.500000 0.000000
0.072464 0.500000 0.000000
0.079710 0.500000 0.000000
0.086957 0.500000 0.000000
0.094203 0.500000 0.000000
0.101449 0.500000 0.000000
0.108696 0.500000 0.000000
0.115942 0.500000 0.000000
0.123188 0.500000 0.000000
0.130435 0.500000 0.000000
0.137681 0.500000 0.000000
0.144928 0.500000 0.000000
0.152174 0.500000 0.000000
0.159420 0.500000 0.000000
0.166667 0.500000 0.000000
0.173913 0.500000 0.000000
0.181159 0.500000 0.000000
0.188406 0.500000 0.000000
0.195652 0.500000 0.000000
0.202899 0.500000 0.000000
0.210145 0.500000 0.000000
0.217391 0.500000 0.000000
0.224638 0.500000 0.000000
0.231884 0.500000 0.000000
0.239130 0.500000 0.000000
0.246377 0.500000 0.000000
0.253623 0.500000 0.000000
0.260870 0.500000 0.000000
0.268116 0.500000 0.000000
0.275362 0.500000 0.000000
0.282609 0.500000 0.000000
0.289855 0.500000 0.000000
0.297101 0.500000 0.000000
0.304348 0.500000 0.000000
0.311594 0.500000 0.000000
0.318841 0.500000 0.000000
0.326087 0.500000 0.000000
0.333333 0.500000 0.000000
0.340580 0.500000 0.000000
0.347826 0.500000 0.000000
0.355072 0.500000 0.000000
0.362319 0.500000 0.000000
0.369565 0.500000 0.000000
0.376812 0.500000 0.000000
0.384058 0.500000 0.000000
0.391304 0.500000 0.000000
0.398551 0.500000 0.000000
0.405797 0.500000 0.000000
0.413043 0.500000 0.000000
0.420290 0.500000 0.000000
0.427536 0.500000 0.000000
0.434783 0.500000 0.000000
0.442029 0.500000 0.000000
0.449275 0.500000 0.000000
0.456522 0.500000 0.000000
0.463768 0.500000 0.000000
0.471014 0.500000 0.000000
0.478261 0.500000 0.000000
0.485507 0.500000 0.000000
0.492754 0.500000 0.000000
0.510004 0.500000 0.000000
0.520408 0.500000 0.000000
0.531229 0.500000 0.000000
0.542483 0.500000 0.000000
0.554187 0.500000 0.000000
0.566359 0.500000 0.000000
0.579019 0.500000 0.000000
0.592185 0.500000 0.000000
0.605877 0.500000 0.000000
0.620118 0.500000 0.000000
0.634929 0.500000 0.000000
0.650332 0.500000 0.000000
0.666352 0.500000 0.000000
0.683013 0.500000 0.000000
0.700340 0.500000 0.000000
0.718361 0.500000 0.000000
0.737103 0.500000 0.000000
0.756595 0.500000 0.000000
0.776867 0.500000 0.000000
0.797950 0.500000 0.000000
0.819877 0.500000 0.000000
0.842681 0.500000 0.000000
0.866398 0.500000 0.000000
0.891064 0.500000 0.000000
0.916716 0.500000 0.000000
0.943396 0.500000 0.000000
0.971143 0.500000 0.000000
0.000000 0.470588 0.000000
0.000000 0.441176 0.000000
0.000000 0.411765 0.000000
0.000000 0.382353 0.000000
0.000000 0.352941 0.000000
0.000000 0.323529 0.000000
0.000000 0.294118 0.000000
0.000000 0.264706 0.000000
0.000000 0.235294 0.000000
0.000000 0.205882 0.000000
0.000000 0.176471 0.000000
0.000000 0.147059 0.000000
0.000000 0.117647 0.000000
0.000000 0.088235 0.000000
0.000000 0.058824 0.000000
0.000000 0.029412 0.000000
0.500341 0.497365 0.000000
0.501682 0.495729 0.000000
0.503023 0.494094 0.000000
0.504365 0.492458 0.000000
0.505706 0.490823 0.000000
0.507047 0.489187 0.000000
0.508388 0.487552 0.000000
0.509729 0.485916 0.000000
0.511070 0.484281 0.000000
0.512411 0.482645 0.000000
0.513753 0.481010 0.000000
0.515094 0.479375 0.000000
0.516435 0.477739 0.000000
0.517776 0.476104 0.000000
0.519117 0.474468 0.000000
0.520458 0.472833 0.000000
0.521799 0.471197 0.000000
0.523140 0.469562 0.000000
0.524482 0.467926 0.000000
0.525823 0.466291 0.000000
0.527164 0.464656 0.000000
0.528505 0.463020 0.000000
0.529846 0.461385 0.000000
0.531187 0.459749 0.000000
0.532528 0.458114 0.000000
0.533870 0.456478 0.000000
0.535211 0.454843 0.000000
0.536552 0.453207 0.000000
0.537893 0.451572 0.000000
0.539234 0.449936 0.000000
0.540575 0.448301 0.000000
0.541916 0.446666 0.000000
0.543258 0.445030 0.000000
0.544599 0.443395 0.000000
0.545940 0.441759 0.000000
0.547281 0.440124 0.000000
0.548622 0.438488 0.000000
0.549963 0.436853 0.000000
0.551304 0.435217 0.000000
0.552645 0.433582 0.000000
0.553987 0.431946 0.000000
0.555328 0.430311 0.000000
0.556669 0.428676 0.000000
0.558010 0.427040 0.000000
0.559351 0.425405 0.000000
0.560692 0.423769 0.000000
0.562033 0.422134 0.000000
0.563375 0.420498 0.000000
0.564716 0.418863 0.000000
0.566057 0.417227 0.000000
0.567398 0.415592 0.000000
0.568739 0.413957 0.000000
0.570080 0.412321 0.000000
0.571421 0.410686 0.000000
0.572763 0.409050 0.000000
0.574104 0.407415 0.000000
0.575445 0.405779 0.000000
0.576786 0.404144 0.000000
0.578127 0.402508 0.000000
0.579468 0.400873 0.000000
0.580809 0.399237 0.000000
0.582151 0.397602 0.000000
0.583492 0.395967 0.000000
0.584833 0.394331 0.000000
0.586174 0.392696 0.000000
0.587515 0.391060 0.000000
0.588856 0.389425 0.000000
0.590197 0.387789 0.000000
0.591538 0.386154 0.000000
0.592880 0.384518 0.000000
0.594221 0.382883 0.000000
0.595562 0.381247 0.000000
0.596903 0.379612 0.000000
0.598244 0.377977 0.000000
0.599585 0.376341 0.000000
0.600926 0.374706 0.000000
0.602268 0.373070 0.000000
0.603609 0.371435 0.000000
0.604950 0.369799 0.000000
0.606291 0.368164 0.000000
0.607632 0.366528 0.000000
0.608973 0.364893 0.000000
0.610314 0.363258 0.000000
0.611656 0.361622 0.000000
0.612997 0.359987 0.000000
0.614338 0.358351 0.000000
0.615679 0.356716 0.000000
0.617020 0.355080 0.000000
0.618361 0.353445 0.000000
0.619702 0.351809 0.000000
0.621043 0.350174 0.000000
0.622385 0.348538 0.000000
0.623726 0.346903 0.000000
0.625067 0.345268 0.000000
0.626408 0.343632 0.000000
0.627749 0.341997 0.000000
0.629090 0.340361 0.000000
0.630431 0.338726 0.000000
0.631773 0.337090 0.000000
0.633114 0.335455 0.000000
0.634455 0.333819 0.000000
0.635796 0.332184 0.000000
0.637137 0.330548 0.000000
0.638478 0.328913 0.000000
0.639819 0.327278 0.000000
0.641161 0.325642 0.000000
0.642502 0.324007 0.000000
0.643843 0.322371 0.000000
0.645184 0.320736 0.000000
0.646525 0.319100 0.000000
0.647866 0.317465 0.000000
0.649207 0.315829 0.000000
0.650548 0.314194 0.000000
0.651890 0.312559 0.000000
0.653231 0.310923 0.000000
0.654572 0.309288 0.000000
0.655913 0.307652 0.000000
0.657254 0.306017 0.000000
0.658595 0.304381 0.000000
0.659936 0.302746 0.000000
0.661278 0.301110 0.000000
0.662619 0.299475 0.000000
0.663960 0.297839 0.000000
0.665301 0.296204 0.000000
0.666642 0.294569 0.000000
0.667983 0.292933 0.000000
0.669324 0.291298 0.000000
0.670666 0.289662 0.000000
0.672007 0.288027 0.000000
0.673348 0.286391 0.000000
0.674689 0.284756 0.000000
0.676030 0.283120 0.000000
0.677371 0.281485 0.000000
[...]
POINT_DATA 7341
SCALARS UX float 1
LOOKUP_TABLE default
0.000000
0.000000
0.123000
0.123000
0.063719
0.053193
0.051884
0.050285
0.000517
-0.000000
0.000000
0.000000
0.000000
0.000000
0.000000
0.000000
0.000000
0.000000
0.000000
0.000000
0.000000
0.000000
0.000000
0.000000
0.000000
0.000000
0.000000
0.000000
0.000000
0.000000
0.000000
0.000000
0.000000
0.000000
0.000000
0.000000
0.000000
0.000000
0.000000
0.000000
0.000000
-0.000000
0.003262
0.004974
0.006684
0.008551
0.010644
0.012916
0.015390
0.017918
0.020686
0.023587
0.026644
0.029880
0.033303
0.037043
0.041322
0.046071
0.057868
0.063196
0.068117
0.072577
0.076800
0.080931
0.084924
0.088832
0.092699
0.096547
0.100360
0.104154
0.107937
0.111708
0.115476
0.119241
0.123000
0.123000
0.123000
0.123000
0.123000
0.123000
0.123000
0.123000
0.123000
0.123000
0.123000
0.123000
0.123000
0.123000
0.123000
0.123000
0.123000
0.123000
0.123000
0.123000
0.123000
0.123000
0.123000
0.123000
0.123000
0.123000
0.123000
0.123000
0.123000
0.123000
0.123000
0.123000
0.123000
0.119428
0.115862
0.112294
0.108740
0.105190
0.101660
0.098134
0.094631
0.091150
0.087677
0.084241
0.080828
0.077437
0.074067
0.070699
0.067278
0.062705
0.062083
0.061303
0.060618
0.060247
0.060207
0.059991
0.060248
0.058813
0.058071
0.058295
0.058791
0.058613
0.060029
0.060082
0.061443
0.056675
0.059132
0.059670
0.060008
0.059753
0.059815
0.057054
0.057425
0.057799
0.059051
0.056274
0.056573
0.056562
0.056722
0.057512
0.057714
0.057976
0.059006
0.057825
0.058562
0.058703
0.055804
0.058304
0.056162
0.056510
0.053084
0.054180
0.055212
0.052452
0.053017
0.053603
0.053931
0.054401
0.051732
0.054792
0.053654
0.054756
0.053489
0.054881
0.053599
0.054798
0.053992
0.053261
0.052445
0.054148
0.053615
0.053184
0.052069
0.053397
0.051772
0.053121
0.053003
0.052297
0.051792
0.051484
0.051298
0.051163
0.050974
0.050806
0.050653
0.050485
0.050339
0.050192
0.050035
0.050015
0.050005
0.050001
0.050012
0.050032
0.050074
0.050129
0.050207
0.050308
0.050434
0.050591
0.050781
0.051005
0.051273
0.051566
0.048918
0.043743
0.039612
0.036053
0.033139
0.030450
0.028048
0.025725
0.023528
0.021319
0.019001
0.016484
0.013743
0.010788
0.007479
0.004163
0.048695
0.046586
0.045725
0.044944
0.044456
0.043926
0.043523
0.043168
0.042833
0.042525
0.042263
0.042013
0.041754
0.041557
0.041298
0.041027
0.040771
0.040531
0.040337
0.040126
0.039895
0.039672
0.039461
0.039259
0.039064
0.038874
0.038685
0.038498
0.038314
0.038132
0.037950
0.037771
0.037593
0.037416
0.037240
0.037065
0.036890
0.036716
0.036542
0.036369
0.036196
0.036024
0.035852
0.035681
0.035509
0.035338
0.035168
0.034997
0.034826
0.034655
0.034484
0.034312
0.034141
0.033970
0.033798
0.033627
0.033455
0.033284
0.033112
0.032940
0.032768
0.032596
0.032424
0.032251
0.032078
0.031905
0.031732
0.031558
0.031385
0.031210
0.031036
0.030862
0.030687
0.030512
0.030337
0.030161
0.029986
0.029810
0.029634
0.029457
0.029281
0.029104
0.028927
0.028750
0.028573
0.028395
0.028218
0.028040
0.027862
0.027684
0.027506
0.027328
0.027150
0.026972
0.026793
0.026615
0.026436
0.026258
0.026079
0.025901
0.025722
0.025544
0.025365
0.025187
0.025009
0.024831
0.024653
0.024475
0.024297
0.024119
0.023941
0.023764
0.023587
0.023410
0.023233
0.023057
0.022880
0.022704
0.022528
0.022353
0.022177
0.022003
0.021828
0.021654
0.021480
0.021306
0.021133
0.020960
0.020787
0.020615
0.020443
0.020272
0.020101
0.019931
0.019761
0.019591
0.019422
0.019253
0.019085
0.018917
0.018750
0.018583
0.018417
0.018251
0.018085
0.017921
0.017758
0.017595
0.017433
0.017271
0.017110
0.016949
0.016789
0.016630
0.016471
0.016312
0.016154
0.015997
0.015840
0.015684
0.015528
0.015373
0.015218
0.015064
0.014911
0.014758
0.014605
0.014454
0.014302
0.014151
0.014001
0.013852
0.013703
0.013555
0.013407
0.013260
0.013113
0.012967
0.012822
0.012678
0.012534
0.012390
0.012247
0.012105
0.011964
0.011823
0.011683
0.011543
0.011405
0.011267
0.011129
0.010993
0.010856
0.010721
0.010587
0.010453
0.010320
0.010187
0.010055
0.009924
0.009794
0.009664
0.009536
0.009407
0.009280
0.009154
0.009028
0.008903
0.008778
0.008655
0.008532
0.008410
0.008289
0.008168
0.008048
0.007930
0.007811
0.007694
0.007578
0.007462
0.007347
0.007233
0.007120
0.007007
0.006895
0.006784
0.006674
0.006565
0.006456
0.006349
0.006242
0.006136
0.006030
0.005926
0.005822
0.005719
0.005617
0.005516
0.005415
0.005316
0.005217
0.005119
0.005021
0.004925
0.004829
0.004735
0.004641
0.004547
0.004455
0.004363
0.004273
0.004183
0.004094
0.004005
0.003917
0.003831
0.003744
0.003659
0.003574
0.003491
0.003408
0.003326
0.003244
0.003163
0.003083
0.003003
0.002924
0.002846
0.002768
0.002690
0.002613
0.002537
0.002461
0.002386
0.002311
0.002237
0.002163
0.002090
0.002016
0.001943
0.001870
0.001797
0.001724
0.001651
0.001578
0.001505
0.001431
0.001357
0.001282
0.001207
0.001129
0.001052
0.000974
0.000896
0.000818
0.000740
0.000663
0.000591
0.043799
0.041881
0.042079
0.001678
0.001222
0.045477
0.001127
0.045328
0.045189
0.022950
0.045473
0.001086
0.027384
0.046339
0.012062
0.020436
0.045683
0.000990
0.002433
0.042314
0.005961
0.049843
0.046178
0.012630
0.042629
0.038430
0.052590
0.032809
0.045512
0.042976
0.002976
0.043034
0.041924
0.044894
0.045197
0.000819
0.045138
0.002648
0.043627
0.001345
0.042464
0.041916
0.041801
0.048814
0.001561
0.045635
0.001246
0.044118
0.048209
0.055106
0.001094
0.045379
0.007720
0.035515
0.001010
0.045703
0.045621
0.032465
0.045181
0.045340
0.014752
0.017396
0.001097
0.001114
0.042202
0.042893
0.024990
0.040558
0.045852
0.001150
0.045510
0.001165
0.026111
0.001383
0.042095
0.018008
0.001835
0.045827
0.009500
0.002296
0.005269
0.001162
0.001751
0.042403
0.043592
0.044655
0.042227
0.041839
0.042083
0.045164
0.047686
0.045704
0.044707
0.044769
0.044895
0.045265
0.053775
0.051901
0.051400
0.050964
0.044415
0.001071
0.044769
0.048039
0.040465
0.040867
0.002873
0.041298
0.002449
0.043191
0.025413
0.002197
0.026401
0.043730
0.014771
0.042562
0.001984
0.041612
0.005927
0.032709
0.043010
0.019504
0.003555
0.042171
0.044434
0.001911
0.043124
0.042753
0.040514
0.049455
0.008605
0.040856
0.045039
0.046416
0.000892
0.043401
0.044929
0.000893
0.046167
0.044029
0.009827
0.045930
0.000979
0.037651
0.043170
0.045785
0.004124
0.045664
0.030181
0.019737
0.045520
0.045427
0.001068
0.045425
0.002382
0.045454
0.042637
0.001156
0.029262
0.001186
0.045388
0.042377
0.036285
0.001483
0.022976
0.045713
0.042336
0.002109
0.015454
0.005508
0.002766
0.004984
0.042028
0.042173
0.043146
0.042223
0.041418
0.041554
0.041765
0.041370
0.044111
0.044748
0.045079
0.045132
0.044814
0.046148
0.045221
0.047190
0.047091
0.048791
0.049678
0.046137
0.052427
0.049754
0.053494
0.043668
0.045357
0.044004
0.012397
0.003613
0.042409
0.041998
0.012648
0.042448
0.040619
0.043192
0.042065
0.044873
0.003243
0.040831
0.022026
0.041361
0.041196
0.004323
0.005304
0.001732
0.040496
0.048159
0.001971
0.048056
0.040405
0.043271
0.028723
0.042560
0.040393
0.045892
0.041750
0.002233
0.035928
0.042775
0.042769
0.043937
0.001961
0.029278
0.042201
0.002461
0.041669
0.020125
0.017159
0.002537
0.042039
0.024329
0.043626
0.002187
0.002297
0.003018
0.043805
0.001959
0.007421
0.041011
0.041116
0.042600
0.041476
0.041738
0.003902
0.035122
0.022658
0.017138
0.043872
0.014423
0.011674
0.002265
0.007891
0.005186
0.040281
0.040357
0.040400
0.041001
0.041366
0.001979
0.040469
0.041068
0.044591
0.041973
0.043296
0.043063
0.048237
0.051212
0.043321
0.043339
0.043115
0.040259
0.050062
0.046747
0.043366
0.043583
0.043078
0.043314
0.043738
0.010276
0.004042
0.045265
0.042931
0.043160
0.041412
0.047275
0.039697
0.040091
0.040521
0.004252
0.038931
0.022573
0.003428
0.023958
0.042435
0.002966
0.005898
0.038213
0.006837
0.035477
0.002866
0.041202
0.016405
0.039701
0.040939
0.046682
0.003726
0.042863
0.005090
0.041973
0.027442
0.042479
0.042248
0.002570
0.042225
0.041533
0.040251
0.021189
0.041612
0.003306
0.040704
0.039916
0.041414
0.014313
0.041250
0.028229
0.032438
0.042358
0.004712
0.042885
0.013588
0.010771
0.007660
0.008010
0.041851
0.040804
0.003754
0.003803
0.040540
0.004786
0.040407
0.040413
0.038761
0.041524
0.043207
0.042772
0.040281
0.009728
0.047833
0.041035
0.047336
0.042715
0.039620
0.002007
0.041874
0.041934
0.047439
0.030704
0.051633
0.041901
0.050217
0.044953
0.041071
0.044703
0.042547
0.042928
0.042615
0.011204
0.008839
0.042470
0.042305
0.041731
0.045908
0.042636
0.043009
0.043097
0.047864
0.006904
0.005307
0.036545
0.004587
0.039615
0.040838
0.040228
0.014080
0.023063
0.040516
0.041560
0.002865
0.040250
0.041467
0.039739
0.042211
0.042168
0.039414
0.040013
0.004943
0.015631
0.006304
0.043833
0.041180
0.033394
0.010055
0.003278
0.004270
0.011093
0.039575
0.039700
0.003012
0.005695
0.020574
0.041063
0.042241
0.040705
0.032609
0.037377
0.039429
0.044673
0.041878
0.043009
0.040206
0.008390
0.005489
0.040082
0.038521
0.025007
0.039904
0.039744
0.006869
0.030769
0.041884
0.037986
0.043053
0.013109
0.037566
0.004691
0.003381
0.026214
0.038603
0.018934
0.010541
0.040364
0.041138
0.040744
0.016232
0.039587
0.003502
0.040211
0.039547
0.039482
0.003001
0.046122
0.040952
0.053351
0.040691
0.043801
0.042218
0.041335
0.041521
0.042358
0.046043
0.042453
0.042194
0.043812
0.002761
0.042056
0.042416
0.040158
0.042032
0.040458
0.045487
0.042012
0.039091
0.039413
0.040018
0.024622
0.038567
0.003938
0.039179
0.009686
0.032309
0.006569
0.039161
0.003682
0.035873
0.042534
0.004579
0.040154
0.040197
0.041680
0.039603
0.039301
0.002779
0.015710
0.018206
0.004441
0.005037
0.039345
0.041220
0.003710
0.038809
0.041012
0.041816
0.041682
0.039141
0.044879
0.042238
0.025397
0.007521
0.020824
0.036243
0.007977
0.009334
0.039806
0.005362
0.015028
0.003123
0.041477
0.034944
0.039048
0.036396
0.037090
0.012509
0.018466
0.006674
0.005948
0.040499
0.020134
0.039718
0.041687
0.030197
0.035471
0.042564
0.039032
0.039600
0.042069
0.039818
0.044281
0.038980
0.040834
0.042106
0.042177
0.012636
0.005564
0.041545
0.044499
0.040403
0.045054
0.039812
0.039687
0.040542
0.004012
0.004580
0.041167
0.038737
0.042266
0.042455
0.039915
0.042433
0.008544
0.044998
0.038107
0.041634
0.039435
0.029967
0.041309
0.039841
0.041915
0.041861
0.040421
0.038849
0.007238
0.034557
0.005484
0.037689
0.015436
0.008463
0.032049
0.024954
0.010127
0.003546
0.039434
0.038476
0.006367
0.027147
0.038677
0.039114
0.004135
0.033889
0.037330
0.008869
0.039230
0.039845
0.004254
0.041467
0.040742
0.039140
0.039159
0.040213
0.038057
0.038989
0.043050
0.039880
0.039125
0.040917
0.027981
0.039488
0.017683
0.043350
0.019972
0.034903
0.008628
0.042568
0.035452
0.006399
0.002027
0.004582
0.004727
0.039598
0.005580
0.041162
0.004812
0.042984
0.011625
0.010836
0.022190
0.012274
0.004041
0.017468
0.006830
0.041377
0.041657
0.041865
0.041589
0.037156
0.039840
0.040385
0.038956
0.034279
0.005904
0.039953
0.038849
0.003667
0.041606
0.040590
0.029539
0.041485
0.041322
0.039775
0.039257
0.040294
0.043866
0.039623
0.004878
0.041674
0.041268
0.041823
0.007559
0.043018
0.041482
0.041182
0.003896
0.040370
0.039003
0.041646
0.042714
0.008383
0.004806
0.011001
0.004474
0.005524
0.022433
0.003524
0.003737
0.038390
0.019294
0.039368
0.040395
0.005936
0.041675
0.034180
0.029472
0.040877
0.007887
0.004758
0.035008
0.005833
0.014113
0.006521
0.008622
0.039225
0.040811
0.041082
0.038548
0.042484
0.010911
0.038801
0.039381
0.041211
0.041221
0.038566
0.017676
0.037347
0.002787
0.032823
0.038430
0.034293
0.033389
0.036732
0.022688
0.039989
0.039017
0.039237
0.038752
0.007553
0.041505
0.004238
0.009741
0.004564
0.041703
0.013712
0.024798
0.031814
0.039182
0.009435
0.006997
0.003548
0.030021
0.039766
0.007341
0.039414
0.040225
0.041089
0.040803
0.038332
0.036965
0.038751
0.038546
0.038922
0.039499
0.039320
0.010007
0.039078
0.039879
0.031775
0.040595
0.041161
0.041317
0.038955
0.043727
0.041673
0.000957
0.040038
0.037975
0.041113
0.005760
0.041350
0.027395
0.038547
0.005187
0.041783
0.037967
0.009404
0.010622
0.032612
0.036877
0.038493
0.013891
0.026963
0.005226
0.037859
0.022800
0.033777
0.003720
0.038731
0.004118
0.003430
0.040427
0.039498
0.038496
0.002989
0.007914
0.040835
0.040898
0.012593
0.035702
0.035271
0.031725
0.005905
0.039063
0.038619
0.038400
0.037930
0.038364
0.020558
0.002107
0.038853
0.003112
0.031098
0.005976
0.041039
0.012211
0.008718
0.040504
0.041121
0.011152
0.041848
0.016924
0.040787
0.038657
0.004431
0.006346
0.040670
0.004980
0.039931
0.005376
0.006092
0.008220
0.039138
0.027019
0.013115
0.031913
0.039984
0.011816
0.040937
0.040251
0.024609
0.039252
0.038337
0.039054
0.038733
0.039623
0.038269
0.038197
0.040632
0.039188
0.029427
0.040548
0.036507
0.038654
0.041008
0.006758
0.038383
0.040909
0.040879
0.021930
0.004921
0.035927
0.030717
0.033215
0.038586
0.009414
0.031578
0.035439
0.012586
0.026558
0.005619
0.006391
0.031272
0.004697
0.029661
0.003021
0.035196
0.037730
0.038763
0.039698
0.007022
0.039653
0.021313
0.040641
0.038053
0.038096
0.010210
0.038318
0.006889
0.040368
0.020859
0.006171
0.037920
0.039471
0.007555
0.004209
0.036186
0.015120
0.036696
0.038517
0.038435
0.038191
0.038167
0.033632
0.009025
0.007194
0.013163
0.040723
0.005328
0.004838
0.008508
0.039839
0.009808
0.015403
0.035572
0.032224
0.002751
0.028851
0.038614
0.038927
0.012390
0.024745
0.040529
0.040539
0.002396
0.039393
0.038890
0.039174
0.037717
0.006447
0.040753
0.038306
0.038962
0.040084
0.037833
0.040369
0.038466
0.038552
0.038482
0.040277
0.001751
0.039497
0.037460
0.023893
0.040648
0.010942
0.040417
0.029117
0.035753
0.037818
0.001409
0.038244
0.038263
0.040758
0.038927
0.028778
0.005205
0.004049
0.040733
0.005612
0.037721
0.037221
0.010498
0.021078
0.032023
0.025794
0.007520
0.035496
0.030582
0.037870
0.006069
0.005575
0.003637
0.040180
0.005204
0.027680
0.038028
0.004560
0.004002
0.039636
0.034425
0.038376
0.011800
0.037943
0.033722
0.002504
0.013002
0.036678
0.007974
0.008379
0.039621
0.009031
0.037824
0.037446
0.038611
0.037719
0.037954
0.022974
0.018750
0.009937
0.037801
0.001662
0.033135
0.007300
0.013825
0.030959
0.039062
0.037618
0.037639
0.026921
0.007309
0.010880
0.037901
0.007016
0.009819
0.003444
0.014230
0.022783
0.005797
0.014986
0.035187
0.040418
0.040042
0.039049
0.038593
0.002247
0.037703
0.040475
0.040470
0.040334
0.039984
0.037696
0.004858
0.037987
0.009881
0.037883
0.037885
0.018905
0.038381
0.005871
0.037504
0.038112
0.038908
0.040465
0.007312
0.037295
0.034868
0.038412
0.004807
0.016647
0.002116
0.005127
0.040126
0.000604
0.005829
0.037181
0.038865
0.040108
0.040027
0.037972
0.028141
0.003163
0.030002
0.038047
0.034306
0.040174
0.040567
0.001505
0.037384
0.012341
0.010990
0.030613
0.021094
0.024956
0.034015
0.012603
0.008008
0.006614
0.007533
0.037104
0.029561
0.015171
0.028206
0.003093
0.037496
0.033027
0.037258
0.003885
0.015109
0.037482
0.008831
0.009911
0.006787
0.001655
0.001988
0.008084
0.036599
0.012272
0.011661
0.006229
0.029960
0.028871
0.008447
0.033062
0.003033
0.038170
0.024624
0.039880
0.039125
0.011246
0.037571
0.019398
0.039577
0.037614
0.037732
0.037393
0.035197
0.008603
0.007130
0.020749
0.014800
0.004189
0.026650
0.033713
0.040183
0.038058
0.037246
0.040259
0.037713
0.037396
0.037607
0.038845
0.034444
0.009159
0.037169
0.038049
0.002158
0.039674
0.037419
0.037743
0.036912
0.040170
0.039836
0.037391
0.037321
0.037090
0.032578
0.005436
0.010004
0.010254
0.040325
0.039161
0.039793
0.038114
0.005032
0.018967
0.037863
0.027436
0.039483
0.016260
0.040045
0.004694
0.040317
0.004518
0.032217
0.038428
0.039601
0.005709
0.017523
0.006370
0.002445
0.036552
0.037513
0.012504
0.009547
0.029195
0.038980
0.032919
0.026741
0.007673
0.006087
0.006283
0.035871
0.005729
0.031683
0.026681
0.019689
0.004925
0.036814
0.030854
0.016979
0.002014
0.036806
0.014040
0.009074
0.037914
0.015049
0.002262
0.016432
0.011481
0.011950
0.016156
0.024562
0.039122
0.006866
0.038394
0.028335
0.036548
0.008872
0.032546
0.008635
0.022795
0.037293
0.007886
0.012836
0.008414
0.003589
0.010584
0.008294
0.013992
0.036407
0.038253
0.036924
0.037077
0.022932
0.034550
0.003468
0.035510
0.037279
0.039451
0.038596
0.006486
0.039652
0.039383
0.010809
0.017815
0.037032
0.037142
0.037240
0.036973
0.008797
0.036632
0.034285
0.037122
0.039584
0.040075
0.011534
0.037250
0.036676
0.036266
0.027318
0.039845
0.040011
0.005538
0.032194
0.004523
0.029164
0.036823
0.025799
0.036497
0.017410
0.040038
0.037343
0.001579
0.039371
0.037627
0.038740
0.037850
0.038795
0.006767
0.039649
0.036796
0.004136
0.039399
0.040129
0.004256
0.039681
0.038477
0.014128
0.038497
0.021090
0.027742
0.013366
0.031809
0.034590
0.007373
0.008503
0.009117
0.028300
0.004205
0.018129
0.037340
0.010238
0.025983
0.003131
0.003072
0.037709
0.036560
0.005916
0.004264
0.033610
0.002070
0.037200
0.033225
0.004613
0.007435
0.036450
0.036665
0.002229
0.030904
0.037963
0.021027
0.006201
0.006379
0.022805
0.013626
0.009022
0.035059
0.039210
0.007476
0.035728
0.029550
0.015111
0.009554
0.039234
0.035506
0.038088
0.013237
0.008273
0.014246
0.038986
0.025059
0.009193
0.038693
0.036986
0.003884
0.037010
0.036632
0.009909
0.011596
0.009983
0.001614
0.017427
0.024764
0.016391
0.012782
0.038326
0.037983
0.005940
0.039334
0.039664
0.036489
0.036387
0.002632
0.036746
0.037461
0.039901
0.038935
0.039900
0.036926
0.039342
0.037024
0.016460
0.019314
0.003676
0.039754
0.008080
0.039390
0.036695
0.011599
0.004891
0.037768
0.039861
0.036399
0.039173
0.024319
0.036036
0.005387
0.039248
0.039506
0.009503
0.039887
0.037336
0.012264
0.037144
0.036100
0.038004
0.013714
0.015551
0.010718
0.021078
0.039164
0.029691
0.037880
0.037052
0.033733
0.009173
0.035842
0.007561
0.036639
0.007520
0.006785
0.034634
0.035618
0.036794
0.016632
0.003576
0.005240
0.035836
0.024450
0.002372
0.002577
0.035882
0.004160
0.014266
0.004566
0.036678
0.018906
0.022470
0.036000
0.001215
0.004605
0.014558
0.038074
0.036476
0.038812
0.038123
0.035607
0.013654
0.008467
0.009598
0.016080
0.016990
0.019427
0.006730
0.010869
0.010956
0.026430
0.039058
0.038894
0.012487
0.036259
0.006122
0.039560
0.035955
0.033456
0.007407
0.034709
0.038048
0.037627
0.039286
0.039649
0.036311
0.018101
0.038849
0.036283
0.038467
0.010607
0.004846
0.035503
0.038410
0.005873
0.005705
0.025942
0.039088
0.039713
0.032162
0.023399
0.006371
0.001862
0.009871
0.036208
0.011827
0.038779
0.003149
0.002660
0.037441
0.005818
0.009900
0.038043
0.039081
0.039339
0.037593
0.033747
0.001666
0.039608
0.019476
0.028287
0.032253
0.002513
0.008220
0.015421
0.014386
0.035410
0.015856
0.037447
0.011794
0.018306
0.027030
0.015458
0.024604
0.010035
0.031243
0.033743
0.038996
0.011751
0.008964
0.027776
0.008603
0.037283
0.038831
0.013311
0.035979
0.004176
0.006714
0.007936
0.006229
0.035707
0.002056
0.006004
0.019394
0.036879
0.003520
0.004903
0.036805
0.003069
0.006937
0.034465
0.002228
0.001389
0.038253
0.035699
0.008122
0.015096
0.032473
0.028491
0.038793
0.032921
0.029770
0.009939
0.037285
0.012603
0.017992
0.038549
0.036951
0.036575
0.003897
0.035743
0.000968
0.014027
0.010535
0.006882
0.037986
0.036436
0.015949
0.024433
0.037582
0.007710
0.035414
0.020075
0.006942
0.014457
0.035775
0.035450
0.039510
0.031048
0.021138
0.038724
0.034539
0.034321
0.036970
0.039049
0.036231
0.039308
0.036808
0.002714
0.037804
0.005060
0.038978
0.006300
0.035707
0.027229
0.033459
0.039109
0.036052
0.039171
0.038387
0.010205
0.003133
0.023288
0.015280
0.036376
0.006107
0.019901
0.010890
0.020569
0.005208
0.036812
0.039532
0.039159
0.037702
0.038061
0.005565
0.006980
0.038443
0.005787
0.035064
0.001428
0.033972
0.022012
0.011306
0.037295
0.006207
0.039271
0.035184
0.015102
0.023370
0.027360
0.011836
0.032993
0.009145
0.037504
0.008184
0.037626
0.007270
0.030926
0.033393
0.012704
0.006735
0.038355
0.014425
0.038447
0.036005
0.018429
0.002751
0.029310
0.037175
0.006514
0.011615
0.036413
0.036202
0.015862
0.005481
0.035159
0.026526
0.000931
0.039094
0.008805
0.006308
0.003453
0.038819
0.002314
0.004798
0.010848
0.010484
0.001227
0.004239
0.034794
0.034913
0.034589
0.005656
0.017125
0.021311
0.017459
0.017833
0.037991
0.032580
0.024546
0.038731
0.036090
0.015435
0.002601
0.028633
0.036313
0.018914
0.037087
0.006512
0.022113
0.004524
0.007544
0.021993
0.006961
0.013528
0.001515
0.001813
0.020219
0.037316