# vtk DataFile Version 2.0
Test
ASCII
DATASET POLYDATA
POINTS 7341 float
0.000000 0.000000 0.000000
1.000000 0.000000 0.000000
1.000000 1.000000 0.000000
0.000000 1.000000 0.000000
0.000000 0.500000 0.000000
0.500000 0.500000 0.000000
1.000000 0.500000 0.000000
0.499000 0.499000 0.000000
0.900000 0.010000 0.000000
0.029412 0.000000 0.000000
0.058824 0.000000 0.000000
0.088235 0.000000 0.000000
0.117647 0.000000 0.000000
0.147059 0.000000 0.000000
0.176471 0.000000 0.000000
0.205882 0.000000 0.000000
0.235294 0.000000 0.000000
0.264706 0.000000 0.000000
0.294118 0.000000 0.000000
0.323529 0.000000 0.000000
0.352941 0.000000 0.000000
0.382353 0.000000 0.000000
0.411765 0.000000 0.000000
0.441176 0.000000 0.000000
0.470588 0.000000 0.000000
0.500000 0.000000 0.000000
0.529412 0.000000 0.000000
0.558824 0.000000 0.000000
0.588235 0.000000 0.000000
0.617647 0.000000 0.000000
0.647059 0.000000 0.000000
0.676471 0.000000 0.000000
0.705882 0.000000 0.000000
0.735294 0.000000 0.000000
0.764706 0.000000 0.000000
0.794118 0.000000 0.000000
0.823529 0.000000 0.000000
0.852941 0.000000 0.000000
0.882353 0.000000 0.000000
0.911765 0.000000 0.000000
0.941176 0.000000 0.000000
0.970588 0.000000 0.000000
1.000000 0.029412 0.000000
1.000000 0.058824 0.000000
1.000000 0.088235 0.000000
1.000000 0.117647 0.000000
1.000000 0.147059 0.000000
1.000000 0.176471 0.000000
1.000000 0.205882 0.000000
1.000000 0.235294 0.000000
1.000000 0.264706 0.000000
1.000000 0.294118 0.000000
1.000000 0.323529 0.000000
1.000000 0.352941 0.000000
1.000000 0.382353 0.000000
1.000000 0.411765 0.000000
1.000000 0.441176 0.000000
1.000000 0.470588 0.000000
1.000000 0.529412 0.000000
1.000000 0.558824 0.000000
1.000000 0.588235 0.000000
1.000000 0.617647 0.000000
1.000000 0.647059 0.000000
1.000000 0.676471 0.000000
1.000000 0.705882 0.000000
1.000000 0.735294 0.000000
1.000000 0.764706 0.000000
1.000000 0.794118 0.000000
1.000000 0.823529 0.000000
1.000000 0.852941 0.000000
1.000000 0.882353 0.000000
1.000000 0.911765 0.000000
1.000000 0.941176 0.000000
1.000000 0.970588 0.000000
0.970588 1.000000 0.000000
0.941176 1.000000 0.000000
0.911765 1.000000 0.000000
0.882353 1.000000 0.000000
0.852941 1.000000 0.000000
0.823529 1.000000 0.000000
0.794118 1.000000 0.000000
0.764706 1.000000 0.000000
0.735294 1.000000 0.000000
0.705882 1.000000 0.000000
0.676471 1.000000 0.000000
0.647059 1.000000 0.000000
0.617647 1.000000 0.000000
0.588235 1.000000 0.000000
0.558824 1.000000 0.000000
0.529412 1.000000 0.000000
0.500000 1.000000 0.000000
0.470588 1.000000 0.000000
0.441176 1.000000 0.000000
0.411765 1.000000 0.000000
0.382353 1.000000 0.000000
0.352941 1.000000 0.000000
0.323529 1.000000 0.000000
0.294118 1.000000 0.000000
0.264706 1.000000 0.000000
0.235294 1.000000 0.000000
0.205882 1.000000 0.000000
0.176471 1.000000 0.000000
0.147059 1.000000 0.000000
0.117647 1.000000 0.000000
0.088235 1.000000 0.000000
0.058824 1.000000 0.000000
0.029412 1.000000 0.000000
0.000000 0.970588 0.000000
0.000000 0.941176 0.000000
0.000000 0.911765 0.000000
0.000000 0.882353 0.000000
0.000000 0.852941 0.000000
0.000000 0.823529 0.000000
0.000000 0.794118 0.000000
0.000000 0.764706 0.000000
0.000000 0.735294 0.000000
0.000000 0.705882 0.000000
0.000000 0.676471 0.000000
0.000000 0.647059 0.000000
0.000000 0.617647 0.000000
0.000000 0.588235 0.000000
0.000000 0.558824 0.000000
0.000000 0.529412 0.000000
0.007246 0.500000 0.000000
0.014493 0.500000 0.000000
0.021739 0.500000 0.000000
0.028986 0.500000 0.000000
0.036232 0.500000 0.000000
0.043478 0.500000 0.000000
0.050725 0.500000 0.000000
0.057971 0.500000 0.000000
0.065217 0.500000 0.000000
0.072464 0.500000 0.000000
0.079710 0.500000 0.000000
0.086957 0.500000 0.000000
0.094203 0.500000 0.000000
0.101449 0.500000 0.000000
0.108696 0.500000 0.000000
0.115942 0.500000 0.000000
0.123188 0.500000 0.000000
0.130435 0.500000 0.000000
0.137681 0.500000 0.000000
0.144928 0.500000 0.000000
0.152174 0.500000 0.000000
0.159420 0.500000 0.000000
0.166667 0.500000 0.000000
0.173913 0.500000 0.000000
0.181159 0.500000 0.000000
0.188406 0.500000 0.000000
0.195652 0.500000 0.000000
0.202899 0.500000 0.000000
0.210145 0.500000 0.000000
0.217391 0.500000 0.000000
0.224638 0.500000 0.000000
0.231884 0.500000 0.000000
0.239130 0.500000 0.000000
0.246377 0.500000 0.000000
0.253623 0.500000 0.000000
0.260870 0.500000 0.000000
0.268116 0.500000 0.000000
0.275362 0.500000 0.000000
0.282609 0.500000 0.000000
0.289855 0.500000 0.000000
0.297101 0.500000 0.000000
0.304348 0.500000 0.000000
0.311594 0.500000 0.000000
0.318841 0.500000 0.000000
0.326087 0.500000 0.000000
0.333333 0.500000 0.000000
0.340580 0.500000 0.000000
0.347826 0.500000 0.000000
0.355072 0.500000 0.000000
0.362319 0.500000 0.000000
0.369565 0.500000 0.000000
0.376812 0.500000 0.000000
0.384058 0.500000 0.000000
0.391304 0.500000 0.000000
0.398551 0.500000 0.000000
0.405797 0.500000 0.000000
0.413043 0.500000 0.000000
0.420290 0.500000 0.000000
0.427536 0.500000 0.000000
0.434783 0.500000 0.000000
0.442029 0.500000 0.000000
0.449275 0.500000 0.000000
0.456522 0.500000 0.000000
0.463768 0.500000 0.000000
0.471014 0.500000 0.000000
0.478261 0.500000 0.000000
0.485507 0.500000 0.000000
0.492754 0.500000 0.000000
0.510004 0.500000 0.000000
0.520408 0.500000 0.000000
0.531229 0.500000 0.000000
0.542483 0.500000 0.000000
0.554187 0.500000 0.000000
0.566359 0.500000 0.000000
0.579019 0.500000 0.000000
0.592185 0.500000 0.000000
0.605877 0.500000 0.000000
0.620118 0.500000 0.000000
0.634929 0.500000 0.000000
0.650332 0.500000 0.000000
0.666352 0.500000 0.000000
0.683013 0.500000 0.000000
0.700340 0.500000 0.000000
0.718361 0.500000 0.000000
0.737103 0.500000 0.000000
0.756595 0.500000 0.000000
0.776867 0.500000 0.000000
0.797950 0.500000 0.000000
0.819877 0.500000 0.000000
0.842681 0.500000 0.000000
0.866398 0.500000 0.000000
0.891064 0.500000 0.000000
0.916716 0.500000 0.000000
0.943396 0.500000 0.000000
0.971143 0.500000 0.000000
0.000000 0.470588 0.000000
0.000000 0.441176 0.000000
0.000000 0.411765 0.000000
0.000000 0.382353 0.000000
0.000000 0.352941 0.000000
0.000000 0.323529 0.000000
0.000000 0.294118 0.000000
0.000000 0.264706 0.000000
0.000000 0.235294 0.000000
0.000000 0.205882 0.000000
0.000000 0.176471 0.000000
0.000000 0.147059 0.000000
0.000000 0.117647 0.000000
0.000000 0.088235 0.000000
0.000000 0.058824 0.000000
0.000000 0.029412 0.000000
0.500341 0.497365 0.000000
0.501682 0.495729 0.000000
0.503023 0.494094 0.000000
0.504365 0.492458 0.000000
0.505706 0.490823 0.000000
0.507047 0.489187 0.000000
0.508388 0.487552 0.000000
0.509729 0.485916 0.000000
0.511070 0.484281 0.000000
0.512411 0.482645 0.000000
0.513753 0.481010 0.000000
0.515094 0.479375 0.000000
0.516435 0.477739 0.000000
0.517776 0.476104 0.000000
0.519117 0.474468 0.000000
0.520458 0.472833 0.000000
0.521799 0.471197 0.000000
0.523140 0.469562 0.000000
0.524482 0.467926 0.000000
0.525823 0.466291 0.000000
0.527164 0.464656 0.000000
0.528505 0.463020 0.000000
0.529846 0.461385 0.000000
0.531187 0.459749 0.000000
0.532528 0.458114 0.000000
0.533870 0.456478 0.000000
0.535211 0.454843 0.000000
0.536552 0.453207 0.000000
0.537893 0.451572 0.000000
0.539234 0.449936 0.000000
0.540575 0.448301 0.000000
0.541916 0.446666 0.000000
0.543258 0.445030 0.000000
0.544599 0.443395 0.000000
0.545940 0.441759 0.000000
0.547281 0.440124 0.000000
0.548622 0.438488 0.000000
0.549963 0.436853 0.000000
0.551304 0.435217 0.000000
0.552645 0.433582 0.000000
0.553987 0.431946 0.000000
0.555328 0.430311 0.000000
0.556669 0.428676 0.000000
0.558010 0.427040 0.000000
0.559351 0.425405 0.000000
0.560692 0.423769 0.000000
0.562033 0.422134 0.000000
0.563375 0.420498 0.000000
0.564716 0.418863 0.000000
0.566057 0.417227 0.000000
0.567398 0.415592 0.000000
0.568739 0.413957 0.000000
0.570080 0.412321 0.000000
0.571421 0.410686 0.000000
0.572763 0.409050 0.000000
0.574104 0.407415 0.000000
0.575445 0.405779 0.000000
0.576786 0.404144 0.000000
0.578127 0.402508 0.000000
0.579468 0.400873 0.000000
0.580809 0.399237 0.000000
0.582151 0.397602 0.000000
0.583492 0.395967 0.000000
0.584833 0.394331 0.000000
0.586174 0.392696 0.000000
0.587515 0.391060 0.000000
0.588856 0.389425 0.000000
0.590197 0.387789 0.000000
0.591538 0.386154 0.000000
0.592880 0.384518 0.000000
0.594221 0.382883 0.000000
0.595562 0.381247 0.000000
0.596903 0.379612 0.000000
0.598244 0.377977 0.000000
0.599585 0.376341 0.000000
0.600926 0.374706 0.000000
0.602268 0.373070 0.000000
0.603609 0.371435 0.000000
0.604950 0.369799 0.000000
0.606291 0.368164 0.000000
0.607632 0.366528 0.000000
0.608973 0.364893 0.000000
0.610314 0.363258 0.000000
0.611656 0.361622 0.000000
0.612997 0.359987 0.000000
0.614338 0.358351 0.000000
0.615679 0.356716 0.000000
0.617020 0.355080 0.000000
0.618361 0.353445 0.000000
0.619702 0.351809 0.000000
0.621043 0.350174 0.000000
0.622385 0.348538 0.000000
0.623726 0.346903 0.000000
0.625067 0.345268 0.000000
0.626408 0.343632 0.000000
0.627749 0.341997 0.000000
0.629090 0.340361 0.000000
0.630431 0.338726 0.000000
0.631773 0.337090 0.000000
0.633114 0.335455 0.000000
0.634455 0.333819 0.000000
0.635796 0.332184 0.000000
0.637137 0.330548 0.000000
0.638478 0.328913 0.000000
0.639819 0.327278 0.000000
0.641161 0.325642 0.000000
0.642502 0.324007 0.000000
0.643843 0.322371 0.000000
0.645184 0.320736 0.000000
0.646525 0.319100 0.000000
0.647866 0.317465 0.000000
0.649207 0.315829 0.000000
0.650548 0.314194 0.000000
0.651890 0.312559 0.000000
0.653231 0.310923 0.000000
0.654572 0.309288 0.000000
0.655913 0.307652 0.000000
0.657254 0.306017 0.000000
0.658595 0.304381 0.000000
0.659936 0.302746 0.000000
0.661278 0.301110 0.000000
0.662619 0.299475 0.000000
0.663960 0.297839 0.000000
0.665301 0.296204 0.000000
0.666642 0.294569 0.000000
0.667983 0.292933 0.000000
0.669324 0.291298 0.000000
0.670666 0.289662 0.000000
0.672007 0.288027 0.000000
0.673348 0.286391 0.000000
0.674689 0.284756 0.000000
0.676030 0.283120 0.000000
0.677371 0.281485 0.000000
[...]
POINT_DATA 7341
SCALARS UX float 1
LOOKUP_TABLE default
0.000000
0.000000
0.048000
0.048000
0.023190
0.019008
0.020255
0.018606
0.000262
0.000000
0.000000
0.000000
0.000000
0.000000
0.000000
0.000000
0.000000
0.000000
0.000000
0.000000
0.000000
0.000000
0.000000
0.000000
0.000000
0.000000
0.000000
0.000000
0.000000
0.000000
0.000000
0.000000
0.000000
0.000000
0.000000
0.000000
0.000000
0.000000
0.000000
0.000000
0.000000
-0.000000
0.001732
0.002647
0.003486
0.004334
0.005237
0.006185
0.007196
0.008224
0.009340
0.010508
0.011735
0.013023
0.014359
0.015760
0.017219
0.018713
0.021846
0.023457
0.025073
0.026701
0.028332
0.029960
0.031595
0.033231
0.034867
0.036503
0.038143
0.039784
0.041426
0.043067
0.044710
0.046355
0.048000
0.048000
0.048000
0.048000
0.048000
0.048000
0.048000
0.048000
0.048000
0.048000
0.048000
0.048000
0.048000
0.048000
0.048000
0.048000
0.048000
0.048000
0.048000
0.048000
0.048000
0.048000
0.048000
0.048000
0.048000
0.048000
0.048000
0.048000
0.048000
0.048000
0.048000
0.048000
0.048000
0.046438
0.044880
0.043322
0.041772
0.040225
0.038690
0.037157
0.035637
0.034128
0.032624
0.031136
0.029657
0.028187
0.026732
0.025279
0.023895
0.022748
0.022461
0.022008
0.021658
0.021464
0.021378
0.021277
0.021221
0.020713
0.020332
0.020407
0.020294
0.020125
0.020234
0.020161
0.020546
0.019656
0.019889
0.019998
0.020136
0.020082
0.020122
0.019624
0.019698
0.019816
0.020157
0.019446
0.019581
0.019606
0.019604
0.019759
0.019655
0.019623
0.019763
0.019299
0.019541
0.019655
0.019115
0.019573
0.019099
0.019333
0.018969
0.019166
0.019335
0.018979
0.019070
0.019123
0.019159
0.019228
0.018751
0.019264
0.018974
0.019189
0.018855
0.019153
0.018864
0.019139
0.019006
0.018921
0.018770
0.019113
0.019035
0.019021
0.018842
0.019126
0.018851
0.019085
0.019041
0.018904
0.018877
0.018872
0.018876
0.018879
0.018879
0.018879
0.018889
0.018895
0.018905
0.018917
0.018934
0.018956
0.018979
0.019010
0.019045
0.019088
0.019137
0.019195
0.019261
0.019337
0.019424
0.019525
0.019639
0.019770
0.019920
0.020081
0.018369
0.016809
0.015557
0.014437
0.013420
0.012430
0.011482
0.010547
0.009647
0.008768
0.007901
0.007044
0.006212
0.005378
0.004467
0.003512
0.018284
0.017981
0.017827
0.017693
0.017603
0.017497
0.017405
0.017316
0.017229
0.017144
0.017061
0.016974
0.016888
0.016803
0.016716
0.016632
0.016548
0.016467
0.016386
0.016307
0.016228
0.016149
0.016071
0.015993
0.015916
0.015839
0.015763
0.015686
0.015611
0.015535
0.015459
0.015384
0.015309
0.015234
0.015159
0.015085
0.015010
0.014936
0.014861
0.014787
0.014713
0.014639
0.014565
0.014491
0.014417
0.014343
0.014270
0.014196
0.014123
0.014049
0.013976
0.013902
0.013829
0.013756
0.013683
0.013609
0.013536
0.013463
0.013390
0.013317
0.013244
0.013172
0.013099
0.013026
0.012953
0.012881
0.012808
0.012735
0.012663
0.012591
0.012518
0.012446
0.012374
0.012302
0.012230
0.012158
0.012086
0.012014
0.011942
0.011870
0.011799
0.011727
0.011656
0.011584
0.011513
0.011441
0.011370
0.011298
0.011227
0.011156
0.011085
0.011014
0.010944
0.010873
0.010802
0.010732
0.010662
0.010592
0.010522
0.010452
0.010382
0.010312
0.010243
0.010174
0.010104
0.010035
0.009966
0.009897
0.009829
0.009760
0.009692
0.009623
0.009555
0.009487
0.009419
0.009352
0.009284
0.009217
0.009150
0.009083
0.009016
0.008949
0.008882
0.008816
0.008750
0.008684
0.008618
0.008552
0.008486
0.008421
0.008356
0.008291
0.008226
0.008161
0.008096
0.008032
0.007968
0.007904
0.007840
0.007776
0.007713
0.007650
0.007586
0.007524
0.007461
0.007398
0.007336
0.007274
0.007212
0.007150
0.007089
0.007027
0.006966
0.006905
0.006845
0.006784
0.006724
0.006664
0.006604
0.006544
0.006485
0.006425
0.006366
0.006307
0.006249
0.006190
0.006132
0.006074
0.006017
0.005959
0.005902
0.005845
0.005788
0.005731
0.005675
0.005618
0.005562
0.005507
0.005451
0.005396
0.005341
0.005286
0.005231
0.005177
0.005123
0.005069
0.005015
0.004962
0.004908
0.004855
0.004803
0.004750
0.004698
0.004646
0.004594
0.004542
0.004491
0.004440
0.004389
0.004339
0.004288
0.004238
0.004188
0.004138
0.004089
0.004040
0.003991
0.003942
0.003894
0.003846
0.003797
0.003750
0.003702
0.003655
0.003608
0.003561
0.003514
0.003468
0.003422
0.003376
0.003330
0.003285
0.003240
0.003195
0.003150
0.003106
0.003062
0.003018
0.002974
0.002930
0.002887
0.002844
0.002801
0.002758
0.002715
0.002673
0.002631
0.002589
0.002547
0.002506
0.002465
0.002424
0.002383
0.002342
0.002302
0.002262
0.002222
0.002182
0.002142
0.002103
0.002064
0.002025
0.001986
0.001947
0.001908
0.001870
0.001832
0.001794
0.001756
0.001718
0.001681
0.001643
0.001606
0.001569
0.001532
0.001495
0.001458
0.001421
0.001385
0.001348
0.001312
0.001275
0.001239
0.001202
0.001166
0.001130
0.001094
0.001058
0.001021
0.000985
0.000948
0.000912
0.000875
0.000838
0.000801
0.000765
0.000727
0.000689
0.000651
0.000613
0.000574
0.000535
0.000496
0.000456
0.000417
0.000377
0.000337
0.000300
0.017341
0.017047
0.016894
0.000679
0.000540
0.018155
0.000481
0.018014
0.017739
0.010178
0.017974
0.000450
0.011291
0.018238
0.005758
0.008525
0.017984
0.000458
0.000890
0.016904
0.003096
0.018693
0.018056
0.005878
0.017002
0.015188
0.019309
0.014110
0.018286
0.017142
0.001187
0.017249
0.016985
0.018013
0.017585
0.000417
0.017862
0.001386
0.017346
0.000583
0.017171
0.016934
0.016808
0.018587
0.000799
0.017759
0.000634
0.017490
0.018074
0.020168
0.000546
0.017898
0.003903
0.014253
0.000448
0.017957
0.017978
0.013212
0.017937
0.018062
0.006861
0.007934
0.000445
0.000458
0.016879
0.017085
0.010321
0.016937
0.018498
0.000499
0.018198
0.000512
0.011456
0.000589
0.016850
0.007623
0.000720
0.018561
0.004974
0.001485
0.003643
0.001618
0.001999
0.017166
0.017345
0.017464
0.017125
0.017014
0.016929
0.017556
0.018384
0.018148
0.017922
0.017903
0.017845
0.017691
0.019711
0.019107
0.018967
0.018901
0.017527
0.000545
0.017716
0.018224
0.016421
0.016621
0.001236
0.016628
0.001067
0.017079
0.011103
0.000923
0.010939
0.017514
0.006801
0.016983
0.000907
0.017047
0.003034
0.013296
0.017316
0.008233
0.001483
0.016831
0.017511
0.000948
0.017277
0.017239
0.016515
0.018419
0.004636
0.016976
0.017645
0.018070
0.000455
0.017393
0.017128
0.000428
0.018047
0.017395
0.004826
0.018029
0.000413
0.014931
0.017163
0.018016
0.002186
0.018004
0.012373
0.008887
0.018001
0.018020
0.000448
0.018064
0.001030
0.018118
0.016995
0.000512
0.012716
0.000520
0.018206
0.016919
0.015431
0.000616
0.009511
0.018397
0.016902
0.000798
0.006755
0.002523
0.001011
0.003294
0.016852
0.016898
0.017259
0.017068
0.016889
0.016857
0.016960
0.016717
0.017373
0.017465
0.017583
0.018034
0.017718
0.018094
0.017782
0.018136
0.018177
0.018499
0.018588
0.018008
0.019291
0.018488
0.019669
0.017462
0.017676
0.017489
0.005831
0.001559
0.017228
0.017083
0.005875
0.017201
0.016403
0.017381
0.016908
0.017746
0.001363
0.016464
0.009199
0.017016
0.017036
0.001767
0.002206
0.000872
0.016369
0.018025
0.000939
0.018111
0.016366
0.017298
0.011838
0.016903
0.016448
0.017873
0.016782
0.000943
0.015238
0.017283
0.017265
0.017512
0.000858
0.012660
0.017138
0.001076
0.017029
0.008978
0.007773
0.001105
0.017100
0.010099
0.017299
0.000929
0.000985
0.001283
0.017508
0.000876
0.003712
0.016523
0.016560
0.017148
0.017026
0.017067
0.001610
0.014105
0.009988
0.007371
0.017384
0.006451
0.005556
0.000958
0.004094
0.002880
0.016296
0.016395
0.016446
0.016643
0.016705
0.000925
0.016494
0.015972
0.017003
0.016806
0.017410
0.017034
0.018093
0.018971
0.017330
0.017208
0.017081
0.016321
0.018579
0.017900
0.017264
0.017355
0.017307
0.017369
0.017481
0.004943
0.002111
0.017828
0.017235
0.017209
0.016685
0.018168
0.016047
0.016257
0.016329
0.001829
0.016102
0.009887
0.001455
0.009972
0.016954
0.001314
0.002517
0.015905
0.003405
0.014207
0.001324
0.016789
0.007120
0.016091
0.016432
0.017668
0.001600
0.017114
0.002170
0.016846
0.011845
0.017207
0.017148
0.001123
0.017147
0.016717
0.016239
0.008890
0.016982
0.001403
0.016425
0.015616
0.016852
0.006544
0.017014
0.011625
0.013895
0.017058
0.001918
0.017117
0.006123
0.005154
0.003322
0.003692
0.017041
0.016452
0.001627
0.001645
0.016379
0.002043
0.016356
0.016461
0.016057
0.016707
0.017223
0.016954
0.016378
0.004644
0.017940
0.016615
0.017965
0.017136
0.016036
0.000858
0.016667
0.016686
0.017818
0.012574
0.019128
0.016237
0.018648
0.017640
0.016541
0.017589
0.017034
0.017175
0.017187
0.005288
0.004346
0.016991
0.017068
0.017035
0.017738
0.017131
0.017333
0.017179
0.018277
0.002958
0.002276
0.015187
0.001947
0.016279
0.016306
0.016478
0.006396
0.009574
0.016566
0.016592
0.001341
0.016429
0.016867
0.016142
0.016903
0.016972
0.016227
0.016155
0.002116
0.006742
0.002693
0.017269
0.016785
0.013504
0.004406
0.001396
0.001843
0.005192
0.016001
0.016120
0.001352
0.002888
0.009100
0.016448
0.017095
0.016411
0.013897
0.015675
0.016199
0.017388
0.016674
0.017317
0.016464
0.004099
0.002343
0.016177
0.015991
0.010869
0.016118
0.016061
0.002932
0.012583
0.016913
0.015855
0.017088
0.005785
0.014884
0.002008
0.001443
0.010837
0.015971
0.008019
0.004777
0.016276
0.016537
0.016401
0.007335
0.016049
0.001497
0.016277
0.016012
0.016274
0.001306
0.017448
0.016475
0.019676
0.016573
0.017443
0.016890
0.016505
0.016556
0.017001
0.017412
0.016370
0.016828
0.016766
0.001260
0.016988
0.016953
0.016453
0.017016
0.016272
0.017374
0.016966
0.015782
0.015936
0.016127
0.010651
0.015838
0.001738
0.016039
0.004578
0.013080
0.003246
0.015843
0.001706
0.014985
0.016793
0.001949
0.016119
0.016408
0.016913
0.015979
0.015424
0.001320
0.007066
0.007701
0.001888
0.002150
0.015880
0.016781
0.001680
0.015904
0.016365
0.016839
0.016724
0.016117
0.017110
0.016788
0.010463
0.003241
0.008704
0.015098
0.003459
0.004057
0.016342
0.002295
0.006424
0.001341
0.016808
0.014710
0.016106
0.015105
0.014718
0.005431
0.008243
0.002851
0.002542
0.016297
0.008855
0.016021
0.016836
0.012310
0.014998
0.017007
0.015759
0.016064
0.016755
0.016087
0.016910
0.015749
0.016298
0.016877
0.017060
0.005809
0.002384
0.016583
0.017666
0.016322
0.017360
0.016172
0.016118
0.016315
0.001737
0.002360
0.016783
0.015887
0.017090
0.016894
0.016202
0.016988
0.004108
0.017109
0.015975
0.016833
0.015914
0.012870
0.016597
0.016048
0.016903
0.016889
0.016166
0.015669
0.003070
0.014348
0.002325
0.015525
0.006903
0.004035
0.012922
0.010211
0.004385
0.001661
0.016107
0.015512
0.002702
0.011650
0.015235
0.015835
0.001802
0.014149
0.015422
0.003792
0.015869
0.016057
0.001823
0.016637
0.016381
0.015849
0.015808
0.016116
0.015654
0.015744
0.016563
0.016298
0.015781
0.016326
0.011466
0.015939
0.007857
0.016904
0.008305
0.013986
0.003748
0.017192
0.014860
0.002731
0.000978
0.002332
0.002007
0.016197
0.002802
0.016717
0.002050
0.017321
0.005040
0.005029
0.009667
0.005612
0.001803
0.007356
0.002897
0.016612
0.016857
0.016776
0.016726
0.015389
0.016064
0.016255
0.015752
0.014497
0.002524
0.015976
0.015694
0.001682
0.016787
0.016196
0.012639
0.016768
0.016711
0.015988
0.015847
0.016133
0.016845
0.016028
0.002540
0.016604
0.016026
0.016910
0.003694
0.017338
0.016755
0.016468
0.001683
0.016464
0.015732
0.016797
0.017075
0.003518
0.002068
0.005058
0.002030
0.002748
0.009705
0.001667
0.001920
0.015481
0.007999
0.016075
0.016472
0.002512
0.016387
0.013692
0.012555
0.016629
0.003344
0.002093
0.014506
0.002476
0.006035
0.002759
0.003670
0.015820
0.016399
0.016628
0.015559
0.016431
0.004742
0.015861
0.016090
0.016641
0.016556
0.015776
0.007786
0.015410
0.001338
0.013816
0.015492
0.014277
0.013991
0.014587
0.009348
0.015961
0.015703
0.015751
0.015628
0.003202
0.016453
0.001964
0.004185
0.002046
0.016929
0.006199
0.010654
0.013467
0.015860
0.004430
0.002969
0.001843
0.012158
0.016025
0.003559
0.015894
0.016185
0.016493
0.016572
0.015450
0.015292
0.015628
0.015541
0.015741
0.015824
0.015742
0.004351
0.015820
0.015936
0.013509
0.016182
0.016656
0.016737
0.015733
0.016879
0.016712
0.000471
0.016357
0.015629
0.016651
0.002436
0.016677
0.011155
0.015543
0.002243
0.016914
0.015299
0.003953
0.004493
0.013540
0.015155
0.015425
0.006227
0.010906
0.002344
0.015241
0.009796
0.013504
0.001895
0.015814
0.001927
0.001637
0.016005
0.016121
0.015538
0.001542
0.003324
0.016533
0.016512
0.005416
0.014716
0.014586
0.013262
0.002528
0.015627
0.015599
0.015477
0.015005
0.015467
0.008960
0.001026
0.015672
0.001634
0.013064
0.002525
0.016598
0.005541
0.003663
0.016473
0.016553
0.004737
0.016322
0.007115
0.016608
0.015590
0.002030
0.003116
0.016504
0.002202
0.015946
0.002295
0.002579
0.003490
0.016003
0.011531
0.005630
0.012808
0.016103
0.005042
0.016451
0.016196
0.010005
0.015831
0.015463
0.015697
0.015600
0.015802
0.015422
0.015395
0.015859
0.015715
0.011848
0.016123
0.015010
0.015588
0.016697
0.002851
0.015475
0.016585
0.016565
0.008991
0.002148
0.014291
0.012960
0.013753
0.015571
0.003924
0.013068
0.014523
0.005655
0.010692
0.002454
0.003109
0.012507
0.002178
0.012425
0.001547
0.014009
0.015182
0.015832
0.015998
0.002955
0.016181
0.008719
0.016399
0.015326
0.015358
0.004304
0.015654
0.002913
0.016430
0.009025
0.002654
0.015269
0.015683
0.003175
0.002132
0.014885
0.006723
0.015063
0.015454
0.015450
0.015371
0.015377
0.013893
0.003793
0.003024
0.005541
0.016391
0.002367
0.002225
0.003574
0.015653
0.004126
0.006523
0.014688
0.013423
0.001334
0.012162
0.015774
0.015546
0.005305
0.010574
0.016450
0.016309
0.001244
0.015887
0.015544
0.015803
0.015178
0.002740
0.016477
0.015450
0.015548
0.016341
0.015239
0.016406
0.015400
0.015558
0.015534
0.015867
0.000904
0.015730
0.014860
0.009680
0.016475
0.004998
0.016417
0.012347
0.014714
0.015222
0.000705
0.015335
0.015433
0.016527
0.015883
0.011540
0.002354
0.001909
0.016490
0.002763
0.015208
0.014961
0.004373
0.009061
0.013220
0.010365
0.003182
0.014530
0.012201
0.015130
0.002693
0.002720
0.001842
0.016235
0.002397
0.011630
0.015523
0.002131
0.001901
0.015995
0.014137
0.015654
0.004922
0.015278
0.013897
0.001285
0.005447
0.014578
0.003345
0.003966
0.016151
0.003767
0.015225
0.015079
0.015391
0.015166
0.015497
0.009306
0.007768
0.004139
0.015426
0.000848
0.013228
0.003504
0.006160
0.012859
0.015472
0.015085
0.015072
0.011429
0.003071
0.004532
0.015576
0.002989
0.004088
0.001655
0.005992
0.009736
0.002546
0.006343
0.014431
0.016282
0.016293
0.015772
0.015581
0.001158
0.015169
0.016364
0.016417
0.016383
0.016256
0.015177
0.002419
0.015268
0.004561
0.015122
0.015252
0.008248
0.015411
0.002546
0.015080
0.015243
0.015370
0.016405
0.003074
0.014989
0.014309
0.015290
0.002417
0.007397
0.001040
0.002337
0.016345
0.000306
0.002620
0.015325
0.015845
0.016308
0.016141
0.015322
0.011258
0.001610
0.012518
0.015324
0.014118
0.016326
0.016418
0.000756
0.015077
0.005098
0.004546
0.012631
0.009020
0.010031
0.013912
0.005624
0.003392
0.002887
0.003579
0.014830
0.011786
0.006315
0.011794
0.001566
0.015282
0.013537
0.014967
0.001858
0.006681
0.015078
0.003685
0.004542
0.002924
0.000837
0.001018
0.003398
0.015003
0.005130
0.004852
0.002742
0.012405
0.012006
0.003530
0.013586
0.001472
0.015567
0.010470
0.016113
0.015815
0.004651
0.015120
0.008393
0.016109
0.015350
0.015145
0.015014
0.014006
0.003597
0.003052
0.008491
0.006241
0.002109
0.011261
0.013802
0.016256
0.015366
0.014989
0.016336
0.015041
0.014962
0.015125
0.015686
0.014065
0.004279
0.014935
0.015117
0.001071
0.016159
0.015074
0.015187
0.014738
0.016316
0.016199
0.014980
0.014865
0.014895
0.012982
0.002484
0.004644
0.004269
0.016341
0.015961
0.016187
0.015572
0.002336
0.008332
0.015237
0.010968
0.015957
0.007191
0.016275
0.002325
0.016320
0.002124
0.013268
0.015669
0.016139
0.002586
0.007297
0.003076
0.001250
0.014670
0.015140
0.005139
0.003972
0.012054
0.015774
0.013437
0.010694
0.003288
0.002929
0.002827
0.014319
0.002623
0.012969
0.011179
0.008468
0.002300
0.014751
0.012702
0.007075
0.001029
0.014809
0.005803
0.004193
0.015455
0.006238
0.001127
0.007213
0.005172
0.004938
0.006717
0.010389
0.015946
0.003016
0.015651
0.011741
0.014564
0.003710
0.013300
0.003632
0.009691
0.015211
0.003357
0.005300
0.003517
0.001807
0.004383
0.003899
0.006192
0.014568
0.015455
0.014840
0.014911
0.009278
0.014095
0.001675
0.014520
0.015210
0.016056
0.015614
0.002817
0.016049
0.015936
0.004913
0.007756
0.014864
0.014912
0.014955
0.014831
0.004098
0.014655
0.014013
0.014958
0.016128
0.016261
0.004768
0.014945
0.014715
0.014428
0.011388
0.016195
0.016251
0.002553
0.012814
0.002137
0.011620
0.014774
0.010861
0.014589
0.007636
0.016213
0.014855
0.000803
0.016032
0.015338
0.015792
0.015543
0.015866
0.002964
0.016124
0.014679
0.002068
0.016051
0.016262
0.002023
0.016142
0.015555
0.005794
0.015588
0.008974
0.011466
0.005907
0.012967
0.014098
0.003212
0.003623
0.004188
0.011283
0.002089
0.007835
0.015241
0.004244
0.010855
0.001578
0.001499
0.015233
0.014655
0.002713
0.002035
0.013685
0.001055
0.015154
0.013551
0.002186
0.003206
0.014641
0.014694
0.001116
0.012693
0.015474
0.008575
0.002805
0.002854
0.009643
0.005625
0.003800
0.013953
0.015884
0.003531
0.014240
0.012166
0.006640
0.003972
0.015990
0.014181
0.015414
0.005433
0.003851
0.005907
0.015882
0.010521
0.003848
0.015770
0.015159
0.001865
0.015093
0.014727
0.004517
0.005188
0.004144
0.000821
0.007174
0.009950
0.007157
0.005251
0.015619
0.015359
0.002703
0.016002
0.016121
0.014638
0.014571
0.001296
0.014758
0.015263
0.016188
0.015770
0.016202
0.014816
0.016031
0.014858
0.006855
0.007940
0.001841
0.016098
0.003785
0.016029
0.014694
0.005253
0.002294
0.015434
0.016241
0.014589
0.015955
0.010248
0.014346
0.002499
0.015979
0.016065
0.003960
0.016165
0.015006
0.005043
0.014998
0.014509
0.015392
0.005608
0.006371
0.004439
0.008929
0.015931
0.012196
0.015427
0.015125
0.013725
0.004191
0.014336
0.003548
0.014935
0.003289
0.003037
0.013809
0.014234
0.014994
0.007207
0.001732
0.002444
0.014360
0.010242
0.001209
0.001275
0.014368
0.001996
0.005828
0.002172
0.014702
0.007772
0.009095
0.014403
0.000618
0.002272
0.005969
0.015517
0.014613
0.015735
0.015599
0.014547
0.005602
0.003915
0.004020
0.006608
0.006984
0.008321
0.003211
0.004892
0.004531
0.010571
0.015899
0.015841
0.005549
0.014517
0.002791
0.016075
0.014437
0.013634
0.003211
0.013816
0.015503
0.015225
0.015926
0.016102
0.014542
0.007452
0.015832
0.014563
0.015589
0.004803
0.002283
0.014141
0.015652
0.002703
0.002634
0.010800
0.015929
0.016109
0.013217
0.009840
0.002837
0.000938
0.004098
0.014502
0.004870
0.015799
0.001543
0.001322
0.015134
0.002643
0.004124
0.015607
0.015915
0.015994
0.015316
0.013431
0.000847
0.016053
0.008015
0.011653
0.013133
0.001232
0.003526
0.006731
0.006319
0.014214
0.006460
0.015162
0.004865
0.007462
0.011147
0.006708
0.010268
0.004204
0.012710
0.013716
0.015859
0.005228
0.003827
0.011080
0.003954
0.015232
0.015754
0.005450
0.014699
0.002067
0.003019
0.003449
0.002844
0.014281
0.001046
0.002766
0.007914
0.014898
0.001714
0.002316
0.014834
0.001513
0.003281
0.013724
0.001119
0.000706
0.015583
0.014283
0.003501
0.006154
0.013212
0.011709
0.015797
0.013374
0.012201
0.004505
0.015184
0.005572
0.007742
0.015704
0.015126
0.014909
0.001879
0.014313
0.000493
0.005732
0.004372
0.003065
0.015396
0.014843
0.006538
0.009819
0.015309
0.003591
0.014150
0.008187
0.003063
0.006317
0.014352
0.014169
0.016041
0.012723
0.008594
0.015774
0.013782
0.013687
0.014914
0.015890
0.014504
0.015970
0.014994
0.001382
0.015401
0.002482
0.015870
0.002858
0.014276
0.011311
0.013314
0.016019
0.014458
0.015893
0.015568
0.004254
0.001547
0.009758
0.006254
0.014568
0.002922
0.008468
0.004502
0.008395
0.002438
0.014821
0.016034
0.015918
0.015352
0.015503
0.002586
0.003342
0.015662
0.002588
0.013978
0.000722
0.013530
0.009285
0.004665
0.014978
0.002846
0.016106
0.014079
0.006146
0.009761
0.011253
0.005237
0.013395
0.004160
0.015196
0.003561
0.015317
0.003239
0.012594
0.013307
0.005213
0.003040
0.015565
0.006277
0.015660
0.014698
0.007882
0.001395
0.011671
0.015129
0.002973
0.004798
0.014678
0.014561
0.006445
0.002555
0.014056
0.010971
0.000474
0.015879
0.003776
0.002897
0.001689
0.015783
0.001177
0.002275
0.004504
0.004712
0.000624
0.002038
0.013891
0.013938
0.014084
0.002724
0.007372
0.008631
0.007103
0.007262
0.015471
0.013241
0.010211
0.015767
0.014692
0.006291
0.001300
0.011740
0.014784
0.007713
0.015000
0.002956
0.008943
0.002225
0.003313
0.009243
0.003085
0.005945
0.000770
0.000922
0.008565
0.015195