# vtk DataFile Version 2.0
Test
ASCII
DATASET POLYDATA
POINTS 7341 float
0.000000 0.000000 0.000000
1.000000 0.000000 0.000000
1.000000 1.000000 0.000000
0.000000 1.000000 0.000000
0.000000 0.500000 0.000000
0.500000 0.500000 0.000000
1.000000 0.500000 0.000000
0.499000 0.499000 0.000000
0.900000 0.010000 0.000000
0.029412 0.000000 0.000000
0.058824 0.000000 0.000000
0.088235 0.000000 0.000000
0.117647 0.000000 0.000000
0.147059 0.000000 0.000000
0.176471 0.000000 0.000000
0.205882 0.000000 0.000000
0.235294 0.000000 0.000000
0.264706 0.000000 0.000000
0.294118 0.000000 0.000000
0.323529 0.000000 0.000000
0.352941 0.000000 0.000000
0.382353 0.000000 0.000000
0.411765 0.000000 0.000000
0.441176 0.000000 0.000000
0.470588 0.000000 0.000000
0.500000 0.000000 0.000000
0.529412 0.000000 0.000000
0.558824 0.000000 0.000000
0.588235 0.000000 0.000000
0.617647 0.000000 0.000000
0.647059 0.000000 0.000000
0.676471 0.000000 0.000000
0.705882 0.000000 0.000000
0.735294 0.000000 0.000000
0.764706 0.000000 0.000000
0.794118 0.000000 0.000000
0.823529 0.000000 0.000000
0.852941 0.000000 0.000000
0.882353 0.000000 0.000000
0.911765 0.000000 0.000000
0.941176 0.000000 0.000000
0.970588 0.000000 0.000000
1.000000 0.029412 0.000000
1.000000 0.058824 0.000000
1.000000 0.088235 0.000000
1.000000 0.117647 0.000000
1.000000 0.147059 0.000000
1.000000 0.176471 0.000000
1.000000 0.205882 0.000000
1.000000 0.235294 0.000000
1.000000 0.264706 0.000000
1.000000 0.294118 0.000000
1.000000 0.323529 0.000000
1.000000 0.352941 0.000000
1.000000 0.382353 0.000000
1.000000 0.411765 0.000000
1.000000 0.441176 0.000000
1.000000 0.470588 0.000000
1.000000 0.529412 0.000000
1.000000 0.558824 0.000000
1.000000 0.588235 0.000000
1.000000 0.617647 0.000000
1.000000 0.647059 0.000000
1.000000 0.676471 0.000000
1.000000 0.705882 0.000000
1.000000 0.735294 0.000000
1.000000 0.764706 0.000000
1.000000 0.794118 0.000000
1.000000 0.823529 0.000000
1.000000 0.852941 0.000000
1.000000 0.882353 0.000000
1.000000 0.911765 0.000000
1.000000 0.941176 0.000000
1.000000 0.970588 0.000000
0.970588 1.000000 0.000000
0.941176 1.000000 0.000000
0.911765 1.000000 0.000000
0.882353 1.000000 0.000000
0.852941 1.000000 0.000000
0.823529 1.000000 0.000000
0.794118 1.000000 0.000000
0.764706 1.000000 0.000000
0.735294 1.000000 0.000000
0.705882 1.000000 0.000000
0.676471 1.000000 0.000000
0.647059 1.000000 0.000000
0.617647 1.000000 0.000000
0.588235 1.000000 0.000000
0.558824 1.000000 0.000000
0.529412 1.000000 0.000000
0.500000 1.000000 0.000000
0.470588 1.000000 0.000000
0.441176 1.000000 0.000000
0.411765 1.000000 0.000000
0.382353 1.000000 0.000000
0.352941 1.000000 0.000000
0.323529 1.000000 0.000000
0.294118 1.000000 0.000000
0.264706 1.000000 0.000000
0.235294 1.000000 0.000000
0.205882 1.000000 0.000000
0.176471 1.000000 0.000000
0.147059 1.000000 0.000000
0.117647 1.000000 0.000000
0.088235 1.000000 0.000000
0.058824 1.000000 0.000000
0.029412 1.000000 0.000000
0.000000 0.970588 0.000000
0.000000 0.941176 0.000000
0.000000 0.911765 0.000000
0.000000 0.882353 0.000000
0.000000 0.852941 0.000000
0.000000 0.823529 0.000000
0.000000 0.794118 0.000000
0.000000 0.764706 0.000000
0.000000 0.735294 0.000000
0.000000 0.705882 0.000000
0.000000 0.676471 0.000000
0.000000 0.647059 0.000000
0.000000 0.617647 0.000000
0.000000 0.588235 0.000000
0.000000 0.558824 0.000000
0.000000 0.529412 0.000000
0.007246 0.500000 0.000000
0.014493 0.500000 0.000000
0.021739 0.500000 0.000000
0.028986 0.500000 0.000000
0.036232 0.500000 0.000000
0.043478 0.500000 0.000000
0.050725 0.500000 0.000000
0.057971 0.500000 0.000000
0.065217 0.500000 0.000000
0.072464 0.500000 0.000000
0.079710 0.500000 0.000000
0.086957 0.500000 0.000000
0.094203 0.500000 0.000000
0.101449 0.500000 0.000000
0.108696 0.500000 0.000000
0.115942 0.500000 0.000000
0.123188 0.500000 0.000000
0.130435 0.500000 0.000000
0.137681 0.500000 0.000000
0.144928 0.500000 0.000000
0.152174 0.500000 0.000000
0.159420 0.500000 0.000000
0.166667 0.500000 0.000000
0.173913 0.500000 0.000000
0.181159 0.500000 0.000000
0.188406 0.500000 0.000000
0.195652 0.500000 0.000000
0.202899 0.500000 0.000000
0.210145 0.500000 0.000000
0.217391 0.500000 0.000000
0.224638 0.500000 0.000000
0.231884 0.500000 0.000000
0.239130 0.500000 0.000000
0.246377 0.500000 0.000000
0.253623 0.500000 0.000000
0.260870 0.500000 0.000000
0.268116 0.500000 0.000000
0.275362 0.500000 0.000000
0.282609 0.500000 0.000000
0.289855 0.500000 0.000000
0.297101 0.500000 0.000000
0.304348 0.500000 0.000000
0.311594 0.500000 0.000000
0.318841 0.500000 0.000000
0.326087 0.500000 0.000000
0.333333 0.500000 0.000000
0.340580 0.500000 0.000000
0.347826 0.500000 0.000000
0.355072 0.500000 0.000000
0.362319 0.500000 0.000000
0.369565 0.500000 0.000000
0.376812 0.500000 0.000000
0.384058 0.500000 0.000000
0.391304 0.500000 0.000000
0.398551 0.500000 0.000000
0.405797 0.500000 0.000000
0.413043 0.500000 0.000000
0.420290 0.500000 0.000000
0.427536 0.500000 0.000000
0.434783 0.500000 0.000000
0.442029 0.500000 0.000000
0.449275 0.500000 0.000000
0.456522 0.500000 0.000000
0.463768 0.500000 0.000000
0.471014 0.500000 0.000000
0.478261 0.500000 0.000000
0.485507 0.500000 0.000000
0.492754 0.500000 0.000000
0.510004 0.500000 0.000000
0.520408 0.500000 0.000000
0.531229 0.500000 0.000000
0.542483 0.500000 0.000000
0.554187 0.500000 0.000000
0.566359 0.500000 0.000000
0.579019 0.500000 0.000000
0.592185 0.500000 0.000000
0.605877 0.500000 0.000000
0.620118 0.500000 0.000000
0.634929 0.500000 0.000000
0.650332 0.500000 0.000000
0.666352 0.500000 0.000000
0.683013 0.500000 0.000000
0.700340 0.500000 0.000000
0.718361 0.500000 0.000000
0.737103 0.500000 0.000000
0.756595 0.500000 0.000000
0.776867 0.500000 0.000000
0.797950 0.500000 0.000000
0.819877 0.500000 0.000000
0.842681 0.500000 0.000000
0.866398 0.500000 0.000000
0.891064 0.500000 0.000000
0.916716 0.500000 0.000000
0.943396 0.500000 0.000000
0.971143 0.500000 0.000000
0.000000 0.470588 0.000000
0.000000 0.441176 0.000000
0.000000 0.411765 0.000000
0.000000 0.382353 0.000000
0.000000 0.352941 0.000000
0.000000 0.323529 0.000000
0.000000 0.294118 0.000000
0.000000 0.264706 0.000000
0.000000 0.235294 0.000000
0.000000 0.205882 0.000000
0.000000 0.176471 0.000000
0.000000 0.147059 0.000000
0.000000 0.117647 0.000000
0.000000 0.088235 0.000000
0.000000 0.058824 0.000000
0.000000 0.029412 0.000000
0.500341 0.497365 0.000000
0.501682 0.495729 0.000000
0.503023 0.494094 0.000000
0.504365 0.492458 0.000000
0.505706 0.490823 0.000000
0.507047 0.489187 0.000000
0.508388 0.487552 0.000000
0.509729 0.485916 0.000000
0.511070 0.484281 0.000000
0.512411 0.482645 0.000000
0.513753 0.481010 0.000000
0.515094 0.479375 0.000000
0.516435 0.477739 0.000000
0.517776 0.476104 0.000000
0.519117 0.474468 0.000000
0.520458 0.472833 0.000000
0.521799 0.471197 0.000000
0.523140 0.469562 0.000000
0.524482 0.467926 0.000000
0.525823 0.466291 0.000000
0.527164 0.464656 0.000000
0.528505 0.463020 0.000000
0.529846 0.461385 0.000000
0.531187 0.459749 0.000000
0.532528 0.458114 0.000000
0.533870 0.456478 0.000000
0.535211 0.454843 0.000000
0.536552 0.453207 0.000000
0.537893 0.451572 0.000000
0.539234 0.449936 0.000000
0.540575 0.448301 0.000000
0.541916 0.446666 0.000000
0.543258 0.445030 0.000000
0.544599 0.443395 0.000000
0.545940 0.441759 0.000000
0.547281 0.440124 0.000000
0.548622 0.438488 0.000000
0.549963 0.436853 0.000000
0.551304 0.435217 0.000000
0.552645 0.433582 0.000000
0.553987 0.431946 0.000000
0.555328 0.430311 0.000000
0.556669 0.428676 0.000000
0.558010 0.427040 0.000000
0.559351 0.425405 0.000000
0.560692 0.423769 0.000000
0.562033 0.422134 0.000000
0.563375 0.420498 0.000000
0.564716 0.418863 0.000000
0.566057 0.417227 0.000000
0.567398 0.415592 0.000000
0.568739 0.413957 0.000000
0.570080 0.412321 0.000000
0.571421 0.410686 0.000000
0.572763 0.409050 0.000000
0.574104 0.407415 0.000000
0.575445 0.405779 0.000000
0.576786 0.404144 0.000000
0.578127 0.402508 0.000000
0.579468 0.400873 0.000000
0.580809 0.399237 0.000000
0.582151 0.397602 0.000000
0.583492 0.395967 0.000000
0.584833 0.394331 0.000000
0.586174 0.392696 0.000000
0.587515 0.391060 0.000000
0.588856 0.389425 0.000000
0.590197 0.387789 0.000000
0.591538 0.386154 0.000000
0.592880 0.384518 0.000000
0.594221 0.382883 0.000000
0.595562 0.381247 0.000000
0.596903 0.379612 0.000000
0.598244 0.377977 0.000000
0.599585 0.376341 0.000000
0.600926 0.374706 0.000000
0.602268 0.373070 0.000000
0.603609 0.371435 0.000000
0.604950 0.369799 0.000000
0.606291 0.368164 0.000000
0.607632 0.366528 0.000000
0.608973 0.364893 0.000000
0.610314 0.363258 0.000000
0.611656 0.361622 0.000000
0.612997 0.359987 0.000000
0.614338 0.358351 0.000000
0.615679 0.356716 0.000000
0.617020 0.355080 0.000000
0.618361 0.353445 0.000000
0.619702 0.351809 0.000000
0.621043 0.350174 0.000000
0.622385 0.348538 0.000000
0.623726 0.346903 0.000000
0.625067 0.345268 0.000000
0.626408 0.343632 0.000000
0.627749 0.341997 0.000000
0.629090 0.340361 0.000000
0.630431 0.338726 0.000000
0.631773 0.337090 0.000000
0.633114 0.335455 0.000000
0.634455 0.333819 0.000000
0.635796 0.332184 0.000000
0.637137 0.330548 0.000000
0.638478 0.328913 0.000000
0.639819 0.327278 0.000000
0.641161 0.325642 0.000000
0.642502 0.324007 0.000000
0.643843 0.322371 0.000000
0.645184 0.320736 0.000000
0.646525 0.319100 0.000000
0.647866 0.317465 0.000000
0.649207 0.315829 0.000000
0.650548 0.314194 0.000000
0.651890 0.312559 0.000000
0.653231 0.310923 0.000000
0.654572 0.309288 0.000000
0.655913 0.307652 0.000000
0.657254 0.306017 0.000000
0.658595 0.304381 0.000000
0.659936 0.302746 0.000000
0.661278 0.301110 0.000000
0.662619 0.299475 0.000000
0.663960 0.297839 0.000000
0.665301 0.296204 0.000000
0.666642 0.294569 0.000000
0.667983 0.292933 0.000000
0.669324 0.291298 0.000000
0.670666 0.289662 0.000000
0.672007 0.288027 0.000000
0.673348 0.286391 0.000000
0.674689 0.284756 0.000000
0.676030 0.283120 0.000000
0.677371 0.281485 0.000000
[...]
POINT_DATA 7341
SCALARS UX float 1
LOOKUP_TABLE default
0.000000
0.000000
0.308000
0.308000
0.133938
0.109476
0.107940
0.106581
0.000423
-0.000000
0.000000
0.000000
0.000000
0.000000
0.000000
0.000000
0.000000
0.000000
0.000000
0.000000
0.000000
0.000000
0.000000
0.000000
0.000000
0.000000
0.000000
0.000000
0.000000
0.000000
0.000000
0.000000
0.000000
0.000000
0.000000
0.000000
0.000000
0.000000
0.000000
0.000000
0.000000
-0.000000
0.005023
0.008301
0.011093
0.014571
0.018744
0.023093
0.028339
0.033663
0.039663
0.046000
0.053095
0.060804
0.068938
0.077669
0.087137
0.097089
0.119964
0.133039
0.146464
0.160603
0.174181
0.187214
0.199697
0.211431
0.222790
0.233984
0.244850
0.255572
0.266176
0.276689
0.287165
0.297598
0.308000
0.308000
0.308000
0.308000
0.308000
0.308000
0.308000
0.308000
0.308000
0.308000
0.308000
0.308000
0.308000
0.308000
0.308000
0.308000
0.308000
0.308000
0.308000
0.308000
0.308000
0.308000
0.308000
0.308000
0.308000
0.308000
0.308000
0.308000
0.308000
0.308000
0.308000
0.308000
0.308000
0.299030
0.290096
0.281162
0.272351
0.263590
0.255019
0.246560
0.238290
0.229935
0.221629
0.211894
0.200622
0.187714
0.173586
0.159235
0.144918
0.131822
0.130319
0.127638
0.125783
0.124050
0.122933
0.121912
0.120602
0.118276
0.116577
0.116827
0.115717
0.114189
0.114040
0.112866
0.114120
0.109274
0.108804
0.107207
0.107159
0.106450
0.105701
0.102414
0.101993
0.102280
0.105403
0.101156
0.101125
0.099860
0.098409
0.098904
0.098518
0.099287
0.101036
0.097586
0.100768
0.103255
0.099470
0.104722
0.100737
0.105144
0.102974
0.105240
0.106762
0.104110
0.106091
0.107772
0.109341
0.110900
0.107083
0.112167
0.109797
0.111285
0.108386
0.110559
0.108188
0.110535
0.110063
0.109952
0.108941
0.111562
0.110964
0.110910
0.109423
0.111478
0.109301
0.110842
0.110331
0.108025
0.107271
0.106635
0.106069
0.105507
0.104932
0.104359
0.103897
0.103447
0.103132
0.102845
0.102686
0.102616
0.102577
0.102650
0.102777
0.102972
0.103095
0.103275
0.103494
0.103764
0.104096
0.104508
0.105018
0.105633
0.106350
0.107135
0.105873
0.092986
0.082464
0.073189
0.065433
0.057711
0.050513
0.043438
0.037273
0.031627
0.026878
0.022082
0.018173
0.014425
0.010764
0.007220
0.104126
0.101667
0.100434
0.099324
0.098523
0.097576
0.096715
0.095878
0.095046
0.094241
0.093463
0.092694
0.091955
0.091232
0.090517
0.089827
0.089139
0.088474
0.087819
0.087179
0.086552
0.085929
0.085322
0.084726
0.084137
0.083561
0.082993
0.082434
0.081885
0.081343
0.080808
0.080282
0.079763
0.079250
0.078742
0.078241
0.077746
0.077254
0.076769
0.076287
0.075809
0.075335
0.074864
0.074397
0.073932
0.073470
0.073011
0.072553
0.072098
0.071644
0.071192
0.070741
0.070291
0.069843
0.069396
0.068950
0.068504
0.068059
0.067615
0.067172
0.066728
0.066285
0.065844
0.065402
0.064960
0.064519
0.064079
0.063639
0.063199
0.062760
0.062321
0.061882
0.061444
0.061006
0.060569
0.060132
0.059695
0.059259
0.058823
0.058388
0.057953
0.057519
0.057085
0.056651
0.056218
0.055785
0.055353
0.054922
0.054491
0.054060
0.053630
0.053201
0.052773
0.052345
0.051917
0.051491
0.051065
0.050640
0.050216
0.049792
0.049369
0.048948
0.048527
0.048107
0.047688
0.047269
0.046852
0.046436
0.046021
0.045607
0.045194
0.044781
0.044370
0.043960
0.043551
0.043143
0.042737
0.042331
0.041927
0.041523
0.041121
0.040720
0.040320
0.039922
0.039524
0.039128
0.038732
0.038339
0.037946
0.037554
0.037164
0.036775
0.036387
0.036000
0.035614
0.035230
0.034846
0.034464
0.034083
0.033704
0.033326
0.032949
0.032573
0.032199
0.031826
0.031454
0.031084
0.030715
0.030347
0.029981
0.029616
0.029254
0.028893
0.028537
0.028183
0.027832
0.027484
0.027137
0.026792
0.026449
0.026108
0.025770
0.025434
0.025101
0.024770
0.024442
0.024117
0.023795
0.023475
0.023159
0.022846
0.022536
0.022229
0.021925
0.021624
0.021324
0.021028
0.020734
0.020443
0.020154
0.019868
0.019584
0.019303
0.019023
0.018747
0.018473
0.018201
0.017932
0.017666
0.017402
0.017141
0.016882
0.016625
0.016371
0.016119
0.015871
0.015623
0.015379
0.015137
0.014897
0.014660
0.014426
0.014193
0.013963
0.013736
0.013511
0.013288
0.013068
0.012849
0.012633
0.012419
0.012208
0.011998
0.011790
0.011585
0.011382
0.011181
0.010982
0.010784
0.010589
0.010396
0.010205
0.010015
0.009828
0.009642
0.009459
0.009277
0.009096
0.008918
0.008741
0.008566
0.008393
0.008221
0.008051
0.007883
0.007716
0.007551
0.007387
0.007225
0.007065
0.006906
0.006749
0.006594
0.006440
0.006288
0.006137
0.005988
0.005841
0.005695
0.005551
0.005408
0.005267
0.005127
0.004988
0.004851
0.004716
0.004582
0.004450
0.004319
0.004190
0.004063
0.003937
0.003814
0.003692
0.003570
0.003451
0.003333
0.003218
0.003103
0.002991
0.002880
0.002771
0.002663
0.002557
0.002454
0.002352
0.002251
0.002152
0.002054
0.001958
0.001864
0.001771
0.001681
0.001591
0.001504
0.001418
0.001333
0.001250
0.001168
0.001087
0.001006
0.000928
0.000849
0.000773
0.000698
0.000625
0.000551
0.000488
0.088452
0.086321
0.090921
0.001926
0.002313
0.095722
0.001792
0.095863
0.094886
0.044264
0.096369
0.001315
0.048782
0.101858
0.021069
0.029869
0.097439
0.000980
0.001653
0.093165
0.009482
0.107766
0.098997
0.015888
0.093746
0.079027
0.113161
0.067651
0.095575
0.094035
0.001985
0.087300
0.087533
0.099188
0.091981
0.000701
0.098782
0.003554
0.095216
0.002331
0.086704
0.088699
0.091242
0.106029
0.001626
0.100187
0.001159
0.096307
0.102943
0.118626
0.001007
0.098627
0.012622
0.071576
0.001063
0.097931
0.096824
0.063568
0.095779
0.095677
0.026499
0.032299
0.001406
0.001535
0.093081
0.094095
0.041821
0.085415
0.096248
0.001975
0.095689
0.002131
0.051637
0.002182
0.092260
0.024945
0.001736
0.096299
0.012381
0.002733
0.007778
0.003329
0.004176
0.086780
0.088251
0.089904
0.086514
0.086509
0.089659
0.091269
0.103900
0.100942
0.098163
0.097360
0.096530
0.093982
0.115921
0.111799
0.110635
0.109856
0.098308
0.000937
0.098950
0.103746
0.086372
0.084310
0.004655
0.090545
0.004217
0.090082
0.049871
0.002901
0.046162
0.096761
0.026329
0.093009
0.002197
0.088415
0.009061
0.064122
0.093751
0.028118
0.004111
0.086814
0.098276
0.001958
0.095968
0.093926
0.083738
0.106132
0.010754
0.086059
0.098391
0.100843
0.000720
0.095133
0.095106
0.000836
0.099354
0.095866
0.016855
0.098056
0.001107
0.076877
0.094505
0.097322
0.006297
0.096752
0.057131
0.037202
0.096351
0.096136
0.001590
0.095913
0.003886
0.095772
0.093909
0.002192
0.059202
0.002165
0.095387
0.093402
0.075853
0.002030
0.036281
0.095950
0.092908
0.001660
0.020256
0.004924
0.001741
0.006704
0.091946
0.091574
0.087592
0.086267
0.085083
0.087346
0.086820
0.088882
0.089020
0.090356
0.092751
0.099837
0.095373
0.101711
0.099755
0.102556
0.103153
0.105993
0.107343
0.100708
0.113017
0.106709
0.115373
0.096847
0.099715
0.097784
0.021448
0.005915
0.090655
0.090588
0.021736
0.092081
0.089249
0.094403
0.091972
0.098982
0.004209
0.089891
0.034174
0.087538
0.086863
0.003889
0.004297
0.001700
0.088508
0.102590
0.002110
0.103558
0.087241
0.096365
0.052907
0.087906
0.083523
0.100695
0.091345
0.002809
0.074957
0.093023
0.093221
0.097100
0.002294
0.059167
0.091305
0.004338
0.088878
0.037831
0.031469
0.004409
0.090345
0.040281
0.096114
0.003162
0.003528
0.004447
0.096803
0.002242
0.011836
0.090250
0.090334
0.094623
0.087962
0.088841
0.003898
0.070438
0.043472
0.023279
0.097315
0.018456
0.014429
0.003129
0.009016
0.005696
0.087689
0.085499
0.084535
0.084582
0.085193
0.002150
0.083951
0.085054
0.093555
0.086321
0.094788
0.089292
0.103358
0.110191
0.094285
0.092487
0.090808
0.086447
0.107528
0.101502
0.096704
0.097053
0.095448
0.095515
0.095981
0.017275
0.005738
0.099540
0.095456
0.094917
0.090631
0.102550
0.086405
0.083439
0.088462
0.006866
0.082916
0.043141
0.004725
0.039391
0.092135
0.003573
0.006554
0.080736
0.010530
0.071288
0.003331
0.089964
0.021829
0.084859
0.085104
0.099691
0.005868
0.094272
0.006786
0.091713
0.054685
0.092300
0.091530
0.004530
0.091158
0.090711
0.088125
0.032266
0.089337
0.004365
0.089557
0.082273
0.090516
0.025110
0.087125
0.051304
0.066730
0.094130
0.003913
0.095262
0.016913
0.012768
0.007218
0.007985
0.090152
0.089787
0.006389
0.006383
0.088850
0.006954
0.087667
0.084139
0.082351
0.085607
0.093203
0.088509
0.084833
0.015925
0.101735
0.084702
0.102192
0.095089
0.085492
0.002421
0.087706
0.088337
0.100780
0.058581
0.110993
0.087563
0.107899
0.098630
0.089547
0.098195
0.094791
0.095679
0.094285
0.018895
0.014648
0.092842
0.093848
0.089188
0.100000
0.094838
0.094745
0.094347
0.103078
0.009378
0.008830
0.077153
0.006232
0.085493
0.086223
0.087205
0.024423
0.036875
0.088145
0.090041
0.003302
0.087403
0.090718
0.082988
0.093521
0.093688
0.084795
0.087658
0.008010
0.020110
0.006510
0.095830
0.089848
0.065798
0.010645
0.004705
0.007137
0.018479
0.085897
0.083448
0.003570
0.008463
0.038685
0.085446
0.093008
0.084513
0.067125
0.078443
0.085278
0.097062
0.088903
0.094895
0.087348
0.013509
0.006661
0.087775
0.081627
0.048824
0.087343
0.086703
0.006543
0.058611
0.092394
0.080022
0.094339
0.015629
0.076579
0.007203
0.004362
0.045521
0.082336
0.026997
0.011568
0.088267
0.089657
0.088719
0.029208
0.084161
0.005238
0.083710
0.084989
0.084536
0.003686
0.097630
0.089197
0.114715
0.083956
0.095624
0.092765
0.086301
0.086873
0.094213
0.097093
0.088362
0.090984
0.091565
0.003208
0.093095
0.092961
0.087163
0.092286
0.084382
0.097239
0.093259
0.084907
0.082813
0.087024
0.047816
0.083047
0.004905
0.084576
0.015639
0.062589
0.009869
0.083874
0.004463
0.075248
0.092307
0.006087
0.084224
0.087267
0.091355
0.086308
0.080946
0.003166
0.027873
0.025315
0.006436
0.007951
0.085733
0.090148
0.004517
0.083614
0.088168
0.092817
0.091376
0.084307
0.094859
0.092166
0.042983
0.009670
0.031293
0.076268
0.009474
0.009978
0.086028
0.008811
0.018945
0.003930
0.090928
0.072766
0.083738
0.076902
0.075421
0.014531
0.034046
0.009585
0.009417
0.088030
0.037532
0.086509
0.091959
0.056604
0.073917
0.093985
0.084636
0.083729
0.089931
0.087031
0.092991
0.084026
0.086643
0.093453
0.093128
0.021470
0.009178
0.090356
0.097762
0.084054
0.097041
0.082947
0.083132
0.088218
0.006824
0.006506
0.089739
0.083435
0.093079
0.087447
0.083128
0.092723
0.013530
0.094547
0.079949
0.091623
0.085938
0.060794
0.090140
0.083566
0.092951
0.092514
0.085273
0.084256
0.011683
0.072138
0.007513
0.080690
0.027094
0.013210
0.061542
0.041445
0.012894
0.004256
0.085086
0.083228
0.010258
0.053888
0.079702
0.082401
0.005237
0.070336
0.079672
0.012311
0.082541
0.086518
0.005527
0.091034
0.088755
0.082789
0.085173
0.084518
0.081673
0.084395
0.090238
0.086417
0.084853
0.087283
0.050222
0.083024
0.032101
0.093287
0.029158
0.069697
0.009566
0.093296
0.074101
0.009641
0.002160
0.006341
0.006640
0.085688
0.008102
0.090076
0.007352
0.094433
0.013470
0.017744
0.042127
0.020554
0.005020
0.023720
0.011133
0.090414
0.091476
0.092274
0.092015
0.078977
0.086700
0.087791
0.083189
0.071120
0.009545
0.084792
0.083525
0.004446
0.091934
0.087557
0.059738
0.091278
0.090685
0.083631
0.085483
0.084803
0.092741
0.085814
0.007315
0.090759
0.085769
0.091942
0.011752
0.093579
0.091499
0.085822
0.004955
0.087750
0.084612
0.092255
0.093317
0.013496
0.006266
0.017907
0.005634
0.007879
0.042563
0.004216
0.004877
0.082677
0.027740
0.084890
0.087881
0.008960
0.089251
0.067611
0.059511
0.089268
0.012216
0.006095
0.073383
0.007955
0.017631
0.010319
0.012426
0.085038
0.089009
0.090207
0.082708
0.089329
0.012937
0.083371
0.084966
0.090926
0.090669
0.082786
0.031865
0.079770
0.003161
0.067621
0.082974
0.071404
0.069048
0.074622
0.035649
0.085771
0.082569
0.083054
0.082115
0.011989
0.089775
0.005283
0.012960
0.005776
0.091352
0.023473
0.048115
0.065155
0.082430
0.014982
0.011398
0.004690
0.055628
0.086280
0.011169
0.085469
0.087398
0.089824
0.089150
0.082784
0.078621
0.084020
0.083456
0.082820
0.083692
0.083522
0.012106
0.082488
0.084932
0.065092
0.087664
0.090603
0.090553
0.084159
0.093112
0.092016
0.000877
0.086860
0.081447
0.090146
0.008080
0.091431
0.048141
0.083217
0.006791
0.091790
0.081548
0.014772
0.015440
0.067061
0.078466
0.081966
0.023674
0.046619
0.006783
0.081558
0.043289
0.066394
0.004757
0.083028
0.005103
0.004075
0.086381
0.085248
0.081742
0.003638
0.012619
0.089599
0.090020
0.016175
0.075403
0.074140
0.064836
0.007927
0.083157
0.082111
0.081632
0.078177
0.082712
0.038307
0.002246
0.083927
0.004154
0.063311
0.008705
0.090370
0.020246
0.014023
0.088272
0.090668
0.015695
0.088645
0.022868
0.088972
0.083449
0.005569
0.009342
0.088902
0.006412
0.085336
0.007176
0.009445
0.012311
0.084354
0.053470
0.016439
0.060903
0.086809
0.016108
0.089687
0.087577
0.040340
0.084973
0.082092
0.082694
0.082152
0.084904
0.082582
0.082103
0.084682
0.083103
0.053571
0.087311
0.077484
0.083764
0.089570
0.009512
0.082835
0.089576
0.089606
0.033716
0.006356
0.072578
0.062413
0.068636
0.083118
0.015070
0.064353
0.074437
0.020852
0.045407
0.007405
0.009310
0.058893
0.005995
0.059654
0.003609
0.070701
0.081099
0.083163
0.086085
0.010651
0.085772
0.032426
0.089206
0.082084
0.081842
0.015328
0.081925
0.009607
0.087827
0.038839
0.008305
0.081375
0.084014
0.011876
0.005594
0.076639
0.026238
0.077919
0.081956
0.081769
0.081364
0.082349
0.069755
0.014381
0.010503
0.018861
0.089315
0.006939
0.006204
0.013740
0.083292
0.015113
0.020531
0.075008
0.066073
0.003098
0.057755
0.082734
0.082999
0.016424
0.047871
0.088591
0.088493
0.002803
0.085293
0.082860
0.084724
0.081176
0.008825
0.089568
0.081795
0.083108
0.087032
0.081245
0.087881
0.081920
0.081794
0.081779
0.085182
0.001972
0.084420
0.077364
0.038543
0.089030
0.017648
0.088170
0.058542
0.075492
0.081423
0.001351
0.081487
0.082246
0.089226
0.083583
0.051589
0.006756
0.005003
0.089390
0.007939
0.080677
0.079828
0.016818
0.039204
0.065494
0.043460
0.010562
0.074521
0.056929
0.080400
0.008107
0.007772
0.004561
0.087885
0.006792
0.054766
0.081018
0.005789
0.004937
0.086064
0.071841
0.081996
0.018253
0.080951
0.070012
0.002820
0.019178
0.075462
0.011640
0.012921
0.085633
0.014338
0.080811
0.080044
0.082013
0.080589
0.080870
0.036518
0.026965
0.016014
0.080358
0.001688
0.064515
0.010940
0.023384
0.062800
0.082241
0.080315
0.080182
0.053108
0.010956
0.017295
0.081244
0.009679
0.015797
0.004097
0.020056
0.043122
0.007673
0.020315
0.073810
0.088355
0.086907
0.084407
0.083107
0.002498
0.080771
0.088772
0.088457
0.088000
0.086879
0.080934
0.006630
0.081045
0.015607
0.080286
0.081536
0.034477
0.081713
0.007813
0.080510
0.081095
0.081241
0.088615
0.011301
0.080079
0.072990
0.081162
0.006633
0.029711
0.002239
0.006647
0.087138
0.000502
0.007747
0.079351
0.083374
0.087109
0.087195
0.081346
0.049830
0.003796
0.060441
0.082049
0.071605
0.087451
0.088973
0.001443
0.079622
0.019801
0.017724
0.061829
0.039116
0.041534
0.070551
0.020739
0.011339
0.008979
0.011265
0.078592
0.054108
0.022359
0.055977
0.003644
0.079430
0.068047
0.079878
0.004765
0.026077
0.080491
0.013874
0.015543
0.009270
0.001595
0.002092
0.011645
0.077579
0.018554
0.018351
0.008360
0.060210
0.057532
0.012854
0.068239
0.003495
0.081360
0.047457
0.086940
0.084677
0.018172
0.080661
0.035417
0.085703
0.079853
0.080583
0.079971
0.071005
0.012894
0.009843
0.031461
0.020496
0.005501
0.052326
0.069804
0.087954
0.081558
0.079547
0.087963
0.079633
0.079504
0.080451
0.083816
0.071575
0.014317
0.079734
0.079663
0.002262
0.085916
0.079876
0.080649
0.077807
0.087593
0.086528
0.079736
0.078146
0.079554
0.062929
0.007148
0.015974
0.016508
0.088247
0.084218
0.086323
0.081395
0.006534
0.034800
0.080824
0.048026
0.085737
0.028697
0.087163
0.006285
0.088299
0.005734
0.065993
0.082145
0.085651
0.007570
0.025002
0.009181
0.002702
0.077998
0.079957
0.020355
0.014653
0.058236
0.084301
0.067578
0.046368
0.010737
0.008605
0.008498
0.075057
0.007638
0.064483
0.052225
0.035953
0.006375
0.078621
0.062427
0.024394
0.002095
0.078154
0.021861
0.013960
0.080646
0.022713
0.002396
0.028907
0.018523
0.019268
0.023636
0.047180
0.084178
0.009400
0.082060
0.056135
0.076145
0.013190
0.066664
0.012501
0.043026
0.078923
0.011103
0.020467
0.013019
0.004436
0.016979
0.012641
0.023599
0.077311
0.082112
0.078846
0.079165
0.036740
0.071789
0.004134
0.074480
0.078932
0.085387
0.083139
0.008771
0.086352
0.085515
0.017272
0.031892
0.079303
0.079441
0.079690
0.079107
0.013521
0.077737
0.071219
0.078918
0.085636
0.087496
0.018642
0.079656
0.078496
0.074578
0.053708
0.086661
0.087202
0.007344
0.062047
0.005753
0.053281
0.078889
0.050137
0.077113
0.031138
0.087523
0.077813
0.001550
0.085098
0.079826
0.083058
0.081083
0.083408
0.009235
0.086043
0.077224
0.005348
0.085119
0.087735
0.005339
0.086052
0.082772
0.022803
0.082865
0.038993
0.054619
0.022197
0.064651
0.071821
0.010234
0.012159
0.013951
0.051059
0.005429
0.032439
0.079154
0.016309
0.050443
0.003681
0.003544
0.080505
0.078258
0.007959
0.005359
0.069222
0.002154
0.078610
0.068329
0.005907
0.010334
0.077382
0.078399
0.002341
0.062537
0.080809
0.032446
0.008382
0.008641
0.042926
0.021495
0.013120
0.070968
0.085033
0.011074
0.073973
0.059097
0.025935
0.014923
0.084547
0.074370
0.081621
0.021540
0.012455
0.021738
0.083940
0.048256
0.013631
0.082959
0.078612
0.004768
0.078144
0.077770
0.015447
0.018636
0.015575
0.001574
0.026486
0.041336
0.028686
0.020814
0.081886
0.081305
0.007968
0.085132
0.086182
0.077923
0.077672
0.002916
0.078449
0.079358
0.087034
0.084197
0.086944
0.079013
0.084928
0.079194
0.023831
0.029024
0.004558
0.086674
0.012162
0.085257
0.078200
0.018887
0.006332
0.080468
0.086440
0.077846
0.084505
0.046514
0.074209
0.007115
0.084779
0.085684
0.014444
0.087059
0.080168
0.019937
0.078828
0.076118
0.081370
0.022589
0.024804
0.016829
0.038869
0.084672
0.059435
0.080617
0.078399
0.069488
0.013981
0.076324
0.011156
0.077116
0.010494
0.009327
0.071180
0.075008
0.077515
0.029064
0.004302
0.006890
0.076002
0.046731
0.002579
0.002829
0.076416
0.005205
0.023492
0.005843
0.078439
0.028585
0.035996
0.076525
0.001113
0.006094
0.023382
0.081138
0.077953
0.083836
0.081580
0.074660
0.022146
0.012744
0.014266
0.025142
0.026211
0.035246
0.009739
0.017214
0.017354
0.045793
0.084269
0.083702
0.020406
0.077441
0.008281
0.085933
0.075825
0.068880
0.010286
0.070204
0.081075
0.080232
0.085278
0.086248
0.077697
0.027328
0.083440
0.077036
0.082783
0.016778
0.006272
0.072935
0.082147
0.007901
0.007632
0.050281
0.084164
0.086520
0.065845
0.044246
0.008611
0.001859
0.015574
0.077418
0.019135
0.083307
0.003661
0.002946
0.079687
0.007760
0.015057
0.081570
0.084272
0.085238
0.079739
0.066744
0.001628
0.086243
0.028914
0.055931
0.065739
0.002755
0.011669
0.026483
0.024310
0.074138
0.025918
0.079679
0.018862
0.029308
0.052826
0.026444
0.047047
0.015018
0.063118
0.069450
0.084212
0.018855
0.012978
0.049752
0.012933
0.079124
0.083888
0.021861
0.075648
0.005355
0.009227
0.011197
0.008472
0.076199
0.002123
0.008131
0.030498
0.078014
0.004220
0.006376
0.077925
0.003543
0.010041
0.069843
0.002339
0.001298
0.081725
0.076042
0.011504
0.024879
0.066259
0.056413
0.083435
0.067320
0.059618
0.015412
0.078862
0.020551
0.032024
0.082619
0.078420
0.076965
0.004796
0.075895
0.000859
0.023121
0.016360
0.009471
0.081309
0.076522
0.025262
0.040812
0.079718
0.011352
0.075245
0.031490
0.009537
0.024355
0.075442
0.075115
0.085877
0.062893
0.033412
0.083173
0.071629
0.070539
0.078353
0.084288
0.077446
0.085233
0.077536
0.003078
0.080366
0.006871
0.084003
0.008562
0.075521
0.053422
0.066263
0.084413
0.076505
0.084917
0.082535
0.015516
0.003640
0.043926
0.024546
0.077729
0.008588
0.036205
0.017302
0.031849
0.006852
0.078076
0.086001
0.084744
0.080091
0.081153
0.007422
0.010276
0.082291
0.007668
0.072201
0.001329
0.067166
0.040998
0.018144
0.079781
0.008456
0.084840
0.074146
0.025224
0.044082
0.053612
0.018933
0.067464
0.013862
0.079838
0.011637
0.079882
0.010142
0.062355
0.067800
0.020722
0.009282
0.082421
0.024203
0.082348
0.075640
0.032898
0.003115
0.054455
0.078563
0.008963
0.018444
0.076728
0.076305
0.026484
0.007295
0.074387
0.051621
0.000833
0.084626
0.012702
0.008639
0.004121
0.083709
0.002483
0.006214
0.016835
0.016390
0.001089
0.005339
0.072965
0.073682
0.071745
0.007811
0.030046
0.034610
0.028429
0.028831
0.080964
0.066473
0.046860
0.083287
0.075550
0.025322
0.002860
0.056748
0.076170
0.030014
0.078611
0.008927
0.035924
0.005928
0.010553
0.040893
0.009586
0.022437
0.001437
0.001804
0.036857
0.078954