# vtk DataFile Version 2.0
Test
ASCII
DATASET POLYDATA
POINTS 26238 float
0.000000 0.000000 0.000000
2.000000 0.000000 0.000000
2.000000 4.000000 0.000000
0.000000 4.000000 0.000000
0.000000 0.500000 0.000000
1.500000 2.000000 0.000000
2.000000 2.500000 0.000000
0.100000 0.000000 0.000000
0.200000 0.000000 0.000000
0.300000 0.000000 0.000000
0.400000 0.000000 0.000000
0.500000 0.000000 0.000000
0.600000 0.000000 0.000000
0.700000 0.000000 0.000000
0.800000 0.000000 0.000000
0.900000 0.000000 0.000000
1.000000 0.000000 0.000000
1.100000 0.000000 0.000000
1.200000 0.000000 0.000000
1.300000 0.000000 0.000000
1.400000 0.000000 0.000000
1.500000 0.000000 0.000000
1.600000 0.000000 0.000000
1.700000 0.000000 0.000000
1.800000 0.000000 0.000000
1.900000 0.000000 0.000000
2.000000 0.097923 0.000000
2.000000 0.192202 0.000000
2.000000 0.282973 0.000000
2.000000 0.370366 0.000000
2.000000 0.454507 0.000000
2.000000 0.535518 0.000000
2.000000 0.613513 0.000000
2.000000 0.688607 0.000000
2.000000 0.760906 0.000000
2.000000 0.830515 0.000000
2.000000 0.897534 0.000000
2.000000 0.962059 0.000000
2.000000 1.024183 0.000000
2.000000 1.083995 0.000000
2.000000 1.141582 0.000000
2.000000 1.197026 0.000000
2.000000 1.250406 0.000000
2.000000 1.301801 0.000000
2.000000 1.351283 0.000000
2.000000 1.398923 0.000000
2.000000 1.444791 0.000000
2.000000 1.488953 0.000000
2.000000 1.531470 0.000000
2.000000 1.572406 0.000000
2.000000 1.611819 0.000000
2.000000 1.649765 0.000000
2.000000 1.686299 0.000000
2.000000 1.721473 0.000000
2.000000 1.755339 0.000000
2.000000 1.787944 0.000000
2.000000 1.819337 0.000000
2.000000 1.849561 0.000000
2.000000 1.878660 0.000000
2.000000 1.906677 0.000000
2.000000 1.933651 0.000000
2.000000 1.959621 0.000000
2.000000 1.984625 0.000000
2.000000 2.008699 0.000000
2.000000 2.031877 0.000000
2.000000 2.054192 0.000000
2.000000 2.075677 0.000000
2.000000 2.096362 0.000000
2.000000 2.116278 0.000000
2.000000 2.135453 0.000000
2.000000 2.153914 0.000000
2.000000 2.171688 0.000000
2.000000 2.188801 0.000000
2.000000 2.205277 0.000000
2.000000 2.221140 0.000000
2.000000 2.236413 0.000000
2.000000 2.251117 0.000000
2.000000 2.265274 0.000000
2.000000 2.278905 0.000000
2.000000 2.292028 0.000000
2.000000 2.304663 0.000000
2.000000 2.316828 0.000000
2.000000 2.328540 0.000000
2.000000 2.339816 0.000000
2.000000 2.350673 0.000000
2.000000 2.361126 0.000000
2.000000 2.371189 0.000000
2.000000 2.380879 0.000000
2.000000 2.390207 0.000000
2.000000 2.399189 0.000000
2.000000 2.407836 0.000000
2.000000 2.416162 0.000000
2.000000 2.424178 0.000000
2.000000 2.431895 0.000000
2.000000 2.439326 0.000000
2.000000 2.446480 0.000000
2.000000 2.453367 0.000000
2.000000 2.459999 0.000000
2.000000 2.466383 0.000000
2.000000 2.472530 0.000000
2.000000 2.478449 0.000000
2.000000 2.484147 0.000000
2.000000 2.489633 0.000000
2.000000 2.494915 0.000000
2.000000 2.505084 0.000000
2.000000 2.510496 0.000000
2.000000 2.516256 0.000000
2.000000 2.522387 0.000000
2.000000 2.528913 0.000000
2.000000 2.535859 0.000000
2.000000 2.543253 0.000000
2.000000 2.551122 0.000000
2.000000 2.559499 0.000000
2.000000 2.568415 0.000000
2.000000 2.577905 0.000000
2.000000 2.588006 0.000000
2.000000 2.598758 0.000000
2.000000 2.610202 0.000000
2.000000 2.622383 0.000000
2.000000 2.635349 0.000000
2.000000 2.649149 0.000000
2.000000 2.663839 0.000000
2.000000 2.679474 0.000000
2.000000 2.696116 0.000000
2.000000 2.713831 0.000000
2.000000 2.732685 0.000000
2.000000 2.752754 0.000000
2.000000 2.774116 0.000000
2.000000 2.796853 0.000000
2.000000 2.821055 0.000000
2.000000 2.846815 0.000000
2.000000 2.874234 0.000000
2.000000 2.903419 0.000000
2.000000 2.934483 0.000000
2.000000 2.967548 0.000000
2.000000 3.002742 0.000000
2.000000 3.040202 0.000000
2.000000 3.080076 0.000000
2.000000 3.122517 0.000000
2.000000 3.167691 0.000000
2.000000 3.215774 0.000000
2.000000 3.266954 0.000000
2.000000 3.321430 0.000000
2.000000 3.379414 0.000000
2.000000 3.441132 0.000000
2.000000 3.506825 0.000000
2.000000 3.576749 0.000000
2.000000 3.651175 0.000000
2.000000 3.730395 0.000000
2.000000 3.814717 0.000000
2.000000 3.904468 0.000000
1.900000 4.000000 0.000000
1.800000 4.000000 0.000000
1.700000 4.000000 0.000000
1.600000 4.000000 0.000000
1.500000 4.000000 0.000000
1.400000 4.000000 0.000000
1.300000 4.000000 0.000000
1.200000 4.000000 0.000000
1.100000 4.000000 0.000000
1.000000 4.000000 0.000000
0.900000 4.000000 0.000000
0.800000 4.000000 0.000000
0.700000 4.000000 0.000000
0.600000 4.000000 0.000000
0.500000 4.000000 0.000000
0.400000 4.000000 0.000000
0.300000 4.000000 0.000000
0.200000 4.000000 0.000000
0.100000 4.000000 0.000000
0.000000 3.901898 0.000000
0.000000 3.806409 0.000000
0.000000 3.713462 0.000000
0.000000 3.622990 0.000000
0.000000 3.534927 0.000000
0.000000 3.449209 0.000000
0.000000 3.365773 0.000000
0.000000 3.284559 0.000000
0.000000 3.205508 0.000000
0.000000 3.128561 0.000000
0.000000 3.053664 0.000000
0.000000 2.980761 0.000000
0.000000 2.909799 0.000000
0.000000 2.840727 0.000000
0.000000 2.773493 0.000000
0.000000 2.708051 0.000000
0.000000 2.644350 0.000000
0.000000 2.582346 0.000000
0.000000 2.521993 0.000000
0.000000 2.463247 0.000000
0.000000 2.406065 0.000000
0.000000 2.350406 0.000000
0.000000 2.296229 0.000000
0.000000 2.243495 0.000000
0.000000 2.192165 0.000000
0.000000 2.142201 0.000000
0.000000 2.093568 0.000000
0.000000 2.046230 0.000000
0.000000 2.000153 0.000000
0.000000 1.955302 0.000000
0.000000 1.911646 0.000000
0.000000 1.869152 0.000000
0.000000 1.827789 0.000000
0.000000 1.787528 0.000000
0.000000 1.748339 0.000000
0.000000 1.710194 0.000000
0.000000 1.673064 0.000000
0.000000 1.636923 0.000000
0.000000 1.601745 0.000000
0.000000 1.567503 0.000000
0.000000 1.534172 0.000000
0.000000 1.501730 0.000000
0.000000 1.470151 0.000000
0.000000 1.439413 0.000000
0.000000 1.409494 0.000000
0.000000 1.380371 0.000000
0.000000 1.352024 0.000000
0.000000 1.324431 0.000000
0.000000 1.297573 0.000000
0.000000 1.271431 0.000000
0.000000 1.245984 0.000000
0.000000 1.221215 0.000000
0.000000 1.197106 0.000000
0.000000 1.173639 0.000000
0.000000 1.150796 0.000000
0.000000 1.128562 0.000000
0.000000 1.106920 0.000000
0.000000 1.085854 0.000000
0.000000 1.065349 0.000000
0.000000 1.045390 0.000000
0.000000 1.025962 0.000000
0.000000 1.007052 0.000000
0.000000 0.988645 0.000000
0.000000 0.970729 0.000000
0.000000 0.953289 0.000000
0.000000 0.936314 0.000000
0.000000 0.919791 0.000000
0.000000 0.903708 0.000000
0.000000 0.888053 0.000000
0.000000 0.872815 0.000000
0.000000 0.857983 0.000000
0.000000 0.843545 0.000000
0.000000 0.829492 0.000000
0.000000 0.815814 0.000000
0.000000 0.802499 0.000000
0.000000 0.789539 0.000000
0.000000 0.776925 0.000000
0.000000 0.764646 0.000000
0.000000 0.752694 0.000000
0.000000 0.741060 0.000000
0.000000 0.729736 0.000000
0.000000 0.718714 0.000000
0.000000 0.707985 0.000000
0.000000 0.697541 0.000000
0.000000 0.687376 0.000000
0.000000 0.677482 0.000000
0.000000 0.667851 0.000000
0.000000 0.658476 0.000000
0.000000 0.649351 0.000000
0.000000 0.640469 0.000000
0.000000 0.631824 0.000000
0.000000 0.623409 0.000000
0.000000 0.615217 0.000000
0.000000 0.607244 0.000000
0.000000 0.599484 0.000000
0.000000 0.591929 0.000000
0.000000 0.584577 0.000000
0.000000 0.577419 0.000000
0.000000 0.570453 0.000000
0.000000 0.563672 0.000000
0.000000 0.557071 0.000000
0.000000 0.550646 0.000000
0.000000 0.544393 0.000000
0.000000 0.538306 0.000000
0.000000 0.532380 0.000000
0.000000 0.526613 0.000000
0.000000 0.520999 0.000000
0.000000 0.515535 0.000000
0.000000 0.510216 0.000000
0.000000 0.505039 0.000000
0.000000 0.494581 0.000000
0.000000 0.488047 0.000000
0.000000 0.480167 0.000000
0.000000 0.470665 0.000000
0.000000 0.459206 0.000000
0.000000 0.445387 0.000000
0.000000 0.428723 0.000000
0.000000 0.408628 0.000000
0.000000 0.384395 0.000000
0.000000 0.355172 0.000000
0.000000 0.319933 0.000000
0.000000 0.277436 0.000000
0.000000 0.226190 0.000000
0.000000 0.164392 0.000000
0.000000 0.089868 0.000000
0.003529 0.503529 0.000000
0.007059 0.507059 0.000000
0.010588 0.510588 0.000000
0.014118 0.514118 0.000000
0.017647 0.517647 0.000000
0.021176 0.521176 0.000000
0.024706 0.524706 0.000000
0.028235 0.528235 0.000000
0.031765 0.531765 0.000000
0.035294 0.535294 0.000000
0.038824 0.538824 0.000000
0.042353 0.542353 0.000000
0.045882 0.545882 0.000000
0.049412 0.549412 0.000000
0.052941 0.552941 0.000000
0.056471 0.556471 0.000000
0.060000 0.560000 0.000000
0.063529 0.563529 0.000000
0.067059 0.567059 0.000000
0.070588 0.570588 0.000000
0.074118 0.574118 0.000000
0.077647 0.577647 0.000000
0.081176 0.581176 0.000000
0.084706 0.584706 0.000000
0.088235 0.588235 0.000000
0.091765 0.591765 0.000000
0.095294 0.595294 0.000000
0.098824 0.598824 0.000000
0.102353 0.602353 0.000000
0.105882 0.605882 0.000000
0.109412 0.609412 0.000000
0.112941 0.612941 0.000000
0.116471 0.616471 0.000000
0.120000 0.620000 0.000000
0.123529 0.623529 0.000000
0.127059 0.627059 0.000000
0.130588 0.630588 0.000000
0.134118 0.634118 0.000000
0.137647 0.637647 0.000000
0.141176 0.641176 0.000000
0.144706 0.644706 0.000000
0.148235 0.648235 0.000000
0.151765 0.651765 0.000000
0.155294 0.655294 0.000000
0.158824 0.658824 0.000000
0.162353 0.662353 0.000000
0.165882 0.665882 0.000000
0.169412 0.669412 0.000000
0.172941 0.672941 0.000000
0.176471 0.676471 0.000000
0.180000 0.680000 0.000000
0.183529 0.683529 0.000000
0.187059 0.687059 0.000000
0.190588 0.690588 0.000000
0.194118 0.694118 0.000000
0.197647 0.697647 0.000000
0.201176 0.701176 0.000000
0.204706 0.704706 0.000000
0.208235 0.708235 0.000000
0.211765 0.711765 0.000000
0.215294 0.715294 0.000000
0.218824 0.718824 0.000000
0.222353 0.722353 0.000000
0.225882 0.725882 0.000000
0.229412 0.729412 0.000000
0.232941 0.732941 0.000000
0.236471 0.736471 0.000000
0.240000 0.740000 0.000000
0.243529 0.743529 0.000000
0.247059 0.747059 0.000000
0.250588 0.750588 0.000000
0.254118 0.754118 0.000000
[...]
POINT_DATA 26238
SCALARS UX float 1
LOOKUP_TABLE default
-0.000000
0.000000
-0.011275
-0.015763
-0.003622
-0.003009
-0.005034
-0.000000
-0.000000
-0.000000
-0.000000
-0.000000
-0.000000
-0.000000
-0.000000
-0.000000
-0.000000
0.000000
0.000000
0.000000
0.000000
0.000000
0.000000
0.000000
0.000000
0.000000
0.000730
0.001147
0.001440
0.001647
0.001800
0.001911
0.001987
0.002036
0.002065
0.002077
0.002074
0.002060
0.002034
0.001999
0.001955
0.001903
0.001845
0.001778
0.001705
0.001624
0.001536
0.001439
0.001334
0.001220
0.001097
0.000964
0.000819
0.000666
0.000502
0.000329
0.000147
-0.000044
-0.000239
-0.000442
-0.000646
-0.000853
-0.001058
-0.001262
-0.001463
-0.001659
-0.001849
-0.002033
-0.002209
-0.002379
-0.002541
-0.002694
-0.002841
-0.002979
-0.003111
-0.003236
-0.003354
-0.003466
-0.003571
-0.003671
-0.003766
-0.003856
-0.003940
-0.004021
-0.004097
-0.004169
-0.004238
-0.004303
-0.004364
-0.004423
-0.004479
-0.004532
-0.004583
-0.004631
-0.004676
-0.004720
-0.004762
-0.004802
-0.004839
-0.004876
-0.004910
-0.004943
-0.004975
-0.005005
-0.005063
-0.005093
-0.005125
-0.005159
-0.005195
-0.005232
-0.005272
-0.005314
-0.005359
-0.005405
-0.005455
-0.005507
-0.005561
-0.005619
-0.005679
-0.005743
-0.005809
-0.005880
-0.005953
-0.006031
-0.006113
-0.006198
-0.006288
-0.006382
-0.006481
-0.006585
-0.006695
-0.006810
-0.006931
-0.007058
-0.007193
-0.007334
-0.007484
-0.007642
-0.007809
-0.007986
-0.008174
-0.008373
-0.008585
-0.008810
-0.009051
-0.009308
-0.009582
-0.009875
-0.010190
-0.010528
-0.010889
-0.011510
-0.011744
-0.011977
-0.012207
-0.012433
-0.012656
-0.012874
-0.013090
-0.013303
-0.013515
-0.013728
-0.013943
-0.014159
-0.014380
-0.014603
-0.014831
-0.015061
-0.015294
-0.015528
-0.015378
-0.015002
-0.014634
-0.014273
-0.013920
-0.013575
-0.013238
-0.012909
-0.012591
-0.012282
-0.011983
-0.011696
-0.011420
-0.011156
-0.010904
-0.010664
-0.010436
-0.010223
-0.010022
-0.009834
-0.009660
-0.009499
-0.009350
-0.009214
-0.009089
-0.008976
-0.008874
-0.008783
-0.008701
-0.008628
-0.008564
-0.008506
-0.008458
-0.008414
-0.008377
-0.008346
-0.008319
-0.008296
-0.008278
-0.008263
-0.008251
-0.008241
-0.008235
-0.008229
-0.008226
-0.008225
-0.008224
-0.008225
-0.008227
-0.008230
-0.008233
-0.008237
-0.008242
-0.008247
-0.008252
-0.008257
-0.008263
-0.008268
-0.008274
-0.008280
-0.008286
-0.008291
-0.008297
-0.008302
-0.008308
-0.008313
-0.008318
-0.008323
-0.008328
-0.008332
-0.008337
-0.008340
-0.008344
-0.008347
-0.008350
-0.008353
-0.008355
-0.008357
-0.008359
-0.008359
-0.008358
-0.008356
-0.008354
-0.008350
-0.008345
-0.008340
-0.008334
-0.008327
-0.008320
-0.008313
-0.008306
-0.008299
-0.008292
-0.008283
-0.008273
-0.008261
-0.008246
-0.008232
-0.008218
-0.008206
-0.008201
-0.008184
-0.008148
-0.008076
-0.007994
-0.007800
-0.007632
-0.007323
-0.006700
-0.006010
-0.002408
-0.002164
-0.002064
-0.001989
-0.001920
-0.001857
-0.001800
-0.001744
-0.001684
-0.001616
-0.001534
-0.001424
-0.001265
-0.001039
-0.000695
-0.003495
-0.003216
-0.003988
-0.004049
-0.004077
-0.004269
-0.004302
-0.004291
-0.004247
-0.004237
-0.004362
-0.004269
-0.004272
-0.004241
-0.004260
-0.004294
-0.004230
-0.004270
-0.004258
-0.004237
-0.004208
-0.004237
-0.004260
-0.004210
-0.004274
-0.004288
-0.004336
-0.004257
-0.004260
-0.004304
-0.004286
-0.004333
-0.004349
-0.004333
-0.004425
-0.004411
-0.004425
-0.004446
-0.004459
-0.004357
-0.004477
-0.004380
-0.004453
-0.004425
-0.004471
-0.004477
-0.004569
-0.004636
-0.004585
-0.004666
-0.004689
-0.004752
-0.004774
-0.004791
-0.004740
-0.004716
-0.004653
-0.004557
-0.004644
-0.004581
-0.004634
-0.004538
-0.004558
-0.004564
-0.004565
-0.004621
-0.004905
-0.004898
-0.004895
-0.004805
-0.004828
-0.004746
-0.004714
-0.004724
-0.004665
-0.004567
-0.004677
-0.004665
-0.004669
-0.004671
-0.004637
-0.004649
-0.004646
-0.004663
-0.004644
-0.004600
-0.004670
-0.004705
-0.004686
-0.004635
-0.004642
-0.004626
-0.004618
-0.004597
-0.004597
-0.004564
-0.004548
-0.004564
-0.004555
-0.004587
-0.004547
-0.004612
-0.004583
-0.004594
-0.004586
-0.004593
-0.004619
-0.004572
-0.004523
-0.004564
-0.004478
-0.004470
-0.004409
-0.004361
-0.004350
-0.004239
-0.004266
-0.004218
-0.004622
-0.004576
-0.004588
-0.004586
-0.004507
-0.004543
-0.004508
-0.004515
-0.004432
-0.004352
-0.004462
-0.004460
-0.004430
-0.004396
-0.004378
-0.004406
-0.004352
-0.004330
-0.004392
-0.004398
-0.004364
-0.004311
-0.004301
-0.004329
-0.004346
-0.004329
-0.004389
-0.004310
-0.004322
-0.004320
-0.004352
-0.004355
-0.004316
-0.004263
-0.004244
-0.004195
-0.004201
-0.004158
-0.004176
-0.004152
-0.004129
-0.004111
-0.004113
-0.004051
-0.004034
-0.004046
-0.004034
-0.004028
-0.004029
-0.004016
-0.003978
-0.003961
-0.003920
-0.003961
-0.003945
-0.003904
-0.003941
-0.003921
-0.003902
-0.003906
-0.003881
-0.003901
-0.003828
-0.003870
-0.003806
-0.003788
-0.003789
-0.003788
-0.003759
-0.003697
-0.003726
-0.003701
-0.003695
-0.003694
-0.003678
-0.003698
-0.003692
-0.003675
-0.003668
-0.003725
-0.003753
-0.003732
-0.003720
-0.003763
-0.003782
-0.003786
-0.003727
-0.003838
-0.003776
-0.003807
-0.003808
-0.003784
-0.003793
-0.003777
-0.003783
-0.003793
-0.003770
-0.003794
-0.003755
-0.003724
-0.003759
-0.003757
-0.003711
-0.003733
-0.003731
-0.003688
-0.003717
-0.003673
-0.003667
-0.003616
-0.003646
-0.003622
-0.003676
-0.003661
-0.003669
-0.003582
-0.003626
-0.003574
-0.003543
-0.003478
-0.003539
-0.003580
-0.003587
-0.003606
-0.003568
-0.003544
-0.003558
-0.003484
-0.003471
-0.003470
-0.003474
-0.003458
-0.003436
-0.003433
-0.003427
-0.003405
-0.003399
-0.003393
-0.003418
-0.003360
-0.003373
-0.003293
-0.003298
-0.003327
-0.003347
-0.003337
-0.003279
-0.003261
-0.003366
-0.003363
-0.003375
-0.003374
-0.003377
-0.003344
-0.003396
-0.003442
-0.003369
-0.003397
-0.003388
-0.003345
-0.003355
-0.003366
-0.003380
-0.003425
-0.003434
-0.003447
-0.003392
-0.003367
-0.003432
-0.003393
-0.003405
-0.003474
-0.003472
-0.003388
-0.003394
-0.003359
-0.003418
-0.003355
-0.003321
-0.003346
-0.003371
-0.003362
-0.003359
-0.003314
-0.003305
-0.003326
-0.003306
-0.003309
-0.003281
-0.003232
-0.003292
-0.003244
-0.003248
-0.003232
-0.003254
-0.003205
-0.003249
-0.003244
-0.003218
-0.003204
-0.003177
-0.003138
-0.003133
-0.003098
-0.003088
-0.003048
-0.003075
-0.003120
-0.003123
-0.003089
-0.003070
-0.003126
-0.003127
-0.003122
-0.003080
-0.003110
-0.003104
-0.003102
-0.003135
-0.003127
-0.003134
-0.003137
-0.003162
-0.003174
-0.003147
-0.003126
-0.003088
-0.003032
-0.003003
-0.002990
-0.002988
-0.002939
-0.002969
-0.002909
-0.002961
-0.002947
-0.002899
-0.002910
-0.002902
-0.002898
-0.002894
-0.002911
-0.002938
-0.002988
-0.003054
-0.003042
-0.003054
-0.003073
-0.003036
-0.003052
-0.003070
-0.003053
-0.003042
-0.003025
-0.003041
-0.003059
-0.003067
-0.003063
-0.003075
-0.003068
-0.003069
-0.003066
-0.003066
-0.003094
-0.003106
-0.003083
-0.003089
-0.003093
-0.003088
-0.003062
-0.003028
-0.003080
-0.003047
-0.003032
-0.003068
-0.003018
-0.003116
-0.003119
-0.003198
-0.003180
-0.003196
-0.003172
-0.003176
-0.003156
-0.003150
-0.003144
-0.003140
-0.003147
-0.003139
-0.003151
-0.003143
-0.003126
-0.003134
-0.003141
-0.003150
-0.003155
-0.003134
-0.003122
-0.003118
-0.003111
-0.003106
-0.003103
-0.003095
-0.003086
-0.003065
-0.003043
-0.002998
-0.003025
-0.003055
-0.003086
-0.003115
-0.003142
-0.003168
-0.003194
-0.003219
-0.003243
-0.003265
-0.003286
-0.003307
-0.003327
-0.003346
-0.003365
-0.003383
-0.003401
-0.003419
-0.003436
-0.003453
-0.003469
-0.003486
-0.003504
-0.003521
-0.003538
-0.003554
-0.003570
-0.003585
-0.003601
-0.003616
-0.003631
-0.003646
-0.003661
-0.003675
-0.003690
-0.003704
-0.003718
-0.003733
-0.003747
-0.003761
-0.003775
-0.003789
-0.003804
-0.003818
-0.003832
-0.003846
-0.003860
-0.003874
-0.003888
-0.003902
-0.003916
-0.003930
-0.003944
-0.003958
-0.003972
-0.003986
-0.004001
-0.004015
-0.004029
-0.004043
-0.004057
-0.004071
-0.004085
-0.004099
-0.004113
-0.004127
-0.004141
-0.004156
-0.004170
-0.004184
-0.004198
-0.004212
-0.004226
-0.004240
-0.004254
-0.004268
-0.004282
-0.004296
-0.004310
-0.004324
-0.004338
-0.004352
-0.004365
-0.004379
-0.004393
-0.004407
-0.004420
-0.004434
-0.004447
-0.004461
-0.004474
-0.004488
-0.004501
-0.004514
-0.004528
-0.004541
-0.004554
-0.004567
-0.004580
-0.004593
-0.004606
-0.004618
-0.004631
-0.004643
-0.004656
-0.004668
-0.004680
-0.004693
-0.004705
-0.004717
-0.004729
-0.004740
-0.004752
-0.004764
-0.004775
-0.004786
-0.004798
-0.004809
-0.004820
-0.004831
-0.004841
-0.004852
-0.004863
-0.004873
-0.004883
-0.004894
-0.004904
-0.004914
-0.004924
-0.004933
-0.004943
-0.004953
-0.004962
-0.004972
-0.004981
-0.004990
-0.004999
-0.005008
-0.005017
-0.005025
-0.005798
-0.005848
-0.005492
-0.004591
-0.004635
-0.004610
-0.006299
-0.006278
-0.006220
-0.005987
-0.006239
-0.005407
-0.005670
-0.005362
-0.005377
-0.005356
-0.005384
-0.004498
-0.004515
-0.004466
-0.007319
-0.007316
-0.007235
-0.007214
-0.004542
-0.006804
-0.006776
-0.006887
-0.004760
-0.004744
-0.004725
-0.006799
-0.006212
-0.006096
-0.006190
-0.004716
-0.007210
-0.007176
-0.007303
-0.007058
-0.005826
-0.005890
-0.005921
-0.004418
-0.004454
-0.004417
-0.007573
-0.007593
-0.007557
-0.004545
-0.004508
-0.004524
-0.007524
-0.007501
-0.007537
-0.004504
-0.007593
-0.007580
-0.007615
-0.006801
-0.006721
-0.006719
-0.004933
-0.004984
-0.004971
-0.005027
-0.007737
-0.007773
-0.007728
-0.007771
-0.006779
-0.007617
-0.007606
-0.007563
-0.007562
-0.005952
-0.007579
-0.007560
-0.007602
-0.005502
-0.005435
-0.005452
-0.004834
-0.004881
-0.004817
-0.004815
-0.005476
-0.007336
-0.007314
-0.007105
-0.007571
-0.007565
-0.007595
-0.007593
-0.005275
-0.005335
-0.005291
-0.005335
-0.006972
-0.006993
-0.006967
-0.004701
-0.004734
-0.004739
-0.004770
-0.006747
-0.006681
-0.006765
-0.006620
-0.004738
-0.010574
-0.010818
-0.010622
-0.005032
-0.010701
-0.005493
-0.005511
-0.005472
-0.006702
-0.006743
-0.006728
-0.007410
-0.007420
-0.007436
-0.004706
-0.004670
-0.005534
-0.007020
-0.006992
-0.004381
-0.006676
-0.005983
-0.006366
-0.004585
-0.007402
-0.007398
-0.007377
-0.006058
-0.005981
-0.005984
-0.006082
-0.007379
-0.007393
-0.007408
-0.009538
-0.009335
-0.009486
-0.009395
-0.009685
-0.009484
-0.009483
-0.008565
-0.008463
-0.008380
-0.009659
-0.007040
-0.006678
-0.006413
-0.005973
-0.006925
-0.006966
-0.007075
-0.006872
-0.005131
-0.005071
-0.005111
-0.005082
-0.006004
-0.006020
-0.006000
-0.004072
-0.004048
-0.003909
-0.007573
-0.007555
-0.007581
-0.007565
-0.004392
-0.004437
-0.004456
-0.004168
-0.010238
-0.010238
-0.010426
-0.010024
-0.005464
-0.005437
-0.005452
-0.005417
-0.006543
-0.006566
-0.006559
-0.005753
-0.005858
-0.005756
-0.006581
-0.009654
-0.009467
-0.009617
-0.006475
-0.006214
-0.005266
-0.005305
-0.005323
-0.005141
-0.005171
-0.005214
-0.007956
-0.007968
-0.007941
-0.009417
-0.006752
-0.006725
-0.006748
-0.006712
-0.007239
-0.007189
-0.007217
-0.007211
-0.007749
-0.007735
-0.007721
-0.007709
-0.007754
-0.007730
-0.007780
-0.007706
-0.006589
-0.006594
-0.006626
-0.006666
-0.006676
-0.006595
-0.008332
-0.008244
-0.008186
-0.008337
-0.004899
-0.004941
-0.004897
-0.007804
-0.007780
-0.007778
-0.007760
-0.007482
-0.007447
-0.007529
-0.007467
-0.006629
-0.007252
-0.007239
-0.007271
-0.007790
-0.007817
-0.007778
-0.007818
-0.007443
-0.007474
-0.007531
-0.007352
-0.007149
-0.007159
-0.007179
-0.006605
-0.006563
-0.006598
-0.007130
-0.007079
-0.007040
-0.007102
-0.005247
-0.006461
-0.006562
-0.006536
-0.007224
-0.007618
-0.007632
-0.007661
-0.007586
-0.007298
-0.007271
-0.007304
-0.007282
-0.007403
-0.007291
-0.007449
-0.005576
-0.005593
-0.005580
-0.006993
-0.006995
-0.006969
-0.006533
-0.006476
-0.006463
-0.006520
-0.005249
-0.005289
-0.005243
-0.005276
-0.006262
-0.006232
-0.006219
-0.007929
-0.007925
-0.007888
-0.007884
-0.004954
-0.004940
-0.004974
-0.009722
-0.009685
-0.009557
-0.004944
-0.009734
-0.009879
-0.009639
-0.009941
-0.008064
-0.008054
-0.008039
-0.008024
-0.007606
-0.007593
-0.007543
-0.007569
-0.006175
-0.006137
-0.006130
-0.006468
-0.006489
-0.006516
-0.006536
-0.004600
-0.004573
-0.004570
-0.007184
-0.007159
-0.007169
-0.005573
-0.005648
-0.005570
-0.005644
-0.008092
-0.008088
-0.008073
-0.008064
-0.005867
-0.005897
-0.005853
-0.005912
-0.007897
-0.007757
-0.007821
-0.007711
-0.005736
-0.005798
-0.005736
-0.005815
-0.005393
-0.005382
-0.005439
-0.005348
-0.006916
-0.006886
-0.006947
-0.006860
-0.007377
-0.007288
-0.007327
-0.005593
-0.008397
-0.008283
-0.008444
-0.008264
-0.008694
-0.008545
-0.008520
-0.008716
-0.011904
-0.012173
-0.011788
-0.006121
-0.006182
-0.006078
-0.006927
-0.006932
-0.006909
-0.007933
-0.007920
-0.007910
-0.006080
-0.006817
-0.006868
-0.006922
-0.006786
-0.005807
-0.005737
-0.005817
-0.005720
-0.008016
-0.007966
-0.007994
-0.007951
-0.006910
-0.006407
-0.006422
-0.006433
-0.007784
-0.007897
-0.007721
-0.005585
-0.005487
-0.005528
-0.007648
-0.007700
-0.007619
-0.006495
-0.006404
-0.006453
-0.007727
-0.004404
-0.004455
-0.004437
-0.004823
-0.004787
-0.004798
-0.007470
-0.007525
-0.007440
-0.007528
-0.007173
-0.007102
-0.007064
-0.006615
-0.006658
-0.006578
-0.007184
-0.005955
-0.005887
-0.005884
-0.006648
-0.006522
-0.007079
-0.007041
-0.007083
-0.006086
-0.006077
-0.006018
-0.007070
-0.007069
-0.007097
-0.007041
-0.006077
-0.006058
-0.006074
-0.005643
-0.005713
-0.005659
-0.005647
-0.006181
-0.006166
-0.007530
-0.007516
-0.007423
-0.004922
-0.004923
-0.004968
-0.007727
-0.007686
-0.007598
-0.006431
-0.006462
-0.006517
-0.006594
-0.006118
-0.006099
-0.006180
-0.006040
-0.007113
-0.007110
-0.007146
-0.007141
-0.004942
-0.004949
-0.004995
-0.005192
-0.005157
-0.005210
-0.005161
-0.005403
-0.005361
-0.005432
-0.004995
-0.006157
-0.006192
-0.006188
-0.006068
-0.006088
-0.006075
-0.006074
-0.006094
-0.006093
-0.006123
-0.006062
-0.007263
-0.007273
-0.007287
-0.006924
-0.006901
-0.006910
-0.007153
-0.007141
-0.007036
-0.006777
-0.006831
-0.006831
-0.006886
-0.006124
-0.006088
-0.005989
-0.006887
-0.007213
-0.007227
-0.007210
-0.007401
-0.007420
-0.007405
-0.007427
-0.007225
-0.006423
-0.006443
-0.006406
-0.006469
-0.005219
-0.005149
-0.005180
-0.008242
-0.008264
-0.008256
-0.008260
-0.006284
-0.006276
-0.006311
-0.006247
-0.007598
-0.007576
-0.007609
-0.007702
-0.007641
-0.007693
-0.004889
-0.005540
-0.004822
-0.007576
-0.008170
-0.008149
-0.008166
-0.007404
-0.007382
-0.008167
-0.008113
-0.008080
-0.005436
-0.007836
-0.007887
-0.007773
-0.008013
-0.008003
-0.006032
-0.005951
-0.005963
-0.007907
-0.007760
-0.007760
-0.007787
-0.008623
-0.008507
-0.008681
-0.008522
-0.004943
-0.004950
-0.004912
-0.007482
-0.007490
-0.007507
-0.007527
-0.008095
-0.008093
-0.008018
-0.004988
-0.007937
-0.007965
-0.007885
-0.006912
-0.006899
-0.006815
-0.007122
-0.007097
-0.007812
-0.007786
-0.007765
-0.006101
-0.006084
-0.006102
-0.006408
-0.006369
-0.006391
-0.008107
-0.008020
-0.008113
-0.006083
-0.004802
-0.004826
-0.004766
-0.007277
-0.007275
-0.007179
-0.007361
-0.008046
-0.008010
-0.008137
-0.007955
-0.007888
-0.005839
-0.005873
-0.005786
-0.006335
-0.006312
-0.006320
-0.006297
-0.004815
-0.004859
-0.004808
-0.006269
-0.006241
-0.006157
-0.004865
-0.004861
-0.004857
-0.004861
-0.004835
-0.004897
-0.005319
-0.005342
-0.005344
-0.007538
-0.007520
-0.007549
-0.006747
-0.007189
-0.006377
-0.007388
-0.007521
-0.007262
-0.007287
-0.007216
-0.006992
-0.006964
-0.006955
-0.006931
-0.007826
-0.007852
-0.007835
-0.007865
-0.007927
-0.007946
-0.007937
-0.005527
-0.005524
-0.005589
-0.006470
-0.006343
-0.006333
-0.004714
-0.004710
-0.004660
-0.007510
-0.007463
-0.007517
-0.007583
-0.004642
-0.004724
-0.004769
-0.007944
-0.005367
-0.006271
-0.006272
-0.006287
-0.007016
-0.007050
-0.007082
-0.007094
-0.007260
-0.007264
-0.007202
-0.006291
-0.004867
-0.004826
-0.004859
-0.006669
-0.006654
-0.006684
-0.006682
-0.007184
-0.007369
-0.007212
-0.007599
-0.007542
-0.007535
-0.006871
-0.006903
-0.006903
-0.006722
-0.006710
-0.006680
-0.006751
-0.007764
-0.007787
-0.007791
-0.007807
-0.004757
-0.004739
-0.004773
-0.007130
-0.007078
-0.007162
-0.005239
-0.005215
-0.005240
-0.006513
-0.006491
-0.006486
-0.006459
-0.005218
-0.006691
-0.006715
-0.006723
-0.006752
-0.010218
-0.010036
-0.010446
-0.004993
-0.004940
-0.004937
-0.007654
-0.007660
-0.007681
-0.007635
-0.005493
-0.005471
-0.005482
-0.004989
-0.007703
-0.007724
-0.007704
-0.007321
-0.007364
-0.007332
-0.007337
-0.007937
-0.007887
-0.007726
-0.005459
-0.005302
-0.005332
-0.005311
-0.006262
-0.006301
-0.006331
-0.007234
-0.007223
-0.007249
-0.007237
-0.005338
-0.004963
-0.004943
-0.004937
-0.007388
-0.007446
-0.007415
-0.007482
-0.006228
-0.008074
-0.008096
-0.008055
-0.008123
-0.006844
-0.006856
-0.006834
-0.006867
-0.006837
-0.006812
-0.006811
-0.007206
-0.007154
-0.007147
-0.007235
-0.006358
-0.006408
-0.006400
-0.006459
-0.006209
-0.006163
-0.007493
-0.007472
-0.007495
-0.005858
-0.005875
-0.005895
-0.005834
-0.005923
-0.005930
-0.007534
-0.007155
-0.007106
-0.007469
-0.004975
-0.006293
-0.006346
-0.006314
-0.004606
-0.004533
-0.004786
-0.006232
-0.007716
-0.007741
-0.007748
-0.004299
-0.007765
-0.006226
-0.006161
-0.006163
-0.006295
-0.006246
-0.006344
-0.007512
-0.007489
-0.007509
-0.007160
-0.007119
-0.007136
-0.006769
-0.006851
-0.006776
-0.006228
-0.006190
-0.006228
-0.004888
-0.004846
-0.004837
-0.006844
-0.007291
-0.007309
-0.007312
-0.007332
-0.006083
-0.006182
-0.006255
-0.006177
-0.006451
-0.006420
-0.006428
-0.008078
-0.007994
-0.008038
-0.007928
-0.008085
-0.008207
-0.008250
-0.006025
-0.006005
-0.005981
-0.005962
-0.006830
-0.006851
-0.006845
-0.006045
-0.005991
-0.006007
-0.008429
-0.006479
-0.006451
-0.006487
-0.006438
-0.007688
-0.007659
-0.007673
-0.005958
-0.007948
-0.007926
-0.007913
-0.006391
-0.004716
-0.006530
-0.006545
-0.006156
-0.006789
-0.007054
-0.007056
-0.007078
-0.007087
-0.007683
-0.007718
-0.007675
-0.007722
-0.007992
-0.008026
-0.008132
-0.007869
-0.008106
-0.008004
-0.008082
-0.006638
-0.006628
-0.006604
-0.006600
-0.004766
-0.005761
-0.005780
-0.005754
-0.005777
-0.007572
-0.007611
-0.007582
-0.004643
-0.004600
-0.004611
-0.005763
-0.005839
-0.005739
-0.006614
-0.006709
-0.006684
-0.007236
-0.007193
-0.007194
-0.006807
-0.006948
-0.006944
-0.005819
-0.005559
-0.006600
-0.006638
-0.006623
-0.007629
-0.007597
-0.007613
-0.006926
-0.006923
-0.004644
-0.005457
-0.005194
-0.006439
-0.006481
-0.006426
-0.008316
-0.008434
-0.008469
-0.008597
-0.005148
-0.005099
-0.005060
-0.007250
-0.007212
-0.007213
-0.006731
-0.006752
-0.006734
-0.007581
-0.007550
-0.007595
-0.006220
-0.006228
-0.006120
-0.011581
-0.011410
-0.011214
-0.008134
-0.008027
-0.007829
-0.007808
-0.007815
-0.007794
-0.006706
-0.006725
-0.006707
-0.011143
-0.006721
-0.006753
-0.007547
-0.007597
-0.007943
-0.007956
-0.007829
-0.007625
-0.006873
-0.006154
-0.005854
-0.005847
-0.005895
-0.005879
-0.007277
-0.007292
-0.007301
-0.007550
-0.007521
-0.007535
-0.004840
-0.004810
-0.004808
-0.008858
-0.008973
-0.009127
-0.006700
-0.006735
-0.006698
-0.007289
-0.007273
-0.007265
-0.007398
-0.007370
-0.007353
-0.007342
-0.006359
-0.006392
-0.005777
-0.005792
-0.005825
-0.006299
-0.006323
-0.006330
-0.006361
-0.005912
-0.005933
-0.005937
-0.007105
-0.006878
-0.007307
-0.007675
-0.007648
-0.007623
-0.008730
-0.006751
-0.006749
-0.006841
-0.005833
-0.005796
-0.005806
-0.006672
-0.006533
-0.006635
-0.006474
-0.007781
-0.007754
-0.007773
-0.007473
-0.007442
-0.007457
-0.006972
-0.006988
-0.006993
-0.007009
-0.010798
-0.010448
-0.010696
-0.007313
-0.007242
-0.007214
-0.007143
-0.007652
-0.007692
-0.010339
-0.006769
-0.006791
-0.006764
-0.005904
-0.011094
-0.010837
-0.007416
-0.005601
-0.005561
-0.005537
-0.009886
-0.009873
-0.006810
-0.006823
-0.006838
-0.006850
-0.007712
-0.007686
-0.007700
-0.005981
-0.006018
-0.005989
-0.006354
-0.006395
-0.007580
-0.007567
-0.007587
-0.006660
-0.006667
-0.006684
-0.005485
-0.006701
-0.006651
-0.006633
-0.007262
-0.007223
-0.006621
-0.006346
-0.006382
-0.006389
-0.006418
-0.009380
-0.009451
-0.007616
-0.007598
-0.007591
-0.007434
-0.007463
-0.007449
-0.007138
-0.007117
-0.007101
-0.007180
-0.009261
-0.007239
-0.007199
-0.007746
-0.007728
-0.007730
-0.007709
-0.007408
-0.007377
-0.007391
-0.007524
-0.007442