# vtk DataFile Version 2.0
Test
ASCII
DATASET POLYDATA
POINTS 26238 float
0.000000 0.000000 0.000000
2.000000 0.000000 0.000000
2.000000 4.000000 0.000000
0.000000 4.000000 0.000000
0.000000 0.500000 0.000000
1.500000 2.000000 0.000000
2.000000 2.500000 0.000000
0.100000 0.000000 0.000000
0.200000 0.000000 0.000000
0.300000 0.000000 0.000000
0.400000 0.000000 0.000000
0.500000 0.000000 0.000000
0.600000 0.000000 0.000000
0.700000 0.000000 0.000000
0.800000 0.000000 0.000000
0.900000 0.000000 0.000000
1.000000 0.000000 0.000000
1.100000 0.000000 0.000000
1.200000 0.000000 0.000000
1.300000 0.000000 0.000000
1.400000 0.000000 0.000000
1.500000 0.000000 0.000000
1.600000 0.000000 0.000000
1.700000 0.000000 0.000000
1.800000 0.000000 0.000000
1.900000 0.000000 0.000000
2.000000 0.097923 0.000000
2.000000 0.192202 0.000000
2.000000 0.282973 0.000000
2.000000 0.370366 0.000000
2.000000 0.454507 0.000000
2.000000 0.535518 0.000000
2.000000 0.613513 0.000000
2.000000 0.688607 0.000000
2.000000 0.760906 0.000000
2.000000 0.830515 0.000000
2.000000 0.897534 0.000000
2.000000 0.962059 0.000000
2.000000 1.024183 0.000000
2.000000 1.083995 0.000000
2.000000 1.141582 0.000000
2.000000 1.197026 0.000000
2.000000 1.250406 0.000000
2.000000 1.301801 0.000000
2.000000 1.351283 0.000000
2.000000 1.398923 0.000000
2.000000 1.444791 0.000000
2.000000 1.488953 0.000000
2.000000 1.531470 0.000000
2.000000 1.572406 0.000000
2.000000 1.611819 0.000000
2.000000 1.649765 0.000000
2.000000 1.686299 0.000000
2.000000 1.721473 0.000000
2.000000 1.755339 0.000000
2.000000 1.787944 0.000000
2.000000 1.819337 0.000000
2.000000 1.849561 0.000000
2.000000 1.878660 0.000000
2.000000 1.906677 0.000000
2.000000 1.933651 0.000000
2.000000 1.959621 0.000000
2.000000 1.984625 0.000000
2.000000 2.008699 0.000000
2.000000 2.031877 0.000000
2.000000 2.054192 0.000000
2.000000 2.075677 0.000000
2.000000 2.096362 0.000000
2.000000 2.116278 0.000000
2.000000 2.135453 0.000000
2.000000 2.153914 0.000000
2.000000 2.171688 0.000000
2.000000 2.188801 0.000000
2.000000 2.205277 0.000000
2.000000 2.221140 0.000000
2.000000 2.236413 0.000000
2.000000 2.251117 0.000000
2.000000 2.265274 0.000000
2.000000 2.278905 0.000000
2.000000 2.292028 0.000000
2.000000 2.304663 0.000000
2.000000 2.316828 0.000000
2.000000 2.328540 0.000000
2.000000 2.339816 0.000000
2.000000 2.350673 0.000000
2.000000 2.361126 0.000000
2.000000 2.371189 0.000000
2.000000 2.380879 0.000000
2.000000 2.390207 0.000000
2.000000 2.399189 0.000000
2.000000 2.407836 0.000000
2.000000 2.416162 0.000000
2.000000 2.424178 0.000000
2.000000 2.431895 0.000000
2.000000 2.439326 0.000000
2.000000 2.446480 0.000000
2.000000 2.453367 0.000000
2.000000 2.459999 0.000000
2.000000 2.466383 0.000000
2.000000 2.472530 0.000000
2.000000 2.478449 0.000000
2.000000 2.484147 0.000000
2.000000 2.489633 0.000000
2.000000 2.494915 0.000000
2.000000 2.505084 0.000000
2.000000 2.510496 0.000000
2.000000 2.516256 0.000000
2.000000 2.522387 0.000000
2.000000 2.528913 0.000000
2.000000 2.535859 0.000000
2.000000 2.543253 0.000000
2.000000 2.551122 0.000000
2.000000 2.559499 0.000000
2.000000 2.568415 0.000000
2.000000 2.577905 0.000000
2.000000 2.588006 0.000000
2.000000 2.598758 0.000000
2.000000 2.610202 0.000000
2.000000 2.622383 0.000000
2.000000 2.635349 0.000000
2.000000 2.649149 0.000000
2.000000 2.663839 0.000000
2.000000 2.679474 0.000000
2.000000 2.696116 0.000000
2.000000 2.713831 0.000000
2.000000 2.732685 0.000000
2.000000 2.752754 0.000000
2.000000 2.774116 0.000000
2.000000 2.796853 0.000000
2.000000 2.821055 0.000000
2.000000 2.846815 0.000000
2.000000 2.874234 0.000000
2.000000 2.903419 0.000000
2.000000 2.934483 0.000000
2.000000 2.967548 0.000000
2.000000 3.002742 0.000000
2.000000 3.040202 0.000000
2.000000 3.080076 0.000000
2.000000 3.122517 0.000000
2.000000 3.167691 0.000000
2.000000 3.215774 0.000000
2.000000 3.266954 0.000000
2.000000 3.321430 0.000000
2.000000 3.379414 0.000000
2.000000 3.441132 0.000000
2.000000 3.506825 0.000000
2.000000 3.576749 0.000000
2.000000 3.651175 0.000000
2.000000 3.730395 0.000000
2.000000 3.814717 0.000000
2.000000 3.904468 0.000000
1.900000 4.000000 0.000000
1.800000 4.000000 0.000000
1.700000 4.000000 0.000000
1.600000 4.000000 0.000000
1.500000 4.000000 0.000000
1.400000 4.000000 0.000000
1.300000 4.000000 0.000000
1.200000 4.000000 0.000000
1.100000 4.000000 0.000000
1.000000 4.000000 0.000000
0.900000 4.000000 0.000000
0.800000 4.000000 0.000000
0.700000 4.000000 0.000000
0.600000 4.000000 0.000000
0.500000 4.000000 0.000000
0.400000 4.000000 0.000000
0.300000 4.000000 0.000000
0.200000 4.000000 0.000000
0.100000 4.000000 0.000000
0.000000 3.901898 0.000000
0.000000 3.806409 0.000000
0.000000 3.713462 0.000000
0.000000 3.622990 0.000000
0.000000 3.534927 0.000000
0.000000 3.449209 0.000000
0.000000 3.365773 0.000000
0.000000 3.284559 0.000000
0.000000 3.205508 0.000000
0.000000 3.128561 0.000000
0.000000 3.053664 0.000000
0.000000 2.980761 0.000000
0.000000 2.909799 0.000000
0.000000 2.840727 0.000000
0.000000 2.773493 0.000000
0.000000 2.708051 0.000000
0.000000 2.644350 0.000000
0.000000 2.582346 0.000000
0.000000 2.521993 0.000000
0.000000 2.463247 0.000000
0.000000 2.406065 0.000000
0.000000 2.350406 0.000000
0.000000 2.296229 0.000000
0.000000 2.243495 0.000000
0.000000 2.192165 0.000000
0.000000 2.142201 0.000000
0.000000 2.093568 0.000000
0.000000 2.046230 0.000000
0.000000 2.000153 0.000000
0.000000 1.955302 0.000000
0.000000 1.911646 0.000000
0.000000 1.869152 0.000000
0.000000 1.827789 0.000000
0.000000 1.787528 0.000000
0.000000 1.748339 0.000000
0.000000 1.710194 0.000000
0.000000 1.673064 0.000000
0.000000 1.636923 0.000000
0.000000 1.601745 0.000000
0.000000 1.567503 0.000000
0.000000 1.534172 0.000000
0.000000 1.501730 0.000000
0.000000 1.470151 0.000000
0.000000 1.439413 0.000000
0.000000 1.409494 0.000000
0.000000 1.380371 0.000000
0.000000 1.352024 0.000000
0.000000 1.324431 0.000000
0.000000 1.297573 0.000000
0.000000 1.271431 0.000000
0.000000 1.245984 0.000000
0.000000 1.221215 0.000000
0.000000 1.197106 0.000000
0.000000 1.173639 0.000000
0.000000 1.150796 0.000000
0.000000 1.128562 0.000000
0.000000 1.106920 0.000000
0.000000 1.085854 0.000000
0.000000 1.065349 0.000000
0.000000 1.045390 0.000000
0.000000 1.025962 0.000000
0.000000 1.007052 0.000000
0.000000 0.988645 0.000000
0.000000 0.970729 0.000000
0.000000 0.953289 0.000000
0.000000 0.936314 0.000000
0.000000 0.919791 0.000000
0.000000 0.903708 0.000000
0.000000 0.888053 0.000000
0.000000 0.872815 0.000000
0.000000 0.857983 0.000000
0.000000 0.843545 0.000000
0.000000 0.829492 0.000000
0.000000 0.815814 0.000000
0.000000 0.802499 0.000000
0.000000 0.789539 0.000000
0.000000 0.776925 0.000000
0.000000 0.764646 0.000000
0.000000 0.752694 0.000000
0.000000 0.741060 0.000000
0.000000 0.729736 0.000000
0.000000 0.718714 0.000000
0.000000 0.707985 0.000000
0.000000 0.697541 0.000000
0.000000 0.687376 0.000000
0.000000 0.677482 0.000000
0.000000 0.667851 0.000000
0.000000 0.658476 0.000000
0.000000 0.649351 0.000000
0.000000 0.640469 0.000000
0.000000 0.631824 0.000000
0.000000 0.623409 0.000000
0.000000 0.615217 0.000000
0.000000 0.607244 0.000000
0.000000 0.599484 0.000000
0.000000 0.591929 0.000000
0.000000 0.584577 0.000000
0.000000 0.577419 0.000000
0.000000 0.570453 0.000000
0.000000 0.563672 0.000000
0.000000 0.557071 0.000000
0.000000 0.550646 0.000000
0.000000 0.544393 0.000000
0.000000 0.538306 0.000000
0.000000 0.532380 0.000000
0.000000 0.526613 0.000000
0.000000 0.520999 0.000000
0.000000 0.515535 0.000000
0.000000 0.510216 0.000000
0.000000 0.505039 0.000000
0.000000 0.494581 0.000000
0.000000 0.488047 0.000000
0.000000 0.480167 0.000000
0.000000 0.470665 0.000000
0.000000 0.459206 0.000000
0.000000 0.445387 0.000000
0.000000 0.428723 0.000000
0.000000 0.408628 0.000000
0.000000 0.384395 0.000000
0.000000 0.355172 0.000000
0.000000 0.319933 0.000000
0.000000 0.277436 0.000000
0.000000 0.226190 0.000000
0.000000 0.164392 0.000000
0.000000 0.089868 0.000000
0.003529 0.503529 0.000000
0.007059 0.507059 0.000000
0.010588 0.510588 0.000000
0.014118 0.514118 0.000000
0.017647 0.517647 0.000000
0.021176 0.521176 0.000000
0.024706 0.524706 0.000000
0.028235 0.528235 0.000000
0.031765 0.531765 0.000000
0.035294 0.535294 0.000000
0.038824 0.538824 0.000000
0.042353 0.542353 0.000000
0.045882 0.545882 0.000000
0.049412 0.549412 0.000000
0.052941 0.552941 0.000000
0.056471 0.556471 0.000000
0.060000 0.560000 0.000000
0.063529 0.563529 0.000000
0.067059 0.567059 0.000000
0.070588 0.570588 0.000000
0.074118 0.574118 0.000000
0.077647 0.577647 0.000000
0.081176 0.581176 0.000000
0.084706 0.584706 0.000000
0.088235 0.588235 0.000000
0.091765 0.591765 0.000000
0.095294 0.595294 0.000000
0.098824 0.598824 0.000000
0.102353 0.602353 0.000000
0.105882 0.605882 0.000000
0.109412 0.609412 0.000000
0.112941 0.612941 0.000000
0.116471 0.616471 0.000000
0.120000 0.620000 0.000000
0.123529 0.623529 0.000000
0.127059 0.627059 0.000000
0.130588 0.630588 0.000000
0.134118 0.634118 0.000000
0.137647 0.637647 0.000000
0.141176 0.641176 0.000000
0.144706 0.644706 0.000000
0.148235 0.648235 0.000000
0.151765 0.651765 0.000000
0.155294 0.655294 0.000000
0.158824 0.658824 0.000000
0.162353 0.662353 0.000000
0.165882 0.665882 0.000000
0.169412 0.669412 0.000000
0.172941 0.672941 0.000000
0.176471 0.676471 0.000000
0.180000 0.680000 0.000000
0.183529 0.683529 0.000000
0.187059 0.687059 0.000000
0.190588 0.690588 0.000000
0.194118 0.694118 0.000000
0.197647 0.697647 0.000000
0.201176 0.701176 0.000000
0.204706 0.704706 0.000000
0.208235 0.708235 0.000000
0.211765 0.711765 0.000000
0.215294 0.715294 0.000000
0.218824 0.718824 0.000000
0.222353 0.722353 0.000000
0.225882 0.725882 0.000000
0.229412 0.729412 0.000000
0.232941 0.732941 0.000000
0.236471 0.736471 0.000000
0.240000 0.740000 0.000000
0.243529 0.743529 0.000000
0.247059 0.747059 0.000000
0.250588 0.750588 0.000000
0.254118 0.754118 0.000000
[...]
POINT_DATA 26238
SCALARS UX float 1
LOOKUP_TABLE default
-0.000000
0.000000
-0.009042
-0.012783
-0.003204
-0.002366
-0.003998
-0.000000
-0.000000
-0.000000
-0.000000
-0.000000
-0.000000
-0.000000
-0.000000
-0.000000
-0.000000
0.000000
0.000000
0.000000
0.000000
0.000000
0.000000
0.000000
0.000000
0.000000
0.000609
0.000957
0.001203
0.001376
0.001505
0.001599
0.001665
0.001708
0.001736
0.001749
0.001750
0.001742
0.001724
0.001698
0.001666
0.001626
0.001581
0.001530
0.001472
0.001409
0.001338
0.001261
0.001178
0.001086
0.000987
0.000880
0.000763
0.000639
0.000507
0.000367
0.000219
0.000064
-0.000094
-0.000259
-0.000425
-0.000593
-0.000760
-0.000927
-0.001090
-0.001250
-0.001405
-0.001554
-0.001698
-0.001836
-0.001969
-0.002094
-0.002213
-0.002326
-0.002433
-0.002535
-0.002631
-0.002722
-0.002808
-0.002890
-0.002967
-0.003040
-0.003109
-0.003174
-0.003236
-0.003295
-0.003351
-0.003404
-0.003454
-0.003501
-0.003547
-0.003590
-0.003631
-0.003670
-0.003707
-0.003743
-0.003777
-0.003809
-0.003840
-0.003869
-0.003897
-0.003924
-0.003950
-0.003974
-0.004021
-0.004046
-0.004072
-0.004099
-0.004128
-0.004159
-0.004191
-0.004225
-0.004261
-0.004299
-0.004339
-0.004381
-0.004426
-0.004472
-0.004521
-0.004573
-0.004627
-0.004684
-0.004743
-0.004806
-0.004872
-0.004941
-0.005014
-0.005090
-0.005170
-0.005255
-0.005343
-0.005436
-0.005534
-0.005637
-0.005746
-0.005860
-0.005981
-0.006108
-0.006243
-0.006386
-0.006538
-0.006698
-0.006869
-0.007051
-0.007245
-0.007453
-0.007675
-0.007911
-0.008165
-0.008438
-0.008730
-0.009237
-0.009432
-0.009626
-0.009818
-0.010007
-0.010192
-0.010375
-0.010554
-0.010732
-0.010910
-0.011087
-0.011266
-0.011447
-0.011630
-0.011817
-0.012006
-0.012199
-0.012393
-0.012588
-0.012473
-0.012169
-0.011872
-0.011581
-0.011295
-0.011017
-0.010744
-0.010479
-0.010223
-0.009973
-0.009732
-0.009499
-0.009277
-0.009063
-0.008860
-0.008667
-0.008483
-0.008311
-0.008150
-0.007999
-0.007859
-0.007729
-0.007610
-0.007501
-0.007402
-0.007312
-0.007231
-0.007159
-0.007094
-0.007037
-0.006986
-0.006941
-0.006904
-0.006870
-0.006842
-0.006818
-0.006798
-0.006782
-0.006769
-0.006758
-0.006750
-0.006745
-0.006741
-0.006738
-0.006737
-0.006738
-0.006739
-0.006741
-0.006744
-0.006748
-0.006752
-0.006756
-0.006761
-0.006766
-0.006771
-0.006776
-0.006782
-0.006787
-0.006792
-0.006798
-0.006803
-0.006808
-0.006813
-0.006818
-0.006823
-0.006827
-0.006831
-0.006835
-0.006839
-0.006842
-0.006845
-0.006848
-0.006850
-0.006852
-0.006853
-0.006854
-0.006855
-0.006855
-0.006855
-0.006854
-0.006852
-0.006849
-0.006845
-0.006841
-0.006836
-0.006830
-0.006823
-0.006816
-0.006808
-0.006800
-0.006792
-0.006783
-0.006773
-0.006762
-0.006749
-0.006735
-0.006722
-0.006711
-0.006700
-0.006687
-0.006670
-0.006647
-0.006619
-0.006570
-0.006503
-0.006412
-0.006245
-0.005869
-0.005603
-0.004623
-0.002483
-0.002064
-0.001853
-0.001730
-0.001644
-0.001576
-0.001520
-0.001466
-0.001412
-0.001352
-0.001281
-0.001187
-0.001054
-0.000865
-0.000579
-0.003195
-0.003141
-0.003194
-0.003199
-0.003157
-0.003224
-0.003236
-0.003244
-0.003257
-0.003329
-0.003313
-0.003739
-0.003562
-0.003557
-0.003620
-0.003673
-0.003647
-0.003725
-0.003711
-0.003745
-0.003675
-0.003799
-0.003680
-0.003689
-0.003739
-0.003651
-0.003663
-0.003634
-0.003663
-0.003638
-0.003686
-0.003705
-0.003704
-0.003724
-0.003728
-0.003749
-0.003765
-0.003793
-0.003797
-0.003742
-0.003809
-0.003741
-0.003755
-0.003754
-0.003808
-0.003814
-0.003884
-0.003910
-0.003933
-0.003945
-0.003972
-0.003972
-0.003988
-0.004000
-0.003987
-0.004005
-0.003960
-0.003935
-0.003961
-0.003925
-0.003914
-0.003884
-0.003909
-0.003910
-0.003918
-0.003938
-0.003931
-0.003925
-0.003997
-0.003997
-0.003971
-0.003918
-0.003897
-0.003852
-0.003961
-0.003973
-0.003950
-0.003959
-0.003947
-0.003951
-0.003634
-0.003599
-0.003596
-0.003609
-0.003578
-0.003592
-0.003568
-0.003601
-0.003622
-0.003586
-0.003594
-0.003583
-0.003609
-0.003583
-0.003543
-0.003622
-0.003605
-0.003594
-0.003548
-0.003563
-0.003546
-0.003570
-0.003529
-0.003467
-0.003484
-0.003877
-0.003852
-0.003816
-0.003793
-0.003799
-0.003765
-0.003761
-0.003706
-0.003682
-0.003667
-0.003683
-0.003610
-0.003659
-0.003608
-0.003646
-0.003672
-0.003652
-0.003692
-0.003669
-0.003652
-0.003628
-0.003651
-0.003612
-0.003693
-0.003649
-0.003628
-0.003639
-0.003659
-0.003616
-0.003548
-0.003558
-0.003585
-0.003586
-0.003528
-0.003486
-0.003463
-0.003499
-0.003502
-0.003478
-0.003519
-0.003462
-0.003449
-0.003443
-0.003464
-0.003438
-0.003411
-0.003367
-0.003347
-0.003305
-0.003314
-0.003276
-0.003286
-0.003254
-0.003259
-0.003259
-0.003265
-0.003231
-0.003263
-0.003254
-0.003220
-0.003218
-0.003221
-0.003198
-0.003167
-0.003142
-0.003099
-0.003067
-0.003034
-0.003004
-0.003039
-0.002982
-0.003019
-0.003022
-0.002985
-0.003032
-0.002964
-0.003030
-0.003015
-0.003014
-0.002991
-0.002975
-0.002976
-0.002879
-0.002834
-0.002824
-0.002802
-0.002803
-0.002783
-0.003266
-0.003230
-0.003214
-0.003191
-0.003227
-0.003202
-0.003240
-0.003130
-0.003170
-0.003202
-0.003183
-0.003143
-0.003150
-0.003088
-0.003124
-0.003062
-0.003090
-0.003044
-0.003048
-0.003038
-0.003013
-0.003034
-0.003025
-0.003003
-0.002986
-0.003003
-0.003011
-0.002976
-0.002964
-0.002944
-0.002957
-0.002878
-0.002844
-0.002824
-0.002774
-0.002755
-0.002707
-0.002770
-0.002760
-0.002765
-0.002737
-0.002743
-0.002725
-0.002708
-0.002643
-0.002893
-0.002942
-0.002936
-0.002946
-0.002901
-0.002852
-0.002821
-0.002865
-0.002888
-0.002843
-0.002848
-0.002850
-0.002842
-0.002845
-0.002852
-0.002877
-0.002852
-0.002827
-0.002816
-0.002790
-0.002751
-0.002760
-0.002685
-0.002685
-0.002675
-0.002665
-0.002701
-0.002649
-0.002679
-0.002688
-0.002707
-0.002723
-0.002715
-0.002683
-0.002683
-0.002650
-0.002658
-0.002591
-0.002576
-0.002543
-0.002581
-0.002548
-0.002543
-0.002561
-0.002561
-0.002578
-0.002566
-0.002533
-0.002542
-0.002532
-0.002543
-0.002531
-0.002583
-0.002613
-0.002570
-0.002517
-0.002551
-0.002535
-0.002498
-0.002519
-0.002522
-0.002483
-0.002517
-0.002497
-0.002519
-0.002520
-0.002516
-0.002533
-0.002525
-0.002495
-0.002578
-0.002552
-0.002566
-0.002554
-0.002575
-0.002565
-0.002545
-0.002543
-0.002541
-0.002530
-0.002526
-0.002486
-0.002474
-0.002456
-0.002457
-0.002448
-0.002410
-0.002430
-0.002444
-0.002409
-0.002376
-0.002574
-0.002588
-0.002563
-0.002552
-0.002529
-0.002524
-0.002492
-0.002468
-0.002427
-0.002675
-0.002665
-0.002634
-0.002622
-0.002618
-0.002582
-0.002607
-0.002551
-0.002547
-0.002560
-0.002527
-0.002533
-0.002600
-0.002594
-0.002157
-0.002212
-0.002168
-0.002158
-0.002143
-0.002139
-0.002168
-0.002158
-0.002147
-0.002161
-0.002160
-0.002159
-0.002178
-0.002220
-0.002231
-0.002220
-0.002205
-0.002219
-0.002232
-0.002198
-0.002215
-0.002262
-0.002271
-0.002277
-0.002280
-0.002307
-0.002292
-0.002303
-0.002281
-0.002307
-0.002303
-0.002288
-0.002309
-0.002282
-0.002273
-0.002261
-0.002432
-0.002409
-0.002414
-0.002422
-0.002406
-0.002467
-0.002456
-0.002461
-0.002468
-0.002461
-0.002484
-0.002468
-0.002475
-0.002462
-0.002461
-0.002455
-0.002455
-0.002466
-0.002460
-0.002462
-0.002459
-0.002455
-0.002459
-0.002442
-0.002465
-0.002473
-0.002458
-0.002449
-0.002447
-0.002443
-0.002440
-0.002439
-0.002433
-0.002426
-0.002410
-0.002392
-0.002358
-0.002381
-0.002406
-0.002432
-0.002456
-0.002478
-0.002500
-0.002521
-0.002541
-0.002561
-0.002579
-0.002597
-0.002613
-0.002630
-0.002645
-0.002661
-0.002676
-0.002691
-0.002705
-0.002718
-0.002732
-0.002745
-0.002759
-0.002774
-0.002788
-0.002801
-0.002814
-0.002827
-0.002840
-0.002852
-0.002864
-0.002876
-0.002888
-0.002900
-0.002912
-0.002924
-0.002935
-0.002947
-0.002958
-0.002970
-0.002981
-0.002992
-0.003004
-0.003015
-0.003026
-0.003038
-0.003049
-0.003060
-0.003071
-0.003083
-0.003094
-0.003105
-0.003116
-0.003128
-0.003139
-0.003150
-0.003162
-0.003173
-0.003184
-0.003195
-0.003207
-0.003218
-0.003229
-0.003241
-0.003252
-0.003263
-0.003275
-0.003286
-0.003297
-0.003308
-0.003320
-0.003331
-0.003342
-0.003353
-0.003365
-0.003376
-0.003387
-0.003398
-0.003410
-0.003421
-0.003432
-0.003443
-0.003454
-0.003465
-0.003476
-0.003487
-0.003498
-0.003509
-0.003520
-0.003531
-0.003542
-0.003553
-0.003563
-0.003574
-0.003585
-0.003595
-0.003606
-0.003616
-0.003627
-0.003637
-0.003647
-0.003657
-0.003668
-0.003678
-0.003688
-0.003698
-0.003707
-0.003717
-0.003727
-0.003737
-0.003746
-0.003756
-0.003765
-0.003774
-0.003783
-0.003793
-0.003802
-0.003811
-0.003819
-0.003828
-0.003837
-0.003845
-0.003854
-0.003862
-0.003871
-0.003879
-0.003887
-0.003895
-0.003903
-0.003911
-0.003918
-0.003926
-0.003934
-0.003941
-0.003949
-0.003956
-0.003963
-0.003970
-0.003977
-0.003984
-0.003991
-0.004730
-0.004762
-0.004473
-0.003647
-0.003683
-0.003663
-0.005078
-0.005062
-0.005013
-0.004882
-0.005104
-0.004460
-0.004651
-0.004333
-0.004346
-0.004328
-0.004351
-0.003574
-0.003588
-0.003548
-0.005994
-0.005984
-0.005921
-0.005888
-0.003610
-0.005467
-0.005443
-0.005533
-0.003782
-0.003769
-0.003754
-0.005460
-0.004996
-0.004902
-0.004977
-0.003746
-0.005900
-0.005866
-0.005978
-0.005745
-0.004750
-0.004805
-0.004826
-0.003508
-0.003538
-0.003507
-0.006203
-0.006222
-0.006191
-0.003610
-0.003580
-0.003593
-0.006162
-0.006142
-0.006173
-0.003577
-0.006220
-0.006211
-0.006239
-0.005476
-0.005412
-0.005409
-0.003924
-0.003965
-0.003955
-0.004001
-0.006341
-0.006372
-0.006334
-0.006370
-0.005460
-0.006242
-0.006230
-0.006194
-0.006192
-0.004852
-0.006201
-0.006184
-0.006219
-0.004391
-0.004337
-0.004350
-0.003846
-0.003885
-0.003833
-0.003831
-0.004371
-0.006007
-0.005996
-0.005802
-0.006204
-0.006198
-0.006223
-0.006222
-0.004252
-0.004301
-0.004266
-0.004302
-0.005695
-0.005714
-0.005692
-0.003735
-0.003762
-0.003766
-0.003792
-0.005460
-0.005405
-0.005473
-0.005356
-0.003764
-0.008536
-0.008735
-0.008577
-0.004004
-0.008636
-0.004437
-0.004452
-0.004420
-0.005451
-0.005485
-0.005473
-0.006066
-0.006074
-0.006087
-0.003740
-0.003710
-0.004471
-0.005735
-0.005712
-0.003478
-0.005378
-0.004700
-0.005107
-0.003641
-0.006065
-0.006062
-0.006046
-0.004882
-0.004820
-0.004821
-0.004902
-0.006046
-0.006057
-0.006070
-0.007668
-0.007503
-0.007623
-0.007553
-0.007824
-0.007661
-0.007659
-0.006932
-0.006851
-0.006782
-0.007805
-0.005710
-0.005540
-0.005323
-0.004885
-0.005538
-0.005570
-0.005660
-0.005494
-0.004112
-0.004063
-0.004095
-0.004072
-0.004882
-0.004896
-0.004880
-0.003254
-0.003236
-0.003120
-0.006199
-0.006182
-0.006206
-0.006192
-0.003522
-0.003561
-0.003576
-0.003335
-0.008292
-0.008289
-0.008443
-0.008117
-0.004418
-0.004396
-0.004408
-0.004380
-0.005341
-0.005360
-0.005354
-0.004593
-0.004679
-0.004596
-0.005372
-0.007768
-0.007615
-0.007735
-0.005218
-0.004874
-0.004228
-0.004259
-0.004275
-0.004093
-0.004117
-0.004153
-0.006527
-0.006538
-0.006515
-0.007576
-0.005505
-0.005482
-0.005500
-0.005470
-0.005905
-0.005863
-0.005885
-0.005882
-0.006353
-0.006341
-0.006329
-0.006319
-0.006345
-0.006323
-0.006366
-0.006305
-0.005388
-0.005390
-0.005416
-0.005379
-0.005389
-0.005323
-0.006778
-0.006708
-0.006659
-0.006785
-0.003895
-0.003930
-0.003894
-0.006399
-0.006379
-0.006377
-0.006362
-0.006093
-0.006063
-0.006131
-0.006078
-0.005418
-0.005937
-0.005928
-0.005954
-0.006387
-0.006409
-0.006377
-0.006410
-0.006041
-0.006064
-0.006112
-0.005965
-0.005841
-0.005849
-0.005866
-0.005366
-0.005331
-0.005359
-0.005825
-0.005754
-0.005721
-0.005772
-0.004212
-0.005205
-0.005286
-0.005266
-0.005914
-0.006232
-0.006243
-0.006268
-0.006204
-0.005969
-0.005946
-0.005974
-0.005896
-0.005995
-0.005905
-0.006034
-0.004510
-0.004524
-0.004513
-0.005711
-0.005714
-0.005692
-0.005296
-0.005249
-0.005238
-0.005287
-0.004175
-0.004208
-0.004170
-0.004197
-0.005078
-0.005054
-0.005043
-0.006496
-0.006493
-0.006461
-0.006459
-0.003937
-0.003924
-0.003952
-0.007892
-0.007864
-0.007758
-0.003928
-0.007898
-0.008019
-0.007822
-0.008066
-0.006618
-0.006610
-0.006597
-0.006585
-0.006215
-0.006205
-0.006163
-0.006186
-0.005001
-0.004970
-0.004964
-0.005253
-0.005269
-0.005292
-0.005307
-0.003654
-0.003632
-0.003630
-0.005874
-0.005854
-0.005861
-0.004439
-0.004501
-0.004438
-0.004497
-0.006640
-0.006637
-0.006625
-0.006617
-0.004745
-0.004771
-0.004734
-0.004782
-0.006410
-0.006296
-0.006346
-0.006256
-0.004632
-0.004684
-0.004634
-0.004696
-0.004293
-0.004284
-0.004330
-0.004256
-0.005635
-0.005609
-0.005659
-0.005588
-0.006003
-0.005929
-0.005960
-0.004524
-0.006817
-0.006723
-0.006854
-0.006709
-0.007046
-0.006926
-0.006904
-0.007067
-0.009575
-0.009798
-0.009484
-0.004881
-0.004932
-0.004847
-0.005665
-0.005669
-0.005650
-0.006508
-0.006497
-0.006488
-0.004849
-0.005524
-0.005565
-0.005610
-0.005498
-0.004631
-0.004573
-0.004638
-0.004560
-0.006572
-0.006530
-0.006553
-0.006516
-0.005651
-0.005220
-0.005233
-0.005242
-0.006334
-0.006424
-0.006303
-0.004455
-0.004375
-0.004408
-0.006242
-0.006286
-0.006219
-0.005249
-0.005175
-0.005214
-0.006307
-0.003505
-0.003547
-0.003532
-0.003832
-0.003803
-0.003811
-0.006088
-0.006134
-0.006064
-0.006136
-0.005805
-0.005748
-0.005716
-0.005358
-0.005394
-0.005328
-0.005816
-0.004751
-0.004696
-0.004693
-0.005367
-0.005264
-0.005780
-0.005748
-0.005782
-0.004856
-0.004849
-0.004801
-0.005774
-0.005772
-0.005796
-0.005749
-0.004937
-0.004920
-0.004933
-0.004494
-0.004551
-0.004507
-0.004497
-0.004934
-0.004920
-0.006090
-0.006081
-0.006003
-0.003916
-0.003916
-0.003954
-0.006249
-0.006217
-0.006144
-0.005183
-0.005207
-0.005253
-0.005316
-0.004939
-0.004922
-0.004988
-0.004905
-0.005826
-0.005823
-0.005853
-0.005849
-0.003968
-0.003973
-0.004012
-0.004129
-0.004100
-0.004143
-0.004104
-0.004306
-0.004272
-0.004329
-0.004011
-0.004991
-0.005020
-0.005018
-0.004938
-0.004955
-0.004945
-0.004943
-0.004963
-0.004962
-0.004987
-0.004936
-0.005949
-0.005958
-0.005970
-0.005660
-0.005642
-0.005648
-0.005782
-0.005775
-0.005688
-0.005504
-0.005548
-0.005549
-0.005594
-0.004889
-0.004861
-0.004779
-0.005630
-0.005906
-0.005918
-0.005904
-0.006062
-0.006078
-0.006066
-0.006084
-0.005917
-0.005226
-0.005243
-0.005213
-0.005264
-0.004159
-0.004102
-0.004126
-0.006762
-0.006780
-0.006773
-0.006778
-0.005109
-0.005101
-0.005130
-0.005078
-0.006226
-0.006208
-0.006235
-0.006309
-0.006257
-0.006302
-0.003977
-0.004483
-0.003901
-0.006208
-0.006703
-0.006686
-0.006701
-0.006059
-0.006042
-0.006661
-0.006618
-0.006589
-0.004380
-0.006365
-0.006409
-0.006315
-0.006535
-0.006524
-0.004873
-0.004807
-0.004816
-0.006446
-0.006362
-0.006362
-0.006385
-0.006967
-0.006872
-0.007013
-0.006882
-0.003971
-0.003978
-0.003946
-0.006126
-0.006133
-0.006148
-0.006164
-0.006606
-0.006607
-0.006544
-0.004009
-0.006477
-0.006498
-0.006433
-0.005598
-0.005589
-0.005520
-0.005817
-0.005797
-0.006402
-0.006381
-0.006362
-0.004971
-0.004956
-0.004971
-0.005211
-0.005179
-0.005196
-0.006607
-0.006534
-0.006610
-0.004957
-0.003842
-0.003862
-0.003813
-0.005896
-0.005897
-0.005817
-0.005966
-0.006570
-0.006538
-0.006645
-0.006494
-0.006438
-0.004718
-0.004745
-0.004675
-0.005160
-0.005141
-0.005148
-0.005130
-0.003829
-0.003866
-0.003824
-0.005006
-0.004984
-0.004915
-0.003870
-0.003891
-0.003858
-0.003862
-0.003841
-0.003892
-0.004301
-0.004319
-0.004321
-0.006177
-0.006162
-0.006186
-0.005515
-0.005817
-0.005226
-0.006035
-0.006163
-0.005918
-0.005939
-0.005881
-0.005710
-0.005687
-0.005679
-0.005660
-0.006417
-0.006438
-0.006424
-0.006450
-0.006502
-0.006517
-0.006510
-0.004460
-0.004456
-0.004510
-0.005292
-0.005185
-0.005173
-0.003750
-0.003747
-0.003706
-0.006134
-0.006095
-0.006138
-0.006203
-0.003691
-0.003757
-0.003794
-0.006516
-0.004339
-0.005109
-0.005110
-0.005122
-0.005715
-0.005742
-0.005770
-0.005778
-0.005911
-0.005915
-0.005864
-0.005126
-0.003869
-0.003836
-0.003862
-0.005448
-0.005435
-0.005460
-0.005458
-0.005874
-0.006023
-0.005911
-0.006212
-0.006165
-0.006158
-0.005610
-0.005637
-0.005638
-0.005473
-0.005464
-0.005439
-0.005498
-0.006363
-0.006383
-0.006386
-0.006401
-0.003782
-0.003766
-0.003794
-0.005792
-0.005749
-0.005817
-0.004232
-0.004212
-0.004232
-0.005302
-0.005285
-0.005280
-0.005259
-0.004216
-0.005472
-0.005492
-0.005498
-0.005522
-0.008270
-0.008124
-0.008456
-0.003977
-0.003934
-0.003931
-0.006272
-0.006276
-0.006295
-0.006255
-0.004442
-0.004424
-0.004433
-0.003974
-0.006313
-0.006331
-0.006314
-0.005986
-0.006022
-0.005996
-0.006000
-0.006441
-0.006398
-0.006267
-0.004414
-0.004283
-0.004308
-0.004292
-0.005072
-0.005103
-0.005129
-0.005928
-0.005919
-0.005940
-0.005930
-0.004312
-0.003994
-0.003978
-0.003972
-0.006030
-0.006077
-0.006053
-0.006108
-0.005043
-0.006625
-0.006644
-0.006609
-0.006666
-0.005587
-0.005598
-0.005579
-0.005606
-0.005582
-0.005561
-0.005561
-0.005859
-0.005817
-0.005810
-0.005885
-0.005150
-0.005191
-0.005185
-0.005233
-0.005029
-0.004990
-0.006138
-0.006121
-0.006140
-0.004741
-0.004755
-0.004771
-0.004721
-0.004794
-0.004800
-0.006163
-0.005815
-0.005774
-0.006119
-0.004005
-0.005102
-0.005147
-0.005121
-0.003671
-0.003593
-0.003838
-0.005053
-0.006325
-0.006346
-0.006351
-0.003385
-0.006365
-0.005021
-0.004968
-0.004968
-0.005077
-0.005038
-0.005117
-0.006153
-0.006134
-0.006149
-0.005844
-0.005810
-0.005824
-0.005536
-0.005605
-0.005542
-0.005057
-0.005024
-0.005056
-0.003887
-0.003853
-0.003846
-0.005599
-0.005969
-0.005984
-0.005987
-0.006003
-0.004960
-0.004998
-0.005058
-0.004995
-0.005267
-0.005241
-0.005247
-0.006604
-0.006535
-0.006570
-0.006479
-0.006477
-0.006575
-0.006612
-0.004884
-0.004868
-0.004847
-0.004832
-0.005571
-0.005589
-0.005584
-0.004891
-0.004847
-0.004859
-0.006757
-0.005271
-0.005247
-0.005277
-0.005237
-0.006301
-0.006277
-0.006289
-0.004820
-0.006519
-0.006500
-0.006489
-0.005217
-0.003748
-0.005311
-0.005302
-0.004977
-0.005551
-0.005765
-0.005766
-0.005785
-0.005792
-0.006292
-0.006323
-0.006286
-0.006325
-0.006480
-0.006506
-0.006594
-0.006379
-0.006623
-0.006538
-0.006602
-0.005411
-0.005404
-0.005383
-0.005381
-0.003786
-0.004663
-0.004679
-0.004657
-0.004676
-0.006201
-0.006233
-0.006209
-0.003693
-0.003658
-0.003667
-0.004642
-0.004704
-0.004623
-0.005334
-0.005410
-0.005392
-0.005908
-0.005873
-0.005873
-0.005491
-0.005676
-0.005673
-0.004676
-0.004490
-0.005373
-0.005404
-0.005392
-0.006252
-0.006226
-0.006238
-0.005658
-0.005655
-0.003695
-0.004394
-0.004177
-0.005224
-0.005259
-0.005214
-0.006663
-0.006757
-0.006787
-0.006890
-0.004101
-0.004062
-0.004030
-0.005921
-0.005890
-0.005890
-0.005499
-0.005517
-0.005502
-0.006213
-0.006187
-0.006224
-0.005006
-0.005013
-0.004924
-0.009392
-0.009256
-0.009094
-0.006513
-0.006427
-0.006419
-0.006402
-0.006407
-0.006389
-0.005474
-0.005489
-0.005475
-0.009040
-0.005486
-0.005517
-0.006175
-0.006217
-0.006451
-0.006463
-0.006358
-0.006240
-0.005490
-0.004951
-0.004833
-0.004727
-0.004766
-0.004753
-0.005963
-0.005974
-0.005982
-0.006185
-0.006161
-0.006173
-0.003846
-0.003822
-0.003820
-0.007127
-0.007219
-0.007347
-0.005458
-0.005487
-0.005456
-0.005972
-0.005958
-0.005953
-0.006053
-0.006030
-0.006015
-0.006007
-0.005157
-0.005185
-0.004671
-0.004682
-0.004709
-0.005119
-0.005138
-0.005145
-0.005170
-0.004814
-0.004831
-0.004836
-0.005816
-0.005545
-0.005964
-0.006291
-0.006268
-0.006246
-0.007021
-0.005450
-0.005447
-0.005522
-0.004722
-0.004691
-0.004699
-0.005457
-0.005347
-0.005428
-0.005300
-0.006379
-0.006356
-0.006372
-0.006123
-0.006098
-0.006109
-0.005697
-0.005710
-0.005715
-0.005728
-0.008766
-0.008481
-0.008680
-0.005892
-0.005835
-0.005811
-0.005754
-0.006266
-0.006299
-0.008389
-0.005524
-0.005543
-0.005521
-0.004807
-0.009010
-0.008802
-0.006061
-0.004489
-0.004457
-0.004438
-0.008003
-0.007991
-0.005568
-0.005578
-0.005591
-0.005599
-0.006322
-0.006300
-0.006311
-0.004845
-0.004875
-0.004852
-0.005166
-0.005199
-0.006210
-0.006198
-0.006215
-0.005429
-0.005434
-0.005449
-0.004395
-0.005462
-0.005422
-0.005406
-0.005923
-0.005889
-0.005397
-0.005155
-0.005184
-0.005190
-0.005214
-0.007613
-0.007669
-0.006236
-0.006220
-0.006214
-0.006092
-0.006115
-0.006104
-0.005817
-0.005802
-0.005788
-0.005854
-0.007514
-0.005902
-0.005868
-0.006350
-0.006335
-0.006337
-0.006319
-0.006068
-0.006042
-0.006054
-0.006107
-0.006042