# vtk DataFile Version 2.0
Test
ASCII
DATASET POLYDATA
POINTS 26238 float
0.000000 0.000000 0.000000
2.000000 0.000000 0.000000
2.000000 4.000000 0.000000
0.000000 4.000000 0.000000
0.000000 0.500000 0.000000
1.500000 2.000000 0.000000
2.000000 2.500000 0.000000
0.100000 0.000000 0.000000
0.200000 0.000000 0.000000
0.300000 0.000000 0.000000
0.400000 0.000000 0.000000
0.500000 0.000000 0.000000
0.600000 0.000000 0.000000
0.700000 0.000000 0.000000
0.800000 0.000000 0.000000
0.900000 0.000000 0.000000
1.000000 0.000000 0.000000
1.100000 0.000000 0.000000
1.200000 0.000000 0.000000
1.300000 0.000000 0.000000
1.400000 0.000000 0.000000
1.500000 0.000000 0.000000
1.600000 0.000000 0.000000
1.700000 0.000000 0.000000
1.800000 0.000000 0.000000
1.900000 0.000000 0.000000
2.000000 0.097923 0.000000
2.000000 0.192202 0.000000
2.000000 0.282973 0.000000
2.000000 0.370366 0.000000
2.000000 0.454507 0.000000
2.000000 0.535518 0.000000
2.000000 0.613513 0.000000
2.000000 0.688607 0.000000
2.000000 0.760906 0.000000
2.000000 0.830515 0.000000
2.000000 0.897534 0.000000
2.000000 0.962059 0.000000
2.000000 1.024183 0.000000
2.000000 1.083995 0.000000
2.000000 1.141582 0.000000
2.000000 1.197026 0.000000
2.000000 1.250406 0.000000
2.000000 1.301801 0.000000
2.000000 1.351283 0.000000
2.000000 1.398923 0.000000
2.000000 1.444791 0.000000
2.000000 1.488953 0.000000
2.000000 1.531470 0.000000
2.000000 1.572406 0.000000
2.000000 1.611819 0.000000
2.000000 1.649765 0.000000
2.000000 1.686299 0.000000
2.000000 1.721473 0.000000
2.000000 1.755339 0.000000
2.000000 1.787944 0.000000
2.000000 1.819337 0.000000
2.000000 1.849561 0.000000
2.000000 1.878660 0.000000
2.000000 1.906677 0.000000
2.000000 1.933651 0.000000
2.000000 1.959621 0.000000
2.000000 1.984625 0.000000
2.000000 2.008699 0.000000
2.000000 2.031877 0.000000
2.000000 2.054192 0.000000
2.000000 2.075677 0.000000
2.000000 2.096362 0.000000
2.000000 2.116278 0.000000
2.000000 2.135453 0.000000
2.000000 2.153914 0.000000
2.000000 2.171688 0.000000
2.000000 2.188801 0.000000
2.000000 2.205277 0.000000
2.000000 2.221140 0.000000
2.000000 2.236413 0.000000
2.000000 2.251117 0.000000
2.000000 2.265274 0.000000
2.000000 2.278905 0.000000
2.000000 2.292028 0.000000
2.000000 2.304663 0.000000
2.000000 2.316828 0.000000
2.000000 2.328540 0.000000
2.000000 2.339816 0.000000
2.000000 2.350673 0.000000
2.000000 2.361126 0.000000
2.000000 2.371189 0.000000
2.000000 2.380879 0.000000
2.000000 2.390207 0.000000
2.000000 2.399189 0.000000
2.000000 2.407836 0.000000
2.000000 2.416162 0.000000
2.000000 2.424178 0.000000
2.000000 2.431895 0.000000
2.000000 2.439326 0.000000
2.000000 2.446480 0.000000
2.000000 2.453367 0.000000
2.000000 2.459999 0.000000
2.000000 2.466383 0.000000
2.000000 2.472530 0.000000
2.000000 2.478449 0.000000
2.000000 2.484147 0.000000
2.000000 2.489633 0.000000
2.000000 2.494915 0.000000
2.000000 2.505084 0.000000
2.000000 2.510496 0.000000
2.000000 2.516256 0.000000
2.000000 2.522387 0.000000
2.000000 2.528913 0.000000
2.000000 2.535859 0.000000
2.000000 2.543253 0.000000
2.000000 2.551122 0.000000
2.000000 2.559499 0.000000
2.000000 2.568415 0.000000
2.000000 2.577905 0.000000
2.000000 2.588006 0.000000
2.000000 2.598758 0.000000
2.000000 2.610202 0.000000
2.000000 2.622383 0.000000
2.000000 2.635349 0.000000
2.000000 2.649149 0.000000
2.000000 2.663839 0.000000
2.000000 2.679474 0.000000
2.000000 2.696116 0.000000
2.000000 2.713831 0.000000
2.000000 2.732685 0.000000
2.000000 2.752754 0.000000
2.000000 2.774116 0.000000
2.000000 2.796853 0.000000
2.000000 2.821055 0.000000
2.000000 2.846815 0.000000
2.000000 2.874234 0.000000
2.000000 2.903419 0.000000
2.000000 2.934483 0.000000
2.000000 2.967548 0.000000
2.000000 3.002742 0.000000
2.000000 3.040202 0.000000
2.000000 3.080076 0.000000
2.000000 3.122517 0.000000
2.000000 3.167691 0.000000
2.000000 3.215774 0.000000
2.000000 3.266954 0.000000
2.000000 3.321430 0.000000
2.000000 3.379414 0.000000
2.000000 3.441132 0.000000
2.000000 3.506825 0.000000
2.000000 3.576749 0.000000
2.000000 3.651175 0.000000
2.000000 3.730395 0.000000
2.000000 3.814717 0.000000
2.000000 3.904468 0.000000
1.900000 4.000000 0.000000
1.800000 4.000000 0.000000
1.700000 4.000000 0.000000
1.600000 4.000000 0.000000
1.500000 4.000000 0.000000
1.400000 4.000000 0.000000
1.300000 4.000000 0.000000
1.200000 4.000000 0.000000
1.100000 4.000000 0.000000
1.000000 4.000000 0.000000
0.900000 4.000000 0.000000
0.800000 4.000000 0.000000
0.700000 4.000000 0.000000
0.600000 4.000000 0.000000
0.500000 4.000000 0.000000
0.400000 4.000000 0.000000
0.300000 4.000000 0.000000
0.200000 4.000000 0.000000
0.100000 4.000000 0.000000
0.000000 3.901898 0.000000
0.000000 3.806409 0.000000
0.000000 3.713462 0.000000
0.000000 3.622990 0.000000
0.000000 3.534927 0.000000
0.000000 3.449209 0.000000
0.000000 3.365773 0.000000
0.000000 3.284559 0.000000
0.000000 3.205508 0.000000
0.000000 3.128561 0.000000
0.000000 3.053664 0.000000
0.000000 2.980761 0.000000
0.000000 2.909799 0.000000
0.000000 2.840727 0.000000
0.000000 2.773493 0.000000
0.000000 2.708051 0.000000
0.000000 2.644350 0.000000
0.000000 2.582346 0.000000
0.000000 2.521993 0.000000
0.000000 2.463247 0.000000
0.000000 2.406065 0.000000
0.000000 2.350406 0.000000
0.000000 2.296229 0.000000
0.000000 2.243495 0.000000
0.000000 2.192165 0.000000
0.000000 2.142201 0.000000
0.000000 2.093568 0.000000
0.000000 2.046230 0.000000
0.000000 2.000153 0.000000
0.000000 1.955302 0.000000
0.000000 1.911646 0.000000
0.000000 1.869152 0.000000
0.000000 1.827789 0.000000
0.000000 1.787528 0.000000
0.000000 1.748339 0.000000
0.000000 1.710194 0.000000
0.000000 1.673064 0.000000
0.000000 1.636923 0.000000
0.000000 1.601745 0.000000
0.000000 1.567503 0.000000
0.000000 1.534172 0.000000
0.000000 1.501730 0.000000
0.000000 1.470151 0.000000
0.000000 1.439413 0.000000
0.000000 1.409494 0.000000
0.000000 1.380371 0.000000
0.000000 1.352024 0.000000
0.000000 1.324431 0.000000
0.000000 1.297573 0.000000
0.000000 1.271431 0.000000
0.000000 1.245984 0.000000
0.000000 1.221215 0.000000
0.000000 1.197106 0.000000
0.000000 1.173639 0.000000
0.000000 1.150796 0.000000
0.000000 1.128562 0.000000
0.000000 1.106920 0.000000
0.000000 1.085854 0.000000
0.000000 1.065349 0.000000
0.000000 1.045390 0.000000
0.000000 1.025962 0.000000
0.000000 1.007052 0.000000
0.000000 0.988645 0.000000
0.000000 0.970729 0.000000
0.000000 0.953289 0.000000
0.000000 0.936314 0.000000
0.000000 0.919791 0.000000
0.000000 0.903708 0.000000
0.000000 0.888053 0.000000
0.000000 0.872815 0.000000
0.000000 0.857983 0.000000
0.000000 0.843545 0.000000
0.000000 0.829492 0.000000
0.000000 0.815814 0.000000
0.000000 0.802499 0.000000
0.000000 0.789539 0.000000
0.000000 0.776925 0.000000
0.000000 0.764646 0.000000
0.000000 0.752694 0.000000
0.000000 0.741060 0.000000
0.000000 0.729736 0.000000
0.000000 0.718714 0.000000
0.000000 0.707985 0.000000
0.000000 0.697541 0.000000
0.000000 0.687376 0.000000
0.000000 0.677482 0.000000
0.000000 0.667851 0.000000
0.000000 0.658476 0.000000
0.000000 0.649351 0.000000
0.000000 0.640469 0.000000
0.000000 0.631824 0.000000
0.000000 0.623409 0.000000
0.000000 0.615217 0.000000
0.000000 0.607244 0.000000
0.000000 0.599484 0.000000
0.000000 0.591929 0.000000
0.000000 0.584577 0.000000
0.000000 0.577419 0.000000
0.000000 0.570453 0.000000
0.000000 0.563672 0.000000
0.000000 0.557071 0.000000
0.000000 0.550646 0.000000
0.000000 0.544393 0.000000
0.000000 0.538306 0.000000
0.000000 0.532380 0.000000
0.000000 0.526613 0.000000
0.000000 0.520999 0.000000
0.000000 0.515535 0.000000
0.000000 0.510216 0.000000
0.000000 0.505039 0.000000
0.000000 0.494581 0.000000
0.000000 0.488047 0.000000
0.000000 0.480167 0.000000
0.000000 0.470665 0.000000
0.000000 0.459206 0.000000
0.000000 0.445387 0.000000
0.000000 0.428723 0.000000
0.000000 0.408628 0.000000
0.000000 0.384395 0.000000
0.000000 0.355172 0.000000
0.000000 0.319933 0.000000
0.000000 0.277436 0.000000
0.000000 0.226190 0.000000
0.000000 0.164392 0.000000
0.000000 0.089868 0.000000
0.003529 0.503529 0.000000
0.007059 0.507059 0.000000
0.010588 0.510588 0.000000
0.014118 0.514118 0.000000
0.017647 0.517647 0.000000
0.021176 0.521176 0.000000
0.024706 0.524706 0.000000
0.028235 0.528235 0.000000
0.031765 0.531765 0.000000
0.035294 0.535294 0.000000
0.038824 0.538824 0.000000
0.042353 0.542353 0.000000
0.045882 0.545882 0.000000
0.049412 0.549412 0.000000
0.052941 0.552941 0.000000
0.056471 0.556471 0.000000
0.060000 0.560000 0.000000
0.063529 0.563529 0.000000
0.067059 0.567059 0.000000
0.070588 0.570588 0.000000
0.074118 0.574118 0.000000
0.077647 0.577647 0.000000
0.081176 0.581176 0.000000
0.084706 0.584706 0.000000
0.088235 0.588235 0.000000
0.091765 0.591765 0.000000
0.095294 0.595294 0.000000
0.098824 0.598824 0.000000
0.102353 0.602353 0.000000
0.105882 0.605882 0.000000
0.109412 0.609412 0.000000
0.112941 0.612941 0.000000
0.116471 0.616471 0.000000
0.120000 0.620000 0.000000
0.123529 0.623529 0.000000
0.127059 0.627059 0.000000
0.130588 0.630588 0.000000
0.134118 0.634118 0.000000
0.137647 0.637647 0.000000
0.141176 0.641176 0.000000
0.144706 0.644706 0.000000
0.148235 0.648235 0.000000
0.151765 0.651765 0.000000
0.155294 0.655294 0.000000
0.158824 0.658824 0.000000
0.162353 0.662353 0.000000
0.165882 0.665882 0.000000
0.169412 0.669412 0.000000
0.172941 0.672941 0.000000
0.176471 0.676471 0.000000
0.180000 0.680000 0.000000
0.183529 0.683529 0.000000
0.187059 0.687059 0.000000
0.190588 0.690588 0.000000
0.194118 0.694118 0.000000
0.197647 0.697647 0.000000
0.201176 0.701176 0.000000
0.204706 0.704706 0.000000
0.208235 0.708235 0.000000
0.211765 0.711765 0.000000
0.215294 0.715294 0.000000
0.218824 0.718824 0.000000
0.222353 0.722353 0.000000
0.225882 0.725882 0.000000
0.229412 0.729412 0.000000
0.232941 0.732941 0.000000
0.236471 0.736471 0.000000
0.240000 0.740000 0.000000
0.243529 0.743529 0.000000
0.247059 0.747059 0.000000
0.250588 0.750588 0.000000
0.254118 0.754118 0.000000
[...]
POINT_DATA 26238
SCALARS UX float 1
LOOKUP_TABLE default
-0.000000
0.000000
-0.010331
-0.014446
-0.002238
-0.002749
-0.004608
-0.000000
-0.000000
-0.000000
-0.000000
-0.000000
-0.000000
-0.000000
-0.000000
-0.000000
-0.000000
0.000000
0.000000
0.000000
0.000000
0.000000
0.000000
0.000000
0.000000
0.000000
0.000669
0.001052
0.001321
0.001511
0.001651
0.001753
0.001823
0.001868
0.001895
0.001906
0.001904
0.001891
0.001867
0.001835
0.001794
0.001746
0.001692
0.001631
0.001563
0.001488
0.001406
0.001317
0.001221
0.001115
0.001002
0.000880
0.000747
0.000606
0.000456
0.000297
0.000130
-0.000044
-0.000223
-0.000408
-0.000595
-0.000784
-0.000972
-0.001159
-0.001342
-0.001521
-0.001695
-0.001863
-0.002024
-0.002179
-0.002328
-0.002468
-0.002602
-0.002729
-0.002849
-0.002963
-0.003071
-0.003173
-0.003270
-0.003361
-0.003448
-0.003530
-0.003608
-0.003681
-0.003751
-0.003817
-0.003879
-0.003939
-0.003995
-0.004049
-0.004100
-0.004149
-0.004195
-0.004239
-0.004281
-0.004321
-0.004359
-0.004395
-0.004430
-0.004463
-0.004495
-0.004525
-0.004554
-0.004582
-0.004634
-0.004662
-0.004692
-0.004723
-0.004755
-0.004790
-0.004826
-0.004865
-0.004906
-0.004948
-0.004994
-0.005041
-0.005091
-0.005144
-0.005199
-0.005257
-0.005319
-0.005383
-0.005450
-0.005522
-0.005596
-0.005675
-0.005757
-0.005843
-0.005934
-0.006030
-0.006130
-0.006235
-0.006346
-0.006463
-0.006587
-0.006716
-0.006854
-0.006998
-0.007152
-0.007314
-0.007487
-0.007669
-0.007863
-0.008070
-0.008291
-0.008527
-0.008779
-0.009047
-0.009336
-0.009646
-0.009977
-0.010546
-0.010761
-0.010974
-0.011185
-0.011393
-0.011597
-0.011797
-0.011995
-0.012191
-0.012385
-0.012580
-0.012777
-0.012976
-0.013178
-0.013383
-0.013591
-0.013803
-0.014016
-0.014231
-0.014093
-0.013748
-0.013410
-0.013080
-0.012755
-0.012439
-0.012130
-0.011829
-0.011537
-0.011253
-0.010979
-0.010716
-0.010463
-0.010220
-0.009989
-0.009768
-0.009560
-0.009364
-0.009179
-0.009007
-0.008847
-0.008698
-0.008562
-0.008436
-0.008322
-0.008218
-0.008124
-0.008040
-0.007965
-0.007898
-0.007839
-0.007786
-0.007741
-0.007701
-0.007667
-0.007638
-0.007614
-0.007593
-0.007577
-0.007563
-0.007552
-0.007544
-0.007538
-0.007534
-0.007532
-0.007530
-0.007530
-0.007532
-0.007534
-0.007537
-0.007540
-0.007544
-0.007549
-0.007553
-0.007558
-0.007564
-0.007569
-0.007574
-0.007580
-0.007585
-0.007591
-0.007596
-0.007601
-0.007607
-0.007612
-0.007617
-0.007621
-0.007626
-0.007630
-0.007634
-0.007638
-0.007642
-0.007645
-0.007648
-0.007650
-0.007652
-0.007654
-0.007655
-0.007656
-0.007656
-0.007654
-0.007651
-0.007647
-0.007642
-0.007636
-0.007628
-0.007620
-0.007611
-0.007600
-0.007588
-0.007576
-0.007561
-0.007545
-0.007527
-0.007508
-0.007491
-0.007479
-0.007474
-0.007473
-0.007468
-0.007464
-0.007448
-0.007420
-0.007376
-0.007322
-0.007195
-0.006909
-0.006391
-0.006127
-0.004010
-0.002152
-0.002038
-0.001918
-0.001832
-0.001764
-0.001705
-0.001651
-0.001599
-0.001544
-0.001482
-0.001406
-0.001305
-0.001160
-0.000952
-0.000637
-0.002485
-0.003003
-0.003402
-0.003493
-0.003591
-0.003976
-0.003554
-0.003523
-0.003473
-0.003493
-0.003576
-0.003592
-0.003615
-0.003429
-0.003443
-0.004365
-0.004276
-0.004240
-0.004224
-0.004261
-0.004218
-0.004197
-0.003958
-0.003864
-0.003959
-0.003884
-0.003920
-0.003845
-0.003905
-0.003910
-0.003908
-0.003925
-0.003921
-0.003973
-0.004006
-0.003996
-0.004001
-0.004037
-0.004000
-0.003852
-0.003878
-0.003784
-0.004061
-0.004025
-0.003973
-0.004239
-0.004301
-0.004277
-0.004256
-0.004268
-0.004210
-0.004466
-0.004409
-0.004392
-0.004402
-0.004374
-0.004381
-0.004355
-0.004332
-0.004250
-0.004256
-0.004477
-0.004357
-0.004333
-0.004349
-0.004386
-0.004383
-0.004450
-0.004458
-0.004534
-0.004472
-0.004419
-0.004359
-0.004596
-0.004571
-0.004623
-0.004355
-0.004302
-0.004294
-0.004275
-0.004208
-0.004245
-0.004240
-0.004245
-0.004199
-0.004201
-0.004272
-0.004248
-0.004289
-0.004273
-0.004268
-0.004251
-0.004256
-0.004242
-0.004200
-0.004291
-0.004297
-0.004294
-0.004243
-0.004311
-0.004274
-0.004292
-0.004260
-0.004276
-0.004255
-0.004302
-0.004287
-0.004257
-0.004204
-0.004198
-0.004249
-0.004156
-0.004104
-0.004139
-0.004082
-0.004112
-0.004085
-0.004071
-0.004118
-0.004131
-0.004143
-0.004121
-0.004105
-0.004129
-0.004109
-0.003915
-0.003825
-0.003797
-0.003857
-0.003910
-0.003862
-0.003891
-0.003902
-0.003894
-0.003830
-0.003839
-0.003851
-0.003865
-0.003840
-0.003793
-0.003760
-0.003798
-0.003811
-0.003790
-0.003841
-0.003783
-0.003756
-0.003732
-0.003800
-0.003776
-0.003730
-0.003717
-0.003640
-0.003672
-0.003632
-0.003645
-0.003631
-0.003618
-0.003596
-0.003596
-0.003687
-0.003698
-0.003681
-0.003673
-0.003663
-0.003658
-0.003665
-0.003599
-0.003579
-0.003562
-0.003543
-0.003503
-0.003488
-0.003480
-0.003455
-0.003372
-0.003407
-0.003410
-0.003380
-0.003432
-0.003374
-0.003427
-0.003398
-0.003389
-0.003388
-0.003389
-0.003357
-0.003337
-0.003304
-0.003274
-0.003274
-0.003285
-0.003270
-0.003302
-0.003320
-0.003299
-0.003365
-0.003354
-0.003374
-0.003383
-0.003459
-0.003436
-0.003417
-0.003426
-0.003402
-0.003451
-0.003385
-0.003435
-0.003418
-0.003405
-0.003353
-0.003363
-0.003418
-0.003391
-0.003407
-0.003424
-0.003403
-0.003388
-0.003469
-0.003446
-0.003389
-0.003396
-0.003400
-0.003379
-0.003417
-0.003360
-0.003315
-0.003344
-0.003311
-0.003273
-0.003368
-0.003328
-0.003335
-0.003329
-0.003275
-0.003258
-0.003245
-0.003370
-0.003358
-0.003334
-0.003403
-0.003400
-0.003418
-0.003360
-0.003353
-0.003358
-0.003308
-0.003297
-0.003308
-0.003306
-0.003284
-0.003290
-0.003283
-0.003295
-0.003267
-0.003255
-0.003226
-0.003211
-0.003128
-0.003169
-0.003082
-0.003122
-0.003097
-0.003072
-0.003075
-0.003061
-0.003058
-0.003055
-0.003063
-0.003076
-0.003034
-0.003016
-0.003023
-0.003000
-0.003043
-0.002981
-0.002967
-0.002926
-0.002944
-0.002896
-0.002909
-0.002896
-0.002896
-0.002895
-0.002923
-0.002822
-0.002880
-0.002848
-0.002845
-0.002846
-0.002864
-0.002880
-0.002846
-0.002841
-0.002875
-0.002812
-0.002853
-0.002850
-0.002895
-0.002961
-0.002956
-0.002955
-0.002922
-0.003002
-0.002973
-0.002997
-0.002989
-0.002957
-0.002991
-0.003006
-0.003016
-0.003036
-0.002971
-0.002976
-0.002948
-0.002947
-0.002947
-0.002936
-0.002929
-0.002902
-0.002921
-0.002884
-0.002818
-0.002707
-0.002769
-0.002753
-0.002763
-0.002767
-0.002723
-0.002740
-0.002775
-0.002731
-0.002750
-0.002751
-0.002754
-0.002741
-0.002720
-0.002777
-0.002795
-0.002756
-0.002779
-0.002779
-0.002759
-0.002755
-0.002791
-0.002722
-0.002793
-0.002789
-0.002778
-0.002787
-0.002738
-0.002754
-0.002755
-0.002687
-0.002668
-0.002643
-0.002632
-0.002610
-0.002694
-0.002636
-0.002624
-0.002632
-0.002658
-0.002642
-0.002617
-0.002773
-0.002787
-0.002746
-0.002759
-0.002739
-0.002738
-0.002723
-0.002727
-0.002790
-0.002792
-0.002790
-0.002812
-0.002808
-0.002798
-0.002792
-0.002811
-0.002816
-0.002788
-0.002765
-0.002782
-0.002739
-0.002738
-0.002754
-0.002750
-0.002771
-0.002766
-0.002760
-0.002755
-0.002833
-0.002814
-0.002820
-0.002831
-0.002822
-0.002847
-0.002845
-0.002862
-0.002865
-0.002851
-0.002856
-0.002852
-0.002850
-0.002842
-0.002845
-0.002843
-0.002840
-0.002846
-0.002828
-0.002854
-0.002862
-0.002847
-0.002838
-0.002836
-0.002832
-0.002829
-0.002828
-0.002822
-0.002815
-0.002798
-0.002778
-0.002741
-0.002766
-0.002794
-0.002824
-0.002850
-0.002875
-0.002900
-0.002923
-0.002946
-0.002968
-0.002989
-0.003008
-0.003027
-0.003045
-0.003063
-0.003080
-0.003097
-0.003114
-0.003130
-0.003145
-0.003161
-0.003176
-0.003192
-0.003208
-0.003224
-0.003239
-0.003254
-0.003268
-0.003283
-0.003297
-0.003311
-0.003325
-0.003338
-0.003352
-0.003365
-0.003378
-0.003391
-0.003404
-0.003418
-0.003431
-0.003444
-0.003457
-0.003469
-0.003482
-0.003495
-0.003508
-0.003521
-0.003534
-0.003547
-0.003560
-0.003573
-0.003585
-0.003598
-0.003611
-0.003624
-0.003637
-0.003650
-0.003663
-0.003675
-0.003688
-0.003701
-0.003714
-0.003727
-0.003740
-0.003753
-0.003766
-0.003779
-0.003792
-0.003804
-0.003817
-0.003830
-0.003843
-0.003856
-0.003869
-0.003882
-0.003894
-0.003907
-0.003920
-0.003933
-0.003946
-0.003958
-0.003971
-0.003984
-0.003996
-0.004009
-0.004022
-0.004034
-0.004047
-0.004059
-0.004071
-0.004084
-0.004096
-0.004108
-0.004121
-0.004133
-0.004145
-0.004157
-0.004169
-0.004181
-0.004193
-0.004204
-0.004216
-0.004228
-0.004239
-0.004251
-0.004262
-0.004273
-0.004285
-0.004296
-0.004307
-0.004318
-0.004329
-0.004339
-0.004350
-0.004361
-0.004371
-0.004381
-0.004392
-0.004402
-0.004412
-0.004422
-0.004432
-0.004442
-0.004451
-0.004461
-0.004470
-0.004480
-0.004489
-0.004498
-0.004507
-0.004516
-0.004525
-0.004534
-0.004542
-0.004551
-0.004559
-0.004568
-0.004576
-0.004584
-0.004592
-0.004600
-0.005333
-0.005390
-0.005071
-0.004202
-0.004243
-0.004220
-0.005770
-0.005751
-0.005697
-0.005498
-0.005765
-0.004986
-0.005220
-0.004895
-0.004909
-0.004888
-0.004916
-0.004118
-0.004133
-0.004088
-0.006710
-0.006701
-0.006628
-0.006591
-0.004158
-0.006231
-0.006204
-0.006307
-0.004357
-0.004343
-0.004326
-0.006225
-0.005689
-0.005583
-0.005669
-0.004317
-0.006608
-0.006574
-0.006695
-0.006435
-0.005335
-0.005394
-0.005421
-0.004044
-0.004078
-0.004044
-0.006939
-0.006960
-0.006926
-0.004160
-0.004127
-0.004141
-0.006895
-0.006872
-0.006906
-0.004123
-0.006965
-0.006952
-0.006984
-0.006228
-0.006156
-0.006153
-0.004516
-0.004562
-0.004551
-0.004602
-0.007093
-0.007125
-0.007085
-0.007123
-0.006209
-0.006986
-0.006976
-0.006939
-0.006937
-0.005448
-0.006939
-0.006921
-0.006959
-0.005037
-0.004976
-0.004991
-0.004425
-0.004468
-0.004409
-0.004408
-0.005013
-0.006704
-0.006688
-0.006525
-0.006936
-0.006929
-0.006957
-0.006955
-0.004832
-0.004886
-0.004846
-0.004886
-0.006381
-0.006401
-0.006377
-0.004304
-0.004333
-0.004338
-0.004367
-0.006177
-0.006117
-0.006194
-0.006061
-0.004337
-0.009688
-0.009912
-0.009731
-0.004606
-0.009804
-0.005030
-0.005046
-0.005010
-0.006129
-0.006167
-0.006153
-0.006784
-0.006794
-0.006809
-0.004308
-0.004275
-0.005067
-0.006425
-0.006400
-0.004010
-0.006094
-0.005406
-0.005782
-0.004197
-0.006785
-0.006784
-0.006764
-0.005549
-0.005478
-0.005481
-0.005570
-0.006763
-0.006775
-0.006789
-0.008737
-0.008551
-0.008689
-0.008606
-0.008873
-0.008688
-0.008688
-0.007845
-0.007751
-0.007676
-0.008848
-0.006395
-0.006180
-0.005956
-0.005442
-0.006341
-0.006379
-0.006479
-0.006292
-0.004698
-0.004642
-0.004679
-0.004652
-0.005492
-0.005507
-0.005489
-0.003731
-0.003717
-0.003586
-0.006935
-0.006918
-0.006943
-0.006928
-0.004021
-0.004062
-0.004079
-0.003824
-0.009379
-0.009380
-0.009551
-0.009183
-0.004998
-0.004973
-0.004988
-0.004956
-0.005990
-0.006010
-0.006005
-0.005267
-0.005363
-0.005270
-0.006025
-0.008844
-0.008672
-0.008810
-0.005870
-0.005593
-0.004822
-0.004857
-0.004874
-0.004706
-0.004733
-0.004773
-0.007290
-0.007301
-0.007276
-0.008626
-0.006176
-0.006150
-0.006171
-0.006138
-0.006623
-0.006577
-0.006602
-0.006597
-0.007099
-0.007086
-0.007074
-0.007063
-0.007098
-0.007076
-0.007122
-0.007055
-0.006027
-0.006034
-0.006062
-0.006105
-0.006114
-0.006041
-0.007627
-0.007546
-0.007493
-0.007631
-0.004484
-0.004523
-0.004483
-0.007150
-0.007128
-0.007126
-0.007110
-0.006846
-0.006814
-0.006889
-0.006832
-0.006066
-0.006639
-0.006630
-0.006658
-0.007137
-0.007161
-0.007126
-0.007162
-0.006813
-0.006841
-0.006894
-0.006729
-0.006543
-0.006552
-0.006571
-0.006042
-0.006003
-0.006036
-0.006525
-0.006477
-0.006441
-0.006498
-0.004804
-0.005917
-0.006010
-0.005986
-0.006613
-0.006974
-0.006986
-0.007013
-0.006944
-0.006680
-0.006656
-0.006687
-0.006668
-0.006779
-0.006676
-0.006820
-0.005095
-0.005110
-0.005098
-0.006400
-0.006402
-0.006378
-0.005978
-0.005925
-0.005914
-0.005965
-0.004805
-0.004842
-0.004799
-0.004830
-0.005727
-0.005699
-0.005688
-0.007261
-0.007257
-0.007223
-0.007220
-0.004535
-0.004522
-0.004553
-0.008905
-0.008871
-0.008754
-0.004526
-0.008916
-0.009049
-0.008829
-0.009106
-0.007389
-0.007380
-0.007366
-0.007352
-0.006961
-0.006949
-0.006903
-0.006928
-0.005649
-0.005615
-0.005609
-0.005916
-0.005935
-0.005960
-0.005978
-0.004211
-0.004186
-0.004184
-0.006576
-0.006553
-0.006562
-0.005101
-0.005170
-0.005099
-0.005167
-0.007415
-0.007411
-0.007397
-0.007389
-0.005369
-0.005397
-0.005356
-0.005410
-0.007229
-0.007101
-0.007160
-0.007059
-0.005253
-0.005309
-0.005252
-0.005325
-0.004937
-0.004927
-0.004979
-0.004895
-0.006326
-0.006298
-0.006354
-0.006274
-0.006749
-0.006668
-0.006704
-0.005111
-0.007688
-0.007585
-0.007732
-0.007566
-0.007963
-0.007825
-0.007803
-0.007982
-0.010908
-0.011154
-0.010801
-0.005604
-0.005660
-0.005564
-0.006342
-0.006346
-0.006325
-0.007269
-0.007258
-0.007249
-0.005566
-0.006239
-0.006287
-0.006336
-0.006212
-0.005316
-0.005252
-0.005325
-0.005236
-0.007342
-0.007296
-0.007321
-0.007281
-0.006326
-0.005858
-0.005872
-0.005881
-0.007063
-0.007171
-0.007011
-0.005112
-0.005023
-0.005061
-0.006999
-0.007046
-0.006972
-0.005948
-0.005865
-0.005909
-0.007070
-0.004032
-0.004079
-0.004062
-0.004415
-0.004383
-0.004392
-0.006835
-0.006885
-0.006807
-0.006888
-0.006569
-0.006503
-0.006469
-0.006055
-0.006094
-0.006020
-0.006578
-0.005452
-0.005390
-0.005387
-0.006088
-0.005974
-0.006478
-0.006443
-0.006481
-0.005572
-0.005563
-0.005509
-0.006470
-0.006469
-0.006495
-0.006443
-0.005558
-0.005540
-0.005555
-0.005166
-0.005230
-0.005181
-0.005170
-0.005659
-0.005645
-0.006896
-0.006883
-0.006798
-0.004505
-0.004506
-0.004548
-0.007077
-0.007039
-0.006959
-0.005890
-0.005918
-0.005969
-0.006040
-0.005603
-0.005586
-0.005659
-0.005524
-0.006511
-0.006507
-0.006541
-0.006536
-0.004525
-0.004532
-0.004574
-0.004753
-0.004721
-0.004770
-0.004725
-0.004946
-0.004907
-0.004972
-0.004574
-0.005631
-0.005664
-0.005660
-0.005551
-0.005570
-0.005558
-0.005557
-0.005574
-0.005573
-0.005600
-0.005546
-0.006651
-0.006660
-0.006675
-0.006339
-0.006318
-0.006326
-0.006550
-0.006540
-0.006444
-0.006200
-0.006249
-0.006249
-0.006300
-0.005606
-0.005573
-0.005483
-0.006305
-0.006601
-0.006614
-0.006598
-0.006778
-0.006796
-0.006783
-0.006804
-0.006613
-0.005874
-0.005892
-0.005858
-0.005916
-0.004778
-0.004714
-0.004742
-0.007551
-0.007572
-0.007564
-0.007568
-0.005747
-0.005739
-0.005772
-0.005713
-0.006962
-0.006943
-0.006972
-0.007056
-0.007004
-0.007051
-0.004540
-0.005083
-0.004477
-0.006943
-0.007486
-0.007467
-0.007483
-0.006778
-0.006759
-0.007474
-0.007424
-0.007394
-0.004964
-0.007173
-0.007220
-0.007114
-0.007333
-0.007323
-0.005524
-0.005449
-0.005461
-0.007235
-0.007110
-0.007109
-0.007134
-0.007899
-0.007792
-0.007952
-0.007806
-0.004527
-0.004533
-0.004498
-0.006851
-0.006858
-0.006875
-0.006892
-0.007408
-0.007406
-0.007338
-0.004568
-0.007263
-0.007289
-0.007216
-0.006328
-0.006315
-0.006238
-0.006517
-0.006495
-0.007155
-0.007132
-0.007111
-0.005584
-0.005568
-0.005584
-0.005860
-0.005825
-0.005844
-0.007419
-0.007339
-0.007425
-0.005568
-0.004395
-0.004418
-0.004363
-0.006662
-0.006660
-0.006573
-0.006739
-0.007363
-0.007330
-0.007447
-0.007280
-0.007218
-0.005346
-0.005378
-0.005298
-0.005793
-0.005772
-0.005780
-0.005759
-0.004408
-0.004448
-0.004401
-0.005740
-0.005714
-0.005636
-0.004453
-0.004450
-0.004446
-0.004450
-0.004426
-0.004483
-0.004868
-0.004888
-0.004889
-0.006906
-0.006890
-0.006916
-0.006399
-0.006607
-0.006290
-0.006810
-0.006891
-0.006644
-0.006666
-0.006601
-0.006399
-0.006374
-0.006365
-0.006343
-0.007173
-0.007195
-0.007180
-0.007208
-0.007264
-0.007282
-0.007274
-0.005062
-0.005060
-0.005118
-0.005927
-0.005810
-0.005811
-0.004316
-0.004312
-0.004266
-0.006873
-0.006830
-0.006879
-0.006942
-0.004249
-0.004324
-0.004365
-0.007279
-0.004911
-0.005734
-0.005735
-0.005749
-0.006418
-0.006449
-0.006478
-0.006489
-0.006642
-0.006645
-0.006588
-0.005753
-0.004455
-0.004418
-0.004448
-0.006104
-0.006091
-0.006117
-0.006116
-0.006583
-0.006750
-0.006615
-0.006955
-0.006903
-0.006896
-0.006288
-0.006318
-0.006318
-0.006147
-0.006136
-0.006109
-0.006174
-0.007114
-0.007136
-0.007139
-0.007155
-0.004355
-0.004338
-0.004370
-0.006524
-0.006477
-0.006554
-0.004797
-0.004775
-0.004798
-0.005955
-0.005936
-0.005931
-0.005907
-0.004778
-0.006127
-0.006149
-0.006156
-0.006183
-0.009361
-0.009195
-0.009570
-0.004571
-0.004522
-0.004520
-0.007014
-0.007019
-0.007039
-0.006996
-0.005016
-0.004997
-0.005007
-0.004567
-0.007059
-0.007078
-0.007060
-0.006701
-0.006741
-0.006712
-0.006716
-0.007266
-0.007221
-0.007073
-0.004986
-0.004855
-0.004882
-0.004863
-0.005730
-0.005766
-0.005793
-0.006631
-0.006621
-0.006644
-0.006632
-0.004887
-0.004544
-0.004526
-0.004521
-0.006760
-0.006813
-0.006785
-0.006846
-0.005699
-0.007397
-0.007417
-0.007379
-0.007441
-0.006263
-0.006275
-0.006254
-0.006284
-0.006257
-0.006234
-0.006234
-0.006593
-0.006545
-0.006539
-0.006620
-0.005818
-0.005864
-0.005856
-0.005910
-0.005681
-0.005639
-0.006869
-0.006850
-0.006870
-0.005358
-0.005374
-0.005392
-0.005336
-0.005418
-0.005424
-0.006897
-0.006546
-0.006501
-0.006847
-0.004556
-0.005756
-0.005805
-0.005775
-0.004128
-0.004030
-0.004330
-0.005701
-0.007074
-0.007096
-0.007102
-0.003736
-0.007117
-0.005703
-0.005643
-0.005645
-0.005766
-0.005721
-0.005811
-0.006885
-0.006864
-0.006881
-0.006551
-0.006513
-0.006529
-0.006188
-0.006259
-0.006187
-0.005696
-0.005660
-0.005696
-0.004474
-0.004436
-0.004428
-0.006255
-0.006674
-0.006691
-0.006694
-0.006712
-0.005609
-0.005659
-0.005726
-0.005654
-0.005907
-0.005878
-0.005885
-0.007394
-0.007317
-0.007357
-0.007256
-0.007405
-0.007517
-0.007556
-0.005509
-0.005490
-0.005468
-0.005451
-0.006248
-0.006267
-0.006262
-0.005532
-0.005482
-0.005497
-0.007720
-0.005925
-0.005899
-0.005933
-0.005887
-0.007044
-0.007017
-0.007030
-0.005453
-0.007284
-0.007264
-0.007251
-0.005852
-0.004317
-0.005902
-0.005910
-0.005589
-0.006185
-0.006457
-0.006458
-0.006479
-0.006487
-0.007035
-0.007068
-0.007029
-0.007071
-0.007318
-0.007349
-0.007447
-0.007205
-0.007418
-0.007325
-0.007397
-0.006070
-0.006061
-0.006039
-0.006035
-0.004363
-0.005266
-0.005283
-0.005259
-0.005280
-0.006934
-0.006970
-0.006943
-0.004250
-0.004211
-0.004221
-0.005279
-0.005348
-0.005256
-0.006058
-0.006145
-0.006122
-0.006621
-0.006582
-0.006583
-0.006234
-0.006360
-0.006356
-0.005355
-0.005111
-0.006036
-0.006071
-0.006057
-0.006989
-0.006960
-0.006974
-0.006340
-0.006337
-0.004251
-0.004922
-0.004586
-0.005890
-0.005929
-0.005878
-0.007617
-0.007725
-0.007757
-0.007875
-0.004712
-0.004668
-0.004632
-0.006634
-0.006599
-0.006600
-0.006161
-0.006180
-0.006163
-0.006945
-0.006916
-0.006958
-0.005697
-0.005704
-0.005604
-0.010611
-0.010454
-0.010274
-0.007449
-0.007351
-0.007175
-0.007156
-0.007162
-0.007143
-0.006138
-0.006155
-0.006138
-0.010208
-0.006152
-0.006181
-0.006910
-0.006955
-0.007272
-0.007282
-0.007166
-0.006981
-0.006529
-0.005696
-0.005740
-0.005353
-0.005397
-0.005381
-0.006669
-0.006681
-0.006690
-0.006915
-0.006888
-0.006901
-0.004430
-0.004404
-0.004401
-0.008113
-0.008219
-0.008360
-0.006127
-0.006159
-0.006125
-0.006679
-0.006664
-0.006658
-0.006773
-0.006747
-0.006731
-0.006721
-0.005817
-0.005847
-0.005288
-0.005302
-0.005332
-0.005761
-0.005782
-0.005789
-0.005818
-0.005409
-0.005428
-0.005433
-0.006513
-0.006276
-0.006693
-0.007035
-0.007010
-0.006986
-0.007996
-0.006183
-0.006182
-0.006265
-0.005333
-0.005298
-0.005309
-0.006087
-0.005951
-0.006048
-0.005892
-0.007131
-0.007107
-0.007125
-0.006848
-0.006820
-0.006833
-0.006382
-0.006397
-0.006401
-0.006416
-0.009892
-0.009571
-0.009799
-0.006698
-0.006633
-0.006607
-0.006542
-0.007007
-0.007043
-0.009472
-0.006194
-0.006214
-0.006190
-0.005401
-0.010164
-0.009927
-0.006792
-0.005127
-0.005091
-0.005069
-0.009057
-0.009045
-0.006235
-0.006246
-0.006261
-0.006271
-0.007066
-0.007042
-0.007055
-0.005470
-0.005504
-0.005477
-0.005811
-0.005848
-0.006943
-0.006930
-0.006949
-0.006090
-0.006097
-0.006113
-0.005021
-0.006128
-0.006082
-0.006065
-0.006644
-0.006608
-0.006054
-0.005804
-0.005837
-0.005843
-0.005870
-0.008591
-0.008656
-0.006976
-0.006958
-0.006952
-0.006814
-0.006840
-0.006828
-0.006529
-0.006511
-0.006496
-0.006569
-0.008482
-0.006623
-0.006586
-0.007100
-0.007084
-0.007085
-0.007066
-0.006785
-0.006756
-0.006770
-0.006886
-0.006811