# vtk DataFile Version 2.0
Test
ASCII
DATASET POLYDATA
POINTS 26238 float
0.000000 0.000000 0.000000
2.000000 0.000000 0.000000
2.000000 4.000000 0.000000
0.000000 4.000000 0.000000
0.000000 0.500000 0.000000
1.500000 2.000000 0.000000
2.000000 2.500000 0.000000
0.100000 0.000000 0.000000
0.200000 0.000000 0.000000
0.300000 0.000000 0.000000
0.400000 0.000000 0.000000
0.500000 0.000000 0.000000
0.600000 0.000000 0.000000
0.700000 0.000000 0.000000
0.800000 0.000000 0.000000
0.900000 0.000000 0.000000
1.000000 0.000000 0.000000
1.100000 0.000000 0.000000
1.200000 0.000000 0.000000
1.300000 0.000000 0.000000
1.400000 0.000000 0.000000
1.500000 0.000000 0.000000
1.600000 0.000000 0.000000
1.700000 0.000000 0.000000
1.800000 0.000000 0.000000
1.900000 0.000000 0.000000
2.000000 0.097923 0.000000
2.000000 0.192202 0.000000
2.000000 0.282973 0.000000
2.000000 0.370366 0.000000
2.000000 0.454507 0.000000
2.000000 0.535518 0.000000
2.000000 0.613513 0.000000
2.000000 0.688607 0.000000
2.000000 0.760906 0.000000
2.000000 0.830515 0.000000
2.000000 0.897534 0.000000
2.000000 0.962059 0.000000
2.000000 1.024183 0.000000
2.000000 1.083995 0.000000
2.000000 1.141582 0.000000
2.000000 1.197026 0.000000
2.000000 1.250406 0.000000
2.000000 1.301801 0.000000
2.000000 1.351283 0.000000
2.000000 1.398923 0.000000
2.000000 1.444791 0.000000
2.000000 1.488953 0.000000
2.000000 1.531470 0.000000
2.000000 1.572406 0.000000
2.000000 1.611819 0.000000
2.000000 1.649765 0.000000
2.000000 1.686299 0.000000
2.000000 1.721473 0.000000
2.000000 1.755339 0.000000
2.000000 1.787944 0.000000
2.000000 1.819337 0.000000
2.000000 1.849561 0.000000
2.000000 1.878660 0.000000
2.000000 1.906677 0.000000
2.000000 1.933651 0.000000
2.000000 1.959621 0.000000
2.000000 1.984625 0.000000
2.000000 2.008699 0.000000
2.000000 2.031877 0.000000
2.000000 2.054192 0.000000
2.000000 2.075677 0.000000
2.000000 2.096362 0.000000
2.000000 2.116278 0.000000
2.000000 2.135453 0.000000
2.000000 2.153914 0.000000
2.000000 2.171688 0.000000
2.000000 2.188801 0.000000
2.000000 2.205277 0.000000
2.000000 2.221140 0.000000
2.000000 2.236413 0.000000
2.000000 2.251117 0.000000
2.000000 2.265274 0.000000
2.000000 2.278905 0.000000
2.000000 2.292028 0.000000
2.000000 2.304663 0.000000
2.000000 2.316828 0.000000
2.000000 2.328540 0.000000
2.000000 2.339816 0.000000
2.000000 2.350673 0.000000
2.000000 2.361126 0.000000
2.000000 2.371189 0.000000
2.000000 2.380879 0.000000
2.000000 2.390207 0.000000
2.000000 2.399189 0.000000
2.000000 2.407836 0.000000
2.000000 2.416162 0.000000
2.000000 2.424178 0.000000
2.000000 2.431895 0.000000
2.000000 2.439326 0.000000
2.000000 2.446480 0.000000
2.000000 2.453367 0.000000
2.000000 2.459999 0.000000
2.000000 2.466383 0.000000
2.000000 2.472530 0.000000
2.000000 2.478449 0.000000
2.000000 2.484147 0.000000
2.000000 2.489633 0.000000
2.000000 2.494915 0.000000
2.000000 2.505084 0.000000
2.000000 2.510496 0.000000
2.000000 2.516256 0.000000
2.000000 2.522387 0.000000
2.000000 2.528913 0.000000
2.000000 2.535859 0.000000
2.000000 2.543253 0.000000
2.000000 2.551122 0.000000
2.000000 2.559499 0.000000
2.000000 2.568415 0.000000
2.000000 2.577905 0.000000
2.000000 2.588006 0.000000
2.000000 2.598758 0.000000
2.000000 2.610202 0.000000
2.000000 2.622383 0.000000
2.000000 2.635349 0.000000
2.000000 2.649149 0.000000
2.000000 2.663839 0.000000
2.000000 2.679474 0.000000
2.000000 2.696116 0.000000
2.000000 2.713831 0.000000
2.000000 2.732685 0.000000
2.000000 2.752754 0.000000
2.000000 2.774116 0.000000
2.000000 2.796853 0.000000
2.000000 2.821055 0.000000
2.000000 2.846815 0.000000
2.000000 2.874234 0.000000
2.000000 2.903419 0.000000
2.000000 2.934483 0.000000
2.000000 2.967548 0.000000
2.000000 3.002742 0.000000
2.000000 3.040202 0.000000
2.000000 3.080076 0.000000
2.000000 3.122517 0.000000
2.000000 3.167691 0.000000
2.000000 3.215774 0.000000
2.000000 3.266954 0.000000
2.000000 3.321430 0.000000
2.000000 3.379414 0.000000
2.000000 3.441132 0.000000
2.000000 3.506825 0.000000
2.000000 3.576749 0.000000
2.000000 3.651175 0.000000
2.000000 3.730395 0.000000
2.000000 3.814717 0.000000
2.000000 3.904468 0.000000
1.900000 4.000000 0.000000
1.800000 4.000000 0.000000
1.700000 4.000000 0.000000
1.600000 4.000000 0.000000
1.500000 4.000000 0.000000
1.400000 4.000000 0.000000
1.300000 4.000000 0.000000
1.200000 4.000000 0.000000
1.100000 4.000000 0.000000
1.000000 4.000000 0.000000
0.900000 4.000000 0.000000
0.800000 4.000000 0.000000
0.700000 4.000000 0.000000
0.600000 4.000000 0.000000
0.500000 4.000000 0.000000
0.400000 4.000000 0.000000
0.300000 4.000000 0.000000
0.200000 4.000000 0.000000
0.100000 4.000000 0.000000
0.000000 3.901898 0.000000
0.000000 3.806409 0.000000
0.000000 3.713462 0.000000
0.000000 3.622990 0.000000
0.000000 3.534927 0.000000
0.000000 3.449209 0.000000
0.000000 3.365773 0.000000
0.000000 3.284559 0.000000
0.000000 3.205508 0.000000
0.000000 3.128561 0.000000
0.000000 3.053664 0.000000
0.000000 2.980761 0.000000
0.000000 2.909799 0.000000
0.000000 2.840727 0.000000
0.000000 2.773493 0.000000
0.000000 2.708051 0.000000
0.000000 2.644350 0.000000
0.000000 2.582346 0.000000
0.000000 2.521993 0.000000
0.000000 2.463247 0.000000
0.000000 2.406065 0.000000
0.000000 2.350406 0.000000
0.000000 2.296229 0.000000
0.000000 2.243495 0.000000
0.000000 2.192165 0.000000
0.000000 2.142201 0.000000
0.000000 2.093568 0.000000
0.000000 2.046230 0.000000
0.000000 2.000153 0.000000
0.000000 1.955302 0.000000
0.000000 1.911646 0.000000
0.000000 1.869152 0.000000
0.000000 1.827789 0.000000
0.000000 1.787528 0.000000
0.000000 1.748339 0.000000
0.000000 1.710194 0.000000
0.000000 1.673064 0.000000
0.000000 1.636923 0.000000
0.000000 1.601745 0.000000
0.000000 1.567503 0.000000
0.000000 1.534172 0.000000
0.000000 1.501730 0.000000
0.000000 1.470151 0.000000
0.000000 1.439413 0.000000
0.000000 1.409494 0.000000
0.000000 1.380371 0.000000
0.000000 1.352024 0.000000
0.000000 1.324431 0.000000
0.000000 1.297573 0.000000
0.000000 1.271431 0.000000
0.000000 1.245984 0.000000
0.000000 1.221215 0.000000
0.000000 1.197106 0.000000
0.000000 1.173639 0.000000
0.000000 1.150796 0.000000
0.000000 1.128562 0.000000
0.000000 1.106920 0.000000
0.000000 1.085854 0.000000
0.000000 1.065349 0.000000
0.000000 1.045390 0.000000
0.000000 1.025962 0.000000
0.000000 1.007052 0.000000
0.000000 0.988645 0.000000
0.000000 0.970729 0.000000
0.000000 0.953289 0.000000
0.000000 0.936314 0.000000
0.000000 0.919791 0.000000
0.000000 0.903708 0.000000
0.000000 0.888053 0.000000
0.000000 0.872815 0.000000
0.000000 0.857983 0.000000
0.000000 0.843545 0.000000
0.000000 0.829492 0.000000
0.000000 0.815814 0.000000
0.000000 0.802499 0.000000
0.000000 0.789539 0.000000
0.000000 0.776925 0.000000
0.000000 0.764646 0.000000
0.000000 0.752694 0.000000
0.000000 0.741060 0.000000
0.000000 0.729736 0.000000
0.000000 0.718714 0.000000
0.000000 0.707985 0.000000
0.000000 0.697541 0.000000
0.000000 0.687376 0.000000
0.000000 0.677482 0.000000
0.000000 0.667851 0.000000
0.000000 0.658476 0.000000
0.000000 0.649351 0.000000
0.000000 0.640469 0.000000
0.000000 0.631824 0.000000
0.000000 0.623409 0.000000
0.000000 0.615217 0.000000
0.000000 0.607244 0.000000
0.000000 0.599484 0.000000
0.000000 0.591929 0.000000
0.000000 0.584577 0.000000
0.000000 0.577419 0.000000
0.000000 0.570453 0.000000
0.000000 0.563672 0.000000
0.000000 0.557071 0.000000
0.000000 0.550646 0.000000
0.000000 0.544393 0.000000
0.000000 0.538306 0.000000
0.000000 0.532380 0.000000
0.000000 0.526613 0.000000
0.000000 0.520999 0.000000
0.000000 0.515535 0.000000
0.000000 0.510216 0.000000
0.000000 0.505039 0.000000
0.000000 0.494581 0.000000
0.000000 0.488047 0.000000
0.000000 0.480167 0.000000
0.000000 0.470665 0.000000
0.000000 0.459206 0.000000
0.000000 0.445387 0.000000
0.000000 0.428723 0.000000
0.000000 0.408628 0.000000
0.000000 0.384395 0.000000
0.000000 0.355172 0.000000
0.000000 0.319933 0.000000
0.000000 0.277436 0.000000
0.000000 0.226190 0.000000
0.000000 0.164392 0.000000
0.000000 0.089868 0.000000
0.003529 0.503529 0.000000
0.007059 0.507059 0.000000
0.010588 0.510588 0.000000
0.014118 0.514118 0.000000
0.017647 0.517647 0.000000
0.021176 0.521176 0.000000
0.024706 0.524706 0.000000
0.028235 0.528235 0.000000
0.031765 0.531765 0.000000
0.035294 0.535294 0.000000
0.038824 0.538824 0.000000
0.042353 0.542353 0.000000
0.045882 0.545882 0.000000
0.049412 0.549412 0.000000
0.052941 0.552941 0.000000
0.056471 0.556471 0.000000
0.060000 0.560000 0.000000
0.063529 0.563529 0.000000
0.067059 0.567059 0.000000
0.070588 0.570588 0.000000
0.074118 0.574118 0.000000
0.077647 0.577647 0.000000
0.081176 0.581176 0.000000
0.084706 0.584706 0.000000
0.088235 0.588235 0.000000
0.091765 0.591765 0.000000
0.095294 0.595294 0.000000
0.098824 0.598824 0.000000
0.102353 0.602353 0.000000
0.105882 0.605882 0.000000
0.109412 0.609412 0.000000
0.112941 0.612941 0.000000
0.116471 0.616471 0.000000
0.120000 0.620000 0.000000
0.123529 0.623529 0.000000
0.127059 0.627059 0.000000
0.130588 0.630588 0.000000
0.134118 0.634118 0.000000
0.137647 0.637647 0.000000
0.141176 0.641176 0.000000
0.144706 0.644706 0.000000
0.148235 0.648235 0.000000
0.151765 0.651765 0.000000
0.155294 0.655294 0.000000
0.158824 0.658824 0.000000
0.162353 0.662353 0.000000
0.165882 0.665882 0.000000
0.169412 0.669412 0.000000
0.172941 0.672941 0.000000
0.176471 0.676471 0.000000
0.180000 0.680000 0.000000
0.183529 0.683529 0.000000
0.187059 0.687059 0.000000
0.190588 0.690588 0.000000
0.194118 0.694118 0.000000
0.197647 0.697647 0.000000
0.201176 0.701176 0.000000
0.204706 0.704706 0.000000
0.208235 0.708235 0.000000
0.211765 0.711765 0.000000
0.215294 0.715294 0.000000
0.218824 0.718824 0.000000
0.222353 0.722353 0.000000
0.225882 0.725882 0.000000
0.229412 0.729412 0.000000
0.232941 0.732941 0.000000
0.236471 0.736471 0.000000
0.240000 0.740000 0.000000
0.243529 0.743529 0.000000
0.247059 0.747059 0.000000
0.250588 0.750588 0.000000
0.254118 0.754118 0.000000
[...]
POINT_DATA 26238
SCALARS UX float 1
LOOKUP_TABLE default
-0.000000
0.000000
-0.007261
-0.010255
-0.002418
-0.001911
-0.003217
-0.000000
-0.000000
-0.000000
-0.000000
-0.000000
-0.000000
-0.000000
-0.000000
-0.000000
-0.000000
0.000000
0.000000
0.000000
0.000000
0.000000
0.000000
0.000000
0.000000
0.000000
0.000487
0.000765
0.000961
0.001100
0.001202
0.001277
0.001329
0.001363
0.001384
0.001393
0.001393
0.001385
0.001370
0.001348
0.001321
0.001288
0.001251
0.001209
0.001162
0.001110
0.001053
0.000991
0.000924
0.000850
0.000770
0.000684
0.000591
0.000491
0.000385
0.000273
0.000154
0.000031
-0.000096
-0.000228
-0.000361
-0.000495
-0.000629
-0.000762
-0.000892
-0.001020
-0.001144
-0.001263
-0.001378
-0.001489
-0.001594
-0.001694
-0.001790
-0.001880
-0.001966
-0.002047
-0.002124
-0.002197
-0.002266
-0.002331
-0.002392
-0.002451
-0.002506
-0.002558
-0.002608
-0.002655
-0.002699
-0.002742
-0.002782
-0.002820
-0.002856
-0.002891
-0.002924
-0.002955
-0.002985
-0.003013
-0.003040
-0.003066
-0.003091
-0.003114
-0.003137
-0.003158
-0.003179
-0.003198
-0.003236
-0.003255
-0.003276
-0.003298
-0.003321
-0.003346
-0.003372
-0.003399
-0.003428
-0.003458
-0.003490
-0.003524
-0.003559
-0.003597
-0.003636
-0.003677
-0.003721
-0.003766
-0.003814
-0.003864
-0.003917
-0.003973
-0.004031
-0.004092
-0.004156
-0.004224
-0.004295
-0.004369
-0.004448
-0.004530
-0.004617
-0.004709
-0.004806
-0.004908
-0.005016
-0.005131
-0.005253
-0.005381
-0.005518
-0.005665
-0.005820
-0.005987
-0.006165
-0.006354
-0.006558
-0.006777
-0.007011
-0.007417
-0.007573
-0.007728
-0.007882
-0.008033
-0.008181
-0.008327
-0.008471
-0.008614
-0.008755
-0.008897
-0.009041
-0.009185
-0.009332
-0.009482
-0.009633
-0.009787
-0.009942
-0.010099
-0.010006
-0.009762
-0.009524
-0.009290
-0.009062
-0.008838
-0.008620
-0.008407
-0.008201
-0.008001
-0.007808
-0.007622
-0.007443
-0.007272
-0.007109
-0.006953
-0.006806
-0.006668
-0.006539
-0.006418
-0.006305
-0.006201
-0.006105
-0.006017
-0.005937
-0.005865
-0.005799
-0.005741
-0.005688
-0.005642
-0.005601
-0.005564
-0.005533
-0.005506
-0.005483
-0.005463
-0.005446
-0.005432
-0.005421
-0.005412
-0.005405
-0.005400
-0.005396
-0.005393
-0.005392
-0.005391
-0.005392
-0.005393
-0.005395
-0.005397
-0.005399
-0.005402
-0.005405
-0.005408
-0.005412
-0.005415
-0.005419
-0.005422
-0.005425
-0.005429
-0.005432
-0.005436
-0.005439
-0.005442
-0.005445
-0.005448
-0.005451
-0.005454
-0.005456
-0.005459
-0.005461
-0.005463
-0.005465
-0.005466
-0.005468
-0.005469
-0.005470
-0.005471
-0.005472
-0.005472
-0.005471
-0.005470
-0.005468
-0.005466
-0.005463
-0.005460
-0.005456
-0.005452
-0.005448
-0.005443
-0.005438
-0.005432
-0.005424
-0.005416
-0.005407
-0.005397
-0.005385
-0.005375
-0.005367
-0.005360
-0.005349
-0.005341
-0.005332
-0.005313
-0.005278
-0.005207
-0.005147
-0.004860
-0.004272
-0.003532
-0.001770
-0.001588
-0.001455
-0.001371
-0.001305
-0.001253
-0.001210
-0.001169
-0.001127
-0.001079
-0.001023
-0.000949
-0.000843
-0.000692
-0.000463
-0.002317
-0.002212
-0.002423
-0.002467
-0.002454
-0.002508
-0.002501
-0.002620
-0.002640
-0.002634
-0.002771
-0.002764
-0.002790
-0.002790
-0.002787
-0.002874
-0.002885
-0.002913
-0.002900
-0.002911
-0.002957
-0.002956
-0.002956
-0.003003
-0.002940
-0.002976
-0.002942
-0.002944
-0.002943
-0.002953
-0.002952
-0.002942
-0.002914
-0.002933
-0.002927
-0.002947
-0.002935
-0.002954
-0.002940
-0.002957
-0.002947
-0.002886
-0.002939
-0.002918
-0.002903
-0.002906
-0.002979
-0.002928
-0.002928
-0.002939
-0.002910
-0.003225
-0.003209
-0.003169
-0.003160
-0.003128
-0.003144
-0.003101
-0.003094
-0.003051
-0.003058
-0.003156
-0.003108
-0.003079
-0.003105
-0.003120
-0.003114
-0.003143
-0.003132
-0.003095
-0.003132
-0.003124
-0.003119
-0.003016
-0.003047
-0.003054
-0.003052
-0.003033
-0.003007
-0.003004
-0.002947
-0.002952
-0.002933
-0.002906
-0.002916
-0.002886
-0.002867
-0.002892
-0.003125
-0.003131
-0.003105
-0.003098
-0.003073
-0.003048
-0.003028
-0.002994
-0.002975
-0.002950
-0.002983
-0.002977
-0.002952
-0.003000
-0.002955
-0.002964
-0.002973
-0.003026
-0.003028
-0.002984
-0.002973
-0.002940
-0.002959
-0.002930
-0.002906
-0.002882
-0.002871
-0.002835
-0.002834
-0.002785
-0.002986
-0.002962
-0.002952
-0.002979
-0.002923
-0.002903
-0.002893
-0.002918
-0.002915
-0.002891
-0.002895
-0.002911
-0.002886
-0.002886
-0.002894
-0.002894
-0.002883
-0.002839
-0.002860
-0.002862
-0.002828
-0.002793
-0.002793
-0.002811
-0.002795
-0.002791
-0.002831
-0.002788
-0.002781
-0.002775
-0.002763
-0.002782
-0.002748
-0.002706
-0.002692
-0.002663
-0.002676
-0.002635
-0.002624
-0.002620
-0.002613
-0.002591
-0.002617
-0.002576
-0.002551
-0.002560
-0.002549
-0.002543
-0.002525
-0.002527
-0.002497
-0.002486
-0.002486
-0.002488
-0.002463
-0.002434
-0.002432
-0.002404
-0.002424
-0.002395
-0.002381
-0.002379
-0.002547
-0.002527
-0.002501
-0.002490
-0.002488
-0.002494
-0.002490
-0.002455
-0.002459
-0.002441
-0.002436
-0.002441
-0.002449
-0.002441
-0.002447
-0.002436
-0.002429
-0.002428
-0.002460
-0.002455
-0.002449
-0.002483
-0.002474
-0.002469
-0.002488
-0.002434
-0.002472
-0.002434
-0.002427
-0.002426
-0.002393
-0.002397
-0.002410
-0.002388
-0.002401
-0.002409
-0.002393
-0.002396
-0.002400
-0.002402
-0.002379
-0.002375
-0.002339
-0.002360
-0.002295
-0.002283
-0.002275
-0.002251
-0.002264
-0.002264
-0.002293
-0.002293
-0.002308
-0.002311
-0.002283
-0.002260
-0.002251
-0.002206
-0.002320
-0.002349
-0.002330
-0.002316
-0.002304
-0.002291
-0.002291
-0.002265
-0.002270
-0.002275
-0.002273
-0.002266
-0.002246
-0.002279
-0.002254
-0.002272
-0.002254
-0.002253
-0.002247
-0.002215
-0.002210
-0.002200
-0.002184
-0.002194
-0.002198
-0.002178
-0.002153
-0.002174
-0.002173
-0.002176
-0.002196
-0.002206
-0.002196
-0.002176
-0.002201
-0.002197
-0.002207
-0.002204
-0.002197
-0.002171
-0.002153
-0.002168
-0.002167
-0.002177
-0.002171
-0.002174
-0.002171
-0.002169
-0.002143
-0.002138
-0.002122
-0.002144
-0.002159
-0.002133
-0.002116
-0.002102
-0.002111
-0.002072
-0.002067
-0.002036
-0.002124
-0.002116
-0.002091
-0.002096
-0.002100
-0.002104
-0.002098
-0.002103
-0.002091
-0.002069
-0.002101
-0.002066
-0.002073
-0.002052
-0.002062
-0.002046
-0.002033
-0.002030
-0.001998
-0.002002
-0.001989
-0.001964
-0.001982
-0.001973
-0.001974
-0.001978
-0.001955
-0.001998
-0.001960
-0.001933
-0.001962
-0.001946
-0.001951
-0.001952
-0.001914
-0.001937
-0.001934
-0.001935
-0.001943
-0.001931
-0.001940
-0.001910
-0.001938
-0.001955
-0.001919
-0.001940
-0.001919
-0.001950
-0.001966
-0.001965
-0.001947
-0.001965
-0.001938
-0.001954
-0.001940
-0.001805
-0.001811
-0.001814
-0.001805
-0.001740
-0.001809
-0.001770
-0.001761
-0.001756
-0.001917
-0.001905
-0.001895
-0.001905
-0.001913
-0.001896
-0.001896
-0.001900
-0.001868
-0.001871
-0.001837
-0.002012
-0.001986
-0.001964
-0.001976
-0.001948
-0.001937
-0.001936
-0.001935
-0.001942
-0.001939
-0.001925
-0.001924
-0.001917
-0.001921
-0.001904
-0.001915
-0.001922
-0.001920
-0.001942
-0.001944
-0.001945
-0.001974
-0.001977
-0.001981
-0.001973
-0.001989
-0.001983
-0.001982
-0.001987
-0.001995
-0.001992
-0.001986
-0.001985
-0.001981
-0.001983
-0.001981
-0.001980
-0.001983
-0.001970
-0.001989
-0.001995
-0.001984
-0.001977
-0.001975
-0.001972
-0.001969
-0.001969
-0.001964
-0.001959
-0.001946
-0.001932
-0.001905
-0.001923
-0.001943
-0.001964
-0.001983
-0.002001
-0.002018
-0.002035
-0.002052
-0.002067
-0.002082
-0.002096
-0.002109
-0.002122
-0.002135
-0.002147
-0.002159
-0.002171
-0.002182
-0.002193
-0.002204
-0.002215
-0.002226
-0.002238
-0.002249
-0.002259
-0.002270
-0.002280
-0.002290
-0.002300
-0.002310
-0.002319
-0.002329
-0.002338
-0.002348
-0.002357
-0.002366
-0.002376
-0.002385
-0.002394
-0.002403
-0.002412
-0.002421
-0.002430
-0.002439
-0.002448
-0.002457
-0.002466
-0.002475
-0.002484
-0.002493
-0.002502
-0.002511
-0.002520
-0.002530
-0.002539
-0.002548
-0.002557
-0.002566
-0.002575
-0.002584
-0.002593
-0.002602
-0.002611
-0.002620
-0.002629
-0.002638
-0.002647
-0.002656
-0.002665
-0.002674
-0.002683
-0.002692
-0.002701
-0.002710
-0.002719
-0.002728
-0.002737
-0.002746
-0.002755
-0.002764
-0.002773
-0.002782
-0.002791
-0.002799
-0.002808
-0.002817
-0.002826
-0.002834
-0.002843
-0.002852
-0.002860
-0.002869
-0.002877
-0.002886
-0.002894
-0.002903
-0.002911
-0.002920
-0.002928
-0.002936
-0.002944
-0.002952
-0.002960
-0.002968
-0.002976
-0.002984
-0.002992
-0.003000
-0.003008
-0.003015
-0.003023
-0.003030
-0.003038
-0.003045
-0.003052
-0.003060
-0.003067
-0.003074
-0.003081
-0.003088
-0.003095
-0.003102
-0.003108
-0.003115
-0.003122
-0.003128
-0.003135
-0.003141
-0.003147
-0.003153
-0.003160
-0.003166
-0.003172
-0.003177
-0.003183
-0.003189
-0.003195
-0.003200
-0.003206
-0.003212
-0.003777
-0.003814
-0.003570
-0.002936
-0.002965
-0.002948
-0.004079
-0.004066
-0.004027
-0.003895
-0.004070
-0.003518
-0.003680
-0.003474
-0.003485
-0.003470
-0.003489
-0.002877
-0.002888
-0.002856
-0.004767
-0.004762
-0.004707
-0.004678
-0.002906
-0.004392
-0.004372
-0.004445
-0.003044
-0.003034
-0.003021
-0.004387
-0.004014
-0.003938
-0.003999
-0.003015
-0.004684
-0.004665
-0.004754
-0.004556
-0.003786
-0.003831
-0.003849
-0.002825
-0.002849
-0.002824
-0.004943
-0.004958
-0.004932
-0.002906
-0.002882
-0.002892
-0.004909
-0.004892
-0.004918
-0.002880
-0.004959
-0.004949
-0.004974
-0.004399
-0.004348
-0.004345
-0.003158
-0.003191
-0.003183
-0.003219
-0.005057
-0.005079
-0.005050
-0.005079
-0.004386
-0.004975
-0.004968
-0.004938
-0.004939
-0.003871
-0.004962
-0.004949
-0.004977
-0.003531
-0.003488
-0.003498
-0.003095
-0.003126
-0.003084
-0.003083
-0.003515
-0.004757
-0.004748
-0.004579
-0.004959
-0.004955
-0.004974
-0.004974
-0.003415
-0.003454
-0.003426
-0.003455
-0.004557
-0.004571
-0.004554
-0.003007
-0.003028
-0.003031
-0.003052
-0.004383
-0.004340
-0.004394
-0.004300
-0.003029
-0.006852
-0.007012
-0.006885
-0.003222
-0.006933
-0.003562
-0.003574
-0.003548
-0.004370
-0.004397
-0.004387
-0.004850
-0.004857
-0.004868
-0.003010
-0.002986
-0.003589
-0.004589
-0.004570
-0.002801
-0.004288
-0.003789
-0.004129
-0.002931
-0.004844
-0.004842
-0.004828
-0.003921
-0.003872
-0.003873
-0.003938
-0.004829
-0.004838
-0.004848
-0.006158
-0.006025
-0.006121
-0.006065
-0.006281
-0.006151
-0.006149
-0.005565
-0.005500
-0.005444
-0.006265
-0.004543
-0.004398
-0.004224
-0.003989
-0.004451
-0.004476
-0.004548
-0.004415
-0.003307
-0.003267
-0.003293
-0.003274
-0.003912
-0.003923
-0.003910
-0.002620
-0.002609
-0.002513
-0.004944
-0.004932
-0.004950
-0.004940
-0.002830
-0.002860
-0.002874
-0.002687
-0.006655
-0.006653
-0.006776
-0.006515
-0.003544
-0.003526
-0.003536
-0.003514
-0.004270
-0.004285
-0.004280
-0.003693
-0.003762
-0.003696
-0.004295
-0.006237
-0.006114
-0.006211
-0.004152
-0.003878
-0.003399
-0.003424
-0.003436
-0.003293
-0.003312
-0.003340
-0.005211
-0.005218
-0.005200
-0.006083
-0.004407
-0.004388
-0.004404
-0.004379
-0.004730
-0.004696
-0.004715
-0.004711
-0.005076
-0.005066
-0.005058
-0.005049
-0.005078
-0.005061
-0.005095
-0.005046
-0.004308
-0.004310
-0.004332
-0.004320
-0.004328
-0.004275
-0.005438
-0.005381
-0.005342
-0.005443
-0.003134
-0.003162
-0.003134
-0.005110
-0.005095
-0.005094
-0.005082
-0.004885
-0.004862
-0.004916
-0.004874
-0.004333
-0.004751
-0.004744
-0.004764
-0.005103
-0.005120
-0.005095
-0.005122
-0.004848
-0.004867
-0.004905
-0.004787
-0.004674
-0.004680
-0.004694
-0.004303
-0.004275
-0.004299
-0.004661
-0.004616
-0.004589
-0.004630
-0.003386
-0.004181
-0.004246
-0.004230
-0.004733
-0.004988
-0.004996
-0.005016
-0.004966
-0.004775
-0.004757
-0.004779
-0.004733
-0.004813
-0.004741
-0.004844
-0.003618
-0.003629
-0.003621
-0.004570
-0.004571
-0.004554
-0.004250
-0.004213
-0.004204
-0.004242
-0.003359
-0.003385
-0.003355
-0.003376
-0.004074
-0.004055
-0.004046
-0.005196
-0.005193
-0.005169
-0.005167
-0.003168
-0.003158
-0.003180
-0.006333
-0.006311
-0.006226
-0.003161
-0.006338
-0.006435
-0.006278
-0.006473
-0.005281
-0.005275
-0.005265
-0.005255
-0.004976
-0.004968
-0.004935
-0.004953
-0.004013
-0.003989
-0.003984
-0.004213
-0.004226
-0.004245
-0.004257
-0.002941
-0.002924
-0.002922
-0.004699
-0.004683
-0.004689
-0.003570
-0.003619
-0.003569
-0.003616
-0.005296
-0.005293
-0.005283
-0.005277
-0.003808
-0.003829
-0.003800
-0.003838
-0.005144
-0.005053
-0.005093
-0.005021
-0.003719
-0.003760
-0.003720
-0.003771
-0.003453
-0.003446
-0.003483
-0.003423
-0.004514
-0.004494
-0.004534
-0.004477
-0.004814
-0.004755
-0.004780
-0.003629
-0.005471
-0.005396
-0.005501
-0.005384
-0.005656
-0.005560
-0.005542
-0.005672
-0.007687
-0.007866
-0.007614
-0.003924
-0.003965
-0.003897
-0.004532
-0.004535
-0.004520
-0.005190
-0.005181
-0.005175
-0.003898
-0.004434
-0.004467
-0.004503
-0.004413
-0.003723
-0.003677
-0.003729
-0.003667
-0.005255
-0.005222
-0.005240
-0.005211
-0.004521
-0.004177
-0.004187
-0.004194
-0.005116
-0.005175
-0.005089
-0.003582
-0.003519
-0.003545
-0.005001
-0.005036
-0.004982
-0.004215
-0.004155
-0.004187
-0.005053
-0.002822
-0.002855
-0.002844
-0.003084
-0.003061
-0.003068
-0.004880
-0.004916
-0.004860
-0.004918
-0.004661
-0.004615
-0.004589
-0.004301
-0.004330
-0.004277
-0.004669
-0.003819
-0.003776
-0.003773
-0.004310
-0.004228
-0.004626
-0.004600
-0.004629
-0.003904
-0.003898
-0.003860
-0.004621
-0.004620
-0.004638
-0.004601
-0.003959
-0.003945
-0.003956
-0.003614
-0.003660
-0.003625
-0.003616
-0.003966
-0.003955
-0.004890
-0.004882
-0.004820
-0.003151
-0.003151
-0.003181
-0.005017
-0.004991
-0.004933
-0.004164
-0.004183
-0.004220
-0.004270
-0.003967
-0.003953
-0.004006
-0.003933
-0.004658
-0.004655
-0.004679
-0.004675
-0.003190
-0.003194
-0.003225
-0.003321
-0.003299
-0.003333
-0.003302
-0.003463
-0.003436
-0.003482
-0.003224
-0.004004
-0.004028
-0.004026
-0.003955
-0.003968
-0.003960
-0.003959
-0.003966
-0.003964
-0.003986
-0.003943
-0.004756
-0.004762
-0.004772
-0.004528
-0.004513
-0.004518
-0.004643
-0.004637
-0.004567
-0.004416
-0.004451
-0.004451
-0.004488
-0.003930
-0.003907
-0.003842
-0.004503
-0.004719
-0.004729
-0.004717
-0.004845
-0.004857
-0.004847
-0.004861
-0.004728
-0.004188
-0.004201
-0.004177
-0.004218
-0.003345
-0.003300
-0.003319
-0.005394
-0.005409
-0.005404
-0.005407
-0.004095
-0.004089
-0.004112
-0.004071
-0.004974
-0.004961
-0.004982
-0.005023
-0.004982
-0.005020
-0.003178
-0.003594
-0.003129
-0.004960
-0.005347
-0.005333
-0.005345
-0.004846
-0.004832
-0.005340
-0.005305
-0.005282
-0.003493
-0.005108
-0.005143
-0.005067
-0.005239
-0.005230
-0.003913
-0.003859
-0.003867
-0.005168
-0.005083
-0.005083
-0.005101
-0.005594
-0.005517
-0.005630
-0.005526
-0.003192
-0.003197
-0.003172
-0.004899
-0.004904
-0.004916
-0.004929
-0.005294
-0.005294
-0.005244
-0.003222
-0.005191
-0.005208
-0.005156
-0.004494
-0.004486
-0.004431
-0.004655
-0.004639
-0.005119
-0.005102
-0.005087
-0.003978
-0.003966
-0.003978
-0.004176
-0.004151
-0.004165
-0.005298
-0.005240
-0.005300
-0.003966
-0.003090
-0.003107
-0.003067
-0.004733
-0.004733
-0.004670
-0.004789
-0.005264
-0.005239
-0.005325
-0.005204
-0.005159
-0.003787
-0.003809
-0.003753
-0.004130
-0.004115
-0.004121
-0.004106
-0.003082
-0.003111
-0.003078
-0.004024
-0.004006
-0.003951
-0.003114
-0.003129
-0.003105
-0.003108
-0.003091
-0.003132
-0.003450
-0.003465
-0.003466
-0.004936
-0.004925
-0.004944
-0.004454
-0.004645
-0.004310
-0.004795
-0.004925
-0.004743
-0.004759
-0.004713
-0.004569
-0.004550
-0.004544
-0.004528
-0.005116
-0.005133
-0.005121
-0.005141
-0.005183
-0.005196
-0.005190
-0.003581
-0.003579
-0.003621
-0.004230
-0.004152
-0.004136
-0.003018
-0.003016
-0.002983
-0.004912
-0.004881
-0.004916
-0.004964
-0.002971
-0.003024
-0.003053
-0.005195
-0.003481
-0.004087
-0.004087
-0.004097
-0.004580
-0.004602
-0.004624
-0.004631
-0.004739
-0.004742
-0.004701
-0.004100
-0.003114
-0.003087
-0.003108
-0.004357
-0.004346
-0.004366
-0.004365
-0.004656
-0.004794
-0.004687
-0.004973
-0.004935
-0.004930
-0.004488
-0.004510
-0.004510
-0.004385
-0.004377
-0.004358
-0.004405
-0.005074
-0.005090
-0.005093
-0.005104
-0.003044
-0.003031
-0.003054
-0.004647
-0.004612
-0.004667
-0.003397
-0.003381
-0.003397
-0.004247
-0.004233
-0.004230
-0.004212
-0.003384
-0.004378
-0.004393
-0.004398
-0.004417
-0.006638
-0.006521
-0.006787
-0.003199
-0.003165
-0.003163
-0.005000
-0.005005
-0.005019
-0.004987
-0.003563
-0.003548
-0.003555
-0.003197
-0.005035
-0.005049
-0.005035
-0.004789
-0.004818
-0.004797
-0.004800
-0.005169
-0.005135
-0.005030
-0.003540
-0.003438
-0.003458
-0.003444
-0.004071
-0.004096
-0.004116
-0.004741
-0.004733
-0.004750
-0.004741
-0.003461
-0.003209
-0.003196
-0.003192
-0.004830
-0.004868
-0.004848
-0.004892
-0.004048
-0.005292
-0.005307
-0.005279
-0.005325
-0.004470
-0.004478
-0.004463
-0.004485
-0.004465
-0.004448
-0.004448
-0.004699
-0.004666
-0.004660
-0.004720
-0.004134
-0.004166
-0.004162
-0.004200
-0.004036
-0.004005
-0.004905
-0.004892
-0.004906
-0.003804
-0.003815
-0.003829
-0.003788
-0.003847
-0.003852
-0.004932
-0.004665
-0.004632
-0.004889
-0.003218
-0.004094
-0.004130
-0.004109
-0.002934
-0.002862
-0.003077
-0.004054
-0.005044
-0.005061
-0.005065
-0.002632
-0.005076
-0.004033
-0.003990
-0.003991
-0.004078
-0.004046
-0.004110
-0.004916
-0.004902
-0.004914
-0.004679
-0.004652
-0.004663
-0.004430
-0.004480
-0.004430
-0.004056
-0.004030
-0.004055
-0.003128
-0.003101
-0.003095
-0.004478
-0.004771
-0.004783
-0.004786
-0.004799
-0.003973
-0.004013
-0.004061
-0.004010
-0.004209
-0.004188
-0.004192
-0.005289
-0.005234
-0.005262
-0.005189
-0.005204
-0.005282
-0.005311
-0.003918
-0.003906
-0.003889
-0.003877
-0.004459
-0.004473
-0.004469
-0.003926
-0.003890
-0.003900
-0.005428
-0.004224
-0.004205
-0.004229
-0.004197
-0.005035
-0.005016
-0.005025
-0.003868
-0.005197
-0.005182
-0.005173
-0.004168
-0.003017
-0.004260
-0.004262
-0.004002
-0.004446
-0.004612
-0.004613
-0.004628
-0.004634
-0.005033
-0.005056
-0.005028
-0.005058
-0.005202
-0.005222
-0.005293
-0.005120
-0.005305
-0.005238
-0.005289
-0.004330
-0.004324
-0.004308
-0.004305
-0.003047
-0.003741
-0.003754
-0.003736
-0.003752
-0.004959
-0.004985
-0.004965
-0.002973
-0.002945
-0.002951
-0.003729
-0.003779
-0.003714
-0.004284
-0.004346
-0.004330
-0.004730
-0.004702
-0.004702
-0.004410
-0.004541
-0.004539
-0.003780
-0.003630
-0.004305
-0.004330
-0.004320
-0.004997
-0.004976
-0.004986
-0.004527
-0.004524
-0.002974
-0.003494
-0.003339
-0.004191
-0.004219
-0.004183
-0.005352
-0.005428
-0.005452
-0.005535
-0.003299
-0.003268
-0.003242
-0.004740
-0.004715
-0.004715
-0.004399
-0.004413
-0.004401
-0.004966
-0.004945
-0.004975
-0.004022
-0.004028
-0.003956
-0.007537
-0.007427
-0.007298
-0.005232
-0.005164
-0.005118
-0.005104
-0.005109
-0.005095
-0.004378
-0.004390
-0.004378
-0.007254
-0.004388
-0.004413
-0.004941
-0.004974
-0.005177
-0.005186
-0.005102
-0.004993
-0.004478
-0.004243
-0.003857
-0.003794
-0.003826
-0.003815
-0.004769
-0.004777
-0.004784
-0.004945
-0.004926
-0.004935
-0.003095
-0.003076
-0.003074
-0.005723
-0.005797
-0.005899
-0.004371
-0.004394
-0.004370
-0.004776
-0.004766
-0.004761
-0.004842
-0.004823
-0.004812
-0.004805
-0.004138
-0.004160
-0.003749
-0.003758
-0.003780
-0.004104
-0.004119
-0.004125
-0.004145
-0.003852
-0.003866
-0.003869
-0.004625
-0.004394
-0.004757
-0.005015
-0.004996
-0.004978
-0.005638
-0.004377
-0.004375
-0.004435
-0.003789
-0.003764
-0.003771
-0.004357
-0.004263
-0.004334
-0.004233
-0.005087
-0.005069
-0.005082
-0.004892
-0.004871
-0.004881
-0.004558
-0.004568
-0.004572
-0.004583
-0.007034
-0.006806
-0.006965
-0.004732
-0.004686
-0.004667
-0.004621
-0.005012
-0.005038
-0.006732
-0.004419
-0.004434
-0.004416
-0.003846
-0.007229
-0.007062
-0.004831
-0.003609
-0.003583
-0.003567
-0.006424
-0.006414
-0.004454
-0.004462
-0.004472
-0.004479
-0.005050
-0.005033
-0.005042
-0.003887
-0.003912
-0.003893
-0.004141
-0.004168
-0.004965
-0.004956
-0.004969
-0.004345
-0.004350
-0.004361
-0.003533
-0.004372
-0.004339
-0.004327
-0.004745
-0.004718
-0.004319
-0.004134
-0.004157
-0.004162
-0.004181
-0.006110
-0.006155
-0.004975
-0.004961
-0.004958
-0.004866
-0.004885
-0.004876
-0.004661
-0.004648
-0.004637
-0.004690
-0.006031
-0.004729
-0.004702
-0.005064
-0.005052
-0.005053
-0.005039
-0.004851
-0.004831
-0.004841
-0.004901
-0.004848