# vtk DataFile Version 2.0
Test
ASCII
DATASET POLYDATA
POINTS 26238 float
0.000000 0.000000 0.000000
2.000000 0.000000 0.000000
2.000000 4.000000 0.000000
0.000000 4.000000 0.000000
0.000000 0.500000 0.000000
1.500000 2.000000 0.000000
2.000000 2.500000 0.000000
0.100000 0.000000 0.000000
0.200000 0.000000 0.000000
0.300000 0.000000 0.000000
0.400000 0.000000 0.000000
0.500000 0.000000 0.000000
0.600000 0.000000 0.000000
0.700000 0.000000 0.000000
0.800000 0.000000 0.000000
0.900000 0.000000 0.000000
1.000000 0.000000 0.000000
1.100000 0.000000 0.000000
1.200000 0.000000 0.000000
1.300000 0.000000 0.000000
1.400000 0.000000 0.000000
1.500000 0.000000 0.000000
1.600000 0.000000 0.000000
1.700000 0.000000 0.000000
1.800000 0.000000 0.000000
1.900000 0.000000 0.000000
2.000000 0.097923 0.000000
2.000000 0.192202 0.000000
2.000000 0.282973 0.000000
2.000000 0.370366 0.000000
2.000000 0.454507 0.000000
2.000000 0.535518 0.000000
2.000000 0.613513 0.000000
2.000000 0.688607 0.000000
2.000000 0.760906 0.000000
2.000000 0.830515 0.000000
2.000000 0.897534 0.000000
2.000000 0.962059 0.000000
2.000000 1.024183 0.000000
2.000000 1.083995 0.000000
2.000000 1.141582 0.000000
2.000000 1.197026 0.000000
2.000000 1.250406 0.000000
2.000000 1.301801 0.000000
2.000000 1.351283 0.000000
2.000000 1.398923 0.000000
2.000000 1.444791 0.000000
2.000000 1.488953 0.000000
2.000000 1.531470 0.000000
2.000000 1.572406 0.000000
2.000000 1.611819 0.000000
2.000000 1.649765 0.000000
2.000000 1.686299 0.000000
2.000000 1.721473 0.000000
2.000000 1.755339 0.000000
2.000000 1.787944 0.000000
2.000000 1.819337 0.000000
2.000000 1.849561 0.000000
2.000000 1.878660 0.000000
2.000000 1.906677 0.000000
2.000000 1.933651 0.000000
2.000000 1.959621 0.000000
2.000000 1.984625 0.000000
2.000000 2.008699 0.000000
2.000000 2.031877 0.000000
2.000000 2.054192 0.000000
2.000000 2.075677 0.000000
2.000000 2.096362 0.000000
2.000000 2.116278 0.000000
2.000000 2.135453 0.000000
2.000000 2.153914 0.000000
2.000000 2.171688 0.000000
2.000000 2.188801 0.000000
2.000000 2.205277 0.000000
2.000000 2.221140 0.000000
2.000000 2.236413 0.000000
2.000000 2.251117 0.000000
2.000000 2.265274 0.000000
2.000000 2.278905 0.000000
2.000000 2.292028 0.000000
2.000000 2.304663 0.000000
2.000000 2.316828 0.000000
2.000000 2.328540 0.000000
2.000000 2.339816 0.000000
2.000000 2.350673 0.000000
2.000000 2.361126 0.000000
2.000000 2.371189 0.000000
2.000000 2.380879 0.000000
2.000000 2.390207 0.000000
2.000000 2.399189 0.000000
2.000000 2.407836 0.000000
2.000000 2.416162 0.000000
2.000000 2.424178 0.000000
2.000000 2.431895 0.000000
2.000000 2.439326 0.000000
2.000000 2.446480 0.000000
2.000000 2.453367 0.000000
2.000000 2.459999 0.000000
2.000000 2.466383 0.000000
2.000000 2.472530 0.000000
2.000000 2.478449 0.000000
2.000000 2.484147 0.000000
2.000000 2.489633 0.000000
2.000000 2.494915 0.000000
2.000000 2.505084 0.000000
2.000000 2.510496 0.000000
2.000000 2.516256 0.000000
2.000000 2.522387 0.000000
2.000000 2.528913 0.000000
2.000000 2.535859 0.000000
2.000000 2.543253 0.000000
2.000000 2.551122 0.000000
2.000000 2.559499 0.000000
2.000000 2.568415 0.000000
2.000000 2.577905 0.000000
2.000000 2.588006 0.000000
2.000000 2.598758 0.000000
2.000000 2.610202 0.000000
2.000000 2.622383 0.000000
2.000000 2.635349 0.000000
2.000000 2.649149 0.000000
2.000000 2.663839 0.000000
2.000000 2.679474 0.000000
2.000000 2.696116 0.000000
2.000000 2.713831 0.000000
2.000000 2.732685 0.000000
2.000000 2.752754 0.000000
2.000000 2.774116 0.000000
2.000000 2.796853 0.000000
2.000000 2.821055 0.000000
2.000000 2.846815 0.000000
2.000000 2.874234 0.000000
2.000000 2.903419 0.000000
2.000000 2.934483 0.000000
2.000000 2.967548 0.000000
2.000000 3.002742 0.000000
2.000000 3.040202 0.000000
2.000000 3.080076 0.000000
2.000000 3.122517 0.000000
2.000000 3.167691 0.000000
2.000000 3.215774 0.000000
2.000000 3.266954 0.000000
2.000000 3.321430 0.000000
2.000000 3.379414 0.000000
2.000000 3.441132 0.000000
2.000000 3.506825 0.000000
2.000000 3.576749 0.000000
2.000000 3.651175 0.000000
2.000000 3.730395 0.000000
2.000000 3.814717 0.000000
2.000000 3.904468 0.000000
1.900000 4.000000 0.000000
1.800000 4.000000 0.000000
1.700000 4.000000 0.000000
1.600000 4.000000 0.000000
1.500000 4.000000 0.000000
1.400000 4.000000 0.000000
1.300000 4.000000 0.000000
1.200000 4.000000 0.000000
1.100000 4.000000 0.000000
1.000000 4.000000 0.000000
0.900000 4.000000 0.000000
0.800000 4.000000 0.000000
0.700000 4.000000 0.000000
0.600000 4.000000 0.000000
0.500000 4.000000 0.000000
0.400000 4.000000 0.000000
0.300000 4.000000 0.000000
0.200000 4.000000 0.000000
0.100000 4.000000 0.000000
0.000000 3.901898 0.000000
0.000000 3.806409 0.000000
0.000000 3.713462 0.000000
0.000000 3.622990 0.000000
0.000000 3.534927 0.000000
0.000000 3.449209 0.000000
0.000000 3.365773 0.000000
0.000000 3.284559 0.000000
0.000000 3.205508 0.000000
0.000000 3.128561 0.000000
0.000000 3.053664 0.000000
0.000000 2.980761 0.000000
0.000000 2.909799 0.000000
0.000000 2.840727 0.000000
0.000000 2.773493 0.000000
0.000000 2.708051 0.000000
0.000000 2.644350 0.000000
0.000000 2.582346 0.000000
0.000000 2.521993 0.000000
0.000000 2.463247 0.000000
0.000000 2.406065 0.000000
0.000000 2.350406 0.000000
0.000000 2.296229 0.000000
0.000000 2.243495 0.000000
0.000000 2.192165 0.000000
0.000000 2.142201 0.000000
0.000000 2.093568 0.000000
0.000000 2.046230 0.000000
0.000000 2.000153 0.000000
0.000000 1.955302 0.000000
0.000000 1.911646 0.000000
0.000000 1.869152 0.000000
0.000000 1.827789 0.000000
0.000000 1.787528 0.000000
0.000000 1.748339 0.000000
0.000000 1.710194 0.000000
0.000000 1.673064 0.000000
0.000000 1.636923 0.000000
0.000000 1.601745 0.000000
0.000000 1.567503 0.000000
0.000000 1.534172 0.000000
0.000000 1.501730 0.000000
0.000000 1.470151 0.000000
0.000000 1.439413 0.000000
0.000000 1.409494 0.000000
0.000000 1.380371 0.000000
0.000000 1.352024 0.000000
0.000000 1.324431 0.000000
0.000000 1.297573 0.000000
0.000000 1.271431 0.000000
0.000000 1.245984 0.000000
0.000000 1.221215 0.000000
0.000000 1.197106 0.000000
0.000000 1.173639 0.000000
0.000000 1.150796 0.000000
0.000000 1.128562 0.000000
0.000000 1.106920 0.000000
0.000000 1.085854 0.000000
0.000000 1.065349 0.000000
0.000000 1.045390 0.000000
0.000000 1.025962 0.000000
0.000000 1.007052 0.000000
0.000000 0.988645 0.000000
0.000000 0.970729 0.000000
0.000000 0.953289 0.000000
0.000000 0.936314 0.000000
0.000000 0.919791 0.000000
0.000000 0.903708 0.000000
0.000000 0.888053 0.000000
0.000000 0.872815 0.000000
0.000000 0.857983 0.000000
0.000000 0.843545 0.000000
0.000000 0.829492 0.000000
0.000000 0.815814 0.000000
0.000000 0.802499 0.000000
0.000000 0.789539 0.000000
0.000000 0.776925 0.000000
0.000000 0.764646 0.000000
0.000000 0.752694 0.000000
0.000000 0.741060 0.000000
0.000000 0.729736 0.000000
0.000000 0.718714 0.000000
0.000000 0.707985 0.000000
0.000000 0.697541 0.000000
0.000000 0.687376 0.000000
0.000000 0.677482 0.000000
0.000000 0.667851 0.000000
0.000000 0.658476 0.000000
0.000000 0.649351 0.000000
0.000000 0.640469 0.000000
0.000000 0.631824 0.000000
0.000000 0.623409 0.000000
0.000000 0.615217 0.000000
0.000000 0.607244 0.000000
0.000000 0.599484 0.000000
0.000000 0.591929 0.000000
0.000000 0.584577 0.000000
0.000000 0.577419 0.000000
0.000000 0.570453 0.000000
0.000000 0.563672 0.000000
0.000000 0.557071 0.000000
0.000000 0.550646 0.000000
0.000000 0.544393 0.000000
0.000000 0.538306 0.000000
0.000000 0.532380 0.000000
0.000000 0.526613 0.000000
0.000000 0.520999 0.000000
0.000000 0.515535 0.000000
0.000000 0.510216 0.000000
0.000000 0.505039 0.000000
0.000000 0.494581 0.000000
0.000000 0.488047 0.000000
0.000000 0.480167 0.000000
0.000000 0.470665 0.000000
0.000000 0.459206 0.000000
0.000000 0.445387 0.000000
0.000000 0.428723 0.000000
0.000000 0.408628 0.000000
0.000000 0.384395 0.000000
0.000000 0.355172 0.000000
0.000000 0.319933 0.000000
0.000000 0.277436 0.000000
0.000000 0.226190 0.000000
0.000000 0.164392 0.000000
0.000000 0.089868 0.000000
0.003529 0.503529 0.000000
0.007059 0.507059 0.000000
0.010588 0.510588 0.000000
0.014118 0.514118 0.000000
0.017647 0.517647 0.000000
0.021176 0.521176 0.000000
0.024706 0.524706 0.000000
0.028235 0.528235 0.000000
0.031765 0.531765 0.000000
0.035294 0.535294 0.000000
0.038824 0.538824 0.000000
0.042353 0.542353 0.000000
0.045882 0.545882 0.000000
0.049412 0.549412 0.000000
0.052941 0.552941 0.000000
0.056471 0.556471 0.000000
0.060000 0.560000 0.000000
0.063529 0.563529 0.000000
0.067059 0.567059 0.000000
0.070588 0.570588 0.000000
0.074118 0.574118 0.000000
0.077647 0.577647 0.000000
0.081176 0.581176 0.000000
0.084706 0.584706 0.000000
0.088235 0.588235 0.000000
0.091765 0.591765 0.000000
0.095294 0.595294 0.000000
0.098824 0.598824 0.000000
0.102353 0.602353 0.000000
0.105882 0.605882 0.000000
0.109412 0.609412 0.000000
0.112941 0.612941 0.000000
0.116471 0.616471 0.000000
0.120000 0.620000 0.000000
0.123529 0.623529 0.000000
0.127059 0.627059 0.000000
0.130588 0.630588 0.000000
0.134118 0.634118 0.000000
0.137647 0.637647 0.000000
0.141176 0.641176 0.000000
0.144706 0.644706 0.000000
0.148235 0.648235 0.000000
0.151765 0.651765 0.000000
0.155294 0.655294 0.000000
0.158824 0.658824 0.000000
0.162353 0.662353 0.000000
0.165882 0.665882 0.000000
0.169412 0.669412 0.000000
0.172941 0.672941 0.000000
0.176471 0.676471 0.000000
0.180000 0.680000 0.000000
0.183529 0.683529 0.000000
0.187059 0.687059 0.000000
0.190588 0.690588 0.000000
0.194118 0.694118 0.000000
0.197647 0.697647 0.000000
0.201176 0.701176 0.000000
0.204706 0.704706 0.000000
0.208235 0.708235 0.000000
0.211765 0.711765 0.000000
0.215294 0.715294 0.000000
0.218824 0.718824 0.000000
0.222353 0.722353 0.000000
0.225882 0.725882 0.000000
0.229412 0.729412 0.000000
0.232941 0.732941 0.000000
0.236471 0.736471 0.000000
0.240000 0.740000 0.000000
0.243529 0.743529 0.000000
0.247059 0.747059 0.000000
0.250588 0.750588 0.000000
0.254118 0.754118 0.000000
[...]
POINT_DATA 26238
SCALARS UX float 1
LOOKUP_TABLE default
-0.000000
0.000000
-0.004680
-0.006550
-0.001689
-0.001242
-0.002087
-0.000000
-0.000000
-0.000000
-0.000000
-0.000000
-0.000000
-0.000000
-0.000000
-0.000000
-0.000000
0.000000
0.000000
0.000000
0.000000
0.000000
0.000000
0.000000
0.000000
0.000000
0.000304
0.000478
0.000600
0.000686
0.000750
0.000796
0.000828
0.000848
0.000860
0.000865
0.000864
0.000858
0.000848
0.000833
0.000815
0.000794
0.000770
0.000742
0.000711
0.000678
0.000641
0.000601
0.000558
0.000511
0.000460
0.000405
0.000345
0.000281
0.000213
0.000142
0.000066
-0.000013
-0.000094
-0.000179
-0.000263
-0.000349
-0.000434
-0.000519
-0.000603
-0.000684
-0.000763
-0.000840
-0.000913
-0.000983
-0.001051
-0.001115
-0.001176
-0.001233
-0.001288
-0.001340
-0.001389
-0.001435
-0.001479
-0.001521
-0.001560
-0.001598
-0.001633
-0.001666
-0.001698
-0.001728
-0.001756
-0.001783
-0.001809
-0.001834
-0.001857
-0.001879
-0.001900
-0.001920
-0.001939
-0.001957
-0.001974
-0.001991
-0.002007
-0.002022
-0.002036
-0.002050
-0.002063
-0.002075
-0.002099
-0.002112
-0.002125
-0.002139
-0.002154
-0.002170
-0.002187
-0.002204
-0.002222
-0.002242
-0.002262
-0.002284
-0.002307
-0.002331
-0.002356
-0.002382
-0.002410
-0.002439
-0.002470
-0.002502
-0.002536
-0.002571
-0.002609
-0.002648
-0.002689
-0.002732
-0.002778
-0.002825
-0.002876
-0.002929
-0.002985
-0.003043
-0.003106
-0.003171
-0.003240
-0.003314
-0.003392
-0.003475
-0.003563
-0.003656
-0.003756
-0.003863
-0.003977
-0.004099
-0.004229
-0.004370
-0.004520
-0.004778
-0.004875
-0.004972
-0.005068
-0.005163
-0.005255
-0.005346
-0.005436
-0.005525
-0.005614
-0.005702
-0.005792
-0.005882
-0.005974
-0.006067
-0.006162
-0.006258
-0.006355
-0.006452
-0.006390
-0.006234
-0.006081
-0.005931
-0.005785
-0.005641
-0.005501
-0.005365
-0.005233
-0.005105
-0.004981
-0.004861
-0.004747
-0.004637
-0.004532
-0.004433
-0.004338
-0.004250
-0.004166
-0.004088
-0.004016
-0.003949
-0.003887
-0.003831
-0.003779
-0.003732
-0.003690
-0.003652
-0.003618
-0.003588
-0.003561
-0.003537
-0.003517
-0.003499
-0.003484
-0.003471
-0.003459
-0.003450
-0.003442
-0.003436
-0.003431
-0.003427
-0.003425
-0.003422
-0.003421
-0.003421
-0.003420
-0.003421
-0.003422
-0.003423
-0.003424
-0.003426
-0.003427
-0.003429
-0.003431
-0.003433
-0.003435
-0.003437
-0.003439
-0.003441
-0.003443
-0.003445
-0.003447
-0.003449
-0.003451
-0.003453
-0.003455
-0.003456
-0.003458
-0.003459
-0.003461
-0.003462
-0.003463
-0.003464
-0.003465
-0.003466
-0.003467
-0.003468
-0.003469
-0.003470
-0.003470
-0.003470
-0.003470
-0.003470
-0.003470
-0.003469
-0.003468
-0.003467
-0.003465
-0.003463
-0.003461
-0.003459
-0.003457
-0.003455
-0.003452
-0.003448
-0.003442
-0.003436
-0.003429
-0.003421
-0.003412
-0.003405
-0.003395
-0.003375
-0.003343
-0.003319
-0.003253
-0.003121
-0.002930
-0.002713
-0.001059
-0.000951
-0.000885
-0.000840
-0.000803
-0.000775
-0.000750
-0.000726
-0.000701
-0.000673
-0.000639
-0.000593
-0.000527
-0.000433
-0.000290
-0.001659
-0.001633
-0.001635
-0.001634
-0.001627
-0.001624
-0.001628
-0.001642
-0.001645
-0.001624
-0.001717
-0.001678
-0.001628
-0.001668
-0.001653
-0.001685
-0.001720
-0.001717
-0.001705
-0.001684
-0.001708
-0.001723
-0.001690
-0.001716
-0.001715
-0.001704
-0.001692
-0.001693
-0.001697
-0.001719
-0.001715
-0.001712
-0.001720
-0.001711
-0.002014
-0.001816
-0.001825
-0.001836
-0.001846
-0.001870
-0.001883
-0.001840
-0.001876
-0.001863
-0.001856
-0.001888
-0.001926
-0.001927
-0.001938
-0.001946
-0.001964
-0.001978
-0.001975
-0.001988
-0.001991
-0.001957
-0.001961
-0.001935
-0.002024
-0.002029
-0.002011
-0.002050
-0.002027
-0.002045
-0.002064
-0.002048
-0.002055
-0.002069
-0.002085
-0.002075
-0.002058
-0.002037
-0.002028
-0.002034
-0.002034
-0.002018
-0.001993
-0.001997
-0.001992
-0.001980
-0.001960
-0.001958
-0.001953
-0.001959
-0.001934
-0.001933
-0.001937
-0.001897
-0.001927
-0.001896
-0.001903
-0.001900
-0.001894
-0.001887
-0.001872
-0.001860
-0.001856
-0.001891
-0.001855
-0.001866
-0.001844
-0.001847
-0.001826
-0.001832
-0.001824
-0.001838
-0.001831
-0.001809
-0.001803
-0.001788
-0.001810
-0.001784
-0.001761
-0.001791
-0.001771
-0.001759
-0.001753
-0.001778
-0.001761
-0.001773
-0.001771
-0.001784
-0.001756
-0.001751
-0.001737
-0.001739
-0.001717
-0.001705
-0.001930
-0.001910
-0.001898
-0.001899
-0.001914
-0.001876
-0.001868
-0.001853
-0.001854
-0.001849
-0.001832
-0.001791
-0.001778
-0.001793
-0.001792
-0.001764
-0.001782
-0.001747
-0.001738
-0.001741
-0.001732
-0.001725
-0.001704
-0.001681
-0.001669
-0.001660
-0.001724
-0.001715
-0.001703
-0.001706
-0.001702
-0.001693
-0.001719
-0.001681
-0.001642
-0.001629
-0.001623
-0.001628
-0.001625
-0.001606
-0.001596
-0.001589
-0.001572
-0.001590
-0.001565
-0.001549
-0.001540
-0.001541
-0.001554
-0.001538
-0.001533
-0.001544
-0.001508
-0.001599
-0.001586
-0.001567
-0.001571
-0.001561
-0.001546
-0.001556
-0.001530
-0.001520
-0.001523
-0.001526
-0.001529
-0.001536
-0.001538
-0.001518
-0.001513
-0.001562
-0.001553
-0.001570
-0.001560
-0.001585
-0.001578
-0.001580
-0.001541
-0.001573
-0.001549
-0.001556
-0.001530
-0.001535
-0.001536
-0.001515
-0.001510
-0.001525
-0.001508
-0.001523
-0.001507
-0.001497
-0.001503
-0.001493
-0.001488
-0.001490
-0.001484
-0.001466
-0.001469
-0.001451
-0.001471
-0.001453
-0.001449
-0.001436
-0.001493
-0.001499
-0.001508
-0.001495
-0.001504
-0.001501
-0.001504
-0.001494
-0.001496
-0.001491
-0.001498
-0.001493
-0.001497
-0.001477
-0.001472
-0.001461
-0.001473
-0.001462
-0.001461
-0.001466
-0.001455
-0.001461
-0.001460
-0.001474
-0.001461
-0.001469
-0.001462
-0.001452
-0.001444
-0.001421
-0.001414
-0.001412
-0.001400
-0.001396
-0.001373
-0.001386
-0.001378
-0.001372
-0.001572
-0.001557
-0.001557
-0.001544
-0.001543
-0.001522
-0.001486
-0.001517
-0.001481
-0.001475
-0.001439
-0.001423
-0.001421
-0.001401
-0.001400
-0.001388
-0.001374
-0.001370
-0.001335
-0.001362
-0.001364
-0.001357
-0.001368
-0.001354
-0.001331
-0.001300
-0.001284
-0.001272
-0.001248
-0.001271
-0.001501
-0.001429
-0.001408
-0.001385
-0.001386
-0.001385
-0.001363
-0.001370
-0.001355
-0.001366
-0.001379
-0.001348
-0.001358
-0.001354
-0.001359
-0.001365
-0.001345
-0.001348
-0.001342
-0.001333
-0.001325
-0.001309
-0.001309
-0.001307
-0.001300
-0.001299
-0.001296
-0.001282
-0.001276
-0.001277
-0.001308
-0.001281
-0.001276
-0.001276
-0.001266
-0.001287
-0.001287
-0.001279
-0.001294
-0.001290
-0.001312
-0.001308
-0.001318
-0.001326
-0.001322
-0.001316
-0.001304
-0.001317
-0.001320
-0.001318
-0.001298
-0.001157
-0.001167
-0.001149
-0.001136
-0.001156
-0.001147
-0.001149
-0.001158
-0.001138
-0.001174
-0.001166
-0.001165
-0.001175
-0.001175
-0.001181
-0.001176
-0.001202
-0.001216
-0.001212
-0.001204
-0.001220
-0.001211
-0.001208
-0.001223
-0.001230
-0.001225
-0.001235
-0.001231
-0.001232
-0.001227
-0.001224
-0.001222
-0.001224
-0.001237
-0.001222
-0.001241
-0.001238
-0.001242
-0.001231
-0.001261
-0.001263
-0.001261
-0.001266
-0.001270
-0.001268
-0.001287
-0.001293
-0.001290
-0.001292
-0.001297
-0.001290
-0.001294
-0.001290
-0.001293
-0.001290
-0.001286
-0.001288
-0.001283
-0.001284
-0.001283
-0.001280
-0.001284
-0.001289
-0.001294
-0.001297
-0.001289
-0.001285
-0.001284
-0.001281
-0.001280
-0.001279
-0.001276
-0.001273
-0.001265
-0.001256
-0.001238
-0.001250
-0.001263
-0.001276
-0.001288
-0.001299
-0.001311
-0.001322
-0.001332
-0.001342
-0.001351
-0.001360
-0.001369
-0.001377
-0.001385
-0.001393
-0.001401
-0.001409
-0.001416
-0.001423
-0.001430
-0.001437
-0.001445
-0.001452
-0.001459
-0.001466
-0.001473
-0.001479
-0.001486
-0.001492
-0.001499
-0.001505
-0.001511
-0.001517
-0.001523
-0.001529
-0.001535
-0.001541
-0.001547
-0.001553
-0.001559
-0.001565
-0.001571
-0.001576
-0.001582
-0.001588
-0.001594
-0.001600
-0.001606
-0.001612
-0.001617
-0.001623
-0.001629
-0.001635
-0.001641
-0.001647
-0.001652
-0.001658
-0.001664
-0.001670
-0.001676
-0.001682
-0.001688
-0.001693
-0.001699
-0.001705
-0.001711
-0.001717
-0.001723
-0.001729
-0.001734
-0.001740
-0.001746
-0.001752
-0.001758
-0.001764
-0.001769
-0.001775
-0.001781
-0.001787
-0.001793
-0.001798
-0.001804
-0.001810
-0.001816
-0.001821
-0.001827
-0.001833
-0.001838
-0.001844
-0.001850
-0.001855
-0.001861
-0.001866
-0.001872
-0.001877
-0.001883
-0.001888
-0.001894
-0.001899
-0.001904
-0.001910
-0.001915
-0.001920
-0.001925
-0.001931
-0.001936
-0.001941
-0.001946
-0.001951
-0.001956
-0.001961
-0.001966
-0.001970
-0.001975
-0.001980
-0.001985
-0.001989
-0.001994
-0.001999
-0.002003
-0.002008
-0.002012
-0.002016
-0.002021
-0.002025
-0.002029
-0.002033
-0.002038
-0.002042
-0.002046
-0.002050
-0.002054
-0.002058
-0.002062
-0.002065
-0.002069
-0.002073
-0.002077
-0.002080
-0.002084
-0.002416
-0.002436
-0.002297
-0.001903
-0.001922
-0.001911
-0.002617
-0.002608
-0.002584
-0.002491
-0.002570
-0.002239
-0.002338
-0.002233
-0.002239
-0.002230
-0.002242
-0.001865
-0.001872
-0.001852
-0.003033
-0.003027
-0.002993
-0.002976
-0.001884
-0.002825
-0.002813
-0.002860
-0.001974
-0.001967
-0.001959
-0.002823
-0.002580
-0.002531
-0.002570
-0.001955
-0.002986
-0.002971
-0.003028
-0.002902
-0.002416
-0.002443
-0.002456
-0.001832
-0.001847
-0.001831
-0.003143
-0.003151
-0.003136
-0.001884
-0.001869
-0.001876
-0.003121
-0.003111
-0.003127
-0.001867
-0.003149
-0.003144
-0.003159
-0.002824
-0.002791
-0.002790
-0.002046
-0.002067
-0.002062
-0.002085
-0.003208
-0.003224
-0.003205
-0.003223
-0.002816
-0.003160
-0.003155
-0.003136
-0.003136
-0.002469
-0.003151
-0.003143
-0.003161
-0.002283
-0.002255
-0.002262
-0.002005
-0.002024
-0.001998
-0.001997
-0.002272
-0.003027
-0.003017
-0.002946
-0.003148
-0.003145
-0.003157
-0.003157
-0.002193
-0.002218
-0.002200
-0.002218
-0.002897
-0.002906
-0.002895
-0.001950
-0.001963
-0.001965
-0.001978
-0.002804
-0.002777
-0.002812
-0.002751
-0.001965
-0.004392
-0.004494
-0.004412
-0.002087
-0.004445
-0.002285
-0.002292
-0.002276
-0.002786
-0.002803
-0.002796
-0.003080
-0.003084
-0.003091
-0.001952
-0.001936
-0.002302
-0.002917
-0.002905
-0.001816
-0.002758
-0.002438
-0.002586
-0.001901
-0.003075
-0.003074
-0.003065
-0.002517
-0.002485
-0.002486
-0.002527
-0.003065
-0.003071
-0.003077
-0.003960
-0.003876
-0.003938
-0.003901
-0.004023
-0.003940
-0.003939
-0.003559
-0.003517
-0.003482
-0.004012
-0.002890
-0.002754
-0.002648
-0.002498
-0.002874
-0.002891
-0.002936
-0.002852
-0.002130
-0.002105
-0.002122
-0.002109
-0.002497
-0.002504
-0.002496
-0.001691
-0.001683
-0.001624
-0.003144
-0.003136
-0.003147
-0.003141
-0.001826
-0.001846
-0.001852
-0.001733
-0.004254
-0.004254
-0.004332
-0.004165
-0.002274
-0.002263
-0.002269
-0.002254
-0.002717
-0.002727
-0.002724
-0.002387
-0.002431
-0.002388
-0.002733
-0.004009
-0.003931
-0.003993
-0.002676
-0.002524
-0.002187
-0.002203
-0.002210
-0.002132
-0.002145
-0.002163
-0.003306
-0.003311
-0.003300
-0.003910
-0.002806
-0.002794
-0.002804
-0.002789
-0.003009
-0.002988
-0.003000
-0.002997
-0.003221
-0.003216
-0.003210
-0.003205
-0.003224
-0.003214
-0.003235
-0.003204
-0.002739
-0.002742
-0.002754
-0.002769
-0.002773
-0.002740
-0.003464
-0.003427
-0.003403
-0.003466
-0.002031
-0.002049
-0.002031
-0.003244
-0.003234
-0.003233
-0.003226
-0.003111
-0.003096
-0.003130
-0.003104
-0.002756
-0.003014
-0.003009
-0.003022
-0.003239
-0.003249
-0.003233
-0.003250
-0.003094
-0.003107
-0.003131
-0.003056
-0.002971
-0.002975
-0.002984
-0.002746
-0.002728
-0.002743
-0.002963
-0.002943
-0.002927
-0.002952
-0.002179
-0.002684
-0.002725
-0.002715
-0.003002
-0.003168
-0.003173
-0.003186
-0.003154
-0.003033
-0.003022
-0.003036
-0.003026
-0.003077
-0.003030
-0.003096
-0.002319
-0.002327
-0.002321
-0.002906
-0.002907
-0.002896
-0.002716
-0.002692
-0.002687
-0.002710
-0.002177
-0.002194
-0.002174
-0.002188
-0.002603
-0.002591
-0.002586
-0.003297
-0.003296
-0.003280
-0.003279
-0.002055
-0.002048
-0.002063
-0.004041
-0.004026
-0.003972
-0.002050
-0.004046
-0.004106
-0.004006
-0.004131
-0.003350
-0.003345
-0.003339
-0.003333
-0.003162
-0.003157
-0.003136
-0.003147
-0.002567
-0.002552
-0.002549
-0.002689
-0.002697
-0.002709
-0.002717
-0.001907
-0.001896
-0.001895
-0.002985
-0.002975
-0.002979
-0.002312
-0.002343
-0.002310
-0.002341
-0.003359
-0.003357
-0.003351
-0.003347
-0.002439
-0.002452
-0.002434
-0.002458
-0.003282
-0.003224
-0.003251
-0.003205
-0.002385
-0.002410
-0.002385
-0.002417
-0.002237
-0.002232
-0.002256
-0.002218
-0.002874
-0.002862
-0.002887
-0.002851
-0.003067
-0.003030
-0.003046
-0.002326
-0.003490
-0.003443
-0.003510
-0.003435
-0.003613
-0.003551
-0.003541
-0.003622
-0.004943
-0.005055
-0.004894
-0.002539
-0.002565
-0.002521
-0.002879
-0.002880
-0.002871
-0.003293
-0.003288
-0.003284
-0.002522
-0.002833
-0.002855
-0.002877
-0.002821
-0.002409
-0.002380
-0.002413
-0.002373
-0.003334
-0.003313
-0.003324
-0.003306
-0.002871
-0.002661
-0.002667
-0.002672
-0.003256
-0.003299
-0.003236
-0.002317
-0.002276
-0.002293
-0.003180
-0.003201
-0.003168
-0.002699
-0.002661
-0.002681
-0.003213
-0.001826
-0.001848
-0.001840
-0.002000
-0.001985
-0.001990
-0.003106
-0.003128
-0.003093
-0.003130
-0.002981
-0.002951
-0.002936
-0.002750
-0.002768
-0.002734
-0.002986
-0.002471
-0.002443
-0.002441
-0.002762
-0.002710
-0.002942
-0.002926
-0.002944
-0.002525
-0.002521
-0.002497
-0.002938
-0.002938
-0.002949
-0.002926
-0.002527
-0.002519
-0.002526
-0.002341
-0.002370
-0.002347
-0.002343
-0.002565
-0.002558
-0.003129
-0.003123
-0.003084
-0.002041
-0.002042
-0.002061
-0.003211
-0.003194
-0.003157
-0.002671
-0.002684
-0.002707
-0.002739
-0.002543
-0.002534
-0.002568
-0.002512
-0.002955
-0.002954
-0.002969
-0.002967
-0.002052
-0.002055
-0.002075
-0.002153
-0.002139
-0.002161
-0.002140
-0.002241
-0.002224
-0.002253
-0.002075
-0.002560
-0.002575
-0.002573
-0.002522
-0.002530
-0.002525
-0.002525
-0.002528
-0.002527
-0.002540
-0.002514
-0.003018
-0.003022
-0.003028
-0.002877
-0.002868
-0.002871
-0.002972
-0.002968
-0.002924
-0.002817
-0.002839
-0.002840
-0.002863
-0.002541
-0.002526
-0.002485
-0.002862
-0.002996
-0.003002
-0.002995
-0.003075
-0.003083
-0.003077
-0.003086
-0.003001
-0.002670
-0.002678
-0.002662
-0.002689
-0.002165
-0.002136
-0.002149
-0.003420
-0.003429
-0.003426
-0.003428
-0.002612
-0.002609
-0.002623
-0.002597
-0.003158
-0.003149
-0.003163
-0.003194
-0.003168
-0.003190
-0.002031
-0.002301
-0.002013
-0.003149
-0.003391
-0.003382
-0.003389
-0.003077
-0.003068
-0.003396
-0.003373
-0.003360
-0.002246
-0.003257
-0.003279
-0.003231
-0.003332
-0.003327
-0.002507
-0.002473
-0.002479
-0.003287
-0.003226
-0.003226
-0.003237
-0.003582
-0.003534
-0.003606
-0.003540
-0.002053
-0.002057
-0.002040
-0.003110
-0.003113
-0.003121
-0.003129
-0.003366
-0.003365
-0.003334
-0.002072
-0.003300
-0.003312
-0.003279
-0.002873
-0.002868
-0.002833
-0.002960
-0.002950
-0.003248
-0.003238
-0.003229
-0.002535
-0.002528
-0.002536
-0.002663
-0.002647
-0.002656
-0.003371
-0.003334
-0.003373
-0.002528
-0.001993
-0.002003
-0.001978
-0.003024
-0.003024
-0.002984
-0.003059
-0.003346
-0.003330
-0.003384
-0.003308
-0.003280
-0.002427
-0.002441
-0.002406
-0.002631
-0.002622
-0.002625
-0.002616
-0.001997
-0.002015
-0.001994
-0.002601
-0.002589
-0.002554
-0.002018
-0.002018
-0.002014
-0.002016
-0.002005
-0.002031
-0.002215
-0.002224
-0.002225
-0.003133
-0.003126
-0.003138
-0.002838
-0.002983
-0.002696
-0.003086
-0.003126
-0.003019
-0.003029
-0.003000
-0.002905
-0.002894
-0.002890
-0.002880
-0.003247
-0.003258
-0.003251
-0.003264
-0.003290
-0.003298
-0.003295
-0.002298
-0.002296
-0.002323
-0.002688
-0.002633
-0.002630
-0.001955
-0.001953
-0.001933
-0.003122
-0.003103
-0.003125
-0.003153
-0.001925
-0.001959
-0.001978
-0.003297
-0.002234
-0.002604
-0.002604
-0.002610
-0.002916
-0.002930
-0.002944
-0.002949
-0.003018
-0.003020
-0.002994
-0.002612
-0.002018
-0.002001
-0.002015
-0.002771
-0.002765
-0.002777
-0.002776
-0.002972
-0.003051
-0.002982
-0.003159
-0.003136
-0.003133
-0.002855
-0.002868
-0.002868
-0.002794
-0.002788
-0.002776
-0.002806
-0.003221
-0.003231
-0.003232
-0.003240
-0.001973
-0.001965
-0.001979
-0.002964
-0.002942
-0.002977
-0.002181
-0.002171
-0.002181
-0.002706
-0.002697
-0.002695
-0.002684
-0.002172
-0.002780
-0.002791
-0.002793
-0.002806
-0.004245
-0.004170
-0.004340
-0.002071
-0.002049
-0.002048
-0.003177
-0.003180
-0.003189
-0.003170
-0.002286
-0.002277
-0.002281
-0.002069
-0.003199
-0.003207
-0.003199
-0.003043
-0.003061
-0.003048
-0.003050
-0.003299
-0.003278
-0.003211
-0.002272
-0.002206
-0.002219
-0.002210
-0.002603
-0.002619
-0.002632
-0.003008
-0.003003
-0.003014
-0.003008
-0.002221
-0.002063
-0.002055
-0.002052
-0.003071
-0.003096
-0.003083
-0.003111
-0.002589
-0.003356
-0.003365
-0.003348
-0.003377
-0.002843
-0.002849
-0.002839
-0.002853
-0.002840
-0.002830
-0.002830
-0.002996
-0.002974
-0.002971
-0.003008
-0.002643
-0.002664
-0.002660
-0.002685
-0.002581
-0.002562
-0.003114
-0.003106
-0.003115
-0.002436
-0.002443
-0.002451
-0.002426
-0.002463
-0.002466
-0.003132
-0.002974
-0.002954
-0.003104
-0.002068
-0.002616
-0.002638
-0.002625
-0.001931
-0.001895
-0.002000
-0.002591
-0.003203
-0.003213
-0.003216
-0.001811
-0.003223
-0.002587
-0.002560
-0.002560
-0.002615
-0.002595
-0.002636
-0.003122
-0.003112
-0.003120
-0.002976
-0.002959
-0.002966
-0.002810
-0.002843
-0.002812
-0.002589
-0.002574
-0.002589
-0.002027
-0.002010
-0.002006
-0.002841
-0.003029
-0.003037
-0.003038
-0.003046
-0.002523
-0.002569
-0.002600
-0.002568
-0.002678
-0.002665
-0.002669
-0.003359
-0.003324
-0.003343
-0.003297
-0.003356
-0.003407
-0.003424
-0.002505
-0.002497
-0.002487
-0.002479
-0.002838
-0.002847
-0.002844
-0.002513
-0.002491
-0.002497
-0.003499
-0.002693
-0.002681
-0.002696
-0.002676
-0.003196
-0.003184
-0.003190
-0.002477
-0.003299
-0.003290
-0.003284
-0.002653
-0.001956
-0.002707
-0.002709
-0.002550
-0.002824
-0.002931
-0.002932
-0.002941
-0.002945
-0.003195
-0.003209
-0.003191
-0.003211
-0.003322
-0.003336
-0.003380
-0.003270
-0.003371
-0.003328
-0.003361
-0.002757
-0.002753
-0.002743
-0.002741
-0.001976
-0.002396
-0.002404
-0.002393
-0.002402
-0.003148
-0.003164
-0.003152
-0.001925
-0.001907
-0.001912
-0.002394
-0.002426
-0.002384
-0.002748
-0.002787
-0.002777
-0.003008
-0.002990
-0.002990
-0.002828
-0.002887
-0.002885
-0.002420
-0.002301
-0.002743
-0.002759
-0.002752
-0.003171
-0.003158
-0.003165
-0.002878
-0.002876
-0.001926
-0.002257
-0.002131
-0.002677
-0.002694
-0.002671
-0.003452
-0.003501
-0.003515
-0.003568
-0.002135
-0.002115
-0.002099
-0.003014
-0.002998
-0.002998
-0.002797
-0.002806
-0.002799
-0.003152
-0.003139
-0.003158
-0.002583
-0.002587
-0.002541
-0.004813
-0.004742
-0.004660
-0.003376
-0.003331
-0.003248
-0.003239
-0.003242
-0.003233
-0.002786
-0.002793
-0.002786
-0.004631
-0.002792
-0.002806
-0.003138
-0.003159
-0.003302
-0.003307
-0.003254
-0.003171
-0.002836
-0.002646
-0.002516
-0.002431
-0.002451
-0.002444
-0.003025
-0.003031
-0.003035
-0.003139
-0.003126
-0.003133
-0.002007
-0.001995
-0.001994
-0.003678
-0.003726
-0.003790
-0.002784
-0.002799
-0.002783
-0.003030
-0.003023
-0.003020
-0.003075
-0.003063
-0.003056
-0.003051
-0.002644
-0.002658
-0.002402
-0.002408
-0.002422
-0.002619
-0.002628
-0.002631
-0.002644
-0.002453
-0.002462
-0.002464
-0.002927
-0.002817
-0.003015
-0.003186
-0.003174
-0.003164
-0.003625
-0.002805
-0.002804
-0.002842
-0.002425
-0.002410
-0.002414
-0.002764
-0.002704
-0.002747
-0.002675
-0.003229
-0.003218
-0.003227
-0.003105
-0.003092
-0.003098
-0.002897
-0.002904
-0.002906
-0.002913
-0.004488
-0.004343
-0.004445
-0.003037
-0.003008
-0.002996
-0.002967
-0.003182
-0.003198
-0.004297
-0.002812
-0.002821
-0.002810
-0.002450
-0.004611
-0.004504
-0.003066
-0.002325
-0.002308
-0.002298
-0.004108
-0.004102
-0.002831
-0.002836
-0.002842
-0.002847
-0.003206
-0.003195
-0.003201
-0.002487
-0.002502
-0.002490
-0.002641
-0.002658
-0.003151
-0.003146
-0.003154
-0.002767
-0.002770
-0.002777
-0.002277
-0.002784
-0.002763
-0.002755
-0.003019
-0.003002
-0.002750
-0.002638
-0.002653
-0.002656
-0.002668
-0.003899
-0.003928
-0.003162
-0.003154
-0.003152
-0.003089
-0.003101
-0.003095
-0.002967
-0.002958
-0.002952
-0.002985
-0.003849
-0.003009
-0.002993
-0.003216
-0.003208
-0.003210
-0.003201
-0.003079
-0.003066
-0.003072
-0.003127
-0.003093