# vtk DataFile Version 2.0
Test
ASCII
DATASET POLYDATA
POINTS 26238 float
0.000000 0.000000 0.000000
2.000000 0.000000 0.000000
2.000000 4.000000 0.000000
0.000000 4.000000 0.000000
0.000000 0.500000 0.000000
1.500000 2.000000 0.000000
2.000000 2.500000 0.000000
0.100000 0.000000 0.000000
0.200000 0.000000 0.000000
0.300000 0.000000 0.000000
0.400000 0.000000 0.000000
0.500000 0.000000 0.000000
0.600000 0.000000 0.000000
0.700000 0.000000 0.000000
0.800000 0.000000 0.000000
0.900000 0.000000 0.000000
1.000000 0.000000 0.000000
1.100000 0.000000 0.000000
1.200000 0.000000 0.000000
1.300000 0.000000 0.000000
1.400000 0.000000 0.000000
1.500000 0.000000 0.000000
1.600000 0.000000 0.000000
1.700000 0.000000 0.000000
1.800000 0.000000 0.000000
1.900000 0.000000 0.000000
2.000000 0.097923 0.000000
2.000000 0.192202 0.000000
2.000000 0.282973 0.000000
2.000000 0.370366 0.000000
2.000000 0.454507 0.000000
2.000000 0.535518 0.000000
2.000000 0.613513 0.000000
2.000000 0.688607 0.000000
2.000000 0.760906 0.000000
2.000000 0.830515 0.000000
2.000000 0.897534 0.000000
2.000000 0.962059 0.000000
2.000000 1.024183 0.000000
2.000000 1.083995 0.000000
2.000000 1.141582 0.000000
2.000000 1.197026 0.000000
2.000000 1.250406 0.000000
2.000000 1.301801 0.000000
2.000000 1.351283 0.000000
2.000000 1.398923 0.000000
2.000000 1.444791 0.000000
2.000000 1.488953 0.000000
2.000000 1.531470 0.000000
2.000000 1.572406 0.000000
2.000000 1.611819 0.000000
2.000000 1.649765 0.000000
2.000000 1.686299 0.000000
2.000000 1.721473 0.000000
2.000000 1.755339 0.000000
2.000000 1.787944 0.000000
2.000000 1.819337 0.000000
2.000000 1.849561 0.000000
2.000000 1.878660 0.000000
2.000000 1.906677 0.000000
2.000000 1.933651 0.000000
2.000000 1.959621 0.000000
2.000000 1.984625 0.000000
2.000000 2.008699 0.000000
2.000000 2.031877 0.000000
2.000000 2.054192 0.000000
2.000000 2.075677 0.000000
2.000000 2.096362 0.000000
2.000000 2.116278 0.000000
2.000000 2.135453 0.000000
2.000000 2.153914 0.000000
2.000000 2.171688 0.000000
2.000000 2.188801 0.000000
2.000000 2.205277 0.000000
2.000000 2.221140 0.000000
2.000000 2.236413 0.000000
2.000000 2.251117 0.000000
2.000000 2.265274 0.000000
2.000000 2.278905 0.000000
2.000000 2.292028 0.000000
2.000000 2.304663 0.000000
2.000000 2.316828 0.000000
2.000000 2.328540 0.000000
2.000000 2.339816 0.000000
2.000000 2.350673 0.000000
2.000000 2.361126 0.000000
2.000000 2.371189 0.000000
2.000000 2.380879 0.000000
2.000000 2.390207 0.000000
2.000000 2.399189 0.000000
2.000000 2.407836 0.000000
2.000000 2.416162 0.000000
2.000000 2.424178 0.000000
2.000000 2.431895 0.000000
2.000000 2.439326 0.000000
2.000000 2.446480 0.000000
2.000000 2.453367 0.000000
2.000000 2.459999 0.000000
2.000000 2.466383 0.000000
2.000000 2.472530 0.000000
2.000000 2.478449 0.000000
2.000000 2.484147 0.000000
2.000000 2.489633 0.000000
2.000000 2.494915 0.000000
2.000000 2.505084 0.000000
2.000000 2.510496 0.000000
2.000000 2.516256 0.000000
2.000000 2.522387 0.000000
2.000000 2.528913 0.000000
2.000000 2.535859 0.000000
2.000000 2.543253 0.000000
2.000000 2.551122 0.000000
2.000000 2.559499 0.000000
2.000000 2.568415 0.000000
2.000000 2.577905 0.000000
2.000000 2.588006 0.000000
2.000000 2.598758 0.000000
2.000000 2.610202 0.000000
2.000000 2.622383 0.000000
2.000000 2.635349 0.000000
2.000000 2.649149 0.000000
2.000000 2.663839 0.000000
2.000000 2.679474 0.000000
2.000000 2.696116 0.000000
2.000000 2.713831 0.000000
2.000000 2.732685 0.000000
2.000000 2.752754 0.000000
2.000000 2.774116 0.000000
2.000000 2.796853 0.000000
2.000000 2.821055 0.000000
2.000000 2.846815 0.000000
2.000000 2.874234 0.000000
2.000000 2.903419 0.000000
2.000000 2.934483 0.000000
2.000000 2.967548 0.000000
2.000000 3.002742 0.000000
2.000000 3.040202 0.000000
2.000000 3.080076 0.000000
2.000000 3.122517 0.000000
2.000000 3.167691 0.000000
2.000000 3.215774 0.000000
2.000000 3.266954 0.000000
2.000000 3.321430 0.000000
2.000000 3.379414 0.000000
2.000000 3.441132 0.000000
2.000000 3.506825 0.000000
2.000000 3.576749 0.000000
2.000000 3.651175 0.000000
2.000000 3.730395 0.000000
2.000000 3.814717 0.000000
2.000000 3.904468 0.000000
1.900000 4.000000 0.000000
1.800000 4.000000 0.000000
1.700000 4.000000 0.000000
1.600000 4.000000 0.000000
1.500000 4.000000 0.000000
1.400000 4.000000 0.000000
1.300000 4.000000 0.000000
1.200000 4.000000 0.000000
1.100000 4.000000 0.000000
1.000000 4.000000 0.000000
0.900000 4.000000 0.000000
0.800000 4.000000 0.000000
0.700000 4.000000 0.000000
0.600000 4.000000 0.000000
0.500000 4.000000 0.000000
0.400000 4.000000 0.000000
0.300000 4.000000 0.000000
0.200000 4.000000 0.000000
0.100000 4.000000 0.000000
0.000000 3.901898 0.000000
0.000000 3.806409 0.000000
0.000000 3.713462 0.000000
0.000000 3.622990 0.000000
0.000000 3.534927 0.000000
0.000000 3.449209 0.000000
0.000000 3.365773 0.000000
0.000000 3.284559 0.000000
0.000000 3.205508 0.000000
0.000000 3.128561 0.000000
0.000000 3.053664 0.000000
0.000000 2.980761 0.000000
0.000000 2.909799 0.000000
0.000000 2.840727 0.000000
0.000000 2.773493 0.000000
0.000000 2.708051 0.000000
0.000000 2.644350 0.000000
0.000000 2.582346 0.000000
0.000000 2.521993 0.000000
0.000000 2.463247 0.000000
0.000000 2.406065 0.000000
0.000000 2.350406 0.000000
0.000000 2.296229 0.000000
0.000000 2.243495 0.000000
0.000000 2.192165 0.000000
0.000000 2.142201 0.000000
0.000000 2.093568 0.000000
0.000000 2.046230 0.000000
0.000000 2.000153 0.000000
0.000000 1.955302 0.000000
0.000000 1.911646 0.000000
0.000000 1.869152 0.000000
0.000000 1.827789 0.000000
0.000000 1.787528 0.000000
0.000000 1.748339 0.000000
0.000000 1.710194 0.000000
0.000000 1.673064 0.000000
0.000000 1.636923 0.000000
0.000000 1.601745 0.000000
0.000000 1.567503 0.000000
0.000000 1.534172 0.000000
0.000000 1.501730 0.000000
0.000000 1.470151 0.000000
0.000000 1.439413 0.000000
0.000000 1.409494 0.000000
0.000000 1.380371 0.000000
0.000000 1.352024 0.000000
0.000000 1.324431 0.000000
0.000000 1.297573 0.000000
0.000000 1.271431 0.000000
0.000000 1.245984 0.000000
0.000000 1.221215 0.000000
0.000000 1.197106 0.000000
0.000000 1.173639 0.000000
0.000000 1.150796 0.000000
0.000000 1.128562 0.000000
0.000000 1.106920 0.000000
0.000000 1.085854 0.000000
0.000000 1.065349 0.000000
0.000000 1.045390 0.000000
0.000000 1.025962 0.000000
0.000000 1.007052 0.000000
0.000000 0.988645 0.000000
0.000000 0.970729 0.000000
0.000000 0.953289 0.000000
0.000000 0.936314 0.000000
0.000000 0.919791 0.000000
0.000000 0.903708 0.000000
0.000000 0.888053 0.000000
0.000000 0.872815 0.000000
0.000000 0.857983 0.000000
0.000000 0.843545 0.000000
0.000000 0.829492 0.000000
0.000000 0.815814 0.000000
0.000000 0.802499 0.000000
0.000000 0.789539 0.000000
0.000000 0.776925 0.000000
0.000000 0.764646 0.000000
0.000000 0.752694 0.000000
0.000000 0.741060 0.000000
0.000000 0.729736 0.000000
0.000000 0.718714 0.000000
0.000000 0.707985 0.000000
0.000000 0.697541 0.000000
0.000000 0.687376 0.000000
0.000000 0.677482 0.000000
0.000000 0.667851 0.000000
0.000000 0.658476 0.000000
0.000000 0.649351 0.000000
0.000000 0.640469 0.000000
0.000000 0.631824 0.000000
0.000000 0.623409 0.000000
0.000000 0.615217 0.000000
0.000000 0.607244 0.000000
0.000000 0.599484 0.000000
0.000000 0.591929 0.000000
0.000000 0.584577 0.000000
0.000000 0.577419 0.000000
0.000000 0.570453 0.000000
0.000000 0.563672 0.000000
0.000000 0.557071 0.000000
0.000000 0.550646 0.000000
0.000000 0.544393 0.000000
0.000000 0.538306 0.000000
0.000000 0.532380 0.000000
0.000000 0.526613 0.000000
0.000000 0.520999 0.000000
0.000000 0.515535 0.000000
0.000000 0.510216 0.000000
0.000000 0.505039 0.000000
0.000000 0.494581 0.000000
0.000000 0.488047 0.000000
0.000000 0.480167 0.000000
0.000000 0.470665 0.000000
0.000000 0.459206 0.000000
0.000000 0.445387 0.000000
0.000000 0.428723 0.000000
0.000000 0.408628 0.000000
0.000000 0.384395 0.000000
0.000000 0.355172 0.000000
0.000000 0.319933 0.000000
0.000000 0.277436 0.000000
0.000000 0.226190 0.000000
0.000000 0.164392 0.000000
0.000000 0.089868 0.000000
0.003529 0.503529 0.000000
0.007059 0.507059 0.000000
0.010588 0.510588 0.000000
0.014118 0.514118 0.000000
0.017647 0.517647 0.000000
0.021176 0.521176 0.000000
0.024706 0.524706 0.000000
0.028235 0.528235 0.000000
0.031765 0.531765 0.000000
0.035294 0.535294 0.000000
0.038824 0.538824 0.000000
0.042353 0.542353 0.000000
0.045882 0.545882 0.000000
0.049412 0.549412 0.000000
0.052941 0.552941 0.000000
0.056471 0.556471 0.000000
0.060000 0.560000 0.000000
0.063529 0.563529 0.000000
0.067059 0.567059 0.000000
0.070588 0.570588 0.000000
0.074118 0.574118 0.000000
0.077647 0.577647 0.000000
0.081176 0.581176 0.000000
0.084706 0.584706 0.000000
0.088235 0.588235 0.000000
0.091765 0.591765 0.000000
0.095294 0.595294 0.000000
0.098824 0.598824 0.000000
0.102353 0.602353 0.000000
0.105882 0.605882 0.000000
0.109412 0.609412 0.000000
0.112941 0.612941 0.000000
0.116471 0.616471 0.000000
0.120000 0.620000 0.000000
0.123529 0.623529 0.000000
0.127059 0.627059 0.000000
0.130588 0.630588 0.000000
0.134118 0.634118 0.000000
0.137647 0.637647 0.000000
0.141176 0.641176 0.000000
0.144706 0.644706 0.000000
0.148235 0.648235 0.000000
0.151765 0.651765 0.000000
0.155294 0.655294 0.000000
0.158824 0.658824 0.000000
0.162353 0.662353 0.000000
0.165882 0.665882 0.000000
0.169412 0.669412 0.000000
0.172941 0.672941 0.000000
0.176471 0.676471 0.000000
0.180000 0.680000 0.000000
0.183529 0.683529 0.000000
0.187059 0.687059 0.000000
0.190588 0.690588 0.000000
0.194118 0.694118 0.000000
0.197647 0.697647 0.000000
0.201176 0.701176 0.000000
0.204706 0.704706 0.000000
0.208235 0.708235 0.000000
0.211765 0.711765 0.000000
0.215294 0.715294 0.000000
0.218824 0.718824 0.000000
0.222353 0.722353 0.000000
0.225882 0.725882 0.000000
0.229412 0.729412 0.000000
0.232941 0.732941 0.000000
0.236471 0.736471 0.000000
0.240000 0.740000 0.000000
0.243529 0.743529 0.000000
0.247059 0.747059 0.000000
0.250588 0.750588 0.000000
0.254118 0.754118 0.000000
[...]
POINT_DATA 26238
SCALARS UX float 1
LOOKUP_TABLE default
-0.000000
0.000000
-0.008486
-0.011852
-0.001792
-0.002267
-0.003790
-0.000000
-0.000000
-0.000000
-0.000000
-0.000000
-0.000000
-0.000000
-0.000000
-0.000000
-0.000000
0.000000
0.000000
0.000000
0.000000
0.000000
0.000000
0.000000
0.000000
0.000000
0.000547
0.000860
0.001080
0.001235
0.001350
0.001433
0.001490
0.001526
0.001548
0.001556
0.001554
0.001542
0.001522
0.001495
0.001461
0.001421
0.001377
0.001326
0.001269
0.001208
0.001140
0.001067
0.000987
0.000900
0.000807
0.000706
0.000597
0.000481
0.000358
0.000228
0.000091
-0.000052
-0.000198
-0.000350
-0.000503
-0.000658
-0.000812
-0.000965
-0.001115
-0.001262
-0.001404
-0.001541
-0.001673
-0.001800
-0.001922
-0.002037
-0.002146
-0.002250
-0.002349
-0.002442
-0.002531
-0.002614
-0.002694
-0.002768
-0.002839
-0.002906
-0.002970
-0.003030
-0.003087
-0.003141
-0.003193
-0.003241
-0.003288
-0.003332
-0.003374
-0.003413
-0.003451
-0.003487
-0.003522
-0.003555
-0.003586
-0.003616
-0.003644
-0.003671
-0.003697
-0.003722
-0.003746
-0.003768
-0.003812
-0.003834
-0.003858
-0.003884
-0.003911
-0.003939
-0.003969
-0.004001
-0.004034
-0.004069
-0.004106
-0.004145
-0.004186
-0.004229
-0.004275
-0.004322
-0.004372
-0.004425
-0.004481
-0.004539
-0.004600
-0.004664
-0.004732
-0.004803
-0.004877
-0.004956
-0.005038
-0.005124
-0.005216
-0.005312
-0.005413
-0.005519
-0.005632
-0.005751
-0.005877
-0.006010
-0.006151
-0.006301
-0.006460
-0.006630
-0.006811
-0.007005
-0.007212
-0.007432
-0.007669
-0.007923
-0.008195
-0.008661
-0.008837
-0.009012
-0.009184
-0.009354
-0.009521
-0.009685
-0.009847
-0.010007
-0.010166
-0.010326
-0.010487
-0.010649
-0.010815
-0.010982
-0.011153
-0.011326
-0.011501
-0.011676
-0.011562
-0.011279
-0.011002
-0.010731
-0.010465
-0.010205
-0.009951
-0.009704
-0.009465
-0.009232
-0.009007
-0.008791
-0.008583
-0.008384
-0.008194
-0.008013
-0.007842
-0.007681
-0.007530
-0.007388
-0.007257
-0.007135
-0.007022
-0.006919
-0.006825
-0.006740
-0.006663
-0.006594
-0.006532
-0.006476
-0.006427
-0.006384
-0.006347
-0.006313
-0.006285
-0.006261
-0.006241
-0.006224
-0.006210
-0.006198
-0.006189
-0.006182
-0.006176
-0.006172
-0.006170
-0.006169
-0.006168
-0.006169
-0.006170
-0.006171
-0.006173
-0.006176
-0.006179
-0.006182
-0.006185
-0.006188
-0.006191
-0.006194
-0.006197
-0.006200
-0.006203
-0.006206
-0.006209
-0.006212
-0.006214
-0.006217
-0.006219
-0.006221
-0.006223
-0.006225
-0.006227
-0.006228
-0.006230
-0.006231
-0.006232
-0.006233
-0.006234
-0.006236
-0.006238
-0.006239
-0.006239
-0.006240
-0.006240
-0.006240
-0.006240
-0.006239
-0.006238
-0.006236
-0.006233
-0.006229
-0.006225
-0.006221
-0.006217
-0.006212
-0.006207
-0.006199
-0.006189
-0.006180
-0.006174
-0.006168
-0.006157
-0.006135
-0.006104
-0.006053
-0.005993
-0.005928
-0.005799
-0.005404
-0.005887
-0.004812
-0.001640
-0.001586
-0.001535
-0.001482
-0.001434
-0.001389
-0.001347
-0.001306
-0.001262
-0.001211
-0.001150
-0.001068
-0.000949
-0.000779
-0.000521
-0.002056
-0.003195
-0.003489
-0.003561
-0.003500
-0.003499
-0.003524
-0.003515
-0.003531
-0.003509
-0.003534
-0.003538
-0.003508
-0.003532
-0.003565
-0.003520
-0.003542
-0.003531
-0.003521
-0.003499
-0.003524
-0.003511
-0.003528
-0.003503
-0.003430
-0.003414
-0.003407
-0.003396
-0.003386
-0.003397
-0.003362
-0.003370
-0.003365
-0.003380
-0.003365
-0.003369
-0.003342
-0.003446
-0.003391
-0.003300
-0.003362
-0.003389
-0.003226
-0.003260
-0.003246
-0.003138
-0.003689
-0.003616
-0.003587
-0.003782
-0.003718
-0.003790
-0.003773
-0.003733
-0.003746
-0.003703
-0.003676
-0.003699
-0.003652
-0.003712
-0.003723
-0.003705
-0.003683
-0.003663
-0.003654
-0.003663
-0.003609
-0.003654
-0.003615
-0.003600
-0.003588
-0.003550
-0.003528
-0.003375
-0.003456
-0.003483
-0.003466
-0.003629
-0.003567
-0.003528
-0.003504
-0.003506
-0.003498
-0.003503
-0.003491
-0.003478
-0.003426
-0.003438
-0.003398
-0.003372
-0.003388
-0.003384
-0.003371
-0.003340
-0.003336
-0.003316
-0.003304
-0.003331
-0.003298
-0.003304
-0.003265
-0.003303
-0.003282
-0.003274
-0.003262
-0.003247
-0.003459
-0.003417
-0.003423
-0.003367
-0.003420
-0.003391
-0.003364
-0.003354
-0.003360
-0.003292
-0.003282
-0.003282
-0.003251
-0.003298
-0.003321
-0.003296
-0.003290
-0.003294
-0.003276
-0.003283
-0.003319
-0.003368
-0.003320
-0.003340
-0.003396
-0.003370
-0.003398
-0.003354
-0.003340
-0.003315
-0.003304
-0.003303
-0.003274
-0.003231
-0.003230
-0.003249
-0.003229
-0.003221
-0.003264
-0.003211
-0.003193
-0.003184
-0.003200
-0.003191
-0.003152
-0.003107
-0.003082
-0.003063
-0.003025
-0.003018
-0.003042
-0.003005
-0.003010
-0.003016
-0.002999
-0.003001
-0.003018
-0.003023
-0.002996
-0.002994
-0.002982
-0.002965
-0.002910
-0.002872
-0.002864
-0.002857
-0.002844
-0.002832
-0.002810
-0.002754
-0.002769
-0.002783
-0.002744
-0.002779
-0.002773
-0.002746
-0.002738
-0.002745
-0.002730
-0.002702
-0.002819
-0.002822
-0.002766
-0.002764
-0.002770
-0.002774
-0.002790
-0.002788
-0.002815
-0.002801
-0.002781
-0.002820
-0.002823
-0.002815
-0.002827
-0.002829
-0.002819
-0.002808
-0.002728
-0.002800
-0.002737
-0.003159
-0.002805
-0.002820
-0.002776
-0.002796
-0.002808
-0.002773
-0.002797
-0.002814
-0.002777
-0.002754
-0.002774
-0.002749
-0.002722
-0.002736
-0.002668
-0.002646
-0.002613
-0.002596
-0.002577
-0.002629
-0.002633
-0.002649
-0.002652
-0.002690
-0.002706
-0.002654
-0.002694
-0.002659
-0.002638
-0.002597
-0.002678
-0.002673
-0.002684
-0.002707
-0.002680
-0.002629
-0.002628
-0.002627
-0.002609
-0.002572
-0.002572
-0.002561
-0.002551
-0.002567
-0.002496
-0.002741
-0.002683
-0.002665
-0.002660
-0.002625
-0.002606
-0.002587
-0.002557
-0.002538
-0.002546
-0.002529
-0.002495
-0.002519
-0.002505
-0.002522
-0.002511
-0.002514
-0.002509
-0.002476
-0.002493
-0.002454
-0.002472
-0.002413
-0.002405
-0.002408
-0.002395
-0.002364
-0.002428
-0.002438
-0.002467
-0.002480
-0.002459
-0.002480
-0.002457
-0.002455
-0.002472
-0.002507
-0.002530
-0.002536
-0.002489
-0.002459
-0.002437
-0.002444
-0.002402
-0.002392
-0.002426
-0.002387
-0.002423
-0.002376
-0.002414
-0.002415
-0.002364
-0.002381
-0.002366
-0.002372
-0.002408
-0.002357
-0.002362
-0.002375
-0.002391
-0.002358
-0.002357
-0.002371
-0.002332
-0.002344
-0.002331
-0.002330
-0.002311
-0.002302
-0.002318
-0.002278
-0.002315
-0.002299
-0.002325
-0.002313
-0.002348
-0.002348
-0.002353
-0.002328
-0.002360
-0.002326
-0.002341
-0.002334
-0.002352
-0.002357
-0.002396
-0.002373
-0.002350
-0.002352
-0.002333
-0.002281
-0.002320
-0.002313
-0.002340
-0.002338
-0.002320
-0.002352
-0.002281
-0.002313
-0.002306
-0.002261
-0.002255
-0.002256
-0.002234
-0.001983
-0.002109
-0.002082
-0.002064
-0.002053
-0.002055
-0.002065
-0.002083
-0.002326
-0.002384
-0.002294
-0.002327
-0.002304
-0.002263
-0.002277
-0.002240
-0.002304
-0.002295
-0.002356
-0.002310
-0.002332
-0.002325
-0.002303
-0.002326
-0.002308
-0.002344
-0.002301
-0.002323
-0.002300
-0.002295
-0.002256
-0.002293
-0.002291
-0.002281
-0.002270
-0.002269
-0.002311
-0.002330
-0.002330
-0.002358
-0.002353
-0.002370
-0.002361
-0.002375
-0.002368
-0.002377
-0.002365
-0.002359
-0.002367
-0.002360
-0.002361
-0.002358
-0.002353
-0.002356
-0.002341
-0.002361
-0.002367
-0.002353
-0.002345
-0.002343
-0.002338
-0.002335
-0.002334
-0.002329
-0.002322
-0.002308
-0.002291
-0.002260
-0.002280
-0.002303
-0.002327
-0.002348
-0.002369
-0.002389
-0.002408
-0.002427
-0.002445
-0.002462
-0.002477
-0.002493
-0.002508
-0.002522
-0.002537
-0.002551
-0.002564
-0.002577
-0.002590
-0.002603
-0.002615
-0.002628
-0.002642
-0.002655
-0.002667
-0.002679
-0.002691
-0.002703
-0.002714
-0.002726
-0.002737
-0.002748
-0.002759
-0.002770
-0.002781
-0.002792
-0.002802
-0.002813
-0.002824
-0.002835
-0.002845
-0.002856
-0.002866
-0.002877
-0.002888
-0.002898
-0.002909
-0.002919
-0.002930
-0.002940
-0.002951
-0.002961
-0.002972
-0.002982
-0.002993
-0.003004
-0.003014
-0.003025
-0.003035
-0.003046
-0.003056
-0.003067
-0.003078
-0.003088
-0.003099
-0.003109
-0.003120
-0.003130
-0.003141
-0.003152
-0.003162
-0.003173
-0.003183
-0.003194
-0.003204
-0.003215
-0.003225
-0.003236
-0.003246
-0.003257
-0.003267
-0.003278
-0.003288
-0.003298
-0.003309
-0.003319
-0.003329
-0.003339
-0.003349
-0.003360
-0.003370
-0.003380
-0.003390
-0.003400
-0.003410
-0.003420
-0.003429
-0.003439
-0.003449
-0.003458
-0.003468
-0.003478
-0.003487
-0.003496
-0.003506
-0.003515
-0.003524
-0.003533
-0.003542
-0.003551
-0.003560
-0.003569
-0.003578
-0.003587
-0.003595
-0.003604
-0.003612
-0.003621
-0.003629
-0.003637
-0.003645
-0.003653
-0.003661
-0.003669
-0.003677
-0.003684
-0.003692
-0.003700
-0.003707
-0.003714
-0.003722
-0.003729
-0.003736
-0.003743
-0.003750
-0.003757
-0.003764
-0.003770
-0.003777
-0.003784
-0.004359
-0.004399
-0.004144
-0.003457
-0.003490
-0.003471
-0.004737
-0.004722
-0.004678
-0.004496
-0.004688
-0.004060
-0.004244
-0.004020
-0.004031
-0.004014
-0.004036
-0.003387
-0.003400
-0.003363
-0.005469
-0.005466
-0.005403
-0.005384
-0.003421
-0.005118
-0.005096
-0.005180
-0.003584
-0.003572
-0.003558
-0.005113
-0.004673
-0.004586
-0.004656
-0.003551
-0.005386
-0.005358
-0.005457
-0.005241
-0.004353
-0.004409
-0.004427
-0.003327
-0.003355
-0.003327
-0.005663
-0.005678
-0.005651
-0.003422
-0.003395
-0.003407
-0.005625
-0.005608
-0.005636
-0.003392
-0.005678
-0.005667
-0.005694
-0.005115
-0.005055
-0.005053
-0.003714
-0.003752
-0.003742
-0.003784
-0.005759
-0.005790
-0.005752
-0.005789
-0.005099
-0.005696
-0.005686
-0.005655
-0.005653
-0.004453
-0.005684
-0.005670
-0.005701
-0.004141
-0.004090
-0.004103
-0.003639
-0.003674
-0.003626
-0.003625
-0.004121
-0.005469
-0.005483
-0.005294
-0.005674
-0.005670
-0.005692
-0.005691
-0.003968
-0.004012
-0.003979
-0.004012
-0.005226
-0.005243
-0.005223
-0.003540
-0.003564
-0.003568
-0.003592
-0.005069
-0.005021
-0.005084
-0.004974
-0.003567
-0.007952
-0.008136
-0.007988
-0.003788
-0.008048
-0.004129
-0.004142
-0.004113
-0.005026
-0.005057
-0.005045
-0.005556
-0.005563
-0.005575
-0.003544
-0.003516
-0.004160
-0.005262
-0.005241
-0.003299
-0.004906
-0.004360
-0.004739
-0.003452
-0.005543
-0.005540
-0.005525
-0.004556
-0.004498
-0.004500
-0.004574
-0.005526
-0.005538
-0.005548
-0.007175
-0.007023
-0.007136
-0.007067
-0.007283
-0.007132
-0.007132
-0.006438
-0.006362
-0.006300
-0.007263
-0.005219
-0.004984
-0.004775
-0.004407
-0.005210
-0.005241
-0.005323
-0.005170
-0.003861
-0.003815
-0.003846
-0.003824
-0.004503
-0.004515
-0.004500
-0.003065
-0.003049
-0.002945
-0.005663
-0.005649
-0.005669
-0.005657
-0.003299
-0.003334
-0.003348
-0.003138
-0.007697
-0.007698
-0.007838
-0.007536
-0.004102
-0.004082
-0.004094
-0.004068
-0.004903
-0.004920
-0.004915
-0.004329
-0.004408
-0.004331
-0.004932
-0.007262
-0.007122
-0.007234
-0.004805
-0.004575
-0.003962
-0.003991
-0.004005
-0.003869
-0.003892
-0.003924
-0.005955
-0.005963
-0.005943
-0.007084
-0.005060
-0.005039
-0.005057
-0.005029
-0.005428
-0.005390
-0.005411
-0.005407
-0.005806
-0.005795
-0.005785
-0.005776
-0.005815
-0.005797
-0.005835
-0.005780
-0.004944
-0.004949
-0.004971
-0.005012
-0.005019
-0.004959
-0.006256
-0.006189
-0.006146
-0.006259
-0.003688
-0.003720
-0.003687
-0.005844
-0.005826
-0.005825
-0.005812
-0.005614
-0.005588
-0.005650
-0.005603
-0.004974
-0.005425
-0.005417
-0.005441
-0.005837
-0.005856
-0.005827
-0.005857
-0.005589
-0.005613
-0.005656
-0.005521
-0.005360
-0.005367
-0.005383
-0.004955
-0.004924
-0.004951
-0.005345
-0.005312
-0.005284
-0.005330
-0.003947
-0.004859
-0.004935
-0.004915
-0.005402
-0.005714
-0.005724
-0.005746
-0.005689
-0.005472
-0.005452
-0.005477
-0.005472
-0.005563
-0.005478
-0.005597
-0.004181
-0.004194
-0.004184
-0.005242
-0.005243
-0.005224
-0.004905
-0.004861
-0.004852
-0.004894
-0.003951
-0.003981
-0.003946
-0.003971
-0.004698
-0.004675
-0.004666
-0.005947
-0.005943
-0.005915
-0.005913
-0.003730
-0.003719
-0.003745
-0.007306
-0.007278
-0.007182
-0.003722
-0.007316
-0.007425
-0.007244
-0.007471
-0.006032
-0.006024
-0.006013
-0.006002
-0.005704
-0.005694
-0.005657
-0.005677
-0.004635
-0.004607
-0.004602
-0.004852
-0.004868
-0.004889
-0.004903
-0.003464
-0.003443
-0.003442
-0.005386
-0.005368
-0.005375
-0.004194
-0.004250
-0.004192
-0.004247
-0.006044
-0.006040
-0.006029
-0.006022
-0.004406
-0.004429
-0.004395
-0.004440
-0.005931
-0.005826
-0.005875
-0.005792
-0.004312
-0.004358
-0.004311
-0.004371
-0.004059
-0.004051
-0.004093
-0.004025
-0.005185
-0.005163
-0.005209
-0.005143
-0.005535
-0.005468
-0.005498
-0.004194
-0.006308
-0.006223
-0.006344
-0.006208
-0.006534
-0.006422
-0.006404
-0.006550
-0.008957
-0.009159
-0.008869
-0.004606
-0.004652
-0.004574
-0.005195
-0.005199
-0.005182
-0.005926
-0.005915
-0.005908
-0.004575
-0.005119
-0.005159
-0.005199
-0.005097
-0.004370
-0.004318
-0.004377
-0.004305
-0.006011
-0.005973
-0.005994
-0.005962
-0.005182
-0.004799
-0.004810
-0.004818
-0.005853
-0.005930
-0.005825
-0.004203
-0.004130
-0.004160
-0.005737
-0.005776
-0.005715
-0.004882
-0.004814
-0.004850
-0.005796
-0.003316
-0.003355
-0.003341
-0.003631
-0.003605
-0.003613
-0.005604
-0.005645
-0.005581
-0.005648
-0.005391
-0.005337
-0.005309
-0.004968
-0.005000
-0.004940
-0.005399
-0.004481
-0.004430
-0.004428
-0.004998
-0.004904
-0.005306
-0.005278
-0.005310
-0.004580
-0.004573
-0.004529
-0.005300
-0.005299
-0.005320
-0.005277
-0.004558
-0.004543
-0.004555
-0.004247
-0.004300
-0.004259
-0.004251
-0.004651
-0.004640
-0.005660
-0.005649
-0.005579
-0.003705
-0.003706
-0.003740
-0.005809
-0.005777
-0.005712
-0.004836
-0.004860
-0.004901
-0.004959
-0.004600
-0.004586
-0.004646
-0.004530
-0.005332
-0.005330
-0.005357
-0.005353
-0.003717
-0.003723
-0.003758
-0.003908
-0.003883
-0.003922
-0.003885
-0.004066
-0.004035
-0.004088
-0.003758
-0.004619
-0.004646
-0.004643
-0.004550
-0.004565
-0.004556
-0.004555
-0.004562
-0.004561
-0.004584
-0.004537
-0.005444
-0.005452
-0.005463
-0.005193
-0.005176
-0.005182
-0.005377
-0.005368
-0.005289
-0.005085
-0.005126
-0.005126
-0.005167
-0.004608
-0.004581
-0.004506
-0.005165
-0.005406
-0.005416
-0.005404
-0.005543
-0.005557
-0.005546
-0.005563
-0.005415
-0.004816
-0.004831
-0.004803
-0.004850
-0.003928
-0.003876
-0.003899
-0.006149
-0.006166
-0.006159
-0.006164
-0.004713
-0.004707
-0.004733
-0.004685
-0.005690
-0.005674
-0.005698
-0.005741
-0.005686
-0.005727
-0.003677
-0.004143
-0.003624
-0.005674
-0.006097
-0.006083
-0.006096
-0.005551
-0.005535
-0.006128
-0.006087
-0.006063
-0.004055
-0.005884
-0.005923
-0.005836
-0.006013
-0.006005
-0.004534
-0.004473
-0.004483
-0.005933
-0.005813
-0.005813
-0.005833
-0.006484
-0.006397
-0.006528
-0.006408
-0.003718
-0.003724
-0.003695
-0.005609
-0.005616
-0.005629
-0.005643
-0.006073
-0.006072
-0.006016
-0.003752
-0.005955
-0.005976
-0.005916
-0.005193
-0.005182
-0.005119
-0.005339
-0.005320
-0.005857
-0.005838
-0.005822
-0.004576
-0.004563
-0.004577
-0.004805
-0.004776
-0.004793
-0.006084
-0.006019
-0.006089
-0.004563
-0.003613
-0.003631
-0.003586
-0.005467
-0.005465
-0.005393
-0.005530
-0.006036
-0.006009
-0.006105
-0.005968
-0.005918
-0.004388
-0.004414
-0.004349
-0.004748
-0.004731
-0.004737
-0.004720
-0.003625
-0.003658
-0.003620
-0.004717
-0.004696
-0.004633
-0.003662
-0.003658
-0.003657
-0.003660
-0.003640
-0.003687
-0.003996
-0.004013
-0.004013
-0.005647
-0.005634
-0.005656
-0.005135
-0.005365
-0.004890
-0.005536
-0.005635
-0.005447
-0.005465
-0.005412
-0.005241
-0.005220
-0.005213
-0.005195
-0.005836
-0.005857
-0.005843
-0.005868
-0.005918
-0.005933
-0.005926
-0.004156
-0.004154
-0.004202
-0.004856
-0.004759
-0.004751
-0.003549
-0.003546
-0.003509
-0.005633
-0.005597
-0.005638
-0.005687
-0.003495
-0.003556
-0.003590
-0.005931
-0.004031
-0.004698
-0.004698
-0.004710
-0.005261
-0.005287
-0.005311
-0.005320
-0.005446
-0.005449
-0.005402
-0.004713
-0.003664
-0.003633
-0.003658
-0.005003
-0.004992
-0.005013
-0.005012
-0.005342
-0.005488
-0.005366
-0.005699
-0.005656
-0.005651
-0.005149
-0.005174
-0.005174
-0.005040
-0.005030
-0.005008
-0.005061
-0.005795
-0.005813
-0.005813
-0.005827
-0.003582
-0.003568
-0.003594
-0.005352
-0.005313
-0.005376
-0.003939
-0.003921
-0.003939
-0.004882
-0.004865
-0.004862
-0.004842
-0.003923
-0.005025
-0.005043
-0.005048
-0.005069
-0.007682
-0.007546
-0.007854
-0.003758
-0.003718
-0.003717
-0.005724
-0.005729
-0.005745
-0.005711
-0.004118
-0.004101
-0.004110
-0.003755
-0.005762
-0.005778
-0.005762
-0.005489
-0.005522
-0.005498
-0.005502
-0.005962
-0.005925
-0.005804
-0.004093
-0.003986
-0.004008
-0.003992
-0.004701
-0.004731
-0.004753
-0.005423
-0.005415
-0.005434
-0.005425
-0.004013
-0.003732
-0.003717
-0.003713
-0.005541
-0.005584
-0.005561
-0.005611
-0.004676
-0.006049
-0.006064
-0.006034
-0.006085
-0.005129
-0.005138
-0.005121
-0.005146
-0.005124
-0.005105
-0.005104
-0.005408
-0.005369
-0.005364
-0.005429
-0.004774
-0.004811
-0.004805
-0.004850
-0.004662
-0.004627
-0.005609
-0.005594
-0.005611
-0.004396
-0.004410
-0.004424
-0.004379
-0.004446
-0.004451
-0.005650
-0.005370
-0.005333
-0.005592
-0.003741
-0.004722
-0.004762
-0.004737
-0.003398
-0.003318
-0.003565
-0.004677
-0.005770
-0.005788
-0.005792
-0.003073
-0.005805
-0.004682
-0.004634
-0.004635
-0.004734
-0.004697
-0.004771
-0.005622
-0.005605
-0.005619
-0.005368
-0.005337
-0.005350
-0.005066
-0.005127
-0.005069
-0.004671
-0.004643
-0.004672
-0.003680
-0.003649
-0.003642
-0.005123
-0.005465
-0.005479
-0.005481
-0.005496
-0.004568
-0.004645
-0.004699
-0.004641
-0.004836
-0.004813
-0.004819
-0.006060
-0.005997
-0.006030
-0.005947
-0.006083
-0.006175
-0.006207
-0.004519
-0.004504
-0.004486
-0.004471
-0.005118
-0.005134
-0.005129
-0.004540
-0.004499
-0.004511
-0.006342
-0.004858
-0.004837
-0.004865
-0.004827
-0.005759
-0.005737
-0.005748
-0.004475
-0.005935
-0.005918
-0.005907
-0.004792
-0.003551
-0.004846
-0.004867
-0.004549
-0.005068
-0.005288
-0.005290
-0.005307
-0.005313
-0.005761
-0.005788
-0.005755
-0.005790
-0.006005
-0.006031
-0.006111
-0.005913
-0.006081
-0.006004
-0.006063
-0.004972
-0.004964
-0.004946
-0.004943
-0.003588
-0.004321
-0.004335
-0.004315
-0.004332
-0.005678
-0.005707
-0.005685
-0.003496
-0.003463
-0.003471
-0.004335
-0.004391
-0.004316
-0.004974
-0.005045
-0.005027
-0.005425
-0.005393
-0.005394
-0.005119
-0.005208
-0.005206
-0.004315
-0.004106
-0.004948
-0.004977
-0.004965
-0.005716
-0.005693
-0.005705
-0.005192
-0.005189
-0.003497
-0.004044
-0.003840
-0.004832
-0.004863
-0.004822
-0.006257
-0.006346
-0.006372
-0.006469
-0.003874
-0.003838
-0.003809
-0.005436
-0.005407
-0.005408
-0.005048
-0.005064
-0.005050
-0.005682
-0.005659
-0.005692
-0.004679
-0.004684
-0.004603
-0.008706
-0.008577
-0.008430
-0.006120
-0.006040
-0.005839
-0.005821
-0.005829
-0.005812
-0.005025
-0.005039
-0.005025
-0.008376
-0.005036
-0.005064
-0.005660
-0.005697
-0.005966
-0.005974
-0.005879
-0.005719
-0.004999
-0.004533
-0.004340
-0.004393
-0.004429
-0.004416
-0.005454
-0.005465
-0.005471
-0.005660
-0.005638
-0.005649
-0.003644
-0.003622
-0.003620
-0.006662
-0.006749
-0.006865
-0.005022
-0.005048
-0.005020
-0.005461
-0.005447
-0.005444
-0.005547
-0.005526
-0.005513
-0.005505
-0.004772
-0.004797
-0.004340
-0.004351
-0.004376
-0.004724
-0.004742
-0.004747
-0.004771
-0.004429
-0.004446
-0.004450
-0.005253
-0.005092
-0.005411
-0.005740
-0.005720
-0.005701
-0.006566
-0.005076
-0.005075
-0.005143
-0.004375
-0.004348
-0.004356
-0.004994
-0.004888
-0.004967
-0.004847
-0.005814
-0.005795
-0.005810
-0.005597
-0.005574
-0.005585
-0.005227
-0.005239
-0.005243
-0.005255
-0.008116
-0.007853
-0.008040
-0.005500
-0.005446
-0.005426
-0.005372
-0.005738
-0.005768
-0.007771
-0.005071
-0.005088
-0.005068
-0.004423
-0.008338
-0.008144
-0.005517
-0.004213
-0.004183
-0.004166
-0.007433
-0.007423
-0.005108
-0.005117
-0.005129
-0.005137
-0.005776
-0.005757
-0.005767
-0.004488
-0.004515
-0.004493
-0.004765
-0.004796
-0.005683
-0.005673
-0.005688
-0.004989
-0.004995
-0.005008
-0.004126
-0.005021
-0.004983
-0.004969
-0.005446
-0.005416
-0.004959
-0.004760
-0.004788
-0.004792
-0.004814
-0.007049
-0.007103
-0.005696
-0.005682
-0.005677
-0.005568
-0.005589
-0.005579
-0.005352
-0.005337
-0.005325
-0.005384
-0.006960
-0.005429
-0.005399
-0.005793
-0.005780
-0.005782
-0.005766
-0.005548
-0.005524
-0.005536
-0.005650
-0.005588