# vtk DataFile Version 2.0
Test
ASCII
DATASET POLYDATA
POINTS 26238 float
0.000000 0.000000 0.000000
2.000000 0.000000 0.000000
2.000000 4.000000 0.000000
0.000000 4.000000 0.000000
0.000000 0.500000 0.000000
1.500000 2.000000 0.000000
2.000000 2.500000 0.000000
0.100000 0.000000 0.000000
0.200000 0.000000 0.000000
0.300000 0.000000 0.000000
0.400000 0.000000 0.000000
0.500000 0.000000 0.000000
0.600000 0.000000 0.000000
0.700000 0.000000 0.000000
0.800000 0.000000 0.000000
0.900000 0.000000 0.000000
1.000000 0.000000 0.000000
1.100000 0.000000 0.000000
1.200000 0.000000 0.000000
1.300000 0.000000 0.000000
1.400000 0.000000 0.000000
1.500000 0.000000 0.000000
1.600000 0.000000 0.000000
1.700000 0.000000 0.000000
1.800000 0.000000 0.000000
1.900000 0.000000 0.000000
2.000000 0.097923 0.000000
2.000000 0.192202 0.000000
2.000000 0.282973 0.000000
2.000000 0.370366 0.000000
2.000000 0.454507 0.000000
2.000000 0.535518 0.000000
2.000000 0.613513 0.000000
2.000000 0.688607 0.000000
2.000000 0.760906 0.000000
2.000000 0.830515 0.000000
2.000000 0.897534 0.000000
2.000000 0.962059 0.000000
2.000000 1.024183 0.000000
2.000000 1.083995 0.000000
2.000000 1.141582 0.000000
2.000000 1.197026 0.000000
2.000000 1.250406 0.000000
2.000000 1.301801 0.000000
2.000000 1.351283 0.000000
2.000000 1.398923 0.000000
2.000000 1.444791 0.000000
2.000000 1.488953 0.000000
2.000000 1.531470 0.000000
2.000000 1.572406 0.000000
2.000000 1.611819 0.000000
2.000000 1.649765 0.000000
2.000000 1.686299 0.000000
2.000000 1.721473 0.000000
2.000000 1.755339 0.000000
2.000000 1.787944 0.000000
2.000000 1.819337 0.000000
2.000000 1.849561 0.000000
2.000000 1.878660 0.000000
2.000000 1.906677 0.000000
2.000000 1.933651 0.000000
2.000000 1.959621 0.000000
2.000000 1.984625 0.000000
2.000000 2.008699 0.000000
2.000000 2.031877 0.000000
2.000000 2.054192 0.000000
2.000000 2.075677 0.000000
2.000000 2.096362 0.000000
2.000000 2.116278 0.000000
2.000000 2.135453 0.000000
2.000000 2.153914 0.000000
2.000000 2.171688 0.000000
2.000000 2.188801 0.000000
2.000000 2.205277 0.000000
2.000000 2.221140 0.000000
2.000000 2.236413 0.000000
2.000000 2.251117 0.000000
2.000000 2.265274 0.000000
2.000000 2.278905 0.000000
2.000000 2.292028 0.000000
2.000000 2.304663 0.000000
2.000000 2.316828 0.000000
2.000000 2.328540 0.000000
2.000000 2.339816 0.000000
2.000000 2.350673 0.000000
2.000000 2.361126 0.000000
2.000000 2.371189 0.000000
2.000000 2.380879 0.000000
2.000000 2.390207 0.000000
2.000000 2.399189 0.000000
2.000000 2.407836 0.000000
2.000000 2.416162 0.000000
2.000000 2.424178 0.000000
2.000000 2.431895 0.000000
2.000000 2.439326 0.000000
2.000000 2.446480 0.000000
2.000000 2.453367 0.000000
2.000000 2.459999 0.000000
2.000000 2.466383 0.000000
2.000000 2.472530 0.000000
2.000000 2.478449 0.000000
2.000000 2.484147 0.000000
2.000000 2.489633 0.000000
2.000000 2.494915 0.000000
2.000000 2.505084 0.000000
2.000000 2.510496 0.000000
2.000000 2.516256 0.000000
2.000000 2.522387 0.000000
2.000000 2.528913 0.000000
2.000000 2.535859 0.000000
2.000000 2.543253 0.000000
2.000000 2.551122 0.000000
2.000000 2.559499 0.000000
2.000000 2.568415 0.000000
2.000000 2.577905 0.000000
2.000000 2.588006 0.000000
2.000000 2.598758 0.000000
2.000000 2.610202 0.000000
2.000000 2.622383 0.000000
2.000000 2.635349 0.000000
2.000000 2.649149 0.000000
2.000000 2.663839 0.000000
2.000000 2.679474 0.000000
2.000000 2.696116 0.000000
2.000000 2.713831 0.000000
2.000000 2.732685 0.000000
2.000000 2.752754 0.000000
2.000000 2.774116 0.000000
2.000000 2.796853 0.000000
2.000000 2.821055 0.000000
2.000000 2.846815 0.000000
2.000000 2.874234 0.000000
2.000000 2.903419 0.000000
2.000000 2.934483 0.000000
2.000000 2.967548 0.000000
2.000000 3.002742 0.000000
2.000000 3.040202 0.000000
2.000000 3.080076 0.000000
2.000000 3.122517 0.000000
2.000000 3.167691 0.000000
2.000000 3.215774 0.000000
2.000000 3.266954 0.000000
2.000000 3.321430 0.000000
2.000000 3.379414 0.000000
2.000000 3.441132 0.000000
2.000000 3.506825 0.000000
2.000000 3.576749 0.000000
2.000000 3.651175 0.000000
2.000000 3.730395 0.000000
2.000000 3.814717 0.000000
2.000000 3.904468 0.000000
1.900000 4.000000 0.000000
1.800000 4.000000 0.000000
1.700000 4.000000 0.000000
1.600000 4.000000 0.000000
1.500000 4.000000 0.000000
1.400000 4.000000 0.000000
1.300000 4.000000 0.000000
1.200000 4.000000 0.000000
1.100000 4.000000 0.000000
1.000000 4.000000 0.000000
0.900000 4.000000 0.000000
0.800000 4.000000 0.000000
0.700000 4.000000 0.000000
0.600000 4.000000 0.000000
0.500000 4.000000 0.000000
0.400000 4.000000 0.000000
0.300000 4.000000 0.000000
0.200000 4.000000 0.000000
0.100000 4.000000 0.000000
0.000000 3.901898 0.000000
0.000000 3.806409 0.000000
0.000000 3.713462 0.000000
0.000000 3.622990 0.000000
0.000000 3.534927 0.000000
0.000000 3.449209 0.000000
0.000000 3.365773 0.000000
0.000000 3.284559 0.000000
0.000000 3.205508 0.000000
0.000000 3.128561 0.000000
0.000000 3.053664 0.000000
0.000000 2.980761 0.000000
0.000000 2.909799 0.000000
0.000000 2.840727 0.000000
0.000000 2.773493 0.000000
0.000000 2.708051 0.000000
0.000000 2.644350 0.000000
0.000000 2.582346 0.000000
0.000000 2.521993 0.000000
0.000000 2.463247 0.000000
0.000000 2.406065 0.000000
0.000000 2.350406 0.000000
0.000000 2.296229 0.000000
0.000000 2.243495 0.000000
0.000000 2.192165 0.000000
0.000000 2.142201 0.000000
0.000000 2.093568 0.000000
0.000000 2.046230 0.000000
0.000000 2.000153 0.000000
0.000000 1.955302 0.000000
0.000000 1.911646 0.000000
0.000000 1.869152 0.000000
0.000000 1.827789 0.000000
0.000000 1.787528 0.000000
0.000000 1.748339 0.000000
0.000000 1.710194 0.000000
0.000000 1.673064 0.000000
0.000000 1.636923 0.000000
0.000000 1.601745 0.000000
0.000000 1.567503 0.000000
0.000000 1.534172 0.000000
0.000000 1.501730 0.000000
0.000000 1.470151 0.000000
0.000000 1.439413 0.000000
0.000000 1.409494 0.000000
0.000000 1.380371 0.000000
0.000000 1.352024 0.000000
0.000000 1.324431 0.000000
0.000000 1.297573 0.000000
0.000000 1.271431 0.000000
0.000000 1.245984 0.000000
0.000000 1.221215 0.000000
0.000000 1.197106 0.000000
0.000000 1.173639 0.000000
0.000000 1.150796 0.000000
0.000000 1.128562 0.000000
0.000000 1.106920 0.000000
0.000000 1.085854 0.000000
0.000000 1.065349 0.000000
0.000000 1.045390 0.000000
0.000000 1.025962 0.000000
0.000000 1.007052 0.000000
0.000000 0.988645 0.000000
0.000000 0.970729 0.000000
0.000000 0.953289 0.000000
0.000000 0.936314 0.000000
0.000000 0.919791 0.000000
0.000000 0.903708 0.000000
0.000000 0.888053 0.000000
0.000000 0.872815 0.000000
0.000000 0.857983 0.000000
0.000000 0.843545 0.000000
0.000000 0.829492 0.000000
0.000000 0.815814 0.000000
0.000000 0.802499 0.000000
0.000000 0.789539 0.000000
0.000000 0.776925 0.000000
0.000000 0.764646 0.000000
0.000000 0.752694 0.000000
0.000000 0.741060 0.000000
0.000000 0.729736 0.000000
0.000000 0.718714 0.000000
0.000000 0.707985 0.000000
0.000000 0.697541 0.000000
0.000000 0.687376 0.000000
0.000000 0.677482 0.000000
0.000000 0.667851 0.000000
0.000000 0.658476 0.000000
0.000000 0.649351 0.000000
0.000000 0.640469 0.000000
0.000000 0.631824 0.000000
0.000000 0.623409 0.000000
0.000000 0.615217 0.000000
0.000000 0.607244 0.000000
0.000000 0.599484 0.000000
0.000000 0.591929 0.000000
0.000000 0.584577 0.000000
0.000000 0.577419 0.000000
0.000000 0.570453 0.000000
0.000000 0.563672 0.000000
0.000000 0.557071 0.000000
0.000000 0.550646 0.000000
0.000000 0.544393 0.000000
0.000000 0.538306 0.000000
0.000000 0.532380 0.000000
0.000000 0.526613 0.000000
0.000000 0.520999 0.000000
0.000000 0.515535 0.000000
0.000000 0.510216 0.000000
0.000000 0.505039 0.000000
0.000000 0.494581 0.000000
0.000000 0.488047 0.000000
0.000000 0.480167 0.000000
0.000000 0.470665 0.000000
0.000000 0.459206 0.000000
0.000000 0.445387 0.000000
0.000000 0.428723 0.000000
0.000000 0.408628 0.000000
0.000000 0.384395 0.000000
0.000000 0.355172 0.000000
0.000000 0.319933 0.000000
0.000000 0.277436 0.000000
0.000000 0.226190 0.000000
0.000000 0.164392 0.000000
0.000000 0.089868 0.000000
0.003529 0.503529 0.000000
0.007059 0.507059 0.000000
0.010588 0.510588 0.000000
0.014118 0.514118 0.000000
0.017647 0.517647 0.000000
0.021176 0.521176 0.000000
0.024706 0.524706 0.000000
0.028235 0.528235 0.000000
0.031765 0.531765 0.000000
0.035294 0.535294 0.000000
0.038824 0.538824 0.000000
0.042353 0.542353 0.000000
0.045882 0.545882 0.000000
0.049412 0.549412 0.000000
0.052941 0.552941 0.000000
0.056471 0.556471 0.000000
0.060000 0.560000 0.000000
0.063529 0.563529 0.000000
0.067059 0.567059 0.000000
0.070588 0.570588 0.000000
0.074118 0.574118 0.000000
0.077647 0.577647 0.000000
0.081176 0.581176 0.000000
0.084706 0.584706 0.000000
0.088235 0.588235 0.000000
0.091765 0.591765 0.000000
0.095294 0.595294 0.000000
0.098824 0.598824 0.000000
0.102353 0.602353 0.000000
0.105882 0.605882 0.000000
0.109412 0.609412 0.000000
0.112941 0.612941 0.000000
0.116471 0.616471 0.000000
0.120000 0.620000 0.000000
0.123529 0.623529 0.000000
0.127059 0.627059 0.000000
0.130588 0.630588 0.000000
0.134118 0.634118 0.000000
0.137647 0.637647 0.000000
0.141176 0.641176 0.000000
0.144706 0.644706 0.000000
0.148235 0.648235 0.000000
0.151765 0.651765 0.000000
0.155294 0.655294 0.000000
0.158824 0.658824 0.000000
0.162353 0.662353 0.000000
0.165882 0.665882 0.000000
0.169412 0.669412 0.000000
0.172941 0.672941 0.000000
0.176471 0.676471 0.000000
0.180000 0.680000 0.000000
0.183529 0.683529 0.000000
0.187059 0.687059 0.000000
0.190588 0.690588 0.000000
0.194118 0.694118 0.000000
0.197647 0.697647 0.000000
0.201176 0.701176 0.000000
0.204706 0.704706 0.000000
0.208235 0.708235 0.000000
0.211765 0.711765 0.000000
0.215294 0.715294 0.000000
0.218824 0.718824 0.000000
0.222353 0.722353 0.000000
0.225882 0.725882 0.000000
0.229412 0.729412 0.000000
0.232941 0.732941 0.000000
0.236471 0.736471 0.000000
0.240000 0.740000 0.000000
0.243529 0.743529 0.000000
0.247059 0.747059 0.000000
0.250588 0.750588 0.000000
0.254118 0.754118 0.000000
[...]
POINT_DATA 26238
SCALARS UX float 1
LOOKUP_TABLE default
-0.000000
0.000000
-0.003741
-0.005237
-0.000990
-0.000999
-0.001669
-0.000000
-0.000000
-0.000000
-0.000000
-0.000000
-0.000000
-0.000000
-0.000000
-0.000000
-0.000000
0.000000
0.000000
0.000000
0.000000
0.000000
0.000000
0.000000
0.000000
0.000000
0.000243
0.000382
0.000480
0.000549
0.000600
0.000637
0.000662
0.000679
0.000688
0.000692
0.000691
0.000686
0.000677
0.000666
0.000651
0.000633
0.000614
0.000591
0.000566
0.000539
0.000510
0.000477
0.000442
0.000404
0.000363
0.000319
0.000270
0.000219
0.000165
0.000107
0.000047
-0.000016
-0.000081
-0.000148
-0.000216
-0.000285
-0.000353
-0.000420
-0.000487
-0.000552
-0.000614
-0.000675
-0.000734
-0.000790
-0.000843
-0.000894
-0.000943
-0.000989
-0.001032
-0.001074
-0.001113
-0.001150
-0.001185
-0.001218
-0.001249
-0.001279
-0.001307
-0.001333
-0.001359
-0.001382
-0.001405
-0.001427
-0.001447
-0.001467
-0.001485
-0.001503
-0.001519
-0.001535
-0.001551
-0.001565
-0.001579
-0.001592
-0.001605
-0.001617
-0.001628
-0.001639
-0.001649
-0.001659
-0.001678
-0.001689
-0.001699
-0.001710
-0.001722
-0.001735
-0.001748
-0.001762
-0.001777
-0.001792
-0.001808
-0.001826
-0.001844
-0.001863
-0.001883
-0.001904
-0.001926
-0.001949
-0.001974
-0.002000
-0.002027
-0.002055
-0.002085
-0.002116
-0.002149
-0.002183
-0.002220
-0.002258
-0.002298
-0.002341
-0.002385
-0.002432
-0.002482
-0.002534
-0.002590
-0.002649
-0.002711
-0.002777
-0.002847
-0.002922
-0.003002
-0.003088
-0.003179
-0.003276
-0.003381
-0.003493
-0.003613
-0.003819
-0.003897
-0.003975
-0.004051
-0.004127
-0.004201
-0.004274
-0.004346
-0.004417
-0.004488
-0.004559
-0.004631
-0.004703
-0.004776
-0.004851
-0.004927
-0.005004
-0.005081
-0.005159
-0.005110
-0.004985
-0.004862
-0.004743
-0.004625
-0.004511
-0.004399
-0.004290
-0.004184
-0.004082
-0.003983
-0.003887
-0.003796
-0.003708
-0.003624
-0.003544
-0.003469
-0.003398
-0.003331
-0.003269
-0.003211
-0.003157
-0.003107
-0.003062
-0.003020
-0.002982
-0.002948
-0.002918
-0.002890
-0.002866
-0.002844
-0.002825
-0.002808
-0.002793
-0.002781
-0.002770
-0.002761
-0.002753
-0.002747
-0.002741
-0.002737
-0.002734
-0.002731
-0.002729
-0.002728
-0.002728
-0.002727
-0.002728
-0.002728
-0.002729
-0.002730
-0.002732
-0.002733
-0.002735
-0.002736
-0.002738
-0.002740
-0.002742
-0.002744
-0.002746
-0.002749
-0.002751
-0.002753
-0.002755
-0.002757
-0.002759
-0.002761
-0.002763
-0.002765
-0.002767
-0.002769
-0.002770
-0.002772
-0.002773
-0.002775
-0.002776
-0.002777
-0.002777
-0.002778
-0.002779
-0.002779
-0.002778
-0.002778
-0.002777
-0.002775
-0.002773
-0.002771
-0.002768
-0.002765
-0.002762
-0.002758
-0.002754
-0.002748
-0.002743
-0.002737
-0.002730
-0.002724
-0.002719
-0.002715
-0.002712
-0.002709
-0.002708
-0.002707
-0.002699
-0.002677
-0.002662
-0.002582
-0.002561
-0.002392
-0.002208
-0.000795
-0.000741
-0.000701
-0.000673
-0.000646
-0.000623
-0.000603
-0.000583
-0.000563
-0.000540
-0.000512
-0.000475
-0.000422
-0.000347
-0.000232
-0.001380
-0.001372
-0.001362
-0.001352
-0.001367
-0.001361
-0.001345
-0.001366
-0.001359
-0.001319
-0.001329
-0.001363
-0.001402
-0.001404
-0.001325
-0.001482
-0.001484
-0.001489
-0.001475
-0.001504
-0.001510
-0.001508
-0.001513
-0.001514
-0.001500
-0.001492
-0.001491
-0.001492
-0.001493
-0.001502
-0.001492
-0.001500
-0.001500
-0.001498
-0.001525
-0.001526
-0.001519
-0.001488
-0.001443
-0.001440
-0.001438
-0.001433
-0.001481
-0.001471
-0.001492
-0.001489
-0.001517
-0.001536
-0.001550
-0.001556
-0.001570
-0.001572
-0.001584
-0.001570
-0.001555
-0.001557
-0.001577
-0.001562
-0.001565
-0.001579
-0.001587
-0.001594
-0.001611
-0.001594
-0.001599
-0.001586
-0.001593
-0.001585
-0.001584
-0.001577
-0.001559
-0.001550
-0.001546
-0.001528
-0.001513
-0.001515
-0.001517
-0.001508
-0.001512
-0.001507
-0.001501
-0.001503
-0.001499
-0.001503
-0.001492
-0.001518
-0.001529
-0.001520
-0.001529
-0.001523
-0.001520
-0.001523
-0.001522
-0.001518
-0.001503
-0.001517
-0.001519
-0.001498
-0.001498
-0.001496
-0.001504
-0.001503
-0.001483
-0.001499
-0.001512
-0.001503
-0.001511
-0.001490
-0.001481
-0.001464
-0.001482
-0.001460
-0.001445
-0.001470
-0.001461
-0.001420
-0.001413
-0.001448
-0.001427
-0.001449
-0.001462
-0.001443
-0.001456
-0.001449
-0.001462
-0.001471
-0.001475
-0.001453
-0.001454
-0.001480
-0.001465
-0.001473
-0.001482
-0.001465
-0.001434
-0.001443
-0.001446
-0.001444
-0.001430
-0.001407
-0.001398
-0.001411
-0.001400
-0.001396
-0.001417
-0.001397
-0.001387
-0.001395
-0.001411
-0.001378
-0.001375
-0.001364
-0.001352
-0.001343
-0.001370
-0.001359
-0.001370
-0.001358
-0.001344
-0.001349
-0.001329
-0.001341
-0.001340
-0.001330
-0.001315
-0.001321
-0.001313
-0.001298
-0.001291
-0.001294
-0.001271
-0.001275
-0.001266
-0.001252
-0.001250
-0.001221
-0.001249
-0.001219
-0.001225
-0.001240
-0.001221
-0.001246
-0.001233
-0.001232
-0.001231
-0.001218
-0.001225
-0.001206
-0.001204
-0.001178
-0.001177
-0.001177
-0.001170
-0.001229
-0.001227
-0.001213
-0.001207
-0.001228
-0.001229
-0.001226
-0.001227
-0.001293
-0.001278
-0.001276
-0.001247
-0.001270
-0.001235
-0.001250
-0.001226
-0.001229
-0.001232
-0.001221
-0.001222
-0.001228
-0.001214
-0.001213
-0.001202
-0.001204
-0.001208
-0.001205
-0.001185
-0.001176
-0.001186
-0.001179
-0.001176
-0.001174
-0.001158
-0.001155
-0.001152
-0.001129
-0.001192
-0.001155
-0.001160
-0.001169
-0.001166
-0.001165
-0.001170
-0.001203
-0.001184
-0.001176
-0.001183
-0.001184
-0.001173
-0.001147
-0.001153
-0.001129
-0.001125
-0.001104
-0.001101
-0.001092
-0.001082
-0.001089
-0.001071
-0.001075
-0.001061
-0.001056
-0.001058
-0.001038
-0.001042
-0.001098
-0.001082
-0.001075
-0.001084
-0.001082
-0.001086
-0.001090
-0.001097
-0.001094
-0.001096
-0.001101
-0.001089
-0.001082
-0.001090
-0.001097
-0.001076
-0.001072
-0.001077
-0.001067
-0.001062
-0.001056
-0.001053
-0.001045
-0.001045
-0.001047
-0.001016
-0.001026
-0.001024
-0.001003
-0.001007
-0.001150
-0.001150
-0.001141
-0.001131
-0.001123
-0.001102
-0.001091
-0.001092
-0.001091
-0.001093
-0.001092
-0.001106
-0.001089
-0.001091
-0.001083
-0.001080
-0.001070
-0.001068
-0.001059
-0.001049
-0.001170
-0.001147
-0.001146
-0.001144
-0.001138
-0.001119
-0.001107
-0.001101
-0.001091
-0.001081
-0.001063
-0.001065
-0.001052
-0.001033
-0.001035
-0.001018
-0.001071
-0.001052
-0.001039
-0.001034
-0.001032
-0.001032
-0.001027
-0.001009
-0.001015
-0.001014
-0.001001
-0.000998
-0.001026
-0.001016
-0.001006
-0.000999
-0.000985
-0.000975
-0.000956
-0.001059
-0.001039
-0.001050
-0.001053
-0.001041
-0.001030
-0.001042
-0.001028
-0.001034
-0.001023
-0.001002
-0.001000
-0.000989
-0.000986
-0.000981
-0.000987
-0.000988
-0.000993
-0.001010
-0.001005
-0.001008
-0.000999
-0.001019
-0.000999
-0.000993
-0.000986
-0.000993
-0.000981
-0.000991
-0.000999
-0.001012
-0.001021
-0.001003
-0.001012
-0.001003
-0.001001
-0.000989
-0.000992
-0.001002
-0.000992
-0.000984
-0.000993
-0.000982
-0.000969
-0.001035
-0.001022
-0.001023
-0.001024
-0.001012
-0.001031
-0.001040
-0.001045
-0.001046
-0.001048
-0.001047
-0.001047
-0.001051
-0.001044
-0.001043
-0.001043
-0.001042
-0.001041
-0.001038
-0.001038
-0.001036
-0.001035
-0.001038
-0.001040
-0.001044
-0.001045
-0.001039
-0.001035
-0.001034
-0.001032
-0.001030
-0.001029
-0.001027
-0.001024
-0.001017
-0.001010
-0.000996
-0.001005
-0.001015
-0.001025
-0.001035
-0.001043
-0.001052
-0.001061
-0.001069
-0.001077
-0.001084
-0.001091
-0.001098
-0.001105
-0.001111
-0.001117
-0.001124
-0.001130
-0.001135
-0.001141
-0.001147
-0.001152
-0.001158
-0.001164
-0.001170
-0.001175
-0.001180
-0.001186
-0.001191
-0.001196
-0.001201
-0.001206
-0.001211
-0.001216
-0.001220
-0.001225
-0.001230
-0.001235
-0.001239
-0.001244
-0.001249
-0.001253
-0.001258
-0.001263
-0.001267
-0.001272
-0.001277
-0.001281
-0.001286
-0.001291
-0.001295
-0.001300
-0.001305
-0.001309
-0.001314
-0.001318
-0.001323
-0.001328
-0.001332
-0.001337
-0.001342
-0.001346
-0.001351
-0.001356
-0.001360
-0.001365
-0.001370
-0.001374
-0.001379
-0.001384
-0.001388
-0.001393
-0.001398
-0.001402
-0.001407
-0.001411
-0.001416
-0.001421
-0.001425
-0.001430
-0.001435
-0.001439
-0.001444
-0.001448
-0.001453
-0.001457
-0.001462
-0.001466
-0.001471
-0.001475
-0.001480
-0.001484
-0.001489
-0.001493
-0.001497
-0.001502
-0.001506
-0.001511
-0.001515
-0.001519
-0.001523
-0.001528
-0.001532
-0.001536
-0.001540
-0.001544
-0.001548
-0.001552
-0.001556
-0.001560
-0.001564
-0.001568
-0.001572
-0.001576
-0.001580
-0.001583
-0.001587
-0.001591
-0.001595
-0.001598
-0.001602
-0.001605
-0.001609
-0.001612
-0.001616
-0.001619
-0.001623
-0.001626
-0.001629
-0.001633
-0.001636
-0.001639
-0.001642
-0.001645
-0.001648
-0.001651
-0.001654
-0.001657
-0.001660
-0.001663
-0.001666
-0.001919
-0.001937
-0.001822
-0.001523
-0.001537
-0.001529
-0.002092
-0.002085
-0.002066
-0.001979
-0.002073
-0.001815
-0.001892
-0.001778
-0.001783
-0.001776
-0.001786
-0.001492
-0.001498
-0.001482
-0.002428
-0.002425
-0.002399
-0.002387
-0.001507
-0.002258
-0.002249
-0.002286
-0.001579
-0.001573
-0.001567
-0.002256
-0.002062
-0.002024
-0.002055
-0.001564
-0.002390
-0.002380
-0.002423
-0.002331
-0.001919
-0.001944
-0.001951
-0.001466
-0.001478
-0.001465
-0.002512
-0.002520
-0.002507
-0.001507
-0.001495
-0.001501
-0.002496
-0.002488
-0.002500
-0.001494
-0.002520
-0.002515
-0.002527
-0.002258
-0.002232
-0.002231
-0.001636
-0.001653
-0.001649
-0.001667
-0.002568
-0.002579
-0.002564
-0.002579
-0.002251
-0.002528
-0.002525
-0.002510
-0.002510
-0.001963
-0.002512
-0.002506
-0.002520
-0.001825
-0.001803
-0.001808
-0.001603
-0.001619
-0.001598
-0.001597
-0.001816
-0.002419
-0.002417
-0.002357
-0.002510
-0.002508
-0.002517
-0.002517
-0.001752
-0.001772
-0.001757
-0.001772
-0.002309
-0.002316
-0.002308
-0.001559
-0.001570
-0.001572
-0.001582
-0.002241
-0.002219
-0.002247
-0.002199
-0.001571
-0.003511
-0.003593
-0.003527
-0.001669
-0.003553
-0.001824
-0.001830
-0.001817
-0.002223
-0.002236
-0.002231
-0.002455
-0.002459
-0.002464
-0.001561
-0.001549
-0.001838
-0.002325
-0.002316
-0.001453
-0.002211
-0.001952
-0.002074
-0.001521
-0.002454
-0.002453
-0.002446
-0.002012
-0.001986
-0.001987
-0.002020
-0.002446
-0.002451
-0.002456
-0.003165
-0.003098
-0.003148
-0.003118
-0.003217
-0.003150
-0.003150
-0.002846
-0.002812
-0.002784
-0.003208
-0.002325
-0.002214
-0.002128
-0.001947
-0.002297
-0.002310
-0.002347
-0.002279
-0.001703
-0.001683
-0.001696
-0.001687
-0.001990
-0.001995
-0.001989
-0.001352
-0.001346
-0.001298
-0.002511
-0.002504
-0.002513
-0.002508
-0.001459
-0.001474
-0.001480
-0.001385
-0.003402
-0.003402
-0.003464
-0.003330
-0.001814
-0.001805
-0.001810
-0.001798
-0.002164
-0.002171
-0.002169
-0.001908
-0.001943
-0.001909
-0.002176
-0.003204
-0.003142
-0.003192
-0.002166
-0.002021
-0.001748
-0.001761
-0.001767
-0.001705
-0.001715
-0.001729
-0.002639
-0.002643
-0.002634
-0.003126
-0.002236
-0.002227
-0.002235
-0.002223
-0.002400
-0.002383
-0.002393
-0.002391
-0.002569
-0.002565
-0.002560
-0.002556
-0.002571
-0.002563
-0.002579
-0.002555
-0.002180
-0.002182
-0.002193
-0.002214
-0.002217
-0.002191
-0.002768
-0.002738
-0.002719
-0.002769
-0.001625
-0.001639
-0.001624
-0.002588
-0.002580
-0.002579
-0.002573
-0.002483
-0.002472
-0.002499
-0.002478
-0.002194
-0.002403
-0.002400
-0.002410
-0.002583
-0.002592
-0.002579
-0.002592
-0.002472
-0.002482
-0.002502
-0.002442
-0.002369
-0.002372
-0.002379
-0.002191
-0.002177
-0.002189
-0.002362
-0.002350
-0.002337
-0.002357
-0.001742
-0.002145
-0.002179
-0.002170
-0.002394
-0.002525
-0.002530
-0.002540
-0.002515
-0.002418
-0.002409
-0.002420
-0.002419
-0.002459
-0.002422
-0.002474
-0.001849
-0.001855
-0.001850
-0.002316
-0.002317
-0.002308
-0.002169
-0.002150
-0.002145
-0.002164
-0.001740
-0.001754
-0.001738
-0.001749
-0.002078
-0.002067
-0.002063
-0.002629
-0.002627
-0.002615
-0.002614
-0.001643
-0.001638
-0.001649
-0.003231
-0.003219
-0.003176
-0.001639
-0.003235
-0.003283
-0.003203
-0.003304
-0.002676
-0.002673
-0.002667
-0.002663
-0.002522
-0.002517
-0.002501
-0.002510
-0.002050
-0.002037
-0.002035
-0.002146
-0.002153
-0.002162
-0.002168
-0.001526
-0.001517
-0.001516
-0.002380
-0.002372
-0.002375
-0.001848
-0.001873
-0.001847
-0.001871
-0.002688
-0.002686
-0.002681
-0.002678
-0.001948
-0.001958
-0.001943
-0.001963
-0.002623
-0.002577
-0.002598
-0.002561
-0.001905
-0.001926
-0.001905
-0.001931
-0.001788
-0.001785
-0.001803
-0.001773
-0.002293
-0.002283
-0.002303
-0.002274
-0.002449
-0.002419
-0.002432
-0.001855
-0.002790
-0.002752
-0.002806
-0.002746
-0.002889
-0.002839
-0.002831
-0.002896
-0.003951
-0.004041
-0.003913
-0.002030
-0.002050
-0.002015
-0.002294
-0.002295
-0.002288
-0.002633
-0.002629
-0.002626
-0.002016
-0.002264
-0.002281
-0.002299
-0.002254
-0.001925
-0.001902
-0.001929
-0.001897
-0.002658
-0.002641
-0.002650
-0.002636
-0.002288
-0.002120
-0.002125
-0.002128
-0.002589
-0.002621
-0.002574
-0.001852
-0.001820
-0.001833
-0.002537
-0.002554
-0.002527
-0.002157
-0.002127
-0.002143
-0.002563
-0.001461
-0.001479
-0.001472
-0.001599
-0.001588
-0.001591
-0.002479
-0.002497
-0.002468
-0.002498
-0.002383
-0.002359
-0.002347
-0.002197
-0.002211
-0.002184
-0.002387
-0.001975
-0.001952
-0.001951
-0.002208
-0.002166
-0.002345
-0.002333
-0.002347
-0.002018
-0.002015
-0.001995
-0.002342
-0.002342
-0.002351
-0.002332
-0.002015
-0.002008
-0.002014
-0.001871
-0.001894
-0.001876
-0.001872
-0.002050
-0.002045
-0.002501
-0.002497
-0.002466
-0.001632
-0.001633
-0.001648
-0.002567
-0.002553
-0.002524
-0.002136
-0.002146
-0.002164
-0.002190
-0.002032
-0.002026
-0.002052
-0.002002
-0.002357
-0.002356
-0.002368
-0.002366
-0.001641
-0.001643
-0.001658
-0.001721
-0.001710
-0.001728
-0.001711
-0.001792
-0.001778
-0.001801
-0.001658
-0.002043
-0.002055
-0.002053
-0.002010
-0.002017
-0.002013
-0.002013
-0.002013
-0.002013
-0.002023
-0.002002
-0.002407
-0.002410
-0.002415
-0.002293
-0.002286
-0.002288
-0.002376
-0.002372
-0.002337
-0.002249
-0.002267
-0.002267
-0.002285
-0.002031
-0.002019
-0.001986
-0.002281
-0.002388
-0.002393
-0.002387
-0.002453
-0.002460
-0.002455
-0.002462
-0.002393
-0.002129
-0.002135
-0.002123
-0.002144
-0.001731
-0.001708
-0.001718
-0.002739
-0.002747
-0.002744
-0.002745
-0.002083
-0.002081
-0.002092
-0.002071
-0.002519
-0.002512
-0.002523
-0.002554
-0.002533
-0.002551
-0.001612
-0.001815
-0.001584
-0.002512
-0.002715
-0.002708
-0.002714
-0.002453
-0.002446
-0.002711
-0.002693
-0.002682
-0.001767
-0.002603
-0.002620
-0.002582
-0.002660
-0.002657
-0.002003
-0.001976
-0.001981
-0.002624
-0.002573
-0.002573
-0.002582
-0.002864
-0.002826
-0.002883
-0.002831
-0.001641
-0.001644
-0.001631
-0.002479
-0.002482
-0.002488
-0.002494
-0.002687
-0.002686
-0.002661
-0.001656
-0.002634
-0.002644
-0.002617
-0.002296
-0.002291
-0.002263
-0.002359
-0.002351
-0.002590
-0.002581
-0.002574
-0.002020
-0.002015
-0.002021
-0.002124
-0.002111
-0.002119
-0.002692
-0.002663
-0.002694
-0.002014
-0.001594
-0.001602
-0.001582
-0.002417
-0.002417
-0.002385
-0.002445
-0.002670
-0.002658
-0.002701
-0.002640
-0.002617
-0.001939
-0.001950
-0.001922
-0.002097
-0.002089
-0.002092
-0.002085
-0.001597
-0.001612
-0.001595
-0.002079
-0.002070
-0.002042
-0.001614
-0.001614
-0.001610
-0.001612
-0.001603
-0.001624
-0.001767
-0.001774
-0.001775
-0.002499
-0.002493
-0.002503
-0.002260
-0.002375
-0.002149
-0.002460
-0.002494
-0.002409
-0.002417
-0.002393
-0.002316
-0.002307
-0.002303
-0.002295
-0.002598
-0.002606
-0.002601
-0.002611
-0.002633
-0.002639
-0.002636
-0.001836
-0.001835
-0.001856
-0.002133
-0.002091
-0.002085
-0.001564
-0.001562
-0.001546
-0.002490
-0.002475
-0.002493
-0.002514
-0.001540
-0.001567
-0.001582
-0.002638
-0.001782
-0.002074
-0.002074
-0.002080
-0.002327
-0.002338
-0.002349
-0.002353
-0.002409
-0.002410
-0.002389
-0.002081
-0.001614
-0.001600
-0.001611
-0.002207
-0.002202
-0.002212
-0.002212
-0.002387
-0.002446
-0.002394
-0.002519
-0.002500
-0.002498
-0.002275
-0.002286
-0.002286
-0.002228
-0.002224
-0.002214
-0.002238
-0.002577
-0.002585
-0.002586
-0.002592
-0.001578
-0.001572
-0.001583
-0.002367
-0.002350
-0.002378
-0.001741
-0.001732
-0.001741
-0.002158
-0.002150
-0.002149
-0.002140
-0.001734
-0.002214
-0.002223
-0.002225
-0.002235
-0.003395
-0.003334
-0.003470
-0.001656
-0.001639
-0.001638
-0.002539
-0.002541
-0.002548
-0.002533
-0.001821
-0.001814
-0.001818
-0.001655
-0.002556
-0.002563
-0.002556
-0.002426
-0.002440
-0.002430
-0.002431
-0.002637
-0.002620
-0.002567
-0.001810
-0.001761
-0.001771
-0.001764
-0.002079
-0.002092
-0.002102
-0.002399
-0.002395
-0.002404
-0.002399
-0.001773
-0.001648
-0.001642
-0.001640
-0.002450
-0.002469
-0.002459
-0.002481
-0.002068
-0.002677
-0.002685
-0.002671
-0.002694
-0.002266
-0.002270
-0.002262
-0.002274
-0.002263
-0.002255
-0.002255
-0.002392
-0.002375
-0.002372
-0.002402
-0.002111
-0.002127
-0.002125
-0.002144
-0.002061
-0.002046
-0.002486
-0.002479
-0.002486
-0.001944
-0.001950
-0.001956
-0.001936
-0.001965
-0.001968
-0.002497
-0.002375
-0.002359
-0.002477
-0.001652
-0.002088
-0.002106
-0.002095
-0.001523
-0.001497
-0.001584
-0.002068
-0.002561
-0.002570
-0.002572
-0.001420
-0.002577
-0.002068
-0.002046
-0.002047
-0.002091
-0.002074
-0.002107
-0.002492
-0.002484
-0.002491
-0.002373
-0.002359
-0.002365
-0.002238
-0.002266
-0.002241
-0.002065
-0.002053
-0.002066
-0.001621
-0.001607
-0.001604
-0.002263
-0.002415
-0.002421
-0.002422
-0.002429
-0.001997
-0.002053
-0.002077
-0.002051
-0.002132
-0.002122
-0.002124
-0.002680
-0.002652
-0.002667
-0.002630
-0.002682
-0.002723
-0.002737
-0.001998
-0.001991
-0.001983
-0.001977
-0.002262
-0.002269
-0.002267
-0.002007
-0.001989
-0.001994
-0.002796
-0.002148
-0.002138
-0.002151
-0.002134
-0.002549
-0.002539
-0.002544
-0.001978
-0.002641
-0.002633
-0.002628
-0.002112
-0.001564
-0.002159
-0.002162
-0.002031
-0.002250
-0.002336
-0.002337
-0.002345
-0.002348
-0.002547
-0.002558
-0.002544
-0.002560
-0.002655
-0.002667
-0.002702
-0.002614
-0.002690
-0.002656
-0.002682
-0.002197
-0.002194
-0.002186
-0.002184
-0.001581
-0.001911
-0.001917
-0.001908
-0.001916
-0.002510
-0.002522
-0.002513
-0.001540
-0.001526
-0.001530
-0.001914
-0.001939
-0.001906
-0.002197
-0.002228
-0.002220
-0.002398
-0.002384
-0.002384
-0.002261
-0.002301
-0.002300
-0.001932
-0.001831
-0.002187
-0.002200
-0.002195
-0.002529
-0.002519
-0.002524
-0.002294
-0.002293
-0.001541
-0.001828
-0.001723
-0.002137
-0.002151
-0.002132
-0.002759
-0.002798
-0.002810
-0.002852
-0.001707
-0.001691
-0.001678
-0.002403
-0.002390
-0.002390
-0.002228
-0.002235
-0.002229
-0.002513
-0.002503
-0.002518
-0.002065
-0.002068
-0.002032
-0.003848
-0.003792
-0.003727
-0.002698
-0.002662
-0.002599
-0.002592
-0.002594
-0.002587
-0.002219
-0.002225
-0.002219
-0.003703
-0.002224
-0.002236
-0.002502
-0.002518
-0.002639
-0.002643
-0.002601
-0.002528
-0.002370
-0.002163
-0.001970
-0.001942
-0.001958
-0.001952
-0.002413
-0.002417
-0.002421
-0.002502
-0.002493
-0.002497
-0.001605
-0.001595
-0.001594
-0.002940
-0.002978
-0.003030
-0.002220
-0.002231
-0.002219
-0.002417
-0.002411
-0.002409
-0.002451
-0.002442
-0.002436
-0.002433
-0.002110
-0.002121
-0.001918
-0.001923
-0.001934
-0.002089
-0.002096
-0.002099
-0.002109
-0.001956
-0.001963
-0.001965
-0.002356
-0.002288
-0.002419
-0.002547
-0.002538
-0.002529
-0.002897
-0.002242
-0.002242
-0.002272
-0.001935
-0.001922
-0.001926
-0.002204
-0.002156
-0.002192
-0.002135
-0.002583
-0.002574
-0.002580
-0.002478
-0.002467
-0.002472
-0.002309
-0.002315
-0.002316
-0.002322
-0.003589
-0.003472
-0.003555
-0.002428
-0.002405
-0.002395
-0.002372
-0.002536
-0.002550
-0.003436
-0.002240
-0.002248
-0.002239
-0.001953
-0.003687
-0.003602
-0.002458
-0.001859
-0.001845
-0.001838
-0.003285
-0.003280
-0.002255
-0.002259
-0.002264
-0.002268
-0.002557
-0.002549
-0.002553
-0.001984
-0.001997
-0.001987
-0.002107
-0.002120
-0.002512
-0.002508
-0.002515
-0.002205
-0.002208
-0.002213
-0.001820
-0.002219
-0.002202
-0.002196
-0.002408
-0.002395
-0.002192
-0.002105
-0.002117
-0.002119
-0.002129
-0.003117
-0.003141
-0.002525
-0.002519
-0.002517
-0.002465
-0.002474
-0.002470
-0.002367
-0.002360
-0.002355
-0.002381
-0.003078
-0.002401
-0.002388
-0.002571
-0.002565
-0.002565
-0.002558
-0.002456
-0.002445
-0.002450
-0.002499
-0.002472