# vtk DataFile Version 2.0
Test
ASCII
DATASET POLYDATA
POINTS 26238 float
0.000000 0.000000 0.000000
2.000000 0.000000 0.000000
2.000000 4.000000 0.000000
0.000000 4.000000 0.000000
0.000000 0.500000 0.000000
1.500000 2.000000 0.000000
2.000000 2.500000 0.000000
0.100000 0.000000 0.000000
0.200000 0.000000 0.000000
0.300000 0.000000 0.000000
0.400000 0.000000 0.000000
0.500000 0.000000 0.000000
0.600000 0.000000 0.000000
0.700000 0.000000 0.000000
0.800000 0.000000 0.000000
0.900000 0.000000 0.000000
1.000000 0.000000 0.000000
1.100000 0.000000 0.000000
1.200000 0.000000 0.000000
1.300000 0.000000 0.000000
1.400000 0.000000 0.000000
1.500000 0.000000 0.000000
1.600000 0.000000 0.000000
1.700000 0.000000 0.000000
1.800000 0.000000 0.000000
1.900000 0.000000 0.000000
2.000000 0.097923 0.000000
2.000000 0.192202 0.000000
2.000000 0.282973 0.000000
2.000000 0.370366 0.000000
2.000000 0.454507 0.000000
2.000000 0.535518 0.000000
2.000000 0.613513 0.000000
2.000000 0.688607 0.000000
2.000000 0.760906 0.000000
2.000000 0.830515 0.000000
2.000000 0.897534 0.000000
2.000000 0.962059 0.000000
2.000000 1.024183 0.000000
2.000000 1.083995 0.000000
2.000000 1.141582 0.000000
2.000000 1.197026 0.000000
2.000000 1.250406 0.000000
2.000000 1.301801 0.000000
2.000000 1.351283 0.000000
2.000000 1.398923 0.000000
2.000000 1.444791 0.000000
2.000000 1.488953 0.000000
2.000000 1.531470 0.000000
2.000000 1.572406 0.000000
2.000000 1.611819 0.000000
2.000000 1.649765 0.000000
2.000000 1.686299 0.000000
2.000000 1.721473 0.000000
2.000000 1.755339 0.000000
2.000000 1.787944 0.000000
2.000000 1.819337 0.000000
2.000000 1.849561 0.000000
2.000000 1.878660 0.000000
2.000000 1.906677 0.000000
2.000000 1.933651 0.000000
2.000000 1.959621 0.000000
2.000000 1.984625 0.000000
2.000000 2.008699 0.000000
2.000000 2.031877 0.000000
2.000000 2.054192 0.000000
2.000000 2.075677 0.000000
2.000000 2.096362 0.000000
2.000000 2.116278 0.000000
2.000000 2.135453 0.000000
2.000000 2.153914 0.000000
2.000000 2.171688 0.000000
2.000000 2.188801 0.000000
2.000000 2.205277 0.000000
2.000000 2.221140 0.000000
2.000000 2.236413 0.000000
2.000000 2.251117 0.000000
2.000000 2.265274 0.000000
2.000000 2.278905 0.000000
2.000000 2.292028 0.000000
2.000000 2.304663 0.000000
2.000000 2.316828 0.000000
2.000000 2.328540 0.000000
2.000000 2.339816 0.000000
2.000000 2.350673 0.000000
2.000000 2.361126 0.000000
2.000000 2.371189 0.000000
2.000000 2.380879 0.000000
2.000000 2.390207 0.000000
2.000000 2.399189 0.000000
2.000000 2.407836 0.000000
2.000000 2.416162 0.000000
2.000000 2.424178 0.000000
2.000000 2.431895 0.000000
2.000000 2.439326 0.000000
2.000000 2.446480 0.000000
2.000000 2.453367 0.000000
2.000000 2.459999 0.000000
2.000000 2.466383 0.000000
2.000000 2.472530 0.000000
2.000000 2.478449 0.000000
2.000000 2.484147 0.000000
2.000000 2.489633 0.000000
2.000000 2.494915 0.000000
2.000000 2.505084 0.000000
2.000000 2.510496 0.000000
2.000000 2.516256 0.000000
2.000000 2.522387 0.000000
2.000000 2.528913 0.000000
2.000000 2.535859 0.000000
2.000000 2.543253 0.000000
2.000000 2.551122 0.000000
2.000000 2.559499 0.000000
2.000000 2.568415 0.000000
2.000000 2.577905 0.000000
2.000000 2.588006 0.000000
2.000000 2.598758 0.000000
2.000000 2.610202 0.000000
2.000000 2.622383 0.000000
2.000000 2.635349 0.000000
2.000000 2.649149 0.000000
2.000000 2.663839 0.000000
2.000000 2.679474 0.000000
2.000000 2.696116 0.000000
2.000000 2.713831 0.000000
2.000000 2.732685 0.000000
2.000000 2.752754 0.000000
2.000000 2.774116 0.000000
2.000000 2.796853 0.000000
2.000000 2.821055 0.000000
2.000000 2.846815 0.000000
2.000000 2.874234 0.000000
2.000000 2.903419 0.000000
2.000000 2.934483 0.000000
2.000000 2.967548 0.000000
2.000000 3.002742 0.000000
2.000000 3.040202 0.000000
2.000000 3.080076 0.000000
2.000000 3.122517 0.000000
2.000000 3.167691 0.000000
2.000000 3.215774 0.000000
2.000000 3.266954 0.000000
2.000000 3.321430 0.000000
2.000000 3.379414 0.000000
2.000000 3.441132 0.000000
2.000000 3.506825 0.000000
2.000000 3.576749 0.000000
2.000000 3.651175 0.000000
2.000000 3.730395 0.000000
2.000000 3.814717 0.000000
2.000000 3.904468 0.000000
1.900000 4.000000 0.000000
1.800000 4.000000 0.000000
1.700000 4.000000 0.000000
1.600000 4.000000 0.000000
1.500000 4.000000 0.000000
1.400000 4.000000 0.000000
1.300000 4.000000 0.000000
1.200000 4.000000 0.000000
1.100000 4.000000 0.000000
1.000000 4.000000 0.000000
0.900000 4.000000 0.000000
0.800000 4.000000 0.000000
0.700000 4.000000 0.000000
0.600000 4.000000 0.000000
0.500000 4.000000 0.000000
0.400000 4.000000 0.000000
0.300000 4.000000 0.000000
0.200000 4.000000 0.000000
0.100000 4.000000 0.000000
0.000000 3.901898 0.000000
0.000000 3.806409 0.000000
0.000000 3.713462 0.000000
0.000000 3.622990 0.000000
0.000000 3.534927 0.000000
0.000000 3.449209 0.000000
0.000000 3.365773 0.000000
0.000000 3.284559 0.000000
0.000000 3.205508 0.000000
0.000000 3.128561 0.000000
0.000000 3.053664 0.000000
0.000000 2.980761 0.000000
0.000000 2.909799 0.000000
0.000000 2.840727 0.000000
0.000000 2.773493 0.000000
0.000000 2.708051 0.000000
0.000000 2.644350 0.000000
0.000000 2.582346 0.000000
0.000000 2.521993 0.000000
0.000000 2.463247 0.000000
0.000000 2.406065 0.000000
0.000000 2.350406 0.000000
0.000000 2.296229 0.000000
0.000000 2.243495 0.000000
0.000000 2.192165 0.000000
0.000000 2.142201 0.000000
0.000000 2.093568 0.000000
0.000000 2.046230 0.000000
0.000000 2.000153 0.000000
0.000000 1.955302 0.000000
0.000000 1.911646 0.000000
0.000000 1.869152 0.000000
0.000000 1.827789 0.000000
0.000000 1.787528 0.000000
0.000000 1.748339 0.000000
0.000000 1.710194 0.000000
0.000000 1.673064 0.000000
0.000000 1.636923 0.000000
0.000000 1.601745 0.000000
0.000000 1.567503 0.000000
0.000000 1.534172 0.000000
0.000000 1.501730 0.000000
0.000000 1.470151 0.000000
0.000000 1.439413 0.000000
0.000000 1.409494 0.000000
0.000000 1.380371 0.000000
0.000000 1.352024 0.000000
0.000000 1.324431 0.000000
0.000000 1.297573 0.000000
0.000000 1.271431 0.000000
0.000000 1.245984 0.000000
0.000000 1.221215 0.000000
0.000000 1.197106 0.000000
0.000000 1.173639 0.000000
0.000000 1.150796 0.000000
0.000000 1.128562 0.000000
0.000000 1.106920 0.000000
0.000000 1.085854 0.000000
0.000000 1.065349 0.000000
0.000000 1.045390 0.000000
0.000000 1.025962 0.000000
0.000000 1.007052 0.000000
0.000000 0.988645 0.000000
0.000000 0.970729 0.000000
0.000000 0.953289 0.000000
0.000000 0.936314 0.000000
0.000000 0.919791 0.000000
0.000000 0.903708 0.000000
0.000000 0.888053 0.000000
0.000000 0.872815 0.000000
0.000000 0.857983 0.000000
0.000000 0.843545 0.000000
0.000000 0.829492 0.000000
0.000000 0.815814 0.000000
0.000000 0.802499 0.000000
0.000000 0.789539 0.000000
0.000000 0.776925 0.000000
0.000000 0.764646 0.000000
0.000000 0.752694 0.000000
0.000000 0.741060 0.000000
0.000000 0.729736 0.000000
0.000000 0.718714 0.000000
0.000000 0.707985 0.000000
0.000000 0.697541 0.000000
0.000000 0.687376 0.000000
0.000000 0.677482 0.000000
0.000000 0.667851 0.000000
0.000000 0.658476 0.000000
0.000000 0.649351 0.000000
0.000000 0.640469 0.000000
0.000000 0.631824 0.000000
0.000000 0.623409 0.000000
0.000000 0.615217 0.000000
0.000000 0.607244 0.000000
0.000000 0.599484 0.000000
0.000000 0.591929 0.000000
0.000000 0.584577 0.000000
0.000000 0.577419 0.000000
0.000000 0.570453 0.000000
0.000000 0.563672 0.000000
0.000000 0.557071 0.000000
0.000000 0.550646 0.000000
0.000000 0.544393 0.000000
0.000000 0.538306 0.000000
0.000000 0.532380 0.000000
0.000000 0.526613 0.000000
0.000000 0.520999 0.000000
0.000000 0.515535 0.000000
0.000000 0.510216 0.000000
0.000000 0.505039 0.000000
0.000000 0.494581 0.000000
0.000000 0.488047 0.000000
0.000000 0.480167 0.000000
0.000000 0.470665 0.000000
0.000000 0.459206 0.000000
0.000000 0.445387 0.000000
0.000000 0.428723 0.000000
0.000000 0.408628 0.000000
0.000000 0.384395 0.000000
0.000000 0.355172 0.000000
0.000000 0.319933 0.000000
0.000000 0.277436 0.000000
0.000000 0.226190 0.000000
0.000000 0.164392 0.000000
0.000000 0.089868 0.000000
0.003529 0.503529 0.000000
0.007059 0.507059 0.000000
0.010588 0.510588 0.000000
0.014118 0.514118 0.000000
0.017647 0.517647 0.000000
0.021176 0.521176 0.000000
0.024706 0.524706 0.000000
0.028235 0.528235 0.000000
0.031765 0.531765 0.000000
0.035294 0.535294 0.000000
0.038824 0.538824 0.000000
0.042353 0.542353 0.000000
0.045882 0.545882 0.000000
0.049412 0.549412 0.000000
0.052941 0.552941 0.000000
0.056471 0.556471 0.000000
0.060000 0.560000 0.000000
0.063529 0.563529 0.000000
0.067059 0.567059 0.000000
0.070588 0.570588 0.000000
0.074118 0.574118 0.000000
0.077647 0.577647 0.000000
0.081176 0.581176 0.000000
0.084706 0.584706 0.000000
0.088235 0.588235 0.000000
0.091765 0.591765 0.000000
0.095294 0.595294 0.000000
0.098824 0.598824 0.000000
0.102353 0.602353 0.000000
0.105882 0.605882 0.000000
0.109412 0.609412 0.000000
0.112941 0.612941 0.000000
0.116471 0.616471 0.000000
0.120000 0.620000 0.000000
0.123529 0.623529 0.000000
0.127059 0.627059 0.000000
0.130588 0.630588 0.000000
0.134118 0.634118 0.000000
0.137647 0.637647 0.000000
0.141176 0.641176 0.000000
0.144706 0.644706 0.000000
0.148235 0.648235 0.000000
0.151765 0.651765 0.000000
0.155294 0.655294 0.000000
0.158824 0.658824 0.000000
0.162353 0.662353 0.000000
0.165882 0.665882 0.000000
0.169412 0.669412 0.000000
0.172941 0.672941 0.000000
0.176471 0.676471 0.000000
0.180000 0.680000 0.000000
0.183529 0.683529 0.000000
0.187059 0.687059 0.000000
0.190588 0.690588 0.000000
0.194118 0.694118 0.000000
0.197647 0.697647 0.000000
0.201176 0.701176 0.000000
0.204706 0.704706 0.000000
0.208235 0.708235 0.000000
0.211765 0.711765 0.000000
0.215294 0.715294 0.000000
0.218824 0.718824 0.000000
0.222353 0.722353 0.000000
0.225882 0.725882 0.000000
0.229412 0.729412 0.000000
0.232941 0.732941 0.000000
0.236471 0.736471 0.000000
0.240000 0.740000 0.000000
0.243529 0.743529 0.000000
0.247059 0.747059 0.000000
0.250588 0.750588 0.000000
0.254118 0.754118 0.000000
[...]
POINT_DATA 26238
SCALARS UX float 1
LOOKUP_TABLE default
-0.000000
0.000000
-0.001836
-0.002584
-0.000574
-0.000486
-0.000815
-0.000000
-0.000000
-0.000000
-0.000000
-0.000000
-0.000000
-0.000000
-0.000000
-0.000000
-0.000000
0.000000
0.000000
0.000000
0.000000
0.000000
0.000000
0.000000
0.000000
0.000000
0.000122
0.000191
0.000240
0.000275
0.000300
0.000319
0.000332
0.000340
0.000345
0.000348
0.000347
0.000345
0.000341
0.000336
0.000329
0.000320
0.000311
0.000300
0.000288
0.000275
0.000261
0.000245
0.000228
0.000209
0.000189
0.000167
0.000143
0.000118
0.000091
0.000063
0.000033
0.000002
-0.000030
-0.000063
-0.000096
-0.000130
-0.000164
-0.000197
-0.000230
-0.000262
-0.000293
-0.000323
-0.000352
-0.000380
-0.000407
-0.000432
-0.000456
-0.000479
-0.000500
-0.000521
-0.000540
-0.000558
-0.000576
-0.000592
-0.000607
-0.000622
-0.000636
-0.000649
-0.000662
-0.000674
-0.000685
-0.000695
-0.000706
-0.000715
-0.000724
-0.000733
-0.000741
-0.000749
-0.000757
-0.000764
-0.000771
-0.000777
-0.000783
-0.000789
-0.000795
-0.000800
-0.000805
-0.000810
-0.000820
-0.000825
-0.000830
-0.000836
-0.000841
-0.000848
-0.000854
-0.000861
-0.000868
-0.000876
-0.000884
-0.000893
-0.000901
-0.000911
-0.000921
-0.000931
-0.000942
-0.000954
-0.000966
-0.000978
-0.000992
-0.001006
-0.001020
-0.001036
-0.001052
-0.001069
-0.001087
-0.001106
-0.001126
-0.001146
-0.001168
-0.001192
-0.001216
-0.001242
-0.001269
-0.001298
-0.001329
-0.001361
-0.001396
-0.001433
-0.001472
-0.001514
-0.001559
-0.001607
-0.001659
-0.001714
-0.001773
-0.001875
-0.001914
-0.001953
-0.001991
-0.002029
-0.002066
-0.002103
-0.002139
-0.002174
-0.002210
-0.002245
-0.002281
-0.002317
-0.002354
-0.002391
-0.002429
-0.002468
-0.002506
-0.002545
-0.002522
-0.002460
-0.002400
-0.002341
-0.002283
-0.002227
-0.002172
-0.002118
-0.002066
-0.002015
-0.001966
-0.001919
-0.001874
-0.001831
-0.001790
-0.001751
-0.001713
-0.001679
-0.001646
-0.001615
-0.001587
-0.001560
-0.001536
-0.001514
-0.001493
-0.001475
-0.001458
-0.001443
-0.001430
-0.001418
-0.001408
-0.001398
-0.001390
-0.001383
-0.001377
-0.001372
-0.001368
-0.001365
-0.001362
-0.001359
-0.001357
-0.001356
-0.001355
-0.001354
-0.001354
-0.001354
-0.001354
-0.001354
-0.001355
-0.001355
-0.001356
-0.001357
-0.001358
-0.001358
-0.001359
-0.001360
-0.001361
-0.001362
-0.001363
-0.001364
-0.001365
-0.001366
-0.001367
-0.001368
-0.001369
-0.001370
-0.001371
-0.001372
-0.001373
-0.001374
-0.001374
-0.001375
-0.001376
-0.001376
-0.001377
-0.001377
-0.001378
-0.001378
-0.001379
-0.001379
-0.001379
-0.001380
-0.001380
-0.001379
-0.001379
-0.001379
-0.001378
-0.001377
-0.001376
-0.001375
-0.001374
-0.001373
-0.001372
-0.001370
-0.001368
-0.001365
-0.001362
-0.001359
-0.001357
-0.001356
-0.001353
-0.001347
-0.001338
-0.001327
-0.001309
-0.001290
-0.001276
-0.001216
-0.001250
-0.001022
-0.000439
-0.000399
-0.000365
-0.000343
-0.000326
-0.000313
-0.000302
-0.000292
-0.000281
-0.000270
-0.000256
-0.000237
-0.000211
-0.000173
-0.000116
-0.000564
-0.000547
-0.000641
-0.000633
-0.000775
-0.000734
-0.000686
-0.000688
-0.000689
-0.000695
-0.000701
-0.000696
-0.000698
-0.000701
-0.000705
-0.000704
-0.000719
-0.000714
-0.000705
-0.000707
-0.000710
-0.000729
-0.000723
-0.000717
-0.000714
-0.000701
-0.000701
-0.000699
-0.000700
-0.000695
-0.000693
-0.000688
-0.000690
-0.000686
-0.000724
-0.000739
-0.000740
-0.000744
-0.000745
-0.000738
-0.000738
-0.000712
-0.000730
-0.000728
-0.000740
-0.000738
-0.000749
-0.000755
-0.000749
-0.000756
-0.000755
-0.000763
-0.000758
-0.000753
-0.000755
-0.000755
-0.000749
-0.000745
-0.000752
-0.000739
-0.000741
-0.000765
-0.000769
-0.000766
-0.000777
-0.000774
-0.000778
-0.000784
-0.000787
-0.000788
-0.000785
-0.000774
-0.000767
-0.000768
-0.000765
-0.000766
-0.000766
-0.000767
-0.000769
-0.000768
-0.000766
-0.000768
-0.000767
-0.000771
-0.000770
-0.000764
-0.000756
-0.000767
-0.000769
-0.000763
-0.000766
-0.000751
-0.000757
-0.000758
-0.000749
-0.000749
-0.000752
-0.000762
-0.000748
-0.000750
-0.000747
-0.000738
-0.000734
-0.000738
-0.000736
-0.000739
-0.000742
-0.000737
-0.000736
-0.000723
-0.000728
-0.000728
-0.000723
-0.000722
-0.000713
-0.000710
-0.000715
-0.000711
-0.000728
-0.000722
-0.000721
-0.000726
-0.000719
-0.000721
-0.000714
-0.000708
-0.000696
-0.000690
-0.000703
-0.000706
-0.000702
-0.000708
-0.000706
-0.000708
-0.000706
-0.000709
-0.000701
-0.000705
-0.000700
-0.000693
-0.000689
-0.000698
-0.000696
-0.000696
-0.000706
-0.000696
-0.000694
-0.000692
-0.000695
-0.000695
-0.000688
-0.000678
-0.000674
-0.000669
-0.000664
-0.000660
-0.000665
-0.000657
-0.000651
-0.000656
-0.000656
-0.000655
-0.000649
-0.000652
-0.000652
-0.000655
-0.000650
-0.000641
-0.000636
-0.000636
-0.000629
-0.000630
-0.000623
-0.000613
-0.000616
-0.000619
-0.000619
-0.000611
-0.000608
-0.000615
-0.000608
-0.000615
-0.000611
-0.000606
-0.000606
-0.000606
-0.000603
-0.000597
-0.000596
-0.000591
-0.000602
-0.000600
-0.000597
-0.000594
-0.000597
-0.000591
-0.000603
-0.000590
-0.000597
-0.000599
-0.000609
-0.000608
-0.000605
-0.000613
-0.000613
-0.000595
-0.000606
-0.000603
-0.000597
-0.000599
-0.000603
-0.000600
-0.000608
-0.000611
-0.000617
-0.000619
-0.000613
-0.000608
-0.000622
-0.000603
-0.000593
-0.000595
-0.000595
-0.000586
-0.000591
-0.000584
-0.000587
-0.000572
-0.000571
-0.000569
-0.000571
-0.000574
-0.000578
-0.000580
-0.000578
-0.000577
-0.000576
-0.000572
-0.000577
-0.000583
-0.000586
-0.000593
-0.000586
-0.000589
-0.000589
-0.000580
-0.000572
-0.000575
-0.000575
-0.000575
-0.000572
-0.000565
-0.000574
-0.000564
-0.000562
-0.000564
-0.000552
-0.000542
-0.000547
-0.000537
-0.000526
-0.000526
-0.000521
-0.000523
-0.000562
-0.000558
-0.000548
-0.000547
-0.000549
-0.000552
-0.000550
-0.000547
-0.000541
-0.000543
-0.000538
-0.000539
-0.000538
-0.000533
-0.000518
-0.000521
-0.000517
-0.000518
-0.000525
-0.000526
-0.000516
-0.000521
-0.000521
-0.000516
-0.000521
-0.000522
-0.000524
-0.000528
-0.000515
-0.000519
-0.000518
-0.000509
-0.000516
-0.000515
-0.000526
-0.000526
-0.000518
-0.000524
-0.000527
-0.000525
-0.000523
-0.000527
-0.000524
-0.000527
-0.000533
-0.000527
-0.000529
-0.000530
-0.000534
-0.000534
-0.000529
-0.000527
-0.000525
-0.000525
-0.000520
-0.000512
-0.000516
-0.000510
-0.000508
-0.000508
-0.000508
-0.000505
-0.000509
-0.000506
-0.000508
-0.000508
-0.000510
-0.000506
-0.000510
-0.000506
-0.000510
-0.000505
-0.000507
-0.000507
-0.000507
-0.000506
-0.000505
-0.000503
-0.000493
-0.000496
-0.000483
-0.000492
-0.000490
-0.000488
-0.000482
-0.000483
-0.000477
-0.000477
-0.000475
-0.000468
-0.000469
-0.000468
-0.000466
-0.000465
-0.000467
-0.000472
-0.000470
-0.000468
-0.000482
-0.000482
-0.000485
-0.000487
-0.000484
-0.000488
-0.000492
-0.000493
-0.000491
-0.000487
-0.000491
-0.000496
-0.000499
-0.000500
-0.000498
-0.000500
-0.000499
-0.000495
-0.000496
-0.000493
-0.000501
-0.000497
-0.000494
-0.000498
-0.000494
-0.000489
-0.000489
-0.000490
-0.000491
-0.000493
-0.000495
-0.000498
-0.000508
-0.000513
-0.000512
-0.000510
-0.000513
-0.000510
-0.000510
-0.000509
-0.000512
-0.000508
-0.000505
-0.000506
-0.000505
-0.000505
-0.000504
-0.000504
-0.000505
-0.000507
-0.000508
-0.000509
-0.000506
-0.000504
-0.000503
-0.000502
-0.000501
-0.000501
-0.000500
-0.000498
-0.000495
-0.000491
-0.000484
-0.000489
-0.000494
-0.000499
-0.000503
-0.000508
-0.000512
-0.000516
-0.000521
-0.000524
-0.000528
-0.000532
-0.000535
-0.000538
-0.000541
-0.000544
-0.000548
-0.000550
-0.000553
-0.000556
-0.000559
-0.000562
-0.000565
-0.000567
-0.000570
-0.000573
-0.000575
-0.000578
-0.000581
-0.000583
-0.000586
-0.000588
-0.000590
-0.000593
-0.000595
-0.000597
-0.000600
-0.000602
-0.000604
-0.000607
-0.000609
-0.000611
-0.000614
-0.000616
-0.000618
-0.000621
-0.000623
-0.000625
-0.000627
-0.000630
-0.000632
-0.000634
-0.000636
-0.000639
-0.000641
-0.000643
-0.000646
-0.000648
-0.000650
-0.000652
-0.000655
-0.000657
-0.000659
-0.000662
-0.000664
-0.000666
-0.000668
-0.000671
-0.000673
-0.000675
-0.000678
-0.000680
-0.000682
-0.000684
-0.000687
-0.000689
-0.000691
-0.000694
-0.000696
-0.000698
-0.000700
-0.000703
-0.000705
-0.000707
-0.000709
-0.000712
-0.000714
-0.000716
-0.000718
-0.000720
-0.000723
-0.000725
-0.000727
-0.000729
-0.000731
-0.000733
-0.000735
-0.000738
-0.000740
-0.000742
-0.000744
-0.000746
-0.000748
-0.000750
-0.000752
-0.000754
-0.000756
-0.000758
-0.000760
-0.000762
-0.000764
-0.000766
-0.000768
-0.000770
-0.000772
-0.000773
-0.000775
-0.000777
-0.000779
-0.000781
-0.000782
-0.000784
-0.000786
-0.000788
-0.000789
-0.000791
-0.000793
-0.000794
-0.000796
-0.000797
-0.000799
-0.000801
-0.000802
-0.000804
-0.000805
-0.000807
-0.000808
-0.000809
-0.000811
-0.000812
-0.000814
-0.000956
-0.000963
-0.000907
-0.000744
-0.000751
-0.000747
-0.001029
-0.001026
-0.001016
-0.000984
-0.001014
-0.000876
-0.000921
-0.000876
-0.000878
-0.000875
-0.000880
-0.000729
-0.000732
-0.000724
-0.001204
-0.001203
-0.001189
-0.001183
-0.000736
-0.001109
-0.001104
-0.001123
-0.000771
-0.000768
-0.000765
-0.001108
-0.001013
-0.000994
-0.001010
-0.000764
-0.001186
-0.001181
-0.001203
-0.001154
-0.000951
-0.000963
-0.000968
-0.000716
-0.000722
-0.000716
-0.001246
-0.001250
-0.001244
-0.000736
-0.000730
-0.000733
-0.001238
-0.001234
-0.001240
-0.000730
-0.001249
-0.001247
-0.001253
-0.001110
-0.001097
-0.001097
-0.000800
-0.000808
-0.000806
-0.000815
-0.001275
-0.001281
-0.001274
-0.001281
-0.001107
-0.001254
-0.001251
-0.001244
-0.001244
-0.000973
-0.001247
-0.001243
-0.001250
-0.000893
-0.000882
-0.000885
-0.000784
-0.000792
-0.000781
-0.000781
-0.000889
-0.001208
-0.001205
-0.001169
-0.001246
-0.001245
-0.001250
-0.001250
-0.000861
-0.000871
-0.000864
-0.000871
-0.001145
-0.001149
-0.001145
-0.000762
-0.000767
-0.000768
-0.000773
-0.001105
-0.001094
-0.001107
-0.001084
-0.000767
-0.001729
-0.001769
-0.001737
-0.000816
-0.001749
-0.000898
-0.000901
-0.000895
-0.001099
-0.001105
-0.001103
-0.001219
-0.001220
-0.001223
-0.000763
-0.000757
-0.000905
-0.001153
-0.001149
-0.000710
-0.001093
-0.000962
-0.001042
-0.000743
-0.001218
-0.001218
-0.001214
-0.000989
-0.000977
-0.000977
-0.000993
-0.001214
-0.001217
-0.001219
-0.001556
-0.001522
-0.001547
-0.001532
-0.001584
-0.001551
-0.001551
-0.001403
-0.001386
-0.001372
-0.001580
-0.001152
-0.001097
-0.001059
-0.001004
-0.001126
-0.001132
-0.001150
-0.001117
-0.000835
-0.000825
-0.000832
-0.000827
-0.000984
-0.000986
-0.000983
-0.000662
-0.000658
-0.000635
-0.001245
-0.001242
-0.001247
-0.001244
-0.000715
-0.000723
-0.000725
-0.000678
-0.001677
-0.001677
-0.001708
-0.001642
-0.000894
-0.000889
-0.000892
-0.000886
-0.001074
-0.001078
-0.001077
-0.000934
-0.000952
-0.000935
-0.001080
-0.001575
-0.001544
-0.001569
-0.001054
-0.000986
-0.000858
-0.000864
-0.000868
-0.000834
-0.000839
-0.000846
-0.001310
-0.001312
-0.001308
-0.001536
-0.001107
-0.001103
-0.001107
-0.001100
-0.001189
-0.001180
-0.001185
-0.001184
-0.001276
-0.001273
-0.001271
-0.001269
-0.001275
-0.001271
-0.001280
-0.001267
-0.001083
-0.001084
-0.001089
-0.001090
-0.001091
-0.001078
-0.001368
-0.001353
-0.001344
-0.001369
-0.000794
-0.000801
-0.000794
-0.001285
-0.001281
-0.001281
-0.001278
-0.001228
-0.001222
-0.001236
-0.001225
-0.001089
-0.001194
-0.001192
-0.001197
-0.001283
-0.001287
-0.001281
-0.001287
-0.001220
-0.001225
-0.001235
-0.001205
-0.001175
-0.001176
-0.001180
-0.001082
-0.001075
-0.001081
-0.001171
-0.001161
-0.001154
-0.001165
-0.000855
-0.001055
-0.001072
-0.001067
-0.001189
-0.001253
-0.001255
-0.001260
-0.001247
-0.001200
-0.001195
-0.001201
-0.001193
-0.001213
-0.001194
-0.001220
-0.000912
-0.000915
-0.000912
-0.001149
-0.001149
-0.001145
-0.001070
-0.001061
-0.001059
-0.001068
-0.000851
-0.000857
-0.000850
-0.000855
-0.001026
-0.001021
-0.001019
-0.001305
-0.001304
-0.001298
-0.001298
-0.000803
-0.000800
-0.000806
-0.001595
-0.001589
-0.001568
-0.000801
-0.001596
-0.001621
-0.001581
-0.001630
-0.001328
-0.001327
-0.001324
-0.001322
-0.001250
-0.001248
-0.001240
-0.001244
-0.001011
-0.001005
-0.001004
-0.001060
-0.001063
-0.001068
-0.001071
-0.000745
-0.000741
-0.000740
-0.001181
-0.001177
-0.001178
-0.000904
-0.000916
-0.000903
-0.000915
-0.001334
-0.001333
-0.001330
-0.001329
-0.000960
-0.000965
-0.000958
-0.000967
-0.001295
-0.001272
-0.001282
-0.001264
-0.000938
-0.000948
-0.000938
-0.000951
-0.000874
-0.000873
-0.000882
-0.000867
-0.001134
-0.001129
-0.001140
-0.001125
-0.001210
-0.001196
-0.001202
-0.000915
-0.001377
-0.001359
-0.001385
-0.001355
-0.001425
-0.001400
-0.001396
-0.001429
-0.001942
-0.001987
-0.001923
-0.000993
-0.001003
-0.000986
-0.001138
-0.001139
-0.001135
-0.001307
-0.001305
-0.001303
-0.000987
-0.001117
-0.001125
-0.001134
-0.001112
-0.000942
-0.000931
-0.000944
-0.000928
-0.001320
-0.001312
-0.001316
-0.001309
-0.001135
-0.001049
-0.001052
-0.001054
-0.001285
-0.001304
-0.001278
-0.000907
-0.000891
-0.000897
-0.001257
-0.001265
-0.001252
-0.001063
-0.001048
-0.001056
-0.001270
-0.000714
-0.000723
-0.000720
-0.000781
-0.000775
-0.000777
-0.001226
-0.001236
-0.001221
-0.001236
-0.001175
-0.001163
-0.001157
-0.001083
-0.001090
-0.001077
-0.001176
-0.000967
-0.000956
-0.000955
-0.001087
-0.001066
-0.001162
-0.001156
-0.001163
-0.000988
-0.000987
-0.000977
-0.001161
-0.001161
-0.001166
-0.001156
-0.000996
-0.000992
-0.000995
-0.000915
-0.000927
-0.000918
-0.000916
-0.001004
-0.001001
-0.001233
-0.001231
-0.001215
-0.000798
-0.000798
-0.000806
-0.001265
-0.001258
-0.001244
-0.001050
-0.001055
-0.001065
-0.001077
-0.001000
-0.000997
-0.001010
-0.000989
-0.001170
-0.001169
-0.001175
-0.001175
-0.000805
-0.000806
-0.000814
-0.000841
-0.000836
-0.000844
-0.000836
-0.000877
-0.000870
-0.000881
-0.000814
-0.001008
-0.001014
-0.001013
-0.000994
-0.000997
-0.000995
-0.000995
-0.000997
-0.000997
-0.001002
-0.000992
-0.001195
-0.001197
-0.001199
-0.001138
-0.001134
-0.001136
-0.001170
-0.001169
-0.001151
-0.001111
-0.001120
-0.001120
-0.001129
-0.000994
-0.000989
-0.000972
-0.001132
-0.001186
-0.001189
-0.001186
-0.001218
-0.001221
-0.001219
-0.001222
-0.001188
-0.001053
-0.001056
-0.001050
-0.001060
-0.000847
-0.000835
-0.000840
-0.001359
-0.001362
-0.001361
-0.001362
-0.001030
-0.001028
-0.001034
-0.001024
-0.001251
-0.001247
-0.001253
-0.001270
-0.001260
-0.001268
-0.000802
-0.000909
-0.000789
-0.001247
-0.001347
-0.001343
-0.001346
-0.001218
-0.001214
-0.001342
-0.001333
-0.001328
-0.000900
-0.001285
-0.001294
-0.001275
-0.001317
-0.001315
-0.000987
-0.000973
-0.000975
-0.001299
-0.001278
-0.001278
-0.001282
-0.001411
-0.001392
-0.001420
-0.001394
-0.000806
-0.000807
-0.000800
-0.001231
-0.001232
-0.001235
-0.001238
-0.001330
-0.001330
-0.001318
-0.000813
-0.001304
-0.001309
-0.001296
-0.001132
-0.001130
-0.001116
-0.001170
-0.001166
-0.001286
-0.001282
-0.001278
-0.001000
-0.000997
-0.001000
-0.001050
-0.001044
-0.001047
-0.001332
-0.001317
-0.001333
-0.000997
-0.000781
-0.000785
-0.000775
-0.001192
-0.001192
-0.001176
-0.001206
-0.001323
-0.001316
-0.001338
-0.001307
-0.001296
-0.000955
-0.000960
-0.000946
-0.001038
-0.001034
-0.001035
-0.001032
-0.000780
-0.000788
-0.000779
-0.001018
-0.001014
-0.001000
-0.000789
-0.000791
-0.000787
-0.000787
-0.000783
-0.000793
-0.000870
-0.000874
-0.000874
-0.001241
-0.001238
-0.001243
-0.001146
-0.001191
-0.001088
-0.001225
-0.001238
-0.001192
-0.001196
-0.001184
-0.001148
-0.001144
-0.001142
-0.001138
-0.001290
-0.001294
-0.001291
-0.001296
-0.001307
-0.001310
-0.001308
-0.000903
-0.000903
-0.000913
-0.001062
-0.001041
-0.001038
-0.000764
-0.000764
-0.000755
-0.001234
-0.001226
-0.001235
-0.001247
-0.000752
-0.000766
-0.000773
-0.001309
-0.000878
-0.001027
-0.001027
-0.001029
-0.001151
-0.001157
-0.001162
-0.001164
-0.001191
-0.001192
-0.001182
-0.001030
-0.000789
-0.000782
-0.000787
-0.001096
-0.001093
-0.001098
-0.001098
-0.001183
-0.001213
-0.001187
-0.001249
-0.001240
-0.001238
-0.001128
-0.001134
-0.001134
-0.001102
-0.001100
-0.001095
-0.001107
-0.001279
-0.001283
-0.001283
-0.001286
-0.000771
-0.000768
-0.000774
-0.001169
-0.001161
-0.001174
-0.000857
-0.000853
-0.000857
-0.001067
-0.001064
-0.001063
-0.001058
-0.000853
-0.001100
-0.001104
-0.001105
-0.001110
-0.001673
-0.001644
-0.001711
-0.000810
-0.000801
-0.000801
-0.001260
-0.001261
-0.001264
-0.001257
-0.000898
-0.000894
-0.000896
-0.000809
-0.001268
-0.001271
-0.001268
-0.001203
-0.001211
-0.001205
-0.001206
-0.001301
-0.001293
-0.001267
-0.000892
-0.000867
-0.000872
-0.000869
-0.001025
-0.001032
-0.001037
-0.001191
-0.001189
-0.001194
-0.001191
-0.000873
-0.000809
-0.000806
-0.000805
-0.001213
-0.001223
-0.001218
-0.001229
-0.001020
-0.001330
-0.001334
-0.001327
-0.001338
-0.001124
-0.001126
-0.001122
-0.001127
-0.001123
-0.001118
-0.001118
-0.001182
-0.001173
-0.001172
-0.001187
-0.001041
-0.001049
-0.001048
-0.001058
-0.001017
-0.001009
-0.001233
-0.001230
-0.001233
-0.000959
-0.000961
-0.000965
-0.000955
-0.000969
-0.000971
-0.001239
-0.001173
-0.001165
-0.001229
-0.000811
-0.001031
-0.001039
-0.001034
-0.000741
-0.000724
-0.000776
-0.001021
-0.001270
-0.001274
-0.001276
-0.000672
-0.001278
-0.001017
-0.001007
-0.001007
-0.001029
-0.001021
-0.001037
-0.001236
-0.001232
-0.001235
-0.001176
-0.001169
-0.001172
-0.001111
-0.001125
-0.001112
-0.001020
-0.001014
-0.001020
-0.000792
-0.000785
-0.000784
-0.001124
-0.001199
-0.001202
-0.001203
-0.001206
-0.000999
-0.001011
-0.001024
-0.001011
-0.001059
-0.001054
-0.001055
-0.001329
-0.001315
-0.001322
-0.001303
-0.001316
-0.001336
-0.001343
-0.000986
-0.000983
-0.000979
-0.000976
-0.001121
-0.001124
-0.001123
-0.000989
-0.000980
-0.000983
-0.001372
-0.001062
-0.001057
-0.001063
-0.001055
-0.001266
-0.001261
-0.001263
-0.000975
-0.001310
-0.001307
-0.001304
-0.001049
-0.000764
-0.001071
-0.001072
-0.001007
-0.001116
-0.001159
-0.001159
-0.001163
-0.001165
-0.001264
-0.001270
-0.001263
-0.001271
-0.001310
-0.001315
-0.001333
-0.001290
-0.001333
-0.001316
-0.001329
-0.001088
-0.001086
-0.001082
-0.001082
-0.000772
-0.000942
-0.000946
-0.000941
-0.000945
-0.001246
-0.001252
-0.001248
-0.000753
-0.000746
-0.000747
-0.000941
-0.000953
-0.000937
-0.001081
-0.001096
-0.001092
-0.001188
-0.001181
-0.001181
-0.001112
-0.001141
-0.001141
-0.000948
-0.000903
-0.001082
-0.001088
-0.001086
-0.001256
-0.001251
-0.001253
-0.001138
-0.001137
-0.000753
-0.000883
-0.000837
-0.001055
-0.001062
-0.001053
-0.001353
-0.001373
-0.001379
-0.001399
-0.000835
-0.000827
-0.000821
-0.001191
-0.001185
-0.001185
-0.001106
-0.001110
-0.001107
-0.001248
-0.001243
-0.001250
-0.001015
-0.001016
-0.000999
-0.001899
-0.001871
-0.001839
-0.001323
-0.001306
-0.001290
-0.001287
-0.001287
-0.001284
-0.001101
-0.001104
-0.001101
-0.001827
-0.001103
-0.001110
-0.001241
-0.001249
-0.001303
-0.001305
-0.001284
-0.001254
-0.001198
-0.001110
-0.001053
-0.000957
-0.000964
-0.000962
-0.001198
-0.001200
-0.001202
-0.001243
-0.001238
-0.001240
-0.000784
-0.000779
-0.000779
-0.001445
-0.001464
-0.001490
-0.001098
-0.001104
-0.001098
-0.001200
-0.001198
-0.001196
-0.001217
-0.001212
-0.001209
-0.001207
-0.001042
-0.001047
-0.000945
-0.000947
-0.000953
-0.001032
-0.001036
-0.001037
-0.001042
-0.000967
-0.000971
-0.000972
-0.001167
-0.001127
-0.001200
-0.001263
-0.001259
-0.001255
-0.001424
-0.001104
-0.001103
-0.001118
-0.000954
-0.000948
-0.000950
-0.001095
-0.001072
-0.001088
-0.001062
-0.001281
-0.001277
-0.001280
-0.001230
-0.001225
-0.001227
-0.001146
-0.001148
-0.001149
-0.001152
-0.001772
-0.001714
-0.001754
-0.001194
-0.001183
-0.001178
-0.001166
-0.001259
-0.001266
-0.001696
-0.001111
-0.001115
-0.001110
-0.000965
-0.001821
-0.001778
-0.001219
-0.000912
-0.000905
-0.000901
-0.001619
-0.001617
-0.001120
-0.001122
-0.001124
-0.001126
-0.001270
-0.001265
-0.001268
-0.000979
-0.000985
-0.000980
-0.001041
-0.001048
-0.001248
-0.001245
-0.001249
-0.001092
-0.001093
-0.001096
-0.000893
-0.001099
-0.001090
-0.001087
-0.001192
-0.001186
-0.001085
-0.001040
-0.001046
-0.001047
-0.001052
-0.001539
-0.001550
-0.001253
-0.001250
-0.001248
-0.001224
-0.001228
-0.001226
-0.001171
-0.001168
-0.001165
-0.001179
-0.001519
-0.001188
-0.001182
-0.001275
-0.001272
-0.001273
-0.001269
-0.001219
-0.001214
-0.001217
-0.001234
-0.001220