# vtk DataFile Version 2.0
Test
ASCII
DATASET POLYDATA
POINTS 26238 float
0.000000 0.000000 0.000000
2.000000 0.000000 0.000000
2.000000 4.000000 0.000000
0.000000 4.000000 0.000000
0.000000 0.500000 0.000000
1.500000 2.000000 0.000000
2.000000 2.500000 0.000000
0.100000 0.000000 0.000000
0.200000 0.000000 0.000000
0.300000 0.000000 0.000000
0.400000 0.000000 0.000000
0.500000 0.000000 0.000000
0.600000 0.000000 0.000000
0.700000 0.000000 0.000000
0.800000 0.000000 0.000000
0.900000 0.000000 0.000000
1.000000 0.000000 0.000000
1.100000 0.000000 0.000000
1.200000 0.000000 0.000000
1.300000 0.000000 0.000000
1.400000 0.000000 0.000000
1.500000 0.000000 0.000000
1.600000 0.000000 0.000000
1.700000 0.000000 0.000000
1.800000 0.000000 0.000000
1.900000 0.000000 0.000000
2.000000 0.097923 0.000000
2.000000 0.192202 0.000000
2.000000 0.282973 0.000000
2.000000 0.370366 0.000000
2.000000 0.454507 0.000000
2.000000 0.535518 0.000000
2.000000 0.613513 0.000000
2.000000 0.688607 0.000000
2.000000 0.760906 0.000000
2.000000 0.830515 0.000000
2.000000 0.897534 0.000000
2.000000 0.962059 0.000000
2.000000 1.024183 0.000000
2.000000 1.083995 0.000000
2.000000 1.141582 0.000000
2.000000 1.197026 0.000000
2.000000 1.250406 0.000000
2.000000 1.301801 0.000000
2.000000 1.351283 0.000000
2.000000 1.398923 0.000000
2.000000 1.444791 0.000000
2.000000 1.488953 0.000000
2.000000 1.531470 0.000000
2.000000 1.572406 0.000000
2.000000 1.611819 0.000000
2.000000 1.649765 0.000000
2.000000 1.686299 0.000000
2.000000 1.721473 0.000000
2.000000 1.755339 0.000000
2.000000 1.787944 0.000000
2.000000 1.819337 0.000000
2.000000 1.849561 0.000000
2.000000 1.878660 0.000000
2.000000 1.906677 0.000000
2.000000 1.933651 0.000000
2.000000 1.959621 0.000000
2.000000 1.984625 0.000000
2.000000 2.008699 0.000000
2.000000 2.031877 0.000000
2.000000 2.054192 0.000000
2.000000 2.075677 0.000000
2.000000 2.096362 0.000000
2.000000 2.116278 0.000000
2.000000 2.135453 0.000000
2.000000 2.153914 0.000000
2.000000 2.171688 0.000000
2.000000 2.188801 0.000000
2.000000 2.205277 0.000000
2.000000 2.221140 0.000000
2.000000 2.236413 0.000000
2.000000 2.251117 0.000000
2.000000 2.265274 0.000000
2.000000 2.278905 0.000000
2.000000 2.292028 0.000000
2.000000 2.304663 0.000000
2.000000 2.316828 0.000000
2.000000 2.328540 0.000000
2.000000 2.339816 0.000000
2.000000 2.350673 0.000000
2.000000 2.361126 0.000000
2.000000 2.371189 0.000000
2.000000 2.380879 0.000000
2.000000 2.390207 0.000000
2.000000 2.399189 0.000000
2.000000 2.407836 0.000000
2.000000 2.416162 0.000000
2.000000 2.424178 0.000000
2.000000 2.431895 0.000000
2.000000 2.439326 0.000000
2.000000 2.446480 0.000000
2.000000 2.453367 0.000000
2.000000 2.459999 0.000000
2.000000 2.466383 0.000000
2.000000 2.472530 0.000000
2.000000 2.478449 0.000000
2.000000 2.484147 0.000000
2.000000 2.489633 0.000000
2.000000 2.494915 0.000000
2.000000 2.505084 0.000000
2.000000 2.510496 0.000000
2.000000 2.516256 0.000000
2.000000 2.522387 0.000000
2.000000 2.528913 0.000000
2.000000 2.535859 0.000000
2.000000 2.543253 0.000000
2.000000 2.551122 0.000000
2.000000 2.559499 0.000000
2.000000 2.568415 0.000000
2.000000 2.577905 0.000000
2.000000 2.588006 0.000000
2.000000 2.598758 0.000000
2.000000 2.610202 0.000000
2.000000 2.622383 0.000000
2.000000 2.635349 0.000000
2.000000 2.649149 0.000000
2.000000 2.663839 0.000000
2.000000 2.679474 0.000000
2.000000 2.696116 0.000000
2.000000 2.713831 0.000000
2.000000 2.732685 0.000000
2.000000 2.752754 0.000000
2.000000 2.774116 0.000000
2.000000 2.796853 0.000000
2.000000 2.821055 0.000000
2.000000 2.846815 0.000000
2.000000 2.874234 0.000000
2.000000 2.903419 0.000000
2.000000 2.934483 0.000000
2.000000 2.967548 0.000000
2.000000 3.002742 0.000000
2.000000 3.040202 0.000000
2.000000 3.080076 0.000000
2.000000 3.122517 0.000000
2.000000 3.167691 0.000000
2.000000 3.215774 0.000000
2.000000 3.266954 0.000000
2.000000 3.321430 0.000000
2.000000 3.379414 0.000000
2.000000 3.441132 0.000000
2.000000 3.506825 0.000000
2.000000 3.576749 0.000000
2.000000 3.651175 0.000000
2.000000 3.730395 0.000000
2.000000 3.814717 0.000000
2.000000 3.904468 0.000000
1.900000 4.000000 0.000000
1.800000 4.000000 0.000000
1.700000 4.000000 0.000000
1.600000 4.000000 0.000000
1.500000 4.000000 0.000000
1.400000 4.000000 0.000000
1.300000 4.000000 0.000000
1.200000 4.000000 0.000000
1.100000 4.000000 0.000000
1.000000 4.000000 0.000000
0.900000 4.000000 0.000000
0.800000 4.000000 0.000000
0.700000 4.000000 0.000000
0.600000 4.000000 0.000000
0.500000 4.000000 0.000000
0.400000 4.000000 0.000000
0.300000 4.000000 0.000000
0.200000 4.000000 0.000000
0.100000 4.000000 0.000000
0.000000 3.901898 0.000000
0.000000 3.806409 0.000000
0.000000 3.713462 0.000000
0.000000 3.622990 0.000000
0.000000 3.534927 0.000000
0.000000 3.449209 0.000000
0.000000 3.365773 0.000000
0.000000 3.284559 0.000000
0.000000 3.205508 0.000000
0.000000 3.128561 0.000000
0.000000 3.053664 0.000000
0.000000 2.980761 0.000000
0.000000 2.909799 0.000000
0.000000 2.840727 0.000000
0.000000 2.773493 0.000000
0.000000 2.708051 0.000000
0.000000 2.644350 0.000000
0.000000 2.582346 0.000000
0.000000 2.521993 0.000000
0.000000 2.463247 0.000000
0.000000 2.406065 0.000000
0.000000 2.350406 0.000000
0.000000 2.296229 0.000000
0.000000 2.243495 0.000000
0.000000 2.192165 0.000000
0.000000 2.142201 0.000000
0.000000 2.093568 0.000000
0.000000 2.046230 0.000000
0.000000 2.000153 0.000000
0.000000 1.955302 0.000000
0.000000 1.911646 0.000000
0.000000 1.869152 0.000000
0.000000 1.827789 0.000000
0.000000 1.787528 0.000000
0.000000 1.748339 0.000000
0.000000 1.710194 0.000000
0.000000 1.673064 0.000000
0.000000 1.636923 0.000000
0.000000 1.601745 0.000000
0.000000 1.567503 0.000000
0.000000 1.534172 0.000000
0.000000 1.501730 0.000000
0.000000 1.470151 0.000000
0.000000 1.439413 0.000000
0.000000 1.409494 0.000000
0.000000 1.380371 0.000000
0.000000 1.352024 0.000000
0.000000 1.324431 0.000000
0.000000 1.297573 0.000000
0.000000 1.271431 0.000000
0.000000 1.245984 0.000000
0.000000 1.221215 0.000000
0.000000 1.197106 0.000000
0.000000 1.173639 0.000000
0.000000 1.150796 0.000000
0.000000 1.128562 0.000000
0.000000 1.106920 0.000000
0.000000 1.085854 0.000000
0.000000 1.065349 0.000000
0.000000 1.045390 0.000000
0.000000 1.025962 0.000000
0.000000 1.007052 0.000000
0.000000 0.988645 0.000000
0.000000 0.970729 0.000000
0.000000 0.953289 0.000000
0.000000 0.936314 0.000000
0.000000 0.919791 0.000000
0.000000 0.903708 0.000000
0.000000 0.888053 0.000000
0.000000 0.872815 0.000000
0.000000 0.857983 0.000000
0.000000 0.843545 0.000000
0.000000 0.829492 0.000000
0.000000 0.815814 0.000000
0.000000 0.802499 0.000000
0.000000 0.789539 0.000000
0.000000 0.776925 0.000000
0.000000 0.764646 0.000000
0.000000 0.752694 0.000000
0.000000 0.741060 0.000000
0.000000 0.729736 0.000000
0.000000 0.718714 0.000000
0.000000 0.707985 0.000000
0.000000 0.697541 0.000000
0.000000 0.687376 0.000000
0.000000 0.677482 0.000000
0.000000 0.667851 0.000000
0.000000 0.658476 0.000000
0.000000 0.649351 0.000000
0.000000 0.640469 0.000000
0.000000 0.631824 0.000000
0.000000 0.623409 0.000000
0.000000 0.615217 0.000000
0.000000 0.607244 0.000000
0.000000 0.599484 0.000000
0.000000 0.591929 0.000000
0.000000 0.584577 0.000000
0.000000 0.577419 0.000000
0.000000 0.570453 0.000000
0.000000 0.563672 0.000000
0.000000 0.557071 0.000000
0.000000 0.550646 0.000000
0.000000 0.544393 0.000000
0.000000 0.538306 0.000000
0.000000 0.532380 0.000000
0.000000 0.526613 0.000000
0.000000 0.520999 0.000000
0.000000 0.515535 0.000000
0.000000 0.510216 0.000000
0.000000 0.505039 0.000000
0.000000 0.494581 0.000000
0.000000 0.488047 0.000000
0.000000 0.480167 0.000000
0.000000 0.470665 0.000000
0.000000 0.459206 0.000000
0.000000 0.445387 0.000000
0.000000 0.428723 0.000000
0.000000 0.408628 0.000000
0.000000 0.384395 0.000000
0.000000 0.355172 0.000000
0.000000 0.319933 0.000000
0.000000 0.277436 0.000000
0.000000 0.226190 0.000000
0.000000 0.164392 0.000000
0.000000 0.089868 0.000000
0.003529 0.503529 0.000000
0.007059 0.507059 0.000000
0.010588 0.510588 0.000000
0.014118 0.514118 0.000000
0.017647 0.517647 0.000000
0.021176 0.521176 0.000000
0.024706 0.524706 0.000000
0.028235 0.528235 0.000000
0.031765 0.531765 0.000000
0.035294 0.535294 0.000000
0.038824 0.538824 0.000000
0.042353 0.542353 0.000000
0.045882 0.545882 0.000000
0.049412 0.549412 0.000000
0.052941 0.552941 0.000000
0.056471 0.556471 0.000000
0.060000 0.560000 0.000000
0.063529 0.563529 0.000000
0.067059 0.567059 0.000000
0.070588 0.570588 0.000000
0.074118 0.574118 0.000000
0.077647 0.577647 0.000000
0.081176 0.581176 0.000000
0.084706 0.584706 0.000000
0.088235 0.588235 0.000000
0.091765 0.591765 0.000000
0.095294 0.595294 0.000000
0.098824 0.598824 0.000000
0.102353 0.602353 0.000000
0.105882 0.605882 0.000000
0.109412 0.609412 0.000000
0.112941 0.612941 0.000000
0.116471 0.616471 0.000000
0.120000 0.620000 0.000000
0.123529 0.623529 0.000000
0.127059 0.627059 0.000000
0.130588 0.630588 0.000000
0.134118 0.634118 0.000000
0.137647 0.637647 0.000000
0.141176 0.641176 0.000000
0.144706 0.644706 0.000000
0.148235 0.648235 0.000000
0.151765 0.651765 0.000000
0.155294 0.655294 0.000000
0.158824 0.658824 0.000000
0.162353 0.662353 0.000000
0.165882 0.665882 0.000000
0.169412 0.669412 0.000000
0.172941 0.672941 0.000000
0.176471 0.676471 0.000000
0.180000 0.680000 0.000000
0.183529 0.683529 0.000000
0.187059 0.687059 0.000000
0.190588 0.690588 0.000000
0.194118 0.694118 0.000000
0.197647 0.697647 0.000000
0.201176 0.701176 0.000000
0.204706 0.704706 0.000000
0.208235 0.708235 0.000000
0.211765 0.711765 0.000000
0.215294 0.715294 0.000000
0.218824 0.718824 0.000000
0.222353 0.722353 0.000000
0.225882 0.725882 0.000000
0.229412 0.729412 0.000000
0.232941 0.732941 0.000000
0.236471 0.736471 0.000000
0.240000 0.740000 0.000000
0.243529 0.743529 0.000000
0.247059 0.747059 0.000000
0.250588 0.750588 0.000000
0.254118 0.754118 0.000000
[...]
POINT_DATA 26238
SCALARS UX float 1
LOOKUP_TABLE default
-0.000000
0.000000
-0.014734
-0.020718
-0.004304
-0.003886
-0.006543
-0.000000
-0.000000
-0.000000
-0.000000
-0.000000
-0.000000
-0.000000
-0.000000
-0.000000
-0.000000
0.000000
0.000000
0.000000
0.000000
0.000000
0.000000
0.000000
0.000000
0.000000
0.000974
0.001530
0.001922
0.002199
0.002404
0.002554
0.002657
0.002726
0.002767
0.002786
0.002787
0.002772
0.002741
0.002698
0.002644
0.002578
0.002505
0.002420
0.002326
0.002222
0.002108
0.001982
0.001846
0.001697
0.001536
0.001362
0.001173
0.000971
0.000757
0.000529
0.000289
0.000039
-0.000218
-0.000486
-0.000755
-0.001027
-0.001298
-0.001568
-0.001832
-0.002091
-0.002342
-0.002584
-0.002817
-0.003041
-0.003255
-0.003458
-0.003651
-0.003834
-0.004008
-0.004173
-0.004329
-0.004476
-0.004616
-0.004748
-0.004872
-0.004991
-0.005102
-0.005208
-0.005309
-0.005404
-0.005494
-0.005580
-0.005661
-0.005739
-0.005812
-0.005882
-0.005949
-0.006012
-0.006072
-0.006130
-0.006185
-0.006237
-0.006287
-0.006335
-0.006380
-0.006424
-0.006465
-0.006505
-0.006581
-0.006621
-0.006663
-0.006708
-0.006755
-0.006804
-0.006857
-0.006912
-0.006970
-0.007032
-0.007097
-0.007165
-0.007237
-0.007312
-0.007392
-0.007476
-0.007563
-0.007656
-0.007752
-0.007855
-0.007962
-0.008074
-0.008192
-0.008316
-0.008446
-0.008582
-0.008726
-0.008876
-0.009036
-0.009203
-0.009380
-0.009565
-0.009761
-0.009968
-0.010187
-0.010420
-0.010666
-0.010926
-0.011204
-0.011500
-0.011816
-0.012153
-0.012513
-0.012897
-0.013310
-0.013753
-0.014227
-0.015046
-0.015358
-0.015669
-0.015975
-0.016278
-0.016574
-0.016866
-0.017153
-0.017438
-0.017721
-0.018005
-0.018291
-0.018580
-0.018874
-0.019172
-0.019475
-0.019783
-0.020094
-0.020406
-0.020214
-0.019720
-0.019237
-0.018765
-0.018301
-0.017848
-0.017406
-0.016975
-0.016558
-0.016152
-0.015760
-0.015384
-0.015022
-0.014675
-0.014344
-0.014030
-0.013732
-0.013452
-0.013189
-0.012944
-0.012716
-0.012505
-0.012310
-0.012133
-0.011971
-0.011824
-0.011692
-0.011574
-0.011468
-0.011374
-0.011292
-0.011218
-0.011157
-0.011101
-0.011056
-0.011017
-0.010984
-0.010957
-0.010935
-0.010918
-0.010905
-0.010895
-0.010889
-0.010885
-0.010883
-0.010884
-0.010885
-0.010889
-0.010893
-0.010899
-0.010905
-0.010911
-0.010918
-0.010926
-0.010933
-0.010941
-0.010949
-0.010956
-0.010964
-0.010972
-0.010979
-0.010986
-0.010993
-0.011000
-0.011006
-0.011012
-0.011018
-0.011023
-0.011028
-0.011033
-0.011037
-0.011040
-0.011044
-0.011046
-0.011048
-0.011050
-0.011051
-0.011053
-0.011054
-0.011052
-0.011050
-0.011047
-0.011043
-0.011038
-0.011032
-0.011025
-0.011017
-0.011009
-0.011000
-0.010990
-0.010979
-0.010968
-0.010954
-0.010939
-0.010922
-0.010901
-0.010878
-0.010855
-0.010832
-0.010804
-0.010774
-0.010747
-0.010711
-0.010634
-0.010511
-0.010366
-0.010116
-0.009618
-0.008975
-0.008421
-0.003426
-0.003029
-0.002838
-0.002707
-0.002595
-0.002500
-0.002417
-0.002336
-0.002254
-0.002159
-0.002048
-0.001899
-0.001687
-0.001385
-0.000927
-0.004244
-0.004113
-0.005734
-0.005817
-0.005795
-0.005795
-0.005898
-0.005835
-0.005726
-0.005821
-0.005847
-0.005930
-0.005988
-0.005959
-0.006034
-0.006029
-0.006030
-0.006090
-0.006018
-0.006166
-0.006172
-0.006126
-0.006175
-0.006260
-0.006120
-0.006104
-0.006164
-0.006108
-0.006118
-0.006105
-0.006151
-0.006061
-0.006079
-0.006141
-0.006035
-0.006025
-0.006151
-0.006157
-0.006100
-0.006096
-0.006046
-0.006108
-0.005947
-0.006032
-0.005986
-0.006051
-0.006147
-0.006139
-0.006205
-0.006188
-0.006305
-0.006267
-0.006297
-0.006264
-0.006278
-0.006254
-0.006264
-0.006218
-0.006244
-0.006144
-0.006281
-0.006178
-0.006229
-0.006212
-0.006229
-0.006270
-0.006199
-0.006226
-0.006256
-0.006119
-0.006151
-0.006067
-0.006008
-0.006678
-0.005977
-0.005936
-0.005958
-0.005931
-0.005945
-0.005947
-0.005914
-0.005908
-0.005910
-0.005928
-0.005886
-0.005961
-0.005964
-0.005907
-0.005929
-0.005906
-0.005873
-0.005869
-0.005918
-0.005884
-0.005843
-0.005887
-0.005820
-0.005870
-0.005825
-0.005713
-0.005685
-0.005663
-0.005644
-0.005662
-0.005724
-0.005776
-0.005748
-0.005702
-0.005832
-0.005736
-0.005835
-0.005799
-0.005777
-0.005749
-0.005710
-0.005692
-0.005688
-0.005722
-0.005676
-0.005746
-0.005799
-0.005775
-0.005732
-0.005777
-0.005734
-0.005742
-0.005777
-0.005690
-0.005823
-0.005849
-0.005794
-0.005812
-0.005835
-0.005748
-0.005764
-0.005748
-0.005759
-0.005761
-0.005705
-0.005627
-0.005635
-0.005659
-0.005632
-0.005630
-0.005694
-0.005596
-0.005564
-0.005550
-0.005618
-0.005572
-0.005513
-0.005457
-0.005371
-0.005299
-0.005354
-0.005299
-0.005313
-0.005293
-0.005223
-0.005196
-0.005219
-0.005196
-0.005139
-0.005094
-0.005059
-0.005066
-0.005003
-0.004983
-0.004959
-0.005044
-0.005000
-0.005029
-0.004979
-0.004935
-0.004911
-0.004612
-0.004567
-0.004870
-0.004783
-0.004820
-0.004683
-0.005254
-0.005185
-0.005182
-0.005142
-0.005161
-0.005106
-0.004981
-0.005064
-0.005029
-0.005016
-0.004994
-0.005008
-0.005031
-0.005054
-0.005016
-0.004987
-0.005027
-0.005048
-0.005000
-0.005114
-0.005105
-0.005074
-0.005047
-0.005110
-0.004957
-0.005084
-0.004949
-0.004983
-0.005004
-0.005010
-0.004948
-0.005025
-0.005037
-0.004984
-0.005006
-0.004953
-0.004901
-0.004907
-0.004857
-0.004791
-0.004768
-0.004755
-0.004743
-0.004716
-0.004654
-0.004625
-0.004517
-0.004482
-0.004410
-0.004492
-0.004463
-0.004419
-0.004451
-0.004385
-0.004347
-0.004323
-0.004787
-0.004537
-0.004606
-0.004515
-0.004555
-0.004510
-0.004492
-0.004537
-0.004472
-0.004473
-0.004431
-0.004450
-0.004436
-0.004432
-0.004499
-0.004362
-0.004425
-0.004435
-0.004381
-0.004350
-0.004290
-0.004376
-0.004272
-0.004252
-0.004270
-0.004269
-0.004250
-0.004277
-0.004349
-0.004260
-0.004272
-0.004288
-0.004346
-0.004325
-0.004272
-0.004335
-0.004181
-0.003974
-0.004194
-0.004143
-0.004119
-0.004044
-0.004061
-0.004080
-0.004076
-0.004107
-0.004118
-0.004028
-0.004213
-0.004170
-0.004195
-0.004238
-0.004275
-0.004330
-0.004300
-0.004278
-0.004270
-0.004206
-0.004162
-0.004241
-0.004243
-0.004177
-0.004286
-0.004232
-0.004261
-0.004236
-0.004273
-0.004253
-0.004253
-0.004204
-0.004199
-0.004255
-0.004200
-0.004212
-0.004190
-0.004191
-0.004182
-0.004109
-0.004142
-0.004070
-0.004088
-0.004080
-0.004013
-0.004034
-0.003987
-0.003919
-0.003953
-0.003921
-0.004005
-0.003947
-0.003881
-0.003903
-0.003925
-0.003932
-0.003911
-0.003874
-0.003891
-0.003870
-0.003853
-0.003860
-0.003920
-0.003959
-0.003955
-0.003992
-0.003984
-0.003929
-0.003873
-0.003969
-0.003856
-0.003886
-0.003884
-0.003831
-0.003813
-0.003873
-0.003789
-0.003739
-0.003687
-0.003737
-0.003722
-0.003695
-0.003705
-0.003731
-0.003745
-0.003710
-0.003746
-0.003815
-0.003792
-0.003847
-0.003859
-0.003920
-0.003914
-0.003893
-0.003906
-0.003906
-0.003893
-0.003893
-0.003948
-0.003952
-0.003980
-0.004014
-0.003992
-0.003989
-0.003957
-0.003958
-0.004009
-0.004026
-0.003978
-0.004047
-0.003991
-0.004002
-0.003967
-0.004008
-0.003982
-0.003993
-0.004019
-0.004032
-0.004064
-0.004049
-0.004052
-0.004053
-0.004031
-0.004049
-0.004038
-0.004055
-0.004045
-0.004055
-0.004049
-0.004036
-0.004032
-0.004019
-0.004021
-0.004016
-0.004012
-0.004025
-0.004038
-0.004056
-0.004064
-0.004039
-0.004025
-0.004020
-0.004013
-0.004007
-0.004005
-0.003996
-0.003984
-0.003959
-0.003929
-0.003873
-0.003909
-0.003950
-0.003991
-0.004030
-0.004065
-0.004100
-0.004135
-0.004167
-0.004199
-0.004229
-0.004256
-0.004284
-0.004310
-0.004335
-0.004360
-0.004385
-0.004408
-0.004431
-0.004453
-0.004476
-0.004497
-0.004518
-0.004541
-0.004564
-0.004586
-0.004608
-0.004629
-0.004649
-0.004670
-0.004690
-0.004709
-0.004729
-0.004748
-0.004767
-0.004787
-0.004805
-0.004824
-0.004843
-0.004862
-0.004880
-0.004899
-0.004917
-0.004936
-0.004954
-0.004973
-0.004991
-0.005010
-0.005028
-0.005046
-0.005065
-0.005083
-0.005102
-0.005120
-0.005139
-0.005157
-0.005175
-0.005194
-0.005212
-0.005231
-0.005249
-0.005268
-0.005286
-0.005304
-0.005323
-0.005341
-0.005360
-0.005378
-0.005397
-0.005415
-0.005434
-0.005452
-0.005470
-0.005489
-0.005507
-0.005525
-0.005544
-0.005562
-0.005580
-0.005599
-0.005617
-0.005635
-0.005653
-0.005671
-0.005689
-0.005707
-0.005725
-0.005743
-0.005761
-0.005779
-0.005796
-0.005814
-0.005831
-0.005849
-0.005866
-0.005883
-0.005901
-0.005918
-0.005935
-0.005952
-0.005968
-0.005985
-0.006002
-0.006018
-0.006035
-0.006051
-0.006067
-0.006083
-0.006099
-0.006115
-0.006130
-0.006146
-0.006161
-0.006176
-0.006191
-0.006206
-0.006221
-0.006236
-0.006250
-0.006265
-0.006279
-0.006293
-0.006307
-0.006321
-0.006334
-0.006348
-0.006361
-0.006374
-0.006387
-0.006400
-0.006413
-0.006425
-0.006438
-0.006450
-0.006462
-0.006474
-0.006486
-0.006498
-0.006509
-0.006521
-0.006532
-0.007730
-0.007788
-0.007308
-0.005967
-0.006026
-0.005992
-0.008253
-0.008227
-0.008149
-0.007962
-0.008236
-0.007074
-0.007434
-0.007035
-0.007056
-0.007027
-0.007064
-0.005847
-0.005869
-0.005804
-0.009670
-0.009653
-0.009546
-0.009493
-0.005905
-0.008899
-0.008860
-0.009007
-0.006188
-0.006167
-0.006142
-0.008890
-0.008129
-0.007976
-0.008099
-0.006129
-0.009524
-0.009485
-0.009656
-0.009287
-0.007670
-0.007756
-0.007798
-0.005741
-0.005789
-0.005739
-0.010018
-0.010045
-0.009996
-0.005906
-0.005858
-0.005879
-0.009952
-0.009919
-0.009969
-0.005853
-0.010040
-0.010022
-0.010070
-0.008905
-0.008801
-0.008796
-0.006418
-0.006484
-0.006468
-0.006541
-0.010230
-0.010279
-0.010218
-0.010276
-0.008877
-0.010074
-0.010056
-0.009999
-0.009996
-0.007837
-0.010026
-0.009999
-0.010054
-0.007171
-0.007082
-0.007104
-0.006289
-0.006351
-0.006266
-0.006264
-0.007137
-0.009688
-0.009672
-0.009380
-0.010029
-0.010020
-0.010059
-0.010058
-0.006913
-0.006992
-0.006935
-0.006993
-0.009214
-0.009243
-0.009209
-0.006112
-0.006154
-0.006162
-0.006203
-0.008857
-0.008770
-0.008880
-0.008690
-0.006158
-0.013864
-0.014186
-0.013929
-0.006547
-0.014029
-0.007207
-0.007232
-0.007179
-0.008821
-0.008875
-0.008856
-0.009808
-0.009821
-0.009843
-0.006118
-0.006070
-0.007261
-0.009278
-0.009241
-0.005692
-0.008730
-0.007809
-0.008419
-0.005958
-0.009802
-0.009797
-0.009770
-0.007936
-0.007836
-0.007838
-0.007968
-0.009771
-0.009790
-0.009809
-0.012480
-0.012212
-0.012409
-0.012292
-0.012703
-0.012439
-0.012436
-0.011244
-0.011111
-0.011000
-0.012670
-0.009229
-0.008847
-0.008536
-0.007702
-0.009036
-0.009089
-0.009233
-0.008965
-0.006701
-0.006621
-0.006674
-0.006636
-0.007904
-0.007925
-0.007899
-0.005313
-0.005291
-0.005097
-0.010014
-0.009988
-0.010025
-0.010004
-0.005730
-0.005792
-0.005817
-0.005451
-0.013445
-0.013444
-0.013691
-0.013163
-0.007172
-0.007136
-0.007156
-0.007110
-0.008649
-0.008678
-0.008669
-0.007499
-0.007638
-0.007504
-0.008698
-0.012637
-0.012390
-0.012586
-0.008450
-0.007815
-0.006885
-0.006935
-0.006960
-0.006691
-0.006730
-0.006787
-0.010539
-0.010554
-0.010518
-0.012326
-0.008903
-0.008866
-0.008896
-0.008848
-0.009549
-0.009482
-0.009517
-0.009512
-0.010265
-0.010246
-0.010228
-0.010212
-0.010255
-0.010221
-0.010289
-0.010192
-0.008714
-0.008722
-0.008762
-0.008738
-0.008752
-0.008646
-0.010967
-0.010852
-0.010774
-0.010976
-0.006371
-0.006427
-0.006369
-0.010336
-0.010305
-0.010303
-0.010278
-0.009856
-0.009808
-0.009917
-0.009832
-0.008767
-0.009601
-0.009586
-0.009627
-0.010320
-0.010355
-0.010303
-0.010357
-0.009785
-0.009823
-0.009901
-0.009663
-0.009447
-0.009460
-0.009488
-0.008688
-0.008632
-0.008678
-0.009421
-0.009314
-0.009261
-0.009343
-0.006859
-0.008462
-0.008594
-0.008561
-0.009563
-0.010075
-0.010092
-0.010132
-0.010030
-0.009653
-0.009617
-0.009662
-0.009562
-0.009722
-0.009575
-0.009783
-0.007319
-0.007342
-0.007324
-0.009239
-0.009243
-0.009208
-0.008585
-0.008509
-0.008491
-0.008568
-0.006829
-0.006881
-0.006820
-0.006864
-0.008230
-0.008191
-0.008174
-0.010496
-0.010492
-0.010442
-0.010438
-0.006441
-0.006422
-0.006467
-0.012782
-0.012736
-0.012565
-0.006428
-0.012795
-0.012989
-0.012671
-0.013067
-0.010681
-0.010667
-0.010648
-0.010628
-0.010047
-0.010031
-0.009965
-0.010001
-0.008111
-0.008062
-0.008052
-0.008507
-0.008533
-0.008570
-0.008595
-0.005978
-0.005943
-0.005940
-0.009502
-0.009469
-0.009481
-0.007255
-0.007355
-0.007252
-0.007349
-0.010710
-0.010704
-0.010685
-0.010672
-0.007702
-0.007743
-0.007684
-0.007761
-0.010382
-0.010197
-0.010280
-0.010135
-0.007525
-0.007606
-0.007526
-0.007628
-0.007019
-0.007004
-0.007079
-0.006959
-0.009114
-0.009073
-0.009154
-0.009039
-0.009712
-0.009594
-0.009644
-0.007341
-0.011040
-0.010889
-0.011101
-0.010865
-0.011421
-0.011225
-0.011192
-0.011452
-0.015580
-0.015938
-0.015430
-0.007974
-0.008055
-0.007918
-0.009163
-0.009169
-0.009138
-0.010499
-0.010482
-0.010469
-0.007921
-0.008955
-0.009022
-0.009094
-0.008914
-0.007565
-0.007473
-0.007578
-0.007451
-0.010617
-0.010551
-0.010587
-0.010529
-0.009140
-0.008446
-0.008465
-0.008480
-0.010296
-0.010432
-0.010230
-0.007276
-0.007148
-0.007201
-0.010092
-0.010162
-0.010054
-0.008522
-0.008402
-0.008465
-0.010196
-0.005729
-0.005797
-0.005773
-0.006270
-0.006223
-0.006237
-0.009846
-0.009919
-0.009806
-0.009922
-0.009417
-0.009323
-0.009273
-0.008689
-0.008746
-0.008640
-0.009432
-0.007760
-0.007671
-0.007666
-0.008717
-0.008551
-0.009348
-0.009297
-0.009352
-0.007931
-0.007919
-0.007841
-0.009338
-0.009336
-0.009374
-0.009298
-0.007997
-0.007970
-0.007991
-0.007346
-0.007438
-0.007368
-0.007351
-0.008057
-0.008035
-0.009881
-0.009865
-0.009741
-0.006403
-0.006404
-0.006464
-0.010140
-0.010087
-0.009970
-0.008425
-0.008465
-0.008538
-0.008640
-0.008023
-0.007997
-0.008103
-0.007947
-0.009417
-0.009413
-0.009461
-0.009453
-0.006463
-0.006471
-0.006533
-0.006753
-0.006708
-0.006777
-0.006713
-0.007036
-0.006980
-0.007074
-0.006532
-0.008091
-0.008139
-0.008134
-0.007987
-0.008013
-0.007996
-0.007995
-0.008045
-0.008042
-0.008081
-0.008004
-0.009617
-0.009631
-0.009650
-0.009157
-0.009127
-0.009138
-0.009384
-0.009371
-0.009232
-0.008913
-0.008984
-0.008985
-0.009058
-0.007983
-0.007936
-0.007805
-0.009108
-0.009547
-0.009566
-0.009543
-0.009800
-0.009825
-0.009806
-0.009835
-0.009564
-0.008455
-0.008482
-0.008433
-0.008516
-0.006796
-0.006704
-0.006744
-0.010903
-0.010932
-0.010920
-0.010928
-0.008269
-0.008257
-0.008304
-0.008220
-0.010061
-0.010033
-0.010076
-0.010179
-0.010095
-0.010167
-0.006682
-0.007374
-0.006548
-0.010033
-0.010809
-0.010782
-0.010805
-0.009798
-0.009770
-0.010767
-0.010697
-0.010652
-0.007250
-0.010306
-0.010375
-0.010223
-0.010565
-0.010548
-0.007913
-0.007806
-0.007822
-0.010422
-0.010280
-0.010279
-0.010315
-0.011310
-0.011157
-0.011385
-0.011175
-0.006466
-0.006477
-0.006426
-0.009905
-0.009915
-0.009940
-0.009965
-0.010677
-0.010677
-0.010577
-0.006527
-0.010470
-0.010504
-0.010399
-0.009078
-0.009062
-0.008951
-0.009408
-0.009377
-0.010346
-0.010313
-0.010283
-0.008035
-0.008010
-0.008035
-0.008432
-0.008381
-0.008409
-0.010683
-0.010566
-0.010688
-0.008011
-0.006265
-0.006298
-0.006218
-0.009558
-0.009558
-0.009430
-0.009670
-0.010617
-0.010567
-0.010739
-0.010496
-0.010407
-0.007661
-0.007705
-0.007592
-0.008343
-0.008313
-0.008324
-0.008293
-0.006262
-0.006321
-0.006254
-0.008173
-0.008137
-0.008025
-0.006328
-0.006344
-0.006313
-0.006319
-0.006285
-0.006367
-0.006982
-0.007011
-0.007014
-0.009984
-0.009960
-0.009999
-0.009048
-0.009449
-0.008616
-0.009766
-0.009962
-0.009571
-0.009605
-0.009511
-0.009237
-0.009200
-0.009187
-0.009156
-0.010352
-0.010386
-0.010362
-0.010404
-0.010487
-0.010513
-0.010500
-0.007248
-0.007243
-0.007328
-0.008544
-0.008346
-0.008346
-0.006132
-0.006127
-0.006061
-0.009917
-0.009854
-0.009924
-0.010028
-0.006036
-0.006144
-0.006204
-0.010510
-0.007044
-0.008264
-0.008263
-0.008284
-0.009244
-0.009288
-0.009332
-0.009347
-0.009562
-0.009568
-0.009486
-0.008289
-0.006329
-0.006275
-0.006318
-0.008818
-0.008796
-0.008836
-0.008832
-0.009471
-0.009709
-0.009491
-0.010043
-0.009968
-0.009956
-0.009077
-0.009120
-0.009121
-0.008853
-0.008838
-0.008798
-0.008893
-0.010267
-0.010299
-0.010304
-0.010327
-0.006186
-0.006161
-0.006207
-0.009378
-0.009309
-0.009420
-0.006874
-0.006842
-0.006875
-0.008576
-0.008548
-0.008540
-0.008506
-0.006847
-0.008847
-0.008881
-0.008890
-0.008930
-0.013415
-0.013177
-0.013715
-0.006499
-0.006429
-0.006426
-0.010127
-0.010135
-0.010164
-0.010102
-0.007208
-0.007180
-0.007194
-0.006494
-0.010194
-0.010222
-0.010194
-0.009681
-0.009739
-0.009697
-0.009702
-0.010433
-0.010365
-0.010154
-0.007164
-0.006957
-0.006997
-0.006970
-0.008226
-0.008276
-0.008317
-0.009583
-0.009568
-0.009602
-0.009585
-0.007004
-0.006498
-0.006473
-0.006464
-0.009749
-0.009826
-0.009787
-0.009876
-0.008180
-0.010698
-0.010727
-0.010673
-0.010763
-0.009039
-0.009056
-0.009026
-0.009070
-0.009031
-0.008997
-0.008997
-0.009483
-0.009415
-0.009404
-0.009523
-0.008352
-0.008417
-0.008408
-0.008485
-0.008156
-0.008095
-0.009918
-0.009891
-0.009922
-0.007693
-0.007716
-0.007742
-0.007661
-0.007778
-0.007789
-0.009964
-0.009413
-0.009347
-0.009888
-0.006516
-0.008270
-0.008341
-0.008299
-0.005971
-0.005834
-0.006243
-0.008191
-0.010209
-0.010243
-0.010251
-0.005417
-0.010274
-0.008159
-0.008074
-0.008075
-0.008250
-0.008186
-0.008315
-0.009941
-0.009910
-0.009935
-0.009452
-0.009397
-0.009419
-0.008946
-0.009056
-0.008952
-0.008191
-0.008140
-0.008190
-0.006358
-0.006302
-0.006291
-0.009046
-0.009651
-0.009675
-0.009680
-0.009706
-0.008012
-0.008113
-0.008210
-0.008107
-0.008531
-0.008491
-0.008500
-0.010671
-0.010560
-0.010616
-0.010470
-0.010560
-0.010719
-0.010777
-0.007919
-0.007893
-0.007860
-0.007836
-0.009012
-0.009040
-0.009032
-0.007937
-0.007866
-0.007886
-0.011012
-0.008528
-0.008490
-0.008538
-0.008473
-0.010183
-0.010144
-0.010163
-0.007822
-0.010515
-0.010485
-0.010467
-0.008453
-0.006132
-0.008569
-0.008576
-0.008034
-0.008969
-0.009326
-0.009328
-0.009359
-0.009370
-0.010171
-0.010219
-0.010162
-0.010223
-0.010501
-0.010544
-0.010686
-0.010338
-0.010702
-0.010566
-0.010668
-0.008754
-0.008742
-0.008709
-0.008705
-0.006195
-0.007566
-0.007591
-0.007557
-0.007588
-0.010025
-0.010077
-0.010038
-0.006039
-0.005982
-0.005996
-0.007548
-0.007648
-0.007517
-0.008667
-0.008792
-0.008760
-0.009554
-0.009498
-0.009498
-0.008921
-0.009182
-0.009178
-0.007556
-0.007215
-0.008691
-0.008742
-0.008722
-0.010105
-0.010063
-0.010084
-0.009155
-0.009149
-0.006041
-0.007137
-0.006723
-0.008465
-0.008521
-0.008447
-0.010861
-0.011015
-0.011063
-0.011230
-0.006702
-0.006638
-0.006587
-0.009575
-0.009525
-0.009525
-0.008900
-0.008928
-0.008904
-0.010042
-0.010001
-0.010061
-0.008142
-0.008153
-0.008010
-0.015221
-0.014998
-0.014738
-0.010620
-0.010480
-0.010356
-0.010327
-0.010336
-0.010308
-0.008858
-0.008882
-0.008859
-0.014647
-0.008878
-0.008928
-0.009984
-0.010050
-0.010445
-0.010463
-0.010295
-0.010087
-0.008907
-0.008103
-0.007691
-0.007674
-0.007737
-0.007716
-0.009639
-0.009658
-0.009671
-0.009999
-0.009960
-0.009979
-0.006292
-0.006254
-0.006250
-0.011594
-0.011744
-0.011949
-0.008828
-0.008874
-0.008825
-0.009655
-0.009633
-0.009624
-0.009789
-0.009752
-0.009728
-0.009714
-0.008358
-0.008403
-0.007583
-0.007601
-0.007646
-0.008288
-0.008318
-0.008329
-0.008369
-0.007768
-0.007798
-0.007807
-0.009338
-0.008980
-0.009622
-0.010155
-0.010118
-0.010085
-0.011424
-0.008852
-0.008848
-0.008969
-0.007661
-0.007612
-0.007625
-0.008809
-0.008616
-0.008756
-0.008531
-0.010294
-0.010258
-0.010284
-0.009896
-0.009855
-0.009875
-0.009217
-0.009238
-0.009245
-0.009267
-0.014198
-0.013738
-0.014062
-0.009578
-0.009485
-0.009448
-0.009354
-0.010129
-0.010182
-0.013591
-0.008938
-0.008968
-0.008934
-0.007757
-0.014591
-0.014253
-0.009769
-0.007315
-0.007263
-0.007231
-0.012980
-0.012962
-0.009007
-0.009023
-0.009044
-0.009059
-0.010214
-0.010180
-0.010198
-0.007858
-0.007907
-0.007870
-0.008361
-0.008414
-0.010039
-0.010020
-0.010048
-0.008781
-0.008790
-0.008813
-0.007162
-0.008835
-0.008771
-0.008745
-0.009578
-0.009524
-0.008730
-0.008348
-0.008395
-0.008404
-0.008442
-0.012332
-0.012423
-0.010074
-0.010048
-0.010040
-0.009845
-0.009882
-0.009865
-0.009409
-0.009383
-0.009360
-0.009467
-0.012173
-0.009544
-0.009490
-0.010250
-0.010226
-0.010229
-0.010201
-0.009810
-0.009769
-0.009788
-0.009891
-0.009784