# vtk DataFile Version 2.0
Test
ASCII
DATASET POLYDATA
POINTS 26238 float
0.000000 0.000000 0.000000
2.000000 0.000000 0.000000
2.000000 4.000000 0.000000
0.000000 4.000000 0.000000
0.000000 0.500000 0.000000
1.500000 2.000000 0.000000
2.000000 2.500000 0.000000
0.100000 0.000000 0.000000
0.200000 0.000000 0.000000
0.300000 0.000000 0.000000
0.400000 0.000000 0.000000
0.500000 0.000000 0.000000
0.600000 0.000000 0.000000
0.700000 0.000000 0.000000
0.800000 0.000000 0.000000
0.900000 0.000000 0.000000
1.000000 0.000000 0.000000
1.100000 0.000000 0.000000
1.200000 0.000000 0.000000
1.300000 0.000000 0.000000
1.400000 0.000000 0.000000
1.500000 0.000000 0.000000
1.600000 0.000000 0.000000
1.700000 0.000000 0.000000
1.800000 0.000000 0.000000
1.900000 0.000000 0.000000
2.000000 0.097923 0.000000
2.000000 0.192202 0.000000
2.000000 0.282973 0.000000
2.000000 0.370366 0.000000
2.000000 0.454507 0.000000
2.000000 0.535518 0.000000
2.000000 0.613513 0.000000
2.000000 0.688607 0.000000
2.000000 0.760906 0.000000
2.000000 0.830515 0.000000
2.000000 0.897534 0.000000
2.000000 0.962059 0.000000
2.000000 1.024183 0.000000
2.000000 1.083995 0.000000
2.000000 1.141582 0.000000
2.000000 1.197026 0.000000
2.000000 1.250406 0.000000
2.000000 1.301801 0.000000
2.000000 1.351283 0.000000
2.000000 1.398923 0.000000
2.000000 1.444791 0.000000
2.000000 1.488953 0.000000
2.000000 1.531470 0.000000
2.000000 1.572406 0.000000
2.000000 1.611819 0.000000
2.000000 1.649765 0.000000
2.000000 1.686299 0.000000
2.000000 1.721473 0.000000
2.000000 1.755339 0.000000
2.000000 1.787944 0.000000
2.000000 1.819337 0.000000
2.000000 1.849561 0.000000
2.000000 1.878660 0.000000
2.000000 1.906677 0.000000
2.000000 1.933651 0.000000
2.000000 1.959621 0.000000
2.000000 1.984625 0.000000
2.000000 2.008699 0.000000
2.000000 2.031877 0.000000
2.000000 2.054192 0.000000
2.000000 2.075677 0.000000
2.000000 2.096362 0.000000
2.000000 2.116278 0.000000
2.000000 2.135453 0.000000
2.000000 2.153914 0.000000
2.000000 2.171688 0.000000
2.000000 2.188801 0.000000
2.000000 2.205277 0.000000
2.000000 2.221140 0.000000
2.000000 2.236413 0.000000
2.000000 2.251117 0.000000
2.000000 2.265274 0.000000
2.000000 2.278905 0.000000
2.000000 2.292028 0.000000
2.000000 2.304663 0.000000
2.000000 2.316828 0.000000
2.000000 2.328540 0.000000
2.000000 2.339816 0.000000
2.000000 2.350673 0.000000
2.000000 2.361126 0.000000
2.000000 2.371189 0.000000
2.000000 2.380879 0.000000
2.000000 2.390207 0.000000
2.000000 2.399189 0.000000
2.000000 2.407836 0.000000
2.000000 2.416162 0.000000
2.000000 2.424178 0.000000
2.000000 2.431895 0.000000
2.000000 2.439326 0.000000
2.000000 2.446480 0.000000
2.000000 2.453367 0.000000
2.000000 2.459999 0.000000
2.000000 2.466383 0.000000
2.000000 2.472530 0.000000
2.000000 2.478449 0.000000
2.000000 2.484147 0.000000
2.000000 2.489633 0.000000
2.000000 2.494915 0.000000
2.000000 2.505084 0.000000
2.000000 2.510496 0.000000
2.000000 2.516256 0.000000
2.000000 2.522387 0.000000
2.000000 2.528913 0.000000
2.000000 2.535859 0.000000
2.000000 2.543253 0.000000
2.000000 2.551122 0.000000
2.000000 2.559499 0.000000
2.000000 2.568415 0.000000
2.000000 2.577905 0.000000
2.000000 2.588006 0.000000
2.000000 2.598758 0.000000
2.000000 2.610202 0.000000
2.000000 2.622383 0.000000
2.000000 2.635349 0.000000
2.000000 2.649149 0.000000
2.000000 2.663839 0.000000
2.000000 2.679474 0.000000
2.000000 2.696116 0.000000
2.000000 2.713831 0.000000
2.000000 2.732685 0.000000
2.000000 2.752754 0.000000
2.000000 2.774116 0.000000
2.000000 2.796853 0.000000
2.000000 2.821055 0.000000
2.000000 2.846815 0.000000
2.000000 2.874234 0.000000
2.000000 2.903419 0.000000
2.000000 2.934483 0.000000
2.000000 2.967548 0.000000
2.000000 3.002742 0.000000
2.000000 3.040202 0.000000
2.000000 3.080076 0.000000
2.000000 3.122517 0.000000
2.000000 3.167691 0.000000
2.000000 3.215774 0.000000
2.000000 3.266954 0.000000
2.000000 3.321430 0.000000
2.000000 3.379414 0.000000
2.000000 3.441132 0.000000
2.000000 3.506825 0.000000
2.000000 3.576749 0.000000
2.000000 3.651175 0.000000
2.000000 3.730395 0.000000
2.000000 3.814717 0.000000
2.000000 3.904468 0.000000
1.900000 4.000000 0.000000
1.800000 4.000000 0.000000
1.700000 4.000000 0.000000
1.600000 4.000000 0.000000
1.500000 4.000000 0.000000
1.400000 4.000000 0.000000
1.300000 4.000000 0.000000
1.200000 4.000000 0.000000
1.100000 4.000000 0.000000
1.000000 4.000000 0.000000
0.900000 4.000000 0.000000
0.800000 4.000000 0.000000
0.700000 4.000000 0.000000
0.600000 4.000000 0.000000
0.500000 4.000000 0.000000
0.400000 4.000000 0.000000
0.300000 4.000000 0.000000
0.200000 4.000000 0.000000
0.100000 4.000000 0.000000
0.000000 3.901898 0.000000
0.000000 3.806409 0.000000
0.000000 3.713462 0.000000
0.000000 3.622990 0.000000
0.000000 3.534927 0.000000
0.000000 3.449209 0.000000
0.000000 3.365773 0.000000
0.000000 3.284559 0.000000
0.000000 3.205508 0.000000
0.000000 3.128561 0.000000
0.000000 3.053664 0.000000
0.000000 2.980761 0.000000
0.000000 2.909799 0.000000
0.000000 2.840727 0.000000
0.000000 2.773493 0.000000
0.000000 2.708051 0.000000
0.000000 2.644350 0.000000
0.000000 2.582346 0.000000
0.000000 2.521993 0.000000
0.000000 2.463247 0.000000
0.000000 2.406065 0.000000
0.000000 2.350406 0.000000
0.000000 2.296229 0.000000
0.000000 2.243495 0.000000
0.000000 2.192165 0.000000
0.000000 2.142201 0.000000
0.000000 2.093568 0.000000
0.000000 2.046230 0.000000
0.000000 2.000153 0.000000
0.000000 1.955302 0.000000
0.000000 1.911646 0.000000
0.000000 1.869152 0.000000
0.000000 1.827789 0.000000
0.000000 1.787528 0.000000
0.000000 1.748339 0.000000
0.000000 1.710194 0.000000
0.000000 1.673064 0.000000
0.000000 1.636923 0.000000
0.000000 1.601745 0.000000
0.000000 1.567503 0.000000
0.000000 1.534172 0.000000
0.000000 1.501730 0.000000
0.000000 1.470151 0.000000
0.000000 1.439413 0.000000
0.000000 1.409494 0.000000
0.000000 1.380371 0.000000
0.000000 1.352024 0.000000
0.000000 1.324431 0.000000
0.000000 1.297573 0.000000
0.000000 1.271431 0.000000
0.000000 1.245984 0.000000
0.000000 1.221215 0.000000
0.000000 1.197106 0.000000
0.000000 1.173639 0.000000
0.000000 1.150796 0.000000
0.000000 1.128562 0.000000
0.000000 1.106920 0.000000
0.000000 1.085854 0.000000
0.000000 1.065349 0.000000
0.000000 1.045390 0.000000
0.000000 1.025962 0.000000
0.000000 1.007052 0.000000
0.000000 0.988645 0.000000
0.000000 0.970729 0.000000
0.000000 0.953289 0.000000
0.000000 0.936314 0.000000
0.000000 0.919791 0.000000
0.000000 0.903708 0.000000
0.000000 0.888053 0.000000
0.000000 0.872815 0.000000
0.000000 0.857983 0.000000
0.000000 0.843545 0.000000
0.000000 0.829492 0.000000
0.000000 0.815814 0.000000
0.000000 0.802499 0.000000
0.000000 0.789539 0.000000
0.000000 0.776925 0.000000
0.000000 0.764646 0.000000
0.000000 0.752694 0.000000
0.000000 0.741060 0.000000
0.000000 0.729736 0.000000
0.000000 0.718714 0.000000
0.000000 0.707985 0.000000
0.000000 0.697541 0.000000
0.000000 0.687376 0.000000
0.000000 0.677482 0.000000
0.000000 0.667851 0.000000
0.000000 0.658476 0.000000
0.000000 0.649351 0.000000
0.000000 0.640469 0.000000
0.000000 0.631824 0.000000
0.000000 0.623409 0.000000
0.000000 0.615217 0.000000
0.000000 0.607244 0.000000
0.000000 0.599484 0.000000
0.000000 0.591929 0.000000
0.000000 0.584577 0.000000
0.000000 0.577419 0.000000
0.000000 0.570453 0.000000
0.000000 0.563672 0.000000
0.000000 0.557071 0.000000
0.000000 0.550646 0.000000
0.000000 0.544393 0.000000
0.000000 0.538306 0.000000
0.000000 0.532380 0.000000
0.000000 0.526613 0.000000
0.000000 0.520999 0.000000
0.000000 0.515535 0.000000
0.000000 0.510216 0.000000
0.000000 0.505039 0.000000
0.000000 0.494581 0.000000
0.000000 0.488047 0.000000
0.000000 0.480167 0.000000
0.000000 0.470665 0.000000
0.000000 0.459206 0.000000
0.000000 0.445387 0.000000
0.000000 0.428723 0.000000
0.000000 0.408628 0.000000
0.000000 0.384395 0.000000
0.000000 0.355172 0.000000
0.000000 0.319933 0.000000
0.000000 0.277436 0.000000
0.000000 0.226190 0.000000
0.000000 0.164392 0.000000
0.000000 0.089868 0.000000
0.003529 0.503529 0.000000
0.007059 0.507059 0.000000
0.010588 0.510588 0.000000
0.014118 0.514118 0.000000
0.017647 0.517647 0.000000
0.021176 0.521176 0.000000
0.024706 0.524706 0.000000
0.028235 0.528235 0.000000
0.031765 0.531765 0.000000
0.035294 0.535294 0.000000
0.038824 0.538824 0.000000
0.042353 0.542353 0.000000
0.045882 0.545882 0.000000
0.049412 0.549412 0.000000
0.052941 0.552941 0.000000
0.056471 0.556471 0.000000
0.060000 0.560000 0.000000
0.063529 0.563529 0.000000
0.067059 0.567059 0.000000
0.070588 0.570588 0.000000
0.074118 0.574118 0.000000
0.077647 0.577647 0.000000
0.081176 0.581176 0.000000
0.084706 0.584706 0.000000
0.088235 0.588235 0.000000
0.091765 0.591765 0.000000
0.095294 0.595294 0.000000
0.098824 0.598824 0.000000
0.102353 0.602353 0.000000
0.105882 0.605882 0.000000
0.109412 0.609412 0.000000
0.112941 0.612941 0.000000
0.116471 0.616471 0.000000
0.120000 0.620000 0.000000
0.123529 0.623529 0.000000
0.127059 0.627059 0.000000
0.130588 0.630588 0.000000
0.134118 0.634118 0.000000
0.137647 0.637647 0.000000
0.141176 0.641176 0.000000
0.144706 0.644706 0.000000
0.148235 0.648235 0.000000
0.151765 0.651765 0.000000
0.155294 0.655294 0.000000
0.158824 0.658824 0.000000
0.162353 0.662353 0.000000
0.165882 0.665882 0.000000
0.169412 0.669412 0.000000
0.172941 0.672941 0.000000
0.176471 0.676471 0.000000
0.180000 0.680000 0.000000
0.183529 0.683529 0.000000
0.187059 0.687059 0.000000
0.190588 0.690588 0.000000
0.194118 0.694118 0.000000
0.197647 0.697647 0.000000
0.201176 0.701176 0.000000
0.204706 0.704706 0.000000
0.208235 0.708235 0.000000
0.211765 0.711765 0.000000
0.215294 0.715294 0.000000
0.218824 0.718824 0.000000
0.222353 0.722353 0.000000
0.225882 0.725882 0.000000
0.229412 0.729412 0.000000
0.232941 0.732941 0.000000
0.236471 0.736471 0.000000
0.240000 0.740000 0.000000
0.243529 0.743529 0.000000
0.247059 0.747059 0.000000
0.250588 0.750588 0.000000
0.254118 0.754118 0.000000
[...]
POINT_DATA 26238
SCALARS UX float 1
LOOKUP_TABLE default
-0.000000
0.000000
-0.013808
-0.019418
-0.003263
-0.003656
-0.006138
-0.000000
-0.000000
-0.000000
-0.000000
-0.000000
-0.000000
-0.000000
-0.000000
-0.000000
-0.000000
0.000000
0.000000
0.000000
0.000000
0.000000
0.000000
0.000000
0.000000
0.000000
0.000913
0.001435
0.001803
0.002062
0.002254
0.002395
0.002491
0.002555
0.002594
0.002611
0.002611
0.002597
0.002568
0.002527
0.002476
0.002414
0.002345
0.002265
0.002176
0.002079
0.001972
0.001854
0.001726
0.001587
0.001436
0.001273
0.001096
0.000907
0.000706
0.000492
0.000267
0.000032
-0.000209
-0.000460
-0.000712
-0.000968
-0.001222
-0.001475
-0.001723
-0.001965
-0.002201
-0.002428
-0.002646
-0.002856
-0.003057
-0.003247
-0.003428
-0.003600
-0.003763
-0.003917
-0.004064
-0.004202
-0.004332
-0.004456
-0.004573
-0.004684
-0.004789
-0.004888
-0.004982
-0.005071
-0.005156
-0.005236
-0.005312
-0.005385
-0.005454
-0.005519
-0.005582
-0.005641
-0.005698
-0.005752
-0.005803
-0.005852
-0.005899
-0.005943
-0.005986
-0.006027
-0.006066
-0.006103
-0.006174
-0.006211
-0.006251
-0.006293
-0.006337
-0.006383
-0.006432
-0.006484
-0.006539
-0.006596
-0.006657
-0.006721
-0.006788
-0.006859
-0.006933
-0.007012
-0.007094
-0.007181
-0.007271
-0.007367
-0.007467
-0.007572
-0.007682
-0.007798
-0.007920
-0.008048
-0.008183
-0.008324
-0.008472
-0.008629
-0.008795
-0.008968
-0.009152
-0.009346
-0.009551
-0.009768
-0.009999
-0.010243
-0.010503
-0.010780
-0.011075
-0.011391
-0.011728
-0.012088
-0.012475
-0.012889
-0.013333
-0.014100
-0.014393
-0.014684
-0.014972
-0.015255
-0.015533
-0.015806
-0.016076
-0.016343
-0.016608
-0.016874
-0.017143
-0.017413
-0.017689
-0.017968
-0.018253
-0.018541
-0.018832
-0.019125
-0.018946
-0.018484
-0.018031
-0.017589
-0.017155
-0.016731
-0.016317
-0.015914
-0.015523
-0.015143
-0.014776
-0.014423
-0.014084
-0.013760
-0.013450
-0.013156
-0.012877
-0.012615
-0.012369
-0.012139
-0.011926
-0.011728
-0.011546
-0.011380
-0.011228
-0.011090
-0.010966
-0.010855
-0.010756
-0.010667
-0.010590
-0.010520
-0.010462
-0.010409
-0.010365
-0.010328
-0.010296
-0.010270
-0.010249
-0.010232
-0.010218
-0.010208
-0.010201
-0.010196
-0.010195
-0.010194
-0.010195
-0.010198
-0.010202
-0.010207
-0.010213
-0.010220
-0.010227
-0.010234
-0.010242
-0.010250
-0.010258
-0.010267
-0.010275
-0.010283
-0.010292
-0.010300
-0.010308
-0.010316
-0.010323
-0.010330
-0.010337
-0.010344
-0.010350
-0.010355
-0.010360
-0.010365
-0.010369
-0.010372
-0.010375
-0.010377
-0.010379
-0.010381
-0.010382
-0.010381
-0.010378
-0.010375
-0.010370
-0.010365
-0.010358
-0.010351
-0.010342
-0.010333
-0.010323
-0.010312
-0.010301
-0.010289
-0.010276
-0.010262
-0.010246
-0.010227
-0.010205
-0.010184
-0.010166
-0.010144
-0.010110
-0.010070
-0.010015
-0.009938
-0.009845
-0.009737
-0.009389
-0.008928
-0.007944
-0.007881
-0.003091
-0.002980
-0.002737
-0.002574
-0.002452
-0.002355
-0.002272
-0.002194
-0.002114
-0.002024
-0.001919
-0.001779
-0.001580
-0.001297
-0.000869
-0.003691
-0.005287
-0.005082
-0.005035
-0.005064
-0.005054
-0.005168
-0.005166
-0.005134
-0.005122
-0.005326
-0.005227
-0.005171
-0.005313
-0.005316
-0.005226
-0.005327
-0.005374
-0.005290
-0.005352
-0.005362
-0.005426
-0.005341
-0.005356
-0.005353
-0.005293
-0.005326
-0.005326
-0.005358
-0.005350
-0.005342
-0.005309
-0.005295
-0.005336
-0.005350
-0.005420
-0.005450
-0.005484
-0.005492
-0.005273
-0.005399
-0.005343
-0.005269
-0.005821
-0.005847
-0.005827
-0.005906
-0.005917
-0.005924
-0.005923
-0.005989
-0.006038
-0.006015
-0.006021
-0.006024
-0.006018
-0.005961
-0.005894
-0.005907
-0.005850
-0.005791
-0.005935
-0.005829
-0.005864
-0.005887
-0.005887
-0.005907
-0.005925
-0.005884
-0.005925
-0.005813
-0.005778
-0.005703
-0.005473
-0.005785
-0.005786
-0.005758
-0.005858
-0.005828
-0.005802
-0.005766
-0.005775
-0.005752
-0.005723
-0.005739
-0.005786
-0.005765
-0.005787
-0.005786
-0.005745
-0.005768
-0.005759
-0.005743
-0.005695
-0.005645
-0.005663
-0.005741
-0.005674
-0.005682
-0.005647
-0.005598
-0.005613
-0.005642
-0.005634
-0.005591
-0.005547
-0.005595
-0.005619
-0.005468
-0.005501
-0.005589
-0.005486
-0.005438
-0.005468
-0.005448
-0.005463
-0.005407
-0.005466
-0.005426
-0.005419
-0.005445
-0.005346
-0.005368
-0.005367
-0.005361
-0.005426
-0.005426
-0.005340
-0.005480
-0.005440
-0.005417
-0.005433
-0.005494
-0.005430
-0.005364
-0.005386
-0.005421
-0.005428
-0.005381
-0.005309
-0.005266
-0.005316
-0.005320
-0.005288
-0.005329
-0.005236
-0.005204
-0.005210
-0.005318
-0.005214
-0.005160
-0.005108
-0.005073
-0.005031
-0.005028
-0.004962
-0.004973
-0.004983
-0.004911
-0.004897
-0.005065
-0.004949
-0.004953
-0.004923
-0.004866
-0.004875
-0.004830
-0.004806
-0.004764
-0.004794
-0.004707
-0.004664
-0.004686
-0.004651
-0.004655
-0.004562
-0.004538
-0.004646
-0.004540
-0.004583
-0.004591
-0.004548
-0.004545
-0.004564
-0.004548
-0.004495
-0.004531
-0.004556
-0.004490
-0.004471
-0.004476
-0.004484
-0.004499
-0.004482
-0.004503
-0.004482
-0.004474
-0.004548
-0.004541
-0.004612
-0.004666
-0.004614
-0.004637
-0.004671
-0.004564
-0.004659
-0.004566
-0.004611
-0.004549
-0.004589
-0.004524
-0.004532
-0.004539
-0.004501
-0.004525
-0.004495
-0.004455
-0.004472
-0.004422
-0.004418
-0.004431
-0.004391
-0.004393
-0.004317
-0.004307
-0.004267
-0.004281
-0.004227
-0.004231
-0.004193
-0.004342
-0.004353
-0.004417
-0.004387
-0.004415
-0.004400
-0.004394
-0.004391
-0.004368
-0.004350
-0.004400
-0.004389
-0.004406
-0.004337
-0.004339
-0.004303
-0.004321
-0.004290
-0.004299
-0.004281
-0.004271
-0.004335
-0.004286
-0.004299
-0.004280
-0.004289
-0.004278
-0.004308
-0.004223
-0.004131
-0.004143
-0.004183
-0.004119
-0.004111
-0.004139
-0.004052
-0.004096
-0.004107
-0.004073
-0.004098
-0.004062
-0.004040
-0.004071
-0.003967
-0.004041
-0.003938
-0.003910
-0.003876
-0.003857
-0.003850
-0.003836
-0.003850
-0.003858
-0.003838
-0.003825
-0.003851
-0.003824
-0.003823
-0.003815
-0.003945
-0.003959
-0.003875
-0.003459
-0.003493
-0.003667
-0.003609
-0.003695
-0.003654
-0.003992
-0.003909
-0.003988
-0.003881
-0.003953
-0.003966
-0.003894
-0.003872
-0.003868
-0.003895
-0.003916
-0.003933
-0.003939
-0.003908
-0.003941
-0.003862
-0.003837
-0.003824
-0.003810
-0.003800
-0.003793
-0.003776
-0.003750
-0.003708
-0.003587
-0.003649
-0.003569
-0.003825
-0.003767
-0.003779
-0.003775
-0.003714
-0.003721
-0.003704
-0.003682
-0.003711
-0.003678
-0.003665
-0.003681
-0.003768
-0.003791
-0.003759
-0.003785
-0.003762
-0.003756
-0.003674
-0.003782
-0.003766
-0.003763
-0.003770
-0.003714
-0.003732
-0.003757
-0.003741
-0.003723
-0.003667
-0.003372
-0.003357
-0.003311
-0.003220
-0.003191
-0.003176
-0.003134
-0.003162
-0.003894
-0.003900
-0.003897
-0.003865
-0.003806
-0.003802
-0.003797
-0.003785
-0.003786
-0.003745
-0.003709
-0.003742
-0.003791
-0.003792
-0.003800
-0.003796
-0.003757
-0.003767
-0.003760
-0.003782
-0.003778
-0.003730
-0.003789
-0.003773
-0.003801
-0.003895
-0.003774
-0.003814
-0.003827
-0.003807
-0.003822
-0.003860
-0.003847
-0.003853
-0.003856
-0.003845
-0.003859
-0.003835
-0.003844
-0.003833
-0.003840
-0.003842
-0.003856
-0.003823
-0.003806
-0.003807
-0.003800
-0.003795
-0.003805
-0.003815
-0.003829
-0.003835
-0.003810
-0.003795
-0.003790
-0.003782
-0.003776
-0.003773
-0.003763
-0.003751
-0.003726
-0.003697
-0.003642
-0.003676
-0.003713
-0.003752
-0.003787
-0.003821
-0.003854
-0.003886
-0.003916
-0.003946
-0.003973
-0.003999
-0.004024
-0.004049
-0.004073
-0.004096
-0.004119
-0.004141
-0.004162
-0.004183
-0.004204
-0.004224
-0.004244
-0.004265
-0.004287
-0.004307
-0.004327
-0.004347
-0.004366
-0.004386
-0.004404
-0.004423
-0.004441
-0.004459
-0.004477
-0.004495
-0.004512
-0.004530
-0.004547
-0.004565
-0.004582
-0.004600
-0.004617
-0.004634
-0.004652
-0.004669
-0.004686
-0.004703
-0.004720
-0.004738
-0.004755
-0.004772
-0.004789
-0.004807
-0.004824
-0.004841
-0.004858
-0.004876
-0.004893
-0.004910
-0.004927
-0.004945
-0.004962
-0.004979
-0.004996
-0.005014
-0.005031
-0.005048
-0.005065
-0.005083
-0.005100
-0.005117
-0.005134
-0.005152
-0.005169
-0.005186
-0.005203
-0.005220
-0.005238
-0.005255
-0.005272
-0.005289
-0.005306
-0.005323
-0.005339
-0.005356
-0.005373
-0.005390
-0.005406
-0.005423
-0.005440
-0.005456
-0.005472
-0.005489
-0.005505
-0.005521
-0.005537
-0.005553
-0.005569
-0.005585
-0.005601
-0.005616
-0.005632
-0.005647
-0.005663
-0.005678
-0.005693
-0.005708
-0.005723
-0.005738
-0.005752
-0.005767
-0.005781
-0.005795
-0.005809
-0.005823
-0.005837
-0.005851
-0.005865
-0.005878
-0.005891
-0.005904
-0.005918
-0.005930
-0.005943
-0.005956
-0.005968
-0.005981
-0.005993
-0.006005
-0.006017
-0.006028
-0.006040
-0.006051
-0.006063
-0.006074
-0.006085
-0.006096
-0.006107
-0.006118
-0.006128
-0.007166
-0.007213
-0.006809
-0.005599
-0.005654
-0.005623
-0.007740
-0.007715
-0.007642
-0.007399
-0.007768
-0.006810
-0.007103
-0.006606
-0.006626
-0.006599
-0.006633
-0.005487
-0.005508
-0.005447
-0.009079
-0.009074
-0.008966
-0.008928
-0.005542
-0.008346
-0.008310
-0.008448
-0.005806
-0.005787
-0.005763
-0.008338
-0.007624
-0.007481
-0.007596
-0.005752
-0.008933
-0.008897
-0.009059
-0.008685
-0.007172
-0.007263
-0.007295
-0.005388
-0.005433
-0.005386
-0.009399
-0.009425
-0.009379
-0.005543
-0.005498
-0.005517
-0.009338
-0.009308
-0.009354
-0.005493
-0.009431
-0.009414
-0.009458
-0.008351
-0.008253
-0.008249
-0.006022
-0.006084
-0.006068
-0.006137
-0.009607
-0.009653
-0.009597
-0.009650
-0.008325
-0.009460
-0.009446
-0.009394
-0.009391
-0.007337
-0.009387
-0.009362
-0.009414
-0.006727
-0.006645
-0.006665
-0.005901
-0.005960
-0.005880
-0.005878
-0.006696
-0.009094
-0.009069
-0.008792
-0.009393
-0.009384
-0.009421
-0.009419
-0.006484
-0.006558
-0.006504
-0.006558
-0.008626
-0.008653
-0.008621
-0.005735
-0.005775
-0.005782
-0.005820
-0.008308
-0.008226
-0.008329
-0.008151
-0.005779
-0.012997
-0.013298
-0.013058
-0.006143
-0.013151
-0.006759
-0.006782
-0.006733
-0.008278
-0.008328
-0.008310
-0.009183
-0.009195
-0.009215
-0.005741
-0.005696
-0.006810
-0.008686
-0.008651
-0.005342
-0.008240
-0.007387
-0.007934
-0.005591
-0.009187
-0.009183
-0.009158
-0.007443
-0.007349
-0.007351
-0.007473
-0.009158
-0.009175
-0.009193
-0.011699
-0.011448
-0.011632
-0.011523
-0.011910
-0.011662
-0.011660
-0.010544
-0.010420
-0.010316
-0.011879
-0.008696
-0.008387
-0.008115
-0.007566
-0.008474
-0.008523
-0.008658
-0.008407
-0.006288
-0.006213
-0.006262
-0.006227
-0.007420
-0.007440
-0.007417
-0.004994
-0.004965
-0.004792
-0.009393
-0.009369
-0.009402
-0.009381
-0.005391
-0.005447
-0.005471
-0.005114
-0.012606
-0.012605
-0.012837
-0.012342
-0.006729
-0.006696
-0.006714
-0.006671
-0.008093
-0.008121
-0.008112
-0.007035
-0.007165
-0.007040
-0.008140
-0.011847
-0.011615
-0.011799
-0.007895
-0.007418
-0.006459
-0.006506
-0.006530
-0.006278
-0.006315
-0.006368
-0.009879
-0.009894
-0.009860
-0.011555
-0.008347
-0.008313
-0.008341
-0.008296
-0.008951
-0.008888
-0.008922
-0.008916
-0.009615
-0.009598
-0.009580
-0.009565
-0.009603
-0.009572
-0.009635
-0.009544
-0.008160
-0.008167
-0.008204
-0.008195
-0.008208
-0.008109
-0.010287
-0.010180
-0.010107
-0.010296
-0.005978
-0.006030
-0.005976
-0.009685
-0.009656
-0.009652
-0.009630
-0.009244
-0.009200
-0.009302
-0.009223
-0.008208
-0.009004
-0.008990
-0.009028
-0.009667
-0.009700
-0.009651
-0.009701
-0.009179
-0.009215
-0.009288
-0.009065
-0.008846
-0.008858
-0.008884
-0.008153
-0.008101
-0.008144
-0.008822
-0.008739
-0.008690
-0.008766
-0.006435
-0.007936
-0.008060
-0.008028
-0.008970
-0.009434
-0.009450
-0.009488
-0.009393
-0.009037
-0.009003
-0.009045
-0.008968
-0.009118
-0.008981
-0.009176
-0.006867
-0.006889
-0.006872
-0.008651
-0.008654
-0.008621
-0.008054
-0.007984
-0.007966
-0.008039
-0.006406
-0.006456
-0.006398
-0.006439
-0.007723
-0.007686
-0.007670
-0.009829
-0.009824
-0.009777
-0.009774
-0.006043
-0.006025
-0.006067
-0.011987
-0.011944
-0.011784
-0.006030
-0.011998
-0.012180
-0.011883
-0.012254
-0.010016
-0.010004
-0.009985
-0.009966
-0.009412
-0.009397
-0.009335
-0.009368
-0.007609
-0.007563
-0.007553
-0.007984
-0.008008
-0.008043
-0.008066
-0.005610
-0.005577
-0.005574
-0.008895
-0.008864
-0.008875
-0.006806
-0.006899
-0.006803
-0.006894
-0.010053
-0.010047
-0.010029
-0.010017
-0.007224
-0.007262
-0.007207
-0.007279
-0.009739
-0.009566
-0.009643
-0.009507
-0.007056
-0.007133
-0.007057
-0.007153
-0.006584
-0.006571
-0.006641
-0.006528
-0.008547
-0.008510
-0.008585
-0.008478
-0.009111
-0.009000
-0.009047
-0.006888
-0.010356
-0.010214
-0.010413
-0.010191
-0.010711
-0.010528
-0.010496
-0.010740
-0.014601
-0.014937
-0.014461
-0.007479
-0.007555
-0.007426
-0.008578
-0.008585
-0.008556
-0.009854
-0.009838
-0.009825
-0.007429
-0.008401
-0.008463
-0.008531
-0.008362
-0.007096
-0.007009
-0.007108
-0.006989
-0.009942
-0.009880
-0.009914
-0.009859
-0.008558
-0.007917
-0.007935
-0.007949
-0.009632
-0.009766
-0.009565
-0.006826
-0.006706
-0.006756
-0.009459
-0.009524
-0.009423
-0.007992
-0.007880
-0.007939
-0.009557
-0.005377
-0.005441
-0.005419
-0.005883
-0.005839
-0.005852
-0.009233
-0.009301
-0.009195
-0.009304
-0.008832
-0.008744
-0.008697
-0.008151
-0.008205
-0.008105
-0.008847
-0.007278
-0.007195
-0.007191
-0.008175
-0.008019
-0.008756
-0.008708
-0.008761
-0.007439
-0.007428
-0.007355
-0.008746
-0.008744
-0.008779
-0.008709
-0.007506
-0.007482
-0.007501
-0.006890
-0.006977
-0.006911
-0.006896
-0.007556
-0.007536
-0.009267
-0.009252
-0.009135
-0.006008
-0.006009
-0.006065
-0.009509
-0.009459
-0.009350
-0.007901
-0.007938
-0.008007
-0.008103
-0.007524
-0.007499
-0.007599
-0.007459
-0.008830
-0.008825
-0.008870
-0.008863
-0.006064
-0.006072
-0.006130
-0.006335
-0.006293
-0.006358
-0.006298
-0.006601
-0.006549
-0.006636
-0.006129
-0.007592
-0.007636
-0.007632
-0.007500
-0.007524
-0.007508
-0.007508
-0.007514
-0.007513
-0.007552
-0.007472
-0.009012
-0.009025
-0.009044
-0.008571
-0.008543
-0.008553
-0.008801
-0.008789
-0.008658
-0.008364
-0.008430
-0.008431
-0.008499
-0.007487
-0.007444
-0.007321
-0.008525
-0.008944
-0.008962
-0.008941
-0.009184
-0.009208
-0.009189
-0.009216
-0.008960
-0.007936
-0.007961
-0.007916
-0.007993
-0.006376
-0.006290
-0.006327
-0.010238
-0.010266
-0.010255
-0.010262
-0.007763
-0.007751
-0.007795
-0.007717
-0.009426
-0.009401
-0.009441
-0.009560
-0.009485
-0.009551
-0.006007
-0.006814
-0.005895
-0.009400
-0.010148
-0.010123
-0.010145
-0.009173
-0.009147
-0.010097
-0.010031
-0.009989
-0.006637
-0.009668
-0.009733
-0.009591
-0.009907
-0.009892
-0.007421
-0.007321
-0.007335
-0.009774
-0.009630
-0.009629
-0.009663
-0.010605
-0.010462
-0.010676
-0.010479
-0.006067
-0.006077
-0.006029
-0.009274
-0.009283
-0.009307
-0.009330
-0.010011
-0.010011
-0.009917
-0.006123
-0.009816
-0.009849
-0.009751
-0.008515
-0.008500
-0.008396
-0.008811
-0.008781
-0.009688
-0.009656
-0.009628
-0.007542
-0.007520
-0.007543
-0.007915
-0.007868
-0.007894
-0.010020
-0.009910
-0.010025
-0.007520
-0.005880
-0.005910
-0.005836
-0.008966
-0.008966
-0.008846
-0.009070
-0.009953
-0.009907
-0.010067
-0.009840
-0.009756
-0.007185
-0.007226
-0.007120
-0.007828
-0.007799
-0.007810
-0.007781
-0.005876
-0.005931
-0.005868
-0.007666
-0.007632
-0.007527
-0.005938
-0.005954
-0.005924
-0.005929
-0.005897
-0.005974
-0.006553
-0.006579
-0.006583
-0.009354
-0.009332
-0.009367
-0.008433
-0.008853
-0.007992
-0.009168
-0.009333
-0.008975
-0.009006
-0.008919
-0.008649
-0.008615
-0.008602
-0.008573
-0.009720
-0.009751
-0.009730
-0.009768
-0.009846
-0.009870
-0.009858
-0.006797
-0.006792
-0.006872
-0.008006
-0.007877
-0.007860
-0.005754
-0.005749
-0.005688
-0.009292
-0.009233
-0.009299
-0.009390
-0.005665
-0.005765
-0.005821
-0.009866
-0.006611
-0.007745
-0.007746
-0.007765
-0.008670
-0.008712
-0.008752
-0.008766
-0.008969
-0.008975
-0.008898
-0.007771
-0.005938
-0.005888
-0.005928
-0.008255
-0.008235
-0.008271
-0.008268
-0.008909
-0.009139
-0.008940
-0.009406
-0.009336
-0.009325
-0.008498
-0.008538
-0.008539
-0.008306
-0.008291
-0.008255
-0.008343
-0.009640
-0.009670
-0.009675
-0.009696
-0.005805
-0.005781
-0.005824
-0.008799
-0.008734
-0.008838
-0.006449
-0.006419
-0.006449
-0.008048
-0.008021
-0.008015
-0.007982
-0.006424
-0.008296
-0.008324
-0.008331
-0.008366
-0.012577
-0.012355
-0.012859
-0.006098
-0.006033
-0.006029
-0.009500
-0.009507
-0.009535
-0.009476
-0.006766
-0.006740
-0.006753
-0.006093
-0.009562
-0.009588
-0.009563
-0.009063
-0.009118
-0.009078
-0.009084
-0.009786
-0.009723
-0.009525
-0.006724
-0.006526
-0.006564
-0.006539
-0.007717
-0.007764
-0.007802
-0.008986
-0.008971
-0.009003
-0.008987
-0.006570
-0.006096
-0.006072
-0.006064
-0.009137
-0.009209
-0.009172
-0.009255
-0.007674
-0.010023
-0.010052
-0.010000
-0.010084
-0.008465
-0.008480
-0.008452
-0.008493
-0.008456
-0.008425
-0.008424
-0.008897
-0.008833
-0.008823
-0.008934
-0.007835
-0.007896
-0.007888
-0.007961
-0.007651
-0.007593
-0.009295
-0.009270
-0.009298
-0.007216
-0.007237
-0.007262
-0.007186
-0.007296
-0.007306
-0.009330
-0.008832
-0.008770
-0.009267
-0.006112
-0.007760
-0.007827
-0.007788
-0.005635
-0.005504
-0.005894
-0.007686
-0.009583
-0.009614
-0.009622
-0.005093
-0.009642
-0.007652
-0.007572
-0.007573
-0.007737
-0.007677
-0.007798
-0.009316
-0.009288
-0.009311
-0.008855
-0.008804
-0.008825
-0.008405
-0.008503
-0.008411
-0.007688
-0.007640
-0.007687
-0.005965
-0.005913
-0.005903
-0.008493
-0.009038
-0.009061
-0.009065
-0.009090
-0.007592
-0.007609
-0.007700
-0.007604
-0.007981
-0.007942
-0.007951
-0.010000
-0.009896
-0.009949
-0.009812
-0.009900
-0.010049
-0.010104
-0.007430
-0.007406
-0.007375
-0.007352
-0.008445
-0.008471
-0.008463
-0.007445
-0.007378
-0.007397
-0.010324
-0.008004
-0.007969
-0.008014
-0.007954
-0.009539
-0.009503
-0.009521
-0.007337
-0.009872
-0.009844
-0.009827
-0.007905
-0.005754
-0.008092
-0.008117
-0.007611
-0.008426
-0.008730
-0.008732
-0.008761
-0.008771
-0.009523
-0.009568
-0.009514
-0.009571
-0.009850
-0.009890
-0.010023
-0.009697
-0.010031
-0.009904
-0.010000
-0.008205
-0.008193
-0.008163
-0.008158
-0.005813
-0.007097
-0.007121
-0.007089
-0.007118
-0.009386
-0.009434
-0.009398
-0.005667
-0.005614
-0.005627
-0.007079
-0.007173
-0.007049
-0.008128
-0.008245
-0.008215
-0.008951
-0.008898
-0.008898
-0.008366
-0.008596
-0.008592
-0.007177
-0.006844
-0.008155
-0.008203
-0.008184
-0.009465
-0.009426
-0.009444
-0.008570
-0.008565
-0.005669
-0.006803
-0.006335
-0.007943
-0.007996
-0.007927
-0.010182
-0.010326
-0.010371
-0.010528
-0.006288
-0.006229
-0.006180
-0.008969
-0.008922
-0.008922
-0.008330
-0.008356
-0.008334
-0.009406
-0.009367
-0.009423
-0.007636
-0.007647
-0.007513
-0.014270
-0.014062
-0.013818
-0.009957
-0.009826
-0.009723
-0.009697
-0.009705
-0.009679
-0.008293
-0.008316
-0.008294
-0.013733
-0.008312
-0.008356
-0.009348
-0.009410
-0.009798
-0.009816
-0.009657
-0.009445
-0.008367
-0.007337
-0.007092
-0.007197
-0.007256
-0.007237
-0.009037
-0.009053
-0.009066
-0.009364
-0.009328
-0.009345
-0.005904
-0.005868
-0.005865
-0.010870
-0.011011
-0.011203
-0.008281
-0.008324
-0.008278
-0.009052
-0.009033
-0.009023
-0.009164
-0.009130
-0.009107
-0.009094
-0.007843
-0.007885
-0.007112
-0.007129
-0.007170
-0.007780
-0.007808
-0.007818
-0.007856
-0.007296
-0.007324
-0.007330
-0.008784
-0.008521
-0.009039
-0.009529
-0.009495
-0.009462
-0.010711
-0.008301
-0.008297
-0.008411
-0.007187
-0.007141
-0.007153
-0.008268
-0.008096
-0.008223
-0.008024
-0.009663
-0.009630
-0.009654
-0.009273
-0.009236
-0.009253
-0.008628
-0.008648
-0.008654
-0.008674
-0.013313
-0.012882
-0.013185
-0.008982
-0.008895
-0.008860
-0.008772
-0.009484
-0.009533
-0.012744
-0.008370
-0.008398
-0.008365
-0.007287
-0.013680
-0.013364
-0.009190
-0.006863
-0.006814
-0.006785
-0.012171
-0.012153
-0.008431
-0.008446
-0.008466
-0.008479
-0.009570
-0.009537
-0.009554
-0.007372
-0.007418
-0.007383
-0.007848
-0.007898
-0.009400
-0.009382
-0.009408
-0.008232
-0.008241
-0.008262
-0.006720
-0.008283
-0.008222
-0.008199
-0.008979
-0.008929
-0.008184
-0.007835
-0.007879
-0.007888
-0.007924
-0.011565
-0.011650
-0.009447
-0.009424
-0.009415
-0.009226
-0.009261
-0.009245
-0.008822
-0.008798
-0.008777
-0.008876
-0.011416
-0.008949
-0.008899
-0.009618
-0.009596
-0.009597
-0.009572
-0.009194
-0.009156
-0.009174
-0.009279
-0.009179