# vtk DataFile Version 2.0
Test
ASCII
DATASET POLYDATA
POINTS 26238 float
0.000000 0.000000 0.000000
2.000000 0.000000 0.000000
2.000000 4.000000 0.000000
0.000000 4.000000 0.000000
0.000000 0.500000 0.000000
1.500000 2.000000 0.000000
2.000000 2.500000 0.000000
0.100000 0.000000 0.000000
0.200000 0.000000 0.000000
0.300000 0.000000 0.000000
0.400000 0.000000 0.000000
0.500000 0.000000 0.000000
0.600000 0.000000 0.000000
0.700000 0.000000 0.000000
0.800000 0.000000 0.000000
0.900000 0.000000 0.000000
1.000000 0.000000 0.000000
1.100000 0.000000 0.000000
1.200000 0.000000 0.000000
1.300000 0.000000 0.000000
1.400000 0.000000 0.000000
1.500000 0.000000 0.000000
1.600000 0.000000 0.000000
1.700000 0.000000 0.000000
1.800000 0.000000 0.000000
1.900000 0.000000 0.000000
2.000000 0.097923 0.000000
2.000000 0.192202 0.000000
2.000000 0.282973 0.000000
2.000000 0.370366 0.000000
2.000000 0.454507 0.000000
2.000000 0.535518 0.000000
2.000000 0.613513 0.000000
2.000000 0.688607 0.000000
2.000000 0.760906 0.000000
2.000000 0.830515 0.000000
2.000000 0.897534 0.000000
2.000000 0.962059 0.000000
2.000000 1.024183 0.000000
2.000000 1.083995 0.000000
2.000000 1.141582 0.000000
2.000000 1.197026 0.000000
2.000000 1.250406 0.000000
2.000000 1.301801 0.000000
2.000000 1.351283 0.000000
2.000000 1.398923 0.000000
2.000000 1.444791 0.000000
2.000000 1.488953 0.000000
2.000000 1.531470 0.000000
2.000000 1.572406 0.000000
2.000000 1.611819 0.000000
2.000000 1.649765 0.000000
2.000000 1.686299 0.000000
2.000000 1.721473 0.000000
2.000000 1.755339 0.000000
2.000000 1.787944 0.000000
2.000000 1.819337 0.000000
2.000000 1.849561 0.000000
2.000000 1.878660 0.000000
2.000000 1.906677 0.000000
2.000000 1.933651 0.000000
2.000000 1.959621 0.000000
2.000000 1.984625 0.000000
2.000000 2.008699 0.000000
2.000000 2.031877 0.000000
2.000000 2.054192 0.000000
2.000000 2.075677 0.000000
2.000000 2.096362 0.000000
2.000000 2.116278 0.000000
2.000000 2.135453 0.000000
2.000000 2.153914 0.000000
2.000000 2.171688 0.000000
2.000000 2.188801 0.000000
2.000000 2.205277 0.000000
2.000000 2.221140 0.000000
2.000000 2.236413 0.000000
2.000000 2.251117 0.000000
2.000000 2.265274 0.000000
2.000000 2.278905 0.000000
2.000000 2.292028 0.000000
2.000000 2.304663 0.000000
2.000000 2.316828 0.000000
2.000000 2.328540 0.000000
2.000000 2.339816 0.000000
2.000000 2.350673 0.000000
2.000000 2.361126 0.000000
2.000000 2.371189 0.000000
2.000000 2.380879 0.000000
2.000000 2.390207 0.000000
2.000000 2.399189 0.000000
2.000000 2.407836 0.000000
2.000000 2.416162 0.000000
2.000000 2.424178 0.000000
2.000000 2.431895 0.000000
2.000000 2.439326 0.000000
2.000000 2.446480 0.000000
2.000000 2.453367 0.000000
2.000000 2.459999 0.000000
2.000000 2.466383 0.000000
2.000000 2.472530 0.000000
2.000000 2.478449 0.000000
2.000000 2.484147 0.000000
2.000000 2.489633 0.000000
2.000000 2.494915 0.000000
2.000000 2.505084 0.000000
2.000000 2.510496 0.000000
2.000000 2.516256 0.000000
2.000000 2.522387 0.000000
2.000000 2.528913 0.000000
2.000000 2.535859 0.000000
2.000000 2.543253 0.000000
2.000000 2.551122 0.000000
2.000000 2.559499 0.000000
2.000000 2.568415 0.000000
2.000000 2.577905 0.000000
2.000000 2.588006 0.000000
2.000000 2.598758 0.000000
2.000000 2.610202 0.000000
2.000000 2.622383 0.000000
2.000000 2.635349 0.000000
2.000000 2.649149 0.000000
2.000000 2.663839 0.000000
2.000000 2.679474 0.000000
2.000000 2.696116 0.000000
2.000000 2.713831 0.000000
2.000000 2.732685 0.000000
2.000000 2.752754 0.000000
2.000000 2.774116 0.000000
2.000000 2.796853 0.000000
2.000000 2.821055 0.000000
2.000000 2.846815 0.000000
2.000000 2.874234 0.000000
2.000000 2.903419 0.000000
2.000000 2.934483 0.000000
2.000000 2.967548 0.000000
2.000000 3.002742 0.000000
2.000000 3.040202 0.000000
2.000000 3.080076 0.000000
2.000000 3.122517 0.000000
2.000000 3.167691 0.000000
2.000000 3.215774 0.000000
2.000000 3.266954 0.000000
2.000000 3.321430 0.000000
2.000000 3.379414 0.000000
2.000000 3.441132 0.000000
2.000000 3.506825 0.000000
2.000000 3.576749 0.000000
2.000000 3.651175 0.000000
2.000000 3.730395 0.000000
2.000000 3.814717 0.000000
2.000000 3.904468 0.000000
1.900000 4.000000 0.000000
1.800000 4.000000 0.000000
1.700000 4.000000 0.000000
1.600000 4.000000 0.000000
1.500000 4.000000 0.000000
1.400000 4.000000 0.000000
1.300000 4.000000 0.000000
1.200000 4.000000 0.000000
1.100000 4.000000 0.000000
1.000000 4.000000 0.000000
0.900000 4.000000 0.000000
0.800000 4.000000 0.000000
0.700000 4.000000 0.000000
0.600000 4.000000 0.000000
0.500000 4.000000 0.000000
0.400000 4.000000 0.000000
0.300000 4.000000 0.000000
0.200000 4.000000 0.000000
0.100000 4.000000 0.000000
0.000000 3.901898 0.000000
0.000000 3.806409 0.000000
0.000000 3.713462 0.000000
0.000000 3.622990 0.000000
0.000000 3.534927 0.000000
0.000000 3.449209 0.000000
0.000000 3.365773 0.000000
0.000000 3.284559 0.000000
0.000000 3.205508 0.000000
0.000000 3.128561 0.000000
0.000000 3.053664 0.000000
0.000000 2.980761 0.000000
0.000000 2.909799 0.000000
0.000000 2.840727 0.000000
0.000000 2.773493 0.000000
0.000000 2.708051 0.000000
0.000000 2.644350 0.000000
0.000000 2.582346 0.000000
0.000000 2.521993 0.000000
0.000000 2.463247 0.000000
0.000000 2.406065 0.000000
0.000000 2.350406 0.000000
0.000000 2.296229 0.000000
0.000000 2.243495 0.000000
0.000000 2.192165 0.000000
0.000000 2.142201 0.000000
0.000000 2.093568 0.000000
0.000000 2.046230 0.000000
0.000000 2.000153 0.000000
0.000000 1.955302 0.000000
0.000000 1.911646 0.000000
0.000000 1.869152 0.000000
0.000000 1.827789 0.000000
0.000000 1.787528 0.000000
0.000000 1.748339 0.000000
0.000000 1.710194 0.000000
0.000000 1.673064 0.000000
0.000000 1.636923 0.000000
0.000000 1.601745 0.000000
0.000000 1.567503 0.000000
0.000000 1.534172 0.000000
0.000000 1.501730 0.000000
0.000000 1.470151 0.000000
0.000000 1.439413 0.000000
0.000000 1.409494 0.000000
0.000000 1.380371 0.000000
0.000000 1.352024 0.000000
0.000000 1.324431 0.000000
0.000000 1.297573 0.000000
0.000000 1.271431 0.000000
0.000000 1.245984 0.000000
0.000000 1.221215 0.000000
0.000000 1.197106 0.000000
0.000000 1.173639 0.000000
0.000000 1.150796 0.000000
0.000000 1.128562 0.000000
0.000000 1.106920 0.000000
0.000000 1.085854 0.000000
0.000000 1.065349 0.000000
0.000000 1.045390 0.000000
0.000000 1.025962 0.000000
0.000000 1.007052 0.000000
0.000000 0.988645 0.000000
0.000000 0.970729 0.000000
0.000000 0.953289 0.000000
0.000000 0.936314 0.000000
0.000000 0.919791 0.000000
0.000000 0.903708 0.000000
0.000000 0.888053 0.000000
0.000000 0.872815 0.000000
0.000000 0.857983 0.000000
0.000000 0.843545 0.000000
0.000000 0.829492 0.000000
0.000000 0.815814 0.000000
0.000000 0.802499 0.000000
0.000000 0.789539 0.000000
0.000000 0.776925 0.000000
0.000000 0.764646 0.000000
0.000000 0.752694 0.000000
0.000000 0.741060 0.000000
0.000000 0.729736 0.000000
0.000000 0.718714 0.000000
0.000000 0.707985 0.000000
0.000000 0.697541 0.000000
0.000000 0.687376 0.000000
0.000000 0.677482 0.000000
0.000000 0.667851 0.000000
0.000000 0.658476 0.000000
0.000000 0.649351 0.000000
0.000000 0.640469 0.000000
0.000000 0.631824 0.000000
0.000000 0.623409 0.000000
0.000000 0.615217 0.000000
0.000000 0.607244 0.000000
0.000000 0.599484 0.000000
0.000000 0.591929 0.000000
0.000000 0.584577 0.000000
0.000000 0.577419 0.000000
0.000000 0.570453 0.000000
0.000000 0.563672 0.000000
0.000000 0.557071 0.000000
0.000000 0.550646 0.000000
0.000000 0.544393 0.000000
0.000000 0.538306 0.000000
0.000000 0.532380 0.000000
0.000000 0.526613 0.000000
0.000000 0.520999 0.000000
0.000000 0.515535 0.000000
0.000000 0.510216 0.000000
0.000000 0.505039 0.000000
0.000000 0.494581 0.000000
0.000000 0.488047 0.000000
0.000000 0.480167 0.000000
0.000000 0.470665 0.000000
0.000000 0.459206 0.000000
0.000000 0.445387 0.000000
0.000000 0.428723 0.000000
0.000000 0.408628 0.000000
0.000000 0.384395 0.000000
0.000000 0.355172 0.000000
0.000000 0.319933 0.000000
0.000000 0.277436 0.000000
0.000000 0.226190 0.000000
0.000000 0.164392 0.000000
0.000000 0.089868 0.000000
0.003529 0.503529 0.000000
0.007059 0.507059 0.000000
0.010588 0.510588 0.000000
0.014118 0.514118 0.000000
0.017647 0.517647 0.000000
0.021176 0.521176 0.000000
0.024706 0.524706 0.000000
0.028235 0.528235 0.000000
0.031765 0.531765 0.000000
0.035294 0.535294 0.000000
0.038824 0.538824 0.000000
0.042353 0.542353 0.000000
0.045882 0.545882 0.000000
0.049412 0.549412 0.000000
0.052941 0.552941 0.000000
0.056471 0.556471 0.000000
0.060000 0.560000 0.000000
0.063529 0.563529 0.000000
0.067059 0.567059 0.000000
0.070588 0.570588 0.000000
0.074118 0.574118 0.000000
0.077647 0.577647 0.000000
0.081176 0.581176 0.000000
0.084706 0.584706 0.000000
0.088235 0.588235 0.000000
0.091765 0.591765 0.000000
0.095294 0.595294 0.000000
0.098824 0.598824 0.000000
0.102353 0.602353 0.000000
0.105882 0.605882 0.000000
0.109412 0.609412 0.000000
0.112941 0.612941 0.000000
0.116471 0.616471 0.000000
0.120000 0.620000 0.000000
0.123529 0.623529 0.000000
0.127059 0.627059 0.000000
0.130588 0.630588 0.000000
0.134118 0.634118 0.000000
0.137647 0.637647 0.000000
0.141176 0.641176 0.000000
0.144706 0.644706 0.000000
0.148235 0.648235 0.000000
0.151765 0.651765 0.000000
0.155294 0.655294 0.000000
0.158824 0.658824 0.000000
0.162353 0.662353 0.000000
0.165882 0.665882 0.000000
0.169412 0.669412 0.000000
0.172941 0.672941 0.000000
0.176471 0.676471 0.000000
0.180000 0.680000 0.000000
0.183529 0.683529 0.000000
0.187059 0.687059 0.000000
0.190588 0.690588 0.000000
0.194118 0.694118 0.000000
0.197647 0.697647 0.000000
0.201176 0.701176 0.000000
0.204706 0.704706 0.000000
0.208235 0.708235 0.000000
0.211765 0.711765 0.000000
0.215294 0.715294 0.000000
0.218824 0.718824 0.000000
0.222353 0.722353 0.000000
0.225882 0.725882 0.000000
0.229412 0.729412 0.000000
0.232941 0.732941 0.000000
0.236471 0.736471 0.000000
0.240000 0.740000 0.000000
0.243529 0.743529 0.000000
0.247059 0.747059 0.000000
0.250588 0.750588 0.000000
0.254118 0.754118 0.000000
[...]
POINT_DATA 26238
SCALARS UX float 1
LOOKUP_TABLE default
-0.000000
0.000000
-0.012964
-0.018200
-0.003371
-0.003440
-0.005765
-0.000000
-0.000000
-0.000000
-0.000000
-0.000000
-0.000000
-0.000000
-0.000000
-0.000000
-0.000000
0.000000
0.000000
0.000000
0.000000
0.000000
0.000000
0.000000
0.000000
0.000000
0.000852
0.001340
0.001683
0.001926
0.002105
0.002236
0.002326
0.002386
0.002422
0.002438
0.002437
0.002423
0.002396
0.002357
0.002308
0.002249
0.002184
0.002108
0.002024
0.001932
0.001830
0.001719
0.001598
0.001466
0.001325
0.001171
0.001004
0.000827
0.000638
0.000438
0.000227
0.000008
-0.000218
-0.000453
-0.000689
-0.000928
-0.001166
-0.001402
-0.001634
-0.001861
-0.002081
-0.002294
-0.002498
-0.002694
-0.002882
-0.003060
-0.003229
-0.003390
-0.003542
-0.003686
-0.003823
-0.003952
-0.004075
-0.004190
-0.004300
-0.004403
-0.004501
-0.004594
-0.004682
-0.004766
-0.004845
-0.004920
-0.004992
-0.005060
-0.005124
-0.005185
-0.005244
-0.005299
-0.005352
-0.005403
-0.005451
-0.005497
-0.005541
-0.005583
-0.005623
-0.005661
-0.005697
-0.005732
-0.005799
-0.005834
-0.005871
-0.005910
-0.005951
-0.005995
-0.006041
-0.006089
-0.006141
-0.006195
-0.006251
-0.006311
-0.006374
-0.006441
-0.006511
-0.006584
-0.006661
-0.006742
-0.006827
-0.006917
-0.007011
-0.007109
-0.007213
-0.007322
-0.007436
-0.007556
-0.007683
-0.007815
-0.007955
-0.008102
-0.008257
-0.008420
-0.008593
-0.008774
-0.008967
-0.009171
-0.009388
-0.009617
-0.009861
-0.010122
-0.010399
-0.010695
-0.011012
-0.011350
-0.011713
-0.012102
-0.012519
-0.013237
-0.013511
-0.013782
-0.014051
-0.014315
-0.014574
-0.014830
-0.015081
-0.015330
-0.015578
-0.015826
-0.016077
-0.016330
-0.016587
-0.016848
-0.017113
-0.017382
-0.017654
-0.017927
-0.017757
-0.017323
-0.016899
-0.016483
-0.016076
-0.015678
-0.015289
-0.014910
-0.014544
-0.014187
-0.013842
-0.013511
-0.013193
-0.012888
-0.012597
-0.012321
-0.012059
-0.011813
-0.011581
-0.011365
-0.011165
-0.010979
-0.010807
-0.010651
-0.010508
-0.010378
-0.010261
-0.010157
-0.010063
-0.009979
-0.009906
-0.009841
-0.009785
-0.009736
-0.009695
-0.009659
-0.009629
-0.009605
-0.009585
-0.009569
-0.009556
-0.009546
-0.009540
-0.009535
-0.009533
-0.009533
-0.009534
-0.009536
-0.009540
-0.009544
-0.009549
-0.009555
-0.009561
-0.009568
-0.009575
-0.009582
-0.009589
-0.009597
-0.009604
-0.009612
-0.009619
-0.009626
-0.009634
-0.009641
-0.009648
-0.009655
-0.009661
-0.009667
-0.009673
-0.009678
-0.009683
-0.009687
-0.009691
-0.009694
-0.009696
-0.009698
-0.009699
-0.009700
-0.009701
-0.009700
-0.009698
-0.009694
-0.009690
-0.009685
-0.009679
-0.009672
-0.009665
-0.009656
-0.009647
-0.009636
-0.009625
-0.009612
-0.009598
-0.009583
-0.009565
-0.009545
-0.009523
-0.009501
-0.009484
-0.009471
-0.009453
-0.009413
-0.009351
-0.009247
-0.009124
-0.009053
-0.008736
-0.008884
-0.007512
-0.005924
-0.002733
-0.002604
-0.002480
-0.002368
-0.002274
-0.002192
-0.002119
-0.002048
-0.001975
-0.001892
-0.001794
-0.001663
-0.001477
-0.001212
-0.000812
-0.004996
-0.004767
-0.004653
-0.004667
-0.004466
-0.004504
-0.005348
-0.005298
-0.005328
-0.005266
-0.005306
-0.005345
-0.005403
-0.005343
-0.005338
-0.005375
-0.005359
-0.005334
-0.005354
-0.005412
-0.005386
-0.005399
-0.005361
-0.005387
-0.005366
-0.005375
-0.005380
-0.005370
-0.005341
-0.005315
-0.005323
-0.005304
-0.005322
-0.005302
-0.005205
-0.005356
-0.005379
-0.005445
-0.005439
-0.005403
-0.005346
-0.005230
-0.005176
-0.005186
-0.005220
-0.005235
-0.005272
-0.005227
-0.005299
-0.005468
-0.005546
-0.005593
-0.005616
-0.005530
-0.005591
-0.005616
-0.005613
-0.005621
-0.005594
-0.005702
-0.005539
-0.005648
-0.005683
-0.005696
-0.005703
-0.005708
-0.005713
-0.005699
-0.005681
-0.005707
-0.005631
-0.005553
-0.005514
-0.005508
-0.005420
-0.005446
-0.005493
-0.005456
-0.005451
-0.005470
-0.005439
-0.005450
-0.005431
-0.005425
-0.005396
-0.005402
-0.005395
-0.005413
-0.005509
-0.005501
-0.005510
-0.005501
-0.005500
-0.005497
-0.005446
-0.005472
-0.005390
-0.005425
-0.005347
-0.005417
-0.005304
-0.005249
-0.005338
-0.005286
-0.005225
-0.005406
-0.005411
-0.005376
-0.005351
-0.005337
-0.005370
-0.005397
-0.005383
-0.005435
-0.005429
-0.005406
-0.005363
-0.005338
-0.005339
-0.005333
-0.005312
-0.005316
-0.005232
-0.005280
-0.005255
-0.005274
-0.005180
-0.005141
-0.005252
-0.005228
-0.005194
-0.005211
-0.005263
-0.005211
-0.005169
-0.005165
-0.005155
-0.005147
-0.005103
-0.004989
-0.005013
-0.005032
-0.005009
-0.005005
-0.005083
-0.005006
-0.004983
-0.004976
-0.005006
-0.005001
-0.004949
-0.004881
-0.004846
-0.004777
-0.004777
-0.004730
-0.004750
-0.004701
-0.004715
-0.004660
-0.004723
-0.004670
-0.004660
-0.004618
-0.004573
-0.004559
-0.004534
-0.004528
-0.004479
-0.004457
-0.004468
-0.004386
-0.004424
-0.004410
-0.004346
-0.004303
-0.004350
-0.004333
-0.004317
-0.004331
-0.004236
-0.004331
-0.004290
-0.004288
-0.004283
-0.004241
-0.004268
-0.004178
-0.004188
-0.004134
-0.004105
-0.004103
-0.004081
-0.004051
-0.004060
-0.003992
-0.004025
-0.004619
-0.004647
-0.004669
-0.004520
-0.004567
-0.004581
-0.004555
-0.004519
-0.004485
-0.004449
-0.004429
-0.004431
-0.004389
-0.004345
-0.004317
-0.004348
-0.004311
-0.004261
-0.004254
-0.004194
-0.004212
-0.004175
-0.004156
-0.004177
-0.004123
-0.004118
-0.004124
-0.004119
-0.004017
-0.004106
-0.003969
-0.003983
-0.003928
-0.004028
-0.004022
-0.004024
-0.004080
-0.004068
-0.004100
-0.004121
-0.004113
-0.004201
-0.004364
-0.004291
-0.004308
-0.004294
-0.004308
-0.004282
-0.004268
-0.004192
-0.004205
-0.004179
-0.004186
-0.004169
-0.004108
-0.004187
-0.004102
-0.004087
-0.004058
-0.004043
-0.004032
-0.003963
-0.003989
-0.003945
-0.003922
-0.003909
-0.003884
-0.003914
-0.003893
-0.003881
-0.003891
-0.003903
-0.003916
-0.003888
-0.003832
-0.003857
-0.003878
-0.003837
-0.003849
-0.003870
-0.003800
-0.003809
-0.003820
-0.003764
-0.003786
-0.003750
-0.003713
-0.003704
-0.003676
-0.003674
-0.003653
-0.003677
-0.003729
-0.003729
-0.003732
-0.003687
-0.003645
-0.003656
-0.003627
-0.003632
-0.003595
-0.003669
-0.003676
-0.003687
-0.003633
-0.003619
-0.003631
-0.003649
-0.003614
-0.003613
-0.003619
-0.003688
-0.003637
-0.003676
-0.003694
-0.003682
-0.003677
-0.003702
-0.003623
-0.003623
-0.003625
-0.003635
-0.003608
-0.003566
-0.003553
-0.003538
-0.003540
-0.003486
-0.003523
-0.003572
-0.003550
-0.003538
-0.003540
-0.003569
-0.003565
-0.003505
-0.003566
-0.003547
-0.003539
-0.003577
-0.003572
-0.003617
-0.003601
-0.003613
-0.003620
-0.003592
-0.003595
-0.003582
-0.003568
-0.003590
-0.003599
-0.003542
-0.003578
-0.003518
-0.003553
-0.003535
-0.003480
-0.002790
-0.002773
-0.002768
-0.002731
-0.003405
-0.003223
-0.003223
-0.003266
-0.003259
-0.003287
-0.003189
-0.003424
-0.003459
-0.003384
-0.003419
-0.003353
-0.003372
-0.003314
-0.003316
-0.003352
-0.003362
-0.003339
-0.003472
-0.003433
-0.003385
-0.003379
-0.003726
-0.003727
-0.003681
-0.003699
-0.003629
-0.003587
-0.003601
-0.003668
-0.003570
-0.003585
-0.003576
-0.003613
-0.003608
-0.003622
-0.003617
-0.003624
-0.003703
-0.003711
-0.003712
-0.003677
-0.003678
-0.003657
-0.003642
-0.003635
-0.003636
-0.003630
-0.003617
-0.003631
-0.003619
-0.003596
-0.003604
-0.003610
-0.003618
-0.003622
-0.003597
-0.003582
-0.003576
-0.003566
-0.003560
-0.003555
-0.003545
-0.003532
-0.003508
-0.003480
-0.003427
-0.003457
-0.003491
-0.003527
-0.003560
-0.003591
-0.003622
-0.003652
-0.003680
-0.003707
-0.003733
-0.003757
-0.003781
-0.003804
-0.003826
-0.003848
-0.003869
-0.003890
-0.003910
-0.003929
-0.003949
-0.003968
-0.003987
-0.004007
-0.004027
-0.004046
-0.004065
-0.004084
-0.004101
-0.004119
-0.004137
-0.004154
-0.004171
-0.004188
-0.004205
-0.004222
-0.004238
-0.004255
-0.004271
-0.004288
-0.004304
-0.004320
-0.004336
-0.004353
-0.004369
-0.004385
-0.004401
-0.004417
-0.004434
-0.004450
-0.004466
-0.004482
-0.004498
-0.004514
-0.004531
-0.004547
-0.004563
-0.004579
-0.004595
-0.004611
-0.004628
-0.004644
-0.004660
-0.004676
-0.004692
-0.004709
-0.004725
-0.004741
-0.004757
-0.004774
-0.004790
-0.004806
-0.004822
-0.004838
-0.004854
-0.004870
-0.004887
-0.004903
-0.004919
-0.004935
-0.004951
-0.004967
-0.004983
-0.004999
-0.005014
-0.005030
-0.005046
-0.005062
-0.005077
-0.005093
-0.005108
-0.005124
-0.005139
-0.005155
-0.005170
-0.005185
-0.005200
-0.005215
-0.005230
-0.005245
-0.005260
-0.005274
-0.005289
-0.005304
-0.005318
-0.005332
-0.005346
-0.005360
-0.005374
-0.005388
-0.005402
-0.005416
-0.005429
-0.005443
-0.005456
-0.005469
-0.005482
-0.005495
-0.005508
-0.005520
-0.005533
-0.005545
-0.005557
-0.005569
-0.005581
-0.005593
-0.005605
-0.005617
-0.005628
-0.005639
-0.005651
-0.005662
-0.005673
-0.005683
-0.005694
-0.005705
-0.005715
-0.005725
-0.005736
-0.005746
-0.005756
-0.006703
-0.006775
-0.006330
-0.005258
-0.005310
-0.005280
-0.007255
-0.007232
-0.007163
-0.006926
-0.007249
-0.006342
-0.006629
-0.006180
-0.006197
-0.006172
-0.006205
-0.005152
-0.005172
-0.005115
-0.008479
-0.008468
-0.008372
-0.008328
-0.005203
-0.007827
-0.007794
-0.007923
-0.005452
-0.005434
-0.005412
-0.007820
-0.007148
-0.007014
-0.007123
-0.005401
-0.008345
-0.008322
-0.008467
-0.008130
-0.006720
-0.006801
-0.006832
-0.005059
-0.005102
-0.005058
-0.008785
-0.008809
-0.008767
-0.005205
-0.005163
-0.005181
-0.008729
-0.008701
-0.008744
-0.005158
-0.008798
-0.008785
-0.008826
-0.007830
-0.007738
-0.007735
-0.005654
-0.005712
-0.005698
-0.005762
-0.008986
-0.009030
-0.008978
-0.009026
-0.007805
-0.008831
-0.008813
-0.008760
-0.008759
-0.006869
-0.008781
-0.008757
-0.008806
-0.006314
-0.006236
-0.006256
-0.005540
-0.005595
-0.005521
-0.005519
-0.006284
-0.008536
-0.008525
-0.008265
-0.008783
-0.008775
-0.008810
-0.008808
-0.006076
-0.006145
-0.006095
-0.006146
-0.008071
-0.008097
-0.008067
-0.005385
-0.005423
-0.005429
-0.005465
-0.007782
-0.007705
-0.007802
-0.007635
-0.005427
-0.012187
-0.012470
-0.012244
-0.005767
-0.012332
-0.006332
-0.006354
-0.006308
-0.007741
-0.007789
-0.007772
-0.008589
-0.008601
-0.008620
-0.005391
-0.005349
-0.006380
-0.008127
-0.008095
-0.005017
-0.007594
-0.006737
-0.007226
-0.005251
-0.008589
-0.008584
-0.008562
-0.006977
-0.006888
-0.006891
-0.007005
-0.008564
-0.008581
-0.008597
-0.010976
-0.010741
-0.010914
-0.010811
-0.011165
-0.010933
-0.010931
-0.009880
-0.009763
-0.009666
-0.011136
-0.008115
-0.007749
-0.007457
-0.006869
-0.007953
-0.008000
-0.008126
-0.007891
-0.005896
-0.005826
-0.005873
-0.005839
-0.006937
-0.006956
-0.006934
-0.004679
-0.004656
-0.004494
-0.008781
-0.008758
-0.008790
-0.008771
-0.005051
-0.005104
-0.005122
-0.004792
-0.011814
-0.011813
-0.012030
-0.011566
-0.006300
-0.006269
-0.006286
-0.006246
-0.007572
-0.007598
-0.007591
-0.006603
-0.006724
-0.006606
-0.007616
-0.011113
-0.010896
-0.011069
-0.007463
-0.007035
-0.006056
-0.006100
-0.006122
-0.005894
-0.005928
-0.005978
-0.009234
-0.009248
-0.009216
-0.010840
-0.007805
-0.007773
-0.007800
-0.007757
-0.008372
-0.008313
-0.008345
-0.008339
-0.008990
-0.008974
-0.008958
-0.008944
-0.008982
-0.008953
-0.009012
-0.008927
-0.007635
-0.007640
-0.007676
-0.007681
-0.007693
-0.007600
-0.009628
-0.009526
-0.009458
-0.009635
-0.005613
-0.005662
-0.005611
-0.009054
-0.009027
-0.009024
-0.009003
-0.008648
-0.008606
-0.008702
-0.008628
-0.007679
-0.008412
-0.008401
-0.008436
-0.009038
-0.009069
-0.009024
-0.009070
-0.008593
-0.008627
-0.008695
-0.008487
-0.008276
-0.008287
-0.008312
-0.007627
-0.007578
-0.007619
-0.008253
-0.008176
-0.008130
-0.008202
-0.006033
-0.007440
-0.007556
-0.007526
-0.008380
-0.008825
-0.008840
-0.008875
-0.008786
-0.008455
-0.008423
-0.008462
-0.008400
-0.008541
-0.008412
-0.008594
-0.006427
-0.006447
-0.006432
-0.008094
-0.008097
-0.008066
-0.007539
-0.007473
-0.007457
-0.007524
-0.006015
-0.006062
-0.006008
-0.006046
-0.007227
-0.007192
-0.007177
-0.009192
-0.009187
-0.009144
-0.009140
-0.005675
-0.005658
-0.005698
-0.011227
-0.011186
-0.011037
-0.005663
-0.011239
-0.011409
-0.011130
-0.011478
-0.009362
-0.009351
-0.009333
-0.009316
-0.008804
-0.008789
-0.008732
-0.008763
-0.007123
-0.007080
-0.007071
-0.007468
-0.007491
-0.007524
-0.007546
-0.005268
-0.005237
-0.005234
-0.008322
-0.008293
-0.008304
-0.006390
-0.006477
-0.006387
-0.006472
-0.009398
-0.009394
-0.009376
-0.009366
-0.006765
-0.006801
-0.006749
-0.006817
-0.009118
-0.008956
-0.009029
-0.008901
-0.006612
-0.006683
-0.006612
-0.006702
-0.006182
-0.006170
-0.006235
-0.006130
-0.007993
-0.007958
-0.008029
-0.007928
-0.008524
-0.008420
-0.008464
-0.006447
-0.009696
-0.009564
-0.009750
-0.009542
-0.010034
-0.009862
-0.009832
-0.010060
-0.013702
-0.014016
-0.013570
-0.007022
-0.007093
-0.006972
-0.008025
-0.008030
-0.008004
-0.009211
-0.009196
-0.009184
-0.006975
-0.007866
-0.007924
-0.007988
-0.007830
-0.006661
-0.006580
-0.006673
-0.006561
-0.009297
-0.009238
-0.009270
-0.009219
-0.008005
-0.007401
-0.007418
-0.007431
-0.009004
-0.009121
-0.008930
-0.006407
-0.006294
-0.006341
-0.008848
-0.008909
-0.008814
-0.007488
-0.007383
-0.007439
-0.008939
-0.005048
-0.005107
-0.005086
-0.005524
-0.005484
-0.005496
-0.008636
-0.008700
-0.008601
-0.008703
-0.008274
-0.008191
-0.008148
-0.007632
-0.007682
-0.007589
-0.008287
-0.006832
-0.006754
-0.006750
-0.007661
-0.007516
-0.008191
-0.008146
-0.008196
-0.006983
-0.006973
-0.006904
-0.008182
-0.008180
-0.008214
-0.008147
-0.007019
-0.006996
-0.007014
-0.006470
-0.006551
-0.006489
-0.006475
-0.007093
-0.007075
-0.008683
-0.008668
-0.008560
-0.005640
-0.005642
-0.005695
-0.008910
-0.008864
-0.008761
-0.007407
-0.007442
-0.007506
-0.007595
-0.007051
-0.007028
-0.007121
-0.006975
-0.008256
-0.008251
-0.008293
-0.008286
-0.005683
-0.005691
-0.005745
-0.005949
-0.005909
-0.005971
-0.005914
-0.006196
-0.006148
-0.006229
-0.005744
-0.007104
-0.007146
-0.007142
-0.007012
-0.007035
-0.007020
-0.007019
-0.007031
-0.007030
-0.007064
-0.006994
-0.008427
-0.008439
-0.008456
-0.008021
-0.007994
-0.008004
-0.008247
-0.008235
-0.008113
-0.007825
-0.007887
-0.007888
-0.007952
-0.007028
-0.006987
-0.006872
-0.007977
-0.008364
-0.008380
-0.008361
-0.008587
-0.008609
-0.008593
-0.008618
-0.008379
-0.007420
-0.007443
-0.007400
-0.007473
-0.005985
-0.005905
-0.005940
-0.009570
-0.009595
-0.009585
-0.009592
-0.007259
-0.007248
-0.007289
-0.007216
-0.008813
-0.008789
-0.008827
-0.008948
-0.008879
-0.008938
-0.005736
-0.006426
-0.005676
-0.008789
-0.009487
-0.009464
-0.009484
-0.008581
-0.008556
-0.009445
-0.009383
-0.009344
-0.006351
-0.009050
-0.009110
-0.008977
-0.009267
-0.009254
-0.006953
-0.006859
-0.006873
-0.009143
-0.009004
-0.009003
-0.009035
-0.009941
-0.009806
-0.010007
-0.009823
-0.005686
-0.005695
-0.005650
-0.008674
-0.008683
-0.008704
-0.008726
-0.009364
-0.009363
-0.009276
-0.005738
-0.009182
-0.009213
-0.009121
-0.007975
-0.007960
-0.007862
-0.008243
-0.008215
-0.009059
-0.009030
-0.009004
-0.007052
-0.007032
-0.007053
-0.007401
-0.007357
-0.007381
-0.009373
-0.009272
-0.009379
-0.007032
-0.005514
-0.005543
-0.005473
-0.008397
-0.008395
-0.008284
-0.008494
-0.009310
-0.009267
-0.009416
-0.009204
-0.009125
-0.006731
-0.006770
-0.006670
-0.007317
-0.007290
-0.007301
-0.007274
-0.005517
-0.005569
-0.005510
-0.007195
-0.007163
-0.007065
-0.005575
-0.005583
-0.005563
-0.005568
-0.005538
-0.005610
-0.006134
-0.006159
-0.006162
-0.008746
-0.008725
-0.008758
-0.008052
-0.008331
-0.007798
-0.008587
-0.008727
-0.008395
-0.008424
-0.008342
-0.008092
-0.008060
-0.008048
-0.008021
-0.009090
-0.009119
-0.009100
-0.009136
-0.009208
-0.009230
-0.009220
-0.006369
-0.006365
-0.006440
-0.007475
-0.007355
-0.007327
-0.005402
-0.005398
-0.005340
-0.008691
-0.008636
-0.008698
-0.008783
-0.005319
-0.005413
-0.005465
-0.009226
-0.006189
-0.007240
-0.007241
-0.007259
-0.008109
-0.008148
-0.008186
-0.008199
-0.008390
-0.008395
-0.008323
-0.007265
-0.005576
-0.005529
-0.005567
-0.007721
-0.007701
-0.007737
-0.007733
-0.008340
-0.008552
-0.008397
-0.008799
-0.008733
-0.008723
-0.007951
-0.007989
-0.007990
-0.007767
-0.007753
-0.007718
-0.007801
-0.009012
-0.009039
-0.009045
-0.009063
-0.005450
-0.005429
-0.005469
-0.008234
-0.008173
-0.008270
-0.006040
-0.006011
-0.006040
-0.007524
-0.007499
-0.007493
-0.007462
-0.006016
-0.007749
-0.007779
-0.007786
-0.007821
-0.011788
-0.011579
-0.012052
-0.005725
-0.005663
-0.005660
-0.008879
-0.008885
-0.008910
-0.008857
-0.006330
-0.006306
-0.006318
-0.005720
-0.008936
-0.008960
-0.008937
-0.008479
-0.008530
-0.008493
-0.008498
-0.009163
-0.009104
-0.008918
-0.006292
-0.006113
-0.006148
-0.006124
-0.007224
-0.007269
-0.007304
-0.008403
-0.008389
-0.008418
-0.008403
-0.006154
-0.005712
-0.005690
-0.005682
-0.008547
-0.008614
-0.008579
-0.008657
-0.007185
-0.009370
-0.009396
-0.009348
-0.009427
-0.007919
-0.007934
-0.007907
-0.007946
-0.007912
-0.007882
-0.007882
-0.008324
-0.008264
-0.008255
-0.008358
-0.007335
-0.007393
-0.007384
-0.007452
-0.007163
-0.007109
-0.008689
-0.008664
-0.008691
-0.006756
-0.006776
-0.006798
-0.006728
-0.006831
-0.006839
-0.008727
-0.008264
-0.008206
-0.008662
-0.005727
-0.007262
-0.007324
-0.007287
-0.005212
-0.005090
-0.005471
-0.007192
-0.008949
-0.008979
-0.008987
-0.004705
-0.009007
-0.007172
-0.007097
-0.007098
-0.007252
-0.007195
-0.007309
-0.008710
-0.008683
-0.008706
-0.008283
-0.008235
-0.008255
-0.007843
-0.007936
-0.007844
-0.007191
-0.007146
-0.007190
-0.005601
-0.005553
-0.005543
-0.007933
-0.008453
-0.008474
-0.008479
-0.008501
-0.007068
-0.007128
-0.007212
-0.007123
-0.007465
-0.007428
-0.007436
-0.009353
-0.009255
-0.009305
-0.009177
-0.009292
-0.009432
-0.009482
-0.006952
-0.006929
-0.006900
-0.006879
-0.007898
-0.007923
-0.007916
-0.006972
-0.006909
-0.006927
-0.009689
-0.007484
-0.007451
-0.007493
-0.007436
-0.008919
-0.008885
-0.008902
-0.006871
-0.009233
-0.009207
-0.009191
-0.007393
-0.005403
-0.007541
-0.007541
-0.007174
-0.007862
-0.008169
-0.008170
-0.008197
-0.008207
-0.008907
-0.008949
-0.008898
-0.008952
-0.009225
-0.009263
-0.009387
-0.009081
-0.009382
-0.009263
-0.009353
-0.007673
-0.007662
-0.007633
-0.007629
-0.005459
-0.006643
-0.006665
-0.006635
-0.006662
-0.008779
-0.008824
-0.008790
-0.005321
-0.005271
-0.005283
-0.006636
-0.006723
-0.006608
-0.007619
-0.007729
-0.007700
-0.008373
-0.008323
-0.008324
-0.007842
-0.008043
-0.008040
-0.006885
-0.006638
-0.007625
-0.007669
-0.007652
-0.008850
-0.008814
-0.008831
-0.008019
-0.008014
-0.005322
-0.006290
-0.005978
-0.007432
-0.007481
-0.007417
-0.009557
-0.009693
-0.009734
-0.009882
-0.005903
-0.005847
-0.005802
-0.008390
-0.008346
-0.008347
-0.007794
-0.007819
-0.007798
-0.008795
-0.008759
-0.008811
-0.007160
-0.007169
-0.007043
-0.013371
-0.013175
-0.012947
-0.009346
-0.009223
-0.009092
-0.009068
-0.009074
-0.009050
-0.007759
-0.007780
-0.007760
-0.012866
-0.007777
-0.007818
-0.008744
-0.008802
-0.009173
-0.009188
-0.009040
-0.008835
-0.007717
-0.007004
-0.006633
-0.006742
-0.006797
-0.006779
-0.008449
-0.008465
-0.008476
-0.008757
-0.008723
-0.008739
-0.005544
-0.005510
-0.005507
-0.010196
-0.010328
-0.010508
-0.007743
-0.007783
-0.007740
-0.008462
-0.008443
-0.008436
-0.008573
-0.008541
-0.008519
-0.008508
-0.007339
-0.007378
-0.006662
-0.006677
-0.006716
-0.007275
-0.007302
-0.007311
-0.007347
-0.006828
-0.006853
-0.006860
-0.008259
-0.007897
-0.008464
-0.008903
-0.008871
-0.008843
-0.010047
-0.007780
-0.007777
-0.007883
-0.006726
-0.006683
-0.006695
-0.007719
-0.007551
-0.007676
-0.007483
-0.009029
-0.008995
-0.009018
-0.008671
-0.008636
-0.008652
-0.008073
-0.008092
-0.008098
-0.008117
-0.012471
-0.012067
-0.012352
-0.008422
-0.008339
-0.008307
-0.008225
-0.008870
-0.008916
-0.011939
-0.007830
-0.007857
-0.007826
-0.006817
-0.012815
-0.012518
-0.008607
-0.006436
-0.006390
-0.006363
-0.011406
-0.011390
-0.007890
-0.007904
-0.007922
-0.007935
-0.008947
-0.008917
-0.008933
-0.006900
-0.006943
-0.006910
-0.007339
-0.007386
-0.008791
-0.008775
-0.008799
-0.007698
-0.007706
-0.007726
-0.006303
-0.007745
-0.007688
-0.007666
-0.008398
-0.008352
-0.007652
-0.007328
-0.007369
-0.007377
-0.007411
-0.010831
-0.010912
-0.008832
-0.008810
-0.008802
-0.008627
-0.008659
-0.008643
-0.008251
-0.008229
-0.008209
-0.008302
-0.010693
-0.008370
-0.008323
-0.008985
-0.008964
-0.008967
-0.008942
-0.008595
-0.008559
-0.008575
-0.008686
-0.008592