# vtk DataFile Version 2.0
Test
ASCII
DATASET POLYDATA
POINTS 26238 float
0.000000 0.000000 0.000000
2.000000 0.000000 0.000000
2.000000 4.000000 0.000000
0.000000 4.000000 0.000000
0.000000 0.500000 0.000000
1.500000 2.000000 0.000000
2.000000 2.500000 0.000000
0.100000 0.000000 0.000000
0.200000 0.000000 0.000000
0.300000 0.000000 0.000000
0.400000 0.000000 0.000000
0.500000 0.000000 0.000000
0.600000 0.000000 0.000000
0.700000 0.000000 0.000000
0.800000 0.000000 0.000000
0.900000 0.000000 0.000000
1.000000 0.000000 0.000000
1.100000 0.000000 0.000000
1.200000 0.000000 0.000000
1.300000 0.000000 0.000000
1.400000 0.000000 0.000000
1.500000 0.000000 0.000000
1.600000 0.000000 0.000000
1.700000 0.000000 0.000000
1.800000 0.000000 0.000000
1.900000 0.000000 0.000000
2.000000 0.097923 0.000000
2.000000 0.192202 0.000000
2.000000 0.282973 0.000000
2.000000 0.370366 0.000000
2.000000 0.454507 0.000000
2.000000 0.535518 0.000000
2.000000 0.613513 0.000000
2.000000 0.688607 0.000000
2.000000 0.760906 0.000000
2.000000 0.830515 0.000000
2.000000 0.897534 0.000000
2.000000 0.962059 0.000000
2.000000 1.024183 0.000000
2.000000 1.083995 0.000000
2.000000 1.141582 0.000000
2.000000 1.197026 0.000000
2.000000 1.250406 0.000000
2.000000 1.301801 0.000000
2.000000 1.351283 0.000000
2.000000 1.398923 0.000000
2.000000 1.444791 0.000000
2.000000 1.488953 0.000000
2.000000 1.531470 0.000000
2.000000 1.572406 0.000000
2.000000 1.611819 0.000000
2.000000 1.649765 0.000000
2.000000 1.686299 0.000000
2.000000 1.721473 0.000000
2.000000 1.755339 0.000000
2.000000 1.787944 0.000000
2.000000 1.819337 0.000000
2.000000 1.849561 0.000000
2.000000 1.878660 0.000000
2.000000 1.906677 0.000000
2.000000 1.933651 0.000000
2.000000 1.959621 0.000000
2.000000 1.984625 0.000000
2.000000 2.008699 0.000000
2.000000 2.031877 0.000000
2.000000 2.054192 0.000000
2.000000 2.075677 0.000000
2.000000 2.096362 0.000000
2.000000 2.116278 0.000000
2.000000 2.135453 0.000000
2.000000 2.153914 0.000000
2.000000 2.171688 0.000000
2.000000 2.188801 0.000000
2.000000 2.205277 0.000000
2.000000 2.221140 0.000000
2.000000 2.236413 0.000000
2.000000 2.251117 0.000000
2.000000 2.265274 0.000000
2.000000 2.278905 0.000000
2.000000 2.292028 0.000000
2.000000 2.304663 0.000000
2.000000 2.316828 0.000000
2.000000 2.328540 0.000000
2.000000 2.339816 0.000000
2.000000 2.350673 0.000000
2.000000 2.361126 0.000000
2.000000 2.371189 0.000000
2.000000 2.380879 0.000000
2.000000 2.390207 0.000000
2.000000 2.399189 0.000000
2.000000 2.407836 0.000000
2.000000 2.416162 0.000000
2.000000 2.424178 0.000000
2.000000 2.431895 0.000000
2.000000 2.439326 0.000000
2.000000 2.446480 0.000000
2.000000 2.453367 0.000000
2.000000 2.459999 0.000000
2.000000 2.466383 0.000000
2.000000 2.472530 0.000000
2.000000 2.478449 0.000000
2.000000 2.484147 0.000000
2.000000 2.489633 0.000000
2.000000 2.494915 0.000000
2.000000 2.505084 0.000000
2.000000 2.510496 0.000000
2.000000 2.516256 0.000000
2.000000 2.522387 0.000000
2.000000 2.528913 0.000000
2.000000 2.535859 0.000000
2.000000 2.543253 0.000000
2.000000 2.551122 0.000000
2.000000 2.559499 0.000000
2.000000 2.568415 0.000000
2.000000 2.577905 0.000000
2.000000 2.588006 0.000000
2.000000 2.598758 0.000000
2.000000 2.610202 0.000000
2.000000 2.622383 0.000000
2.000000 2.635349 0.000000
2.000000 2.649149 0.000000
2.000000 2.663839 0.000000
2.000000 2.679474 0.000000
2.000000 2.696116 0.000000
2.000000 2.713831 0.000000
2.000000 2.732685 0.000000
2.000000 2.752754 0.000000
2.000000 2.774116 0.000000
2.000000 2.796853 0.000000
2.000000 2.821055 0.000000
2.000000 2.846815 0.000000
2.000000 2.874234 0.000000
2.000000 2.903419 0.000000
2.000000 2.934483 0.000000
2.000000 2.967548 0.000000
2.000000 3.002742 0.000000
2.000000 3.040202 0.000000
2.000000 3.080076 0.000000
2.000000 3.122517 0.000000
2.000000 3.167691 0.000000
2.000000 3.215774 0.000000
2.000000 3.266954 0.000000
2.000000 3.321430 0.000000
2.000000 3.379414 0.000000
2.000000 3.441132 0.000000
2.000000 3.506825 0.000000
2.000000 3.576749 0.000000
2.000000 3.651175 0.000000
2.000000 3.730395 0.000000
2.000000 3.814717 0.000000
2.000000 3.904468 0.000000
1.900000 4.000000 0.000000
1.800000 4.000000 0.000000
1.700000 4.000000 0.000000
1.600000 4.000000 0.000000
1.500000 4.000000 0.000000
1.400000 4.000000 0.000000
1.300000 4.000000 0.000000
1.200000 4.000000 0.000000
1.100000 4.000000 0.000000
1.000000 4.000000 0.000000
0.900000 4.000000 0.000000
0.800000 4.000000 0.000000
0.700000 4.000000 0.000000
0.600000 4.000000 0.000000
0.500000 4.000000 0.000000
0.400000 4.000000 0.000000
0.300000 4.000000 0.000000
0.200000 4.000000 0.000000
0.100000 4.000000 0.000000
0.000000 3.901898 0.000000
0.000000 3.806409 0.000000
0.000000 3.713462 0.000000
0.000000 3.622990 0.000000
0.000000 3.534927 0.000000
0.000000 3.449209 0.000000
0.000000 3.365773 0.000000
0.000000 3.284559 0.000000
0.000000 3.205508 0.000000
0.000000 3.128561 0.000000
0.000000 3.053664 0.000000
0.000000 2.980761 0.000000
0.000000 2.909799 0.000000
0.000000 2.840727 0.000000
0.000000 2.773493 0.000000
0.000000 2.708051 0.000000
0.000000 2.644350 0.000000
0.000000 2.582346 0.000000
0.000000 2.521993 0.000000
0.000000 2.463247 0.000000
0.000000 2.406065 0.000000
0.000000 2.350406 0.000000
0.000000 2.296229 0.000000
0.000000 2.243495 0.000000
0.000000 2.192165 0.000000
0.000000 2.142201 0.000000
0.000000 2.093568 0.000000
0.000000 2.046230 0.000000
0.000000 2.000153 0.000000
0.000000 1.955302 0.000000
0.000000 1.911646 0.000000
0.000000 1.869152 0.000000
0.000000 1.827789 0.000000
0.000000 1.787528 0.000000
0.000000 1.748339 0.000000
0.000000 1.710194 0.000000
0.000000 1.673064 0.000000
0.000000 1.636923 0.000000
0.000000 1.601745 0.000000
0.000000 1.567503 0.000000
0.000000 1.534172 0.000000
0.000000 1.501730 0.000000
0.000000 1.470151 0.000000
0.000000 1.439413 0.000000
0.000000 1.409494 0.000000
0.000000 1.380371 0.000000
0.000000 1.352024 0.000000
0.000000 1.324431 0.000000
0.000000 1.297573 0.000000
0.000000 1.271431 0.000000
0.000000 1.245984 0.000000
0.000000 1.221215 0.000000
0.000000 1.197106 0.000000
0.000000 1.173639 0.000000
0.000000 1.150796 0.000000
0.000000 1.128562 0.000000
0.000000 1.106920 0.000000
0.000000 1.085854 0.000000
0.000000 1.065349 0.000000
0.000000 1.045390 0.000000
0.000000 1.025962 0.000000
0.000000 1.007052 0.000000
0.000000 0.988645 0.000000
0.000000 0.970729 0.000000
0.000000 0.953289 0.000000
0.000000 0.936314 0.000000
0.000000 0.919791 0.000000
0.000000 0.903708 0.000000
0.000000 0.888053 0.000000
0.000000 0.872815 0.000000
0.000000 0.857983 0.000000
0.000000 0.843545 0.000000
0.000000 0.829492 0.000000
0.000000 0.815814 0.000000
0.000000 0.802499 0.000000
0.000000 0.789539 0.000000
0.000000 0.776925 0.000000
0.000000 0.764646 0.000000
0.000000 0.752694 0.000000
0.000000 0.741060 0.000000
0.000000 0.729736 0.000000
0.000000 0.718714 0.000000
0.000000 0.707985 0.000000
0.000000 0.697541 0.000000
0.000000 0.687376 0.000000
0.000000 0.677482 0.000000
0.000000 0.667851 0.000000
0.000000 0.658476 0.000000
0.000000 0.649351 0.000000
0.000000 0.640469 0.000000
0.000000 0.631824 0.000000
0.000000 0.623409 0.000000
0.000000 0.615217 0.000000
0.000000 0.607244 0.000000
0.000000 0.599484 0.000000
0.000000 0.591929 0.000000
0.000000 0.584577 0.000000
0.000000 0.577419 0.000000
0.000000 0.570453 0.000000
0.000000 0.563672 0.000000
0.000000 0.557071 0.000000
0.000000 0.550646 0.000000
0.000000 0.544393 0.000000
0.000000 0.538306 0.000000
0.000000 0.532380 0.000000
0.000000 0.526613 0.000000
0.000000 0.520999 0.000000
0.000000 0.515535 0.000000
0.000000 0.510216 0.000000
0.000000 0.505039 0.000000
0.000000 0.494581 0.000000
0.000000 0.488047 0.000000
0.000000 0.480167 0.000000
0.000000 0.470665 0.000000
0.000000 0.459206 0.000000
0.000000 0.445387 0.000000
0.000000 0.428723 0.000000
0.000000 0.408628 0.000000
0.000000 0.384395 0.000000
0.000000 0.355172 0.000000
0.000000 0.319933 0.000000
0.000000 0.277436 0.000000
0.000000 0.226190 0.000000
0.000000 0.164392 0.000000
0.000000 0.089868 0.000000
0.003529 0.503529 0.000000
0.007059 0.507059 0.000000
0.010588 0.510588 0.000000
0.014118 0.514118 0.000000
0.017647 0.517647 0.000000
0.021176 0.521176 0.000000
0.024706 0.524706 0.000000
0.028235 0.528235 0.000000
0.031765 0.531765 0.000000
0.035294 0.535294 0.000000
0.038824 0.538824 0.000000
0.042353 0.542353 0.000000
0.045882 0.545882 0.000000
0.049412 0.549412 0.000000
0.052941 0.552941 0.000000
0.056471 0.556471 0.000000
0.060000 0.560000 0.000000
0.063529 0.563529 0.000000
0.067059 0.567059 0.000000
0.070588 0.570588 0.000000
0.074118 0.574118 0.000000
0.077647 0.577647 0.000000
0.081176 0.581176 0.000000
0.084706 0.584706 0.000000
0.088235 0.588235 0.000000
0.091765 0.591765 0.000000
0.095294 0.595294 0.000000
0.098824 0.598824 0.000000
0.102353 0.602353 0.000000
0.105882 0.605882 0.000000
0.109412 0.609412 0.000000
0.112941 0.612941 0.000000
0.116471 0.616471 0.000000
0.120000 0.620000 0.000000
0.123529 0.623529 0.000000
0.127059 0.627059 0.000000
0.130588 0.630588 0.000000
0.134118 0.634118 0.000000
0.137647 0.637647 0.000000
0.141176 0.641176 0.000000
0.144706 0.644706 0.000000
0.148235 0.648235 0.000000
0.151765 0.651765 0.000000
0.155294 0.655294 0.000000
0.158824 0.658824 0.000000
0.162353 0.662353 0.000000
0.165882 0.665882 0.000000
0.169412 0.669412 0.000000
0.172941 0.672941 0.000000
0.176471 0.676471 0.000000
0.180000 0.680000 0.000000
0.183529 0.683529 0.000000
0.187059 0.687059 0.000000
0.190588 0.690588 0.000000
0.194118 0.694118 0.000000
0.197647 0.697647 0.000000
0.201176 0.701176 0.000000
0.204706 0.704706 0.000000
0.208235 0.708235 0.000000
0.211765 0.711765 0.000000
0.215294 0.715294 0.000000
0.218824 0.718824 0.000000
0.222353 0.722353 0.000000
0.225882 0.725882 0.000000
0.229412 0.729412 0.000000
0.232941 0.732941 0.000000
0.236471 0.736471 0.000000
0.240000 0.740000 0.000000
0.243529 0.743529 0.000000
0.247059 0.747059 0.000000
0.250588 0.750588 0.000000
0.254118 0.754118 0.000000
[...]
POINT_DATA 26238
SCALARS UX float 1
LOOKUP_TABLE default
-0.000000
0.000000
-0.015924
-0.022281
-0.004365
-0.004243
-0.007108
-0.000000
-0.000000
-0.000000
-0.000000
-0.000000
-0.000000
-0.000000
-0.000000
-0.000000
-0.000000
0.000000
0.000000
0.000000
0.000000
0.000000
0.000000
0.000000
0.000000
0.000000
0.001033
0.001624
0.002040
0.002333
0.002550
0.002707
0.002814
0.002884
0.002926
0.002942
0.002939
0.002919
0.002883
0.002834
0.002772
0.002698
0.002617
0.002522
0.002418
0.002304
0.002179
0.002042
0.001893
0.001731
0.001557
0.001369
0.001165
0.000948
0.000717
0.000472
0.000213
-0.000055
-0.000331
-0.000618
-0.000906
-0.001198
-0.001488
-0.001777
-0.002060
-0.002338
-0.002607
-0.002866
-0.003115
-0.003355
-0.003584
-0.003801
-0.004008
-0.004205
-0.004391
-0.004567
-0.004734
-0.004892
-0.005041
-0.005183
-0.005317
-0.005443
-0.005563
-0.005677
-0.005784
-0.005886
-0.005983
-0.006075
-0.006162
-0.006245
-0.006324
-0.006399
-0.006471
-0.006539
-0.006603
-0.006665
-0.006724
-0.006780
-0.006834
-0.006885
-0.006934
-0.006980
-0.007025
-0.007068
-0.007149
-0.007192
-0.007237
-0.007285
-0.007336
-0.007389
-0.007445
-0.007505
-0.007567
-0.007633
-0.007703
-0.007776
-0.007853
-0.007935
-0.008020
-0.008110
-0.008204
-0.008304
-0.008408
-0.008517
-0.008632
-0.008753
-0.008880
-0.009013
-0.009153
-0.009300
-0.009455
-0.009617
-0.009788
-0.009968
-0.010158
-0.010358
-0.010570
-0.010792
-0.011028
-0.011278
-0.011544
-0.011824
-0.012124
-0.012442
-0.012782
-0.013145
-0.013533
-0.013947
-0.014391
-0.014868
-0.015378
-0.016256
-0.016588
-0.016917
-0.017243
-0.017564
-0.017879
-0.018189
-0.018495
-0.018797
-0.019098
-0.019399
-0.019703
-0.020010
-0.020322
-0.020639
-0.020961
-0.021288
-0.021618
-0.021950
-0.021738
-0.021207
-0.020687
-0.020178
-0.019679
-0.019191
-0.018715
-0.018251
-0.017802
-0.017365
-0.016943
-0.016537
-0.016148
-0.015774
-0.015418
-0.015079
-0.014758
-0.014456
-0.014173
-0.013908
-0.013662
-0.013434
-0.013224
-0.013031
-0.012855
-0.012696
-0.012553
-0.012424
-0.012309
-0.012206
-0.012115
-0.012034
-0.011966
-0.011904
-0.011853
-0.011809
-0.011771
-0.011740
-0.011714
-0.011693
-0.011676
-0.011664
-0.011655
-0.011647
-0.011644
-0.011642
-0.011642
-0.011643
-0.011646
-0.011651
-0.011655
-0.011661
-0.011667
-0.011674
-0.011681
-0.011688
-0.011696
-0.011703
-0.011710
-0.011718
-0.011725
-0.011732
-0.011739
-0.011746
-0.011752
-0.011758
-0.011763
-0.011768
-0.011773
-0.011777
-0.011780
-0.011783
-0.011785
-0.011787
-0.011789
-0.011790
-0.011790
-0.011792
-0.011793
-0.011792
-0.011791
-0.011788
-0.011785
-0.011781
-0.011776
-0.011769
-0.011761
-0.011752
-0.011742
-0.011730
-0.011717
-0.011703
-0.011687
-0.011671
-0.011654
-0.011634
-0.011612
-0.011589
-0.011570
-0.011550
-0.011517
-0.011476
-0.011419
-0.011337
-0.011231
-0.011195
-0.010873
-0.010757
-0.009796
-0.008728
-0.003417
-0.003177
-0.002951
-0.002833
-0.002720
-0.002629
-0.002548
-0.002468
-0.002385
-0.002288
-0.002173
-0.002017
-0.001793
-0.001472
-0.000985
-0.006553
-0.006498
-0.006505
-0.006451
-0.006288
-0.006312
-0.006418
-0.006466
-0.006457
-0.006548
-0.006501
-0.006703
-0.006739
-0.006688
-0.006773
-0.006801
-0.006697
-0.006837
-0.006866
-0.006852
-0.006830
-0.006841
-0.006032
-0.006679
-0.006570
-0.006474
-0.006525
-0.006460
-0.006469
-0.006455
-0.006423
-0.006437
-0.006432
-0.006367
-0.006312
-0.006429
-0.006424
-0.006490
-0.006573
-0.006447
-0.006385
-0.006431
-0.006376
-0.006315
-0.006270
-0.006213
-0.006264
-0.006171
-0.006162
-0.006272
-0.006270
-0.006855
-0.006744
-0.006680
-0.006654
-0.006544
-0.006617
-0.006445
-0.006564
-0.006982
-0.006421
-0.006496
-0.006528
-0.006516
-0.006550
-0.006584
-0.006647
-0.006658
-0.006622
-0.006646
-0.006576
-0.006521
-0.006565
-0.006526
-0.006215
-0.006184
-0.006698
-0.006611
-0.006599
-0.006577
-0.006560
-0.006528
-0.006521
-0.006544
-0.006472
-0.006530
-0.006567
-0.006556
-0.006577
-0.006553
-0.006558
-0.006568
-0.006551
-0.006524
-0.006470
-0.006475
-0.006419
-0.006393
-0.006413
-0.006371
-0.006326
-0.006370
-0.006340
-0.006354
-0.006340
-0.006410
-0.006445
-0.006394
-0.006394
-0.006356
-0.006412
-0.006377
-0.006352
-0.006337
-0.006296
-0.006351
-0.006337
-0.006319
-0.006399
-0.006394
-0.006405
-0.006409
-0.006374
-0.006426
-0.006391
-0.006349
-0.006608
-0.006520
-0.006510
-0.006569
-0.006474
-0.006522
-0.006543
-0.006383
-0.006375
-0.006333
-0.006281
-0.006262
-0.006190
-0.006090
-0.006096
-0.006127
-0.006089
-0.006078
-0.006165
-0.006067
-0.006034
-0.006023
-0.006055
-0.006045
-0.005976
-0.005893
-0.005845
-0.005780
-0.005806
-0.005731
-0.005786
-0.005748
-0.005715
-0.005681
-0.005724
-0.005650
-0.005659
-0.005670
-0.005668
-0.005673
-0.005656
-0.005627
-0.005569
-0.005548
-0.005485
-0.005514
-0.005453
-0.005386
-0.005396
-0.005330
-0.005349
-0.005308
-0.005326
-0.005361
-0.005244
-0.005393
-0.005341
-0.005331
-0.005330
-0.005355
-0.005295
-0.005193
-0.005246
-0.005209
-0.005241
-0.005180
-0.005185
-0.005165
-0.005215
-0.005177
-0.005129
-0.005677
-0.005586
-0.005558
-0.005566
-0.005590
-0.005537
-0.005519
-0.005500
-0.005452
-0.005486
-0.005426
-0.005401
-0.005413
-0.005343
-0.005343
-0.005358
-0.005365
-0.005295
-0.005335
-0.005294
-0.005246
-0.005270
-0.005309
-0.005252
-0.005281
-0.005255
-0.005215
-0.005241
-0.005193
-0.005096
-0.005110
-0.005119
-0.005148
-0.005132
-0.005217
-0.005212
-0.005292
-0.005193
-0.005203
-0.005195
-0.005084
-0.005191
-0.005239
-0.005235
-0.005189
-0.005150
-0.005124
-0.005167
-0.005009
-0.005112
-0.005075
-0.005074
-0.005073
-0.005052
-0.004938
-0.005046
-0.004960
-0.004922
-0.004950
-0.004858
-0.004765
-0.004823
-0.004731
-0.004713
-0.004711
-0.004669
-0.004629
-0.004721
-0.004710
-0.004648
-0.004658
-0.004675
-0.004719
-0.004707
-0.004696
-0.004638
-0.004578
-0.004571
-0.004593
-0.004632
-0.004623
-0.004557
-0.004548
-0.004527
-0.004549
-0.004515
-0.004489
-0.004513
-0.004785
-0.004882
-0.004802
-0.004746
-0.004728
-0.004723
-0.004770
-0.004705
-0.004620
-0.004652
-0.004583
-0.004623
-0.004589
-0.004638
-0.004662
-0.004692
-0.004584
-0.004593
-0.004608
-0.004603
-0.004606
-0.004592
-0.004550
-0.004581
-0.004684
-0.004672
-0.004676
-0.004658
-0.004549
-0.004460
-0.004538
-0.004526
-0.004513
-0.004533
-0.004456
-0.004463
-0.004408
-0.004419
-0.004259
-0.004332
-0.004408
-0.004337
-0.004323
-0.004245
-0.004283
-0.004312
-0.004285
-0.004225
-0.004233
-0.004257
-0.004226
-0.004220
-0.004364
-0.004376
-0.004361
-0.004405
-0.004397
-0.004379
-0.004336
-0.004307
-0.004290
-0.004277
-0.004260
-0.004188
-0.004164
-0.004176
-0.004077
-0.004022
-0.004105
-0.004020
-0.004018
-0.004000
-0.003904
-0.003970
-0.003993
-0.003975
-0.004032
-0.004014
-0.004060
-0.004097
-0.004128
-0.004142
-0.004142
-0.004149
-0.004168
-0.004130
-0.004142
-0.004237
-0.004233
-0.004249
-0.004248
-0.004275
-0.004284
-0.004241
-0.004230
-0.004221
-0.004249
-0.004258
-0.004184
-0.004262
-0.004214
-0.004214
-0.004233
-0.004377
-0.004355
-0.004317
-0.004283
-0.004286
-0.004367
-0.004385
-0.004401
-0.004409
-0.004402
-0.004423
-0.004401
-0.004416
-0.004407
-0.004418
-0.004412
-0.004397
-0.004393
-0.004381
-0.004384
-0.004378
-0.004375
-0.004387
-0.004402
-0.004421
-0.004430
-0.004404
-0.004388
-0.004384
-0.004376
-0.004371
-0.004369
-0.004359
-0.004347
-0.004320
-0.004289
-0.004229
-0.004268
-0.004311
-0.004356
-0.004397
-0.004436
-0.004474
-0.004511
-0.004545
-0.004579
-0.004611
-0.004641
-0.004670
-0.004698
-0.004725
-0.004752
-0.004779
-0.004804
-0.004828
-0.004852
-0.004876
-0.004900
-0.004922
-0.004946
-0.004971
-0.004995
-0.005018
-0.005041
-0.005063
-0.005085
-0.005107
-0.005128
-0.005149
-0.005170
-0.005191
-0.005211
-0.005231
-0.005252
-0.005272
-0.005292
-0.005312
-0.005333
-0.005352
-0.005372
-0.005392
-0.005412
-0.005432
-0.005452
-0.005472
-0.005492
-0.005511
-0.005531
-0.005551
-0.005571
-0.005591
-0.005611
-0.005631
-0.005651
-0.005670
-0.005690
-0.005710
-0.005730
-0.005750
-0.005770
-0.005790
-0.005810
-0.005830
-0.005850
-0.005869
-0.005889
-0.005909
-0.005929
-0.005949
-0.005969
-0.005989
-0.006008
-0.006028
-0.006048
-0.006068
-0.006087
-0.006107
-0.006127
-0.006146
-0.006166
-0.006185
-0.006204
-0.006224
-0.006243
-0.006262
-0.006281
-0.006300
-0.006319
-0.006338
-0.006357
-0.006376
-0.006395
-0.006413
-0.006432
-0.006450
-0.006468
-0.006486
-0.006504
-0.006522
-0.006540
-0.006558
-0.006575
-0.006593
-0.006610
-0.006627
-0.006644
-0.006661
-0.006678
-0.006695
-0.006711
-0.006727
-0.006743
-0.006759
-0.006775
-0.006791
-0.006807
-0.006822
-0.006837
-0.006852
-0.006867
-0.006882
-0.006896
-0.006911
-0.006925
-0.006939
-0.006953
-0.006967
-0.006981
-0.006994
-0.007007
-0.007021
-0.007034
-0.007046
-0.007059
-0.007072
-0.007084
-0.007096
-0.008175
-0.008258
-0.007723
-0.006484
-0.006547
-0.006511
-0.008906
-0.008877
-0.008794
-0.008452
-0.008839
-0.007644
-0.008010
-0.007590
-0.007612
-0.007581
-0.007620
-0.006353
-0.006377
-0.006308
-0.010347
-0.010341
-0.010231
-0.010184
-0.006416
-0.009616
-0.009575
-0.009733
-0.006722
-0.006700
-0.006674
-0.009607
-0.008781
-0.008617
-0.008750
-0.006660
-0.010189
-0.010140
-0.010318
-0.009932
-0.008226
-0.008328
-0.008363
-0.006240
-0.006291
-0.006239
-0.010703
-0.010733
-0.010680
-0.006419
-0.006367
-0.006389
-0.010633
-0.010600
-0.010652
-0.006361
-0.010736
-0.010717
-0.010767
-0.009613
-0.009501
-0.009497
-0.006968
-0.007039
-0.007021
-0.007100
-0.010934
-0.010984
-0.010920
-0.010983
-0.009583
-0.010770
-0.010754
-0.010694
-0.010692
-0.008411
-0.010727
-0.010700
-0.010759
-0.007773
-0.007678
-0.007702
-0.006828
-0.006894
-0.006804
-0.006801
-0.007736
-0.010321
-0.010320
-0.009962
-0.010716
-0.010707
-0.010749
-0.010747
-0.007462
-0.007546
-0.007484
-0.007546
-0.009861
-0.009891
-0.009854
-0.006640
-0.006686
-0.006693
-0.006738
-0.009540
-0.009447
-0.009566
-0.009361
-0.006691
-0.014944
-0.015289
-0.015011
-0.007107
-0.015122
-0.007772
-0.007798
-0.007742
-0.009477
-0.009535
-0.009514
-0.010485
-0.010500
-0.010523
-0.006647
-0.006595
-0.007830
-0.009929
-0.009889
-0.006187
-0.009421
-0.008369
-0.009062
-0.006475
-0.010481
-0.010478
-0.010448
-0.008566
-0.008457
-0.008461
-0.008599
-0.010448
-0.010466
-0.010488
-0.013475
-0.013188
-0.013401
-0.013273
-0.013689
-0.013405
-0.013404
-0.012108
-0.011965
-0.011847
-0.013652
-0.009883
-0.009512
-0.009211
-0.008429
-0.009782
-0.009839
-0.009994
-0.009706
-0.007253
-0.007168
-0.007224
-0.007183
-0.008496
-0.008518
-0.008490
-0.005755
-0.005731
-0.005523
-0.010702
-0.010676
-0.010714
-0.010693
-0.006202
-0.006270
-0.006294
-0.005902
-0.014473
-0.014473
-0.014738
-0.014170
-0.007732
-0.007694
-0.007715
-0.007666
-0.009243
-0.009275
-0.009265
-0.008127
-0.008275
-0.008131
-0.009298
-0.013640
-0.013376
-0.013588
-0.008959
-0.008318
-0.007446
-0.007500
-0.007526
-0.007261
-0.007304
-0.007364
-0.011259
-0.011275
-0.011237
-0.013305
-0.009547
-0.009508
-0.009541
-0.009490
-0.010240
-0.010169
-0.010208
-0.010200
-0.010968
-0.010948
-0.010929
-0.010912
-0.010974
-0.010940
-0.011011
-0.010907
-0.009308
-0.009316
-0.009361
-0.009424
-0.009438
-0.009325
-0.011783
-0.011659
-0.011577
-0.011791
-0.006918
-0.006978
-0.006916
-0.011044
-0.011011
-0.011008
-0.010982
-0.010583
-0.010533
-0.010650
-0.010561
-0.009366
-0.010259
-0.010242
-0.010286
-0.011027
-0.011064
-0.011009
-0.011066
-0.010525
-0.010568
-0.010650
-0.010396
-0.010114
-0.010128
-0.010157
-0.009340
-0.009280
-0.009331
-0.010087
-0.010011
-0.009956
-0.010043
-0.007418
-0.009134
-0.009276
-0.009239
-0.010219
-0.010782
-0.010801
-0.010843
-0.010736
-0.010326
-0.010288
-0.010336
-0.010296
-0.010468
-0.010309
-0.010532
-0.007887
-0.007911
-0.007893
-0.009890
-0.009894
-0.009856
-0.009238
-0.009157
-0.009139
-0.009219
-0.007413
-0.007470
-0.007404
-0.007451
-0.008855
-0.008812
-0.008795
-0.011224
-0.011218
-0.011166
-0.011161
-0.006997
-0.006976
-0.007024
-0.013746
-0.013695
-0.013514
-0.006982
-0.013763
-0.013969
-0.013629
-0.014055
-0.011408
-0.011394
-0.011373
-0.011352
-0.010762
-0.010744
-0.010674
-0.010711
-0.008732
-0.008679
-0.008669
-0.009147
-0.009176
-0.009214
-0.009242
-0.006496
-0.006458
-0.006455
-0.010163
-0.010128
-0.010142
-0.007870
-0.007976
-0.007867
-0.007971
-0.011437
-0.011430
-0.011411
-0.011397
-0.008298
-0.008341
-0.008278
-0.008361
-0.011167
-0.010969
-0.011059
-0.010903
-0.008113
-0.008200
-0.008114
-0.008224
-0.007616
-0.007601
-0.007681
-0.007552
-0.009780
-0.009738
-0.009824
-0.009701
-0.010433
-0.010307
-0.010362
-0.007911
-0.011873
-0.011713
-0.011941
-0.011685
-0.012292
-0.012081
-0.012046
-0.012323
-0.016816
-0.017197
-0.016653
-0.008645
-0.008731
-0.008584
-0.009794
-0.009800
-0.009767
-0.011218
-0.011199
-0.011186
-0.008587
-0.009639
-0.009711
-0.009788
-0.009596
-0.008202
-0.008103
-0.008216
-0.008079
-0.011348
-0.011278
-0.011317
-0.011255
-0.009768
-0.009055
-0.009077
-0.009091
-0.010987
-0.011139
-0.010930
-0.007889
-0.007751
-0.007809
-0.010821
-0.010894
-0.010779
-0.009184
-0.009056
-0.009124
-0.010932
-0.006221
-0.006294
-0.006268
-0.006811
-0.006761
-0.006776
-0.010567
-0.010644
-0.010524
-0.010649
-0.010142
-0.010041
-0.009988
-0.009354
-0.009414
-0.009301
-0.010158
-0.008411
-0.008316
-0.008311
-0.009399
-0.009222
-0.010013
-0.009959
-0.010019
-0.008596
-0.008583
-0.008500
-0.010001
-0.010000
-0.010039
-0.009959
-0.008597
-0.008569
-0.008592
-0.007969
-0.008068
-0.007992
-0.007976
-0.008731
-0.008709
-0.010645
-0.010626
-0.010494
-0.006951
-0.006953
-0.007018
-0.010924
-0.010866
-0.010742
-0.009092
-0.009135
-0.009213
-0.009323
-0.008652
-0.008624
-0.008738
-0.008545
-0.010059
-0.010053
-0.010105
-0.010097
-0.006989
-0.006999
-0.007065
-0.007332
-0.007283
-0.007358
-0.007289
-0.007631
-0.007572
-0.007672
-0.007064
-0.008706
-0.008757
-0.008751
-0.008582
-0.008610
-0.008592
-0.008592
-0.008610
-0.008608
-0.008650
-0.008565
-0.010273
-0.010288
-0.010308
-0.009791
-0.009759
-0.009771
-0.010112
-0.010097
-0.009949
-0.009583
-0.009659
-0.009660
-0.009738
-0.008650
-0.008599
-0.008459
-0.009738
-0.010200
-0.010220
-0.010195
-0.010472
-0.010499
-0.010479
-0.010510
-0.010217
-0.009083
-0.009111
-0.009059
-0.009148
-0.007372
-0.007274
-0.007317
-0.011634
-0.011665
-0.011652
-0.011662
-0.008888
-0.008875
-0.008925
-0.008835
-0.010753
-0.010724
-0.010769
-0.010876
-0.010785
-0.010863
-0.006954
-0.007776
-0.006865
-0.010724
-0.011536
-0.011508
-0.011534
-0.010477
-0.010446
-0.011553
-0.011477
-0.011430
-0.007595
-0.011081
-0.011154
-0.010992
-0.011336
-0.011320
-0.008531
-0.008416
-0.008434
-0.011185
-0.010984
-0.010983
-0.011021
-0.012189
-0.012025
-0.012271
-0.012046
-0.006991
-0.007002
-0.006948
-0.010588
-0.010600
-0.010625
-0.010652
-0.011452
-0.011450
-0.011344
-0.007055
-0.011230
-0.011268
-0.011156
-0.009774
-0.009755
-0.009636
-0.010074
-0.010040
-0.011059
-0.011022
-0.010992
-0.008631
-0.008606
-0.008632
-0.009061
-0.009007
-0.009037
-0.011468
-0.011344
-0.011476
-0.008606
-0.006787
-0.006821
-0.006736
-0.010289
-0.010287
-0.010151
-0.010408
-0.011384
-0.011332
-0.011513
-0.011255
-0.011160
-0.008258
-0.008306
-0.008184
-0.008957
-0.008924
-0.008937
-0.008905
-0.006800
-0.006863
-0.006791
-0.008855
-0.008815
-0.008696
-0.006871
-0.006871
-0.006859
-0.006865
-0.006828
-0.006916
-0.007530
-0.007561
-0.007564
-0.010669
-0.010643
-0.010684
-0.009663
-0.010102
-0.009377
-0.010412
-0.010645
-0.010272
-0.010307
-0.010207
-0.009889
-0.009849
-0.009836
-0.009802
-0.011063
-0.011099
-0.011073
-0.011117
-0.011205
-0.011231
-0.011219
-0.007818
-0.007814
-0.007905
-0.009122
-0.008940
-0.008920
-0.006659
-0.006653
-0.006583
-0.010627
-0.010560
-0.010636
-0.010732
-0.006556
-0.006672
-0.006736
-0.011228
-0.007597
-0.008864
-0.008865
-0.008886
-0.009923
-0.009971
-0.010016
-0.010033
-0.010268
-0.010273
-0.010186
-0.008893
-0.006873
-0.006816
-0.006862
-0.009424
-0.009401
-0.009444
-0.009441
-0.010159
-0.010412
-0.010186
-0.010754
-0.010673
-0.010662
-0.009715
-0.009761
-0.009762
-0.009505
-0.009488
-0.009446
-0.009547
-0.010977
-0.011011
-0.011015
-0.011039
-0.006719
-0.006692
-0.006742
-0.010083
-0.010010
-0.010128
-0.007415
-0.007381
-0.007416
-0.009208
-0.009178
-0.009171
-0.009133
-0.007386
-0.009451
-0.009488
-0.009497
-0.009540
-0.014444
-0.014188
-0.014766
-0.007053
-0.006978
-0.006974
-0.010819
-0.010828
-0.010859
-0.010793
-0.007772
-0.007742
-0.007757
-0.007047
-0.010891
-0.010921
-0.010892
-0.010359
-0.010420
-0.010375
-0.010383
-0.011223
-0.011152
-0.010925
-0.007725
-0.007504
-0.007547
-0.007517
-0.008855
-0.008910
-0.008952
-0.010236
-0.010219
-0.010256
-0.010238
-0.007554
-0.007017
-0.006989
-0.006981
-0.010452
-0.010534
-0.010491
-0.010586
-0.008807
-0.011429
-0.011459
-0.011401
-0.011497
-0.009677
-0.009695
-0.009662
-0.009710
-0.009667
-0.009631
-0.009630
-0.010191
-0.010118
-0.010107
-0.010232
-0.008991
-0.009061
-0.009050
-0.009133
-0.008781
-0.008715
-0.010610
-0.010581
-0.010612
-0.008285
-0.008309
-0.008336
-0.008251
-0.008376
-0.008386
-0.010663
-0.010118
-0.010048
-0.010576
-0.007035
-0.008898
-0.008974
-0.008928
-0.006509
-0.006386
-0.006768
-0.008813
-0.010912
-0.010947
-0.010957
-0.006066
-0.010980
-0.008804
-0.008712
-0.008714
-0.008901
-0.008831
-0.008970
-0.010634
-0.010603
-0.010629
-0.010128
-0.010070
-0.010095
-0.009555
-0.009673
-0.009560
-0.008808
-0.008754
-0.008808
-0.006904
-0.006845
-0.006832
-0.009665
-0.010314
-0.010340
-0.010344
-0.010373
-0.008540
-0.008742
-0.008845
-0.008735
-0.009109
-0.009063
-0.009074
-0.011432
-0.011313
-0.011375
-0.011219
-0.011421
-0.011593
-0.011653
-0.008521
-0.008492
-0.008458
-0.008431
-0.009657
-0.009688
-0.009678
-0.008549
-0.008472
-0.008495
-0.011906
-0.009162
-0.009122
-0.009173
-0.009103
-0.010881
-0.010840
-0.010860
-0.008426
-0.011233
-0.011202
-0.011184
-0.009020
-0.006661
-0.009236
-0.009261
-0.008675
-0.009615
-0.009977
-0.009980
-0.010012
-0.010025
-0.010875
-0.010926
-0.010864
-0.010930
-0.011301
-0.011348
-0.011499
-0.011126
-0.011469
-0.011325
-0.011436
-0.009383
-0.009369
-0.009335
-0.009328
-0.006731
-0.008147
-0.008174
-0.008137
-0.008169
-0.010718
-0.010772
-0.010731
-0.006558
-0.006497
-0.006512
-0.008150
-0.008256
-0.008115
-0.009351
-0.009485
-0.009450
-0.010237
-0.010176
-0.010177
-0.009623
-0.009826
-0.009821
-0.008165
-0.007836
-0.009332
-0.009387
-0.009365
-0.010798
-0.010753
-0.010775
-0.009795
-0.009790
-0.006560
-0.007619
-0.007240
-0.009105
-0.009165
-0.009086
-0.011746
-0.011913
-0.011963
-0.012143
-0.007271
-0.007202
-0.007148
-0.010257
-0.010203
-0.010204
-0.009514
-0.009544
-0.009518
-0.010730
-0.010686
-0.010750
-0.008793
-0.008804
-0.008651
-0.016373
-0.016132
-0.015854
-0.011488
-0.011337
-0.011068
-0.011037
-0.011048
-0.011018
-0.009478
-0.009505
-0.009479
-0.015754
-0.009499
-0.009545
-0.010682
-0.010752
-0.011233
-0.011250
-0.011070
-0.010793
-0.009469
-0.008701
-0.008218
-0.008270
-0.008338
-0.008315
-0.010296
-0.010316
-0.010330
-0.010686
-0.010644
-0.010665
-0.006835
-0.006794
-0.006790
-0.012516
-0.012678
-0.012897
-0.009474
-0.009523
-0.009470
-0.010313
-0.010290
-0.010279
-0.010469
-0.010429
-0.010404
-0.010389
-0.008993
-0.009039
-0.008172
-0.008192
-0.008239
-0.008908
-0.008941
-0.008952
-0.008996
-0.008354
-0.008385
-0.008392
-0.009998
-0.009684
-0.010296
-0.010851
-0.010811
-0.010775
-0.012334
-0.009545
-0.009542
-0.009671
-0.008248
-0.008196
-0.008211
-0.009394
-0.009184
-0.009337
-0.009097
-0.011003
-0.010965
-0.010992
-0.010578
-0.010535
-0.010554
-0.009861
-0.009884
-0.009891
-0.009914
-0.015267
-0.014773
-0.015123
-0.010337
-0.010236
-0.010197
-0.010096
-0.010831
-0.010888
-0.014619
-0.009569
-0.009600
-0.009563
-0.008343
-0.015687
-0.015323
-0.010469
-0.007915
-0.007858
-0.007825
-0.013975
-0.013957
-0.009629
-0.009647
-0.009669
-0.009685
-0.010914
-0.010878
-0.010897
-0.008459
-0.008510
-0.008470
-0.008986
-0.009043
-0.010729
-0.010709
-0.010739
-0.009415
-0.009425
-0.009449
-0.007751
-0.009474
-0.009402
-0.009376
-0.010273
-0.010217
-0.009359
-0.008975
-0.009026
-0.009035
-0.009076
-0.013263
-0.013363
-0.010765
-0.010738
-0.010730
-0.010525
-0.010565
-0.010547
-0.010095
-0.010067
-0.010044
-0.010156
-0.013095
-0.010240
-0.010183
-0.010953
-0.010928
-0.010930
-0.010900
-0.010482
-0.010438
-0.010457
-0.010639
-0.010523