# vtk DataFile Version 2.0
Test
ASCII
DATASET POLYDATA
POINTS 2735 float
0.000000 0.000000 0.000000
20.000000 0.000000 0.000000
20.000000 10.000000 0.000000
14.000000 10.000000 0.000000
10.000000 10.000000 0.000000
0.100612 0.000000 0.000000
0.205780 0.000000 0.000000
0.315709 0.000000 0.000000
0.430615 0.000000 0.000000
0.550723 0.000000 0.000000
0.676270 0.000000 0.000000
0.807500 0.000000 0.000000
0.944673 0.000000 0.000000
1.088055 0.000000 0.000000
1.237930 0.000000 0.000000
1.394590 0.000000 0.000000
1.558343 0.000000 0.000000
1.729510 0.000000 0.000000
1.908426 0.000000 0.000000
2.095444 0.000000 0.000000
2.290928 0.000000 0.000000
2.495263 0.000000 0.000000
2.708850 0.000000 0.000000
2.932106 0.000000 0.000000
3.165471 0.000000 0.000000
3.409402 0.000000 0.000000
3.664376 0.000000 0.000000
3.930895 0.000000 0.000000
4.209480 0.000000 0.000000
4.500679 0.000000 0.000000
4.805062 0.000000 0.000000
5.123225 0.000000 0.000000
5.455794 0.000000 0.000000
5.803420 0.000000 0.000000
6.166785 0.000000 0.000000
6.546601 0.000000 0.000000
6.943614 0.000000 0.000000
7.358602 0.000000 0.000000
7.792379 0.000000 0.000000
8.245795 0.000000 0.000000
8.719739 0.000000 0.000000
9.215142 0.000000 0.000000
9.732974 0.000000 0.000000
10.274252 0.000000 0.000000
10.840036 0.000000 0.000000
11.431436 0.000000 0.000000
12.049612 0.000000 0.000000
12.695776 0.000000 0.000000
13.371196 0.000000 0.000000
14.077196 0.000000 0.000000
14.815160 0.000000 0.000000
15.586536 0.000000 0.000000
16.392837 0.000000 0.000000
17.235643 0.000000 0.000000
18.116607 0.000000 0.000000
19.037458 0.000000 0.000000
20.000000 1.000000 0.000000
20.000000 2.000000 0.000000
20.000000 3.000000 0.000000
20.000000 4.000000 0.000000
20.000000 5.000000 0.000000
20.000000 6.000000 0.000000
20.000000 7.000000 0.000000
20.000000 8.000000 0.000000
20.000000 9.000000 0.000000
19.106429 10.000000 0.000000
18.332628 10.000000 0.000000
17.662544 10.000000 0.000000
17.082276 10.000000 0.000000
16.579784 10.000000 0.000000
16.144643 10.000000 0.000000
15.767828 10.000000 0.000000
15.441518 10.000000 0.000000
15.158946 10.000000 0.000000
14.914249 10.000000 0.000000
14.702350 10.000000 0.000000
14.518853 10.000000 0.000000
14.359951 10.000000 0.000000
14.222348 10.000000 0.000000
14.103188 10.000000 0.000000
13.896513 10.000000 0.000000
13.768928 10.000000 0.000000
13.611637 10.000000 0.000000
13.417720 10.000000 0.000000
13.178651 10.000000 0.000000
12.883915 10.000000 0.000000
12.520551 10.000000 0.000000
12.072578 10.000000 0.000000
11.520297 10.000000 0.000000
10.839418 10.000000 0.000000
9.329609 9.329609 0.000000
8.699667 8.699667 0.000000
8.107732 8.107732 0.000000
7.551511 7.551511 0.000000
7.028850 7.028850 0.000000
6.537725 6.537725 0.000000
6.076231 6.076231 0.000000
5.642581 5.642581 0.000000
5.235096 5.235096 0.000000
4.852197 4.852197 0.000000
4.492399 4.492399 0.000000
4.154311 4.154311 0.000000
3.836621 3.836621 0.000000
3.538098 3.538098 0.000000
3.257588 3.257588 0.000000
2.994001 2.994001 0.000000
2.746319 2.746319 0.000000
2.513580 2.513580 0.000000
2.294884 2.294884 0.000000
2.089382 2.089382 0.000000
1.896280 1.896280 0.000000
1.714829 1.714829 0.000000
1.544325 1.544325 0.000000
1.384109 1.384109 0.000000
1.233559 1.233559 0.000000
1.092093 1.092093 0.000000
0.959163 0.959163 0.000000
0.834252 0.834252 0.000000
0.716878 0.716878 0.000000
0.606586 0.606586 0.000000
0.502949 0.502949 0.000000
0.405564 0.405564 0.000000
0.314055 0.314055 0.000000
0.228068 0.228068 0.000000
0.147268 0.147268 0.000000
0.071344 0.071344 0.000000
13.919075 9.942197 0.000000
13.838150 9.884393 0.000000
13.757225 9.826590 0.000000
13.676301 9.768786 0.000000
13.595376 9.710983 0.000000
13.514451 9.653179 0.000000
13.433526 9.595376 0.000000
13.352601 9.537572 0.000000
13.271676 9.479769 0.000000
13.190751 9.421965 0.000000
13.109827 9.364162 0.000000
13.028902 9.306358 0.000000
12.947977 9.248555 0.000000
12.867052 9.190751 0.000000
12.786127 9.132948 0.000000
12.705202 9.075145 0.000000
12.624277 9.017341 0.000000
12.543353 8.959538 0.000000
12.462428 8.901734 0.000000
12.381503 8.843931 0.000000
12.300578 8.786127 0.000000
12.219653 8.728324 0.000000
12.138728 8.670520 0.000000
12.057803 8.612717 0.000000
11.976879 8.554913 0.000000
11.895954 8.497110 0.000000
11.815029 8.439306 0.000000
11.734104 8.381503 0.000000
11.653179 8.323699 0.000000
11.572254 8.265896 0.000000
11.491329 8.208092 0.000000
11.410405 8.150289 0.000000
11.329480 8.092486 0.000000
11.248555 8.034682 0.000000
11.167630 7.976879 0.000000
11.086705 7.919075 0.000000
11.005780 7.861272 0.000000
10.924855 7.803468 0.000000
10.843931 7.745665 0.000000
10.763006 7.687861 0.000000
10.682081 7.630058 0.000000
10.601156 7.572254 0.000000
10.520231 7.514451 0.000000
10.439306 7.456647 0.000000
10.358382 7.398844 0.000000
10.277457 7.341040 0.000000
10.196532 7.283237 0.000000
10.115607 7.225434 0.000000
10.034682 7.167630 0.000000
9.953757 7.109827 0.000000
9.872832 7.052023 0.000000
9.791908 6.994220 0.000000
9.710983 6.936416 0.000000
9.630058 6.878613 0.000000
9.549133 6.820809 0.000000
9.468208 6.763006 0.000000
9.387283 6.705202 0.000000
9.306358 6.647399 0.000000
9.225434 6.589595 0.000000
9.144509 6.531792 0.000000
9.063584 6.473988 0.000000
8.982659 6.416185 0.000000
8.901734 6.358382 0.000000
8.820809 6.300578 0.000000
8.739884 6.242775 0.000000
8.658960 6.184971 0.000000
8.578035 6.127168 0.000000
8.497110 6.069364 0.000000
8.416185 6.011561 0.000000
8.335260 5.953757 0.000000
8.254335 5.895954 0.000000
8.173410 5.838150 0.000000
8.092486 5.780347 0.000000
8.011561 5.722543 0.000000
7.930636 5.664740 0.000000
7.849711 5.606936 0.000000
7.768786 5.549133 0.000000
7.687861 5.491329 0.000000
7.606936 5.433526 0.000000
7.526012 5.375723 0.000000
7.445087 5.317919 0.000000
7.364162 5.260116 0.000000
7.283237 5.202312 0.000000
7.202312 5.144509 0.000000
7.121387 5.086705 0.000000
7.040462 5.028902 0.000000
6.959538 4.971098 0.000000
6.878613 4.913295 0.000000
6.797688 4.855491 0.000000
6.716763 4.797688 0.000000
6.635838 4.739884 0.000000
6.554913 4.682081 0.000000
6.473988 4.624277 0.000000
6.393064 4.566474 0.000000
6.312139 4.508671 0.000000
6.231214 4.450867 0.000000
6.150289 4.393064 0.000000
6.069364 4.335260 0.000000
5.988439 4.277457 0.000000
5.907514 4.219653 0.000000
5.826590 4.161850 0.000000
5.745665 4.104046 0.000000
5.664740 4.046243 0.000000
5.583815 3.988439 0.000000
5.502890 3.930636 0.000000
5.421965 3.872832 0.000000
5.341040 3.815029 0.000000
5.260116 3.757225 0.000000
5.179191 3.699422 0.000000
5.098266 3.641618 0.000000
5.017341 3.583815 0.000000
4.936416 3.526012 0.000000
4.855491 3.468208 0.000000
4.774566 3.410405 0.000000
4.693642 3.352601 0.000000
4.612717 3.294798 0.000000
4.531792 3.236994 0.000000
4.450867 3.179191 0.000000
4.369942 3.121387 0.000000
4.289017 3.063584 0.000000
4.208092 3.005780 0.000000
4.127168 2.947977 0.000000
4.046243 2.890173 0.000000
3.965318 2.832370 0.000000
3.884393 2.774566 0.000000
3.803468 2.716763 0.000000
3.722543 2.658960 0.000000
3.641618 2.601156 0.000000
3.560694 2.543353 0.000000
3.479769 2.485549 0.000000
3.398844 2.427746 0.000000
3.317919 2.369942 0.000000
3.236994 2.312139 0.000000
3.156069 2.254335 0.000000
3.075145 2.196532 0.000000
2.994220 2.138728 0.000000
2.913295 2.080925 0.000000
2.832370 2.023121 0.000000
2.751445 1.965318 0.000000
2.670520 1.907514 0.000000
2.589595 1.849711 0.000000
2.508671 1.791908 0.000000
2.427746 1.734104 0.000000
2.346821 1.676301 0.000000
2.265896 1.618497 0.000000
2.184971 1.560694 0.000000
2.104046 1.502890 0.000000
2.023121 1.445087 0.000000
1.942197 1.387283 0.000000
1.861272 1.329480 0.000000
1.780347 1.271676 0.000000
1.699422 1.213873 0.000000
1.618497 1.156069 0.000000
1.537572 1.098266 0.000000
1.456647 1.040462 0.000000
1.375723 0.982659 0.000000
1.294798 0.924855 0.000000
1.213873 0.867052 0.000000
1.132948 0.809249 0.000000
1.052023 0.751445 0.000000
0.971098 0.693642 0.000000
0.890173 0.635838 0.000000
0.809249 0.578035 0.000000
0.728324 0.520231 0.000000
0.647399 0.462428 0.000000
0.566474 0.404624 0.000000
0.485549 0.346821 0.000000
0.404624 0.289017 0.000000
0.323699 0.231214 0.000000
0.242775 0.173410 0.000000
0.161850 0.115607 0.000000
0.080925 0.057803 0.000000
15.499854 1.048495 0.000000
15.252835 0.566406 0.000000
16.130886 0.692447 0.000000
10.309159 0.882007 0.000000
10.742485 0.637285 0.000000
10.608748 1.211505 0.000000
8.637442 0.405946 0.000000
8.575403 0.852740 0.000000
8.258954 0.576001 0.000000
4.580037 0.990894 0.000000
4.745076 0.839975 0.000000
4.799088 1.029682 0.000000
4.919124 0.843112 0.000000
5.034075 1.057162 0.000000
8.214715 1.016766 0.000000
13.542452 9.425132 0.000000
13.635094 9.460139 0.000000
13.557623 9.540818 0.000000
13.685996 9.536536 0.000000
3.686296 2.071115 0.000000
3.598347 2.014013 0.000000
3.698570 1.942264 0.000000
3.589640 1.902212 0.000000
8.726109 7.609975 0.000000
8.618706 8.208275 0.000000
8.249394 7.640053 0.000000
6.334390 4.140729 0.000000
6.458846 4.114748 0.000000
6.376892 4.211274 0.000000
6.458138 4.246854 0.000000
13.402357 8.985431 0.000000
13.436693 9.097517 0.000000
13.341887 9.073881 0.000000
13.357402 9.174994 0.000000
5.784913 3.911866 0.000000
5.727644 3.977106 0.000000
5.709169 3.861080 0.000000
5.649753 3.938052 0.000000
9.197568 6.012832 0.000000
9.072382 5.949981 0.000000
9.169723 5.895885 0.000000
14.436869 6.680831 0.000000
14.733743 6.602103 0.000000
14.515073 6.900095 0.000000
6.721731 3.676248 0.000000
6.698456 3.517728 0.000000
6.837434 3.541081 0.000000
6.767776 3.382871 0.000000
9.075544 6.052313 0.000000
12.704963 8.981630 0.000000
12.625771 8.923772 0.000000
14.039608 3.123098 0.000000
14.356143 2.614043 0.000000
14.557054 3.165260 0.000000
13.389941 6.802248 0.000000
13.608568 6.989956 0.000000
13.410911 7.067332 0.000000
13.609320 6.770522 0.000000
13.763642 8.197616 0.000000
13.626601 8.025516 0.000000
13.844301 8.034887 0.000000
13.738746 7.864922 0.000000
11.974266 8.454940 0.000000
[...]
POINT_DATA 2735
SCALARS UX float 1
LOOKUP_TABLE default
-0.000000
0.000000
-0.000000
-46.496100
109.098810
-0.000000
-0.000000
-0.000000
-0.000000
-0.000000
-0.000000
-0.000000
-0.000000
-0.000000
-0.000000
-0.000000
-0.000000
-0.000000
-0.000000
-0.000000
-0.000000
-0.000000
-0.000000
-0.000000
-0.000000
-0.000000
-0.000000
-0.000000
-0.000000
-0.000000
-0.000000
-0.000000
-0.000000
-0.000000
-0.000000
-0.000000
-0.000000
-0.000000
-0.000000
-0.000000
-0.000000
-0.000000
-0.000000
-0.000000
-0.000000
-0.000000
-0.000000
-0.000000
-0.000000
0.000000
0.000000
0.000000
0.000000
0.000000
0.000000
0.000000
0.000000
0.000000
0.000000
0.000000
0.000000
0.000000
0.000000
-0.000000
-0.000000
-0.033978
-0.066162
-0.091179
-0.105989
-0.197429
-0.307549
-0.415554
-0.484050
-0.533161
-0.602479
-1.131657
-1.931620
-5.587902
-13.171355
-31.905238
-49.877549
-40.049172
-4.940389
103.439997
103.327133
102.949843
104.587285
103.687131
104.408103
106.121122
94.126060
78.509058
60.418064
38.871780
25.787084
17.560289
11.396894
7.076226
4.044804
2.025185
0.597854
-0.317300
-0.891107
-1.200792
-1.381129
-1.452773
-1.446978
-1.393874
-1.311350
-1.205184
-1.091962
-0.975745
-0.862299
-0.754017
-0.653701
-0.562554
-0.479708
-0.405316
-0.338542
-0.278854
-0.225197
-0.177194
-0.133172
-0.093645
-0.057706
-0.026371
-47.502220
-45.069938
-42.230242
56.907861
106.105979
106.176520
105.965016
105.743974
105.430690
109.625221
109.777632
100.188885
104.547109
103.836542
101.898173
94.567914
91.853504
85.534632
80.116886
81.448285
92.296638
98.000788
98.053843
97.623346
97.360674
96.815189
96.701680
95.586223
93.047084
89.842274
86.699938
84.217254
82.430507
80.760675
79.139984
77.786723
76.539721
75.347853
73.914020
72.322320
70.630408
68.641712
66.589002
64.507870
62.311792
60.124204
57.959288
55.742477
53.055084
50.692994
50.342707
48.901535
46.188878
42.344027
40.075522
37.838937
35.695676
33.761120
31.965618
30.226800
28.509388
26.799435
25.058548
23.351623
21.639812
19.909000
18.123488
16.028496
14.241926
12.757633
11.537601
10.581431
9.694891
8.871786
8.136739
7.430783
6.772054
6.131427
5.531259
4.944802
4.421988
3.929784
3.485668
3.072277
2.686549
2.329128
2.000833
1.684997
1.406220
1.140376
0.887455
0.659110
0.453584
0.251334
0.073583
-0.095458
-0.251371
-0.397430
-0.537528
-0.663808
-0.776712
-0.887225
-0.985533
-1.080070
-1.163447
-1.239864
-1.303951
-1.357611
-1.408181
-1.455465
-1.487766
-1.510655
-1.532926
-1.553188
-1.570276
-1.591235
-1.606992
-1.622386
-1.633071
-1.642904
-1.645035
-1.644669
-1.642730
-1.633413
-1.623988
-1.609259
-1.593874
-1.576764
-1.554146
-1.531911
-1.505665
-1.476927
-1.445912
-1.414166
-1.381190
-1.344498
-1.306632
-1.269001
-1.228860
-1.187796
-1.148101
-1.106330
-1.062479
-1.019474
-0.975333
-0.932198
-0.889195
-0.846078
-0.802524
-0.759753
-0.717184
-0.675647
-0.634554
-0.594081
-0.554807
-0.516421
-0.478894
-0.442241
-0.406697
-0.371970
-0.338240
-0.305614
-0.273690
-0.242795
-0.212335
-0.183064
-0.154086
-0.125822
-0.098537
-0.071891
-0.045985
-0.021969
0.100794
0.077581
0.061204
0.793665
0.335188
1.613832
0.480837
0.826988
0.407203
-1.173961
-1.055534
-1.242782
-1.082500
-1.295257
0.653125
69.317017
53.255591
106.317943
35.927226
-1.531869
-1.485914
-1.497679
-1.446749
45.801095
64.627246
42.600589
-0.983641
-1.039647
-0.827951
-0.748530
-0.362001
63.859178
96.257350
100.673479
-1.309910
-1.161761
-1.374098
-1.210311
16.665648
14.934273
14.411278
0.854333
0.025723
0.004391
-1.405359
-1.497205
-1.327505
-1.445509
17.427436
85.563274
81.873277
4.295273
2.479698
1.956751
96.814925
37.490213
48.432094
63.522848
0.022881
0.179905
0.096102
0.264971
98.309802
101.791739
102.442031
56.237322
6.316158
5.475370
5.593345
6.167759
109.876570
101.417037
106.930386
101.334977
105.506158
80.518489
83.236494
80.284664
6.472561
5.045021
5.437284
4.120951
0.785462
1.345547
0.660433
1.804638
0.289446
0.116484
0.026302
0.421668
15.837826
13.880139
11.621716
14.135802
19.594425
17.417521
81.773928
26.490991
26.773343
21.602250
72.417589
70.646319
77.753565
-0.144374
-0.159283
-0.369149
0.911203
0.234689
0.236970
8.394570
6.794628
8.285758
8.403971
0.134684
10.343396
12.134473
12.767592
15.398708
2.454701
2.734640
-0.427498
-0.428300
2.334465
30.671202
28.167225
99.934255
100.387308
101.458960
-0.571015
-0.398020
-0.449923
-0.069730
-0.087217
-0.030302
-0.749431
-0.535987
-0.618755
-0.145591
70.897664
-1.065550
-1.318512
-1.189469
77.724400
58.591808
74.843085
-0.910388
-0.974778
-0.972899
-0.952017
104.505987
91.748460
96.447882
94.436083
58.297430
2.691008
2.219031
2.132464
95.817715
1.641625
2.549517
2.274413
58.674108
67.889633
62.255380
60.379086
-1.709861
-1.691888
-1.741533
-1.714372
-1.757691
-0.739566
-0.678763
-0.725787
94.139788
99.899005
101.892310
40.038724
0.193036
1.434754
-1.793864
-1.689909
-1.719325
-1.619721
-0.716860
-0.687495
-0.765213
94.926706
35.613415
37.982777
39.114966
-1.706865
-1.689427
-1.779547
38.678685
73.337415
79.982256
-1.695037
-1.748968
-1.783193
27.990291
29.667927
27.292740
102.655353
100.970358
101.429106
101.667137
99.141338
71.472234
92.685019
-1.706615
-1.824653
-1.770721
-6.362109
-31.604846
-2.102653
79.052711
76.661699
83.588545
57.406871
65.263724
76.286628
20.233350
16.546222
22.314373
-1.658663
-1.773836
-1.685330
0.264902
0.181784
-1.873350
-1.968542
-1.922091
-1.997807
0.744588
1.273169
0.883367
0.108980
0.187721
1.444899
0.110244
-1.338332
-1.503216
-1.518244
13.677038
12.734826
13.288514
25.031404
30.918876
-1.140448
-1.143930
11.560899
105.808553
106.264592
-0.948199
-1.007888
-0.998973
5.232402
5.941651
100.667124
96.155906
88.833138
-0.049497
-0.008516
-0.027891
-0.005425
-1.340906
-1.070511
-1.271177
-0.918192
-1.034856
-0.772670
-0.858296
18.842907
24.739742
22.221275
9.434128
3.952934
0.358105
-1.693675
-1.665348
-1.717331
85.300690
79.074621
76.209762
26.081670
72.961161
71.191171
72.179405
-0.264753
-0.595267
-0.547988
-1.466046
-1.454324
-1.474841
50.311194
51.192320
0.139855
0.031690
-1.800886
-1.914269
-1.839323
85.672242
89.072668
93.347499
-1.946983
74.763469
77.486407
74.487931
3.207680
3.301613
3.768386
3.996896
36.134635
39.990922
39.558463
42.929088
121.526447
115.285867
113.399691
86.796015
75.766977
82.806123
75.764156
-0.156927
0.226993
17.875060
45.483417
36.562219
34.340847
76.230309
76.836003
75.846683
-1.584953
-1.647832
-1.715751
43.088744
59.423392
61.662319
-1.394564
-1.489035
-1.570924
40.834184
45.093610
-1.796845
-1.716311
-1.851854
30.164888
18.200817
28.564522
103.516332
101.899653
103.035226
-1.325300
72.148843
99.602609
99.532850
57.437347
20.052950
22.324135
33.050696
30.617397
30.863576
32.170572
19.749324
19.264673
45.170119
46.288683
41.807903
60.240491
50.593940
28.947898
30.969594
21.190108
48.268028
84.004429
77.832331
28.001857
32.787020
31.495617
65.395375
38.274566
-0.297572
-333.538748
-0.215040
140.085552
8.658227
9.830422
10.630372
59.478771
60.116681
70.255597
12.769487
62.804298
64.196338
60.340585
31.657782
34.727177
27.188320
-1.216586
-1.155759
-1.172982
0.036092
0.023215
0.099711
60.739165
69.082547
-0.018015
0.044779
46.352668
-0.114418
-0.165925
0.097654
-0.431514
0.326779
0.401012
0.626008
98.349163
103.720280
100.231727
101.708234
52.193836
50.424967
48.707553
-0.706576
-0.753565
-0.722371
-1.002480
-0.735719
-0.838095
-0.389447
-8.700535
-11.737128
0.097426
0.117561
47.021865
43.337871
92.995720
100.660835
36.241533
55.040435
4.056748
3.530949
3.007220
98.541629
96.498313
-1.902778
-0.116780
-0.128899
-0.273318
103.694562
77.162699
73.123350
56.242435
57.270435
62.644072
50.178769
31.484446
31.973494
34.615407
35.946354
-0.346496
-0.416105
-0.329801
-0.361245
-0.329380
-0.412046
1.900035
2.406029
3.022734
-1.431419
-1.083875
-1.137296
-0.184417
-0.116398
-0.132674
7.915900
6.165280
7.133455
7.036778
-1.228966
-1.215014
-1.038668
28.500116
27.762236
0.747785
0.522789
0.444157
7.501189
6.498737
6.164381
7.939603
-0.056685
99.702692
97.489314
6.005858
4.702334
3.364148
6.572973
4.848624
2.982377
2.416333
3.348719
3.618341
-1.747939
-1.682279
-1.833285
10.068167
10.682617
12.395968
-1.612707
15.176308
20.132149
9.866610
19.624647
16.155390
-0.735293
-0.953210
-1.178906
-1.052164
84.200891
-1.325189
0.069647
0.065513
0.055970
36.348173
35.999974
41.088225
0.072831
33.711912
37.844119
73.286088
68.605023
71.171663
66.155887
77.719643
4.710883
3.537422
3.921466
4.023774
9.881654
5.570614
1.643970
97.930208
2.522041
98.989007
97.148751
97.756735
10.565077
8.485094
9.391977
2.166670
21.987521
36.996911
22.094867
4.536566
25.368183
20.649085
0.109882
0.215201
-0.103726
-0.058940
-0.072078
6.777115
5.326793
-0.447193
-0.656361
-0.828945
95.533260
-1.001087
-0.932290
-1.337008
-1.107986
-1.082195
15.991032
16.761696
21.256441
0.021127
0.011448
0.035675
0.016918
0.017310
30.680963
35.254446
-1.431513
-1.543374
-1.234309
-1.158522
-1.192701
-1.092047
-1.094545
38.431871
39.462197
-1.904380
-1.922427
-1.858075
33.326937
-1.850779
36.630981
50.172366
48.421387
55.299790
43.899212
-0.968578
-0.942648
-1.181920
-1.222248
0.056210
0.055070
0.068121
0.072048
-1.104088
0.990762
1.268251
1.498091
42.736767
-1.908506
-1.860666
-1.935445
-1.524318
-1.654834
-1.583527
46.350901
-1.711859
-1.827542
-0.184587
-0.298192
-0.256855
53.165751
46.696324
47.898988
-0.219197
-1.478973
8.088584
5.073920
9.956132
-0.500128
-0.522124
-0.240316
98.126409
98.258913
7.599128
8.531133
6.751717
102.668095
8.989541
0.063328
7.338677
12.444538
93.732717
91.568092
92.990337
92.502550
95.283767
94.070441
-0.822451
-0.742774
-1.015313
-1.019243
53.796665
-0.921994
-0.426451
-0.795390
-0.211691
-0.244973
-0.214185
3.586156
4.425530
2.471195
25.485685
32.570764
32.665802
40.242108
15.675293
24.438419
0.309951
8.611753
10.269614
13.337215
1.305601
1.594978
0.134227
0.277598
74.778679
71.808768
-1.704618
-1.845739
-1.890706
-1.954294
-2.009901
-1.968082
0.416299
0.071678
-0.040826
1.302496
2.965637
77.046268
74.014846
16.998019
15.754226
13.291675
7.700912
77.713871
6.037267
-0.074380
-0.321824
-0.392470
0.200021
-1.632821
-1.596125
-1.578374
-0.215169
94.079797
94.580278
89.513237
-1.233180
-0.040082
-1.166171
88.876911
84.212469
85.604230
-1.278996
-0.752769
84.146879
0.102106
0.333825
0.678619
-0.661150
-1.570997
-1.722014
-1.552618
-1.310880
-1.340420
73.871653
36.170755
81.540186
19.802748
33.383087
-39.512962
31.714108
-0.009675
-0.519157
-0.144442
0.034622
104.038771
103.165555
103.442690
104.683346
103.034140
-0.419758
-0.465511
-0.378916
-1.035037
-0.727480
-0.449990
1.373245
1.087512
0.738528
2.943617
0.787317
1.544654
0.239437
-0.303717
2.119406
-0.468594
-0.525959
-0.433405
-0.396541
-0.311875
-0.521758
-0.161088
-0.192480
-0.617907
-0.589285
3.914667
-0.537332
0.381873
-0.462697
-0.508392
-0.664525
-0.723354
-0.501262
-0.453069
-0.448035
2.362324
-0.387494
-0.398203
-0.348795
-0.633543
-0.711276
3.486507
3.051260
103.507608
105.686400
2.441896
2.333008
0.873270
1.134847
0.572489
-0.037260
-0.777768
-1.306409
-1.349225
-1.326891
-0.760157
-0.442475
-0.452866
-0.827249
-0.880359
-0.112862
-0.390355
0.891460
-0.830604
-0.925071
-0.873128
-0.939121
-1.012703
84.045698
13.797583
16.469721
-0.459964
-0.492279
-0.517053
36.003830
-8.083178
11.514123
-1.048502
31.101583
26.927515
-0.682868
8.811162
10.589515
8.240649
-0.395581
-0.537737
10.025465
-0.480493
-0.688629
-0.059631
-0.442159
0.050321
18.821118
19.687538
0.033254
19.737506
-1.124595
2.164780
2.887995
3.028126
4.212628
102.385980
102.137623
100.287027
99.289119
-0.478747
25.345347
21.778172
23.598124
-1.445163
-1.932826
-1.868402
-1.876256
-1.900000
25.796864
-1.168762
0.043737
0.026320
0.000630
-0.015063
-0.566967
-0.884634
28.903952
-0.947679
-0.911893
1.572420
0.215876
-1.511798
-1.802789
-1.805427
-1.755214
-0.534331
-0.563646
-0.590004
-1.609024
-1.570774
-1.494867
-1.474693
-0.630867
-0.898384
-1.652109
-1.762680
-1.874826
-0.603545
-0.715060
-1.394249
-1.438966
-1.198079
2.222665
1.673684
11.045466
11.644352
10.493818
-1.733146
11.275889
-0.605447
-0.643901
-1.497656
-1.559721
-1.592153
47.490014
-0.296595
-0.300495
6.386590
6.908646
5.592188
7.549124
6.389077
6.969785
5.788484
1.379384
-1.821403
-1.795983
-1.830295
-1.784373
-1.577166
74.272411
48.415325
54.297194
52.090408
106.151038
96.609210
-1.980831
-2.031595
-1.984961
-0.900679
-0.792552
-2.007935
-1.409132
-1.506895
-0.629517
-0.869527
-0.559109
-0.628425
-1.519796
-1.524116
-0.150664
-0.107813
-0.140782
-0.104596
87.702562
90.918455
90.135802
-1.817444
-1.751452
-1.768219
-0.639501
-1.783148
6.160519
5.239386
4.964968
-0.043387
-0.073090
-0.093250
6.283051
0.580328
104.384396
63.302481
57.876628
-1.105119
-1.136119
-11.708970
-35.364213
-35.941432
43.480574
48.733083
43.115672
46.822953
-0.241471
-0.227800
-0.157114
-0.168952
-0.294608
-2.073507
-2.054826
-2.003894
-2.093520
-0.391601
-0.481702
106.369406
-0.418567
16.162684
-0.471865
-0.095259
-0.001819
-1.779514
-1.833901
-1.885629
-1.732610
-0.001351
-0.021620
-0.056159
-0.068088
74.412836
75.217216
70.094400
-1.638522
-1.613307
17.951749
12.866198
11.567249
0.868991
0.614278
-0.689153
40.696447
38.026492
36.823023
-0.138273
-0.189223
-0.161288
-1.858170
-1.929119
-1.987858
-1.976184
-0.323202
-0.302097
-0.349524
-0.379725
-1.067413
-0.959201
87.581894
-0.867315
1.325750
0.673579
0.641794
-0.549538
1.214914
0.722904
1.550459
0.585652
1.456328
-1.116058
-1.176942
-2.067715
-1.065332
-0.148108
-0.106722
-2.074434
-1.091638
-1.583905
-1.541005
-1.563625
-1.608530
-1.422478
-1.376143
-1.263918
-1.170087
-0.121040
-0.168376
-0.146979
1.693842
2.170206
-0.908597
8.135829
7.370246
8.456836
-1.755718
-1.763426
-1.819853
-1.855812
-1.589674
-1.666298
-1.726622
40.592495
-1.725017
-1.693112
109.161210
109.647621
80.328341
83.384254
78.527539
-1.749788
66.149695
64.172956
63.979451
-1.115586
0.023462
0.054108
0.032434
0.048729
0.074640
4.121294
3.105579
3.892650
3.298165
4.725227
1.213523
3.501888
-0.191759
-0.056373
2.785912
3.883906
2.863619
4.332945
-1.336274
-1.311367
-1.248737
-1.385404
-0.924856
-0.985656
-0.988055
-0.924037
-0.883196
-0.851105
24.678449
21.720311
26.643597
30.562080
30.141185
42.375946
43.559302
-0.828821
-0.762483
-1.121473
-1.476605
-1.444438
73.514488
0.049245
0.081960
0.050967
2.484373
1.636996
1.755202
-1.637557
-1.666966
0.909506
-1.916318
-1.991799
-1.992597
-1.966186
25.768758
-1.893815
-1.862267
-1.843727
5.967316
4.215577
-0.824024
-0.219945
-0.173795
-0.242159
-0.283220
-0.779317
0.278618
0.907289
-1.633098
-1.708514
0.664237
-1.809948
-1.760944
-1.803143
-1.906695
10.117456
-1.712881
10.021487
89.434973
86.070216
89.423061
87.062707
90.721487
-0.084885
-2.075863
89.408174
-0.443715
89.034385
85.334274
88.424510
-1.189978
-1.149923
-1.155825
91.984759
-1.336201
-1.426989
39.737423
91.888485
1.520840
0.449602
2.315152
-0.823768
0.296746
0.159993
7.253983
2.693675
20.916154
2.436276
8.030454
0.421206
4.555368
60.522399
53.829241
0.628240
53.950219
-1.641215
-1.583926
-2.110596
-2.100417
-2.110649
81.491099
83.212469
4.178228
1.284831
1.193303
-0.020366
-0.522962
-0.790796
20.611519
93.361096
94.688594
91.955032
89.017271
87.015945
85.575363
91.565868
28.159352
27.734646
0.047065
0.038704
-0.969561
0.062045
95.506822
-1.794594
-1.962508
-1.880625
-1.692719
-40.889867
-0.990891
-1.051723
-1.441059
-1.470368
-0.988357
-0.997005
-1.047546
-1.117565
4.290498
4.218044
3.279124
58.391989
57.022467
60.246754
13.538382
8.503283
11.916451
-1.373589
-1.467906
68.096316
61.301529
63.429322
2.318207
2.801744
56.408118
0.162789
0.696403
53.107411
5.442088
0.101091
0.099580
96.452791
97.839796
99.048808
6.737657
-1.403519
-1.563550
-1.580477
-1.643542
-1.765786
63.232933
61.483587
54.970125
-2.000695
68.478377
0.399890
0.018525
0.035503
-1.705259
0.074337
0.072167
0.072730
7.456306
0.066281
7.066590
-0.178034
-0.151782
-0.125697
-0.229600
-0.689450
-0.565052
-0.528340
-0.737013
-0.791928
-0.757762
-0.666780
-0.782939
-1.436480
-1.531899
85.220207
83.474886
87.160586
74.458035
75.518597
69.554700
9.507159
-0.156899
-0.228355
-0.056431
-1.937973
-0.235964
81.067144
83.290068
77.595808
-0.295697
-2.033260
4.101650
87.347299
-1.416013
-1.500114
-1.263234
0.412811
-0.306503
8.644208
-0.271909
-0.353342
78.490092
78.727236
73.849186
82.885017
-0.397632
-0.377629
-0.415805
-0.393235
3.101657
79.893230
-1.372401
-1.420005
79.840384
-2.054193
-2.081046
-2.094570
-1.152663
-2.035496
-1.326125
-1.249456
-1.254974
-1.142831
-1.324651
-1.989337
-0.079515
-0.087654
0.085080
0.092843
0.061103
-1.021042
0.067075
0.079413
-0.292323
-1.099146
-1.165197
-1.132989
-1.686457
-1.670643
-1.184539
51.533090
46.073984
37.322178
-0.071069
75.652294
77.240325
77.954787
-1.085273
-1.044849
-2.057595
-1.956629
13.171373
7.526671
9.488119
7.321387
9.544381
106.670176
67.218508
11.659062
-1.829174
-1.945017
-1.972317
-1.560521
-1.525175
-1.845576
90.680539
86.225795
6.129508
4.867117
4.721441
-0.267853
-0.305526
-0.226488
48.809235
60.993699
3.823634
3.239439
3.427403
2.459966
3.044445
1.874861
100.020990
101.511525
102.503975
101.040089
3.347460
14.428004
18.855902
12.762234
0.087463
0.050772
0.102276
0.133155
15.021595
8.701479
21.304721
0.259642
19.701541
-0.286412
19.895232
-0.884959
-0.923906
-0.874522
-1.763452
-1.724331
31.363237
1.024197
0.672472
1.041852
-2.051689
-2.094196
-2.057439
0.715517
1.134953
-2.088458
-2.028899
6.717667
69.287189
36.882113
54.321445
51.342130
-0.824360
1.498052
-2.019369
10.439959
19.063302
17.673799
24.822826
11.701906
18.747655
5.371606
-0.845692
-0.846233
5.182884
-1.580208
2.532291
1.825441
-1.497958
-1.670827
-0.089018
-1.734352
-1.224561
-2.102611
-2.061137
10.235492
13.023236
9.995666
12.139708
1.005117
108.669527
106.902846
-2.041481
-1.970109
1.186990
105.628525
100.673035
-1.108503
-1.066972
-1.068376
23.336635
20.362786
23.761628
21.655593
-2.042577
-2.030537
4.501260
4.682247
-0.262294
-0.287000
-0.198165
5.599356
50.380405
10.539742
9.536684
43.526131
2.538745
3.280439
-1.594792
-1.596765
-1.576938
-1.626044
-1.790777
-0.464089
0.020855
0.014596
2.944110
4.146903
4.254310
-1.851770
-1.883228
5.387396
5.947916
7.174467
0.842630
-0.332048
15.736891
20.013773
3.628016
0.024730
1.548740
-0.104506
-1.594396
-1.347606
-1.325940
-1.211222
8.307109
-1.381872
-1.350214
-1.363706
8.431406
18.037614
-0.317320
-0.122212
25.169916
36.199138
38.901153
8.031211
7.250237
9.501493
-0.358027
-0.341611
-0.069172
74.304687
0.086043
0.094013
0.079107
-0.238502
84.262368
85.507882
-0.139186
0.109366
0.079091
0.079152
-0.076739
21.041076
39.806475
51.091101
-1.006846
88.962449
85.952254
82.773901
81.294903
-0.335727
-0.397545
-0.440549
-1.272452
-1.230352
-1.232056
5.911985
-0.385133
17.505919
22.953503
96.016990
-1.950160
-1.868571
-1.872556
-1.930517
0.043019
0.229290
-0.166019
-0.274577
-0.390227
34.722324
8.489240
9.909326
93.292260
-0.237953
-1.947027
-1.927618
4.945523
2.042547
106.721023
80.181052
82.236937
82.283745
5.184996
-1.929131
0.060454
0.409988
0.526962
0.134870
0.992982
47.326610
55.135994
-0.270228
-0.519441
0.035088
0.063184
0.056205
0.040059
0.015268
-0.318049
-1.755706
70.238869
-1.508434
-0.325682
-1.548855
-1.502991
-1.450111
45.487590
37.627363
16.750631
69.038780
0.973068
0.587398
-1.392865
-1.383380
-1.483652
53.506071
51.863598
-1.690699
-1.842460
96.502094
98.214931
-1.479030
4.991458
-1.784238
-1.648869
37.413708
36.429753
0.061462
0.300580
1.501705
-1.912561
-1.800080
-1.703005
-1.761577
93.493188
-1.651379
-1.498028
-1.661751
-1.512374
10.576745
6.970314
28.684230
-0.686176
-0.724525
-0.774901
33.694592
38.802739
39.949272
81.657232
90.156632
12.978430
10.549957
7.216445
-0.296472
-0.337494
-0.219001
52.648300
-0.210069
-1.870685
-0.926486
-0.913728
81.687449
78.381186
2.748382
2.320438
3.210836
-0.791600
45.912744
29.052387
-1.397738
-1.405709
-1.434586
3.797442
5.842463
98.634729
-1.384604
-1.410814
-1.805513
-1.561723
-1.632663
0.125537
0.192466
0.455734
-1.106202
25.912094
-1.476718
-0.427623
-0.404169
-1.498570
-1.471350
-1.505823
-1.830409
-1.773746
51.177689
0.043451
0.055985
0.051022
-0.376214
-1.311758
-1.280322
-0.547511
-0.614868
-0.576841
33.470517
35.798681
95.006703
-0.858213
13.140783
-1.516966
-1.568987
-1.599067
102.496542