# vtk DataFile Version 2.0
Test
ASCII
DATASET POLYDATA
POINTS 2735 float
0.000000 0.000000 0.000000
20.000000 0.000000 0.000000
20.000000 10.000000 0.000000
14.000000 10.000000 0.000000
10.000000 10.000000 0.000000
0.100612 0.000000 0.000000
0.205780 0.000000 0.000000
0.315709 0.000000 0.000000
0.430615 0.000000 0.000000
0.550723 0.000000 0.000000
0.676270 0.000000 0.000000
0.807500 0.000000 0.000000
0.944673 0.000000 0.000000
1.088055 0.000000 0.000000
1.237930 0.000000 0.000000
1.394590 0.000000 0.000000
1.558343 0.000000 0.000000
1.729510 0.000000 0.000000
1.908426 0.000000 0.000000
2.095444 0.000000 0.000000
2.290928 0.000000 0.000000
2.495263 0.000000 0.000000
2.708850 0.000000 0.000000
2.932106 0.000000 0.000000
3.165471 0.000000 0.000000
3.409402 0.000000 0.000000
3.664376 0.000000 0.000000
3.930895 0.000000 0.000000
4.209480 0.000000 0.000000
4.500679 0.000000 0.000000
4.805062 0.000000 0.000000
5.123225 0.000000 0.000000
5.455794 0.000000 0.000000
5.803420 0.000000 0.000000
6.166785 0.000000 0.000000
6.546601 0.000000 0.000000
6.943614 0.000000 0.000000
7.358602 0.000000 0.000000
7.792379 0.000000 0.000000
8.245795 0.000000 0.000000
8.719739 0.000000 0.000000
9.215142 0.000000 0.000000
9.732974 0.000000 0.000000
10.274252 0.000000 0.000000
10.840036 0.000000 0.000000
11.431436 0.000000 0.000000
12.049612 0.000000 0.000000
12.695776 0.000000 0.000000
13.371196 0.000000 0.000000
14.077196 0.000000 0.000000
14.815160 0.000000 0.000000
15.586536 0.000000 0.000000
16.392837 0.000000 0.000000
17.235643 0.000000 0.000000
18.116607 0.000000 0.000000
19.037458 0.000000 0.000000
20.000000 1.000000 0.000000
20.000000 2.000000 0.000000
20.000000 3.000000 0.000000
20.000000 4.000000 0.000000
20.000000 5.000000 0.000000
20.000000 6.000000 0.000000
20.000000 7.000000 0.000000
20.000000 8.000000 0.000000
20.000000 9.000000 0.000000
19.106429 10.000000 0.000000
18.332628 10.000000 0.000000
17.662544 10.000000 0.000000
17.082276 10.000000 0.000000
16.579784 10.000000 0.000000
16.144643 10.000000 0.000000
15.767828 10.000000 0.000000
15.441518 10.000000 0.000000
15.158946 10.000000 0.000000
14.914249 10.000000 0.000000
14.702350 10.000000 0.000000
14.518853 10.000000 0.000000
14.359951 10.000000 0.000000
14.222348 10.000000 0.000000
14.103188 10.000000 0.000000
13.896513 10.000000 0.000000
13.768928 10.000000 0.000000
13.611637 10.000000 0.000000
13.417720 10.000000 0.000000
13.178651 10.000000 0.000000
12.883915 10.000000 0.000000
12.520551 10.000000 0.000000
12.072578 10.000000 0.000000
11.520297 10.000000 0.000000
10.839418 10.000000 0.000000
9.329609 9.329609 0.000000
8.699667 8.699667 0.000000
8.107732 8.107732 0.000000
7.551511 7.551511 0.000000
7.028850 7.028850 0.000000
6.537725 6.537725 0.000000
6.076231 6.076231 0.000000
5.642581 5.642581 0.000000
5.235096 5.235096 0.000000
4.852197 4.852197 0.000000
4.492399 4.492399 0.000000
4.154311 4.154311 0.000000
3.836621 3.836621 0.000000
3.538098 3.538098 0.000000
3.257588 3.257588 0.000000
2.994001 2.994001 0.000000
2.746319 2.746319 0.000000
2.513580 2.513580 0.000000
2.294884 2.294884 0.000000
2.089382 2.089382 0.000000
1.896280 1.896280 0.000000
1.714829 1.714829 0.000000
1.544325 1.544325 0.000000
1.384109 1.384109 0.000000
1.233559 1.233559 0.000000
1.092093 1.092093 0.000000
0.959163 0.959163 0.000000
0.834252 0.834252 0.000000
0.716878 0.716878 0.000000
0.606586 0.606586 0.000000
0.502949 0.502949 0.000000
0.405564 0.405564 0.000000
0.314055 0.314055 0.000000
0.228068 0.228068 0.000000
0.147268 0.147268 0.000000
0.071344 0.071344 0.000000
13.919075 9.942197 0.000000
13.838150 9.884393 0.000000
13.757225 9.826590 0.000000
13.676301 9.768786 0.000000
13.595376 9.710983 0.000000
13.514451 9.653179 0.000000
13.433526 9.595376 0.000000
13.352601 9.537572 0.000000
13.271676 9.479769 0.000000
13.190751 9.421965 0.000000
13.109827 9.364162 0.000000
13.028902 9.306358 0.000000
12.947977 9.248555 0.000000
12.867052 9.190751 0.000000
12.786127 9.132948 0.000000
12.705202 9.075145 0.000000
12.624277 9.017341 0.000000
12.543353 8.959538 0.000000
12.462428 8.901734 0.000000
12.381503 8.843931 0.000000
12.300578 8.786127 0.000000
12.219653 8.728324 0.000000
12.138728 8.670520 0.000000
12.057803 8.612717 0.000000
11.976879 8.554913 0.000000
11.895954 8.497110 0.000000
11.815029 8.439306 0.000000
11.734104 8.381503 0.000000
11.653179 8.323699 0.000000
11.572254 8.265896 0.000000
11.491329 8.208092 0.000000
11.410405 8.150289 0.000000
11.329480 8.092486 0.000000
11.248555 8.034682 0.000000
11.167630 7.976879 0.000000
11.086705 7.919075 0.000000
11.005780 7.861272 0.000000
10.924855 7.803468 0.000000
10.843931 7.745665 0.000000
10.763006 7.687861 0.000000
10.682081 7.630058 0.000000
10.601156 7.572254 0.000000
10.520231 7.514451 0.000000
10.439306 7.456647 0.000000
10.358382 7.398844 0.000000
10.277457 7.341040 0.000000
10.196532 7.283237 0.000000
10.115607 7.225434 0.000000
10.034682 7.167630 0.000000
9.953757 7.109827 0.000000
9.872832 7.052023 0.000000
9.791908 6.994220 0.000000
9.710983 6.936416 0.000000
9.630058 6.878613 0.000000
9.549133 6.820809 0.000000
9.468208 6.763006 0.000000
9.387283 6.705202 0.000000
9.306358 6.647399 0.000000
9.225434 6.589595 0.000000
9.144509 6.531792 0.000000
9.063584 6.473988 0.000000
8.982659 6.416185 0.000000
8.901734 6.358382 0.000000
8.820809 6.300578 0.000000
8.739884 6.242775 0.000000
8.658960 6.184971 0.000000
8.578035 6.127168 0.000000
8.497110 6.069364 0.000000
8.416185 6.011561 0.000000
8.335260 5.953757 0.000000
8.254335 5.895954 0.000000
8.173410 5.838150 0.000000
8.092486 5.780347 0.000000
8.011561 5.722543 0.000000
7.930636 5.664740 0.000000
7.849711 5.606936 0.000000
7.768786 5.549133 0.000000
7.687861 5.491329 0.000000
7.606936 5.433526 0.000000
7.526012 5.375723 0.000000
7.445087 5.317919 0.000000
7.364162 5.260116 0.000000
7.283237 5.202312 0.000000
7.202312 5.144509 0.000000
7.121387 5.086705 0.000000
7.040462 5.028902 0.000000
6.959538 4.971098 0.000000
6.878613 4.913295 0.000000
6.797688 4.855491 0.000000
6.716763 4.797688 0.000000
6.635838 4.739884 0.000000
6.554913 4.682081 0.000000
6.473988 4.624277 0.000000
6.393064 4.566474 0.000000
6.312139 4.508671 0.000000
6.231214 4.450867 0.000000
6.150289 4.393064 0.000000
6.069364 4.335260 0.000000
5.988439 4.277457 0.000000
5.907514 4.219653 0.000000
5.826590 4.161850 0.000000
5.745665 4.104046 0.000000
5.664740 4.046243 0.000000
5.583815 3.988439 0.000000
5.502890 3.930636 0.000000
5.421965 3.872832 0.000000
5.341040 3.815029 0.000000
5.260116 3.757225 0.000000
5.179191 3.699422 0.000000
5.098266 3.641618 0.000000
5.017341 3.583815 0.000000
4.936416 3.526012 0.000000
4.855491 3.468208 0.000000
4.774566 3.410405 0.000000
4.693642 3.352601 0.000000
4.612717 3.294798 0.000000
4.531792 3.236994 0.000000
4.450867 3.179191 0.000000
4.369942 3.121387 0.000000
4.289017 3.063584 0.000000
4.208092 3.005780 0.000000
4.127168 2.947977 0.000000
4.046243 2.890173 0.000000
3.965318 2.832370 0.000000
3.884393 2.774566 0.000000
3.803468 2.716763 0.000000
3.722543 2.658960 0.000000
3.641618 2.601156 0.000000
3.560694 2.543353 0.000000
3.479769 2.485549 0.000000
3.398844 2.427746 0.000000
3.317919 2.369942 0.000000
3.236994 2.312139 0.000000
3.156069 2.254335 0.000000
3.075145 2.196532 0.000000
2.994220 2.138728 0.000000
2.913295 2.080925 0.000000
2.832370 2.023121 0.000000
2.751445 1.965318 0.000000
2.670520 1.907514 0.000000
2.589595 1.849711 0.000000
2.508671 1.791908 0.000000
2.427746 1.734104 0.000000
2.346821 1.676301 0.000000
2.265896 1.618497 0.000000
2.184971 1.560694 0.000000
2.104046 1.502890 0.000000
2.023121 1.445087 0.000000
1.942197 1.387283 0.000000
1.861272 1.329480 0.000000
1.780347 1.271676 0.000000
1.699422 1.213873 0.000000
1.618497 1.156069 0.000000
1.537572 1.098266 0.000000
1.456647 1.040462 0.000000
1.375723 0.982659 0.000000
1.294798 0.924855 0.000000
1.213873 0.867052 0.000000
1.132948 0.809249 0.000000
1.052023 0.751445 0.000000
0.971098 0.693642 0.000000
0.890173 0.635838 0.000000
0.809249 0.578035 0.000000
0.728324 0.520231 0.000000
0.647399 0.462428 0.000000
0.566474 0.404624 0.000000
0.485549 0.346821 0.000000
0.404624 0.289017 0.000000
0.323699 0.231214 0.000000
0.242775 0.173410 0.000000
0.161850 0.115607 0.000000
0.080925 0.057803 0.000000
15.499854 1.048495 0.000000
15.252835 0.566406 0.000000
16.130886 0.692447 0.000000
10.309159 0.882007 0.000000
10.742485 0.637285 0.000000
10.608748 1.211505 0.000000
8.637442 0.405946 0.000000
8.575403 0.852740 0.000000
8.258954 0.576001 0.000000
4.580037 0.990894 0.000000
4.745076 0.839975 0.000000
4.799088 1.029682 0.000000
4.919124 0.843112 0.000000
5.034075 1.057162 0.000000
8.214715 1.016766 0.000000
13.542452 9.425132 0.000000
13.635094 9.460139 0.000000
13.557623 9.540818 0.000000
13.685996 9.536536 0.000000
3.686296 2.071115 0.000000
3.598347 2.014013 0.000000
3.698570 1.942264 0.000000
3.589640 1.902212 0.000000
8.726109 7.609975 0.000000
8.618706 8.208275 0.000000
8.249394 7.640053 0.000000
6.334390 4.140729 0.000000
6.458846 4.114748 0.000000
6.376892 4.211274 0.000000
6.458138 4.246854 0.000000
13.402357 8.985431 0.000000
13.436693 9.097517 0.000000
13.341887 9.073881 0.000000
13.357402 9.174994 0.000000
5.784913 3.911866 0.000000
5.727644 3.977106 0.000000
5.709169 3.861080 0.000000
5.649753 3.938052 0.000000
9.197568 6.012832 0.000000
9.072382 5.949981 0.000000
9.169723 5.895885 0.000000
14.436869 6.680831 0.000000
14.733743 6.602103 0.000000
14.515073 6.900095 0.000000
6.721731 3.676248 0.000000
6.698456 3.517728 0.000000
6.837434 3.541081 0.000000
6.767776 3.382871 0.000000
9.075544 6.052313 0.000000
12.704963 8.981630 0.000000
12.625771 8.923772 0.000000
14.039608 3.123098 0.000000
14.356143 2.614043 0.000000
14.557054 3.165260 0.000000
13.389941 6.802248 0.000000
13.608568 6.989956 0.000000
13.410911 7.067332 0.000000
13.609320 6.770522 0.000000
13.763642 8.197616 0.000000
13.626601 8.025516 0.000000
13.844301 8.034887 0.000000
13.738746 7.864922 0.000000
11.974266 8.454940 0.000000
[...]
POINT_DATA 2735
SCALARS UX float 1
LOOKUP_TABLE default
-0.000000
0.000000
-0.000000
3.345488
0.579607
-0.000000
-0.000000
-0.000000
-0.000000
-0.000000
-0.000000
-0.000000
-0.000000
-0.000000
-0.000000
-0.000000
-0.000000
-0.000000
-0.000000
-0.000000
-0.000000
-0.000000
-0.000000
-0.000000
-0.000000
-0.000000
-0.000000
-0.000000
-0.000000
-0.000000
-0.000000
-0.000000
-0.000000
-0.000000
-0.000000
-0.000000
-0.000000
-0.000000
-0.000000
-0.000000
-0.000000
-0.000000
-0.000000
-0.000000
-0.000000
-0.000000
-0.000000
-0.000000
-0.000000
-0.000000
0.000000
0.000000
0.000000
0.000000
0.000000
0.000000
0.000000
0.000000
0.000000
0.000000
0.000000
0.000000
0.000000
-0.000000
-0.000000
-0.730677
-1.540570
-2.228736
-2.917774
-3.669250
-4.468773
-5.298820
-6.024715
-6.704727
-7.467089
-8.264478
-8.961312
-9.578568
-9.797156
-9.873010
3.366517
2.974836
2.199920
-1.453256
-2.528651
-4.043201
-3.774189
-2.961172
-2.265285
-1.078617
-7.301953
-11.486259
-13.635949
-14.528131
-14.479016
-14.019720
-12.752599
-11.090827
-9.540132
-8.316434
-7.344044
-6.581306
-5.940096
-5.395136
-4.907950
-4.467062
-4.064943
-3.690614
-3.342285
-3.017439
-2.712570
-2.427424
-2.160673
-1.911723
-1.679984
-1.464576
-1.264913
-1.080396
-0.910112
-0.753801
-0.610042
-0.479787
-0.360006
-0.252411
-0.155144
-0.070826
3.329124
3.213954
2.449140
0.439147
-0.907754
-2.423554
-4.320939
-2.725124
-3.799569
-4.218520
-4.286530
-4.273261
-4.242261
-4.181437
-4.216705
-4.072762
-3.741110
-3.129219
-2.816837
-2.491895
-2.286818
-2.326405
-2.324538
-2.210771
-2.037482
-1.708239
-1.662200
-1.644755
-1.660608
-2.333074
-3.072315
-3.871561
-4.937072
-6.204259
-7.459557
-8.737630
-9.923467
-10.833646
-11.248616
-10.190096
-7.674527
-6.350740
-7.309913
-7.950245
-8.679346
-9.264815
-9.968067
-10.785946
-11.296894
-11.794048
-12.186028
-12.453670
-12.687721
-12.875071
-13.026470
-13.151291
-13.278371
-13.358861
-13.398894
-13.414861
-13.392589
-13.357656
-13.289460
-13.203303
-13.086463
-12.964488
-12.839417
-12.674386
-12.490337
-12.297578
-12.085305
-11.848766
-11.612186
-11.377957
-11.142713
-10.907758
-10.676688
-10.443528
-10.211917
-9.982565
-9.760964
-9.542654
-9.340223
-9.145779
-8.949723
-8.771202
-8.602647
-8.431070
-8.276437
-8.119661
-7.965017
-7.817490
-7.677746
-7.534395
-7.400734
-7.267778
-7.139255
-7.013788
-6.890535
-6.771949
-6.656789
-6.542620
-6.432179
-6.323537
-6.215985
-6.108369
-6.003432
-5.900153
-5.796909
-5.692978
-5.591431
-5.492535
-5.394188
-5.296952
-5.199925
-5.102225
-5.005104
-4.908405
-4.812615
-4.716675
-4.621633
-4.526859
-4.431945
-4.338261
-4.244147
-4.150558
-4.056258
-3.962106
-3.868542
-3.774425
-3.681067
-3.587724
-3.494013
-3.399978
-3.306154
-3.212486
-3.118673
-3.024696
-2.931062
-2.837358
-2.743094
-2.649206
-2.555563
-2.461741
-2.368171
-2.274406
-2.180826
-2.087497
-1.994452
-1.901535
-1.809064
-1.716828
-1.625159
-1.533720
-1.442933
-1.352527
-1.262857
-1.173778
-1.085732
-0.998161
-0.911608
-0.826471
-0.742071
-0.659058
-0.576774
-0.496774
-0.417658
-0.340334
-0.265822
-0.193503
-0.123553
-0.059005
0.120523
0.044283
0.146649
-0.957368
-0.672630
-1.264462
-0.476770
-1.006364
-0.689443
-1.545615
-1.309620
-1.594871
-1.306503
-1.623422
-1.228907
-4.451460
-6.176185
-5.294631
-9.466882
-3.169698
-3.079768
-2.977761
-2.912641
-14.585535
-13.303204
-14.537008
-6.523247
-6.440813
-6.670543
-6.733576
-1.132086
-0.885046
-1.580647
-1.806918
-6.142177
-6.281196
-6.052275
-6.212799
-10.336751
-10.380510
-9.699306
2.526779
2.605309
2.989781
-5.506586
-5.223515
-5.228906
-4.966213
-11.067260
-3.623154
-3.341279
-0.310346
-0.125627
0.243131
2.008505
3.332834
2.781325
2.764319
2.599478
1.173660
1.828229
2.311911
-1.795313
-2.122008
-1.904230
-14.049053
-9.691715
-9.379986
-9.010839
-9.963791
-2.215236
-0.733050
-1.103593
-2.109918
2.433961
-5.988256
-5.589382
-6.536129
-2.063988
-2.261723
-1.839820
-1.715287
-3.451211
-3.819824
-3.894695
-3.610956
-0.987083
-1.221248
-0.803554
-1.550249
-13.754672
-13.547510
-12.851308
-9.388273
-9.133864
-9.923264
-5.887212
-14.078822
-14.370996
-13.820860
-2.484703
-2.380636
-2.975986
-1.116681
-0.721628
-0.915135
-0.827294
-0.466885
-0.342875
-2.686786
-2.500140
-2.291699
-2.947869
-0.459534
-3.363421
-3.512155
-3.716916
-3.823007
-1.690520
-1.482784
-5.744231
-6.942066
-1.724276
-13.752074
-13.686581
0.648667
0.446060
0.615558
-1.028109
-0.721830
-0.751136
0.627757
0.740858
1.044967
-1.207968
-0.838652
-0.909818
-0.220239
-1.980026
-1.196259
-1.609178
-1.406990
-9.478877
-11.458611
-10.294904
-2.146886
-2.295803
-2.326300
-2.203899
-0.086020
-2.235345
-1.190803
-0.796367
-13.101006
-8.178700
-8.012859
-7.647301
-3.456455
-7.063479
-7.489760
-6.978583
-5.654217
-5.459134
-6.005842
-5.197338
-4.507017
-4.444384
-4.324813
-4.286195
-4.173432
-1.812403
-1.652682
-1.746063
-1.827254
-1.207944
-1.211105
2.769925
2.295581
2.328857
-5.351521
-5.605246
-5.515005
-5.734175
-1.684484
-1.575776
-1.746011
-1.299462
-7.734869
-7.059216
-7.484538
-4.903534
-4.842525
-4.689578
-7.418480
-4.098360
-2.036435
-5.073759
-4.902427
-4.908819
-12.755552
-13.169619
-13.002391
3.214384
1.830399
3.540828
1.424896
-2.266355
-2.575027
-1.550919
-5.253590
-5.027156
-5.197871
-6.789231
-1.369483
-7.483134
-8.942207
-9.494802
-9.088059
-7.327975
-6.586385
-7.447104
-8.714398
-8.829702
-8.202965
-5.520763
-5.296285
-5.504006
2.308294
2.551528
-4.978381
-4.732770
-4.908199
-4.700473
-7.030507
-7.397154
-7.315038
3.226880
1.232889
-7.763997
2.264552
-6.131201
-5.916785
-5.913012
-9.975316
-10.206810
-9.626340
-14.540114
-14.709302
-6.343128
-6.319527
-9.977105
-1.465452
1.751326
-2.333808
-2.471352
-2.476811
-10.244593
-10.572429
-3.100176
-1.746563
-1.663762
-0.564980
0.285874
-0.239251
0.159453
-5.575337
-5.914955
-5.565009
-5.995302
-6.188646
-6.400778
-6.482323
-9.713234
-9.297160
-10.163783
3.295096
2.380771
2.876923
-3.743119
-3.538507
-3.593200
-1.767529
-1.527093
-1.734614
-8.830844
-11.072067
-6.543924
-10.783848
-7.123355
-6.848981
-6.826861
-4.226944
-4.025437
-3.993863
-11.753025
-11.269511
-7.431069
-7.375945
-5.270278
-5.038868
-5.225420
-7.367411
-5.075597
-4.697385
-4.972103
-8.976865
-8.217156
-10.509944
-8.641066
-8.471347
-8.893665
-8.841712
-11.665825
-11.603763
-12.079251
-11.961213
-1.154006
-1.526751
-0.431194
-7.987471
-9.968126
-8.555610
-9.037689
-7.161903
-7.445699
2.641650
1.801871
2.713066
1.112539
-9.622886
-9.138231
-10.300117
-5.604747
-5.441677
-5.364634
-11.485884
-8.235652
-7.471895
-6.002472
-5.848740
-5.772867
-11.437680
-10.648935
-5.347187
-5.531292
-5.181431
2.690153
2.230807
2.193337
-2.549739
-2.649359
-2.805399
-6.164899
1.376493
1.239810
0.505305
0.872181
-12.605987
-12.855123
-12.865720
-12.594912
-12.316833
-13.024436
-10.878840
-11.165503
-10.906657
-10.343752
-11.168607
-13.832514
-14.325815
-3.466560
-3.716646
-3.429023
-10.238328
-6.837634
-6.367128
-10.664279
-11.046806
-11.069760
3.955618
1.251566
-1.579230
-1.197799
-0.286950
-0.555577
-7.901381
-7.381916
-7.867646
-8.294533
-10.055459
-9.992382
-7.260711
-8.780106
-7.712175
-6.616283
-8.602799
-8.853695
-9.445313
-2.496884
-2.406575
-2.361821
3.492365
4.404400
1.285230
-13.358347
-12.831598
2.113820
2.275020
1.573075
-7.012398
-6.799953
-7.081690
-6.709579
-7.188928
-7.367593
-7.444409
-1.842674
-1.878706
-2.142497
-2.374020
-10.604757
-9.834289
-11.864747
-1.754066
-1.869672
-1.805929
-6.215235
-6.484690
-6.316350
-6.729470
-8.511653
-8.411880
0.390441
0.266556
-12.117576
-12.479557
-3.720713
-3.893684
-11.306194
-8.757727
-9.248968
-9.027487
-8.709212
1.784012
1.043420
-8.503053
1.926445
0.997652
-1.102090
3.801863
2.704047
2.959816
0.096259
-0.226355
-1.014886
1.232098
-11.988303
-11.605421
-12.367072
-12.198205
-0.862996
-1.046670
-0.846963
-0.970755
-0.889329
-0.998566
-5.894483
-5.463867
-5.664709
-3.249498
-2.749238
-3.184317
-1.252488
-0.122748
-0.717503
-8.503288
-8.328308
-7.877179
-8.971328
-6.183492
-6.072747
-6.373595
-11.615400
-11.949604
-7.850835
-7.713057
-7.635154
-11.378625
-10.766913
-10.836240
-11.685416
0.495692
-0.438622
-0.442698
-0.969101
-1.115568
-0.776283
-1.366907
-1.437101
-1.822986
-1.358325
-2.062740
-2.136823
-2.504470
-2.381523
-2.784770
-12.107349
-12.204126
-12.925225
-2.180989
-3.649569
-4.006741
-12.399255
-4.173188
-4.104180
-4.055987
-4.500794
-4.210335
-3.866313
-5.449814
-3.913056
1.616811
1.480355
1.339220
-14.841674
-14.568626
-14.632450
1.720637
-14.635623
-14.293350
-12.463926
-11.793470
-11.755293
-12.763951
-11.312374
-10.197763
-9.504834
-9.691607
-9.853287
-12.484882
-10.747114
-1.277859
1.418039
-1.735327
-2.393930
-2.455785
-2.600059
-3.734683
-3.421658
-3.335546
-3.990167
-13.588243
-2.791917
-2.258947
-1.849056
-2.877456
-2.441887
-3.587125
-3.200175
-0.292172
-0.167641
-0.204576
-11.280772
-10.471293
-1.453587
-1.965315
-1.596434
0.651325
-2.098619
-2.332942
-1.791708
-1.294089
-1.326397
-13.040951
-13.480666
-14.119143
0.524290
0.399057
0.904211
0.626882
0.408613
-14.445354
-14.193316
-1.851848
-2.088734
-1.467092
-2.828280
-2.972744
-2.669000
-2.713596
-13.883067
-13.916422
-3.999315
-4.169501
-4.249058
-14.362653
-4.441889
-14.002007
-4.807805
-4.455551
-4.693811
-4.593220
-5.578153
-5.902329
-5.831140
-5.503887
0.897121
1.070973
1.167639
1.425905
-5.264661
-0.810124
-1.239617
-1.186310
-14.277532
-4.552942
-4.556787
-4.372892
-2.172901
-2.471265
-2.391947
-13.902485
-2.718279
-4.737486
-0.460513
-0.722570
-0.648235
-12.909024
-13.229296
-12.574982
-0.520524
-2.152441
-0.976457
-0.584118
-0.906631
-0.491003
-0.635089
-0.432402
-2.545691
-2.560430
-3.563952
-4.027357
-3.704667
0.637946
-3.771182
3.787685
3.448880
3.200909
-3.645204
-2.836104
-2.496067
-1.781033
-1.825182
-2.138492
-1.106116
-0.939609
-1.356102
-1.434483
-13.742447
-1.335486
-0.395053
-0.831624
-0.581114
-0.668371
-0.586147
-9.609910
-10.078991
-8.968372
-4.403739
-4.431131
-4.737615
-4.796725
-2.941988
-3.180442
-0.471117
-3.110166
-3.261616
-2.741158
-8.247127
-8.419048
-7.414239
-7.526040
-12.967428
-11.412860
-2.970765
-3.339818
-3.221841
-3.267786
-3.548282
-3.597285
-5.828067
-6.150811
-5.769601
-0.508309
-0.993476
-10.157234
-12.761449
-4.760170
-5.054750
-4.726201
-3.027382
-2.993249
-2.711344
-1.621797
-2.126524
-1.817753
-2.103829
-3.016582
-3.057721
-2.854228
-2.499557
-2.980941
-4.034292
-4.117483
-2.446130
-0.776751
-2.267830
-3.255931
-5.604830
-4.218416
-2.622364
-5.850301
-7.702393
-7.337987
-7.526416
-7.729093
-5.543868
-2.505582
-2.607819
-2.235178
-2.271863
-2.035419
-1.340051
0.009914
-1.166415
-0.431326
-13.783331
0.792433
-14.069369
-7.200149
-6.841378
-7.133028
0.820319
-3.985825
-3.374389
-3.269082
-3.606895
-3.019879
-0.943773
-1.087273
-0.890842
-6.257048
-6.543999
-6.860141
-8.241574
-8.018449
-7.817534
-9.213219
-7.715212
-8.107246
-7.298885
-6.852447
-8.658139
-1.009882
-1.182334
-0.849465
-0.819823
-0.605268
-1.064919
-0.315410
-0.347158
-1.245900
-1.259757
-7.695289
-1.032090
-6.705742
-5.457965
-8.256774
-1.272874
-1.448111
-1.298862
-1.188490
-1.161814
-7.436934
-1.016932
-1.026918
-0.910107
-1.073554
-1.288225
-9.558309
-9.244344
-3.361173
-3.775804
-8.897921
-8.856781
-5.801958
-5.993122
-6.146672
-0.095333
-1.491591
-3.202952
-3.367529
-3.359725
-1.316225
-4.060564
-5.446717
-1.503779
-1.689767
-5.034475
-3.342257
-6.313752
-1.259339
-1.506521
-1.504407
-1.721133
-1.762517
-3.479670
-13.065671
-13.656349
-1.175309
-1.236683
-1.316151
-3.543753
-1.871365
-12.303056
-1.729347
-5.045559
-4.725461
-0.949067
-5.057632
-5.260857
-5.453339
-0.530502
-0.682018
-5.717857
-4.998778
-4.759904
-4.695113
-4.393823
1.196469
-14.224669
-14.288135
0.716451
-14.140044
-1.687555
-2.427407
-2.464419
-2.837641
-2.930512
-2.839947
-2.799295
-2.630344
-2.758183
-1.175637
-13.775384
-13.311168
-13.412706
-3.583330
-3.421992
-3.350127
-3.192632
-3.597403
-13.596502
-1.675480
1.332070
1.148118
0.967670
0.731550
-0.676967
-1.088582
-14.134536
-6.386642
-6.451132
-0.941690
-0.365747
-3.279829
-4.463700
-4.308456
-4.475678
-1.327022
-1.376736
-1.466474
-2.586773
-2.670498
-2.403141
-2.233293
-0.711052
-1.063009
-2.806458
-2.849157
-2.978471
-2.556900
-2.344336
-5.288737
-5.290188
-5.554633
-2.851685
-2.433041
-1.735632
-2.200694
-2.103881
-3.728806
-2.442929
-1.546030
-1.630585
-4.746147
-4.464357
-4.485660
-13.027380
-0.331154
-0.318558
-5.239153
-5.425908
-5.626824
-3.088575
-2.874561
-5.773885
-6.098596
-0.914548
-3.979790
-3.879016
-3.815668
-4.039443
-4.261737
-2.642471
-12.082026
-11.625281
-11.981520
-4.668657
-1.970910
-3.482560
-3.678802
-3.667638
-0.980975
-0.821166
-3.853288
-1.789093
-1.972151
-1.151762
-1.084734
-1.301753
-1.414803
-5.104515
-5.170190
-2.023581
-1.528896
-2.602668
-1.093935
-3.101629
-2.195349
-2.712418
-3.283758
-3.177011
-3.084687
-1.492236
-3.376757
-4.393391
-4.746947
-4.384679
-0.122703
-0.206776
-0.261222
-4.890635
-7.741254
-4.562418
-11.557926
-12.346228
-1.624526
-1.924925
-6.989544
-4.438144
3.031811
-5.159573
-5.172077
-5.515755
-5.499262
-0.628926
-0.607224
-0.420734
-0.437909
-0.774253
-3.632663
-3.541211
-3.322805
-3.836211
-1.114929
-3.093136
-2.664070
-5.144564
-13.051039
-3.727001
-4.033037
-4.331421
-5.055387
-4.871630
-4.827847
-5.070204
0.753544
0.352073
-0.042723
-0.540831
-5.113763
-5.589587
-5.992790
-2.243248
-2.207961
-3.496328
-3.384091
-3.084134
-1.743720
-1.977527
-1.499942
-5.441862
-5.695846
-5.381719
-0.385705
-0.522220
-0.445932
-4.744588
-4.626501
-4.410279
-4.322808
-0.873221
-0.816885
-0.938977
-1.017086
-1.246677
-6.096499
-4.831333
-0.981578
-2.686997
-2.837470
-2.443597
-0.578400
-4.844220
-4.719492
-4.495640
-4.331051
-4.158749
-2.395874
-2.531889
-3.755064
-2.224325
-0.412949
-0.300141
-4.001483
-2.190106
-3.528046
-3.463088
-3.348373
-3.421689
-5.574650
-5.690751
-5.763839
-5.945938
-0.330565
-0.458751
-0.399534
-2.023142
-2.116216
-6.168658
-4.752859
-4.483601
-4.427715
-2.541065
-5.289347
-5.139980
-5.101700
-4.782116
-5.066288
-4.751248
-13.409835
-3.282437
-3.089835
-3.502251
-3.853015
-4.030834
-4.454243
-4.619120
-3.491873
-6.092567
-6.630376
-5.613334
-4.913840
0.219488
0.453579
0.263282
0.553342
0.676319
-4.240864
-4.113404
-3.903215
-4.443956
0.076838
0.876456
0.916603
-0.529921
-1.027842
1.353942
0.684295
1.398145
-4.603909
-2.498823
-2.572690
-2.351829
-2.704376
-2.086867
-2.204595
-2.258678
-2.033091
-2.036058
-1.908945
-5.527300
-5.125617
-5.188101
-5.361181
-5.670892
-13.400779
-13.156354
-2.855062
-3.165904
-3.541642
-3.750507
-3.752758
-11.608696
0.338293
0.495125
0.226026
-8.975316
-8.453427
-8.510971
-2.893815
-3.195444
-7.965093
-4.329122
-4.103903
-3.409648
-3.895439
-14.609729
-3.789244
-3.892023
-4.101361
-0.627730
-0.601868
-1.891724
-0.599704
-0.477012
-0.662880
-0.768964
-1.720606
-5.517811
-5.489251
-5.687278
-5.499141
-5.316173
-2.964961
-2.740641
-3.067229
-5.072170
-2.593504
-2.876107
-0.598073
-2.452071
-3.372920
-2.473332
-2.864943
-1.990203
-1.620808
-3.881914
-2.311290
-4.733428
-4.036423
-3.692926
-3.037811
-2.793425
-2.701850
-2.674610
-3.682892
-6.036702
-5.892431
-13.563077
-4.509406
-8.241320
-7.542612
-8.631022
-1.648115
-2.781052
-2.541829
-0.495225
-0.906415
-1.315488
-0.213745
-0.571010
-0.240205
-0.563537
-4.837558
-5.052358
0.204600
-5.429274
-3.307803
-3.227163
-4.056631
-4.219827
-3.951539
-5.648271
-4.578885
-5.030244
-1.988174
-1.549707
-7.155715
-6.759602
-6.576563
-3.813699
-0.397104
-1.380762
-1.100233
-1.405063
-1.835507
-1.329032
-1.858545
-4.120888
-3.895170
1.052725
0.723577
-1.051416
1.314821
-2.105347
-3.787056
-4.054964
-3.644961
-3.406334
1.822741
-1.934428
-1.947289
-3.027772
-3.164874
-2.088917
-2.035821
-2.254711
-2.006842
-3.240077
-3.592743
-3.242254
-11.512193
-11.013706
-10.474997
-12.770186
-5.919463
-6.183591
-4.596029
-4.268010
-4.305323
-4.519025
-4.254737
-4.320826
-3.759883
-4.462298
-5.253699
-5.024209
-4.236176
-0.464264
-0.166466
-0.035315
-6.202688
-4.982722
-5.442435
-3.147375
-6.057792
-5.839481
-5.784453
-5.634277
-5.336564
-2.043704
-3.016612
-2.980993
-3.368451
-2.488944
-0.357579
0.233754
0.527159
-2.988830
1.815912
2.152631
1.982831
-5.067270
2.264342
-4.716040
-0.488991
-0.421963
-0.348982
-0.627291
-0.691371
-1.455579
-1.372884
-6.645953
-3.609286
-1.621361
-1.392820
-1.622788
-3.617452
-3.983666
-3.630649
-4.921759
-3.408870
-4.201401
-4.623500
-4.577655
-12.031262
-0.427849
-0.617849
-0.331577
-3.130338
-0.646962
-2.868843
-3.209551
-3.599404
-0.802246
-3.548942
-0.256007
-4.149125
-5.158616
-5.056922
-5.379280
-7.318939
-6.718868
-12.102093
-0.565874
-0.773432
-1.877285
-2.536817
-2.436411
-1.819398
-3.894317
-1.035035
-4.748201
-2.705700
-1.321246
-9.802156
-2.453509
-2.655714
-8.585971
-4.274947
-4.431156
-4.151767
-1.981326
-3.933568
-2.175272
-2.088798
-1.993669
-1.842265
-2.275663
-4.565965
-0.218714
-0.234958
2.080149
2.160988
2.510825
-2.426205
2.333670
2.001698
-0.787237
-2.426073
-2.581291
-2.565128
-4.235644
-3.890352
-2.712332
-2.587370
-3.106298
-3.340295
-0.199935
-10.634703
-9.819219
-9.731773
-2.444306
-2.313450
-4.555805
-4.883132
-2.201369
-6.123171
-6.328573
-6.457075
-6.712339
-5.918119
-13.299566
-0.042808
-4.510799
-4.683196
-4.389101
-3.670406
-3.597038
-4.147592
-0.735862
-0.577799
-2.799222
-2.759953
-2.459344
5.381053
-0.886996
0.209107
-3.940399
-3.933060
-9.394120
-9.089312
-9.087966
-4.939879
-5.139624
-5.233095
-3.372085
-3.770262
-3.807991
-3.052857
-4.815613
-5.330939
-5.705717
-5.578021
2.193395
3.229955
2.339730
2.534666
-5.948956
0.344816
0.191291
1.443876
-5.361558
-0.763882
-6.208578
-2.146019
-2.223056
-2.089177
-3.796257
-3.875845
-14.739316
-6.947975
-6.782377
-2.210337
-4.282740
-4.118835
-4.424280
-6.531468
-6.607744
-3.778226
-3.467832
-1.689805
-4.941054
-5.009752
-6.113926
-5.853623
-5.183907
-7.285186
-4.738376
2.591879
2.471715
2.312384
1.493271
1.610817
0.639924
1.864756
-2.063808
-2.044132
-5.215844
-4.917993
-4.595423
-4.869414
-2.970946
-3.413495
-0.228778
-3.267470
-2.513334
-4.318277
-4.566997
-4.431195
-4.409054
-4.806226
-5.026154
-3.087621
-3.578834
-2.966929
-4.544054
-4.831677
-5.124027
-3.568266
-4.316243
-2.611837
-2.526162
-2.490006
-12.773844
-11.898305
-12.467122
-11.707228
-3.926111
-4.173559
-2.355752
-2.482912
-0.715433
-0.780285
-0.546617
-2.691370
-5.331264
-1.317314
-0.972422
-5.837318
-2.045203
-2.259988
-3.662636
-3.824018
-3.797765
-3.776626
-4.187280
-0.461630
0.404250
0.315494
-6.044494
-5.644726
-6.041012
-3.667034
-4.986964
-3.393110
-3.865877
-4.146833
-7.935172
-7.026555
-4.366789
-4.495190
-5.357223
0.925617
-3.323745
-0.254050
-3.575535
-1.905832
-1.943875
-1.685968
-1.233923
-3.206836
-3.136242
-3.087883
0.686249
-1.529023
-0.730796
-0.278189
-4.156778
-4.282625
-4.160719
-7.413977
-6.947558
-7.008420
-0.957521
-0.908845
0.026981
-3.191642
1.540509
1.131029
1.368945
-0.530039
-2.257670
-2.624969
-0.294513
1.183838
1.641227
1.896560
-1.003190
1.827616
-3.712396
-3.528150
-1.566262
-2.191839
-6.870162
-6.108989
-8.004640
-0.885468
-1.060320
-1.167176
-2.960821
-2.870334
-2.787516
-3.245014
-0.362873
0.083777
0.544215
-2.552397
-3.185336
-2.946150
-2.888892
-3.234450
2.872166
-4.946591
-5.098483
-5.463325
-1.033757
-2.807425
-1.767057
-1.538411
0.723228
-0.393367
-3.674238
-3.791071
-3.994194
-0.349485
-3.697130
-7.263314
-5.502287
-6.187339
-10.511386
-3.057886
-6.851408
-6.949603
-7.218674
-6.669314
-7.607586
-0.433988
-0.918840
-0.414246
-5.254024
1.151132
1.605200
1.453945
1.228233
0.903311
-0.453232
-3.649477
-9.427253
-2.832797
-4.122967
-3.053828
-2.650012
-2.625051
-4.156150
-3.961018
-1.393927
-9.675358
-7.977984
-7.703822
-2.148931
-2.223753
-2.494174
-10.795299
-10.524084
-3.918520
-3.486564
-2.287409
-2.480237
-2.649632
-3.614583
-4.759541
-5.092688
-12.629467
-12.836194
2.080592
2.130693
1.914776
-4.825578
-2.781236
-2.519064
-2.599159
-4.637041
-5.338738
-5.647358
-5.482946
-5.808865
-4.119025
-2.796607
-1.214825
-1.751679
-1.836852
-1.959085
-12.618418
-12.427339
-12.701408
-5.435562
-4.960852
-13.300397
-12.674950
-11.508335
-3.971231
-4.203937
-2.943224
-6.615840
-2.480240
-5.098610
-1.933326
-1.837475
-8.716092
-10.725502
-6.799011
-6.505804
-6.412275
-1.919439
-4.900882
-13.986709
-2.967991
-2.878488
-3.159914
-9.557582
-10.739933