# vtk DataFile Version 2.0
Test
ASCII
DATASET POLYDATA
POINTS 2735 float
0.000000 0.000000 0.000000
20.000000 0.000000 0.000000
20.000000 10.000000 0.000000
14.000000 10.000000 0.000000
10.000000 10.000000 0.000000
0.100612 0.000000 0.000000
0.205780 0.000000 0.000000
0.315709 0.000000 0.000000
0.430615 0.000000 0.000000
0.550723 0.000000 0.000000
0.676270 0.000000 0.000000
0.807500 0.000000 0.000000
0.944673 0.000000 0.000000
1.088055 0.000000 0.000000
1.237930 0.000000 0.000000
1.394590 0.000000 0.000000
1.558343 0.000000 0.000000
1.729510 0.000000 0.000000
1.908426 0.000000 0.000000
2.095444 0.000000 0.000000
2.290928 0.000000 0.000000
2.495263 0.000000 0.000000
2.708850 0.000000 0.000000
2.932106 0.000000 0.000000
3.165471 0.000000 0.000000
3.409402 0.000000 0.000000
3.664376 0.000000 0.000000
3.930895 0.000000 0.000000
4.209480 0.000000 0.000000
4.500679 0.000000 0.000000
4.805062 0.000000 0.000000
5.123225 0.000000 0.000000
5.455794 0.000000 0.000000
5.803420 0.000000 0.000000
6.166785 0.000000 0.000000
6.546601 0.000000 0.000000
6.943614 0.000000 0.000000
7.358602 0.000000 0.000000
7.792379 0.000000 0.000000
8.245795 0.000000 0.000000
8.719739 0.000000 0.000000
9.215142 0.000000 0.000000
9.732974 0.000000 0.000000
10.274252 0.000000 0.000000
10.840036 0.000000 0.000000
11.431436 0.000000 0.000000
12.049612 0.000000 0.000000
12.695776 0.000000 0.000000
13.371196 0.000000 0.000000
14.077196 0.000000 0.000000
14.815160 0.000000 0.000000
15.586536 0.000000 0.000000
16.392837 0.000000 0.000000
17.235643 0.000000 0.000000
18.116607 0.000000 0.000000
19.037458 0.000000 0.000000
20.000000 1.000000 0.000000
20.000000 2.000000 0.000000
20.000000 3.000000 0.000000
20.000000 4.000000 0.000000
20.000000 5.000000 0.000000
20.000000 6.000000 0.000000
20.000000 7.000000 0.000000
20.000000 8.000000 0.000000
20.000000 9.000000 0.000000
19.106429 10.000000 0.000000
18.332628 10.000000 0.000000
17.662544 10.000000 0.000000
17.082276 10.000000 0.000000
16.579784 10.000000 0.000000
16.144643 10.000000 0.000000
15.767828 10.000000 0.000000
15.441518 10.000000 0.000000
15.158946 10.000000 0.000000
14.914249 10.000000 0.000000
14.702350 10.000000 0.000000
14.518853 10.000000 0.000000
14.359951 10.000000 0.000000
14.222348 10.000000 0.000000
14.103188 10.000000 0.000000
13.896513 10.000000 0.000000
13.768928 10.000000 0.000000
13.611637 10.000000 0.000000
13.417720 10.000000 0.000000
13.178651 10.000000 0.000000
12.883915 10.000000 0.000000
12.520551 10.000000 0.000000
12.072578 10.000000 0.000000
11.520297 10.000000 0.000000
10.839418 10.000000 0.000000
9.329609 9.329609 0.000000
8.699667 8.699667 0.000000
8.107732 8.107732 0.000000
7.551511 7.551511 0.000000
7.028850 7.028850 0.000000
6.537725 6.537725 0.000000
6.076231 6.076231 0.000000
5.642581 5.642581 0.000000
5.235096 5.235096 0.000000
4.852197 4.852197 0.000000
4.492399 4.492399 0.000000
4.154311 4.154311 0.000000
3.836621 3.836621 0.000000
3.538098 3.538098 0.000000
3.257588 3.257588 0.000000
2.994001 2.994001 0.000000
2.746319 2.746319 0.000000
2.513580 2.513580 0.000000
2.294884 2.294884 0.000000
2.089382 2.089382 0.000000
1.896280 1.896280 0.000000
1.714829 1.714829 0.000000
1.544325 1.544325 0.000000
1.384109 1.384109 0.000000
1.233559 1.233559 0.000000
1.092093 1.092093 0.000000
0.959163 0.959163 0.000000
0.834252 0.834252 0.000000
0.716878 0.716878 0.000000
0.606586 0.606586 0.000000
0.502949 0.502949 0.000000
0.405564 0.405564 0.000000
0.314055 0.314055 0.000000
0.228068 0.228068 0.000000
0.147268 0.147268 0.000000
0.071344 0.071344 0.000000
13.919075 9.942197 0.000000
13.838150 9.884393 0.000000
13.757225 9.826590 0.000000
13.676301 9.768786 0.000000
13.595376 9.710983 0.000000
13.514451 9.653179 0.000000
13.433526 9.595376 0.000000
13.352601 9.537572 0.000000
13.271676 9.479769 0.000000
13.190751 9.421965 0.000000
13.109827 9.364162 0.000000
13.028902 9.306358 0.000000
12.947977 9.248555 0.000000
12.867052 9.190751 0.000000
12.786127 9.132948 0.000000
12.705202 9.075145 0.000000
12.624277 9.017341 0.000000
12.543353 8.959538 0.000000
12.462428 8.901734 0.000000
12.381503 8.843931 0.000000
12.300578 8.786127 0.000000
12.219653 8.728324 0.000000
12.138728 8.670520 0.000000
12.057803 8.612717 0.000000
11.976879 8.554913 0.000000
11.895954 8.497110 0.000000
11.815029 8.439306 0.000000
11.734104 8.381503 0.000000
11.653179 8.323699 0.000000
11.572254 8.265896 0.000000
11.491329 8.208092 0.000000
11.410405 8.150289 0.000000
11.329480 8.092486 0.000000
11.248555 8.034682 0.000000
11.167630 7.976879 0.000000
11.086705 7.919075 0.000000
11.005780 7.861272 0.000000
10.924855 7.803468 0.000000
10.843931 7.745665 0.000000
10.763006 7.687861 0.000000
10.682081 7.630058 0.000000
10.601156 7.572254 0.000000
10.520231 7.514451 0.000000
10.439306 7.456647 0.000000
10.358382 7.398844 0.000000
10.277457 7.341040 0.000000
10.196532 7.283237 0.000000
10.115607 7.225434 0.000000
10.034682 7.167630 0.000000
9.953757 7.109827 0.000000
9.872832 7.052023 0.000000
9.791908 6.994220 0.000000
9.710983 6.936416 0.000000
9.630058 6.878613 0.000000
9.549133 6.820809 0.000000
9.468208 6.763006 0.000000
9.387283 6.705202 0.000000
9.306358 6.647399 0.000000
9.225434 6.589595 0.000000
9.144509 6.531792 0.000000
9.063584 6.473988 0.000000
8.982659 6.416185 0.000000
8.901734 6.358382 0.000000
8.820809 6.300578 0.000000
8.739884 6.242775 0.000000
8.658960 6.184971 0.000000
8.578035 6.127168 0.000000
8.497110 6.069364 0.000000
8.416185 6.011561 0.000000
8.335260 5.953757 0.000000
8.254335 5.895954 0.000000
8.173410 5.838150 0.000000
8.092486 5.780347 0.000000
8.011561 5.722543 0.000000
7.930636 5.664740 0.000000
7.849711 5.606936 0.000000
7.768786 5.549133 0.000000
7.687861 5.491329 0.000000
7.606936 5.433526 0.000000
7.526012 5.375723 0.000000
7.445087 5.317919 0.000000
7.364162 5.260116 0.000000
7.283237 5.202312 0.000000
7.202312 5.144509 0.000000
7.121387 5.086705 0.000000
7.040462 5.028902 0.000000
6.959538 4.971098 0.000000
6.878613 4.913295 0.000000
6.797688 4.855491 0.000000
6.716763 4.797688 0.000000
6.635838 4.739884 0.000000
6.554913 4.682081 0.000000
6.473988 4.624277 0.000000
6.393064 4.566474 0.000000
6.312139 4.508671 0.000000
6.231214 4.450867 0.000000
6.150289 4.393064 0.000000
6.069364 4.335260 0.000000
5.988439 4.277457 0.000000
5.907514 4.219653 0.000000
5.826590 4.161850 0.000000
5.745665 4.104046 0.000000
5.664740 4.046243 0.000000
5.583815 3.988439 0.000000
5.502890 3.930636 0.000000
5.421965 3.872832 0.000000
5.341040 3.815029 0.000000
5.260116 3.757225 0.000000
5.179191 3.699422 0.000000
5.098266 3.641618 0.000000
5.017341 3.583815 0.000000
4.936416 3.526012 0.000000
4.855491 3.468208 0.000000
4.774566 3.410405 0.000000
4.693642 3.352601 0.000000
4.612717 3.294798 0.000000
4.531792 3.236994 0.000000
4.450867 3.179191 0.000000
4.369942 3.121387 0.000000
4.289017 3.063584 0.000000
4.208092 3.005780 0.000000
4.127168 2.947977 0.000000
4.046243 2.890173 0.000000
3.965318 2.832370 0.000000
3.884393 2.774566 0.000000
3.803468 2.716763 0.000000
3.722543 2.658960 0.000000
3.641618 2.601156 0.000000
3.560694 2.543353 0.000000
3.479769 2.485549 0.000000
3.398844 2.427746 0.000000
3.317919 2.369942 0.000000
3.236994 2.312139 0.000000
3.156069 2.254335 0.000000
3.075145 2.196532 0.000000
2.994220 2.138728 0.000000
2.913295 2.080925 0.000000
2.832370 2.023121 0.000000
2.751445 1.965318 0.000000
2.670520 1.907514 0.000000
2.589595 1.849711 0.000000
2.508671 1.791908 0.000000
2.427746 1.734104 0.000000
2.346821 1.676301 0.000000
2.265896 1.618497 0.000000
2.184971 1.560694 0.000000
2.104046 1.502890 0.000000
2.023121 1.445087 0.000000
1.942197 1.387283 0.000000
1.861272 1.329480 0.000000
1.780347 1.271676 0.000000
1.699422 1.213873 0.000000
1.618497 1.156069 0.000000
1.537572 1.098266 0.000000
1.456647 1.040462 0.000000
1.375723 0.982659 0.000000
1.294798 0.924855 0.000000
1.213873 0.867052 0.000000
1.132948 0.809249 0.000000
1.052023 0.751445 0.000000
0.971098 0.693642 0.000000
0.890173 0.635838 0.000000
0.809249 0.578035 0.000000
0.728324 0.520231 0.000000
0.647399 0.462428 0.000000
0.566474 0.404624 0.000000
0.485549 0.346821 0.000000
0.404624 0.289017 0.000000
0.323699 0.231214 0.000000
0.242775 0.173410 0.000000
0.161850 0.115607 0.000000
0.080925 0.057803 0.000000
15.499854 1.048495 0.000000
15.252835 0.566406 0.000000
16.130886 0.692447 0.000000
10.309159 0.882007 0.000000
10.742485 0.637285 0.000000
10.608748 1.211505 0.000000
8.637442 0.405946 0.000000
8.575403 0.852740 0.000000
8.258954 0.576001 0.000000
4.580037 0.990894 0.000000
4.745076 0.839975 0.000000
4.799088 1.029682 0.000000
4.919124 0.843112 0.000000
5.034075 1.057162 0.000000
8.214715 1.016766 0.000000
13.542452 9.425132 0.000000
13.635094 9.460139 0.000000
13.557623 9.540818 0.000000
13.685996 9.536536 0.000000
3.686296 2.071115 0.000000
3.598347 2.014013 0.000000
3.698570 1.942264 0.000000
3.589640 1.902212 0.000000
8.726109 7.609975 0.000000
8.618706 8.208275 0.000000
8.249394 7.640053 0.000000
6.334390 4.140729 0.000000
6.458846 4.114748 0.000000
6.376892 4.211274 0.000000
6.458138 4.246854 0.000000
13.402357 8.985431 0.000000
13.436693 9.097517 0.000000
13.341887 9.073881 0.000000
13.357402 9.174994 0.000000
5.784913 3.911866 0.000000
5.727644 3.977106 0.000000
5.709169 3.861080 0.000000
5.649753 3.938052 0.000000
9.197568 6.012832 0.000000
9.072382 5.949981 0.000000
9.169723 5.895885 0.000000
14.436869 6.680831 0.000000
14.733743 6.602103 0.000000
14.515073 6.900095 0.000000
6.721731 3.676248 0.000000
6.698456 3.517728 0.000000
6.837434 3.541081 0.000000
6.767776 3.382871 0.000000
9.075544 6.052313 0.000000
12.704963 8.981630 0.000000
12.625771 8.923772 0.000000
14.039608 3.123098 0.000000
14.356143 2.614043 0.000000
14.557054 3.165260 0.000000
13.389941 6.802248 0.000000
13.608568 6.989956 0.000000
13.410911 7.067332 0.000000
13.609320 6.770522 0.000000
13.763642 8.197616 0.000000
13.626601 8.025516 0.000000
13.844301 8.034887 0.000000
13.738746 7.864922 0.000000
11.974266 8.454940 0.000000
[...]
POINT_DATA 2735
SCALARS UX float 1
LOOKUP_TABLE default
-0.000000
0.000000
-0.000000
-10.026605
-7.237683
-0.000000
-0.000000
-0.000000
-0.000000
-0.000000
-0.000000
-0.000000
-0.000000
-0.000000
-0.000000
-0.000000
-0.000000
-0.000000
-0.000000
-0.000000
-0.000000
-0.000000
-0.000000
-0.000000
-0.000000
-0.000000
-0.000000
-0.000000
-0.000000
-0.000000
-0.000000
-0.000000
-0.000000
-0.000000
-0.000000
-0.000000
-0.000000
-0.000000
-0.000000
-0.000000
-0.000000
-0.000000
-0.000000
-0.000000
-0.000000
-0.000000
-0.000000
-0.000000
-0.000000
0.000000
0.000000
0.000000
0.000000
0.000000
0.000000
0.000000
0.000000
0.000000
0.000000
0.000000
0.000000
0.000000
0.000000
0.000000
-0.000000
-0.362210
-0.765036
-1.076346
-1.364803
-1.652705
-1.932167
-2.205873
-2.425885
-2.621128
-2.823387
-3.077270
-3.321708
-3.600758
-4.156956
-9.311951
-8.131279
-7.498172
-6.627056
-6.376369
-6.485232
-6.188415
-6.012294
-5.904980
-5.878212
-6.104521
-10.415324
-8.832817
-7.480023
-6.532891
-5.885332
-5.400136
-5.012299
-4.678974
-4.378363
-4.095095
-3.824282
-3.563020
-3.310013
-3.062833
-2.824682
-2.593974
-2.372177
-2.159547
-1.957396
-1.765516
-1.584138
-1.413048
-1.257067
-1.112487
-0.978174
-0.853524
-0.738060
-0.631373
-0.532878
-0.442373
-0.358834
-0.282851
-0.212749
-0.149480
-0.092049
-0.042051
-8.472443
-7.231159
-6.869902
-6.357756
-5.826413
-5.763744
-5.865778
-5.940779
-5.196750
-5.017181
-4.738926
-4.533642
-4.241180
-4.374475
-4.106873
-4.081105
-4.057273
-3.940606
-3.452826
-3.480933
-3.456469
-3.377641
-3.426715
-3.534908
-3.626673
-3.715694
-3.804206
-3.900304
-3.989618
-4.088001
-4.189769
-4.302228
-4.400681
-4.498286
-4.597268
-4.695150
-4.793667
-4.880958
-4.958417
-5.031017
-5.087701
-5.143916
-5.188793
-5.224686
-5.257741
-5.277619
-5.288810
-5.300948
-5.305336
-5.308118
-5.302432
-5.286670
-5.269454
-5.244323
-5.218776
-5.192466
-5.166020
-5.136047
-5.104264
-5.071868
-5.041131
-5.007619
-4.975347
-4.943419
-4.910945
-4.880317
-4.849664
-4.817932
-4.788658
-4.757916
-4.728308
-4.698215
-4.667072
-4.635571
-4.603880
-4.571529
-4.539591
-4.507376
-4.474428
-4.441548
-4.408041
-4.374149
-4.340496
-4.306629
-4.271644
-4.236846
-4.201759
-4.165501
-4.129435
-4.092438
-4.055171
-4.017439
-3.979401
-3.940433
-3.901273
-3.861134
-3.820674
-3.779606
-3.738036
-3.696306
-3.654005
-3.611213
-3.567763
-3.523984
-3.479497
-3.434370
-3.389074
-3.343246
-3.296922
-3.249926
-3.202595
-3.155093
-3.107059
-3.058482
-3.009194
-2.959502
-2.909243
-2.858744
-2.807850
-2.756709
-2.704888
-2.652806
-2.600367
-2.547372
-2.494138
-2.440396
-2.386346
-2.332105
-2.277423
-2.222592
-2.167554
-2.112247
-2.056585
-2.000756
-1.944884
-1.888706
-1.832384
-1.776064
-1.719644
-1.663142
-1.606624
-1.550069
-1.493484
-1.436988
-1.380639
-1.324343
-1.268432
-1.214259
-1.160130
-1.106105
-1.052370
-0.998895
-0.945753
-0.892795
-0.840277
-0.788022
-0.736235
-0.684782
-0.633937
-0.583363
-0.533363
-0.484112
-0.435283
-0.387130
-0.339326
-0.292690
-0.246514
-0.201214
-0.157383
-0.114722
-0.073336
-0.035031
0.146676
0.079493
0.143118
-0.615192
-0.405192
-0.771946
-0.380229
-0.778439
-0.553723
-0.988416
-0.849744
-1.032680
-0.857854
-1.065853
-0.947623
-2.508685
-2.344566
-3.274029
-2.253306
-1.891455
-1.835484
-1.781914
-1.738709
-6.785000
-7.790740
-6.775327
-3.620621
-3.592607
-3.672137
-3.694038
-1.642197
-1.653510
-1.827727
-1.898877
-3.465287
-3.515449
-3.427203
-3.486027
-4.469805
-4.469997
-4.369990
0.765705
0.892578
0.855371
-3.227771
-3.109621
-3.113778
-3.000049
-4.569924
-3.601424
-3.532523
-0.123101
-0.004196
0.080576
-0.048785
0.240398
0.060952
0.178294
0.064006
0.090113
0.261997
0.277837
-3.436365
-3.313067
-3.135275
-7.245983
-4.369021
-4.318666
-4.248070
-4.418466
-2.987460
-1.719246
-1.987763
-1.950996
-1.725893
-3.846826
-3.677737
-3.972541
-1.016900
-1.208556
-0.938413
-0.924548
-2.291298
-2.473712
-2.514226
-2.365977
-0.778007
-0.942989
-0.639031
-1.172483
-5.171495
-5.129232
-4.934128
-4.321291
-4.277193
-4.412982
-3.936717
-5.241427
-5.409504
-5.115385
-3.318320
-3.147791
-3.437633
-0.863573
-0.572868
-0.711411
-0.570672
-0.344524
-0.236725
-1.275029
-1.247990
-1.067111
-1.458422
-0.375290
-1.882264
-1.902664
-2.096897
-2.081962
-1.003263
-0.844052
-2.037777
-2.474591
-1.077705
-5.177333
-5.115951
-2.447318
-2.481450
-2.163474
-0.613707
-0.429518
-0.451516
0.445994
0.397387
0.627843
-0.732978
-0.509233
-0.558725
0.117067
-2.801029
-0.822667
-1.087708
-0.945639
-3.790619
-4.037462
-3.856384
-1.251461
-1.340335
-1.357043
-1.287113
-2.346414
-3.298910
-2.971321
-3.195338
-4.073056
-4.091663
-4.054028
-3.959761
-2.946902
-3.792795
-3.912968
-3.761976
-3.001848
-2.863175
-3.126974
-2.752195
-2.652664
-2.615184
-2.557811
-2.531946
-2.477298
-1.055471
-0.963194
-1.018064
-3.723378
-3.398650
-3.492089
0.321888
0.473150
0.662947
-3.144327
-3.256050
-3.212608
-3.305505
-0.983692
-0.921896
-1.021540
-3.451831
-3.911492
-3.693022
-3.807812
-2.871148
-2.834187
-2.766054
-1.583979
-1.699190
-1.779552
-2.962555
-2.878329
-2.888351
-4.895450
-5.003188
-4.932579
-0.889710
-0.902826
-0.668263
-1.131929
-2.235724
-1.984912
-2.175264
-3.061063
-2.961649
-3.043732
-2.134679
-2.693739
-1.857082
-3.921160
-3.891246
-3.619114
-3.551656
-3.298931
-3.464794
-4.194631
-4.219841
-4.085444
-3.196714
-3.102784
-3.196845
0.091761
-0.042068
-2.946044
-2.830649
-2.919192
-2.822303
-3.785280
-3.893889
-3.871909
-0.268670
-0.235028
-3.995030
-0.472891
-3.464802
-3.377722
-3.381337
-4.402850
-4.436103
-4.346043
-5.596133
-5.800781
-3.545555
-3.533272
-4.401713
-2.261433
-2.049458
-1.358819
-1.441172
-1.443345
-4.487603
-4.536247
-2.213877
-2.830109
-2.670686
-0.168145
0.243313
-0.033453
0.147743
-3.173997
-3.315053
-3.159121
-3.338420
-3.500326
-3.577814
-3.607497
-4.379088
-4.280164
-4.445763
0.367708
0.435177
0.238462
-2.230390
-2.113929
-2.152695
-2.559617
-1.984436
-2.526985
-4.203025
-4.682542
-4.751032
-4.511809
-3.819907
-3.732873
-3.725367
-2.462727
-2.350680
-2.335726
-5.147799
-5.162375
-3.911190
-3.895478
-3.097336
-2.993903
-3.083707
-7.978019
-7.314085
-8.590670
-2.968804
-4.212049
-4.083980
-4.392797
-4.193613
-4.153787
-4.239810
-4.225939
-4.737077
-4.773098
-4.895311
-4.950434
-2.696761
-3.063765
-2.813279
-3.354409
-3.593376
-3.540317
-3.482757
-3.831136
-3.914499
0.167196
-0.110474
0.073834
-0.086567
-4.463826
-4.549358
-4.649476
-3.224893
-3.149462
-3.122777
-4.827441
-5.059694
-5.008980
-3.403421
-3.338342
-3.313512
-4.659723
-4.790775
-3.146001
-3.229322
-3.076102
0.250248
0.491112
0.395334
-5.843935
-5.476703
-5.571700
-3.482601
-0.374854
-0.480891
-0.816308
-0.323426
-4.809740
-4.865892
-4.998261
-4.903707
-4.855523
-5.016460
-4.556833
-4.592538
-4.488944
-4.682812
-4.565842
-7.074909
-6.525611
-1.391273
-1.587177
-1.475927
-4.552134
-3.220842
-3.139742
-4.393171
-4.384643
-4.561702
-1.439127
-1.491505
-1.661637
-1.796977
-1.435125
-1.596031
-4.005317
-3.863917
-3.997754
-4.097386
-3.975873
-3.805964
-3.826953
-3.978845
-4.008317
-4.204194
-4.118500
-4.110642
-4.278294
-1.479577
-1.422231
-1.401160
-0.545578
-0.375074
-0.103295
-6.699973
-7.572456
-0.883620
-0.706280
-1.053582
-3.782978
-3.713858
-3.803641
-3.684606
-3.835796
-3.889234
-3.910052
-3.576152
-6.061622
-6.304755
-5.947863
-4.271815
-4.459070
-4.323366
-1.021070
-1.088018
-1.050825
-3.457974
-3.558950
-3.488528
-3.638893
-2.585697
-2.389153
0.280570
0.224371
-5.130367
-5.113616
-3.303808
-3.206421
-4.593895
-4.253218
-4.310876
-4.272350
-4.211157
-0.218494
-0.470558
-2.818046
-0.857888
-1.184328
-1.123633
-1.162572
-0.944733
-0.613189
-1.751611
-1.717622
-2.064488
-1.652104
-4.800455
-4.718934
-4.910640
-4.881477
-0.502690
-0.609737
-0.493060
-0.567156
-0.520008
-0.582391
-3.381061
-3.206081
-3.283766
-2.154154
-1.881683
-2.130227
-0.255951
0.166506
-0.078438
-4.143336
-4.107823
-4.000224
-4.234624
-3.497569
-3.455803
-3.568706
-4.712492
-4.760430
-4.025353
-3.989437
-3.967825
-4.667239
-4.563688
-4.583952
-4.729431
0.444910
-1.096259
-1.041388
-0.429564
-0.541705
-0.366293
-0.643290
-0.728683
-1.194645
-0.899460
-1.235711
-1.347548
-1.640329
-1.585652
-1.818716
-4.763533
-4.769951
-4.922804
-1.452487
-1.895238
-2.104816
-4.851618
-2.263327
-2.286370
-2.589108
-2.796865
-2.657706
-2.491029
-3.577614
-2.509250
0.893508
0.815777
0.750595
-6.179932
-5.789294
-6.190254
0.930977
-5.758864
-5.723179
-6.799726
-6.284745
-6.081947
-6.784665
-7.796165
-4.492909
-4.375587
-4.405849
-4.439488
-4.890355
-4.593506
-0.899355
-0.690229
-1.187003
-4.702650
-4.197527
-3.940762
-2.183844
-2.058321
-1.943128
-2.551230
-5.037747
-0.902393
-0.750686
-0.567135
-1.020528
-0.880116
-2.361142
-2.159929
-0.170604
-0.097950
-0.119220
-4.665258
-4.530717
-1.086949
-1.414935
-1.163074
-0.861875
-1.480788
-1.633632
-1.243411
-0.914858
-0.949842
-4.899143
-5.021774
-5.258617
0.298265
0.250222
0.517609
0.390463
0.231677
-5.493861
-5.451043
-1.255517
-1.412095
-1.014155
-1.655050
-1.739058
-1.559638
-1.584813
-5.463288
-5.677061
-2.408937
-2.505894
-2.536995
-5.473971
-2.641948
-5.432971
-2.496426
-2.190847
-2.390396
-2.347749
-3.258259
-3.389721
-3.360813
-3.227538
0.505585
0.591245
0.631719
0.763961
-3.130000
-0.615371
-0.924986
-0.866418
-6.052094
-2.715917
-2.707796
-2.621273
-1.381131
-1.560481
-1.500289
-6.001708
-1.695123
-2.801902
-0.267671
-0.421044
-0.377188
-6.109119
-5.835789
-5.740223
-0.303183
-1.356927
-0.355918
-0.193642
-0.329103
-0.373958
-0.494750
-0.347370
-3.763930
-3.763346
-2.183233
-2.420392
-2.299085
-1.405833
-2.254879
0.733892
0.539629
0.601726
-2.023976
-1.952259
-1.756232
-4.342212
-4.173956
-4.860626
-0.694983
-0.598483
-0.858302
-0.897058
-6.354364
-0.828027
-0.293101
-0.608453
-0.340805
-0.391910
-0.344122
-4.405522
-4.491735
-4.282334
-2.357396
-2.291563
-2.546090
-2.546658
-1.240470
-1.247982
-0.305885
-1.691799
-1.695189
-1.052558
-4.123731
-4.161414
-3.901344
-3.934113
-6.196521
-5.709407
-1.971041
-2.172937
-2.097000
-2.107808
-2.265594
-2.304194
-3.360148
-3.485018
-3.337753
-0.257463
-0.512668
-5.895800
-5.628967
-2.684085
-2.868228
-2.710560
-1.715917
-2.827639
-1.499291
-1.212496
-1.530322
-1.329097
-1.527242
-1.827248
-1.841356
-1.731320
-1.760475
-6.508052
-7.232735
-6.690073
-1.454908
-0.350726
-1.350886
-6.006859
-5.973414
-5.289393
-1.556528
-3.369423
-6.651524
-3.871512
-3.929001
-3.978954
-3.244682
-1.695157
-1.736359
-1.516599
-1.569672
-1.411853
-1.037354
-0.740263
-1.095335
-0.738455
-5.252307
-3.643924
-5.313001
-3.820618
-3.711542
-3.805604
0.462182
-5.637348
-5.785578
-5.762837
-5.122277
-4.666122
-0.552432
-0.635298
-0.520096
-3.482794
-3.587615
-3.711262
-4.117472
-4.058107
-4.010311
-4.327639
-3.962672
-4.051543
-3.836686
-3.688274
-4.204317
-0.592923
-0.692562
-0.502173
-0.482375
-0.357502
-0.628036
-0.185705
-0.206018
-0.736115
-0.740692
-2.016348
-0.611937
-2.107777
-1.278060
-1.589065
-0.755899
-0.856774
-0.756381
-0.692446
-0.676662
-2.116825
-0.592406
-0.598074
-0.529989
-0.645911
-0.769885
-4.395406
-4.331504
-4.629128
-4.603549
-4.265497
-4.258582
-3.348628
-3.422232
-3.482412
0.089696
-0.886640
-1.878938
-1.974944
-1.968018
-0.791349
-1.209534
-1.423259
-0.899625
-1.005216
-1.504898
-0.807241
-3.542156
-0.772735
-0.915576
-0.906436
-1.029897
-1.062615
-3.143654
-4.929376
-5.100833
-0.684510
-0.720458
-0.766440
-2.772336
-3.523543
-4.774529
-1.051366
-2.766939
-2.584926
-0.589911
-2.955220
-3.026929
-3.144874
-0.329912
-0.431350
-3.243926
-3.019082
-2.915230
-2.887673
-2.750264
0.668541
-5.471875
-5.417435
0.404114
-5.307325
-1.044246
-1.688976
-1.670930
-1.914124
-1.925282
-4.917644
-5.176308
-4.334958
-4.283233
-0.685362
-5.117004
-4.964174
-5.000222
-2.105627
-2.109253
-2.054883
-1.977717
-2.191627
-5.063374
-1.047948
0.874617
0.784905
0.696496
0.561420
-0.436231
-0.702405
-5.289560
-3.537302
-3.565614
-0.532356
-0.204252
-1.948439
-2.645168
-2.559982
-2.643300
-0.773224
-0.802674
-0.854205
-1.601680
-1.634999
-1.482206
-1.393557
-0.468750
-0.697074
-1.722891
-1.887533
-1.946425
-1.784503
-1.650898
-3.029680
-3.037083
-3.144879
-1.949885
-1.711785
-0.691853
-0.870187
-0.903945
-2.229413
-1.029222
-0.899838
-0.948939
-2.751087
-2.605703
-2.622139
-5.393878
-0.216778
-0.213472
-3.077507
-3.151031
-3.251028
-1.865107
-1.701122
-3.298211
-3.437281
-0.663348
-2.382289
-2.322649
-2.294494
-2.408381
-2.496800
-3.086059
-5.503529
-5.536396
-5.782443
-4.806807
-4.052256
-2.154720
-2.270687
-2.250394
-0.668783
-0.574248
-2.354464
-1.185685
-1.311614
-0.867684
-0.803863
-0.760903
-0.828829
-2.949295
-2.985410
-0.747015
-0.563937
-1.094682
-0.326720
-4.789228
-4.728234
-5.254328
-2.007640
-1.936916
-1.893837
-0.872095
-2.048227
-2.683411
-2.870087
-2.702004
-0.072022
-0.121140
-0.153404
-2.920779
-3.993761
-4.714906
-6.016928
-6.214024
-1.158053
-1.358224
-2.596135
-2.085981
-3.213444
-2.791068
-2.776381
-3.001858
-2.979645
-0.365862
-0.353382
-0.244448
-0.254365
-0.450729
-2.288176
-2.222124
-2.114086
-2.382374
-1.650802
-2.026699
-2.145068
-1.664524
-1.972954
-2.428156
-2.581778
-2.721851
-2.968061
-2.877492
-2.863944
-2.967300
0.550613
0.334813
0.177089
-0.096458
-2.685079
-2.876363
-3.066344
-1.474707
-1.440365
-1.615345
-1.666506
-1.423963
-1.295230
-1.447599
-0.880969
-2.965688
-3.109048
-2.947435
-0.226009
-0.306071
-0.261835
-2.812315
-2.761661
-2.654589
-2.602613
-0.510187
-0.476801
-0.548092
-0.593804
-0.830853
-3.465034
-3.357942
-0.654837
-1.872117
-1.960156
-1.735480
-0.391866
-2.949248
-2.896574
-2.793679
-2.722232
-2.637413
-1.411294
-1.493514
-2.325288
-1.312243
-0.241441
-0.175590
-2.456618
-1.298338
-2.095111
-2.053066
-1.993767
-2.040911
-3.185372
-3.238985
-3.262073
-3.343266
-0.195129
-0.270280
-0.235747
-1.450071
-1.483883
-3.423877
-2.817333
-2.697778
-2.639810
-1.645154
-3.094397
-3.024003
-3.012467
-2.915918
-3.039831
-2.898594
-5.597297
-1.986099
-1.878351
-3.522486
-3.858115
-2.273077
-2.506265
-2.501712
-2.103467
-4.890491
-4.982706
-4.834186
-2.980798
0.148429
0.300728
0.190619
0.337293
0.411698
-2.647238
-2.600938
-2.486733
-2.754956
-0.048767
0.176947
0.052333
-0.310167
-0.437405
0.121189
-0.130200
0.032032
-2.816338
-1.500214
-1.534427
-1.408362
-1.616571
-1.220871
-1.291136
-1.321015
-1.192359
-1.189069
-1.117931
-3.076194
-2.872496
-2.878576
-2.960140
-3.121375
-5.403294
-5.370602
-1.952980
-2.131016
-2.323743
-2.201828
-2.198894
-5.257914
0.242777
0.330006
0.186492
-4.283969
-4.171313
-4.184109
-1.764495
-1.928262
-4.052342
-2.592868
-2.485011
-2.123709
-2.365266
-5.866395
-2.292505
-2.342062
-2.453165
-0.249591
-0.259145
-1.105881
-0.352312
-0.280502
-0.388248
-0.450483
-1.009376
-3.235086
-3.222716
-3.282645
-3.200803
-3.150859
-1.845730
-1.722518
-1.893693
-3.020805
-1.160435
-1.773435
-0.245305
-4.367496
-4.462400
-3.933844
-3.941071
-3.720636
-0.691706
-2.444490
-3.582899
-1.561941
-2.376269
-2.254914
-2.054897
-1.639109
-1.583979
-1.569589
-2.211634
-3.411577
-3.350090
-5.368005
-2.503398
-4.104192
-3.924394
-4.181999
-0.975781
-1.928597
-1.789846
-0.253827
-0.373323
-0.473905
-0.011972
-0.185178
-0.025071
-0.181571
-2.514065
-2.673400
0.172461
-2.913647
-1.984435
-1.931028
-2.522000
-2.592464
-2.455930
-4.178422
-4.126368
-3.010310
-1.443578
-1.153705
-3.800639
-3.669727
-3.614060
-1.881522
-1.000755
-1.218563
-1.185199
-1.200069
-1.435813
-1.198605
-1.483628
-2.046601
-1.803204
0.593303
0.408740
-0.741180
0.736178
-5.832354
-2.425959
-2.552769
-2.342692
-2.046783
-2.910124
-1.149591
-1.165346
-1.800482
-1.879621
-1.230249
-1.203667
-1.325917
-1.206957
-2.118297
-2.320112
-2.148201
-5.844550
-5.553365
-5.588938
-4.852361
-3.347194
-3.443765
-2.835940
-2.679757
-2.163419
-2.268370
-2.058251
-2.707580
-2.430733
-2.190901
-3.125765
-3.028421
-1.980496
-0.150477
-0.035495
0.038619
-2.583410
-2.349359
-2.516265
-1.957382
-3.444779
-3.355747
-3.335851
-3.275783
-3.148276
-1.008776
-1.299770
-1.145792
-2.152313
-1.249898
-0.277733
0.142216
0.305481
-1.829046
1.001211
1.050396
1.001388
-2.983825
1.012345
-2.821512
-0.284905
-0.246160
-0.203211
-0.365971
-0.496031
-0.847384
-0.799508
-3.642559
-2.365192
-0.953728
-0.820700
-0.957321
-2.354591
-2.538488
-3.911647
-3.898693
-3.645444
-2.190608
-2.444055
-2.364554
-4.760543
-0.248816
-0.359931
-0.272174
-2.018544
-0.378414
-1.787058
-2.035838
-1.986164
-0.469529
-2.255431
-0.094900
-3.543290
-2.962646
-2.920295
-3.060088
-3.828055
-3.624558
-4.831211
-0.332261
-0.453126
-1.274651
-1.547601
-1.378216
-1.358554
-1.171096
-0.719940
-1.126219
-0.814975
-0.713120
-6.029860
-1.483204
-1.597097
-5.423062
-2.652535
-2.719479
-2.580941
-1.199440
-2.481090
-1.331187
-1.272219
-1.224659
-1.126099
-1.382381
-2.741794
-0.126897
-0.136220
1.065410
1.054357
1.055385
-1.417352
1.062350
1.052250
-0.458999
-1.425848
-1.519220
-1.506531
-2.657867
-2.486247
-1.593730
-0.924101
-1.111713
-1.238210
-0.116216
-5.338353
-5.156175
-5.567436
-1.434336
-1.357555
-2.761081
-2.915371
-0.653414
-3.437625
-3.511812
-3.565976
-3.652292
-4.121111
-7.951045
-0.438934
-2.784347
-2.856981
-2.717330
-2.169626
-2.124170
-2.607476
-0.960062
-0.933980
-1.726602
-1.777948
-1.552483
-0.228087
-0.447772
-0.069897
-1.700420
-1.809603
-4.345118
-4.291421
-4.287550
-2.983427
-3.066178
-3.112408
-2.932873
-2.983670
-3.154448
-2.630152
-2.922486
-3.027532
-3.194500
-3.158559
0.916622
0.911372
0.998224
0.808562
-3.326103
-0.193895
-0.514185
-0.058251
-3.016708
-0.444949
-3.427517
-1.248791
-1.294871
-1.216791
-2.271592
-2.308193
-6.114792
-3.758707
-3.705246
-1.589949
-2.601717
-2.529783
-2.683017
-3.620953
-3.645178
-2.377642
-2.168238
-0.813809
-2.590896
-2.715372
-3.221816
-3.137585
-3.097746
-3.859032
-2.867142
0.238968
0.186516
0.022900
-0.216959
-0.026212
-0.299908
0.219728
-1.201056
-1.190216
-3.081084
-2.857176
-2.831367
-2.956779
-1.989278
-2.231402
-0.132645
-2.143023
-1.729482
-2.651505
-2.776983
-2.597252
-2.534441
-2.806210
-2.887519
-2.097126
-2.585516
-2.442884
-2.782089
-2.918643
-3.068886
-6.154221
-5.833424
-1.529589
-1.477616
-1.457755
-4.853655
-4.697239
-4.804537
-4.677972
-2.404232
-2.534048
-1.347662
-1.494921
-0.418012
-0.456348
-0.319351
-1.552144
-2.866618
-0.514179
-0.375918
-3.169457
-1.409494
-1.491872
-2.170569
-2.259303
-2.241938
-2.237781
-2.490697
-0.321573
0.231789
0.178554
-3.433089
-3.269033
-3.424545
-2.218345
-2.995470
-2.170544
-2.417160
-2.527746
-4.046358
-3.777970
-2.466435
-2.486349
-3.153451
0.568762
-2.218225
-0.147531
-2.324581
-1.203218
-1.215791
-1.063561
-0.534162
-1.890349
-1.847451
-1.822607
-0.820309
-0.756499
-0.426793
-0.162040
-2.138780
-2.107023
-1.951018
-3.875136
-3.737821
-3.751040
-0.558469
-0.529639
0.229793
-1.685054
0.663933
0.559451
0.676965
-0.309802
-1.612048
-1.855096
-0.172342
0.501708
0.776023
0.791881
-0.349367
0.039274
-1.510250
-1.386352
-0.960392
-1.705759
-3.477138
-3.678725
-3.791636
-0.515755
-0.618588
-0.680612
-1.741215
-1.686286
-1.640858
-2.056147
-0.261623
-0.515570
-0.480198
-4.017612
-2.005002
-1.860229
-1.841864
-2.016602
1.015670
-2.996406
-3.061961
-3.212491
-0.602550
-1.195516
-0.806133
-0.641223
-0.693118
-0.235834
-2.243740
-2.300593
-2.511539
-0.156144
-2.992215
-4.939854
-4.858771
-5.313932
-4.566365
-1.963819
-3.730383
-3.760643
-3.844196
-3.668516
-3.954944
-1.620574
-1.852075
-0.250994
-3.126867
0.699158
0.930290
0.830039
0.786589
0.594753
-0.278121
-2.190280
-4.194439
-1.706138
-1.349024
-1.831337
-1.610284
-1.586913
-1.913391
-1.746586
-0.520045
-3.960993
-4.056852
-3.985852
-1.332278
-1.367341
-1.526078
-5.178181
-5.025472
-2.326030
-2.119382
-4.499580
-5.123794
-1.794941
-2.310409
-2.805711
-2.964573
-5.033014
-5.070646
0.575701
0.484912
0.323675
-2.869161
-1.757004
-1.601293
-1.663367
-2.342698
-3.154779
-3.284559
-3.213647
-3.349732
-2.416788
-1.465481
-0.721887
-1.019264
-1.068451
-1.139509
-4.955974
-4.997806
-5.121914
-2.811957
-2.678798
-5.125439
-4.977177
-4.739006
-1.612768
-1.629052
-1.122558
-3.398694
-0.831716
-3.016198
-1.140095
-1.087802
-7.183706
-6.490057
-3.700342
-3.604031
-3.566034
-1.118002
-2.593309
-5.229682
-1.761643
-1.713996
-1.871761
-4.388477
-4.612817
-3.317944
-1.803343
-1.900395
-2.193614
-3.163439
-1.484171
0.080964
0.189870
0.089635
-1.495192
-4.926733
-1.940426
-1.594616
-1.148463
-2.096291
-2.041236