# vtk DataFile Version 2.0
Test
ASCII
DATASET POLYDATA
POINTS 2735 float
0.000000 0.000000 0.000000
20.000000 0.000000 0.000000
20.000000 10.000000 0.000000
14.000000 10.000000 0.000000
10.000000 10.000000 0.000000
0.100612 0.000000 0.000000
0.205780 0.000000 0.000000
0.315709 0.000000 0.000000
0.430615 0.000000 0.000000
0.550723 0.000000 0.000000
0.676270 0.000000 0.000000
0.807500 0.000000 0.000000
0.944673 0.000000 0.000000
1.088055 0.000000 0.000000
1.237930 0.000000 0.000000
1.394590 0.000000 0.000000
1.558343 0.000000 0.000000
1.729510 0.000000 0.000000
1.908426 0.000000 0.000000
2.095444 0.000000 0.000000
2.290928 0.000000 0.000000
2.495263 0.000000 0.000000
2.708850 0.000000 0.000000
2.932106 0.000000 0.000000
3.165471 0.000000 0.000000
3.409402 0.000000 0.000000
3.664376 0.000000 0.000000
3.930895 0.000000 0.000000
4.209480 0.000000 0.000000
4.500679 0.000000 0.000000
4.805062 0.000000 0.000000
5.123225 0.000000 0.000000
5.455794 0.000000 0.000000
5.803420 0.000000 0.000000
6.166785 0.000000 0.000000
6.546601 0.000000 0.000000
6.943614 0.000000 0.000000
7.358602 0.000000 0.000000
7.792379 0.000000 0.000000
8.245795 0.000000 0.000000
8.719739 0.000000 0.000000
9.215142 0.000000 0.000000
9.732974 0.000000 0.000000
10.274252 0.000000 0.000000
10.840036 0.000000 0.000000
11.431436 0.000000 0.000000
12.049612 0.000000 0.000000
12.695776 0.000000 0.000000
13.371196 0.000000 0.000000
14.077196 0.000000 0.000000
14.815160 0.000000 0.000000
15.586536 0.000000 0.000000
16.392837 0.000000 0.000000
17.235643 0.000000 0.000000
18.116607 0.000000 0.000000
19.037458 0.000000 0.000000
20.000000 1.000000 0.000000
20.000000 2.000000 0.000000
20.000000 3.000000 0.000000
20.000000 4.000000 0.000000
20.000000 5.000000 0.000000
20.000000 6.000000 0.000000
20.000000 7.000000 0.000000
20.000000 8.000000 0.000000
20.000000 9.000000 0.000000
19.106429 10.000000 0.000000
18.332628 10.000000 0.000000
17.662544 10.000000 0.000000
17.082276 10.000000 0.000000
16.579784 10.000000 0.000000
16.144643 10.000000 0.000000
15.767828 10.000000 0.000000
15.441518 10.000000 0.000000
15.158946 10.000000 0.000000
14.914249 10.000000 0.000000
14.702350 10.000000 0.000000
14.518853 10.000000 0.000000
14.359951 10.000000 0.000000
14.222348 10.000000 0.000000
14.103188 10.000000 0.000000
13.896513 10.000000 0.000000
13.768928 10.000000 0.000000
13.611637 10.000000 0.000000
13.417720 10.000000 0.000000
13.178651 10.000000 0.000000
12.883915 10.000000 0.000000
12.520551 10.000000 0.000000
12.072578 10.000000 0.000000
11.520297 10.000000 0.000000
10.839418 10.000000 0.000000
9.329609 9.329609 0.000000
8.699667 8.699667 0.000000
8.107732 8.107732 0.000000
7.551511 7.551511 0.000000
7.028850 7.028850 0.000000
6.537725 6.537725 0.000000
6.076231 6.076231 0.000000
5.642581 5.642581 0.000000
5.235096 5.235096 0.000000
4.852197 4.852197 0.000000
4.492399 4.492399 0.000000
4.154311 4.154311 0.000000
3.836621 3.836621 0.000000
3.538098 3.538098 0.000000
3.257588 3.257588 0.000000
2.994001 2.994001 0.000000
2.746319 2.746319 0.000000
2.513580 2.513580 0.000000
2.294884 2.294884 0.000000
2.089382 2.089382 0.000000
1.896280 1.896280 0.000000
1.714829 1.714829 0.000000
1.544325 1.544325 0.000000
1.384109 1.384109 0.000000
1.233559 1.233559 0.000000
1.092093 1.092093 0.000000
0.959163 0.959163 0.000000
0.834252 0.834252 0.000000
0.716878 0.716878 0.000000
0.606586 0.606586 0.000000
0.502949 0.502949 0.000000
0.405564 0.405564 0.000000
0.314055 0.314055 0.000000
0.228068 0.228068 0.000000
0.147268 0.147268 0.000000
0.071344 0.071344 0.000000
13.919075 9.942197 0.000000
13.838150 9.884393 0.000000
13.757225 9.826590 0.000000
13.676301 9.768786 0.000000
13.595376 9.710983 0.000000
13.514451 9.653179 0.000000
13.433526 9.595376 0.000000
13.352601 9.537572 0.000000
13.271676 9.479769 0.000000
13.190751 9.421965 0.000000
13.109827 9.364162 0.000000
13.028902 9.306358 0.000000
12.947977 9.248555 0.000000
12.867052 9.190751 0.000000
12.786127 9.132948 0.000000
12.705202 9.075145 0.000000
12.624277 9.017341 0.000000
12.543353 8.959538 0.000000
12.462428 8.901734 0.000000
12.381503 8.843931 0.000000
12.300578 8.786127 0.000000
12.219653 8.728324 0.000000
12.138728 8.670520 0.000000
12.057803 8.612717 0.000000
11.976879 8.554913 0.000000
11.895954 8.497110 0.000000
11.815029 8.439306 0.000000
11.734104 8.381503 0.000000
11.653179 8.323699 0.000000
11.572254 8.265896 0.000000
11.491329 8.208092 0.000000
11.410405 8.150289 0.000000
11.329480 8.092486 0.000000
11.248555 8.034682 0.000000
11.167630 7.976879 0.000000
11.086705 7.919075 0.000000
11.005780 7.861272 0.000000
10.924855 7.803468 0.000000
10.843931 7.745665 0.000000
10.763006 7.687861 0.000000
10.682081 7.630058 0.000000
10.601156 7.572254 0.000000
10.520231 7.514451 0.000000
10.439306 7.456647 0.000000
10.358382 7.398844 0.000000
10.277457 7.341040 0.000000
10.196532 7.283237 0.000000
10.115607 7.225434 0.000000
10.034682 7.167630 0.000000
9.953757 7.109827 0.000000
9.872832 7.052023 0.000000
9.791908 6.994220 0.000000
9.710983 6.936416 0.000000
9.630058 6.878613 0.000000
9.549133 6.820809 0.000000
9.468208 6.763006 0.000000
9.387283 6.705202 0.000000
9.306358 6.647399 0.000000
9.225434 6.589595 0.000000
9.144509 6.531792 0.000000
9.063584 6.473988 0.000000
8.982659 6.416185 0.000000
8.901734 6.358382 0.000000
8.820809 6.300578 0.000000
8.739884 6.242775 0.000000
8.658960 6.184971 0.000000
8.578035 6.127168 0.000000
8.497110 6.069364 0.000000
8.416185 6.011561 0.000000
8.335260 5.953757 0.000000
8.254335 5.895954 0.000000
8.173410 5.838150 0.000000
8.092486 5.780347 0.000000
8.011561 5.722543 0.000000
7.930636 5.664740 0.000000
7.849711 5.606936 0.000000
7.768786 5.549133 0.000000
7.687861 5.491329 0.000000
7.606936 5.433526 0.000000
7.526012 5.375723 0.000000
7.445087 5.317919 0.000000
7.364162 5.260116 0.000000
7.283237 5.202312 0.000000
7.202312 5.144509 0.000000
7.121387 5.086705 0.000000
7.040462 5.028902 0.000000
6.959538 4.971098 0.000000
6.878613 4.913295 0.000000
6.797688 4.855491 0.000000
6.716763 4.797688 0.000000
6.635838 4.739884 0.000000
6.554913 4.682081 0.000000
6.473988 4.624277 0.000000
6.393064 4.566474 0.000000
6.312139 4.508671 0.000000
6.231214 4.450867 0.000000
6.150289 4.393064 0.000000
6.069364 4.335260 0.000000
5.988439 4.277457 0.000000
5.907514 4.219653 0.000000
5.826590 4.161850 0.000000
5.745665 4.104046 0.000000
5.664740 4.046243 0.000000
5.583815 3.988439 0.000000
5.502890 3.930636 0.000000
5.421965 3.872832 0.000000
5.341040 3.815029 0.000000
5.260116 3.757225 0.000000
5.179191 3.699422 0.000000
5.098266 3.641618 0.000000
5.017341 3.583815 0.000000
4.936416 3.526012 0.000000
4.855491 3.468208 0.000000
4.774566 3.410405 0.000000
4.693642 3.352601 0.000000
4.612717 3.294798 0.000000
4.531792 3.236994 0.000000
4.450867 3.179191 0.000000
4.369942 3.121387 0.000000
4.289017 3.063584 0.000000
4.208092 3.005780 0.000000
4.127168 2.947977 0.000000
4.046243 2.890173 0.000000
3.965318 2.832370 0.000000
3.884393 2.774566 0.000000
3.803468 2.716763 0.000000
3.722543 2.658960 0.000000
3.641618 2.601156 0.000000
3.560694 2.543353 0.000000
3.479769 2.485549 0.000000
3.398844 2.427746 0.000000
3.317919 2.369942 0.000000
3.236994 2.312139 0.000000
3.156069 2.254335 0.000000
3.075145 2.196532 0.000000
2.994220 2.138728 0.000000
2.913295 2.080925 0.000000
2.832370 2.023121 0.000000
2.751445 1.965318 0.000000
2.670520 1.907514 0.000000
2.589595 1.849711 0.000000
2.508671 1.791908 0.000000
2.427746 1.734104 0.000000
2.346821 1.676301 0.000000
2.265896 1.618497 0.000000
2.184971 1.560694 0.000000
2.104046 1.502890 0.000000
2.023121 1.445087 0.000000
1.942197 1.387283 0.000000
1.861272 1.329480 0.000000
1.780347 1.271676 0.000000
1.699422 1.213873 0.000000
1.618497 1.156069 0.000000
1.537572 1.098266 0.000000
1.456647 1.040462 0.000000
1.375723 0.982659 0.000000
1.294798 0.924855 0.000000
1.213873 0.867052 0.000000
1.132948 0.809249 0.000000
1.052023 0.751445 0.000000
0.971098 0.693642 0.000000
0.890173 0.635838 0.000000
0.809249 0.578035 0.000000
0.728324 0.520231 0.000000
0.647399 0.462428 0.000000
0.566474 0.404624 0.000000
0.485549 0.346821 0.000000
0.404624 0.289017 0.000000
0.323699 0.231214 0.000000
0.242775 0.173410 0.000000
0.161850 0.115607 0.000000
0.080925 0.057803 0.000000
15.499854 1.048495 0.000000
15.252835 0.566406 0.000000
16.130886 0.692447 0.000000
10.309159 0.882007 0.000000
10.742485 0.637285 0.000000
10.608748 1.211505 0.000000
8.637442 0.405946 0.000000
8.575403 0.852740 0.000000
8.258954 0.576001 0.000000
4.580037 0.990894 0.000000
4.745076 0.839975 0.000000
4.799088 1.029682 0.000000
4.919124 0.843112 0.000000
5.034075 1.057162 0.000000
8.214715 1.016766 0.000000
13.542452 9.425132 0.000000
13.635094 9.460139 0.000000
13.557623 9.540818 0.000000
13.685996 9.536536 0.000000
3.686296 2.071115 0.000000
3.598347 2.014013 0.000000
3.698570 1.942264 0.000000
3.589640 1.902212 0.000000
8.726109 7.609975 0.000000
8.618706 8.208275 0.000000
8.249394 7.640053 0.000000
6.334390 4.140729 0.000000
6.458846 4.114748 0.000000
6.376892 4.211274 0.000000
6.458138 4.246854 0.000000
13.402357 8.985431 0.000000
13.436693 9.097517 0.000000
13.341887 9.073881 0.000000
13.357402 9.174994 0.000000
5.784913 3.911866 0.000000
5.727644 3.977106 0.000000
5.709169 3.861080 0.000000
5.649753 3.938052 0.000000
9.197568 6.012832 0.000000
9.072382 5.949981 0.000000
9.169723 5.895885 0.000000
14.436869 6.680831 0.000000
14.733743 6.602103 0.000000
14.515073 6.900095 0.000000
6.721731 3.676248 0.000000
6.698456 3.517728 0.000000
6.837434 3.541081 0.000000
6.767776 3.382871 0.000000
9.075544 6.052313 0.000000
12.704963 8.981630 0.000000
12.625771 8.923772 0.000000
14.039608 3.123098 0.000000
14.356143 2.614043 0.000000
14.557054 3.165260 0.000000
13.389941 6.802248 0.000000
13.608568 6.989956 0.000000
13.410911 7.067332 0.000000
13.609320 6.770522 0.000000
13.763642 8.197616 0.000000
13.626601 8.025516 0.000000
13.844301 8.034887 0.000000
13.738746 7.864922 0.000000
11.974266 8.454940 0.000000
[...]
POINT_DATA 2735
SCALARS UX float 1
LOOKUP_TABLE default
-0.000000
0.000000
-0.000000
-0.232311
-0.230912
-0.000000
-0.000000
-0.000000
-0.000000
-0.000000
-0.000000
-0.000000
-0.000000
-0.000000
-0.000000
-0.000000
-0.000000
-0.000000
-0.000000
-0.000000
-0.000000
-0.000000
-0.000000
-0.000000
-0.000000
-0.000000
-0.000000
-0.000000
-0.000000
-0.000000
-0.000000
-0.000000
-0.000000
-0.000000
-0.000000
-0.000000
-0.000000
-0.000000
-0.000000
-0.000000
-0.000000
-0.000000
-0.000000
-0.000000
-0.000000
-0.000000
-0.000000
-0.000000
-0.000000
0.000000
0.000000
0.000000
0.000000
0.000000
0.000000
0.000000
0.000000
0.000000
0.000000
0.000000
0.000000
0.000000
0.000000
0.000000
-0.000000
-0.029396
-0.061436
-0.085722
-0.107534
-0.128289
-0.147573
-0.165913
-0.179742
-0.190614
-0.200690
-0.211325
-0.219748
-0.228078
-0.235123
-0.235636
-0.219858
-0.212146
-0.202999
-0.198442
-0.194049
-0.191039
-0.190251
-0.191694
-0.196879
-0.207655
-0.330136
-0.347706
-0.355036
-0.360622
-0.360843
-0.357856
-0.351140
-0.341763
-0.330364
-0.316491
-0.301183
-0.284571
-0.267252
-0.249204
-0.231201
-0.213238
-0.195581
-0.178461
-0.162053
-0.146391
-0.131593
-0.117684
-0.104672
-0.092552
-0.081305
-0.070892
-0.061267
-0.052392
-0.044209
-0.036699
-0.029769
-0.023468
-0.017654
-0.012405
-0.007639
-0.003490
-0.212122
-0.199006
-0.188831
-0.180543
-0.174080
-0.169399
-0.164700
-0.161301
-0.158875
-0.156634
-0.154649
-0.153226
-0.152361
-0.151742
-0.151694
-0.152002
-0.152672
-0.153660
-0.154950
-0.156595
-0.158611
-0.160988
-0.163540
-0.166462
-0.169706
-0.173347
-0.177354
-0.181759
-0.186494
-0.191423
-0.196623
-0.202076
-0.207725
-0.213572
-0.219513
-0.225605
-0.231896
-0.238273
-0.244545
-0.250731
-0.256675
-0.262546
-0.268306
-0.273812
-0.279185
-0.284245
-0.288997
-0.293634
-0.297995
-0.302192
-0.306184
-0.309667
-0.312931
-0.315884
-0.318648
-0.321193
-0.323577
-0.325651
-0.327502
-0.329147
-0.330701
-0.331996
-0.333145
-0.334168
-0.335013
-0.335809
-0.336544
-0.336994
-0.337432
-0.337699
-0.337905
-0.337919
-0.337782
-0.337535
-0.337137
-0.336629
-0.336037
-0.335342
-0.334502
-0.333602
-0.332565
-0.331453
-0.330269
-0.329005
-0.327601
-0.326148
-0.324594
-0.322946
-0.321199
-0.319356
-0.317463
-0.315461
-0.313361
-0.311187
-0.308920
-0.306553
-0.304107
-0.301575
-0.298974
-0.296306
-0.293546
-0.290719
-0.287782
-0.284781
-0.281691
-0.278530
-0.275309
-0.272006
-0.268644
-0.265217
-0.261717
-0.258152
-0.254518
-0.250807
-0.247014
-0.243184
-0.239281
-0.235340
-0.231337
-0.227309
-0.223189
-0.219033
-0.214841
-0.210564
-0.206268
-0.201906
-0.197524
-0.193117
-0.188649
-0.184177
-0.179666
-0.175125
-0.170552
-0.165969
-0.161377
-0.156748
-0.152108
-0.147474
-0.142823
-0.138167
-0.133526
-0.128878
-0.124222
-0.119585
-0.114949
-0.110332
-0.105732
-0.101151
-0.096585
-0.092042
-0.087529
-0.083044
-0.078593
-0.074162
-0.069776
-0.065416
-0.061101
-0.056819
-0.052593
-0.048391
-0.044240
-0.040155
-0.036106
-0.032113
-0.028149
-0.024283
-0.020454
-0.016697
-0.013061
-0.009521
-0.006086
-0.002907
0.022223
0.013046
0.017954
-0.049999
-0.031424
-0.060681
-0.034464
-0.069883
-0.050478
-0.085074
-0.073570
-0.089317
-0.074613
-0.092671
-0.085343
-0.132852
-0.128838
-0.148449
-0.134763
-0.158142
-0.153438
-0.149339
-0.145604
-0.359284
-0.354559
-0.362686
-0.292707
-0.291245
-0.295876
-0.297309
-0.095212
-0.103245
-0.109485
-0.118261
-0.281639
-0.284673
-0.278955
-0.282564
-0.311415
-0.314483
-0.308755
0.039761
0.051771
0.044322
-0.268480
-0.260212
-0.260662
-0.252472
-0.317635
-0.146247
-0.147333
0.011066
0.019639
0.026014
-0.021440
-0.007352
-0.022024
-0.006072
-0.015975
-0.021544
-0.004861
-0.008574
-0.167581
-0.166448
-0.161310
-0.354554
-0.326941
-0.325497
-0.321408
-0.329993
-0.160310
-0.127778
-0.140067
-0.138757
-0.128193
-0.207141
-0.199549
-0.207843
-0.068667
-0.088109
-0.064575
-0.066369
-0.198183
-0.212125
-0.215839
-0.203216
-0.070778
-0.085509
-0.058448
-0.105411
-0.355504
-0.355827
-0.349945
-0.304200
-0.299027
-0.305610
-0.203917
-0.347871
-0.354174
-0.347541
-0.150025
-0.144533
-0.149164
-0.078530
-0.052486
-0.064926
-0.048321
-0.030165
-0.020037
-0.087168
-0.087577
-0.069963
-0.103760
-0.034471
-0.145458
-0.144305
-0.163115
-0.158389
-0.077809
-0.063070
-0.138595
-0.166147
-0.086614
-0.335590
-0.336802
-0.152152
-0.154903
-0.144092
-0.051233
-0.035766
-0.037784
0.025520
0.021971
0.035147
-0.061677
-0.042828
-0.047247
0.005458
-0.143781
-0.072742
-0.095558
-0.082940
-0.239404
-0.250712
-0.245267
-0.104402
-0.111720
-0.113054
-0.107393
-0.152230
-0.182107
-0.171508
-0.175731
-0.256071
-0.317161
-0.315764
-0.310396
-0.174278
-0.301120
-0.306943
-0.298250
-0.207935
-0.196575
-0.213718
-0.191401
-0.219502
-0.216379
-0.212193
-0.209927
-0.205924
-0.087800
-0.080052
-0.084667
-0.183425
-0.176432
-0.176036
0.015513
0.030652
0.036208
-0.260708
-0.268493
-0.265133
-0.271434
-0.081794
-0.076628
-0.085015
-0.180004
-0.274870
-0.261696
-0.265087
-0.237002
-0.233885
-0.229151
-0.117498
-0.130838
-0.131537
-0.244247
-0.237929
-0.239035
-0.321311
-0.325467
-0.325509
-0.084130
-0.081372
-0.069789
-0.095268
-0.142269
-0.136582
-0.141676
-0.252184
-0.245341
-0.251418
-0.120145
-0.147249
-0.118091
-0.218945
-0.221780
-0.209071
-0.236784
-0.221943
-0.228444
-0.297540
-0.301036
-0.293207
-0.262742
-0.256532
-0.263236
-0.026849
-0.035550
-0.244650
-0.236363
-0.243100
-0.236167
-0.302031
-0.307821
-0.307061
-0.046585
-0.050530
-0.313529
-0.060913
-0.281876
-0.276018
-0.276665
-0.317792
-0.320803
-0.316807
-0.360511
-0.360262
-0.287066
-0.286037
-0.320943
-0.150649
-0.141458
-0.113159
-0.119898
-0.120075
-0.335798
-0.337402
-0.150210
-0.151080
-0.148468
-0.015246
0.015532
-0.004606
0.009449
-0.258604
-0.268306
-0.257053
-0.269471
-0.285995
-0.290774
-0.292482
-0.300622
-0.293223
-0.299580
-0.005068
0.002602
-0.016060
-0.185916
-0.176547
-0.180001
-0.148521
-0.140074
-0.145495
-0.292282
-0.240330
-0.246253
-0.238641
-0.304769
-0.299724
-0.299447
-0.202830
-0.193880
-0.192798
-0.300054
-0.296027
-0.309856
-0.308881
-0.256575
-0.249436
-0.256111
-0.301654
-0.268419
-0.286470
-0.248057
-0.229667
-0.221024
-0.231128
-0.322170
-0.319695
-0.323837
-0.322627
-0.297476
-0.294715
-0.301765
-0.299949
-0.155043
-0.164328
-0.159650
-0.213023
-0.223322
-0.223541
-0.216341
-0.305482
-0.310082
-0.024156
-0.041868
-0.026194
-0.048249
-0.226305
-0.225338
-0.231064
-0.264200
-0.258682
-0.257252
-0.293207
-0.277571
-0.271700
-0.277130
-0.272609
-0.271350
-0.287372
-0.288272
-0.261153
-0.267181
-0.256655
0.004728
0.021428
0.011101
-0.193502
-0.190447
-0.187491
-0.283401
-0.056030
-0.053856
-0.072730
-0.058484
-0.330717
-0.330533
-0.317936
-0.316380
-0.312613
-0.320952
-0.312596
-0.316124
-0.274728
-0.281734
-0.280550
-0.345509
-0.348941
-0.090118
-0.106311
-0.098736
-0.274279
-0.212680
-0.210381
-0.287699
-0.282421
-0.292316
-0.114315
-0.117495
-0.091320
-0.096095
-0.081939
-0.091521
-0.304453
-0.295646
-0.301579
-0.246483
-0.244629
-0.234032
-0.291097
-0.237944
-0.234911
-0.245571
-0.284310
-0.278503
-0.289709
-0.123857
-0.119010
-0.117367
-0.058079
-0.044234
-0.032213
-0.329542
-0.337216
-0.071159
-0.069229
-0.081206
-0.302768
-0.298723
-0.303853
-0.297114
-0.305553
-0.308603
-0.309598
-0.172304
-0.203498
-0.215571
-0.200250
-0.260792
-0.268580
-0.266712
-0.084906
-0.090528
-0.087402
-0.279163
-0.285752
-0.280770
-0.290508
-0.165044
-0.162314
0.032333
0.029223
-0.303605
-0.308228
-0.141546
-0.144567
-0.288974
-0.255374
-0.327490
-0.326184
-0.323553
-0.036316
-0.044352
-0.180134
-0.061177
-0.075619
-0.076438
-0.099352
-0.089070
-0.072478
-0.116130
-0.106439
-0.116817
-0.104513
-0.307798
-0.301444
-0.309446
-0.305003
-0.041586
-0.050500
-0.040795
-0.047036
-0.043121
-0.048216
-0.275531
-0.264012
-0.268130
-0.187448
-0.165433
-0.185827
-0.019400
0.008199
-0.008285
-0.312765
-0.313125
-0.306115
-0.318676
-0.285446
-0.283095
-0.289989
-0.306996
-0.311857
-0.315956
-0.314047
-0.312935
-0.342197
-0.338010
-0.339750
-0.344841
0.026426
-0.089419
-0.080851
-0.022089
-0.033343
-0.021416
-0.038416
-0.048419
-0.098920
-0.074569
-0.097122
-0.109545
-0.142318
-0.138401
-0.157568
-0.343073
-0.342274
-0.348304
-0.126834
-0.140175
-0.156511
-0.348375
-0.171521
-0.176445
-0.222171
-0.237843
-0.227299
-0.214532
-0.199109
-0.215828
0.063945
0.060207
0.054023
-0.361333
-0.351672
-0.353624
0.068173
-0.355205
-0.343922
-0.295292
-0.296197
-0.283664
-0.314578
-0.319892
-0.337000
-0.332220
-0.333325
-0.335074
-0.350077
-0.341144
-0.077096
-0.061099
-0.100591
-0.182422
-0.178166
-0.172235
-0.173850
-0.166350
-0.153859
-0.217472
-0.342508
-0.049671
-0.037753
-0.023380
-0.059487
-0.048595
-0.204175
-0.188095
-0.014114
-0.008102
-0.009854
-0.343249
-0.338130
-0.098097
-0.126327
-0.104379
-0.065463
-0.131561
-0.144697
-0.110120
-0.081570
-0.084990
-0.341760
-0.347598
-0.353760
0.021735
0.017714
0.037380
0.027235
0.017302
-0.352609
-0.342552
-0.110360
-0.123954
-0.089778
-0.137411
-0.144222
-0.129594
-0.131624
-0.334841
-0.335709
-0.201775
-0.209626
-0.211499
-0.348202
-0.219801
-0.337705
-0.177233
-0.153300
-0.166915
-0.167774
-0.270761
-0.279165
-0.277314
-0.268597
0.042662
0.047253
0.052903
0.061012
-0.261882
-0.054658
-0.081717
-0.075670
-0.345001
-0.226316
-0.225181
-0.218985
-0.118539
-0.133546
-0.128075
-0.336798
-0.144330
-0.232461
-0.022085
-0.034798
-0.031164
-0.322284
-0.324889
-0.315674
-0.025026
-0.116093
-0.007536
0.005335
-0.004872
-0.034077
-0.045290
-0.031987
-0.167562
-0.165778
-0.178768
-0.196776
-0.190186
-0.110991
-0.182235
0.029334
0.011427
0.019067
-0.137324
-0.132064
-0.119378
-0.190563
-0.183160
-0.195885
-0.059383
-0.051434
-0.073568
-0.076507
-0.335370
-0.070358
-0.026540
-0.054840
-0.028252
-0.032497
-0.028535
-0.333557
-0.336959
-0.328318
-0.176256
-0.166962
-0.189314
-0.186072
-0.080125
-0.078704
-0.024983
-0.128121
-0.125231
-0.063202
-0.320826
-0.322462
-0.308574
-0.310500
-0.275212
-0.270945
-0.171665
-0.187906
-0.181372
-0.181685
-0.194507
-0.198077
-0.276154
-0.284398
-0.275261
-0.016808
-0.034174
-0.260335
-0.261894
-0.208418
-0.223977
-0.213490
-0.133034
-0.138833
-0.113697
-0.109112
-0.136340
-0.119054
-0.135994
-0.153867
-0.154721
-0.145903
-0.155669
-0.229151
-0.247134
-0.244438
-0.121969
-0.028587
-0.113257
-0.224878
-0.238239
-0.219096
-0.130265
-0.277842
-0.260639
-0.306381
-0.309816
-0.312228
-0.269779
-0.148701
-0.151494
-0.133242
-0.138630
-0.124934
-0.062306
-0.042541
-0.068142
-0.040121
-0.334327
-0.168152
-0.342048
-0.302924
-0.296726
-0.302350
0.034410
-0.179132
-0.188186
-0.178445
-0.170468
-0.168266
-0.045752
-0.052635
-0.043039
-0.281239
-0.287952
-0.296354
-0.319985
-0.316625
-0.314386
-0.329979
-0.310649
-0.314745
-0.303156
-0.293960
-0.323762
-0.049165
-0.057441
-0.041720
-0.039993
-0.029661
-0.052173
-0.015372
-0.017116
-0.061249
-0.061526
-0.122179
-0.050937
-0.134659
-0.080375
-0.092031
-0.063030
-0.071403
-0.062757
-0.057431
-0.056101
-0.124303
-0.049086
-0.049542
-0.043881
-0.054123
-0.064370
-0.333299
-0.330427
-0.162682
-0.160661
-0.327577
-0.327310
-0.274849
-0.279089
-0.283591
0.003449
-0.074038
-0.155783
-0.163586
-0.162927
-0.066343
-0.067849
-0.088269
-0.075315
-0.084046
-0.099109
-0.051484
-0.286835
-0.065356
-0.077151
-0.076104
-0.086301
-0.089309
-0.140022
-0.346508
-0.351719
-0.056745
-0.059737
-0.063585
-0.157680
-0.162441
-0.340949
-0.088651
-0.208249
-0.195317
-0.050161
-0.237532
-0.240213
-0.251561
-0.028048
-0.036955
-0.255826
-0.253991
-0.246561
-0.244392
-0.234324
0.049492
-0.360893
-0.359787
0.031336
-0.356616
-0.088683
-0.146195
-0.142387
-0.163913
-0.162483
-0.172500
-0.180658
-0.170021
-0.173361
-0.056800
-0.342103
-0.338306
-0.337590
-0.174417
-0.178593
-0.173693
-0.167841
-0.184692
-0.337853
-0.089389
0.052777
0.048653
0.042124
0.034542
-0.037673
-0.060687
-0.346606
-0.285085
-0.287143
-0.039177
-0.014855
-0.162462
-0.219650
-0.212878
-0.219114
-0.064141
-0.066601
-0.070916
-0.136028
-0.138267
-0.125715
-0.118743
-0.040850
-0.060607
-0.145816
-0.164343
-0.168634
-0.157624
-0.146347
-0.247495
-0.248358
-0.255581
-0.168669
-0.149393
-0.034896
-0.048956
-0.053762
-0.186155
-0.063180
-0.074747
-0.078857
-0.225912
-0.214721
-0.216235
-0.319010
-0.018844
-0.018723
-0.250258
-0.254175
-0.262815
-0.150251
-0.134917
-0.263829
-0.274323
-0.057651
-0.198926
-0.194010
-0.192095
-0.200682
-0.206175
-0.142002
-0.307243
-0.303130
-0.309584
-0.162397
-0.177931
-0.182697
-0.192301
-0.190133
-0.058984
-0.051081
-0.198550
-0.103420
-0.114514
-0.078619
-0.072634
-0.063123
-0.068840
-0.241881
-0.244788
-0.057231
-0.044630
-0.085108
-0.026939
-0.205860
-0.199239
-0.209363
-0.169516
-0.163415
-0.160218
-0.072433
-0.172406
-0.222213
-0.237603
-0.225608
-0.005965
-0.010029
-0.012710
-0.239459
-0.313783
-0.162664
-0.299860
-0.314239
-0.103378
-0.120783
-0.145105
-0.146000
-0.186457
-0.203899
-0.198972
-0.217287
-0.212829
-0.030236
-0.029216
-0.020183
-0.020991
-0.037291
-0.195375
-0.189452
-0.181257
-0.202230
-0.104090
-0.118356
-0.125555
-0.097165
-0.112807
-0.209633
-0.221481
-0.232019
-0.245415
-0.238617
-0.238045
-0.244934
0.034779
0.020475
0.008850
-0.010472
-0.183328
-0.195188
-0.207940
-0.128170
-0.124840
-0.112270
-0.119536
-0.097612
-0.115328
-0.128773
-0.073264
-0.217122
-0.227678
-0.218806
-0.018720
-0.025363
-0.021702
-0.233609
-0.230243
-0.222260
-0.217931
-0.042293
-0.039504
-0.045435
-0.049245
-0.072669
-0.283867
-0.191322
-0.057308
-0.163619
-0.171507
-0.153125
-0.034497
-0.248056
-0.244589
-0.236497
-0.231817
-0.224750
-0.117953
-0.124735
-0.197161
-0.109789
-0.019987
-0.014535
-0.207534
-0.108719
-0.174474
-0.170875
-0.166374
-0.170394
-0.259994
-0.263928
-0.265128
-0.271023
-0.016188
-0.022421
-0.019559
-0.126765
-0.128225
-0.276061
-0.228397
-0.220755
-0.214133
-0.142123
-0.255595
-0.250434
-0.250014
-0.246215
-0.255035
-0.244741
-0.326373
-0.167060
-0.158343
-0.142670
-0.148207
-0.153967
-0.169588
-0.169956
-0.176415
-0.259587
-0.266299
-0.261251
-0.251301
0.014143
0.029480
0.018727
0.030980
0.040126
-0.222690
-0.220379
-0.210503
-0.231931
0.016599
0.032552
0.022833
-0.025693
-0.035594
0.025641
0.009116
0.018100
-0.235137
-0.126065
-0.128714
-0.118253
-0.135643
-0.101905
-0.107830
-0.110238
-0.099529
-0.099180
-0.093187
-0.234955
-0.221389
-0.219202
-0.223266
-0.234088
-0.325526
-0.321160
-0.171511
-0.186082
-0.201381
-0.182200
-0.181787
-0.253472
0.024770
0.034894
0.020489
-0.328491
-0.323210
-0.323850
-0.148958
-0.162064
-0.316924
-0.216512
-0.208693
-0.180557
-0.198949
-0.363276
-0.192530
-0.196119
-0.204725
-0.008897
-0.012276
-0.092132
-0.029220
-0.023260
-0.032183
-0.037358
-0.084043
-0.268392
-0.266893
-0.269640
-0.263934
-0.262454
-0.156992
-0.147099
-0.160543
-0.252231
-0.075501
-0.150322
0.001782
-0.196097
-0.201902
-0.190316
-0.192967
-0.186487
-0.055248
-0.208728
-0.186315
-0.090261
-0.160268
-0.152287
-0.138536
-0.136277
-0.131740
-0.130629
-0.149428
-0.277338
-0.273027
-0.328604
-0.167788
-0.318515
-0.309009
-0.321636
-0.081434
-0.169263
-0.157936
0.000892
-0.009221
-0.015917
0.017189
0.002235
0.012340
0.005431
-0.174563
-0.188307
0.031173
-0.204480
-0.166226
-0.161610
-0.214204
-0.219085
-0.208547
-0.206749
-0.202393
-0.249013
-0.127255
-0.102254
-0.301438
-0.293418
-0.290379
-0.135297
-0.069805
-0.085747
-0.080206
-0.078728
-0.094432
-0.077022
-0.099932
-0.146927
-0.125375
0.045330
0.033168
-0.066065
0.056323
-0.209649
-0.208599
-0.218031
-0.201663
-0.171509
-0.166947
-0.096197
-0.097744
-0.150394
-0.156791
-0.102817
-0.100645
-0.110850
-0.101420
-0.179445
-0.196647
-0.183703
-0.303882
-0.298963
-0.294071
-0.342280
-0.265022
-0.269218
-0.240584
-0.228767
-0.147253
-0.156139
-0.139867
-0.229369
-0.207356
-0.151147
-0.261197
-0.254047
-0.134855
0.000204
0.004368
0.010713
-0.169598
-0.157647
-0.165949
-0.160533
-0.281362
-0.275366
-0.274371
-0.270692
-0.262088
-0.059078
-0.080908
-0.068986
-0.184838
-0.077437
-0.024877
0.012711
0.026221
-0.154579
0.069534
0.071375
0.071214
-0.241893
0.070509
-0.230709
-0.023562
-0.020363
-0.016796
-0.030293
-0.044473
-0.070361
-0.066365
-0.292380
-0.204731
-0.079416
-0.068275
-0.079785
-0.203600
-0.217871
-0.195766
-0.199662
-0.190992
-0.148694
-0.166893
-0.162170
-0.343978
-0.020556
-0.029775
-0.025126
-0.173989
-0.031354
-0.118769
-0.136942
-0.133246
-0.038932
-0.193274
-0.002182
-0.190958
-0.242276
-0.239430
-0.249187
-0.301959
-0.289105
-0.348769
-0.027496
-0.037504
-0.080420
-0.100725
-0.087507
-0.087633
-0.064478
-0.041354
-0.063795
-0.041983
-0.050585
-0.252711
-0.124906
-0.134262
-0.237264
-0.225218
-0.229825
-0.219245
-0.101016
-0.212019
-0.112585
-0.107402
-0.103718
-0.095175
-0.116604
-0.229331
-0.010468
-0.011230
0.067490
0.063821
0.065281
-0.118023
0.069458
0.069700
-0.038009
-0.119020
-0.126700
-0.125545
-0.226828
-0.213609
-0.132670
-0.051793
-0.066140
-0.076705
-0.009596
-0.249516
-0.239025
-0.247748
-0.119626
-0.113370
-0.232062
-0.243350
-0.030800
-0.272424
-0.275824
-0.280911
-0.284940
-0.150017
-0.352894
-0.015898
-0.236108
-0.241048
-0.230594
-0.180182
-0.176367
-0.222634
-0.063874
-0.058607
-0.140091
-0.147815
-0.126953
-0.019501
-0.025241
-0.005331
-0.112848
-0.120538
-0.329935
-0.327828
-0.327265
-0.249310
-0.254211
-0.258666
-0.135894
-0.144246
-0.143550
-0.134992
-0.244046
-0.237076
-0.247015
-0.247525
0.048265
0.046237
0.056369
0.037150
-0.258797
-0.053166
-0.065787
-0.040619
-0.233679
-0.036826
-0.262626
-0.104119
-0.107944
-0.101465
-0.189719
-0.192285
-0.363804
-0.299997
-0.297235
-0.140289
-0.218826
-0.213754
-0.225506
-0.291971
-0.292829
-0.202944
-0.184608
-0.052239
-0.178387
-0.201296
-0.221748
-0.218900
-0.259665
-0.305362
-0.240920
0.021393
0.013283
0.007259
-0.006455
0.008242
-0.008507
0.026201
-0.100065
-0.099178
-0.252358
-0.234920
-0.238389
-0.248084
-0.173748
-0.193270
-0.010929
-0.185857
-0.152446
-0.224061
-0.233754
-0.207868
-0.199860
-0.224552
-0.228127
-0.182357
-0.136597
-0.134180
-0.234955
-0.245182
-0.256457
-0.170798
-0.165451
-0.127260
-0.122976
-0.121403
-0.327728
-0.321838
-0.323379
-0.318074
-0.202903
-0.213082
-0.103425
-0.118867
-0.034631
-0.037828
-0.026441
-0.120780
-0.203378
-0.020749
-0.010998
-0.226213
-0.120447
-0.124763
-0.180491
-0.187500
-0.185997
-0.186001
-0.207252
-0.028580
0.018578
0.013800
-0.277412
-0.265848
-0.275353
-0.186324
-0.251195
-0.181879
-0.201566
-0.208003
-0.316793
-0.301069
-0.191981
-0.190425
-0.259102
0.039117
-0.191562
-0.012155
-0.200948
-0.103017
-0.103706
-0.091038
-0.026535
-0.157086
-0.153530
-0.151651
-0.075894
-0.080973
-0.035286
-0.013359
-0.156606
-0.149392
-0.135378
-0.298339
-0.291505
-0.290245
-0.046286
-0.043873
0.012214
-0.110550
0.059821
0.053723
0.058551
-0.025595
-0.106505
-0.124245
-0.014230
0.052016
0.064030
0.065213
-0.029008
-0.034421
-0.098667
-0.087710
-0.081242
-0.114262
-0.200554
-0.204502
-0.211368
-0.042706
-0.051299
-0.056463
-0.144742
-0.140197
-0.136626
-0.170792
-0.023502
-0.023337
-0.022944
-0.163899
-0.171216
-0.159095
-0.158125
-0.171557
0.058496
-0.252057
-0.256927
-0.267434
-0.049945
-0.093605
-0.048747
-0.032436
-0.050013
-0.019693
-0.189224
-0.193488
-0.210946
-0.008127
-0.143623
-0.224118
-0.216863
-0.227129
-0.339970
-0.169024
-0.299539
-0.300977
-0.305847
-0.295680
-0.311801
-0.113386
-0.124701
-0.021070
-0.261615
0.047296
0.062585
0.057850
0.051489
0.038953
-0.023494
-0.183272
-0.234215
-0.143456
-0.091885
-0.153579
-0.135822
-0.133626
-0.130898
-0.118263
-0.020144
-0.228650
-0.317566
-0.313899
-0.113241
-0.115848
-0.129047
-0.292763
-0.289254
-0.193439
-0.178498
-0.185262
-0.194054
-0.157458
-0.194494
-0.232380
-0.244037
-0.311617
-0.315922
0.050759
0.042554
0.036202
-0.238805
-0.150330
-0.137383
-0.143060
-0.157031
-0.263072
-0.271991
-0.266918
-0.275836
-0.193224
-0.107614
-0.037233
-0.084747
-0.088874
-0.094827
-0.314017
-0.307655
-0.312467
-0.189466
-0.179674
-0.355642
-0.352229
-0.346053
-0.121427
-0.119927
-0.084097
-0.230958
-0.060389
-0.250639
-0.095206
-0.090879
-0.288259
-0.272350
-0.293833
-0.288580
-0.285130
-0.093073
-0.187100
-0.342586
-0.147072
-0.143393
-0.155942
-0.331686
-0.341018
-0.163375
-0.150262
-0.158046
-0.183963
-0.263869
-0.127982
0.018287
0.029051
0.022822
-0.124527
-0.327939
-0.161603
-0.089848
-0.070289
-0.174001
-0.169497