# vtk DataFile Version 2.0
Test
ASCII
DATASET POLYDATA
POINTS 1437 float
0.000000 0.000000 0.000000
30.000000 0.000000 0.000000
30.000000 100.000000 0.000000
0.000000 100.000000 0.000000
16.400000 50.000000 0.000000
2.142857 0.000000 0.000000
4.285714 0.000000 0.000000
6.428571 0.000000 0.000000
8.571429 0.000000 0.000000
10.714286 0.000000 0.000000
12.857143 0.000000 0.000000
15.000000 0.000000 0.000000
17.142857 0.000000 0.000000
19.285714 0.000000 0.000000
21.428571 0.000000 0.000000
23.571429 0.000000 0.000000
25.714286 0.000000 0.000000
27.857143 0.000000 0.000000
30.000000 2.040816 0.000000
30.000000 4.081633 0.000000
30.000000 6.122449 0.000000
30.000000 8.163265 0.000000
30.000000 10.204082 0.000000
30.000000 12.244898 0.000000
30.000000 14.285714 0.000000
30.000000 16.326531 0.000000
30.000000 18.367347 0.000000
30.000000 20.408163 0.000000
30.000000 22.448980 0.000000
30.000000 24.489796 0.000000
30.000000 26.530612 0.000000
30.000000 28.571429 0.000000
30.000000 30.612245 0.000000
30.000000 32.653061 0.000000
30.000000 34.693878 0.000000
30.000000 36.734694 0.000000
30.000000 38.775510 0.000000
30.000000 40.816327 0.000000
30.000000 42.857143 0.000000
30.000000 44.897959 0.000000
30.000000 46.938776 0.000000
30.000000 48.979592 0.000000
30.000000 51.020408 0.000000
30.000000 53.061224 0.000000
30.000000 55.102041 0.000000
30.000000 57.142857 0.000000
30.000000 59.183673 0.000000
30.000000 61.224490 0.000000
30.000000 63.265306 0.000000
30.000000 65.306122 0.000000
30.000000 67.346939 0.000000
30.000000 69.387755 0.000000
30.000000 71.428571 0.000000
30.000000 73.469388 0.000000
30.000000 75.510204 0.000000
30.000000 77.551020 0.000000
30.000000 79.591837 0.000000
30.000000 81.632653 0.000000
30.000000 83.673469 0.000000
30.000000 85.714286 0.000000
30.000000 87.755102 0.000000
30.000000 89.795918 0.000000
30.000000 91.836735 0.000000
30.000000 93.877551 0.000000
30.000000 95.918367 0.000000
30.000000 97.959184 0.000000
27.857143 100.000000 0.000000
25.714286 100.000000 0.000000
23.571429 100.000000 0.000000
21.428571 100.000000 0.000000
19.285714 100.000000 0.000000
17.142857 100.000000 0.000000
15.000000 100.000000 0.000000
12.857143 100.000000 0.000000
10.714286 100.000000 0.000000
8.571429 100.000000 0.000000
6.428571 100.000000 0.000000
4.285714 100.000000 0.000000
2.142857 100.000000 0.000000
0.000000 97.959184 0.000000
0.000000 95.918367 0.000000
0.000000 93.877551 0.000000
0.000000 91.836735 0.000000
0.000000 89.795918 0.000000
0.000000 87.755102 0.000000
0.000000 85.714286 0.000000
0.000000 83.673469 0.000000
0.000000 81.632653 0.000000
0.000000 79.591837 0.000000
0.000000 77.551020 0.000000
0.000000 75.510204 0.000000
0.000000 73.469388 0.000000
0.000000 71.428571 0.000000
0.000000 69.387755 0.000000
0.000000 67.346939 0.000000
0.000000 65.306122 0.000000
0.000000 63.265306 0.000000
0.000000 61.224490 0.000000
0.000000 59.183673 0.000000
0.000000 57.142857 0.000000
0.000000 55.102041 0.000000
0.000000 53.061224 0.000000
0.000000 51.020408 0.000000
0.000000 48.979592 0.000000
0.000000 46.938776 0.000000
0.000000 44.897959 0.000000
0.000000 42.857143 0.000000
0.000000 40.816327 0.000000
0.000000 38.775510 0.000000
0.000000 36.734694 0.000000
0.000000 34.693878 0.000000
0.000000 32.653061 0.000000
0.000000 30.612245 0.000000
0.000000 28.571429 0.000000
0.000000 26.530612 0.000000
0.000000 24.489796 0.000000
0.000000 22.448980 0.000000
0.000000 20.408163 0.000000
0.000000 18.367347 0.000000
0.000000 16.326531 0.000000
0.000000 14.285714 0.000000
0.000000 12.244898 0.000000
0.000000 10.204082 0.000000
0.000000 8.163265 0.000000
0.000000 6.122449 0.000000
0.000000 4.081633 0.000000
0.000000 2.040816 0.000000
16.388506 50.179028 0.000000
16.354213 50.355116 0.000000
16.297683 50.525374 0.000000
16.219846 50.687005 0.000000
16.121979 50.837355 0.000000
16.005689 50.973956 0.000000
15.872886 51.094564 0.000000
15.725750 51.197200 0.000000
15.566697 51.280178 0.000000
15.398339 51.342135 0.000000
15.223440 51.382054 0.000000
15.044872 51.399281 0.000000
14.865568 51.393531 0.000000
14.688471 51.364899 0.000000
14.516489 51.313856 0.000000
14.352446 51.241239 0.000000
14.199037 51.148241 0.000000
14.058779 51.036389 0.000000
13.933976 50.907520 0.000000
13.826677 50.763749 0.000000
13.738644 50.607437 0.000000
13.671322 50.441152 0.000000
13.625817 50.267622 0.000000
13.602876 50.089698 0.000000
13.602876 49.910302 0.000000
13.625817 49.732378 0.000000
13.671322 49.558848 0.000000
13.738644 49.392563 0.000000
13.826677 49.236251 0.000000
13.933976 49.092480 0.000000
14.058779 48.963611 0.000000
14.199037 48.851759 0.000000
14.352446 48.758761 0.000000
14.516489 48.686144 0.000000
14.688471 48.635101 0.000000
14.865568 48.606469 0.000000
15.044872 48.600719 0.000000
15.223440 48.617946 0.000000
15.398339 48.657865 0.000000
15.566697 48.719822 0.000000
15.725750 48.802800 0.000000
15.872886 48.905436 0.000000
16.005689 49.026044 0.000000
16.121979 49.162645 0.000000
16.219846 49.312995 0.000000
16.297683 49.474626 0.000000
16.354213 49.644884 0.000000
16.388506 49.820972 0.000000
16.142290 51.090246 0.000000
16.381031 49.246029 0.000000
16.476220 50.570036 0.000000
16.567534 49.809478 0.000000
13.432060 49.919357 0.000000
27.959184 67.346939 0.000000
15.062546 51.587060 0.000000
27.959184 79.591837 0.000000
2.040816 20.408163 0.000000
2.040816 30.612245 0.000000
2.040816 81.632653 0.000000
2.040816 69.387755 0.000000
27.959184 16.326531 0.000000
27.959184 24.489796 0.000000
27.959184 32.653061 0.000000
2.000226 63.022103 0.000000
2.040816 38.775510 0.000000
27.959184 38.775510 0.000000
2.063520 56.953992 0.000000
27.959184 59.183673 0.000000
15.000000 97.857143 0.000000
15.000000 2.142857 0.000000
27.959184 44.897959 0.000000
27.959184 51.020408 0.000000
2.058026 48.891267 0.000000
2.040816 12.244898 0.000000
27.959184 8.163265 0.000000
2.119286 91.907213 0.000000
27.959184 87.755102 0.000000
8.571429 2.142857 0.000000
21.428571 97.857143 0.000000
2.040816 6.122449 0.000000
27.959184 93.877551 0.000000
23.571429 2.142857 0.000000
6.428571 97.857143 0.000000
2.040816 44.897959 0.000000
15.808727 51.356253 0.000000
2.040816 77.551020 0.000000
27.959184 71.428571 0.000000
2.040816 26.530612 0.000000
4.285714 2.142857 0.000000
25.714286 97.857143 0.000000
2.021897 52.958989 0.000000
27.959184 53.061224 0.000000
27.914278 55.273576 0.000000
27.959184 61.224490 0.000000
27.879705 47.169173 0.000000
2.040816 36.734694 0.000000
1.985319 42.671502 0.000000
2.040816 4.081633 0.000000
27.959184 95.918367 0.000000
27.842785 41.012410 0.000000
27.904213 63.341606 0.000000
1.981595 60.897410 0.000000
2.040816 34.693878 0.000000
2.142857 97.857143 0.000000
27.857143 2.142857 0.000000
21.428571 2.142857 0.000000
8.571429 97.857143 0.000000
19.285714 2.142857 0.000000
10.714286 97.857143 0.000000
12.857143 2.142857 0.000000
17.142857 97.857143 0.000000
2.040816 73.469388 0.000000
2.040816 85.714286 0.000000
27.959184 28.571429 0.000000
27.957036 12.244796 0.000000
27.959184 20.408163 0.000000
27.959184 75.510204 0.000000
27.959184 81.632653 0.000000
2.040816 24.489796 0.000000
2.040816 18.367347 0.000000
2.101567 67.270721 0.000000
27.990742 34.718564 0.000000
2.040816 16.326531 0.000000
2.040816 10.204082 0.000000
2.040816 89.795918 0.000000
27.959184 83.673469 0.000000
27.959184 89.795918 0.000000
2.098379 2.081372 0.000000
27.901617 97.918624 0.000000
28.130079 4.091715 0.000000
1.869924 95.908287 0.000000
16.576970 50.167357 0.000000
25.954712 32.689406 0.000000
4.048051 69.354174 0.000000
4.081633 24.489796 0.000000
25.916213 79.588913 0.000000
4.086221 18.371935 0.000000
3.897904 34.877606 0.000000
3.923124 61.572806 0.000000
26.128612 39.133691 0.000000
26.214823 61.491956 0.000000
3.871989 43.375621 0.000000
26.265426 45.355943 0.000000
26.372982 51.593494 0.000000
15.011971 95.726257 0.000000
14.987483 4.273197 0.000000
4.095212 12.258477 0.000000
25.904714 87.741449 0.000000
8.590547 95.733404 0.000000
4.124327 91.817489 0.000000
23.644909 4.177846 0.000000
1.898679 46.664421 0.000000
1.887660 50.867252 0.000000
28.104743 49.216969 0.000000
28.091622 57.507646 0.000000
1.793213 54.763850 0.000000
1.898425 40.673936 0.000000
28.092220 43.114891 0.000000
1.898792 59.041649 0.000000
26.349643 53.492500 0.000000
3.788008 38.504633 0.000000
26.348185 4.174096 0.000000
28.073402 36.848913 0.000000
3.770644 95.809804 0.000000
1.947709 64.759841 0.000000
27.961478 65.481833 0.000000
2.032166 32.492602 0.000000
21.409200 4.266343 0.000000
6.436167 2.135262 0.000000
23.563887 97.864684 0.000000
17.151762 2.133952 0.000000
12.848401 97.865884 0.000000
10.720797 2.136346 0.000000
19.279431 97.863426 0.000000
25.741048 2.116095 0.000000
4.208553 97.884202 0.000000
2.040816 71.428571 0.000000
27.959184 73.469388 0.000000
2.040044 28.570656 0.000000
2.040816 79.591837 0.000000
2.040816 75.510204 0.000000
27.959184 30.612245 0.000000
27.959184 69.387755 0.000000
27.959184 77.551020 0.000000
2.040816 22.448980 0.000000
27.959184 22.448980 0.000000
27.959252 26.530681 0.000000
27.959184 18.367347 0.000000
2.040816 83.673469 0.000000
27.959184 14.285714 0.000000
25.913747 81.628033 0.000000
2.043283 87.757569 0.000000
2.046930 14.291828 0.000000
27.956122 10.201020 0.000000
27.953028 85.708130 0.000000
2.051111 8.173560 0.000000
27.948877 91.826428 0.000000
27.877535 6.025956 0.000000
2.132881 93.976795 0.000000
4.000357 6.267740 0.000000
4.120886 4.222927 0.000000
25.999609 93.732219 0.000000
25.879089 95.777048 0.000000
15.649674 48.560769 0.000000
26.010158 67.277614 0.000000
25.918367 24.489796 0.000000
4.081633 79.591837 0.000000
25.916050 16.328010 0.000000
23.873553 79.584761 0.000000
3.481175 55.433151 0.000000
24.733850 51.947925 0.000000
3.652422 50.744354 0.000000
25.910700 12.249504 0.000000
23.509255 6.363423 0.000000
26.366938 49.758281 0.000000
26.399277 43.548901 0.000000
3.661711 59.758281 0.000000
25.957156 34.691433 0.000000
10.699495 4.264413 0.000000
19.300303 95.735157 0.000000
17.109994 4.256463 0.000000
[...]
POINT_DATA 1437
SCALARS UX float 1
LOOKUP_TABLE default
0.000000
0.000000
0.000000
0.000000
10.566320
-0.000000
0.000000
0.000000
0.000000
0.000000
0.000000
0.000000
0.000000
0.000000
0.000000
0.000000
0.000000
-0.000000
0.368359
0.728814
1.031671
1.389735
1.750089
2.149923
2.566425
2.992993
3.436299
3.902644
4.370417
4.843748
5.318238
5.793008
6.262132
6.721459
7.167270
7.597903
7.999846
8.371805
8.693822
8.956614
9.152880
9.250484
9.246405
9.149196
8.963814
8.697516
8.370974
8.003371
7.602199
7.174662
6.726436
6.267013
5.795975
5.323019
4.845769
4.371514
3.900693
3.441234
2.995125
2.555317
2.154796
1.761224
1.386264
1.057532
0.732595
0.408370
-0.000000
0.000000
0.000000
0.000000
0.000000
0.000000
0.000000
0.000000
0.000000
0.000000
0.000000
0.000000
-0.000000
0.367859
0.730446
1.034124
1.385435
1.762512
2.144122
2.565332
2.992562
3.440124
3.900330
4.369340
4.841524
5.318452
5.793375
6.263180
6.725856
7.173880
7.597740
8.001618
8.365979
8.694372
8.960958
9.145820
9.248774
9.250482
9.151268
8.960371
8.697135
8.371923
8.001219
7.602411
7.172488
6.725877
6.266045
5.796927
5.321193
4.845757
4.372005
3.902909
3.442782
2.995714
2.554220
2.154011
1.760594
1.385770
1.057190
0.732417
0.408276
10.565935
10.563857
10.561730
10.559342
10.554004
10.548604
10.544565
10.538657
10.538644
10.534137
10.535352
10.533081
10.531551
10.534531
10.537245
10.540081
10.543717
10.547662
10.551839
10.555987
10.558374
10.560853
10.562749
10.563458
10.562900
10.562544
10.560818
10.558552
10.555374
10.549925
10.546144
10.541849
10.538458
10.534186
10.532755
10.532701
10.532519
10.533090
10.534626
10.536846
10.540902
10.545185
10.549268
10.553694
10.557308
10.561054
10.563884
10.566920
10.478289
10.505916
10.515105
10.527443
10.528718
6.764483
10.422897
3.873088
3.875043
6.292732
3.402929
6.291953
2.944849
4.838294
6.762420
7.714936
8.079382
8.080766
8.833988
8.463748
0.192002
0.195940
9.082821
9.389132
9.391479
2.076636
1.287862
1.275239
2.077478
0.200671
0.201046
0.941095
0.941447
0.221195
0.216334
9.083738
10.452963
4.352094
5.814535
5.327558
0.228278
0.228356
9.290924
9.282759
9.067701
8.080749
9.308658
7.667527
8.771527
0.612520
0.612672
8.503897
7.652533
8.142634
7.222258
0.302603
0.303496
0.203957
0.209341
0.197813
0.200495
0.196828
0.199107
5.324813
2.500959
5.811048
2.079294
3.875341
4.839912
3.402369
4.839307
3.404184
6.784477
7.224537
2.947549
1.678938
1.673783
2.946718
1.679578
0.277625
0.277706
0.607492
0.609011
10.527390
6.804159
6.323640
4.834964
3.852895
3.372233
7.301908
8.069442
8.210369
8.079805
8.963366
9.225073
9.465896
0.454034
0.456164
2.022758
2.023534
0.469220
1.228139
0.479109
9.253763
9.383285
9.388349
8.739754
9.108991
8.431562
8.836398
8.480789
9.336970
8.079509
0.548146
7.684162
0.548377
7.343024
7.186491
6.729154
0.467444
0.215484
0.215604
0.194782
0.194538
0.197612
0.198527
0.239157
0.238552
5.811060
5.328394
5.814088
3.874880
4.837667
6.291550
6.293336
4.354292
4.354482
4.353787
5.324778
3.401533
2.944040
2.501055
3.370067
2.078976
2.501561
1.675925
2.502802
1.303544
1.304075
0.913595
0.916111
0.891892
0.535811
0.892309
0.535921
10.441935
6.814179
4.833318
3.847926
2.899200
3.831982
9.111855
9.544186
9.494151
2.019052
0.833857
9.501279
8.978005
8.417825
7.260484
0.466532
0.464565
0.455776
0.455886
5.827845
4.833251
5.834441
4.340689
2.458572
2.460501
1.609774
1.610358
8.377348
9.387811
8.537535
7.776177
8.439218
9.400955
9.163122
8.943527
6.903816
6.317843
5.332648
1.234533
0.503189
7.347762
7.285600
7.692594
7.723911
0.459815
0.464109
9.158270
0.458156
0.452790
5.826171
6.325515
0.478363
0.478292
6.794966
5.332642
4.338743
3.849928
3.369809
2.450273
3.853779
1.603246
2.902505
2.900790
7.714894
10.428412
1.232463
1.233068
0.874793
0.887047
8.662435
7.699476
7.763151
7.341621
4.834287
6.341275
2.868438
7.286044
9.005153
5.836394
3.829706
9.297402
9.011278
0.783509
0.770975
1.984745
1.554901
0.785239
1.984599
6.332318
4.329172
10.465837
8.466082
0.832476
9.447071
1.188148
0.776892
0.806759
8.881433
7.888554
7.261230
6.788303
8.449752
9.398160
8.406957
9.485744
7.273615
8.550942
0.762880
5.824459
5.339024
0.479118
0.478468
8.122438
0.774721
0.771089
6.316579
4.330574
4.834972
5.330562
4.338790
4.339592
3.371499
3.831874
3.346242
2.016700
1.605900
2.900379
2.447810
2.875707
1.573615
1.574285
0.838223
0.838785
9.334124
8.740614
9.459687
8.744021
9.586397
10.498605
8.479404
7.697068
4.828396
2.872616
7.687271
7.222674
9.509971
9.572271
4.829284
4.320706
9.245621
10.469928
1.166618
1.144751
2.869289
1.120593
1.130257
9.082707
6.331395
5.838956
5.334860
3.335473
9.199818
10.457886
1.959789
1.985874
0.793537
0.794475
9.233175
8.064840
0.794061
9.666069
9.427284
9.571617
9.496531
8.812967
0.771363
6.824282
6.810857
5.828038
6.324543
7.763464
0.783448
8.229884
6.818423
0.772134
5.334932
5.845385
5.333165
4.327495
3.827971
3.343278
4.320947
4.832132
4.328014
2.424360
2.409836
3.344140
8.742002
2.423401
1.971928
8.127465
10.457928
8.756449
1.203327
1.204147
1.980754
1.574452
1.154549
8.710405
10.507353
9.221824
9.570621
9.530636
8.656149
7.552895
10.506571
8.648153
8.767220
9.510071
9.237462
6.352835
9.633851
7.284617
6.335235
4.825536
4.317336
2.844361
4.825916
1.131812
7.666578
8.059240
8.466154
8.751658
1.139178
9.663030
6.319835
5.851831
5.335112
3.325804
2.860350
8.150436
8.073421
9.011807
1.148171
1.556654
1.535228
1.536905
8.903114
9.624972
9.188708
9.194241
9.567300
7.978236
6.818945
9.422305
7.277492
5.343317
5.344553
1.137253
7.269764
1.137387
5.839950
4.827576
3.343033
4.316528
3.798636
6.790629
3.325465
4.828854
2.384526
3.827299
2.412965
9.364749
2.400252
2.858177
2.408494
1.967491
1.570782
1.163647
1.148127
1.149106
9.358583
10.456932
9.494762
10.476689
7.651310
8.769317
8.409782
9.459768
9.739974
9.659483
8.076192
7.261249
6.338338
4.823003
3.808830
3.828439
2.842456
7.271529
4.822479
2.856388
9.403358
7.703435
5.335740
3.814914
2.871836
10.391470
9.038042
8.412228
8.083293
10.523851
9.671057
9.271495
1.539402
8.956482
1.541183
8.994647
1.556194
1.545476
8.979694
9.367836
8.356487
9.593043
6.812522
1.131486
5.339464
6.826775
7.690566
8.746971
4.825974
5.334987
6.798772
1.140712
6.341934
5.852154
5.832295
2.846344
4.312833
3.326928
3.816121
2.389957
1.946880
9.688729
2.426699
1.935184
2.380649
7.568555
8.865141
9.307257
9.564869
10.389007
9.082893
9.759314
9.399168
9.778001
8.074678
6.836066
6.344641
5.854316
4.823026
3.810088
2.840935
7.255007
7.655089
5.334727
4.291794
2.828349
2.864330
9.624740
9.002701
9.047131
8.398574
6.804982
5.333403
5.330362
5.835935
9.757022
9.694340
8.442809
8.700011
9.489606
9.297748
1.593883
1.961090
7.258495
7.678243
8.282526
8.614730
1.534740
1.531950
7.279422
8.079175
5.836589
9.360000
6.819126
3.810201
6.326545
1.540584
2.396148
3.318037
4.311028
1.563139
4.325634
9.204610
3.345387
3.346238
7.951815
1.940773
1.987259
1.958436
9.596288
9.440289
9.141590
8.732977
10.531449
9.225202
10.494031
8.708944
9.004520
9.382854
8.654941
7.775216
6.799170
5.838231
4.839933
7.270068
3.836314
5.210439
4.313092
2.117246
8.416176
9.424751
9.688698
3.308490
2.433920
1.962123
8.555131
8.002823
1.967443
9.658462
9.583679
1.948196
8.402807
7.679551
9.604954
9.332996
8.927699
9.819315
7.290840
9.308146
5.847354
5.341698
6.360621
7.680112
8.391355
1.533991
5.836801
6.802453
3.331946
4.819225
2.370135
4.314084
8.825806
6.823162
3.317724
3.414828
3.760731
1.946960
2.845087
2.403400
2.366361
9.200698
9.230715
9.548711
9.722284
9.566218
8.967167
9.698966
9.012744
9.144877
9.363558
9.784527
9.741449
8.542171
8.400931
7.672422
10.446092
6.302476
5.251847
7.615704
4.350350
3.408336
9.097599
5.834993
5.839424
2.478285
8.575793
5.335383
7.285270
4.803579
4.308955
3.806698
3.329423
3.813610
3.317600
2.839484
7.207616
2.826797
9.442396
8.076008
7.257555
9.371415
9.847397
9.635528
8.068007
6.348876
6.832136
9.862784
6.328110
8.075206
7.706932
6.325796
4.777490
5.342722
4.346717
3.871230
9.229923
9.521053
9.132999
8.702837
2.453356
9.799234
10.463467
2.512124
9.529099
9.493763
3.342960
8.808110
8.235446
9.710986
2.006815
2.405743
9.661294
8.932709
9.467602
9.164583
9.291369
10.404419
9.478245
9.876695
9.848290
8.060561
8.363308
8.932189
6.816533
8.092778
6.332950
10.482204
6.329484
5.844701
9.479879
5.342854
4.855665
8.215730
4.340714
7.253044
7.682787
9.833458
10.443664
8.840908
9.550253
8.689062
6.789783
7.672709
9.650015
7.282738
5.662426
6.810093
9.436267
3.837507
9.627832
4.819420
6.285484
9.295743
9.897847
5.810805
9.171624
9.846242
3.040039
9.522525
5.303897
4.823182
8.945501
9.795172
4.312577
4.438067
8.688586
3.899327
3.816937
2.928731
7.681118
3.359901
8.385807
2.898272
2.456276
8.018210
9.765401
9.518645
8.365218
9.109165
9.101472
9.279739
9.607202
9.898860
9.611059
8.475749
9.664945
8.344506
8.692706
9.765732
9.860679
7.751565
8.031663
8.885810
9.816945
9.921190
9.795630
9.262917
7.996054
9.595779
9.655079
9.119624
7.199721
9.462859
10.519321
6.795246
9.944266
6.353089
9.364786
8.913111
8.414927
8.865780
5.849015
10.424388
10.373288
9.303268
5.341656
8.003379
4.824478
7.243928
8.649779
10.497015
7.578500
9.041094
9.445909
9.743572
9.869679
10.362198
9.416061
9.740226
9.038290
9.757974
8.902876
10.369858
8.940656
9.717721
9.918715
8.372760
8.443982
9.259617
9.901689
10.480154
10.495703
9.437864
8.679908
9.097766
10.451841
8.125559
9.568615
9.964242
9.770262
9.978964
9.835643
9.740130
9.600977
9.313373
8.645923
9.422729
10.428239
8.593191
8.278865
10.334003
9.665016
9.085548
8.764347
6.739815
9.921949
8.872806
9.925246
8.308713
9.687060
9.480684
9.846594
9.951712
10.291565
9.740155
8.922096
8.864139
9.383983
8.739613
9.172110
8.557332
10.346650
9.897839
10.526002
8.649090
9.951610
10.025760
9.143838
9.587585
9.504855
9.651914
9.528556
9.991662
9.754100
8.805633
9.855245
9.785272
10.382132
9.883494
9.262951
10.297120
9.989381
8.602465
10.401379
10.527497
9.242918
9.302822
9.536539
8.725970
10.304077
9.746889
9.663286
9.211736
9.868264
9.084835
9.631786
8.889405
9.402761
9.916999
10.483534
9.358350
9.986923
9.758693
9.936304
10.051257
9.021127
10.019049
10.057655
9.013613
9.609520
9.465145
9.138397
10.013222
10.293323
9.803132
10.315782
10.386734
8.903864
10.528925
9.560115
9.687317
10.273292
8.830065
9.477036
9.858290
9.591860
9.714877
9.645063
9.848702
9.275578
10.072940
10.245923
9.986354
9.909553
9.183503
9.833044
10.348407
9.911315
9.054834
9.530782
9.502800
9.704565
10.040490
9.260696
10.489608
10.116109
9.942906
10.072405
10.205115
10.029180
10.420423
9.428566
9.821613
9.965040
10.437344
10.223149
9.597060
10.325766
9.048134
10.224342
9.115620
9.558255
9.620876
9.785087
9.971237
9.462070
9.549003
9.969465
9.795552
10.146195
9.295392
10.160594
9.255047
10.198331
10.428868
10.361063
10.277236
9.998286
10.133848
9.754516
10.135568
9.821506
9.436547
10.017320
10.095783
10.030697
10.103135
9.351939
9.382221
10.067566
10.039998
9.232229
10.437086
10.274893
10.314110
10.365888
9.577206
9.969857
9.125915
9.874327
9.747270
10.194049
10.121490
9.606409
10.278803
10.364431
9.397832
10.430997
9.443781
10.154950
10.433080
9.723799
10.193363
10.043019
9.850615
9.728388
9.360099
10.149704
9.933607
10.133683
10.265944
9.589873
9.544359
10.084123
9.342478
10.129817
10.068202
10.207681
10.127425
10.332189
10.049900
10.386428
9.297338
10.257001
9.907726
10.068567
10.254622
10.447387
9.862284
9.869754
9.728832
10.223848
10.085706
10.329784
10.061179
10.096606
9.842679
9.610044
10.078109
10.277931
9.460972
10.221876
10.115692
10.268718
10.213853
10.022448
9.521996
10.154887
10.123431
9.863070
10.220451
10.184431
9.747046
10.156417
9.616167
9.522289
9.686897
10.067344
10.347957
10.390157
10.177207
9.981052
9.446393
10.118082
9.826841
10.315699
9.728887
10.328319
10.040715
10.264770
9.561511
9.695689
9.913371
9.792835
10.178221
10.292865
10.232073
10.139264
9.855882
10.228482
9.970733
10.223448
9.979144
10.044595
10.281757
10.241884
9.662576
10.166132
9.947866
10.172513
9.690374
10.358725
9.607294
10.002053
10.113350
10.124365
9.805846
10.151560
9.928206
10.310046
10.207990
10.188145
9.866786
10.324498
10.057944
10.275494
10.399504
10.316403
9.716755
9.999425
9.856367
10.193608
9.987684
9.968769
10.435844
10.216774
10.301710
10.413518
10.250483
10.071142
10.168103
9.647036
10.290518
10.427470
10.070278
9.728683
10.243199
10.345469
10.144103
10.099403
9.875734
10.181782
10.431632
10.350444
9.977103
10.263189
9.942314
10.318972
10.069980
10.310365
10.240397
10.323966
10.428864
9.863644
10.140434
9.789930
9.967388
10.468061
10.363846
9.993502
10.035091
9.862209
10.231817
10.243578
10.364620
10.353497
10.378657
10.006975
10.199461
10.413352
10.065752
10.386094
10.081201
10.305916
10.384255
10.109433
9.923941
10.252435
9.986576
10.093491
10.245981
10.329629
10.251441
10.324811
10.453848
9.738787
9.988117
9.938024
10.087629
10.323499
10.329338
10.001222
10.383808
10.170304
10.395898
10.177550
10.439779
10.424310
10.450459
10.042715
10.164843
10.460126
10.417566
10.286828
9.919126
10.331863
10.088606
10.379724
10.165141
10.222248
10.216445
10.189792
10.489341
10.518325
10.049383
10.445867
10.275382
10.510375
10.112948
10.452021
10.447771
10.412094
10.478712
10.426779
10.409708
10.487852
10.223324
10.369288
9.880702
10.503713
10.097586
10.317075
10.150527
10.430798
10.292574
10.376859
10.472895
10.423684
10.478050
10.013756
10.479767
10.526309
10.322312
10.110973
10.349583
10.226608
10.537023
10.286589
10.381402
10.502661
10.130061
10.163375
10.329333
10.452746
10.394988
10.243467
SCALARS UY float 1
LOOKUP_TABLE default
0.000000
-0.000000
0.000000
-0.000000
0.002996
0.000000
0.000000
0.000000
0.000000
0.000000
0.000000
0.000000
-0.000000
-0.000000
-0.000000
-0.000000
-0.000000
-0.000000
-0.388030
-0.749161
-1.048966
-1.298713
-1.522843
-1.707770
-1.867187
-2.006121
-2.117084
-2.195588
-2.247048
-2.270311
-2.271723
-2.243693
-2.186406
-2.099903
-1.983663
-1.835265
-1.648944
-1.428157
-1.170737
-0.867041
-0.538099
-0.183922
0.186932
0.540237
0.871053
1.170604
1.433905
1.654636
1.838795
1.989056
2.106677
2.194074
2.247883
2.279408
2.281291
2.254811
2.200923
2.119862
2.012637
1.879792
1.711223
1.523611
1.309977
1.054278
0.770774
0.438658
0.000000
0.000000
0.000000
0.000000
0.000000
0.000000
-0.000000
-0.000000
-0.000000
-0.000000
-0.000000
-0.000000
-0.000000
-0.389057
-0.750985
-1.051407
-1.298732
-1.515588
-1.709779
-1.868719
-2.006171
-2.114598
-2.196413
-2.246392
-2.274777
-2.274185
-2.245923
-2.189239
-2.103313
-1.987020
-1.834337
-1.649754
-1.427958
-1.167234
-0.872197
-0.532307
-0.180160
0.185930
0.539502
0.875872
1.172268
1.432429
1.654536
1.838761
1.988887
2.105119
2.192485
2.250489
2.281908
2.278346
2.252935
2.199523
2.119214
2.012763
1.880149
1.711332
1.523594
1.309892
1.054152
0.770653
0.438592
0.005555
0.007334
0.009436
0.011143
0.011543
0.010962
0.012260
0.010121
0.009735
0.007526
0.006812
0.004554
0.003455
-0.002005
-0.002774
-0.002835
-0.004939
-0.004245
-0.003628
-0.003809
-0.002616
-0.002616
-0.000948
0.002198
0.004540
0.006561
0.008483
0.008591
0.010157
0.010994
0.010610
0.009517
0.009759
0.008698
0.005554
0.004383
0.002673
0.000820
-0.000201
-0.000902
-0.003404
-0.004980
-0.005467
-0.004660
-0.003625
-0.002882
-0.000403
0.002347
0.046321
-0.033299
0.033987
-0.007513
0.007197
1.689344
0.007498
1.770359
1.769054
1.762622
-1.693126
-1.760312
-1.598600
-1.834639
-1.684945
-1.452690
1.314265
-1.310663
-0.894844
1.133977
0.001664
0.000388
-0.681785
0.145304
0.157579
1.347630
-0.984335
-0.964728
1.347502
0.091232
0.090866
0.776051
0.776099
-0.129406
-0.126712
0.689241
0.040544
-1.813583
1.814885
1.837793
0.174065
0.174055
-0.404407
0.426842
0.705401
1.315003
-0.386116
1.467760
0.951134
0.526431
0.526470
-1.096778
1.463578
-1.292357
1.590754
-0.270395
-0.269210
-0.088065
-0.089566
-0.056921
-0.057606
0.027645
0.027406
-1.833908
-1.482103
-1.808551
-1.337469
-1.762515
1.841137
1.698789
1.841989
1.697952
-1.672621
-1.590174
1.602306
1.179558
-1.175909
1.602588
1.179472
0.249679
0.249693
-0.536683
-0.537415
0.013009
-1.335953
-1.394775
1.454473
1.393908
1.334996
1.274764
-1.074563
-1.034263
1.092238
0.708547
-0.521420
0.191965
0.000461
0.000694
1.037275
1.036950
-0.179032
-0.729567
-0.258818
0.471117
-0.118607
-0.108536
0.980136
-0.659087
1.165855
-0.904508
-1.133819
0.406989
1.092799
-0.404789
-1.474460
-0.398720
-1.574096
1.601773
1.698714
-0.180225
0.128041
0.128048
-0.026971
-0.027084
0.057021
0.056520
-0.178570
-0.178852
-1.809142
1.839696
1.813080
-1.762583
-1.834196
-1.759087
1.763262
1.816028
1.816670
-1.811872
-1.833658
-1.693010
-1.599755
-1.481496
1.336038
-1.339026
1.485462
-1.171409
1.485321
0.988305
0.988292
-0.742698
-0.740876
0.581675
0.375901
0.581676
0.375947
-0.027391
1.349311
-1.453196
-1.393353
-1.253529
1.071920
-0.614692
0.201049
-0.083151
-1.030361
-0.393345
-0.025671
-0.707416
-0.980627
-1.257381
0.116060
0.116154
-0.053755
-0.056328
1.436182
-1.453993
-1.430510
1.435299
1.155043
1.154224
0.897379
0.897127
1.019553
-0.336430
-0.903346
-1.174000
0.971995
0.300185
0.569397
0.741973
1.349508
1.396768
1.455818
-0.735320
-0.276017
1.260478
-1.284109
-1.218564
1.189211
-0.114998
-0.115490
0.579818
0.055399
0.056077
-1.432382
-1.391177
0.252245
0.252271
-1.334671
1.456411
1.436227
-1.390632
-1.332505
-1.151421
1.394429
-0.890002
1.255664
1.256131
1.177783
0.009411
0.740871
0.740789
-0.566327
-0.565539
0.876864
0.964199
-0.979065
1.023256
1.121760
-1.075262
0.956072
-0.979707
0.604958
1.106850
-1.067766
-0.441769
0.623548
0.173271
-0.083506
0.779489
-0.661403
0.173830
0.779251
-1.072840
1.104898
-0.039273
0.819784
-0.410005
-0.259586
-0.554804
-0.085467
-0.274812
-0.754056
-0.940388
-1.023168
1.080424
0.808515
0.369569
-0.830213
0.135517
1.005498
-0.771157
-0.173295
1.438164
-1.452097
0.180477
0.180461
0.886923
0.084582
0.085662
1.396840
1.104055
1.454951
-1.452763
-1.431966
-1.430870
-1.330402
1.072462
1.020742
-1.029412
-0.886962
-1.251403
-1.151737
0.956178
0.668205
0.668133
0.421692
0.421778
-0.410933
0.839314
-0.198573
-0.858909
0.041515
0.039098
0.667554
-0.775119
0.826775
-0.951031
0.757282
0.803962
0.295182
-0.005896
-1.117660
0.811480
-0.481580
-0.035887
-0.399934
-0.224846
-0.952780
0.233450
0.234540
-0.576166
1.077631
-1.103860
1.120809
0.748515
0.512888
0.036934
0.562168
0.575632
0.268769
0.269105
0.487252
0.899797
-0.299733
0.064783
-0.331752
-0.104799
0.264543
-0.719596
-0.003503
-1.038887
1.051598
1.113878
1.089755
0.926481
-0.173694
-0.860148
-1.051329
0.001520
1.121658
-1.102088
-1.117158
-1.100179
-1.068705
1.021937
0.811681
1.120549
-1.099175
0.875806
-0.871301
-1.017829
0.724082
0.872577
-0.772799
-0.881483
-0.024743
0.714877
0.547969
0.548017
-0.775300
-0.671525
-0.533837
-0.735734
0.038293
-0.524211
-0.114737
-0.220485
-0.899828
-1.025112
-0.033019
-0.613687
0.610833
-0.287690
0.458048
-0.796722
-0.138509
-0.751860
0.801159
0.560959
-0.808422
-0.694832
-0.820243
-0.114413
0.738211
0.723430
-0.685458
0.618751
0.112707
-0.058529
0.816252
-0.820016
0.829672
-0.744452
0.697236
0.712159
-0.737490
-0.602304
-0.265107
-0.491753
0.474694
0.470567
-0.579477
0.184485
-0.469521
0.478688
0.123822
-0.747371
-0.780513
-0.346259
-0.795108
-1.119704
-0.821574
0.111567
0.778446
-0.110664
0.820076
0.825512
-1.017334
-0.808274
0.774113
0.817921
0.746125
-1.115611
-0.630508
0.786129
-0.870531
0.396790
0.635295
0.696792
0.635036
-0.561099
-0.475194
-0.380704
0.392585
0.392415
0.397050
0.026884
-0.230519
-0.027824
-0.802593
0.519513
-0.553630
0.335731
0.078202
0.114978
0.555686
0.577839
0.553205
0.560732
0.529483
0.532032
-0.466750
-0.538616
-0.554902
0.469116
0.369329
-0.578892
0.566071
-0.781972
0.462555
0.047199
-0.479178
0.674711
0.548591
-0.017954
-0.028602
-0.444909
0.264521
-0.554984
-0.333666
0.551049
0.283665
-0.279438
0.566319
-0.378986
-0.684343
-0.187904
0.798052
-0.004106
-0.827450
-0.804130
0.569480
-0.607176
-0.821287
0.828269
0.580354
0.001615
-0.799452
-0.810511
0.828495
-0.692482
0.548787
-0.744806
-0.781896
-0.631884
-0.558198
0.178488
0.425743
0.384824
-0.423956
-0.623120
-0.504596
0.439258
-0.239464
-0.055311
-0.416781
0.011451
0.364463
0.141121
0.400437
-0.567680
-0.554629
-0.552479
-0.555222
-0.527804
-0.465437
0.367419
-0.452641
0.324255
0.300226
0.251864
-0.253000
-0.208488