# vtk DataFile Version 2.0
Test
ASCII
DATASET POLYDATA
POINTS 1437 float
0.000000 0.000000 0.000000
30.000000 0.000000 0.000000
30.000000 100.000000 0.000000
0.000000 100.000000 0.000000
16.400000 50.000000 0.000000
2.142857 0.000000 0.000000
4.285714 0.000000 0.000000
6.428571 0.000000 0.000000
8.571429 0.000000 0.000000
10.714286 0.000000 0.000000
12.857143 0.000000 0.000000
15.000000 0.000000 0.000000
17.142857 0.000000 0.000000
19.285714 0.000000 0.000000
21.428571 0.000000 0.000000
23.571429 0.000000 0.000000
25.714286 0.000000 0.000000
27.857143 0.000000 0.000000
30.000000 2.040816 0.000000
30.000000 4.081633 0.000000
30.000000 6.122449 0.000000
30.000000 8.163265 0.000000
30.000000 10.204082 0.000000
30.000000 12.244898 0.000000
30.000000 14.285714 0.000000
30.000000 16.326531 0.000000
30.000000 18.367347 0.000000
30.000000 20.408163 0.000000
30.000000 22.448980 0.000000
30.000000 24.489796 0.000000
30.000000 26.530612 0.000000
30.000000 28.571429 0.000000
30.000000 30.612245 0.000000
30.000000 32.653061 0.000000
30.000000 34.693878 0.000000
30.000000 36.734694 0.000000
30.000000 38.775510 0.000000
30.000000 40.816327 0.000000
30.000000 42.857143 0.000000
30.000000 44.897959 0.000000
30.000000 46.938776 0.000000
30.000000 48.979592 0.000000
30.000000 51.020408 0.000000
30.000000 53.061224 0.000000
30.000000 55.102041 0.000000
30.000000 57.142857 0.000000
30.000000 59.183673 0.000000
30.000000 61.224490 0.000000
30.000000 63.265306 0.000000
30.000000 65.306122 0.000000
30.000000 67.346939 0.000000
30.000000 69.387755 0.000000
30.000000 71.428571 0.000000
30.000000 73.469388 0.000000
30.000000 75.510204 0.000000
30.000000 77.551020 0.000000
30.000000 79.591837 0.000000
30.000000 81.632653 0.000000
30.000000 83.673469 0.000000
30.000000 85.714286 0.000000
30.000000 87.755102 0.000000
30.000000 89.795918 0.000000
30.000000 91.836735 0.000000
30.000000 93.877551 0.000000
30.000000 95.918367 0.000000
30.000000 97.959184 0.000000
27.857143 100.000000 0.000000
25.714286 100.000000 0.000000
23.571429 100.000000 0.000000
21.428571 100.000000 0.000000
19.285714 100.000000 0.000000
17.142857 100.000000 0.000000
15.000000 100.000000 0.000000
12.857143 100.000000 0.000000
10.714286 100.000000 0.000000
8.571429 100.000000 0.000000
6.428571 100.000000 0.000000
4.285714 100.000000 0.000000
2.142857 100.000000 0.000000
0.000000 97.959184 0.000000
0.000000 95.918367 0.000000
0.000000 93.877551 0.000000
0.000000 91.836735 0.000000
0.000000 89.795918 0.000000
0.000000 87.755102 0.000000
0.000000 85.714286 0.000000
0.000000 83.673469 0.000000
0.000000 81.632653 0.000000
0.000000 79.591837 0.000000
0.000000 77.551020 0.000000
0.000000 75.510204 0.000000
0.000000 73.469388 0.000000
0.000000 71.428571 0.000000
0.000000 69.387755 0.000000
0.000000 67.346939 0.000000
0.000000 65.306122 0.000000
0.000000 63.265306 0.000000
0.000000 61.224490 0.000000
0.000000 59.183673 0.000000
0.000000 57.142857 0.000000
0.000000 55.102041 0.000000
0.000000 53.061224 0.000000
0.000000 51.020408 0.000000
0.000000 48.979592 0.000000
0.000000 46.938776 0.000000
0.000000 44.897959 0.000000
0.000000 42.857143 0.000000
0.000000 40.816327 0.000000
0.000000 38.775510 0.000000
0.000000 36.734694 0.000000
0.000000 34.693878 0.000000
0.000000 32.653061 0.000000
0.000000 30.612245 0.000000
0.000000 28.571429 0.000000
0.000000 26.530612 0.000000
0.000000 24.489796 0.000000
0.000000 22.448980 0.000000
0.000000 20.408163 0.000000
0.000000 18.367347 0.000000
0.000000 16.326531 0.000000
0.000000 14.285714 0.000000
0.000000 12.244898 0.000000
0.000000 10.204082 0.000000
0.000000 8.163265 0.000000
0.000000 6.122449 0.000000
0.000000 4.081633 0.000000
0.000000 2.040816 0.000000
16.388506 50.179028 0.000000
16.354213 50.355116 0.000000
16.297683 50.525374 0.000000
16.219846 50.687005 0.000000
16.121979 50.837355 0.000000
16.005689 50.973956 0.000000
15.872886 51.094564 0.000000
15.725750 51.197200 0.000000
15.566697 51.280178 0.000000
15.398339 51.342135 0.000000
15.223440 51.382054 0.000000
15.044872 51.399281 0.000000
14.865568 51.393531 0.000000
14.688471 51.364899 0.000000
14.516489 51.313856 0.000000
14.352446 51.241239 0.000000
14.199037 51.148241 0.000000
14.058779 51.036389 0.000000
13.933976 50.907520 0.000000
13.826677 50.763749 0.000000
13.738644 50.607437 0.000000
13.671322 50.441152 0.000000
13.625817 50.267622 0.000000
13.602876 50.089698 0.000000
13.602876 49.910302 0.000000
13.625817 49.732378 0.000000
13.671322 49.558848 0.000000
13.738644 49.392563 0.000000
13.826677 49.236251 0.000000
13.933976 49.092480 0.000000
14.058779 48.963611 0.000000
14.199037 48.851759 0.000000
14.352446 48.758761 0.000000
14.516489 48.686144 0.000000
14.688471 48.635101 0.000000
14.865568 48.606469 0.000000
15.044872 48.600719 0.000000
15.223440 48.617946 0.000000
15.398339 48.657865 0.000000
15.566697 48.719822 0.000000
15.725750 48.802800 0.000000
15.872886 48.905436 0.000000
16.005689 49.026044 0.000000
16.121979 49.162645 0.000000
16.219846 49.312995 0.000000
16.297683 49.474626 0.000000
16.354213 49.644884 0.000000
16.388506 49.820972 0.000000
16.142290 51.090246 0.000000
16.381031 49.246029 0.000000
16.476220 50.570036 0.000000
16.567534 49.809478 0.000000
13.432060 49.919357 0.000000
27.959184 67.346939 0.000000
15.062546 51.587060 0.000000
27.959184 79.591837 0.000000
2.040816 20.408163 0.000000
2.040816 30.612245 0.000000
2.040816 81.632653 0.000000
2.040816 69.387755 0.000000
27.959184 16.326531 0.000000
27.959184 24.489796 0.000000
27.959184 32.653061 0.000000
2.000226 63.022103 0.000000
2.040816 38.775510 0.000000
27.959184 38.775510 0.000000
2.063520 56.953992 0.000000
27.959184 59.183673 0.000000
15.000000 97.857143 0.000000
15.000000 2.142857 0.000000
27.959184 44.897959 0.000000
27.959184 51.020408 0.000000
2.058026 48.891267 0.000000
2.040816 12.244898 0.000000
27.959184 8.163265 0.000000
2.119286 91.907213 0.000000
27.959184 87.755102 0.000000
8.571429 2.142857 0.000000
21.428571 97.857143 0.000000
2.040816 6.122449 0.000000
27.959184 93.877551 0.000000
23.571429 2.142857 0.000000
6.428571 97.857143 0.000000
2.040816 44.897959 0.000000
15.808727 51.356253 0.000000
2.040816 77.551020 0.000000
27.959184 71.428571 0.000000
2.040816 26.530612 0.000000
4.285714 2.142857 0.000000
25.714286 97.857143 0.000000
2.021897 52.958989 0.000000
27.959184 53.061224 0.000000
27.914278 55.273576 0.000000
27.959184 61.224490 0.000000
27.879705 47.169173 0.000000
2.040816 36.734694 0.000000
1.985319 42.671502 0.000000
2.040816 4.081633 0.000000
27.959184 95.918367 0.000000
27.842785 41.012410 0.000000
27.904213 63.341606 0.000000
1.981595 60.897410 0.000000
2.040816 34.693878 0.000000
2.142857 97.857143 0.000000
27.857143 2.142857 0.000000
21.428571 2.142857 0.000000
8.571429 97.857143 0.000000
19.285714 2.142857 0.000000
10.714286 97.857143 0.000000
12.857143 2.142857 0.000000
17.142857 97.857143 0.000000
2.040816 73.469388 0.000000
2.040816 85.714286 0.000000
27.959184 28.571429 0.000000
27.957036 12.244796 0.000000
27.959184 20.408163 0.000000
27.959184 75.510204 0.000000
27.959184 81.632653 0.000000
2.040816 24.489796 0.000000
2.040816 18.367347 0.000000
2.101567 67.270721 0.000000
27.990742 34.718564 0.000000
2.040816 16.326531 0.000000
2.040816 10.204082 0.000000
2.040816 89.795918 0.000000
27.959184 83.673469 0.000000
27.959184 89.795918 0.000000
2.098379 2.081372 0.000000
27.901617 97.918624 0.000000
28.130079 4.091715 0.000000
1.869924 95.908287 0.000000
16.576970 50.167357 0.000000
25.954712 32.689406 0.000000
4.048051 69.354174 0.000000
4.081633 24.489796 0.000000
25.916213 79.588913 0.000000
4.086221 18.371935 0.000000
3.897904 34.877606 0.000000
3.923124 61.572806 0.000000
26.128612 39.133691 0.000000
26.214823 61.491956 0.000000
3.871989 43.375621 0.000000
26.265426 45.355943 0.000000
26.372982 51.593494 0.000000
15.011971 95.726257 0.000000
14.987483 4.273197 0.000000
4.095212 12.258477 0.000000
25.904714 87.741449 0.000000
8.590547 95.733404 0.000000
4.124327 91.817489 0.000000
23.644909 4.177846 0.000000
1.898679 46.664421 0.000000
1.887660 50.867252 0.000000
28.104743 49.216969 0.000000
28.091622 57.507646 0.000000
1.793213 54.763850 0.000000
1.898425 40.673936 0.000000
28.092220 43.114891 0.000000
1.898792 59.041649 0.000000
26.349643 53.492500 0.000000
3.788008 38.504633 0.000000
26.348185 4.174096 0.000000
28.073402 36.848913 0.000000
3.770644 95.809804 0.000000
1.947709 64.759841 0.000000
27.961478 65.481833 0.000000
2.032166 32.492602 0.000000
21.409200 4.266343 0.000000
6.436167 2.135262 0.000000
23.563887 97.864684 0.000000
17.151762 2.133952 0.000000
12.848401 97.865884 0.000000
10.720797 2.136346 0.000000
19.279431 97.863426 0.000000
25.741048 2.116095 0.000000
4.208553 97.884202 0.000000
2.040816 71.428571 0.000000
27.959184 73.469388 0.000000
2.040044 28.570656 0.000000
2.040816 79.591837 0.000000
2.040816 75.510204 0.000000
27.959184 30.612245 0.000000
27.959184 69.387755 0.000000
27.959184 77.551020 0.000000
2.040816 22.448980 0.000000
27.959184 22.448980 0.000000
27.959252 26.530681 0.000000
27.959184 18.367347 0.000000
2.040816 83.673469 0.000000
27.959184 14.285714 0.000000
25.913747 81.628033 0.000000
2.043283 87.757569 0.000000
2.046930 14.291828 0.000000
27.956122 10.201020 0.000000
27.953028 85.708130 0.000000
2.051111 8.173560 0.000000
27.948877 91.826428 0.000000
27.877535 6.025956 0.000000
2.132881 93.976795 0.000000
4.000357 6.267740 0.000000
4.120886 4.222927 0.000000
25.999609 93.732219 0.000000
25.879089 95.777048 0.000000
15.649674 48.560769 0.000000
26.010158 67.277614 0.000000
25.918367 24.489796 0.000000
4.081633 79.591837 0.000000
25.916050 16.328010 0.000000
23.873553 79.584761 0.000000
3.481175 55.433151 0.000000
24.733850 51.947925 0.000000
3.652422 50.744354 0.000000
25.910700 12.249504 0.000000
23.509255 6.363423 0.000000
26.366938 49.758281 0.000000
26.399277 43.548901 0.000000
3.661711 59.758281 0.000000
25.957156 34.691433 0.000000
10.699495 4.264413 0.000000
19.300303 95.735157 0.000000
17.109994 4.256463 0.000000
[...]
POINT_DATA 1437
SCALARS UX float 1
LOOKUP_TABLE default
0.000000
0.000000
0.000000
0.000000
13.585268
-0.000000
0.000000
0.000000
0.000000
0.000000
0.000000
0.000000
0.000000
0.000000
0.000000
0.000000
0.000000
-0.000000
0.473604
0.937046
1.326434
1.786802
2.250115
2.764187
3.299690
3.848134
4.418098
5.017685
5.619107
6.227675
6.837735
7.448153
8.051313
8.641876
9.215061
9.768733
10.285516
10.763749
11.177771
11.515646
11.767989
11.893479
11.888235
11.763252
11.524904
11.182520
10.762681
10.290049
9.774256
9.224565
8.648275
8.057588
7.451968
6.843882
6.230274
5.620518
5.015177
4.424443
3.850875
3.285408
2.770452
2.264431
1.782339
1.359685
0.941908
0.525047
-0.000000
0.000000
0.000000
0.000000
0.000000
0.000000
0.000000
0.000000
0.000000
0.000000
0.000000
0.000000
-0.000000
0.472961
0.939144
1.329588
1.781274
2.266087
2.756728
3.298284
3.847580
4.423017
5.014710
5.617722
6.224817
6.838010
7.448625
8.052660
8.647529
9.223560
9.768522
10.287795
10.756258
11.178479
11.521231
11.758912
11.891280
11.893477
11.765916
11.520477
11.182030
10.763901
10.287282
9.774528
9.221770
8.647556
8.056343
7.453191
6.841534
6.230259
5.621149
5.018026
4.426434
3.851633
3.283997
2.769443
2.263621
1.781704
1.359244
0.941679
0.524927
13.584773
13.582102
13.579367
13.576296
13.569434
13.562491
13.557298
13.549702
13.549685
13.543891
13.545452
13.542533
13.540565
13.544397
13.547886
13.551532
13.556208
13.561280
13.566651
13.571983
13.575053
13.578239
13.580677
13.581588
13.580871
13.580413
13.578194
13.575281
13.571195
13.564189
13.559327
13.553806
13.549446
13.543953
13.542114
13.542045
13.541810
13.542545
13.544520
13.547373
13.552589
13.558095
13.563344
13.569035
13.573682
13.578498
13.582136
13.586040
13.472086
13.507606
13.519421
13.535284
13.536924
8.697192
13.400868
4.979685
4.982198
8.090655
4.375194
8.089654
3.786234
6.220664
8.694540
9.919204
10.387776
10.389557
11.357985
10.881961
0.246860
0.251923
11.677913
12.071741
12.074759
2.669961
1.655823
1.639593
2.671043
0.258005
0.258488
1.209979
1.210432
0.284393
0.278144
11.679092
13.439524
5.595549
7.475831
6.849717
0.293500
0.293601
11.945474
11.934975
11.658473
10.389535
11.968274
9.858249
11.277678
0.787526
0.787722
10.933582
9.838971
10.469101
9.285760
0.389062
0.390209
0.262230
0.269153
0.254331
0.257779
0.253065
0.255995
6.846188
3.215519
7.471348
2.673378
4.982581
6.222744
4.374475
6.221967
4.376809
8.722899
9.288690
3.789706
2.158635
2.152007
3.788638
2.159457
0.356946
0.357051
0.781062
0.783014
13.535215
8.748204
8.130394
6.216382
4.953722
4.335728
9.388168
10.374997
10.556189
10.388321
11.524327
11.860808
12.170437
0.583758
0.586497
2.600689
2.601686
0.603283
1.579036
0.615997
11.897695
12.064224
12.070734
11.236826
11.711560
10.840579
11.361084
10.903871
12.004675
10.387941
0.704759
9.879637
0.705056
9.441031
9.239775
8.651769
0.600999
0.277051
0.277205
0.250435
0.250121
0.254072
0.255250
0.307488
0.306709
7.471363
6.850792
7.475257
4.981988
6.219857
8.089136
8.091432
5.598375
5.598620
5.597727
6.846143
4.373400
3.785195
3.215642
4.332944
2.672969
3.216293
2.154761
3.217889
1.675986
1.676668
1.174622
1.177857
1.146719
0.688900
1.147254
0.689041
13.425344
8.761087
6.214265
4.947333
3.727543
4.926833
11.715242
12.271096
12.206765
2.595924
1.072101
12.215930
11.543149
10.822918
9.334908
0.599827
0.597298
0.585998
0.586140
7.492944
6.214180
7.501424
5.580886
3.161021
3.163501
2.069709
2.070460
10.770876
12.070042
10.976830
9.997942
10.850423
12.086942
11.781157
11.498820
8.876335
8.122940
6.856262
1.587257
0.646958
9.447123
9.367200
9.890478
9.930742
0.591190
0.596712
11.774919
0.589058
0.582158
7.490792
8.132805
0.615038
0.614947
8.736385
6.856254
5.578384
4.949907
4.332612
3.150351
4.954859
2.061316
3.731792
3.729587
9.919149
13.407959
1.584595
1.585374
1.124734
1.140489
11.137417
9.899326
9.981194
9.439227
6.215511
8.153068
3.687992
9.367771
11.578054
7.503935
4.923908
11.953802
11.585929
1.007369
0.991254
2.551816
1.999159
1.009593
2.551628
8.141552
5.566078
13.456077
10.884963
1.070327
12.146234
1.527619
0.998861
1.037262
11.418985
10.142427
9.335867
8.727819
10.863967
12.083348
10.808944
12.195957
9.351791
10.994068
0.980845
7.488590
6.864460
0.616008
0.615173
10.443135
0.996070
0.991400
8.121316
5.567881
6.216392
6.853579
5.578444
5.579475
4.334784
4.926695
4.302312
2.592900
2.064728
3.729059
3.147185
3.697337
2.023219
2.024081
1.077716
1.078437
12.001017
11.237933
12.162455
11.242313
12.325368
13.498207
10.902091
9.896231
6.207938
3.693364
9.883634
9.286295
12.227106
12.307205
6.209079
5.555193
11.887226
13.461336
1.499937
1.471822
3.689086
1.440762
1.453187
11.677767
8.140366
7.507229
6.859106
4.288466
11.828338
13.445854
2.519729
2.553267
1.020262
1.021467
11.871225
10.369080
1.020936
12.427803
12.120794
12.306365
12.209826
11.330958
0.991753
8.774077
8.756816
7.493191
8.131555
9.981596
1.007291
10.581279
8.766543
0.992744
6.859198
7.515495
6.856926
5.563922
4.921678
4.298500
5.555503
6.212742
5.564590
3.117034
3.098361
4.299608
11.239716
3.115801
2.535336
10.449598
13.445907
11.258292
1.547134
1.548189
2.546684
2.024295
1.484420
11.199092
13.509454
11.856631
12.305084
12.253674
11.129334
9.710866
13.508449
11.119053
11.272141
12.227234
11.876737
8.167931
12.386380
9.365936
8.145302
6.204260
5.550860
3.657036
6.204750
1.455186
9.857029
10.361879
10.885055
11.252132
1.464658
12.423896
8.125503
7.523782
6.859429
4.276034
3.677593
10.479131
10.380113
11.586609
1.476220
2.001413
1.973865
1.976020
11.446861
12.374963
11.814053
11.821167
12.300814
10.257732
8.767215
12.114392
9.356776
6.869979
6.871568
1.462183
9.346839
1.462354
7.508508
6.206883
4.298186
5.549821
4.883961
8.730809
4.275598
6.208527
3.065819
4.920813
3.102383
12.040391
3.086038
3.674799
3.096636
2.529631
2.019576
1.496118
1.476163
1.477422
12.032463
13.444627
12.207551
13.470028
9.837399
11.274837
10.812577
12.162559
12.522823
12.419336
10.383675
9.335892
8.149292
6.201004
4.897067
4.922278
3.654587
9.349109
6.200331
3.672498
12.090031
9.904416
6.860238
4.904889
3.692361
13.360461
11.620340
10.815721
10.392805
13.530666
12.434216
11.920494
1.979232
11.515477
1.981521
11.564546
2.000821
1.987040
11.545321
12.044360
10.744054
12.333912
8.758956
1.454768
6.865025
8.777283
9.887871
11.246106
6.204823
6.859269
8.741278
1.466630
8.153915
7.524199
7.498664
3.659586
5.545071
4.277479
4.906441
3.072802
2.503132
12.456937
3.120042
2.488093
3.060835
9.731000
11.398039
11.966474
12.297688
13.357294
11.678006
12.547690
12.084645
12.571715
10.381729
8.789228
8.157395
7.526977
6.201033
4.898685
3.652630
9.327867
9.842258
6.858934
5.518021
3.636448
3.682710
12.374666
11.574901
11.632025
10.798167
8.749262
6.857232
6.853323
7.503346
12.544743
12.464152
10.855040
11.185729
12.200922
11.954247
2.049279
2.521401
9.332351
9.872026
10.648962
11.076081
1.973237
1.969651
9.359257
10.387510
7.504186
12.034286
8.767448
4.898829
8.134129
1.980751
3.080762
4.266047
5.542750
2.009751
5.561530
11.834498
4.301212
4.302305
10.223762
2.495280
2.555047
2.517989
12.338085
12.137515
11.753473
11.228113
13.540434
11.860974
13.492326
11.197213
11.577240
12.063669
11.127781
9.996706
8.741790
7.506297
6.222771
9.347230
4.932404
6.699135
5.545404
2.722174
10.820797
12.117538
12.456898
4.253773
3.129326
2.522730
10.999454
10.289344
2.529570
12.418022
12.321873
2.504823
10.803609
9.873709
12.349227
11.999567
11.478470
12.624834
9.373937
11.967616
7.518027
6.867897
8.177942
9.874429
10.788884
1.972275
7.504458
8.746011
4.283931
6.196147
3.047316
5.546679
11.347465
8.772637
4.265645
4.390493
4.835225
2.503235
3.657969
3.090086
3.042464
11.829469
11.868063
12.276915
12.500080
12.299423
11.529215
12.470099
11.587814
11.757699
12.038860
12.580106
12.524720
10.982791
10.801197
9.864543
13.430690
8.103184
6.752374
9.791619
5.593307
4.382146
11.696913
7.502133
7.507831
3.186367
11.026020
6.859779
9.366776
6.176031
5.540085
4.894327
4.280686
4.903213
4.265485
3.650766
9.266935
3.634454
12.140223
10.383439
9.331142
12.048962
12.660938
12.388536
10.373152
8.162840
8.784175
12.680723
8.136142
10.382408
9.908913
8.133167
6.142487
6.869214
5.588636
4.977295
11.867044
12.241354
11.742428
11.189362
3.154314
12.599016
13.453029
3.229874
12.251698
12.206267
4.298091
11.324713
10.588430
12.485553
2.580190
3.093098
12.421664
11.484912
12.172631
11.783035
11.946046
13.377111
12.186315
12.698608
12.662087
10.363579
10.752824
11.484243
8.764113
10.405000
8.142364
13.477119
8.137908
7.514616
12.188416
6.869383
6.242998
10.563082
5.580918
9.325343
9.877869
12.643017
13.427568
11.366882
12.278897
11.171651
8.729720
9.864912
12.407163
9.363521
7.280262
8.755833
12.132343
4.933937
12.378641
6.196397
8.081336
11.951669
12.725803
7.471035
11.792087
12.659453
3.908622
12.243246
6.819296
6.201233
11.501358
12.593793
5.544742
5.706086
11.171039
5.013420
4.907491
3.765511
9.875723
4.319873
10.781752
3.726350
3.158070
10.309128
12.555515
12.238258
10.755281
11.711783
11.701893
11.931093
12.352117
12.727106
12.357076
10.897391
12.426358
10.728651
11.176336
12.555941
12.678016
9.966298
10.326424
11.424613
12.621786
12.755816
12.594382
11.909465
10.280641
12.337430
12.413673
11.725230
9.256784
12.166534
13.524841
8.736745
12.785485
8.168257
12.040439
11.459714
10.819192
11.398860
7.520163
13.402785
13.337084
11.961344
6.867843
10.290058
6.202900
9.313622
11.121145
13.496163
9.743786
11.624263
12.144740
12.527450
12.689587
13.322826
12.106364
12.523147
11.620658
12.545967
11.446554
13.332674
11.495129
12.494212
12.752633
10.764977
10.856549
11.905222
12.730743
13.474484
13.494475
12.134397
11.159881
11.697128
13.438081
10.447148
12.302504
12.811168
12.561766
12.830097
12.645827
12.523024
12.344113
11.974337
11.116187
12.114937
13.407736
11.048388
10.644254
13.286575
12.426449
11.681419
11.268446
8.665477
12.756791
11.407894
12.761030
10.682631
12.454791
12.189450
12.659907
12.795058
13.232012
12.523056
11.471267
11.396750
12.065121
11.236646
11.792713
11.002285
13.302836
12.725793
13.533431
11.120258
12.794927
12.890263
11.756364
12.326895
12.220528
12.409603
12.251000
12.846422
12.540986
11.321528
12.671029
12.581064
13.348455
12.707350
11.909508
13.239155
12.843489
11.060312
13.373201
13.535353
11.883751
11.960771
12.261264
11.219105
13.248099
12.531715
12.424225
11.843661
12.687769
11.680502
12.383724
11.429235
12.089264
12.750427
13.478829
12.032165
12.840329
12.546891
12.775248
12.923045
11.598592
12.881635
12.931270
11.588931
12.355097
12.169473
11.749367
12.874143
13.234273
12.604027
13.263149
13.354372
11.447826
13.537189
12.291577
12.455122
13.208518
11.352941
12.184760
12.674944
12.332391
12.490556
12.400795
12.662616
11.925743
12.950923
13.173330
12.839598
12.740854
11.807361
12.642485
13.305095
12.743119
11.641930
12.253862
12.217886
12.477298
12.909201
11.906609
13.486639
13.006426
12.783736
12.950235
13.120863
12.894660
13.397687
12.122442
12.627788
12.812195
13.419442
13.144048
12.339077
13.275984
11.633315
13.145582
11.720083
12.289185
12.369698
12.580826
12.820162
12.165519
12.277289
12.817883
12.594281
13.045107
11.951218
13.063620
11.899346
13.112140
13.408545
13.321367
13.213590
12.854939
13.029234
12.541520
13.031445
12.627651
12.132703
12.879412
12.980293
12.896610
12.989745
12.023922
12.062855
12.944013
12.908569
11.870008
13.419110
13.210576
13.260998
13.327570
12.313550
12.818387
11.733320
12.695563
12.532204
13.106635
13.013344
12.351097
13.215603
13.325697
12.082927
13.411281
12.142004
13.056364
13.413960
12.502027
13.105752
12.912453
12.665076
12.507927
12.034413
13.049620
12.771781
13.029021
13.199071
12.329836
12.271319
12.965301
12.011757
13.024051
12.944831
13.124162
13.020975
13.284243
12.921301
13.353979
11.953720
13.187573
12.738504
12.945301
13.184514
13.432354
12.680079
12.689684
12.508498
13.144948
12.967336
13.281151
12.935801
12.981350
12.654873
12.355771
12.957569
13.214483
12.164107
13.142412
13.005890
13.202637
13.132096
12.886005
12.242566
13.056283
13.015840
12.681090
13.140580
13.094269
12.531917
13.058251
12.363643
12.242943
12.454582
12.943728
13.304516
13.358774
13.084980
12.832781
12.145362
13.008962
12.634509
13.263042
12.508569
13.279268
12.909491
13.197561
12.293371
12.465886
12.745763
12.590788
13.086285
13.233684
13.155523
13.036197
12.671849
13.150905
12.819514
13.144433
12.830328
12.914479
13.219402
13.168137
12.423312
13.070741
12.790114
13.078946
12.459052
13.318360
12.352235
12.859783
13.002878
13.017040
12.607516
13.052006
12.764836
13.255773
13.124559
13.099043
12.685868
13.274354
12.931642
13.211349
13.370791
13.263946
12.492970
12.856404
12.672471
13.106068
12.841308
12.816989
13.417514
13.135852
13.245056
13.388809
13.179192
12.948612
13.073275
12.403332
13.230666
13.406747
12.947500
12.508307
13.169827
13.301317
13.042418
12.984946
12.697372
13.090863
13.412098
13.307713
12.827704
13.195529
12.782975
13.267249
12.947117
13.256183
13.166224
13.273670
13.408539
12.681828
13.037700
12.587052
12.815214
13.458935
13.324945
12.848788
12.902260
12.679983
13.155193
13.170315
13.325940
13.311639
13.343987
12.866110
13.113593
13.388595
12.941681
13.353549
12.961545
13.250463
13.351186
12.997843
12.759353
13.181702
12.839884
12.977345
13.173405
13.280951
13.180424
13.274757
13.440661
12.521298
12.841865
12.777459
12.969809
13.273070
13.280578
12.858714
13.350610
13.076106
13.366155
13.085421
13.422573
13.402684
13.436305
12.912062
13.069084
13.448734
13.394014
13.225921
12.753162
13.283824
12.971065
13.345359
13.069467
13.142891
13.135429
13.101161
13.486296
13.523561
12.920635
13.430401
13.211206
13.513340
13.002362
13.438312
13.432849
13.386978
13.472630
13.405859
13.383911
13.484381
13.144274
13.331941
12.703759
13.504774
12.982611
13.264811
13.050678
13.411026
13.233310
13.341676
13.465150
13.401879
13.471779
12.874829
13.473986
13.533826
13.271544
12.999822
13.306607
13.148496
13.547601
13.225614
13.347516
13.503422
13.024364
13.067197
13.280571
13.439245
13.364984
13.170172
SCALARS UY float 1
LOOKUP_TABLE default
0.000000
-0.000000
0.000000
-0.000000
0.003852
0.000000
0.000000
0.000000
0.000000
0.000000
0.000000
0.000000
-0.000000
-0.000000
-0.000000
-0.000000
-0.000000
-0.000000
-0.498895
-0.963207
-1.348671
-1.669774
-1.957941
-2.195705
-2.400669
-2.579298
-2.721965
-2.822899
-2.889062
-2.918972
-2.920787
-2.884748
-2.811094
-2.699875
-2.550424
-2.359627
-2.120071
-1.836202
-1.505234
-1.114767
-0.691841
-0.236471
0.240342
0.694591
1.119925
1.505062
1.843593
2.127389
2.364165
2.557358
2.708585
2.820952
2.890136
2.930668
2.933089
2.899042
2.829759
2.725537
2.587677
2.416876
2.200144
1.958929
1.684257
1.355500
0.990996
0.563989
0.000000
0.000000
0.000000
0.000000
0.000000
0.000000
-0.000000
-0.000000
-0.000000
-0.000000
-0.000000
-0.000000
-0.000000
-0.500216
-0.965552
-1.351809
-1.669798
-1.948613
-2.198288
-2.402639
-2.579363
-2.718769
-2.823960
-2.888218
-2.924713
-2.923952
-2.887615
-2.814736
-2.704260
-2.554740
-2.358433
-2.121113
-1.835946
-1.500729
-1.121396
-0.684395
-0.231634
0.239053
0.693646
1.126121
1.507201
1.841694
2.127260
2.364121
2.557141
2.706581
2.818910
2.893485
2.933882
2.929303
2.896631
2.827959
2.724704
2.587838
2.417334
2.200284
1.958906
1.684147
1.355338
0.990840
0.563904
0.007142
0.009429
0.012132
0.014326
0.014842
0.014094
0.015763
0.013013
0.012516
0.009676
0.008758
0.005855
0.004442
-0.002577
-0.003566
-0.003646
-0.006350
-0.005458
-0.004665
-0.004898
-0.003363
-0.003364
-0.001219
0.002826
0.005837
0.008436
0.010907
0.011045
0.013059
0.014135
0.013641
0.012237
0.012548
0.011183
0.007141
0.005636
0.003436
0.001055
-0.000258
-0.001160
-0.004377
-0.006402
-0.007028
-0.005991
-0.004661
-0.003706
-0.000518
0.003018
0.059555
-0.042813
0.043698
-0.009659
0.009253
2.172014
0.009640
2.276176
2.274497
2.266229
-2.176876
-2.263258
-2.055343
-2.358822
-2.166358
-1.867744
1.689770
-1.685139
-1.150513
1.457970
0.002140
0.000498
-0.876581
0.186819
0.202601
1.732668
-1.265574
-1.240364
1.732502
0.117298
0.116828
0.997779
0.997842
-0.166379
-0.162915
0.886167
0.052128
-2.331750
2.333424
2.362877
0.223798
0.223785
-0.519952
0.548796
0.906944
1.690718
-0.496434
1.887120
1.222887
0.676839
0.676890
-1.410143
1.881743
-1.661602
2.045255
-0.347651
-0.346127
-0.113226
-0.115156
-0.073185
-0.074064
0.035543
0.035237
-2.357882
-1.905560
-2.325280
-1.719603
-2.266091
2.367176
2.184157
2.368271
2.183081
-2.150513
-2.044510
2.060108
1.516574
-1.511882
2.060470
1.516464
0.321016
0.321034
-0.690021
-0.690962
0.016726
-1.717654
-1.793282
1.870037
1.792167
1.716423
1.638982
-1.381581
-1.329767
1.404306
0.910989
-0.670397
0.246813
0.000592
0.000893
1.333640
1.333222
-0.230185
-0.938015
-0.332766
0.605721
-0.152494
-0.139546
1.260174
-0.847397
1.498956
-1.162939
-1.457768
0.523271
1.405028
-0.520443
-1.895734
-0.512640
-2.023838
2.059423
2.184061
-0.231718
0.164624
0.164633
-0.034677
-0.034822
0.073313
0.072669
-0.229589
-0.229952
-2.326040
2.365323
2.331103
-2.266178
-2.358252
-2.261683
2.267051
2.334893
2.335719
-2.329549
-2.357560
-2.176727
-2.056828
-1.904781
1.717763
-1.721605
1.909879
-1.506098
1.909698
1.270678
1.270661
-0.954898
-0.952555
0.747868
0.483302
0.747869
0.483360
-0.035217
1.734829
-1.868395
-1.791454
-1.611680
1.378183
-0.790319
0.258492
-0.106909
-1.324750
-0.505729
-0.033006
-0.909534
-1.260806
-1.616633
0.149220
0.149341
-0.069114
-0.072422
1.846520
-1.869420
-1.839227
1.845385
1.485056
1.484002
1.153773
1.153449
1.310853
-0.432553
-1.161445
-1.509428
1.249708
0.385952
0.732081
0.953965
1.735082
1.795844
1.871765
-0.945411
-0.354880
1.620614
-1.650997
-1.566725
1.528985
-0.147855
-0.148487
0.745481
0.071227
0.072099
-1.841635
-1.788657
0.324315
0.324348
-1.716005
1.872528
1.846577
-1.787955
-1.713221
-1.480398
1.792838
-1.144289
1.614426
1.615026
1.514292
0.012099
0.952548
0.952443
-0.728135
-0.727121
1.127397
1.239685
-1.258797
1.315615
1.442263
-1.382479
1.229236
-1.259624
0.777803
1.423093
-1.372841
-0.567988
0.801705
0.222777
-0.107365
1.002201
-0.850376
0.223496
1.001894
-1.379365
1.420583
-0.050494
1.054008
-0.527150
-0.333754
-0.713319
-0.109887
-0.353330
-0.969500
-1.209070
-1.315502
1.389116
1.039519
0.475160
-1.067416
0.174236
1.292783
-0.991487
-0.222808
1.849068
-1.866982
0.232042
0.232021
1.140330
0.108748
0.110137
1.795937
1.419499
1.870651
-1.867838
-1.841100
-1.839690
-1.710517
1.378880
1.312383
-1.323529
-1.140380
-1.608947
-1.480805
1.229371
0.859121
0.859028
0.542176
0.542286
-0.528342
1.079118
-0.255308
-1.104311
0.053376
0.050269
0.858284
-0.996581
1.062996
-1.222754
0.973649
1.033665
0.379520
-0.007580
-1.436992
1.043332
-0.619174
-0.046140
-0.514200
-0.289087
-1.225003
0.300149
0.301552
-0.740784
1.385526
-1.419248
1.441040
0.962377
0.659428
0.047486
0.722787
0.740099
0.345560
0.345992
0.626467
1.156882
-0.385371
0.083292
-0.426539
-0.134741
0.340127
-0.925195
-0.004504
-1.335712
1.352055
1.432128
1.401113
1.191189
-0.223321
-1.105905
-1.351709
0.001954
1.442132
-1.416971
-1.436345
-1.414515
-1.374049
1.313918
1.043589
1.440706
-1.413225
1.126036
-1.120244
-1.308637
0.930962
1.121884
-0.993599
-1.133336
-0.031813
0.919128
0.704532
0.704594
-0.996814
-0.863389
-0.686361
-0.945944
0.049234
-0.673985
-0.147519
-0.283480
-1.156922
-1.318001
-0.042453
-0.789026
0.785356
-0.369888
0.588918
-1.024357
-0.178083
-0.966677
1.030061
0.721233
-1.039400
-0.893356
-1.054598
-0.147103
0.949129
0.930124
-0.881303
0.795537
0.144910
-0.075251
1.049466
-1.054306
1.066721
-0.957153
0.896447
0.915633
-0.948201
-0.774391
-0.340852
-0.632254
0.610321
0.605015
-0.745042
0.237195
-0.603670
0.615456
0.159199
-0.960906
-1.003516
-0.445190
-1.022282
-1.439620
-1.056309
0.143444
1.000859
-0.142282
1.054384
1.061372
-1.308001
-1.039209
0.995288
1.051613
0.959304
-1.434357
-0.810653
1.010738
-1.119254
0.510159
0.816808
0.895876
0.816475
-0.721413
-0.610964
-0.489476
0.504753
0.504534
0.510493
0.034565
-0.296381
-0.035774
-1.031905
0.667945
-0.711810
0.431654
0.100545
0.147828
0.714453
0.742936
0.711263
0.720941
0.680764
0.684041
-0.600107
-0.692506
-0.713445
0.603149
0.474851
-0.744290
0.727805
-1.005393
0.594714
0.060685
-0.616086
0.867486
0.705331
-0.023084
-0.036774
-0.572025
0.340098
-0.713551
-0.429000
0.708492