# vtk DataFile Version 2.0
Test
ASCII
DATASET POLYDATA
POINTS 1818 float
0.000000 0.000000 0.000000
1.000000 0.000000 0.000000
1.000000 1.000000 0.000000
0.000000 1.000000 0.000000
0.300000 0.330000 0.000000
0.700000 0.680000 0.000000
0.058824 0.000000 0.000000
0.117647 0.000000 0.000000
0.176471 0.000000 0.000000
0.235294 0.000000 0.000000
0.294118 0.000000 0.000000
0.352941 0.000000 0.000000
0.411765 0.000000 0.000000
0.470588 0.000000 0.000000
0.529412 0.000000 0.000000
0.588235 0.000000 0.000000
0.647059 0.000000 0.000000
0.705882 0.000000 0.000000
0.764706 0.000000 0.000000
0.823529 0.000000 0.000000
0.882353 0.000000 0.000000
0.941176 0.000000 0.000000
1.000000 0.058824 0.000000
1.000000 0.117647 0.000000
1.000000 0.176471 0.000000
1.000000 0.235294 0.000000
1.000000 0.294118 0.000000
1.000000 0.352941 0.000000
1.000000 0.411765 0.000000
1.000000 0.470588 0.000000
1.000000 0.529412 0.000000
1.000000 0.588235 0.000000
1.000000 0.647059 0.000000
1.000000 0.705882 0.000000
1.000000 0.764706 0.000000
1.000000 0.823529 0.000000
1.000000 0.882353 0.000000
1.000000 0.941176 0.000000
0.941176 1.000000 0.000000
0.882353 1.000000 0.000000
0.823529 1.000000 0.000000
0.764706 1.000000 0.000000
0.705882 1.000000 0.000000
0.647059 1.000000 0.000000
0.588235 1.000000 0.000000
0.529412 1.000000 0.000000
0.470588 1.000000 0.000000
0.411765 1.000000 0.000000
0.352941 1.000000 0.000000
0.294118 1.000000 0.000000
0.235294 1.000000 0.000000
0.176471 1.000000 0.000000
0.117647 1.000000 0.000000
0.058824 1.000000 0.000000
0.000000 0.941176 0.000000
0.000000 0.882353 0.000000
0.000000 0.823529 0.000000
0.000000 0.764706 0.000000
0.000000 0.705882 0.000000
0.000000 0.647059 0.000000
0.000000 0.588235 0.000000
0.000000 0.529412 0.000000
0.000000 0.470588 0.000000
0.000000 0.411765 0.000000
0.000000 0.352941 0.000000
0.000000 0.294118 0.000000
0.000000 0.235294 0.000000
0.000000 0.176471 0.000000
0.000000 0.117647 0.000000
0.000000 0.058824 0.000000
0.305970 0.335224 0.000000
0.311940 0.340448 0.000000
0.317910 0.345672 0.000000
0.323881 0.350896 0.000000
0.329851 0.356119 0.000000
0.335821 0.361343 0.000000
0.341791 0.366567 0.000000
0.347761 0.371791 0.000000
0.353731 0.377015 0.000000
0.359701 0.382239 0.000000
0.365672 0.387463 0.000000
0.371642 0.392687 0.000000
0.377612 0.397910 0.000000
0.383582 0.403134 0.000000
0.389552 0.408358 0.000000
0.395522 0.413582 0.000000
0.401493 0.418806 0.000000
0.407463 0.424030 0.000000
0.413433 0.429254 0.000000
0.419403 0.434478 0.000000
0.425373 0.439701 0.000000
0.431343 0.444925 0.000000
0.437313 0.450149 0.000000
0.443284 0.455373 0.000000
0.449254 0.460597 0.000000
0.455224 0.465821 0.000000
0.461194 0.471045 0.000000
0.467164 0.476269 0.000000
0.473134 0.481493 0.000000
0.479104 0.486716 0.000000
0.485075 0.491940 0.000000
0.491045 0.497164 0.000000
0.497015 0.502388 0.000000
0.502985 0.507612 0.000000
0.508955 0.512836 0.000000
0.514925 0.518060 0.000000
0.520896 0.523284 0.000000
0.526866 0.528507 0.000000
0.532836 0.533731 0.000000
0.538806 0.538955 0.000000
0.544776 0.544179 0.000000
0.550746 0.549403 0.000000
0.556716 0.554627 0.000000
0.562687 0.559851 0.000000
0.568657 0.565075 0.000000
0.574627 0.570299 0.000000
0.580597 0.575522 0.000000
0.586567 0.580746 0.000000
0.592537 0.585970 0.000000
0.598507 0.591194 0.000000
0.604478 0.596418 0.000000
0.610448 0.601642 0.000000
0.616418 0.606866 0.000000
0.622388 0.612090 0.000000
0.628358 0.617313 0.000000
0.634328 0.622537 0.000000
0.640299 0.627761 0.000000
0.646269 0.632985 0.000000
0.652239 0.638209 0.000000
0.658209 0.643433 0.000000
0.664179 0.648657 0.000000
0.670149 0.653881 0.000000
0.676119 0.659104 0.000000
0.682090 0.664328 0.000000
0.688060 0.669552 0.000000
0.694030 0.674776 0.000000
0.516135 0.080917 0.000000
0.549338 0.042552 0.000000
0.567302 0.088709 0.000000
0.555658 0.563778 0.000000
0.559301 0.571359 0.000000
0.552318 0.570919 0.000000
0.603235 0.047100 0.000000
0.446553 0.448087 0.000000
0.438652 0.443189 0.000000
0.445116 0.440368 0.000000
0.437254 0.190586 0.000000
0.465954 0.201747 0.000000
0.439184 0.213838 0.000000
0.453137 0.228102 0.000000
0.522423 0.410182 0.000000
0.522098 0.390982 0.000000
0.537289 0.398500 0.000000
0.453388 0.527105 0.000000
0.462022 0.524948 0.000000
0.461218 0.533993 0.000000
0.324300 0.374550 0.000000
0.319287 0.386214 0.000000
0.314834 0.375138 0.000000
0.668809 0.628853 0.000000
0.677366 0.632907 0.000000
0.668274 0.639611 0.000000
0.469934 0.529282 0.000000
0.439703 0.436699 0.000000
0.446608 0.432083 0.000000
0.542854 0.633425 0.000000
0.535117 0.647070 0.000000
0.524302 0.633157 0.000000
0.519372 0.648877 0.000000
0.586338 0.611293 0.000000
0.591638 0.624149 0.000000
0.575478 0.621479 0.000000
0.437962 0.035513 0.000000
0.421505 0.085456 0.000000
0.394924 0.044162 0.000000
0.445207 0.955749 0.000000
0.429168 0.919510 0.000000
0.464409 0.914226 0.000000
0.317150 0.400904 0.000000
0.328626 0.395860 0.000000
0.439616 0.884412 0.000000
0.330406 0.381773 0.000000
0.676842 0.602700 0.000000
0.674982 0.614185 0.000000
0.665930 0.611798 0.000000
0.414707 0.535036 0.000000
0.420123 0.526072 0.000000
0.425338 0.533771 0.000000
0.398407 0.375558 0.000000
0.393804 0.363255 0.000000
0.407284 0.365452 0.000000
0.407758 0.523337 0.000000
0.899969 0.377867 0.000000
0.945915 0.378245 0.000000
0.914158 0.409130 0.000000
0.358219 0.436142 0.000000
0.361390 0.425428 0.000000
0.369309 0.432300 0.000000
0.465999 0.075074 0.000000
0.269944 0.367761 0.000000
0.266521 0.352125 0.000000
0.283474 0.357667 0.000000
0.385889 0.083020 0.000000
0.359482 0.060981 0.000000
0.279658 0.346766 0.000000
0.363604 0.104040 0.000000
0.511115 0.503731 0.000000
0.503243 0.499914 0.000000
0.509146 0.494910 0.000000
0.513188 0.475753 0.000000
0.504957 0.474656 0.000000
0.511959 0.464784 0.000000
0.311863 0.447505 0.000000
0.293019 0.442078 0.000000
0.305555 0.431691 0.000000
0.499204 0.464990 0.000000
0.293855 0.459576 0.000000
0.396676 0.236328 0.000000
0.371014 0.247362 0.000000
0.373003 0.229199 0.000000
0.384478 0.261522 0.000000
0.555704 0.523331 0.000000
0.551313 0.515879 0.000000
0.562752 0.515269 0.000000
0.554954 0.506854 0.000000
0.804236 0.611103 0.000000
0.819351 0.593503 0.000000
0.832061 0.615776 0.000000
0.509908 0.485173 0.000000
0.129738 0.481190 0.000000
0.110722 0.443736 0.000000
0.154857 0.452634 0.000000
0.089738 0.485299 0.000000
0.396427 0.153886 0.000000
0.393058 0.115469 0.000000
0.420333 0.126587 0.000000
0.442628 0.413512 0.000000
0.434815 0.404283 0.000000
0.446816 0.400259 0.000000
0.499770 0.482873 0.000000
0.353883 0.235057 0.000000
0.351360 0.254011 0.000000
0.332147 0.240870 0.000000
0.112307 0.405527 0.000000
0.140355 0.392788 0.000000
0.142004 0.423465 0.000000
0.334868 0.263052 0.000000
0.551239 0.594093 0.000000
0.560217 0.601969 0.000000
0.546711 0.604614 0.000000
0.398510 0.570197 0.000000
0.387124 0.557316 0.000000
0.399978 0.555748 0.000000
0.705281 0.743146 0.000000
0.722930 0.758853 0.000000
0.697202 0.758074 0.000000
0.380190 0.572638 0.000000
0.278345 0.431947 0.000000
0.292575 0.428097 0.000000
0.470820 0.540616 0.000000
0.478213 0.533042 0.000000
0.480161 0.543190 0.000000
0.415268 0.299334 0.000000
0.412465 0.313515 0.000000
0.400419 0.297680 0.000000
0.396495 0.317117 0.000000
0.718655 0.732879 0.000000
0.709319 0.677587 0.000000
0.715709 0.670111 0.000000
0.719283 0.682820 0.000000
0.212992 0.453899 0.000000
0.184619 0.470046 0.000000
0.186665 0.440862 0.000000
0.452307 0.386568 0.000000
0.460371 0.397715 0.000000
0.478664 0.456068 0.000000
0.476179 0.462123 0.000000
0.471250 0.456445 0.000000
0.464654 0.388544 0.000000
0.483415 0.461045 0.000000
0.357146 0.449596 0.000000
0.344653 0.443966 0.000000
0.554562 0.459423 0.000000
0.543333 0.457517 0.000000
0.553850 0.449505 0.000000
0.543131 0.445036 0.000000
0.347312 0.459318 0.000000
0.781088 0.538918 0.000000
0.810909 0.534152 0.000000
0.799399 0.553968 0.000000
0.402869 0.534333 0.000000
0.408011 0.546121 0.000000
0.703844 0.670118 0.000000
0.552234 0.794299 0.000000
0.528593 0.795589 0.000000
0.539188 0.770312 0.000000
0.596088 0.518714 0.000000
0.593029 0.508081 0.000000
0.604120 0.510731 0.000000
0.384880 0.468703 0.000000
0.382270 0.455963 0.000000
0.394062 0.458803 0.000000
0.374729 0.466839 0.000000
0.340939 0.294790 0.000000
0.324530 0.290188 0.000000
0.338473 0.279923 0.000000
0.465367 0.336545 0.000000
0.477337 0.352846 0.000000
0.459495 0.350024 0.000000
0.584947 0.516440 0.000000
0.326802 0.302636 0.000000
0.945343 0.420397 0.000000
0.779746 0.749037 0.000000
0.771533 0.774140 0.000000
0.758291 0.749848 0.000000
0.743435 0.765852 0.000000
0.751942 0.297541 0.000000
0.784264 0.292048 0.000000
0.772562 0.330207 0.000000
0.812744 0.305799 0.000000
0.655547 0.494535 0.000000
0.649767 0.472522 0.000000
0.671966 0.480244 0.000000
0.612062 0.502007 0.000000
0.616789 0.515227 0.000000
0.403059 0.898561 0.000000
0.391512 0.946883 0.000000
0.625780 0.504699 0.000000
0.635988 0.491275 0.000000
0.596252 0.650380 0.000000
0.583401 0.655132 0.000000
0.583737 0.644777 0.000000
0.713099 0.416502 0.000000
0.708474 0.388943 0.000000
0.733625 0.389568 0.000000
0.684835 0.406222 0.000000
0.656936 0.416423 0.000000
0.633624 0.425116 0.000000
0.634362 0.400237 0.000000
0.646884 0.740682 0.000000
0.654954 0.726002 0.000000
0.663305 0.741855 0.000000
0.732481 0.441235 0.000000
0.751303 0.460839 0.000000
0.721338 0.462235 0.000000
0.759622 0.437863 0.000000
0.462761 0.363156 0.000000
0.373644 0.622389 0.000000
0.346217 0.613642 0.000000
0.370315 0.594521 0.000000
0.351411 0.640635 0.000000
0.695337 0.690220 0.000000
0.705202 0.700133 0.000000
0.692303 0.700990 0.000000
0.521365 0.516400 0.000000
0.522992 0.510597 0.000000
0.527633 0.513574 0.000000
0.291567 0.329512 0.000000
0.294927 0.318154 0.000000
0.365771 0.366553 0.000000
0.366135 0.358691 0.000000
0.374180 0.368122 0.000000
0.408232 0.327056 0.000000
0.423479 0.328280 0.000000
0.411272 0.339740 0.000000
0.664110 0.670607 0.000000
0.667245 0.662649 0.000000
[...]
POINT_DATA 1818
SCALARS UX float 1
LOOKUP_TABLE default
-0.000001
0.000001
0.430001
-1.300593
-0.637894
0.295316
0.000000
-0.000000
-0.000000
-0.000000
-0.000000
-0.000000
-0.000000
-0.000000
-0.000000
-0.000000
0.000000
0.000000
0.000000
0.000000
0.000000
0.000000
0.317200
0.494928
0.634072
0.758286
0.869217
0.970593
1.061877
1.134097
1.178010
1.179565
1.116148
1.008803
0.857036
0.697837
0.558770
0.475852
0.272543
0.137571
0.023618
-0.072599
-0.149071
-0.212116
-0.275298
-0.345526
-0.427827
-0.521273
-0.622078
-0.728542
-0.838474
-0.950458
-1.062749
-1.182131
-1.301838
-1.316815
-1.348458
-1.390147
-1.440623
-1.494164
-1.544196
-1.579041
-1.580814
-1.536471
-1.435128
-1.271591
-1.063696
-0.839648
-0.607549
-0.379776
-0.634283
-0.617340
-0.612931
-0.592601
-0.578441
-0.559021
-0.538678
-0.526985
-0.511433
-0.497631
-0.489479
-0.477801
-0.467464
-0.460659
-0.444181
-0.433984
-0.428893
-0.416367
-0.405399
-0.390176
-0.378728
-0.364860
-0.352627
-0.336895
-0.323241
-0.312585
-0.294901
-0.279196
-0.268885
-0.253064
-0.243015
-0.230632
-0.212713
-0.200300
-0.175727
-0.159101
-0.143324
-0.121647
-0.107556
-0.083015
-0.068041
-0.050686
-0.039702
-0.026716
-0.015901
-0.004887
0.005308
0.019898
0.029657
0.041291
0.058303
0.066783
0.076597
0.091076
0.102345
0.115619
0.130944
0.136328
0.146065
0.174176
0.205894
0.226964
0.244986
0.271234
0.286937
0.283719
-0.017262
-0.007254
0.003669
-0.351971
-0.398052
-0.476838
0.005228
-0.066985
-0.123984
0.014886
-0.062795
-0.030847
-0.056691
-0.033005
0.305371
0.276855
0.309052
-0.844960
-0.820977
-0.826719
-0.920538
-0.994603
-0.968366
0.576177
0.566668
0.517160
-0.800760
-0.013008
0.103490
-0.579905
-0.576973
-0.618827
-0.604376
-0.431688
-0.436481
-0.501227
-0.018528
-0.043371
-0.024980
-0.467710
-0.499370
-0.442722
-1.032208
-0.994798
-0.493271
-0.926604
0.657507
0.619509
0.601196
-0.912456
-0.908860
-0.895900
-0.002717
-0.014284
0.030734
-0.930891
0.850167
0.927794
0.924505
-0.996608
-0.966162
-0.958970
-0.030225
-1.065110
-1.020908
-0.981352
-0.047597
-0.036116
-0.939836
-0.065952
0.090954
0.012471
0.178461
0.326228
0.294769
0.331760
-1.090695
-1.119347
-1.092542
0.287535
-1.122909
-0.110429
-0.153493
-0.145126
-0.125938
0.389650
0.393805
0.447116
0.429596
0.889562
0.921470
0.924332
0.281482
-1.399940
-1.420639
-1.358373
-1.461229
-0.085730
-0.065792
-0.061069
0.138321
0.115244
0.153518
0.210133
-0.177563
-0.193571
-0.219243
-1.379767
-1.321098
-1.359664
-0.236179
-0.576066
-0.548282
-0.595596
-0.903445
-0.933479
-0.916553
0.034880
0.065628
-0.015787
-0.927125
-1.139703
-1.111211
-0.805039
-0.778597
-0.781793
-0.028224
-0.015012
-0.061036
-0.046515
0.118217
0.413422
0.528578
0.452118
-1.264214
-1.311544
-1.305194
0.156557
0.183689
0.206244
0.153132
0.154524
0.182701
0.217577
-1.013620
-1.032943
0.413846
0.394228
0.402061
0.380674
-1.035902
0.843494
0.893415
0.885077
-0.931025
-0.913829
0.423356
-0.342500
-0.386570
-0.387945
0.524173
0.514409
0.534673
-0.973142
-0.966840
-0.939502
-0.991727
-0.237960
-0.295277
-0.240744
0.112019
0.154735
0.122622
0.501207
-0.297094
0.991619
0.335139
0.204278
0.239017
0.123647
0.448433
0.491702
0.540221
0.565823
0.597402
0.564432
0.605580
0.541243
0.557517
-0.550200
-0.557208
0.563812
0.565950
-0.420081
-0.452845
-0.462964
0.582167
0.531924
0.573712
0.522205
0.496647
0.476959
0.439891
-0.150710
-0.127055
-0.102170
0.650310
0.709253
0.660191
0.692334
0.146784
-0.876521
-0.929864
-0.916398
-0.888261
0.153766
0.184596
0.082885
0.038147
0.155822
0.183426
-0.725446
-0.574256
-0.181515
-0.132207
-0.107112
-0.006804
0.027271
0.016235
-0.036237
0.059660
0.078670
-0.995981
-1.009050
-1.025461
-1.032178
-0.112190
-0.175342
-0.252613
0.086886
0.127618
0.158396
0.169415
-0.329711
-0.373329
-0.282644
-0.073606
-0.186269
-0.204467
-0.724994
-0.739733
-0.758776
-0.187316
-0.302948
-0.293945
0.012574
0.019876
0.071616
-0.021713
0.018880
-0.181554
-0.082138
-0.692233
-0.597941
-0.572163
-0.687183
-1.168558
-1.119153
-1.149991
-0.989582
-1.024978
-0.977577
-0.202149
-0.198265
-0.573289
0.495398
0.501098
-1.060576
-1.056275
-1.034464
-0.513778
-1.039385
-0.982047
-0.940969
-0.911146
-0.927492
-0.714479
-0.738137
-0.733991
-0.708380
-0.650627
-0.618702
0.607910
0.598030
0.564758
0.677274
-1.098539
-1.079053
-1.061226
-0.604515
-0.708020
-0.563109
-0.418850
-0.360537
-0.291348
-0.176464
-0.497773
-0.582033
-0.683944
0.591585
0.484103
-0.771762
-0.760576
-0.739067
-0.211157
-0.351229
-0.339968
-0.747830
-0.713649
-0.708097
-0.455960
-0.419672
-0.417225
-0.655545
-0.708431
-0.083444
-0.101614
-0.213338
-0.211263
-0.164340
-0.257481
0.396360
0.393249
0.357483
-1.457768
-1.507349
-1.438612
-1.218557
-1.147327
-1.174660
-1.182818
-0.102713
-0.203257
-0.247365
-0.261894
-0.633676
-0.683277
-0.629162
-0.688714
-0.578281
-0.623408
-0.574008
-0.899064
-0.930493
-0.882721
-0.903290
-0.902099
-0.927882
-0.918955
-0.824447
-0.031582
-0.146274
-0.149373
0.248378
0.204639
0.212870
0.238827
0.702587
0.629570
0.647696
0.742714
0.781728
-0.741765
-0.794216
-0.843587
0.368027
0.380937
0.217724
-0.828655
-0.804306
-0.850930
-0.300992
-0.184765
-0.744949
-0.222836
-0.312618
-0.372501
0.210358
0.235020
0.207283
0.438971
0.458264
0.457874
-0.193193
-0.204708
-0.363785
0.480529
-1.012004
-0.940401
-1.087330
-1.025187
-1.105506
0.164797
0.203271
0.381887
0.400972
0.375233
0.409504
0.376515
-1.476209
-0.230558
-0.191854
-0.233543
-0.191201
-0.986777
-1.057174
-0.917055
0.407190
0.458734
0.522523
-0.163292
0.343137
0.130441
0.414346
0.424649
-0.122199
-0.058007
-0.085554
-1.036928
-1.004958
-1.005546
-0.419572
-0.462003
-1.377013
0.439231
0.463470
0.450276
0.121329
0.123585
-0.487967
-0.484136
-0.433594
0.142689
0.478103
-1.094404
-1.113078
-1.121490
-0.874225
-0.796793
-0.805987
0.130141
0.295770
0.184764
0.270259
0.028352
0.412477
0.433440
-0.658422
-0.505463
-0.542537
-0.038178
-0.000364
-1.106190
-1.087585
-1.065062
-0.019650
0.011414
0.005695
-0.015153
-1.099938
-1.132508
-1.130267
-0.526151
-0.635410
-0.453655
-0.275417
-0.293851
-0.354443
-0.880693
-0.765818
0.373841
-1.024785
-1.112231
0.320841
0.433810
0.462098
-0.833555
0.420913
0.370324
-0.704883
-0.692574
0.703115
0.742047
0.736229
-0.735643
0.354117
0.357385
0.577049
-0.865381
-0.861762
-0.848591
-0.559259
-0.516340
-0.283218
-0.886263
0.180012
0.206134
-0.874090
-0.501362
-0.539769
-0.492071
-0.539967
0.889404
0.826434
0.822176
0.395487
0.298011
0.251335
-0.523679
-0.505935
-0.460956
-0.139895
-0.098069
0.208588
0.024316
0.057756
0.146642
-0.002127
-1.039516
-1.023216
-0.105172
-0.099620
-0.878282
0.540818
0.635112
0.505125
1.054397
0.636088
0.161667
0.180385
0.206005
-1.023209
0.152754
0.048182
0.061094
0.079630
-0.456131
-0.619255
-0.522133
-0.481994
0.439138
-0.843033
-0.752654
-1.051128
-1.072972
-1.057057
-0.830360
-0.805538
-0.815609
-0.819990
0.679397
0.653857
0.703563
-0.789398
-0.041251
0.828568
0.591634
0.583062
0.192633
0.332515
0.181689
0.361636
0.275792
0.407263
-0.049387
-0.742717
-0.177531
-0.826241
-0.903251
-0.992154
-1.055228
0.072603
0.099404
-0.411531
-0.505472
0.344536
-0.129178
-1.361685
-0.177498
-0.958359
-0.926549
-0.881711
-0.195443
0.730591
0.706164
0.691888
0.679697
0.088110
0.045833
-0.397609
-0.384227
-0.346212
0.663466
0.668455
0.646676
0.642921
0.571997
0.615534
-0.854143
-0.874459
0.753952
-1.242346
-1.112822
-1.163407
0.753698
0.721664
0.689321
-0.353377
-0.396066
-0.332280
0.769510
0.871915
0.482156
0.354043
0.412713
0.274505
-0.420098
0.295998
0.285392
0.252698
0.669740
0.759512
0.721732
-0.921744
-0.982153
-1.029783
0.815489
-0.627355
-0.578976
-0.732475
-0.728662
-0.771642
-0.940956
0.108541
0.073352
0.192922
0.966719
1.026275
1.066212
0.914743
0.738252
0.927253
0.855391
-0.283418
-0.275634
-1.291110
-1.134356
-1.175825
-0.307321
0.250136
0.028870
-1.289205
-1.311820
-1.382431
-1.153469
-1.151660
-1.458531
0.206295
0.055552
-0.665371
-0.061937
-0.692238
-0.632403
-0.616097
1.086238
1.135600
-0.144796
-0.140921
-0.080344
0.132424
0.059130
0.192683
0.001082
-0.094027
0.093910
-0.055501
-0.088089
-0.717736
-0.867163
-0.884469
-0.773973
-1.112960
-1.139483
-1.142277
-1.526690
-1.513662
-0.061638
-0.097507
-0.047027
-0.095930
-0.106587
-0.200573
-0.148586
-0.179974
-1.442538
-0.026228
-0.039488
-0.335027
-0.426784
-0.409791
1.094596
1.032061
-1.179194
0.831289
0.797962
0.798088
0.832994
-1.354893
-1.349727
-1.304597
0.874635
-0.028374
0.968076
-0.013830
-0.009586
-0.034676
-0.066306
-0.428962
0.021588
-0.035493
-0.265045
-0.226572
-0.217018
0.453521
0.365943
-0.177227
-0.560283
-0.548471
-0.160992
-0.488183
0.319012
0.384766
0.322594
0.406505
-1.064884
-1.066401
-0.612371
-0.393938
-0.047969
-0.100294
0.130223
0.112287
0.071876
-0.082323
-0.196528
-1.231420
-1.160649
-1.186022
-1.195860
-0.522762
-1.296568
-1.261322
-1.339843
-1.240583
-1.261397
-0.646713
-0.606858
-0.654284
-0.593422
-0.629703
-0.325958
-0.260121
-0.326107
-0.268210
-1.298833
-1.402984
-1.285217
0.288301
0.264928
0.280744
-0.706128
-0.737571
0.062074
0.034028
-1.218617
-1.262960
-1.219265
-1.007941
-0.993052
-0.974891
-0.512053
-0.588669
-1.142907
0.308980
0.142209
0.095171
-0.982836
-0.898059
-0.841046
-0.911965
-1.010915
-1.322998
0.472278
0.397073
-1.011050
-1.003887
-1.048969
-1.039776
0.113540
0.083462
-0.988105
0.685098
-0.172719
-0.047243
0.079237
0.115515
0.060866
-0.423561
0.079842
-0.841455
-0.723776
-0.685778
-0.730171
-0.723620
-1.030084
-1.039943
-1.076194
0.115434
0.093668
-1.090728
0.276553
0.622129
0.615609
-1.485389
-1.415494
-1.416383
-0.443744
-0.482251
-0.493874
-1.056342
1.007333
1.060596
0.997103
0.950218
0.947357
-1.198652
-1.151432
-0.950011
-0.988694
-0.956909
-0.031189
0.396082
0.277956
0.580782
-1.098370
-1.107677
-0.757619
-0.789608
-0.724021
-1.038561
-1.199722
-0.781709
0.246157
0.252474
0.256306
-0.772050
-0.710849
-0.826351
0.699559
0.729892
0.746681
-0.782860
0.928552
0.900920
-1.308006
-0.467000
0.098346
-1.224800
-1.312343
-0.343455
-0.379300
0.569482
0.552688
0.546559
-0.150122
-0.123426
0.592440
-0.125164
0.610647
-1.149210
-1.225159
0.696732
0.738041
0.635093
0.196574
-0.098805
0.820889
0.693114
0.944192
0.643481
-0.244446
-0.270959
-0.217744
-0.238740
0.319924
-0.270668
-0.305138
0.336041
-0.869886
-0.751160
-0.836246
-0.682390
-0.662258
0.220475
0.267384
-0.632421
-0.651273
-0.667221
0.304137
0.286510
0.312223
-0.795500
-0.777557
-0.762928
-1.033618
0.771945
0.803776
0.810460
-1.117008
-1.158320
-1.194705
-0.090470
-0.117384
-0.120740
-1.199561
-0.488290
-0.149861
-0.444976
-0.269048
-1.280492
-1.266580
0.975576
0.270078
0.625205
0.566247
-0.747752
-0.775250
-0.108391
-0.145443
-0.091202
-1.293999
-0.110444
-0.972882
-1.232121
-1.184866
-0.948163
-0.954439
-0.966968
0.664039
0.650285
0.656272
0.694714
0.157460
0.202481
0.157163
0.238357
-1.084650
-0.654408
-0.682187
-1.118978
-0.547713
0.176244
0.149532
0.068544
0.617403
0.471385
0.386885
0.128996
0.036604
-0.238714
-1.110538
-1.090837
-1.071285
-1.232916
-0.336752
-0.139560
-0.346988
-0.221033
-0.367860
0.224385
0.190298
-0.045015
-0.056302
-0.038561
-0.012050
0.634547
0.157041
0.113300
0.086516
-0.008702
0.206175
-0.204705
-0.156236
0.894710
-0.765390
-0.796840
-0.797038
-0.752711
-0.850248
0.845105
0.721558
0.753356
0.682318
0.658682
0.631486
-1.178586
0.070997
0.027875
0.065643
0.058548
0.168873
0.184291
0.193191
1.023099
1.072994
0.781602
-0.960730
-0.964872
-0.289765
-0.327120
0.581214
0.693699
0.635067
0.627070
-0.949319
-0.933817
-0.424639
-0.452211
-0.275162
-1.070647
-1.049796
-0.072030
-1.082949
0.424432
0.433146
0.423096
-0.068658
-0.029179
0.646055
0.575153
-0.739520
-0.781307
-0.726113
-0.767252
-0.707274
-0.714533
0.295591
0.290518
-1.258790
0.254790
0.395387
0.438758
0.881011
0.826540
0.344659
-0.057799
-0.067105
-0.114546
-0.239953
-0.442327
-0.319730
-0.378527
-0.406822
-0.943317
-0.953239
0.764531
0.331610
0.257195
0.294574
0.148636
-0.290771
-0.359488
-0.374463
0.561084
0.480972
0.416912
-0.932829
-0.935375
-0.833863
-0.200264
-0.242233
-0.195712
-0.177859
-0.064984
-0.281873
-0.249093
-0.187076
-0.430416
-0.029788
-0.124556
0.764619
0.800122
0.804699
0.652050
0.768638
0.778559
-0.982205
-0.298414
-0.546662
-0.600735
-0.594425
-0.529792
-0.581871
-0.615301
0.103003
0.563743
0.009550
-0.192511
-0.183528
0.679182
0.683305
0.467812
0.512114
0.490787
-0.780085
-0.885376
0.001727
0.108055
-1.033801
0.701181
0.702735
0.625816
0.590665
-1.018165
-1.074557
-1.067507
0.641225
0.636821
0.382103
0.340818
0.341913
0.342818
0.619789
0.727070
-0.025260
0.514121
0.344542
0.390919
-0.088221
-0.522070
-0.443068
0.811697
0.167064
-0.483522
0.546678
0.624646
-0.316544
-0.373537
-0.509566
-0.561590
-0.525738
-0.643878
0.533580
0.506091
-0.274529
-0.395187
-0.367906
-0.675542
-0.647626
-1.375774
0.540062
0.536071
0.520804
0.526885
0.533644
-0.930823
0.452089
-0.868502
-0.135026
-0.763587
-0.996830
-0.455374
-0.335815
-0.333371
-0.778710
0.016334
-0.934929
-1.260258
-0.087780
-0.038482
-0.125681
-0.918541
-0.828218
-0.680616
0.544059
0.139332
0.121477
-0.645582
-0.311295
0.416966
0.468635
-0.818097
-0.832170
-0.860968
0.285487
-0.673079
0.671083
0.637546
0.084703
-0.507097
-0.549193
-0.578952
-0.716956
-0.692889
-0.231597
-0.029370
0.887580
0.944869
0.266050
-0.281568
0.312777
-0.175306
-0.206428
0.393026
-0.127979
-0.347090
0.853826
-0.149464
-0.910127
-0.910154
0.598255
0.210095
0.257561
0.973138
0.285676
0.053103
-0.070766
-1.189524
-1.160899
-0.201511
-0.253737
-0.883906
-0.935727
-0.892578
0.976773
-0.939941
-0.450601
-0.641733
0.668559
-0.402795
-0.347957
-0.321261
-0.712131
0.001735
-0.061076
0.272398
-0.494834
-0.598855
0.446749
0.478456
0.523910
0.527359
0.497813
0.180479
-1.236490
-0.502447
-0.605382
-0.591123
-0.292915
-0.233646
-0.238227
0.333618
0.360623
-0.260966
-0.356682
0.113911
0.247353
0.383857
0.010020
0.047626
0.048599
0.084159
-0.625137
-0.776851
-0.680644
0.564205
0.554070
0.591140
-0.642876
-0.656684
0.032746
-0.857427
-0.863208
0.053361
0.070607
0.634380
0.042251
-0.967400
-1.055969
-0.967424
-0.766947
0.099782
-0.659918
-0.032789
-0.063264
-1.186476
-1.215972
0.153816
-0.122705
0.055955
-0.676930
0.234642
-0.015324
0.216803
-0.960864
-0.953780
0.305473
-0.760594
-0.991713
-1.004245
-1.082028
-0.888733
-0.679898
-0.545029
-0.505307
0.429424
0.462578
0.473551
-0.814921
-0.768095
-0.055495
-0.059216
-0.865784
-0.849172
-0.888164
-0.305071
-0.274694
-0.635685
-0.835380
0.616316
0.597635
0.012473
-0.906003
-0.910459
-0.966818
-0.914463
-0.905610
-0.008693
0.019720
0.388025
0.218866
-0.608709
-0.568673
-0.709664
-0.007875
0.051428
0.182410
0.164141
-0.889172
0.043048
0.044428
-0.346367
-0.500378
0.102328
0.062795
-0.661291
-0.571980
-0.097937
0.331097
0.319029
0.509114
-0.915673
0.509337
-0.137591
0.752129
0.762839
-0.975106
-0.966640
-0.178003
-0.167505
-0.314115
-0.346501
0.389348
0.598208
0.218550
-0.481681
0.553549
-1.028911
0.464933
0.363467
0.365604
-1.042034
0.606972
0.267183
0.110812
0.422605
0.395216
0.045826
0.279217
-1.120205
-1.076841
-1.013195
-1.130840
0.753450
0.457447
0.494024
0.462981
0.028180
-1.210677
0.804222
-1.012870
-0.893142
-0.847302
0.000246
0.122128
0.042889
0.477527
0.280840
-0.572562
-0.548210
-1.092970
-0.111301
0.287151
0.371737
-1.208070
-1.186868
-0.547424
0.116451
0.289064
0.130703
0.221924
0.369018
0.309295
0.157378
-0.868184
0.283950
-0.957358
-0.323248
0.406344
0.496369
0.421811
0.383943
0.752472
0.515806
-0.888839
-0.823155
-0.802458
0.714974
0.721143
0.024972
0.563359
-0.643986
-0.677192
-0.668989
0.221448
0.251238
0.241558
0.262763
-0.577937
-0.088198
0.697120
0.315531
-0.765574
-0.546431
-1.216531
-0.427098
0.394593
0.556172
0.559022
-0.662833
-0.693324
-1.172701
0.701369
0.668659
-0.640356
-0.323026
0.034875
-0.001982
-0.953977
0.022526
-0.156821
-0.530821
0.728275
0.850391
0.203593
0.107442
0.066645
-0.930323
-0.303543
-0.004773
0.031699
-0.938480
0.854729
-0.951574
0.236027
0.222485
-1.177039
0.477365
0.484641
0.388570
-0.424442
0.410569
0.227633
-0.637586
0.609613
-0.610366
0.051670
-0.013413
0.050372
-0.708977
0.185606
-0.569125
-0.027479
-0.142136
-0.133590
-0.617411
0.870427
0.508527
-0.791351
-0.802268
-0.262995
0.246900
-1.264874
-1.331301
-1.347976
-0.669147
-0.917975
0.446738
-0.688583
0.282050
0.569001
0.574685
-0.097671
-0.607495
-0.664141
-0.772537
0.707658
0.679174
0.310490
0.284470
-0.345656
-0.493127
-1.000054
-1.007922
0.360950
-0.888551
-0.434295
-0.456836
-0.885927
-0.947207
0.395357
0.256183
0.503431
0.427758
-0.515810
0.596346
0.486269
-0.348440
-0.729394
-0.790838
0.467362
0.402819
-0.754857
0.431927
0.191559
-0.954887
0.590302
-0.404517
-1.068889
0.553448
0.538336
-0.386807
-0.375343
-0.808032
-0.924778
0.538315
0.554805
0.568661
-0.132616
0.362398
-0.079169
-0.770692
-1.086952
0.307194
0.339907
-0.783144
-0.845352
0.425140
0.562093
0.017785
0.148701
0.086600
0.565069
0.837684
-0.204878
-0.188439
-0.415424
-0.998799
0.402943
-0.785711
-0.183325
-0.178403
0.034845
0.200298
-0.853086
0.484393
-0.791807
-0.498156
0.566209
-0.716676
-0.549221
-0.639610
-0.868246
-0.257329
-0.163228
-0.840603
0.521754
-0.837761
-0.071232
-0.125827
-0.311784
-0.054609
-0.260345
-0.236798
0.358362
-0.758814
-0.793054
-0.244734
-0.056296
-0.119603
-0.512355
-0.536676
-0.367845
-0.582300
-0.423543
-0.207310
-0.534223
-0.341222
-0.333442
0.051034
-0.719031
0.586850
0.455687
-0.160858
-0.893472
-0.867140
-0.266709
0.178226
0.254557
-0.423844
-0.038277
-0.739499
-0.844785
-0.059339
0.353800
0.443776
0.465732
0.612545
-0.860364
0.247575
-0.778137
-0.641920
-0.804073
0.422963
-0.450215
0.352075
-0.889036
0.236370
0.209172
0.181207
-1.003206
0.004909
-0.422926
-0.533544
-0.019234
-0.429686
-0.876195
0.081755
0.467828
-0.390148
-0.625646
-0.057987
SCALARS UY float 1
LOOKUP_TABLE default
-0.000002
-0.000002
-3.859999
-3.859999
-0.994061
-2.753303
-0.000001
-0.000001
-0.000001
-0.000001
-0.000000
-0.000000
-0.000000
-0.000000
-0.000001
-0.000001
-0.000001
-0.000001
-0.000001
-0.000001
-0.000001
-0.000001
-0.346296
-0.600984
-0.828497
-1.042185
-1.245913
-1.440623
-1.623551
-1.788964
-1.944533
-2.084446
-2.235913
-2.407828
-2.623968
-2.892461
-3.197107
-3.525203
-3.859999
-3.859999
-3.859999
-3.859999
-3.859999
-3.860000
-3.860000
-3.859999
-3.859999
-3.859999
-3.859999
-3.859999
-3.859999
-3.859999
-3.859999
-3.859999
-3.609825
-3.362173
-3.121162
-2.885838
-2.663739
-2.456906
-2.268130
-2.101134
-1.949103
-1.812473
-1.670453
-1.502435
-1.297508
-1.039065
-0.746344
-0.418759
-1.006702
-1.043509
-1.086710
-1.110835
-1.140267
-1.190036
-1.222189
-1.244822
-1.267946
-1.290789
-1.309809
-1.340421
-1.370363
-1.390490
-1.420983
-1.443048
-1.460668
-1.485724
-1.508089
-1.532911
-1.553318
-1.574232
-1.592548
-1.617910
-1.640829
-1.649942
-1.679219
-1.705949
-1.723382
-1.749665
-1.771097
-1.794225
-1.821587
-1.830511
-1.855003
-1.870106
-1.885866
-1.911223
-1.922540
-1.949933
-1.967797
-1.992126
-2.009285
-2.039944
-2.065944
-2.090912
-2.116070
-2.146022
-2.171104
-2.198062
-2.233049
-2.256166
-2.276036
-2.310116
-2.339978
-2.371930
-2.406853
-2.437268
-2.464893
-2.512546
-2.564322
-2.602763
-2.629930
-2.670657
-2.713945
-2.730391
-0.150236
-0.080749
-0.181052
-2.322806
-2.407875
-2.455096
-0.097426
-1.362460
-1.372022
-1.255922
-0.343588
-0.387879
-0.399164
-0.444556
-1.022639
-0.963274
-1.001035
-2.370391
-2.361524
-2.402397
-1.538963
-1.631702
-1.572789
-2.109263
-2.117577
-2.262739
-2.380073
-1.248481
-1.142280
-2.810724
-2.853609
-2.799560
-2.847978
-2.684516
-2.756307
-2.764256
-0.056501
-0.136429
-0.068372
-3.732194
-3.620652
-3.619776
-1.704696
-1.689259
-3.519823
-1.587234
-1.951652
-2.020820
-1.999802
-2.370151
-2.342927
-2.376085
-0.900148
-0.846204
-0.842869
-2.320968
-1.384682
-1.442955
-1.510500
-1.918581
-1.863657
-1.900363
-0.127257
-1.425014
-1.317474
-1.354927
-0.129950
-0.095515
-1.264381
-0.164779
-1.582221
-1.621435
-1.466996
-1.269110
-1.272972
-1.213526
-1.908409
-1.857346
-1.832016
-1.222641
-1.931578
-0.425827
-0.442274
-0.400244
-0.485321
-1.505889
-1.459420
-1.440278
-1.398590
-2.199569
-2.131961
-2.221975
-1.338627
-1.928830
-1.805146
-1.815162
-1.957527
-0.251935
-0.183465
-0.208541
-1.023952
-0.988318
-0.960273
-1.372208
-0.413591
-0.458317
-0.438671
-1.672524
-1.602511