# vtk DataFile Version 2.0
Test
ASCII
DATASET POLYDATA
POINTS 1818 float
0.000000 0.000000 0.000000
1.000000 0.000000 0.000000
1.000000 1.000000 0.000000
0.000000 1.000000 0.000000
0.300000 0.330000 0.000000
0.700000 0.680000 0.000000
0.058824 0.000000 0.000000
0.117647 0.000000 0.000000
0.176471 0.000000 0.000000
0.235294 0.000000 0.000000
0.294118 0.000000 0.000000
0.352941 0.000000 0.000000
0.411765 0.000000 0.000000
0.470588 0.000000 0.000000
0.529412 0.000000 0.000000
0.588235 0.000000 0.000000
0.647059 0.000000 0.000000
0.705882 0.000000 0.000000
0.764706 0.000000 0.000000
0.823529 0.000000 0.000000
0.882353 0.000000 0.000000
0.941176 0.000000 0.000000
1.000000 0.058824 0.000000
1.000000 0.117647 0.000000
1.000000 0.176471 0.000000
1.000000 0.235294 0.000000
1.000000 0.294118 0.000000
1.000000 0.352941 0.000000
1.000000 0.411765 0.000000
1.000000 0.470588 0.000000
1.000000 0.529412 0.000000
1.000000 0.588235 0.000000
1.000000 0.647059 0.000000
1.000000 0.705882 0.000000
1.000000 0.764706 0.000000
1.000000 0.823529 0.000000
1.000000 0.882353 0.000000
1.000000 0.941176 0.000000
0.941176 1.000000 0.000000
0.882353 1.000000 0.000000
0.823529 1.000000 0.000000
0.764706 1.000000 0.000000
0.705882 1.000000 0.000000
0.647059 1.000000 0.000000
0.588235 1.000000 0.000000
0.529412 1.000000 0.000000
0.470588 1.000000 0.000000
0.411765 1.000000 0.000000
0.352941 1.000000 0.000000
0.294118 1.000000 0.000000
0.235294 1.000000 0.000000
0.176471 1.000000 0.000000
0.117647 1.000000 0.000000
0.058824 1.000000 0.000000
0.000000 0.941176 0.000000
0.000000 0.882353 0.000000
0.000000 0.823529 0.000000
0.000000 0.764706 0.000000
0.000000 0.705882 0.000000
0.000000 0.647059 0.000000
0.000000 0.588235 0.000000
0.000000 0.529412 0.000000
0.000000 0.470588 0.000000
0.000000 0.411765 0.000000
0.000000 0.352941 0.000000
0.000000 0.294118 0.000000
0.000000 0.235294 0.000000
0.000000 0.176471 0.000000
0.000000 0.117647 0.000000
0.000000 0.058824 0.000000
0.305970 0.335224 0.000000
0.311940 0.340448 0.000000
0.317910 0.345672 0.000000
0.323881 0.350896 0.000000
0.329851 0.356119 0.000000
0.335821 0.361343 0.000000
0.341791 0.366567 0.000000
0.347761 0.371791 0.000000
0.353731 0.377015 0.000000
0.359701 0.382239 0.000000
0.365672 0.387463 0.000000
0.371642 0.392687 0.000000
0.377612 0.397910 0.000000
0.383582 0.403134 0.000000
0.389552 0.408358 0.000000
0.395522 0.413582 0.000000
0.401493 0.418806 0.000000
0.407463 0.424030 0.000000
0.413433 0.429254 0.000000
0.419403 0.434478 0.000000
0.425373 0.439701 0.000000
0.431343 0.444925 0.000000
0.437313 0.450149 0.000000
0.443284 0.455373 0.000000
0.449254 0.460597 0.000000
0.455224 0.465821 0.000000
0.461194 0.471045 0.000000
0.467164 0.476269 0.000000
0.473134 0.481493 0.000000
0.479104 0.486716 0.000000
0.485075 0.491940 0.000000
0.491045 0.497164 0.000000
0.497015 0.502388 0.000000
0.502985 0.507612 0.000000
0.508955 0.512836 0.000000
0.514925 0.518060 0.000000
0.520896 0.523284 0.000000
0.526866 0.528507 0.000000
0.532836 0.533731 0.000000
0.538806 0.538955 0.000000
0.544776 0.544179 0.000000
0.550746 0.549403 0.000000
0.556716 0.554627 0.000000
0.562687 0.559851 0.000000
0.568657 0.565075 0.000000
0.574627 0.570299 0.000000
0.580597 0.575522 0.000000
0.586567 0.580746 0.000000
0.592537 0.585970 0.000000
0.598507 0.591194 0.000000
0.604478 0.596418 0.000000
0.610448 0.601642 0.000000
0.616418 0.606866 0.000000
0.622388 0.612090 0.000000
0.628358 0.617313 0.000000
0.634328 0.622537 0.000000
0.640299 0.627761 0.000000
0.646269 0.632985 0.000000
0.652239 0.638209 0.000000
0.658209 0.643433 0.000000
0.664179 0.648657 0.000000
0.670149 0.653881 0.000000
0.676119 0.659104 0.000000
0.682090 0.664328 0.000000
0.688060 0.669552 0.000000
0.694030 0.674776 0.000000
0.516135 0.080917 0.000000
0.549338 0.042552 0.000000
0.567302 0.088709 0.000000
0.555658 0.563778 0.000000
0.559301 0.571359 0.000000
0.552318 0.570919 0.000000
0.603235 0.047100 0.000000
0.446553 0.448087 0.000000
0.438652 0.443189 0.000000
0.445116 0.440368 0.000000
0.437254 0.190586 0.000000
0.465954 0.201747 0.000000
0.439184 0.213838 0.000000
0.453137 0.228102 0.000000
0.522423 0.410182 0.000000
0.522098 0.390982 0.000000
0.537289 0.398500 0.000000
0.453388 0.527105 0.000000
0.462022 0.524948 0.000000
0.461218 0.533993 0.000000
0.324300 0.374550 0.000000
0.319287 0.386214 0.000000
0.314834 0.375138 0.000000
0.668809 0.628853 0.000000
0.677366 0.632907 0.000000
0.668274 0.639611 0.000000
0.469934 0.529282 0.000000
0.439703 0.436699 0.000000
0.446608 0.432083 0.000000
0.542854 0.633425 0.000000
0.535117 0.647070 0.000000
0.524302 0.633157 0.000000
0.519372 0.648877 0.000000
0.586338 0.611293 0.000000
0.591638 0.624149 0.000000
0.575478 0.621479 0.000000
0.437962 0.035513 0.000000
0.421505 0.085456 0.000000
0.394924 0.044162 0.000000
0.445207 0.955749 0.000000
0.429168 0.919510 0.000000
0.464409 0.914226 0.000000
0.317150 0.400904 0.000000
0.328626 0.395860 0.000000
0.439616 0.884412 0.000000
0.330406 0.381773 0.000000
0.676842 0.602700 0.000000
0.674982 0.614185 0.000000
0.665930 0.611798 0.000000
0.414707 0.535036 0.000000
0.420123 0.526072 0.000000
0.425338 0.533771 0.000000
0.398407 0.375558 0.000000
0.393804 0.363255 0.000000
0.407284 0.365452 0.000000
0.407758 0.523337 0.000000
0.899969 0.377867 0.000000
0.945915 0.378245 0.000000
0.914158 0.409130 0.000000
0.358219 0.436142 0.000000
0.361390 0.425428 0.000000
0.369309 0.432300 0.000000
0.465999 0.075074 0.000000
0.269944 0.367761 0.000000
0.266521 0.352125 0.000000
0.283474 0.357667 0.000000
0.385889 0.083020 0.000000
0.359482 0.060981 0.000000
0.279658 0.346766 0.000000
0.363604 0.104040 0.000000
0.511115 0.503731 0.000000
0.503243 0.499914 0.000000
0.509146 0.494910 0.000000
0.513188 0.475753 0.000000
0.504957 0.474656 0.000000
0.511959 0.464784 0.000000
0.311863 0.447505 0.000000
0.293019 0.442078 0.000000
0.305555 0.431691 0.000000
0.499204 0.464990 0.000000
0.293855 0.459576 0.000000
0.396676 0.236328 0.000000
0.371014 0.247362 0.000000
0.373003 0.229199 0.000000
0.384478 0.261522 0.000000
0.555704 0.523331 0.000000
0.551313 0.515879 0.000000
0.562752 0.515269 0.000000
0.554954 0.506854 0.000000
0.804236 0.611103 0.000000
0.819351 0.593503 0.000000
0.832061 0.615776 0.000000
0.509908 0.485173 0.000000
0.129738 0.481190 0.000000
0.110722 0.443736 0.000000
0.154857 0.452634 0.000000
0.089738 0.485299 0.000000
0.396427 0.153886 0.000000
0.393058 0.115469 0.000000
0.420333 0.126587 0.000000
0.442628 0.413512 0.000000
0.434815 0.404283 0.000000
0.446816 0.400259 0.000000
0.499770 0.482873 0.000000
0.353883 0.235057 0.000000
0.351360 0.254011 0.000000
0.332147 0.240870 0.000000
0.112307 0.405527 0.000000
0.140355 0.392788 0.000000
0.142004 0.423465 0.000000
0.334868 0.263052 0.000000
0.551239 0.594093 0.000000
0.560217 0.601969 0.000000
0.546711 0.604614 0.000000
0.398510 0.570197 0.000000
0.387124 0.557316 0.000000
0.399978 0.555748 0.000000
0.705281 0.743146 0.000000
0.722930 0.758853 0.000000
0.697202 0.758074 0.000000
0.380190 0.572638 0.000000
0.278345 0.431947 0.000000
0.292575 0.428097 0.000000
0.470820 0.540616 0.000000
0.478213 0.533042 0.000000
0.480161 0.543190 0.000000
0.415268 0.299334 0.000000
0.412465 0.313515 0.000000
0.400419 0.297680 0.000000
0.396495 0.317117 0.000000
0.718655 0.732879 0.000000
0.709319 0.677587 0.000000
0.715709 0.670111 0.000000
0.719283 0.682820 0.000000
0.212992 0.453899 0.000000
0.184619 0.470046 0.000000
0.186665 0.440862 0.000000
0.452307 0.386568 0.000000
0.460371 0.397715 0.000000
0.478664 0.456068 0.000000
0.476179 0.462123 0.000000
0.471250 0.456445 0.000000
0.464654 0.388544 0.000000
0.483415 0.461045 0.000000
0.357146 0.449596 0.000000
0.344653 0.443966 0.000000
0.554562 0.459423 0.000000
0.543333 0.457517 0.000000
0.553850 0.449505 0.000000
0.543131 0.445036 0.000000
0.347312 0.459318 0.000000
0.781088 0.538918 0.000000
0.810909 0.534152 0.000000
0.799399 0.553968 0.000000
0.402869 0.534333 0.000000
0.408011 0.546121 0.000000
0.703844 0.670118 0.000000
0.552234 0.794299 0.000000
0.528593 0.795589 0.000000
0.539188 0.770312 0.000000
0.596088 0.518714 0.000000
0.593029 0.508081 0.000000
0.604120 0.510731 0.000000
0.384880 0.468703 0.000000
0.382270 0.455963 0.000000
0.394062 0.458803 0.000000
0.374729 0.466839 0.000000
0.340939 0.294790 0.000000
0.324530 0.290188 0.000000
0.338473 0.279923 0.000000
0.465367 0.336545 0.000000
0.477337 0.352846 0.000000
0.459495 0.350024 0.000000
0.584947 0.516440 0.000000
0.326802 0.302636 0.000000
0.945343 0.420397 0.000000
0.779746 0.749037 0.000000
0.771533 0.774140 0.000000
0.758291 0.749848 0.000000
0.743435 0.765852 0.000000
0.751942 0.297541 0.000000
0.784264 0.292048 0.000000
0.772562 0.330207 0.000000
0.812744 0.305799 0.000000
0.655547 0.494535 0.000000
0.649767 0.472522 0.000000
0.671966 0.480244 0.000000
0.612062 0.502007 0.000000
0.616789 0.515227 0.000000
0.403059 0.898561 0.000000
0.391512 0.946883 0.000000
0.625780 0.504699 0.000000
0.635988 0.491275 0.000000
0.596252 0.650380 0.000000
0.583401 0.655132 0.000000
0.583737 0.644777 0.000000
0.713099 0.416502 0.000000
0.708474 0.388943 0.000000
0.733625 0.389568 0.000000
0.684835 0.406222 0.000000
0.656936 0.416423 0.000000
0.633624 0.425116 0.000000
0.634362 0.400237 0.000000
0.646884 0.740682 0.000000
0.654954 0.726002 0.000000
0.663305 0.741855 0.000000
0.732481 0.441235 0.000000
0.751303 0.460839 0.000000
0.721338 0.462235 0.000000
0.759622 0.437863 0.000000
0.462761 0.363156 0.000000
0.373644 0.622389 0.000000
0.346217 0.613642 0.000000
0.370315 0.594521 0.000000
0.351411 0.640635 0.000000
0.695337 0.690220 0.000000
0.705202 0.700133 0.000000
0.692303 0.700990 0.000000
0.521365 0.516400 0.000000
0.522992 0.510597 0.000000
0.527633 0.513574 0.000000
0.291567 0.329512 0.000000
0.294927 0.318154 0.000000
0.365771 0.366553 0.000000
0.366135 0.358691 0.000000
0.374180 0.368122 0.000000
0.408232 0.327056 0.000000
0.423479 0.328280 0.000000
0.411272 0.339740 0.000000
0.664110 0.670607 0.000000
0.667245 0.662649 0.000000
[...]
POINT_DATA 1818
SCALARS UX float 1
LOOKUP_TABLE default
-0.000000
0.000000
0.054632
-0.128015
-0.071403
0.043386
0.000000
-0.000000
-0.000000
-0.000000
-0.000000
-0.000000
-0.000000
-0.000000
-0.000000
-0.000000
0.000000
0.000000
0.000000
0.000000
0.000000
0.000000
0.035372
0.055773
0.072077
0.086718
0.100056
0.112422
0.123698
0.132758
0.138259
0.138321
0.130057
0.116178
0.097748
0.080099
0.066003
0.058201
0.039836
0.026422
0.014288
0.003604
-0.005018
-0.012055
-0.018998
-0.026665
-0.035603
-0.045683
-0.056508
-0.067911
-0.079633
-0.091499
-0.103315
-0.115766
-0.129048
-0.131781
-0.136547
-0.142700
-0.150009
-0.157767
-0.165150
-0.170659
-0.172015
-0.167376
-0.155224
-0.135430
-0.111165
-0.086355
-0.061901
-0.037941
-0.070808
-0.068443
-0.067970
-0.065506
-0.063787
-0.061406
-0.058872
-0.057386
-0.055429
-0.053683
-0.052628
-0.051147
-0.049843
-0.048976
-0.046916
-0.045627
-0.044962
-0.043393
-0.042026
-0.040129
-0.038695
-0.036975
-0.035454
-0.033509
-0.031812
-0.030487
-0.028326
-0.026401
-0.025134
-0.023208
-0.021980
-0.020472
-0.018297
-0.016783
-0.013794
-0.011781
-0.009864
-0.007237
-0.005541
-0.002581
-0.000782
0.001302
0.002626
0.004174
0.005464
0.006783
0.007992
0.009730
0.010890
0.012260
0.014281
0.015283
0.016464
0.018207
0.019519
0.021115
0.022940
0.023466
0.024440
0.027597
0.031299
0.033621
0.035334
0.036392
0.039211
0.040975
-0.001788
-0.000777
0.000755
-0.034435
-0.039668
-0.048791
0.000741
-0.001131
-0.007984
0.008425
-0.006118
-0.002124
-0.005122
-0.002087
0.041468
0.037751
0.041597
-0.091523
-0.088905
-0.089313
-0.103337
-0.111202
-0.108522
0.072885
0.071467
0.067690
-0.086533
0.005085
0.018700
-0.058913
-0.058179
-0.063298
-0.061204
-0.042751
-0.042943
-0.050362
-0.002130
-0.004855
-0.002854
-0.040203
-0.043920
-0.037810
-0.114991
-0.111072
-0.043599
-0.103882
0.082486
0.079375
0.077131
-0.098733
-0.098605
-0.096965
0.004954
0.003206
0.008530
-0.101089
0.099612
0.108153
0.108398
-0.110454
-0.107336
-0.106417
-0.003355
-0.118690
-0.113928
-0.109840
-0.005374
-0.004119
-0.105372
-0.007457
0.017985
0.008643
0.028189
0.045132
0.041520
0.045588
-0.120255
-0.123381
-0.120799
0.040533
-0.123344
-0.011349
-0.016387
-0.015630
-0.012847
0.052892
0.053294
0.059338
0.057262
0.107813
0.111080
0.111111
0.040135
-0.151948
-0.154600
-0.147995
-0.158410
-0.009293
-0.007316
-0.006637
0.022344
0.019440
0.023770
0.031838
-0.019452
-0.021102
-0.024348
-0.150308
-0.144047
-0.148299
-0.026030
-0.059584
-0.056230
-0.061506
-0.096638
-0.100297
-0.098524
0.014517
0.017967
0.008836
-0.099107
-0.125735
-0.122826
-0.086724
-0.083955
-0.084062
-0.000320
0.001610
-0.004304
-0.002053
0.023820
0.058897
0.070948
0.062578
-0.138182
-0.142835
-0.142582
0.023775
0.027199
0.031038
0.024955
0.025053
0.026856
0.032425
-0.112004
-0.114211
0.054800
0.052558
0.053274
0.050778
-0.114166
0.102726
0.107784
0.107208
-0.100769
-0.098540
0.060544
-0.028383
-0.033328
-0.033855
0.068051
0.066841
0.069130
-0.107155
-0.106763
-0.103682
-0.109225
-0.025555
-0.032487
-0.026252
0.017283
0.022698
0.018865
0.065455
-0.032371
0.116022
0.046754
0.032853
0.036774
0.024308
0.054289
0.058892
0.065020
0.067216
0.075683
0.071618
0.076219
0.069726
0.071722
-0.049628
-0.049951
0.072251
0.072219
-0.040309
-0.043893
-0.045347
0.072083
0.065948
0.070494
0.065329
0.062825
0.060919
0.056205
-0.007169
-0.004780
-0.001356
0.080031
0.086826
0.081610
0.084466
0.022032
-0.091992
-0.098042
-0.097224
-0.092674
0.027079
0.031146
0.019278
0.011752
0.025596
0.028858
-0.081577
-0.064246
-0.016225
-0.010692
-0.007421
0.002959
0.007039
0.006056
0.003511
0.014644
0.015817
-0.109284
-0.110157
-0.112334
-0.112516
-0.005343
-0.012497
-0.021340
0.017548
0.017697
0.021273
0.022971
-0.034460
-0.039834
-0.029427
-0.002519
-0.015712
-0.017974
-0.076427
-0.077780
-0.080384
-0.016312
-0.030054
-0.029050
0.004862
0.012931
0.018638
0.008370
0.012898
-0.020139
-0.005036
-0.074300
-0.063556
-0.060503
-0.073904
-0.129139
-0.124175
-0.127262
-0.110731
-0.114421
-0.109395
-0.017915
-0.017329
-0.057247
0.064695
0.065237
-0.114890
-0.115000
-0.112180
-0.056886
-0.104005
-0.098280
-0.092900
-0.090241
-0.104143
-0.076074
-0.078601
-0.078381
-0.075125
-0.071424
-0.067587
0.078801
0.079266
0.071399
0.085286
-0.120569
-0.118711
-0.117205
-0.067612
-0.078836
-0.062935
-0.046173
-0.039721
-0.032802
-0.020414
-0.054904
-0.062962
-0.074061
0.077236
0.065069
-0.086209
-0.082142
-0.079607
-0.017289
-0.033255
-0.032167
-0.080397
-0.079201
-0.078667
-0.042475
-0.038564
-0.037909
-0.071684
-0.077797
-0.006802
-0.009304
-0.021628
-0.021949
-0.016198
-0.027355
0.051721
0.051622
0.047176
-0.154492
-0.161567
-0.153587
-0.125779
-0.117612
-0.119982
-0.122494
-0.004021
-0.015334
-0.022021
-0.023698
-0.066994
-0.072575
-0.066641
-0.073388
-0.060666
-0.065675
-0.060066
-0.099066
-0.102541
-0.097410
-0.099336
-0.099024
-0.101885
-0.100697
-0.088781
0.002754
-0.010727
-0.011152
0.032804
0.027556
0.028320
0.031975
0.083028
0.074962
0.076461
0.086968
0.092204
-0.083173
-0.089478
-0.094507
0.050504
0.051999
0.033004
-0.090423
-0.087562
-0.092666
-0.027030
-0.013786
-0.081039
-0.018287
-0.028675
-0.035106
0.030225
0.033370
0.030138
0.058219
0.060359
0.060443
-0.020513
-0.022162
-0.033688
0.062927
-0.102470
-0.094270
-0.111268
-0.104815
-0.114246
0.022753
0.027656
0.051292
0.053634
0.050706
0.054451
0.049773
-0.160468
-0.015160
-0.010645
-0.015111
-0.010827
-0.109328
-0.116427
-0.100870
0.055007
0.060916
0.068129
-0.017229
0.045697
0.024932
0.055265
0.056305
-0.005602
0.001770
-0.000438
-0.114946
-0.111782
-0.111588
-0.039734
-0.044653
-0.145494
0.057369
0.060280
0.058907
0.019791
0.019660
-0.045253
-0.045362
-0.039050
0.021807
0.062186
-0.119628
-0.121314
-0.122685
-0.096654
-0.087784
-0.088727
0.022669
0.042038
0.029107
0.039052
0.010514
0.055903
0.058118
-0.071210
-0.053333
-0.057650
0.000099
0.004424
-0.119559
-0.117810
-0.114701
0.001661
0.002570
0.002322
-0.000561
-0.118270
-0.121560
-0.121945
-0.058833
-0.071149
-0.050797
-0.030723
-0.032598
-0.039646
-0.084570
-0.072343
0.050963
-0.112289
-0.121888
0.044957
0.057199
0.060517
-0.080010
0.055426
0.049730
-0.074359
-0.072631
0.086647
0.090855
0.090557
-0.077991
0.047986
0.048592
0.072700
-0.093731
-0.093605
-0.091585
-0.059863
-0.054752
-0.031256
-0.096495
0.027045
0.030307
-0.095404
-0.049241
-0.054025
-0.048536
-0.053586
0.106230
0.099804
0.098425
0.053626
0.042313
0.036864
-0.048228
-0.046885
-0.041264
-0.014113
-0.009209
0.031791
0.010093
0.013847
0.024245
0.000302
-0.115436
-0.113884
-0.005582
-0.004947
-0.098636
0.069619
0.079309
0.064986
0.123496
0.078588
0.020787
0.022722
0.026101
-0.114268
0.025156
0.009957
0.011271
0.013842
-0.047366
-0.066523
-0.052355
-0.047788
0.058615
-0.094860
-0.084649
-0.115501
-0.117701
-0.116425
-0.089149
-0.086218
-0.087137
-0.091040
0.088444
0.084726
0.090031
-0.084074
-0.003663
0.096116
0.075362
0.074607
0.030033
0.046351
0.028743
0.049718
0.039801
0.054962
0.000095
-0.081998
-0.013454
-0.091939
-0.101498
-0.101857
-0.109041
0.012245
0.015411
-0.044994
-0.055626
0.047311
-0.004268
-0.144988
-0.009988
-0.098957
-0.094358
-0.089794
-0.012507
0.091098
0.088625
0.086836
0.085751
0.014539
0.009090
-0.036422
-0.035247
-0.030499
0.083209
0.084035
0.081481
0.081275
0.065445
0.071093
-0.084220
-0.087140
0.086933
-0.125127
-0.111352
-0.115703
0.094545
0.090880
0.087953
-0.028601
-0.033988
-0.026902
0.095605
0.102766
0.055930
0.041737
0.047721
0.032419
-0.036076
0.039484
0.038489
0.034267
0.083802
0.093797
0.088843
-0.089575
-0.095467
-0.101413
0.099283
-0.068106
-0.062336
-0.080218
-0.076284
-0.081999
-0.099067
0.013386
0.009080
0.023401
0.113482
0.121073
0.124657
0.108640
0.086981
0.107978
0.098927
-0.021600
-0.020360
-0.138704
-0.120533
-0.126243
-0.023630
0.032683
0.006653
-0.139447
-0.142713
-0.150213
-0.126254
-0.126557
-0.158531
0.027231
0.009785
-0.061648
-0.006373
-0.066506
-0.060081
-0.057678
0.127672
0.133569
-0.004897
-0.004757
0.002098
0.024988
0.017223
0.030868
0.011366
0.000841
0.021372
-0.002707
-0.006996
-0.078262
-0.094127
-0.095442
-0.084783
-0.120880
-0.123522
-0.124472
-0.165680
-0.164746
-0.007065
-0.011034
-0.005473
-0.011052
-0.012418
-0.013882
-0.007901
-0.011106
-0.156941
-0.003005
-0.004709
-0.031969
-0.042410
-0.040671
0.128881
0.122288
-0.128215
0.102197
0.098992
0.098732
0.102429
-0.146564
-0.146671
-0.141518
0.106488
-0.002879
0.115345
0.009131
-0.000292
-0.002037
-0.006002
-0.043151
0.002752
-0.003359
-0.020167
-0.015904
-0.014388
0.058802
0.050638
-0.018215
-0.051812
-0.049954
-0.007653
-0.049416
0.038922
0.046819
0.039834
0.048923
-0.118173
-0.118040
-0.056677
-0.032665
-0.005911
-0.011792
0.016650
0.014737
0.009504
-0.010072
-0.022702
-0.130332
-0.122309
-0.124057
-0.127218
-0.051085
-0.139917
-0.134919
-0.143834
-0.133589
-0.136595
-0.066943
-0.062390
-0.063210
-0.056235
-0.065318
-0.036633
-0.029196
-0.026797
-0.020227
-0.135552
-0.147246
-0.135460
0.039904
0.037038
0.038698
-0.073563
-0.077155
0.012006
0.008510
-0.132302
-0.137454
-0.133038
-0.109382
-0.108109
-0.105652
-0.056724
-0.065147
-0.121266
0.042224
0.018838
0.013021
-0.106012
-0.093141
-0.085980
-0.094182
-0.109231
-0.144483
0.057696
0.048812
-0.106554
-0.104985
-0.110380
-0.108326
0.015689
0.012176
-0.107982
0.079619
-0.014010
0.000699
0.011389
0.016451
0.009631
-0.042402
0.012266
-0.086705
-0.074800
-0.069853
-0.075157
-0.073859
-0.109991
-0.110495
-0.115137
0.018281
0.015911
-0.115980
0.039912
0.078745
0.078267
-0.160095
-0.152778
-0.151927
-0.041763
-0.046020
-0.047879
-0.115169
0.119083
0.125220
0.118513
0.113148
0.113363
-0.131344
-0.125535
-0.099664
-0.104756
-0.099807
0.007608
0.052314
0.040404
0.071756
-0.115662
-0.115571
-0.072828
-0.076773
-0.069591
-0.112582
-0.130005
-0.076586
0.033927
0.035015
0.034989
-0.083795
-0.077014
-0.089744
0.088847
0.091874
0.093887
-0.087939
0.111651
0.108988
-0.142875
-0.044907
0.018903
-0.124503
-0.133715
-0.027002
-0.030595
0.073215
0.071349
0.070595
-0.014042
-0.011160
0.075797
-0.011832
0.077908
-0.126565
-0.134526
0.089431
0.093201
0.080610
0.025529
-0.007841
0.100661
0.087116
0.113361
0.082391
-0.018923
-0.022231
-0.016197
-0.018841
0.042634
-0.019399
-0.022965
0.045077
-0.084491
-0.071459
-0.081473
-0.071110
-0.069080
0.030078
0.035735
-0.064560
-0.066612
-0.068944
0.042112
0.039925
0.042871
-0.084004
-0.082261
-0.080171
-0.111472
0.096587
0.099618
0.100116
-0.123894
-0.127945
-0.131697
-0.009561
-0.012902
-0.012941
-0.131975
-0.043654
-0.016445
-0.038451
-0.018887
-0.140200
-0.138743
0.116555
0.038175
0.075170
0.068862
-0.078019
-0.081314
-0.001513
-0.005639
-0.010129
-0.137656
-0.001909
-0.105939
-0.135427
-0.130602
-0.103608
-0.103989
-0.105674
0.083804
0.082437
0.083163
0.086729
0.019532
0.025017
0.019698
0.029590
-0.120558
-0.066554
-0.070298
-0.124125
-0.057103
0.027148
0.025433
0.014492
0.072769
0.057977
0.050076
0.018429
0.012850
-0.016303
-0.123044
-0.120875
-0.119085
-0.135355
-0.035486
-0.015259
-0.038396
-0.014510
-0.040497
0.030979
0.026568
-0.004810
-0.004100
-0.002228
0.001446
0.082011
0.019316
0.014105
0.010742
0.008563
0.025289
-0.022948
-0.017417
0.107509
-0.077062
-0.079802
-0.081153
-0.074005
-0.085147
0.102435
0.090614
0.094022
0.086209
0.083111
0.079908
-0.129618
0.013499
0.003674
0.008288
0.007579
0.024967
0.026563
0.027924
0.121445
0.126701
0.095409
-0.102108
-0.103305
-0.024030
-0.028711
0.074619
0.084101
0.077805
0.076234
-0.104059
-0.102151
-0.047296
-0.050138
-0.023626
-0.116926
-0.114895
0.002375
-0.117787
0.054919
0.056177
0.055195
0.002342
0.006581
0.083792
0.076749
-0.074525
-0.079839
-0.073485
-0.078801
-0.070380
-0.070450
0.038348
0.038179
-0.137333
0.032865
0.051197
0.056432
0.105839
0.099178
0.045320
0.004276
0.003367
-0.002043
-0.017979
-0.039613
-0.036124
-0.042652
-0.045762
-0.101879
-0.103454
0.095489
0.041819
0.032447
0.037870
0.023435
-0.024804
-0.031616
-0.033046
0.070893
0.060872
0.055528
-0.104223
-0.104584
-0.093122
-0.011320
-0.027394
-0.022349
-0.020113
0.003344
-0.032028
-0.028459
-0.021596
-0.040607
0.007116
-0.013967
0.094488
0.097966
0.098978
0.082662
0.095346
0.094399
-0.108741
-0.021793
-0.052897
-0.058989
-0.058723
-0.050458
-0.056294
-0.064015
0.013145
0.070269
0.011880
-0.010253
-0.009059
0.086398
0.085821
0.059048
0.066121
0.063899
-0.087661
-0.099323
0.007777
0.013586
-0.113608
0.088887
0.088894
0.079491
0.075819
-0.112240
-0.113129
-0.118849
0.080171
0.080083
0.049181
0.044428
0.044140
0.043802
0.077379
0.084802
0.004701
0.066907
0.047803
0.053049
-0.008351
-0.053626
-0.043302
0.096861
0.023375
-0.049086
0.070800
0.079533
-0.026205
-0.032593
-0.048840
-0.055128
-0.051085
-0.062765
0.069219
0.066104
-0.027385
-0.041643
-0.038490
-0.067106
-0.067675
-0.148925
0.069359
0.068635
0.067385
0.067263
0.067616
-0.101529
0.060142
-0.097620
-0.008532
-0.081299
-0.110037
-0.046485
-0.032617
-0.032277
-0.087536
0.008465
-0.104884
-0.137950
-0.004289
0.002930
-0.006329
-0.102919
-0.092645
-0.075543
0.070033
0.020491
0.017984
-0.070623
-0.029024
0.056624
0.068633
-0.085247
-0.086314
-0.090724
0.040685
-0.073549
0.084896
0.080812
0.013244
-0.052151
-0.057059
-0.060194
-0.074415
-0.071215
-0.023184
0.004026
0.105232
0.111967
0.038699
-0.029771
0.044183
-0.015915
-0.019317
0.053374
-0.010589
-0.039279
0.104286
-0.009132
-0.101073
-0.101198
0.076561
0.031669
0.037028
0.116294
0.040145
0.013339
-0.001415
-0.127916
-0.124063
-0.014814
-0.020884
-0.097882
-0.103576
-0.098939
0.114944
-0.104206
-0.046417
-0.068431
0.083455
-0.038797
-0.037342
-0.034723
-0.076316
0.005798
-0.001474
0.039364
-0.050963
-0.062630
0.059485
0.063102
0.068193
0.068612
0.065249
0.028607
-0.129186
-0.053031
-0.065215
-0.064267
-0.029891
-0.014613
-0.015353
0.045052
0.048210
-0.023660
-0.039709
0.020536
0.036430
0.052316
0.006944
0.011117
0.011495
0.015405
-0.065400
-0.085028
-0.074042
0.072778
0.071653
0.075768
-0.067646
-0.068930
0.009166
-0.093974
-0.094789
0.007813
0.009675
0.080632
0.006837
-0.107836
-0.117275
-0.107015
-0.079896
0.016991
-0.071477
0.000354
-0.003240
-0.129954
-0.133313
0.022033
-0.007744
0.013591
-0.071033
0.033074
-0.001751
0.030717
-0.103673
-0.102483
0.040348
-0.081216
-0.110555
-0.106914
-0.116535
-0.095258
-0.071701
-0.057823
-0.053068
0.057462
0.061219
0.062389
-0.085475
-0.079459
-0.001280
-0.002075
-0.092109
-0.089717
-0.094387
-0.025377
-0.021625
-0.068255
-0.088413
0.078512
0.076484
0.004284
-0.098844
-0.099051
-0.107566
-0.101799
-0.101016
0.004943
0.008359
0.052813
0.033156
-0.059129
-0.054039
-0.074364
0.009395
0.016028
0.025926
0.025504
-0.096503
0.005354
0.005526
-0.033189
-0.052326
0.018395
0.013741
-0.070507
-0.060377
-0.007294
0.045228
0.043983
0.066583
-0.102557
0.066584
-0.009643
0.091118
0.092822
-0.106843
-0.106196
-0.011996
-0.010477
-0.027846
-0.031340
0.049733
0.076528
0.030622
-0.048451
0.070717
-0.114741
0.054911
0.043442
0.043425
-0.116190
0.077166
0.032278
0.019739
0.056297
0.053197
0.015631
0.033445
-0.113185
-0.109046
-0.100421
-0.125140
0.090367
0.058922
0.063298
0.059932
0.004297
-0.130814
0.095543
-0.111411
-0.097728
-0.092675
0.002463
0.017825
0.007889
0.062735
0.038469
-0.058653
-0.055321
-0.107365
-0.013031
0.040175
0.048362
-0.119676
-0.116720
-0.055564
0.014245
0.033510
0.015491
0.034165
0.048252
0.045514
0.028128
-0.096342
0.042232
-0.106766
-0.032973
0.054550
0.065149
0.056698
0.051821
0.092687
0.065978
-0.097454
-0.087333
-0.084476
0.085615
0.087282
0.003573
0.074503
-0.064482
-0.068384
-0.066993
0.032667
0.036186
0.034791
0.037067
-0.059015
-0.008967
0.087838
0.038148
-0.085168
-0.051913
-0.130241
-0.047934
0.051485
0.067266
0.068674
-0.062664
-0.065622
-0.126754
0.086948
0.082970
-0.063248
-0.029208
0.006153
0.001625
-0.104052
0.004839
-0.006775
-0.053971
0.090381
0.103893
0.032437
0.022213
0.018130
-0.097077
-0.034220
0.001540
0.006212
-0.103210
0.100864
-0.093362
0.033734
0.032442
-0.128489
0.055820
0.062733
0.051488
-0.038414
0.053952
0.034148
-0.064071
0.075724
-0.061054
0.012185
0.004781
0.006311
-0.078503
0.022621
-0.056400
0.007860
-0.016381
-0.015213
-0.062390
0.105505
0.062663
-0.087364
-0.088737
-0.030074
0.036421
-0.130322
-0.136952
-0.140053
-0.070770
-0.100350
0.059492
-0.066747
0.040543
0.071006
0.072036
-0.003426
-0.055712
-0.062013
-0.086647
0.084298
0.081725
0.043619
0.040650
-0.033816
-0.050930
-0.107603
-0.107983
0.049390
-0.099262
-0.046593
-0.049356
-0.094954
-0.095824
0.049842
0.031366
0.064750
0.053183
-0.057620
0.070046
0.057811
-0.039328
-0.078830
-0.085671
0.058475
0.051195
-0.080916
0.057702
0.031847
-0.105139
0.075833
-0.040905
-0.118915
0.071492
0.067662
-0.036129
-0.034507
-0.085897
-0.102254
0.069868
0.071691
0.073259
-0.011537
0.048228
0.002153
-0.086252
-0.120217
0.045312
0.046075
-0.087835
-0.093018
0.057145
0.072535
0.009038
0.024288
0.015960
0.065964
0.097727
-0.016851
-0.014862
-0.042143
-0.106427
0.048169
-0.084007
-0.017231
-0.017084
0.011966
0.030990
-0.090957
0.063814
-0.086845
-0.054441
0.072973
-0.078311
-0.058725
-0.070215
-0.093174
-0.022456
-0.011619
-0.089860
0.068028
-0.092952
-0.000287
-0.009166
-0.031293
0.000567
-0.023475
-0.020649
0.048128
-0.082762
-0.086765
-0.024075
0.001003
-0.008675
-0.054286
-0.056068
-0.036471
-0.061970
-0.043358
-0.018911
-0.055915
-0.033352
-0.034076
0.013618
-0.076890
0.075573
0.060971
-0.011264
-0.099515
-0.096992
-0.026053
0.027336
0.035559
-0.043316
0.002318
-0.082021
-0.093971
-0.000157
0.048486
0.058584
0.061622
0.078146
-0.092571
0.036531
-0.083410
-0.071027
-0.086337
0.053874
-0.049109
0.048436
-0.095833
0.034784
0.031110
0.027835
-0.112098
0.007687
-0.043114
-0.055972
0.005477
-0.045930
-0.094705
0.015786
0.061348
-0.037931
-0.066366
-0.001326
SCALARS UY float 1
LOOKUP_TABLE default
-0.000000
-0.000000
-0.460000
-0.460000
-0.119468
-0.330105
-0.000000
-0.000000
-0.000000
-0.000000
-0.000000
-0.000000
-0.000000
-0.000000
-0.000000
-0.000000
-0.000000
-0.000000
-0.000000
-0.000000
-0.000000
-0.000000
-0.040463
-0.070808
-0.098585
-0.124706
-0.149895
-0.173979
-0.196641
-0.217217
-0.236539
-0.253865
-0.272439
-0.293605
-0.319634
-0.350856
-0.385525
-0.422320
-0.460000
-0.460000
-0.460000
-0.460000
-0.460000
-0.460000
-0.460000
-0.460000
-0.460000
-0.460000
-0.460000
-0.460000
-0.460000
-0.460000
-0.460000
-0.460000
-0.430242
-0.400683
-0.371738
-0.343333
-0.316400
-0.291079
-0.267832
-0.247161
-0.228228
-0.211210
-0.193551
-0.172792
-0.147951
-0.117308
-0.083814
-0.046782
-0.121190
-0.126005
-0.131203
-0.134108
-0.137680
-0.143780
-0.147740
-0.150548
-0.153407
-0.156224
-0.158583
-0.162351
-0.166028
-0.168483
-0.172218
-0.174922
-0.177091
-0.180151
-0.182867
-0.185890
-0.188369
-0.190895
-0.193100
-0.196173
-0.198957
-0.200035
-0.203567
-0.206789
-0.208875
-0.212035
-0.214612
-0.217392
-0.220685
-0.221724
-0.224660
-0.226446
-0.228314
-0.231349
-0.232673
-0.235946
-0.238051
-0.240951
-0.242987
-0.246647
-0.249751
-0.252736
-0.255723
-0.259295
-0.262287
-0.265493
-0.269663
-0.272410
-0.274782
-0.278847
-0.282371
-0.286199
-0.290397
-0.293968
-0.297120
-0.302639
-0.308789
-0.313322
-0.316308
-0.318929
-0.322426
-0.326374
-0.019146
-0.010362
-0.023142
-0.280325
-0.290295
-0.295755
-0.012554
-0.165413
-0.166505
-0.152732
-0.042947
-0.048420
-0.049768
-0.055347
-0.125747
-0.118608
-0.123236
-0.284830
-0.283903
-0.288671
-0.184656
-0.195065
-0.188065
-0.256341
-0.258719
-0.273218
-0.286171
-0.151795
-0.139280
-0.337084
-0.342089
-0.335719
-0.341387
-0.322601
-0.330931
-0.331765
-0.007187
-0.017273
-0.008664
-0.444833
-0.431611
-0.431515
-0.203515
-0.202156
-0.419715
-0.190470
-0.239191
-0.246546
-0.243424
-0.284320
-0.281183
-0.285161
-0.110000
-0.103531
-0.103298
-0.278415
-0.168808
-0.175069
-0.183943
-0.229984
-0.223675
-0.228183
-0.016164
-0.168778
-0.156085
-0.161041
-0.016432
-0.012095
-0.150371
-0.020810
-0.191997
-0.196655
-0.178350
-0.155098
-0.155451
-0.148508
-0.227406
-0.220725
-0.218122
-0.149445
-0.229629
-0.052958
-0.054901
-0.049824
-0.060129
-0.183506
-0.177993
-0.175929
-0.170907
-0.268263
-0.260189
-0.271023
-0.163230
-0.227016
-0.211535
-0.213428
-0.230068
-0.031599
-0.023141
-0.026266
-0.125262
-0.120934
-0.117730
-0.167052
-0.051417
-0.056782
-0.054450
-0.195213
-0.187133
-0.200761
-0.060678
-0.317761
-0.321573
-0.324182