# vtk DataFile Version 2.0
Test
ASCII
DATASET POLYDATA
POINTS 1818 float
0.000000 0.000000 0.000000
1.000000 0.000000 0.000000
1.000000 1.000000 0.000000
0.000000 1.000000 0.000000
0.300000 0.330000 0.000000
0.700000 0.680000 0.000000
0.058824 0.000000 0.000000
0.117647 0.000000 0.000000
0.176471 0.000000 0.000000
0.235294 0.000000 0.000000
0.294118 0.000000 0.000000
0.352941 0.000000 0.000000
0.411765 0.000000 0.000000
0.470588 0.000000 0.000000
0.529412 0.000000 0.000000
0.588235 0.000000 0.000000
0.647059 0.000000 0.000000
0.705882 0.000000 0.000000
0.764706 0.000000 0.000000
0.823529 0.000000 0.000000
0.882353 0.000000 0.000000
0.941176 0.000000 0.000000
1.000000 0.058824 0.000000
1.000000 0.117647 0.000000
1.000000 0.176471 0.000000
1.000000 0.235294 0.000000
1.000000 0.294118 0.000000
1.000000 0.352941 0.000000
1.000000 0.411765 0.000000
1.000000 0.470588 0.000000
1.000000 0.529412 0.000000
1.000000 0.588235 0.000000
1.000000 0.647059 0.000000
1.000000 0.705882 0.000000
1.000000 0.764706 0.000000
1.000000 0.823529 0.000000
1.000000 0.882353 0.000000
1.000000 0.941176 0.000000
0.941176 1.000000 0.000000
0.882353 1.000000 0.000000
0.823529 1.000000 0.000000
0.764706 1.000000 0.000000
0.705882 1.000000 0.000000
0.647059 1.000000 0.000000
0.588235 1.000000 0.000000
0.529412 1.000000 0.000000
0.470588 1.000000 0.000000
0.411765 1.000000 0.000000
0.352941 1.000000 0.000000
0.294118 1.000000 0.000000
0.235294 1.000000 0.000000
0.176471 1.000000 0.000000
0.117647 1.000000 0.000000
0.058824 1.000000 0.000000
0.000000 0.941176 0.000000
0.000000 0.882353 0.000000
0.000000 0.823529 0.000000
0.000000 0.764706 0.000000
0.000000 0.705882 0.000000
0.000000 0.647059 0.000000
0.000000 0.588235 0.000000
0.000000 0.529412 0.000000
0.000000 0.470588 0.000000
0.000000 0.411765 0.000000
0.000000 0.352941 0.000000
0.000000 0.294118 0.000000
0.000000 0.235294 0.000000
0.000000 0.176471 0.000000
0.000000 0.117647 0.000000
0.000000 0.058824 0.000000
0.305970 0.335224 0.000000
0.311940 0.340448 0.000000
0.317910 0.345672 0.000000
0.323881 0.350896 0.000000
0.329851 0.356119 0.000000
0.335821 0.361343 0.000000
0.341791 0.366567 0.000000
0.347761 0.371791 0.000000
0.353731 0.377015 0.000000
0.359701 0.382239 0.000000
0.365672 0.387463 0.000000
0.371642 0.392687 0.000000
0.377612 0.397910 0.000000
0.383582 0.403134 0.000000
0.389552 0.408358 0.000000
0.395522 0.413582 0.000000
0.401493 0.418806 0.000000
0.407463 0.424030 0.000000
0.413433 0.429254 0.000000
0.419403 0.434478 0.000000
0.425373 0.439701 0.000000
0.431343 0.444925 0.000000
0.437313 0.450149 0.000000
0.443284 0.455373 0.000000
0.449254 0.460597 0.000000
0.455224 0.465821 0.000000
0.461194 0.471045 0.000000
0.467164 0.476269 0.000000
0.473134 0.481493 0.000000
0.479104 0.486716 0.000000
0.485075 0.491940 0.000000
0.491045 0.497164 0.000000
0.497015 0.502388 0.000000
0.502985 0.507612 0.000000
0.508955 0.512836 0.000000
0.514925 0.518060 0.000000
0.520896 0.523284 0.000000
0.526866 0.528507 0.000000
0.532836 0.533731 0.000000
0.538806 0.538955 0.000000
0.544776 0.544179 0.000000
0.550746 0.549403 0.000000
0.556716 0.554627 0.000000
0.562687 0.559851 0.000000
0.568657 0.565075 0.000000
0.574627 0.570299 0.000000
0.580597 0.575522 0.000000
0.586567 0.580746 0.000000
0.592537 0.585970 0.000000
0.598507 0.591194 0.000000
0.604478 0.596418 0.000000
0.610448 0.601642 0.000000
0.616418 0.606866 0.000000
0.622388 0.612090 0.000000
0.628358 0.617313 0.000000
0.634328 0.622537 0.000000
0.640299 0.627761 0.000000
0.646269 0.632985 0.000000
0.652239 0.638209 0.000000
0.658209 0.643433 0.000000
0.664179 0.648657 0.000000
0.670149 0.653881 0.000000
0.676119 0.659104 0.000000
0.682090 0.664328 0.000000
0.688060 0.669552 0.000000
0.694030 0.674776 0.000000
0.516135 0.080917 0.000000
0.549338 0.042552 0.000000
0.567302 0.088709 0.000000
0.555658 0.563778 0.000000
0.559301 0.571359 0.000000
0.552318 0.570919 0.000000
0.603235 0.047100 0.000000
0.446553 0.448087 0.000000
0.438652 0.443189 0.000000
0.445116 0.440368 0.000000
0.437254 0.190586 0.000000
0.465954 0.201747 0.000000
0.439184 0.213838 0.000000
0.453137 0.228102 0.000000
0.522423 0.410182 0.000000
0.522098 0.390982 0.000000
0.537289 0.398500 0.000000
0.453388 0.527105 0.000000
0.462022 0.524948 0.000000
0.461218 0.533993 0.000000
0.324300 0.374550 0.000000
0.319287 0.386214 0.000000
0.314834 0.375138 0.000000
0.668809 0.628853 0.000000
0.677366 0.632907 0.000000
0.668274 0.639611 0.000000
0.469934 0.529282 0.000000
0.439703 0.436699 0.000000
0.446608 0.432083 0.000000
0.542854 0.633425 0.000000
0.535117 0.647070 0.000000
0.524302 0.633157 0.000000
0.519372 0.648877 0.000000
0.586338 0.611293 0.000000
0.591638 0.624149 0.000000
0.575478 0.621479 0.000000
0.437962 0.035513 0.000000
0.421505 0.085456 0.000000
0.394924 0.044162 0.000000
0.445207 0.955749 0.000000
0.429168 0.919510 0.000000
0.464409 0.914226 0.000000
0.317150 0.400904 0.000000
0.328626 0.395860 0.000000
0.439616 0.884412 0.000000
0.330406 0.381773 0.000000
0.676842 0.602700 0.000000
0.674982 0.614185 0.000000
0.665930 0.611798 0.000000
0.414707 0.535036 0.000000
0.420123 0.526072 0.000000
0.425338 0.533771 0.000000
0.398407 0.375558 0.000000
0.393804 0.363255 0.000000
0.407284 0.365452 0.000000
0.407758 0.523337 0.000000
0.899969 0.377867 0.000000
0.945915 0.378245 0.000000
0.914158 0.409130 0.000000
0.358219 0.436142 0.000000
0.361390 0.425428 0.000000
0.369309 0.432300 0.000000
0.465999 0.075074 0.000000
0.269944 0.367761 0.000000
0.266521 0.352125 0.000000
0.283474 0.357667 0.000000
0.385889 0.083020 0.000000
0.359482 0.060981 0.000000
0.279658 0.346766 0.000000
0.363604 0.104040 0.000000
0.511115 0.503731 0.000000
0.503243 0.499914 0.000000
0.509146 0.494910 0.000000
0.513188 0.475753 0.000000
0.504957 0.474656 0.000000
0.511959 0.464784 0.000000
0.311863 0.447505 0.000000
0.293019 0.442078 0.000000
0.305555 0.431691 0.000000
0.499204 0.464990 0.000000
0.293855 0.459576 0.000000
0.396676 0.236328 0.000000
0.371014 0.247362 0.000000
0.373003 0.229199 0.000000
0.384478 0.261522 0.000000
0.555704 0.523331 0.000000
0.551313 0.515879 0.000000
0.562752 0.515269 0.000000
0.554954 0.506854 0.000000
0.804236 0.611103 0.000000
0.819351 0.593503 0.000000
0.832061 0.615776 0.000000
0.509908 0.485173 0.000000
0.129738 0.481190 0.000000
0.110722 0.443736 0.000000
0.154857 0.452634 0.000000
0.089738 0.485299 0.000000
0.396427 0.153886 0.000000
0.393058 0.115469 0.000000
0.420333 0.126587 0.000000
0.442628 0.413512 0.000000
0.434815 0.404283 0.000000
0.446816 0.400259 0.000000
0.499770 0.482873 0.000000
0.353883 0.235057 0.000000
0.351360 0.254011 0.000000
0.332147 0.240870 0.000000
0.112307 0.405527 0.000000
0.140355 0.392788 0.000000
0.142004 0.423465 0.000000
0.334868 0.263052 0.000000
0.551239 0.594093 0.000000
0.560217 0.601969 0.000000
0.546711 0.604614 0.000000
0.398510 0.570197 0.000000
0.387124 0.557316 0.000000
0.399978 0.555748 0.000000
0.705281 0.743146 0.000000
0.722930 0.758853 0.000000
0.697202 0.758074 0.000000
0.380190 0.572638 0.000000
0.278345 0.431947 0.000000
0.292575 0.428097 0.000000
0.470820 0.540616 0.000000
0.478213 0.533042 0.000000
0.480161 0.543190 0.000000
0.415268 0.299334 0.000000
0.412465 0.313515 0.000000
0.400419 0.297680 0.000000
0.396495 0.317117 0.000000
0.718655 0.732879 0.000000
0.709319 0.677587 0.000000
0.715709 0.670111 0.000000
0.719283 0.682820 0.000000
0.212992 0.453899 0.000000
0.184619 0.470046 0.000000
0.186665 0.440862 0.000000
0.452307 0.386568 0.000000
0.460371 0.397715 0.000000
0.478664 0.456068 0.000000
0.476179 0.462123 0.000000
0.471250 0.456445 0.000000
0.464654 0.388544 0.000000
0.483415 0.461045 0.000000
0.357146 0.449596 0.000000
0.344653 0.443966 0.000000
0.554562 0.459423 0.000000
0.543333 0.457517 0.000000
0.553850 0.449505 0.000000
0.543131 0.445036 0.000000
0.347312 0.459318 0.000000
0.781088 0.538918 0.000000
0.810909 0.534152 0.000000
0.799399 0.553968 0.000000
0.402869 0.534333 0.000000
0.408011 0.546121 0.000000
0.703844 0.670118 0.000000
0.552234 0.794299 0.000000
0.528593 0.795589 0.000000
0.539188 0.770312 0.000000
0.596088 0.518714 0.000000
0.593029 0.508081 0.000000
0.604120 0.510731 0.000000
0.384880 0.468703 0.000000
0.382270 0.455963 0.000000
0.394062 0.458803 0.000000
0.374729 0.466839 0.000000
0.340939 0.294790 0.000000
0.324530 0.290188 0.000000
0.338473 0.279923 0.000000
0.465367 0.336545 0.000000
0.477337 0.352846 0.000000
0.459495 0.350024 0.000000
0.584947 0.516440 0.000000
0.326802 0.302636 0.000000
0.945343 0.420397 0.000000
0.779746 0.749037 0.000000
0.771533 0.774140 0.000000
0.758291 0.749848 0.000000
0.743435 0.765852 0.000000
0.751942 0.297541 0.000000
0.784264 0.292048 0.000000
0.772562 0.330207 0.000000
0.812744 0.305799 0.000000
0.655547 0.494535 0.000000
0.649767 0.472522 0.000000
0.671966 0.480244 0.000000
0.612062 0.502007 0.000000
0.616789 0.515227 0.000000
0.403059 0.898561 0.000000
0.391512 0.946883 0.000000
0.625780 0.504699 0.000000
0.635988 0.491275 0.000000
0.596252 0.650380 0.000000
0.583401 0.655132 0.000000
0.583737 0.644777 0.000000
0.713099 0.416502 0.000000
0.708474 0.388943 0.000000
0.733625 0.389568 0.000000
0.684835 0.406222 0.000000
0.656936 0.416423 0.000000
0.633624 0.425116 0.000000
0.634362 0.400237 0.000000
0.646884 0.740682 0.000000
0.654954 0.726002 0.000000
0.663305 0.741855 0.000000
0.732481 0.441235 0.000000
0.751303 0.460839 0.000000
0.721338 0.462235 0.000000
0.759622 0.437863 0.000000
0.462761 0.363156 0.000000
0.373644 0.622389 0.000000
0.346217 0.613642 0.000000
0.370315 0.594521 0.000000
0.351411 0.640635 0.000000
0.695337 0.690220 0.000000
0.705202 0.700133 0.000000
0.692303 0.700990 0.000000
0.521365 0.516400 0.000000
0.522992 0.510597 0.000000
0.527633 0.513574 0.000000
0.291567 0.329512 0.000000
0.294927 0.318154 0.000000
0.365771 0.366553 0.000000
0.366135 0.358691 0.000000
0.374180 0.368122 0.000000
0.408232 0.327056 0.000000
0.423479 0.328280 0.000000
0.411272 0.339740 0.000000
0.664110 0.670607 0.000000
0.667245 0.662649 0.000000
[...]
POINT_DATA 1818
SCALARS UX float 1
LOOKUP_TABLE default
-0.000002
0.000002
0.597572
-2.392264
-1.052827
0.326215
0.000000
-0.000000
-0.000000
-0.000000
-0.000000
-0.000000
-0.000000
-0.000000
-0.000000
-0.000000
0.000000
0.000000
0.000000
0.000000
0.000000
0.000000
0.512601
0.793808
1.009509
1.201705
1.370730
1.523563
1.659980
1.766997
1.833302
1.839871
1.754007
1.605013
1.379132
1.115991
0.861759
0.699062
0.290737
0.042721
-0.151406
-0.307957
-0.430441
-0.532614
-0.637079
-0.754285
-0.892730
-1.051165
-1.222830
-1.404583
-1.592867
-1.785437
-1.979273
-2.185919
-2.381665
-2.389923
-2.422068
-2.466878
-2.523814
-2.584889
-2.640738
-2.675091
-2.662766
-2.586889
-2.433173
-2.187161
-1.863094
-1.494068
-1.087300
-0.686823
-1.050876
-1.009528
-0.986478
-0.990077
-0.971296
-0.930018
-0.899523
-0.883752
-0.862866
-0.844486
-0.833050
-0.815989
-0.801636
-0.792538
-0.768769
-0.754445
-0.747899
-0.729980
-0.714202
-0.692080
-0.675640
-0.655420
-0.637674
-0.614554
-0.594698
-0.579199
-0.552744
-0.529323
-0.514072
-0.490237
-0.475238
-0.456626
-0.429535
-0.410880
-0.373706
-0.348421
-0.324527
-0.291565
-0.269989
-0.232440
-0.209407
-0.182697
-0.165877
-0.145693
-0.128923
-0.111892
-0.095974
-0.073282
-0.058060
-0.039706
-0.013144
0.000119
0.015056
0.037069
0.055023
0.074853
0.098577
0.113550
0.173141
0.145457
0.175865
0.224090
0.258136
0.289827
0.304057
0.308354
-0.029078
-0.011976
0.002043
-0.654882
-0.730932
-0.857870
0.006573
-0.199540
-0.286709
-0.069692
-0.108245
-0.061457
-0.102490
-0.068968
0.404186
0.365233
0.414724
-1.448238
-1.407139
-1.420578
-1.521443
-1.653883
-1.599399
0.723455
0.739485
0.667671
-1.375155
-0.112515
0.071840
-1.054859
-1.056876
-1.119368
-1.103323
-0.799375
-0.813470
-0.918910
-0.028880
-0.068828
-0.039046
-0.956250
-1.006102
-0.910402
-1.721964
-1.650660
-0.991886
-1.528122
0.946140
0.866885
0.847690
-1.565974
-1.555637
-1.537139
-0.074774
-0.086943
-0.016489
-1.591900
1.323321
1.449757
1.438932
-1.669592
-1.615416
-1.604984
-0.048384
-1.764247
-1.688965
-1.618283
-0.074969
-0.056421
-1.547308
-0.103644
0.039393
-0.082255
0.178273
0.417279
0.366547
0.429138
-1.835037
-1.882957
-1.832883
0.357433
-1.895646
-0.187829
-0.255512
-0.239014
-0.217151
0.511691
0.519536
0.606602
0.579454
1.352812
1.409255
1.417180
0.342805
-2.375487
-2.403339
-2.300692
-2.476205
-0.138195
-0.104575
-0.098558
0.133860
0.100697
0.163574
0.229352
-0.289421
-0.318000
-0.354416
-2.334358
-2.235614
-2.299900
-0.385786
-1.029639
-0.987309
-1.066836
-1.568255
-1.613228
-1.583327
-0.108994
-0.058406
-0.193919
-1.610208
-1.914504
-1.863638
-1.387071
-1.339738
-1.349266
-0.079575
-0.064564
-0.129226
-0.114738
0.030869
0.515229
0.697167
0.578639
-2.138749
-2.224415
-2.207263
0.173991
0.212841
0.228912
0.142871
0.146156
0.214901
0.245785
-1.703078
-1.734214
0.564890
0.533117
0.548693
0.514902
-1.744768
1.277305
1.365250
1.347675
-1.597408
-1.573744
0.533697
-0.728246
-0.800619
-0.796986
0.732875
0.718754
0.752057
-1.641043
-1.625790
-1.580696
-1.671945
-0.400679
-0.486735
-0.398332
0.123743
0.184690
0.135205
0.695208
-0.495467
1.545766
0.412404
0.181809
0.240004
0.040370
0.675769
0.747941
0.820249
0.867990
0.863600
0.814780
0.882877
0.765329
0.789424
-1.089284
-1.106692
0.802797
0.810647
-0.800188
-0.856236
-0.867644
0.865855
0.790210
0.860274
0.767930
0.720815
0.683968
0.631225
-0.408561
-0.366373
-0.331735
0.973341
1.067494
0.983237
1.045630
0.168044
-1.549223
-1.635704
-1.603070
-1.578087
0.098910
0.144153
-0.019433
-0.043337
0.141504
0.184623
-1.190571
-0.943176
-0.353789
-0.272246
-0.238106
-0.057582
-0.005089
-0.027329
-0.190437
-0.033761
-0.007362
-1.685390
-1.716073
-1.737825
-1.757671
-0.289779
-0.376147
-0.521303
0.032316
0.169426
0.218127
0.229608
-0.570999
-0.644305
-0.494823
-0.199742
-0.377532
-0.404027
-1.275648
-1.305152
-1.329066
-0.371300
-0.550470
-0.535256
-0.021310
-0.136625
-0.049526
-0.207495
-0.139904
-0.292503
-0.189833
-1.194996
-1.040152
-0.999774
-1.183691
-1.955910
-1.865656
-1.923294
-1.637452
-1.688968
-1.612263
-0.396836
-0.392827
-1.059583
0.687501
0.698607
-1.816510
-1.800477
-1.770510
-0.851649
-1.892793
-1.789893
-1.734259
-1.676186
-1.516354
-1.244322
-1.285880
-1.274874
-1.238614
-1.094181
-1.044886
0.868678
0.835541
0.744362
0.981010
-1.856681
-1.819798
-1.783082
-0.992309
-1.169790
-0.923183
-0.689847
-0.591093
-0.466592
-0.271915
-0.826171
-0.986104
-1.164236
0.809261
0.640209
-1.272738
-1.306171
-1.272312
-0.443099
-0.673228
-0.651197
-1.290185
-1.188894
-1.178293
-0.892334
-0.829434
-0.832165
-1.107910
-1.193918
-0.166598
-0.189539
-0.379046
-0.366819
-0.296125
-0.440403
0.553590
0.544597
0.492325
-2.515501
-2.574529
-2.468408
-2.157806
-2.045701
-2.099504
-2.090514
-0.292138
-0.452332
-0.491260
-0.514899
-1.109642
-1.192226
-1.099480
-1.197832
-1.018997
-1.095346
-1.013938
-1.514567
-1.567720
-1.484473
-1.524844
-1.525699
-1.569088
-1.557191
-1.421323
-0.139202
-0.319527
-0.323309
0.344849
0.278092
0.293930
0.325613
1.085045
0.965630
1.000031
1.155474
1.210277
-1.209228
-1.299888
-1.382147
0.475590
0.496286
0.237206
-1.409132
-1.370633
-1.450469
-0.599801
-0.409133
-1.269262
-0.468958
-0.613287
-0.718426
0.256415
0.291177
0.247201
0.596580
0.628915
0.626103
-0.326609
-0.339526
-0.711129
0.664581
-1.827018
-1.713549
-1.943845
-1.837202
-1.961006
0.217570
0.272089
0.510788
0.539051
0.497120
0.555473
0.516550
-2.494836
-0.552691
-0.490500
-0.560608
-0.486413
-1.644179
-1.773443
-1.538454
0.539951
0.622322
0.726105
-0.275856
0.466645
0.052463
0.559028
0.577978
-0.345060
-0.240513
-0.294156
-1.736390
-1.677247
-1.682257
-0.807907
-0.876080
-2.385505
0.611289
0.648290
0.624801
0.116159
0.126038
-0.958664
-0.943565
-0.870787
0.157576
0.668285
-1.857310
-1.893898
-1.901073
-1.467215
-1.340659
-1.357473
0.099763
0.361529
0.185357
0.321284
-0.057229
0.524336
0.547012
-1.126600
-0.882482
-0.942061
-0.120064
-0.058452
-1.897395
-1.862147
-1.834196
-0.081122
0.005888
-0.006359
-0.034414
-1.895831
-1.953833
-1.940988
-0.862441
-1.043295
-0.739733
-0.445712
-0.479525
-0.575479
-1.659124
-1.462103
0.488001
-1.727543
-1.875419
0.401313
0.595318
0.639762
-1.571744
0.579250
0.495962
-1.239044
-1.224347
1.050781
1.116771
1.102562
-1.287242
0.467947
0.469441
0.840588
-1.483504
-1.472977
-1.459858
-0.954292
-0.887642
-0.461828
-1.511415
0.202573
0.240475
-1.486772
-0.938719
-0.994546
-0.917409
-1.002806
1.368908
1.261303
1.262126
0.521995
0.366727
0.292441
-1.030011
-0.994361
-0.927288
-0.245059
-0.179042
0.224612
-0.064566
-0.008693
0.131785
-0.009156
-1.737833
-1.708132
-0.260946
-0.251832
-1.438242
0.758547
0.929143
0.708768
1.642666
0.943752
0.230020
0.260796
0.297116
-1.687574
0.138093
0.020699
0.044149
0.067211
-0.807246
-1.066021
-0.959869
-0.894026
0.592682
-1.382953
-1.235719
-1.775427
-1.815001
-1.781107
-1.435945
-1.397103
-1.417259
-1.368695
0.955709
0.943685
1.014128
-1.375750
-0.073810
1.299076
0.848964
0.831450
0.197807
0.419391
0.180709
0.465928
0.328673
0.539298
-0.158016
-1.245187
-0.387421
-1.375857
-1.498136
-1.775340
-1.875216
0.068048
0.109885
-0.687317
-0.841315
0.445515
-0.378291
-2.345382
-0.455019
-1.711902
-1.671475
-1.594479
-0.478807
1.077390
1.031983
1.011300
0.985927
0.085189
0.026108
-0.786580
-0.757638
-0.704703
0.971002
0.975084
0.940819
0.931178
0.905559
0.967042
-1.578708
-1.603459
1.187221
-2.244717
-2.024737
-2.126322
1.101080
1.045167
0.980676
-0.756524
-0.821579
-0.716589
1.135198
1.352066
0.752916
0.543004
0.645488
0.419537
-0.865544
0.403182
0.382725
0.337356
0.977187
1.127950
1.075834
-1.720188
-1.831431
-1.899814
1.232683
-1.068062
-0.992715
-1.238831
-1.274722
-1.335245
-1.641606
0.158929
0.106944
0.286694
1.515315
1.600174
1.673307
1.420869
1.153858
1.464362
1.359359
-0.633394
-0.625283
-2.207883
-1.961522
-2.017857
-0.679682
0.352299
0.006207
-2.195418
-2.224439
-2.341664
-1.953164
-1.942345
-2.464462
0.288383
0.048206
-1.289775
-0.102901
-1.310132
-1.209733
-1.189350
1.689361
1.766711
-0.418462
-0.407860
-0.310189
0.047890
-0.077386
0.162583
-0.182401
-0.337430
-0.025997
-0.135176
-0.179309
-1.212429
-1.474586
-1.513355
-1.302049
-1.900042
-1.947984
-1.943051
-2.580401
-2.552523
-0.095851
-0.153125
-0.071806
-0.148823
-0.163449
-0.477369
-0.394685
-0.449610
-2.437977
-0.040688
-0.058418
-0.636433
-0.787497
-0.756152
1.705337
1.601916
-2.008603
1.247384
1.186296
1.189947
1.248788
-2.308588
-2.291804
-2.220865
1.324825
-0.048193
1.497132
-0.192164
-0.023037
-0.075182
-0.121135
-0.782460
0.030664
-0.062134
-0.594496
-0.530893
-0.520876
0.629003
0.457829
-0.308541
-1.094203
-1.080427
-0.433592
-0.888132
0.475225
0.576179
0.476645
0.614118
-1.781071
-1.787618
-1.190120
-0.827063
-0.068128
-0.151707
0.185521
0.156573
0.099011
-0.117789
-0.305181
-2.138863
-2.027408
-2.080338
-2.073287
-0.984001
-2.217813
-2.173035
-2.295767
-2.128966
-2.152856
-1.157093
-1.092078
-1.238595
-1.141415
-1.123964
-0.525260
-0.417674
-0.697629
-0.603908
-2.276039
-2.442889
-2.235297
0.370369
0.335623
0.363611
-1.256704
-1.307865
0.036066
-0.004953
-2.076934
-2.145485
-2.068224
-1.724312
-1.693684
-1.670342
-0.845579
-0.975296
-1.989386
0.404560
0.197933
0.128409
-1.691636
-1.603562
-1.521935
-1.633339
-1.736636
-2.236944
0.708149
0.590903
-1.776798
-1.775436
-1.843625
-1.839446
0.152424
0.105118
-1.678884
1.071553
-0.358105
-0.160290
0.102482
0.147960
0.068206
-0.775942
0.091955
-1.512301
-1.298207
-1.246447
-1.314635
-1.312843
-1.788832
-1.813702
-1.864229
0.119862
0.082719
-1.899287
0.330514
0.899958
0.885254
-2.526902
-2.410098
-2.422664
-0.860581
-0.925667
-0.935363
-1.790003
1.561597
1.646693
1.542223
1.466756
1.458315
-2.021351
-1.951021
-1.678090
-1.730113
-1.698744
-0.231655
0.533847
0.315527
0.861786
-1.925222
-1.951723
-1.429094
-1.476561
-1.367586
-1.769696
-2.043953
-1.455021
0.320506
0.325001
0.338434
-1.319240
-1.215618
-1.412211
1.011950
1.065284
1.095122
-1.284954
1.423625
1.373467
-2.210776
-0.889832
0.050251
-2.196335
-2.346022
-0.744360
-0.807604
0.806494
0.778239
0.769378
-0.280771
-0.234760
0.844560
-0.230402
0.873616
-1.928823
-2.062467
0.994179
1.070768
0.915070
0.278797
-0.202791
1.231171
1.004996
1.449701
0.907811
-0.545404
-0.580843
-0.498676
-0.526013
0.435472
-0.620666
-0.679324
0.452179
-1.625046
-1.427429
-1.559554
-1.213718
-1.176360
0.293012
0.364249
-1.146439
-1.178832
-1.196268
0.389576
0.363810
0.405373
-1.398205
-1.364039
-1.347125
-1.778428
1.135997
1.194874
1.207193
-1.864503
-1.942033
-2.005540
-0.149005
-0.188686
-0.198477
-2.018266
-0.977475
-0.242693
-0.910060
-0.620486
-2.161025
-2.137653
1.504717
0.335073
0.952570
0.854888
-1.329310
-1.371453
-0.349143
-0.411081
-0.144812
-2.234784
-0.350238
-1.659033
-2.072897
-1.987605
-1.611298
-1.626739
-1.643043
0.963463
0.938319
0.948553
1.022463
0.230010
0.297228
0.227687
0.349262
-1.802470
-1.190840
-1.226546
-1.864842
-0.958557
0.159303
0.097000
-0.019893
0.959268
0.690150
0.526846
0.163234
-0.086298
-0.563240
-1.857547
-1.825481
-1.787411
-2.077612
-0.578757
-0.229235
-0.570658
-0.531613
-0.609869
0.292410
0.245195
-0.073719
-0.116400
-0.085269
-0.052070
0.877941
0.230663
0.164651
0.125973
-0.168911
0.304246
-0.327412
-0.249744
1.372060
-1.404672
-1.462889
-1.448234
-1.400421
-1.555796
1.285387
1.055430
1.111047
0.993006
0.949554
0.901492
-1.984921
0.043078
0.038279
0.094151
0.082051
0.197377
0.224973
0.233983
1.584760
1.667203
1.180206
-1.677110
-1.672779
-0.617026
-0.665447
0.823889
1.053475
0.955155
0.949003
-1.608199
-1.585178
-0.696107
-0.746499
-0.554138
-1.819143
-1.780318
-0.285654
-1.847127
0.599084
0.609162
0.590340
-0.274759
-0.206706
0.904795
0.768215
-1.356595
-1.415504
-1.327279
-1.384024
-1.311729
-1.331580
0.418614
0.404510
-2.130615
0.364329
0.558281
0.624100
1.351837
1.270065
0.477590
-0.266649
-0.284011
-0.361494
-0.545269
-0.891716
-0.512503
-0.610066
-0.657845
-1.621936
-1.631043
1.128062
0.483839
0.373262
0.421855
0.105864
-0.602433
-0.733889
-0.762899
0.734424
0.613293
0.524491
-1.550330
-1.543785
-1.385684
-0.506393
-0.385719
-0.308073
-0.281671
-0.276583
-0.448320
-0.394071
-0.292087
-0.832259
-0.214711
-0.197458
1.139813
1.204691
1.206394
0.924706
1.141557
1.182335
-1.647317
-0.672202
-1.038269
-1.127246
-1.109615
-1.019313
-1.105349
-1.094650
0.146638
0.733742
-0.158806
-0.495821
-0.483572
0.992699
0.989799
0.681253
0.722601
0.684553
-1.246032
-1.447751
-0.077913
0.155781
-1.746290
1.012411
1.019349
0.892988
0.834790
-1.714700
-1.871755
-1.771902
0.942331
0.929053
0.544232
0.478178
0.486006
0.493753
0.912639
1.144803
-0.150966
0.719403
0.438790
0.516297
-0.158930
-0.937692
-0.831183
1.254873
0.215800
-0.876976
0.767653
0.895622
-0.674632
-0.767658
-0.975125
-1.053748
-0.994638
-1.214873
0.746279
0.701434
-0.495836
-0.682873
-0.640994
-1.255077
-1.147986
-2.335738
0.767160
0.764905
0.732291
0.755024
0.772273
-1.584720
0.611310
-1.426227
-0.318585
-1.330859
-1.676690
-0.820150
-0.627792
-0.624869
-1.272510
-0.065197
-1.529277
-2.127033
-0.220291
-0.197550
-0.340685
-1.512674
-1.369750
-1.130861
0.771286
0.166627
0.144842
-1.090055
-0.601724
0.509813
0.620503
-1.456121
-1.487172
-1.516267
0.347739
-1.139443
0.972971
0.914753
0.093475
-0.909097
-0.976292
-1.029530
-1.280690
-1.249004
-0.415054
-0.184420
1.371638
1.461822
0.313512
-0.486734
0.387866
-0.337319
-0.390126
0.516453
-0.259306
-0.556747
1.287825
-0.375902
-1.521119
-1.519284
0.850950
0.232005
0.310114
1.500109
0.357307
-0.016737
-0.208812
-2.046249
-2.009294
-0.463812
-0.535645
-1.481145
-1.569594
-1.494324
1.517394
-1.574351
-0.803975
-1.114042
0.984242
-0.763730
-0.596777
-0.542125
-1.231864
-0.072870
-0.173338
0.323742
-0.885333
-1.059296
0.602965
0.654230
0.729129
0.734091
0.686480
0.178863
-2.167864
-0.876724
-1.038553
-1.002390
-0.521193
-0.565664
-0.570728
0.444269
0.486841
-0.512048
-0.582740
0.078042
0.285680
0.502901
-0.062564
0.000483
-0.002198
0.058015
-1.106249
-1.315773
-1.158130
0.793493
0.777213
0.837605
-1.131506
-1.159060
-0.019707
-1.451865
-1.458801
0.067083
0.094459
0.911301
0.047849
-1.601720
-1.756080
-1.623916
-1.365575
0.086583
-1.127442
-0.105526
-0.153283
-2.006425
-2.052939
0.191788
-0.286821
-0.010747
-1.195660
0.294584
-0.024043
0.270729
-1.653557
-1.648057
0.421785
-1.321691
-1.651370
-1.737926
-1.854928
-1.531016
-1.194959
-0.948118
-0.886683
0.575640
0.629706
0.648833
-1.441686
-1.376522
-0.157480
-0.158059
-1.510912
-1.491859
-1.551501
-0.648172
-0.604934
-1.095454
-1.465232
0.879744
0.847531
-0.012849
-1.542039
-1.554077
-1.614235
-1.524669
-1.506282
-0.095126
-0.051751
0.507831
0.238876
-1.152336
-1.095476
-1.255864
-0.175542
-0.075622
0.228477
0.172372
-1.521330
0.062599
0.064547
-0.656401
-0.881780
0.072768
0.010800
-1.148712
-1.001311
-0.208163
0.432713
0.410963
0.705220
-1.510151
0.706316
-0.307009
1.143842
1.155385
-1.652494
-1.633837
-0.431515
-0.420289
-0.626442
-0.685919
0.464402
0.848009
0.278167
-0.881347
0.816482
-1.723386
0.714414
0.551036
0.557214
-1.715323
0.820227
0.399935
0.080448
0.570924
0.526068
-0.088534
0.421250
-2.021675
-1.941246
-1.859887
-1.889031
1.153522
0.648931
0.705085
0.652079
0.033126
-2.072712
1.239653
-1.709604
-1.515467
-1.437624
-0.026255
0.149426
0.034477
0.657137
0.367555
-1.033016
-1.002646
-2.019145
-0.168454
0.337798
0.497583
-2.213919
-2.188197
-0.995671
0.171303
0.449855
0.198495
0.207201
0.488750
0.347506
0.098316
-1.451251
0.310393
-1.594481
-0.574093
0.542738
0.683163
0.562185
0.509256
1.125406
0.674280
-1.504927
-1.440328
-1.414705
1.101934
1.097533
0.031390
0.750572
-1.188376
-1.240441
-1.234427
0.255362
0.301815
0.290835
0.327655
-1.046090
-0.149764
1.012544
0.473120
-1.272906
-1.053317
-2.098621
-0.693311
0.537114
0.839622
0.834275
-1.268611
-1.324157
-2.008794
1.041084
0.991518
-1.195627
-0.640963
0.033696
-0.021216
-1.615061
0.012338
-0.431659
-0.963327
1.079916
1.284252
0.183837
0.010957
-0.058984
-1.634413
-0.486935
-0.029164
0.022336
-1.584532
1.335643
-1.762109
0.288808
0.262666
-1.997430
0.740075
0.682045
0.530735
-0.849341
0.567135
0.254059
-1.172785
0.903133
-1.127064
-0.002700
-0.108887
0.072768
-1.177804
0.274929
-1.059087
-0.219381
-0.221586
-0.209668
-1.129648
1.322925
0.759563
-1.328425
-1.344223
-0.416916
0.263962
-2.241420
-2.360018
-2.369068
-1.172360
-1.559302
0.611973
-1.297183
0.339651
0.838742
0.842497
-0.298517
-1.187506
-1.280900
-1.289727
1.086904
1.035874
0.387044
0.344749
-0.642589
-0.879715
-1.725099
-1.745586
0.468764
-1.474626
-0.737627
-0.767770
-1.534889
-1.714543
0.577482
0.379625
0.714508
0.633068
-0.844223
0.923559
0.743696
-0.561501
-1.251000
-1.354449
0.687756
0.582665
-1.306434
0.580434
0.155468
-1.610343
0.830715
-0.732717
-1.779135
0.778132
0.787014
-0.752012
-0.736905
-1.411058
-1.552745
0.751510
0.779320
0.801770
-0.260430
0.492646
-0.305585
-1.274737
-1.815894
0.342455
0.449585
-1.291971
-1.425254
0.575508
0.790285
-0.069696
0.138381
0.057518
0.879064
1.307901
-0.427292
-0.402303
-0.750775
-1.738609
0.611837
-1.363934
-0.345208
-0.329242
-0.080017
0.209596
-1.485576
0.663713
-1.338499
-0.839428
0.797164
-1.214626
-0.947480
-1.074905
-1.502383
-0.520719
-0.368080
-1.460027
0.724573
-1.391694
-0.248397
-0.273621
-0.561041
-0.184692
-0.513262
-0.477032
0.480366
-1.289656
-1.344170
-0.446631
-0.200106
-0.260498
-0.890778
-0.948256
-0.676894
-1.011187
-0.758827
-0.399287
-0.942039
-0.634466
-0.591948
-0.052723
-1.246752
0.791522
0.603991
-0.365936
-1.479433
-1.429731
-0.490446
0.191628
0.323526
-0.760625
-0.155645
-1.233053
-1.407951
-0.188972
0.458603
0.607429
0.634104
0.874364
-1.484800
0.284227
-1.347162
-1.065304
-1.390046
0.609713
-0.759036
0.453377
-1.531561
0.272818
0.237957
0.193877
-1.662161
-0.092975
-0.761055
-0.938558
-0.144515
-0.737198
-1.505289
0.043529
0.646152
-0.732737
-1.091566
-0.165037
SCALARS UY float 1
LOOKUP_TABLE default
-0.000004
-0.000004
-5.959998
-5.959998
-1.524356
-4.205930
-0.000001
-0.000002
-0.000001
-0.000001
-0.000001
-0.000001
-0.000001
-0.000001
-0.000001
-0.000001
-0.000001
-0.000001
-0.000001
-0.000001
-0.000002
-0.000001
-0.539635
-0.931652
-1.272219
-1.592204
-1.893386
-2.180977
-2.450465
-2.692448
-2.919577
-3.123579
-3.345954
-3.597205
-3.922721
-4.349331
-4.849708
-5.400443
-5.959998
-5.959998
-5.959999
-5.959999
-5.959999
-5.959999
-5.959999
-5.959999
-5.959999
-5.959999
-5.959999
-5.959999
-5.959999
-5.959999
-5.959998
-5.959998
-5.574913
-5.195004
-4.827801
-4.471152
-4.135951
-3.827235
-3.547235
-3.301095
-3.079006
-2.879774
-2.673050
-2.427063
-2.118444
-1.716251
-1.236757
-0.693488
-1.542212
-1.618695
-1.703614
-1.697123
-1.741599
-1.799920
-1.849808
-1.884079
-1.917548
-1.951462
-1.980604
-2.026905
-2.071485
-2.101603
-2.147319
-2.180295
-2.206424
-2.243995
-2.277712
-2.314998
-2.345737
-2.377416
-2.405233
-2.443614
-2.478115
-2.492076
-2.536561
-2.577188
-2.603798
-2.643866
-2.676439
-2.711655
-2.753320
-2.767162
-2.804567
-2.827882
-2.852134
-2.890957
-2.908510
-2.950572
-2.978324
-3.015738
-3.042152
-3.089343
-3.129246
-3.167534
-3.206401
-3.252535
-3.291125
-3.332776
-3.386811
-3.422447
-3.452780
-3.505227
-3.551905
-3.600329
-3.653308
-3.705587
-3.797601
-3.843860
-3.892238
-3.966928
-4.015410
-4.065342
-4.108761
-4.170875
-0.213462
-0.114042
-0.256743
-3.530707
-3.665511
-3.742044
-0.137158
-2.052757
-2.068513
-1.887799
-0.496212
-0.560756
-0.578603
-0.645627
-1.512561
-1.421889
-1.477953
-3.629746
-3.613512
-3.678516
-2.351492
-2.510815
-2.427012
-3.300598
-3.272928
-3.404281
-3.640901
-1.877231
-1.710645
-4.311559
-4.379996
-4.295553
-4.372344
-4.104853
-4.219716
-4.234678
-0.080352
-0.194738
-0.097529
-5.761555
-5.588186
-5.587145
-2.638221
-2.604629
-5.431303
-2.433408
-2.923770
-3.036140
-3.001144
-3.638393
-3.594448
-3.645123
-1.344488
-1.261633
-1.253576
-3.563284
-2.075965
-2.174139
-2.266820
-2.951348
-2.863353
-2.917316
-0.181238
-2.224307
-2.055926
-2.104488
-0.185629
-0.136258
-1.962751
-0.235523
-2.384505
-2.445751
-2.205104
-1.894026
-1.901839
-1.807602
-2.956960
-2.887411
-2.841890
-1.824299
-3.001031
-0.619928
-0.645923
-0.582442
-0.710213
-2.256290
-2.184168
-2.151249
-2.087677
-3.289525
-3.185313
-3.321665
-2.003899
-3.032139
-2.852676
-2.859762
-3.079312
-0.362102
-0.262596
-0.298795
-1.526560
-1.472952
-1.427059
-2.058843