# vtk DataFile Version 2.0
Test
ASCII
DATASET POLYDATA
POINTS 1818 float
0.000000 0.000000 0.000000
1.000000 0.000000 0.000000
1.000000 1.000000 0.000000
0.000000 1.000000 0.000000
0.300000 0.330000 0.000000
0.700000 0.680000 0.000000
0.058824 0.000000 0.000000
0.117647 0.000000 0.000000
0.176471 0.000000 0.000000
0.235294 0.000000 0.000000
0.294118 0.000000 0.000000
0.352941 0.000000 0.000000
0.411765 0.000000 0.000000
0.470588 0.000000 0.000000
0.529412 0.000000 0.000000
0.588235 0.000000 0.000000
0.647059 0.000000 0.000000
0.705882 0.000000 0.000000
0.764706 0.000000 0.000000
0.823529 0.000000 0.000000
0.882353 0.000000 0.000000
0.941176 0.000000 0.000000
1.000000 0.058824 0.000000
1.000000 0.117647 0.000000
1.000000 0.176471 0.000000
1.000000 0.235294 0.000000
1.000000 0.294118 0.000000
1.000000 0.352941 0.000000
1.000000 0.411765 0.000000
1.000000 0.470588 0.000000
1.000000 0.529412 0.000000
1.000000 0.588235 0.000000
1.000000 0.647059 0.000000
1.000000 0.705882 0.000000
1.000000 0.764706 0.000000
1.000000 0.823529 0.000000
1.000000 0.882353 0.000000
1.000000 0.941176 0.000000
0.941176 1.000000 0.000000
0.882353 1.000000 0.000000
0.823529 1.000000 0.000000
0.764706 1.000000 0.000000
0.705882 1.000000 0.000000
0.647059 1.000000 0.000000
0.588235 1.000000 0.000000
0.529412 1.000000 0.000000
0.470588 1.000000 0.000000
0.411765 1.000000 0.000000
0.352941 1.000000 0.000000
0.294118 1.000000 0.000000
0.235294 1.000000 0.000000
0.176471 1.000000 0.000000
0.117647 1.000000 0.000000
0.058824 1.000000 0.000000
0.000000 0.941176 0.000000
0.000000 0.882353 0.000000
0.000000 0.823529 0.000000
0.000000 0.764706 0.000000
0.000000 0.705882 0.000000
0.000000 0.647059 0.000000
0.000000 0.588235 0.000000
0.000000 0.529412 0.000000
0.000000 0.470588 0.000000
0.000000 0.411765 0.000000
0.000000 0.352941 0.000000
0.000000 0.294118 0.000000
0.000000 0.235294 0.000000
0.000000 0.176471 0.000000
0.000000 0.117647 0.000000
0.000000 0.058824 0.000000
0.305970 0.335224 0.000000
0.311940 0.340448 0.000000
0.317910 0.345672 0.000000
0.323881 0.350896 0.000000
0.329851 0.356119 0.000000
0.335821 0.361343 0.000000
0.341791 0.366567 0.000000
0.347761 0.371791 0.000000
0.353731 0.377015 0.000000
0.359701 0.382239 0.000000
0.365672 0.387463 0.000000
0.371642 0.392687 0.000000
0.377612 0.397910 0.000000
0.383582 0.403134 0.000000
0.389552 0.408358 0.000000
0.395522 0.413582 0.000000
0.401493 0.418806 0.000000
0.407463 0.424030 0.000000
0.413433 0.429254 0.000000
0.419403 0.434478 0.000000
0.425373 0.439701 0.000000
0.431343 0.444925 0.000000
0.437313 0.450149 0.000000
0.443284 0.455373 0.000000
0.449254 0.460597 0.000000
0.455224 0.465821 0.000000
0.461194 0.471045 0.000000
0.467164 0.476269 0.000000
0.473134 0.481493 0.000000
0.479104 0.486716 0.000000
0.485075 0.491940 0.000000
0.491045 0.497164 0.000000
0.497015 0.502388 0.000000
0.502985 0.507612 0.000000
0.508955 0.512836 0.000000
0.514925 0.518060 0.000000
0.520896 0.523284 0.000000
0.526866 0.528507 0.000000
0.532836 0.533731 0.000000
0.538806 0.538955 0.000000
0.544776 0.544179 0.000000
0.550746 0.549403 0.000000
0.556716 0.554627 0.000000
0.562687 0.559851 0.000000
0.568657 0.565075 0.000000
0.574627 0.570299 0.000000
0.580597 0.575522 0.000000
0.586567 0.580746 0.000000
0.592537 0.585970 0.000000
0.598507 0.591194 0.000000
0.604478 0.596418 0.000000
0.610448 0.601642 0.000000
0.616418 0.606866 0.000000
0.622388 0.612090 0.000000
0.628358 0.617313 0.000000
0.634328 0.622537 0.000000
0.640299 0.627761 0.000000
0.646269 0.632985 0.000000
0.652239 0.638209 0.000000
0.658209 0.643433 0.000000
0.664179 0.648657 0.000000
0.670149 0.653881 0.000000
0.676119 0.659104 0.000000
0.682090 0.664328 0.000000
0.688060 0.669552 0.000000
0.694030 0.674776 0.000000
0.516135 0.080917 0.000000
0.549338 0.042552 0.000000
0.567302 0.088709 0.000000
0.555658 0.563778 0.000000
0.559301 0.571359 0.000000
0.552318 0.570919 0.000000
0.603235 0.047100 0.000000
0.446553 0.448087 0.000000
0.438652 0.443189 0.000000
0.445116 0.440368 0.000000
0.437254 0.190586 0.000000
0.465954 0.201747 0.000000
0.439184 0.213838 0.000000
0.453137 0.228102 0.000000
0.522423 0.410182 0.000000
0.522098 0.390982 0.000000
0.537289 0.398500 0.000000
0.453388 0.527105 0.000000
0.462022 0.524948 0.000000
0.461218 0.533993 0.000000
0.324300 0.374550 0.000000
0.319287 0.386214 0.000000
0.314834 0.375138 0.000000
0.668809 0.628853 0.000000
0.677366 0.632907 0.000000
0.668274 0.639611 0.000000
0.469934 0.529282 0.000000
0.439703 0.436699 0.000000
0.446608 0.432083 0.000000
0.542854 0.633425 0.000000
0.535117 0.647070 0.000000
0.524302 0.633157 0.000000
0.519372 0.648877 0.000000
0.586338 0.611293 0.000000
0.591638 0.624149 0.000000
0.575478 0.621479 0.000000
0.437962 0.035513 0.000000
0.421505 0.085456 0.000000
0.394924 0.044162 0.000000
0.445207 0.955749 0.000000
0.429168 0.919510 0.000000
0.464409 0.914226 0.000000
0.317150 0.400904 0.000000
0.328626 0.395860 0.000000
0.439616 0.884412 0.000000
0.330406 0.381773 0.000000
0.676842 0.602700 0.000000
0.674982 0.614185 0.000000
0.665930 0.611798 0.000000
0.414707 0.535036 0.000000
0.420123 0.526072 0.000000
0.425338 0.533771 0.000000
0.398407 0.375558 0.000000
0.393804 0.363255 0.000000
0.407284 0.365452 0.000000
0.407758 0.523337 0.000000
0.899969 0.377867 0.000000
0.945915 0.378245 0.000000
0.914158 0.409130 0.000000
0.358219 0.436142 0.000000
0.361390 0.425428 0.000000
0.369309 0.432300 0.000000
0.465999 0.075074 0.000000
0.269944 0.367761 0.000000
0.266521 0.352125 0.000000
0.283474 0.357667 0.000000
0.385889 0.083020 0.000000
0.359482 0.060981 0.000000
0.279658 0.346766 0.000000
0.363604 0.104040 0.000000
0.511115 0.503731 0.000000
0.503243 0.499914 0.000000
0.509146 0.494910 0.000000
0.513188 0.475753 0.000000
0.504957 0.474656 0.000000
0.511959 0.464784 0.000000
0.311863 0.447505 0.000000
0.293019 0.442078 0.000000
0.305555 0.431691 0.000000
0.499204 0.464990 0.000000
0.293855 0.459576 0.000000
0.396676 0.236328 0.000000
0.371014 0.247362 0.000000
0.373003 0.229199 0.000000
0.384478 0.261522 0.000000
0.555704 0.523331 0.000000
0.551313 0.515879 0.000000
0.562752 0.515269 0.000000
0.554954 0.506854 0.000000
0.804236 0.611103 0.000000
0.819351 0.593503 0.000000
0.832061 0.615776 0.000000
0.509908 0.485173 0.000000
0.129738 0.481190 0.000000
0.110722 0.443736 0.000000
0.154857 0.452634 0.000000
0.089738 0.485299 0.000000
0.396427 0.153886 0.000000
0.393058 0.115469 0.000000
0.420333 0.126587 0.000000
0.442628 0.413512 0.000000
0.434815 0.404283 0.000000
0.446816 0.400259 0.000000
0.499770 0.482873 0.000000
0.353883 0.235057 0.000000
0.351360 0.254011 0.000000
0.332147 0.240870 0.000000
0.112307 0.405527 0.000000
0.140355 0.392788 0.000000
0.142004 0.423465 0.000000
0.334868 0.263052 0.000000
0.551239 0.594093 0.000000
0.560217 0.601969 0.000000
0.546711 0.604614 0.000000
0.398510 0.570197 0.000000
0.387124 0.557316 0.000000
0.399978 0.555748 0.000000
0.705281 0.743146 0.000000
0.722930 0.758853 0.000000
0.697202 0.758074 0.000000
0.380190 0.572638 0.000000
0.278345 0.431947 0.000000
0.292575 0.428097 0.000000
0.470820 0.540616 0.000000
0.478213 0.533042 0.000000
0.480161 0.543190 0.000000
0.415268 0.299334 0.000000
0.412465 0.313515 0.000000
0.400419 0.297680 0.000000
0.396495 0.317117 0.000000
0.718655 0.732879 0.000000
0.709319 0.677587 0.000000
0.715709 0.670111 0.000000
0.719283 0.682820 0.000000
0.212992 0.453899 0.000000
0.184619 0.470046 0.000000
0.186665 0.440862 0.000000
0.452307 0.386568 0.000000
0.460371 0.397715 0.000000
0.478664 0.456068 0.000000
0.476179 0.462123 0.000000
0.471250 0.456445 0.000000
0.464654 0.388544 0.000000
0.483415 0.461045 0.000000
0.357146 0.449596 0.000000
0.344653 0.443966 0.000000
0.554562 0.459423 0.000000
0.543333 0.457517 0.000000
0.553850 0.449505 0.000000
0.543131 0.445036 0.000000
0.347312 0.459318 0.000000
0.781088 0.538918 0.000000
0.810909 0.534152 0.000000
0.799399 0.553968 0.000000
0.402869 0.534333 0.000000
0.408011 0.546121 0.000000
0.703844 0.670118 0.000000
0.552234 0.794299 0.000000
0.528593 0.795589 0.000000
0.539188 0.770312 0.000000
0.596088 0.518714 0.000000
0.593029 0.508081 0.000000
0.604120 0.510731 0.000000
0.384880 0.468703 0.000000
0.382270 0.455963 0.000000
0.394062 0.458803 0.000000
0.374729 0.466839 0.000000
0.340939 0.294790 0.000000
0.324530 0.290188 0.000000
0.338473 0.279923 0.000000
0.465367 0.336545 0.000000
0.477337 0.352846 0.000000
0.459495 0.350024 0.000000
0.584947 0.516440 0.000000
0.326802 0.302636 0.000000
0.945343 0.420397 0.000000
0.779746 0.749037 0.000000
0.771533 0.774140 0.000000
0.758291 0.749848 0.000000
0.743435 0.765852 0.000000
0.751942 0.297541 0.000000
0.784264 0.292048 0.000000
0.772562 0.330207 0.000000
0.812744 0.305799 0.000000
0.655547 0.494535 0.000000
0.649767 0.472522 0.000000
0.671966 0.480244 0.000000
0.612062 0.502007 0.000000
0.616789 0.515227 0.000000
0.403059 0.898561 0.000000
0.391512 0.946883 0.000000
0.625780 0.504699 0.000000
0.635988 0.491275 0.000000
0.596252 0.650380 0.000000
0.583401 0.655132 0.000000
0.583737 0.644777 0.000000
0.713099 0.416502 0.000000
0.708474 0.388943 0.000000
0.733625 0.389568 0.000000
0.684835 0.406222 0.000000
0.656936 0.416423 0.000000
0.633624 0.425116 0.000000
0.634362 0.400237 0.000000
0.646884 0.740682 0.000000
0.654954 0.726002 0.000000
0.663305 0.741855 0.000000
0.732481 0.441235 0.000000
0.751303 0.460839 0.000000
0.721338 0.462235 0.000000
0.759622 0.437863 0.000000
0.462761 0.363156 0.000000
0.373644 0.622389 0.000000
0.346217 0.613642 0.000000
0.370315 0.594521 0.000000
0.351411 0.640635 0.000000
0.695337 0.690220 0.000000
0.705202 0.700133 0.000000
0.692303 0.700990 0.000000
0.521365 0.516400 0.000000
0.522992 0.510597 0.000000
0.527633 0.513574 0.000000
0.291567 0.329512 0.000000
0.294927 0.318154 0.000000
0.365771 0.366553 0.000000
0.366135 0.358691 0.000000
0.374180 0.368122 0.000000
0.408232 0.327056 0.000000
0.423479 0.328280 0.000000
0.411272 0.339740 0.000000
0.664110 0.670607 0.000000
0.667245 0.662649 0.000000
[...]
POINT_DATA 1818
SCALARS UX float 1
LOOKUP_TABLE default
-0.000000
0.000000
0.156231
-0.383475
-0.212470
0.124237
0.000000
-0.000000
-0.000000
-0.000000
-0.000000
-0.000000
-0.000000
-0.000000
-0.000000
-0.000000
0.000000
0.000000
0.000000
0.000000
0.000000
0.000000
0.104130
0.164279
0.212486
0.255878
0.295543
0.332429
0.366144
0.393248
0.409708
0.410073
0.385900
0.345062
0.289980
0.235656
0.191664
0.167351
0.112366
0.072885
0.037345
0.005967
-0.019642
-0.040814
-0.061734
-0.084684
-0.111250
-0.141085
-0.173035
-0.206618
-0.241107
-0.276006
-0.310757
-0.347415
-0.386563
-0.394739
-0.408994
-0.427394
-0.449262
-0.472491
-0.494578
-0.511047
-0.515086
-0.501376
-0.465508
-0.407044
-0.334523
-0.259113
-0.184669
-0.113393
-0.210785
-0.203915
-0.202503
-0.195225
-0.190152
-0.183132
-0.175673
-0.171313
-0.165567
-0.160447
-0.157361
-0.153024
-0.149202
-0.146671
-0.140627
-0.136857
-0.134925
-0.130332
-0.126330
-0.120769
-0.116574
-0.111534
-0.107083
-0.101382
-0.096415
-0.092545
-0.086202
-0.080560
-0.076856
-0.071209
-0.067617
-0.063204
-0.056822
-0.052392
-0.043618
-0.037714
-0.032098
-0.024386
-0.019417
-0.010723
-0.005448
0.000665
0.004537
0.009073
0.012849
0.016707
0.020247
0.025345
0.028739
0.032756
0.038692
0.041621
0.045077
0.050189
0.054039
0.058724
0.064087
0.065616
0.068463
0.077782
0.088707
0.095584
0.100611
0.103673
0.111971
0.117157
-0.005004
-0.002139
0.002540
-0.104925
-0.120488
-0.147495
0.002348
-0.005737
-0.025945
0.022613
-0.018072
-0.006279
-0.015223
-0.006306
0.120931
0.110135
0.121463
-0.273832
-0.266017
-0.267338
-0.307539
-0.331140
-0.323054
0.212002
0.207786
0.196425
-0.259018
0.012766
0.053119
-0.178270
-0.176264
-0.191279
-0.185260
-0.130038
-0.130774
-0.152751
-0.006220
-0.014191
-0.008410
-0.124925
-0.136030
-0.117977
-0.342590
-0.330805
-0.135233
-0.309212
0.240938
0.231534
0.224823
-0.295412
-0.294913
-0.290121
0.013078
0.008070
0.023819
-0.302287
0.294958
0.320080
0.321080
-0.329280
-0.319874
-0.317187
-0.009700
-0.353668
-0.339416
-0.327061
-0.015824
-0.012226
-0.313688
-0.022014
0.050314
0.022739
0.080596
0.131010
0.120299
0.132497
-0.358793
-0.368154
-0.360281
0.117487
-0.368221
-0.033767
-0.048726
-0.046401
-0.038337
0.153520
0.154800
0.172767
0.166696
0.317491
0.327438
0.327595
0.116069
-0.455224
-0.463087
-0.442682
-0.474953
-0.027412
-0.021480
-0.019362
0.064147
0.055656
0.068547
0.091501
-0.057737
-0.062712
-0.072258
-0.449792
-0.430870
-0.443514
-0.077351
-0.179766
-0.169913
-0.185603
-0.289651
-0.300396
-0.295077
0.038141
0.048370
0.021204
-0.297065
-0.375156
-0.366358
-0.259720
-0.251399
-0.251835
-0.001598
0.003967
-0.013362
-0.006910
0.065883
0.170280
0.206217
0.181331
-0.412968
-0.427171
-0.426226
0.068734
0.078745
0.089418
0.071326
0.071671
0.077842
0.093477
-0.334044
-0.340602
0.159932
0.153289
0.155519
0.148152
-0.340624
0.302532
0.317878
0.315937
-0.301482
-0.294987
0.175175
-0.089329
-0.104022
-0.105417
0.198662
0.195183
0.201979
-0.319747
-0.318442
-0.309282
-0.325911
-0.076195
-0.096671
-0.078124
0.050092
0.065947
0.054624
0.190955
-0.096450
0.343601
0.134640
0.092853
0.104623
0.067278
0.161200
0.174590
0.193052
0.199128
0.221783
0.209931
0.223595
0.203868
0.209660
-0.152964
-0.153751
0.211377
0.211462
-0.123321
-0.134009
-0.138183
0.212137
0.194223
0.207827
0.192104
0.184468
0.178648
0.164941
-0.026183
-0.019009
-0.008972
0.235593
0.255688
0.240018
0.248950
0.063851
-0.276552
-0.294502
-0.291766
-0.278873
0.075828
0.087811
0.052560
0.031797
0.072791
0.082415
-0.242663
-0.191157
-0.049575
-0.033073
-0.023517
0.007805
0.019864
0.016819
0.006346
0.039415
0.042812
-0.326265
-0.329116
-0.335450
-0.336236
-0.019562
-0.040843
-0.067006
0.048891
0.052065
0.062707
0.067492
-0.103291
-0.119124
-0.088191
-0.009460
-0.048572
-0.055208
-0.229726
-0.233867
-0.241399
-0.050102
-0.090759
-0.087754
0.013603
0.033294
0.050276
0.019645
0.033080
-0.059705
-0.016228
-0.222673
-0.190756
-0.181754
-0.221402
-0.385305
-0.370243
-0.379595
-0.329703
-0.340812
-0.325720
-0.054920
-0.053248
-0.173714
0.188808
0.190509
-0.343651
-0.343723
-0.335490
-0.169427
-0.313334
-0.296668
-0.280577
-0.272958
-0.309955
-0.228305
-0.235872
-0.235105
-0.225609
-0.213106
-0.201782
0.229773
0.231155
0.207613
0.249256
-0.359961
-0.354287
-0.349595
-0.201218
-0.234826
-0.187295
-0.138314
-0.119176
-0.098245
-0.061130
-0.163628
-0.188725
-0.221311
0.225131
0.188985
-0.256713
-0.245908
-0.238430
-0.054667
-0.102027
-0.098708
-0.240875
-0.235976
-0.234349
-0.130566
-0.118893
-0.117112
-0.214031
-0.232182
-0.020824
-0.028099
-0.064948
-0.065685
-0.048727
-0.081720
0.151403
0.150977
0.137987
-0.463004
-0.484126
-0.460586
-0.377951
-0.353846
-0.360641
-0.368479
-0.015810
-0.049447
-0.068314
-0.073304
-0.201324
-0.217907
-0.200192
-0.220224
-0.182558
-0.197485
-0.180845
-0.295585
-0.305945
-0.290574
-0.296480
-0.295632
-0.304154
-0.300706
-0.265883
0.005964
-0.033977
-0.035195
0.096332
0.080845
0.083227
0.093714
0.246009
0.222283
0.226413
0.257354
0.273245
-0.247515
-0.266171
-0.281311
0.146196
0.150567
0.094311
-0.270224
-0.261777
-0.277013
-0.083793
-0.044507
-0.242299
-0.057785
-0.088528
-0.107788
0.087748
0.096920
0.087353
0.169656
0.176054
0.176182
-0.061164
-0.065943
-0.103790
0.183639
-0.309282
-0.285089
-0.335280
-0.316475
-0.344374
0.066668
0.080998
0.149439
0.156268
0.147572
0.158802
0.145465
-0.480889
-0.050226
-0.036873
-0.050457
-0.037348
-0.326031
-0.347532
-0.301073
0.159203
0.176817
0.198245
-0.051339
0.133520
0.069084
0.161022
0.164211
-0.021133
0.000717
-0.006018
-0.342676
-0.333081
-0.332604
-0.121851
-0.136385
-0.436508
0.167736
0.176275
0.172130
0.056872
0.056669
-0.139176
-0.139251
-0.120807
0.063069
0.181777
-0.357359
-0.362561
-0.366466
-0.288236
-0.261903
-0.264757
0.063999
0.121377
0.083008
0.112569
0.028312
0.161527
0.168072
-0.213056
-0.160108
-0.172918
-0.001007
0.011852
-0.357756
-0.352395
-0.343390
0.003872
0.008184
0.006907
-0.001261
-0.354175
-0.364137
-0.365008
-0.175042
-0.211727
-0.151057
-0.091237
-0.096901
-0.117823
-0.255657
-0.219698
0.147939
-0.335404
-0.364135
0.129992
0.166966
0.176734
-0.242339
0.161898
0.144964
-0.223503
-0.218524
0.254863
0.267469
0.266387
-0.234208
0.139723
0.141356
0.213323
-0.280429
-0.279930
-0.274172
-0.180172
-0.164427
-0.093192
-0.288454
0.078152
0.087694
-0.285086
-0.149929
-0.163926
-0.147690
-0.162820
0.314295
0.294346
0.291358
0.155016
0.121490
0.105402
-0.149022
-0.144200
-0.128107
-0.042239
-0.027687
0.091166
0.026933
0.038373
0.069173
0.001317
-0.344058
-0.339326
-0.019064
-0.017150
-0.293510
0.203046
0.232245
0.189379
0.365842
0.230357
0.062152
0.067785
0.077900
-0.340347
0.071652
0.028313
0.032294
0.039738
-0.142552
-0.199243
-0.158832
-0.145297
0.169795
-0.282220
-0.251796
-0.344756
-0.351414
-0.347400
-0.267106
-0.258468
-0.261288
-0.271307
0.258676
0.247513
0.263505
-0.252246
-0.010669
0.284159
0.220625
0.218221
0.085666
0.133988
0.081811
0.144025
0.114506
0.159519
-0.001597
-0.244525
-0.043276
-0.273902
-0.302043
-0.308041
-0.329265
0.035347
0.044726
-0.134164
-0.165811
0.137405
-0.017687
-0.435306
-0.034622
-0.298962
-0.285925
-0.272146
-0.041963
0.267340
0.259783
0.254581
0.251133
0.041933
0.026000
-0.112398
-0.108766
-0.094899
0.244064
0.246355
0.238835
0.238080
0.192946
0.209820
-0.255350
-0.264203
0.256728
-0.375328
-0.334794
-0.347409
0.277105
0.266179
0.257253
-0.090881
-0.106357
-0.085070
0.280478
0.304582
0.164946
0.123069
0.140618
0.095500
-0.113136
0.115512
0.112447
0.100154
0.245459
0.275315
0.260773
-0.270478
-0.287715
-0.305345
0.291995
-0.203583
-0.186550
-0.239533
-0.229986
-0.246728
-0.298721
0.039490
0.026732
0.068963
0.336299
0.358460
0.369857
0.320660
0.257550
0.320522
0.293748
-0.069234
-0.065706
-0.416534
-0.362845
-0.378931
-0.075811
0.096173
0.018970
-0.418029
-0.427034
-0.450141
-0.377123
-0.377817
-0.475153
0.080171
0.028261
-0.188244
-0.018637
-0.203310
-0.184423
-0.177100
0.378380
0.395855
-0.019427
-0.019476
0.001359
0.069458
0.046793
0.088004
0.028957
-0.002186
0.058259
-0.009009
-0.021538
-0.233744
-0.281416
-0.285597
-0.253113
-0.361449
-0.369471
-0.372028
-0.496377
-0.493551
-0.020980
-0.032645
-0.016458
-0.032800
-0.037153
-0.045790
-0.028111
-0.037709
-0.470362
-0.009018
-0.014235
-0.097929
-0.128922
-0.123663
0.381966
0.361868
-0.383372
0.300467
0.290676
0.290082
0.301075
-0.439060
-0.438906
-0.423486
0.313456
-0.008145
0.340572
0.022020
-0.000366
-0.006276
-0.017948
-0.130862
0.008256
-0.009510
-0.064752
-0.052077
-0.047720
0.170986
0.146168
-0.054512
-0.159895
-0.154175
-0.027831
-0.149694
0.115560
0.139089
0.118608
0.145028
-0.352262
-0.351983
-0.173886
-0.102791
-0.017724
-0.035392
0.049807
0.044230
0.028632
-0.029808
-0.067854
-0.392232
-0.368450
-0.373436
-0.382236
-0.155638
-0.419039
-0.405196
-0.432013
-0.400119
-0.408778
-0.201875
-0.188396
-0.193592
-0.172850
-0.196929
-0.108771
-0.086619
-0.084514
-0.065037
-0.406936
-0.441412
-0.407029
0.116079
0.107680
0.112686
-0.221541
-0.232172
0.034202
0.023936
-0.395723
-0.411048
-0.397634
-0.327090
-0.323135
-0.316008
-0.168954
-0.194140
-0.364321
0.122990
0.056213
0.039167
-0.317307
-0.280554
-0.259607
-0.283997
-0.326849
-0.431964
0.171398
0.145171
-0.320125
-0.315943
-0.331883
-0.326880
0.046328
0.035861
-0.322574
0.235269
-0.043595
0.000004
0.033743
0.048252
0.028206
-0.128713
0.035814
-0.261454
-0.225518
-0.211120
-0.226726
-0.223109
-0.329720
-0.331492
-0.345049
0.052779
0.045677
-0.347899
0.114544
0.230697
0.229098
-0.479914
-0.458482
-0.455804
-0.128172
-0.140830
-0.146109
-0.344280
0.353153
0.371203
0.350723
0.334833
0.334779
-0.392455
-0.375367
-0.299625
-0.314418
-0.300314
0.018031
0.151471
0.115553
0.210130
-0.348110
-0.348601
-0.221548
-0.233324
-0.212219
-0.336824
-0.389173
-0.233046
0.098938
0.101986
0.102141
-0.250647
-0.230418
-0.268404
0.260006
0.269242
0.275225
-0.261672
0.329382
0.321169
-0.427191
-0.137273
0.052783
-0.373728
-0.400817
-0.085886
-0.096434
0.213935
0.208351
0.206197
-0.042519
-0.033879
0.221613
-0.035689
0.227812
-0.377844
-0.401826
0.261634
0.273024
0.235925
0.075879
-0.024205
0.295835
0.255114
0.334415
0.240746
-0.060657
-0.070303
-0.052467
-0.060144
0.124646
-0.063219
-0.073929
0.131581
-0.255650
-0.217280
-0.246986
-0.214174
-0.208051
0.087963
0.104626
-0.195130
-0.201245
-0.207940
0.122394
0.116009
0.124749
-0.252354
-0.247069
-0.241052
-0.333649
0.283301
0.292518
0.294017
-0.369396
-0.381717
-0.393071
-0.028264
-0.038160
-0.038360
-0.393995
-0.135702
-0.048740
-0.120049
-0.061691
-0.418971
-0.414543
0.344074
0.110733
0.223173
0.204119
-0.234851
-0.244543
-0.009648
-0.021933
-0.029919
-0.413810
-0.010749
-0.316642
-0.404428
-0.389851
-0.309521
-0.310795
-0.315684
0.245485
0.241234
0.243282
0.254520
0.058034
0.074328
0.058694
0.088092
-0.359389
-0.201242
-0.212092
-0.370128
-0.170917
0.076245
0.071091
0.038736
0.214816
0.168792
0.146344
0.053907
0.033651
-0.053594
-0.366897
-0.360405
-0.354912
-0.404245
-0.105466
-0.044704
-0.114249
-0.048190
-0.120600
0.090409
0.077553
-0.013885
-0.012613
-0.006963
0.003697
0.239336
0.057114
0.041859
0.031779
0.020720
0.074945
-0.068011
-0.051571
0.317280
-0.233257
-0.242600
-0.245194
-0.225686
-0.258632
0.301918
0.265630
0.275891
0.252227
0.242917
0.233226
-0.386946
0.038425
0.011138
0.024725
0.022781
0.072380
0.077202
0.081079
0.359375
0.375475
0.280951
-0.306322
-0.309559
-0.075778
-0.089437
0.217955
0.248319
0.229262
0.225306
-0.310722
-0.305123
-0.140708
-0.149268
-0.073967
-0.349324
-0.343144
0.002027
-0.352111
0.160883
0.164472
0.161477
0.002067
0.014740
0.244667
0.223562
-0.225564
-0.241086
-0.222279
-0.237764
-0.213508
-0.214670
0.112739
0.111998
-0.410692
0.097020
0.150063
0.165427
0.311919
0.292186
0.132684
0.007514
0.004755
-0.011290
-0.058043
-0.122692
-0.107190
-0.126673
-0.135970
-0.304893
-0.309377
0.280174
0.123763
0.096725
0.111590
0.065313
-0.077771
-0.098370
-0.102715
0.206088
0.176175
0.160342
-0.310358
-0.311407
-0.277284
-0.039077
-0.081184
-0.066148
-0.059540
0.004826
-0.094928
-0.084272
-0.063916
-0.124594
0.016165
-0.041313
0.277685
0.288311
0.291066
0.241396
0.280041
0.277666
-0.324221
-0.070211
-0.161386
-0.179454
-0.178471
-0.154399
-0.171730
-0.192917
0.039322
0.204238
0.030615
-0.035655
-0.031842
0.252693
0.250910
0.173547
0.193393
0.186675
-0.260823
-0.295615
0.019210
0.040490
-0.339098
0.260178
0.260304
0.232034
0.220953
-0.334862
-0.340695
-0.354155
0.235356
0.234862
0.144349
0.130276
0.129644
0.128895
0.227281
0.251570
0.010173
0.194334
0.137658
0.153231
-0.025021
-0.162009
-0.132020
0.285526
0.068327
-0.148618
0.205987
0.232537
-0.082569
-0.101521
-0.149300
-0.167767
-0.155781
-0.191217
0.201984
0.192747
-0.082545
-0.124764
-0.115403
-0.203659
-0.203774
-0.446666
0.202943
0.200962
0.196949
0.197081
0.198351
-0.303401
0.174202
-0.290467
-0.028689
-0.243955
-0.328224
-0.140556
-0.099468
-0.098512
-0.260433
0.022825
-0.312188
-0.412289
-0.014647
0.004498
-0.022922
-0.306415
-0.275801
-0.225057
0.203614
0.059598
0.052364
-0.210836
-0.089320
0.163567
0.199323
-0.256594
-0.259992
-0.272576
0.117604
-0.219658
0.248393
0.236108
0.038509
-0.157518
-0.172018
-0.181443
-0.224218
-0.214928
-0.069777
0.007587
0.312156
0.332085
0.110993
-0.089038
0.126913
-0.048481
-0.058666
0.154489
-0.032611
-0.116546
0.306737
-0.031101
-0.301220
-0.301539
0.223611
0.091145
0.107131
0.343428
0.116459
0.036822
-0.006816
-0.383132
-0.371931
-0.048105
-0.066011
-0.291827
-0.308827
-0.294935
0.340695
-0.310635
-0.139997
-0.205312
0.244988
-0.118622
-0.111562
-0.103604
-0.228780
0.015433
-0.006146
0.113351
-0.153874
-0.188581
0.172868
0.183556
0.198807
0.199962
0.190069
0.081345
-0.388368
-0.159179
-0.195195
-0.191992
-0.089836
-0.048609
-0.051023
0.131371
0.140697
-0.073119
-0.118077
0.058071
0.104160
0.151158
0.018743
0.031210
0.032203
0.043903
-0.196901
-0.253957
-0.221313
0.212206
0.208746
0.221083
-0.203453
-0.207390
0.025528
-0.280631
-0.282975
0.023752
0.029228
0.235711
0.020252
-0.321304
-0.349640
-0.319112
-0.240537
0.048712
-0.213798
-0.000096
-0.010738
-0.388170
-0.398191
0.064242
-0.025377
0.037661
-0.213711
0.096173
-0.005042
0.089332
-0.310300
-0.306932
0.118190
-0.243596
-0.329328
-0.321231
-0.349096
-0.285339
-0.215545
-0.173510
-0.159497
0.167021
0.178178
0.181761
-0.257019
-0.239477
-0.005366
-0.007567
-0.276328
-0.269449
-0.283192
-0.079928
-0.068943
-0.204502
-0.265472
0.229288
0.223135
0.012140
-0.295376
-0.296120
-0.320497
-0.303276
-0.300863
0.012723
0.022796
0.152924
0.094709
-0.180239
-0.165452
-0.223748
0.023019
0.042798
0.075514
0.073424
-0.288619
0.015824
0.016287
-0.101594
-0.157432
0.052315
0.038550
-0.211557
-0.181462
-0.022757
0.131620
0.127836
0.193581
-0.305298
0.193512
-0.030813
0.268797
0.273522
-0.319048
-0.316993
-0.039919
-0.035613
-0.086582
-0.097026
0.143158
0.223176
0.089196
-0.146939
0.205597
-0.341800
0.162289
0.128438
0.128219
-0.346140
0.224876
0.095393
0.056084
0.164007
0.154783
0.041525
0.098688
-0.340431
-0.328419
-0.302602
-0.373305
0.267713
0.172615
0.185464
0.175407
0.013245
-0.391554
0.283483
-0.332495
-0.291911
-0.276845
0.006911
0.052009
0.022830
0.182924
0.112132
-0.177249
-0.167623
-0.322737
-0.038253
0.115044
0.138777
-0.359000
-0.350226
-0.168197
0.041915
0.098662
0.045588
0.096005
0.137656
0.130558
0.078786
-0.287143
0.120869
-0.318014
-0.099161
0.158718
0.189568
0.164402
0.150782
0.272558
0.191479
-0.291002
-0.262144
-0.253885
0.252052
0.256640
0.010990
0.216842
-0.195473
-0.206974
-0.203049
0.094337
0.104717
0.100759
0.107607
-0.178432
-0.026605
0.257264
0.112979
-0.253703
-0.158922
-0.390602
-0.142482
0.149802
0.198417
0.201313
-0.191735
-0.200277
-0.379335
0.255479
0.243829
-0.192176
-0.090425
0.018092
0.004702
-0.310951
0.014098
-0.025373
-0.163341
0.265464
0.305767
0.091700
0.061725
0.048627
-0.292421
-0.101542
0.004329
0.018030
-0.308036
0.298095
-0.281746
0.097866
0.093883
-0.383969
0.164750
0.183514
0.150368
-0.118745
0.157693
0.097428
-0.194122
0.222649
-0.185157
0.034082
0.012033
0.018735
-0.234002
0.066776
-0.171360
0.018119
-0.048460
-0.045027
-0.188894
0.310599
0.185081
-0.260563
-0.264584
-0.089042
0.104702
-0.391189
-0.410575
-0.419977
-0.212649
-0.299781
0.172173
-0.204212
0.116368
0.208720
0.211569
-0.014511
-0.170856
-0.189475
-0.257840
0.250181
0.242222
0.126250
0.117380
-0.102969
-0.153676
-0.322185
-0.323534
0.143384
-0.295574
-0.139325
-0.147478
-0.284528
-0.289978
0.146827
0.093088
0.189555
0.157192
-0.171460
0.207159
0.171125
-0.116722
-0.235964
-0.256336
0.172151
0.150515
-0.242546
0.167809
0.089847
-0.313733
0.221396
-0.123777
-0.354366
0.208668
0.198742
-0.111111
-0.106455
-0.257770
-0.304932
0.203606
0.209147
0.213761
-0.035266
0.140849
0.001095
-0.256730
-0.358638
0.129909
0.134232
-0.261376
-0.277596
0.165264
0.211323
0.024231
0.069476
0.045417
0.194850
0.289171
-0.053195
-0.047357
-0.127480
-0.319144
0.142564
-0.251897
-0.052238
-0.051641
0.031528
0.088258
-0.272792
0.185520
-0.259296
-0.162476
0.212557
-0.233921
-0.175920
-0.209484
-0.279156
-0.070042
-0.037949
-0.269406
0.198033
-0.277080
-0.004838
-0.028887
-0.094334
-0.001005
-0.072684
-0.064379
0.140354
-0.247343
-0.259177
-0.072658
-0.000713
-0.027327
-0.162834
-0.168833
-0.110777
-0.185936
-0.130826
-0.057682
-0.168302
-0.101527
-0.102468
0.036433
-0.230585
0.220119
0.176984
-0.036942
-0.296518
-0.288821
-0.078771
0.078740
0.103444
-0.130745
0.004426
-0.244420
-0.279958
-0.002928
0.140785
0.170896
0.179295
0.228276
-0.277244
0.104622
-0.250010
-0.211705
-0.258695
0.158246
-0.146529
0.140480
-0.286915
0.100322
0.089808
0.080124
-0.333835
0.020006
-0.130269
-0.168367
0.012365
-0.137389
-0.283428
0.044700
0.179067
-0.115783
-0.199308
-0.005612
SCALARS UY float 1
LOOKUP_TABLE default
-0.000000
-0.000000
-1.360000
-1.360000
-0.353530
-0.975061
-0.000000
-0.000000
-0.000000
-0.000000
-0.000000
-0.000000
-0.000000
-0.000000
-0.000000
-0.000000
-0.000000
-0.000000
-0.000000
-0.000000
-0.000000
-0.000000
-0.119166
-0.208561
-0.290405
-0.367369
-0.441590
-0.512536
-0.579283
-0.639892
-0.696908
-0.748329
-0.803544
-0.866381
-0.943239
-1.035411
-1.138301
-1.247784
-1.360000
-1.360000
-1.360000
-1.360000
-1.360000
-1.360000
-1.360000
-1.360000
-1.360000
-1.360000
-1.360000
-1.360000
-1.360000
-1.360000
-1.360000
-1.360000
-1.272331
-1.185254
-1.099999
-1.016338
-0.937043
-0.862520
-0.794117
-0.733262
-0.677411
-0.627004
-0.574557
-0.512983
-0.439818
-0.349531
-0.250320
-0.140102
-0.358545
-0.372656
-0.388054
-0.396659
-0.407228
-0.425270
-0.436954
-0.445231
-0.453663
-0.461972
-0.468923
-0.480028
-0.490870
-0.498116
-0.509127
-0.517101
-0.523490
-0.532511
-0.540525
-0.549438
-0.556746
-0.564198
-0.570707
-0.579767
-0.587974
-0.591158
-0.601577
-0.611079
-0.617235
-0.626553
-0.634152
-0.642351
-0.652059
-0.655131
-0.663791
-0.669063
-0.674577
-0.683529
-0.687442
-0.697097
-0.703314
-0.711870
-0.717880
-0.728675
-0.737833
-0.746635
-0.755454
-0.765993
-0.774820
-0.784284
-0.796591
-0.804702
-0.811700
-0.823695
-0.834101
-0.845400
-0.857790
-0.868334
-0.877640
-0.893954
-0.912140
-0.925579
-0.934403
-0.942100
-0.952412
-0.964073
-0.056160
-0.030374
-0.067844
-0.828107
-0.857589
-0.873788
-0.036790
-0.488943
-0.492192
-0.451439
-0.126574
-0.142723
-0.146744
-0.163212
-0.371102
-0.349981
-0.363580
-0.842123
-0.839305
-0.853439
-0.546447
-0.577489
-0.556769
-0.756836
-0.763741
-0.806907
-0.845961
-0.448691
-0.411621
-0.996268
-1.011126
-0.992326
-1.009134
-0.953133
-0.977798
-0.980352
-0.021086
-0.050736
-0.025427
-1.315435
-1.276607
-1.276283
-0.602598
-0.598388
-1.241657
-0.563630
-0.705757
-0.727636
-0.718505
-0.840947
-0.831608
-0.843341
-0.325127
-0.305982
-0.305232
-0.823525
-0.496385
-0.515290
-0.541081
-0.680540
-0.661779
-0.675052
-0.047447
-0.500218
-0.462558
-0.477087
-0.048290
-0.035533
-0.445433
-0.061203
-0.567321
-0.581103
-0.526949
-0.458056
-0.459162
-0.438540
-0.673520
-0.653989
-0.646094
-0.441405
-0.680353
-0.156262
-0.162027
-0.146995
-0.177495
-0.541927
-0.525620
-0.519397
-0.504579
-0.790916
-0.766924
-0.799002
-0.482180
-0.674114
-0.628389
-0.633402
-0.683465
-0.093138
-0.068035
-0.077221
-0.370110
-0.357335
-0.347783
-0.493563
-0.151702
-0.167593
-0.160641
-0.579780
-0.555621
-0.595916
-0.179122
-0.938991
-0.950232