# vtk DataFile Version 2.0
Test
ASCII
DATASET POLYDATA
POINTS 1818 float
0.000000 0.000000 0.000000
1.000000 0.000000 0.000000
1.000000 1.000000 0.000000
0.000000 1.000000 0.000000
0.300000 0.330000 0.000000
0.700000 0.680000 0.000000
0.058824 0.000000 0.000000
0.117647 0.000000 0.000000
0.176471 0.000000 0.000000
0.235294 0.000000 0.000000
0.294118 0.000000 0.000000
0.352941 0.000000 0.000000
0.411765 0.000000 0.000000
0.470588 0.000000 0.000000
0.529412 0.000000 0.000000
0.588235 0.000000 0.000000
0.647059 0.000000 0.000000
0.705882 0.000000 0.000000
0.764706 0.000000 0.000000
0.823529 0.000000 0.000000
0.882353 0.000000 0.000000
0.941176 0.000000 0.000000
1.000000 0.058824 0.000000
1.000000 0.117647 0.000000
1.000000 0.176471 0.000000
1.000000 0.235294 0.000000
1.000000 0.294118 0.000000
1.000000 0.352941 0.000000
1.000000 0.411765 0.000000
1.000000 0.470588 0.000000
1.000000 0.529412 0.000000
1.000000 0.588235 0.000000
1.000000 0.647059 0.000000
1.000000 0.705882 0.000000
1.000000 0.764706 0.000000
1.000000 0.823529 0.000000
1.000000 0.882353 0.000000
1.000000 0.941176 0.000000
0.941176 1.000000 0.000000
0.882353 1.000000 0.000000
0.823529 1.000000 0.000000
0.764706 1.000000 0.000000
0.705882 1.000000 0.000000
0.647059 1.000000 0.000000
0.588235 1.000000 0.000000
0.529412 1.000000 0.000000
0.470588 1.000000 0.000000
0.411765 1.000000 0.000000
0.352941 1.000000 0.000000
0.294118 1.000000 0.000000
0.235294 1.000000 0.000000
0.176471 1.000000 0.000000
0.117647 1.000000 0.000000
0.058824 1.000000 0.000000
0.000000 0.941176 0.000000
0.000000 0.882353 0.000000
0.000000 0.823529 0.000000
0.000000 0.764706 0.000000
0.000000 0.705882 0.000000
0.000000 0.647059 0.000000
0.000000 0.588235 0.000000
0.000000 0.529412 0.000000
0.000000 0.470588 0.000000
0.000000 0.411765 0.000000
0.000000 0.352941 0.000000
0.000000 0.294118 0.000000
0.000000 0.235294 0.000000
0.000000 0.176471 0.000000
0.000000 0.117647 0.000000
0.000000 0.058824 0.000000
0.305970 0.335224 0.000000
0.311940 0.340448 0.000000
0.317910 0.345672 0.000000
0.323881 0.350896 0.000000
0.329851 0.356119 0.000000
0.335821 0.361343 0.000000
0.341791 0.366567 0.000000
0.347761 0.371791 0.000000
0.353731 0.377015 0.000000
0.359701 0.382239 0.000000
0.365672 0.387463 0.000000
0.371642 0.392687 0.000000
0.377612 0.397910 0.000000
0.383582 0.403134 0.000000
0.389552 0.408358 0.000000
0.395522 0.413582 0.000000
0.401493 0.418806 0.000000
0.407463 0.424030 0.000000
0.413433 0.429254 0.000000
0.419403 0.434478 0.000000
0.425373 0.439701 0.000000
0.431343 0.444925 0.000000
0.437313 0.450149 0.000000
0.443284 0.455373 0.000000
0.449254 0.460597 0.000000
0.455224 0.465821 0.000000
0.461194 0.471045 0.000000
0.467164 0.476269 0.000000
0.473134 0.481493 0.000000
0.479104 0.486716 0.000000
0.485075 0.491940 0.000000
0.491045 0.497164 0.000000
0.497015 0.502388 0.000000
0.502985 0.507612 0.000000
0.508955 0.512836 0.000000
0.514925 0.518060 0.000000
0.520896 0.523284 0.000000
0.526866 0.528507 0.000000
0.532836 0.533731 0.000000
0.538806 0.538955 0.000000
0.544776 0.544179 0.000000
0.550746 0.549403 0.000000
0.556716 0.554627 0.000000
0.562687 0.559851 0.000000
0.568657 0.565075 0.000000
0.574627 0.570299 0.000000
0.580597 0.575522 0.000000
0.586567 0.580746 0.000000
0.592537 0.585970 0.000000
0.598507 0.591194 0.000000
0.604478 0.596418 0.000000
0.610448 0.601642 0.000000
0.616418 0.606866 0.000000
0.622388 0.612090 0.000000
0.628358 0.617313 0.000000
0.634328 0.622537 0.000000
0.640299 0.627761 0.000000
0.646269 0.632985 0.000000
0.652239 0.638209 0.000000
0.658209 0.643433 0.000000
0.664179 0.648657 0.000000
0.670149 0.653881 0.000000
0.676119 0.659104 0.000000
0.682090 0.664328 0.000000
0.688060 0.669552 0.000000
0.694030 0.674776 0.000000
0.516135 0.080917 0.000000
0.549338 0.042552 0.000000
0.567302 0.088709 0.000000
0.555658 0.563778 0.000000
0.559301 0.571359 0.000000
0.552318 0.570919 0.000000
0.603235 0.047100 0.000000
0.446553 0.448087 0.000000
0.438652 0.443189 0.000000
0.445116 0.440368 0.000000
0.437254 0.190586 0.000000
0.465954 0.201747 0.000000
0.439184 0.213838 0.000000
0.453137 0.228102 0.000000
0.522423 0.410182 0.000000
0.522098 0.390982 0.000000
0.537289 0.398500 0.000000
0.453388 0.527105 0.000000
0.462022 0.524948 0.000000
0.461218 0.533993 0.000000
0.324300 0.374550 0.000000
0.319287 0.386214 0.000000
0.314834 0.375138 0.000000
0.668809 0.628853 0.000000
0.677366 0.632907 0.000000
0.668274 0.639611 0.000000
0.469934 0.529282 0.000000
0.439703 0.436699 0.000000
0.446608 0.432083 0.000000
0.542854 0.633425 0.000000
0.535117 0.647070 0.000000
0.524302 0.633157 0.000000
0.519372 0.648877 0.000000
0.586338 0.611293 0.000000
0.591638 0.624149 0.000000
0.575478 0.621479 0.000000
0.437962 0.035513 0.000000
0.421505 0.085456 0.000000
0.394924 0.044162 0.000000
0.445207 0.955749 0.000000
0.429168 0.919510 0.000000
0.464409 0.914226 0.000000
0.317150 0.400904 0.000000
0.328626 0.395860 0.000000
0.439616 0.884412 0.000000
0.330406 0.381773 0.000000
0.676842 0.602700 0.000000
0.674982 0.614185 0.000000
0.665930 0.611798 0.000000
0.414707 0.535036 0.000000
0.420123 0.526072 0.000000
0.425338 0.533771 0.000000
0.398407 0.375558 0.000000
0.393804 0.363255 0.000000
0.407284 0.365452 0.000000
0.407758 0.523337 0.000000
0.899969 0.377867 0.000000
0.945915 0.378245 0.000000
0.914158 0.409130 0.000000
0.358219 0.436142 0.000000
0.361390 0.425428 0.000000
0.369309 0.432300 0.000000
0.465999 0.075074 0.000000
0.269944 0.367761 0.000000
0.266521 0.352125 0.000000
0.283474 0.357667 0.000000
0.385889 0.083020 0.000000
0.359482 0.060981 0.000000
0.279658 0.346766 0.000000
0.363604 0.104040 0.000000
0.511115 0.503731 0.000000
0.503243 0.499914 0.000000
0.509146 0.494910 0.000000
0.513188 0.475753 0.000000
0.504957 0.474656 0.000000
0.511959 0.464784 0.000000
0.311863 0.447505 0.000000
0.293019 0.442078 0.000000
0.305555 0.431691 0.000000
0.499204 0.464990 0.000000
0.293855 0.459576 0.000000
0.396676 0.236328 0.000000
0.371014 0.247362 0.000000
0.373003 0.229199 0.000000
0.384478 0.261522 0.000000
0.555704 0.523331 0.000000
0.551313 0.515879 0.000000
0.562752 0.515269 0.000000
0.554954 0.506854 0.000000
0.804236 0.611103 0.000000
0.819351 0.593503 0.000000
0.832061 0.615776 0.000000
0.509908 0.485173 0.000000
0.129738 0.481190 0.000000
0.110722 0.443736 0.000000
0.154857 0.452634 0.000000
0.089738 0.485299 0.000000
0.396427 0.153886 0.000000
0.393058 0.115469 0.000000
0.420333 0.126587 0.000000
0.442628 0.413512 0.000000
0.434815 0.404283 0.000000
0.446816 0.400259 0.000000
0.499770 0.482873 0.000000
0.353883 0.235057 0.000000
0.351360 0.254011 0.000000
0.332147 0.240870 0.000000
0.112307 0.405527 0.000000
0.140355 0.392788 0.000000
0.142004 0.423465 0.000000
0.334868 0.263052 0.000000
0.551239 0.594093 0.000000
0.560217 0.601969 0.000000
0.546711 0.604614 0.000000
0.398510 0.570197 0.000000
0.387124 0.557316 0.000000
0.399978 0.555748 0.000000
0.705281 0.743146 0.000000
0.722930 0.758853 0.000000
0.697202 0.758074 0.000000
0.380190 0.572638 0.000000
0.278345 0.431947 0.000000
0.292575 0.428097 0.000000
0.470820 0.540616 0.000000
0.478213 0.533042 0.000000
0.480161 0.543190 0.000000
0.415268 0.299334 0.000000
0.412465 0.313515 0.000000
0.400419 0.297680 0.000000
0.396495 0.317117 0.000000
0.718655 0.732879 0.000000
0.709319 0.677587 0.000000
0.715709 0.670111 0.000000
0.719283 0.682820 0.000000
0.212992 0.453899 0.000000
0.184619 0.470046 0.000000
0.186665 0.440862 0.000000
0.452307 0.386568 0.000000
0.460371 0.397715 0.000000
0.478664 0.456068 0.000000
0.476179 0.462123 0.000000
0.471250 0.456445 0.000000
0.464654 0.388544 0.000000
0.483415 0.461045 0.000000
0.357146 0.449596 0.000000
0.344653 0.443966 0.000000
0.554562 0.459423 0.000000
0.543333 0.457517 0.000000
0.553850 0.449505 0.000000
0.543131 0.445036 0.000000
0.347312 0.459318 0.000000
0.781088 0.538918 0.000000
0.810909 0.534152 0.000000
0.799399 0.553968 0.000000
0.402869 0.534333 0.000000
0.408011 0.546121 0.000000
0.703844 0.670118 0.000000
0.552234 0.794299 0.000000
0.528593 0.795589 0.000000
0.539188 0.770312 0.000000
0.596088 0.518714 0.000000
0.593029 0.508081 0.000000
0.604120 0.510731 0.000000
0.384880 0.468703 0.000000
0.382270 0.455963 0.000000
0.394062 0.458803 0.000000
0.374729 0.466839 0.000000
0.340939 0.294790 0.000000
0.324530 0.290188 0.000000
0.338473 0.279923 0.000000
0.465367 0.336545 0.000000
0.477337 0.352846 0.000000
0.459495 0.350024 0.000000
0.584947 0.516440 0.000000
0.326802 0.302636 0.000000
0.945343 0.420397 0.000000
0.779746 0.749037 0.000000
0.771533 0.774140 0.000000
0.758291 0.749848 0.000000
0.743435 0.765852 0.000000
0.751942 0.297541 0.000000
0.784264 0.292048 0.000000
0.772562 0.330207 0.000000
0.812744 0.305799 0.000000
0.655547 0.494535 0.000000
0.649767 0.472522 0.000000
0.671966 0.480244 0.000000
0.612062 0.502007 0.000000
0.616789 0.515227 0.000000
0.403059 0.898561 0.000000
0.391512 0.946883 0.000000
0.625780 0.504699 0.000000
0.635988 0.491275 0.000000
0.596252 0.650380 0.000000
0.583401 0.655132 0.000000
0.583737 0.644777 0.000000
0.713099 0.416502 0.000000
0.708474 0.388943 0.000000
0.733625 0.389568 0.000000
0.684835 0.406222 0.000000
0.656936 0.416423 0.000000
0.633624 0.425116 0.000000
0.634362 0.400237 0.000000
0.646884 0.740682 0.000000
0.654954 0.726002 0.000000
0.663305 0.741855 0.000000
0.732481 0.441235 0.000000
0.751303 0.460839 0.000000
0.721338 0.462235 0.000000
0.759622 0.437863 0.000000
0.462761 0.363156 0.000000
0.373644 0.622389 0.000000
0.346217 0.613642 0.000000
0.370315 0.594521 0.000000
0.351411 0.640635 0.000000
0.695337 0.690220 0.000000
0.705202 0.700133 0.000000
0.692303 0.700990 0.000000
0.521365 0.516400 0.000000
0.522992 0.510597 0.000000
0.527633 0.513574 0.000000
0.291567 0.329512 0.000000
0.294927 0.318154 0.000000
0.365771 0.366553 0.000000
0.366135 0.358691 0.000000
0.374180 0.368122 0.000000
0.408232 0.327056 0.000000
0.423479 0.328280 0.000000
0.411272 0.339740 0.000000
0.664110 0.670607 0.000000
0.667245 0.662649 0.000000
[...]
POINT_DATA 1818
SCALARS UX float 1
LOOKUP_TABLE default
-0.000001
0.000001
0.313723
-0.838376
-0.435336
0.230236
0.000000
-0.000000
-0.000000
-0.000000
-0.000000
-0.000000
-0.000000
-0.000000
-0.000000
-0.000000
0.000000
0.000000
0.000000
0.000000
0.000000
0.000000
0.216472
0.339410
0.436681
0.523754
0.602223
0.674354
0.739584
0.791392
0.822649
0.823062
0.776479
0.698310
0.591055
0.483195
0.392735
0.340466
0.214787
0.127620
0.051401
-0.014482
-0.067483
-0.111164
-0.154580
-0.202494
-0.258201
-0.321027
-0.388533
-0.459655
-0.532910
-0.607311
-0.681695
-0.760487
-0.841767
-0.855039
-0.880179
-0.912905
-0.952077
-0.993557
-1.032579
-1.060642
-1.064763
-1.035139
-0.963641
-0.848070
-0.703619
-0.551495
-0.397414
-0.246242
-0.432383
-0.419548
-0.416621
-0.402251
-0.392247
-0.378459
-0.363884
-0.355424
-0.344229
-0.334272
-0.328318
-0.319881
-0.312428
-0.307502
-0.295683
-0.288329
-0.284594
-0.275603
-0.267749
-0.256847
-0.248626
-0.238720
-0.229974
-0.218756
-0.208997
-0.201383
-0.188849
-0.177704
-0.170377
-0.159191
-0.152063
-0.143312
-0.130665
-0.121879
-0.104530
-0.092813
-0.081676
-0.066396
-0.056505
-0.039267
-0.028758
-0.016596
-0.008871
0.000208
0.007757
0.015472
0.022590
0.032773
0.039590
0.047657
0.059512
0.065414
0.072318
0.082523
0.090267
0.099616
0.110298
0.113475
0.119190
0.137738
0.159438
0.173414
0.183419
0.189381
0.205904
0.216259
-0.011273
-0.005034
0.003458
-0.226276
-0.257634
-0.311919
0.003736
-0.028997
-0.069104
0.027857
-0.041035
-0.018126
-0.036053
-0.018855
0.227604
0.206757
0.229401
-0.566694
-0.550583
-0.553769
-0.628376
-0.677440
-0.660375
0.406775
0.398692
0.374238
-0.536500
0.008271
0.089216
-0.377529
-0.374408
-0.404130
-0.392957
-0.277940
-0.280088
-0.324657
-0.012545
-0.029134
-0.016831
-0.285856
-0.307941
-0.269824
-0.701733
-0.677112
-0.304655
-0.632099
0.467342
0.447626
0.433634
-0.611625
-0.609990
-0.600600
0.011800
0.002666
0.034144
-0.625047
0.593806
0.646508
0.645804
-0.675842
-0.656027
-0.650789
-0.020233
-0.724190
-0.694697
-0.668760
-0.032123
-0.024318
-0.641078
-0.045062
0.082210
0.027305
0.142960
0.244892
0.223187
0.248351
-0.737703
-0.756985
-0.739967
0.217866
-0.758128
-0.073334
-0.103321
-0.098071
-0.083291
0.289298
0.292092
0.328698
0.316584
0.629731
0.650559
0.651606
0.214315
-0.940588
-0.955657
-0.913764
-0.981954
-0.058163
-0.044711
-0.041184
0.112307
0.095717
0.121967
0.164891
-0.120728
-0.131294
-0.149787
-0.928236
-0.889022
-0.915079
-0.160787
-0.378132
-0.358484
-0.390617
-0.602311
-0.623638
-0.612460
0.054804
0.075894
0.020205
-0.617921
-0.771081
-0.752497
-0.538520
-0.521127
-0.522518
-0.012257
-0.002003
-0.035509
-0.023877
0.111643
0.323130
0.396466
0.346303
-0.851635
-0.882074
-0.879035
0.123168
0.142716
0.161427
0.124831
0.125647
0.141440
0.169442
-0.686342
-0.699630
0.304680
0.291134
0.296156
0.281272
-0.700514
0.598650
0.631095
0.626505
-0.624151
-0.611541
0.332897
-0.205185
-0.235181
-0.237247
0.381788
0.375032
0.388998
-0.657830
-0.654496
-0.635843
-0.670446
-0.160148
-0.200633
-0.163113
0.088710
0.119607
0.097019
0.365973
-0.200983
0.691992
0.255743
0.168645
0.192488
0.115058
0.318071
0.347153
0.381950
0.397919
0.431198
0.407712
0.435848
0.393353
0.404762
-0.342672
-0.346241
0.408863
0.409786
-0.266709
-0.288800
-0.296552
0.415735
0.380010
0.408198
0.374673
0.358198
0.345554
0.318712
-0.075809
-0.060870
-0.041030
0.463213
0.504081
0.471278
0.491203
0.114770
-0.579273
-0.615851
-0.608648
-0.585479
0.132554
0.156386
0.084915
0.045319
0.127261
0.146484
-0.495930
-0.391968
-0.113238
-0.079625
-0.061243
0.004782
0.028767
0.021925
-0.005727
0.061137
0.067740
-0.672087
-0.679235
-0.691423
-0.694318
-0.056488
-0.099518
-0.152153
0.079369
0.095743
0.117091
0.125903
-0.218776
-0.249853
-0.187407
-0.035231
-0.113578
-0.126592
-0.480029
-0.489210
-0.503555
-0.115620
-0.196583
-0.190464
0.017278
0.044964
0.080048
0.016861
0.044528
-0.124053
-0.045374
-0.462519
-0.398055
-0.380047
-0.459648
-0.791298
-0.759295
-0.779221
-0.674280
-0.697521
-0.666116
-0.125566
-0.122504
-0.370467
0.361935
0.365760
-0.711326
-0.710116
-0.694144
-0.349141
-0.675161
-0.637956
-0.607801
-0.589310
-0.633190
-0.475336
-0.491063
-0.488989
-0.470368
-0.439978
-0.417519
0.444336
0.447407
0.398847
0.485002
-0.741378
-0.729056
-0.718370
-0.412458
-0.481759
-0.384141
-0.284336
-0.245074
-0.199976
-0.122990
-0.337098
-0.390925
-0.458762
0.436165
0.363582
-0.525817
-0.509530
-0.494518
-0.126236
-0.221738
-0.214741
-0.499860
-0.484912
-0.481400
-0.286245
-0.262033
-0.259332
-0.442444
-0.478904
-0.050767
-0.064454
-0.140103
-0.140237
-0.106870
-0.172377
0.290011
0.288523
0.262932
-0.970840
-1.008763
-0.960960
-0.802170
-0.753008
-0.769783
-0.779678
-0.049604
-0.117964
-0.153353
-0.163261
-0.420344
-0.454106
-0.417788
-0.458461
-0.382373
-0.412826
-0.379044
-0.608078
-0.629308
-0.597521
-0.610320
-0.608957
-0.626412
-0.619761
-0.551382
-0.005057
-0.084952
-0.087275
0.182568
0.151735
0.156914
0.176709
0.492710
0.442996
0.454118
0.518746
0.547627
-0.506429
-0.543397
-0.575440
0.274190
0.282971
0.170137
-0.557851
-0.540884
-0.572213
-0.185759
-0.106424
-0.500988
-0.132935
-0.194704
-0.234605
0.161057
0.178902
0.159608
0.322978
0.336216
0.336074
-0.129549
-0.138388
-0.227586
0.351613
-0.660624
-0.611250
-0.713027
-0.671821
-0.727844
0.123585
0.151497
0.282903
0.296380
0.278633
0.301981
0.277137
-0.993155
-0.126508
-0.099428
-0.127716
-0.099850
-0.669212
-0.714798
-0.619854
0.300209
0.335819
0.379323
-0.109328
0.253446
0.119330
0.305783
0.312667
-0.063571
-0.019432
-0.034032
-0.703216
-0.682720
-0.682328
-0.265030
-0.294341
-0.915727
0.321466
0.338525
0.329721
0.098996
0.099516
-0.305715
-0.304627
-0.268473
0.112594
0.349146
-0.737158
-0.748713
-0.755698
-0.592351
-0.539166
-0.545133
0.109517
0.224512
0.147504
0.206842
0.038400
0.305094
0.317690
-0.441929
-0.335930
-0.361558
-0.014819
0.011219
-0.741168
-0.729442
-0.712386
-0.003597
0.011103
0.007782
-0.007671
-0.735211
-0.756406
-0.756703
-0.359158
-0.433705
-0.310064
-0.188343
-0.200409
-0.242401
-0.562259
-0.485775
0.278306
-0.691250
-0.750214
0.241826
0.318714
0.338412
-0.532167
0.309171
0.274422
-0.466867
-0.457454
0.501311
0.527558
0.524585
-0.488373
0.263461
0.266179
0.415482
-0.580360
-0.578742
-0.568128
-0.374357
-0.344322
-0.192792
-0.595862
0.140867
0.159575
-0.588409
-0.321620
-0.349092
-0.316191
-0.347973
0.625528
0.583800
0.578878
0.291780
0.224702
0.192636
-0.327707
-0.316835
-0.284945
-0.092009
-0.062860
0.164005
0.035640
0.058660
0.120426
0.000227
-0.705583
-0.695315
-0.055551
-0.051719
-0.599659
0.395803
0.457053
0.369277
0.736019
0.455058
0.117931
0.130567
0.149231
-0.696446
0.125065
0.044620
0.053079
0.067083
-0.301130
-0.414425
-0.337915
-0.310369
0.321554
-0.576212
-0.514481
-0.709782
-0.723938
-0.714597
-0.554533
-0.537176
-0.543424
-0.556935
0.504592
0.481314
0.514717
-0.525186
-0.026160
0.576159
0.427965
0.422381
0.152855
0.249766
0.145182
0.269985
0.210526
0.301290
-0.019000
-0.503291
-0.103469
-0.561782
-0.616935
-0.650923
-0.694423
0.060086
0.078848
-0.278345
-0.342585
0.257671
-0.058976
-0.908315
-0.093253
-0.629554
-0.605636
-0.575828
-0.107567
0.524162
0.507884
0.497524
0.489647
0.072191
0.041369
-0.247962
-0.239716
-0.212748
0.476814
0.480903
0.465659
0.463550
0.395144
0.427178
-0.551352
-0.566831
0.522806
-0.809068
-0.722778
-0.753519
0.543724
0.521821
0.502441
-0.210312
-0.240569
-0.197108
0.552040
0.610428
0.335319
0.248176
0.286558
0.192555
-0.256014
0.218771
0.212030
0.188186
0.482545
0.543128
0.515309
-0.591396
-0.630089
-0.664310
0.578695
-0.422034
-0.388147
-0.494391
-0.482570
-0.513841
-0.624130
0.077758
0.052612
0.137110
0.674233
0.717219
0.742552
0.640931
0.516315
0.644661
0.593311
-0.164435
-0.157895
-0.863819
-0.755253
-0.785873
-0.179043
0.182877
0.028318
-0.864603
-0.881771
-0.929272
-0.777471
-0.777712
-0.981182
0.151401
0.046939
-0.418862
-0.041223
-0.441810
-0.401501
-0.389175
0.759124
0.793502
-0.065666
-0.064033
-0.022010
0.121666
0.072617
0.160142
0.034824
-0.030350
0.097330
-0.029033
-0.053032
-0.483216
-0.582377
-0.592272
-0.522253
-0.747412
-0.764557
-0.768301
-1.026852
-1.019165
-0.042337
-0.067063
-0.032516
-0.066382
-0.074265
-0.114050
-0.078540
-0.098462
-0.970555
-0.017657
-0.027835
-0.212762
-0.275326
-0.264388
0.764750
0.722764
-0.792360
0.593060
0.572105
0.571219
0.594339
-0.908808
-0.906939
-0.875861
0.620729
-0.018405
0.679460
0.021834
-0.004376
-0.019366
-0.042109
-0.278542
0.015627
-0.022692
-0.154181
-0.128287
-0.120076
0.332727
0.278270
-0.117250
-0.351849
-0.342708
-0.079973
-0.317389
0.227387
0.273671
0.230931
0.287810
-0.722543
-0.722664
-0.385284
-0.237170
-0.034526
-0.070390
0.095014
0.082786
0.053428
-0.059055
-0.136504
-0.818806
-0.769989
-0.784905
-0.796205
-0.334701
-0.868435
-0.842009
-0.896288
-0.829996
-0.846109
-0.424609
-0.397190
-0.417731
-0.375778
-0.413825
-0.223442
-0.178363
-0.194884
-0.155303
-0.859140
-0.930392
-0.853562
0.216766
0.200162
0.210715
-0.465008
-0.486638
0.055445
0.035334
-0.818322
-0.849118
-0.820665
-0.676568
-0.667580
-0.653957
-0.347623
-0.399458
-0.759761
0.230936
0.104771
0.071193
-0.657827
-0.590366
-0.549276
-0.598489
-0.677184
-0.890907
0.335886
0.283339
-0.669577
-0.662663
-0.694406
-0.686012
0.084944
0.064019
-0.665472
0.476872
-0.103843
-0.016542
0.060298
0.087776
0.048535
-0.274366
0.062889
-0.551506
-0.474933
-0.447090
-0.478271
-0.472208
-0.686253
-0.691255
-0.717650
0.092702
0.078010
-0.725296
0.210597
0.448833
0.444837
-0.996173
-0.949329
-0.947751
-0.279720
-0.305726
-0.315124
-0.710795
0.705567
0.742224
0.699512
0.667338
0.666488
-0.808439
-0.774738
-0.627787
-0.656318
-0.630671
0.012073
0.293252
0.216772
0.415382
-0.727807
-0.731868
-0.484020
-0.506756
-0.462410
-0.696914
-0.804872
-0.503052
0.184751
0.190061
0.191497
-0.518482
-0.477199
-0.554972
0.507353
0.526861
0.539371
-0.534786
0.654802
0.637261
-0.880923
-0.296947
0.087240
-0.800932
-0.859000
-0.202528
-0.226099
0.413005
0.401375
0.397219
-0.095602
-0.077706
0.428861
-0.080215
0.441403
-0.776960
-0.827113
0.510944
0.534734
0.458448
0.143474
-0.059353
0.584661
0.500567
0.665249
0.469593
-0.143743
-0.162392
-0.126574
-0.141230
0.236373
-0.153553
-0.176729
0.249029
-0.558087
-0.477892
-0.537207
-0.449416
-0.436345
0.164600
0.197750
-0.412663
-0.425342
-0.437746
0.228612
0.216058
0.233820
-0.527159
-0.515699
-0.504425
-0.691788
0.556447
0.576093
0.579581
-0.757693
-0.784148
-0.808018
-0.060811
-0.080015
-0.081503
-0.810541
-0.302521
-0.102028
-0.272222
-0.151784
-0.863306
-0.854103
0.685633
0.205024
0.441484
0.401567
-0.492788
-0.512144
-0.043012
-0.068276
-0.062351
-0.862470
-0.045059
-0.654096
-0.832193
-0.801368
-0.638557
-0.641872
-0.651248
0.478434
0.469031
0.472929
0.498343
0.113291
0.145343
0.113629
0.171316
-0.736572
-0.426330
-0.447037
-0.759113
-0.362273
0.134461
0.123755
0.058873
0.433024
0.338306
0.285087
0.098269
0.047534
-0.132931
-0.752907
-0.739600
-0.727490
-0.832251
-0.224000
-0.094523
-0.236189
-0.121530
-0.249728
0.168515
0.143620
-0.029973
-0.033169
-0.021363
-0.001337
0.464689
0.112437
0.081649
0.062195
0.020262
0.147471
-0.140397
-0.106999
0.630681
-0.496452
-0.516611
-0.519580
-0.484680
-0.551922
0.598263
0.519739
0.541327
0.491145
0.471638
0.451252
-0.796209
0.062870
0.020679
0.047656
0.043131
0.131095
0.141292
0.148334
0.717196
0.750692
0.555033
-0.638636
-0.643569
-0.174279
-0.200733
0.420820
0.490840
0.451326
0.444314
-0.640313
-0.629238
-0.289625
-0.307683
-0.167143
-0.720841
-0.707521
-0.018891
-0.727719
0.309344
0.316034
0.309526
-0.018386
0.007692
0.475421
0.431669
-0.479866
-0.510141
-0.472054
-0.502087
-0.456401
-0.459868
0.215511
0.213154
-0.847259
0.185157
0.288247
0.318894
0.620883
0.582218
0.253059
-0.007967
-0.013892
-0.046655
-0.139442
-0.273211
-0.219553
-0.259553
-0.278534
-0.631743
-0.639868
0.549994
0.238784
0.185705
0.213832
0.112788
-0.176605
-0.220730
-0.230153
0.395451
0.334870
0.302530
-0.635255
-0.637220
-0.567948
-0.104634
-0.166588
-0.135117
-0.122404
-0.013338
-0.194051
-0.171799
-0.129604
-0.271541
0.010009
-0.085482
0.546386
0.569222
0.574016
0.468192
0.550558
0.551397
-0.665739
-0.171127
-0.348585
-0.385452
-0.382390
-0.335598
-0.371009
-0.404932
0.075203
0.392148
0.038773
-0.098743
-0.091931
0.491947
0.488312
0.337001
0.372731
0.358413
-0.533050
-0.604239
0.020984
0.078318
-0.698117
0.507636
0.508133
0.448870
0.425637
-0.688614
-0.712870
-0.725456
0.460146
0.458178
0.277736
0.249191
0.248805
0.248187
0.444432
0.506743
0.002898
0.370953
0.256970
0.288107
-0.056800
-0.341742
-0.283500
0.570221
0.126142
-0.314866
0.394769
0.450842
-0.189957
-0.228545
-0.323639
-0.360282
-0.335822
-0.411879
0.388161
0.369248
-0.178670
-0.262928
-0.244084
-0.435603
-0.427062
-0.923570
0.392115
0.388765
0.379233
0.381644
0.385222
-0.626335
0.330158
-0.593245
-0.074367
-0.507940
-0.674650
-0.297793
-0.215429
-0.213520
-0.532167
0.028529
-0.637945
-0.849575
-0.045390
-0.010013
-0.065307
-0.626412
-0.564570
-0.462592
0.389925
0.107784
0.094209
-0.435845
-0.195675
0.309389
0.382138
-0.538876
-0.547020
-0.570027
0.217230
-0.454040
0.483385
0.457611
0.067390
-0.332278
-0.361455
-0.380999
-0.471360
-0.453532
-0.151156
-0.004590
0.622712
0.662592
0.203436
-0.187990
0.235465
-0.110091
-0.131052
0.290849
-0.077782
-0.238229
0.606861
-0.081151
-0.617975
-0.618367
0.432139
0.164513
0.197045
0.684114
0.216202
0.055502
-0.031292
-0.795248
-0.773872
-0.116327
-0.152027
-0.599371
-0.634253
-0.605529
0.683194
-0.637603
-0.296266
-0.427582
0.479464
-0.256072
-0.233576
-0.216445
-0.475343
0.015787
-0.027679
0.208294
-0.324639
-0.395188
0.328266
0.349899
0.381312
0.383477
0.363440
0.144281
-0.818118
-0.334000
-0.405802
-0.398108
-0.192449
-0.126529
-0.130309
0.247973
0.266788
-0.162951
-0.243421
0.097940
0.190059
0.283978
0.022031
0.047568
0.048963
0.073025
-0.412498
-0.523983
-0.458076
0.408244
0.400893
0.426508
-0.425368
-0.433955
0.036644
-0.578435
-0.582897
0.041241
0.053149
0.457142
0.033872
-0.658023
-0.716859
-0.655468
-0.505093
0.083248
-0.443257
-0.012108
-0.033394
-0.799993
-0.820275
0.117470
-0.068007
0.057310
-0.447247
0.178003
-0.010431
0.164873
-0.643205
-0.637223
0.224715
-0.506656
-0.674494
-0.668762
-0.723851
-0.593195
-0.450277
-0.362899
-0.335025
0.316589
0.339330
0.346887
-0.538376
-0.504265
-0.025070
-0.028653
-0.575740
-0.562888
-0.590335
-0.183567
-0.162021
-0.425154
-0.554176
0.443572
0.430596
0.015666
-0.609717
-0.611873
-0.656952
-0.621655
-0.616271
0.009533
0.029542
0.287696
0.170909
-0.388785
-0.359906
-0.468578
0.024179
0.064625
0.138874
0.130633
-0.596884
0.030958
0.031941
-0.220196
-0.331025
0.087971
0.060407
-0.440464
-0.379519
-0.057505
0.247296
0.239258
0.369796
-0.624365
0.369557
-0.078738
0.531998
0.540737
-0.657561
-0.652703
-0.100670
-0.093001
-0.193285
-0.214936
0.268480
0.430488
0.165310
-0.312218
0.393873
-0.699848
0.326239
0.256572
0.257267
-0.708730
0.433849
0.189618
0.094771
0.311610
0.292744
0.061782
0.197277
-0.730668
-0.703064
-0.655467
-0.766288
0.531066
0.332712
0.358446
0.337491
0.022541
-0.811203
0.564873
-0.684297
-0.601956
-0.571038
0.006084
0.094026
0.036988
0.349659
0.210178
-0.374121
-0.355814
-0.704177
-0.078029
0.221032
0.274960
-0.781026
-0.764896
-0.356209
0.083059
0.200939
0.091821
0.180352
0.273619
0.243386
0.138032
-0.589375
0.224602
-0.651311
-0.212217
0.300518
0.362009
0.310816
0.284845
0.536673
0.365840
-0.599675
-0.546679
-0.531018
0.503175
0.510311
0.019470
0.418124
-0.416697
-0.439815
-0.432898
0.171636
0.192423
0.185070
0.199338
-0.377095
-0.058416
0.502099
0.224016
-0.520635
-0.345769
-0.811906
-0.292255
0.291000
0.394834
0.398807
-0.420493
-0.440168
-0.785826
0.501488
0.478204
-0.411904
-0.200024
0.029228
0.002965
-0.642120
0.020982
-0.075615
-0.345676
0.521203
0.604654
0.167259
0.104050
0.076749
-0.614914
-0.208358
0.001679
0.028192
-0.634047
0.597399
-0.613000
0.180215
0.171513
-0.792375
0.333309
0.353212
0.286281
-0.263383
0.301343
0.176568
-0.413197
0.436073
-0.394757
0.051996
0.007310
0.036344
-0.481071
0.132258
-0.366587
0.013379
-0.098412
-0.092158
-0.401074
0.616187
0.362391
-0.536057
-0.543933
-0.181259
0.195185
-0.832035
-0.875116
-0.889961
-0.443804
-0.618371
0.325940
-0.440651
0.214254
0.407840
0.412799
-0.049281
-0.380883
-0.419383
-0.527426
0.497798
0.479479
0.234575
0.216620
-0.222431
-0.324063
-0.668588
-0.672505
0.269307
-0.605148
-0.291202
-0.307230
-0.591176
-0.617864
0.284503
0.183014
0.365877
0.306059
-0.351836
0.417235
0.342249
-0.238637
-0.488927
-0.530531
0.335234
0.291029
-0.503791
0.318339
0.161247
-0.645491
0.431708
-0.263922
-0.726126
0.401703
0.387137
-0.242915
-0.234315
-0.537116
-0.626514
0.390735
0.402411
0.411774
-0.082148
0.267562
-0.021797
-0.525615
-0.736400
0.241544
0.253026
-0.534629
-0.571487
0.312145
0.406128
0.030569
0.121400
0.075447
0.394209
0.583996
-0.123144
-0.111532
-0.271328
-0.664750
0.284432
-0.523695
-0.116734
-0.114522
0.045321
0.158012
-0.567867
0.353625
-0.534586
-0.336671
0.408563
-0.483245
-0.367115
-0.432569
-0.579711
-0.157390
-0.092912
-0.560234
0.379105
-0.568783
-0.027942
-0.073014
-0.203297
-0.019837
-0.161994
-0.145439
0.265639
-0.510942
-0.534718
-0.158453
-0.018731
-0.069345
-0.341171
-0.354403
-0.238006
-0.387993
-0.277922
-0.130240
-0.353170
-0.219605
-0.219047
0.055149
-0.479394
0.423908
0.340778
-0.090973
-0.607632
-0.590971
-0.172063
0.140900
0.192275
-0.277892
-0.008808
-0.502249
-0.574242
-0.023484
0.264253
0.326043
0.341417
0.441657
-0.575160
0.190708
-0.519293
-0.435507
-0.537018
0.305959
-0.304082
0.263273
-0.594850
0.182849
0.162807
0.143355
-0.683078
0.021918
-0.276869
-0.353219
0.007110
-0.287626
-0.587016
0.073131
0.342673
-0.249223
-0.415805
-0.026119
SCALARS UY float 1
LOOKUP_TABLE default
-0.000001
-0.000001
-2.709999
-2.709999
-0.700876
-1.934581
-0.000000
-0.000001
-0.000000
-0.000000
-0.000000
-0.000000
-0.000000
-0.000000
-0.000000
-0.000000
-0.000000
-0.000000
-0.000000
-0.000000
-0.000001
-0.000000
-0.241213
-0.420081
-0.581761
-0.733621
-0.879171
-1.018276
-1.149056
-1.267598
-1.379145
-1.479558
-1.587916
-1.711080
-1.863923
-2.050065
-2.258796
-2.481889
-2.709999
-2.709999
-2.710000
-2.710000
-2.710000
-2.710000
-2.710000
-2.710000
-2.710000
-2.710000
-2.710000
-2.710000
-2.710000
-2.710000
-2.709999
-2.709999
-2.534659
-2.360802
-2.191088
-2.024973
-1.867842
-1.720787
-1.586138
-1.466613
-1.357304
-1.258891
-1.156569
-1.035983
-0.890676
-0.709806
-0.508741
-0.284974
-0.710334
-0.737377
-0.767887
-0.784926
-0.805784
-0.841262
-0.864207
-0.880429
-0.896978
-0.913304
-0.926945
-0.948786
-0.970132
-0.984453
-1.006161
-1.021895
-1.034499
-1.052325
-1.068203
-1.085841
-1.100333
-1.115147
-1.128111
-1.146090
-1.162370
-1.168807
-1.189510
-1.208406
-1.220722
-1.239274
-1.254430
-1.270774
-1.290103
-1.296379
-1.313661
-1.324286
-1.335388
-1.353263
-1.361230
-1.380517
-1.393048
-1.410171
-1.422267
-1.443814
-1.462112
-1.479711
-1.497377
-1.518415
-1.536074
-1.555006
-1.579551
-1.595797
-1.609814
-1.633696
-1.654473
-1.676984
-1.701611
-1.722636
-1.741196
-1.773613
-1.809708
-1.836693
-1.854308
-1.869363
-1.889802
-1.912938
-0.108252
-0.058412
-0.130954
-1.641024
-1.700003
-1.732464
-0.070772
-0.966164
-0.972651
-0.891469
-0.247158
-0.278918
-0.286823
-0.319240
-0.730228
-0.688274
-0.715223
-1.670162
-1.664354
-1.692703
-1.083692
-1.146805
-1.105591
-1.499715
-1.512951
-1.600242
-1.677554
-0.886058
-0.812010
-1.978400
-2.008154
-1.970474
-2.004119
-1.891604
-1.941197
-1.946444
-0.040794
-0.098207
-0.049280
-2.620360
-2.542227
-2.541439
-1.197235
-1.187842
-2.471611
-1.117720
-1.396065
-1.440273
-1.422523
-1.668504
-1.649735
-1.673077
-0.640453
-0.602427
-0.600597
-1.633865
-0.983034
-1.022055
-1.071824
-1.350147
-1.312345
-1.338490
-0.091632
-0.996925
-0.921870
-0.949605
-0.093620
-0.068816
-0.886467
-0.119054
-1.122208
-1.149510
-1.041622
-0.903674
-0.906031
-0.864645
-1.338973
-1.301417
-1.284863
-0.870578
-1.353658
-0.305655
-0.317203
-0.287466
-0.347716
-1.071151
-1.038498
-1.025735
-0.996172
-1.562861
-1.515445
-1.578707
-0.952086
-1.345698
-1.256811
-1.265384
-1.365376
-0.181606
-0.132321
-0.150276
-0.729110
-0.703796
-0.684523
-0.975005
-0.296886
-0.328408
-0.314661
-1.162069
-1.113521
-1.192393
-0.351462