# vtk DataFile Version 2.0
Test
ASCII
DATASET POLYDATA
POINTS 1818 float
0.000000 0.000000 0.000000
1.000000 0.000000 0.000000
1.000000 1.000000 0.000000
0.000000 1.000000 0.000000
0.300000 0.330000 0.000000
0.700000 0.680000 0.000000
0.058824 0.000000 0.000000
0.117647 0.000000 0.000000
0.176471 0.000000 0.000000
0.235294 0.000000 0.000000
0.294118 0.000000 0.000000
0.352941 0.000000 0.000000
0.411765 0.000000 0.000000
0.470588 0.000000 0.000000
0.529412 0.000000 0.000000
0.588235 0.000000 0.000000
0.647059 0.000000 0.000000
0.705882 0.000000 0.000000
0.764706 0.000000 0.000000
0.823529 0.000000 0.000000
0.882353 0.000000 0.000000
0.941176 0.000000 0.000000
1.000000 0.058824 0.000000
1.000000 0.117647 0.000000
1.000000 0.176471 0.000000
1.000000 0.235294 0.000000
1.000000 0.294118 0.000000
1.000000 0.352941 0.000000
1.000000 0.411765 0.000000
1.000000 0.470588 0.000000
1.000000 0.529412 0.000000
1.000000 0.588235 0.000000
1.000000 0.647059 0.000000
1.000000 0.705882 0.000000
1.000000 0.764706 0.000000
1.000000 0.823529 0.000000
1.000000 0.882353 0.000000
1.000000 0.941176 0.000000
0.941176 1.000000 0.000000
0.882353 1.000000 0.000000
0.823529 1.000000 0.000000
0.764706 1.000000 0.000000
0.705882 1.000000 0.000000
0.647059 1.000000 0.000000
0.588235 1.000000 0.000000
0.529412 1.000000 0.000000
0.470588 1.000000 0.000000
0.411765 1.000000 0.000000
0.352941 1.000000 0.000000
0.294118 1.000000 0.000000
0.235294 1.000000 0.000000
0.176471 1.000000 0.000000
0.117647 1.000000 0.000000
0.058824 1.000000 0.000000
0.000000 0.941176 0.000000
0.000000 0.882353 0.000000
0.000000 0.823529 0.000000
0.000000 0.764706 0.000000
0.000000 0.705882 0.000000
0.000000 0.647059 0.000000
0.000000 0.588235 0.000000
0.000000 0.529412 0.000000
0.000000 0.470588 0.000000
0.000000 0.411765 0.000000
0.000000 0.352941 0.000000
0.000000 0.294118 0.000000
0.000000 0.235294 0.000000
0.000000 0.176471 0.000000
0.000000 0.117647 0.000000
0.000000 0.058824 0.000000
0.305970 0.335224 0.000000
0.311940 0.340448 0.000000
0.317910 0.345672 0.000000
0.323881 0.350896 0.000000
0.329851 0.356119 0.000000
0.335821 0.361343 0.000000
0.341791 0.366567 0.000000
0.347761 0.371791 0.000000
0.353731 0.377015 0.000000
0.359701 0.382239 0.000000
0.365672 0.387463 0.000000
0.371642 0.392687 0.000000
0.377612 0.397910 0.000000
0.383582 0.403134 0.000000
0.389552 0.408358 0.000000
0.395522 0.413582 0.000000
0.401493 0.418806 0.000000
0.407463 0.424030 0.000000
0.413433 0.429254 0.000000
0.419403 0.434478 0.000000
0.425373 0.439701 0.000000
0.431343 0.444925 0.000000
0.437313 0.450149 0.000000
0.443284 0.455373 0.000000
0.449254 0.460597 0.000000
0.455224 0.465821 0.000000
0.461194 0.471045 0.000000
0.467164 0.476269 0.000000
0.473134 0.481493 0.000000
0.479104 0.486716 0.000000
0.485075 0.491940 0.000000
0.491045 0.497164 0.000000
0.497015 0.502388 0.000000
0.502985 0.507612 0.000000
0.508955 0.512836 0.000000
0.514925 0.518060 0.000000
0.520896 0.523284 0.000000
0.526866 0.528507 0.000000
0.532836 0.533731 0.000000
0.538806 0.538955 0.000000
0.544776 0.544179 0.000000
0.550746 0.549403 0.000000
0.556716 0.554627 0.000000
0.562687 0.559851 0.000000
0.568657 0.565075 0.000000
0.574627 0.570299 0.000000
0.580597 0.575522 0.000000
0.586567 0.580746 0.000000
0.592537 0.585970 0.000000
0.598507 0.591194 0.000000
0.604478 0.596418 0.000000
0.610448 0.601642 0.000000
0.616418 0.606866 0.000000
0.622388 0.612090 0.000000
0.628358 0.617313 0.000000
0.634328 0.622537 0.000000
0.640299 0.627761 0.000000
0.646269 0.632985 0.000000
0.652239 0.638209 0.000000
0.658209 0.643433 0.000000
0.664179 0.648657 0.000000
0.670149 0.653881 0.000000
0.676119 0.659104 0.000000
0.682090 0.664328 0.000000
0.688060 0.669552 0.000000
0.694030 0.674776 0.000000
0.516135 0.080917 0.000000
0.549338 0.042552 0.000000
0.567302 0.088709 0.000000
0.555658 0.563778 0.000000
0.559301 0.571359 0.000000
0.552318 0.570919 0.000000
0.603235 0.047100 0.000000
0.446553 0.448087 0.000000
0.438652 0.443189 0.000000
0.445116 0.440368 0.000000
0.437254 0.190586 0.000000
0.465954 0.201747 0.000000
0.439184 0.213838 0.000000
0.453137 0.228102 0.000000
0.522423 0.410182 0.000000
0.522098 0.390982 0.000000
0.537289 0.398500 0.000000
0.453388 0.527105 0.000000
0.462022 0.524948 0.000000
0.461218 0.533993 0.000000
0.324300 0.374550 0.000000
0.319287 0.386214 0.000000
0.314834 0.375138 0.000000
0.668809 0.628853 0.000000
0.677366 0.632907 0.000000
0.668274 0.639611 0.000000
0.469934 0.529282 0.000000
0.439703 0.436699 0.000000
0.446608 0.432083 0.000000
0.542854 0.633425 0.000000
0.535117 0.647070 0.000000
0.524302 0.633157 0.000000
0.519372 0.648877 0.000000
0.586338 0.611293 0.000000
0.591638 0.624149 0.000000
0.575478 0.621479 0.000000
0.437962 0.035513 0.000000
0.421505 0.085456 0.000000
0.394924 0.044162 0.000000
0.445207 0.955749 0.000000
0.429168 0.919510 0.000000
0.464409 0.914226 0.000000
0.317150 0.400904 0.000000
0.328626 0.395860 0.000000
0.439616 0.884412 0.000000
0.330406 0.381773 0.000000
0.676842 0.602700 0.000000
0.674982 0.614185 0.000000
0.665930 0.611798 0.000000
0.414707 0.535036 0.000000
0.420123 0.526072 0.000000
0.425338 0.533771 0.000000
0.398407 0.375558 0.000000
0.393804 0.363255 0.000000
0.407284 0.365452 0.000000
0.407758 0.523337 0.000000
0.899969 0.377867 0.000000
0.945915 0.378245 0.000000
0.914158 0.409130 0.000000
0.358219 0.436142 0.000000
0.361390 0.425428 0.000000
0.369309 0.432300 0.000000
0.465999 0.075074 0.000000
0.269944 0.367761 0.000000
0.266521 0.352125 0.000000
0.283474 0.357667 0.000000
0.385889 0.083020 0.000000
0.359482 0.060981 0.000000
0.279658 0.346766 0.000000
0.363604 0.104040 0.000000
0.511115 0.503731 0.000000
0.503243 0.499914 0.000000
0.509146 0.494910 0.000000
0.513188 0.475753 0.000000
0.504957 0.474656 0.000000
0.511959 0.464784 0.000000
0.311863 0.447505 0.000000
0.293019 0.442078 0.000000
0.305555 0.431691 0.000000
0.499204 0.464990 0.000000
0.293855 0.459576 0.000000
0.396676 0.236328 0.000000
0.371014 0.247362 0.000000
0.373003 0.229199 0.000000
0.384478 0.261522 0.000000
0.555704 0.523331 0.000000
0.551313 0.515879 0.000000
0.562752 0.515269 0.000000
0.554954 0.506854 0.000000
0.804236 0.611103 0.000000
0.819351 0.593503 0.000000
0.832061 0.615776 0.000000
0.509908 0.485173 0.000000
0.129738 0.481190 0.000000
0.110722 0.443736 0.000000
0.154857 0.452634 0.000000
0.089738 0.485299 0.000000
0.396427 0.153886 0.000000
0.393058 0.115469 0.000000
0.420333 0.126587 0.000000
0.442628 0.413512 0.000000
0.434815 0.404283 0.000000
0.446816 0.400259 0.000000
0.499770 0.482873 0.000000
0.353883 0.235057 0.000000
0.351360 0.254011 0.000000
0.332147 0.240870 0.000000
0.112307 0.405527 0.000000
0.140355 0.392788 0.000000
0.142004 0.423465 0.000000
0.334868 0.263052 0.000000
0.551239 0.594093 0.000000
0.560217 0.601969 0.000000
0.546711 0.604614 0.000000
0.398510 0.570197 0.000000
0.387124 0.557316 0.000000
0.399978 0.555748 0.000000
0.705281 0.743146 0.000000
0.722930 0.758853 0.000000
0.697202 0.758074 0.000000
0.380190 0.572638 0.000000
0.278345 0.431947 0.000000
0.292575 0.428097 0.000000
0.470820 0.540616 0.000000
0.478213 0.533042 0.000000
0.480161 0.543190 0.000000
0.415268 0.299334 0.000000
0.412465 0.313515 0.000000
0.400419 0.297680 0.000000
0.396495 0.317117 0.000000
0.718655 0.732879 0.000000
0.709319 0.677587 0.000000
0.715709 0.670111 0.000000
0.719283 0.682820 0.000000
0.212992 0.453899 0.000000
0.184619 0.470046 0.000000
0.186665 0.440862 0.000000
0.452307 0.386568 0.000000
0.460371 0.397715 0.000000
0.478664 0.456068 0.000000
0.476179 0.462123 0.000000
0.471250 0.456445 0.000000
0.464654 0.388544 0.000000
0.483415 0.461045 0.000000
0.357146 0.449596 0.000000
0.344653 0.443966 0.000000
0.554562 0.459423 0.000000
0.543333 0.457517 0.000000
0.553850 0.449505 0.000000
0.543131 0.445036 0.000000
0.347312 0.459318 0.000000
0.781088 0.538918 0.000000
0.810909 0.534152 0.000000
0.799399 0.553968 0.000000
0.402869 0.534333 0.000000
0.408011 0.546121 0.000000
0.703844 0.670118 0.000000
0.552234 0.794299 0.000000
0.528593 0.795589 0.000000
0.539188 0.770312 0.000000
0.596088 0.518714 0.000000
0.593029 0.508081 0.000000
0.604120 0.510731 0.000000
0.384880 0.468703 0.000000
0.382270 0.455963 0.000000
0.394062 0.458803 0.000000
0.374729 0.466839 0.000000
0.340939 0.294790 0.000000
0.324530 0.290188 0.000000
0.338473 0.279923 0.000000
0.465367 0.336545 0.000000
0.477337 0.352846 0.000000
0.459495 0.350024 0.000000
0.584947 0.516440 0.000000
0.326802 0.302636 0.000000
0.945343 0.420397 0.000000
0.779746 0.749037 0.000000
0.771533 0.774140 0.000000
0.758291 0.749848 0.000000
0.743435 0.765852 0.000000
0.751942 0.297541 0.000000
0.784264 0.292048 0.000000
0.772562 0.330207 0.000000
0.812744 0.305799 0.000000
0.655547 0.494535 0.000000
0.649767 0.472522 0.000000
0.671966 0.480244 0.000000
0.612062 0.502007 0.000000
0.616789 0.515227 0.000000
0.403059 0.898561 0.000000
0.391512 0.946883 0.000000
0.625780 0.504699 0.000000
0.635988 0.491275 0.000000
0.596252 0.650380 0.000000
0.583401 0.655132 0.000000
0.583737 0.644777 0.000000
0.713099 0.416502 0.000000
0.708474 0.388943 0.000000
0.733625 0.389568 0.000000
0.684835 0.406222 0.000000
0.656936 0.416423 0.000000
0.633624 0.425116 0.000000
0.634362 0.400237 0.000000
0.646884 0.740682 0.000000
0.654954 0.726002 0.000000
0.663305 0.741855 0.000000
0.732481 0.441235 0.000000
0.751303 0.460839 0.000000
0.721338 0.462235 0.000000
0.759622 0.437863 0.000000
0.462761 0.363156 0.000000
0.373644 0.622389 0.000000
0.346217 0.613642 0.000000
0.370315 0.594521 0.000000
0.351411 0.640635 0.000000
0.695337 0.690220 0.000000
0.705202 0.700133 0.000000
0.692303 0.700990 0.000000
0.521365 0.516400 0.000000
0.522992 0.510597 0.000000
0.527633 0.513574 0.000000
0.291567 0.329512 0.000000
0.294927 0.318154 0.000000
0.365771 0.366553 0.000000
0.366135 0.358691 0.000000
0.374180 0.368122 0.000000
0.408232 0.327056 0.000000
0.423479 0.328280 0.000000
0.411272 0.339740 0.000000
0.664110 0.670607 0.000000
0.667245 0.662649 0.000000
[...]
POINT_DATA 1818
SCALARS UX float 1
LOOKUP_TABLE default
-0.000004
0.000003
0.645293
-4.165804
-1.626242
0.168979
0.000000
-0.000001
-0.000000
-0.000000
-0.000000
-0.000000
-0.000000
-0.000000
-0.000000
-0.000000
0.000000
0.000000
0.000000
0.000000
0.000001
-0.000000
0.738595
1.138896
1.439079
1.706945
1.939771
2.148894
2.334874
2.481118
2.576575
2.598978
2.505918
2.332410
2.039012
1.635278
1.181808
0.862953
0.063899
-0.371461
-0.679566
-0.914621
-1.096131
-1.250001
-1.410660
-1.591810
-1.806918
-2.055177
-2.325402
-2.612028
-2.909295
-3.213357
-3.519076
-3.842162
-4.129169
-4.111653
-4.121530
-4.144069
-4.181042
-4.224151
-4.261575
-4.274030
-4.230689
-4.112556
-3.902746
-3.567528
-3.104270
-2.532164
-1.836545
-1.150478
-1.613067
-1.518689
-1.464738
-1.455084
-1.561722
-1.535438
-1.475899
-1.445523
-1.423601
-1.402484
-1.391163
-1.370622
-1.353089
-1.345445
-1.315069
-1.298744
-1.294148
-1.272315
-1.252834
-1.223908
-1.203384
-1.177325
-1.155130
-1.124868
-1.099806
-1.080568
-1.044782
-1.013370
-0.993808
-0.961467
-0.941690
-0.917045
-0.880107
-0.855159
-0.804150
-0.769565
-0.737091
-0.691662
-0.662179
-0.610180
-0.578361
-0.541446
-0.518606
-0.490365
-0.467559
-0.444217
-0.421864
-0.390355
-0.369284
-0.343634
-0.306292
-0.287955
-0.267583
-0.236696
-0.211195
-0.182969
-0.148538
-0.137036
-0.046308
-0.050744
0.037731
0.038752
0.072694
0.104487
0.149640
0.150070
-0.042582
-0.017048
-0.001157
-1.229051
-1.347174
-1.538919
0.007558
-0.509541
-0.634792
-0.306838
-0.167444
-0.106012
-0.166326
-0.124429
0.447005
0.403973
0.472967
-2.426836
-2.361393
-2.388300
-2.574573
-2.651934
-2.594196
0.767563
0.838074
0.773111
-2.314251
-0.367788
-0.084192
-1.897989
-1.914450
-1.998571
-1.988638
-1.476646
-1.510603
-1.673372
-0.039502
-0.096386
-0.053528
-1.899818
-1.972222
-1.822783
-2.786753
-2.678589
-1.944348
-2.543236
1.183166
1.025171
0.993861
-2.616195
-2.593388
-2.569941
-0.238961
-0.242081
-0.139511
-2.648105
1.852395
2.036881
2.015321
-2.722160
-2.641835
-2.627583
-0.068204
-2.799825
-2.686487
-2.581158
-0.104052
-0.077315
-2.434629
-0.143742
-0.193173
-0.370918
0.022703
0.406209
0.327465
0.435589
-2.976092
-3.044583
-2.958366
0.322950
-3.075212
-0.292159
-0.389936
-0.358661
-0.345762
0.513142
0.532296
0.672453
0.636527
1.856270
1.947679
1.966079
0.280549
-3.818769
-3.849002
-3.696181
-3.968284
-0.198812
-0.147220
-0.141284
0.031838
-0.008116
0.091783
0.108017
-0.429888
-0.478989
-0.522097
-3.742135
-3.590059
-3.689078
-0.579147
-1.821640
-1.762151
-1.889411
-2.648738
-2.708801
-2.660272
-0.554303
-0.476239
-0.693184
-2.717037
-3.083428
-2.997501
-2.340548
-2.261423
-2.283235
-0.174401
-0.162246
-0.245194
-0.238272
-0.325088
0.470421
0.771443
0.575474
-3.444011
-3.585077
-3.546581
0.121348
0.168565
0.132082
-0.005712
0.004302
0.180513
0.153251
-2.776381
-2.820114
0.654439
0.605837
0.637418
0.588078
-2.844515
1.739381
1.881147
1.849694
-2.665080
-2.637133
0.505303
-1.514853
-1.625967
-1.609389
0.876828
0.862126
0.914942
-2.691961
-2.663850
-2.597249
-2.737791
-0.626024
-0.744207
-0.608810
0.091241
0.167053
0.097322
0.816377
-0.767128
2.168691
0.329758
-0.072415
0.026089
-0.313475
0.913249
1.020435
1.118931
1.195522
1.108436
1.044347
1.148034
0.943616
0.973318
-2.098122
-2.133601
1.003068
1.025190
-1.518241
-1.610670
-1.617364
1.156604
1.053895
1.159773
1.011598
0.932977
0.869837
0.804497
-1.011825
-0.938743
-0.898497
1.309739
1.445102
1.315047
1.421033
0.134189
-2.663993
-2.791323
-2.724493
-2.723649
-0.185151
-0.126597
-0.382081
-0.322197
-0.042442
0.020295
-1.837306
-1.454762
-0.648072
-0.513897
-0.475738
-0.162805
-0.087684
-0.129797
-0.585912
-0.347940
-0.310141
-2.766723
-2.826779
-2.850581
-2.894333
-0.729296
-0.862330
-1.082987
-0.212470
0.195644
0.265489
0.272419
-0.978332
-1.078410
-0.843059
-0.469241
-0.745855
-0.779276
-2.204717
-2.259693
-2.282864
-0.707134
-0.980404
-0.951884
-0.098747
-0.608031
-0.467546
-0.725963
-0.619971
-0.426498
-0.384145
-2.032792
-1.792497
-1.733151
-2.010279
-3.111969
-2.980476
-3.053326
-2.630037
-2.730508
-2.609547
-0.754562
-0.755984
-1.935450
0.812034
0.836130
-3.001393
-2.962734
-2.928399
-1.321698
-3.303711
-3.135442
-3.073771
-2.971166
-2.536233
-2.131141
-2.199955
-2.175713
-2.130034
-1.821569
-1.747304
1.029689
1.002692
0.868575
1.223284
-3.022399
-2.960938
-2.894208
-1.525671
-1.794723
-1.398173
-1.034683
-0.878118
-0.670547
-0.368479
-1.257186
-1.552636
-1.853807
0.961105
0.689163
-1.973911
-2.203115
-2.153171
-0.937464
-1.291393
-1.251383
-2.186613
-1.958056
-1.936609
-1.726455
-1.623499
-1.639952
-1.853966
-1.989880
-0.305789
-0.329543
-0.651426
-0.600556
-0.509932
-0.705088
0.676084
0.654585
0.587839
-4.104776
-4.153261
-4.007781
-3.641326
-3.485395
-3.580564
-3.527378
-0.705478
-0.971394
-0.992260
-1.028111
-1.918838
-2.049008
-1.898283
-2.051779
-1.778824
-1.901269
-1.774384
-2.497873
-2.579661
-2.448125
-2.517184
-2.521557
-2.588194
-2.573714
-2.396721
-0.397852
-0.675320
-0.676404
0.421647
0.329896
0.357391
0.386866
1.506611
1.331453
1.387172
1.615340
1.685448
-1.822834
-2.028698
-2.268348
0.438722
0.466211
0.074421
-2.348848
-2.291576
-2.418886
-1.194603
-0.900540
-2.128583
-0.987136
-1.204440
-1.382173
0.236260
0.276850
0.211757
0.673237
0.727755
0.714224
-0.511576
-0.518751
-1.388889
0.781429
-3.169333
-3.008403
-3.329718
-3.164818
-3.333061
0.247035
0.314519
0.564357
0.599194
0.532932
0.633151
0.610427
-3.985591
-1.263750
-1.171305
-1.281268
-1.159079
-2.583614
-2.848956
-2.438865
0.511121
0.645550
0.809729
-0.430250
0.544193
-0.299263
0.624006
0.661362
-0.872761
-0.717590
-0.817117
-2.817104
-2.728525
-2.737926
-1.549962
-1.651433
-3.917694
0.738044
0.788688
0.748147
0.030712
0.060722
-1.853197
-1.814225
-1.720972
0.110032
0.810120
-3.035809
-3.098735
-3.097201
-2.418996
-2.221806
-2.249937
-0.114433
0.283817
0.011184
0.225049
-0.330554
0.477360
0.546663
-1.905751
-1.535334
-1.626924
-0.280278
-0.185446
-3.129668
-3.070284
-3.044939
-0.203630
-0.007504
-0.030360
-0.063016
-3.142472
-3.234824
-3.200027
-1.327357
-1.614464
-1.124419
-0.661559
-0.723359
-0.863747
-3.004161
-2.692924
0.487101
-2.801145
-3.017334
0.342254
0.695758
0.759781
-2.855449
0.684004
0.553232
-2.141884
-2.129424
1.410458
1.510773
1.482430
-2.211847
0.504801
0.494307
1.092261
-2.483134
-2.460086
-2.453499
-1.516579
-1.422091
-0.678659
-2.515729
0.141727
0.188305
-2.471782
-1.744079
-1.815945
-1.698966
-1.844152
1.898943
1.733373
1.744866
0.475770
0.242772
0.136942
-1.983693
-1.918498
-1.827725
-0.400622
-0.303021
0.085514
-0.350794
-0.241081
-0.026826
-0.019669
-2.814583
-2.775358
-0.617209
-0.600680
-2.236704
0.936996
1.202427
0.831128
2.305061
1.228574
0.292141
0.337021
0.382809
-2.722473
-0.035539
-0.064084
-0.023583
-0.002328
-1.428114
-1.817194
-1.750743
-1.648410
0.582208
-2.177976
-1.941480
-2.898404
-2.962675
-2.899913
-2.427237
-2.371353
-2.408371
-2.256706
1.198458
1.179002
1.289895
-2.347802
-0.116929
1.829363
1.075602
1.039332
0.024769
0.360348
-0.003195
0.435903
0.216546
0.545981
-0.391785
-2.064024
-0.852722
-2.265080
-2.504837
-3.060818
-3.201613
0.022519
0.082765
-1.069294
-1.299664
0.444747
-0.976841
-3.832300
-1.089632
-2.953955
-2.913691
-2.793805
-1.111825
1.416503
1.344290
1.318169
1.271135
0.033362
-0.038355
-1.545010
-1.488471
-1.420363
1.268441
1.268103
1.218850
1.197761
1.283872
1.361975
-2.819251
-2.841725
1.677283
-3.856898
-3.519928
-3.704192
1.436034
1.357376
1.245484
-1.577601
-1.667798
-1.507094
1.497795
1.887115
1.051229
0.741590
0.901057
0.569581
-1.742553
0.474926
0.437896
0.384758
1.290576
1.498668
1.431874
-3.084555
-3.272411
-3.356292
1.677201
-1.802653
-1.690461
-2.067444
-2.107889
-2.178477
-2.721446
0.206278
0.137926
0.376860
2.165275
2.267698
2.389450
2.008303
1.641312
2.113456
1.978341
-1.374030
-1.371427
-3.581904
-3.224139
-3.292055
-1.458645
0.439963
-0.054782
-3.547406
-3.578695
-3.757223
-3.169167
-3.136408
-3.937923
0.357259
0.006722
-2.420050
-0.152590
-2.412566
-2.257795
-2.237219
2.370036
2.484758
-1.069799
-1.046399
-0.899958
-0.334009
-0.535742
-0.119217
-0.716242
-0.950058
-0.469870
-0.279701
-0.335158
-1.915470
-2.370408
-2.431131
-2.049839
-3.118747
-3.195653
-3.171184
-4.117814
-4.065403
-0.131060
-0.212841
-0.095808
-0.203571
-0.220418
-1.082623
-0.964349
-1.057352
-3.897896
-0.055194
-0.074701
-1.217512
-1.451155
-1.396350
2.408917
2.254409
-3.274212
1.679010
1.563717
1.584520
1.675583
-3.732779
-3.693023
-3.594575
1.808203
-0.071794
2.100977
-0.694988
-0.042541
-0.140178
-0.200568
-1.427862
0.039103
-0.095824
-1.294312
-1.194757
-1.193592
0.709073
0.396628
-0.505027
-2.087738
-2.075595
-1.070398
-1.606940
0.632813
0.772732
0.630157
0.830372
-2.870286
-2.892295
-2.249050
-1.691242
-0.081803
-0.200736
0.236243
0.194609
0.121775
-0.141592
-0.418803
-3.543300
-3.388962
-3.485625
-3.435279
-1.833400
-3.608672
-3.566888
-3.735141
-3.484783
-3.500680
-2.041129
-1.941677
-2.289809
-2.147518
-1.980057
-0.770346
-0.607446
-1.460114
-1.318607
-3.790496
-4.028278
-3.698251
0.380086
0.334880
0.383618
-2.198012
-2.275339
-0.055275
-0.108553
-3.379648
-3.471038
-3.347630
-2.855630
-2.799874
-2.775804
-1.279095
-1.486124
-3.318333
0.434336
0.244876
0.153045
-2.821462
-2.777576
-2.676083
-2.833488
-2.886421
-3.590769
0.953150
0.788116
-3.013583
-3.028908
-3.119421
-3.131628
0.179652
0.112071
-2.767063
1.504205
-0.723113
-0.416347
0.114794
0.160863
0.056618
-1.421865
0.080325
-2.644244
-2.284506
-2.225172
-2.320250
-2.333645
-2.998689
-3.049994
-3.108995
0.066585
0.006110
-3.179385
0.200368
1.155774
1.124192
-4.062585
-3.885900
-3.924067
-1.655530
-1.759359
-1.756207
-2.888262
2.184400
2.310314
2.155337
2.042874
2.027179
-3.240498
-3.139283
-2.870157
-2.927746
-2.916462
-0.784071
0.553929
0.161264
1.120757
-3.239848
-3.297571
-2.610059
-2.672982
-2.507397
-2.844197
-3.308025
-2.626646
0.347006
0.341559
0.377042
-2.214499
-2.048843
-2.363442
1.272202
1.379551
1.406693
-2.020654
1.971446
1.889607
-3.547759
-1.683343
-0.192558
-3.749523
-3.979880
-1.566055
-1.668933
0.990433
0.941874
0.933942
-0.500748
-0.421230
1.051634
-0.400353
1.093680
-3.084114
-3.297878
1.262558
1.383672
1.163948
0.352300
-0.381723
1.656350
1.312707
2.012742
1.135738
-1.177084
-1.214620
-1.093662
-1.115629
0.510627
-1.371135
-1.463849
0.515850
-2.924143
-2.622694
-2.808083
-2.124518
-2.058903
0.333265
0.430686
-2.049242
-2.101626
-2.111864
0.391207
0.359685
0.423731
-2.404299
-2.343799
-2.330872
-2.955829
1.483844
1.582723
1.605776
-2.985042
-3.098642
-3.206410
-0.220705
-0.271847
-0.295548
-3.236102
-1.912894
-0.355427
-1.816102
-1.375134
-3.465459
-3.431288
2.101719
0.308483
1.305564
1.160488
-2.316724
-2.375367
-0.944211
-1.042693
-0.204244
-3.671322
-0.940135
-2.745732
-3.315674
-3.164527
-2.663182
-2.694223
-2.711876
1.242277
1.194620
1.204534
1.344983
0.299763
0.389390
0.294687
0.457367
-2.851231
-2.132827
-2.168934
-2.970598
-1.574730
-0.099448
-0.172840
-0.362536
1.345250
0.858900
0.553326
0.172476
-0.468764
-1.273889
-2.981698
-2.932747
-2.856627
-3.334097
-0.916425
-0.340330
-0.874179
-1.219750
-0.941604
0.319233
0.263697
-0.106922
-0.215413
-0.162732
-0.129577
1.073507
0.300833
0.213174
0.163074
-0.618574
0.399844
-0.471582
-0.358317
1.897036
-2.512313
-2.610434
-2.563324
-2.533458
-2.757671
1.759843
1.374073
1.461309
1.263220
1.191137
1.100403
-3.193602
-0.060977
0.047281
0.120753
0.103039
0.164836
0.212430
0.214373
2.221294
2.344904
1.601889
-2.837000
-2.811520
-1.285787
-1.344837
1.008243
1.440043
1.292253
1.292317
-2.651390
-2.620436
-1.068172
-1.153742
-1.145477
-2.981799
-2.917407
-0.835245
-3.035752
0.743957
0.751147
0.717825
-0.803447
-0.688610
1.118866
0.902867
-2.430545
-2.502403
-2.373700
-2.440381
-2.376827
-2.420015
0.525820
0.495350
-3.426025
0.464295
0.694894
0.784577
1.879597
1.769966
0.577572
-0.817508
-0.849948
-0.968690
-1.196615
-1.764795
-0.742069
-0.892783
-0.966309
-2.709149
-2.710817
1.451646
0.631303
0.484072
0.538045
-0.150338
-1.236207
-1.479827
-1.534044
0.860741
0.654243
0.484359
-2.554700
-2.553234
-2.282740
-1.199101
-0.551496
-0.431858
-0.398321
-0.827962
-0.640035
-0.557681
-0.404473
-1.599695
-0.719309
-0.278834
1.520420
1.628224
1.620424
1.105627
1.513977
1.621474
-2.691388
-1.459396
-1.944709
-2.080782
-2.040745
-1.931527
-2.063513
-1.923770
0.186667
0.855225
-0.659729
-1.186575
-1.171696
1.230173
1.218705
0.886265
0.890486
0.823364
-1.901067
-2.358736
-0.414238
0.200656
-2.854558
1.277570
1.318151
1.088316
0.972180
-2.799267
-3.100492
-2.823248
1.238664
1.208632
0.687151
0.590833
0.612653
0.633927
1.203397
1.642451
-0.517860
0.768883
0.344000
0.459210
-0.263035
-1.672502
-1.552445
1.761032
0.234909
-1.583095
0.854887
1.122635
-1.408542
-1.552865
-1.843936
-1.951756
-1.860671
-2.242919
0.887588
0.816067
-0.856579
-1.143637
-1.085994
-2.283543
-2.006862
-3.756174
0.956079
0.961978
0.893497
0.957330
0.994588
-2.626275
0.602167
-2.236822
-0.749671
-2.274708
-2.739714
-1.476371
-1.186026
-1.183646
-1.959220
-0.290241
-2.458737
-3.410627
-0.494337
-0.607079
-0.819342
-2.344183
-2.259558
-1.851240
0.852699
0.153288
0.133868
-1.822790
-1.171394
0.478199
0.661712
-2.529069
-2.589601
-2.601585
0.280469
-1.909521
1.239925
1.138317
0.071503
-1.620889
-1.721529
-1.812257
-2.246204
-2.212320
-0.724644
-0.618421
1.909375
2.038932
0.177084
-0.794373
0.265330
-0.608683
-0.695743
0.485943
-0.483635
-0.805377
1.745367
-0.849518
-2.499827
-2.496866
1.044019
0.124374
0.253094
2.091147
0.333089
-0.257532
-0.545465
-3.366756
-3.330801
-1.005914
-1.116607
-2.438992
-2.576371
-2.458446
2.123573
-2.582655
-1.435750
-1.910530
1.296235
-1.444119
-0.963133
-0.849669
-2.096906
-0.250135
-0.404029
0.218652
-1.577715
-1.853063
0.640421
0.717616
0.849338
0.849952
0.780673
-0.009570
-3.621771
-1.524610
-1.766680
-1.684071
-0.892417
-1.296829
-1.300711
0.494452
0.556392
-1.021283
-0.885521
-0.118671
0.129459
0.448948
-0.243215
-0.138554
-0.154573
-0.053745
-1.933102
-2.192481
-1.947583
0.934907
0.896304
1.007524
-1.965093
-2.016851
-0.159695
-2.408539
-2.415673
0.072562
0.111802
1.142202
0.042256
-2.529712
-2.761602
-2.658091
-2.380491
-0.001730
-1.904672
-0.246657
-0.316927
-3.241566
-3.305198
0.194297
-0.649458
-0.240099
-2.079654
0.291734
-0.033115
0.266924
-2.761240
-2.763500
0.508674
-2.253124
-2.685724
-2.855029
-3.019236
-2.487104
-2.068264
-1.640090
-1.551047
0.608978
0.695482
0.734878
-2.490971
-2.413342
-0.359788
-0.347163
-2.570191
-2.555975
-2.638070
-1.350085
-1.296934
-1.867277
-2.508683
1.082354
1.016389
-0.070378
-2.559381
-2.584545
-2.639273
-2.505781
-2.478464
-0.301337
-0.241073
0.479683
0.073655
-2.140023
-2.069028
-2.184295
-0.648929
-0.483575
0.231078
0.082114
-2.538465
0.080952
0.083125
-1.250387
-1.549611
-0.073242
-0.165114
-1.968565
-1.738697
-0.400474
0.456441
0.415588
0.769844
-2.513057
0.764240
-0.660941
1.565907
1.574417
-2.720029
-2.685866
-0.980630
-0.987773
-1.265786
-1.365189
0.399240
1.007700
0.288054
-1.603914
0.862357
-2.757495
0.982040
0.745255
0.756963
-2.748257
0.957752
0.532402
-0.081608
0.636641
0.564147
-0.515163
0.564851
-3.487100
-3.351701
-3.273406
-3.002851
1.589851
0.811330
0.889143
0.804478
0.032650
-3.390130
1.720042
-2.797081
-2.511865
-2.389779
-0.079398
0.147142
-0.002019
0.758775
0.398433
-1.844818
-1.816899
-3.561848
-0.221546
0.195806
0.487225
-3.859241
-3.837778
-1.794678
0.222125
0.622719
0.266799
-0.064726
0.458080
0.195228
-0.207311
-2.389989
0.139681
-2.610766
-0.979925
0.583983
0.757857
0.560428
0.544157
1.509212
0.755343
-2.491299
-2.462372
-2.438464
1.535830
1.501617
0.034804
0.868103
-2.155971
-2.230695
-2.234922
0.180483
0.247232
0.245574
0.310361
-1.873469
-0.230509
1.305065
0.632912
-2.098258
-1.995249
-3.457081
-1.031845
0.567784
1.121121
1.093959
-2.360810
-2.453277
-3.294862
1.385197
1.318647
-2.190500
-1.273551
0.017651
-0.056658
-2.622772
-0.016614
-1.078441
-1.734088
1.432302
1.743661
-0.072914
-0.378143
-0.490791
-2.732283
-0.706570
-0.074532
-0.009901
-2.608909
1.901834
-3.134151
0.262784
0.210095
-3.242945
1.026002
0.838340
0.619751
-1.676119
0.676558
0.084139
-2.122967
1.200481
-2.051279
-0.171831
-0.344832
0.093771
-1.818766
0.361124
-1.946721
-0.751771
-0.305933
-0.291960
-2.038394
1.813676
1.018968
-2.199301
-2.222057
-0.591444
0.069656
-3.777646
-3.968913
-3.949180
-2.024220
-2.581987
0.531341
-2.381772
0.210770
1.108023
1.104753
-0.783852
-2.253481
-2.395431
-2.131085
1.502008
1.421905
0.336961
0.266664
-1.206178
-1.564173
-2.880049
-2.923271
0.465835
-2.430545
-1.237074
-1.325407
-2.590473
-2.992711
0.754456
0.502165
0.891691
0.840016
-1.269084
1.283406
1.019043
-0.815680
-2.111466
-2.275386
0.906761
0.751713
-2.219716
0.622584
-0.120314
-2.645771
1.025144
-1.333438
-2.850569
0.934147
1.028549
-1.459183
-1.447934
-2.410029
-2.551742
0.870615
0.926971
0.960143
-0.478231
0.572017
-0.887123
-2.076528
-2.894870
0.187879
0.490017
-2.124777
-2.358750
0.521138
0.913843
-0.325239
-0.001026
-0.066483
1.225655
1.835481
-0.904880
-0.870304
-1.361919
-2.926460
0.830530
-2.319656
-0.615766
-0.584565
-0.384464
0.027529
-2.524027
0.719320
-2.225460
-1.376542
0.918037
-2.031946
-1.625205
-1.787755
-2.535337
-1.060018
-0.829416
-2.476429
0.816430
-2.158491
-0.652492
-0.550303
-0.985200
-0.513342
-1.027210
-0.976087
0.539471
-2.156854
-2.239153
-0.781111
-0.586057
-0.520252
-1.542312
-1.664956
-1.255315
-1.741868
-1.362980
-0.734926
-1.651541
-1.191734
-1.016197
-0.328753
-2.126007
0.921040
0.648073
-0.828991
-2.294462
-2.233193
-0.867388
0.101199
0.328049
-1.368371
-0.447358
-2.035726
-2.322383
-0.500922
0.456601
0.701830
0.695953
1.079111
-2.500713
0.136466
-2.286522
-1.651847
-2.352680
0.782607
-1.195400
0.435811
-2.570976
0.182334
0.161360
0.096020
-2.665724
-0.379919
-1.373780
-1.642017
-0.492798
-1.226857
-2.522610
-0.106538
0.760519
-1.376171
-1.882322
-0.382070
SCALARS UY float 1
LOOKUP_TABLE default
-0.000007
-0.000006
-8.509996
-8.509997
-2.139510
-5.873754
-0.000002
-0.000003
-0.000002
-0.000002
-0.000001
-0.000001
-0.000001
-0.000001
-0.000002
-0.000002
-0.000002
-0.000002
-0.000002
-0.000002
-0.000002
-0.000002
-0.753504
-1.298083
-1.755519
-2.186078
-2.585574
-2.967200
-3.324644
-3.643922
-3.943091
-4.211499
-4.504455
-4.831856
-5.273068
-5.907927
-6.696747
-7.598513
-8.509997
-8.509997
-8.509998
-8.509998
-8.509998
-8.509999
-8.509999
-8.509998
-8.509998
-8.509998
-8.509998
-8.509998
-8.509998
-8.509998
-8.509998
-8.509998
-7.976921
-7.452686
-6.949772
-6.463988
-6.008502
-5.593799
-5.218919
-4.890064
-4.595246
-4.330061
-4.056193
-3.729140
-3.298423
-2.705531
-1.941828
-1.074055
-2.183017
-2.325477
-2.468296
-2.515481
-2.454923
-2.519356
-2.612204
-2.668371
-2.709883
-2.755374
-2.793674
-2.857022
-2.918863
-2.958093
-3.021321
-3.065693
-3.099806
-3.150623
-3.196255
-3.246585
-3.287669
-3.330511
-3.367851
-3.420750
-3.467651
-3.485363
-3.547124
-3.603105
-3.639385
-3.694489
-3.739052
-3.787418
-3.845127
-3.863604
-3.915467
-3.947617
-3.981114
-4.035183
-4.059692
-4.118743
-4.157811
-4.210318
-4.247287
-4.313622
-4.369344
-4.422939
-4.477847
-4.542524
-4.596705
-4.655363
-4.731461
-4.781310
-4.823353
-4.896135
-4.961156
-5.028895
-5.103388
-5.164207
-5.295796
-5.392361
-5.533396
-5.593045
-5.639658
-5.733046
-5.795114
-5.834254
-0.267132
-0.141767
-0.321003
-4.951573
-5.149276
-5.267355
-0.170130
-2.847833
-2.875592
-2.603640
-0.633210
-0.717909
-0.742620
-0.832155
-2.010509
-1.883269
-1.956983
-5.168577
-5.139863
-5.234668
-3.415037
-3.730518
-3.607522
-4.344496
-4.398308
-4.849385
-5.174487
-2.591294
-2.338611
-6.120171
-6.222733
-6.102737
-6.216023
-5.791382
-5.961982
-5.993506
-0.100607
-0.244918
-0.122785
-8.227521
-7.980178
-7.979922
-3.900339
-3.818818
-7.756584
-3.626646
-3.959646
-4.117586
-4.116923
-5.200894
-5.135664
-5.205027
-1.826614
-1.707908
-1.689282
-5.098122
-2.790297
-2.940963
-3.051481
-4.273895
-4.151653
-4.219051
-0.227232
-3.304930
-3.093525
-3.092808
-0.233977
-0.171751
-2.885352
-0.297280
-3.302898
-3.395957
-3.036922
-2.567201
-2.584513
-2.439384
-4.319849
-4.248338
-4.169671
-2.472348
-4.398797
-0.798583
-0.835416
-0.749714
-0.920814
-3.083796
-2.977603
-2.917602
-2.827829
-4.416139
-4.268711
-4.457200
-2.734985
-4.502053
-4.268412
-4.265240
-4.573150
-0.459052