# vtk DataFile Version 2.0
Test
ASCII
DATASET POLYDATA
POINTS 1818 float
0.000000 0.000000 0.000000
1.000000 0.000000 0.000000
1.000000 1.000000 0.000000
0.000000 1.000000 0.000000
0.300000 0.330000 0.000000
0.700000 0.680000 0.000000
0.058824 0.000000 0.000000
0.117647 0.000000 0.000000
0.176471 0.000000 0.000000
0.235294 0.000000 0.000000
0.294118 0.000000 0.000000
0.352941 0.000000 0.000000
0.411765 0.000000 0.000000
0.470588 0.000000 0.000000
0.529412 0.000000 0.000000
0.588235 0.000000 0.000000
0.647059 0.000000 0.000000
0.705882 0.000000 0.000000
0.764706 0.000000 0.000000
0.823529 0.000000 0.000000
0.882353 0.000000 0.000000
0.941176 0.000000 0.000000
1.000000 0.058824 0.000000
1.000000 0.117647 0.000000
1.000000 0.176471 0.000000
1.000000 0.235294 0.000000
1.000000 0.294118 0.000000
1.000000 0.352941 0.000000
1.000000 0.411765 0.000000
1.000000 0.470588 0.000000
1.000000 0.529412 0.000000
1.000000 0.588235 0.000000
1.000000 0.647059 0.000000
1.000000 0.705882 0.000000
1.000000 0.764706 0.000000
1.000000 0.823529 0.000000
1.000000 0.882353 0.000000
1.000000 0.941176 0.000000
0.941176 1.000000 0.000000
0.882353 1.000000 0.000000
0.823529 1.000000 0.000000
0.764706 1.000000 0.000000
0.705882 1.000000 0.000000
0.647059 1.000000 0.000000
0.588235 1.000000 0.000000
0.529412 1.000000 0.000000
0.470588 1.000000 0.000000
0.411765 1.000000 0.000000
0.352941 1.000000 0.000000
0.294118 1.000000 0.000000
0.235294 1.000000 0.000000
0.176471 1.000000 0.000000
0.117647 1.000000 0.000000
0.058824 1.000000 0.000000
0.000000 0.941176 0.000000
0.000000 0.882353 0.000000
0.000000 0.823529 0.000000
0.000000 0.764706 0.000000
0.000000 0.705882 0.000000
0.000000 0.647059 0.000000
0.000000 0.588235 0.000000
0.000000 0.529412 0.000000
0.000000 0.470588 0.000000
0.000000 0.411765 0.000000
0.000000 0.352941 0.000000
0.000000 0.294118 0.000000
0.000000 0.235294 0.000000
0.000000 0.176471 0.000000
0.000000 0.117647 0.000000
0.000000 0.058824 0.000000
0.305970 0.335224 0.000000
0.311940 0.340448 0.000000
0.317910 0.345672 0.000000
0.323881 0.350896 0.000000
0.329851 0.356119 0.000000
0.335821 0.361343 0.000000
0.341791 0.366567 0.000000
0.347761 0.371791 0.000000
0.353731 0.377015 0.000000
0.359701 0.382239 0.000000
0.365672 0.387463 0.000000
0.371642 0.392687 0.000000
0.377612 0.397910 0.000000
0.383582 0.403134 0.000000
0.389552 0.408358 0.000000
0.395522 0.413582 0.000000
0.401493 0.418806 0.000000
0.407463 0.424030 0.000000
0.413433 0.429254 0.000000
0.419403 0.434478 0.000000
0.425373 0.439701 0.000000
0.431343 0.444925 0.000000
0.437313 0.450149 0.000000
0.443284 0.455373 0.000000
0.449254 0.460597 0.000000
0.455224 0.465821 0.000000
0.461194 0.471045 0.000000
0.467164 0.476269 0.000000
0.473134 0.481493 0.000000
0.479104 0.486716 0.000000
0.485075 0.491940 0.000000
0.491045 0.497164 0.000000
0.497015 0.502388 0.000000
0.502985 0.507612 0.000000
0.508955 0.512836 0.000000
0.514925 0.518060 0.000000
0.520896 0.523284 0.000000
0.526866 0.528507 0.000000
0.532836 0.533731 0.000000
0.538806 0.538955 0.000000
0.544776 0.544179 0.000000
0.550746 0.549403 0.000000
0.556716 0.554627 0.000000
0.562687 0.559851 0.000000
0.568657 0.565075 0.000000
0.574627 0.570299 0.000000
0.580597 0.575522 0.000000
0.586567 0.580746 0.000000
0.592537 0.585970 0.000000
0.598507 0.591194 0.000000
0.604478 0.596418 0.000000
0.610448 0.601642 0.000000
0.616418 0.606866 0.000000
0.622388 0.612090 0.000000
0.628358 0.617313 0.000000
0.634328 0.622537 0.000000
0.640299 0.627761 0.000000
0.646269 0.632985 0.000000
0.652239 0.638209 0.000000
0.658209 0.643433 0.000000
0.664179 0.648657 0.000000
0.670149 0.653881 0.000000
0.676119 0.659104 0.000000
0.682090 0.664328 0.000000
0.688060 0.669552 0.000000
0.694030 0.674776 0.000000
0.516135 0.080917 0.000000
0.549338 0.042552 0.000000
0.567302 0.088709 0.000000
0.555658 0.563778 0.000000
0.559301 0.571359 0.000000
0.552318 0.570919 0.000000
0.603235 0.047100 0.000000
0.446553 0.448087 0.000000
0.438652 0.443189 0.000000
0.445116 0.440368 0.000000
0.437254 0.190586 0.000000
0.465954 0.201747 0.000000
0.439184 0.213838 0.000000
0.453137 0.228102 0.000000
0.522423 0.410182 0.000000
0.522098 0.390982 0.000000
0.537289 0.398500 0.000000
0.453388 0.527105 0.000000
0.462022 0.524948 0.000000
0.461218 0.533993 0.000000
0.324300 0.374550 0.000000
0.319287 0.386214 0.000000
0.314834 0.375138 0.000000
0.668809 0.628853 0.000000
0.677366 0.632907 0.000000
0.668274 0.639611 0.000000
0.469934 0.529282 0.000000
0.439703 0.436699 0.000000
0.446608 0.432083 0.000000
0.542854 0.633425 0.000000
0.535117 0.647070 0.000000
0.524302 0.633157 0.000000
0.519372 0.648877 0.000000
0.586338 0.611293 0.000000
0.591638 0.624149 0.000000
0.575478 0.621479 0.000000
0.437962 0.035513 0.000000
0.421505 0.085456 0.000000
0.394924 0.044162 0.000000
0.445207 0.955749 0.000000
0.429168 0.919510 0.000000
0.464409 0.914226 0.000000
0.317150 0.400904 0.000000
0.328626 0.395860 0.000000
0.439616 0.884412 0.000000
0.330406 0.381773 0.000000
0.676842 0.602700 0.000000
0.674982 0.614185 0.000000
0.665930 0.611798 0.000000
0.414707 0.535036 0.000000
0.420123 0.526072 0.000000
0.425338 0.533771 0.000000
0.398407 0.375558 0.000000
0.393804 0.363255 0.000000
0.407284 0.365452 0.000000
0.407758 0.523337 0.000000
0.899969 0.377867 0.000000
0.945915 0.378245 0.000000
0.914158 0.409130 0.000000
0.358219 0.436142 0.000000
0.361390 0.425428 0.000000
0.369309 0.432300 0.000000
0.465999 0.075074 0.000000
0.269944 0.367761 0.000000
0.266521 0.352125 0.000000
0.283474 0.357667 0.000000
0.385889 0.083020 0.000000
0.359482 0.060981 0.000000
0.279658 0.346766 0.000000
0.363604 0.104040 0.000000
0.511115 0.503731 0.000000
0.503243 0.499914 0.000000
0.509146 0.494910 0.000000
0.513188 0.475753 0.000000
0.504957 0.474656 0.000000
0.511959 0.464784 0.000000
0.311863 0.447505 0.000000
0.293019 0.442078 0.000000
0.305555 0.431691 0.000000
0.499204 0.464990 0.000000
0.293855 0.459576 0.000000
0.396676 0.236328 0.000000
0.371014 0.247362 0.000000
0.373003 0.229199 0.000000
0.384478 0.261522 0.000000
0.555704 0.523331 0.000000
0.551313 0.515879 0.000000
0.562752 0.515269 0.000000
0.554954 0.506854 0.000000
0.804236 0.611103 0.000000
0.819351 0.593503 0.000000
0.832061 0.615776 0.000000
0.509908 0.485173 0.000000
0.129738 0.481190 0.000000
0.110722 0.443736 0.000000
0.154857 0.452634 0.000000
0.089738 0.485299 0.000000
0.396427 0.153886 0.000000
0.393058 0.115469 0.000000
0.420333 0.126587 0.000000
0.442628 0.413512 0.000000
0.434815 0.404283 0.000000
0.446816 0.400259 0.000000
0.499770 0.482873 0.000000
0.353883 0.235057 0.000000
0.351360 0.254011 0.000000
0.332147 0.240870 0.000000
0.112307 0.405527 0.000000
0.140355 0.392788 0.000000
0.142004 0.423465 0.000000
0.334868 0.263052 0.000000
0.551239 0.594093 0.000000
0.560217 0.601969 0.000000
0.546711 0.604614 0.000000
0.398510 0.570197 0.000000
0.387124 0.557316 0.000000
0.399978 0.555748 0.000000
0.705281 0.743146 0.000000
0.722930 0.758853 0.000000
0.697202 0.758074 0.000000
0.380190 0.572638 0.000000
0.278345 0.431947 0.000000
0.292575 0.428097 0.000000
0.470820 0.540616 0.000000
0.478213 0.533042 0.000000
0.480161 0.543190 0.000000
0.415268 0.299334 0.000000
0.412465 0.313515 0.000000
0.400419 0.297680 0.000000
0.396495 0.317117 0.000000
0.718655 0.732879 0.000000
0.709319 0.677587 0.000000
0.715709 0.670111 0.000000
0.719283 0.682820 0.000000
0.212992 0.453899 0.000000
0.184619 0.470046 0.000000
0.186665 0.440862 0.000000
0.452307 0.386568 0.000000
0.460371 0.397715 0.000000
0.478664 0.456068 0.000000
0.476179 0.462123 0.000000
0.471250 0.456445 0.000000
0.464654 0.388544 0.000000
0.483415 0.461045 0.000000
0.357146 0.449596 0.000000
0.344653 0.443966 0.000000
0.554562 0.459423 0.000000
0.543333 0.457517 0.000000
0.553850 0.449505 0.000000
0.543131 0.445036 0.000000
0.347312 0.459318 0.000000
0.781088 0.538918 0.000000
0.810909 0.534152 0.000000
0.799399 0.553968 0.000000
0.402869 0.534333 0.000000
0.408011 0.546121 0.000000
0.703844 0.670118 0.000000
0.552234 0.794299 0.000000
0.528593 0.795589 0.000000
0.539188 0.770312 0.000000
0.596088 0.518714 0.000000
0.593029 0.508081 0.000000
0.604120 0.510731 0.000000
0.384880 0.468703 0.000000
0.382270 0.455963 0.000000
0.394062 0.458803 0.000000
0.374729 0.466839 0.000000
0.340939 0.294790 0.000000
0.324530 0.290188 0.000000
0.338473 0.279923 0.000000
0.465367 0.336545 0.000000
0.477337 0.352846 0.000000
0.459495 0.350024 0.000000
0.584947 0.516440 0.000000
0.326802 0.302636 0.000000
0.945343 0.420397 0.000000
0.779746 0.749037 0.000000
0.771533 0.774140 0.000000
0.758291 0.749848 0.000000
0.743435 0.765852 0.000000
0.751942 0.297541 0.000000
0.784264 0.292048 0.000000
0.772562 0.330207 0.000000
0.812744 0.305799 0.000000
0.655547 0.494535 0.000000
0.649767 0.472522 0.000000
0.671966 0.480244 0.000000
0.612062 0.502007 0.000000
0.616789 0.515227 0.000000
0.403059 0.898561 0.000000
0.391512 0.946883 0.000000
0.625780 0.504699 0.000000
0.635988 0.491275 0.000000
0.596252 0.650380 0.000000
0.583401 0.655132 0.000000
0.583737 0.644777 0.000000
0.713099 0.416502 0.000000
0.708474 0.388943 0.000000
0.733625 0.389568 0.000000
0.684835 0.406222 0.000000
0.656936 0.416423 0.000000
0.633624 0.425116 0.000000
0.634362 0.400237 0.000000
0.646884 0.740682 0.000000
0.654954 0.726002 0.000000
0.663305 0.741855 0.000000
0.732481 0.441235 0.000000
0.751303 0.460839 0.000000
0.721338 0.462235 0.000000
0.759622 0.437863 0.000000
0.462761 0.363156 0.000000
0.373644 0.622389 0.000000
0.346217 0.613642 0.000000
0.370315 0.594521 0.000000
0.351411 0.640635 0.000000
0.695337 0.690220 0.000000
0.705202 0.700133 0.000000
0.692303 0.700990 0.000000
0.521365 0.516400 0.000000
0.522992 0.510597 0.000000
0.527633 0.513574 0.000000
0.291567 0.329512 0.000000
0.294927 0.318154 0.000000
0.365771 0.366553 0.000000
0.366135 0.358691 0.000000
0.374180 0.368122 0.000000
0.408232 0.327056 0.000000
0.423479 0.328280 0.000000
0.411272 0.339740 0.000000
0.664110 0.670607 0.000000
0.667245 0.662649 0.000000
[...]
POINT_DATA 1818
SCALARS UX float 1
LOOKUP_TABLE default
-0.000002
0.000001
0.487979
-1.602871
-0.759168
0.314853
0.000000
-0.000000
-0.000000
-0.000000
-0.000000
-0.000000
-0.000000
-0.000000
-0.000000
-0.000000
0.000000
0.000000
0.000000
0.000000
0.000000
0.000000
0.376498
0.585894
0.748795
0.894066
1.023142
1.140702
1.246277
1.329575
1.380438
1.382950
1.311082
1.188795
1.012586
0.822430
0.651699
0.547850
0.290747
0.124624
-0.012505
-0.126641
-0.216798
-0.291279
-0.366351
-0.450097
-0.548602
-0.660829
-0.782141
-0.910420
-1.043054
-1.178372
-1.314265
-1.458971
-1.601566
-1.615918
-1.649452
-1.694115
-1.748734
-1.806778
-1.860732
-1.897314
-1.896123
-1.842634
-1.724677
-1.534679
-1.290552
-1.023347
-0.742034
-0.465875
-0.755409
-0.736634
-0.731355
-0.707750
-0.691294
-0.668805
-0.645385
-0.632018
-0.614168
-0.598352
-0.589101
-0.575732
-0.563883
-0.556108
-0.537140
-0.525451
-0.519690
-0.505278
-0.492640
-0.475093
-0.461923
-0.445911
-0.431793
-0.413604
-0.397850
-0.385545
-0.365013
-0.346793
-0.334835
-0.316430
-0.304754
-0.290344
-0.269480
-0.255036
-0.226439
-0.207039
-0.188648
-0.163371
-0.146885
-0.118234
-0.100673
-0.080359
-0.067479
-0.052132
-0.039394
-0.026401
-0.014242
0.002965
0.014536
0.028328
0.048484
0.058634
0.070320
0.087754
0.101309
0.117029
0.135829
0.143234
0.158199
0.188478
0.202786
0.235316
0.257667
0.280251
0.291030
0.299237
-0.020892
-0.008746
0.003311
-0.434164
-0.489205
-0.582560
0.005688
-0.098517
-0.165009
-0.002109
-0.076162
-0.039369
-0.069805
-0.042769
0.342480
0.310120
0.347697
-1.017435
-0.988540
-0.996251
-1.095729
-1.185665
-1.153412
0.654739
0.639444
0.573557
-0.964770
-0.034688
0.102443
-0.711309
-0.709182
-0.757665
-0.742034
-0.532538
-0.539713
-0.616481
-0.021808
-0.051303
-0.029409
-0.595585
-0.632747
-0.564763
-1.232077
-1.186455
-0.624539
-1.103454
0.756920
0.704351
0.694106
-1.099211
-1.093969
-1.079162
-0.018223
-0.030546
0.022221
-1.120194
0.996261
1.088672
1.083337
-1.191574
-1.154178
-1.145994
-0.035885
-1.271078
-1.217590
-1.169407
-0.056146
-0.042490
-1.119150
-0.077713
0.085405
-0.006441
0.188454
0.363409
0.326160
0.370496
-1.306294
-1.340664
-1.307319
0.318078
-1.346379
-0.133086
-0.183666
-0.173177
-0.152272
0.437094
0.442258
0.505726
0.485124
1.034183
1.073204
1.077277
0.309997
-1.682436
-1.705851
-1.631407
-1.755613
-0.101792
-0.077812
-0.072585
0.144815
0.118322
0.163812
0.225867
-0.211186
-0.230662
-0.260081
-1.656729
-1.586204
-1.632366
-0.280911
-0.702780
-0.670465
-0.727110
-1.092158
-1.126962
-1.106372
0.005930
0.042435
-0.054506
-1.120988
-1.364603
-1.329752
-0.970934
-0.938633
-0.943378
-0.040882
-0.026565
-0.078983
-0.063664
0.105324
0.455526
0.588527
0.500618
-1.517402
-1.575617
-1.566605
0.168487
0.199604
0.222354
0.159442
0.161282
0.199147
0.235500
-1.213129
-1.236021
0.468141
0.444933
0.454673
0.429523
-1.240859
0.979286
1.040300
1.029371
-1.121503
-1.102035
0.469016
-0.441460
-0.493916
-0.494237
0.597425
0.585940
0.609976
-1.165944
-1.157308
-1.124727
-1.188160
-0.285230
-0.351903
-0.287292
0.120159
0.169038
0.131550
0.570107
-0.355129
1.162624
0.368070
0.209607
0.250932
0.111997
0.520388
0.572232
0.628246
0.660148
0.685300
0.647163
0.696079
0.617964
0.637037
-0.693165
-0.702821
0.644728
0.647827
-0.522970
-0.562354
-0.573339
0.672778
0.614545
0.664596
0.601590
0.570117
0.545809
0.503415
-0.212560
-0.183641
-0.155894
0.752822
0.822300
0.763153
0.803566
0.158878
-1.065480
-1.128747
-1.110461
-1.081506
0.149466
0.184655
0.065318
0.023514
0.161687
0.194069
-0.862471
-0.683206
-0.227747
-0.168949
-0.140517
-0.018148
0.021609
0.007660
-0.070161
0.045678
0.063657
-1.194696
-1.212303
-1.230701
-1.240637
-0.155077
-0.231797
-0.324000
0.080569
0.142840
0.179061
0.190751
-0.399151
-0.449593
-0.342210
-0.104327
-0.236881
-0.257864
-0.880092
-0.898714
-0.919805
-0.236541
-0.371968
-0.361197
0.005777
-0.012469
0.049386
-0.062369
-0.013992
-0.215238
-0.109379
-0.835266
-0.723054
-0.692805
-0.828589
-1.398088
-1.337457
-1.375433
-1.179356
-1.222592
-1.165035
-0.254434
-0.250297
-0.706536
0.563359
0.570301
-1.277114
-1.270044
-1.245334
-0.612985
-1.276041
-1.205800
-1.159374
-1.121871
-1.103907
-0.864574
-0.893292
-0.887446
-0.858268
-0.779160
-0.741904
0.696695
0.685957
0.641791
0.776848
-1.317550
-1.293256
-1.270335
-0.719262
-0.844017
-0.669916
-0.499337
-0.429320
-0.344626
-0.206480
-0.594605
-0.699233
-0.822639
0.665498
0.540431
-0.919373
-0.916321
-0.891064
-0.270301
-0.438138
-0.423734
-0.902262
-0.852011
-0.845073
-0.571919
-0.528020
-0.526423
-0.786031
-0.848597
-0.105715
-0.125876
-0.259653
-0.255389
-0.201047
-0.309758
0.450485
0.446060
0.404823
-1.761257
-1.815539
-1.734996
-1.483454
-1.399531
-1.434062
-1.438944
-0.137367
-0.261020
-0.311269
-0.328485
-0.768023
-0.827285
-0.762022
-0.833004
-0.702154
-0.756380
-0.697529
-1.076726
-1.114437
-1.056570
-1.082507
-1.081728
-1.112623
-1.102635
-0.994529
-0.056035
-0.190804
-0.194246
0.281605
0.230662
0.240940
0.269507
0.821280
0.734379
0.757136
0.870261
0.914452
-0.882745
-0.943881
-1.004532
0.411131
0.426327
0.234104
-0.995315
-0.966695
-1.022856
-0.380781
-0.241387
-0.895255
-0.286330
-0.393064
-0.465819
0.231238
0.259427
0.226784
0.496526
0.519536
0.518799
-0.231953
-0.244520
-0.456807
0.545870
-1.238907
-1.154432
-1.327244
-1.252131
-1.346158
0.184324
0.228254
0.429942
0.452111
0.421579
0.462623
0.426094
-1.772223
-0.310603
-0.265066
-0.314925
-0.263512
-1.179265
-1.265840
-1.098144
0.456775
0.518271
0.594664
-0.196123
0.387392
0.120367
0.467686
0.480235
-0.174546
-0.098343
-0.133320
-1.239751
-1.200134
-1.201767
-0.524067
-0.574146
-1.665463
0.499031
0.527309
0.511359
0.126636
0.130543
-0.612891
-0.606497
-0.548397
0.153269
0.544010
-1.314224
-1.337768
-1.346359
-1.045726
-0.953882
-0.965178
0.131280
0.326153
0.195395
0.296122
0.012183
0.459493
0.477586
-0.792236
-0.611910
-0.655681
-0.057641
-0.012846
-1.332775
-1.309578
-1.284700
-0.033902
0.010475
0.003046
-0.020418
-1.327227
-1.367056
-1.362372
-0.625782
-0.755957
-0.538923
-0.326705
-0.349296
-0.420676
-1.092663
-0.954000
0.418716
-1.228840
-1.333755
0.355714
0.491450
0.524710
-1.034342
0.476969
0.416911
-0.855438
-0.841975
0.813469
0.860198
0.852199
-0.891501
0.397429
0.400641
0.663124
-1.042099
-1.036785
-1.022993
-0.673288
-0.623036
-0.336804
-1.065523
0.194413
0.224487
-1.050010
-0.620516
-0.664746
-0.608323
-0.666521
1.038192
0.962068
0.958986
0.442583
0.328162
0.273952
-0.658132
-0.635603
-0.583499
-0.169824
-0.120707
0.223679
0.007349
0.047062
0.151659
-0.004019
-1.242119
-1.221713
-0.143477
-0.136910
-1.045294
0.613603
0.729238
0.573367
1.236009
0.733372
0.184405
0.206733
0.235953
-1.220310
0.158274
0.044695
0.060491
0.081007
-0.554436
-0.746455
-0.642664
-0.594988
0.494341
-1.002493
-0.894976
-1.260280
-1.287137
-1.266452
-1.002621
-0.973525
-0.986269
-0.979297
0.766571
0.758100
0.803168
-0.955438
-0.050724
0.973346
0.677702
0.667291
0.204685
0.369375
0.191869
0.403778
0.302333
0.457858
-0.075098
-0.888307
-0.230111
-0.986077
-1.074707
-1.211082
-1.285485
0.075182
0.106571
-0.492319
-0.604082
0.384860
-0.188413
-1.643911
-0.244954
-1.169060
-1.133719
-1.079554
-0.264675
0.841725
0.811786
0.795615
0.780417
0.091902
0.043801
-0.500424
-0.483295
-0.439184
0.763324
0.768470
0.742992
0.738026
0.674262
0.723719
-1.053097
-1.075444
0.887027
-1.522124
-1.366041
-1.430337
0.865261
0.826025
0.784568
-0.456887
-0.506448
-0.430531
0.885959
1.020416
0.565984
0.413425
0.484816
0.320294
-0.536079
0.334123
0.320929
0.283747
0.768346
0.876151
0.833401
-1.140205
-1.214795
-1.269462
0.945898
-0.753783
-0.697154
-0.878270
-0.883521
-0.932538
-1.139987
0.124972
0.084372
0.223216
1.134015
1.202401
1.251715
1.069967
0.864421
1.089893
1.006943
-0.371750
-0.363700
-1.555380
-1.370895
-1.417724
-0.401902
0.284668
0.025286
-1.550986
-1.576091
-1.660619
-1.384404
-1.380571
-1.750934
0.234243
0.056602
-0.832771
-0.074284
-0.859608
-0.787877
-0.769835
1.272537
1.330408
-0.210566
-0.204927
-0.133457
0.121318
0.033101
0.196133
-0.037991
-0.150812
0.073291
-0.075500
-0.112290
-0.861321
-1.042547
-1.065299
-0.927617
-1.339002
-1.371580
-1.372841
-1.833000
-1.816094
-0.072380
-0.114819
-0.054899
-0.112521
-0.124551
-0.267940
-0.207399
-0.245372
-1.731755
-0.030780
-0.045652
-0.416117
-0.525749
-0.504627
1.282558
1.207716
-1.417948
0.962304
0.920966
0.921870
0.964019
-1.630193
-1.622220
-1.569024
1.015561
-0.034369
1.131276
-0.052493
-0.013290
-0.045473
-0.081822
-0.526267
0.024563
-0.043375
-0.347648
-0.301853
-0.292035
0.513335
0.403271
-0.214566
-0.702609
-0.689770
-0.226880
-0.598841
0.368988
0.445694
0.372181
0.472174
-1.272714
-1.275601
-0.766901
-0.506025
-0.054825
-0.116708
0.148555
0.127287
0.081126
-0.094376
-0.230478
-1.490054
-1.406647
-1.439395
-1.446033
-0.647905
-1.561657
-1.522460
-1.614830
-1.495503
-1.518089
-0.789156
-0.741900
-0.812422
-0.740524
-0.767872
-0.386144
-0.307938
-0.421040
-0.352511
-1.576288
-1.699658
-1.556032
0.321144
0.294064
0.313219
-0.860172
-0.897444
0.059681
0.027391
-1.465780
-1.517788
-1.464430
-1.213176
-1.194104
-1.173898
-0.610743
-0.702606
-1.383523
0.345739
0.161190
0.106883
-1.185137
-1.095193
-1.029864
-1.113259
-1.218328
-1.587981
0.547182
0.459055
-1.227150
-1.220884
-1.273354
-1.264781
0.127405
0.092072
-1.186748
0.804243
-0.221313
-0.073739
0.087968
0.128111
0.065248
-0.520368
0.086253
-1.028141
-0.883727
-0.840733
-0.892559
-0.886629
-1.245651
-1.259293
-1.300533
0.122299
0.096162
-1.320313
0.303076
0.713877
0.705759
-1.786825
-1.702975
-1.706456
-0.555073
-0.601300
-0.613304
-1.268616
1.178689
1.241606
1.165714
1.110195
1.105777
-1.437438
-1.382820
-1.154750
-1.198344
-1.164990
-0.075547
0.445139
0.299761
0.669661
-1.332368
-1.345934
-0.940007
-0.977023
-0.898607
-1.249355
-1.443288
-0.965758
0.274774
0.281136
0.287072
-0.928692
-0.855211
-0.994098
0.799870
0.836815
0.857974
-0.931128
1.082355
1.048222
-1.569818
-0.581070
0.094130
-1.496995
-1.602737
-0.446115
-0.489726
0.651234
0.631275
0.624005
-0.185920
-0.153743
0.678458
-0.154287
0.700103
-1.376167
-1.468409
0.794666
0.844226
0.728782
0.224070
-0.126205
0.950071
0.793608
1.101075
0.730591
-0.318610
-0.347654
-0.285846
-0.307465
0.361160
-0.358712
-0.400119
0.378444
-1.076267
-0.934239
-1.033977
-0.831141
-0.806330
0.247195
0.301751
-0.774773
-0.797468
-0.814644
0.338716
0.318353
0.348774
-0.965308
-0.942993
-0.927090
-1.246343
0.887800
0.927614
0.936183
-1.335142
-1.386263
-1.430517
-0.108098
-0.139178
-0.144072
-1.437236
-0.617217
-0.177982
-0.566512
-0.357417
-1.535959
-1.519201
1.139294
0.298499
0.727734
0.657310
-0.910523
-0.942590
-0.165017
-0.209227
-0.107777
-1.563242
-0.166905
-1.169760
-1.476420
-1.418579
-1.138768
-1.147372
-1.161339
0.762593
0.746899
0.755434
0.800308
0.181038
0.233162
0.180223
0.274310
-1.295322
-0.802590
-0.833593
-1.337230
-0.664373
0.190615
0.144800
0.058917
0.721419
0.541795
0.436154
0.142701
0.012742
-0.319530
-1.327931
-1.304354
-1.279629
-1.478009
-0.406621
-0.166401
-0.413203
-0.297900
-0.438925
0.250428
0.211702
-0.053794
-0.072321
-0.050846
-0.021479
0.715916
0.180951
0.130063
0.099398
-0.043118
0.237845
-0.242154
-0.184859
1.043059
-0.941252
-0.980120
-0.977147
-0.929703
-1.044878
0.982619
0.829249
0.867222
0.788050
0.758648
0.726532
-1.412388
0.068742
0.031371
0.075002
0.066394
0.183738
0.202499
0.211968
1.196606
1.256292
0.906837
-1.163508
-1.166043
-0.371971
-0.414677
0.665353
0.806525
0.736261
0.728367
-1.139022
-1.121125
-0.505192
-0.538969
-0.351024
-1.286095
-1.260252
-0.121024
-1.302444
0.483700
0.493237
0.480876
-0.115780
-0.068190
0.735349
0.645924
-0.909257
-0.956950
-0.891759
-0.938449
-0.872575
-0.882907
0.336959
0.329709
-1.511345
0.291163
0.450564
0.501006
1.026723
0.963369
0.390827
-0.105158
-0.116698
-0.172872
-0.315513
-0.560221
-0.378252
-0.448406
-0.482395
-1.137068
-1.147317
0.879997
0.381165
0.295152
0.336813
0.149261
-0.369787
-0.456640
-0.475539
0.635423
0.532236
0.459247
-1.112162
-1.114919
-0.994037
-0.275585
-0.286126
-0.230460
-0.209836
-0.113254
-0.332791
-0.293659
-0.219754
-0.538012
-0.070613
-0.147058
0.883530
0.927351
0.931223
0.742767
0.886862
0.904124
-1.174736
-0.393114
-0.679346
-0.743751
-0.734754
-0.661043
-0.723165
-0.749557
0.117452
0.635267
-0.025836
-0.266931
-0.256893
0.788686
0.780314
0.537480
0.584096
0.558413
-0.927813
-1.053967
-0.016897
0.123699
-1.239475
0.800805
0.805934
0.720129
0.679107
-1.219505
-1.301487
-1.274478
0.738550
0.732127
0.436364
0.387654
0.390210
0.392628
0.714246
0.853186
-0.050507
0.581169
0.382010
0.435907
-0.108220
-0.637773
-0.548938
0.947698
0.185882
-0.592451
0.623166
0.717042
-0.407791
-0.475751
-0.634732
-0.695290
-0.652579
-0.798617
0.608552
0.575798
-0.336291
-0.477867
-0.445591
-0.833835
-0.788027
-1.653848
0.617028
0.612965
0.593800
0.602973
0.612174
-1.118558
0.507899
-1.033294
-0.179589
-0.924227
-1.193403
-0.556427
-0.414875
-0.412177
-0.926099
0.000013
-1.113132
-1.511740
-0.120639
-0.073865
-0.174713
-1.093857
-0.986765
-0.812394
0.617073
0.152201
0.132525
-0.773938
-0.388841
0.447650
0.532912
-0.996551
-1.014982
-1.045395
0.314471
-0.807331
0.773351
0.733373
0.090692
-0.618993
-0.668682
-0.705116
-0.874316
-0.847314
-0.283041
-0.060294
1.037516
1.104850
0.290680
-0.339409
0.345743
-0.219072
-0.256479
0.440526
-0.162691
-0.410720
0.990098
-0.196725
-1.087207
-1.086808
0.685944
0.226328
0.282794
1.136349
0.316411
0.041479
-0.103422
-1.434812
-1.402867
-0.261796
-0.323594
-1.056785
-1.119086
-1.066841
1.143810
-1.123555
-0.548967
-0.775614
0.770353
-0.500829
-0.418179
-0.385121
-0.859871
-0.014040
-0.088192
0.298482
-0.603530
-0.728132
0.504746
0.542491
0.596968
0.601113
0.565742
0.190491
-1.500634
-0.608179
-0.729002
-0.709729
-0.356743
-0.316271
-0.321093
0.374849
0.406579
-0.327158
-0.423995
0.112782
0.269239
0.428837
-0.004869
0.040111
0.040399
0.083039
-0.760247
-0.931896
-0.817603
0.645490
0.633049
0.678085
-0.780492
-0.797972
0.023288
-1.028516
-1.034816
0.058719
0.079050
0.729378
0.045280
-1.153954
-1.261266
-1.157341
-0.934333
0.102189
-0.793674
-0.050090
-0.085837
-1.423592
-1.458408
0.169684
-0.163780
0.045080
-0.822755
0.259747
-0.018092
0.239614
-1.158554
-1.151441
0.345990
-0.919755
-1.183394
-1.213721
-1.304057
-1.072599
-0.825087
-0.659032
-0.612584
0.484258
0.523790
0.537073
-0.990832
-0.937589
-0.080119
-0.083326
-1.048316
-1.030294
-1.075753
-0.392121
-0.357626
-0.766514
-1.013052
0.708057
0.686457
0.007429
-1.088603
-1.094950
-1.154400
-1.091541
-1.080229
-0.027502
0.005625
0.434674
0.235381
-0.755730
-0.709921
-0.863001
-0.043868
0.026923
0.201574
0.174743
-1.070119
0.049434
0.051031
-0.430013
-0.607361
0.101620
0.055198
-0.799463
-0.692996
-0.126631
0.370538
0.355854
0.578448
-1.090765
0.578496
-0.180806
0.874729
0.886013
-1.170153
-1.158997
-0.238118
-0.228116
-0.398042
-0.437287
0.412460
0.687421
0.242579
-0.592011
0.628242
-1.227710
0.542934
0.422778
0.426015
-1.243375
0.687805
0.309643
0.110478
0.477248
0.444696
0.019469
0.324423
-1.371602
-1.317901
-1.246977
-1.352301
0.878154
0.522057
0.564727
0.527519
0.030381
-1.458239
0.939354
-1.214016
-1.072085
-1.017011
-0.005722
0.134018
0.043015
0.542013
0.314048
-0.700588
-0.673629
-1.348142
-0.129647
0.312625
0.417601
-1.486680
-1.463357
-0.671545
0.134375
0.339172
0.152280
0.230417
0.413641
0.331782
0.152312
-1.037218
0.303069
-1.142176
-0.394015
0.457668
0.563785
0.474671
0.431571
0.870525
0.581221
-1.066190
-0.997497
-0.974644
0.833696
0.837808
0.027378
0.628126
-0.793187
-0.832186
-0.823972
0.240714
0.275666
0.265091
0.290667
-0.707852
-0.106339
0.800194
0.365756
-0.913538
-0.682247
-1.468809
-0.506837
0.444689
0.644494
0.645662
-0.826044
-0.863552
-1.412576
0.809871
0.771971
-0.791599
-0.407901
0.036072
-0.006561
-1.145401
0.021165
-0.223194
-0.650749
0.840509
0.986394
0.209648
0.092377
0.043264
-1.129504
-0.359186
-0.010583
0.031010
-1.124784
1.001261
-1.174250
0.259859
0.243022
-1.413723
0.559059
0.552247
0.439388
-0.536120
0.465539
0.246149
-0.784532
0.703697
-0.751947
0.042932
-0.034335
0.057697
-0.846607
0.214466
-0.702845
-0.069762
-0.166918
-0.157226
-0.758513
1.011592
0.588460
-0.946715
-0.959232
-0.310208
0.263013
-1.540353
-1.621673
-1.637604
-0.811222
-1.102307
0.505205
-0.853761
0.309518
0.655926
0.661502
-0.144242
-0.762280
-0.829812
-0.919438
0.825714
0.790730
0.343885
0.313035
-0.426314
-0.600854
-1.206754
-1.217760
0.403720
-1.059313
-0.522548
-0.548627
-1.070340
-1.160333
0.454597
0.295864
0.574794
0.493700
-0.613500
0.697881
0.566920
-0.412873
-0.878360
-0.951996
0.538520
0.461931
-0.911661
0.487368
0.193170
-1.144050
0.670158
-0.495041
-1.276479
0.632287
0.619187
-0.484738
-0.472048
-0.978582
-1.106350
0.614245
0.633936
0.650562
-0.166817
0.409209
-0.131434
-0.917914
-1.299923
0.328467
0.381420
-0.932142
-1.012652
0.475743
0.642948
0.000436
0.154691
0.085040
0.662316
0.982658
-0.261722
-0.242510
-0.508038
-1.208629
0.468825
-0.949826
-0.227260
-0.220054
0.025808
0.213577
-1.032263
0.549206
-0.949269
-0.596419
0.648009
-0.859864
-0.662539
-0.765913
-1.048571
-0.326102
-0.213717
-1.016349
0.594049
-1.000278
-0.104807
-0.163998
-0.381683
-0.084692
-0.326795
-0.299236
0.403409
-0.911220
-0.951554
-0.300647
-0.087406
-0.155900
-0.619525
-0.652062
-0.452288
-0.703738
-0.516690
-0.259202
-0.648649
-0.420891
-0.406331
0.053916
-0.868871
0.675607
0.509264
-0.211450
-1.065761
-1.032973
-0.328484
0.190728
0.282677
-0.517311
-0.065024
-0.883162
-1.008391
-0.089774
0.395502
0.502647
0.527427
0.703295
-1.038205
0.269051
-0.939884
-0.766430
-0.970781
0.484601
-0.539169
0.393009
-1.072231
0.257127
0.226649
0.193756
-1.196177
-0.015153
-0.516561
-0.647321
-0.043071
-0.517593
-1.055838
0.078069
0.531087
-0.483392
-0.757353
-0.083859
SCALARS UY float 1
LOOKUP_TABLE default
-0.000003
-0.000003
-4.509998
-4.509999
-1.158261
-3.212445
-0.000001
-0.000001
-0.000001
-0.000001
-0.000001
-0.000001
-0.000001
-0.000001
-0.000001
-0.000001
-0.000001
-0.000001
-0.000001
-0.000001
-0.000001
-0.000001
-0.406202
-0.703630
-0.967218
-1.214801
-1.449991
-1.674740
-1.885750
-2.076183
-2.255180
-2.416072
-2.590680
-2.788695
-3.039870
-3.356302
-3.718376
-4.110457
-4.509999
-4.509999
-4.509999
-4.509999
-4.509999
-4.509999
-4.509999
-4.509999
-4.509999
-4.509999
-4.509999
-4.509999
-4.509999
-4.509999
-4.509999
-4.509999
-4.217633
-3.928516
-3.647723
-3.373992
-3.115997
-2.876520
-2.658387
-2.465825
-2.291015
-2.134053
-1.970952
-1.777571
-1.539773
-1.237124
-0.889652
-0.499381
-1.172385
-1.214065
-1.264253
-1.292280
-1.326411
-1.383908
-1.421029
-1.447074
-1.473716
-1.500059
-1.521934
-1.557292
-1.591893
-1.615175
-1.650450
-1.675941
-1.696249
-1.725244
-1.751160
-1.779910
-1.803552
-1.827826
-1.849094
-1.878521
-1.905074
-1.915670
-1.949692
-1.980762
-2.001035
-2.031613
-2.056513
-2.083401
-2.115218
-2.125629
-2.154127
-2.171732
-2.190086
-2.219604
-2.232801
-2.264713
-2.285569
-2.313895
-2.333869
-2.369592
-2.399780
-2.428779
-2.458094
-2.492922
-2.522050
-2.553398
-2.594145
-2.620915
-2.643842
-2.683287
-2.717691
-2.754164
-2.794608
-2.829640
-2.863772
-2.915873
-2.963351
-3.038345
-3.069091
-3.103612
-3.133686
-3.184433
-0.171505
-0.092021
-0.206569
-2.701586
-2.801866
-2.857960
-0.110919
-1.580696
-1.592131
-1.456076
-0.394031
-0.444969
-0.458248
-0.510634
-1.180313
-1.111242
-1.154873
-2.762731
-2.751850
-2.800033
-1.794603
-1.905274
-1.836240
-2.459811
-2.455129
-2.621600
-2.773295
-1.447597
-1.322886
-3.278155
-3.328697
-3.265271
-3.322264
-3.128271
-3.213162
-3.222943
-0.064508
-0.155915
-0.078116
-4.360527
-4.229990
-4.229109
-1.991549
-1.971796
-4.111972
-1.850829
-2.256254
-2.333639
-2.309944
-2.764284
-2.732058
-2.770723
-1.041685
-0.978813
-0.974289
-2.706947
-1.605097
-1.675127
-1.751492
-2.238216
-2.173136
-2.215580
-0.145361
-1.669569
-1.543441
-1.585407
-0.148520
-0.109113
-1.479142
-0.188340
-1.835632
-1.881634
-1.700653
-1.468174
-1.473120
-1.403127
-2.231081
-2.173409
-2.142382
-1.414381
-2.259988
-0.489443
-0.508781
-0.459933
-0.558665
-1.743941
-1.689553
-1.666255
-1.617802
-2.548456
-2.469380
-2.574177
-1.549973
-2.264087
-2.121984
-2.131887
-2.298213
-0.288470
-0.209809
-0.238587
-1.184346
-1.143035
-1.109733
-1.589928
-0.475578
-0.527694
-0.504821
-1.968926