# vtk DataFile Version 2.0
Test
ASCII
DATASET POLYDATA
POINTS 1818 float
0.000000 0.000000 0.000000
1.000000 0.000000 0.000000
1.000000 1.000000 0.000000
0.000000 1.000000 0.000000
0.300000 0.330000 0.000000
0.700000 0.680000 0.000000
0.058824 0.000000 0.000000
0.117647 0.000000 0.000000
0.176471 0.000000 0.000000
0.235294 0.000000 0.000000
0.294118 0.000000 0.000000
0.352941 0.000000 0.000000
0.411765 0.000000 0.000000
0.470588 0.000000 0.000000
0.529412 0.000000 0.000000
0.588235 0.000000 0.000000
0.647059 0.000000 0.000000
0.705882 0.000000 0.000000
0.764706 0.000000 0.000000
0.823529 0.000000 0.000000
0.882353 0.000000 0.000000
0.941176 0.000000 0.000000
1.000000 0.058824 0.000000
1.000000 0.117647 0.000000
1.000000 0.176471 0.000000
1.000000 0.235294 0.000000
1.000000 0.294118 0.000000
1.000000 0.352941 0.000000
1.000000 0.411765 0.000000
1.000000 0.470588 0.000000
1.000000 0.529412 0.000000
1.000000 0.588235 0.000000
1.000000 0.647059 0.000000
1.000000 0.705882 0.000000
1.000000 0.764706 0.000000
1.000000 0.823529 0.000000
1.000000 0.882353 0.000000
1.000000 0.941176 0.000000
0.941176 1.000000 0.000000
0.882353 1.000000 0.000000
0.823529 1.000000 0.000000
0.764706 1.000000 0.000000
0.705882 1.000000 0.000000
0.647059 1.000000 0.000000
0.588235 1.000000 0.000000
0.529412 1.000000 0.000000
0.470588 1.000000 0.000000
0.411765 1.000000 0.000000
0.352941 1.000000 0.000000
0.294118 1.000000 0.000000
0.235294 1.000000 0.000000
0.176471 1.000000 0.000000
0.117647 1.000000 0.000000
0.058824 1.000000 0.000000
0.000000 0.941176 0.000000
0.000000 0.882353 0.000000
0.000000 0.823529 0.000000
0.000000 0.764706 0.000000
0.000000 0.705882 0.000000
0.000000 0.647059 0.000000
0.000000 0.588235 0.000000
0.000000 0.529412 0.000000
0.000000 0.470588 0.000000
0.000000 0.411765 0.000000
0.000000 0.352941 0.000000
0.000000 0.294118 0.000000
0.000000 0.235294 0.000000
0.000000 0.176471 0.000000
0.000000 0.117647 0.000000
0.000000 0.058824 0.000000
0.305970 0.335224 0.000000
0.311940 0.340448 0.000000
0.317910 0.345672 0.000000
0.323881 0.350896 0.000000
0.329851 0.356119 0.000000
0.335821 0.361343 0.000000
0.341791 0.366567 0.000000
0.347761 0.371791 0.000000
0.353731 0.377015 0.000000
0.359701 0.382239 0.000000
0.365672 0.387463 0.000000
0.371642 0.392687 0.000000
0.377612 0.397910 0.000000
0.383582 0.403134 0.000000
0.389552 0.408358 0.000000
0.395522 0.413582 0.000000
0.401493 0.418806 0.000000
0.407463 0.424030 0.000000
0.413433 0.429254 0.000000
0.419403 0.434478 0.000000
0.425373 0.439701 0.000000
0.431343 0.444925 0.000000
0.437313 0.450149 0.000000
0.443284 0.455373 0.000000
0.449254 0.460597 0.000000
0.455224 0.465821 0.000000
0.461194 0.471045 0.000000
0.467164 0.476269 0.000000
0.473134 0.481493 0.000000
0.479104 0.486716 0.000000
0.485075 0.491940 0.000000
0.491045 0.497164 0.000000
0.497015 0.502388 0.000000
0.502985 0.507612 0.000000
0.508955 0.512836 0.000000
0.514925 0.518060 0.000000
0.520896 0.523284 0.000000
0.526866 0.528507 0.000000
0.532836 0.533731 0.000000
0.538806 0.538955 0.000000
0.544776 0.544179 0.000000
0.550746 0.549403 0.000000
0.556716 0.554627 0.000000
0.562687 0.559851 0.000000
0.568657 0.565075 0.000000
0.574627 0.570299 0.000000
0.580597 0.575522 0.000000
0.586567 0.580746 0.000000
0.592537 0.585970 0.000000
0.598507 0.591194 0.000000
0.604478 0.596418 0.000000
0.610448 0.601642 0.000000
0.616418 0.606866 0.000000
0.622388 0.612090 0.000000
0.628358 0.617313 0.000000
0.634328 0.622537 0.000000
0.640299 0.627761 0.000000
0.646269 0.632985 0.000000
0.652239 0.638209 0.000000
0.658209 0.643433 0.000000
0.664179 0.648657 0.000000
0.670149 0.653881 0.000000
0.676119 0.659104 0.000000
0.682090 0.664328 0.000000
0.688060 0.669552 0.000000
0.694030 0.674776 0.000000
0.516135 0.080917 0.000000
0.549338 0.042552 0.000000
0.567302 0.088709 0.000000
0.555658 0.563778 0.000000
0.559301 0.571359 0.000000
0.552318 0.570919 0.000000
0.603235 0.047100 0.000000
0.446553 0.448087 0.000000
0.438652 0.443189 0.000000
0.445116 0.440368 0.000000
0.437254 0.190586 0.000000
0.465954 0.201747 0.000000
0.439184 0.213838 0.000000
0.453137 0.228102 0.000000
0.522423 0.410182 0.000000
0.522098 0.390982 0.000000
0.537289 0.398500 0.000000
0.453388 0.527105 0.000000
0.462022 0.524948 0.000000
0.461218 0.533993 0.000000
0.324300 0.374550 0.000000
0.319287 0.386214 0.000000
0.314834 0.375138 0.000000
0.668809 0.628853 0.000000
0.677366 0.632907 0.000000
0.668274 0.639611 0.000000
0.469934 0.529282 0.000000
0.439703 0.436699 0.000000
0.446608 0.432083 0.000000
0.542854 0.633425 0.000000
0.535117 0.647070 0.000000
0.524302 0.633157 0.000000
0.519372 0.648877 0.000000
0.586338 0.611293 0.000000
0.591638 0.624149 0.000000
0.575478 0.621479 0.000000
0.437962 0.035513 0.000000
0.421505 0.085456 0.000000
0.394924 0.044162 0.000000
0.445207 0.955749 0.000000
0.429168 0.919510 0.000000
0.464409 0.914226 0.000000
0.317150 0.400904 0.000000
0.328626 0.395860 0.000000
0.439616 0.884412 0.000000
0.330406 0.381773 0.000000
0.676842 0.602700 0.000000
0.674982 0.614185 0.000000
0.665930 0.611798 0.000000
0.414707 0.535036 0.000000
0.420123 0.526072 0.000000
0.425338 0.533771 0.000000
0.398407 0.375558 0.000000
0.393804 0.363255 0.000000
0.407284 0.365452 0.000000
0.407758 0.523337 0.000000
0.899969 0.377867 0.000000
0.945915 0.378245 0.000000
0.914158 0.409130 0.000000
0.358219 0.436142 0.000000
0.361390 0.425428 0.000000
0.369309 0.432300 0.000000
0.465999 0.075074 0.000000
0.269944 0.367761 0.000000
0.266521 0.352125 0.000000
0.283474 0.357667 0.000000
0.385889 0.083020 0.000000
0.359482 0.060981 0.000000
0.279658 0.346766 0.000000
0.363604 0.104040 0.000000
0.511115 0.503731 0.000000
0.503243 0.499914 0.000000
0.509146 0.494910 0.000000
0.513188 0.475753 0.000000
0.504957 0.474656 0.000000
0.511959 0.464784 0.000000
0.311863 0.447505 0.000000
0.293019 0.442078 0.000000
0.305555 0.431691 0.000000
0.499204 0.464990 0.000000
0.293855 0.459576 0.000000
0.396676 0.236328 0.000000
0.371014 0.247362 0.000000
0.373003 0.229199 0.000000
0.384478 0.261522 0.000000
0.555704 0.523331 0.000000
0.551313 0.515879 0.000000
0.562752 0.515269 0.000000
0.554954 0.506854 0.000000
0.804236 0.611103 0.000000
0.819351 0.593503 0.000000
0.832061 0.615776 0.000000
0.509908 0.485173 0.000000
0.129738 0.481190 0.000000
0.110722 0.443736 0.000000
0.154857 0.452634 0.000000
0.089738 0.485299 0.000000
0.396427 0.153886 0.000000
0.393058 0.115469 0.000000
0.420333 0.126587 0.000000
0.442628 0.413512 0.000000
0.434815 0.404283 0.000000
0.446816 0.400259 0.000000
0.499770 0.482873 0.000000
0.353883 0.235057 0.000000
0.351360 0.254011 0.000000
0.332147 0.240870 0.000000
0.112307 0.405527 0.000000
0.140355 0.392788 0.000000
0.142004 0.423465 0.000000
0.334868 0.263052 0.000000
0.551239 0.594093 0.000000
0.560217 0.601969 0.000000
0.546711 0.604614 0.000000
0.398510 0.570197 0.000000
0.387124 0.557316 0.000000
0.399978 0.555748 0.000000
0.705281 0.743146 0.000000
0.722930 0.758853 0.000000
0.697202 0.758074 0.000000
0.380190 0.572638 0.000000
0.278345 0.431947 0.000000
0.292575 0.428097 0.000000
0.470820 0.540616 0.000000
0.478213 0.533042 0.000000
0.480161 0.543190 0.000000
0.415268 0.299334 0.000000
0.412465 0.313515 0.000000
0.400419 0.297680 0.000000
0.396495 0.317117 0.000000
0.718655 0.732879 0.000000
0.709319 0.677587 0.000000
0.715709 0.670111 0.000000
0.719283 0.682820 0.000000
0.212992 0.453899 0.000000
0.184619 0.470046 0.000000
0.186665 0.440862 0.000000
0.452307 0.386568 0.000000
0.460371 0.397715 0.000000
0.478664 0.456068 0.000000
0.476179 0.462123 0.000000
0.471250 0.456445 0.000000
0.464654 0.388544 0.000000
0.483415 0.461045 0.000000
0.357146 0.449596 0.000000
0.344653 0.443966 0.000000
0.554562 0.459423 0.000000
0.543333 0.457517 0.000000
0.553850 0.449505 0.000000
0.543131 0.445036 0.000000
0.347312 0.459318 0.000000
0.781088 0.538918 0.000000
0.810909 0.534152 0.000000
0.799399 0.553968 0.000000
0.402869 0.534333 0.000000
0.408011 0.546121 0.000000
0.703844 0.670118 0.000000
0.552234 0.794299 0.000000
0.528593 0.795589 0.000000
0.539188 0.770312 0.000000
0.596088 0.518714 0.000000
0.593029 0.508081 0.000000
0.604120 0.510731 0.000000
0.384880 0.468703 0.000000
0.382270 0.455963 0.000000
0.394062 0.458803 0.000000
0.374729 0.466839 0.000000
0.340939 0.294790 0.000000
0.324530 0.290188 0.000000
0.338473 0.279923 0.000000
0.465367 0.336545 0.000000
0.477337 0.352846 0.000000
0.459495 0.350024 0.000000
0.584947 0.516440 0.000000
0.326802 0.302636 0.000000
0.945343 0.420397 0.000000
0.779746 0.749037 0.000000
0.771533 0.774140 0.000000
0.758291 0.749848 0.000000
0.743435 0.765852 0.000000
0.751942 0.297541 0.000000
0.784264 0.292048 0.000000
0.772562 0.330207 0.000000
0.812744 0.305799 0.000000
0.655547 0.494535 0.000000
0.649767 0.472522 0.000000
0.671966 0.480244 0.000000
0.612062 0.502007 0.000000
0.616789 0.515227 0.000000
0.403059 0.898561 0.000000
0.391512 0.946883 0.000000
0.625780 0.504699 0.000000
0.635988 0.491275 0.000000
0.596252 0.650380 0.000000
0.583401 0.655132 0.000000
0.583737 0.644777 0.000000
0.713099 0.416502 0.000000
0.708474 0.388943 0.000000
0.733625 0.389568 0.000000
0.684835 0.406222 0.000000
0.656936 0.416423 0.000000
0.633624 0.425116 0.000000
0.634362 0.400237 0.000000
0.646884 0.740682 0.000000
0.654954 0.726002 0.000000
0.663305 0.741855 0.000000
0.732481 0.441235 0.000000
0.751303 0.460839 0.000000
0.721338 0.462235 0.000000
0.759622 0.437863 0.000000
0.462761 0.363156 0.000000
0.373644 0.622389 0.000000
0.346217 0.613642 0.000000
0.370315 0.594521 0.000000
0.351411 0.640635 0.000000
0.695337 0.690220 0.000000
0.705202 0.700133 0.000000
0.692303 0.700990 0.000000
0.521365 0.516400 0.000000
0.522992 0.510597 0.000000
0.527633 0.513574 0.000000
0.291567 0.329512 0.000000
0.294927 0.318154 0.000000
0.365771 0.366553 0.000000
0.366135 0.358691 0.000000
0.374180 0.368122 0.000000
0.408232 0.327056 0.000000
0.423479 0.328280 0.000000
0.411272 0.339740 0.000000
0.664110 0.670607 0.000000
0.667245 0.662649 0.000000
[...]
POINT_DATA 1818
SCALARS UX float 1
LOOKUP_TABLE default
-0.000004
0.000003
0.651360
-3.491300
-1.397530
0.251241
0.000000
-0.000000
-0.000000
-0.000000
-0.000000
-0.000000
-0.000000
-0.000000
-0.000000
-0.000000
0.000000
0.000000
0.000000
0.000000
0.000001
0.000000
0.663034
1.023281
1.295414
1.538069
1.749588
1.939715
2.108669
2.240966
2.325335
2.340434
2.246947
2.078121
1.804016
1.450068
1.075115
0.820716
0.180326
-0.182024
-0.447895
-0.654684
-0.815084
-0.950545
-1.091294
-1.250032
-1.438237
-1.654614
-1.889539
-2.138431
-2.396477
-2.660571
-2.926421
-3.208682
-3.464842
-3.458271
-3.478640
-3.512004
-3.559229
-3.611681
-3.658258
-3.680312
-3.648437
-3.544010
-3.350816
-3.043843
-2.628236
-2.131667
-1.550708
-0.977695
-1.388580
-1.329707
-1.287076
-1.281127
-1.259352
-1.440820
-1.384558
-1.348952
-1.307198
-1.276845
-1.256264
-1.232972
-1.211170
-1.195209
-1.163569
-1.143445
-1.132596
-1.107816
-1.085889
-1.056698
-1.034713
-1.007385
-0.983374
-0.953024
-0.926629
-0.906276
-0.871919
-0.841602
-0.821433
-0.790835
-0.771159
-0.747082
-0.712167
-0.688167
-0.640909
-0.608601
-0.577983
-0.536099
-0.508294
-0.460460
-0.430948
-0.396783
-0.375238
-0.349379
-0.327892
-0.306086
-0.285548
-0.256591
-0.237058
-0.213385
-0.179423
-0.162378
-0.143519
-0.115721
-0.092736
-0.067825
-0.038057
-0.018132
0.055101
0.023305
0.061355
0.122878
0.167283
0.208841
0.229682
0.230597
-0.037839
-0.015260
0.000088
-1.000640
-1.101640
-1.268285
0.007307
-0.400062
-0.515159
-0.220360
-0.146141
-0.089957
-0.143183
-0.104333
0.437513
0.395008
0.457400
-2.043289
-1.986634
-2.008745
-2.112905
-2.237324
-2.164487
0.795891
0.815897
0.703820
-1.945156
-0.276211
-0.023128
-1.561795
-1.572442
-1.649151
-1.636418
-1.204249
-1.229750
-1.370846
-0.035957
-0.087052
-0.048819
-1.521090
-1.585743
-1.455452
-2.372514
-2.261971
-1.562979
-2.109461
1.109592
0.997431
0.966961
-2.207860
-2.189328
-2.167615
-0.176341
-0.183570
-0.092576
-2.237774
1.675950
1.840703
1.822742
-2.309117
-2.231842
-2.219657
-0.061377
-2.415953
-2.312925
-2.214258
-0.094453
-0.070658
-2.114215
-0.130601
-0.098977
-0.258414
0.089245
0.420667
0.351856
0.442815
-2.539186
-2.601819
-2.526189
0.344911
-2.625643
-0.253818
-0.340454
-0.315070
-0.297964
0.528005
0.542055
0.662291
0.628731
1.688915
1.766959
1.781217
0.313943
-3.279394
-3.309056
-3.173911
-3.412055
-0.177726
-0.132803
-0.126477
0.074595
0.036480
0.122860
0.161461
-0.378813
-0.419804
-0.461328
-3.215208
-3.082082
-3.168836
-0.507868
-1.506442
-1.453045
-1.562066
-2.229134
-2.284315
-2.242324
-0.358534
-0.290512
-0.476377
-2.288110
-2.639715
-2.563283
-1.966108
-1.898814
-1.915915
-0.140089
-0.126916
-0.203297
-0.193997
-0.164119
0.509134
0.762064
0.598265
-2.953803
-3.074733
-3.044748
0.144621
0.189597
0.175048
0.054930
0.062533
0.197418
0.195122
-2.359095
-2.399477
0.630639
0.588142
0.613347
0.569461
-2.419773
1.587799
1.709460
1.682985
-2.250754
-2.224112
0.536627
-1.194860
-1.291902
-1.280892
0.836369
0.821069
0.866483
-2.281721
-2.256323
-2.196096
-2.323193
-0.542454
-0.648891
-0.531230
0.104832
0.176154
0.113334
0.784730
-0.667738
1.960178
0.383782
0.050059
0.132151
-0.152249
0.834878
0.930409
1.019948
1.086947
1.029294
0.970217
1.061689
0.888780
0.916991
-1.696517
-1.725249
0.940088
0.956684
-1.228138
-1.306597
-1.315485
1.060524
0.966750
1.060526
0.931431
0.863817
0.810009
0.748506
-0.758770
-0.697786
-0.657992
1.198595
1.320553
1.205816
1.296832
0.149430
-2.230406
-2.343722
-2.289627
-2.278559
-0.055832
-0.000773
-0.221495
-0.210152
0.036031
0.092402
-1.595587
-1.257747
-0.542651
-0.424231
-0.385278
-0.124354
-0.057026
-0.091697
-0.425178
-0.214335
-0.181507
-2.347919
-2.398425
-2.421777
-2.457262
-0.541874
-0.660926
-0.850364
-0.111526
0.187520
0.250223
0.258941
-0.819948
-0.898030
-0.695983
-0.375939
-0.627179
-0.661047
-1.838497
-1.883977
-1.907857
-0.599319
-0.856435
-0.831874
-0.070430
-0.400821
-0.280498
-0.500302
-0.408686
-0.378805
-0.312905
-1.703012
-1.497934
-1.445925
-1.685477
-2.685825
-2.561317
-2.639885
-2.236333
-2.312067
-2.202740
-0.641745
-0.641939
-1.586129
0.778209
0.796755
-2.547122
-2.516927
-2.483496
-1.147677
-2.761317
-2.616496
-2.555601
-2.469361
-2.086444
-1.781253
-1.839798
-1.820655
-1.778114
-1.558873
-1.498019
1.001878
0.956261
0.825255
1.162922
-2.576970
-2.523632
-2.466324
-1.322543
-1.574471
-1.229163
-0.913773
-0.778269
-0.601820
-0.337998
-1.104116
-1.343751
-1.593911
0.923312
0.692333
-1.730685
-1.850177
-1.806415
-0.734317
-1.040731
-1.008106
-1.833590
-1.673002
-1.658395
-1.391056
-1.303403
-1.314340
-1.575897
-1.683542
-0.255443
-0.277650
-0.540427
-0.510178
-0.426596
-0.604186
0.638207
0.621502
0.559224
-3.510522
-3.565110
-3.432389
-3.078126
-2.936299
-3.016356
-2.980922
-0.551923
-0.770461
-0.790704
-0.821394
-1.599005
-1.710573
-1.582975
-1.714875
-1.478340
-1.582373
-1.473180
-2.108505
-2.180665
-2.065688
-2.125529
-2.129607
-2.188439
-2.175490
-2.014466
-0.306297
-0.556139
-0.558938
0.397234
0.313794
0.337173
0.368009
1.366446
1.209979
1.258577
1.462234
1.527270
-1.626137
-1.744187
-1.927963
0.470968
0.497159
0.152406
-1.978674
-1.928924
-2.038403
-0.951776
-0.697063
-1.791217
-0.773921
-0.963605
-1.113109
0.248513
0.287789
0.230204
0.656917
0.702755
0.694243
-0.442718
-0.452667
-1.113298
0.749913
-2.652802
-2.507667
-2.799176
-2.654458
-2.808600
0.238371
0.301877
0.554240
0.587467
0.530240
0.614222
0.583136
-3.430033
-0.967926
-0.885784
-0.981425
-0.877180
-2.256633
-2.444551
-2.112124
0.547583
0.661238
0.802993
-0.372884
0.522178
-0.137973
0.611087
0.640908
-0.653461
-0.513997
-0.595175
-2.397681
-2.313951
-2.324123
-1.249936
-1.339225
-3.342473
0.699983
0.746078
0.711939
0.065999
0.087764
-1.494446
-1.464885
-1.378506
0.130628
0.767527
-2.585300
-2.638853
-2.641128
-2.039684
-1.875066
-1.898178
-0.023467
0.326452
0.088997
0.273703
-0.224421
0.516825
0.543402
-1.604060
-1.290524
-1.366354
-0.220698
-0.137913
-2.658866
-2.608082
-2.580863
-0.158920
-0.002557
-0.021633
-0.052714
-2.665918
-2.746337
-2.719886
-1.148516
-1.397571
-0.979204
-0.582226
-0.632548
-0.756128
-2.481481
-2.211309
0.501195
-2.388203
-2.589330
0.378855
0.668385
0.725577
-2.355291
0.654149
0.540806
-1.785414
-1.771802
1.292456
1.381441
1.358358
-1.847546
0.500228
0.495192
1.010254
-2.092238
-2.073340
-2.064820
-1.308195
-1.223737
-0.604023
-2.122768
0.169463
0.213634
-2.085050
-1.420862
-1.487291
-1.384958
-1.507639
1.722210
1.577108
1.584430
0.520851
0.315026
0.218921
-1.602613
-1.548516
-1.465844
-0.341884
-0.256966
0.147676
-0.237079
-0.152606
0.037551
-0.015848
-2.395676
-2.359203
-0.487324
-0.474324
-1.963411
0.893749
1.117474
0.802419
2.082826
1.135310
0.271832
0.312103
0.354774
-2.308452
0.036614
-0.031974
0.002235
0.024762
-1.194632
-1.526754
-1.433852
-1.345193
0.615193
-1.875948
-1.667220
-2.466497
-2.522871
-2.469526
-2.039315
-1.989406
-2.020324
-1.902556
1.128633
1.110271
1.211014
-1.966444
-0.101459
1.652385
1.003046
0.974054
0.103658
0.398915
0.080345
0.463117
0.275275
0.560803
-0.306709
-1.747919
-0.660920
-1.909002
-2.052577
-2.565479
-2.692832
0.040086
0.093946
-0.935778
-1.139534
0.456044
-0.723884
-3.274212
-0.824516
-2.474095
-2.432724
-2.327837
-0.849831
1.309505
1.243446
1.218716
1.178218
0.053754
-0.014202
-1.239034
-1.193171
-1.132191
1.171754
1.172587
1.128383
1.111134
1.157623
1.230419
-2.336646
-2.360628
1.513706
-3.243600
-2.947221
-3.100783
1.334047
1.262819
1.166690
-1.243163
-1.325364
-1.184529
1.384779
1.708648
0.952502
0.676825
0.816665
0.520963
-1.388511
0.453623
0.422712
0.371565
1.196441
1.380941
1.317592
-2.555747
-2.715569
-2.795296
1.531474
-1.524640
-1.429463
-1.744823
-1.791011
-1.859583
-2.308229
0.191258
0.128188
0.348269
1.940550
2.038900
2.142641
1.806985
1.471894
1.886965
1.760324
-1.069839
-1.063856
-3.062057
-2.742844
-2.807736
-1.139081
0.411631
-0.032284
-3.037927
-3.070200
-3.226653
-2.706870
-2.682618
-3.387022
0.334984
0.022382
-1.974651
-0.134971
-1.978372
-1.842941
-1.822105
2.140873
2.241555
-0.794279
-0.775808
-0.646921
-0.158753
-0.331554
0.015554
-0.483045
-0.688371
-0.270121
-0.227906
-0.280080
-1.648383
-2.023589
-2.090437
-1.753420
-2.653464
-2.720241
-2.703500
-3.546108
-3.502076
-0.119897
-0.193312
-0.088560
-0.186208
-0.202702
-0.835712
-0.727668
-0.805884
-3.352646
-0.050724
-0.070135
-0.983103
-1.184669
-1.139610
2.168972
2.032311
-2.793747
1.539369
1.452291
1.460023
1.540867
-3.199044
-3.168209
-3.078444
1.648286
-0.063471
1.895558
-0.476193
-0.035520
-0.116625
-0.171516
-1.170362
0.036401
-0.083827
-1.007806
-0.921382
-0.914580
0.696817
0.441971
-0.429785
-1.692133
-1.679143
-0.802387
-1.319315
0.581263
0.708087
0.579783
0.759314
-2.448435
-2.466166
-1.829704
-1.341128
-0.078573
-0.185818
0.219678
0.182219
0.114417
-0.135933
-0.382502
-3.011513
-2.870733
-2.951580
-2.918329
-1.493312
-3.085261
-3.040560
-3.194730
-2.972299
-2.992448
-1.690582
-1.603687
-1.874246
-1.747836
-1.640166
-0.683933
-0.541038
-1.149814
-1.025192
-3.218743
-3.433202
-3.146107
0.383541
0.341585
0.382434
-1.826577
-1.894582
-0.020035
-0.069343
-2.886858
-2.971927
-2.864400
-2.419838
-2.372809
-2.348684
-1.127178
-1.306050
-2.811899
0.430395
0.229597
0.145135
-2.385491
-2.321847
-2.226185
-2.368175
-2.443788
-3.083478
0.872143
0.723134
-2.537550
-2.546248
-2.629812
-2.635406
0.171001
0.110308
-2.346086
1.360122
-0.603698
-0.325972
0.111082
0.157377
0.061298
-1.163589
0.085277
-2.202909
-1.896048
-1.838564
-1.924454
-1.931744
-2.533684
-2.575197
-2.632242
0.088439
0.036571
-2.689627
0.270876
1.072868
1.047440
-3.490417
-3.334482
-3.362642
-1.335507
-1.424596
-1.426788
-2.484985
1.975037
2.086110
1.948671
1.849754
1.836224
-2.781578
-2.694081
-2.409199
-2.465977
-2.445886
-0.544489
0.566084
0.243641
1.038003
-2.737181
-2.783297
-2.147571
-2.205420
-2.059755
-2.440345
-2.831869
-2.168345
0.341795
0.340569
0.367394
-1.862133
-1.722257
-1.989550
1.207133
1.282845
1.323955
-1.737406
1.787684
1.717302
-3.045886
-1.364226
-0.089834
-3.158952
-3.361340
-1.230635
-1.319187
0.935019
0.894773
0.885672
-0.420860
-0.353913
0.987332
-0.336488
1.024792
-2.654506
-2.836419
1.182354
1.290379
1.083948
0.328303
-0.318934
1.520224
1.220283
1.823086
1.070774
-0.922992
-0.962591
-0.855420
-0.884004
0.488749
-1.061118
-1.141645
0.499140
-2.419216
-2.154486
-2.321805
-1.764388
-1.709372
0.321883
0.410602
-1.690895
-1.735945
-1.749437
0.398910
0.368880
0.424751
-2.010164
-1.959287
-1.944493
-2.503437
1.381415
1.464528
1.482362
-2.560515
-2.659570
-2.754323
-0.195127
-0.242808
-0.260489
-2.778156
-1.537994
-0.315135
-1.451385
-1.063192
-2.976558
-2.946517
1.899538
0.326259
1.188359
1.059142
-1.928517
-1.981539
-0.690657
-0.775511
-0.184197
-3.129864
-0.689314
-2.325194
-2.850449
-2.731527
-2.254082
-2.280101
-2.297256
1.151601
1.112183
1.123024
1.240590
0.277167
0.359443
0.272871
0.422038
-2.470010
-1.759710
-1.796438
-2.559328
-1.342622
0.031896
-0.051533
-0.207087
1.212212
0.812162
0.563379
0.170591
-0.302872
-0.979122
-2.553352
-2.506664
-2.441667
-2.862359
-0.793409
-0.301621
-0.761383
-0.933731
-0.821254
0.313152
0.259823
-0.095306
-0.179345
-0.134608
-0.101423
1.017586
0.278421
0.197572
0.151228
-0.424789
0.368970
-0.421676
-0.320712
1.722146
-2.078034
-2.161760
-2.127130
-2.089104
-2.289774
1.603302
1.272846
1.350356
1.180792
1.118291
1.046076
-2.737489
-0.020133
0.044435
0.112173
0.096265
0.180404
0.220535
0.225674
2.005740
2.114910
1.463738
-2.388803
-2.371586
-1.017786
-1.071880
0.953930
1.311854
1.180596
1.178399
-2.244666
-2.216575
-0.929369
-1.003209
-0.903929
-2.536338
-2.480681
-0.599911
-2.580893
0.698298
0.706861
0.678873
-0.577937
-0.481485
1.054650
0.861486
-2.008506
-2.076610
-1.961926
-2.025983
-1.957283
-1.991704
0.491200
0.466646
-2.939591
0.431665
0.651578
0.733359
1.701829
1.600949
0.546829
-0.579957
-0.606215
-0.710014
-0.931609
-1.413313
-0.663899
-0.795697
-0.859668
-2.288006
-2.292495
1.371448
0.582906
0.447779
0.500191
-0.034976
-0.983467
-1.178923
-1.222638
0.804611
0.648174
0.517853
-2.138389
-2.132266
-1.918008
-0.909049
-0.495662
-0.391347
-0.359365
-0.590955
-0.575971
-0.503576
-0.368254
-1.290285
-0.501476
-0.251458
1.398628
1.490567
1.487263
1.081759
1.396077
1.475936
-2.281057
-1.135614
-1.582696
-1.701675
-1.670239
-1.566856
-1.682153
-1.594440
0.173653
0.809169
-0.439888
-0.896943
-0.882833
1.177248
1.176982
0.819162
0.838660
0.782689
-1.683820
-1.993324
-0.269022
0.186118
-2.427282
1.206606
1.218669
1.035829
0.948698
-2.379074
-2.630317
-2.429246
1.141834
1.117677
0.641149
0.555169
0.571815
0.588198
1.108061
1.468348
-0.360605
0.782538
0.406859
0.510301
-0.224617
-1.379664
-1.261703
1.587960
0.230175
-1.300915
0.852660
1.051806
-1.110939
-1.235522
-1.495878
-1.593418
-1.514083
-1.836005
0.849549
0.788326
-0.731693
-1.015697
-0.937003
-1.877285
-1.666391
-3.222384
0.896831
0.899425
0.844880
0.892537
0.922475
-2.220679
0.634454
-1.943569
-0.571140
-1.903558
-2.325614
-1.216371
-0.965083
-0.961658
-1.721045
-0.208141
-2.082626
-2.928874
-0.400397
-0.439984
-0.630283
-2.069322
-1.894931
-1.600990
0.853842
0.160241
0.139436
-1.553595
-0.940341
0.505397
0.661230
-2.109801
-2.159369
-2.178875
0.316673
-1.614818
1.155278
1.071156
0.080397
-1.337779
-1.425742
-1.501265
-1.865641
-1.831942
-0.608746
-0.431159
1.729948
1.845731
0.249009
-0.674284
0.338632
-0.510918
-0.586860
0.520131
-0.403212
-0.721315
1.597248
-0.670446
-2.105294
-2.100984
0.987420
0.172046
0.282691
1.891725
0.350668
-0.165250
-0.420406
-2.865508
-2.827925
-0.795745
-0.887331
-2.056034
-2.176359
-2.072524
1.920559
-2.180062
-1.190650
-1.597142
1.194513
-1.169074
-0.822330
-0.739647
-1.756052
-0.182577
-0.318106
0.272525
-1.303074
-1.538256
0.645070
0.713433
0.821209
0.824825
0.762573
0.076655
-3.070971
-1.283195
-1.488837
-1.445421
-0.782888
-0.992659
-0.997239
0.483168
0.538328
-0.817270
-0.771745
-0.040419
0.210748
0.496012
-0.175078
-0.084558
-0.095771
-0.009321
-1.605125
-1.848166
-1.642199
0.902024
0.874954
0.963130
-1.634931
-1.677124
-0.105528
-2.031112
-2.037946
0.071058
0.106274
1.070604
0.044605
-2.197866
-2.407487
-2.251004
-1.982166
0.033759
-1.604190
-0.194740
-0.257106
-2.774059
-2.833757
0.195549
-0.519475
-0.153253
-1.729944
0.297923
-0.029998
0.272760
-2.332937
-2.332093
0.481840
-1.886665
-2.270255
-2.429798
-2.576175
-2.128170
-1.722907
-1.374660
-1.296341
0.612944
0.687271
0.717708
-2.080765
-2.006548
-0.282642
-0.276399
-2.157617
-2.141068
-2.215712
-1.066838
-1.015557
-1.566150
-2.101317
1.023406
0.974239
-0.049388
-2.161730
-2.182796
-2.228371
-2.106227
-2.078920
-0.225020
-0.169875
0.511077
0.153447
-1.747838
-1.681328
-1.817973
-0.443962
-0.304301
0.233129
0.121101
-2.141435
0.075090
0.077253
-1.010560
-1.290515
-0.015764
-0.098214
-1.645510
-1.448888
-0.331374
0.456181
0.422817
0.772122
-2.090582
0.771053
-0.541032
1.426228
1.436256
-2.305653
-2.275791
-0.761074
-0.755330
-1.005622
-1.089286
0.442646
0.971580
0.288461
-1.314269
0.911518
-2.346896
0.893898
0.681894
0.691836
-2.347829
0.933094
0.489663
-0.018186
0.624039
0.562035
-0.327455
0.518490
-2.926633
-2.811096
-2.728857
-2.594691
1.444983
0.759891
0.830441
0.757070
0.033111
-2.891133
1.560229
-2.376272
-2.120594
-2.014556
-0.060088
0.149426
0.011572
0.734219
0.392794
-1.521073
-1.491368
-2.969216
-0.205387
0.274932
0.514147
-3.231014
-3.206883
-1.475327
0.206253
0.566108
0.244914
0.068193
0.494585
0.276579
-0.066896
-2.013005
0.228642
-2.196473
-0.854247
0.581400
0.750621
0.583037
0.542533
1.384970
0.725266
-2.103028
-2.062848
-2.037739
1.387521
1.365549
0.033874
0.838600
-1.772540
-1.839349
-1.839342
0.215531
0.275484
0.269668
0.323887
-1.543551
-0.201169
1.212263
0.580880
-1.776932
-1.619311
-2.942402
-0.910941
0.575827
1.029190
1.010906
-1.929875
-2.008998
-2.806114
1.273031
1.211394
-1.796352
-1.015003
0.023696
-0.043814
-2.258088
-0.005988
-0.805302
-1.425924
1.319167
1.593119
0.051032
-0.201414
-0.297816
-2.310653
-0.631239
-0.058093
0.001995
-2.206894
1.706006
-2.603521
0.278644
0.236222
-2.770283
0.931628
0.790156
0.594924
-1.342972
0.644352
0.169519
-1.746167
1.102541
-1.683916
-0.106869
-0.259795
0.087035
-1.595137
0.333630
-1.592664
-0.520361
-0.278844
-0.265125
-1.677301
1.651206
0.933133
-1.856577
-1.875786
-0.533423
0.168793
-3.195724
-3.361236
-3.353694
-1.687350
-2.182224
0.632742
-1.954286
0.281794
1.019420
1.018825
-0.583177
-1.831367
-1.956056
-1.763128
1.364055
1.293734
0.367642
0.307989
-0.983924
-1.293469
-2.435073
-2.469841
0.479573
-2.035403
-1.031345
-1.059171
-2.179796
-2.498641
0.696347
0.462266
0.835872
0.771755
-1.118785
1.163990
0.928200
-0.729002
-1.773130
-1.913137
0.834641
0.696535
-1.860062
0.622328
0.009642
-2.240083
0.973612
-1.099311
-2.440924
0.891021
0.949445
-1.172337
-1.159581
-2.018881
-2.155165
0.845710
0.888634
0.918101
-0.403761
0.550017
-0.637495
-1.757442
-2.496073
0.269730
0.483112
-1.778649
-1.989791
0.584811
0.891715
-0.230353
0.055865
-0.017057
1.110683
1.659481
-0.709884
-0.678384
-1.122852
-2.468813
0.758807
-1.944331
-0.526308
-0.493318
-0.273379
0.113968
-2.119016
0.720979
-1.876675
-1.141747
0.898794
-1.714337
-1.372583
-1.535589
-2.132689
-0.839296
-0.638217
-2.079411
0.804397
-1.939373
-0.498757
-0.451181
-0.864346
-0.390151
-0.819664
-0.773567
0.525644
-1.816271
-1.886950
-0.666373
-0.422763
-0.424602
-1.301022
-1.382079
-1.027912
-1.457376
-1.132848
-0.620799
-1.372317
-0.973469
-0.890419
-0.236103
-1.779418
0.890359
0.654417
-0.636761
-2.042170
-1.959214
-0.747484
0.140547
0.332080
-1.135838
-0.342805
-1.728016
-1.952503
-0.388617
0.469256
0.677751
0.690297
1.018368
-2.104183
0.211494
-1.917225
-1.429224
-1.974936
0.726401
-1.037396
0.455538
-2.166284
0.224526
0.196548
0.138189
-2.273191
-0.270088
-1.135651
-1.366542
-0.355721
-1.058501
-2.125632
-0.047708
0.729185
-1.116482
-1.570630
-0.301372
SCALARS UY float 1
LOOKUP_TABLE default
-0.000006
-0.000005
-7.609997
-7.609998
-1.915324
-5.297423
-0.000002
-0.000002
-0.000002
-0.000002
-0.000001
-0.000001
-0.000001
-0.000001
-0.000001
-0.000001
-0.000002
-0.000002
-0.000002
-0.000002
-0.000002
-0.000002
-0.682769
-1.176606
-1.596045
-1.990543
-2.358155
-2.709096
-3.037612
-3.331351
-3.606772
-3.853963
-4.123891
-4.426972
-4.830242
-5.390198
-6.070045
-6.835318
-7.609998
-7.609998
-7.609998
-7.609998
-7.609999
-7.609999
-7.609999
-7.609999
-7.609998
-7.609998
-7.609998
-7.609998
-7.609998
-7.609998
-7.609998
-7.609998
-7.125790
-6.649168
-6.190819
-5.747297
-5.331241
-4.951133
-4.607479
-4.306265
-4.036049
-3.793646
-3.542727
-3.242526
-2.854353
-2.331824
-1.678123
-0.934523
-1.925766
-2.010115
-2.091614
-2.072657
-2.097331
-2.403399
-2.454658
-2.482534
-2.517148
-2.545973
-2.575424
-2.626884
-2.678245
-2.711567
-2.763751
-2.800159
-2.828032
-2.871290
-2.910078
-2.953768
-2.988744
-3.025757
-3.057623
-3.103042
-3.143811
-3.158769
-3.212940
-3.262357
-3.294125
-3.342832
-3.382463
-3.425213
-3.476447
-3.492861
-3.539131
-3.567557
-3.597364
-3.645444
-3.667190
-3.719894
-3.754506
-3.801387
-3.834359
-3.893580
-3.943724
-3.991813
-4.040880
-4.098964
-4.147595
-4.200231
-4.268493
-4.313381
-4.351455
-4.417458
-4.476492
-4.537462
-4.603824
-4.670360
-4.784384
-4.844742
-4.905484
-4.999880
-5.062888
-5.127786
-5.184266
-5.255892
-0.251192
-0.133562
-0.301664
-4.456924
-4.630873
-4.732209
-0.160283
-2.585811
-2.611906
-2.366386
-0.591985
-0.669496
-0.692348
-0.773931
-1.848089
-1.733393
-1.801681
-4.615967
-4.592153
-4.676690
-2.956919
-3.261015
-3.099542
-4.135449
-4.087963
-4.273007
-4.625106
-2.355141
-2.128705
-5.479492
-5.569603
-5.461673
-5.561923
-5.198972
-5.349200
-5.372996
-0.094735
-0.230379
-0.115400
-7.356109
-7.134143
-7.133244
-3.429466
-3.350516
-6.933284
-3.154082
-3.620425
-3.772778
-3.734050
-4.638725
-4.580653
-4.644090
-1.663433
-1.557855
-1.543362
-4.544749
-2.558668
-2.690566
-2.796388
-3.783421
-3.667656
-3.732638
-0.213785
-2.900738
-2.686895
-2.735004
-0.219942
-0.161345
-2.553591
-0.279326
-2.992686
-3.075363
-2.756623
-2.342290
-2.355916
-2.229204
-3.818283
-3.746654
-3.678563
-2.255795
-3.885414
-0.744775
-0.779094
-0.700574
-0.856808
-2.804347
-2.710507
-2.661193
-2.580618
-4.047584
-3.916031
-4.086601
-2.489459
-3.958193
-3.742201
-3.742546
-4.021490
-0.430992
-0.311578
-0.354507