# vtk DataFile Version 2.0
Test
ASCII
DATASET POLYDATA
POINTS 1818 float
0.000000 0.000000 0.000000
1.000000 0.000000 0.000000
1.000000 1.000000 0.000000
0.000000 1.000000 0.000000
0.300000 0.330000 0.000000
0.700000 0.680000 0.000000
0.058824 0.000000 0.000000
0.117647 0.000000 0.000000
0.176471 0.000000 0.000000
0.235294 0.000000 0.000000
0.294118 0.000000 0.000000
0.352941 0.000000 0.000000
0.411765 0.000000 0.000000
0.470588 0.000000 0.000000
0.529412 0.000000 0.000000
0.588235 0.000000 0.000000
0.647059 0.000000 0.000000
0.705882 0.000000 0.000000
0.764706 0.000000 0.000000
0.823529 0.000000 0.000000
0.882353 0.000000 0.000000
0.941176 0.000000 0.000000
1.000000 0.058824 0.000000
1.000000 0.117647 0.000000
1.000000 0.176471 0.000000
1.000000 0.235294 0.000000
1.000000 0.294118 0.000000
1.000000 0.352941 0.000000
1.000000 0.411765 0.000000
1.000000 0.470588 0.000000
1.000000 0.529412 0.000000
1.000000 0.588235 0.000000
1.000000 0.647059 0.000000
1.000000 0.705882 0.000000
1.000000 0.764706 0.000000
1.000000 0.823529 0.000000
1.000000 0.882353 0.000000
1.000000 0.941176 0.000000
0.941176 1.000000 0.000000
0.882353 1.000000 0.000000
0.823529 1.000000 0.000000
0.764706 1.000000 0.000000
0.705882 1.000000 0.000000
0.647059 1.000000 0.000000
0.588235 1.000000 0.000000
0.529412 1.000000 0.000000
0.470588 1.000000 0.000000
0.411765 1.000000 0.000000
0.352941 1.000000 0.000000
0.294118 1.000000 0.000000
0.235294 1.000000 0.000000
0.176471 1.000000 0.000000
0.117647 1.000000 0.000000
0.058824 1.000000 0.000000
0.000000 0.941176 0.000000
0.000000 0.882353 0.000000
0.000000 0.823529 0.000000
0.000000 0.764706 0.000000
0.000000 0.705882 0.000000
0.000000 0.647059 0.000000
0.000000 0.588235 0.000000
0.000000 0.529412 0.000000
0.000000 0.470588 0.000000
0.000000 0.411765 0.000000
0.000000 0.352941 0.000000
0.000000 0.294118 0.000000
0.000000 0.235294 0.000000
0.000000 0.176471 0.000000
0.000000 0.117647 0.000000
0.000000 0.058824 0.000000
0.305970 0.335224 0.000000
0.311940 0.340448 0.000000
0.317910 0.345672 0.000000
0.323881 0.350896 0.000000
0.329851 0.356119 0.000000
0.335821 0.361343 0.000000
0.341791 0.366567 0.000000
0.347761 0.371791 0.000000
0.353731 0.377015 0.000000
0.359701 0.382239 0.000000
0.365672 0.387463 0.000000
0.371642 0.392687 0.000000
0.377612 0.397910 0.000000
0.383582 0.403134 0.000000
0.389552 0.408358 0.000000
0.395522 0.413582 0.000000
0.401493 0.418806 0.000000
0.407463 0.424030 0.000000
0.413433 0.429254 0.000000
0.419403 0.434478 0.000000
0.425373 0.439701 0.000000
0.431343 0.444925 0.000000
0.437313 0.450149 0.000000
0.443284 0.455373 0.000000
0.449254 0.460597 0.000000
0.455224 0.465821 0.000000
0.461194 0.471045 0.000000
0.467164 0.476269 0.000000
0.473134 0.481493 0.000000
0.479104 0.486716 0.000000
0.485075 0.491940 0.000000
0.491045 0.497164 0.000000
0.497015 0.502388 0.000000
0.502985 0.507612 0.000000
0.508955 0.512836 0.000000
0.514925 0.518060 0.000000
0.520896 0.523284 0.000000
0.526866 0.528507 0.000000
0.532836 0.533731 0.000000
0.538806 0.538955 0.000000
0.544776 0.544179 0.000000
0.550746 0.549403 0.000000
0.556716 0.554627 0.000000
0.562687 0.559851 0.000000
0.568657 0.565075 0.000000
0.574627 0.570299 0.000000
0.580597 0.575522 0.000000
0.586567 0.580746 0.000000
0.592537 0.585970 0.000000
0.598507 0.591194 0.000000
0.604478 0.596418 0.000000
0.610448 0.601642 0.000000
0.616418 0.606866 0.000000
0.622388 0.612090 0.000000
0.628358 0.617313 0.000000
0.634328 0.622537 0.000000
0.640299 0.627761 0.000000
0.646269 0.632985 0.000000
0.652239 0.638209 0.000000
0.658209 0.643433 0.000000
0.664179 0.648657 0.000000
0.670149 0.653881 0.000000
0.676119 0.659104 0.000000
0.682090 0.664328 0.000000
0.688060 0.669552 0.000000
0.694030 0.674776 0.000000
0.516135 0.080917 0.000000
0.549338 0.042552 0.000000
0.567302 0.088709 0.000000
0.555658 0.563778 0.000000
0.559301 0.571359 0.000000
0.552318 0.570919 0.000000
0.603235 0.047100 0.000000
0.446553 0.448087 0.000000
0.438652 0.443189 0.000000
0.445116 0.440368 0.000000
0.437254 0.190586 0.000000
0.465954 0.201747 0.000000
0.439184 0.213838 0.000000
0.453137 0.228102 0.000000
0.522423 0.410182 0.000000
0.522098 0.390982 0.000000
0.537289 0.398500 0.000000
0.453388 0.527105 0.000000
0.462022 0.524948 0.000000
0.461218 0.533993 0.000000
0.324300 0.374550 0.000000
0.319287 0.386214 0.000000
0.314834 0.375138 0.000000
0.668809 0.628853 0.000000
0.677366 0.632907 0.000000
0.668274 0.639611 0.000000
0.469934 0.529282 0.000000
0.439703 0.436699 0.000000
0.446608 0.432083 0.000000
0.542854 0.633425 0.000000
0.535117 0.647070 0.000000
0.524302 0.633157 0.000000
0.519372 0.648877 0.000000
0.586338 0.611293 0.000000
0.591638 0.624149 0.000000
0.575478 0.621479 0.000000
0.437962 0.035513 0.000000
0.421505 0.085456 0.000000
0.394924 0.044162 0.000000
0.445207 0.955749 0.000000
0.429168 0.919510 0.000000
0.464409 0.914226 0.000000
0.317150 0.400904 0.000000
0.328626 0.395860 0.000000
0.439616 0.884412 0.000000
0.330406 0.381773 0.000000
0.676842 0.602700 0.000000
0.674982 0.614185 0.000000
0.665930 0.611798 0.000000
0.414707 0.535036 0.000000
0.420123 0.526072 0.000000
0.425338 0.533771 0.000000
0.398407 0.375558 0.000000
0.393804 0.363255 0.000000
0.407284 0.365452 0.000000
0.407758 0.523337 0.000000
0.899969 0.377867 0.000000
0.945915 0.378245 0.000000
0.914158 0.409130 0.000000
0.358219 0.436142 0.000000
0.361390 0.425428 0.000000
0.369309 0.432300 0.000000
0.465999 0.075074 0.000000
0.269944 0.367761 0.000000
0.266521 0.352125 0.000000
0.283474 0.357667 0.000000
0.385889 0.083020 0.000000
0.359482 0.060981 0.000000
0.279658 0.346766 0.000000
0.363604 0.104040 0.000000
0.511115 0.503731 0.000000
0.503243 0.499914 0.000000
0.509146 0.494910 0.000000
0.513188 0.475753 0.000000
0.504957 0.474656 0.000000
0.511959 0.464784 0.000000
0.311863 0.447505 0.000000
0.293019 0.442078 0.000000
0.305555 0.431691 0.000000
0.499204 0.464990 0.000000
0.293855 0.459576 0.000000
0.396676 0.236328 0.000000
0.371014 0.247362 0.000000
0.373003 0.229199 0.000000
0.384478 0.261522 0.000000
0.555704 0.523331 0.000000
0.551313 0.515879 0.000000
0.562752 0.515269 0.000000
0.554954 0.506854 0.000000
0.804236 0.611103 0.000000
0.819351 0.593503 0.000000
0.832061 0.615776 0.000000
0.509908 0.485173 0.000000
0.129738 0.481190 0.000000
0.110722 0.443736 0.000000
0.154857 0.452634 0.000000
0.089738 0.485299 0.000000
0.396427 0.153886 0.000000
0.393058 0.115469 0.000000
0.420333 0.126587 0.000000
0.442628 0.413512 0.000000
0.434815 0.404283 0.000000
0.446816 0.400259 0.000000
0.499770 0.482873 0.000000
0.353883 0.235057 0.000000
0.351360 0.254011 0.000000
0.332147 0.240870 0.000000
0.112307 0.405527 0.000000
0.140355 0.392788 0.000000
0.142004 0.423465 0.000000
0.334868 0.263052 0.000000
0.551239 0.594093 0.000000
0.560217 0.601969 0.000000
0.546711 0.604614 0.000000
0.398510 0.570197 0.000000
0.387124 0.557316 0.000000
0.399978 0.555748 0.000000
0.705281 0.743146 0.000000
0.722930 0.758853 0.000000
0.697202 0.758074 0.000000
0.380190 0.572638 0.000000
0.278345 0.431947 0.000000
0.292575 0.428097 0.000000
0.470820 0.540616 0.000000
0.478213 0.533042 0.000000
0.480161 0.543190 0.000000
0.415268 0.299334 0.000000
0.412465 0.313515 0.000000
0.400419 0.297680 0.000000
0.396495 0.317117 0.000000
0.718655 0.732879 0.000000
0.709319 0.677587 0.000000
0.715709 0.670111 0.000000
0.719283 0.682820 0.000000
0.212992 0.453899 0.000000
0.184619 0.470046 0.000000
0.186665 0.440862 0.000000
0.452307 0.386568 0.000000
0.460371 0.397715 0.000000
0.478664 0.456068 0.000000
0.476179 0.462123 0.000000
0.471250 0.456445 0.000000
0.464654 0.388544 0.000000
0.483415 0.461045 0.000000
0.357146 0.449596 0.000000
0.344653 0.443966 0.000000
0.554562 0.459423 0.000000
0.543333 0.457517 0.000000
0.553850 0.449505 0.000000
0.543131 0.445036 0.000000
0.347312 0.459318 0.000000
0.781088 0.538918 0.000000
0.810909 0.534152 0.000000
0.799399 0.553968 0.000000
0.402869 0.534333 0.000000
0.408011 0.546121 0.000000
0.703844 0.670118 0.000000
0.552234 0.794299 0.000000
0.528593 0.795589 0.000000
0.539188 0.770312 0.000000
0.596088 0.518714 0.000000
0.593029 0.508081 0.000000
0.604120 0.510731 0.000000
0.384880 0.468703 0.000000
0.382270 0.455963 0.000000
0.394062 0.458803 0.000000
0.374729 0.466839 0.000000
0.340939 0.294790 0.000000
0.324530 0.290188 0.000000
0.338473 0.279923 0.000000
0.465367 0.336545 0.000000
0.477337 0.352846 0.000000
0.459495 0.350024 0.000000
0.584947 0.516440 0.000000
0.326802 0.302636 0.000000
0.945343 0.420397 0.000000
0.779746 0.749037 0.000000
0.771533 0.774140 0.000000
0.758291 0.749848 0.000000
0.743435 0.765852 0.000000
0.751942 0.297541 0.000000
0.784264 0.292048 0.000000
0.772562 0.330207 0.000000
0.812744 0.305799 0.000000
0.655547 0.494535 0.000000
0.649767 0.472522 0.000000
0.671966 0.480244 0.000000
0.612062 0.502007 0.000000
0.616789 0.515227 0.000000
0.403059 0.898561 0.000000
0.391512 0.946883 0.000000
0.625780 0.504699 0.000000
0.635988 0.491275 0.000000
0.596252 0.650380 0.000000
0.583401 0.655132 0.000000
0.583737 0.644777 0.000000
0.713099 0.416502 0.000000
0.708474 0.388943 0.000000
0.733625 0.389568 0.000000
0.684835 0.406222 0.000000
0.656936 0.416423 0.000000
0.633624 0.425116 0.000000
0.634362 0.400237 0.000000
0.646884 0.740682 0.000000
0.654954 0.726002 0.000000
0.663305 0.741855 0.000000
0.732481 0.441235 0.000000
0.751303 0.460839 0.000000
0.721338 0.462235 0.000000
0.759622 0.437863 0.000000
0.462761 0.363156 0.000000
0.373644 0.622389 0.000000
0.346217 0.613642 0.000000
0.370315 0.594521 0.000000
0.351411 0.640635 0.000000
0.695337 0.690220 0.000000
0.705202 0.700133 0.000000
0.692303 0.700990 0.000000
0.521365 0.516400 0.000000
0.522992 0.510597 0.000000
0.527633 0.513574 0.000000
0.291567 0.329512 0.000000
0.294927 0.318154 0.000000
0.365771 0.366553 0.000000
0.366135 0.358691 0.000000
0.374180 0.368122 0.000000
0.408232 0.327056 0.000000
0.423479 0.328280 0.000000
0.411272 0.339740 0.000000
0.664110 0.670607 0.000000
0.667245 0.662649 0.000000
[...]
POINT_DATA 1818
SCALARS UX float 1
LOOKUP_TABLE default
-0.000001
0.000001
0.372522
-1.048566
-0.530631
0.264781
0.000000
-0.000000
-0.000000
-0.000000
-0.000000
-0.000000
-0.000000
-0.000000
-0.000000
-0.000000
0.000000
0.000000
0.000000
0.000000
0.000000
0.000000
0.264152
0.413220
0.530597
0.635526
0.729697
0.816025
0.893932
0.955686
0.993041
0.993889
0.938995
0.846546
0.717965
0.586185
0.473603
0.407578
0.247334
0.138360
0.044518
-0.035791
-0.100105
-0.153186
-0.206166
-0.264780
-0.333060
-0.410201
-0.493178
-0.580667
-0.670879
-0.762636
-0.854510
-0.952009
-1.051284
-1.065762
-1.094424
-1.131923
-1.177032
-1.224842
-1.269706
-1.301563
-1.305028
-1.268647
-1.182902
-1.044338
-0.869774
-0.683999
-0.493921
-0.307359
-0.527327
-0.512414
-0.508824
-0.491600
-0.479616
-0.463149
-0.445790
-0.435757
-0.422455
-0.410637
-0.403608
-0.393602
-0.384754
-0.378919
-0.364863
-0.356139
-0.351744
-0.341057
-0.331710
-0.318736
-0.308966
-0.297165
-0.286755
-0.273386
-0.261769
-0.252708
-0.237733
-0.224425
-0.215684
-0.202309
-0.193791
-0.183330
-0.168201
-0.157699
-0.136959
-0.122936
-0.109615
-0.091333
-0.079482
-0.058844
-0.046246
-0.031669
-0.022413
-0.011506
-0.002450
0.006807
0.015371
0.027594
0.035792
0.045499
0.059739
0.066842
0.075122
0.087371
0.096697
0.107918
0.120740
0.124601
0.131465
0.153766
0.179834
0.196808
0.208800
0.215827
0.235656
0.248085
-0.014049
-0.005908
0.003798
-0.283554
-0.321569
-0.387181
0.004732
-0.045540
-0.093660
0.023174
-0.051238
-0.023924
-0.045627
-0.025242
0.266169
0.241632
0.268872
-0.695377
-0.675626
-0.679875
-0.765463
-0.825949
-0.804754
0.478678
0.469098
0.438525
-0.658620
-0.000345
0.097447
-0.469311
-0.466186
-0.501724
-0.488891
-0.347145
-0.350275
-0.404367
-0.015522
-0.036187
-0.020939
-0.366556
-0.393223
-0.346464
-0.856228
-0.825774
-0.388730
-0.770203
0.553691
0.529233
0.511987
-0.750736
-0.748305
-0.737149
0.006203
-0.004181
0.033754
-0.766646
0.716863
0.781302
0.779594
-0.825474
-0.800860
-0.794644
-0.025111
-0.883681
-0.847445
-0.815249
-0.039833
-0.030309
-0.781223
-0.055261
0.087505
0.021505
0.160943
0.284718
0.258377
0.289287
-0.902092
-0.925753
-0.904335
0.252237
-0.927823
-0.090756
-0.126990
-0.120326
-0.103263
0.337452
0.341038
0.385619
0.371101
0.755954
0.781823
0.783537
0.247322
-1.153965
-1.171876
-1.120425
-1.204673
-0.071334
-0.054930
-0.050744
0.126098
0.106413
0.138382
0.187564
-0.147664
-0.160750
-0.182753
-1.138251
-1.089997
-1.121845
-0.196472
-0.468263
-0.444676
-0.483903
-0.741115
-0.766657
-0.752823
0.050748
0.076530
0.008515
-0.760453
-0.942843
-0.919728
-0.661527
-0.640025
-0.642105
-0.019151
-0.007373
-0.047014
-0.033838
0.120225
0.377377
0.466860
0.406021
-1.043462
-1.081599
-1.077215
0.140435
0.163627
0.184070
0.139629
0.140743
0.162479
0.193627
-0.838831
-0.854975
0.358145
0.341667
0.348133
0.330130
-0.856640
0.717924
0.758299
0.752191
-0.766086
-0.751188
0.389181
-0.265841
-0.302377
-0.304322
0.450439
0.442503
0.459564
-0.804538
-0.799988
-0.777269
-0.819947
-0.196741
-0.245306
-0.199750
0.100930
0.137584
0.110411
0.431129
-0.246236
0.835709
0.298441
0.190860
0.219926
0.124626
0.381217
0.416986
0.458465
0.478841
0.512243
0.484214
0.518615
0.465251
0.478799
-0.435510
-0.440544
0.484251
0.485944
-0.335310
-0.362408
-0.371309
0.496646
0.453872
0.488502
0.446563
0.425831
0.409867
0.378056
-0.107901
-0.089467
-0.065784
0.554089
0.603691
0.563153
0.588717
0.131300
-0.715651
-0.760141
-0.750239
-0.724244
0.146360
0.174951
0.088127
0.043018
0.141825
0.164958
-0.603924
-0.477808
-0.144409
-0.103425
-0.081765
0.000202
0.029032
0.020267
-0.019731
0.061415
0.069193
-0.822601
-0.832254
-0.846587
-0.851021
-0.080080
-0.132338
-0.195963
0.083944
0.111708
0.137577
0.147563
-0.270444
-0.307554
-0.231804
-0.051988
-0.146604
-0.162098
-0.592295
-0.603982
-0.620717
-0.148264
-0.245712
-0.238237
0.015885
0.038649
0.081645
0.004215
0.038050
-0.151386
-0.061720
-0.568578
-0.490381
-0.468699
-0.564837
-0.967312
-0.927371
-0.952232
-0.821985
-0.850765
-0.812039
-0.160500
-0.157024
-0.462259
0.426501
0.431437
-0.873049
-0.870634
-0.851749
-0.426511
-0.841243
-0.794811
-0.759289
-0.735693
-0.771299
-0.585266
-0.604633
-0.601724
-0.579618
-0.538485
-0.511531
0.525325
0.529194
0.469588
0.575569
-0.907457
-0.891915
-0.878112
-0.502854
-0.587963
-0.468415
-0.347642
-0.299505
-0.243401
-0.148764
-0.412508
-0.480065
-0.563602
0.516014
0.428171
-0.641283
-0.625580
-0.607474
-0.163680
-0.279377
-0.270643
-0.614270
-0.592111
-0.587696
-0.362363
-0.332621
-0.329971
-0.541940
-0.586056
-0.065646
-0.081588
-0.174167
-0.173438
-0.133537
-0.212271
0.342311
0.340045
0.309562
-1.195949
-1.239920
-1.182117
-0.993349
-0.933735
-0.955247
-0.964854
-0.072275
-0.155454
-0.195907
-0.207846
-0.518288
-0.559388
-0.514960
-0.564395
-0.472229
-0.509379
-0.468332
-0.743550
-0.769505
-0.730423
-0.746595
-0.745209
-0.766534
-0.758715
-0.677399
-0.016161
-0.112559
-0.115253
0.215099
0.178032
0.184625
0.207536
0.593704
0.532950
0.547248
0.626242
0.660219
-0.617064
-0.661440
-0.701293
0.318727
0.329283
0.193018
-0.683477
-0.663001
-0.701372
-0.236449
-0.140278
-0.614209
-0.172181
-0.246816
-0.295906
0.185955
0.207068
0.183727
0.379197
0.395459
0.394951
-0.159467
-0.169685
-0.288170
0.414128
-0.821158
-0.761284
-0.884454
-0.833542
-0.901139
0.144229
0.177316
0.331360
0.347407
0.325790
0.354561
0.326086
-1.217838
-0.170741
-0.137861
-0.172527
-0.138083
-0.817676
-0.874537
-0.758593
0.349785
0.393052
0.445936
-0.134705
0.297745
0.130084
0.358614
0.367294
-0.091565
-0.038075
-0.056501
-0.858905
-0.833260
-0.833183
-0.334189
-0.369635
-1.128743
0.379210
0.399691
0.388723
0.110996
0.112294
-0.387402
-0.385201
-0.342218
0.128243
0.412158
-0.903058
-0.917791
-0.925638
-0.723820
-0.659327
-0.666723
0.120208
0.259050
0.165949
0.237747
0.034898
0.355487
0.370414
-0.542527
-0.414608
-0.445553
-0.024793
0.006827
-0.910145
-0.895313
-0.875444
-0.010252
0.011520
0.007125
-0.011021
-0.903817
-0.930235
-0.929584
-0.437853
-0.528625
-0.377867
-0.229628
-0.244615
-0.295426
-0.706325
-0.612095
0.324420
-0.846685
-0.918864
0.279944
0.374979
0.398766
-0.668498
0.363969
0.321533
-0.575941
-0.565020
0.599477
0.631809
0.627604
-0.601877
0.307985
0.310808
0.494297
-0.712169
-0.709758
-0.697667
-0.460446
-0.424258
-0.235493
-0.730409
0.160911
0.183147
-0.720898
-0.402595
-0.435279
-0.395389
-0.434701
0.752901
0.701314
0.696360
0.339491
0.258547
0.219981
-0.415504
-0.401574
-0.363446
-0.114363
-0.079161
0.186170
0.031425
0.059621
0.134212
-0.000737
-0.861488
-0.848543
-0.077689
-0.073027
-0.730444
0.469831
0.545754
0.438334
0.888733
0.544566
0.139453
0.154989
0.177066
-0.849403
0.139396
0.047421
0.057962
0.074226
-0.372918
-0.509489
-0.421124
-0.387634
0.375522
-0.701616
-0.626488
-0.868527
-0.886185
-0.873994
-0.681710
-0.660775
-0.668733
-0.679969
0.599656
0.570922
0.612264
-0.646687
-0.033190
0.696955
0.507648
0.500334
0.172336
0.289357
0.163063
0.313889
0.241799
0.351778
-0.032008
-0.615212
-0.136185
-0.685568
-0.751369
-0.807127
-0.859890
0.067032
0.089655
-0.340891
-0.419034
0.300062
-0.087787
-1.117996
-0.129323
-0.780112
-0.752230
-0.715450
-0.146265
0.625245
0.604773
0.592396
0.582145
0.080882
0.044453
-0.314931
-0.304317
-0.272389
0.567810
0.572328
0.553876
0.550874
0.479451
0.517218
-0.688906
-0.706827
0.633230
-1.007020
-0.900681
-0.940267
0.648399
0.621872
0.597434
-0.273131
-0.309477
-0.256498
0.659486
0.736164
0.405630
0.299161
0.346917
0.232054
-0.328768
0.257020
0.248453
0.220299
0.575901
0.649679
0.616942
-0.741178
-0.789739
-0.830460
0.694180
-0.517733
-0.477007
-0.605338
-0.596293
-0.633299
-0.770532
0.092848
0.062782
0.164275
0.814595
0.865614
0.897564
0.772839
0.623471
0.780070
0.718834
-0.216400
-0.208869
-1.062107
-0.930734
-0.966701
-0.234889
0.216019
0.029409
-1.061836
-1.081724
-1.140012
-0.952222
-0.951732
-1.203311
0.178511
0.051894
-0.529678
-0.051044
-0.554937
-0.505553
-0.491246
0.916139
0.957634
-0.097301
-0.094817
-0.043782
0.132440
0.072062
0.180793
0.024954
-0.054493
0.101688
-0.040705
-0.068938
-0.592605
-0.714878
-0.727993
-0.639758
-0.916869
-0.938300
-0.941863
-1.259312
-1.249340
-0.051820
-0.081762
-0.039757
-0.080731
-0.089998
-0.153208
-0.110338
-0.134862
-1.190134
-0.022071
-0.033668
-0.267827
-0.343676
-0.330145
0.923017
0.871481
-0.971824
0.709958
0.683681
0.682935
0.711464
-1.115756
-1.112579
-1.074813
0.744492
-0.023117
0.818537
0.010421
-0.006693
-0.026232
-0.053307
-0.346934
0.018701
-0.028702
-0.203123
-0.171567
-0.162063
0.394316
0.325345
-0.145277
-0.445363
-0.434858
-0.113591
-0.394717
0.271924
0.327579
0.275573
0.345265
-0.882345
-0.882956
-0.487296
-0.306298
-0.041268
-0.084983
0.112348
0.097385
0.062605
-0.070563
-0.165381
-1.009188
-0.949957
-0.969501
-0.980691
-0.419496
-1.066824
-1.035913
-1.101725
-1.020071
-1.038669
-0.525846
-0.492537
-0.524556
-0.473732
-0.512229
-0.272066
-0.217213
-0.252949
-0.204871
-1.061566
-1.148343
-1.052671
0.252287
0.232459
0.245557
-0.575195
-0.601471
0.059805
0.035858
-1.004005
-1.041280
-1.005829
-0.830034
-0.818441
-0.802496
-0.424897
-0.488252
-0.936425
0.269595
0.123295
0.083162
-0.808063
-0.731227
-0.682405
-0.741910
-0.831558
-1.091877
0.402042
0.338614
-0.826585
-0.819307
-0.857449
-0.848420
0.099231
0.073915
-0.815194
0.576591
-0.135047
-0.029642
0.069867
0.101805
0.055050
-0.342038
0.071742
-0.684001
-0.588525
-0.555708
-0.593190
-0.586727
-0.844840
-0.851908
-0.883160
0.104770
0.086723
-0.893757
0.241592
0.533257
0.527832
-1.223242
-1.165641
-1.164920
-0.353299
-0.385078
-0.395578
-0.871595
0.850716
0.895213
0.842849
0.803740
0.802143
-0.990167
-0.949986
-0.775718
-0.809292
-0.780271
-0.002431
0.346221
0.250756
0.497160
-0.898346
-0.904598
-0.607747
-0.634908
-0.580660
-0.855681
-0.988293
-0.629412
0.215429
0.221250
0.223796
-0.635931
-0.585545
-0.680610
0.603185
0.627522
0.642917
-0.651415
0.787327
0.765299
-1.079625
-0.373352
0.093354
-0.994947
-1.066665
-0.264095
-0.293324
0.488430
0.474097
0.469246
-0.120707
-0.098700
0.507855
-0.100990
0.523007
-0.950557
-1.012540
0.607569
0.637030
0.544115
0.169611
-0.077229
0.700218
0.596786
0.800136
0.557852
-0.188931
-0.210932
-0.167687
-0.184838
0.277705
-0.203932
-0.232408
0.292034
-0.699422
-0.601282
-0.672794
-0.555833
-0.539515
0.192482
0.232279
-0.512573
-0.528140
-0.542365
0.265929
0.251001
0.272584
-0.650316
-0.635900
-0.622884
-0.849854
0.664076
0.688640
0.693125
-0.925453
-0.958606
-0.988252
-0.074864
-0.097828
-0.100078
-0.991723
-0.385425
-0.124748
-0.348924
-0.202044
-1.057468
-1.046043
0.825489
0.237344
0.530251
0.481319
-0.609428
-0.632689
-0.068708
-0.099583
-0.076220
-1.061896
-0.071036
-0.801851
-1.018495
-0.980199
-0.782204
-0.786755
-0.797748
0.568780
0.556761
0.561252
0.594129
0.134927
0.173259
0.134982
0.204056
-0.899312
-0.530028
-0.554235
-0.927223
-0.448003
0.149459
0.136252
0.057951
0.522495
0.404458
0.337211
0.113843
0.043416
-0.178305
-0.919784
-0.903481
-0.888090
-1.018774
-0.276393
-0.115721
-0.288481
-0.164180
-0.305368
0.196478
0.167086
-0.037195
-0.043634
-0.029052
-0.005755
0.550562
0.134270
0.097222
0.074174
0.009510
0.176126
-0.171016
-0.130475
0.758423
-0.618737
-0.644051
-0.646029
-0.606210
-0.687728
0.718133
0.619110
0.645866
0.583317
0.559183
0.533853
-0.974236
0.068029
0.024382
0.056591
0.050816
0.150438
0.163112
0.171083
0.864412
0.905517
0.665196
-0.786948
-0.791785
-0.225913
-0.257157
0.497600
0.589018
0.540444
0.532795
-0.783840
-0.770601
-0.353326
-0.375733
-0.214814
-0.883217
-0.866486
-0.039068
-0.892425
0.365834
0.373507
0.365295
-0.038079
-0.006105
0.563616
0.509782
-0.597914
-0.633780
-0.587620
-0.623077
-0.570181
-0.575269
0.254901
0.251343
-1.038706
0.219349
0.340883
0.377662
0.746792
0.700623
0.298237
-0.026047
-0.033433
-0.073330
-0.184421
-0.348641
-0.267132
-0.315936
-0.339246
-0.775775
-0.784947
0.656307
0.284127
0.220686
0.253451
0.123488
-0.227536
-0.282727
-0.294586
0.465299
0.391600
0.352227
-0.774587
-0.776871
-0.692583
-0.144438
-0.202631
-0.164134
-0.148914
-0.032466
-0.235885
-0.208706
-0.157218
-0.342743
-0.003785
-0.104202
0.653139
0.681812
0.686984
0.554611
0.657705
0.662136
-0.813304
-0.226019
-0.437881
-0.482765
-0.478297
-0.422962
-0.466118
-0.500884
0.088921
0.461516
0.030737
-0.137504
-0.129504
0.584115
0.579619
0.400881
0.440753
0.422875
-0.649202
-0.736200
0.013248
0.092963
-0.854220
0.603530
0.604375
0.531024
0.502215
-0.842027
-0.880003
-0.885372
0.548384
0.545264
0.328956
0.294308
0.294543
0.294545
0.529856
0.612876
-0.008492
0.435252
0.297339
0.334927
-0.071384
-0.423785
-0.355068
0.687043
0.146738
-0.391372
0.464375
0.534301
-0.246274
-0.293198
-0.407314
-0.451203
-0.421430
-0.516705
0.457844
0.434784
-0.222997
-0.324550
-0.301728
-0.544353
-0.527813
-1.133772
0.464244
0.460690
0.448082
0.452626
0.457717
-0.767510
0.385677
-0.722513
-0.101108
-0.625461
-0.824701
-0.369894
-0.270426
-0.268178
-0.648081
0.024223
-0.777256
-1.040746
-0.064068
-0.025351
-0.092292
-0.763468
-0.688228
-0.564852
0.458379
0.123960
0.108234
-0.533817
-0.247404
0.360683
0.449282
-0.666711
-0.677473
-0.703605
0.250654
-0.556217
0.573969
0.542048
0.076528
-0.411981
-0.447233
-0.471325
-0.583542
-0.562627
-0.188443
-0.019382
0.750287
0.798520
0.232963
-0.231766
0.271374
-0.139935
-0.165639
0.338651
-0.100564
-0.289901
0.727357
-0.111004
-0.754447
-0.754740
0.511161
0.187443
0.227097
0.823585
0.250566
0.055727
-0.048653
-0.977640
-0.952601
-0.154239
-0.197174
-0.732159
-0.774848
-0.739535
0.824259
-0.778689
-0.367456
-0.526346
0.571618
-0.321592
-0.287143
-0.265658
-0.584515
0.010479
-0.042152
0.239290
-0.402448
-0.488313
0.384418
0.410622
0.449178
0.451624
0.427388
0.161928
-1.010691
-0.412204
-0.498623
-0.488244
-0.239066
-0.171642
-0.175960
0.290290
0.313037
-0.207427
-0.296947
0.106813
0.216867
0.330057
0.017723
0.048953
0.050192
0.079682
-0.509670
-0.641611
-0.561675
0.481552
0.472323
0.503881
-0.524966
-0.535844
0.036108
-0.708067
-0.713258
0.047425
0.061892
0.541792
0.038301
-0.802916
-0.875417
-0.800887
-0.624887
0.092441
-0.543994
-0.020909
-0.046580
-0.979698
-1.004364
0.135916
-0.092527
0.058083
-0.552318
0.206422
-0.012785
0.191018
-0.790031
-0.783370
0.264620
-0.623495
-0.822838
-0.824072
-0.890025
-0.730226
-0.555482
-0.447339
-0.413872
0.370486
0.398175
0.407622
-0.665149
-0.624806
-0.038237
-0.041975
-0.709203
-0.694387
-0.727378
-0.237798
-0.212163
-0.522680
-0.683370
0.524894
0.508734
0.014838
-0.747092
-0.750180
-0.801750
-0.758566
-0.751684
0.002309
0.026319
0.334931
0.193884
-0.488066
-0.453827
-0.578887
0.013671
0.063082
0.160886
0.147989
-0.732155
0.036925
0.038085
-0.276904
-0.409257
0.096246
0.063007
-0.542193
-0.468178
-0.075714
0.288581
0.278541
0.434252
-0.760926
0.433839
-0.105174
0.638590
0.648486
-0.805044
-0.798645
-0.135900
-0.127353
-0.246956
-0.273572
0.311287
0.508411
0.192055
-0.388768
0.463085
-0.853756
0.393024
0.308265
0.309563
-0.864631
0.512248
0.227292
0.103827
0.365490
0.342472
0.059372
0.236963
-0.908684
-0.873912
-0.818286
-0.936499
0.638473
0.393845
0.424791
0.398981
0.025499
-0.996257
0.680219
-0.837128
-0.737121
-0.699303
0.003876
0.108393
0.040529
0.411342
0.245329
-0.464219
-0.442886
-0.880860
-0.094114
0.256968
0.324755
-0.975450
-0.956721
-0.442814
0.099355
0.243152
0.110586
0.205311
0.322847
0.280880
0.152543
-0.719641
0.258555
-0.794472
-0.263701
0.351721
0.425223
0.362879
0.333076
0.641912
0.429321
-0.734021
-0.673752
-0.655526
0.606009
0.613179
0.022325
0.493318
-0.519787
-0.547678
-0.540024
0.196679
0.221715
0.213330
0.230948
-0.468243
-0.072414
0.597213
0.268426
-0.635399
-0.436023
-0.998944
-0.356007
0.344086
0.474038
0.477812
-0.529715
-0.554333
-0.965008
0.598869
0.570927
-0.515317
-0.254380
0.032405
0.001003
-0.787329
0.022236
-0.108700
-0.429530
0.622333
0.724723
0.189646
0.111231
0.077606
-0.760404
-0.253569
-0.000926
0.030477
-0.775630
0.721301
-0.766786
0.208215
0.197171
-0.971036
0.402463
0.417493
0.336585
-0.335400
0.354999
0.200609
-0.515010
0.520521
-0.492466
0.053290
-0.001049
0.043325
-0.587872
0.158273
-0.458170
-0.000222
-0.119485
-0.112081
-0.499253
0.739704
0.433349
-0.655250
-0.664616
-0.220253
0.224578
-1.030741
-1.084526
-1.100675
-0.547167
-0.757387
0.380390
-0.552746
0.245962
0.486328
0.491710
-0.073583
-0.482557
-0.529530
-0.642600
0.598987
0.575977
0.271553
0.249704
-0.278819
-0.401552
-0.821730
-0.827311
0.313737
-0.737888
-0.358113
-0.377277
-0.727084
-0.768208
0.338622
0.218649
0.433146
0.365285
-0.429102
0.503293
0.411710
-0.290685
-0.600206
-0.650963
0.399617
0.345718
-0.619468
0.372771
0.181144
-0.789447
0.512655
-0.328606
-0.886301
0.474222
0.460887
-0.307117
-0.297270
-0.661669
-0.765560
0.460286
0.474831
0.486170
-0.105184
0.314319
-0.043246
-0.640679
-0.900103
0.278348
0.295863
-0.651375
-0.699006
0.363806
0.478650
0.025949
0.135776
0.082148
0.476162
0.705612
-0.159683
-0.145767
-0.337576
-0.818710
0.341713
-0.644314
-0.147349
-0.143990
0.042363
0.178296
-0.699162
0.414861
-0.654317
-0.412452
0.481505
-0.591971
-0.451826
-0.529419
-0.712775
-0.201549
-0.123619
-0.689363
0.445871
-0.694737
-0.046381
-0.096716
-0.253480
-0.034988
-0.206346
-0.186472
0.311307
-0.626083
-0.654797
-0.198291
-0.034437
-0.091892
-0.420712
-0.438100
-0.297527
-0.477892
-0.345207
-0.165489
-0.436439
-0.275367
-0.272099
0.054244
-0.589747
0.499991
0.401431
-0.121369
-0.741558
-0.720545
-0.215695
0.160062
0.223402
-0.345288
-0.021316
-0.613349
-0.700825
-0.039033
0.307799
0.383363
0.400536
0.522714
-0.706776
0.217668
-0.638549
-0.532293
-0.660134
0.363227
-0.372619
0.306255
-0.730713
0.209496
0.186242
0.162755
-0.832945
0.015156
-0.344150
-0.436345
-0.003618
-0.353982
-0.720663
0.078677
0.403560
-0.312418
-0.512380
-0.039912
SCALARS UY float 1
LOOKUP_TABLE default
-0.000002
-0.000002
-3.259999
-3.259999
-0.841962
-2.322586
-0.000001
-0.000001
-0.000001
-0.000000
-0.000000
-0.000000
-0.000000
-0.000000
-0.000000
-0.000000
-0.000000
-0.000001
-0.000001
-0.000001
-0.000001
-0.000001
-0.291516
-0.506829
-0.700424
-0.882244
-1.056085
-1.222204
-1.378290
-1.519568
-1.652445
-1.772001
-1.901205
-2.047965
-2.231134
-2.456172
-2.709875
-2.981988
-3.259999
-3.259999
-3.259999
-3.260000
-3.260000
-3.260000
-3.260000
-3.260000
-3.260000
-3.259999
-3.259999
-3.259999
-3.259999
-3.259999
-3.259999
-3.259999
-3.048927
-2.839787
-2.635897
-2.436535
-2.248126
-2.072168
-1.911271
-1.768658
-1.638501
-1.521420
-1.399718
-1.256064
-1.082055
-0.864222
-0.620089
-0.347684
-0.853041
-0.884942
-0.921601
-0.942079
-0.967096
-1.009550
-1.036973
-1.056339
-1.076106
-1.095618
-1.111906
-1.138007
-1.163529
-1.180687
-1.206657
-1.225484
-1.240558
-1.261900
-1.280936
-1.302063
-1.319438
-1.337222
-1.352796
-1.374359
-1.393877
-1.401657
-1.426504
-1.449188
-1.464011
-1.486292
-1.504506
-1.524144
-1.547357
-1.554978
-1.575756
-1.588587
-1.601986
-1.623482
-1.633148
-1.656350
-1.671488
-1.692104
-1.706703
-1.732617
-1.754631
-1.775812
-1.797097
-1.822401
-1.843664
-1.866461
-1.895977
-1.915554
-1.932439
-1.961137
-1.986139
-2.013200
-2.042779
-2.068065
-2.090384
-2.129345
-2.172719
-2.205339
-2.226545
-2.244454
-2.268956
-2.296721
-0.129410
-0.069653
-0.156016
-1.969332
-2.040438
-2.079672
-0.084103
-1.158500
-1.166347
-1.068620
-0.294895
-0.332794
-0.342292
-0.381032
-0.873248
-0.822823
-0.855039
-2.005990
-1.998793
-2.033056
-1.302168
-1.379074
-1.329448
-1.799098
-1.814590
-1.920681
-2.014577
-1.062172
-0.972889
-2.377027
-2.413004
-2.367589
-2.408235
-2.271676
-2.331638
-2.338162
-0.048669
-0.117434
-0.058864
-3.152024
-3.057904
-3.056953
-1.440131
-1.428100
-2.972798
-1.343017
-1.672918
-1.726598
-1.705600
-2.004784
-1.982028
-2.010066
-0.766965
-0.721250
-0.718816
-1.963181
-1.177608
-1.225568
-1.284209
-1.622608
-1.576768
-1.608017
-0.109572
-1.201236
-1.110727
-1.143370
-0.111856
-0.082246
-1.067205
-0.141830
-1.345871
-1.378668
-1.248801
-1.082276
-1.085277
-1.035200
-1.611264
-1.566988
-1.546433
-1.042587
-1.629759
-0.364830
-0.378672
-0.342993
-0.415287
-1.283801
-1.244422
-1.228712
-1.193163
-1.871024
-1.814004
-1.889884
-1.140811
-1.623270
-1.517400
-1.526929
-1.647162
-0.216533
-0.157845
-0.179347
-0.872970
-0.842613
-0.819201
-1.168623
-0.354251
-0.392138
-0.375485
-1.404282
-1.345568
-1.439878