# vtk DataFile Version 2.0
Test
ASCII
DATASET POLYDATA
POINTS 1818 float
0.000000 0.000000 0.000000
1.000000 0.000000 0.000000
1.000000 1.000000 0.000000
0.000000 1.000000 0.000000
0.300000 0.330000 0.000000
0.700000 0.680000 0.000000
0.058824 0.000000 0.000000
0.117647 0.000000 0.000000
0.176471 0.000000 0.000000
0.235294 0.000000 0.000000
0.294118 0.000000 0.000000
0.352941 0.000000 0.000000
0.411765 0.000000 0.000000
0.470588 0.000000 0.000000
0.529412 0.000000 0.000000
0.588235 0.000000 0.000000
0.647059 0.000000 0.000000
0.705882 0.000000 0.000000
0.764706 0.000000 0.000000
0.823529 0.000000 0.000000
0.882353 0.000000 0.000000
0.941176 0.000000 0.000000
1.000000 0.058824 0.000000
1.000000 0.117647 0.000000
1.000000 0.176471 0.000000
1.000000 0.235294 0.000000
1.000000 0.294118 0.000000
1.000000 0.352941 0.000000
1.000000 0.411765 0.000000
1.000000 0.470588 0.000000
1.000000 0.529412 0.000000
1.000000 0.588235 0.000000
1.000000 0.647059 0.000000
1.000000 0.705882 0.000000
1.000000 0.764706 0.000000
1.000000 0.823529 0.000000
1.000000 0.882353 0.000000
1.000000 0.941176 0.000000
0.941176 1.000000 0.000000
0.882353 1.000000 0.000000
0.823529 1.000000 0.000000
0.764706 1.000000 0.000000
0.705882 1.000000 0.000000
0.647059 1.000000 0.000000
0.588235 1.000000 0.000000
0.529412 1.000000 0.000000
0.470588 1.000000 0.000000
0.411765 1.000000 0.000000
0.352941 1.000000 0.000000
0.294118 1.000000 0.000000
0.235294 1.000000 0.000000
0.176471 1.000000 0.000000
0.117647 1.000000 0.000000
0.058824 1.000000 0.000000
0.000000 0.941176 0.000000
0.000000 0.882353 0.000000
0.000000 0.823529 0.000000
0.000000 0.764706 0.000000
0.000000 0.705882 0.000000
0.000000 0.647059 0.000000
0.000000 0.588235 0.000000
0.000000 0.529412 0.000000
0.000000 0.470588 0.000000
0.000000 0.411765 0.000000
0.000000 0.352941 0.000000
0.000000 0.294118 0.000000
0.000000 0.235294 0.000000
0.000000 0.176471 0.000000
0.000000 0.117647 0.000000
0.000000 0.058824 0.000000
0.305970 0.335224 0.000000
0.311940 0.340448 0.000000
0.317910 0.345672 0.000000
0.323881 0.350896 0.000000
0.329851 0.356119 0.000000
0.335821 0.361343 0.000000
0.341791 0.366567 0.000000
0.347761 0.371791 0.000000
0.353731 0.377015 0.000000
0.359701 0.382239 0.000000
0.365672 0.387463 0.000000
0.371642 0.392687 0.000000
0.377612 0.397910 0.000000
0.383582 0.403134 0.000000
0.389552 0.408358 0.000000
0.395522 0.413582 0.000000
0.401493 0.418806 0.000000
0.407463 0.424030 0.000000
0.413433 0.429254 0.000000
0.419403 0.434478 0.000000
0.425373 0.439701 0.000000
0.431343 0.444925 0.000000
0.437313 0.450149 0.000000
0.443284 0.455373 0.000000
0.449254 0.460597 0.000000
0.455224 0.465821 0.000000
0.461194 0.471045 0.000000
0.467164 0.476269 0.000000
0.473134 0.481493 0.000000
0.479104 0.486716 0.000000
0.485075 0.491940 0.000000
0.491045 0.497164 0.000000
0.497015 0.502388 0.000000
0.502985 0.507612 0.000000
0.508955 0.512836 0.000000
0.514925 0.518060 0.000000
0.520896 0.523284 0.000000
0.526866 0.528507 0.000000
0.532836 0.533731 0.000000
0.538806 0.538955 0.000000
0.544776 0.544179 0.000000
0.550746 0.549403 0.000000
0.556716 0.554627 0.000000
0.562687 0.559851 0.000000
0.568657 0.565075 0.000000
0.574627 0.570299 0.000000
0.580597 0.575522 0.000000
0.586567 0.580746 0.000000
0.592537 0.585970 0.000000
0.598507 0.591194 0.000000
0.604478 0.596418 0.000000
0.610448 0.601642 0.000000
0.616418 0.606866 0.000000
0.622388 0.612090 0.000000
0.628358 0.617313 0.000000
0.634328 0.622537 0.000000
0.640299 0.627761 0.000000
0.646269 0.632985 0.000000
0.652239 0.638209 0.000000
0.658209 0.643433 0.000000
0.664179 0.648657 0.000000
0.670149 0.653881 0.000000
0.676119 0.659104 0.000000
0.682090 0.664328 0.000000
0.688060 0.669552 0.000000
0.694030 0.674776 0.000000
0.516135 0.080917 0.000000
0.549338 0.042552 0.000000
0.567302 0.088709 0.000000
0.555658 0.563778 0.000000
0.559301 0.571359 0.000000
0.552318 0.570919 0.000000
0.603235 0.047100 0.000000
0.446553 0.448087 0.000000
0.438652 0.443189 0.000000
0.445116 0.440368 0.000000
0.437254 0.190586 0.000000
0.465954 0.201747 0.000000
0.439184 0.213838 0.000000
0.453137 0.228102 0.000000
0.522423 0.410182 0.000000
0.522098 0.390982 0.000000
0.537289 0.398500 0.000000
0.453388 0.527105 0.000000
0.462022 0.524948 0.000000
0.461218 0.533993 0.000000
0.324300 0.374550 0.000000
0.319287 0.386214 0.000000
0.314834 0.375138 0.000000
0.668809 0.628853 0.000000
0.677366 0.632907 0.000000
0.668274 0.639611 0.000000
0.469934 0.529282 0.000000
0.439703 0.436699 0.000000
0.446608 0.432083 0.000000
0.542854 0.633425 0.000000
0.535117 0.647070 0.000000
0.524302 0.633157 0.000000
0.519372 0.648877 0.000000
0.586338 0.611293 0.000000
0.591638 0.624149 0.000000
0.575478 0.621479 0.000000
0.437962 0.035513 0.000000
0.421505 0.085456 0.000000
0.394924 0.044162 0.000000
0.445207 0.955749 0.000000
0.429168 0.919510 0.000000
0.464409 0.914226 0.000000
0.317150 0.400904 0.000000
0.328626 0.395860 0.000000
0.439616 0.884412 0.000000
0.330406 0.381773 0.000000
0.676842 0.602700 0.000000
0.674982 0.614185 0.000000
0.665930 0.611798 0.000000
0.414707 0.535036 0.000000
0.420123 0.526072 0.000000
0.425338 0.533771 0.000000
0.398407 0.375558 0.000000
0.393804 0.363255 0.000000
0.407284 0.365452 0.000000
0.407758 0.523337 0.000000
0.899969 0.377867 0.000000
0.945915 0.378245 0.000000
0.914158 0.409130 0.000000
0.358219 0.436142 0.000000
0.361390 0.425428 0.000000
0.369309 0.432300 0.000000
0.465999 0.075074 0.000000
0.269944 0.367761 0.000000
0.266521 0.352125 0.000000
0.283474 0.357667 0.000000
0.385889 0.083020 0.000000
0.359482 0.060981 0.000000
0.279658 0.346766 0.000000
0.363604 0.104040 0.000000
0.511115 0.503731 0.000000
0.503243 0.499914 0.000000
0.509146 0.494910 0.000000
0.513188 0.475753 0.000000
0.504957 0.474656 0.000000
0.511959 0.464784 0.000000
0.311863 0.447505 0.000000
0.293019 0.442078 0.000000
0.305555 0.431691 0.000000
0.499204 0.464990 0.000000
0.293855 0.459576 0.000000
0.396676 0.236328 0.000000
0.371014 0.247362 0.000000
0.373003 0.229199 0.000000
0.384478 0.261522 0.000000
0.555704 0.523331 0.000000
0.551313 0.515879 0.000000
0.562752 0.515269 0.000000
0.554954 0.506854 0.000000
0.804236 0.611103 0.000000
0.819351 0.593503 0.000000
0.832061 0.615776 0.000000
0.509908 0.485173 0.000000
0.129738 0.481190 0.000000
0.110722 0.443736 0.000000
0.154857 0.452634 0.000000
0.089738 0.485299 0.000000
0.396427 0.153886 0.000000
0.393058 0.115469 0.000000
0.420333 0.126587 0.000000
0.442628 0.413512 0.000000
0.434815 0.404283 0.000000
0.446816 0.400259 0.000000
0.499770 0.482873 0.000000
0.353883 0.235057 0.000000
0.351360 0.254011 0.000000
0.332147 0.240870 0.000000
0.112307 0.405527 0.000000
0.140355 0.392788 0.000000
0.142004 0.423465 0.000000
0.334868 0.263052 0.000000
0.551239 0.594093 0.000000
0.560217 0.601969 0.000000
0.546711 0.604614 0.000000
0.398510 0.570197 0.000000
0.387124 0.557316 0.000000
0.399978 0.555748 0.000000
0.705281 0.743146 0.000000
0.722930 0.758853 0.000000
0.697202 0.758074 0.000000
0.380190 0.572638 0.000000
0.278345 0.431947 0.000000
0.292575 0.428097 0.000000
0.470820 0.540616 0.000000
0.478213 0.533042 0.000000
0.480161 0.543190 0.000000
0.415268 0.299334 0.000000
0.412465 0.313515 0.000000
0.400419 0.297680 0.000000
0.396495 0.317117 0.000000
0.718655 0.732879 0.000000
0.709319 0.677587 0.000000
0.715709 0.670111 0.000000
0.719283 0.682820 0.000000
0.212992 0.453899 0.000000
0.184619 0.470046 0.000000
0.186665 0.440862 0.000000
0.452307 0.386568 0.000000
0.460371 0.397715 0.000000
0.478664 0.456068 0.000000
0.476179 0.462123 0.000000
0.471250 0.456445 0.000000
0.464654 0.388544 0.000000
0.483415 0.461045 0.000000
0.357146 0.449596 0.000000
0.344653 0.443966 0.000000
0.554562 0.459423 0.000000
0.543333 0.457517 0.000000
0.553850 0.449505 0.000000
0.543131 0.445036 0.000000
0.347312 0.459318 0.000000
0.781088 0.538918 0.000000
0.810909 0.534152 0.000000
0.799399 0.553968 0.000000
0.402869 0.534333 0.000000
0.408011 0.546121 0.000000
0.703844 0.670118 0.000000
0.552234 0.794299 0.000000
0.528593 0.795589 0.000000
0.539188 0.770312 0.000000
0.596088 0.518714 0.000000
0.593029 0.508081 0.000000
0.604120 0.510731 0.000000
0.384880 0.468703 0.000000
0.382270 0.455963 0.000000
0.394062 0.458803 0.000000
0.374729 0.466839 0.000000
0.340939 0.294790 0.000000
0.324530 0.290188 0.000000
0.338473 0.279923 0.000000
0.465367 0.336545 0.000000
0.477337 0.352846 0.000000
0.459495 0.350024 0.000000
0.584947 0.516440 0.000000
0.326802 0.302636 0.000000
0.945343 0.420397 0.000000
0.779746 0.749037 0.000000
0.771533 0.774140 0.000000
0.758291 0.749848 0.000000
0.743435 0.765852 0.000000
0.751942 0.297541 0.000000
0.784264 0.292048 0.000000
0.772562 0.330207 0.000000
0.812744 0.305799 0.000000
0.655547 0.494535 0.000000
0.649767 0.472522 0.000000
0.671966 0.480244 0.000000
0.612062 0.502007 0.000000
0.616789 0.515227 0.000000
0.403059 0.898561 0.000000
0.391512 0.946883 0.000000
0.625780 0.504699 0.000000
0.635988 0.491275 0.000000
0.596252 0.650380 0.000000
0.583401 0.655132 0.000000
0.583737 0.644777 0.000000
0.713099 0.416502 0.000000
0.708474 0.388943 0.000000
0.733625 0.389568 0.000000
0.684835 0.406222 0.000000
0.656936 0.416423 0.000000
0.633624 0.425116 0.000000
0.634362 0.400237 0.000000
0.646884 0.740682 0.000000
0.654954 0.726002 0.000000
0.663305 0.741855 0.000000
0.732481 0.441235 0.000000
0.751303 0.460839 0.000000
0.721338 0.462235 0.000000
0.759622 0.437863 0.000000
0.462761 0.363156 0.000000
0.373644 0.622389 0.000000
0.346217 0.613642 0.000000
0.370315 0.594521 0.000000
0.351411 0.640635 0.000000
0.695337 0.690220 0.000000
0.705202 0.700133 0.000000
0.692303 0.700990 0.000000
0.521365 0.516400 0.000000
0.522992 0.510597 0.000000
0.527633 0.513574 0.000000
0.291567 0.329512 0.000000
0.294927 0.318154 0.000000
0.365771 0.366553 0.000000
0.366135 0.358691 0.000000
0.374180 0.368122 0.000000
0.408232 0.327056 0.000000
0.423479 0.328280 0.000000
0.411272 0.339740 0.000000
0.664110 0.670607 0.000000
0.667245 0.662649 0.000000
[...]
POINT_DATA 1818
SCALARS UX float 1
LOOKUP_TABLE default
-0.000005
0.000004
0.627086
-4.940042
-1.836205
0.065041
0.000000
-0.000001
-0.000000
-0.000000
-0.000000
-0.000000
-0.000000
-0.000000
-0.000000
-0.000000
0.000000
0.000000
0.000000
0.000000
0.000001
-0.000000
0.813840
1.254506
1.582835
1.876253
2.130876
2.359458
2.562841
2.723456
2.830905
2.862778
2.774405
2.601840
2.295902
1.843246
1.300695
0.903800
-0.086772
-0.607581
-0.963272
-1.230003
-1.435932
-1.611800
-1.796417
-2.004233
-2.250593
-2.535121
-2.844864
-3.173197
-3.513354
-3.860605
-4.208921
-4.574222
-4.891664
-4.860205
-4.855244
-4.862198
-4.883864
-4.912896
-4.936832
-4.935929
-4.878417
-4.745314
-4.519477
-4.158638
-3.650685
-3.000144
-2.168502
-1.346466
-1.808601
-1.712568
-1.686976
-1.577219
-1.561776
-1.558731
-1.857962
-1.811031
-1.746650
-1.707161
-1.687026
-1.664770
-1.643214
-1.636835
-1.601361
-1.579476
-1.568983
-1.541784
-1.517605
-1.484982
-1.461078
-1.430274
-1.403723
-1.369260
-1.339841
-1.317825
-1.277908
-1.243006
-1.220667
-1.185159
-1.163073
-1.135668
-1.094748
-1.067298
-1.011460
-0.973607
-0.937951
-0.888303
-0.855768
-0.798749
-0.763894
-0.723364
-0.698428
-0.667633
-0.642731
-0.617329
-0.592967
-0.558579
-0.535650
-0.507521
-0.466709
-0.446833
-0.425004
-0.391776
-0.364218
-0.333794
-0.296963
-0.284638
-0.186398
-0.192582
-0.106639
-0.074827
-0.038317
0.012417
0.042103
0.043559
-0.044663
-0.017433
-0.000375
-1.486000
-1.620897
-1.837360
0.008794
-0.670090
-0.811861
-0.434201
-0.183406
-0.118196
-0.184749
-0.141368
0.444881
0.402920
0.478618
-2.843250
-2.764428
-2.801440
-2.841336
-2.982307
-2.897674
0.754189
0.834194
0.736237
-2.711356
-0.502675
-0.173978
-2.280431
-2.306752
-2.397139
-2.393594
-1.780806
-1.825890
-2.012989
-0.041673
-0.102774
-0.056943
-2.354699
-2.435619
-2.264555
-3.240121
-3.078162
-2.401631
-2.895533
1.241146
1.056597
1.018054
-3.071507
-3.040201
-3.016209
-0.318405
-0.314676
-0.200322
-3.103755
2.030381
2.234618
2.209823
-3.148936
-3.032402
-3.019803
-0.072214
-3.237381
-3.102085
-2.972969
-0.111375
-0.082729
-2.838616
-0.154537
-0.323593
-0.523457
-0.075579
0.371300
0.280570
0.410001
-3.461654
-3.532169
-3.442739
0.279735
-3.574047
-0.323533
-0.431529
-0.394928
-0.386190
0.477715
0.502548
0.665623
0.626962
2.029679
2.133755
2.157373
0.222050
-4.422737
-4.452066
-4.281640
-4.589480
-0.215024
-0.158184
-0.151835
-0.029967
-0.070692
0.045092
0.024654
-0.473824
-0.530442
-0.576640
-4.331448
-4.159226
-4.271145
-0.643838
-2.170807
-2.105797
-2.254936
-3.124869
-3.189408
-3.132272
-0.792949
-0.703869
-0.956862
-3.205058
-3.571183
-3.472922
-2.748563
-2.651337
-2.682381
-0.213644
-0.205317
-0.292125
-0.293314
-0.523162
0.409308
0.757745
0.530591
-3.995386
-4.158583
-4.110619
0.084767
0.133390
0.063474
-0.097763
-0.083776
0.150844
0.085620
-3.225325
-3.277944
0.664640
0.609277
0.648582
0.593393
-3.311698
1.895860
2.057412
2.021160
-3.128690
-3.101034
0.450329
-1.901800
-2.028750
-2.004902
0.902967
0.889124
0.949936
-3.129673
-3.087062
-3.004984
-3.185374
-0.702548
-0.835778
-0.680631
0.070501
0.149588
0.072507
0.833061
-0.864557
2.379150
0.255288
-0.226751
-0.108878
-0.512773
0.989972
1.109132
1.216927
1.303394
1.179773
1.111273
1.228951
0.986090
1.016759
-2.578126
-2.621803
1.054574
1.084121
-1.850030
-1.959678
-1.961371
1.250824
1.138880
1.257797
1.088556
0.997327
0.923226
0.854993
-1.317215
-1.228316
-1.189046
1.420378
1.570742
1.423377
1.546034
0.108872
-3.162947
-3.305536
-3.222065
-3.237431
-0.345408
-0.283758
-0.578460
-0.471343
-0.153168
-0.082743
-2.105873
-1.650011
-0.781246
-0.627340
-0.579095
-0.210606
-0.126274
-0.178110
-0.794967
-0.516760
-0.491162
-3.227454
-3.305264
-3.328048
-3.384812
-0.944410
-1.096943
-1.345582
-0.348410
0.202646
0.279622
0.283763
-1.122256
-1.212278
-0.950452
-0.605829
-0.932201
-0.970047
-2.615419
-2.684598
-2.703389
-0.873134
-1.201310
-1.167202
-0.133219
-0.861447
-0.697825
-1.001482
-0.879080
-0.468471
-0.474523
-2.383839
-2.109193
-2.043781
-2.354171
-3.596662
-3.432467
-3.532337
-3.008474
-3.149061
-2.961538
-0.933062
-0.940373
-2.339801
0.831205
0.861607
-3.514496
-3.463962
-3.430329
-1.501877
-3.932563
-3.738246
-3.678347
-3.556743
-2.810348
-2.513388
-2.596530
-2.563130
-2.517448
-2.105499
-2.031227
1.061332
1.029269
0.870302
1.290165
-3.518409
-3.448286
-3.368158
-1.741275
-2.068483
-1.591123
-1.169276
-0.988109
-0.744554
-0.399988
-1.430229
-1.788691
-2.141276
0.980420
0.666669
-2.283254
-2.578494
-2.522875
-1.170932
-1.573469
-1.525016
-2.566098
-2.232281
-2.206781
-2.124551
-2.003708
-2.028700
-2.147592
-2.293831
-0.363093
-0.380577
-0.738318
-0.677302
-0.583380
-0.793422
0.705630
0.678027
0.607634
-4.772980
-4.811552
-4.653727
-4.284669
-4.115584
-4.228016
-4.151981
-0.923108
-1.230093
-1.223841
-1.264480
-2.266311
-2.417367
-2.239602
-2.416710
-2.106156
-2.249157
-2.103033
-2.886792
-2.987602
-2.822080
-2.916546
-2.927683
-3.008937
-2.996656
-2.817071
-0.532742
-0.856400
-0.855765
0.442392
0.342560
0.374790
0.401097
1.647422
1.452876
1.515806
1.769202
1.844981
-2.149002
-2.300637
-2.580850
0.385380
0.415418
-0.030573
-2.732769
-2.669095
-2.822497
-1.470479
-1.135786
-2.476379
-1.231772
-1.476627
-1.688031
0.211122
0.251971
0.178601
0.673259
0.737529
0.718217
-0.571995
-0.577520
-1.705236
0.798260
-3.767096
-3.590688
-3.940383
-3.753924
-3.934891
0.252524
0.322834
0.558814
0.594899
0.518341
0.637430
0.627297
-4.605053
-1.622027
-1.517187
-1.644099
-1.500706
-2.997004
-3.301133
-2.834978
0.459371
0.616073
0.805927
-0.479029
0.556200
-0.499717
0.620684
0.666885
-1.139249
-0.958256
-1.081850
-3.269142
-3.145049
-3.166567
-1.897221
-2.012219
-4.566628
0.765161
0.820233
0.772170
-0.019693
0.020916
-2.280926
-2.229168
-2.131408
0.077749
0.840723
-3.540057
-3.614867
-3.606689
-2.779543
-2.558025
-2.593457
-0.238484
0.215569
-0.096939
0.149460
-0.477074
0.415908
0.476813
-2.222500
-1.812843
-1.913820
-0.352985
-0.244695
-3.661987
-3.592162
-3.571434
-0.260179
-0.009702
-0.036509
-0.069685
-3.683119
-3.788929
-3.743167
-1.506312
-1.843701
-1.271141
-0.735465
-0.808875
-0.967941
-3.618347
-3.262249
0.452082
-3.251353
-3.497208
0.281541
0.709432
0.780593
-3.444185
0.701553
0.551140
-2.538661
-2.530596
1.529060
1.642251
1.608326
-2.616885
0.493465
0.475828
1.169025
-2.911179
-2.878012
-2.881703
-1.753291
-1.649059
-0.760312
-2.940543
0.097825
0.145947
-2.881650
-2.116804
-2.191872
-2.058082
-2.232755
2.079083
1.893180
1.907969
0.416327
0.150485
0.031936
-2.438649
-2.359996
-2.261872
-0.451202
-0.345299
-0.006868
-0.502621
-0.369877
-0.123815
-0.020649
-3.259576
-3.197247
-0.795791
-0.776390
-2.692524
0.970965
1.286751
0.851703
2.529446
1.324472
0.311986
0.361304
0.409806
-3.102171
-0.141102
-0.106241
-0.057803
-0.039621
-1.696538
-2.126730
-2.110130
-1.991773
0.537885
-2.577895
-2.250769
-3.378669
-3.453395
-3.377913
-2.858328
-2.795808
-2.842613
-2.572060
1.261546
1.236371
1.370395
-2.774405
-0.127794
2.007359
1.137849
1.092464
-0.083406
0.298658
-0.115887
0.386542
0.132506
0.511682
-0.506697
-2.367975
-1.074830
-2.568995
-2.756704
-3.632967
-3.786827
-0.000908
0.066217
-1.220199
-1.477158
0.413390
-1.283001
-4.460879
-1.410419
-3.508549
-3.471649
-3.335369
-1.429851
1.525179
1.439630
1.412167
1.353939
0.004815
-0.069129
-1.907496
-1.836154
-1.766759
1.360422
1.356916
1.302174
1.275194
1.409815
1.493270
-3.383923
-3.403128
1.841345
-4.561144
-4.182204
-4.401375
1.538903
1.448447
1.314741
-1.981573
-2.080596
-1.897302
1.613171
2.067660
1.148714
0.804287
0.984041
0.616267
-2.168792
0.488926
0.444524
0.390793
1.383226
1.619434
1.549241
-3.704042
-3.923228
-4.009335
1.830070
-2.095414
-1.975610
-2.390720
-2.475853
-2.546729
-3.198890
0.220279
0.146871
0.403536
2.401772
2.504757
2.646001
2.220076
1.825419
2.354756
2.214316
-1.742675
-1.743875
-4.167174
-3.773091
-3.840856
-1.845188
0.465484
-0.081825
-4.121115
-4.149714
-4.351085
-3.685149
-3.639870
-4.552569
0.377530
-0.012792
-2.949377
-0.165096
-2.925368
-2.749430
-2.730409
2.601875
2.731716
-1.403290
-1.374508
-1.207538
-0.552282
-0.787411
-0.288893
-1.001286
-1.267410
-0.716934
-0.347306
-0.405311
-2.199415
-2.763525
-2.834147
-2.384780
-3.642643
-3.731548
-3.695867
-4.754868
-4.692649
-0.140869
-0.230219
-0.102509
-0.219892
-0.237692
-1.385411
-1.251422
-1.362685
-4.506378
-0.059106
-0.079100
-1.481109
-1.748027
-1.682121
2.654941
2.482571
-3.814225
1.823887
1.689711
1.715172
1.819493
-4.332050
-4.282045
-4.174773
1.973217
-0.076474
2.313723
-0.961615
-0.046149
-0.161753
-0.225080
-1.713392
0.042296
-0.103513
-1.642485
-1.526944
-1.531761
0.712300
0.331183
-0.569543
-2.559216
-2.549047
-1.395148
-1.926587
0.682592
0.835554
0.678663
0.899663
-3.332239
-3.363611
-2.748082
-2.113275
-0.084825
-0.215687
0.252888
0.207362
0.130265
-0.146680
-0.455576
-4.146464
-3.979435
-4.094430
-4.021901
-2.229896
-4.197886
-4.161471
-4.343118
-4.063120
-4.072713
-2.437519
-2.323124
-2.780791
-2.621935
-2.361107
-0.856708
-0.671291
-1.835813
-1.674577
-4.439586
-4.700341
-4.323695
0.361990
0.313890
0.372063
-2.620571
-2.708952
-0.102438
-0.159244
-3.933913
-4.031969
-3.889898
-3.346343
-3.277916
-3.256182
-1.453031
-1.708902
-3.894976
0.424717
0.259776
0.161474
-3.314799
-3.304812
-3.199432
-3.372297
-3.387088
-4.159757
1.032437
0.851107
-3.559890
-3.584189
-3.680704
-3.701934
0.188088
0.113757
-3.234016
1.648470
-0.907832
-0.547131
0.119109
0.162710
0.051592
-1.708737
0.073549
-3.156284
-2.731752
-2.673467
-2.777755
-2.800545
-3.529067
-3.592675
-3.651723
0.034195
-0.036541
-3.738121
0.107002
1.230006
1.189977
-4.702266
-4.503673
-4.553961
-2.032130
-2.152989
-2.140041
-3.353816
2.396973
2.538221
2.366033
2.239711
2.222415
-3.753447
-3.642678
-3.400811
-3.456805
-3.459221
-1.076259
0.529925
0.053986
1.206537
-3.814608
-3.886426
-3.155270
-3.222568
-3.035576
-3.310539
-3.847933
-3.164737
0.342893
0.331439
0.378180
-2.582829
-2.389012
-2.761222
1.350422
1.476036
1.507382
-2.340548
2.159876
2.066735
-4.109769
-2.054870
-0.328187
-4.426735
-4.686120
-1.971026
-2.090540
1.032389
0.975116
0.968375
-0.593303
-0.499551
1.103079
-0.462569
1.149737
-3.566845
-3.817965
1.334506
1.478247
1.232543
0.375065
-0.467771
1.799622
1.401752
2.207454
1.189120
-1.490647
-1.526831
-1.390288
-1.408414
0.523911
-1.746236
-1.853341
0.521318
-3.516580
-3.175843
-3.378735
-2.531634
-2.451071
0.338915
0.444827
-2.460325
-2.521961
-2.524974
0.366593
0.334107
0.407432
-2.852256
-2.778087
-2.770367
-3.468582
1.595819
1.711181
1.737898
-3.451215
-3.577371
-3.713508
-0.240338
-0.295572
-0.323752
-3.747235
-2.362178
-0.389317
-2.254624
-1.752345
-4.014807
-3.977066
2.309494
0.272314
1.422685
1.260907
-2.760983
-2.825283
-1.251949
-1.366693
-0.220708
-4.282953
-1.244132
-3.214537
-3.839267
-3.659030
-3.111085
-3.153071
-3.169048
1.323747
1.265072
1.273760
1.447160
0.321733
0.418310
0.316077
0.491418
-3.295394
-2.564257
-2.596262
-3.424711
-1.843078
-0.249725
-0.326321
-0.534032
1.492976
0.906914
0.533503
0.171393
-0.671279
-1.631104
-3.466886
-3.421575
-3.275321
-3.864772
-1.055189
-0.382443
-0.985677
-1.566340
-1.067495
0.317657
0.261345
-0.114430
-0.252239
-0.190312
-0.160839
1.111126
0.322027
0.228346
0.174382
-0.852237
0.429399
-0.518062
-0.391320
2.076077
-3.020199
-3.135058
-3.071567
-3.055379
-3.303673
1.920782
1.471966
1.572863
1.338856
1.253218
1.143857
-3.701919
-0.115907
0.051348
0.129698
0.110831
0.137756
0.194420
0.191523
2.441544
2.579667
1.743543
-3.349690
-3.312271
-1.614651
-1.673041
1.049027
1.569101
1.403521
1.406059
-3.090828
-3.057558
-1.210495
-1.310797
-1.425762
-3.481032
-3.405704
-1.120392
-3.547572
0.781975
0.786830
0.747119
-1.075760
-0.938234
1.164522
0.911336
-2.923958
-2.997821
-2.854159
-2.921220
-2.869241
-2.923550
0.556844
0.519227
-3.972495
0.494793
0.731588
0.828988
2.065845
1.948474
0.600943
-1.106621
-1.146691
-1.282792
-1.520942
-2.186615
-0.826686
-0.995206
-1.088479
-3.183208
-3.178457
1.560978
0.677329
0.518725
0.573061
-0.244644
-1.544522
-1.841759
-1.908212
0.857165
0.621602
0.415590
-2.878872
-2.886258
-2.561905
-1.550147
-0.607873
-0.472986
-0.435507
-1.115822
-0.708858
-0.613949
-0.440889
-1.961498
-0.983319
-0.302917
1.646082
1.770380
1.758718
1.152314
1.635874
1.774743
-3.113692
-1.850461
-2.371130
-2.526308
-2.474553
-2.363483
-2.513969
-2.289393
0.200090
0.853496
-0.929240
-1.536864
-1.520825
1.299830
1.287666
0.949382
0.930952
0.850809
-2.254766
-2.660993
-0.594861
0.215270
-3.328302
1.355858
1.403389
1.130915
0.991540
-3.257717
-3.638979
-3.266264
1.331900
1.293931
0.728014
0.620784
0.649087
0.676335
1.295568
1.833176
-0.707940
0.749317
0.262365
0.394701
-0.296699
-1.995658
-1.881935
1.944991
0.235150
-1.895736
0.852537
1.180605
-1.769809
-1.935206
-2.254077
-2.371179
-2.266703
-2.723155
0.911279
0.828733
-1.030870
-1.389000
-1.305975
-2.760425
-2.385827
-4.354215
1.004427
1.015102
0.929311
1.014156
1.060779
-3.070226
0.555912
-2.661060
-0.958880
-2.687018
-3.183016
-1.763456
-1.436353
-1.434561
-2.282177
-0.410591
-2.810942
-3.951139
-0.632427
-0.826623
-1.063412
-2.733883
-2.532094
-2.134967
0.846545
0.139761
0.123397
-2.112586
-1.432098
0.412584
0.632929
-3.012630
-3.087303
-3.086417
0.218872
-2.209323
1.313572
1.192837
0.059092
-1.932490
-2.045778
-2.154672
-2.682050
-2.650598
-0.846084
-0.834792
2.091469
2.235242
0.081419
-0.897532
0.171548
-0.744486
-0.840946
0.434186
-0.594510
-0.895543
1.901298
-1.092063
-2.857493
-2.845228
1.087397
0.048979
0.200843
2.295263
0.296124
-0.389995
-0.716290
-3.933664
-3.901686
-1.278055
-1.401156
-2.797420
-2.968080
-2.817354
2.329042
-2.968174
-1.708859
-2.246378
1.395017
-1.755030
-1.089633
-0.964185
-2.463109
-0.337160
-0.513274
0.138361
-1.879578
-2.198459
0.618626
0.706465
0.863102
0.861212
0.783503
-0.124534
-4.248461
-1.800309
-2.063615
-1.967171
-1.080714
-1.664342
-1.667639
0.492952
0.562138
-1.255502
-0.995949
-0.233307
0.024626
0.386430
-0.334213
-0.210116
-0.234109
-0.114495
-2.294938
-2.539921
-2.262332
0.956061
0.907618
1.040431
-2.327286
-2.392961
-0.229780
-2.794034
-2.797965
0.075571
0.118510
1.200874
0.041412
-2.934104
-3.191439
-3.074734
-2.838196
-0.051399
-2.218887
-0.311668
-0.393343
-3.764182
-3.833408
0.187467
-0.830628
-0.367118
-2.469586
0.273167
-0.034648
0.249920
-3.244880
-3.252699
0.529298
-2.656889
-3.076031
-3.345920
-3.523415
-2.907984
-2.449799
-1.930608
-1.833533
0.586548
0.686891
0.735943
-2.961723
-2.883362
-0.452608
-0.431643
-3.039380
-3.030415
-3.119923
-1.695038
-1.639880
-2.186529
-2.973059
1.128652
1.048660
-0.093736
-2.989176
-3.024971
-3.023635
-2.848497
-2.805349
-0.405468
-0.338600
0.429387
-0.032651
-2.603101
-2.529313
-2.597760
-0.896886
-0.701544
0.221341
0.023556
-2.974074
0.086530
0.088568
-1.519591
-1.834491
-0.156727
-0.261226
-2.316119
-2.052113
-0.493688
0.440718
0.390669
0.757861
-2.825282
0.749302
-0.841067
1.707696
1.715077
-3.174185
-3.127365
-1.256433
-1.272785
-1.568890
-1.687007
0.328200
1.036023
0.278196
-1.927107
0.857524
-3.167275
1.068617
0.806593
0.820021
-3.179096
0.976103
0.573192
-0.176322
0.632679
0.548277
-0.743568
0.609144
-4.133428
-3.975788
-3.906770
-3.465784
1.736454
0.854900
0.940025
0.842376
0.034447
-3.952875
1.881855
-3.259559
-2.924332
-2.776684
-0.098987
0.141006
-0.017664
0.767738
0.392739
-2.207885
-2.186555
-4.250201
-0.237943
0.092656
0.446110
-4.584037
-4.567008
-2.154399
0.236676
0.677810
0.287607
-0.233661
0.404337
0.088741
-0.381156
-2.729791
0.024536
-2.970699
-1.181979
0.568469
0.751042
0.520882
0.527929
1.636542
0.735573
-2.893851
-2.915648
-2.896091
1.695294
1.645938
0.037731
0.871318
-2.603647
-2.686671
-2.697575
0.122841
0.197280
0.202539
0.280454
-2.245919
-0.253601
1.391295
0.683045
-2.381506
-2.441359
-4.039551
-1.158843
0.549533
1.220647
1.181708
-2.871460
-2.979259
-3.846431
1.497092
1.424535
-2.653591
-1.568303
0.012769
-0.067268
-3.048028
-0.026439
-1.409598
-2.078486
1.546952
1.899168
-0.229472
-0.597361
-0.728873
-3.220921
-0.783355
-0.089625
-0.022234
-3.030092
2.110544
-3.753932
0.231323
0.165323
-3.772437
1.118954
0.875854
0.632667
-2.074706
0.697784
-0.026232
-2.561638
1.296249
-2.478813
-0.261381
-0.467409
0.100512
-2.101131
0.386993
-2.358852
-1.034503
-0.332458
-0.317479
-2.455644
1.983465
1.103014
-2.525159
-2.546102
-0.651983
-0.057231
-4.441477
-4.660602
-4.624844
-2.392846
-3.012196
0.480729
-2.886032
0.117491
1.193597
1.186738
-1.031691
-2.756448
-2.917037
-2.343401
1.640850
1.550736
0.281988
0.199306
-1.458008
-1.861211
-3.385048
-3.439553
0.431212
-2.736199
-1.403959
-1.454552
-3.054247
-3.566062
0.809584
0.540598
0.938058
0.905964
-1.435499
1.402346
1.108518
-0.908649
-2.467330
-2.659956
0.975979
0.803000
-2.610590
0.604557
-0.282875
-3.072539
1.066289
-1.596861
-3.279933
0.963319
1.103515
-1.790130
-1.784136
-2.851179
-2.941518
0.882692
0.951740
0.989003
-0.587586
0.582811
-1.190839
-2.357482
-3.347252
0.082334
0.482433
-2.372712
-2.724214
0.462855
0.926961
-0.462706
-0.086967
-0.134210
1.339895
2.012746
-1.129779
-1.092304
-1.629424
-3.449202
0.900427
-2.735239
-0.756537
-0.694691
-0.559457
-0.085911
-2.982545
0.704006
-2.574319
-1.549207
0.929928
-2.353723
-1.906955
-2.063073
-2.987602
-1.311779
-1.051635
-2.922963
0.816454
-2.501421
-0.864884
-0.680303
-1.200885
-0.681387
-1.264314
-1.208330
0.539833
-2.505006
-2.596268
-0.954713
-0.782317
-0.637002
-1.818306
-1.973122
-1.511958
-2.047844
-1.626605
-0.888288
-1.955518
-1.440873
-1.222084
-0.503710
-2.501224
0.932687
0.624265
-1.052404
-2.661169
-2.597208
-1.042605
0.040362
0.311162
-1.633743
-0.600252
-2.322803
-2.634441
-0.661848
0.423410
0.710992
0.685005
1.126898
-2.942817
0.036582
-2.691365
-1.897703
-2.768566
0.834245
-1.354206
0.394103
-3.023614
0.113374
0.104444
0.030242
-3.048262
-0.531565
-1.640962
-1.942231
-0.683337
-1.430353
-2.961953
-0.188972
0.777560
-1.667104
-2.218896
-0.485158
SCALARS UY float 1
LOOKUP_TABLE default
-0.000008
-0.000007
-9.459996
-9.459997
-2.376409
-6.452645
-0.000002
-0.000003
-0.000002
-0.000002
-0.000002
-0.000002
-0.000001
-0.000002
-0.000002
-0.000002
-0.000002
-0.000002
-0.000002
-0.000002
-0.000003
-0.000002
-0.823555
-1.419035
-1.913944
-2.380127
-2.810727
-3.222115
-3.607467
-3.951271
-4.273349
-4.562562
-4.877604
-5.227532
-5.704286
-6.418068
-7.328791
-8.389247
-9.459997
-9.459997
-9.459998
-9.459998
-9.459998
-9.459998
-9.459998
-9.459998
-9.459998
-9.459998
-9.459998
-9.459998
-9.459997
-9.459997
-9.459997
-9.459997
-8.879387
-8.308684
-7.762130
-7.234852
-6.740191
-6.290903
-5.884487
-5.527440
-5.207350
-4.918478
-4.621375
-4.268185
-3.795368
-3.129078
-2.239453
-1.229377
-2.416282
-2.539865
-2.606807
-2.431614
-2.460838
-2.646113
-2.984965
-3.028582
-3.087157
-3.124480
-3.155621
-3.213040
-3.270701
-3.324125
-3.385491
-3.427717
-3.459083
-3.510029
-3.556065
-3.607725
-3.648916
-3.693056
-3.730860
-3.785388
-3.833999
-3.851184
-3.916967
-3.976774
-4.015082
-4.074042
-4.121875
-4.173586
-4.235874
-4.255673
-4.311991
-4.346706
-4.383111
-4.441905
-4.468809
-4.533530
-4.576390
-4.634074
-4.674680
-4.747522
-4.808932
-4.867930
-4.928585
-4.999899
-5.059747
-5.124633
-5.208638
-5.263820
-5.310331
-5.390691
-5.462751
-5.537859
-5.619940
-5.688057
-5.833198
-5.941677
-6.083393
-6.148924
-6.203433
-6.283090
-6.357715
-6.407315
-0.282103
-0.149307
-0.338346
-5.453304
-5.674384
-5.808498
-0.178878
-3.136717
-3.172958
-2.859166
-0.675373
-0.764328
-0.792814
-0.888037
-2.165929
-2.025728
-2.104390
-5.726404
-5.689464
-5.798552
-3.716034
-4.113826
-3.911089
-4.748766
-4.803617
-5.308622
-5.725812
-2.847570
-2.556003
-6.779813
-6.897476
-6.764171
-6.892960
-6.394438
-6.587595
-6.627934
-0.106644
-0.260328
-0.130543
-9.145919
-8.870888
-8.870770
-4.336583
-4.243204
-8.622293
-3.912261
-4.303517
-4.484953
-4.489691
-5.779316
-5.703408
-5.779576
-1.991561
-1.860567
-1.835326
-5.666613
-3.016796
-3.187014
-3.301098
-4.758188
-4.601620
-4.675203
-0.240703
-3.733172
-3.495103
-3.485838
-0.249183
-0.182853
-3.272809
-0.316995
-3.625954
-3.732512
-3.325600
-2.790374
-2.812954
-2.646101
-4.855364
-4.785658
-4.700221
-2.687699
-4.946352
-0.857868
-0.902247
-0.807858
-0.992967
-3.362262
-3.243058
-3.169864
-3.070936
-4.770961
-4.608599
-4.814113
-2.982548
-5.093892
-4.844469
-4.834737