# vtk DataFile Version 2.0
Test
ASCII
DATASET POLYDATA
POINTS 1818 float
0.000000 0.000000 0.000000
1.000000 0.000000 0.000000
1.000000 1.000000 0.000000
0.000000 1.000000 0.000000
0.300000 0.330000 0.000000
0.700000 0.680000 0.000000
0.058824 0.000000 0.000000
0.117647 0.000000 0.000000
0.176471 0.000000 0.000000
0.235294 0.000000 0.000000
0.294118 0.000000 0.000000
0.352941 0.000000 0.000000
0.411765 0.000000 0.000000
0.470588 0.000000 0.000000
0.529412 0.000000 0.000000
0.588235 0.000000 0.000000
0.647059 0.000000 0.000000
0.705882 0.000000 0.000000
0.764706 0.000000 0.000000
0.823529 0.000000 0.000000
0.882353 0.000000 0.000000
0.941176 0.000000 0.000000
1.000000 0.058824 0.000000
1.000000 0.117647 0.000000
1.000000 0.176471 0.000000
1.000000 0.235294 0.000000
1.000000 0.294118 0.000000
1.000000 0.352941 0.000000
1.000000 0.411765 0.000000
1.000000 0.470588 0.000000
1.000000 0.529412 0.000000
1.000000 0.588235 0.000000
1.000000 0.647059 0.000000
1.000000 0.705882 0.000000
1.000000 0.764706 0.000000
1.000000 0.823529 0.000000
1.000000 0.882353 0.000000
1.000000 0.941176 0.000000
0.941176 1.000000 0.000000
0.882353 1.000000 0.000000
0.823529 1.000000 0.000000
0.764706 1.000000 0.000000
0.705882 1.000000 0.000000
0.647059 1.000000 0.000000
0.588235 1.000000 0.000000
0.529412 1.000000 0.000000
0.470588 1.000000 0.000000
0.411765 1.000000 0.000000
0.352941 1.000000 0.000000
0.294118 1.000000 0.000000
0.235294 1.000000 0.000000
0.176471 1.000000 0.000000
0.117647 1.000000 0.000000
0.058824 1.000000 0.000000
0.000000 0.941176 0.000000
0.000000 0.882353 0.000000
0.000000 0.823529 0.000000
0.000000 0.764706 0.000000
0.000000 0.705882 0.000000
0.000000 0.647059 0.000000
0.000000 0.588235 0.000000
0.000000 0.529412 0.000000
0.000000 0.470588 0.000000
0.000000 0.411765 0.000000
0.000000 0.352941 0.000000
0.000000 0.294118 0.000000
0.000000 0.235294 0.000000
0.000000 0.176471 0.000000
0.000000 0.117647 0.000000
0.000000 0.058824 0.000000
0.305970 0.335224 0.000000
0.311940 0.340448 0.000000
0.317910 0.345672 0.000000
0.323881 0.350896 0.000000
0.329851 0.356119 0.000000
0.335821 0.361343 0.000000
0.341791 0.366567 0.000000
0.347761 0.371791 0.000000
0.353731 0.377015 0.000000
0.359701 0.382239 0.000000
0.365672 0.387463 0.000000
0.371642 0.392687 0.000000
0.377612 0.397910 0.000000
0.383582 0.403134 0.000000
0.389552 0.408358 0.000000
0.395522 0.413582 0.000000
0.401493 0.418806 0.000000
0.407463 0.424030 0.000000
0.413433 0.429254 0.000000
0.419403 0.434478 0.000000
0.425373 0.439701 0.000000
0.431343 0.444925 0.000000
0.437313 0.450149 0.000000
0.443284 0.455373 0.000000
0.449254 0.460597 0.000000
0.455224 0.465821 0.000000
0.461194 0.471045 0.000000
0.467164 0.476269 0.000000
0.473134 0.481493 0.000000
0.479104 0.486716 0.000000
0.485075 0.491940 0.000000
0.491045 0.497164 0.000000
0.497015 0.502388 0.000000
0.502985 0.507612 0.000000
0.508955 0.512836 0.000000
0.514925 0.518060 0.000000
0.520896 0.523284 0.000000
0.526866 0.528507 0.000000
0.532836 0.533731 0.000000
0.538806 0.538955 0.000000
0.544776 0.544179 0.000000
0.550746 0.549403 0.000000
0.556716 0.554627 0.000000
0.562687 0.559851 0.000000
0.568657 0.565075 0.000000
0.574627 0.570299 0.000000
0.580597 0.575522 0.000000
0.586567 0.580746 0.000000
0.592537 0.585970 0.000000
0.598507 0.591194 0.000000
0.604478 0.596418 0.000000
0.610448 0.601642 0.000000
0.616418 0.606866 0.000000
0.622388 0.612090 0.000000
0.628358 0.617313 0.000000
0.634328 0.622537 0.000000
0.640299 0.627761 0.000000
0.646269 0.632985 0.000000
0.652239 0.638209 0.000000
0.658209 0.643433 0.000000
0.664179 0.648657 0.000000
0.670149 0.653881 0.000000
0.676119 0.659104 0.000000
0.682090 0.664328 0.000000
0.688060 0.669552 0.000000
0.694030 0.674776 0.000000
0.516135 0.080917 0.000000
0.549338 0.042552 0.000000
0.567302 0.088709 0.000000
0.555658 0.563778 0.000000
0.559301 0.571359 0.000000
0.552318 0.570919 0.000000
0.603235 0.047100 0.000000
0.446553 0.448087 0.000000
0.438652 0.443189 0.000000
0.445116 0.440368 0.000000
0.437254 0.190586 0.000000
0.465954 0.201747 0.000000
0.439184 0.213838 0.000000
0.453137 0.228102 0.000000
0.522423 0.410182 0.000000
0.522098 0.390982 0.000000
0.537289 0.398500 0.000000
0.453388 0.527105 0.000000
0.462022 0.524948 0.000000
0.461218 0.533993 0.000000
0.324300 0.374550 0.000000
0.319287 0.386214 0.000000
0.314834 0.375138 0.000000
0.668809 0.628853 0.000000
0.677366 0.632907 0.000000
0.668274 0.639611 0.000000
0.469934 0.529282 0.000000
0.439703 0.436699 0.000000
0.446608 0.432083 0.000000
0.542854 0.633425 0.000000
0.535117 0.647070 0.000000
0.524302 0.633157 0.000000
0.519372 0.648877 0.000000
0.586338 0.611293 0.000000
0.591638 0.624149 0.000000
0.575478 0.621479 0.000000
0.437962 0.035513 0.000000
0.421505 0.085456 0.000000
0.394924 0.044162 0.000000
0.445207 0.955749 0.000000
0.429168 0.919510 0.000000
0.464409 0.914226 0.000000
0.317150 0.400904 0.000000
0.328626 0.395860 0.000000
0.439616 0.884412 0.000000
0.330406 0.381773 0.000000
0.676842 0.602700 0.000000
0.674982 0.614185 0.000000
0.665930 0.611798 0.000000
0.414707 0.535036 0.000000
0.420123 0.526072 0.000000
0.425338 0.533771 0.000000
0.398407 0.375558 0.000000
0.393804 0.363255 0.000000
0.407284 0.365452 0.000000
0.407758 0.523337 0.000000
0.899969 0.377867 0.000000
0.945915 0.378245 0.000000
0.914158 0.409130 0.000000
0.358219 0.436142 0.000000
0.361390 0.425428 0.000000
0.369309 0.432300 0.000000
0.465999 0.075074 0.000000
0.269944 0.367761 0.000000
0.266521 0.352125 0.000000
0.283474 0.357667 0.000000
0.385889 0.083020 0.000000
0.359482 0.060981 0.000000
0.279658 0.346766 0.000000
0.363604 0.104040 0.000000
0.511115 0.503731 0.000000
0.503243 0.499914 0.000000
0.509146 0.494910 0.000000
0.513188 0.475753 0.000000
0.504957 0.474656 0.000000
0.511959 0.464784 0.000000
0.311863 0.447505 0.000000
0.293019 0.442078 0.000000
0.305555 0.431691 0.000000
0.499204 0.464990 0.000000
0.293855 0.459576 0.000000
0.396676 0.236328 0.000000
0.371014 0.247362 0.000000
0.373003 0.229199 0.000000
0.384478 0.261522 0.000000
0.555704 0.523331 0.000000
0.551313 0.515879 0.000000
0.562752 0.515269 0.000000
0.554954 0.506854 0.000000
0.804236 0.611103 0.000000
0.819351 0.593503 0.000000
0.832061 0.615776 0.000000
0.509908 0.485173 0.000000
0.129738 0.481190 0.000000
0.110722 0.443736 0.000000
0.154857 0.452634 0.000000
0.089738 0.485299 0.000000
0.396427 0.153886 0.000000
0.393058 0.115469 0.000000
0.420333 0.126587 0.000000
0.442628 0.413512 0.000000
0.434815 0.404283 0.000000
0.446816 0.400259 0.000000
0.499770 0.482873 0.000000
0.353883 0.235057 0.000000
0.351360 0.254011 0.000000
0.332147 0.240870 0.000000
0.112307 0.405527 0.000000
0.140355 0.392788 0.000000
0.142004 0.423465 0.000000
0.334868 0.263052 0.000000
0.551239 0.594093 0.000000
0.560217 0.601969 0.000000
0.546711 0.604614 0.000000
0.398510 0.570197 0.000000
0.387124 0.557316 0.000000
0.399978 0.555748 0.000000
0.705281 0.743146 0.000000
0.722930 0.758853 0.000000
0.697202 0.758074 0.000000
0.380190 0.572638 0.000000
0.278345 0.431947 0.000000
0.292575 0.428097 0.000000
0.470820 0.540616 0.000000
0.478213 0.533042 0.000000
0.480161 0.543190 0.000000
0.415268 0.299334 0.000000
0.412465 0.313515 0.000000
0.400419 0.297680 0.000000
0.396495 0.317117 0.000000
0.718655 0.732879 0.000000
0.709319 0.677587 0.000000
0.715709 0.670111 0.000000
0.719283 0.682820 0.000000
0.212992 0.453899 0.000000
0.184619 0.470046 0.000000
0.186665 0.440862 0.000000
0.452307 0.386568 0.000000
0.460371 0.397715 0.000000
0.478664 0.456068 0.000000
0.476179 0.462123 0.000000
0.471250 0.456445 0.000000
0.464654 0.388544 0.000000
0.483415 0.461045 0.000000
0.357146 0.449596 0.000000
0.344653 0.443966 0.000000
0.554562 0.459423 0.000000
0.543333 0.457517 0.000000
0.553850 0.449505 0.000000
0.543131 0.445036 0.000000
0.347312 0.459318 0.000000
0.781088 0.538918 0.000000
0.810909 0.534152 0.000000
0.799399 0.553968 0.000000
0.402869 0.534333 0.000000
0.408011 0.546121 0.000000
0.703844 0.670118 0.000000
0.552234 0.794299 0.000000
0.528593 0.795589 0.000000
0.539188 0.770312 0.000000
0.596088 0.518714 0.000000
0.593029 0.508081 0.000000
0.604120 0.510731 0.000000
0.384880 0.468703 0.000000
0.382270 0.455963 0.000000
0.394062 0.458803 0.000000
0.374729 0.466839 0.000000
0.340939 0.294790 0.000000
0.324530 0.290188 0.000000
0.338473 0.279923 0.000000
0.465367 0.336545 0.000000
0.477337 0.352846 0.000000
0.459495 0.350024 0.000000
0.584947 0.516440 0.000000
0.326802 0.302636 0.000000
0.945343 0.420397 0.000000
0.779746 0.749037 0.000000
0.771533 0.774140 0.000000
0.758291 0.749848 0.000000
0.743435 0.765852 0.000000
0.751942 0.297541 0.000000
0.784264 0.292048 0.000000
0.772562 0.330207 0.000000
0.812744 0.305799 0.000000
0.655547 0.494535 0.000000
0.649767 0.472522 0.000000
0.671966 0.480244 0.000000
0.612062 0.502007 0.000000
0.616789 0.515227 0.000000
0.403059 0.898561 0.000000
0.391512 0.946883 0.000000
0.625780 0.504699 0.000000
0.635988 0.491275 0.000000
0.596252 0.650380 0.000000
0.583401 0.655132 0.000000
0.583737 0.644777 0.000000
0.713099 0.416502 0.000000
0.708474 0.388943 0.000000
0.733625 0.389568 0.000000
0.684835 0.406222 0.000000
0.656936 0.416423 0.000000
0.633624 0.425116 0.000000
0.634362 0.400237 0.000000
0.646884 0.740682 0.000000
0.654954 0.726002 0.000000
0.663305 0.741855 0.000000
0.732481 0.441235 0.000000
0.751303 0.460839 0.000000
0.721338 0.462235 0.000000
0.759622 0.437863 0.000000
0.462761 0.363156 0.000000
0.373644 0.622389 0.000000
0.346217 0.613642 0.000000
0.370315 0.594521 0.000000
0.351411 0.640635 0.000000
0.695337 0.690220 0.000000
0.705202 0.700133 0.000000
0.692303 0.700990 0.000000
0.521365 0.516400 0.000000
0.522992 0.510597 0.000000
0.527633 0.513574 0.000000
0.291567 0.329512 0.000000
0.294927 0.318154 0.000000
0.365771 0.366553 0.000000
0.366135 0.358691 0.000000
0.374180 0.368122 0.000000
0.408232 0.327056 0.000000
0.423479 0.328280 0.000000
0.411272 0.339740 0.000000
0.664110 0.670607 0.000000
0.667245 0.662649 0.000000
[...]
POINT_DATA 1818
SCALARS UX float 1
LOOKUP_TABLE default
-0.000000
0.000000
0.013093
-0.030584
-0.017068
0.010395
0.000000
-0.000000
-0.000000
-0.000000
-0.000000
-0.000000
-0.000000
-0.000000
-0.000000
-0.000000
0.000000
0.000000
0.000000
0.000000
0.000000
0.000000
0.008460
0.013339
0.017237
0.020737
0.023924
0.026878
0.029572
0.031737
0.033052
0.033065
0.031089
0.027771
0.023369
0.019159
0.015800
0.013943
0.009557
0.006350
0.003448
0.000890
-0.001172
-0.002853
-0.004511
-0.006342
-0.008479
-0.010889
-0.013478
-0.016206
-0.019010
-0.021849
-0.024676
-0.027654
-0.030830
-0.031483
-0.032622
-0.034092
-0.035837
-0.037690
-0.039453
-0.040768
-0.041091
-0.039979
-0.037072
-0.032339
-0.026545
-0.020628
-0.014795
-0.009071
-0.016925
-0.016359
-0.016246
-0.015657
-0.015246
-0.014677
-0.014071
-0.013715
-0.013247
-0.012829
-0.012577
-0.012222
-0.011910
-0.011703
-0.011210
-0.010902
-0.010742
-0.010367
-0.010040
-0.009586
-0.009243
-0.008831
-0.008467
-0.008002
-0.007595
-0.007278
-0.006761
-0.006301
-0.005997
-0.005537
-0.005243
-0.004882
-0.004361
-0.003999
-0.003284
-0.002802
-0.002344
-0.001715
-0.001309
-0.000601
-0.000171
0.000328
0.000645
0.001015
0.001324
0.001639
0.001928
0.002344
0.002622
0.002949
0.003433
0.003673
0.003955
0.004372
0.004686
0.005068
0.005505
0.005630
0.005864
0.006618
0.007504
0.008059
0.008469
0.008722
0.009396
0.009819
-0.000430
-0.000187
0.000178
-0.008219
-0.009470
-0.011651
0.000176
-0.000258
-0.001897
0.002027
-0.001464
-0.000506
-0.001225
-0.000500
0.009925
0.009035
0.009955
-0.021868
-0.021242
-0.021339
-0.024700
-0.026578
-0.025938
0.017446
0.017108
0.016206
-0.020675
0.001228
0.004483
-0.014065
-0.013888
-0.015113
-0.014611
-0.010205
-0.010249
-0.012023
-0.000510
-0.001163
-0.000683
-0.009578
-0.010466
-0.009005
-0.027482
-0.026547
-0.010388
-0.024830
0.019738
0.018996
0.018460
-0.023590
-0.023560
-0.023168
0.001192
0.000773
0.002046
-0.024154
0.023812
0.025856
0.025912
-0.026397
-0.025653
-0.025433
-0.000804
-0.028364
-0.027227
-0.026252
-0.001286
-0.000985
-0.025185
-0.001783
0.004316
0.002082
0.006756
0.010805
0.009942
0.010914
-0.028736
-0.029482
-0.028867
0.009705
-0.029472
-0.002714
-0.003919
-0.003738
-0.003072
0.012663
0.012759
0.014203
0.013707
0.025781
0.026560
0.026567
0.009612
-0.036292
-0.036927
-0.035351
-0.037838
-0.002225
-0.001752
-0.001590
0.005353
0.004658
0.005693
0.007628
-0.004652
-0.005046
-0.005823
-0.035902
-0.034410
-0.035423
-0.006224
-0.014229
-0.013427
-0.014688
-0.023086
-0.023961
-0.023538
0.003497
0.004322
0.002140
-0.023675
-0.030045
-0.029351
-0.020720
-0.020059
-0.020083
-0.000075
0.000388
-0.001028
-0.000488
0.005720
0.014103
0.016983
0.014982
-0.033011
-0.034119
-0.034060
0.005693
0.006512
0.007435
0.005981
0.006004
0.006430
0.007767
-0.026766
-0.027294
0.013115
0.012579
0.012749
0.012152
-0.027282
0.024565
0.025771
0.025635
-0.024076
-0.023543
0.014497
-0.006752
-0.007934
-0.008063
0.016285
0.015996
0.016543
-0.025607
-0.025515
-0.024779
-0.026102
-0.006109
-0.007767
-0.006277
0.004137
0.005433
0.004516
0.015665
-0.007739
0.027736
0.011193
0.007875
0.008812
0.005836
0.012975
0.014077
0.015539
0.016067
0.018106
0.017133
0.018233
0.016684
0.017162
-0.011831
-0.011909
0.017287
0.017279
-0.009617
-0.010473
-0.010821
0.017239
0.015772
0.016856
0.015626
0.015028
0.014574
0.013445
-0.001685
-0.001115
-0.000296
0.019139
0.020763
0.019518
0.020196
0.005274
-0.021969
-0.023416
-0.023223
-0.022130
0.006498
0.007470
0.004634
0.002826
0.006136
0.006917
-0.019500
-0.015358
-0.003872
-0.002550
-0.001767
0.000711
0.001687
0.001453
0.000860
0.003521
0.003802
-0.026115
-0.026321
-0.026843
-0.026884
-0.001259
-0.002969
-0.005083
0.004212
0.004230
0.005083
0.005493
-0.008234
-0.009519
-0.007031
-0.000592
-0.003746
-0.004287
-0.018255
-0.018577
-0.019201
-0.003891
-0.007177
-0.006937
0.001165
0.003119
0.004482
0.002031
0.003112
-0.004817
-0.001198
-0.017752
-0.015184
-0.014454
-0.017658
-0.030857
-0.029673
-0.030410
-0.026465
-0.027346
-0.026146
-0.004274
-0.004133
-0.013663
0.015483
0.015612
-0.027448
-0.027477
-0.026802
-0.013598
-0.024837
-0.023466
-0.022181
-0.021543
-0.024892
-0.018173
-0.018777
-0.018725
-0.017945
-0.017071
-0.016153
0.018859
0.018970
0.017091
0.020407
-0.028809
-0.028367
-0.028008
-0.016162
-0.018842
-0.015044
-0.011025
-0.009489
-0.007832
-0.004878
-0.013120
-0.015032
-0.017698
0.018484
0.015575
-0.020604
-0.019626
-0.019020
-0.004117
-0.007934
-0.007674
-0.019208
-0.018931
-0.018803
-0.010127
-0.009193
-0.009035
-0.017132
-0.018593
-0.001624
-0.002224
-0.005168
-0.005246
-0.003871
-0.006539
0.012375
0.012352
0.011289
-0.036905
-0.038595
-0.036687
-0.030042
-0.028089
-0.028657
-0.029255
-0.000942
-0.003645
-0.005250
-0.005651
-0.016003
-0.017337
-0.015919
-0.017532
-0.014491
-0.015687
-0.014347
-0.023675
-0.024505
-0.023280
-0.023739
-0.023664
-0.024347
-0.024063
-0.021211
0.000670
-0.002553
-0.002655
0.007847
0.006592
0.006774
0.007650
0.019847
0.017917
0.018278
0.020791
0.022040
-0.019881
-0.021389
-0.022589
0.012094
0.012451
0.007910
-0.021608
-0.020923
-0.022143
-0.006444
-0.003278
-0.019365
-0.004354
-0.006838
-0.008374
0.007236
0.007989
0.007216
0.013934
0.014446
0.014467
-0.004904
-0.005299
-0.008033
0.015060
-0.024467
-0.022505
-0.026571
-0.025026
-0.027281
0.005443
0.006617
0.012277
0.012837
0.012138
0.013032
0.011911
-0.038330
-0.003591
-0.002510
-0.003576
-0.002556
-0.026124
-0.027817
-0.024101
0.013172
0.014584
0.016308
-0.004120
0.010935
0.005983
0.013228
0.013476
-0.001314
0.000448
-0.000078
-0.027470
-0.026716
-0.026668
-0.009477
-0.010653
-0.034753
0.013728
0.014424
0.014096
0.004741
0.004708
-0.010788
-0.010816
-0.009305
0.005221
0.014880
-0.028583
-0.028985
-0.029314
-0.023100
-0.020980
-0.021205
0.005437
0.010068
0.006977
0.009354
0.002529
0.013387
0.013917
-0.017016
-0.012742
-0.013774
0.000030
0.001063
-0.028562
-0.028145
-0.027401
0.000401
0.000607
0.000553
-0.000139
-0.028252
-0.029036
-0.029131
-0.014064
-0.017007
-0.012144
-0.007347
-0.007795
-0.009479
-0.020191
-0.017266
0.012201
-0.026827
-0.029119
0.010766
0.013689
0.014482
-0.019100
0.013264
0.011903
-0.017761
-0.017347
0.020722
0.021727
0.021657
-0.018629
0.011486
0.011632
0.017390
-0.022395
-0.022366
-0.021882
-0.014297
-0.013081
-0.007471
-0.023057
0.006477
0.007257
-0.022797
-0.011750
-0.012895
-0.011583
-0.012789
0.025393
0.023860
0.023523
0.012842
0.010137
0.008834
-0.011492
-0.011176
-0.009828
-0.003374
-0.002201
0.007618
0.002429
0.003325
0.005811
0.000068
-0.027588
-0.027218
-0.001321
-0.001170
-0.023577
0.016656
0.018970
0.015547
0.029523
0.018794
0.004963
0.005427
0.006234
-0.027309
0.006030
0.002386
0.002699
0.003315
-0.011314
-0.015895
-0.012497
-0.011406
0.014035
-0.022674
-0.020235
-0.027600
-0.028125
-0.027821
-0.021298
-0.020597
-0.020816
-0.021760
0.021162
0.020274
0.021540
-0.020083
-0.000879
0.022980
0.018031
0.017851
0.007198
0.011100
0.006890
0.011905
0.009534
0.013159
0.000032
-0.019598
-0.003200
-0.021975
-0.024261
-0.024317
-0.026036
0.002931
0.003688
-0.010755
-0.013295
0.011327
-0.000991
-0.034630
-0.002358
-0.023622
-0.022523
-0.021431
-0.002962
0.021791
0.021201
0.020773
0.020515
0.003481
0.002177
-0.008682
-0.008403
-0.007266
0.019905
0.020103
0.019493
0.019444
0.015651
0.017000
-0.020102
-0.020798
0.020786
-0.029891
-0.026595
-0.027638
0.022617
0.021741
0.021043
-0.006801
-0.008088
-0.006394
0.022868
0.024565
0.013375
0.009981
0.011413
0.007754
-0.008587
0.009448
0.009211
0.008200
0.020045
0.022434
0.021248
-0.021388
-0.022798
-0.024219
0.023743
-0.016276
-0.014896
-0.019171
-0.018217
-0.019565
-0.023650
0.003201
0.002172
0.005597
0.027126
0.028941
0.029798
0.025970
0.020793
0.025810
0.023648
-0.005131
-0.004837
-0.033122
-0.028777
-0.030142
-0.005613
0.007816
0.001593
-0.033303
-0.034089
-0.035873
-0.030166
-0.030240
-0.037863
0.006512
0.002341
-0.014707
-0.001527
-0.015864
-0.014327
-0.013754
0.030521
0.031930
-0.001143
-0.001106
0.000527
0.006002
0.004143
0.007400
0.002747
0.000228
0.005141
-0.000643
-0.001670
-0.018699
-0.022483
-0.022793
-0.020257
-0.028880
-0.029510
-0.029739
-0.039577
-0.039352
-0.001689
-0.002638
-0.001306
-0.002642
-0.002965
-0.003292
-0.001862
-0.002628
-0.037486
-0.000717
-0.001124
-0.007628
-0.010124
-0.009709
0.030809
0.029233
-0.030631
0.024442
0.023678
0.023615
0.024498
-0.035004
-0.035033
-0.033808
0.025466
-0.000692
0.027575
0.002211
-0.000075
-0.000488
-0.001436
-0.010302
0.000657
-0.000808
-0.004791
-0.003773
-0.003409
0.014067
0.012123
-0.004354
-0.012350
-0.011907
-0.001799
-0.011798
0.009302
0.011189
0.009517
0.011694
-0.028241
-0.028209
-0.013516
-0.007774
-0.001412
-0.002816
0.003975
0.003516
0.002266
-0.002409
-0.005421
-0.031124
-0.029204
-0.029626
-0.030377
-0.012189
-0.033416
-0.032220
-0.034351
-0.031912
-0.032629
-0.015986
-0.014897
-0.015072
-0.013406
-0.015598
-0.008760
-0.006982
-0.006375
-0.004805
-0.032378
-0.035174
-0.032353
0.009552
0.008866
0.009263
-0.017567
-0.018426
0.002877
0.002040
-0.031606
-0.032837
-0.031784
-0.026134
-0.025831
-0.025243
-0.013561
-0.015571
-0.028953
0.010107
0.004496
0.003104
-0.025327
-0.022236
-0.020520
-0.022481
-0.026096
-0.034514
0.013786
0.011663
-0.025449
-0.025065
-0.026354
-0.025863
0.003746
0.002909
-0.025802
0.019036
-0.003339
0.000178
0.002719
0.003933
0.002301
-0.010123
0.002933
-0.020699
-0.017860
-0.016675
-0.017944
-0.017631
-0.026273
-0.026392
-0.027502
0.004377
0.003811
-0.027702
0.009562
0.018839
0.018726
-0.038242
-0.036490
-0.036288
-0.009959
-0.010977
-0.011423
-0.027512
0.028467
0.029934
0.028331
0.027048
0.027101
-0.031378
-0.029987
-0.023801
-0.025021
-0.023829
0.001845
0.012514
0.009676
0.017159
-0.027611
-0.027595
-0.017379
-0.018321
-0.016603
-0.026892
-0.031050
-0.018274
0.008120
0.008381
0.008373
-0.020023
-0.018402
-0.021444
0.021257
0.021979
0.022460
-0.021020
0.026695
0.026061
-0.034131
-0.010713
0.004537
-0.029740
-0.031943
-0.006421
-0.007281
0.017520
0.017074
0.016893
-0.003354
-0.002666
0.018137
-0.002827
0.018642
-0.030239
-0.032140
0.021397
0.022297
0.019287
0.006096
-0.001871
0.024075
0.020840
0.027104
0.019713
-0.004498
-0.005290
-0.003847
-0.004481
0.010202
-0.004601
-0.005455
0.010788
-0.020170
-0.017053
-0.019447
-0.016982
-0.016498
0.007197
0.008550
-0.015413
-0.015903
-0.016463
0.010081
0.009558
0.010262
-0.020064
-0.019648
-0.019147
-0.026631
0.023105
0.023828
0.023946
-0.029606
-0.030572
-0.031467
-0.002288
-0.003087
-0.003095
-0.031533
-0.010399
-0.003933
-0.009156
-0.004480
-0.033493
-0.033146
0.027865
0.009140
0.017962
0.016451
-0.018631
-0.019419
-0.000331
-0.001316
-0.002426
-0.032876
-0.000427
-0.025313
-0.032356
-0.031204
-0.024757
-0.024848
-0.025251
0.020049
0.019724
0.019898
0.020746
0.004667
0.005978
0.004705
0.007070
-0.028809
-0.015888
-0.016785
-0.029660
-0.013645
0.006512
0.006103
0.003487
0.017402
0.013876
0.011982
0.004408
0.003096
-0.003866
-0.029404
-0.028886
-0.028459
-0.032338
-0.008484
-0.003649
-0.009180
-0.003437
-0.009681
0.007414
0.006358
-0.001154
-0.000980
-0.000533
0.000347
0.019625
0.004618
0.003371
0.002568
0.002073
0.006045
-0.005488
-0.004166
0.025702
-0.018386
-0.019038
-0.019368
-0.017654
-0.020319
0.024492
0.021677
0.022491
0.020627
0.019887
0.019123
-0.030970
0.003235
0.000876
0.001980
0.001809
0.005977
0.006358
0.006685
0.029032
0.030288
0.022814
-0.024390
-0.024678
-0.005719
-0.006840
0.017856
0.020101
0.018606
0.018218
-0.024866
-0.024410
-0.011307
-0.011986
-0.005628
-0.027938
-0.027454
0.000596
-0.028142
0.013139
0.013441
0.013207
0.000587
0.001600
0.020051
0.018369
-0.017784
-0.019057
-0.017538
-0.018812
-0.016796
-0.016799
0.009174
0.009134
-0.032806
0.007850
0.012248
0.013501
0.025306
0.023712
0.010844
0.001052
0.000838
-0.000455
-0.004271
-0.009436
-0.008638
-0.010198
-0.010941
-0.024341
-0.024718
0.022842
0.009988
0.007750
0.009057
0.005624
-0.005907
-0.007531
-0.007872
0.016970
0.014576
0.013298
-0.024911
-0.024997
-0.022258
-0.002671
-0.006551
-0.005345
-0.004811
0.000829
-0.007658
-0.006804
-0.005168
-0.009684
0.001729
-0.003341
0.022599
0.023428
0.023672
0.019781
0.022806
0.022573
-0.025988
-0.005177
-0.012619
-0.014074
-0.014013
-0.012034
-0.013428
-0.015288
0.003138
0.016821
0.002862
-0.002420
-0.002137
0.020672
0.020535
0.014124
0.015821
0.015291
-0.020954
-0.023740
0.001879
0.003245
-0.027148
0.021267
0.021268
0.019023
0.018146
-0.026822
-0.027010
-0.028403
0.019177
0.019157
0.011765
0.010629
0.010559
0.010478
0.018508
0.020273
0.001143
0.016017
0.011450
0.012704
-0.001997
-0.012806
-0.010334
0.023156
0.005593
-0.011720
0.016947
0.019030
-0.006236
-0.007763
-0.011650
-0.013154
-0.012188
-0.014972
0.016565
0.015821
-0.006541
-0.009950
-0.009196
-0.016013
-0.016163
-0.035566
0.016595
0.016421
0.016125
0.016092
0.016175
-0.024260
0.014400
-0.023334
-0.002023
-0.019421
-0.026296
-0.011100
-0.007785
-0.007703
-0.020924
0.002036
-0.025069
-0.032956
-0.001015
0.000722
-0.001491
-0.024598
-0.022145
-0.018057
0.016764
0.004904
0.004303
-0.016878
-0.006923
0.013560
0.016430
-0.020356
-0.020609
-0.021668
0.009744
-0.017577
0.020312
0.019338
0.003168
-0.012454
-0.013627
-0.014376
-0.017769
-0.017003
-0.005538
0.000986
0.025153
0.026765
0.009272
-0.007115
0.010585
-0.003799
-0.004612
0.012781
-0.002526
-0.009389
0.024940
-0.002162
-0.024157
-0.024187
0.018321
0.007586
0.008867
0.027802
0.009612
0.003204
-0.000324
-0.030555
-0.029629
-0.003519
-0.004971
-0.023394
-0.024754
-0.023647
0.027477
-0.024905
-0.011086
-0.016348
0.019962
-0.009257
-0.008924
-0.008300
-0.018233
0.001395
-0.000343
0.009429
-0.012171
-0.014959
0.014240
0.015105
0.016321
0.016421
0.015617
0.006858
-0.030854
-0.012670
-0.015583
-0.015359
-0.007141
-0.003463
-0.003637
0.010783
0.011538
-0.005642
-0.009494
0.004925
0.008730
0.012529
0.001670
0.002667
0.002758
0.003692
-0.015620
-0.020320
-0.017694
0.017418
0.017150
0.018132
-0.016158
-0.016464
0.002200
-0.022457
-0.022652
0.001859
0.002305
0.019294
0.001628
-0.025771
-0.028024
-0.025575
-0.019079
0.004070
-0.017080
0.000090
-0.000770
-0.031049
-0.031851
0.005272
-0.001839
0.003264
-0.016965
0.007917
-0.000420
0.007353
-0.024769
-0.024483
0.009654
-0.019402
-0.026423
-0.025527
-0.027836
-0.022744
-0.017126
-0.013815
-0.012677
0.013756
0.014654
0.014933
-0.020413
-0.018972
-0.000298
-0.000489
-0.022002
-0.021428
-0.022546
-0.006040
-0.005141
-0.016308
-0.021117
0.018788
0.018304
0.001025
-0.023619
-0.023667
-0.025709
-0.024331
-0.024144
0.001192
0.002009
0.012646
0.007946
-0.014105
-0.012890
-0.017760
0.002273
0.003858
0.006205
0.006109
-0.023058
0.001280
0.001322
-0.007919
-0.012499
0.004410
0.003297
-0.016844
-0.014423
-0.001739
0.010826
0.010529
0.015939
-0.024513
0.015939
-0.002294
0.021787
0.022195
-0.025531
-0.025378
-0.002844
-0.002479
-0.006636
-0.007470
0.011912
0.018315
0.007329
-0.011567
0.016928
-0.027422
0.013129
0.010387
0.010384
-0.027768
0.018469
0.007718
0.004732
0.013475
0.012734
0.003763
0.007998
-0.027032
-0.026041
-0.023981
-0.029901
0.021598
0.014097
0.015144
0.014340
0.001021
-0.031250
0.022836
-0.026623
-0.023353
-0.022146
0.000588
0.004264
0.001887
0.015015
0.009207
-0.014005
-0.013206
-0.025644
-0.003117
0.009627
0.011587
-0.028589
-0.027882
-0.013266
0.003407
0.008015
0.003705
0.008199
0.011566
0.010904
0.006749
-0.023027
0.010118
-0.025518
-0.007877
0.013058
0.015595
0.013575
0.012405
0.022167
0.015795
-0.023289
-0.020860
-0.020176
0.020466
0.020869
0.000850
0.017832
-0.015389
-0.016322
-0.015988
0.007824
0.008665
0.008331
0.008874
-0.014090
-0.002145
0.021015
0.009119
-0.020357
-0.012381
-0.031104
-0.011460
0.012305
0.016082
0.016418
-0.014947
-0.015656
-0.030280
0.020796
0.019844
-0.015091
-0.006963
0.001468
0.000387
-0.024857
0.001155
-0.001586
-0.012886
0.021618
0.024845
0.007770
0.005326
0.004359
-0.023181
-0.008183
0.000367
0.001485
-0.024665
0.024110
-0.022293
0.008076
0.007769
-0.030698
0.013348
0.015010
0.012322
-0.009154
0.012910
0.008184
-0.015292
0.018111
-0.014572
0.002924
0.001154
0.001508
-0.018761
0.005410
-0.013459
0.001916
-0.003918
-0.003638
-0.014893
0.025230
0.014974
-0.020880
-0.021209
-0.007190
0.008719
-0.031130
-0.032716
-0.033456
-0.016905
-0.023979
0.014246
-0.015919
0.009713
0.016983
0.017230
-0.000796
-0.013287
-0.014794
-0.020712
0.020148
0.019530
0.010445
0.009736
-0.008072
-0.012163
-0.025706
-0.025795
0.011825
-0.023726
-0.011134
-0.011794
-0.022684
-0.022875
0.011916
0.007497
0.015492
0.012708
-0.013774
0.016746
0.013820
-0.009392
-0.018835
-0.020470
0.013987
0.012245
-0.019331
0.013813
0.007637
-0.025126
0.018144
-0.009767
-0.028419
0.017109
0.016185
-0.008616
-0.008227
-0.020518
-0.024438
0.016722
0.017157
0.017532
-0.002754
0.011541
0.000545
-0.020617
-0.028725
0.010856
0.011028
-0.020996
-0.022230
0.013684
0.017361
0.002175
0.005821
0.003825
0.015772
0.023363
-0.004013
-0.003537
-0.010063
-0.025422
0.011516
-0.020069
-0.004115
-0.004080
0.002881
0.007428
-0.021728
0.015276
-0.020754
-0.013011
0.017466
-0.018715
-0.014032
-0.016782
-0.022259
-0.005352
-0.002761
-0.021466
0.016283
-0.022213
-0.000048
-0.002183
-0.007474
0.000150
-0.005598
-0.004922
0.011519
-0.019777
-0.020735
-0.005750
0.000258
-0.002066
-0.012970
-0.013392
-0.008707
-0.014805
-0.010355
-0.004513
-0.013356
-0.007961
-0.008140
0.003276
-0.018369
0.018088
0.014593
-0.002676
-0.023782
-0.023181
-0.006221
0.006548
0.008512
-0.010345
0.000567
-0.019605
-0.022461
-0.000024
0.011608
0.014021
0.014751
0.018700
-0.022116
0.008753
-0.019927
-0.016974
-0.020626
0.012887
-0.011737
0.011597
-0.022896
0.008332
0.007451
0.006668
-0.026792
0.001853
-0.010296
-0.013370
0.001329
-0.010975
-0.022627
0.003785
0.014682
-0.009052
-0.015854
-0.000309
SCALARS UY float 1
LOOKUP_TABLE default
-0.000000
-0.000000
-0.110000
-0.110000
-0.028567
-0.078945
-0.000000
-0.000000
-0.000000
-0.000000
-0.000000
-0.000000
-0.000000
-0.000000
-0.000000
-0.000000
-0.000000
-0.000000
-0.000000
-0.000000
-0.000000
-0.000000
-0.009678
-0.016935
-0.023578
-0.029825
-0.035850
-0.041611
-0.047032
-0.051953
-0.056574
-0.060718
-0.065159
-0.070222
-0.076448
-0.083915
-0.092203
-0.100997
-0.110000
-0.110000
-0.110000
-0.110000
-0.110000
-0.110000
-0.110000
-0.110000
-0.110000
-0.110000
-0.110000
-0.110000
-0.110000
-0.110000
-0.110000
-0.110000
-0.102882
-0.095812
-0.088889
-0.082095
-0.075653
-0.069597
-0.064036
-0.059092
-0.054564
-0.050495
-0.046272
-0.041307
-0.035363
-0.028037
-0.020032
-0.011182
-0.028980
-0.030132
-0.031375
-0.032069
-0.032923
-0.034382
-0.035329
-0.036000
-0.036684
-0.037358
-0.037922
-0.038823
-0.039703
-0.040290
-0.041184
-0.041830
-0.042349
-0.043081
-0.043731
-0.044454
-0.045047
-0.045651
-0.046178
-0.046913
-0.047579
-0.047837
-0.048682
-0.049453
-0.049951
-0.050707
-0.051324
-0.051989
-0.052776
-0.053025
-0.053727
-0.054154
-0.054601
-0.055327
-0.055643
-0.056426
-0.056929
-0.057623
-0.058110
-0.058985
-0.059727
-0.060441
-0.061155
-0.062010
-0.062725
-0.063492
-0.064489
-0.065146
-0.065713
-0.066686
-0.067529
-0.068444
-0.069448
-0.070302
-0.071056
-0.072376
-0.073847
-0.074930
-0.075644
-0.076272
-0.077108
-0.078053
-0.004583
-0.002480
-0.005539
-0.067040
-0.069424
-0.070729
-0.003004
-0.039556
-0.039817
-0.036524
-0.010273
-0.011584
-0.011905
-0.013239
-0.030075
-0.028368
-0.029475
-0.068111
-0.067891
-0.069030
-0.044154
-0.046641
-0.044967
-0.061306
-0.061876
-0.065340
-0.068433
-0.036300
-0.033307
-0.080608
-0.081805
-0.080281
-0.081636
-0.077148
-0.079140
-0.079338
-0.001720
-0.004133
-0.002074
-0.106371
-0.103207
-0.103185
-0.048660
-0.048337
-0.100361
-0.045544
-0.057208
-0.058965
-0.058218
-0.067986
-0.067237
-0.068188
-0.026305
-0.024758
-0.024703
-0.066574
-0.040380
-0.041874
-0.043999
-0.054992
-0.053484
-0.054562
-0.003868
-0.040351
-0.037317
-0.038503
-0.003932
-0.002895
-0.035953
-0.004980
-0.045915
-0.047029
-0.042651
-0.037092
-0.037176
-0.035517
-0.054370
-0.052771
-0.052150
-0.035740
-0.054899
-0.012667
-0.013131
-0.011917
-0.014381
-0.043886
-0.042568
-0.042075
-0.040874
-0.064164
-0.062234
-0.064824
-0.039036
-0.054266
-0.050564
-0.051020
-0.054998
-0.007560
-0.005536
-0.006284
-0.029955
-0.028920
-0.028155
-0.039950
-0.012299
-0.013581
-0.013024
-0.046659
-0.044733
-0.047990
-0.014513
-0.075990
-0.076901
-0.077524