# vtk DataFile Version 2.0
Test
ASCII
DATASET POLYDATA
POINTS 1818 float
0.000000 0.000000 0.000000
1.000000 0.000000 0.000000
1.000000 1.000000 0.000000
0.000000 1.000000 0.000000
0.300000 0.330000 0.000000
0.700000 0.680000 0.000000
0.058824 0.000000 0.000000
0.117647 0.000000 0.000000
0.176471 0.000000 0.000000
0.235294 0.000000 0.000000
0.294118 0.000000 0.000000
0.352941 0.000000 0.000000
0.411765 0.000000 0.000000
0.470588 0.000000 0.000000
0.529412 0.000000 0.000000
0.588235 0.000000 0.000000
0.647059 0.000000 0.000000
0.705882 0.000000 0.000000
0.764706 0.000000 0.000000
0.823529 0.000000 0.000000
0.882353 0.000000 0.000000
0.941176 0.000000 0.000000
1.000000 0.058824 0.000000
1.000000 0.117647 0.000000
1.000000 0.176471 0.000000
1.000000 0.235294 0.000000
1.000000 0.294118 0.000000
1.000000 0.352941 0.000000
1.000000 0.411765 0.000000
1.000000 0.470588 0.000000
1.000000 0.529412 0.000000
1.000000 0.588235 0.000000
1.000000 0.647059 0.000000
1.000000 0.705882 0.000000
1.000000 0.764706 0.000000
1.000000 0.823529 0.000000
1.000000 0.882353 0.000000
1.000000 0.941176 0.000000
0.941176 1.000000 0.000000
0.882353 1.000000 0.000000
0.823529 1.000000 0.000000
0.764706 1.000000 0.000000
0.705882 1.000000 0.000000
0.647059 1.000000 0.000000
0.588235 1.000000 0.000000
0.529412 1.000000 0.000000
0.470588 1.000000 0.000000
0.411765 1.000000 0.000000
0.352941 1.000000 0.000000
0.294118 1.000000 0.000000
0.235294 1.000000 0.000000
0.176471 1.000000 0.000000
0.117647 1.000000 0.000000
0.058824 1.000000 0.000000
0.000000 0.941176 0.000000
0.000000 0.882353 0.000000
0.000000 0.823529 0.000000
0.000000 0.764706 0.000000
0.000000 0.705882 0.000000
0.000000 0.647059 0.000000
0.000000 0.588235 0.000000
0.000000 0.529412 0.000000
0.000000 0.470588 0.000000
0.000000 0.411765 0.000000
0.000000 0.352941 0.000000
0.000000 0.294118 0.000000
0.000000 0.235294 0.000000
0.000000 0.176471 0.000000
0.000000 0.117647 0.000000
0.000000 0.058824 0.000000
0.305970 0.335224 0.000000
0.311940 0.340448 0.000000
0.317910 0.345672 0.000000
0.323881 0.350896 0.000000
0.329851 0.356119 0.000000
0.335821 0.361343 0.000000
0.341791 0.366567 0.000000
0.347761 0.371791 0.000000
0.353731 0.377015 0.000000
0.359701 0.382239 0.000000
0.365672 0.387463 0.000000
0.371642 0.392687 0.000000
0.377612 0.397910 0.000000
0.383582 0.403134 0.000000
0.389552 0.408358 0.000000
0.395522 0.413582 0.000000
0.401493 0.418806 0.000000
0.407463 0.424030 0.000000
0.413433 0.429254 0.000000
0.419403 0.434478 0.000000
0.425373 0.439701 0.000000
0.431343 0.444925 0.000000
0.437313 0.450149 0.000000
0.443284 0.455373 0.000000
0.449254 0.460597 0.000000
0.455224 0.465821 0.000000
0.461194 0.471045 0.000000
0.467164 0.476269 0.000000
0.473134 0.481493 0.000000
0.479104 0.486716 0.000000
0.485075 0.491940 0.000000
0.491045 0.497164 0.000000
0.497015 0.502388 0.000000
0.502985 0.507612 0.000000
0.508955 0.512836 0.000000
0.514925 0.518060 0.000000
0.520896 0.523284 0.000000
0.526866 0.528507 0.000000
0.532836 0.533731 0.000000
0.538806 0.538955 0.000000
0.544776 0.544179 0.000000
0.550746 0.549403 0.000000
0.556716 0.554627 0.000000
0.562687 0.559851 0.000000
0.568657 0.565075 0.000000
0.574627 0.570299 0.000000
0.580597 0.575522 0.000000
0.586567 0.580746 0.000000
0.592537 0.585970 0.000000
0.598507 0.591194 0.000000
0.604478 0.596418 0.000000
0.610448 0.601642 0.000000
0.616418 0.606866 0.000000
0.622388 0.612090 0.000000
0.628358 0.617313 0.000000
0.634328 0.622537 0.000000
0.640299 0.627761 0.000000
0.646269 0.632985 0.000000
0.652239 0.638209 0.000000
0.658209 0.643433 0.000000
0.664179 0.648657 0.000000
0.670149 0.653881 0.000000
0.676119 0.659104 0.000000
0.682090 0.664328 0.000000
0.688060 0.669552 0.000000
0.694030 0.674776 0.000000
0.516135 0.080917 0.000000
0.549338 0.042552 0.000000
0.567302 0.088709 0.000000
0.555658 0.563778 0.000000
0.559301 0.571359 0.000000
0.552318 0.570919 0.000000
0.603235 0.047100 0.000000
0.446553 0.448087 0.000000
0.438652 0.443189 0.000000
0.445116 0.440368 0.000000
0.437254 0.190586 0.000000
0.465954 0.201747 0.000000
0.439184 0.213838 0.000000
0.453137 0.228102 0.000000
0.522423 0.410182 0.000000
0.522098 0.390982 0.000000
0.537289 0.398500 0.000000
0.453388 0.527105 0.000000
0.462022 0.524948 0.000000
0.461218 0.533993 0.000000
0.324300 0.374550 0.000000
0.319287 0.386214 0.000000
0.314834 0.375138 0.000000
0.668809 0.628853 0.000000
0.677366 0.632907 0.000000
0.668274 0.639611 0.000000
0.469934 0.529282 0.000000
0.439703 0.436699 0.000000
0.446608 0.432083 0.000000
0.542854 0.633425 0.000000
0.535117 0.647070 0.000000
0.524302 0.633157 0.000000
0.519372 0.648877 0.000000
0.586338 0.611293 0.000000
0.591638 0.624149 0.000000
0.575478 0.621479 0.000000
0.437962 0.035513 0.000000
0.421505 0.085456 0.000000
0.394924 0.044162 0.000000
0.445207 0.955749 0.000000
0.429168 0.919510 0.000000
0.464409 0.914226 0.000000
0.317150 0.400904 0.000000
0.328626 0.395860 0.000000
0.439616 0.884412 0.000000
0.330406 0.381773 0.000000
0.676842 0.602700 0.000000
0.674982 0.614185 0.000000
0.665930 0.611798 0.000000
0.414707 0.535036 0.000000
0.420123 0.526072 0.000000
0.425338 0.533771 0.000000
0.398407 0.375558 0.000000
0.393804 0.363255 0.000000
0.407284 0.365452 0.000000
0.407758 0.523337 0.000000
0.899969 0.377867 0.000000
0.945915 0.378245 0.000000
0.914158 0.409130 0.000000
0.358219 0.436142 0.000000
0.361390 0.425428 0.000000
0.369309 0.432300 0.000000
0.465999 0.075074 0.000000
0.269944 0.367761 0.000000
0.266521 0.352125 0.000000
0.283474 0.357667 0.000000
0.385889 0.083020 0.000000
0.359482 0.060981 0.000000
0.279658 0.346766 0.000000
0.363604 0.104040 0.000000
0.511115 0.503731 0.000000
0.503243 0.499914 0.000000
0.509146 0.494910 0.000000
0.513188 0.475753 0.000000
0.504957 0.474656 0.000000
0.511959 0.464784 0.000000
0.311863 0.447505 0.000000
0.293019 0.442078 0.000000
0.305555 0.431691 0.000000
0.499204 0.464990 0.000000
0.293855 0.459576 0.000000
0.396676 0.236328 0.000000
0.371014 0.247362 0.000000
0.373003 0.229199 0.000000
0.384478 0.261522 0.000000
0.555704 0.523331 0.000000
0.551313 0.515879 0.000000
0.562752 0.515269 0.000000
0.554954 0.506854 0.000000
0.804236 0.611103 0.000000
0.819351 0.593503 0.000000
0.832061 0.615776 0.000000
0.509908 0.485173 0.000000
0.129738 0.481190 0.000000
0.110722 0.443736 0.000000
0.154857 0.452634 0.000000
0.089738 0.485299 0.000000
0.396427 0.153886 0.000000
0.393058 0.115469 0.000000
0.420333 0.126587 0.000000
0.442628 0.413512 0.000000
0.434815 0.404283 0.000000
0.446816 0.400259 0.000000
0.499770 0.482873 0.000000
0.353883 0.235057 0.000000
0.351360 0.254011 0.000000
0.332147 0.240870 0.000000
0.112307 0.405527 0.000000
0.140355 0.392788 0.000000
0.142004 0.423465 0.000000
0.334868 0.263052 0.000000
0.551239 0.594093 0.000000
0.560217 0.601969 0.000000
0.546711 0.604614 0.000000
0.398510 0.570197 0.000000
0.387124 0.557316 0.000000
0.399978 0.555748 0.000000
0.705281 0.743146 0.000000
0.722930 0.758853 0.000000
0.697202 0.758074 0.000000
0.380190 0.572638 0.000000
0.278345 0.431947 0.000000
0.292575 0.428097 0.000000
0.470820 0.540616 0.000000
0.478213 0.533042 0.000000
0.480161 0.543190 0.000000
0.415268 0.299334 0.000000
0.412465 0.313515 0.000000
0.400419 0.297680 0.000000
0.396495 0.317117 0.000000
0.718655 0.732879 0.000000
0.709319 0.677587 0.000000
0.715709 0.670111 0.000000
0.719283 0.682820 0.000000
0.212992 0.453899 0.000000
0.184619 0.470046 0.000000
0.186665 0.440862 0.000000
0.452307 0.386568 0.000000
0.460371 0.397715 0.000000
0.478664 0.456068 0.000000
0.476179 0.462123 0.000000
0.471250 0.456445 0.000000
0.464654 0.388544 0.000000
0.483415 0.461045 0.000000
0.357146 0.449596 0.000000
0.344653 0.443966 0.000000
0.554562 0.459423 0.000000
0.543333 0.457517 0.000000
0.553850 0.449505 0.000000
0.543131 0.445036 0.000000
0.347312 0.459318 0.000000
0.781088 0.538918 0.000000
0.810909 0.534152 0.000000
0.799399 0.553968 0.000000
0.402869 0.534333 0.000000
0.408011 0.546121 0.000000
0.703844 0.670118 0.000000
0.552234 0.794299 0.000000
0.528593 0.795589 0.000000
0.539188 0.770312 0.000000
0.596088 0.518714 0.000000
0.593029 0.508081 0.000000
0.604120 0.510731 0.000000
0.384880 0.468703 0.000000
0.382270 0.455963 0.000000
0.394062 0.458803 0.000000
0.374729 0.466839 0.000000
0.340939 0.294790 0.000000
0.324530 0.290188 0.000000
0.338473 0.279923 0.000000
0.465367 0.336545 0.000000
0.477337 0.352846 0.000000
0.459495 0.350024 0.000000
0.584947 0.516440 0.000000
0.326802 0.302636 0.000000
0.945343 0.420397 0.000000
0.779746 0.749037 0.000000
0.771533 0.774140 0.000000
0.758291 0.749848 0.000000
0.743435 0.765852 0.000000
0.751942 0.297541 0.000000
0.784264 0.292048 0.000000
0.772562 0.330207 0.000000
0.812744 0.305799 0.000000
0.655547 0.494535 0.000000
0.649767 0.472522 0.000000
0.671966 0.480244 0.000000
0.612062 0.502007 0.000000
0.616789 0.515227 0.000000
0.403059 0.898561 0.000000
0.391512 0.946883 0.000000
0.625780 0.504699 0.000000
0.635988 0.491275 0.000000
0.596252 0.650380 0.000000
0.583401 0.655132 0.000000
0.583737 0.644777 0.000000
0.713099 0.416502 0.000000
0.708474 0.388943 0.000000
0.733625 0.389568 0.000000
0.684835 0.406222 0.000000
0.656936 0.416423 0.000000
0.633624 0.425116 0.000000
0.634362 0.400237 0.000000
0.646884 0.740682 0.000000
0.654954 0.726002 0.000000
0.663305 0.741855 0.000000
0.732481 0.441235 0.000000
0.751303 0.460839 0.000000
0.721338 0.462235 0.000000
0.759622 0.437863 0.000000
0.462761 0.363156 0.000000
0.373644 0.622389 0.000000
0.346217 0.613642 0.000000
0.370315 0.594521 0.000000
0.351411 0.640635 0.000000
0.695337 0.690220 0.000000
0.705202 0.700133 0.000000
0.692303 0.700990 0.000000
0.521365 0.516400 0.000000
0.522992 0.510597 0.000000
0.527633 0.513574 0.000000
0.291567 0.329512 0.000000
0.294927 0.318154 0.000000
0.365771 0.366553 0.000000
0.366135 0.358691 0.000000
0.374180 0.368122 0.000000
0.408232 0.327056 0.000000
0.423479 0.328280 0.000000
0.411272 0.339740 0.000000
0.664110 0.670607 0.000000
0.667245 0.662649 0.000000
[...]
POINT_DATA 1818
SCALARS UX float 1
LOOKUP_TABLE default
-0.000000
0.000000
0.030932
-0.072305
-0.040347
0.024557
0.000000
-0.000000
-0.000000
-0.000000
-0.000000
-0.000000
-0.000000
-0.000000
-0.000000
-0.000000
0.000000
0.000000
0.000000
0.000000
0.000000
0.000000
0.019997
0.031530
0.040743
0.049016
0.056550
0.063534
0.069902
0.075020
0.078128
0.078161
0.073490
0.065647
0.055237
0.045279
0.037335
0.032942
0.022573
0.014993
0.008132
0.002087
-0.002788
-0.006760
-0.010680
-0.015011
-0.020061
-0.025758
-0.031878
-0.038324
-0.044952
-0.051661
-0.058342
-0.065380
-0.072889
-0.074432
-0.077124
-0.080599
-0.084727
-0.089107
-0.093275
-0.096385
-0.097150
-0.094523
-0.087652
-0.076467
-0.062769
-0.048772
-0.034974
-0.021442
-0.040010
-0.038672
-0.038405
-0.037012
-0.036041
-0.034695
-0.033263
-0.032423
-0.031316
-0.030329
-0.029732
-0.028895
-0.028157
-0.027667
-0.026502
-0.025774
-0.025397
-0.024510
-0.023737
-0.022664
-0.021853
-0.020880
-0.020020
-0.018920
-0.017960
-0.017211
-0.015988
-0.014900
-0.014183
-0.013094
-0.012399
-0.011546
-0.010316
-0.009460
-0.007770
-0.006631
-0.005547
-0.004062
-0.003103
-0.001429
-0.000412
0.000766
0.001515
0.002390
0.003119
0.003865
0.004549
0.005531
0.006187
0.006961
0.008104
0.008670
0.009338
0.010323
0.011065
0.011967
0.012999
0.013296
0.013847
0.015631
0.017724
0.019036
0.020004
0.020603
0.022196
0.023194
-0.001015
-0.000442
0.000422
-0.019434
-0.022391
-0.027547
0.000417
-0.000617
-0.004491
0.004783
-0.003463
-0.001201
-0.002898
-0.001185
0.023453
0.021350
0.023524
-0.051698
-0.050219
-0.050448
-0.058389
-0.062830
-0.061317
0.041225
0.040423
0.038292
-0.048878
0.002895
0.010590
-0.033256
-0.032839
-0.035734
-0.034547
-0.024129
-0.024235
-0.028427
-0.001205
-0.002748
-0.001614
-0.022660
-0.024760
-0.021306
-0.064968
-0.062756
-0.024576
-0.058697
0.046644
0.044888
0.043621
-0.055770
-0.055699
-0.054771
0.002812
0.001823
0.004831
-0.057102
0.056288
0.061117
0.061252
-0.062404
-0.060644
-0.060125
-0.001900
-0.067055
-0.064366
-0.062059
-0.003039
-0.002328
-0.059536
-0.004216
0.010194
0.004913
0.015960
0.025533
0.023492
0.025789
-0.067936
-0.069700
-0.068244
0.022933
-0.069677
-0.006418
-0.009264
-0.008837
-0.007263
0.029923
0.030149
0.033564
0.032390
0.060936
0.062779
0.062795
0.022710
-0.085807
-0.087309
-0.083581
-0.089460
-0.005261
-0.004140
-0.003758
0.012646
0.011003
0.013449
0.018021
-0.010997
-0.011929
-0.013764
-0.084884
-0.081357
-0.083752
-0.014713
-0.033642
-0.031746
-0.034727
-0.054580
-0.056648
-0.055648
0.008250
0.010199
0.005043
-0.055973
-0.071029
-0.069388
-0.048984
-0.047421
-0.047480
-0.000180
0.000913
-0.002432
-0.001157
0.013504
0.033321
0.040128
0.035399
-0.078047
-0.080668
-0.080529
0.013450
0.015387
0.017565
0.014129
0.014183
0.015192
0.018350
-0.063277
-0.064525
0.030994
0.029727
0.030130
0.028719
-0.064497
0.058061
0.060914
0.060592
-0.056920
-0.055659
0.034252
-0.015980
-0.018774
-0.019076
0.038486
0.037801
0.039094
-0.060538
-0.060317
-0.058577
-0.061706
-0.014442
-0.018360
-0.014838
0.009773
0.012836
0.010669
0.037020
-0.018294
0.065561
0.026449
0.018603
0.020816
0.013779
0.030676
0.033280
0.036738
0.037984
0.042791
0.040493
0.043092
0.039430
0.040558
-0.027985
-0.028170
0.040856
0.040835
-0.022742
-0.024766
-0.025590
0.040749
0.037281
0.039846
0.036934
0.035520
0.034445
0.031779
-0.004000
-0.002651
-0.000715
0.045237
0.049077
0.046132
0.047740
0.012461
-0.051943
-0.055363
-0.054906
-0.052323
0.015343
0.017642
0.010937
0.006672
0.014496
0.016340
-0.046096
-0.036304
-0.009158
-0.006032
-0.004182
0.001677
0.003983
0.003429
0.002021
0.008311
0.008975
-0.061737
-0.062227
-0.063459
-0.063558
-0.002987
-0.007028
-0.012026
0.009948
0.009995
0.012013
0.012978
-0.019466
-0.022503
-0.016624
-0.001406
-0.008862
-0.010141
-0.043158
-0.043920
-0.045394
-0.009204
-0.016971
-0.016404
0.002750
0.007357
0.010580
0.004785
0.007343
-0.011386
-0.002837
-0.041966
-0.035896
-0.034170
-0.041744
-0.072950
-0.070150
-0.071892
-0.062564
-0.064646
-0.061809
-0.010109
-0.009777
-0.032309
0.036589
0.036894
-0.064894
-0.064960
-0.063365
-0.032143
-0.058725
-0.055486
-0.052447
-0.050941
-0.058844
-0.042964
-0.044391
-0.044268
-0.042426
-0.040355
-0.038186
0.044565
0.044826
0.040384
0.048225
-0.068110
-0.067062
-0.066214
-0.038204
-0.044542
-0.035561
-0.026068
-0.022433
-0.018518
-0.011532
-0.031018
-0.035542
-0.041825
0.043678
0.036801
-0.048708
-0.046398
-0.044965
-0.009741
-0.018762
-0.018148
-0.045410
-0.044751
-0.044450
-0.023953
-0.021744
-0.021371
-0.040500
-0.043955
-0.003843
-0.005258
-0.012218
-0.012403
-0.009152
-0.015457
0.029247
0.029193
0.026678
-0.087253
-0.091248
-0.086737
-0.071029
-0.066413
-0.067755
-0.069170
-0.002237
-0.008628
-0.012417
-0.013365
-0.037834
-0.040987
-0.037635
-0.041448
-0.034258
-0.037088
-0.033919
-0.055969
-0.057932
-0.055035
-0.056120
-0.055943
-0.057559
-0.056887
-0.050145
0.001576
-0.006042
-0.006283
0.018541
0.015574
0.016003
0.018075
0.046915
0.042355
0.043207
0.049146
0.052099
-0.046997
-0.050561
-0.053399
0.028576
0.029420
0.018686
-0.051081
-0.049464
-0.052347
-0.015242
-0.007758
-0.045780
-0.010303
-0.016173
-0.019804
0.017097
0.018876
0.017050
0.032930
0.034138
0.034187
-0.011594
-0.012527
-0.019000
0.035590
-0.057852
-0.053216
-0.062825
-0.059176
-0.064506
0.012859
0.015633
0.029012
0.030337
0.028683
0.030797
0.028148
-0.090624
-0.008511
-0.005957
-0.008478
-0.006061
-0.061762
-0.065767
-0.056980
0.031122
0.034460
0.038535
-0.009739
0.025843
0.014132
0.031259
0.031846
-0.003121
0.001044
-0.000200
-0.064941
-0.063156
-0.063045
-0.022414
-0.025194
-0.082167
0.032443
0.034089
0.033314
0.011199
0.011123
-0.025518
-0.025582
-0.022012
0.012336
0.035167
-0.067576
-0.068526
-0.069302
-0.054609
-0.049597
-0.050129
0.012843
0.023789
0.016482
0.022101
0.005970
0.031629
0.032881
-0.040227
-0.030124
-0.032563
0.000065
0.002508
-0.067528
-0.066542
-0.064783
0.000945
0.001439
0.001297
-0.000328
-0.066796
-0.068650
-0.068873
-0.033246
-0.040203
-0.028706
-0.017365
-0.018425
-0.022407
-0.047742
-0.040829
0.028832
-0.063426
-0.068847
0.025439
0.032350
0.034225
-0.045163
0.031346
0.028128
-0.041991
-0.041012
0.048977
0.051354
0.051187
-0.044044
0.027143
0.027487
0.041102
-0.052945
-0.052876
-0.051731
-0.033804
-0.030925
-0.017661
-0.054509
0.015302
0.017147
-0.053894
-0.027786
-0.030492
-0.027391
-0.030241
0.060026
0.056400
0.055606
0.030342
0.023948
0.020868
-0.027186
-0.026437
-0.023252
-0.007977
-0.005206
0.017997
0.005733
0.007851
0.013728
0.000164
-0.065218
-0.064343
-0.003131
-0.002773
-0.055733
0.039363
0.044833
0.036741
0.069785
0.044421
0.011737
0.012833
0.014742
-0.064560
0.014246
0.005634
0.006376
0.007831
-0.026750
-0.037577
-0.029551
-0.026971
0.033161
-0.053600
-0.047832
-0.065249
-0.066490
-0.065772
-0.050351
-0.048695
-0.049213
-0.051440
0.050008
0.047910
0.050904
-0.047481
-0.002078
0.054319
0.042612
0.042188
0.017005
0.026228
0.016277
0.028130
0.022527
0.031093
0.000070
-0.046330
-0.007574
-0.051948
-0.057350
-0.057501
-0.061563
0.006924
0.008713
-0.025423
-0.031430
0.026765
-0.002359
-0.081877
-0.005591
-0.055859
-0.053260
-0.050679
-0.007016
0.051500
0.050106
0.049094
0.048483
0.008223
0.005141
-0.020536
-0.019875
-0.017189
0.047043
0.047511
0.046068
0.045953
0.036995
0.040184
-0.047535
-0.049183
0.049134
-0.070669
-0.062881
-0.065343
0.053451
0.051380
0.049729
-0.016097
-0.019139
-0.015135
0.054047
0.058066
0.031616
0.023594
0.026977
0.018327
-0.020321
0.022327
0.021766
0.019376
0.047374
0.053022
0.050219
-0.050571
-0.053904
-0.057264
0.056117
-0.038476
-0.035215
-0.045320
-0.043075
-0.046273
-0.055928
0.007567
0.005134
0.013229
0.064123
0.068414
0.070437
0.061389
0.049149
0.061012
0.055899
-0.012146
-0.011455
-0.078316
-0.068048
-0.071272
-0.013289
0.018468
0.003761
-0.078744
-0.080600
-0.084817
-0.071318
-0.071491
-0.089522
0.015382
0.005531
-0.034783
-0.003610
-0.037519
-0.033886
-0.032531
0.072145
0.075477
-0.002718
-0.002627
0.001235
0.014173
0.009780
0.017480
0.006477
0.000523
0.012136
-0.001525
-0.003950
-0.044203
-0.053161
-0.053899
-0.047890
-0.068278
-0.069768
-0.070308
-0.093570
-0.093040
-0.003993
-0.006238
-0.003089
-0.006246
-0.007011
-0.007797
-0.004417
-0.006226
-0.088629
-0.001697
-0.002657
-0.018038
-0.023938
-0.022956
0.072827
0.069103
-0.072420
0.057768
0.055960
0.055812
0.057900
-0.082761
-0.082830
-0.079933
0.060189
-0.001634
0.065182
0.005210
-0.000174
-0.001156
-0.003396
-0.024359
0.001553
-0.001908
-0.011342
-0.008934
-0.008075
0.033244
0.028645
-0.010294
-0.029213
-0.028167
-0.004269
-0.027896
0.021993
0.026455
0.022504
0.027647
-0.066763
-0.066687
-0.031969
-0.018397
-0.003339
-0.006658
0.009401
0.008318
0.005361
-0.005693
-0.012818
-0.073590
-0.069053
-0.070048
-0.071825
-0.028824
-0.079007
-0.076181
-0.081217
-0.075452
-0.077146
-0.037796
-0.035223
-0.035648
-0.031709
-0.036880
-0.020705
-0.016503
-0.015086
-0.011374
-0.076551
-0.083161
-0.076494
0.022572
0.020951
0.021888
-0.041535
-0.043565
0.006795
0.004818
-0.074726
-0.077637
-0.075145
-0.061786
-0.061069
-0.059678
-0.032052
-0.036807
-0.068460
0.023883
0.010635
0.007347
-0.059879
-0.052579
-0.048525
-0.053161
-0.061698
-0.081601
0.032596
0.027579
-0.060169
-0.059269
-0.062322
-0.061156
0.008856
0.006873
-0.061000
0.044999
-0.007899
0.000413
0.006424
0.009293
0.005437
-0.023935
0.006930
-0.048943
-0.042229
-0.039429
-0.042428
-0.041690
-0.062119
-0.062401
-0.065024
0.010341
0.009003
-0.065499
0.022590
0.044523
0.044255
-0.090413
-0.086274
-0.085796
-0.023555
-0.025960
-0.027013
-0.065050
0.067290
0.070759
0.066968
0.063937
0.064061
-0.074187
-0.070901
-0.056274
-0.059158
-0.056344
0.004347
0.029577
0.022864
0.040558
-0.065290
-0.065250
-0.041099
-0.043326
-0.039265
-0.063586
-0.073415
-0.043217
0.019186
0.019804
0.019786
-0.047335
-0.043504
-0.050695
0.050235
0.051943
0.053080
-0.049689
0.063099
0.061598
-0.080696
-0.025335
0.010715
-0.070313
-0.075521
-0.015199
-0.017230
0.041403
0.040350
0.039923
-0.007931
-0.006304
0.042862
-0.006685
0.044055
-0.071493
-0.075986
0.050565
0.052694
0.045580
0.014417
-0.004426
0.056900
0.049250
0.064065
0.046585
-0.010647
-0.012518
-0.009108
-0.010605
0.024110
-0.010900
-0.012916
0.025494
-0.047695
-0.040327
-0.045986
-0.040151
-0.039006
0.017005
0.020204
-0.036444
-0.037603
-0.038924
0.023822
0.022585
0.024250
-0.047437
-0.046454
-0.045270
-0.062961
0.054604
0.056314
0.056595
-0.069992
-0.072277
-0.074393
-0.005409
-0.007297
-0.007318
-0.074549
-0.024603
-0.009298
-0.021665
-0.010613
-0.079187
-0.078365
0.065867
0.021597
0.042463
0.038892
-0.044051
-0.045914
-0.000799
-0.003128
-0.005735
-0.077731
-0.001025
-0.059844
-0.076496
-0.073774
-0.058529
-0.058743
-0.059696
0.047383
0.046612
0.047024
0.049031
0.011035
0.014134
0.011126
0.016716
-0.068107
-0.037568
-0.039687
-0.070121
-0.032258
0.015379
0.014411
0.008228
0.041129
0.032789
0.028314
0.010415
0.007303
-0.009158
-0.069513
-0.068288
-0.067279
-0.076455
-0.020054
-0.008625
-0.021699
-0.008143
-0.022885
0.017518
0.015022
-0.002726
-0.002319
-0.001262
0.000817
0.046376
0.010917
0.007969
0.006071
0.004884
0.014291
-0.012974
-0.009849
0.060754
-0.043481
-0.045027
-0.045800
-0.041754
-0.048052
0.057892
0.051230
0.053154
0.048745
0.046997
0.045189
-0.073219
0.007641
0.002072
0.004681
0.004277
0.014123
0.015023
0.015794
0.068626
0.071596
0.053925
-0.057665
-0.058346
-0.013532
-0.016181
0.042197
0.047516
0.043983
0.043066
-0.058786
-0.057707
-0.026727
-0.028332
-0.013315
-0.066049
-0.064904
0.001393
-0.066533
0.031055
0.031767
0.031213
0.001372
0.003766
0.047382
0.043405
-0.042056
-0.045063
-0.041473
-0.044482
-0.039720
-0.039741
0.021675
0.021584
-0.077565
0.018564
0.028949
0.031910
0.059816
0.056049
0.025627
0.002472
0.001968
-0.001093
-0.010110
-0.022325
-0.020416
-0.024105
-0.025861
-0.057545
-0.058438
0.053983
0.023624
0.018328
0.021399
0.013280
-0.013975
-0.017817
-0.018623
0.040098
0.034438
0.031418
-0.058888
-0.059093
-0.052618
-0.006337
-0.015485
-0.012636
-0.011373
0.001943
-0.018101
-0.016085
-0.012219
-0.022904
0.004070
-0.007898
0.053412
0.055373
0.055948
0.046745
0.053899
0.053353
-0.061436
-0.012257
-0.029843
-0.033284
-0.033136
-0.028462
-0.031757
-0.036145
0.007421
0.039746
0.006756
-0.005739
-0.005069
0.048853
0.048528
0.033385
0.037391
0.036137
-0.049533
-0.056120
0.004429
0.007673
-0.064180
0.050258
0.050261
0.044953
0.042880
-0.063409
-0.063870
-0.067146
0.045323
0.045276
0.027807
0.025120
0.024954
0.024757
0.043744
0.047919
0.002690
0.037847
0.027052
0.030016
-0.004723
-0.030277
-0.024436
0.054736
0.013214
-0.027711
0.040046
0.044973
-0.014755
-0.018365
-0.027551
-0.031107
-0.028823
-0.035403
0.039147
0.037387
-0.015465
-0.023524
-0.021742
-0.037868
-0.038213
-0.084093
0.039221
0.038810
0.038107
0.038033
0.038230
-0.057354
0.034025
-0.055159
-0.004792
-0.045914
-0.062166
-0.026245
-0.018407
-0.018215
-0.049463
0.004804
-0.059262
-0.077917
-0.002407
0.001694
-0.003538
-0.058150
-0.052349
-0.042685
0.039613
0.011586
0.010167
-0.039901
-0.016373
0.032037
0.038821
-0.048130
-0.048729
-0.051230
0.023023
-0.041553
0.048003
0.045698
0.007485
-0.029445
-0.032218
-0.033989
-0.042014
-0.040203
-0.013095
0.002316
0.059458
0.063268
0.021905
-0.016821
0.025006
-0.008984
-0.010906
0.030198
-0.005975
-0.022193
0.058947
-0.005123
-0.057107
-0.057178
0.043296
0.017924
0.020951
0.065718
0.022712
0.007565
-0.000775
-0.072243
-0.070055
-0.008332
-0.011763
-0.055303
-0.058519
-0.055900
0.064950
-0.058875
-0.026210
-0.038649
0.047179
-0.021891
-0.021098
-0.019621
-0.043104
0.003291
-0.000818
0.022279
-0.028775
-0.035366
0.033649
0.035693
0.038568
0.038806
0.036905
0.016200
-0.072950
-0.029953
-0.036841
-0.036309
-0.016883
-0.008203
-0.008618
0.025481
0.027266
-0.013344
-0.022441
0.011633
0.020623
0.029601
0.003940
0.006297
0.006512
0.008720
-0.036930
-0.048037
-0.041829
0.041160
0.040526
0.042849
-0.038200
-0.038924
0.005193
-0.053090
-0.053551
0.004403
0.005456
0.045595
0.003851
-0.060924
-0.066252
-0.060461
-0.045110
0.009615
-0.040379
0.000207
-0.001824
-0.073406
-0.075302
0.012457
-0.004354
0.007706
-0.040110
0.018708
-0.000991
0.017374
-0.058558
-0.057883
0.022813
-0.045869
-0.062464
-0.060364
-0.065819
-0.053784
-0.040490
-0.032660
-0.029971
0.032506
0.034628
0.035288
-0.048263
-0.044858
-0.000711
-0.001162
-0.052018
-0.050663
-0.053304
-0.014291
-0.012169
-0.038554
-0.049928
0.044398
0.043254
0.002420
-0.055837
-0.055952
-0.060775
-0.057518
-0.057076
0.002810
0.004742
0.029881
0.018772
-0.033355
-0.030487
-0.041990
0.005357
0.009103
0.014661
0.014433
-0.054512
0.003026
0.003124
-0.018727
-0.029550
0.010416
0.007785
-0.039822
-0.034098
-0.004114
0.025583
0.024881
0.037662
-0.057948
0.037663
-0.005429
0.051502
0.052462
-0.060358
-0.059994
-0.006737
-0.005875
-0.015697
-0.017670
0.028143
0.043280
0.017318
-0.027350
0.040000
-0.064827
0.031036
0.024554
0.024546
-0.065645
0.043642
0.018244
0.011178
0.031844
0.030092
0.008879
0.018905
-0.063914
-0.061572
-0.056701
-0.070692
0.051056
0.033318
0.035792
0.033891
0.002418
-0.073886
0.053981
-0.062940
-0.055209
-0.052355
0.001388
0.010075
0.004457
0.035483
0.021757
-0.033113
-0.031227
-0.060630
-0.007367
0.022743
0.027375
-0.067590
-0.065920
-0.031366
0.008054
0.018945
0.008758
0.019364
0.027323
0.025758
0.015937
-0.054434
0.023902
-0.060324
-0.018623
0.030857
0.036851
0.032076
0.029314
0.052392
0.037322
-0.055055
-0.049320
-0.047701
0.048378
0.049329
0.002012
0.042137
-0.036391
-0.038596
-0.037807
0.018485
0.020475
0.019684
0.020969
-0.033316
-0.005072
0.049663
0.021559
-0.048123
-0.029282
-0.073543
-0.027089
0.029080
0.038009
0.038808
-0.035351
-0.037025
-0.071592
0.049151
0.046902
-0.035689
-0.016470
0.003469
0.000910
-0.058771
0.002728
-0.003769
-0.030468
0.051092
0.058723
0.018359
0.012579
0.010298
-0.054814
-0.019341
0.000864
0.003506
-0.058309
0.056992
-0.052711
0.019083
0.018355
-0.072577
0.031552
0.035475
0.029119
-0.021655
0.030511
0.019333
-0.036161
0.042806
-0.034457
0.006904
0.002721
0.003565
-0.044350
0.012787
-0.031828
0.004526
-0.009264
-0.008601
-0.035215
0.059632
0.035401
-0.049361
-0.050137
-0.016998
0.020600
-0.073599
-0.077349
-0.079098
-0.039966
-0.056689
0.033658
-0.037651
0.022947
0.040141
0.040725
-0.001894
-0.031425
-0.034987
-0.048961
0.047627
0.046167
0.024681
0.023004
-0.019086
-0.028757
-0.060776
-0.060988
0.027942
-0.056086
-0.026321
-0.027883
-0.053629
-0.054092
0.028171
0.017723
0.036614
0.030050
-0.032558
0.039587
0.032672
-0.022205
-0.044528
-0.048393
0.033062
0.028944
-0.045701
0.032641
0.018037
-0.059398
0.042877
-0.023093
-0.067183
0.040431
0.038253
-0.020378
-0.019459
-0.048510
-0.057771
0.039516
0.040545
0.041431
-0.006513
0.027275
0.001287
-0.048738
-0.067911
0.025645
0.026061
-0.049632
-0.052552
0.032332
0.041024
0.005132
0.013750
0.009036
0.037283
0.055226
-0.009495
-0.008370
-0.023793
-0.060105
0.027224
-0.047446
-0.009730
-0.009648
0.006797
0.017547
-0.051369
0.036097
-0.049064
-0.030758
0.041272
-0.044242
-0.033173
-0.039672
-0.052625
-0.012660
-0.006535
-0.050751
0.038477
-0.052513
-0.000126
-0.005166
-0.017672
0.000346
-0.013239
-0.011641
0.027221
-0.046754
-0.049017
-0.013595
0.000599
-0.004889
-0.030664
-0.031661
-0.020586
-0.035001
-0.024483
-0.010674
-0.031576
-0.018824
-0.019246
0.007730
-0.043427
0.042742
0.034482
-0.006334
-0.056223
-0.054800
-0.014711
0.015470
0.020113
-0.024458
0.001333
-0.046344
-0.053096
-0.000066
0.027430
0.033135
0.034857
0.044191
-0.052285
0.020680
-0.047110
-0.040127
-0.048764
0.030460
-0.027746
0.027404
-0.054129
0.019685
0.017604
0.015753
-0.063335
0.004372
-0.024342
-0.031609
0.003129
-0.025947
-0.053493
0.008940
0.034696
-0.021405
-0.037481
-0.000736
SCALARS UY float 1
LOOKUP_TABLE default
-0.000000
-0.000000
-0.260000
-0.260000
-0.067522
-0.186594
-0.000000
-0.000000
-0.000000
-0.000000
-0.000000
-0.000000
-0.000000
-0.000000
-0.000000
-0.000000
-0.000000
-0.000000
-0.000000
-0.000000
-0.000000
-0.000000
-0.022874
-0.040028
-0.055729
-0.070494
-0.084733
-0.098348
-0.111161
-0.122794
-0.133716
-0.143509
-0.154007
-0.165972
-0.180687
-0.198338
-0.217930
-0.238716
-0.260000
-0.260000
-0.260000
-0.260000
-0.260000
-0.260000
-0.260000
-0.260000
-0.260000
-0.260000
-0.260000
-0.260000
-0.260000
-0.260000
-0.260000
-0.260000
-0.243177
-0.226467
-0.210104
-0.194046
-0.178821
-0.164506
-0.151364
-0.139678
-0.128975
-0.119358
-0.109377
-0.097642
-0.083596
-0.066279
-0.047355
-0.026433
-0.068496
-0.071220
-0.074157
-0.075799
-0.077817
-0.081265
-0.083503
-0.085090
-0.086707
-0.088299
-0.089633
-0.091763
-0.093842
-0.095229
-0.097341
-0.098870
-0.100095
-0.101825
-0.103361
-0.105070
-0.106472
-0.107900
-0.109147
-0.110884
-0.112458
-0.113067
-0.115065
-0.116886
-0.118066
-0.119852
-0.121309
-0.122881
-0.124743
-0.125330
-0.126990
-0.128000
-0.129056
-0.130772
-0.131520
-0.133370
-0.134560
-0.136199
-0.137350
-0.139419
-0.141174
-0.142860
-0.144549
-0.146568
-0.148259
-0.150071
-0.152429
-0.153981
-0.155322
-0.157619
-0.159612
-0.161775
-0.164148
-0.166167
-0.167949
-0.171068
-0.174544
-0.177106
-0.178793
-0.180276
-0.182252
-0.184484
-0.010828
-0.005860
-0.013087
-0.158457
-0.164091
-0.167177
-0.007099
-0.093495
-0.094112
-0.086328
-0.024281
-0.027377
-0.028138
-0.031290
-0.071085
-0.067050
-0.069667
-0.160991
-0.160469
-0.163163
-0.104364
-0.110244
-0.106287
-0.144903
-0.146248
-0.154439
-0.161752
-0.085798
-0.078725
-0.190529
-0.193357
-0.189757
-0.192959
-0.182349
-0.187056
-0.187526
-0.004064
-0.009768
-0.004900
-0.251424
-0.243947
-0.243894
-0.115017
-0.114252
-0.237221
-0.107650
-0.135214
-0.139370
-0.137604
-0.160697
-0.158925
-0.161174
-0.062174
-0.058518
-0.058387
-0.157359
-0.095436
-0.098970
-0.103990
-0.129982
-0.126418
-0.128966
-0.009141
-0.095380
-0.088208
-0.091011
-0.009292
-0.006841
-0.084981
-0.011769
-0.108527
-0.111159
-0.100813
-0.087673
-0.087871
-0.083948
-0.128516
-0.124737
-0.123268
-0.084476
-0.129769
-0.029938
-0.031036
-0.028166
-0.033991
-0.103732
-0.100616
-0.099451
-0.096612
-0.151654
-0.147091
-0.153214
-0.092268
-0.128277
-0.119526
-0.120606
-0.130006
-0.017867
-0.013084
-0.014852
-0.070802
-0.068356
-0.066546
-0.094427
-0.029067
-0.032099
-0.030782
-0.110296
-0.105744
-0.113443
-0.034301
-0.179612
-0.181766
-0.183239