# vtk DataFile Version 2.0
Test
ASCII
DATASET POLYDATA
POINTS 1818 float
0.000000 0.000000 0.000000
1.000000 0.000000 0.000000
1.000000 1.000000 0.000000
0.000000 1.000000 0.000000
0.300000 0.330000 0.000000
0.700000 0.680000 0.000000
0.058824 0.000000 0.000000
0.117647 0.000000 0.000000
0.176471 0.000000 0.000000
0.235294 0.000000 0.000000
0.294118 0.000000 0.000000
0.352941 0.000000 0.000000
0.411765 0.000000 0.000000
0.470588 0.000000 0.000000
0.529412 0.000000 0.000000
0.588235 0.000000 0.000000
0.647059 0.000000 0.000000
0.705882 0.000000 0.000000
0.764706 0.000000 0.000000
0.823529 0.000000 0.000000
0.882353 0.000000 0.000000
0.941176 0.000000 0.000000
1.000000 0.058824 0.000000
1.000000 0.117647 0.000000
1.000000 0.176471 0.000000
1.000000 0.235294 0.000000
1.000000 0.294118 0.000000
1.000000 0.352941 0.000000
1.000000 0.411765 0.000000
1.000000 0.470588 0.000000
1.000000 0.529412 0.000000
1.000000 0.588235 0.000000
1.000000 0.647059 0.000000
1.000000 0.705882 0.000000
1.000000 0.764706 0.000000
1.000000 0.823529 0.000000
1.000000 0.882353 0.000000
1.000000 0.941176 0.000000
0.941176 1.000000 0.000000
0.882353 1.000000 0.000000
0.823529 1.000000 0.000000
0.764706 1.000000 0.000000
0.705882 1.000000 0.000000
0.647059 1.000000 0.000000
0.588235 1.000000 0.000000
0.529412 1.000000 0.000000
0.470588 1.000000 0.000000
0.411765 1.000000 0.000000
0.352941 1.000000 0.000000
0.294118 1.000000 0.000000
0.235294 1.000000 0.000000
0.176471 1.000000 0.000000
0.117647 1.000000 0.000000
0.058824 1.000000 0.000000
0.000000 0.941176 0.000000
0.000000 0.882353 0.000000
0.000000 0.823529 0.000000
0.000000 0.764706 0.000000
0.000000 0.705882 0.000000
0.000000 0.647059 0.000000
0.000000 0.588235 0.000000
0.000000 0.529412 0.000000
0.000000 0.470588 0.000000
0.000000 0.411765 0.000000
0.000000 0.352941 0.000000
0.000000 0.294118 0.000000
0.000000 0.235294 0.000000
0.000000 0.176471 0.000000
0.000000 0.117647 0.000000
0.000000 0.058824 0.000000
0.305970 0.335224 0.000000
0.311940 0.340448 0.000000
0.317910 0.345672 0.000000
0.323881 0.350896 0.000000
0.329851 0.356119 0.000000
0.335821 0.361343 0.000000
0.341791 0.366567 0.000000
0.347761 0.371791 0.000000
0.353731 0.377015 0.000000
0.359701 0.382239 0.000000
0.365672 0.387463 0.000000
0.371642 0.392687 0.000000
0.377612 0.397910 0.000000
0.383582 0.403134 0.000000
0.389552 0.408358 0.000000
0.395522 0.413582 0.000000
0.401493 0.418806 0.000000
0.407463 0.424030 0.000000
0.413433 0.429254 0.000000
0.419403 0.434478 0.000000
0.425373 0.439701 0.000000
0.431343 0.444925 0.000000
0.437313 0.450149 0.000000
0.443284 0.455373 0.000000
0.449254 0.460597 0.000000
0.455224 0.465821 0.000000
0.461194 0.471045 0.000000
0.467164 0.476269 0.000000
0.473134 0.481493 0.000000
0.479104 0.486716 0.000000
0.485075 0.491940 0.000000
0.491045 0.497164 0.000000
0.497015 0.502388 0.000000
0.502985 0.507612 0.000000
0.508955 0.512836 0.000000
0.514925 0.518060 0.000000
0.520896 0.523284 0.000000
0.526866 0.528507 0.000000
0.532836 0.533731 0.000000
0.538806 0.538955 0.000000
0.544776 0.544179 0.000000
0.550746 0.549403 0.000000
0.556716 0.554627 0.000000
0.562687 0.559851 0.000000
0.568657 0.565075 0.000000
0.574627 0.570299 0.000000
0.580597 0.575522 0.000000
0.586567 0.580746 0.000000
0.592537 0.585970 0.000000
0.598507 0.591194 0.000000
0.604478 0.596418 0.000000
0.610448 0.601642 0.000000
0.616418 0.606866 0.000000
0.622388 0.612090 0.000000
0.628358 0.617313 0.000000
0.634328 0.622537 0.000000
0.640299 0.627761 0.000000
0.646269 0.632985 0.000000
0.652239 0.638209 0.000000
0.658209 0.643433 0.000000
0.664179 0.648657 0.000000
0.670149 0.653881 0.000000
0.676119 0.659104 0.000000
0.682090 0.664328 0.000000
0.688060 0.669552 0.000000
0.694030 0.674776 0.000000
0.516135 0.080917 0.000000
0.549338 0.042552 0.000000
0.567302 0.088709 0.000000
0.555658 0.563778 0.000000
0.559301 0.571359 0.000000
0.552318 0.570919 0.000000
0.603235 0.047100 0.000000
0.446553 0.448087 0.000000
0.438652 0.443189 0.000000
0.445116 0.440368 0.000000
0.437254 0.190586 0.000000
0.465954 0.201747 0.000000
0.439184 0.213838 0.000000
0.453137 0.228102 0.000000
0.522423 0.410182 0.000000
0.522098 0.390982 0.000000
0.537289 0.398500 0.000000
0.453388 0.527105 0.000000
0.462022 0.524948 0.000000
0.461218 0.533993 0.000000
0.324300 0.374550 0.000000
0.319287 0.386214 0.000000
0.314834 0.375138 0.000000
0.668809 0.628853 0.000000
0.677366 0.632907 0.000000
0.668274 0.639611 0.000000
0.469934 0.529282 0.000000
0.439703 0.436699 0.000000
0.446608 0.432083 0.000000
0.542854 0.633425 0.000000
0.535117 0.647070 0.000000
0.524302 0.633157 0.000000
0.519372 0.648877 0.000000
0.586338 0.611293 0.000000
0.591638 0.624149 0.000000
0.575478 0.621479 0.000000
0.437962 0.035513 0.000000
0.421505 0.085456 0.000000
0.394924 0.044162 0.000000
0.445207 0.955749 0.000000
0.429168 0.919510 0.000000
0.464409 0.914226 0.000000
0.317150 0.400904 0.000000
0.328626 0.395860 0.000000
0.439616 0.884412 0.000000
0.330406 0.381773 0.000000
0.676842 0.602700 0.000000
0.674982 0.614185 0.000000
0.665930 0.611798 0.000000
0.414707 0.535036 0.000000
0.420123 0.526072 0.000000
0.425338 0.533771 0.000000
0.398407 0.375558 0.000000
0.393804 0.363255 0.000000
0.407284 0.365452 0.000000
0.407758 0.523337 0.000000
0.899969 0.377867 0.000000
0.945915 0.378245 0.000000
0.914158 0.409130 0.000000
0.358219 0.436142 0.000000
0.361390 0.425428 0.000000
0.369309 0.432300 0.000000
0.465999 0.075074 0.000000
0.269944 0.367761 0.000000
0.266521 0.352125 0.000000
0.283474 0.357667 0.000000
0.385889 0.083020 0.000000
0.359482 0.060981 0.000000
0.279658 0.346766 0.000000
0.363604 0.104040 0.000000
0.511115 0.503731 0.000000
0.503243 0.499914 0.000000
0.509146 0.494910 0.000000
0.513188 0.475753 0.000000
0.504957 0.474656 0.000000
0.511959 0.464784 0.000000
0.311863 0.447505 0.000000
0.293019 0.442078 0.000000
0.305555 0.431691 0.000000
0.499204 0.464990 0.000000
0.293855 0.459576 0.000000
0.396676 0.236328 0.000000
0.371014 0.247362 0.000000
0.373003 0.229199 0.000000
0.384478 0.261522 0.000000
0.555704 0.523331 0.000000
0.551313 0.515879 0.000000
0.562752 0.515269 0.000000
0.554954 0.506854 0.000000
0.804236 0.611103 0.000000
0.819351 0.593503 0.000000
0.832061 0.615776 0.000000
0.509908 0.485173 0.000000
0.129738 0.481190 0.000000
0.110722 0.443736 0.000000
0.154857 0.452634 0.000000
0.089738 0.485299 0.000000
0.396427 0.153886 0.000000
0.393058 0.115469 0.000000
0.420333 0.126587 0.000000
0.442628 0.413512 0.000000
0.434815 0.404283 0.000000
0.446816 0.400259 0.000000
0.499770 0.482873 0.000000
0.353883 0.235057 0.000000
0.351360 0.254011 0.000000
0.332147 0.240870 0.000000
0.112307 0.405527 0.000000
0.140355 0.392788 0.000000
0.142004 0.423465 0.000000
0.334868 0.263052 0.000000
0.551239 0.594093 0.000000
0.560217 0.601969 0.000000
0.546711 0.604614 0.000000
0.398510 0.570197 0.000000
0.387124 0.557316 0.000000
0.399978 0.555748 0.000000
0.705281 0.743146 0.000000
0.722930 0.758853 0.000000
0.697202 0.758074 0.000000
0.380190 0.572638 0.000000
0.278345 0.431947 0.000000
0.292575 0.428097 0.000000
0.470820 0.540616 0.000000
0.478213 0.533042 0.000000
0.480161 0.543190 0.000000
0.415268 0.299334 0.000000
0.412465 0.313515 0.000000
0.400419 0.297680 0.000000
0.396495 0.317117 0.000000
0.718655 0.732879 0.000000
0.709319 0.677587 0.000000
0.715709 0.670111 0.000000
0.719283 0.682820 0.000000
0.212992 0.453899 0.000000
0.184619 0.470046 0.000000
0.186665 0.440862 0.000000
0.452307 0.386568 0.000000
0.460371 0.397715 0.000000
0.478664 0.456068 0.000000
0.476179 0.462123 0.000000
0.471250 0.456445 0.000000
0.464654 0.388544 0.000000
0.483415 0.461045 0.000000
0.357146 0.449596 0.000000
0.344653 0.443966 0.000000
0.554562 0.459423 0.000000
0.543333 0.457517 0.000000
0.553850 0.449505 0.000000
0.543131 0.445036 0.000000
0.347312 0.459318 0.000000
0.781088 0.538918 0.000000
0.810909 0.534152 0.000000
0.799399 0.553968 0.000000
0.402869 0.534333 0.000000
0.408011 0.546121 0.000000
0.703844 0.670118 0.000000
0.552234 0.794299 0.000000
0.528593 0.795589 0.000000
0.539188 0.770312 0.000000
0.596088 0.518714 0.000000
0.593029 0.508081 0.000000
0.604120 0.510731 0.000000
0.384880 0.468703 0.000000
0.382270 0.455963 0.000000
0.394062 0.458803 0.000000
0.374729 0.466839 0.000000
0.340939 0.294790 0.000000
0.324530 0.290188 0.000000
0.338473 0.279923 0.000000
0.465367 0.336545 0.000000
0.477337 0.352846 0.000000
0.459495 0.350024 0.000000
0.584947 0.516440 0.000000
0.326802 0.302636 0.000000
0.945343 0.420397 0.000000
0.779746 0.749037 0.000000
0.771533 0.774140 0.000000
0.758291 0.749848 0.000000
0.743435 0.765852 0.000000
0.751942 0.297541 0.000000
0.784264 0.292048 0.000000
0.772562 0.330207 0.000000
0.812744 0.305799 0.000000
0.655547 0.494535 0.000000
0.649767 0.472522 0.000000
0.671966 0.480244 0.000000
0.612062 0.502007 0.000000
0.616789 0.515227 0.000000
0.403059 0.898561 0.000000
0.391512 0.946883 0.000000
0.625780 0.504699 0.000000
0.635988 0.491275 0.000000
0.596252 0.650380 0.000000
0.583401 0.655132 0.000000
0.583737 0.644777 0.000000
0.713099 0.416502 0.000000
0.708474 0.388943 0.000000
0.733625 0.389568 0.000000
0.684835 0.406222 0.000000
0.656936 0.416423 0.000000
0.633624 0.425116 0.000000
0.634362 0.400237 0.000000
0.646884 0.740682 0.000000
0.654954 0.726002 0.000000
0.663305 0.741855 0.000000
0.732481 0.441235 0.000000
0.751303 0.460839 0.000000
0.721338 0.462235 0.000000
0.759622 0.437863 0.000000
0.462761 0.363156 0.000000
0.373644 0.622389 0.000000
0.346217 0.613642 0.000000
0.370315 0.594521 0.000000
0.351411 0.640635 0.000000
0.695337 0.690220 0.000000
0.705202 0.700133 0.000000
0.692303 0.700990 0.000000
0.521365 0.516400 0.000000
0.522992 0.510597 0.000000
0.527633 0.513574 0.000000
0.291567 0.329512 0.000000
0.294927 0.318154 0.000000
0.365771 0.366553 0.000000
0.366135 0.358691 0.000000
0.374180 0.368122 0.000000
0.408232 0.327056 0.000000
0.423479 0.328280 0.000000
0.411272 0.339740 0.000000
0.664110 0.670607 0.000000
0.667245 0.662649 0.000000
[...]
POINT_DATA 1818
SCALARS UX float 1
LOOKUP_TABLE default
-0.000000
0.000000
0.118502
-0.282405
-0.157015
0.094204
0.000000
-0.000000
-0.000000
-0.000000
-0.000000
-0.000000
-0.000000
-0.000000
-0.000000
-0.000000
0.000000
0.000000
0.000000
0.000000
0.000000
0.000000
0.077547
0.122305
0.158120
0.190318
0.219698
0.246978
0.271887
0.291926
0.304143
0.304407
0.286332
0.255835
0.215038
0.175583
0.143977
0.126498
0.085964
0.056551
0.030010
0.006651
-0.012270
-0.027804
-0.043164
-0.060082
-0.079744
-0.101896
-0.125660
-0.150666
-0.176358
-0.202360
-0.228253
-0.255550
-0.284683
-0.290714
-0.301230
-0.314807
-0.330944
-0.348089
-0.364417
-0.376626
-0.379680
-0.369552
-0.342881
-0.299293
-0.245557
-0.190417
-0.136204
-0.083348
-0.155735
-0.150585
-0.149539
-0.144130
-0.140355
-0.135131
-0.129576
-0.126323
-0.122038
-0.118218
-0.115910
-0.112671
-0.109818
-0.107923
-0.103415
-0.100598
-0.099147
-0.095717
-0.092728
-0.088579
-0.085444
-0.081682
-0.078358
-0.074103
-0.070394
-0.067501
-0.062771
-0.058562
-0.055793
-0.051581
-0.048897
-0.045602
-0.040843
-0.037534
-0.030994
-0.026590
-0.022399
-0.016650
-0.012942
-0.006462
-0.002526
0.002033
0.004927
0.008312
0.011133
0.014016
0.016660
0.020464
0.023000
0.025999
0.030424
0.032615
0.035198
0.039013
0.041886
0.045382
0.049382
0.050530
0.052661
0.059592
0.067719
0.072826
0.076577
0.078878
0.085058
0.088924
-0.003817
-0.001649
0.001779
-0.076387
-0.087905
-0.107944
0.001686
-0.003065
-0.018091
0.017942
-0.013346
-0.004553
-0.011166
-0.004512
0.090677
0.082576
0.091006
-0.201759
-0.195985
-0.196919
-0.227319
-0.244702
-0.238766
0.159123
0.156002
0.147651
-0.190783
0.010619
0.040537
-0.130444
-0.128886
-0.140086
-0.135545
-0.094812
-0.095287
-0.111591
-0.004653
-0.010599
-0.006262
-0.089875
-0.098088
-0.084671
-0.253099
-0.244429
-0.097452
-0.228534
0.180382
0.173485
0.168528
-0.217675
-0.217354
-0.213772
0.010543
0.006755
0.018445
-0.222818
0.218975
0.237695
0.238336
-0.243160
-0.236254
-0.234245
-0.007284
-0.261287
-0.250782
-0.241707
-0.011778
-0.009068
-0.231848
-0.016366
0.038752
0.018261
0.061188
0.098485
0.090545
0.099531
-0.264864
-0.271771
-0.266021
0.088412
-0.271746
-0.024875
-0.035948
-0.034274
-0.028190
0.115388
0.116300
0.129601
0.125064
0.236599
0.243861
0.243966
0.087462
-0.335580
-0.341411
-0.326426
-0.349792
-0.020338
-0.016000
-0.014443
0.048615
0.042269
0.051803
0.069235
-0.042673
-0.046309
-0.053430
-0.331717
-0.317796
-0.327094
-0.057140
-0.131758
-0.124415
-0.136029
-0.213222
-0.221231
-0.217312
0.030605
0.038203
0.018094
-0.218682
-0.276958
-0.270503
-0.191248
-0.185124
-0.185398
-0.000765
0.003432
-0.009507
-0.004622
0.051108
0.128323
0.154887
0.136471
-0.304638
-0.315009
-0.314390
0.051866
0.059349
0.067567
0.054180
0.054412
0.058630
0.070600
-0.246622
-0.251482
0.119818
0.114891
0.116499
0.111022
-0.251431
0.225426
0.236678
0.235329
-0.222163
-0.217301
0.131942
-0.063785
-0.074674
-0.075799
0.148779
0.146153
0.151190
-0.235984
-0.235076
-0.228294
-0.240544
-0.056157
-0.071368
-0.057653
0.037778
0.049621
0.041208
0.143068
-0.071146
0.255078
0.101814
0.071062
0.079720
0.052187
0.119475
0.129518
0.143107
0.147784
0.165724
0.156849
0.166978
0.152539
0.156889
-0.110652
-0.111293
0.158100
0.158088
-0.089612
-0.097512
-0.100664
0.158156
0.144761
0.154830
0.143292
0.137707
0.133459
0.123177
-0.017089
-0.011814
-0.004314
0.175603
0.190527
0.178986
0.185428
0.048120
-0.203242
-0.216553
-0.214642
-0.204853
0.058339
0.067262
0.041147
0.025044
0.055453
0.062608
-0.179387
-0.141260
-0.035963
-0.023772
-0.016626
0.006351
0.015306
0.013107
0.006654
0.031146
0.033701
-0.240732
-0.242738
-0.247486
-0.247968
-0.012713
-0.028458
-0.047883
0.037753
0.038925
0.046805
0.050461
-0.075939
-0.087719
-0.064821
-0.005997
-0.034989
-0.039939
-0.168789
-0.171805
-0.177467
-0.036234
-0.066404
-0.064191
0.010577
0.027102
0.039683
0.017048
0.027017
-0.044175
-0.011318
-0.163867
-0.140231
-0.133537
-0.162964
-0.284483
-0.273446
-0.280298
-0.243657
-0.251824
-0.240715
-0.039776
-0.038507
-0.126907
0.141430
0.142651
-0.253316
-0.253472
-0.247313
-0.125111
-0.229933
-0.217443
-0.205574
-0.199812
-0.229107
-0.167890
-0.173470
-0.172949
-0.165843
-0.157218
-0.148800
0.172211
0.173243
0.155868
0.186561
-0.265630
-0.261489
-0.258103
-0.148702
-0.173488
-0.138415
-0.102138
-0.087604
-0.072472
-0.044983
-0.121013
-0.139284
-0.163212
0.168813
0.142052
-0.189693
-0.181101
-0.175541
-0.038878
-0.073981
-0.071560
-0.177312
-0.174256
-0.173070
-0.094639
-0.086013
-0.084622
-0.157835
-0.171277
-0.015012
-0.020471
-0.047643
-0.048285
-0.035674
-0.060167
0.113239
0.112979
0.103266
-0.340962
-0.356602
-0.339077
-0.277820
-0.259898
-0.265038
-0.270678
-0.009852
-0.034756
-0.049165
-0.052856
-0.147912
-0.160191
-0.147107
-0.161948
-0.133999
-0.145035
-0.132702
-0.218142
-0.225800
-0.214469
-0.218766
-0.218104
-0.224406
-0.221819
-0.195790
0.005529
-0.024089
-0.025011
0.071983
0.060466
0.062188
0.070105
0.182560
0.164888
0.168077
0.191117
0.202756
-0.182927
-0.196773
-0.207902
0.110064
0.113332
0.071600
-0.199227
-0.192949
-0.204203
-0.060367
-0.031245
-0.178564
-0.041119
-0.063938
-0.078139
0.066010
0.072876
0.065777
0.127205
0.131927
0.132074
-0.045057
-0.048654
-0.075086
0.137565
-0.226713
-0.208724
-0.246024
-0.231942
-0.252643
0.049921
0.060637
0.112078
0.117191
0.110750
0.119021
0.108905
-0.354321
-0.034672
-0.024796
-0.034713
-0.025166
-0.240773
-0.256536
-0.222236
0.119864
0.132881
0.148754
-0.037820
0.099989
0.053594
0.120750
0.123070
-0.013529
0.002675
-0.002236
-0.253066
-0.246041
-0.245643
-0.088424
-0.099222
-0.321225
0.125526
0.131898
0.128854
0.043094
0.042862
-0.100865
-0.101028
-0.087230
0.047592
0.136041
-0.263623
-0.267401
-0.270363
-0.212776
-0.193266
-0.195357
0.048984
0.091540
0.063110
0.084991
0.022379
0.121767
0.126625
-0.156928
-0.117654
-0.127145
-0.000033
0.009482
-0.263676
-0.259768
-0.253003
0.003474
0.005903
0.005232
-0.000988
-0.260923
-0.268228
-0.268985
-0.129351
-0.156474
-0.111646
-0.067451
-0.071591
-0.087092
-0.187186
-0.160394
0.111191
-0.247498
-0.268686
0.097945
0.125069
0.132341
-0.177226
0.121230
0.108693
-0.164213
-0.160462
0.190036
0.199338
0.198618
-0.172176
0.104838
0.106119
0.159290
-0.206629
-0.206310
-0.201946
-0.132247
-0.120694
-0.068743
-0.212649
0.058970
0.066100
-0.210206
-0.109290
-0.119747
-0.107693
-0.118846
0.233820
0.219148
0.216664
0.116804
0.091944
0.079986
-0.107839
-0.104502
-0.092421
-0.031008
-0.020228
0.069071
0.021414
0.029760
0.052603
0.000842
-0.254123
-0.250669
-0.012884
-0.011479
-0.216961
0.152276
0.173751
0.142129
0.271559
0.172268
0.045953
0.050150
0.057622
-0.251488
0.054537
0.021660
0.024573
0.030171
-0.104583
-0.146651
-0.116029
-0.105991
0.127768
-0.208640
-0.186142
-0.254424
-0.259307
-0.256426
-0.196642
-0.190217
-0.192269
-0.200347
0.193536
0.185310
0.197058
-0.185548
-0.007911
0.211133
0.164952
0.163238
0.065118
0.100967
0.062275
0.108384
0.086551
0.119896
-0.000219
-0.180479
-0.030445
-0.202301
-0.223268
-0.225546
-0.241297
0.026761
0.033719
-0.098977
-0.122383
0.103255
-0.010732
-0.320219
-0.023304
-0.219265
-0.209110
-0.199163
-0.028813
0.199597
0.194084
0.190178
0.187717
0.031740
0.019829
-0.081258
-0.078627
-0.068253
0.182273
0.184039
0.178436
0.177936
0.143574
0.156040
-0.186653
-0.193132
0.190862
-0.276178
-0.245985
-0.255466
0.207078
0.199014
0.192486
-0.064526
-0.076219
-0.060541
0.209502
0.226019
0.122717
0.091570
0.104665
0.071095
-0.081048
0.086462
0.084238
0.075027
0.183576
0.205614
0.194796
-0.198186
-0.211068
-0.224141
0.217824
-0.150019
-0.137362
-0.176653
-0.168405
-0.181516
-0.219089
0.029377
0.019908
0.051328
0.249876
0.266484
0.274482
0.238771
0.191622
0.237781
0.217852
-0.048866
-0.046162
-0.306542
-0.266518
-0.279073
-0.053513
0.071790
0.014529
-0.308082
-0.314895
-0.331738
-0.278240
-0.278838
-0.350119
0.059851
0.021414
-0.136959
-0.013864
-0.147877
-0.133812
-0.128465
0.280831
0.293879
-0.012007
-0.011832
0.003409
0.053640
0.036729
0.066849
0.023685
0.000626
0.045553
-0.006105
-0.015477
-0.172466
-0.207557
-0.210564
-0.186802
-0.266506
-0.272383
-0.274383
-0.365753
-0.363742
-0.015556
-0.024235
-0.012112
-0.024333
-0.027434
-0.031765
-0.018633
-0.025706
-0.346590
-0.006647
-0.010433
-0.071066
-0.094029
-0.090173
0.283638
0.269103
-0.282703
0.224105
0.216961
0.216438
0.224600
-0.323661
-0.323597
-0.312214
0.233638
-0.006167
0.253424
0.018736
-0.000416
-0.004432
-0.013127
-0.095575
0.006089
-0.007176
-0.045673
-0.036291
-0.032988
0.128525
0.110343
-0.040050
-0.115645
-0.111474
-0.018190
-0.109430
0.085672
0.103061
0.087790
0.107591
-0.260172
-0.259914
-0.126170
-0.073390
-0.013038
-0.026038
0.036809
0.032653
0.021093
-0.022100
-0.050109
-0.288102
-0.270513
-0.274221
-0.281329
-0.113423
-0.308840
-0.298261
-0.317825
-0.294834
-0.301338
-0.148029
-0.138027
-0.140756
-0.125429
-0.144416
-0.080451
-0.064087
-0.060273
-0.045828
-0.299319
-0.324978
-0.299245
0.087172
0.080903
0.084577
-0.162594
-0.170483
0.026108
0.018454
-0.291776
-0.303123
-0.293297
-0.241125
-0.238266
-0.232915
-0.124888
-0.143415
-0.268110
0.092282
0.041710
0.028933
-0.233786
-0.205991
-0.190371
-0.208438
-0.240864
-0.318616
0.127096
0.107510
-0.235425
-0.232181
-0.244038
-0.239851
0.034581
0.026834
-0.237925
0.174851
-0.031269
0.001052
0.025169
0.036144
0.021195
-0.093951
0.026928
-0.191831
-0.165417
-0.154630
-0.166253
-0.163479
-0.242750
-0.243957
-0.254089
0.039891
0.034659
-0.256060
0.086710
0.172407
0.171297
-0.353446
-0.337425
-0.335507
-0.092982
-0.102355
-0.106366
-0.253948
0.262009
0.275516
0.260795
0.249040
0.249086
-0.289571
-0.276851
-0.220242
-0.231322
-0.220648
0.015538
0.114157
0.087770
0.157275
-0.255857
-0.255662
-0.161604
-0.170302
-0.154577
-0.248338
-0.286856
-0.169978
0.074213
0.076550
0.076565
-0.184681
-0.169733
-0.197797
0.194447
0.201184
0.205626
-0.193427
0.245199
0.239230
-0.315119
-0.099824
0.040693
-0.274880
-0.295068
-0.060895
-0.068749
0.160126
0.156006
0.154372
-0.030988
-0.024627
0.165813
-0.026052
0.170439
-0.278903
-0.296532
0.195726
0.204080
0.176415
0.056385
-0.017380
0.220743
0.190787
0.248941
0.180267
-0.042824
-0.050048
-0.036797
-0.042560
0.093322
-0.044128
-0.052020
0.098594
-0.187087
-0.158521
-0.180545
-0.157171
-0.152675
0.065891
0.078294
-0.142895
-0.147416
-0.152471
0.091954
0.087178
0.093654
-0.185499
-0.181629
-0.177093
-0.245845
0.211600
0.218344
0.219459
-0.272816
-0.281825
-0.290160
-0.020921
-0.028276
-0.028357
-0.290798
-0.097710
-0.036059
-0.086166
-0.043015
-0.309109
-0.305851
0.256033
0.083304
0.165485
0.151679
-0.172422
-0.179640
-0.004690
-0.013762
-0.022205
-0.304182
-0.005552
-0.233474
-0.298473
-0.287781
-0.228279
-0.229164
-0.232834
0.183472
0.180402
0.181969
0.190025
0.043019
0.055097
0.043450
0.065222
-0.265462
-0.147346
-0.155494
-0.273355
-0.125755
0.058556
0.054766
0.030741
0.159702
0.126575
0.109445
0.040428
0.027061
-0.037228
-0.270949
-0.266157
-0.262163
-0.298311
-0.077975
-0.033478
-0.084369
-0.033271
-0.089019
0.067799
0.058171
-0.010412
-0.009021
-0.004882
0.003131
0.179316
0.042439
0.031048
0.023608
0.017567
0.055624
-0.050349
-0.038199
0.236138
-0.170779
-0.177217
-0.179702
-0.164396
-0.188851
0.224868
0.198447
0.205997
0.188648
0.181793
0.174687
-0.285590
0.029328
0.008176
0.018292
0.016794
0.054520
0.058055
0.060998
0.267231
0.278794
0.209356
-0.225409
-0.227931
-0.054046
-0.064271
0.163170
0.184865
0.170804
0.167739
-0.229226
-0.225050
-0.103949
-0.110234
-0.052968
-0.257671
-0.253152
0.003878
-0.259644
0.120271
0.122992
0.120806
0.003832
0.013180
0.183239
0.167673
-0.165123
-0.176724
-0.162759
-0.174349
-0.156088
-0.156628
0.084162
0.083709
-0.302920
0.072362
0.112156
0.123617
0.232413
0.217814
0.099249
0.008040
0.006046
-0.005861
-0.040803
-0.088520
-0.079347
-0.093711
-0.100598
-0.224643
-0.228044
0.209209
0.092142
0.071619
0.083223
0.050418
-0.055655
-0.070758
-0.073933
0.154761
0.132659
0.120921
-0.229323
-0.230112
-0.204867
-0.026297
-0.060128
-0.049064
-0.044133
0.006000
-0.070331
-0.062506
-0.047474
-0.090392
0.014319
-0.030639
0.207153
0.214912
0.217060
0.180754
0.208982
0.207170
-0.239400
-0.049366
-0.117531
-0.130928
-0.130277
-0.112248
-0.125095
-0.141502
0.029057
0.153383
0.025074
-0.023889
-0.021187
0.189038
0.187752
0.129487
0.144678
0.139751
-0.192795
-0.218498
0.016086
0.029971
-0.250245
0.194548
0.194593
0.173781
0.165645
-0.247178
-0.250064
-0.261632
0.175687
0.175416
0.107808
0.097365
0.096805
0.096146
0.169613
0.186603
0.009346
0.145987
0.103982
0.115516
-0.018315
-0.118630
-0.096136
0.212811
0.051228
-0.108673
0.154579
0.173985
-0.058928
-0.072980
-0.108591
-0.122359
-0.113470
-0.139473
0.151304
0.144454
-0.060455
-0.091771
-0.084841
-0.148831
-0.149551
-0.328986
0.151784
0.150246
0.147397
0.147289
0.148140
-0.223722
0.131095
-0.214722
-0.019630
-0.179428
-0.242300
-0.102843
-0.072371
-0.071640
-0.192515
0.018057
-0.230748
-0.304177
-0.009868
0.005336
-0.015009
-0.226462
-0.203798
-0.166196
0.152867
0.044829
0.039378
-0.155487
-0.064631
0.123327
0.149777
-0.188424
-0.190856
-0.200377
0.088641
-0.161963
0.185774
0.176734
0.029017
-0.115350
-0.126121
-0.133056
-0.164517
-0.157547
-0.051127
0.007694
0.231542
0.246359
0.084057
-0.065524
0.096024
-0.035227
-0.042735
0.116311
-0.023497
-0.086321
0.228749
-0.021131
-0.222456
-0.222715
0.167411
0.068909
0.080719
0.255518
0.087598
0.028630
-0.003760
-0.282272
-0.273849
-0.033675
-0.046993
-0.215460
-0.228017
-0.217776
0.252815
-0.229383
-0.102579
-0.150980
0.182878
-0.086218
-0.082187
-0.076370
-0.168342
0.012354
-0.003635
0.085633
-0.112698
-0.138383
0.129822
0.137764
0.149006
0.149901
0.142529
0.061957
-0.285417
-0.116980
-0.143723
-0.141520
-0.065922
-0.033487
-0.035175
0.098497
0.105427
-0.052751
-0.087239
0.044419
0.079043
0.113930
0.014845
0.024047
0.024838
0.033465
-0.144508
-0.187279
-0.163107
0.159032
0.156521
0.165613
-0.149410
-0.152274
0.019790
-0.206993
-0.208761
0.017466
0.021525
0.176378
0.015127
-0.237382
-0.258248
-0.235607
-0.176591
0.036983
-0.157498
0.000574
-0.007320
-0.286404
-0.293815
0.048242
-0.017605
0.029211
-0.156925
0.072266
-0.003798
0.067130
-0.228618
-0.226057
0.088399
-0.179208
-0.243309
-0.236530
-0.257229
-0.210302
-0.158346
-0.127550
-0.117126
0.125421
0.133687
0.136293
-0.188836
-0.175711
-0.003147
-0.004845
-0.203299
-0.198114
-0.208346
-0.057055
-0.048845
-0.150498
-0.195208
0.171671
0.167169
0.009376
-0.217798
-0.218296
-0.236743
-0.224023
-0.222273
0.010420
0.017913
0.115106
0.071918
-0.131375
-0.120285
-0.164299
0.019351
0.033966
0.056717
0.055533
-0.212713
0.011761
0.012122
-0.073762
-0.115538
0.039898
0.029678
-0.155573
-0.133286
-0.016229
0.098799
0.096033
0.145332
-0.225624
0.145314
-0.021722
0.200104
0.203737
-0.235371
-0.233904
-0.027533
-0.024255
-0.062278
-0.069988
0.108181
0.167240
0.066967
-0.107343
0.154360
-0.252536
0.120598
0.095428
0.095333
-0.255740
0.168596
0.070895
0.042785
0.122997
0.116171
0.033070
0.073402
-0.250077
-0.241057
-0.222022
-0.275652
0.198966
0.129029
0.138613
0.131185
0.009668
-0.288597
0.210226
-0.245385
-0.215294
-0.204159
0.005419
0.039066
0.017301
0.137097
0.084114
-0.129791
-0.122549
-0.237149
-0.028569
0.087166
0.105021
-0.264144
-0.257642
-0.123035
0.031222
0.073470
0.033957
0.073621
0.104565
0.098903
0.060610
-0.212038
0.091716
-0.234950
-0.072749
0.119122
0.142249
0.123633
0.113171
0.203259
0.143936
-0.214661
-0.192791
-0.186581
0.188050
0.191569
0.008019
0.162723
-0.142916
-0.151472
-0.148483
0.071176
0.078895
0.075884
0.080917
-0.130622
-0.019622
0.192295
0.083869
-0.187380
-0.115516
-0.287601
-0.105343
0.112831
0.147886
0.150732
-0.139371
-0.145792
-0.279594
0.190607
0.181903
-0.140328
-0.065211
0.013595
0.003647
-0.229391
0.010679
-0.016279
-0.119491
0.198099
0.227920
0.070301
0.047948
0.038546
-0.214435
-0.075144
0.003429
0.013662
-0.227306
0.221968
-0.206526
0.073635
0.070748
-0.283230
0.122519
0.137281
0.112618
-0.085776
0.118041
0.074036
-0.141967
0.166067
-0.135327
0.026304
0.010001
0.013892
-0.172823
0.049659
-0.125096
0.015973
-0.036014
-0.033421
-0.138190
0.231531
0.137826
-0.192313
-0.195316
-0.066086
0.079447
-0.287740
-0.302235
-0.309121
-0.156255
-0.221090
0.129638
-0.148480
0.088084
0.155707
0.157902
-0.008690
-0.123979
-0.137818
-0.190562
0.185473
0.179948
0.095074
0.088526
-0.074990
-0.112594
-0.237340
-0.238254
0.107767
-0.218390
-0.102624
-0.108689
-0.209474
-0.212224
0.109429
0.069034
0.141736
0.117026
-0.126731
0.153887
0.127056
-0.086497
-0.173779
-0.188846
0.128323
0.112299
-0.178496
0.125971
0.068821
-0.231539
0.165898
-0.090503
-0.261776
0.156286
0.148327
-0.080481
-0.076964
-0.189595
-0.225117
0.152639
0.156691
0.160129
-0.025535
0.105497
0.003359
-0.189709
-0.264813
0.098431
0.100691
-0.193174
-0.204827
0.124492
0.158450
0.019227
0.052752
0.034645
0.144839
0.214759
-0.037866
-0.033511
-0.093235
-0.234912
0.105859
-0.185352
-0.038076
-0.037705
0.025275
0.067148
-0.200726
0.139286
-0.191257
-0.119842
0.159396
-0.172476
-0.129449
-0.154550
-0.205530
-0.050254
-0.026444
-0.198270
0.148558
-0.204650
-0.001672
-0.020523
-0.069099
0.000575
-0.052377
-0.046189
0.105215
-0.182331
-0.191119
-0.053157
0.001241
-0.019411
-0.119718
-0.123862
-0.080804
-0.136706
-0.095824
-0.041910
-0.123501
-0.073950
-0.075182
0.028902
-0.169638
0.165080
0.133110
-0.025676
-0.219060
-0.213435
-0.057578
0.059523
0.077698
-0.095745
0.004495
-0.180478
-0.206779
-0.000948
0.105805
0.128058
0.134548
0.170888
-0.204162
0.079308
-0.184001
-0.156364
-0.190437
0.118122
-0.108076
0.105647
-0.211334
0.075737
0.067781
0.060590
-0.246686
0.016191
-0.095339
-0.123593
0.011027
-0.101172
-0.208806
0.034200
0.134127
-0.084227
-0.146480
-0.003281
SCALARS UY float 1
LOOKUP_TABLE default
-0.000000
-0.000000
-1.010000
-1.010000
-0.262349
-0.724552
-0.000000
-0.000000
-0.000000
-0.000000
-0.000000
-0.000000
-0.000000
-0.000000
-0.000000
-0.000000
-0.000000
-0.000000
-0.000000
-0.000000
-0.000000
-0.000000
-0.088727
-0.155276
-0.216201
-0.273493
-0.328745
-0.381569
-0.431272
-0.476405
-0.518812
-0.556877
-0.597671
-0.644125
-0.701150
-0.769697
-0.845974
-0.927000
-1.010000
-1.010000
-1.010000
-1.010000
-1.010000
-1.010000
-1.010000
-1.010000
-1.010000
-1.010000
-1.010000
-1.010000
-1.010000
-1.010000
-1.010000
-1.010000
-0.944739
-0.879916
-0.816441
-0.754146
-0.695083
-0.639556
-0.588577
-0.543238
-0.501686
-0.464305
-0.425506
-0.379936
-0.325486
-0.258144
-0.184421
-0.102901
-0.266102
-0.276632
-0.288059
-0.294446
-0.302296
-0.315699
-0.324388
-0.330546
-0.336819
-0.343000
-0.348174
-0.356435
-0.364501
-0.369889
-0.378080
-0.384012
-0.388767
-0.395478
-0.401438
-0.408069
-0.413505
-0.419047
-0.423888
-0.430626
-0.436732
-0.439099
-0.446847
-0.453914
-0.458491
-0.465421
-0.471073
-0.477171
-0.484391
-0.486675
-0.493115
-0.497034
-0.501134
-0.507791
-0.510700
-0.517879
-0.522500
-0.528862
-0.533332
-0.541359
-0.548170
-0.554716
-0.561273
-0.569111
-0.575674
-0.582711
-0.591862
-0.597893
-0.603098
-0.612018
-0.619755
-0.628157
-0.637370
-0.645210
-0.652130
-0.664252
-0.677763
-0.687734
-0.694293
-0.700033
-0.707704
-0.716373
-0.041891
-0.022666
-0.050626
-0.615239
-0.637130
-0.649134
-0.027461
-0.363149
-0.365549
-0.335306
-0.094157
-0.106180
-0.109143
-0.121387
-0.275882
-0.260202
-0.270334
-0.625347
-0.623286
-0.633767
-0.405542
-0.428488
-0.413110
-0.562525
-0.567702
-0.599644
-0.628249
-0.333255
-0.305760
-0.739976
-0.750985
-0.737006
-0.749469
-0.708082
-0.726388
-0.728243
-0.015720
-0.037800
-0.018948
-0.976783
-0.947825
-0.947621
-0.447084
-0.444037
-0.921772
-0.418307
-0.524736
-0.540933
-0.534110
-0.624341
-0.617432
-0.626156
-0.241487
-0.227276
-0.226748
-0.611388
-0.369907
-0.383797
-0.403135
-0.505105
-0.491216
-0.501095
-0.035372
-0.370899
-0.342980
-0.353832
-0.035960
-0.026460
-0.330364
-0.045560
-0.421449
-0.431675
-0.391481
-0.340384
-0.341180
-0.325904
-0.499646
-0.485046
-0.479264
-0.327993
-0.504614
-0.116172
-0.120438
-0.109282
-0.131924
-0.402718
-0.390610
-0.386039
-0.375022
-0.588359
-0.570595
-0.594416
-0.358265
-0.499416
-0.465341
-0.469266
-0.505979
-0.069279
-0.050656
-0.057513
-0.274960
-0.265464
-0.258405
-0.366683
-0.112772
-0.124559
-0.119408
-0.429277
-0.411458
-0.441386
-0.133106
-0.697499
-0.705862
-0.711619