# vtk DataFile Version 2.0
Test
ASCII
DATASET POLYDATA
POINTS 1818 float
0.000000 0.000000 0.000000
1.000000 0.000000 0.000000
1.000000 1.000000 0.000000
0.000000 1.000000 0.000000
0.300000 0.330000 0.000000
0.700000 0.680000 0.000000
0.058824 0.000000 0.000000
0.117647 0.000000 0.000000
0.176471 0.000000 0.000000
0.235294 0.000000 0.000000
0.294118 0.000000 0.000000
0.352941 0.000000 0.000000
0.411765 0.000000 0.000000
0.470588 0.000000 0.000000
0.529412 0.000000 0.000000
0.588235 0.000000 0.000000
0.647059 0.000000 0.000000
0.705882 0.000000 0.000000
0.764706 0.000000 0.000000
0.823529 0.000000 0.000000
0.882353 0.000000 0.000000
0.941176 0.000000 0.000000
1.000000 0.058824 0.000000
1.000000 0.117647 0.000000
1.000000 0.176471 0.000000
1.000000 0.235294 0.000000
1.000000 0.294118 0.000000
1.000000 0.352941 0.000000
1.000000 0.411765 0.000000
1.000000 0.470588 0.000000
1.000000 0.529412 0.000000
1.000000 0.588235 0.000000
1.000000 0.647059 0.000000
1.000000 0.705882 0.000000
1.000000 0.764706 0.000000
1.000000 0.823529 0.000000
1.000000 0.882353 0.000000
1.000000 0.941176 0.000000
0.941176 1.000000 0.000000
0.882353 1.000000 0.000000
0.823529 1.000000 0.000000
0.764706 1.000000 0.000000
0.705882 1.000000 0.000000
0.647059 1.000000 0.000000
0.588235 1.000000 0.000000
0.529412 1.000000 0.000000
0.470588 1.000000 0.000000
0.411765 1.000000 0.000000
0.352941 1.000000 0.000000
0.294118 1.000000 0.000000
0.235294 1.000000 0.000000
0.176471 1.000000 0.000000
0.117647 1.000000 0.000000
0.058824 1.000000 0.000000
0.000000 0.941176 0.000000
0.000000 0.882353 0.000000
0.000000 0.823529 0.000000
0.000000 0.764706 0.000000
0.000000 0.705882 0.000000
0.000000 0.647059 0.000000
0.000000 0.588235 0.000000
0.000000 0.529412 0.000000
0.000000 0.470588 0.000000
0.000000 0.411765 0.000000
0.000000 0.352941 0.000000
0.000000 0.294118 0.000000
0.000000 0.235294 0.000000
0.000000 0.176471 0.000000
0.000000 0.117647 0.000000
0.000000 0.058824 0.000000
0.305970 0.335224 0.000000
0.311940 0.340448 0.000000
0.317910 0.345672 0.000000
0.323881 0.350896 0.000000
0.329851 0.356119 0.000000
0.335821 0.361343 0.000000
0.341791 0.366567 0.000000
0.347761 0.371791 0.000000
0.353731 0.377015 0.000000
0.359701 0.382239 0.000000
0.365672 0.387463 0.000000
0.371642 0.392687 0.000000
0.377612 0.397910 0.000000
0.383582 0.403134 0.000000
0.389552 0.408358 0.000000
0.395522 0.413582 0.000000
0.401493 0.418806 0.000000
0.407463 0.424030 0.000000
0.413433 0.429254 0.000000
0.419403 0.434478 0.000000
0.425373 0.439701 0.000000
0.431343 0.444925 0.000000
0.437313 0.450149 0.000000
0.443284 0.455373 0.000000
0.449254 0.460597 0.000000
0.455224 0.465821 0.000000
0.461194 0.471045 0.000000
0.467164 0.476269 0.000000
0.473134 0.481493 0.000000
0.479104 0.486716 0.000000
0.485075 0.491940 0.000000
0.491045 0.497164 0.000000
0.497015 0.502388 0.000000
0.502985 0.507612 0.000000
0.508955 0.512836 0.000000
0.514925 0.518060 0.000000
0.520896 0.523284 0.000000
0.526866 0.528507 0.000000
0.532836 0.533731 0.000000
0.538806 0.538955 0.000000
0.544776 0.544179 0.000000
0.550746 0.549403 0.000000
0.556716 0.554627 0.000000
0.562687 0.559851 0.000000
0.568657 0.565075 0.000000
0.574627 0.570299 0.000000
0.580597 0.575522 0.000000
0.586567 0.580746 0.000000
0.592537 0.585970 0.000000
0.598507 0.591194 0.000000
0.604478 0.596418 0.000000
0.610448 0.601642 0.000000
0.616418 0.606866 0.000000
0.622388 0.612090 0.000000
0.628358 0.617313 0.000000
0.634328 0.622537 0.000000
0.640299 0.627761 0.000000
0.646269 0.632985 0.000000
0.652239 0.638209 0.000000
0.658209 0.643433 0.000000
0.664179 0.648657 0.000000
0.670149 0.653881 0.000000
0.676119 0.659104 0.000000
0.682090 0.664328 0.000000
0.688060 0.669552 0.000000
0.694030 0.674776 0.000000
0.516135 0.080917 0.000000
0.549338 0.042552 0.000000
0.567302 0.088709 0.000000
0.555658 0.563778 0.000000
0.559301 0.571359 0.000000
0.552318 0.570919 0.000000
0.603235 0.047100 0.000000
0.446553 0.448087 0.000000
0.438652 0.443189 0.000000
0.445116 0.440368 0.000000
0.437254 0.190586 0.000000
0.465954 0.201747 0.000000
0.439184 0.213838 0.000000
0.453137 0.228102 0.000000
0.522423 0.410182 0.000000
0.522098 0.390982 0.000000
0.537289 0.398500 0.000000
0.453388 0.527105 0.000000
0.462022 0.524948 0.000000
0.461218 0.533993 0.000000
0.324300 0.374550 0.000000
0.319287 0.386214 0.000000
0.314834 0.375138 0.000000
0.668809 0.628853 0.000000
0.677366 0.632907 0.000000
0.668274 0.639611 0.000000
0.469934 0.529282 0.000000
0.439703 0.436699 0.000000
0.446608 0.432083 0.000000
0.542854 0.633425 0.000000
0.535117 0.647070 0.000000
0.524302 0.633157 0.000000
0.519372 0.648877 0.000000
0.586338 0.611293 0.000000
0.591638 0.624149 0.000000
0.575478 0.621479 0.000000
0.437962 0.035513 0.000000
0.421505 0.085456 0.000000
0.394924 0.044162 0.000000
0.445207 0.955749 0.000000
0.429168 0.919510 0.000000
0.464409 0.914226 0.000000
0.317150 0.400904 0.000000
0.328626 0.395860 0.000000
0.439616 0.884412 0.000000
0.330406 0.381773 0.000000
0.676842 0.602700 0.000000
0.674982 0.614185 0.000000
0.665930 0.611798 0.000000
0.414707 0.535036 0.000000
0.420123 0.526072 0.000000
0.425338 0.533771 0.000000
0.398407 0.375558 0.000000
0.393804 0.363255 0.000000
0.407284 0.365452 0.000000
0.407758 0.523337 0.000000
0.899969 0.377867 0.000000
0.945915 0.378245 0.000000
0.914158 0.409130 0.000000
0.358219 0.436142 0.000000
0.361390 0.425428 0.000000
0.369309 0.432300 0.000000
0.465999 0.075074 0.000000
0.269944 0.367761 0.000000
0.266521 0.352125 0.000000
0.283474 0.357667 0.000000
0.385889 0.083020 0.000000
0.359482 0.060981 0.000000
0.279658 0.346766 0.000000
0.363604 0.104040 0.000000
0.511115 0.503731 0.000000
0.503243 0.499914 0.000000
0.509146 0.494910 0.000000
0.513188 0.475753 0.000000
0.504957 0.474656 0.000000
0.511959 0.464784 0.000000
0.311863 0.447505 0.000000
0.293019 0.442078 0.000000
0.305555 0.431691 0.000000
0.499204 0.464990 0.000000
0.293855 0.459576 0.000000
0.396676 0.236328 0.000000
0.371014 0.247362 0.000000
0.373003 0.229199 0.000000
0.384478 0.261522 0.000000
0.555704 0.523331 0.000000
0.551313 0.515879 0.000000
0.562752 0.515269 0.000000
0.554954 0.506854 0.000000
0.804236 0.611103 0.000000
0.819351 0.593503 0.000000
0.832061 0.615776 0.000000
0.509908 0.485173 0.000000
0.129738 0.481190 0.000000
0.110722 0.443736 0.000000
0.154857 0.452634 0.000000
0.089738 0.485299 0.000000
0.396427 0.153886 0.000000
0.393058 0.115469 0.000000
0.420333 0.126587 0.000000
0.442628 0.413512 0.000000
0.434815 0.404283 0.000000
0.446816 0.400259 0.000000
0.499770 0.482873 0.000000
0.353883 0.235057 0.000000
0.351360 0.254011 0.000000
0.332147 0.240870 0.000000
0.112307 0.405527 0.000000
0.140355 0.392788 0.000000
0.142004 0.423465 0.000000
0.334868 0.263052 0.000000
0.551239 0.594093 0.000000
0.560217 0.601969 0.000000
0.546711 0.604614 0.000000
0.398510 0.570197 0.000000
0.387124 0.557316 0.000000
0.399978 0.555748 0.000000
0.705281 0.743146 0.000000
0.722930 0.758853 0.000000
0.697202 0.758074 0.000000
0.380190 0.572638 0.000000
0.278345 0.431947 0.000000
0.292575 0.428097 0.000000
0.470820 0.540616 0.000000
0.478213 0.533042 0.000000
0.480161 0.543190 0.000000
0.415268 0.299334 0.000000
0.412465 0.313515 0.000000
0.400419 0.297680 0.000000
0.396495 0.317117 0.000000
0.718655 0.732879 0.000000
0.709319 0.677587 0.000000
0.715709 0.670111 0.000000
0.719283 0.682820 0.000000
0.212992 0.453899 0.000000
0.184619 0.470046 0.000000
0.186665 0.440862 0.000000
0.452307 0.386568 0.000000
0.460371 0.397715 0.000000
0.478664 0.456068 0.000000
0.476179 0.462123 0.000000
0.471250 0.456445 0.000000
0.464654 0.388544 0.000000
0.483415 0.461045 0.000000
0.357146 0.449596 0.000000
0.344653 0.443966 0.000000
0.554562 0.459423 0.000000
0.543333 0.457517 0.000000
0.553850 0.449505 0.000000
0.543131 0.445036 0.000000
0.347312 0.459318 0.000000
0.781088 0.538918 0.000000
0.810909 0.534152 0.000000
0.799399 0.553968 0.000000
0.402869 0.534333 0.000000
0.408011 0.546121 0.000000
0.703844 0.670118 0.000000
0.552234 0.794299 0.000000
0.528593 0.795589 0.000000
0.539188 0.770312 0.000000
0.596088 0.518714 0.000000
0.593029 0.508081 0.000000
0.604120 0.510731 0.000000
0.384880 0.468703 0.000000
0.382270 0.455963 0.000000
0.394062 0.458803 0.000000
0.374729 0.466839 0.000000
0.340939 0.294790 0.000000
0.324530 0.290188 0.000000
0.338473 0.279923 0.000000
0.465367 0.336545 0.000000
0.477337 0.352846 0.000000
0.459495 0.350024 0.000000
0.584947 0.516440 0.000000
0.326802 0.302636 0.000000
0.945343 0.420397 0.000000
0.779746 0.749037 0.000000
0.771533 0.774140 0.000000
0.758291 0.749848 0.000000
0.743435 0.765852 0.000000
0.751942 0.297541 0.000000
0.784264 0.292048 0.000000
0.772562 0.330207 0.000000
0.812744 0.305799 0.000000
0.655547 0.494535 0.000000
0.649767 0.472522 0.000000
0.671966 0.480244 0.000000
0.612062 0.502007 0.000000
0.616789 0.515227 0.000000
0.403059 0.898561 0.000000
0.391512 0.946883 0.000000
0.625780 0.504699 0.000000
0.635988 0.491275 0.000000
0.596252 0.650380 0.000000
0.583401 0.655132 0.000000
0.583737 0.644777 0.000000
0.713099 0.416502 0.000000
0.708474 0.388943 0.000000
0.733625 0.389568 0.000000
0.684835 0.406222 0.000000
0.656936 0.416423 0.000000
0.633624 0.425116 0.000000
0.634362 0.400237 0.000000
0.646884 0.740682 0.000000
0.654954 0.726002 0.000000
0.663305 0.741855 0.000000
0.732481 0.441235 0.000000
0.751303 0.460839 0.000000
0.721338 0.462235 0.000000
0.759622 0.437863 0.000000
0.462761 0.363156 0.000000
0.373644 0.622389 0.000000
0.346217 0.613642 0.000000
0.370315 0.594521 0.000000
0.351411 0.640635 0.000000
0.695337 0.690220 0.000000
0.705202 0.700133 0.000000
0.692303 0.700990 0.000000
0.521365 0.516400 0.000000
0.522992 0.510597 0.000000
0.527633 0.513574 0.000000
0.291567 0.329512 0.000000
0.294927 0.318154 0.000000
0.365771 0.366553 0.000000
0.366135 0.358691 0.000000
0.374180 0.368122 0.000000
0.408232 0.327056 0.000000
0.423479 0.328280 0.000000
0.411272 0.339740 0.000000
0.664110 0.670607 0.000000
0.667245 0.662649 0.000000
[...]
POINT_DATA 1818
SCALARS UX float 1
LOOKUP_TABLE default
-0.000000
0.000000
0.256813
-0.661574
-0.351427
0.194341
0.000000
-0.000000
-0.000000
-0.000000
-0.000000
-0.000000
-0.000000
-0.000000
-0.000000
-0.000000
0.000000
0.000000
0.000000
0.000000
0.000000
0.000000
0.174315
0.273900
0.353118
0.424175
0.488448
0.547639
0.601225
0.643808
0.669403
0.669461
0.630696
0.565885
0.477907
0.390676
0.318513
0.277258
0.179214
0.110171
0.048986
-0.004446
-0.047744
-0.081928
-0.116009
-0.153611
-0.197203
-0.246428
-0.301259
-0.358653
-0.417552
-0.477189
-0.536659
-0.599535
-0.665103
-0.676824
-0.698340
-0.726209
-0.759409
-0.794509
-0.827557
-0.851534
-0.855726
-0.831969
-0.773503
-0.678978
-0.561565
-0.438922
-0.315680
-0.194850
-0.348879
-0.338130
-0.335794
-0.324051
-0.315877
-0.304590
-0.292623
-0.285658
-0.276449
-0.268253
-0.263338
-0.256390
-0.250259
-0.246203
-0.236485
-0.230431
-0.227341
-0.219945
-0.213489
-0.204526
-0.197761
-0.189620
-0.182428
-0.173210
-0.165182
-0.158917
-0.148633
-0.139484
-0.133465
-0.124291
-0.118441
-0.111259
-0.100888
-0.093676
-0.079443
-0.069835
-0.060697
-0.048166
-0.040060
-0.025930
-0.017321
-0.007357
-0.001024
0.006403
0.012586
0.018905
0.024723
0.033055
0.038629
0.045220
0.054914
0.059736
0.065391
0.073739
0.080057
0.087702
0.096439
0.099009
0.103675
0.118825
0.136564
0.147880
0.156055
0.160975
0.174462
0.182901
-0.008424
-0.003562
0.003620
-0.178698
-0.204139
-0.248299
0.003589
-0.018097
-0.050895
0.028144
-0.032018
-0.013298
-0.027848
-0.013733
0.189785
0.172484
0.190975
-0.455440
-0.442480
-0.444866
-0.507701
-0.546989
-0.533398
0.337748
0.331056
0.311731
-0.431019
0.012138
0.077988
-0.300198
-0.297328
-0.321714
-0.312277
-0.220085
-0.221550
-0.257703
-0.010058
-0.023162
-0.013558
-0.219292
-0.238108
-0.207699
-0.566288
-0.546630
-0.236385
-0.510617
0.386081
0.370369
0.359168
-0.491422
-0.490330
-0.482596
0.013898
0.006150
0.031789
-0.502494
0.483311
0.525694
0.525651
-0.545039
-0.529262
-0.524959
-0.015915
-0.584297
-0.560595
-0.539972
-0.025698
-0.019653
-0.517734
-0.035775
0.073081
0.028233
0.122479
0.205079
0.187475
0.207685
-0.594339
-0.609802
-0.596413
0.182990
-0.610386
-0.058131
-0.082528
-0.078383
-0.066033
0.241737
0.243893
0.273503
0.263575
0.514831
0.531412
0.531960
0.180439
-0.755508
-0.767892
-0.734339
-0.788689
-0.046142
-0.035364
-0.032308
0.096388
0.082716
0.103934
0.140246
-0.096842
-0.105309
-0.120506
-0.745861
-0.714476
-0.735475
-0.129270
-0.301608
-0.285533
-0.311482
-0.482982
-0.500441
-0.491530
0.052502
0.069393
0.024548
-0.495415
-0.621210
-0.606454
-0.432420
-0.418522
-0.419447
-0.007496
0.001139
-0.026502
-0.016620
0.098322
0.269703
0.328903
0.288174
-0.684909
-0.708902
-0.706804
0.104603
0.120716
0.137054
0.107400
0.107996
0.119478
0.143643
-0.553244
-0.563988
0.253125
0.242153
0.246037
0.233928
-0.564413
0.489935
0.515675
0.512233
-0.501492
-0.491062
0.277680
-0.157551
-0.181775
-0.183747
0.316378
0.310756
0.322032
-0.530014
-0.527561
-0.512495
-0.540180
-0.128265
-0.161367
-0.130950
0.075498
0.100959
0.082540
0.303604
-0.161407
0.563004
0.213170
0.143441
0.162857
0.100755
0.260456
0.283740
0.312395
0.324741
0.355517
0.336215
0.358910
0.325357
0.334772
-0.266464
-0.268062
0.337853
0.338305
-0.210042
-0.227815
-0.234363
0.341321
0.312042
0.334678
0.308148
0.295162
0.285218
0.263047
-0.053175
-0.041196
-0.024968
0.379914
0.413040
0.386835
0.402248
0.097256
-0.462956
-0.492522
-0.487335
-0.467383
0.115072
0.134512
0.076643
0.043036
0.109801
0.125493
-0.400667
-0.316350
-0.088004
-0.060845
-0.045629
0.006963
0.026528
0.021219
0.002171
0.056392
0.061849
-0.541175
-0.546458
-0.556562
-0.558426
-0.039622
-0.074496
-0.117303
0.070856
0.079989
0.097302
0.104818
-0.174530
-0.200014
-0.149380
-0.023693
-0.087453
-0.098149
-0.384076
-0.391239
-0.403222
-0.089489
-0.155547
-0.150600
0.016823
0.044385
0.072475
0.021638
0.043772
-0.099676
-0.033154
-0.371164
-0.318880
-0.304187
-0.368973
-0.637541
-0.612200
-0.628006
-0.544472
-0.563010
-0.537862
-0.097477
-0.094883
-0.293695
0.300182
0.303132
-0.571454
-0.570980
-0.557787
-0.281293
-0.534765
-0.505473
-0.480247
-0.466082
-0.511553
-0.380963
-0.393571
-0.392093
-0.376734
-0.354231
-0.335879
0.367628
0.370024
0.331012
0.400125
-0.596858
-0.587187
-0.578956
-0.332834
-0.388484
-0.309900
-0.228768
-0.197190
-0.161378
-0.099611
-0.271111
-0.313580
-0.367955
0.360539
0.301504
-0.424289
-0.409311
-0.397079
-0.096725
-0.174270
-0.168726
-0.401248
-0.391078
-0.388294
-0.224201
-0.204745
-0.202239
-0.356027
-0.385664
-0.038808
-0.050219
-0.111153
-0.111701
-0.084366
-0.137840
0.240216
0.239242
0.218182
-0.776916
-0.808815
-0.770018
-0.639054
-0.599191
-0.612039
-0.621591
-0.033755
-0.089075
-0.119115
-0.127186
-0.336487
-0.363802
-0.334536
-0.367481
-0.305682
-0.330275
-0.302902
-0.490015
-0.507121
-0.481613
-0.491673
-0.490435
-0.504506
-0.498992
-0.442712
0.001156
-0.063908
-0.065850
0.151414
0.126222
0.130262
0.146893
0.401681
0.361640
0.370171
0.422205
0.446264
-0.409004
-0.439228
-0.464709
0.229721
0.236903
0.145067
-0.448871
-0.435058
-0.460276
-0.144708
-0.080320
-0.402904
-0.101959
-0.152216
-0.184229
0.135546
0.150292
0.134614
0.268582
0.279220
0.279282
-0.103519
-0.110922
-0.178137
0.291725
-0.524644
-0.484609
-0.567293
-0.534512
-0.580130
0.103218
0.126253
0.235640
0.246738
0.232381
0.251095
0.230074
-0.797976
-0.093874
-0.072167
-0.095016
-0.072381
-0.539299
-0.575442
-0.498843
0.251135
0.279972
0.315203
-0.087220
0.210640
0.103760
0.254476
0.259890
-0.043929
-0.008118
-0.019620
-0.567088
-0.550864
-0.550364
-0.208214
-0.232056
-0.732503
0.266393
0.280351
0.273351
0.085069
0.085153
-0.239252
-0.238837
-0.209060
0.095707
0.289189
-0.593071
-0.602046
-0.608029
-0.477581
-0.434449
-0.439213
0.095474
0.189081
0.126467
0.174675
0.037259
0.255207
0.265626
-0.355026
-0.268717
-0.289577
-0.008318
0.012770
-0.595129
-0.585965
-0.571710
0.000317
0.010380
0.007807
-0.004863
-0.589809
-0.606575
-0.607379
-0.289803
-0.350082
-0.250197
-0.151751
-0.161380
-0.195496
-0.441561
-0.380225
0.232648
-0.555962
-0.603433
0.203187
0.264616
0.280666
-0.417997
0.256578
0.228516
-0.373597
-0.365701
0.411249
0.432267
0.430175
-0.391126
0.219752
0.222208
0.342181
-0.466409
-0.465329
-0.456317
-0.299880
-0.275389
-0.155126
-0.479270
0.119461
0.134865
-0.473469
-0.254261
-0.276882
-0.250169
-0.275577
0.510442
0.477163
0.472614
0.244342
0.189720
0.163541
-0.256223
-0.247882
-0.221693
-0.072868
-0.049157
0.139715
0.035103
0.053601
0.103868
0.001304
-0.569137
-0.561051
-0.039667
-0.036567
-0.484466
0.326180
0.374982
0.304215
0.598881
0.372638
0.097526
0.107654
0.123127
-0.562154
0.107877
0.039797
0.046508
0.058222
-0.240224
-0.332553
-0.268115
-0.245798
0.268534
-0.465611
-0.415694
-0.571592
-0.582803
-0.575676
-0.445014
-0.430873
-0.435743
-0.449284
0.415802
0.397199
0.423870
-0.420910
-0.019921
0.468063
0.353242
0.348992
0.130877
0.209761
0.124643
0.226150
0.177921
0.251600
-0.010663
-0.405631
-0.078199
-0.453343
-0.498505
-0.518271
-0.553504
0.051888
0.067150
-0.223741
-0.275721
0.215532
-0.039433
-0.727551
-0.067208
-0.501651
-0.481567
-0.457825
-0.078982
0.430804
0.417984
0.409487
0.403460
0.062123
0.036667
-0.193639
-0.187254
-0.164981
0.392411
0.395959
0.383570
0.382091
0.319887
0.346580
-0.435843
-0.449013
0.424156
-0.641318
-0.572311
-0.595819
0.446813
0.428978
0.413775
-0.161072
-0.185809
-0.150775
0.452976
0.497305
0.272103
0.201838
0.232270
0.156514
-0.197914
0.181814
0.176543
0.156803
0.396129
0.445156
0.421985
-0.465617
-0.496016
-0.524353
0.473262
-0.339214
-0.311541
-0.397983
-0.385220
-0.411095
-0.498682
0.063298
0.042883
0.111821
0.548096
0.583678
0.603424
0.521915
0.419578
0.523270
0.480910
-0.124559
-0.119125
-0.692511
-0.604359
-0.629839
-0.136045
0.151389
0.025696
-0.693847
-0.708295
-0.746396
-0.625561
-0.626155
-0.788235
0.125492
0.040824
-0.326589
-0.032233
-0.347887
-0.315609
-0.305094
0.617952
0.645849
-0.045875
-0.043801
-0.010220
0.104912
0.065747
0.135535
0.035377
-0.017418
0.085610
-0.020495
-0.040379
-0.388142
-0.467525
-0.474957
-0.419914
-0.600644
-0.614182
-0.617738
-0.824916
-0.819035
-0.033707
-0.053670
-0.025974
-0.053287
-0.059934
-0.084665
-0.055775
-0.071762
-0.779821
-0.014347
-0.022184
-0.167353
-0.218125
-0.209394
0.622362
0.588733
-0.636798
0.485991
0.469456
0.468595
0.487019
-0.729594
-0.728584
-0.703465
0.507873
-0.013849
0.553833
0.025813
-0.002198
-0.013986
-0.032636
-0.221088
0.012947
-0.017075
-0.116626
-0.095704
-0.088859
0.274260
0.231810
-0.093196
-0.275361
-0.267401
-0.056345
-0.252244
0.186498
0.224320
0.189754
0.235454
-0.582724
-0.582604
-0.301119
-0.182168
-0.028027
-0.056936
0.078527
0.068728
0.044516
-0.048209
-0.110471
-0.655209
-0.615685
-0.626883
-0.637547
-0.264352
-0.696887
-0.674834
-0.718801
-0.665834
-0.679410
-0.338703
-0.316475
-0.329237
-0.295218
-0.330227
-0.180287
-0.143793
-0.149399
-0.117358
-0.685773
-0.743282
-0.682559
0.181372
0.167741
0.176148
-0.371308
-0.388835
0.048946
0.032422
-0.657442
-0.682412
-0.659884
-0.543764
-0.536848
-0.525507
-0.279848
-0.321646
-0.608071
0.192806
0.086960
0.059441
-0.528176
-0.470728
-0.436841
-0.476810
-0.543847
-0.716263
0.275347
0.232553
-0.535305
-0.529050
-0.554972
-0.547481
0.070907
0.053941
-0.535501
0.387505
-0.079437
-0.008377
0.050681
0.073669
0.041468
-0.217607
0.053465
-0.439305
-0.378685
-0.355598
-0.381064
-0.375666
-0.549937
-0.553421
-0.575230
0.079251
0.067460
-0.580668
0.178180
0.370025
0.367084
-0.799445
-0.761982
-0.760015
-0.219485
-0.240470
-0.248553
-0.571174
0.574859
0.604502
0.570235
0.544239
0.543849
-0.650289
-0.622576
-0.501561
-0.525262
-0.503280
0.017072
0.242131
0.181586
0.339920
-0.581792
-0.584277
-0.380760
-0.399588
-0.363979
-0.559418
-0.646051
-0.397367
0.154380
0.159008
0.159756
-0.416835
-0.383512
-0.446215
0.417999
0.433484
0.443486
-0.431972
0.534715
0.520891
-0.708227
-0.233890
0.077333
-0.636088
-0.682408
-0.154507
-0.172511
0.341658
0.332336
0.328861
-0.074822
-0.060460
0.354430
-0.062862
0.364642
-0.625535
-0.665599
0.420809
0.439809
0.378249
0.118693
-0.045197
0.478813
0.411317
0.543069
0.386940
-0.108886
-0.124318
-0.095166
-0.107363
0.196441
-0.115601
-0.134098
0.207237
-0.439496
-0.374892
-0.423550
-0.358888
-0.348518
0.137259
0.164367
-0.328384
-0.338575
-0.349064
0.191361
0.181020
0.195412
-0.421863
-0.412839
-0.403350
-0.555359
0.457056
0.472594
0.475246
-0.610921
-0.631818
-0.650772
-0.048189
-0.063935
-0.064978
-0.652623
-0.235462
-0.081750
-0.210548
-0.114389
-0.694399
-0.687109
0.559211
0.172211
0.360917
0.328833
-0.393564
-0.409378
-0.026515
-0.046921
-0.049696
-0.690719
-0.028152
-0.526048
-0.669854
-0.645325
-0.513872
-0.516284
-0.524079
0.394244
0.386935
0.390220
0.409766
0.092923
0.119391
0.093553
0.140948
-0.593996
-0.339020
-0.356292
-0.611989
-0.288913
0.116270
0.107679
0.054879
0.351612
0.276145
0.234556
0.082538
0.046050
-0.099055
-0.606997
-0.596311
-0.586841
-0.669822
-0.178869
-0.075909
-0.190187
-0.089912
-0.200945
0.140827
0.120222
-0.023175
-0.024865
-0.015425
0.001276
0.383746
0.091823
0.066532
0.050434
0.024325
0.120858
-0.113040
-0.085922
0.515012
-0.393809
-0.409596
-0.412999
-0.383144
-0.437638
0.489268
0.427611
0.444806
0.404999
0.389428
0.373204
-0.641085
0.055356
0.017353
0.038843
0.035713
0.110830
0.118936
0.124942
0.584461
0.611295
0.454506
-0.511444
-0.516074
-0.133682
-0.155562
0.348167
0.401550
0.369856
0.363706
-0.515547
-0.506474
-0.233513
-0.247915
-0.129121
-0.579887
-0.569403
-0.007013
-0.584999
0.255876
0.261532
0.256409
-0.006704
0.014292
0.392470
0.357407
-0.380800
-0.405822
-0.374941
-0.399824
-0.361360
-0.363618
0.178237
0.176677
-0.680971
0.152958
0.238423
0.263506
0.506681
0.474842
0.209836
0.001715
-0.003242
-0.029550
-0.105057
-0.212530
-0.177235
-0.209539
-0.224780
-0.507390
-0.514335
0.451851
0.196635
0.153064
0.176582
0.098549
-0.136165
-0.171132
-0.178564
0.328365
0.279316
0.253198
-0.512928
-0.514560
-0.458534
-0.076610
-0.134390
-0.109041
-0.098582
-0.002540
-0.156720
-0.138783
-0.104737
-0.213168
0.016335
-0.068537
0.448324
0.466318
0.470533
0.386818
0.451957
0.450466
-0.536819
-0.129635
-0.274827
-0.304638
-0.302556
-0.263853
-0.292450
-0.323298
0.061980
0.325542
0.038761
-0.072271
-0.067053
0.405725
0.402809
0.277567
0.308346
0.296984
-0.430646
-0.488078
0.023547
0.064139
-0.562229
0.418241
0.418535
0.371244
0.352723
-0.554868
-0.569619
-0.585280
0.378470
0.377258
0.229474
0.206310
0.205643
0.204764
0.365444
0.411088
0.008780
0.308695
0.216074
0.241421
-0.044437
-0.272258
-0.223980
0.464511
0.105606
-0.250350
0.327893
0.372386
-0.145743
-0.176979
-0.254748
-0.284765
-0.264970
-0.324979
0.321726
0.306435
-0.141446
-0.210118
-0.194801
-0.344868
-0.341213
-0.741375
0.324095
0.321112
0.313913
0.315037
0.317556
-0.503901
0.275662
-0.479316
-0.054483
-0.407079
-0.543753
-0.236931
-0.169898
-0.168306
-0.429948
0.028574
-0.515314
-0.683283
-0.032048
-0.001105
-0.046007
-0.505807
-0.455913
-0.373045
0.324022
0.091003
0.079617
-0.350728
-0.153325
0.258648
0.317452
-0.430189
-0.436294
-0.455924
0.182918
-0.365340
0.398680
0.378118
0.057467
-0.264756
-0.288502
-0.304155
-0.376129
-0.361294
-0.119691
0.003583
0.507710
0.540099
0.172335
-0.150225
0.198573
-0.085765
-0.102631
0.243413
-0.059657
-0.192335
0.496747
-0.059110
-0.498559
-0.498958
0.357445
0.139755
0.166039
0.558062
0.181456
0.051074
-0.019785
-0.637860
-0.620045
-0.087357
-0.116504
-0.483355
-0.511442
-0.488388
0.556357
-0.514261
-0.236037
-0.342748
0.394247
-0.201829
-0.187148
-0.173614
-0.381367
0.017405
-0.017883
0.175987
-0.258708
-0.315787
0.273539
0.291115
0.316361
0.318219
0.301914
0.123945
-0.653227
-0.267184
-0.325766
-0.320012
-0.152918
-0.094383
-0.097383
0.206617
0.221927
-0.126971
-0.196195
0.085701
0.161438
0.237996
0.022628
0.043209
0.044562
0.063920
-0.329643
-0.421800
-0.368342
0.338384
0.332587
0.353114
-0.340254
-0.346980
0.034152
-0.465751
-0.469479
0.034938
0.044530
0.377576
0.029077
-0.530857
-0.577985
-0.528482
-0.403261
0.072027
-0.356175
-0.006415
-0.023742
-0.643705
-0.660081
0.098740
-0.049911
0.052453
-0.357584
0.149334
-0.008199
0.138416
-0.516488
-0.511322
0.186440
-0.406249
-0.544405
-0.535210
-0.580355
-0.475107
-0.360308
-0.290582
-0.267796
0.263924
0.282324
0.288302
-0.430305
-0.402092
-0.016132
-0.019334
-0.461274
-0.450441
-0.472850
-0.140914
-0.123201
-0.341163
-0.443621
0.366795
0.356489
0.015058
-0.490566
-0.492069
-0.530117
-0.501695
-0.497495
0.012617
0.028970
0.240787
0.145737
-0.306641
-0.282777
-0.374534
0.027735
0.060377
0.116608
0.111421
-0.479837
0.024789
0.025860
-0.173348
-0.264420
0.076822
0.054371
-0.353079
-0.303689
-0.043343
0.206528
0.200159
0.307546
-0.504305
0.307420
-0.058793
0.435114
0.442579
-0.529378
-0.525698
-0.074335
-0.067751
-0.150109
-0.167495
0.225363
0.356500
0.138507
-0.247877
0.327260
-0.564840
0.265828
0.209454
0.209663
-0.571972
0.359327
0.154928
0.082676
0.259308
0.244067
0.058144
0.160828
-0.579736
-0.558197
-0.518134
-0.617486
0.433798
0.275018
0.296048
0.279235
0.019619
-0.651190
0.460783
-0.551207
-0.484558
-0.459650
0.006973
0.079265
0.032403
0.290358
0.175493
-0.297924
-0.282616
-0.555455
-0.063343
0.183588
0.225984
-0.617047
-0.603463
-0.283220
0.067808
0.162838
0.074659
0.151503
0.224883
0.204827
0.119645
-0.475434
0.189269
-0.525748
-0.168661
0.250474
0.300994
0.259597
0.237556
0.440163
0.304390
-0.482876
-0.437819
-0.424713
0.409859
0.416574
0.016804
0.346411
-0.330446
-0.349274
-0.343265
0.145215
0.162171
0.155927
0.167337
-0.300123
-0.046109
0.413572
0.183342
-0.420082
-0.271705
-0.650721
-0.235865
0.239771
0.321900
0.325893
-0.330046
-0.345307
-0.630904
0.411829
0.392785
-0.325825
-0.155957
0.025460
0.004022
-0.515990
0.018879
-0.052919
-0.274935
0.428050
0.495037
0.141661
0.091010
0.069429
-0.490628
-0.168145
0.003147
0.024964
-0.510776
0.485790
-0.483611
0.151587
0.144783
-0.637238
0.270955
0.292284
0.237798
-0.205264
0.249954
0.150439
-0.327890
0.358239
-0.313022
0.047309
0.011134
0.029353
-0.387529
0.107933
-0.290230
0.018533
-0.079351
-0.074123
-0.318600
0.503701
0.297301
-0.432072
-0.438544
-0.146435
0.163551
-0.662530
-0.696513
-0.709684
-0.355298
-0.497683
0.272316
-0.347529
0.181187
0.335304
0.339656
-0.032655
-0.296712
-0.327899
-0.426041
0.406332
0.391928
0.197066
0.182545
-0.175638
-0.258354
-0.536560
-0.539277
0.225216
-0.488619
-0.233368
-0.246490
-0.474237
-0.490723
0.234231
0.150152
0.302417
0.251460
-0.283750
0.339754
0.279332
-0.192517
-0.392799
-0.426392
0.275681
0.239943
-0.404213
0.265252
0.138084
-0.520080
0.355753
-0.209595
-0.585791
0.332747
0.318674
-0.190396
-0.183121
-0.430320
-0.505124
0.324187
0.333458
0.341069
-0.063526
0.222379
-0.009785
-0.424463
-0.593308
0.203546
0.211005
-0.431882
-0.460430
0.261056
0.336849
0.030607
0.104455
0.066119
0.320529
0.474960
-0.094365
-0.084853
-0.215603
-0.532548
0.232335
-0.419995
-0.091463
-0.089997
0.043501
0.135254
-0.455154
0.294298
-0.430473
-0.270628
0.338877
-0.388870
-0.294316
-0.348250
-0.465155
-0.121953
-0.069504
-0.449250
0.314916
-0.458427
-0.015991
-0.054854
-0.161164
-0.010373
-0.126131
-0.112588
0.221167
-0.411080
-0.430425
-0.125132
-0.008914
-0.052060
-0.273093
-0.283102
-0.188372
-0.310872
-0.221169
-0.101581
-0.282195
-0.173370
-0.174157
0.051497
-0.384486
0.351375
0.282453
-0.067877
-0.490100
-0.477017
-0.135759
0.119943
0.161081
-0.221081
-0.001586
-0.405055
-0.463365
-0.013536
0.221008
0.270831
0.284113
0.365166
-0.461717
0.161929
-0.416645
-0.350725
-0.430980
0.252368
-0.244346
0.220413
-0.477652
0.154729
0.137913
0.122080
-0.551471
0.023758
-0.220185
-0.282327
0.012316
-0.230384
-0.471587
0.064571
0.284321
-0.196729
-0.333022
-0.016789
SCALARS UY float 1
LOOKUP_TABLE default
-0.000001
-0.000001
-2.209999
-2.210000
-0.572328
-1.580689
-0.000000
-0.000000
-0.000000
-0.000000
-0.000000
-0.000000
-0.000000
-0.000000
-0.000000
-0.000000
-0.000000
-0.000000
-0.000000
-0.000000
-0.000000
-0.000000
-0.195953
-0.341817
-0.474187
-0.598491
-0.717803
-0.831807
-0.939010
-1.036256
-1.127785
-1.210181
-1.299013
-1.400067
-1.524991
-1.676229
-1.845240
-2.025509
-2.210000
-2.210000
-2.210000
-2.210000
-2.210000
-2.210000
-2.210000
-2.210000
-2.210000
-2.210000
-2.210000
-2.210000
-2.210000
-2.210000
-2.210000
-2.210000
-2.066950
-1.925060
-1.786463
-1.650744
-1.522327
-1.401993
-1.291722
-1.193739
-1.103989
-1.023125
-0.939012
-0.839978
-0.721082
-0.573682
-0.410794
-0.229877
-0.580225
-0.602627
-0.627533
-0.641438
-0.658482
-0.687525
-0.706331
-0.719637
-0.733205
-0.746585
-0.757770
-0.775674
-0.793165
-0.804877
-0.822658
-0.835540
-0.845861
-0.860454
-0.873438
-0.887872
-0.899723
-0.911826
-0.922411
-0.937114
-0.950431
-0.955661
-0.972587
-0.988033
-0.998078
-1.013240
-1.025620
-1.038974
-1.054772
-1.059859
-1.073974
-1.082623
-1.091666
-1.106263
-1.112728
-1.128474
-1.138675
-1.152646
-1.162499
-1.180095
-1.195034
-1.209399
-1.223806
-1.240983
-1.255390
-1.270834
-1.290875
-1.304121
-1.315549
-1.335056
-1.352007
-1.370386
-1.390507
-1.407662
-1.422801
-1.449276
-1.478765
-1.500695
-1.515040
-1.527406
-1.544095
-1.562976
-0.089487
-0.048346
-0.107972
-1.341360
-1.389433
-1.415838
-0.058474
-0.789947
-0.795227
-0.728996
-0.202949
-0.228925
-0.235401
-0.261913
-0.598024
-0.563755
-0.585835
-1.364263
-1.359633
-1.382696
-0.884841
-0.935819
-0.902212
-1.226072
-1.237057
-1.307810
-1.370464
-0.724555
-0.664219
-1.615911
-1.640123
-1.609383
-1.636777
-1.545492
-1.585833
-1.590018
-0.033644
-0.080948
-0.040628
-2.138144
-2.074198
-2.074405
-0.976754
-0.969476
-2.016950
-0.912648
-1.142207
-1.178039
-1.163389
-1.362474
-1.347250
-1.366329
-0.524081
-0.493056
-0.491661
-1.334163
-0.804127
-0.835427
-0.876627
-1.102269
-1.071616
-1.093051
-0.075679
-0.812254
-0.751140
-0.774139
-0.077123
-0.056776
-0.722736
-0.097713
-0.917466
-0.939777
-0.851749
-0.739434
-0.741278
-0.707637
-1.092039
-1.060918
-1.047762
-0.712361
-1.103565
-0.250795
-0.260217
-0.235927
-0.285147
-0.876128
-0.849520
-0.839280
-0.815136
-1.279230
-1.240505
-1.292173
-0.778805
-1.095271
-1.022238
-1.029678
-1.111158
-0.149219
-0.108683
-0.123502
-0.596671
-0.575981
-0.560353
-0.797392
-0.243623
-0.269349
-0.258178
-0.944556
-0.905158
-0.969765
-0.288148
-1.522386