# vtk DataFile Version 2.0
Test
ASCII
DATASET POLYDATA
POINTS 1161 float
0.000000 0.000000 0.000000
13.600000 0.000000 0.000000
15.000000 1.400000 0.000000
15.000000 50.000000 0.000000
0.000000 50.000000 0.000000
0.962136 0.000000 0.000000
1.863013 0.000000 0.000000
2.706530 0.000000 0.000000
3.496339 0.000000 0.000000
4.235861 0.000000 0.000000
4.928297 0.000000 0.000000
5.576644 0.000000 0.000000
6.183711 0.000000 0.000000
6.752126 0.000000 0.000000
7.284349 0.000000 0.000000
7.782685 0.000000 0.000000
8.249292 0.000000 0.000000
8.686190 0.000000 0.000000
9.095269 0.000000 0.000000
9.478303 0.000000 0.000000
9.836948 0.000000 0.000000
10.172758 0.000000 0.000000
10.487187 0.000000 0.000000
10.781596 0.000000 0.000000
11.057260 0.000000 0.000000
11.315372 0.000000 0.000000
11.557049 0.000000 0.000000
11.783339 0.000000 0.000000
11.995221 0.000000 0.000000
12.193612 0.000000 0.000000
12.379372 0.000000 0.000000
12.553304 0.000000 0.000000
12.716161 0.000000 0.000000
12.868650 0.000000 0.000000
13.011429 0.000000 0.000000
13.145117 0.000000 0.000000
13.270294 0.000000 0.000000
13.387500 0.000000 0.000000
13.497244 0.000000 0.000000
13.600719 0.044872 0.000000
13.602876 0.089698 0.000000
13.606469 0.134432 0.000000
13.611494 0.179028 0.000000
13.617946 0.223440 0.000000
13.625817 0.267622 0.000000
13.635101 0.311529 0.000000
13.645787 0.355116 0.000000
13.657865 0.398339 0.000000
13.671322 0.441152 0.000000
13.686144 0.483511 0.000000
13.702317 0.525374 0.000000
13.719822 0.566697 0.000000
13.738644 0.607437 0.000000
13.758761 0.647554 0.000000
13.780154 0.687005 0.000000
13.802800 0.725750 0.000000
13.826677 0.763749 0.000000
13.851759 0.800963 0.000000
13.878021 0.837355 0.000000
13.905436 0.872886 0.000000
13.933976 0.907520 0.000000
13.963611 0.941221 0.000000
13.994311 0.973956 0.000000
14.026044 1.005689 0.000000
14.058779 1.036389 0.000000
14.092480 1.066024 0.000000
14.127114 1.094564 0.000000
14.162645 1.121979 0.000000
14.199037 1.148241 0.000000
14.236251 1.173323 0.000000
14.274250 1.197200 0.000000
14.312995 1.219846 0.000000
14.352446 1.241239 0.000000
14.392563 1.261356 0.000000
14.433303 1.280178 0.000000
14.474626 1.297683 0.000000
14.516489 1.313856 0.000000
14.558848 1.328678 0.000000
14.601661 1.342135 0.000000
14.644884 1.354213 0.000000
14.688471 1.364899 0.000000
14.732378 1.374183 0.000000
14.776560 1.382054 0.000000
14.820972 1.388506 0.000000
14.865568 1.393531 0.000000
14.910302 1.397124 0.000000
14.955128 1.399281 0.000000
15.000000 2.391837 0.000000
15.000000 3.383673 0.000000
15.000000 4.375510 0.000000
15.000000 5.367347 0.000000
15.000000 6.359184 0.000000
15.000000 7.351020 0.000000
15.000000 8.342857 0.000000
15.000000 9.334694 0.000000
15.000000 10.326531 0.000000
15.000000 11.318367 0.000000
15.000000 12.310204 0.000000
15.000000 13.302041 0.000000
15.000000 14.293878 0.000000
15.000000 15.285714 0.000000
15.000000 16.277551 0.000000
15.000000 17.269388 0.000000
15.000000 18.261224 0.000000
15.000000 19.253061 0.000000
15.000000 20.244898 0.000000
15.000000 21.236735 0.000000
15.000000 22.228571 0.000000
15.000000 23.220408 0.000000
15.000000 24.212245 0.000000
15.000000 25.204082 0.000000
15.000000 26.195918 0.000000
15.000000 27.187755 0.000000
15.000000 28.179592 0.000000
15.000000 29.171429 0.000000
15.000000 30.163265 0.000000
15.000000 31.155102 0.000000
15.000000 32.146939 0.000000
15.000000 33.138776 0.000000
15.000000 34.130612 0.000000
15.000000 35.122449 0.000000
15.000000 36.114286 0.000000
15.000000 37.106122 0.000000
15.000000 38.097959 0.000000
15.000000 39.089796 0.000000
15.000000 40.081633 0.000000
15.000000 41.073469 0.000000
15.000000 42.065306 0.000000
15.000000 43.057143 0.000000
15.000000 44.048980 0.000000
15.000000 45.040816 0.000000
15.000000 46.032653 0.000000
15.000000 47.024490 0.000000
15.000000 48.016327 0.000000
15.000000 49.008163 0.000000
14.000000 50.000000 0.000000
13.000000 50.000000 0.000000
12.000000 50.000000 0.000000
11.000000 50.000000 0.000000
10.000000 50.000000 0.000000
9.000000 50.000000 0.000000
8.000000 50.000000 0.000000
7.000000 50.000000 0.000000
6.000000 50.000000 0.000000
5.000000 50.000000 0.000000
4.000000 50.000000 0.000000
3.000000 50.000000 0.000000
2.000000 50.000000 0.000000
1.000000 50.000000 0.000000
0.000000 48.979592 0.000000
0.000000 47.959184 0.000000
0.000000 46.938776 0.000000
0.000000 45.918367 0.000000
0.000000 44.897959 0.000000
0.000000 43.877551 0.000000
0.000000 42.857143 0.000000
0.000000 41.836735 0.000000
0.000000 40.816327 0.000000
0.000000 39.795918 0.000000
0.000000 38.775510 0.000000
0.000000 37.755102 0.000000
0.000000 36.734694 0.000000
0.000000 35.714286 0.000000
0.000000 34.693878 0.000000
0.000000 33.673469 0.000000
0.000000 32.653061 0.000000
0.000000 31.632653 0.000000
0.000000 30.612245 0.000000
0.000000 29.591837 0.000000
0.000000 28.571429 0.000000
0.000000 27.551020 0.000000
0.000000 26.530612 0.000000
0.000000 25.510204 0.000000
0.000000 24.489796 0.000000
0.000000 23.469388 0.000000
0.000000 22.448980 0.000000
0.000000 21.428571 0.000000
0.000000 20.408163 0.000000
0.000000 19.387755 0.000000
0.000000 18.367347 0.000000
0.000000 17.346939 0.000000
0.000000 16.326531 0.000000
0.000000 15.306122 0.000000
0.000000 14.285714 0.000000
0.000000 13.265306 0.000000
0.000000 12.244898 0.000000
0.000000 11.224490 0.000000
0.000000 10.204082 0.000000
0.000000 9.183673 0.000000
0.000000 8.163265 0.000000
0.000000 7.142857 0.000000
0.000000 6.122449 0.000000
0.000000 5.102041 0.000000
0.000000 4.081633 0.000000
0.000000 3.061224 0.000000
0.000000 2.040816 0.000000
0.000000 1.020408 0.000000
13.909350 0.941829 0.000000
14.008163 30.163265 0.000000
14.008163 34.130612 0.000000
14.008163 40.081633 0.000000
14.008163 16.277551 0.000000
14.008163 20.244898 0.000000
14.008163 24.212245 0.000000
14.008163 8.342857 0.000000
9.817943 0.353805 0.000000
11.775871 0.218822 0.000000
1.020408 30.612245 0.000000
1.020408 40.816327 0.000000
1.020408 24.489796 0.000000
1.020408 20.408163 0.000000
1.020408 16.326531 0.000000
1.018362 11.223256 0.000000
1.019479 36.734114 0.000000
7.766240 0.481890 0.000000
13.744884 0.708217 0.000000
8.000000 49.000000 0.000000
12.710787 0.157483 0.000000
13.643785 0.498333 0.000000
0.966982 6.081341 0.000000
5.555248 0.626951 0.000000
1.020408 44.897959 0.000000
14.008163 45.040816 0.000000
14.008163 4.375510 0.000000
14.135230 1.157510 0.000000
1.110406 3.998402 0.000000
13.581910 0.276906 0.000000
4.000000 49.000000 0.000000
11.000000 49.000000 0.000000
3.468805 0.753815 0.000000
13.286828 0.128125 0.000000
13.571292 0.182798 0.000000
14.008163 47.024490 0.000000
14.008163 11.318367 0.000000
1.020408 47.959184 0.000000
13.986969 1.039883 0.000000
11.033365 0.256493 0.000000
12.375655 0.180019 0.000000
1.020408 34.693878 0.000000
1.020408 28.571429 0.000000
1.020408 14.285714 0.000000
14.008163 13.302041 0.000000
14.008163 26.195918 0.000000
14.008163 36.114286 0.000000
14.008163 42.065306 0.000000
13.000000 49.000000 0.000000
9.061761 0.377165 0.000000
13.846846 0.875143 0.000000
13.602565 0.367194 0.000000
14.330468 1.278355 0.000000
0.985135 1.963183 0.000000
1.848016 0.860187 0.000000
13.006717 0.138067 0.000000
6.733368 0.549656 0.000000
13.981312 2.366987 0.000000
14.517684 1.371589 0.000000
14.008163 5.367347 0.000000
13.502952 0.103492 0.000000
14.008163 6.359184 0.000000
1.012223 8.075156 0.000000
2.000000 49.000000 0.000000
10.466507 0.317468 0.000000
4.903734 0.664259 0.000000
14.008163 48.016327 0.000000
1.020408 46.938776 0.000000
1.020408 43.877551 0.000000
1.020408 42.857143 0.000000
1.020408 18.367347 0.000000
1.020408 22.448980 0.000000
1.020408 32.653061 0.000000
1.020408 27.551020 0.000000
1.020408 38.775510 0.000000
1.020408 26.530612 0.000000
1.020408 13.265306 0.000000
1.020408 10.204082 0.000000
9.000026 48.999914 0.000000
6.000000 49.000000 0.000000
14.008163 43.057143 0.000000
14.008163 38.097959 0.000000
14.008163 27.187755 0.000000
14.008163 18.261224 0.000000
14.008163 21.236735 0.000000
14.008163 32.146939 0.000000
14.008163 28.179592 0.000000
14.008163 14.293878 0.000000
14.008163 22.228571 0.000000
14.008163 9.334694 0.000000
14.004099 49.004099 0.000000
1.010098 48.989902 0.000000
13.558143 0.093291 0.000000
0.955988 0.955988 0.000000
8.662374 0.425726 0.000000
12.184441 0.198708 0.000000
13.663594 0.544206 0.000000
13.702388 0.624737 0.000000
13.617517 0.413610 0.000000
13.792566 0.798406 0.000000
11.548133 0.250352 0.000000
14.588204 1.384948 0.000000
14.681162 1.411235 0.000000
13.040022 8.144516 0.000000
13.014441 27.185869 0.000000
13.013181 20.242544 0.000000
13.014441 13.300155 0.000000
2.032435 11.216109 0.000000
2.038869 28.569481 0.000000
9.094026 0.740465 0.000000
12.393614 0.391054 0.000000
5.548361 1.269868 0.000000
13.617800 0.568998 0.000000
13.014768 42.063747 0.000000
7.999729 47.999729 0.000000
2.036314 44.892981 0.000000
13.140146 4.499330 0.000000
14.634824 1.474846 0.000000
13.571037 0.432035 0.000000
11.842029 0.443618 0.000000
1.894544 1.771554 0.000000
14.114823 3.610783 0.000000
13.394522 0.087201 0.000000
13.150234 0.115928 0.000000
0.994902 2.908324 0.000000
12.871309 0.135408 0.000000
0.983321 5.064954 0.000000
13.097446 6.278064 0.000000
0.934281 7.060694 0.000000
4.199943 0.690491 0.000000
2.699404 0.770870 0.000000
14.007220 7.350077 0.000000
1.002133 8.995361 0.000000
2.036784 47.955152 0.000000
6.151143 0.575397 0.000000
1.019139 45.917099 0.000000
2.037362 43.875442 0.000000
2.038869 27.549073 0.000000
1.019435 41.835762 0.000000
1.019435 19.386782 0.000000
1.019435 35.713313 0.000000
1.019435 31.631680 0.000000
1.019435 17.345966 0.000000
1.019435 25.509231 0.000000
1.019435 12.243925 0.000000
1.019435 29.590864 0.000000
1.019435 21.427599 0.000000
1.019435 37.754129 0.000000
1.019435 39.794946 0.000000
1.019435 23.468415 0.000000
1.019435 33.672497 0.000000
1.019435 15.305150 0.000000
11.999464 49.000536 0.000000
10.000001 48.999999 0.000000
7.001010 48.998990 0.000000
14.007547 44.048363 0.000000
[...]
POINT_DATA 1161
SCALARS UX float 1
LOOKUP_TABLE default
-307.017924
-2585.902589
-0.000000
0.000000
5.393389
-296.654192
-286.257323
-275.301555
-262.222219
-243.979816
-214.010021
-161.191122
-67.730026
66.177292
121.150572
-84.873212
-85.326484
-98.965590
-241.461470
-273.072006
-363.130367
-689.662121
-775.235378
-325.449249
174.405886
174.611985
167.122312
174.386809
362.602305
229.169394
278.160941
396.931317
440.538017
702.249646
1140.826942
1133.263164
1291.472567
1175.293305
-3087.246347
-2774.366870
-2819.381084
-3011.544676
-3113.522185
-2761.509213
-413.973451
-1689.153920
-222.264405
-659.946229
-493.483591
-586.348041
-671.917069
-896.031044
-1176.959284
-1338.976322
-1378.323216
-1570.409608
-1425.010808
-1676.192351
-1464.114561
-1145.147509
-917.760184
-861.196593
-792.287796
-774.159087
-702.226697
-658.413861
-636.732423
-709.699829
-579.369547
-493.427292
-440.791654
-395.246675
-365.467686
-331.971840
-305.248001
-278.737478
-252.166610
-226.897817
-201.832313
-176.780701
-152.922110
-129.436880
-107.343805
-85.527520
-64.023321
-41.967860
-20.552125
-0.000000
0.000000
0.000000
0.000000
0.000000
0.000000
0.000000
0.000000
0.000000
0.000000
0.000000
0.000000
0.000000
0.000000
0.000000
0.000000
0.000000
0.000000
0.000000
0.000000
0.000000
0.000000
0.000000
0.000000
0.000000
0.000000
0.000000
0.000000
0.000000
0.000000
0.000000
0.000000
0.000000
0.000000
0.000000
0.000000
0.000000
0.000000
0.000000
0.000000
0.000000
0.000000
0.000000
0.000000
0.000000
0.000000
0.000000
0.000000
0.283607
0.567166
0.853047
1.149177
1.453548
1.763640
2.087605
2.434493
2.801390
3.184803
3.595682
4.022890
4.472056
4.930107
5.771532
6.136199
6.493170
6.842672
7.195439
7.563042
7.956561
8.400732
8.889047
9.453060
10.103891
10.859251
11.720024
12.710083
13.848703
15.174425
16.689282
18.410605
20.359911
22.556493
25.017250
27.750165
30.733815
33.981264
37.482606
41.225753
45.228989
49.447387
53.786991
58.109768
62.203347
66.003569
69.048103
71.250495
71.948835
70.902563
66.997047
60.370026
49.528265
32.437026
7.677878
-24.353983
-64.039942
-111.841102
-164.735337
-216.788640
-260.755039
-291.551845
-831.773889
2.642195
1.576246
0.773584
12.025324
8.569335
5.629813
18.986898
-320.142762
-1.714355
20.049493
8.348440
38.156839
56.054858
74.264493
72.084810
11.180961
139.490798
-1469.738407
2.386167
452.984220
-581.389832
-49.578284
-185.174662
6.693263
0.488310
96.804550
-474.996548
-153.553647
663.005919
3.966905
1.328474
-256.551315
1112.700212
-3368.993740
0.408161
15.563679
5.659361
-678.888648
-112.991532
294.982691
13.338699
24.904751
79.360191
14.302973
4.419832
1.223466
0.636872
0.662371
-71.846125
-937.322047
-137.191673
-348.131618
-255.323681
-278.076146
1082.923346
-27.291388
1.646932
-231.616872
60.956024
-2621.828953
36.368423
21.676810
4.845585
223.954211
-218.620883
0.372467
6.009034
7.050929
7.433180
65.736585
46.552798
16.253909
27.788824
9.557771
30.942866
79.709844
62.874550
2.024499
3.147661
0.589099
0.960235
3.902219
10.298334
7.804657
2.033735
3.520754
13.790540
7.065183
17.155678
0.331150
5.301323
-2721.063802
-286.186828
-32.414585
201.291824
-715.047930
-1259.043396
-369.992662
-1544.580163
-26.462881
-195.305807
-145.512267
35.727062
7.768271
17.030776
28.448997
81.591474
24.794134
484.944601
605.957972
-214.970214
-774.595323
1.276081
2.654877
6.204071
135.716267
-149.329916
256.229679
-223.446432
-251.854776
133.213574
1106.520157
1097.454891
-213.076076
718.964760
-98.162665
58.367702
-11.473155
-241.373098
-268.449749
22.923595
43.134379
5.193961
-129.588268
6.351229
6.554286
27.820165
7.871455
60.999032
12.185741
18.031379
70.400437
34.415606
77.195631
22.339076
51.208455
10.316439
8.910828
42.190311
14.702170
77.595314
0.992963
1.672380
2.760019
0.536494
0.448559
0.702295
12.868343
1.811208
15.119179
9.457900
3.043735
1.083018
11.168272
0.862831
16.074570
2.325595
5.006041
6.360514
1.401132
15.490747
3.549213
4.400266
-224.802410
0.740727
357.222325
126.431052
-18.450241
-20.915986
-100.356667
-969.841149
-1449.084966
-235.948802
-397.012574
-2844.782388
-149.772093
-16.553371
6.574888
-3276.339395
-2785.833627
3.133780
9.780083
9.436092
25.129140
1.918050
5.273292
17.666540
82.772355
42.934883
63.363594
24.584612
5.720897
782.885377
-84.719443
3.458988
23.866974
0.980795
1.493959
-53.757151
-52.650284
-209.421770
-46.799321
195.121574
5.869310
11.696559
391.827978
7.350847
2.261115
1.166367
30.899286
27.044090
6.897563
-230.865802
502.852245
-3765.905857
464.461666
-1338.263679
41.121851
-721.602967
-210.496771
-156.410413
41.548167
-187.588451
59.722434
80.434630
1.113360
5.531206
86.682254
73.990792
52.591021
6.936742
22.093929
8.393628
14.259086
34.746983
-220.641082
31.100494
0.819838
20.419587
72.889098
32.873889
1.547316
4.056335
4.299894
13.980571
11.198226
18.751777
8.814116
2.436126
29.785956
1.400274
3.054243
-225.195024
4.731216
-268.683937
-249.023691
83.353507
963.564905
915.051622
-1393.414721
391.871262
-75.530016
-100.151593
52.205329
45.247645
1.901718
71.019855
-142.079866
11.482638
-213.609098
179.905272
461.807030
561.158774
2.905538
-492.377812
1087.044763
-1138.349533
-228.748957
21.831526
88.966932
6.443623
85.049735
41.733727
-180.730924
-213.974326
-124.210382
1202.687322
-34.946976
-703.724720
249.276464
-1044.831707
39.113236
5.394478
4.604930
1.242184
85.226941
6.065481
10.679124
86.658103
9.041327
57.826166
68.451787
19.751378
38.707359
78.232088
47.607688
15.849142
7.847395
12.896433
31.154137
27.643726
1.874730
31.648170
0.898594
1.716757
4.623331
3.879547
5.056639
20.493538
23.088538
12.596697
22.149261
2.765971
3.578588
1.070347
9.919851
3.324699
2.302198
2.151567
25.503879
6.019745
30.142512
27.775474
649.351805
-257.387069
-238.370291
-79.525781
-3495.070703
-5226.582408
-990.105851
-47.201343
-1435.646312
278.565342
197.585913
1054.936569
3.609523
26.684941
39.198075
7.781433
7.887770
90.113735
10.168710
13.813201
75.993567
43.387900
21.416100
-110.653694
632.933306
1.470399
3.144628
5.583835
-21.303960
232.020103
4.909163
64.564396
27.279868
484.204719
5.998459
10.130774
35.212855
16.473639
3.740572
-193.199959
602.394707
-4400.835467
912.569108
-219.104171
-47.770704
52.519887
-64.861627
121.796984
17.283929
82.137370
-1210.192554
19.431070
61.371714
708.307100
34.912756
53.551006
91.372229
7.332112
11.211903
6.862601
2.067920
85.689332
9.284311
1.655134
2.486237
32.881006
4.636341
2.848541
2.089841
44.075375
13.018558
47.093184
46.241719
1.740592
39.987664
2.558425
32.753911
-264.299393
-5837.560022
18.457888
112.063125
1.352522
-277.364776
4.170535
-163.222832
570.602277
-128.663480
178.008702
173.486353
-261.658860
-160.366756
-196.477301
-1426.254677
60.338142
60.455704
54.442592
3.033106
9.658629
66.000468
141.118085
93.556473
14.979131
6.836753
92.188078
136.101787
820.266942
-80.547907
-41.418732
-4.143601
-128.150580
295.836213
2.515557
-177.417291
-1025.571893
551.914680
624.816622
-151.350840
-748.780130
38.080374
263.063201
18.931769
151.302529
-2016.140713
-498.301067
48.296651
5.247492
-316.744652
1.811725
91.733802
18.907995
91.011525
6.360041
5.948326
34.602324
12.429408
81.546504
70.695975
48.303436
15.432053
39.035510
79.842007
24.182755
58.331379
8.535382
58.979092
30.701469
3.590121
4.461177
1.601684
37.677124
29.846394
5.291178
3.200603
36.332234
14.651179
6.855385
2.259190
2.704316
-270.916092
8.885846
3.744205
4.097807
45.813893
42.748913
23.931013
-24.724521
-114.105573
-269.736620
947.974143
-306.812076
-678.949999
285.354024
12.128557
-164.399845
-305.294590
6.067767
32.349819
47.746252
10.141946
74.732130
5.463590
71.434281
48.343141
18.298648
29.948660
158.064452
138.418303
-18.568891
-158.159453
105.961332
2.449742
-107.266724
3.392712
823.984456
4.756307
38.792626
14.900004
94.472475
-275.519661
13.113030
49.077739
2.309340
-121.916414
45.593420
518.305451
-177.692294
-162.168748
106.717780
-636.892282
476.889507
-44.087640
60.921602
88.724729
159.612920
95.042850
8.782988
5.868022
1.954122
16.787544
59.268974
11.893057
82.467857
87.418621
20.766584
56.872667
59.537767
8.015029
64.997530
10.693139
7.384334
23.512322
16.972475
39.834751
7.852840
3.372184
2.762445
29.809540
55.346380
4.202887
4.718204
51.596040
21.447759
4.009432
887.891663
-93.069895
-216.793467
647.327723
-344.794800
-913.999320
-348.960444
-64.232111
-142.234513
137.664990
-94.480910
-750.759151
-1092.101215
24.926548
-300.630308
474.683580
70.510485
65.340591
4.606285
11.296652
71.967750
92.272733
96.156615
3.112975
18.139458
6.863440
87.178914
8.238779
17.497843
4.975215
-340.428682
374.039490
14.550005
-1059.936193
319.133058
1582.275638
573.949314
3.860047
659.792159
-71.878109
902.877642
59.704866
-172.881592
141.100218
85.969850
234.761488
73.110746
-89.496626
5.107920
-1224.396226
85.223382
14.329390
363.069937
43.533701
16.205667
13.298829
65.205071
53.824803
6.327271
69.620961
37.991806
33.865643
91.329319
19.844213
26.452189
76.429030
10.117174
94.793144
3.737976
2.923164
43.822603
8.973449
19.117922
2.123245
6.901000
36.026442
51.995190
5.338795
-400.860738
5.778222
11.570736
25.783661
29.141092
59.639982
4.302622
-784.860834
543.035834
339.605584
-93.163400
-336.584753
-71.699968
429.286840
898.599508
-50.326102
-109.438857
-134.260131
45.339034
101.489474
641.086883
-327.721613
667.477472
-693.533239
55.213265
37.397301
7.410063
73.388796
151.728901
86.744364
94.863414
64.069771
12.364157
5.803319
36.591377
64.597598
47.915004
10.610410
25.468502
-34.745891
78.525820
-403.779754
443.038483
16.387668
199.945188
-333.412573
20.394594
2.859280
-79.225959
153.191101
-1004.874602
-449.921699
-40.055212
379.363739
691.143278
3.715149
4.142596
755.131273
-25.746949
-243.142651
42.488402
66.889634
15.338632
95.485829
12.683818
7.501834
82.185383
70.881324
5.357978
22.412458
71.591156
76.563692
91.279216
942.683022
9.097465
32.478648
53.238803
9.556589
68.038432
4.139760
46.026305
29.853259
1811.011594
5.164890
4.574409
3.406046
15.973318
23.069440
62.651188
2.645674
6.526531
-827.484234
-397.679337
-1785.886847
1892.481944
427.363480
-1268.970504
386.915116
465.825779
98.588417
39.706019
5.406205
75.451280
3.688557
6.767436
21.385761
89.292444
6.936727
14.404483
79.803364
46.299508
-1317.434316
-444.790458
68.386205
-803.327471
35.541650
94.594708
11.926281
76.743034
101.565524
68.365342
4.459594
34.529871
21.074837
26.784876
-39.586786
59.202190
-405.325167
41.196010
78.079746
92.815481
13.561020
6.314884
58.569760
4.864432
18.637543
3.140278
92.813116
73.816989
7.650162
9.461352
70.306337
28.794920
4.408226
10.880386
78.669934
33.520325
50.332810
14.072528
8.369170
41.388271
59.632839
7.982114
188.117248
8.869698
157.325081
749.575000
-310.450154
332.834924
186.127537
-844.770804
-979.432066
-27.533668
-889.005807
51.688568
749.961903
614.560053
-62.875440
54.812958
61.572999
-721.524346
33.225270
76.032482
-381.978767
-6.528181
62.702546
-490.945211
81.163200
92.143297
91.090349
88.699244
71.463358
11.138230
5.238016
12.741785
41.771827
11.095131
14.344609
6.305256
74.045863
57.057069
51.117105
23.982224
67.744062
18.739655
-379.449079
-724.737246
38.845154
49.311352
84.584916
-888.023939
84.933944
84.889011
51.234691
8.481673
8.735396
30.355717
77.200614
4.863956
7.626319
3.380871
6.034255
4.023956
29.330568
71.270760
9.856798
-793.268872
3.934801
33.231988
13.208408
17.041396
23.639098
652.522436
101.092900
-0.917946
31.699988
84.887370
7.807576
-674.058570
11.279979
-732.291538
-25.267469
-486.173714
-411.192214
66.165227
88.389782
6.973819
-560.694437
86.014678
38.561878
72.842639
27.151762
5.736085
9.802064
15.006783
61.959626
16.378562
46.149139
12.651989
56.656283
65.899634
84.261641
75.498426
83.210055
4.263523
5.052445
6.158191
9.728454
80.586612
11.464780
22.785659
7.663393
43.448933
69.980493
37.183945
19.412758
26.020328
53.900984
-349.692981
38.036480
-643.834008
29.665768
-761.202595
8.701963
-674.354472
-639.043747
-580.187924
50.947658
-575.634431
-18.045799
8.622356
59.976065
79.713258
75.416307
65.176078
4.624868
5.567100
48.574164
6.861450
59.157236
-713.436327
-449.224944
33.786182
-46.548637
-584.017963
10.456572
136.708534
-546.645323
41.767034
SCALARS UY float 1
LOOKUP_TABLE default
0.000000
-0.000000
-1400.562559
-508.360088
-512.569614
-0.000000
-0.000000
-0.000000
-0.000000
-0.000000
-0.000000
-0.000000
-0.000000
-0.000000
0.000000
0.000000
-0.000000
0.000000
-0.000000
0.000000
-0.000000
-0.000000
0.000000
-0.000000
0.000000
-0.000000
-0.000000
0.000000
0.000000
0.000000
-0.000000
-0.000000
-0.000000
-0.000000
0.000000
0.000000
0.000000
0.000000
-0.000000
-71.862090
741.809910
-268.663999
-772.518990
-1729.104712
-2067.049559
-2826.527208
-3012.816854
-1591.905349
-1364.252755
-1222.983162
-1110.659239
-973.412099
-875.036669
-884.439179
-899.954511
-1091.009840
-1197.826443
-1152.030127
-1272.218875
-1420.520319
-1502.540442
-1496.065587
-1505.813829
-1475.945494
-1497.272251
-1506.937919
-1494.654014
-1283.960737
-1340.942213
-1377.956399
-1418.957451
-1425.598169
-1418.006155
-1415.064374
-1410.643916
-1404.528237
-1399.964765
-1395.266690
-1390.322725
-1387.305715
-1383.156123
-1381.111954
-1379.763992
-1382.641411
-1385.648112
-1390.931691
-1395.947070
-1384.968423
-1197.662114
-1003.254129
-906.400396
-845.711285
-797.470858
-765.774772
-738.476003
-713.611248
-691.551816
-671.025970
-652.672270
-635.588832
-619.979334
-606.399097
-593.702714
-582.820425
-572.649253
-564.143228
-556.237250
-549.303187
-543.196982
-538.265151
-533.641624
-530.004705
-526.618403
-523.727777
-521.227224
-519.353837
-517.574130
-516.231166
-514.942572
-513.988391
-513.072039
-512.406355
-511.767362
-511.299854
-510.841844
-510.498811
-510.157101
-509.894336
-509.627147
-509.385171
-509.193595
-508.993133
-508.831303
-508.660596
-508.503368
-508.402133
-508.489536
-508.600669
-508.771355
-508.972225
-509.244606
-509.542474
-509.870108
-510.244648
-510.620456
-511.021493
-511.420055
-511.814066
-512.198212
-512.771322
-512.980866
-513.201405
-513.441250
-513.705077
-513.995967
-514.315595
-514.663217
-515.033885
-515.427327
-515.833826
-516.246941
-516.656186
-517.051424
-517.416550
-517.731586
-517.964941
-518.093117
-518.079905
-517.881761
-517.447914
-516.710838
-515.589206
-514.007399
-511.870777
-509.087788
-505.520874
-500.989052
-495.296191
-488.226328
-479.557891
-469.054001
-456.392345
-441.331593
-423.449124
-402.487967
-377.990549
-349.816074
-317.592855
-281.352388
-241.118610
-198.766115
-155.562678
-114.299542
-77.678306
-47.330949
-25.668803
-10.383407
-1459.914621
-519.189896
-513.922188
-510.496496
-604.852354
-563.093144
-537.725620
-760.368490
442.132358
141.218986
-516.241497
-514.480684
-509.076204
-492.739292
-456.948244
-363.635036
-515.751191
370.164568
-998.327270
-509.695448
-187.227403
-1307.611297
-193.093182
-99.971052
-513.309581
-509.209145
-954.280626
-1535.466005
-121.429322
-675.117204
-511.201437
-508.909811
-45.503607
399.796891
-407.722619
-508.846837
-688.868042
-512.600806
-1504.934462
-289.432049
-131.333306
-516.251862
-515.247145
-427.690288
-650.449313
-529.566126
-512.359645
-509.902079
-508.608169
82.641579
-1370.393160
-2082.223247
-1427.257839
-52.108553
-31.438505
102.086783
-142.883353
-1320.058685
-1407.297887
-873.846809
-510.485211
-823.926090
-268.509014
-512.009879
-1299.411793
-73.277465
-508.681628
-512.823507
-513.577537
-513.861847
-478.018793
-502.646362
-516.482144
-514.336581
-515.122405
-513.065976
-409.407412
-336.621143
-509.376838
-510.405248
-509.642741
-511.283234
-526.397988
-581.575971
-555.492248
-516.136016
-523.521978
-633.649976
-548.778778
-734.216480
-508.532965
-512.395165
-322.618485
-24.875648
-53.418396
92.192911
-1235.064604
-1016.709635
-1400.440232
-1102.438402
-109.630872
-1399.243194
-1392.169608
-753.474617
-525.634941
-560.851218
-644.456394
-385.048351
-513.773007
-413.129339
-301.250045
-165.493064
-1463.541599
-509.951602
-509.852695
-512.879576
-842.376454
-1405.049568
-1869.324217
164.750972
-65.207422
-1059.993760
462.941643
124.709983
-80.543158
-121.452652
-155.282120
-803.586062
-228.509972
-54.893352
-36.598397
-790.262156
-299.396603
-512.203008
-132.090103
-513.059442
-513.125524
-512.832203
-514.166135
-486.031827
-516.023267
-516.439427
-468.311663
-511.326018
-387.888186
-515.853981
-498.194125
-515.444446
-514.801596
-506.225658
-516.410994
-443.377798
-508.732828
-509.122806
-510.033201
-509.423107
-509.025886
-510.190081
-618.645006
-514.929919
-668.813887
-571.903108
-521.229517
-511.796757
-592.695130
-510.874299
-710.707882
-517.571546
-533.430483
-542.939992
-513.074868
-553.536341
-510.795576
-511.608483
-1438.588063
-508.755712
-234.994952
28.773795
-88.645133
-342.785660
-388.799914
-1150.539751
-993.493054
106.199127
-1300.613960
-468.958624
-1740.222309
-217.567896
298.776704
-158.398977
-214.710886
-513.811307
-514.687264
-270.283768
-556.922960
-511.308715
-518.875144
-515.157280
-451.020629
-505.108603
-487.246560
-512.955378
-512.425137
98.516378
-192.205007
-510.573207
-600.868773
-509.283190
-509.052150
-198.516245
725.369996
-101.996070
-246.652718
-879.346183
-512.643548
-515.104237
-327.173664
-513.641313
-509.542687
-509.717914
-681.193442
-628.502951
-522.991127
-104.172638
1165.995855
-197.725586
-1009.643620
-1211.092551
-255.906102
-1479.266786
-1025.568532
1089.427607
-780.305816
-1414.965389
-336.282351
-826.283443
-508.874822
-512.414688
-405.361773
-471.995140
-497.841498
-513.379398
-514.451728
-514.175042
-515.300078
-509.872807
-129.261106
-511.516085
-508.909168
-578.523628
-362.440256
-724.638236
-510.541533
-515.886290
-511.379090
-546.968723
-536.518245
-569.139040
-528.739376
-512.361693
-662.103573
-510.229583
-510.203525
-209.824851
-511.786030
-87.008851
-71.963460
-194.031135
-865.422255
-889.731698
-1043.218709
-445.028394
-1397.621643
-1387.383134
-763.484191
-668.974723
-510.060308
-373.238776
-297.837632
-524.513235
887.827236
-748.130300
-1089.066802
-367.772996
-510.026710
-1503.766218
-1523.168431
-128.794002
-1418.712681
-513.566260
-412.714726
-512.886503
-437.666106
-634.619129
-190.375765
-112.500544
-166.271863
496.509234
-231.026724
-1063.056398
-932.763124
1644.092947
-304.868826
-512.206098
-511.559455
-509.035984
-791.242804
-512.652209
-514.913239
-422.495828
-514.437932
-492.981682
-480.128926
-514.888054
-507.759163
-462.144215
-501.832799
-515.284092
-513.909559
-515.232313
-511.100483
-512.141726
-509.274845
-702.161304
-509.089828
-510.896852
-517.260738
-510.977019
-511.985025
-544.203769
-549.899102
-541.320080
-589.074352
-513.044953
-514.796180
-509.491535
-532.347140
-510.370120
-510.618503
-511.790052
-613.986979
-520.769400
-573.377975
-564.646647
154.735690
-259.475818
-90.077139
-1397.730191
-1525.446594
-2973.919194
-1298.735145
659.955672
-1083.376311
-719.869234
-376.447799
-914.385442
-512.314650
-540.411625
-566.341065
-518.346912
-513.578630
-452.792543
-514.177046
-514.447914
-478.999664
-505.659323
-513.231622
950.308334
379.840398
-509.403588
-510.196643
-512.182332
-270.266304
-683.344266
-511.752963
-491.002570
-512.182917
-352.558150
-515.624055
-522.103738
-594.106528
-534.616466
-510.742080
-147.027533
739.825249
-154.101178
-759.446042
-1430.292005
159.789751
-346.161361
-234.084913
-795.353370
-514.261436
-394.250183
414.357520
-513.995442
-779.070672
-250.605409
-509.678166
-499.610483
-427.461661
-513.347881
-514.317791
-513.119028
-509.437577
-462.714095
-513.998872
-509.221015
-509.717062
-551.542815
-513.673820
-511.343101
-510.323141
-651.058454
-527.374142
-709.758046
-688.508183
-509.826707
-619.750536
-510.955279
-583.159866
-1427.557203
-2698.151987
-539.012278
-1207.197202
-509.214681
-1396.117797
-511.145850
-231.001135
-76.829630
-399.576669
-475.784000
-577.850074
-864.414098
-157.618552
-153.996471
-1059.372098
-747.506802
-690.023918
-620.885316
-510.735713
-513.554423
-396.088956
-500.546327
-443.323172
-522.993127
-512.821086
-470.998858
-817.942676
-726.331912
-438.806601
-797.897609
-315.514634
-259.194528
-617.530590
-510.206776
102.721059
-775.471288
-597.518911
1254.061527
-187.787422
-1457.874566
-440.480017
-497.200159