# vtk DataFile Version 2.0
Test
ASCII
DATASET POLYDATA
POINTS 1818 float
0.000000 0.000000 0.000000
1.000000 0.000000 0.000000
1.000000 1.000000 0.000000
0.000000 1.000000 0.000000
0.300000 0.330000 0.000000
0.700000 0.680000 0.000000
0.058824 0.000000 0.000000
0.117647 0.000000 0.000000
0.176471 0.000000 0.000000
0.235294 0.000000 0.000000
0.294118 0.000000 0.000000
0.352941 0.000000 0.000000
0.411765 0.000000 0.000000
0.470588 0.000000 0.000000
0.529412 0.000000 0.000000
0.588235 0.000000 0.000000
0.647059 0.000000 0.000000
0.705882 0.000000 0.000000
0.764706 0.000000 0.000000
0.823529 0.000000 0.000000
0.882353 0.000000 0.000000
0.941176 0.000000 0.000000
1.000000 0.058824 0.000000
1.000000 0.117647 0.000000
1.000000 0.176471 0.000000
1.000000 0.235294 0.000000
1.000000 0.294118 0.000000
1.000000 0.352941 0.000000
1.000000 0.411765 0.000000
1.000000 0.470588 0.000000
1.000000 0.529412 0.000000
1.000000 0.588235 0.000000
1.000000 0.647059 0.000000
1.000000 0.705882 0.000000
1.000000 0.764706 0.000000
1.000000 0.823529 0.000000
1.000000 0.882353 0.000000
1.000000 0.941176 0.000000
0.941176 1.000000 0.000000
0.882353 1.000000 0.000000
0.823529 1.000000 0.000000
0.764706 1.000000 0.000000
0.705882 1.000000 0.000000
0.647059 1.000000 0.000000
0.588235 1.000000 0.000000
0.529412 1.000000 0.000000
0.470588 1.000000 0.000000
0.411765 1.000000 0.000000
0.352941 1.000000 0.000000
0.294118 1.000000 0.000000
0.235294 1.000000 0.000000
0.176471 1.000000 0.000000
0.117647 1.000000 0.000000
0.058824 1.000000 0.000000
0.000000 0.941176 0.000000
0.000000 0.882353 0.000000
0.000000 0.823529 0.000000
0.000000 0.764706 0.000000
0.000000 0.705882 0.000000
0.000000 0.647059 0.000000
0.000000 0.588235 0.000000
0.000000 0.529412 0.000000
0.000000 0.470588 0.000000
0.000000 0.411765 0.000000
0.000000 0.352941 0.000000
0.000000 0.294118 0.000000
0.000000 0.235294 0.000000
0.000000 0.176471 0.000000
0.000000 0.117647 0.000000
0.000000 0.058824 0.000000
0.305970 0.335224 0.000000
0.311940 0.340448 0.000000
0.317910 0.345672 0.000000
0.323881 0.350896 0.000000
0.329851 0.356119 0.000000
0.335821 0.361343 0.000000
0.341791 0.366567 0.000000
0.347761 0.371791 0.000000
0.353731 0.377015 0.000000
0.359701 0.382239 0.000000
0.365672 0.387463 0.000000
0.371642 0.392687 0.000000
0.377612 0.397910 0.000000
0.383582 0.403134 0.000000
0.389552 0.408358 0.000000
0.395522 0.413582 0.000000
0.401493 0.418806 0.000000
0.407463 0.424030 0.000000
0.413433 0.429254 0.000000
0.419403 0.434478 0.000000
0.425373 0.439701 0.000000
0.431343 0.444925 0.000000
0.437313 0.450149 0.000000
0.443284 0.455373 0.000000
0.449254 0.460597 0.000000
0.455224 0.465821 0.000000
0.461194 0.471045 0.000000
0.467164 0.476269 0.000000
0.473134 0.481493 0.000000
0.479104 0.486716 0.000000
0.485075 0.491940 0.000000
0.491045 0.497164 0.000000
0.497015 0.502388 0.000000
0.502985 0.507612 0.000000
0.508955 0.512836 0.000000
0.514925 0.518060 0.000000
0.520896 0.523284 0.000000
0.526866 0.528507 0.000000
0.532836 0.533731 0.000000
0.538806 0.538955 0.000000
0.544776 0.544179 0.000000
0.550746 0.549403 0.000000
0.556716 0.554627 0.000000
0.562687 0.559851 0.000000
0.568657 0.565075 0.000000
0.574627 0.570299 0.000000
0.580597 0.575522 0.000000
0.586567 0.580746 0.000000
0.592537 0.585970 0.000000
0.598507 0.591194 0.000000
0.604478 0.596418 0.000000
0.610448 0.601642 0.000000
0.616418 0.606866 0.000000
0.622388 0.612090 0.000000
0.628358 0.617313 0.000000
0.634328 0.622537 0.000000
0.640299 0.627761 0.000000
0.646269 0.632985 0.000000
0.652239 0.638209 0.000000
0.658209 0.643433 0.000000
0.664179 0.648657 0.000000
0.670149 0.653881 0.000000
0.676119 0.659104 0.000000
0.682090 0.664328 0.000000
0.688060 0.669552 0.000000
0.694030 0.674776 0.000000
0.516135 0.080917 0.000000
0.549338 0.042552 0.000000
0.567302 0.088709 0.000000
0.555658 0.563778 0.000000
0.559301 0.571359 0.000000
0.552318 0.570919 0.000000
0.603235 0.047100 0.000000
0.446553 0.448087 0.000000
0.438652 0.443189 0.000000
0.445116 0.440368 0.000000
0.437254 0.190586 0.000000
0.465954 0.201747 0.000000
0.439184 0.213838 0.000000
0.453137 0.228102 0.000000
0.522423 0.410182 0.000000
0.522098 0.390982 0.000000
0.537289 0.398500 0.000000
0.453388 0.527105 0.000000
0.462022 0.524948 0.000000
0.461218 0.533993 0.000000
0.324300 0.374550 0.000000
0.319287 0.386214 0.000000
0.314834 0.375138 0.000000
0.668809 0.628853 0.000000
0.677366 0.632907 0.000000
0.668274 0.639611 0.000000
0.469934 0.529282 0.000000
0.439703 0.436699 0.000000
0.446608 0.432083 0.000000
0.542854 0.633425 0.000000
0.535117 0.647070 0.000000
0.524302 0.633157 0.000000
0.519372 0.648877 0.000000
0.586338 0.611293 0.000000
0.591638 0.624149 0.000000
0.575478 0.621479 0.000000
0.437962 0.035513 0.000000
0.421505 0.085456 0.000000
0.394924 0.044162 0.000000
0.445207 0.955749 0.000000
0.429168 0.919510 0.000000
0.464409 0.914226 0.000000
0.317150 0.400904 0.000000
0.328626 0.395860 0.000000
0.439616 0.884412 0.000000
0.330406 0.381773 0.000000
0.676842 0.602700 0.000000
0.674982 0.614185 0.000000
0.665930 0.611798 0.000000
0.414707 0.535036 0.000000
0.420123 0.526072 0.000000
0.425338 0.533771 0.000000
0.398407 0.375558 0.000000
0.393804 0.363255 0.000000
0.407284 0.365452 0.000000
0.407758 0.523337 0.000000
0.899969 0.377867 0.000000
0.945915 0.378245 0.000000
0.914158 0.409130 0.000000
0.358219 0.436142 0.000000
0.361390 0.425428 0.000000
0.369309 0.432300 0.000000
0.465999 0.075074 0.000000
0.269944 0.367761 0.000000
0.266521 0.352125 0.000000
0.283474 0.357667 0.000000
0.385889 0.083020 0.000000
0.359482 0.060981 0.000000
0.279658 0.346766 0.000000
0.363604 0.104040 0.000000
0.511115 0.503731 0.000000
0.503243 0.499914 0.000000
0.509146 0.494910 0.000000
0.513188 0.475753 0.000000
0.504957 0.474656 0.000000
0.511959 0.464784 0.000000
0.311863 0.447505 0.000000
0.293019 0.442078 0.000000
0.305555 0.431691 0.000000
0.499204 0.464990 0.000000
0.293855 0.459576 0.000000
0.396676 0.236328 0.000000
0.371014 0.247362 0.000000
0.373003 0.229199 0.000000
0.384478 0.261522 0.000000
0.555704 0.523331 0.000000
0.551313 0.515879 0.000000
0.562752 0.515269 0.000000
0.554954 0.506854 0.000000
0.804236 0.611103 0.000000
0.819351 0.593503 0.000000
0.832061 0.615776 0.000000
0.509908 0.485173 0.000000
0.129738 0.481190 0.000000
0.110722 0.443736 0.000000
0.154857 0.452634 0.000000
0.089738 0.485299 0.000000
0.396427 0.153886 0.000000
0.393058 0.115469 0.000000
0.420333 0.126587 0.000000
0.442628 0.413512 0.000000
0.434815 0.404283 0.000000
0.446816 0.400259 0.000000
0.499770 0.482873 0.000000
0.353883 0.235057 0.000000
0.351360 0.254011 0.000000
0.332147 0.240870 0.000000
0.112307 0.405527 0.000000
0.140355 0.392788 0.000000
0.142004 0.423465 0.000000
0.334868 0.263052 0.000000
0.551239 0.594093 0.000000
0.560217 0.601969 0.000000
0.546711 0.604614 0.000000
0.398510 0.570197 0.000000
0.387124 0.557316 0.000000
0.399978 0.555748 0.000000
0.705281 0.743146 0.000000
0.722930 0.758853 0.000000
0.697202 0.758074 0.000000
0.380190 0.572638 0.000000
0.278345 0.431947 0.000000
0.292575 0.428097 0.000000
0.470820 0.540616 0.000000
0.478213 0.533042 0.000000
0.480161 0.543190 0.000000
0.415268 0.299334 0.000000
0.412465 0.313515 0.000000
0.400419 0.297680 0.000000
0.396495 0.317117 0.000000
0.718655 0.732879 0.000000
0.709319 0.677587 0.000000
0.715709 0.670111 0.000000
0.719283 0.682820 0.000000
0.212992 0.453899 0.000000
0.184619 0.470046 0.000000
0.186665 0.440862 0.000000
0.452307 0.386568 0.000000
0.460371 0.397715 0.000000
0.478664 0.456068 0.000000
0.476179 0.462123 0.000000
0.471250 0.456445 0.000000
0.464654 0.388544 0.000000
0.483415 0.461045 0.000000
0.357146 0.449596 0.000000
0.344653 0.443966 0.000000
0.554562 0.459423 0.000000
0.543333 0.457517 0.000000
0.553850 0.449505 0.000000
0.543131 0.445036 0.000000
0.347312 0.459318 0.000000
0.781088 0.538918 0.000000
0.810909 0.534152 0.000000
0.799399 0.553968 0.000000
0.402869 0.534333 0.000000
0.408011 0.546121 0.000000
0.703844 0.670118 0.000000
0.552234 0.794299 0.000000
0.528593 0.795589 0.000000
0.539188 0.770312 0.000000
0.596088 0.518714 0.000000
0.593029 0.508081 0.000000
0.604120 0.510731 0.000000
0.384880 0.468703 0.000000
0.382270 0.455963 0.000000
0.394062 0.458803 0.000000
0.374729 0.466839 0.000000
0.340939 0.294790 0.000000
0.324530 0.290188 0.000000
0.338473 0.279923 0.000000
0.465367 0.336545 0.000000
0.477337 0.352846 0.000000
0.459495 0.350024 0.000000
0.584947 0.516440 0.000000
0.326802 0.302636 0.000000
0.945343 0.420397 0.000000
0.779746 0.749037 0.000000
0.771533 0.774140 0.000000
0.758291 0.749848 0.000000
0.743435 0.765852 0.000000
0.751942 0.297541 0.000000
0.784264 0.292048 0.000000
0.772562 0.330207 0.000000
0.812744 0.305799 0.000000
0.655547 0.494535 0.000000
0.649767 0.472522 0.000000
0.671966 0.480244 0.000000
0.612062 0.502007 0.000000
0.616789 0.515227 0.000000
0.403059 0.898561 0.000000
0.391512 0.946883 0.000000
0.625780 0.504699 0.000000
0.635988 0.491275 0.000000
0.596252 0.650380 0.000000
0.583401 0.655132 0.000000
0.583737 0.644777 0.000000
0.713099 0.416502 0.000000
0.708474 0.388943 0.000000
0.733625 0.389568 0.000000
0.684835 0.406222 0.000000
0.656936 0.416423 0.000000
0.633624 0.425116 0.000000
0.634362 0.400237 0.000000
0.646884 0.740682 0.000000
0.654954 0.726002 0.000000
0.663305 0.741855 0.000000
0.732481 0.441235 0.000000
0.751303 0.460839 0.000000
0.721338 0.462235 0.000000
0.759622 0.437863 0.000000
0.462761 0.363156 0.000000
0.373644 0.622389 0.000000
0.346217 0.613642 0.000000
0.370315 0.594521 0.000000
0.351411 0.640635 0.000000
0.695337 0.690220 0.000000
0.705202 0.700133 0.000000
0.692303 0.700990 0.000000
0.521365 0.516400 0.000000
0.522992 0.510597 0.000000
0.527633 0.513574 0.000000
0.291567 0.329512 0.000000
0.294927 0.318154 0.000000
0.365771 0.366553 0.000000
0.366135 0.358691 0.000000
0.374180 0.368122 0.000000
0.408232 0.327056 0.000000
0.423479 0.328280 0.000000
0.411272 0.339740 0.000000
0.664110 0.670607 0.000000
0.667245 0.662649 0.000000
[...]
POINT_DATA 1818
SCALARS UX float 1
LOOKUP_TABLE default
-0.000006
0.000005
0.563644
-5.817077
-2.079676
-0.101306
0.000001
-0.000001
0.000000
-0.000000
-0.000000
-0.000000
-0.000000
-0.000000
-0.000000
-0.000000
0.000000
0.000000
0.000000
0.000000
0.000001
-0.000000
0.882867
1.360953
1.715048
2.031953
2.306878
2.554105
2.774789
2.950455
3.071282
3.114781
3.034142
2.866237
2.552471
2.049510
1.403725
0.912303
-0.308216
-0.927610
-1.335204
-1.635526
-1.867314
-2.066248
-2.275665
-2.510438
-2.788097
-3.109441
-3.460026
-3.831975
-4.217080
-4.609307
-5.001560
-5.409211
-5.755972
-5.708513
-5.685644
-5.673651
-5.676325
-5.687622
-5.694460
-5.676857
-5.602571
-5.453148
-5.211811
-4.827618
-4.278085
-3.545701
-2.550754
-1.563888
-2.054760
-1.957539
-1.931029
-1.715931
-1.676350
-1.588912
-2.159121
-2.110681
-2.041961
-2.000937
-1.978597
-1.954337
-1.931373
-1.922671
-1.884452
-1.860962
-1.849793
-1.820324
-1.794049
-1.758842
-1.733195
-1.699649
-1.670797
-1.633420
-1.601620
-1.577836
-1.534210
-1.496153
-1.471779
-1.432948
-1.408871
-1.378893
-1.334009
-1.303984
-1.242747
-1.201031
-1.161762
-1.107098
-1.071118
-1.008160
-0.969302
-0.924377
-0.896660
-0.862115
-0.834344
-0.805778
-0.778181
-0.739742
-0.713968
-0.682147
-0.636244
-0.613956
-0.589571
-0.552802
-0.525672
-0.488076
-0.457986
-0.398296
-0.298622
-0.300709
-0.266043
-0.231536
-0.196222
-0.132395
-0.104898
-0.115804
-0.045947
-0.017458
0.000876
-1.784070
-1.941365
-2.189096
0.010183
-0.851103
-1.009115
-0.581009
-0.197836
-0.128858
-0.201743
-0.156788
0.433994
0.394542
0.476519
-3.330120
-3.237211
-3.285195
-3.240507
-3.424527
-3.321253
0.751627
0.820140
0.421454
-3.177837
-0.657097
-0.281325
-2.738327
-2.776492
-2.872719
-2.877421
-2.146538
-2.207598
-2.422265
-0.043173
-0.107628
-0.059358
-2.902963
-2.992041
-2.798754
-3.730187
-3.537659
-2.951170
-3.310911
1.257016
1.041976
0.997037
-3.599633
-3.558538
-3.534632
-0.407865
-0.394789
-0.267599
-3.631072
2.193300
2.416709
2.388826
-3.641979
-3.502425
-3.490077
-0.075157
-3.716921
-3.559414
-3.421766
-0.116897
-0.086648
-3.250692
-0.162870
-0.475304
-0.698031
-0.193725
0.320566
0.217146
0.370075
-4.012753
-4.091573
-3.984329
0.220858
-4.146840
-0.354631
-0.473559
-0.430192
-0.428171
0.423790
0.454846
0.642101
0.601087
2.189656
2.307056
2.336461
0.145777
-5.104485
-5.131371
-4.943713
-5.288285
-0.228841
-0.166912
-0.160479
-0.105276
-0.145881
-0.011787
-0.077594
-0.516346
-0.582190
-0.628922
-4.996174
-4.803774
-4.929075
-0.708404
-2.587556
-2.517104
-2.691564
-3.679334
-3.747499
-3.680719
-1.106008
-1.005513
-1.299144
-3.772836
-4.131732
-4.018412
-3.227290
-3.110102
-3.151738
-0.250946
-0.246873
-0.336215
-0.345106
-0.790095
0.279252
0.690253
0.423528
-4.622484
-4.809253
-4.750281
0.040246
0.089172
-0.022198
-0.208556
-0.190389
0.113345
0.000758
-3.737586
-3.796769
0.662936
0.600679
0.648537
0.587611
-3.842932
2.035910
2.218978
2.178008
-3.665677
-3.639604
0.321579
-2.373723
-2.517307
-2.483570
0.914905
0.902244
0.971114
-3.634545
-3.578806
-3.484342
-3.698761
-0.787539
-0.931333
-0.755567
0.046785
0.127722
0.043671
0.834940
-0.970816
2.573899
0.127660
-0.446088
-0.305602
-0.782843
1.058823
1.188882
1.305356
1.400845
1.238384
1.166854
1.298038
1.015088
1.046172
-3.151460
-3.204107
1.092437
1.130368
-2.253213
-2.382064
-2.377591
1.335227
1.215058
1.346134
1.156829
1.053066
0.967720
0.897741
-1.702155
-1.594876
-1.558768
1.519416
1.682842
1.519520
1.658294
0.078315
-3.746766
-3.904934
-3.802179
-3.838222
-0.567637
-0.503288
-0.839316
-0.642167
-0.284429
-0.206079
-2.385873
-1.859114
-0.936320
-0.743262
-0.700325
-0.258590
-0.166196
-0.228762
-1.050389
-0.728767
-0.700511
-3.755343
-3.854712
-3.874380
-3.948414
-1.174172
-1.353872
-1.651471
-0.505491
0.208634
0.292122
0.293140
-1.295276
-1.381489
-1.087191
-0.761797
-1.137638
-1.178576
-3.100602
-3.186108
-3.198657
-1.059345
-1.433765
-1.393876
-0.167232
-1.193937
-1.004838
-1.360219
-1.220072
-0.507480
-0.567701
-2.797852
-2.480592
-2.407602
-2.759585
-4.152574
-3.961814
-4.077469
-3.459376
-3.630168
-3.441009
-1.131942
-1.142928
-2.824055
0.836166
0.873466
-4.106088
-4.040517
-4.009063
-1.699388
-4.657646
-4.436164
-4.379625
-4.237758
-3.220671
-2.964935
-3.064271
-3.020159
-2.975552
-2.442383
-2.361107
1.047516
1.015875
0.849695
1.323419
-4.086595
-4.002592
-3.902613
-1.964208
-2.348776
-1.788050
-1.308444
-1.100653
-0.816319
-0.427631
-1.612982
-2.051487
-2.470171
0.956624
0.590340
-2.598762
-3.020745
-2.958658
-1.445899
-1.915056
-1.853608
-3.013301
-2.576657
-2.546323
-2.603458
-2.460882
-2.496718
-2.495137
-2.660752
-0.417148
-0.431684
-0.845086
-0.767752
-0.665987
-0.898475
0.726861
0.692469
0.619532
-5.526074
-5.551380
-5.382408
-5.019292
-4.838194
-4.968916
-4.867040
-1.155685
-1.519590
-1.489661
-1.536912
-2.677218
-2.853110
-2.642471
-2.847672
-2.492562
-2.661006
-2.491846
-3.349031
-3.466909
-3.270402
-3.387808
-3.404587
-3.499367
-3.489132
-3.309036
-0.687154
-1.057041
-1.054947
0.459372
0.352286
0.389276
0.411393
1.775240
1.562798
1.632411
1.909336
1.990262
-2.448792
-2.607781
-2.943624
0.312620
0.345034
-0.153282
-3.186121
-3.114929
-3.295928
-1.808128
-1.417710
-2.888201
-1.526825
-1.808822
-2.062334
0.177693
0.217642
0.135670
0.658427
0.733237
0.707157
-0.638014
-0.638592
-2.084806
0.801184
-4.458358
-4.267123
-4.643393
-4.435086
-4.627387
0.255849
0.327921
0.540271
0.576863
0.489333
0.629064
0.635011
-5.300741
-2.070162
-1.953234
-2.098200
-1.930847
-3.445685
-3.812062
-3.265439
0.392978
0.566248
0.775968
-0.530916
0.559866
-0.773270
0.603126
0.659242
-1.472989
-1.268573
-1.420509
-3.779821
-3.627577
-3.659010
-2.315829
-2.447469
-5.301276
0.781645
0.840603
0.784587
-0.079459
-0.025710
-2.795306
-2.728167
-2.626527
0.039153
0.859312
-4.119009
-4.208311
-4.192094
-3.217202
-2.964583
-3.007289
-0.383221
0.127990
-0.225358
0.054400
-0.645186
0.192927
0.225275
-2.595318
-2.132289
-2.246909
-0.431836
-0.308451
-4.275176
-4.193466
-4.179236
-0.317010
-0.010916
-0.041438
-0.075050
-4.306253
-4.426471
-4.368147
-1.693545
-2.083211
-1.420274
-0.807601
-0.895045
-1.072166
-4.332299
-3.929245
0.399172
-3.761431
-4.044454
0.201601
0.710788
0.788824
-4.131045
0.707957
0.537244
-3.008113
-3.005891
1.633565
1.758503
1.718314
-3.094844
0.469459
0.443096
1.235009
-3.410232
-3.366166
-3.381588
-2.018250
-1.903409
-0.842942
-3.435488
0.043052
0.091751
-3.361550
-2.565451
-2.643424
-2.491293
-2.699216
2.244153
2.037474
2.056172
0.349862
0.057906
-0.077061
-2.984199
-2.890301
-2.785229
-0.505934
-0.388103
-0.119100
-0.676339
-0.519106
-0.239882
-0.020813
-3.764163
-3.686944
-0.996443
-0.973810
-3.097457
0.966811
1.345062
0.835058
2.738258
1.397727
0.329947
0.383142
0.433973
-3.611366
-0.266635
-0.151435
-0.094457
-0.080820
-2.004391
-2.489460
-2.542682
-2.406518
0.481981
-2.936349
-2.558471
-3.925964
-4.014497
-3.920171
-3.362477
-3.293412
-3.351310
-2.967610
1.295680
1.260939
1.424404
-3.275367
-0.137195
2.170534
1.186201
1.131067
-0.211187
0.217684
-0.247843
0.318137
0.029294
0.458262
-0.641429
-2.739721
-1.332330
-2.960682
-3.133193
-4.296344
-4.462567
-0.025875
0.047776
-1.382739
-1.678740
0.365970
-1.671128
-5.173166
-1.812930
-4.153424
-4.121435
-3.968305
-1.825576
1.609755
1.507655
1.486377
1.414821
-0.026662
-0.101035
-2.341736
-2.251100
-2.179031
1.437510
1.429713
1.370761
1.336873
1.525171
1.613106
-4.043445
-4.058431
1.991711
-5.363028
-4.942137
-5.198543
1.619443
1.514380
1.354784
-2.476007
-2.581733
-2.375365
1.707667
2.233012
1.237037
0.860130
1.059160
0.657683
-2.685265
0.496842
0.444559
0.391494
1.450250
1.719825
1.645648
-4.422724
-4.675090
-4.762007
1.967292
-2.441265
-2.308282
-2.777406
-2.899788
-2.969836
-3.749450
0.232435
0.154593
0.426604
2.630724
2.732207
2.894057
2.422560
2.001002
2.590550
2.446525
-2.197339
-2.205313
-4.828956
-4.399843
-4.465707
-2.321901
0.487412
-0.108755
-4.769987
-4.795664
-5.019973
-4.277949
-4.218396
-5.242181
0.395154
-0.032658
-3.574426
-0.175883
-3.531815
-3.333767
-3.316804
2.818985
2.965455
-1.827495
-1.792320
-1.603783
-0.849994
-1.122540
-0.528619
-1.374091
-1.674631
-1.048030
-0.411213
-0.469150
-2.528811
-3.201641
-3.292572
-2.740893
-4.245557
-4.347837
-4.298993
-5.469055
-5.395367
-0.148267
-0.244180
-0.107334
-0.232874
-0.251633
-1.758250
-1.610278
-1.742744
-5.190177
-0.061894
-0.081963
-1.791886
-2.102878
-2.021354
2.889791
2.699490
-4.433888
1.952181
1.796622
1.826295
1.947148
-5.010869
-4.948934
-4.834094
2.124092
-0.079984
2.515650
-1.308356
-0.048656
-0.181679
-0.248518
-2.050118
0.045346
-0.109811
-2.070114
-1.937815
-1.953048
0.676487
0.212223
-0.642568
-3.122669
-3.115026
-1.805367
-2.309334
0.726844
0.891704
0.721887
0.961561
-3.848915
-3.891850
-3.340966
-2.627050
-0.085916
-0.227742
0.268121
0.219232
0.138469
-0.148554
-0.487611
-4.835649
-4.657173
-4.791727
-4.693932
-2.706194
-4.868236
-4.839724
-5.032878
-4.723823
-4.725097
-2.909258
-2.778689
-3.363880
-3.187848
-2.815114
-0.940404
-0.731541
-2.293961
-2.113324
-5.177538
-5.459917
-5.035704
0.333116
0.282712
0.351297
-3.120971
-3.221088
-0.154591
-0.214113
-4.568166
-4.671231
-4.510132
-3.912152
-3.828188
-3.811011
-1.634354
-1.934702
-4.557812
0.404895
0.273332
0.169509
-3.885741
-3.920812
-3.813199
-4.000998
-3.965573
-4.804384
1.103713
0.907472
-4.193256
-4.228100
-4.329708
-4.361519
0.195832
0.115391
-3.770602
1.779979
-1.112026
-0.697693
0.123412
0.163702
0.046924
-2.048110
0.066546
-3.757041
-3.261095
-3.205846
-3.319127
-3.353410
-4.142989
-4.220625
-4.278286
-0.003095
-0.084980
-4.382622
0.000580
1.290116
1.240307
-5.421631
-5.200894
-5.265242
-2.485094
-2.626504
-2.601837
-3.884573
2.595101
2.752614
2.563266
2.422109
2.403888
-4.338364
-4.216961
-4.018598
-4.071022
-4.090691
-1.456295
0.463099
-0.111163
1.268956
-4.477036
-4.564341
-3.795823
-3.867185
-3.658201
-3.840762
-4.461676
-3.796898
0.332354
0.313699
0.373202
-3.017872
-2.790690
-3.228388
1.399712
1.544532
1.584137
-2.657375
2.334932
2.230239
-4.747019
-2.502250
-0.483955
-5.199041
-5.487398
-2.468181
-2.605311
1.060335
0.994004
0.988830
-0.684171
-0.574972
1.139999
-0.526877
1.190568
-4.118611
-4.410427
1.378992
1.549647
1.283847
0.395367
-0.544685
1.926216
1.464561
2.389565
1.208480
-1.870330
-1.896539
-1.750643
-1.753735
0.530037
-2.212299
-2.334502
0.517805
-4.206547
-3.825296
-4.045409
-3.014592
-2.916998
0.340446
0.454001
-2.950352
-3.022283
-3.015868
0.329130
0.296342
0.379551
-3.378633
-3.288893
-3.288274
-4.061021
1.687294
1.821457
1.852184
-3.977006
-4.133224
-4.290081
-0.258073
-0.316431
-0.350354
-4.332405
-2.902495
-0.420785
-2.784560
-2.221483
-4.638662
-4.597076
2.505414
0.222521
1.528640
1.351568
-3.285485
-3.355170
-1.645052
-1.778056
-0.234225
-4.979043
-1.631571
-3.754709
-4.435369
-4.223844
-3.628247
-3.682507
-3.695431
1.387505
1.316431
1.322189
1.532371
0.341314
0.444013
0.335314
0.521762
-3.786853
-3.077779
-3.103587
-3.949306
-2.148880
-0.431151
-0.536683
-0.774464
1.629734
0.926757
0.472723
0.168845
-0.934641
-2.076386
-4.005879
-3.954202
-3.779682
-4.468249
-1.206302
-0.425994
-1.101342
-1.999128
-1.200873
0.310936
0.255111
-0.120443
-0.287389
-0.216234
-0.190707
1.112908
0.340532
0.241847
0.184346
-1.154400
0.455444
-0.560329
-0.420630
2.240176
-3.619050
-3.751779
-3.669669
-3.670417
-3.942617
2.065744
1.540778
1.660076
1.365419
1.315176
1.143908
-4.284176
-0.178295
0.055422
0.137919
0.118275
0.104030
0.170611
0.161635
2.649301
2.802091
1.868720
-3.945775
-3.893611
-2.007503
-2.059390
1.076554
1.685545
1.503674
1.508801
-3.598622
-3.563771
-1.355671
-1.476272
-1.747706
-4.054181
-3.964890
-1.485971
-4.136568
0.811522
0.813357
0.766854
-1.423966
-1.260087
1.178191
0.883296
-3.507148
-3.581724
-3.422837
-3.488648
-3.452411
-3.519104
0.583293
0.538236
-4.593814
0.521668
0.760859
0.865086
2.240163
2.114855
0.617403
-1.479868
-1.529818
-1.684255
-1.917890
-2.695656
-0.905598
-1.095534
-1.204800
-3.732389
-3.718803
1.647348
0.718197
0.549572
0.603640
-0.484107
-1.902807
-2.275689
-2.358404
0.767903
0.521982
0.232857
-3.311593
-3.306046
-2.948407
-1.992247
-0.658771
-0.508333
-0.467755
-1.486235
-0.771048
-0.665164
-0.472418
-2.396694
-1.324144
-0.323238
1.751305
1.894614
1.878380
1.153501
1.736280
1.912823
-3.603807
-2.334536
-2.882421
-3.058572
-2.993202
-2.881689
-3.052477
-2.725130
0.212464
0.825203
-1.283529
-1.978729
-1.961778
1.334380
1.322337
1.004723
0.959079
0.865299
-2.575759
-3.050559
-0.768029
0.228529
-3.868252
1.402539
1.451549
1.150168
0.977318
-3.780326
-4.256163
-3.756835
1.412555
1.365786
0.762316
0.644661
0.679913
0.713372
1.376408
2.016796
-0.920034
0.691472
0.201821
0.330415
-0.330210
-2.380517
-2.281333
2.117971
0.232700
-2.268523
0.812297
1.223119
-2.207998
-2.396947
-2.746831
-2.873750
-2.754239
-3.294329
0.920012
0.825521
-1.225093
-1.651598
-1.566442
-3.326800
-2.836440
-5.027579
1.040055
1.056407
0.951846
1.060214
1.117074
-3.584053
0.496926
-3.044109
-1.197446
-3.172288
-3.691039
-2.099709
-1.725330
-1.724731
-2.604157
-0.550074
-3.240042
-4.565837
-0.789675
-1.094871
-1.365194
-3.123642
-2.905075
-2.462236
0.803811
0.123035
0.110833
-2.454027
-1.741510
0.275719
0.550391
-3.580942
-3.671719
-3.654057
0.138834
-2.567727
1.358738
1.245298
0.045850
-2.301667
-2.429972
-2.562111
-3.197960
-3.170618
-0.976137
-1.120239
2.258437
2.416624
-0.028481
-1.022249
0.097564
-0.868703
-0.999341
0.364091
-0.697561
-0.982268
2.042229
-1.375373
-3.299109
-3.282560
1.118418
-0.044486
0.132474
2.486630
0.244697
-0.543229
-0.909293
-4.583632
-4.557326
-1.599037
-1.725164
-3.234974
-3.435105
-3.256351
2.519174
-3.431945
-2.025076
-2.641860
1.479794
-2.133568
-1.241112
-1.092155
-2.895043
-0.438805
-0.643313
0.038487
-2.235082
-2.608511
0.577125
0.675188
0.859743
0.854171
0.768329
-0.257543
-4.963775
-2.117084
-2.411757
-2.290888
-1.248604
-2.124490
-2.126654
0.481478
0.557800
-1.524288
-1.108487
-0.368020
-0.088985
0.314215
-0.440485
-0.292821
-0.327292
-0.185226
-2.725203
-2.953622
-2.635282
0.958069
0.894044
1.057469
-2.757142
-2.839519
-0.309523
-3.250402
-3.251447
0.078960
0.125170
1.245410
0.041249
-3.362899
-3.668164
-3.560581
-3.377986
-0.108843
-2.589274
-0.378426
-0.468992
-4.363331
-4.436948
0.177676
-1.033457
-0.514457
-2.932090
0.246356
-0.035660
0.225799
-3.804968
-3.820266
0.544216
-3.132174
-3.542998
-3.908941
-4.099007
-3.389080
-2.901942
-2.268371
-2.160750
0.545592
0.660330
0.720419
-3.514780
-3.437912
-0.558286
-0.526725
-3.587602
-3.586052
-3.682400
-2.110273
-2.058095
-2.561586
-3.517185
1.167342
1.063140
-0.116105
-3.488845
-3.535937
-3.488947
-3.283650
-3.228945
-0.527485
-0.453455
0.359677
-0.155862
-3.155553
-3.079690
-3.087010
-1.218111
-0.987674
0.207104
-0.048823
-3.480592
0.091467
0.093308
-1.838971
-2.165631
-0.256769
-0.374888
-2.725938
-2.419919
-0.581216
0.412627
0.352147
0.718562
-3.234027
0.704780
-1.041000
1.835230
1.840763
-3.696334
-3.636584
-1.594839
-1.625726
-1.921948
-2.067074
0.177299
1.038475
0.262268
-2.315478
0.744186
-3.641788
1.146307
0.861016
0.876029
-3.654385
0.947145
0.609000
-0.289273
0.613942
0.516746
-1.043274
0.648123
-4.875124
-4.694169
-4.637873
-3.996343
1.869165
0.889240
0.980948
0.870024
0.036826
-4.597143
2.029050
-3.787342
-3.407008
-3.233731
-0.117233
0.133222
-0.032872
0.761618
0.378827
-2.642730
-2.630393
-5.040215
-0.251860
-0.068481
0.358025
-5.410324
-5.399052
-2.586318
0.249138
0.727356
0.305958
-0.474952
0.299548
-0.079111
-0.619682
-3.152102
-0.151332
-3.422096
-1.412647
0.536776
0.723455
0.461390
0.496531
1.745784
0.600491
-3.367141
-3.446911
-3.433865
1.842269
1.774842
0.041030
0.832409
-3.136959
-3.228522
-3.247621
0.049381
0.131826
0.145742
0.238608
-2.691910
-0.275467
1.443153
0.727409
-2.743523
-2.975861
-4.706042
-1.286212
0.490210
1.300969
1.247487
-3.476109
-3.600099
-4.479587
1.593806
1.517494
-3.205073
-1.920165
0.008751
-0.076501
-3.531620
-0.035192
-1.829624
-2.492112
1.642458
2.038784
-0.452693
-0.894325
-1.046753
-3.786019
-0.856306
-0.103265
-0.033699
-3.520898
2.310981
-4.471913
0.188989
0.107362
-4.380012
1.202766
0.902001
0.635285
-2.555185
0.708893
-0.146160
-3.084501
1.381363
-2.989426
-0.367744
-0.609486
0.106602
-2.392502
0.409498
-2.852509
-1.402860
-0.354678
-0.338614
-2.953700
2.139546
1.178594
-2.923030
-2.944305
-0.708379
-0.245664
-5.197218
-5.444881
-5.390585
-2.829501
-3.512008
0.240265
-3.483102
0.013107
1.269462
1.258564
-1.340087
-3.353755
-3.533646
-2.654371
1.766707
1.667260
0.208739
0.112911
-1.748512
-2.209694
-3.969619
-4.037603
0.379310
-3.144985
-1.439080
-1.491963
-3.594505
-4.232333
0.858405
0.574676
0.973366
0.964964
-1.606782
1.510050
1.188883
-0.999759
-2.887311
-3.112623
1.037589
0.847733
-3.071094
0.568720
-0.510578
-3.568013
1.070276
-1.900988
-3.781870
0.978122
1.169196
-2.188056
-2.184739
-3.368582
-3.406296
0.875026
0.960719
1.002507
-0.683105
0.584213
-1.582128
-2.704330
-3.858287
-0.085318
0.463553
-2.715478
-3.161209
0.519260
0.913538
-0.620913
-0.191144
-0.214359
1.443435
2.175100
-1.388664
-1.347868
-1.938995
-4.055479
0.962774
-3.223359
-0.875400
-0.802887
-0.771380
-0.214866
-3.518411
0.666625
-2.990745
-1.578871
0.912222
-2.737071
-2.233323
-2.394141
-3.514884
-1.612929
-1.312397
-3.444972
0.793246
-2.861479
-1.125165
-0.834809
-1.429756
-0.871640
-1.538299
-1.476600
0.529359
-2.918083
-3.020718
-1.107383
-1.006905
-0.776365
-2.135555
-2.335291
-1.808316
-2.405906
-1.929219
-1.075033
-2.311877
-1.727251
-1.456794
-0.658949
-2.943933
0.891633
0.550059
-1.317285
-3.044167
-2.966550
-1.252312
-0.035222
0.285374
-1.938762
-0.773668
-2.680671
-3.036303
-0.843962
0.373463
0.706668
0.655278
1.163327
-3.458351
-0.078450
-3.167307
-2.155704
-3.256298
0.878777
-1.541342
0.334405
-3.550010
0.026570
0.032331
-0.051241
-3.499538
-0.704918
-1.949686
-2.293064
-0.866542
-1.379456
-3.473385
-0.287524
0.781215
-2.017048
-2.615548
-0.604588
SCALARS UY float 1
LOOKUP_TABLE default
-0.000009
-0.000008
-10.459996
-10.459997
-2.620060
-7.053513
-0.000003
-0.000003
-0.000002
-0.000002
-0.000002
-0.000002
-0.000002
-0.000002
-0.000002
-0.000002
-0.000002
-0.000002
-0.000003
-0.000003
-0.000003
-0.000002
-0.887445
-1.529919
-2.059125
-2.558186
-3.017794
-3.457425
-3.869752
-4.237622
-4.582101
-4.891645
-5.227820
-5.598751
-6.109503
-6.908313
-7.957197
-9.203155
-10.459996
-10.459997
-10.459997
-10.459998
-10.459998
-10.459998
-10.459998
-10.459998
-10.459998
-10.459998
-10.459997
-10.459997
-10.459997
-10.459997
-10.459997
-10.459997
-9.834327
-9.219461
-8.631451
-8.064852
-7.532936
-7.050950
-6.614622
-6.230559
-5.885952
-5.573507
-5.253209
-4.874659
-4.359335
-3.614201
-2.576766
-1.400684
-2.655465
-2.780578
-2.851136
-2.591875
-2.647217
-2.753060
-3.320794
-3.367662
-3.425557
-3.463527
-3.494692
-3.554598
-3.614076
-3.668729
-3.732521
-3.775558
-3.806602
-3.859582
-3.907517
-3.961690
-4.004259
-4.050495
-4.089716
-4.147143
-4.197978
-4.214800
-4.284975
-4.348725
-4.388870
-4.451746
-4.502324
-4.557192
-4.623768
-4.643830
-4.704001
-4.740430
-4.778704
-4.841628
-4.869531
-4.939217
-4.984894
-5.046690
-5.089667
-5.168342
-5.233877
-5.296969
-5.362205
-5.438945
-5.502938
-5.572710
-5.663656
-5.721951
-5.770764
-5.859308
-5.934404
-6.018661
-6.101692
-6.226955
-6.398068
-6.539845
-6.656088
-6.734103
-6.796496
-6.905318
-6.973030
-7.013880
-0.294951
-0.155755
-0.353227
-5.963394
-6.212716
-6.368595
-0.186346
-3.423851
-3.468588
-3.112423
-0.712223
-0.805503
-0.837413
-0.938407
-2.308805
-2.155831
-2.238711
-6.323217
-6.277302
-6.401008
-4.142544
-4.593514
-4.370047
-5.082666
-5.168183
-6.022672
-6.314511
-3.102100
-2.769800
-7.476864
-7.611372
-7.464418
-7.610211
-7.023013
-7.242023
-7.294666
-0.111870
-0.273669
-0.137374
-10.114842
-9.812186
-9.812771
-4.846752
-4.727566
-9.538884
-4.345361
-4.631148
-4.825677
-4.814938
-6.399080
-6.311990
-6.394870
-2.153256
-2.008521
-1.975663
-6.276434
-3.222722
-3.412894
-3.529317
-5.287145
-5.108490
-5.185845
-0.252274
-4.193792
-3.938404
-3.902298
-0.262516
-0.192700
-3.669431
-0.334389
-3.942045
-4.063457
-3.606641
-3.003325
-3.032200
-2.841978
-5.428558
-5.364907
-5.262175
-2.893760
-5.539810
-0.909896
-0.960076
-0.858119
-1.056651
-3.629008
-3.496651
-3.409020
-3.301079
-5.100353
-4.922355
-5.144884