# vtk DataFile Version 2.0
Test
ASCII
DATASET POLYDATA
POINTS 1818 float
0.000000 0.000000 0.000000
1.000000 0.000000 0.000000
1.000000 1.000000 0.000000
0.000000 1.000000 0.000000
0.300000 0.330000 0.000000
0.700000 0.680000 0.000000
0.058824 0.000000 0.000000
0.117647 0.000000 0.000000
0.176471 0.000000 0.000000
0.235294 0.000000 0.000000
0.294118 0.000000 0.000000
0.352941 0.000000 0.000000
0.411765 0.000000 0.000000
0.470588 0.000000 0.000000
0.529412 0.000000 0.000000
0.588235 0.000000 0.000000
0.647059 0.000000 0.000000
0.705882 0.000000 0.000000
0.764706 0.000000 0.000000
0.823529 0.000000 0.000000
0.882353 0.000000 0.000000
0.941176 0.000000 0.000000
1.000000 0.058824 0.000000
1.000000 0.117647 0.000000
1.000000 0.176471 0.000000
1.000000 0.235294 0.000000
1.000000 0.294118 0.000000
1.000000 0.352941 0.000000
1.000000 0.411765 0.000000
1.000000 0.470588 0.000000
1.000000 0.529412 0.000000
1.000000 0.588235 0.000000
1.000000 0.647059 0.000000
1.000000 0.705882 0.000000
1.000000 0.764706 0.000000
1.000000 0.823529 0.000000
1.000000 0.882353 0.000000
1.000000 0.941176 0.000000
0.941176 1.000000 0.000000
0.882353 1.000000 0.000000
0.823529 1.000000 0.000000
0.764706 1.000000 0.000000
0.705882 1.000000 0.000000
0.647059 1.000000 0.000000
0.588235 1.000000 0.000000
0.529412 1.000000 0.000000
0.470588 1.000000 0.000000
0.411765 1.000000 0.000000
0.352941 1.000000 0.000000
0.294118 1.000000 0.000000
0.235294 1.000000 0.000000
0.176471 1.000000 0.000000
0.117647 1.000000 0.000000
0.058824 1.000000 0.000000
0.000000 0.941176 0.000000
0.000000 0.882353 0.000000
0.000000 0.823529 0.000000
0.000000 0.764706 0.000000
0.000000 0.705882 0.000000
0.000000 0.647059 0.000000
0.000000 0.588235 0.000000
0.000000 0.529412 0.000000
0.000000 0.470588 0.000000
0.000000 0.411765 0.000000
0.000000 0.352941 0.000000
0.000000 0.294118 0.000000
0.000000 0.235294 0.000000
0.000000 0.176471 0.000000
0.000000 0.117647 0.000000
0.000000 0.058824 0.000000
0.305970 0.335224 0.000000
0.311940 0.340448 0.000000
0.317910 0.345672 0.000000
0.323881 0.350896 0.000000
0.329851 0.356119 0.000000
0.335821 0.361343 0.000000
0.341791 0.366567 0.000000
0.347761 0.371791 0.000000
0.353731 0.377015 0.000000
0.359701 0.382239 0.000000
0.365672 0.387463 0.000000
0.371642 0.392687 0.000000
0.377612 0.397910 0.000000
0.383582 0.403134 0.000000
0.389552 0.408358 0.000000
0.395522 0.413582 0.000000
0.401493 0.418806 0.000000
0.407463 0.424030 0.000000
0.413433 0.429254 0.000000
0.419403 0.434478 0.000000
0.425373 0.439701 0.000000
0.431343 0.444925 0.000000
0.437313 0.450149 0.000000
0.443284 0.455373 0.000000
0.449254 0.460597 0.000000
0.455224 0.465821 0.000000
0.461194 0.471045 0.000000
0.467164 0.476269 0.000000
0.473134 0.481493 0.000000
0.479104 0.486716 0.000000
0.485075 0.491940 0.000000
0.491045 0.497164 0.000000
0.497015 0.502388 0.000000
0.502985 0.507612 0.000000
0.508955 0.512836 0.000000
0.514925 0.518060 0.000000
0.520896 0.523284 0.000000
0.526866 0.528507 0.000000
0.532836 0.533731 0.000000
0.538806 0.538955 0.000000
0.544776 0.544179 0.000000
0.550746 0.549403 0.000000
0.556716 0.554627 0.000000
0.562687 0.559851 0.000000
0.568657 0.565075 0.000000
0.574627 0.570299 0.000000
0.580597 0.575522 0.000000
0.586567 0.580746 0.000000
0.592537 0.585970 0.000000
0.598507 0.591194 0.000000
0.604478 0.596418 0.000000
0.610448 0.601642 0.000000
0.616418 0.606866 0.000000
0.622388 0.612090 0.000000
0.628358 0.617313 0.000000
0.634328 0.622537 0.000000
0.640299 0.627761 0.000000
0.646269 0.632985 0.000000
0.652239 0.638209 0.000000
0.658209 0.643433 0.000000
0.664179 0.648657 0.000000
0.670149 0.653881 0.000000
0.676119 0.659104 0.000000
0.682090 0.664328 0.000000
0.688060 0.669552 0.000000
0.694030 0.674776 0.000000
0.516135 0.080917 0.000000
0.549338 0.042552 0.000000
0.567302 0.088709 0.000000
0.555658 0.563778 0.000000
0.559301 0.571359 0.000000
0.552318 0.570919 0.000000
0.603235 0.047100 0.000000
0.446553 0.448087 0.000000
0.438652 0.443189 0.000000
0.445116 0.440368 0.000000
0.437254 0.190586 0.000000
0.465954 0.201747 0.000000
0.439184 0.213838 0.000000
0.453137 0.228102 0.000000
0.522423 0.410182 0.000000
0.522098 0.390982 0.000000
0.537289 0.398500 0.000000
0.453388 0.527105 0.000000
0.462022 0.524948 0.000000
0.461218 0.533993 0.000000
0.324300 0.374550 0.000000
0.319287 0.386214 0.000000
0.314834 0.375138 0.000000
0.668809 0.628853 0.000000
0.677366 0.632907 0.000000
0.668274 0.639611 0.000000
0.469934 0.529282 0.000000
0.439703 0.436699 0.000000
0.446608 0.432083 0.000000
0.542854 0.633425 0.000000
0.535117 0.647070 0.000000
0.524302 0.633157 0.000000
0.519372 0.648877 0.000000
0.586338 0.611293 0.000000
0.591638 0.624149 0.000000
0.575478 0.621479 0.000000
0.437962 0.035513 0.000000
0.421505 0.085456 0.000000
0.394924 0.044162 0.000000
0.445207 0.955749 0.000000
0.429168 0.919510 0.000000
0.464409 0.914226 0.000000
0.317150 0.400904 0.000000
0.328626 0.395860 0.000000
0.439616 0.884412 0.000000
0.330406 0.381773 0.000000
0.676842 0.602700 0.000000
0.674982 0.614185 0.000000
0.665930 0.611798 0.000000
0.414707 0.535036 0.000000
0.420123 0.526072 0.000000
0.425338 0.533771 0.000000
0.398407 0.375558 0.000000
0.393804 0.363255 0.000000
0.407284 0.365452 0.000000
0.407758 0.523337 0.000000
0.899969 0.377867 0.000000
0.945915 0.378245 0.000000
0.914158 0.409130 0.000000
0.358219 0.436142 0.000000
0.361390 0.425428 0.000000
0.369309 0.432300 0.000000
0.465999 0.075074 0.000000
0.269944 0.367761 0.000000
0.266521 0.352125 0.000000
0.283474 0.357667 0.000000
0.385889 0.083020 0.000000
0.359482 0.060981 0.000000
0.279658 0.346766 0.000000
0.363604 0.104040 0.000000
0.511115 0.503731 0.000000
0.503243 0.499914 0.000000
0.509146 0.494910 0.000000
0.513188 0.475753 0.000000
0.504957 0.474656 0.000000
0.511959 0.464784 0.000000
0.311863 0.447505 0.000000
0.293019 0.442078 0.000000
0.305555 0.431691 0.000000
0.499204 0.464990 0.000000
0.293855 0.459576 0.000000
0.396676 0.236328 0.000000
0.371014 0.247362 0.000000
0.373003 0.229199 0.000000
0.384478 0.261522 0.000000
0.555704 0.523331 0.000000
0.551313 0.515879 0.000000
0.562752 0.515269 0.000000
0.554954 0.506854 0.000000
0.804236 0.611103 0.000000
0.819351 0.593503 0.000000
0.832061 0.615776 0.000000
0.509908 0.485173 0.000000
0.129738 0.481190 0.000000
0.110722 0.443736 0.000000
0.154857 0.452634 0.000000
0.089738 0.485299 0.000000
0.396427 0.153886 0.000000
0.393058 0.115469 0.000000
0.420333 0.126587 0.000000
0.442628 0.413512 0.000000
0.434815 0.404283 0.000000
0.446816 0.400259 0.000000
0.499770 0.482873 0.000000
0.353883 0.235057 0.000000
0.351360 0.254011 0.000000
0.332147 0.240870 0.000000
0.112307 0.405527 0.000000
0.140355 0.392788 0.000000
0.142004 0.423465 0.000000
0.334868 0.263052 0.000000
0.551239 0.594093 0.000000
0.560217 0.601969 0.000000
0.546711 0.604614 0.000000
0.398510 0.570197 0.000000
0.387124 0.557316 0.000000
0.399978 0.555748 0.000000
0.705281 0.743146 0.000000
0.722930 0.758853 0.000000
0.697202 0.758074 0.000000
0.380190 0.572638 0.000000
0.278345 0.431947 0.000000
0.292575 0.428097 0.000000
0.470820 0.540616 0.000000
0.478213 0.533042 0.000000
0.480161 0.543190 0.000000
0.415268 0.299334 0.000000
0.412465 0.313515 0.000000
0.400419 0.297680 0.000000
0.396495 0.317117 0.000000
0.718655 0.732879 0.000000
0.709319 0.677587 0.000000
0.715709 0.670111 0.000000
0.719283 0.682820 0.000000
0.212992 0.453899 0.000000
0.184619 0.470046 0.000000
0.186665 0.440862 0.000000
0.452307 0.386568 0.000000
0.460371 0.397715 0.000000
0.478664 0.456068 0.000000
0.476179 0.462123 0.000000
0.471250 0.456445 0.000000
0.464654 0.388544 0.000000
0.483415 0.461045 0.000000
0.357146 0.449596 0.000000
0.344653 0.443966 0.000000
0.554562 0.459423 0.000000
0.543333 0.457517 0.000000
0.553850 0.449505 0.000000
0.543131 0.445036 0.000000
0.347312 0.459318 0.000000
0.781088 0.538918 0.000000
0.810909 0.534152 0.000000
0.799399 0.553968 0.000000
0.402869 0.534333 0.000000
0.408011 0.546121 0.000000
0.703844 0.670118 0.000000
0.552234 0.794299 0.000000
0.528593 0.795589 0.000000
0.539188 0.770312 0.000000
0.596088 0.518714 0.000000
0.593029 0.508081 0.000000
0.604120 0.510731 0.000000
0.384880 0.468703 0.000000
0.382270 0.455963 0.000000
0.394062 0.458803 0.000000
0.374729 0.466839 0.000000
0.340939 0.294790 0.000000
0.324530 0.290188 0.000000
0.338473 0.279923 0.000000
0.465367 0.336545 0.000000
0.477337 0.352846 0.000000
0.459495 0.350024 0.000000
0.584947 0.516440 0.000000
0.326802 0.302636 0.000000
0.945343 0.420397 0.000000
0.779746 0.749037 0.000000
0.771533 0.774140 0.000000
0.758291 0.749848 0.000000
0.743435 0.765852 0.000000
0.751942 0.297541 0.000000
0.784264 0.292048 0.000000
0.772562 0.330207 0.000000
0.812744 0.305799 0.000000
0.655547 0.494535 0.000000
0.649767 0.472522 0.000000
0.671966 0.480244 0.000000
0.612062 0.502007 0.000000
0.616789 0.515227 0.000000
0.403059 0.898561 0.000000
0.391512 0.946883 0.000000
0.625780 0.504699 0.000000
0.635988 0.491275 0.000000
0.596252 0.650380 0.000000
0.583401 0.655132 0.000000
0.583737 0.644777 0.000000
0.713099 0.416502 0.000000
0.708474 0.388943 0.000000
0.733625 0.389568 0.000000
0.684835 0.406222 0.000000
0.656936 0.416423 0.000000
0.633624 0.425116 0.000000
0.634362 0.400237 0.000000
0.646884 0.740682 0.000000
0.654954 0.726002 0.000000
0.663305 0.741855 0.000000
0.732481 0.441235 0.000000
0.751303 0.460839 0.000000
0.721338 0.462235 0.000000
0.759622 0.437863 0.000000
0.462761 0.363156 0.000000
0.373644 0.622389 0.000000
0.346217 0.613642 0.000000
0.370315 0.594521 0.000000
0.351411 0.640635 0.000000
0.695337 0.690220 0.000000
0.705202 0.700133 0.000000
0.692303 0.700990 0.000000
0.521365 0.516400 0.000000
0.522992 0.510597 0.000000
0.527633 0.513574 0.000000
0.291567 0.329512 0.000000
0.294927 0.318154 0.000000
0.365771 0.366553 0.000000
0.366135 0.358691 0.000000
0.374180 0.368122 0.000000
0.408232 0.327056 0.000000
0.423479 0.328280 0.000000
0.411272 0.339740 0.000000
0.664110 0.670607 0.000000
0.667245 0.662649 0.000000
[...]
POINT_DATA 1818
SCALARS UX float 1
LOOKUP_TABLE default
-0.000002
0.000002
0.546707
-1.963424
-0.896513
0.331445
0.000000
-0.000000
-0.000000
-0.000000
-0.000000
-0.000000
-0.000000
-0.000000
-0.000000
-0.000000
0.000000
0.000000
0.000000
0.000000
0.000000
0.000000
0.441901
0.685927
0.874483
1.042525
1.191080
1.325923
1.446709
1.541837
1.600418
1.604853
1.525677
1.389595
1.188598
0.963814
0.754983
0.624834
0.300277
0.096709
-0.067181
-0.201551
-0.307172
-0.394810
-0.483744
-0.583232
-0.700492
-0.834378
-0.979274
-1.132593
-1.291281
-1.453404
-1.616434
-1.790226
-1.958241
-1.970485
-2.004378
-2.050302
-2.107326
-2.168142
-2.224296
-2.260942
-2.255205
-2.191254
-2.055774
-1.838136
-1.555142
-1.239674
-0.900701
-0.567589
-0.892936
-0.872734
-0.866855
-0.840021
-0.821483
-0.796527
-0.770081
-0.754615
-0.734125
-0.716299
-0.706073
-0.691127
-0.677855
-0.669230
-0.647821
-0.634740
-0.628466
-0.612260
-0.598025
-0.578210
-0.563405
-0.545299
-0.529387
-0.508799
-0.491015
-0.477185
-0.453834
-0.433144
-0.419644
-0.398716
-0.385495
-0.369157
-0.345388
-0.329020
-0.296457
-0.274413
-0.253546
-0.224775
-0.206026
-0.173356
-0.153432
-0.130294
-0.115743
-0.098376
-0.083990
-0.069370
-0.055719
-0.036230
-0.023210
-0.007607
0.015162
0.026495
0.039475
0.058861
0.073923
0.091489
0.112055
0.119548
0.136478
0.176894
0.220566
0.244221
0.267221
0.302281
0.325103
0.318249
-0.024864
-0.010330
0.002779
-0.537497
-0.601675
-0.710124
0.006154
-0.144636
-0.221224
-0.031806
-0.091434
-0.049646
-0.085184
-0.054842
0.375573
0.339791
0.383191
-1.217394
-1.182935
-1.193024
-1.296613
-1.407454
-1.363037
0.731414
0.712750
0.646472
-1.155259
-0.069371
0.090851
-0.867712
-0.867156
-0.922542
-0.906298
-0.654207
-0.663820
-0.754022
-0.025305
-0.059895
-0.034169
-0.755400
-0.798674
-0.717687
-1.463974
-1.405962
-0.787826
-1.306846
0.852431
0.790519
0.775595
-1.315555
-1.308213
-1.291489
-0.042667
-0.055056
0.006201
-1.339142
1.154827
1.263550
1.255762
-1.415962
-1.370328
-1.361024
-0.042005
-1.501945
-1.438704
-1.380926
-0.065397
-0.049366
-1.320785
-0.090448
0.065153
-0.041153
0.185976
0.392686
0.348820
0.402252
-1.553272
-1.593815
-1.553153
0.340370
-1.602487
-0.159047
-0.217868
-0.204693
-0.182818
0.475411
0.482216
0.557523
0.533885
1.190592
1.237594
1.243529
0.328766
-2.005976
-2.031848
-1.943944
-2.092297
-0.119465
-0.090899
-0.085219
0.142767
0.112987
0.166858
0.230331
-0.248737
-0.272382
-0.305463
-1.973369
-1.889486
-1.944231
-0.331075
-0.852665
-0.815426
-0.882568
-1.311856
-1.351701
-1.326850
-0.038850
0.004398
-0.110709
-1.346699
-1.621462
-1.579125
-1.163730
-1.124739
-1.131371
-0.058174
-0.043267
-0.101948
-0.086678
0.079595
0.494794
0.651750
0.548563
-1.807435
-1.878319
-1.865802
0.174150
0.209140
0.228721
0.154456
0.157074
0.209793
0.243632
-1.442558
-1.469410
0.518523
0.491164
0.503680
0.474335
-1.476351
1.125297
1.198949
1.185060
-1.342082
-1.320355
0.510411
-0.567477
-0.629384
-0.628231
0.666555
0.653833
0.682375
-1.387944
-1.376562
-1.338027
-1.414231
-0.339491
-0.415977
-0.340048
0.124089
0.179088
0.135740
0.634103
-0.421406
1.348363
0.397595
0.205683
0.254965
0.087697
0.596781
0.658276
0.722278
0.761538
0.774797
0.731358
0.789372
0.692888
0.714431
-0.869894
-0.882942
0.724784
0.730004
-0.647867
-0.695000
-0.706404
0.768168
0.701395
0.760904
0.684257
0.645559
0.615476
0.567830
-0.296021
-0.261194
-0.229599
0.861424
0.942732
0.871809
0.922276
0.165958
-1.287431
-1.361739
-1.337206
-1.309050
0.134859
0.175049
0.033882
-0.007392
0.153846
0.191382
-1.016949
-0.806212
-0.285805
-0.216136
-0.184460
-0.035253
0.010702
-0.007025
-0.118208
0.015548
0.039555
-1.423492
-1.446581
-1.466907
-1.480919
-0.217849
-0.303554
-0.412633
0.058597
0.156958
0.199216
0.211064
-0.481258
-0.538548
-0.412481
-0.147545
-0.302343
-0.326083
-1.061910
-1.085316
-1.108179
-0.299185
-0.456349
-0.443427
-0.005638
-0.061300
0.012452
-0.120939
-0.063480
-0.252523
-0.145603
-1.002574
-0.871091
-0.836109
-0.994040
-1.659349
-1.585308
-1.632313
-1.398660
-1.440586
-1.377633
-0.320817
-0.316747
-0.866547
0.626990
0.636011
-1.527251
-1.516451
-1.488918
-0.725976
-1.557551
-1.472184
-1.420794
-1.373952
-1.304702
-1.040002
-1.074485
-1.066557
-1.033634
-0.928258
-0.885357
0.782070
0.768524
0.714683
0.878379
-1.568850
-1.538979
-1.510249
-0.848411
-0.997499
-0.789906
-0.589663
-0.506219
-0.403259
-0.238566
-0.703915
-0.833368
-0.981911
0.744525
0.597983
-1.085806
-1.097546
-1.068213
-0.350252
-0.544516
-0.527443
-1.082195
-1.011013
-1.002320
-0.715325
-0.662798
-0.662747
-0.937908
-1.011173
-0.133725
-0.155405
-0.314817
-0.307095
-0.245111
-0.370403
0.503383
0.496922
0.450177
-2.111698
-2.169371
-2.076279
-1.793928
-1.696294
-1.739583
-1.738954
-0.203081
-0.345586
-0.396220
-0.416183
-0.926073
-0.995925
-0.918465
-1.001910
-0.848945
-0.912989
-0.843862
-1.281474
-1.326348
-1.256895
-1.289153
-1.288968
-1.325656
-1.314581
-1.192139
-0.093282
-0.250426
-0.254013
0.314133
0.255441
0.268281
0.298772
0.949529
0.847132
0.875287
1.008587
1.058129
-1.043077
-1.113655
-1.188024
0.443068
0.460561
0.235178
-1.188241
-1.154953
-1.221861
-0.478710
-0.317212
-1.070046
-0.368843
-0.492153
-0.579301
0.246526
0.278033
0.239885
0.548380
0.576022
0.574128
-0.276507
-0.289661
-0.571164
0.606910
-1.507793
-1.409310
-1.610051
-1.520116
-1.628743
0.202136
0.251468
0.472599
0.497700
0.461553
0.511135
0.473112
-2.110194
-0.414943
-0.361451
-0.420816
-0.358861
-1.396980
-1.503062
-1.304047
0.494108
0.567542
0.658248
-0.233778
0.428879
0.097886
0.515369
0.531115
-0.247133
-0.158397
-0.201005
-1.473001
-1.425011
-1.427652
-0.651903
-0.710364
-1.999426
0.556755
0.589297
0.569786
0.124627
0.131213
-0.767354
-0.757390
-0.691755
0.158154
0.607694
-1.566955
-1.596334
-1.604623
-1.243201
-1.135386
-1.149124
0.117329
0.345261
0.191787
0.310343
-0.019245
0.496098
0.526968
-0.949059
-0.739287
-0.790309
-0.085146
-0.032415
-1.594568
-1.565895
-1.539073
-0.054607
0.008639
-0.000985
-0.026880
-1.590473
-1.638740
-1.630627
-0.737964
-0.891743
-0.634536
-0.383818
-0.411495
-0.494667
-1.348917
-1.182942
0.454870
-1.461624
-1.586622
0.379702
0.545310
0.584003
-1.277264
0.529965
0.458692
-1.031893
-1.017494
0.930435
0.986224
0.975475
-1.073784
0.435060
0.437349
0.751790
-1.246896
-1.239462
-1.225395
-0.804357
-0.746183
-0.396422
-1.272859
0.201596
0.235529
-1.253400
-0.764401
-0.814416
-0.748235
-0.818805
1.199148
1.108150
1.106642
0.476480
0.341373
0.278198
-0.824196
-0.795828
-0.736254
-0.204986
-0.147860
0.226369
-0.025833
0.022848
0.144986
-0.006369
-1.475273
-1.451316
-0.197969
-0.190077
-1.234039
0.690573
0.830961
0.645139
1.433247
0.839238
0.207453
0.233834
0.266657
-1.439152
0.150984
0.035399
0.054756
0.076762
-0.673426
-0.896305
-0.786737
-0.730533
0.537548
-1.181999
-1.055662
-1.500572
-1.533121
-1.506820
-1.202961
-1.169171
-1.185161
-1.162406
0.865110
0.855661
0.909762
-1.149222
-0.061664
1.130941
0.764053
0.750352
0.202036
0.394814
0.186790
0.435575
0.315575
0.498955
-0.112171
-1.056430
-0.303998
-1.169505
-1.269818
-1.469509
-1.556234
0.073646
0.110106
-0.584972
-0.716877
0.417395
-0.268577
-1.969755
-0.334835
-1.417663
-1.379347
-1.314489
-0.356774
0.958800
0.921799
0.903307
0.883554
0.090886
0.037151
-0.628639
-0.606695
-0.557606
0.866859
0.871704
0.841951
0.834913
0.785965
0.841468
-1.291720
-1.315617
1.032124
-1.853234
-1.666980
-1.748145
0.984452
0.938092
0.886903
-0.588369
-0.645569
-0.555875
1.011126
1.181397
0.656750
0.476873
0.562855
0.369008
-0.681736
0.370218
0.353671
0.312258
0.874762
1.002186
0.954678
-1.403183
-1.494629
-1.556305
1.087609
-0.901819
-0.836444
-1.047566
-1.064237
-1.119159
-1.371851
0.141958
0.095694
0.254787
1.318958
1.395609
1.456066
1.240837
1.005309
1.271041
1.177055
-0.485696
-0.477347
-1.859293
-1.644846
-1.696696
-0.523092
0.319110
0.017662
-1.851423
-1.878710
-1.978791
-1.649351
-1.642611
-2.084699
0.261927
0.054142
-1.037821
-0.088066
-1.062731
-0.977527
-0.958057
1.474905
1.542382
-0.298419
-0.290606
-0.206638
0.096745
-0.008816
0.189586
-0.095543
-0.228476
0.036977
-0.102384
-0.143102
-1.025431
-1.243801
-1.273608
-1.102766
-1.599546
-1.639201
-1.638023
-2.182625
-2.160844
-0.083955
-0.133591
-0.063302
-0.130385
-0.143750
-0.358137
-0.287378
-0.333060
-2.062019
-0.035685
-0.052085
-0.518041
-0.645657
-0.620459
1.487927
1.399419
-1.692622
1.102811
1.052372
1.054182
1.104727
-1.946336
-1.934604
-1.872724
1.167479
-0.041035
1.309560
-0.108693
-0.017800
-0.059076
-0.100224
-0.644878
0.027636
-0.052331
-0.455123
-0.400922
-0.390699
0.575371
0.438120
-0.258366
-0.877785
-0.864212
-0.314781
-0.731202
0.421545
0.510053
0.424027
0.541941
-1.511420
-1.515503
-0.956538
-0.647449
-0.061688
-0.134061
0.167206
0.142232
0.090293
-0.106404
-0.267017
-1.790301
-1.693231
-1.735083
-1.736313
-0.799602
-1.866871
-1.824308
-1.931557
-1.789667
-1.813430
-0.957417
-0.901809
-1.004464
-0.920474
-0.930904
-0.452928
-0.360816
-0.542456
-0.461879
-1.899590
-2.043964
-1.870458
0.348361
0.317510
0.340876
-1.041730
-1.085554
0.050832
0.014211
-1.750092
-1.810298
-1.745771
-1.450290
-1.426166
-1.404074
-0.721821
-0.831237
-1.663415
0.377587
0.179990
0.118110
-1.419566
-1.327865
-1.254231
-1.351157
-1.458397
-1.891113
0.626460
0.524244
-1.480027
-1.475598
-1.535840
-1.528837
0.140536
0.099399
-1.415762
0.933715
-0.284873
-0.112599
0.095830
0.139074
0.067751
-0.638382
0.090361
-1.249258
-1.073029
-1.025349
-1.085121
-1.080676
-1.496409
-1.514958
-1.561062
0.123708
0.092355
-1.587571
0.313878
0.807255
0.796153
-2.132226
-2.032756
-2.039995
-0.692221
-0.747093
-0.758515
-1.511646
1.364713
1.438435
1.348821
1.283618
1.277468
-1.710150
-1.647782
-1.395050
-1.443214
-1.409785
-0.138834
0.494378
0.315828
0.766389
-1.605605
-1.624812
-1.160860
-1.203078
-1.110226
-1.491527
-1.723060
-1.187345
0.299751
0.305424
0.314696
-1.110660
-1.023640
-1.188538
0.905958
0.950694
0.976083
-1.097996
1.248877
1.207369
-1.869217
-0.720184
0.073519
-1.817981
-1.944452
-0.576736
-0.629441
0.730044
0.705968
0.698001
-0.229984
-0.191286
0.762502
-0.189609
0.787717
-1.634514
-1.746065
0.898516
0.958902
0.822525
0.251792
-0.161332
1.089432
0.901801
1.271226
0.824117
-0.417152
-0.450068
-0.377587
-0.402443
0.400032
-0.472349
-0.521824
0.417381
-1.324901
-1.156605
-1.272090
-1.006383
-0.975953
0.271648
0.334396
-0.944062
-0.971228
-0.989008
0.366768
0.343776
0.379618
-1.164258
-1.136648
-1.119854
-1.492681
1.011916
1.060380
1.070931
-1.583621
-1.646474
-1.699699
-0.127783
-0.163182
-0.170190
-1.708930
-0.777472
-0.209186
-0.718649
-0.471466
-1.828016
-1.808165
1.317397
0.319586
0.837629
0.754271
-1.102301
-1.139275
-0.242115
-0.294635
-0.125857
-1.874725
-0.243793
-1.397080
-1.755350
-1.684768
-1.358717
-1.370175
-1.385535
0.863307
0.843244
0.852648
0.910735
0.205490
0.265079
0.203997
0.311663
-1.532664
-0.979214
-1.012959
-1.584384
-0.800433
0.172103
0.133320
0.023070
0.837709
0.617398
0.485847
0.154266
-0.025667
-0.424794
-1.575771
-1.548219
-1.517818
-1.758295
-0.487007
-0.196317
-0.488046
-0.398590
-0.519805
0.273325
0.230200
-0.063461
-0.092520
-0.066537
-0.034940
0.804024
0.205763
0.147385
0.112708
-0.093794
0.270878
-0.283398
-0.216324
1.203419
-1.151714
-1.199433
-1.191647
-1.142827
-1.277301
1.130654
0.942256
0.988226
0.891089
0.855072
0.815513
-1.679774
0.059170
0.034897
0.084629
0.074335
0.193203
0.216119
0.225561
1.385394
1.455999
1.040904
-1.400122
-1.399994
-0.479734
-0.527118
0.745710
0.927349
0.843823
0.836497
-1.357759
-1.337278
-0.596050
-0.637458
-0.446066
-1.534035
-1.502354
-0.189205
-1.555431
0.542473
0.552431
0.537075
-0.181620
-0.124690
0.827526
0.721054
-1.112387
-1.165861
-1.089672
-1.141650
-1.071440
-1.085886
0.378419
0.368132
-1.800382
0.328079
0.505411
0.563391
1.185911
1.113681
0.435585
-0.171503
-0.185646
-0.251944
-0.415201
-0.707458
-0.442842
-0.525895
-0.566306
-1.361589
-1.371752
1.003050
0.432420
0.334250
0.379697
0.134615
-0.473993
-0.579867
-0.603181
0.705116
0.589735
0.501113
-1.317357
-1.320179
-1.177233
-0.374417
-0.334320
-0.268266
-0.244775
-0.180619
-0.388637
-0.342327
-0.255088
-0.670319
-0.129234
-0.171626
1.010028
1.063556
1.066634
0.838392
1.012764
1.041458
-1.396305
-0.514590
-0.840927
-0.916864
-0.904187
-0.821846
-0.895187
-0.907843
0.132175
0.706776
-0.078443
-0.364765
-0.353581
0.891768
0.883414
0.609315
0.654641
0.623087
-1.095038
-1.245698
-0.059793
0.139799
-1.475922
0.906802
0.913277
0.808189
0.757906
-1.450998
-1.565409
-1.508139
0.839875
0.830454
0.490969
0.433930
0.438755
0.443466
0.812776
0.994679
-0.099705
0.639877
0.403465
0.467808
-0.131933
-0.775644
-0.676554
1.097868
0.202326
-0.723083
0.690665
0.807157
-0.525055
-0.605006
-0.787758
-0.857133
-0.806760
-0.986306
0.678642
0.639797
-0.411535
-0.576275
-0.538450
-1.024469
-0.953226
-1.972238
0.693176
0.689825
0.664441
0.679687
0.692465
-1.335383
0.551879
-1.219224
-0.245908
-1.111762
-1.419557
-0.679196
-0.514861
-0.511960
-1.092584
-0.028458
-1.315325
-1.799163
-0.165954
-0.124124
-0.243619
-1.290988
-1.167803
-0.963897
0.682555
0.161388
0.140410
-0.923283
-0.486812
0.504612
0.590828
-1.206937
-1.230926
-1.261652
0.333277
-0.963698
0.873794
0.825030
0.093668
-0.752916
-0.810710
-0.854330
-1.060150
-1.030521
-0.345069
-0.114800
1.199891
1.278310
0.299723
-0.406907
0.359630
-0.274026
-0.318623
0.476121
-0.207126
-0.480892
1.136941
-0.271999
-1.290624
-1.289613
0.769389
0.232102
0.299246
1.313542
0.339554
0.015961
-0.152158
-1.718356
-1.683503
-0.348203
-0.418748
-1.255685
-1.330062
-1.267235
1.325103
-1.334687
-0.668639
-0.933081
0.876617
-0.619455
-0.499626
-0.458666
-1.032450
-0.039460
-0.126348
0.312086
-0.734221
-0.880739
0.553877
0.598212
0.663884
0.668141
0.626803
0.184629
-1.808669
-0.734671
-0.874539
-0.848342
-0.433541
-0.423711
-0.428748
0.411823
0.448815
-0.414395
-0.499631
0.098627
0.273241
0.460571
-0.029704
0.023963
0.022903
0.073965
-0.919333
-1.111629
-0.977507
0.719933
0.704222
0.758797
-0.942214
-0.963986
0.005424
-1.226167
-1.232945
0.063370
0.087112
0.821223
0.047196
-1.364116
-1.492940
-1.375927
-1.131711
0.097550
-0.950316
-0.074585
-0.116209
-1.695336
-1.735966
0.182486
-0.220857
0.020914
-0.994037
0.279731
-0.021030
0.257639
-1.387681
-1.380974
0.385178
-1.105388
-1.403523
-1.456612
-1.560053
-1.285276
-0.995353
-0.794788
-0.741335
0.530695
0.577571
0.594175
-1.197592
-1.138112
-0.114551
-0.116495
-1.261398
-1.242433
-1.294820
-0.504801
-0.465587
-0.920402
-1.220988
0.794943
0.768239
-0.001080
-1.299594
-1.308284
-1.369990
-1.294707
-1.280208
-0.057119
-0.018987
0.469960
0.236218
-0.934392
-0.882903
-1.043227
-0.096970
-0.012657
0.217069
0.176887
-1.279592
0.056033
0.057817
-0.534251
-0.736020
0.090894
0.036905
-0.961613
-0.836684
-0.163934
0.404104
0.385945
0.638497
-1.290795
0.637978
-0.239205
1.006299
1.017940
-1.394930
-1.380605
-0.320369
-0.310410
-0.502985
-0.550322
0.464425
0.768738
0.262589
-0.723986
0.695418
-1.464852
0.626662
0.485810
0.490379
-1.459375
0.772094
0.354309
0.099114
0.525999
0.487312
-0.022332
0.372179
-1.669201
-1.603207
-1.526150
-1.603465
1.012428
0.586474
0.635716
0.591062
0.032071
-1.743671
1.085411
-1.445390
-1.278742
-1.213239
-0.014619
0.143238
0.040204
0.601116
0.343091
-0.852354
-0.823233
-1.653596
-0.148873
0.332775
0.462550
-1.818715
-1.793807
-0.819178
0.152850
0.393110
0.175058
0.229008
0.456580
0.349618
0.136158
-1.231497
0.316248
-1.354005
-0.479216
0.501967
0.622933
0.516797
0.472494
0.996114
0.644010
-1.270914
-1.201309
-1.176677
0.965245
0.966075
0.029562
0.699734
-0.972308
-1.017579
-1.010020
0.251091
0.291615
0.280914
0.311960
-0.862077
-0.127014
0.906735
0.418761
-1.083330
-0.848701
-1.760748
-0.595827
0.495339
0.741601
0.740232
-1.025068
-1.070861
-1.689337
0.924239
0.880611
-0.974206
-0.512608
0.035705
-0.013008
-1.364387
0.017763
-0.311616
-0.793320
0.959024
1.132607
0.206545
0.063750
0.004893
-1.362426
-0.420669
-0.018766
0.027884
-1.339495
1.163836
-1.441326
0.277191
0.255879
-1.685498
0.647168
0.618483
0.487006
-0.675572
0.518065
0.246340
-0.960656
0.802422
-0.921957
0.024047
-0.067331
0.065261
-1.002351
0.244548
-0.864020
-0.130289
-0.193696
-0.182873
-0.927128
1.164656
0.672848
-1.126046
-1.140164
-0.361827
0.272093
-1.863221
-1.961894
-1.975454
-0.977827
-1.315133
0.548858
-1.053855
0.320899
0.746664
0.751604
-0.209582
-0.952607
-1.032383
-1.087337
0.952944
0.910469
0.367406
0.330732
-0.527906
-0.730592
-1.446491
-1.461581
0.438057
-1.254600
-0.625876
-0.655365
-1.284869
-1.413360
0.515898
0.337418
0.645710
0.562761
-0.723005
0.807595
0.653334
-0.484114
-1.051979
-1.139141
0.612667
0.522483
-1.094383
0.534939
0.184801
-1.361936
0.755099
-0.606664
-1.512420
0.706357
0.702861
-0.605012
-0.591779
-1.177788
-1.315329
0.683110
0.707476
0.726945
-0.210052
0.452886
-0.203525
-1.086691
-1.541287
0.346078
0.417886
-1.103111
-1.205776
0.513481
0.715746
-0.030660
0.149985
0.074864
0.767573
1.140198
-0.339824
-0.317944
-0.621905
-1.453061
0.539003
-1.141076
-0.281832
-0.271115
-0.015516
0.210296
-1.241234
0.605010
-1.131580
-0.709808
0.721274
-1.026420
-0.796807
-0.912381
-1.258264
-0.415047
-0.285595
-1.221091
0.658242
-1.184053
-0.163460
-0.214149
-0.466517
-0.130880
-0.414358
-0.382797
0.444114
-1.088207
-1.135173
-0.369172
-0.141400
-0.203481
-0.747350
-0.789802
-0.557743
-0.847635
-0.630611
-0.324150
-0.785370
-0.521384
-0.493886
0.009386
-1.043855
0.754796
0.563495
-0.283004
-1.260078
-1.219678
-0.404036
0.194465
0.305662
-0.631712
-0.106076
-1.048450
-1.196166
-0.135062
0.429057
0.556949
0.581258
0.789789
-1.244800
0.274849
-1.128246
-0.907181
-1.164717
0.547476
-0.641561
0.424846
-1.284824
0.267707
0.235435
0.197096
-1.414877
-0.050560
-0.631355
-0.783368
-0.087402
-0.621213
-1.264132
0.064579
0.590384
-0.596991
-0.912546
-0.120181
SCALARS UY float 1
LOOKUP_TABLE default
-0.000004
-0.000003
-5.209998
-5.209999
-1.334506
-3.691911
-0.000001
-0.000001
-0.000001
-0.000001
-0.000001
-0.000001
-0.000001
-0.000001
-0.000001
-0.000001
-0.000001
-0.000001
-0.000001
-0.000001
-0.000001
-0.000001
-0.470940
-0.814307
-1.115776
-1.398966
-1.666838
-1.922741
-2.162800
-2.378949
-2.581947
-2.764272
-2.962507
-3.186927
-3.474464
-3.843341
-4.270251
-4.736009
-5.209998
-5.209999
-5.209999
-5.209999
-5.209999
-5.209999
-5.209999
-5.209999
-5.209999
-5.209999
-5.209999
-5.209999
-5.209999
-5.209999
-5.209999
-5.209999
-4.872485
-4.539106
-4.216071
-3.901717
-3.605860
-3.332270
-3.083611
-2.864597
-2.666393
-2.488550
-2.303842
-2.084379
-1.811947
-1.461435
-1.052162
-0.590556
-1.350032
-1.396480
-1.454005
-1.486165
-1.524990
-1.590183
-1.632719
-1.663030
-1.693833
-1.723945
-1.748838
-1.789188
-1.828731
-1.855416
-1.895794
-1.924965
-1.948166
-1.981383
-2.011146
-2.044111
-2.071256
-2.099204
-2.123713
-2.157551
-2.188076
-2.200394
-2.239601
-2.275410
-2.298889
-2.334152
-2.362933
-2.393983
-2.430717
-2.442992
-2.475974
-2.496538
-2.517972
-2.552171
-2.567780
-2.604790
-2.629199
-2.662166
-2.685544
-2.726983
-2.762181
-2.795976
-2.830184
-2.870718
-2.904739
-2.941331
-2.988653
-3.020126
-3.047142
-3.093080
-3.133374
-3.176280
-3.223277
-3.264396
-3.306005
-3.374018
-3.446853
-3.493590
-3.528966
-3.583671
-3.643275
-3.663796
-0.192823
-0.103244
-0.232081
-3.107960
-3.224015
-3.289112
-0.124308
-1.814020
-1.827512
-1.669573
-0.445492
-0.503238
-0.518730
-0.578386
-1.345433
-1.265771
-1.315547
-3.183233
-3.169996
-3.226102
-2.068046
-2.198175
-2.123578
-2.833239
-2.821620
-3.039287
-3.194417
-1.660001
-1.514822
-3.778586
-3.837582
-3.764116
-3.830493
-3.602360
-3.701165
-3.713232
-0.072549
-0.175577
-0.087941
-5.036925
-4.885752
-4.884770
-2.305262
-2.277792
-4.749003
-2.133336
-2.584902
-2.677669
-2.649354
-3.187484
-3.149772
-3.194250
-1.191201
-1.118589
-1.112525
-3.121543
-1.836648
-1.920032
-2.004811
-2.583532
-2.506990
-2.555307
-0.163566
-1.934007
-1.788304
-1.833402
-0.167287
-0.122837
-1.710893
-0.212179
-2.107712
-2.161029
-1.950809
-1.679508
-1.685856
-1.603840
-2.580789
-2.516728
-2.479397
-1.617784
-2.616303
-0.554873
-0.577436
-0.521356
-0.634455
-1.998478
-1.935225
-1.906894
-1.850970
-2.913204
-2.821969
-2.942212
-1.775231
-2.630787
-2.469998
-2.478989
-2.671038
-0.325620
-0.236489
-0.269026
-1.353879
-1.306440
-1.267101
-1.822440
-0.539558
-0.599588