# vtk DataFile Version 2.0
Test
ASCII
DATASET POLYDATA
POINTS 1445 float
0.000000 0.000000 0.000000
1.000000 0.000000 0.000000
1.000000 1.000000 0.000000
0.000000 1.000000 0.000000
0.000000 0.400000 0.000000
1.000000 0.600000 0.000000
0.029412 0.000000 0.000000
0.058824 0.000000 0.000000
0.088235 0.000000 0.000000
0.117647 0.000000 0.000000
0.147059 0.000000 0.000000
0.176471 0.000000 0.000000
0.205882 0.000000 0.000000
0.235294 0.000000 0.000000
0.264706 0.000000 0.000000
0.294118 0.000000 0.000000
0.323529 0.000000 0.000000
0.352941 0.000000 0.000000
0.382353 0.000000 0.000000
0.411765 0.000000 0.000000
0.441176 0.000000 0.000000
0.470588 0.000000 0.000000
0.500000 0.000000 0.000000
0.529412 0.000000 0.000000
0.558824 0.000000 0.000000
0.588235 0.000000 0.000000
0.617647 0.000000 0.000000
0.647059 0.000000 0.000000
0.676471 0.000000 0.000000
0.705882 0.000000 0.000000
0.735294 0.000000 0.000000
0.764706 0.000000 0.000000
0.794118 0.000000 0.000000
0.823529 0.000000 0.000000
0.852941 0.000000 0.000000
0.882353 0.000000 0.000000
0.911765 0.000000 0.000000
0.941176 0.000000 0.000000
0.970588 0.000000 0.000000
1.000000 0.030000 0.000000
1.000000 0.060000 0.000000
1.000000 0.090000 0.000000
1.000000 0.120000 0.000000
1.000000 0.150000 0.000000
1.000000 0.180000 0.000000
1.000000 0.210000 0.000000
1.000000 0.240000 0.000000
1.000000 0.270000 0.000000
1.000000 0.300000 0.000000
1.000000 0.330000 0.000000
1.000000 0.360000 0.000000
1.000000 0.390000 0.000000
1.000000 0.420000 0.000000
1.000000 0.450000 0.000000
1.000000 0.480000 0.000000
1.000000 0.510000 0.000000
1.000000 0.540000 0.000000
1.000000 0.570000 0.000000
1.000000 0.628571 0.000000
1.000000 0.657143 0.000000
1.000000 0.685714 0.000000
1.000000 0.714286 0.000000
1.000000 0.742857 0.000000
1.000000 0.771429 0.000000
1.000000 0.800000 0.000000
1.000000 0.828571 0.000000
1.000000 0.857143 0.000000
1.000000 0.885714 0.000000
1.000000 0.914286 0.000000
1.000000 0.942857 0.000000
1.000000 0.971429 0.000000
0.970588 1.000000 0.000000
0.941176 1.000000 0.000000
0.911765 1.000000 0.000000
0.882353 1.000000 0.000000
0.852941 1.000000 0.000000
0.823529 1.000000 0.000000
0.794118 1.000000 0.000000
0.764706 1.000000 0.000000
0.735294 1.000000 0.000000
0.705882 1.000000 0.000000
0.676471 1.000000 0.000000
0.647059 1.000000 0.000000
0.617647 1.000000 0.000000
0.588235 1.000000 0.000000
0.558824 1.000000 0.000000
0.529412 1.000000 0.000000
0.500000 1.000000 0.000000
0.470588 1.000000 0.000000
0.441176 1.000000 0.000000
0.411765 1.000000 0.000000
0.382353 1.000000 0.000000
0.352941 1.000000 0.000000
0.323529 1.000000 0.000000
0.294118 1.000000 0.000000
0.264706 1.000000 0.000000
0.235294 1.000000 0.000000
0.205882 1.000000 0.000000
0.176471 1.000000 0.000000
0.147059 1.000000 0.000000
0.117647 1.000000 0.000000
0.088235 1.000000 0.000000
0.058824 1.000000 0.000000
0.029412 1.000000 0.000000
0.000000 0.970000 0.000000
0.000000 0.940000 0.000000
0.000000 0.910000 0.000000
0.000000 0.880000 0.000000
0.000000 0.850000 0.000000
0.000000 0.820000 0.000000
0.000000 0.790000 0.000000
0.000000 0.760000 0.000000
0.000000 0.730000 0.000000
0.000000 0.700000 0.000000
0.000000 0.670000 0.000000
0.000000 0.640000 0.000000
0.000000 0.610000 0.000000
0.000000 0.580000 0.000000
0.000000 0.550000 0.000000
0.000000 0.520000 0.000000
0.000000 0.490000 0.000000
0.000000 0.460000 0.000000
0.000000 0.430000 0.000000
0.000000 0.371429 0.000000
0.000000 0.342857 0.000000
0.000000 0.314286 0.000000
0.000000 0.285714 0.000000
0.000000 0.257143 0.000000
0.000000 0.228571 0.000000
0.000000 0.200000 0.000000
0.000000 0.171429 0.000000
0.000000 0.142857 0.000000
0.000000 0.114286 0.000000
0.000000 0.085714 0.000000
0.000000 0.057143 0.000000
0.000000 0.028571 0.000000
0.029412 0.405882 0.000000
0.058824 0.411765 0.000000
0.088235 0.417647 0.000000
0.117647 0.423529 0.000000
0.147059 0.429412 0.000000
0.176471 0.435294 0.000000
0.205882 0.441176 0.000000
0.235294 0.447059 0.000000
0.264706 0.452941 0.000000
0.294118 0.458824 0.000000
0.323529 0.464706 0.000000
0.352941 0.470588 0.000000
0.382353 0.476471 0.000000
0.411765 0.482353 0.000000
0.441176 0.488235 0.000000
0.470588 0.494118 0.000000
0.500000 0.500000 0.000000
0.529412 0.505882 0.000000
0.558824 0.511765 0.000000
0.588235 0.517647 0.000000
0.617647 0.523529 0.000000
0.647059 0.529412 0.000000
0.676471 0.535294 0.000000
0.705882 0.541176 0.000000
0.735294 0.547059 0.000000
0.764706 0.552941 0.000000
0.794118 0.558824 0.000000
0.823529 0.564706 0.000000
0.852941 0.570588 0.000000
0.882353 0.576471 0.000000
0.911765 0.582353 0.000000
0.941176 0.588235 0.000000
0.970588 0.594118 0.000000
0.948492 0.617586 0.000000
0.918239 0.609871 0.000000
0.126115 0.454845 0.000000
0.100318 0.465379 0.000000
0.103006 0.442114 0.000000
0.117916 0.480680 0.000000
0.029145 0.895585 0.000000
0.046774 0.918032 0.000000
0.024990 0.926329 0.000000
0.056315 0.899171 0.000000
0.977770 0.695981 0.000000
0.963577 0.714729 0.000000
0.973827 0.736127 0.000000
0.605253 0.549394 0.000000
0.579370 0.549801 0.000000
0.570019 0.533816 0.000000
0.896809 0.971959 0.000000
0.919426 0.957680 0.000000
0.927686 0.976215 0.000000
0.899487 0.944624 0.000000
0.974081 0.924646 0.000000
0.977161 0.898750 0.000000
0.076578 0.973587 0.000000
0.102577 0.974440 0.000000
0.861693 0.698664 0.000000
0.848870 0.723174 0.000000
0.839521 0.701504 0.000000
0.820447 0.720618 0.000000
0.872237 0.675719 0.000000
0.882611 0.694724 0.000000
0.895344 0.672729 0.000000
0.606326 0.947716 0.000000
0.624868 0.973015 0.000000
0.599776 0.977307 0.000000
0.167986 0.944019 0.000000
0.199183 0.948746 0.000000
0.187884 0.972901 0.000000
0.787752 0.856005 0.000000
0.754801 0.854462 0.000000
0.778588 0.832828 0.000000
0.191471 0.922393 0.000000
0.801312 0.812216 0.000000
0.829867 0.817276 0.000000
0.805526 0.837896 0.000000
0.812775 0.791772 0.000000
0.822869 0.769821 0.000000
0.833826 0.791773 0.000000
0.849982 0.772760 0.000000
0.791421 0.791198 0.000000
0.772962 0.808877 0.000000
0.180049 0.621172 0.000000
0.160680 0.621098 0.000000
0.172158 0.598185 0.000000
0.588124 0.962489 0.000000
0.142171 0.602810 0.000000
0.827587 0.748015 0.000000
0.859778 0.745080 0.000000
0.882413 0.743965 0.000000
0.872759 0.762938 0.000000
0.894601 0.765041 0.000000
0.910115 0.745588 0.000000
0.901004 0.726420 0.000000
0.877058 0.719626 0.000000
0.632694 0.945006 0.000000
0.818411 0.883232 0.000000
0.787667 0.883633 0.000000
0.812018 0.862064 0.000000
0.808649 0.907835 0.000000
0.066636 0.534974 0.000000
0.083909 0.552665 0.000000
0.058224 0.565435 0.000000
0.037551 0.542621 0.000000
0.025720 0.565794 0.000000
0.304619 0.971425 0.000000
0.276072 0.975195 0.000000
0.284125 0.946285 0.000000
0.795087 0.737757 0.000000
0.797357 0.768346 0.000000
0.869843 0.656802 0.000000
0.840870 0.648068 0.000000
0.865462 0.630915 0.000000
0.043233 0.441011 0.000000
0.028792 0.469222 0.000000
0.020751 0.443790 0.000000
0.846918 0.676414 0.000000
0.058991 0.463368 0.000000
0.051906 0.966804 0.000000
0.071758 0.947609 0.000000
0.048298 0.939447 0.000000
0.026398 0.956010 0.000000
0.967109 0.949068 0.000000
0.946807 0.928411 0.000000
0.940173 0.953295 0.000000
0.956764 0.974357 0.000000
0.076722 0.471546 0.000000
0.082324 0.449317 0.000000
0.066669 0.435847 0.000000
0.114035 0.946088 0.000000
0.091278 0.952186 0.000000
0.128453 0.974235 0.000000
0.027019 0.501643 0.000000
0.047138 0.487417 0.000000
0.943388 0.639892 0.000000
0.923239 0.630552 0.000000
0.974491 0.618278 0.000000
0.972785 0.673666 0.000000
0.943930 0.664809 0.000000
0.968693 0.642530 0.000000
0.780685 0.976970 0.000000
0.756289 0.951349 0.000000
0.776857 0.951460 0.000000
0.935276 0.890540 0.000000
0.927168 0.867561 0.000000
0.954227 0.882176 0.000000
0.745760 0.974977 0.000000
0.952002 0.907568 0.000000
0.068063 0.489215 0.000000
0.051512 0.513895 0.000000
0.027757 0.982136 0.000000
0.023217 0.525632 0.000000
0.982410 0.972952 0.000000
0.951072 0.692907 0.000000
0.957020 0.857438 0.000000
0.937630 0.840379 0.000000
0.966912 0.834149 0.000000
0.923427 0.933924 0.000000
0.982257 0.848323 0.000000
0.092881 0.488189 0.000000
0.976737 0.871201 0.000000
0.067960 0.921895 0.000000
0.886538 0.603532 0.000000
0.918896 0.656866 0.000000
0.898227 0.636966 0.000000
0.092880 0.930380 0.000000
0.929071 0.911440 0.000000
0.081137 0.510877 0.000000
0.592772 0.576158 0.000000
0.150419 0.835159 0.000000
0.138607 0.859733 0.000000
0.125762 0.835294 0.000000
0.155304 0.458505 0.000000
0.139466 0.476317 0.000000
0.134858 0.496115 0.000000
0.109061 0.504849 0.000000
0.112238 0.859343 0.000000
0.866826 0.974780 0.000000
0.026919 0.865848 0.000000
0.348411 0.871602 0.000000
0.339654 0.840899 0.000000
0.369544 0.848927 0.000000
0.925986 0.818235 0.000000
0.909684 0.842117 0.000000
0.929360 0.717495 0.000000
0.924028 0.685311 0.000000
0.879688 0.955544 0.000000
0.875200 0.929284 0.000000
0.903901 0.918287 0.000000
0.950764 0.819790 0.000000
0.047492 0.878635 0.000000
0.069665 0.880314 0.000000
0.081712 0.904992 0.000000
0.573454 0.980624 0.000000
0.556694 0.550113 0.000000
0.094318 0.530060 0.000000
0.563246 0.571677 0.000000
0.563825 0.961795 0.000000
0.155902 0.972929 0.000000
0.577162 0.940912 0.000000
0.545227 0.533787 0.000000
0.864670 0.884377 0.000000
0.860690 0.911575 0.000000
0.840756 0.895862 0.000000
0.137227 0.926016 0.000000
0.139814 0.950758 0.000000
0.109156 0.913646 0.000000
0.884976 0.899786 0.000000
0.910807 0.890052 0.000000
0.830819 0.844574 0.000000
0.157710 0.484545 0.000000
0.180718 0.468069 0.000000
0.154331 0.510861 0.000000
0.124262 0.522394 0.000000
0.341085 0.732964 0.000000
0.323736 0.758404 0.000000
0.312899 0.730066 0.000000
0.857321 0.949854 0.000000
0.839840 0.975483 0.000000
0.053549 0.857833 0.000000
0.031143 0.832960 0.000000
0.840338 0.925315 0.000000
0.300796 0.756054 0.000000
0.080783 0.856286 0.000000
0.096939 0.884378 0.000000
0.544800 0.977874 0.000000
0.949430 0.731579 0.000000
0.955247 0.752582 0.000000
0.934712 0.748859 0.000000
0.030153 0.591093 0.000000
[...]
POINT_DATA 1445
SCALARS UX float 1
LOOKUP_TABLE default
-0.056428
0.000520
-0.000000
-0.056990
-0.056727
0.000000
-0.054754
-0.053079
-0.051404
-0.049730
-0.048055
-0.046380
-0.044706
-0.043031
-0.041356
-0.039681
-0.038006
-0.036332
-0.034657
-0.032982
-0.031307
-0.029632
-0.027957
-0.026282
-0.024607
-0.022932
-0.021257
-0.019582
-0.017907
-0.016232
-0.014557
-0.012882
-0.011207
-0.009531
-0.007856
-0.006181
-0.004506
-0.002831
-0.001156
0.000520
0.000519
0.000519
0.000519
0.000519
0.000519
0.000518
0.000517
0.000517
0.000516
0.000514
0.000513
0.000511
0.000508
0.000505
0.000499
0.000492
0.000477
0.000433
-0.000000
0.000000
-0.000000
-0.000000
-0.000000
-0.000000
-0.000000
-0.000000
-0.000000
-0.000000
-0.000000
-0.000000
-0.000000
-0.001677
-0.003353
-0.005030
-0.006707
-0.008383
-0.010060
-0.011737
-0.013414
-0.015091
-0.016768
-0.018445
-0.020122
-0.021799
-0.023475
-0.025152
-0.026828
-0.028505
-0.030181
-0.031857
-0.033533
-0.035209
-0.036885
-0.038560
-0.040236
-0.041911
-0.043587
-0.045262
-0.046938
-0.048613
-0.050289
-0.051964
-0.053639
-0.055315
-0.056990
-0.056990
-0.056991
-0.056992
-0.056992
-0.056993
-0.056994
-0.056995
-0.056997
-0.056998
-0.057000
-0.057001
-0.057003
-0.057005
-0.057007
-0.057009
-0.057011
-0.057010
-0.056988
-0.056440
-0.056425
-0.056422
-0.056423
-0.056424
-0.056425
-0.056426
-0.056426
-0.056427
-0.056427
-0.056428
-0.056428
-0.056428
-0.055046
-0.053389
-0.051716
-0.050032
-0.048351
-0.046677
-0.045002
-0.043327
-0.041650
-0.039975
-0.038291
-0.036615
-0.034936
-0.033253
-0.031585
-0.029906
-0.028242
-0.026578
-0.024900
-0.023232
-0.021550
-0.019872
-0.018199
-0.016517
-0.014845
-0.013173
-0.011504
-0.009836
-0.008173
-0.006506
-0.004844
-0.003204
-0.001599
-0.002982
-0.004696
-0.049807
-0.051290
-0.051067
-0.050290
-0.055331
-0.054326
-0.055567
-0.053783
-0.001271
-0.002081
-0.001494
-0.022509
-0.024002
-0.024448
-0.005882
-0.004593
-0.004122
-0.005730
-0.001478
-0.001302
-0.052628
-0.051147
-0.007907
-0.008633
-0.009171
-0.010255
-0.007312
-0.006714
-0.005994
-0.022445
-0.021387
-0.022818
-0.047421
-0.045644
-0.046288
-0.012104
-0.013983
-0.012628
-0.046084
-0.011334
-0.009705
-0.011092
-0.010682
-0.010109
-0.009481
-0.008561
-0.011900
-0.012951
-0.046748
-0.047851
-0.047199
-0.023482
-0.048906
-0.009843
-0.008006
-0.006714
-0.007263
-0.006016
-0.005132
-0.005656
-0.007025
-0.020942
-0.010354
-0.012108
-0.010720
-0.010910
-0.053213
-0.052228
-0.053690
-0.054869
-0.055541
-0.039638
-0.041264
-0.040806
-0.011698
-0.011564
-0.007456
-0.009109
-0.007712
-0.054526
-0.055371
-0.055816
-0.008756
-0.053650
-0.054033
-0.052903
-0.054239
-0.055487
-0.001875
-0.003032
-0.003410
-0.002465
-0.052640
-0.052300
-0.053139
-0.050495
-0.051791
-0.049673
-0.055472
-0.054327
-0.003260
-0.004416
-0.001486
-0.001560
-0.003219
-0.001806
-0.012503
-0.013895
-0.012722
-0.003690
-0.004153
-0.002610
-0.014495
-0.002736
-0.053135
-0.054076
-0.055409
-0.055686
-0.001003
-0.002800
-0.002451
-0.003557
-0.001887
-0.004365
-0.001012
-0.051720
-0.001326
-0.053119
-0.006502
-0.004655
-0.005844
-0.051700
-0.004044
-0.052389
-0.023244
-0.048425
-0.049097
-0.049829
-0.048134
-0.049058
-0.049328
-0.050798
-0.050599
-0.007592
-0.055458
-0.037145
-0.037645
-0.035942
-0.004222
-0.005150
-0.004037
-0.004350
-0.006859
-0.007115
-0.005479
-0.002808
-0.054286
-0.053023
-0.052336
-0.024318
-0.025286
-0.051637
-0.024928
-0.024867
-0.048109
-0.024107
-0.025904
-0.007716
-0.007943
-0.009080
-0.049174
-0.049026
-0.050773
-0.006558
-0.005085
-0.009649
-0.048024
-0.046707
-0.048219
-0.049932
-0.037569
-0.038556
-0.039175
-0.008134
-0.009130
-0.053942
-0.055219
-0.009103
-0.039863
-0.052391
-0.051469
-0.025951
-0.002888
-0.002555
-0.003727
-0.055287
-0.051805
-0.050744
-0.004645
-0.029927
-0.029802
-0.031599
-0.031103
-0.047865
-0.049463
-0.012034
-0.013261
-0.046576
-0.044824
-0.046721
-0.048861
-0.001494
-0.003083
-0.001502
-0.053274
-0.055711
-0.051444
-0.006090
-0.041791
-0.042950
-0.042136
-0.053479
-0.055004
-0.043462
-0.049860
-0.050700
-0.040279
-0.041577
-0.040106
-0.036953
-0.038019
-0.038469
-0.036719
-0.044293
-0.039862
-0.038852
-0.046365
-0.039140
-0.039765
-0.040612
-0.041590
-0.045000
-0.037898
-0.037029
-0.050486
-0.050139
-0.051821
-0.045768
-0.047651
-0.043402
-0.040595
-0.039820
-0.038363
-0.041348
-0.042221
-0.053005
-0.043055
-0.055496
-0.006631
-0.007614
-0.008150
-0.040671
-0.039148
-0.038149
-0.042487
-0.041098
-0.043223
-0.041457
-0.039730
-0.043259
-0.004502
-0.041924
-0.005726
-0.042068
-0.043261
-0.041998
-0.043169
-0.041558
-0.044123
-0.041768
-0.043096
-0.044151
-0.038935
-0.038716
-0.040581
-0.037370
-0.037476
-0.055338
-0.054190
-0.053678
-0.052821
-0.046453
-0.044809
-0.045054
-0.040001
-0.042110
-0.041414
-0.046036
-0.045470
-0.042853
-0.044437
-0.049941
-0.051278
-0.051654
-0.051902
-0.048177
-0.048103
-0.046593
-0.048142
-0.049113
-0.049138
-0.042544
-0.044135
-0.043328
-0.042806
-0.046467
-0.047364
-0.047889
-0.054526
-0.039230
-0.037508
-0.038062
-0.044664
-0.042883
-0.043816
-0.054076
-0.050147
-0.051398
-0.050364
-0.052082
-0.043145
-0.036397
-0.013468
-0.013251
-0.015021
-0.052689
-0.053117
-0.014653
-0.001443
-0.045734
-0.046716
-0.044851
-0.003109
-0.047438
-0.035836
-0.036457
-0.051537
-0.054163
-0.010926
-0.012612
-0.011287
-0.012220
-0.046240
-0.038318
-0.045794
-0.015318
-0.013558
-0.014852
-0.034515
-0.033943
-0.055465
-0.035300
-0.019798
-0.019450
-0.021487
-0.021080
-0.044852
-0.009013
-0.051868
-0.044137
-0.047924
-0.007001
-0.011383
-0.045005
-0.039137
-0.039213
-0.037954
-0.008071
-0.022974
-0.024552
-0.024176
-0.022623
-0.014169
-0.013250
-0.015158
-0.014048
-0.025864
-0.055299
-0.026103
-0.036616
-0.034924
-0.048938
-0.016193
-0.015872
-0.047426
-0.037401
-0.014306
-0.018212
-0.017850
-0.033453
-0.034454
-0.032686
-0.045015
-0.008211
-0.025367
-0.026397
-0.025184
-0.025801
-0.026906
-0.022349
-0.023922
-0.022768
-0.023536
-0.024112
-0.020879
-0.021140
-0.021848
-0.040565
-0.041844
-0.016569
-0.017679
-0.017609
-0.016572
-0.015528
-0.013034
-0.019195
-0.019466
-0.020163
-0.018522
-0.006229
-0.005629
-0.009411
-0.010541
-0.034985
-0.036851
-0.035455
-0.036301
-0.036270
-0.035610
-0.013129
-0.014497
-0.012832
-0.014849
-0.016201
-0.015871
-0.034103
-0.034511
-0.015702
-0.016120
-0.015241
-0.014223
-0.015861
-0.016565
-0.017572
-0.013098
-0.009802
-0.032650
-0.032128
-0.033478
-0.032487
-0.030778
-0.031544
-0.014516
-0.016231
-0.038483
-0.017082
-0.016701
-0.033126
-0.041142
-0.039886
-0.035729
-0.033189
-0.034358
-0.010433
-0.033223
-0.033677
-0.034499
-0.017899
-0.017510
-0.032350
-0.032742
-0.019190
-0.018264
-0.019252
-0.028831
-0.030365
-0.028943
-0.030047
-0.017975
-0.017479
-0.027677
-0.027291
-0.028931
-0.016229
-0.016899
-0.031499
-0.031945
-0.032765
-0.031391
-0.031744
-0.034004
-0.010735
-0.019943
-0.020934
-0.030631
-0.031026
-0.055466
-0.053630
-0.050243
-0.050450
-0.029795
-0.030226
-0.031061
-0.011491
-0.048756
-0.028097
-0.028532
-0.054901
-0.029358
-0.032305
-0.020873
-0.019624
-0.012054
-0.028928
-0.049394
-0.029322
-0.026401
-0.026821
-0.018792
-0.018393
-0.039969
-0.027232
-0.027629
-0.009879
-0.030615
-0.030887
-0.025537
-0.025943
-0.025128
-0.023845
-0.024250
-0.038494
-0.021627
-0.022620
-0.019668
-0.019264
-0.045366
-0.050945
-0.022560
-0.021309
-0.018902
-0.017215
-0.017909
-0.023439
-0.022157
-0.021944
-0.023630
-0.053114
-0.040017
-0.025314
-0.024309
-0.028029
-0.027012
-0.028653
-0.027685
-0.020262
-0.021268
-0.021347
-0.023030
-0.021752
-0.020473
-0.048903
-0.018581
-0.020072
-0.011819
-0.044249
-0.027627
-0.027495
-0.019588
-0.024709
-0.026000
-0.023315
-0.028508
-0.028412
-0.029736
-0.028053
-0.055748
-0.025858
-0.036187
-0.035405
-0.020410
-0.015528
-0.022997
-0.013900
-0.025003
-0.024687
-0.026692
-0.026373
-0.028300
-0.032281
-0.033600
-0.033084
-0.021753
-0.028543
-0.027233
-0.028226
-0.029795
-0.030019
-0.029378
-0.029610
-0.016991
-0.045814
-0.044595
-0.017454
-0.035704
-0.034888
-0.032388
-0.031551
-0.031286
-0.018385
-0.033371
-0.046652
-0.030542
-0.010660
-0.019283
-0.034557
-0.034219
-0.027213
-0.026632
-0.035235
-0.029431
-0.020199
-0.036098
-0.030985
-0.037191
-0.047774
-0.053506
-0.051794
-0.006718
-0.005237
-0.005470
-0.006229
-0.001141
-0.002145
-0.000904
-0.002688
-0.055156
-0.054349
-0.054933
-0.033973
-0.032479
-0.032034
-0.050553
-0.051840
-0.052311
-0.050705
-0.054952
-0.055127
-0.003842
-0.005323
-0.048547
-0.047818
-0.047285
-0.046200
-0.049146
-0.049738
-0.050461
-0.034012
-0.035068
-0.033639
-0.009048
-0.010825
-0.010181
-0.044342
-0.042465
-0.043819
-0.010386
-0.045113
-0.046739
-0.045353
-0.045765
-0.046339
-0.046964
-0.047883
-0.044549
-0.043499
-0.009742
-0.008640
-0.009295
-0.032975
-0.007587
-0.046607
-0.048440
-0.049729
-0.049180
-0.050423
-0.051306
-0.050786
-0.049423
-0.035513
-0.046088
-0.044337
-0.045724
-0.045532
-0.003293
-0.004275
-0.002810
-0.001635
-0.000958
-0.016830
-0.015204
-0.015663
-0.044756
-0.044887
-0.049009
-0.047359
-0.048761
-0.002025
-0.001158
-0.000729
-0.047705
-0.002883
-0.002437
-0.003567
-0.002231
-0.000984
-0.054555
-0.053399
-0.053022
-0.053966
-0.003888
-0.004238
-0.003413
-0.005975
-0.004679
-0.006796
-0.001043
-0.002194
-0.053203
-0.052058
-0.055015
-0.054872
-0.053229
-0.054645
-0.043941
-0.042551
-0.043723
-0.052742
-0.052280
-0.053821
-0.041952
-0.053695
-0.003386
-0.002436
-0.001061
-0.000822
-0.055427
-0.053636
-0.053980
-0.052875
-0.054542
-0.052068
-0.055416
-0.004800
-0.055103
-0.003351
-0.049988
-0.051803
-0.050627
-0.004770
-0.052389
-0.004124
-0.033236
-0.008048
-0.007375
-0.006644
-0.008383
-0.007459
-0.007186
-0.005715
-0.005873
-0.048846
-0.001014
-0.019324
-0.018826
-0.020528
-0.052212
-0.051284
-0.052401
-0.052096
-0.049578
-0.049322
-0.050956
-0.053623
-0.002186
-0.003449
-0.004134
-0.032140
-0.031195
-0.004871
-0.031552
-0.031592
-0.008360
-0.032351
-0.030578
-0.048722
-0.048496
-0.047360
-0.007296
-0.007444
-0.005697
-0.049878
-0.051349
-0.046794
-0.008489
-0.009804
-0.008289
-0.006577
-0.018908
-0.017920
-0.017303
-0.048304
-0.047309
-0.002531
-0.001255
-0.047337
-0.016613
-0.004082
-0.005002
-0.030508
-0.053544
-0.053876
-0.052707
-0.001208
-0.004692
-0.005759
-0.051790
-0.026556
-0.026681
-0.024885
-0.025382
-0.008605
-0.007008
-0.044410
-0.043185
-0.009932
-0.011681
-0.009782
-0.007643
-0.054934
-0.053348
-0.054926
-0.003200
-0.000764
-0.005029
-0.050346
-0.014703
-0.013546
-0.014360
-0.003015
-0.001486
-0.013037
-0.006639
-0.005794
-0.016213
-0.014915
-0.016383
-0.019531
-0.018465
-0.018016
-0.019763
-0.012175
-0.016625
-0.017636
-0.010105
-0.017334
-0.016708
-0.015863
-0.014884
-0.011503
-0.018576
-0.019446
-0.005996
-0.006340
-0.004659
-0.010730
-0.008847
-0.013099
-0.015884
-0.016659
-0.018116
-0.015129
-0.014258
-0.003484
-0.013423
-0.000990
-0.049806
-0.048824
-0.048290
-0.015801
-0.017323
-0.018323
-0.014002
-0.015391
-0.013270
-0.015029
-0.016754
-0.013228
-0.051932
-0.014573
-0.050712
-0.014408
-0.013212
-0.014475
-0.013303
-0.014913
-0.012362
-0.014716
-0.013386
-0.012329
-0.017556
-0.017773
-0.015913
-0.019119
-0.019014
-0.001145
-0.002295
-0.002805
-0.003664
-0.010027
-0.011669
-0.011428
-0.016468
-0.014359
-0.015056
-0.010449
-0.011018
-0.013618
-0.012034
-0.006536
-0.005198
-0.004824
-0.004580
-0.008301
-0.008373
-0.009884
-0.008333
-0.007362
-0.007336
-0.013925
-0.012334
-0.013142
-0.013663
-0.010015
-0.009121
-0.008593
-0.001955
-0.017238
-0.018959
-0.018406
-0.011810
-0.013591
-0.012660
-0.002399
-0.006344
-0.005092
-0.006124
-0.004410
-0.013356
-0.020074
-0.042987
-0.043201
-0.041434
-0.003785
-0.003359
-0.041800
-0.054984
-0.010738
-0.009757
-0.011622
-0.053323
-0.009033
-0.020640
-0.020021
-0.004938
-0.002324
-0.045545
-0.043861
-0.045190
-0.044249
-0.010256
-0.018164
-0.010699
-0.041132
-0.042889
-0.041596
-0.021962
-0.022531
-0.001124
-0.021174
-0.036684
-0.037029
-0.034992
-0.035402
-0.011643
-0.047427
-0.004619
-0.012360
-0.008547
-0.049440
-0.045059
-0.011495
-0.017355
-0.017279
-0.018537
-0.048414
-0.033504
-0.031926
-0.032300
-0.033852
-0.042301
-0.043215
-0.041309
-0.042414
-0.030615
-0.001177
-0.030375
-0.019857
-0.021548
-0.007551
-0.040256
-0.040577
-0.009061
-0.019086
-0.042145
-0.038269
-0.038629
-0.023032
-0.022033
-0.023799
-0.011455
-0.048231
-0.031099
-0.030072
-0.031284
-0.030669
-0.029562
-0.034116
-0.032544
-0.033699
-0.032928
-0.032357
-0.035584
-0.035326
-0.034614
-0.015930
-0.014653
-0.039889
-0.038780
-0.038852
-0.039884
-0.040931
-0.043412
-0.037266
-0.036997
-0.036298
-0.037936
-0.050209
-0.050817
-0.047065
-0.045924
-0.021482
-0.019618
-0.021013
-0.020166
-0.020219
-0.020877
-0.043350
-0.041986
-0.043656
-0.041629
-0.040278
-0.040613
-0.022365
-0.021959
-0.040750
-0.040334
-0.041220
-0.042236
-0.040603
-0.039898
-0.038894
-0.043360
-0.046683
-0.023825
-0.024345
-0.022995
-0.023996
-0.025704
-0.024938
-0.041931
-0.040218
-0.017986
-0.039371
-0.039750
-0.023345
-0.015339
-0.016595
-0.020738
-0.023294
-0.022127
-0.046028
-0.023244
-0.022790
-0.021968
-0.038557
-0.038944
-0.024117
-0.023727
-0.037267
-0.038201
-0.037216
-0.027640
-0.026107
-0.027530
-0.026424
-0.038477
-0.038971
-0.028785
-0.029170
-0.027532
-0.040242
-0.039569
-0.024966
-0.024521
-0.023701
-0.025078
-0.024727
-0.022462
-0.045707
-0.036523
-0.035535
-0.025835
-0.025442
-0.001013
-0.002849
-0.006232
-0.006024
-0.026669
-0.026239
-0.025403
-0.044994
-0.007724
-0.028366
-0.027932
-0.001576
-0.027105
-0.024160
-0.035586
-0.036834
-0.044405
-0.027537
-0.007089
-0.027145
-0.030060
-0.029641
-0.037663
-0.038060
-0.016501
-0.029231
-0.028837
-0.046562
-0.025849
-0.025587
-0.030925
-0.030520
-0.031333
-0.032615
-0.032212
-0.017976
-0.034841
-0.033851
-0.036786
-0.037189
-0.011110
-0.005540
-0.033900
-0.035151
-0.037574
-0.039260
-0.038563
-0.033020
-0.034302
-0.034529
-0.032844
-0.003367
-0.016452
-0.031161
-0.032163
-0.028450
-0.029464
-0.027824
-0.028790
-0.036210
-0.035206
-0.035109
-0.033428
-0.034705
-0.035984
-0.007583
-0.037889
-0.036383
-0.044645
-0.012241
-0.028842
-0.028977
-0.036885
-0.031750
-0.030474
-0.033155
-0.027961
-0.028071
-0.026732
-0.028413
-0.000733
-0.030602
-0.020300
-0.021080
-0.036066
-0.040946
-0.033465
-0.042575
-0.031468
-0.031777
-0.029781
-0.030093
-0.028173
-0.024199
-0.022881
-0.023395
-0.034723
-0.027937
-0.029247
-0.028255
-0.026685
-0.026459
-0.027098
-0.026864
-0.039490
-0.010659
-0.011877
-0.038996
-0.020779
-0.021593
-0.024089
-0.024925
-0.025192
-0.038067
-0.023106
-0.009823
-0.025933
-0.045782
-0.037170
-0.021925
-0.022260
-0.029269
-0.029849
-0.021244
-0.027051
-0.036254
-0.020382
-0.025495
-0.019289
-0.008700
SCALARS UY float 1
LOOKUP_TABLE default
-0.000000
-0.000000
-0.133000
-0.133000
-0.053200
-0.079807
-0.000000
-0.000000
-0.000000
-0.000000
-0.000000
-0.000000
-0.000000
-0.000000
-0.000000
-0.000000
-0.000000
-0.000000
-0.000000
-0.000000
-0.000000
-0.000000
-0.000000
-0.000000
-0.000000
-0.000000
-0.000000
-0.000000
-0.000000
-0.000000
-0.000000
-0.000000
-0.000000
-0.000000
-0.000000
-0.000000
-0.000000
-0.000000
-0.000000
-0.003987
-0.007974
-0.011960
-0.015947
-0.019933
-0.023920
-0.027906
-0.031893
-0.035879
-0.039866
-0.043852
-0.047838
-0.051825
-0.055811
-0.059797
-0.063783
-0.067769
-0.071756
-0.075750
-0.083644
-0.087447
-0.091243
-0.095039
-0.098835
-0.102631
-0.106427
-0.110223
-0.114019
-0.117816
-0.121612
-0.125408
-0.129204
-0.133000
-0.133000
-0.133000
-0.133000
-0.133000
-0.133000
-0.133000
-0.133000
-0.133000
-0.133000
-0.133000
-0.133000
-0.133000
-0.133000
-0.133000
-0.133000
-0.133000
-0.133000
-0.133000
-0.133000
-0.133000
-0.133000
-0.133000
-0.133000
-0.133000
-0.133000
-0.133000
-0.133000
-0.133000
-0.133000
-0.133000
-0.133000
-0.133000
-0.129012
-0.125024
-0.121037
-0.117049
-0.113062
-0.109074
-0.105087
-0.101099
-0.097112
-0.093125
-0.089138
-0.085151
-0.081164
-0.077177
-0.073190
-0.069203
-0.065217
-0.061229
-0.057235
-0.049348
-0.045549
-0.041752
-0.037957
-0.034161
-0.030365
-0.026569
-0.022774
-0.018978
-0.015183
-0.011387
-0.007591
-0.003796
-0.053979
-0.054771
-0.055554
-0.056327
-0.057121
-0.057896
-0.058687
-0.059462
-0.060245
-0.061025
-0.061806
-0.062588
-0.063362
-0.064153
-0.064936
-0.065707
-0.066496
-0.067285
-0.068057
-0.068839
-0.069631
-0.070405
-0.071187
-0.071968
-0.072749
-0.073532
-0.074309
-0.075100
-0.075876
-0.076672
-0.077448
-0.078236
-0.079032
-0.082161
-0.081142
-0.060547
-0.061947
-0.058844
-0.063984
-0.119121
-0.122105
-0.123208
-0.119598
-0.092604
-0.095094
-0.097939
-0.073109
-0.073164
-0.071023
-0.129274
-0.127377
-0.129840
-0.125642
-0.122988
-0.119547
-0.129489
-0.129603
-0.092950
-0.096208
-0.093327
-0.095868
-0.089901
-0.092427
-0.089503
-0.126051
-0.129413
-0.129984
-0.125560
-0.126188
-0.129398
-0.113863
-0.113657
-0.110782
-0.122686
-0.108043
-0.108716
-0.111456
-0.105326
-0.102408
-0.105326
-0.102800
-0.105249
-0.107598
-0.082655
-0.082645
-0.079601
-0.128014
-0.080215
-0.099510
-0.099121
-0.098974
-0.101495
-0.101776
-0.099191
-0.096642
-0.095738
-0.125691
-0.117482
-0.117535
-0.114668
-0.120751
-0.071197
-0.073549
-0.075245
-0.072212
-0.075291
-0.129202
-0.129703
-0.125861
-0.098145
-0.102211
-0.087387
-0.086226
-0.083948
-0.058710
-0.062459
-0.059074
-0.089993
-0.061682
-0.128588
-0.126036
-0.124951
-0.127153
-0.126233
-0.123488
-0.126794
-0.129593
-0.062768
-0.059810
-0.058007
-0.125834
-0.126645
-0.129575
-0.066766
-0.064877
-0.085132
-0.083890
-0.082250
-0.089635
-0.088450
-0.085487
-0.129939
-0.126534
-0.126549
-0.118456
-0.115403
-0.117345
-0.129674
-0.120719
-0.065117
-0.068396
-0.130625
-0.069954
-0.129406
-0.092191
-0.114058
-0.111791
-0.110964
-0.124220
-0.112847
-0.064981
-0.115887
-0.122619
-0.080305
-0.087392
-0.084748
-0.123747
-0.121233
-0.067996
-0.076673
-0.111092
-0.114358
-0.111110
-0.061035
-0.063406
-0.066037
-0.067196
-0.114306
-0.129649
-0.115169
-0.115936
-0.111855
-0.112922
-0.108848
-0.112021
-0.095458
-0.091176
-0.127093
-0.123603
-0.122142
-0.109056
-0.116869
-0.117092
-0.120372
-0.130425
-0.073207
-0.070546
-0.076075
-0.127922
-0.129402
-0.125146
-0.071031
-0.117635
-0.121249
-0.119161
-0.123167
-0.126455
-0.121523
-0.119683
-0.118391
-0.112344
-0.064497
-0.062312
-0.067996
-0.069528
-0.097511
-0.100892
-0.097126
-0.126336
-0.129742
-0.114104
-0.110798
-0.123075
-0.100580
-0.113899
-0.117633
-0.130059
-0.097333
-0.100125
-0.099628
-0.078653
-0.077135
-0.073160
-0.102670
-0.069523
-0.073233
-0.072422
-0.068617
-0.121245
-0.118384
-0.123388
-0.123905
-0.066139
-0.063326
-0.070798
-0.072233
-0.107808
-0.106189
-0.104729
-0.110798
-0.107367
-0.110516
-0.115524
-0.073543
-0.072942
-0.070720
-0.079893
-0.083148
-0.070010
-0.076238
-0.080123
-0.074025
-0.077050
-0.078152
-0.082782
-0.085495
-0.082285
-0.087106
-0.129005
-0.081936
-0.079172
-0.118306
-0.104199
-0.108031
-0.103899
-0.107569
-0.067918
-0.103783
-0.100936
-0.093695
-0.097512
-0.096223
-0.074228
-0.075768
-0.065939
-0.096837
-0.094185
-0.093680
-0.099948
-0.096261
-0.084168
-0.099742
-0.087381
-0.112419
-0.114862
-0.111309
-0.111429
-0.111586
-0.108010
-0.080901
-0.080426
-0.076805
-0.084091
-0.085954
-0.084711
-0.105627
-0.067461
-0.104657
-0.103121
-0.109348
-0.111217
-0.113171
-0.114640
-0.088839
-0.088764
-0.092360
-0.096019
-0.071365
-0.075478
-0.069716
-0.073477
-0.069273
-0.091495
-0.089239
-0.092105
-0.088612
-0.096256
-0.099924
-0.092550
-0.122098
-0.123191
-0.118767
-0.089000
-0.084816
-0.116827
-0.116645
-0.100912
-0.102949
-0.099929
-0.092815
-0.099244
-0.103039
-0.101369
-0.106048
-0.104547
-0.107681
-0.127059
-0.124292
-0.120093
-0.130401
-0.092825
-0.089665
-0.092280
-0.095013
-0.125755
-0.128615
-0.123375
-0.106872
-0.105933
-0.103229
-0.107476
-0.082708
-0.083455
-0.085847
-0.080985
-0.062470
-0.108929
-0.100613
-0.104230
-0.103139
-0.107720
-0.103522
-0.106634
-0.101209
-0.114127
-0.110622
-0.110959
-0.102992
-0.114529
-0.098088
-0.094346
-0.106289
-0.086287
-0.085125
-0.083924
-0.081633
-0.087476
-0.077060
-0.088956
-0.080299
-0.116221
-0.116879
-0.119411
-0.095026
-0.098727
-0.056167
-0.101918
-0.074178
-0.078043
-0.077351
-0.072919
-0.076821
-0.115331
-0.086355
-0.073630
-0.117779
-0.104370
-0.127000
-0.071289
-0.067499
-0.064028