# vtk DataFile Version 2.0
Test
ASCII
DATASET POLYDATA
POINTS 1445 float
0.000000 0.000000 0.000000
1.000000 0.000000 0.000000
1.000000 1.000000 0.000000
0.000000 1.000000 0.000000
0.000000 0.400000 0.000000
1.000000 0.600000 0.000000
0.029412 0.000000 0.000000
0.058824 0.000000 0.000000
0.088235 0.000000 0.000000
0.117647 0.000000 0.000000
0.147059 0.000000 0.000000
0.176471 0.000000 0.000000
0.205882 0.000000 0.000000
0.235294 0.000000 0.000000
0.264706 0.000000 0.000000
0.294118 0.000000 0.000000
0.323529 0.000000 0.000000
0.352941 0.000000 0.000000
0.382353 0.000000 0.000000
0.411765 0.000000 0.000000
0.441176 0.000000 0.000000
0.470588 0.000000 0.000000
0.500000 0.000000 0.000000
0.529412 0.000000 0.000000
0.558824 0.000000 0.000000
0.588235 0.000000 0.000000
0.617647 0.000000 0.000000
0.647059 0.000000 0.000000
0.676471 0.000000 0.000000
0.705882 0.000000 0.000000
0.735294 0.000000 0.000000
0.764706 0.000000 0.000000
0.794118 0.000000 0.000000
0.823529 0.000000 0.000000
0.852941 0.000000 0.000000
0.882353 0.000000 0.000000
0.911765 0.000000 0.000000
0.941176 0.000000 0.000000
0.970588 0.000000 0.000000
1.000000 0.030000 0.000000
1.000000 0.060000 0.000000
1.000000 0.090000 0.000000
1.000000 0.120000 0.000000
1.000000 0.150000 0.000000
1.000000 0.180000 0.000000
1.000000 0.210000 0.000000
1.000000 0.240000 0.000000
1.000000 0.270000 0.000000
1.000000 0.300000 0.000000
1.000000 0.330000 0.000000
1.000000 0.360000 0.000000
1.000000 0.390000 0.000000
1.000000 0.420000 0.000000
1.000000 0.450000 0.000000
1.000000 0.480000 0.000000
1.000000 0.510000 0.000000
1.000000 0.540000 0.000000
1.000000 0.570000 0.000000
1.000000 0.628571 0.000000
1.000000 0.657143 0.000000
1.000000 0.685714 0.000000
1.000000 0.714286 0.000000
1.000000 0.742857 0.000000
1.000000 0.771429 0.000000
1.000000 0.800000 0.000000
1.000000 0.828571 0.000000
1.000000 0.857143 0.000000
1.000000 0.885714 0.000000
1.000000 0.914286 0.000000
1.000000 0.942857 0.000000
1.000000 0.971429 0.000000
0.970588 1.000000 0.000000
0.941176 1.000000 0.000000
0.911765 1.000000 0.000000
0.882353 1.000000 0.000000
0.852941 1.000000 0.000000
0.823529 1.000000 0.000000
0.794118 1.000000 0.000000
0.764706 1.000000 0.000000
0.735294 1.000000 0.000000
0.705882 1.000000 0.000000
0.676471 1.000000 0.000000
0.647059 1.000000 0.000000
0.617647 1.000000 0.000000
0.588235 1.000000 0.000000
0.558824 1.000000 0.000000
0.529412 1.000000 0.000000
0.500000 1.000000 0.000000
0.470588 1.000000 0.000000
0.441176 1.000000 0.000000
0.411765 1.000000 0.000000
0.382353 1.000000 0.000000
0.352941 1.000000 0.000000
0.323529 1.000000 0.000000
0.294118 1.000000 0.000000
0.264706 1.000000 0.000000
0.235294 1.000000 0.000000
0.205882 1.000000 0.000000
0.176471 1.000000 0.000000
0.147059 1.000000 0.000000
0.117647 1.000000 0.000000
0.088235 1.000000 0.000000
0.058824 1.000000 0.000000
0.029412 1.000000 0.000000
0.000000 0.970000 0.000000
0.000000 0.940000 0.000000
0.000000 0.910000 0.000000
0.000000 0.880000 0.000000
0.000000 0.850000 0.000000
0.000000 0.820000 0.000000
0.000000 0.790000 0.000000
0.000000 0.760000 0.000000
0.000000 0.730000 0.000000
0.000000 0.700000 0.000000
0.000000 0.670000 0.000000
0.000000 0.640000 0.000000
0.000000 0.610000 0.000000
0.000000 0.580000 0.000000
0.000000 0.550000 0.000000
0.000000 0.520000 0.000000
0.000000 0.490000 0.000000
0.000000 0.460000 0.000000
0.000000 0.430000 0.000000
0.000000 0.371429 0.000000
0.000000 0.342857 0.000000
0.000000 0.314286 0.000000
0.000000 0.285714 0.000000
0.000000 0.257143 0.000000
0.000000 0.228571 0.000000
0.000000 0.200000 0.000000
0.000000 0.171429 0.000000
0.000000 0.142857 0.000000
0.000000 0.114286 0.000000
0.000000 0.085714 0.000000
0.000000 0.057143 0.000000
0.000000 0.028571 0.000000
0.029412 0.405882 0.000000
0.058824 0.411765 0.000000
0.088235 0.417647 0.000000
0.117647 0.423529 0.000000
0.147059 0.429412 0.000000
0.176471 0.435294 0.000000
0.205882 0.441176 0.000000
0.235294 0.447059 0.000000
0.264706 0.452941 0.000000
0.294118 0.458824 0.000000
0.323529 0.464706 0.000000
0.352941 0.470588 0.000000
0.382353 0.476471 0.000000
0.411765 0.482353 0.000000
0.441176 0.488235 0.000000
0.470588 0.494118 0.000000
0.500000 0.500000 0.000000
0.529412 0.505882 0.000000
0.558824 0.511765 0.000000
0.588235 0.517647 0.000000
0.617647 0.523529 0.000000
0.647059 0.529412 0.000000
0.676471 0.535294 0.000000
0.705882 0.541176 0.000000
0.735294 0.547059 0.000000
0.764706 0.552941 0.000000
0.794118 0.558824 0.000000
0.823529 0.564706 0.000000
0.852941 0.570588 0.000000
0.882353 0.576471 0.000000
0.911765 0.582353 0.000000
0.941176 0.588235 0.000000
0.970588 0.594118 0.000000
0.948492 0.617586 0.000000
0.918239 0.609871 0.000000
0.126115 0.454845 0.000000
0.100318 0.465379 0.000000
0.103006 0.442114 0.000000
0.117916 0.480680 0.000000
0.029145 0.895585 0.000000
0.046774 0.918032 0.000000
0.024990 0.926329 0.000000
0.056315 0.899171 0.000000
0.977770 0.695981 0.000000
0.963577 0.714729 0.000000
0.973827 0.736127 0.000000
0.605253 0.549394 0.000000
0.579370 0.549801 0.000000
0.570019 0.533816 0.000000
0.896809 0.971959 0.000000
0.919426 0.957680 0.000000
0.927686 0.976215 0.000000
0.899487 0.944624 0.000000
0.974081 0.924646 0.000000
0.977161 0.898750 0.000000
0.076578 0.973587 0.000000
0.102577 0.974440 0.000000
0.861693 0.698664 0.000000
0.848870 0.723174 0.000000
0.839521 0.701504 0.000000
0.820447 0.720618 0.000000
0.872237 0.675719 0.000000
0.882611 0.694724 0.000000
0.895344 0.672729 0.000000
0.606326 0.947716 0.000000
0.624868 0.973015 0.000000
0.599776 0.977307 0.000000
0.167986 0.944019 0.000000
0.199183 0.948746 0.000000
0.187884 0.972901 0.000000
0.787752 0.856005 0.000000
0.754801 0.854462 0.000000
0.778588 0.832828 0.000000
0.191471 0.922393 0.000000
0.801312 0.812216 0.000000
0.829867 0.817276 0.000000
0.805526 0.837896 0.000000
0.812775 0.791772 0.000000
0.822869 0.769821 0.000000
0.833826 0.791773 0.000000
0.849982 0.772760 0.000000
0.791421 0.791198 0.000000
0.772962 0.808877 0.000000
0.180049 0.621172 0.000000
0.160680 0.621098 0.000000
0.172158 0.598185 0.000000
0.588124 0.962489 0.000000
0.142171 0.602810 0.000000
0.827587 0.748015 0.000000
0.859778 0.745080 0.000000
0.882413 0.743965 0.000000
0.872759 0.762938 0.000000
0.894601 0.765041 0.000000
0.910115 0.745588 0.000000
0.901004 0.726420 0.000000
0.877058 0.719626 0.000000
0.632694 0.945006 0.000000
0.818411 0.883232 0.000000
0.787667 0.883633 0.000000
0.812018 0.862064 0.000000
0.808649 0.907835 0.000000
0.066636 0.534974 0.000000
0.083909 0.552665 0.000000
0.058224 0.565435 0.000000
0.037551 0.542621 0.000000
0.025720 0.565794 0.000000
0.304619 0.971425 0.000000
0.276072 0.975195 0.000000
0.284125 0.946285 0.000000
0.795087 0.737757 0.000000
0.797357 0.768346 0.000000
0.869843 0.656802 0.000000
0.840870 0.648068 0.000000
0.865462 0.630915 0.000000
0.043233 0.441011 0.000000
0.028792 0.469222 0.000000
0.020751 0.443790 0.000000
0.846918 0.676414 0.000000
0.058991 0.463368 0.000000
0.051906 0.966804 0.000000
0.071758 0.947609 0.000000
0.048298 0.939447 0.000000
0.026398 0.956010 0.000000
0.967109 0.949068 0.000000
0.946807 0.928411 0.000000
0.940173 0.953295 0.000000
0.956764 0.974357 0.000000
0.076722 0.471546 0.000000
0.082324 0.449317 0.000000
0.066669 0.435847 0.000000
0.114035 0.946088 0.000000
0.091278 0.952186 0.000000
0.128453 0.974235 0.000000
0.027019 0.501643 0.000000
0.047138 0.487417 0.000000
0.943388 0.639892 0.000000
0.923239 0.630552 0.000000
0.974491 0.618278 0.000000
0.972785 0.673666 0.000000
0.943930 0.664809 0.000000
0.968693 0.642530 0.000000
0.780685 0.976970 0.000000
0.756289 0.951349 0.000000
0.776857 0.951460 0.000000
0.935276 0.890540 0.000000
0.927168 0.867561 0.000000
0.954227 0.882176 0.000000
0.745760 0.974977 0.000000
0.952002 0.907568 0.000000
0.068063 0.489215 0.000000
0.051512 0.513895 0.000000
0.027757 0.982136 0.000000
0.023217 0.525632 0.000000
0.982410 0.972952 0.000000
0.951072 0.692907 0.000000
0.957020 0.857438 0.000000
0.937630 0.840379 0.000000
0.966912 0.834149 0.000000
0.923427 0.933924 0.000000
0.982257 0.848323 0.000000
0.092881 0.488189 0.000000
0.976737 0.871201 0.000000
0.067960 0.921895 0.000000
0.886538 0.603532 0.000000
0.918896 0.656866 0.000000
0.898227 0.636966 0.000000
0.092880 0.930380 0.000000
0.929071 0.911440 0.000000
0.081137 0.510877 0.000000
0.592772 0.576158 0.000000
0.150419 0.835159 0.000000
0.138607 0.859733 0.000000
0.125762 0.835294 0.000000
0.155304 0.458505 0.000000
0.139466 0.476317 0.000000
0.134858 0.496115 0.000000
0.109061 0.504849 0.000000
0.112238 0.859343 0.000000
0.866826 0.974780 0.000000
0.026919 0.865848 0.000000
0.348411 0.871602 0.000000
0.339654 0.840899 0.000000
0.369544 0.848927 0.000000
0.925986 0.818235 0.000000
0.909684 0.842117 0.000000
0.929360 0.717495 0.000000
0.924028 0.685311 0.000000
0.879688 0.955544 0.000000
0.875200 0.929284 0.000000
0.903901 0.918287 0.000000
0.950764 0.819790 0.000000
0.047492 0.878635 0.000000
0.069665 0.880314 0.000000
0.081712 0.904992 0.000000
0.573454 0.980624 0.000000
0.556694 0.550113 0.000000
0.094318 0.530060 0.000000
0.563246 0.571677 0.000000
0.563825 0.961795 0.000000
0.155902 0.972929 0.000000
0.577162 0.940912 0.000000
0.545227 0.533787 0.000000
0.864670 0.884377 0.000000
0.860690 0.911575 0.000000
0.840756 0.895862 0.000000
0.137227 0.926016 0.000000
0.139814 0.950758 0.000000
0.109156 0.913646 0.000000
0.884976 0.899786 0.000000
0.910807 0.890052 0.000000
0.830819 0.844574 0.000000
0.157710 0.484545 0.000000
0.180718 0.468069 0.000000
0.154331 0.510861 0.000000
0.124262 0.522394 0.000000
0.341085 0.732964 0.000000
0.323736 0.758404 0.000000
0.312899 0.730066 0.000000
0.857321 0.949854 0.000000
0.839840 0.975483 0.000000
0.053549 0.857833 0.000000
0.031143 0.832960 0.000000
0.840338 0.925315 0.000000
0.300796 0.756054 0.000000
0.080783 0.856286 0.000000
0.096939 0.884378 0.000000
0.544800 0.977874 0.000000
0.949430 0.731579 0.000000
0.955247 0.752582 0.000000
0.934712 0.748859 0.000000
0.030153 0.591093 0.000000
[...]
POINT_DATA 1445
SCALARS UX float 1
LOOKUP_TABLE default
-0.398999
-0.000000
0.000000
-0.398999
-0.398999
0.000000
-0.387264
-0.375529
-0.363793
-0.352058
-0.340323
-0.328588
-0.316852
-0.305117
-0.293382
-0.281646
-0.269911
-0.258176
-0.246441
-0.234705
-0.222970
-0.211235
-0.199500
-0.187764
-0.176029
-0.164294
-0.152559
-0.140823
-0.129088
-0.117353
-0.105617
-0.093882
-0.082147
-0.070412
-0.058676
-0.046941
-0.035206
-0.023471
-0.011735
-0.000000
-0.000000
-0.000000
-0.000000
-0.000000
-0.000000
-0.000000
-0.000000
-0.000000
-0.000000
-0.000000
-0.000000
-0.000000
-0.000000
-0.000000
-0.000000
-0.000000
0.000000
0.000000
-0.000000
-0.000000
0.000000
-0.000000
-0.000000
-0.000000
-0.000000
0.000000
-0.000000
0.000000
-0.000000
0.000000
-0.000000
-0.011735
-0.023471
-0.035206
-0.046941
-0.058676
-0.070412
-0.082147
-0.093882
-0.105617
-0.117353
-0.129088
-0.140823
-0.152559
-0.164294
-0.176029
-0.187764
-0.199500
-0.211235
-0.222970
-0.234705
-0.246441
-0.258176
-0.269911
-0.281646
-0.293382
-0.305117
-0.316852
-0.328588
-0.340323
-0.352058
-0.363793
-0.375529
-0.387264
-0.398999
-0.398999
-0.398999
-0.398999
-0.398999
-0.398999
-0.398999
-0.398999
-0.398999
-0.398999
-0.398999
-0.398999
-0.398999
-0.398999
-0.398999
-0.398999
-0.398999
-0.398999
-0.398999
-0.398999
-0.398999
-0.398999
-0.398999
-0.398999
-0.398999
-0.398999
-0.398999
-0.398999
-0.398999
-0.398999
-0.398999
-0.398999
-0.387264
-0.375529
-0.363793
-0.352058
-0.340323
-0.328588
-0.316852
-0.305117
-0.293382
-0.281646
-0.269911
-0.258176
-0.246441
-0.234705
-0.222970
-0.211235
-0.199500
-0.187764
-0.176029
-0.164294
-0.152559
-0.140823
-0.129088
-0.117353
-0.105617
-0.093882
-0.082147
-0.070412
-0.058676
-0.046941
-0.035206
-0.023471
-0.011735
-0.020552
-0.032622
-0.348679
-0.358972
-0.357900
-0.351951
-0.387371
-0.380336
-0.389028
-0.376530
-0.008870
-0.014533
-0.010443
-0.157504
-0.167831
-0.171562
-0.041173
-0.032149
-0.028853
-0.040104
-0.010342
-0.009113
-0.368445
-0.358071
-0.055184
-0.060301
-0.064031
-0.071642
-0.050977
-0.046838
-0.041758
-0.157075
-0.149677
-0.159689
-0.331973
-0.319525
-0.324034
-0.084687
-0.097834
-0.088343
-0.322603
-0.079276
-0.067883
-0.077595
-0.074702
-0.070675
-0.066303
-0.059857
-0.083223
-0.090588
-0.327160
-0.334888
-0.330308
-0.164338
-0.342273
-0.068793
-0.055948
-0.046917
-0.050769
-0.042054
-0.035864
-0.039499
-0.049054
-0.146555
-0.072454
-0.084721
-0.075005
-0.076349
-0.372412
-0.365520
-0.375768
-0.384016
-0.388737
-0.277457
-0.288847
-0.285634
-0.081760
-0.080855
-0.051932
-0.063493
-0.053681
-0.381749
-0.387511
-0.390720
-0.061079
-0.375462
-0.378289
-0.370368
-0.379728
-0.388466
-0.013124
-0.021224
-0.023871
-0.017251
-0.368387
-0.366152
-0.372398
-0.353499
-0.362579
-0.347746
-0.388218
-0.380191
-0.022588
-0.030628
-0.010178
-0.010859
-0.022372
-0.012492
-0.087506
-0.097240
-0.089034
-0.025825
-0.029060
-0.018263
-0.101442
-0.019151
-0.371842
-0.378446
-0.387924
-0.389736
-0.007018
-0.019522
-0.017149
-0.024886
-0.013202
-0.030552
-0.007080
-0.361940
-0.009282
-0.371883
-0.045271
-0.032360
-0.040607
-0.361940
-0.028301
-0.366626
-0.162484
-0.338982
-0.343695
-0.348820
-0.337033
-0.343352
-0.345191
-0.355484
-0.354216
-0.053136
-0.388259
-0.259983
-0.263477
-0.251551
-0.029532
-0.036036
-0.028185
-0.030313
-0.048004
-0.049795
-0.038343
-0.019645
-0.380050
-0.371203
-0.366396
-0.170191
-0.176879
-0.361366
-0.174264
-0.174034
-0.336794
-0.168712
-0.181454
-0.053997
-0.055585
-0.063538
-0.344246
-0.343213
-0.355446
-0.045894
-0.035588
-0.067503
-0.336073
-0.326893
-0.337421
-0.349419
-0.262906
-0.269829
-0.274153
-0.056929
-0.063904
-0.377633
-0.386573
-0.063705
-0.278982
-0.366767
-0.360320
-0.181624
-0.020177
-0.017857
-0.026050
-0.386968
-0.362568
-0.355125
-0.032479
-0.209464
-0.208436
-0.221024
-0.217783
-0.335078
-0.346264
-0.084214
-0.092801
-0.325912
-0.313671
-0.326932
-0.341926
-0.010453
-0.021567
-0.010507
-0.372948
-0.390014
-0.360133
-0.042616
-0.292400
-0.300515
-0.294810
-0.374308
-0.384999
-0.304091
-0.348939
-0.354837
-0.281802
-0.290908
-0.280608
-0.258534
-0.266013
-0.269157
-0.256910
-0.310064
-0.278915
-0.271822
-0.324569
-0.273933
-0.278315
-0.284241
-0.291097
-0.314873
-0.265230
-0.259133
-0.353381
-0.350963
-0.362740
-0.320262
-0.333460
-0.303720
-0.284098
-0.278663
-0.268456
-0.289384
-0.295489
-0.371001
-0.301341
-0.388461
-0.046394
-0.053278
-0.057018
-0.284672
-0.274004
-0.267002
-0.297302
-0.287566
-0.302441
-0.290097
-0.278006
-0.302724
-0.031487
-0.293340
-0.040037
-0.294436
-0.302807
-0.293962
-0.302172
-0.290892
-0.308790
-0.292291
-0.301608
-0.309007
-0.272386
-0.270855
-0.283924
-0.261414
-0.262185
-0.387364
-0.379316
-0.375736
-0.369728
-0.325132
-0.313629
-0.315326
-0.279998
-0.294766
-0.289890
-0.322194
-0.318214
-0.299964
-0.311060
-0.349584
-0.358956
-0.361583
-0.363300
-0.337223
-0.336712
-0.326131
-0.336989
-0.343793
-0.343974
-0.297812
-0.308953
-0.303298
-0.299645
-0.325225
-0.331497
-0.335187
-0.381688
-0.274597
-0.262544
-0.266420
-0.312632
-0.300154
-0.306679
-0.378560
-0.350974
-0.359740
-0.352501
-0.364526
-0.302381
-0.254730
-0.094161
-0.092668
-0.105045
-0.368851
-0.371838
-0.102489
-0.010091
-0.320138
-0.327014
-0.313946
-0.021737
-0.332079
-0.250765
-0.255104
-0.360775
-0.379119
-0.076197
-0.088001
-0.078716
-0.085291
-0.323582
-0.268122
-0.320466
-0.107181
-0.094871
-0.103928
-0.241503
-0.237513
-0.388877
-0.247027
-0.138512
-0.135918
-0.150183
-0.147672
-0.313854
-0.063068
-0.363044
-0.308835
-0.335483
-0.048952
-0.079668
-0.314911
-0.273876
-0.274968
-0.265907
-0.056173
-0.160585
-0.171632
-0.169025
-0.158144
-0.098934
-0.092540
-0.105898
-0.098163
-0.180810
-0.387124
-0.182513
-0.256255
-0.244407
-0.342506
-0.113328
-0.111077
-0.331923
-0.261655
-0.100079
-0.127386
-0.124686
-0.233989
-0.241056
-0.228748
-0.315113
-0.057427
-0.177472
-0.184666
-0.176173
-0.180477
-0.188247
-0.156328
-0.167340
-0.159246
-0.164656
-0.168650
-0.146040
-0.147845
-0.152840
-0.283887
-0.293077
-0.115872
-0.123645
-0.123138
-0.115915
-0.108568
-0.091209
-0.134257
-0.136132
-0.141042
-0.129561
-0.043569
-0.039274
-0.065564
-0.073554
-0.244868
-0.257930
-0.248149
-0.254089
-0.253835
-0.249090
-0.091629
-0.101330
-0.089994
-0.103662
-0.113125
-0.111237
-0.238676
-0.241523
-0.109856
-0.112768
-0.106534
-0.099419
-0.110850
-0.115803
-0.122826
-0.091543
-0.068394
-0.228444
-0.224804
-0.234264
-0.227221
-0.215246
-0.220623
-0.101583
-0.113587
-0.269363
-0.119522
-0.116864
-0.231810
-0.287919
-0.279115
-0.250080
-0.232151
-0.240330
-0.072839
-0.232524
-0.235703
-0.241464
-0.125216
-0.122507
-0.226403
-0.229133
-0.134261
-0.127693
-0.134585
-0.201711
-0.212455
-0.202481
-0.210238
-0.125791
-0.122325
-0.193699
-0.191006
-0.202481
-0.113363
-0.118087
-0.220458
-0.223574
-0.229322
-0.219666
-0.222126
-0.238003
-0.075130
-0.139447
-0.146365
-0.214365
-0.217120
-0.388281
-0.375418
-0.351708
-0.353165
-0.208524
-0.211535
-0.217395
-0.080288
-0.341268
-0.196634
-0.199672
-0.384332
-0.205470
-0.226106
-0.146038
-0.137290
-0.084210
-0.202438
-0.345724
-0.205186
-0.184766
-0.187699
-0.131489
-0.128707
-0.279764
-0.190568
-0.193331
-0.069139
-0.214274
-0.216098
-0.178697
-0.181534
-0.175847
-0.166856
-0.169682
-0.269430
-0.151239
-0.158171
-0.137633
-0.134812
-0.317539
-0.356583
-0.157849
-0.149079
-0.132056
-0.120235
-0.125132
-0.164020
-0.155040
-0.153413
-0.165220
-0.371792
-0.280104
-0.177014
-0.169996
-0.196008
-0.188911
-0.200400
-0.193638
-0.141630
-0.148657
-0.149390
-0.161167
-0.152217
-0.143250
-0.342274
-0.129861
-0.140458
-0.082520
-0.309648
-0.193286
-0.192341
-0.136889
-0.172921
-0.181837
-0.163052
-0.199464
-0.198805
-0.208079
-0.196296
-0.390248
-0.180966
-0.253140
-0.247677
-0.142624
-0.108421
-0.160895
-0.097012
-0.174877
-0.172724
-0.186701
-0.184529
-0.197967
-0.225809
-0.235050
-0.231452
-0.152039
-0.199589
-0.190409
-0.197356
-0.208374
-0.209971
-0.205500
-0.207142
-0.118757
-0.320691
-0.312162
-0.122152
-0.249791
-0.244085
-0.226593
-0.220731
-0.218855
-0.128665
-0.233480
-0.326553
-0.213665
-0.074600
-0.134950
-0.241751
-0.239411
-0.190312
-0.186179
-0.246535
-0.205800
-0.141363
-0.252573
-0.216726
-0.260233
-0.334421
-0.378447
-0.366377
-0.050320
-0.040027
-0.041099
-0.047048
-0.011629
-0.018663
-0.009971
-0.022470
-0.390129
-0.384466
-0.388556
-0.241495
-0.231168
-0.227437
-0.357826
-0.366850
-0.370146
-0.358895
-0.388657
-0.389886
-0.030554
-0.040928
-0.343815
-0.338698
-0.334968
-0.327358
-0.348022
-0.352161
-0.357242
-0.241924
-0.249322
-0.239310
-0.067026
-0.079474
-0.074966
-0.314312
-0.301165
-0.310656
-0.076397
-0.319723
-0.331116
-0.321404
-0.324297
-0.328324
-0.332696
-0.339142
-0.315776
-0.308411
-0.071839
-0.064111
-0.068691
-0.234661
-0.056726
-0.330206
-0.343051
-0.352082
-0.348230
-0.356945
-0.363135
-0.359500
-0.349946
-0.252445
-0.326545
-0.314279
-0.323995
-0.322650
-0.026588
-0.033480
-0.023231
-0.014983
-0.010262
-0.121543
-0.110152
-0.113366
-0.317239
-0.318145
-0.347067
-0.335507
-0.345319
-0.017250
-0.011488
-0.008280
-0.337920
-0.023538
-0.020710
-0.028632
-0.019271
-0.010533
-0.385876
-0.377775
-0.375128
-0.381748
-0.030612
-0.032847
-0.026601
-0.045500
-0.036420
-0.051253
-0.010781
-0.018808
-0.376411
-0.368372
-0.388821
-0.388140
-0.376627
-0.386508
-0.311493
-0.301759
-0.309965
-0.373175
-0.369939
-0.380736
-0.297557
-0.379848
-0.027157
-0.020553
-0.011075
-0.009263
-0.391981
-0.379477
-0.381850
-0.374114
-0.385797
-0.368447
-0.391920
-0.037059
-0.389717
-0.027116
-0.353728
-0.366639
-0.358392
-0.037059
-0.370699
-0.032373
-0.236516
-0.060017
-0.055304
-0.050179
-0.061966
-0.055647
-0.053808
-0.043515
-0.044783
-0.345863
-0.010740
-0.139016
-0.135522
-0.147448
-0.369468
-0.362963
-0.370814
-0.368686
-0.350995
-0.349204
-0.360656
-0.379354
-0.018949
-0.027796
-0.032603
-0.228808
-0.222121
-0.037633
-0.224735
-0.224966
-0.062205
-0.230287
-0.217545
-0.345003
-0.343414
-0.335461
-0.054754
-0.055786
-0.043553
-0.353105
-0.363411
-0.331496
-0.062926
-0.072106
-0.061578
-0.049580
-0.136093
-0.129171
-0.124846
-0.342070
-0.335096
-0.021366
-0.012426
-0.335294
-0.120017
-0.032232
-0.038679
-0.217375
-0.378822
-0.381143
-0.372949
-0.012031
-0.036431
-0.043875
-0.366520
-0.189536
-0.190564
-0.177975
-0.181217
-0.063921
-0.052735
-0.314785
-0.306198
-0.073088
-0.085328
-0.072067
-0.057074
-0.388546
-0.377433
-0.388492
-0.026051
-0.008986
-0.038866
-0.356383
-0.106599
-0.098484
-0.104189
-0.024692
-0.014000
-0.094909
-0.050061
-0.044163
-0.117197
-0.108091
-0.118392
-0.140465
-0.132986
-0.129842
-0.142089
-0.088935
-0.120085
-0.127177
-0.074430
-0.125066
-0.120684
-0.114758
-0.107902
-0.084127
-0.133769
-0.139866
-0.045618
-0.048036
-0.036260
-0.078737
-0.065539
-0.095280
-0.114901
-0.120336
-0.130543
-0.109615
-0.103510
-0.027999
-0.097658
-0.010538
-0.352605
-0.345721
-0.341982
-0.114327
-0.124995
-0.131997
-0.101697
-0.111433
-0.096558
-0.108902
-0.120993
-0.096276
-0.367512
-0.105659
-0.358962
-0.104564
-0.096192
-0.105037
-0.096827
-0.108107
-0.090209
-0.106709
-0.097391
-0.089992
-0.126613
-0.128144
-0.115075
-0.137586
-0.136814
-0.011635
-0.019683
-0.023263
-0.029271
-0.073867
-0.085370
-0.083673
-0.119002
-0.104233
-0.109109
-0.076805
-0.080785
-0.099035
-0.087940
-0.049415
-0.040043
-0.037416
-0.035700
-0.061776
-0.062287
-0.072868
-0.062010
-0.055206
-0.055026
-0.101187
-0.090047
-0.095701
-0.099355
-0.073774
-0.067502
-0.063812
-0.017311
-0.124402
-0.136455
-0.132579
-0.086367
-0.098845
-0.092320
-0.020439
-0.048025
-0.039259
-0.046498
-0.034474
-0.096619
-0.144269
-0.304838
-0.306331
-0.293954
-0.030148
-0.027161
-0.296510
-0.388909
-0.078861
-0.071985
-0.085054
-0.377262
-0.066920
-0.148234
-0.143896
-0.038224
-0.019880
-0.322802
-0.310998
-0.320284
-0.313708
-0.075417
-0.130877
-0.078534
-0.291818
-0.304128
-0.295071
-0.157497
-0.161486
-0.010123
-0.151972
-0.260487
-0.263081
-0.248816
-0.251327
-0.085145
-0.335931
-0.035955
-0.090164
-0.063517
-0.350047
-0.319331
-0.084088
-0.125123
-0.124031
-0.133093
-0.342826
-0.238415
-0.227367
-0.229974
-0.240855
-0.300065
-0.306459
-0.293101
-0.300837
-0.218189
-0.011876
-0.216486
-0.142744
-0.154592
-0.056493
-0.285672
-0.287923
-0.067076
-0.137344
-0.298921
-0.271614
-0.274313
-0.165010
-0.157943
-0.170251
-0.083886
-0.341572
-0.221527
-0.214333
-0.222826
-0.218522
-0.210752
-0.242671
-0.231659
-0.239753
-0.234343
-0.230349
-0.252960
-0.251155
-0.246159
-0.115113
-0.105923
-0.283128
-0.275355
-0.275861
-0.283084
-0.290432
-0.307790
-0.264742
-0.262867
-0.257957
-0.269438
-0.355430
-0.359725
-0.333435
-0.325445
-0.154131
-0.141070
-0.150850
-0.144910
-0.145164
-0.149909
-0.307370
-0.297669
-0.309005
-0.295338
-0.285874
-0.287763
-0.160323
-0.157476
-0.289143
-0.286231
-0.292465
-0.299580
-0.288150
-0.283196
-0.276173
-0.307457
-0.330606
-0.170555
-0.174195
-0.164735
-0.171778
-0.183753
-0.178377
-0.297416
-0.285412
-0.129636
-0.279477
-0.282135
-0.167189
-0.111080
-0.119884
-0.148920
-0.166848
-0.158670
-0.326160
-0.166475
-0.163296
-0.157535
-0.273783
-0.276493
-0.172596
-0.169867
-0.264739
-0.271306
-0.264414
-0.197289
-0.186544
-0.196518
-0.188762
-0.273208
-0.276674
-0.205300
-0.207994
-0.196518
-0.285636
-0.280912
-0.178541
-0.175425
-0.169677
-0.179334
-0.176873
-0.160996
-0.323870
-0.259552
-0.252635
-0.184634
-0.181880
-0.010718
-0.023581
-0.047291
-0.045834
-0.190475
-0.187464
-0.181604
-0.318711
-0.057731
-0.202366
-0.199327
-0.014667
-0.193529
-0.172893
-0.252961
-0.261709
-0.314790
-0.196561
-0.053275
-0.193813
-0.214233
-0.211300
-0.267510
-0.270292
-0.119236
-0.208431
-0.205668
-0.329860
-0.184725
-0.182901
-0.220302
-0.217466
-0.223152
-0.232143
-0.229317
-0.129569
-0.247760
-0.240828
-0.261366
-0.264187
-0.081461
-0.042416
-0.241150
-0.249920
-0.266943
-0.278764
-0.273867
-0.234979
-0.243959
-0.245586
-0.233779
-0.027207
-0.118895
-0.221985
-0.229003
-0.202991
-0.210089
-0.198599
-0.205362
-0.257369
-0.250342
-0.249609
-0.237832
-0.246782
-0.255749
-0.056725
-0.269138
-0.258542
-0.316479
-0.089351
-0.205714
-0.206658
-0.262110
-0.226078
-0.217163
-0.235947
-0.199535
-0.200194
-0.190921
-0.202703
-0.008751
-0.218033
-0.145859
-0.151322
-0.256375
-0.290578
-0.238104
-0.301987
-0.224122
-0.226276
-0.212298
-0.214470
-0.201032
-0.173190
-0.163949
-0.167547
-0.246961
-0.199410
-0.208590
-0.201644
-0.190626
-0.189028
-0.193499
-0.191857
-0.280242
-0.078308
-0.086837
-0.276847
-0.149208
-0.154914
-0.172407
-0.178268
-0.180144
-0.270334
-0.165519
-0.072446
-0.185334
-0.324399
-0.264049
-0.157248
-0.159588
-0.208687
-0.212820
-0.152464
-0.193199
-0.257636
-0.146426
-0.182273
-0.138766
-0.064578
SCALARS UY float 1
LOOKUP_TABLE default
-0.000001
-0.000001
-0.930999
-0.930999
-0.372400
-0.558600
-0.000001
-0.000001
-0.000001
-0.000001
-0.000001
-0.000001
-0.000001
-0.000001
-0.000001
-0.000001
-0.000001
-0.000001
-0.000001
-0.000001
-0.000001
-0.000001
-0.000001
-0.000001
-0.000001
-0.000001
-0.000001
-0.000001
-0.000001
-0.000001
-0.000001
-0.000001
-0.000001
-0.000001
-0.000001
-0.000001
-0.000001
-0.000001
-0.000001
-0.027931
-0.055861
-0.083791
-0.111721
-0.139651
-0.167581
-0.195511
-0.223440
-0.251370
-0.279300
-0.307230
-0.335160
-0.363090
-0.391020
-0.418950
-0.446880
-0.474810
-0.502740
-0.530670
-0.585200
-0.611800
-0.638400
-0.665000
-0.691600
-0.718199
-0.744799
-0.771399
-0.797999
-0.824599
-0.851199
-0.877799
-0.904399
-0.930999
-0.930999
-0.930999
-0.930999
-0.930999
-0.930999
-0.930999
-0.930999
-0.930999
-0.930999
-0.930999
-0.930999
-0.930999
-0.930999
-0.930999
-0.930999
-0.930999
-0.930999
-0.930999
-0.930999
-0.930999
-0.930999
-0.930999
-0.930999
-0.930999
-0.930999
-0.930999
-0.930999
-0.930999
-0.930999
-0.930999
-0.930999
-0.930999
-0.903069
-0.875139
-0.847209
-0.819279
-0.791349
-0.763419
-0.735489
-0.707560
-0.679630
-0.651700
-0.623770
-0.595840
-0.567910
-0.539980
-0.512050
-0.484120
-0.456190
-0.428260
-0.400330
-0.345800
-0.319200
-0.292600
-0.266000
-0.239400
-0.212801
-0.186201
-0.159601
-0.133001
-0.106401
-0.079801
-0.053201
-0.026601
-0.377877
-0.383353
-0.388830
-0.394306
-0.399782
-0.405259
-0.410735
-0.416212
-0.421688
-0.427165
-0.432641
-0.438118
-0.443594
-0.449071
-0.454547
-0.460024
-0.465500
-0.470976
-0.476453
-0.481929
-0.487406
-0.492882
-0.498359
-0.503835
-0.509312
-0.514788
-0.520265
-0.525741
-0.531218
-0.536694
-0.542170
-0.547647
-0.553123
-0.574972
-0.567789
-0.423461
-0.433268
-0.411609
-0.447514
-0.833788
-0.854687
-0.862412
-0.837127
-0.647958
-0.665412
-0.685334
-0.511486
-0.511865
-0.496983
-0.904893
-0.891600
-0.908856
-0.879444
-0.860844
-0.836735
-0.906408
-0.907203
-0.650455
-0.673275
-0.653100
-0.670895
-0.629094
-0.646788
-0.626311
-0.882323
-0.905876
-0.909872
-0.878881
-0.883282
-0.905770
-0.796940
-0.795504
-0.775362
-0.858747
-0.756172
-0.760883
-0.780080
-0.737139
-0.716703
-0.737140
-0.719439
-0.736605
-0.753064
-0.578310
-0.578242
-0.556910
-0.896076
-0.561216
-0.696401
-0.693669
-0.692631
-0.710295
-0.712252
-0.694142
-0.676297
-0.669971
-0.879800
-0.822288
-0.822662
-0.802581
-0.845194
-0.498060
-0.514531
-0.526420
-0.505181
-0.526754
-0.904396
-0.907906
-0.880991
-0.686852
-0.715330
-0.611482
-0.603351
-0.587381
-0.410581
-0.436846
-0.413169
-0.629741
-0.431396
-0.900093
-0.882223
-0.874624
-0.890044
-0.883582
-0.864350
-0.887517
-0.907125
-0.439009
-0.418314
-0.405774
-0.880807
-0.886484
-0.907012
-0.467029
-0.453785
-0.595739
-0.587043
-0.575617
-0.627183
-0.618937
-0.598195
-0.909558
-0.885705
-0.885809
-0.829092
-0.807699
-0.821305
-0.907702
-0.844945
-0.455460
-0.478436
-0.914367
-0.489363
-0.905817
-0.645096
-0.798274
-0.782392
-0.776592
-0.869482
-0.789788
-0.454504
-0.811087
-0.858284
-0.561888
-0.611542
-0.593015
-0.866183
-0.848550
-0.475627
-0.536403
-0.777532
-0.800411
-0.777658
-0.426868
-0.443451
-0.461883
-0.470014
-0.800048
-0.907520
-0.806104
-0.811461
-0.782876
-0.790350
-0.761776
-0.784010
-0.667987
-0.638024
-0.889611
-0.865162
-0.854925
-0.763224
-0.818008
-0.819572
-0.842547
-0.912960
-0.512155
-0.493486
-0.532232
-0.895430
-0.905796
-0.875988
-0.496956
-0.823354
-0.848675
-0.834047
-0.862120
-0.885155
-0.850604
-0.837700
-0.828638
-0.786298
-0.451111
-0.435772
-0.475611
-0.486349
-0.682389
-0.706074
-0.679691
-0.884313
-0.908174
-0.798642
-0.775485
-0.861468
-0.703886
-0.797202
-0.823355
-0.910400
-0.681100
-0.700653
-0.697187
-0.550308
-0.539653
-0.511799
-0.718498
-0.486353
-0.512309
-0.506619
-0.480007
-0.848656
-0.828617
-0.863666
-0.867285
-0.462591
-0.442882
-0.495234
-0.505300
-0.754475
-0.743140
-0.732901
-0.775483
-0.751454
-0.773502
-0.808558
-0.514463
-0.510249
-0.494691
-0.558986
-0.581797
-0.489704
-0.533357
-0.560578
-0.517838
-0.539033
-0.546756
-0.579195
-0.598201
-0.575716
-0.609489
-0.903014
-0.573270
-0.553902
-0.828067
-0.729242
-0.756086
-0.727141
-0.752848
-0.475045
-0.726325
-0.706379
-0.655660
-0.682406
-0.673375
-0.519260
-0.530055
-0.461192
-0.677661
-0.659086
-0.655550
-0.699461
-0.673626
-0.588932
-0.698017
-0.611455
-0.786809
-0.803925
-0.779040
-0.779889
-0.780989
-0.755939
-0.566017
-0.562688
-0.537319
-0.588363
-0.601421
-0.592706
-0.739211
-0.471868
-0.732426
-0.721689
-0.765314
-0.778403
-0.792090
-0.802382
-0.621631
-0.621101
-0.646300
-0.671933
-0.499205
-0.528023
-0.487645
-0.514006
-0.484561
-0.640274
-0.624460
-0.644534
-0.620062
-0.673599
-0.699295
-0.647630
-0.854632
-0.862284
-0.831296
-0.622759
-0.593446
-0.817705
-0.816431
-0.706219
-0.720494
-0.699337
-0.649504
-0.694532
-0.721117
-0.709416
-0.742196
-0.731686
-0.753636
-0.889381
-0.869996
-0.840585
-0.912792
-0.649557
-0.627422
-0.645746
-0.664914
-0.880245
-0.900286
-0.863576
-0.747964
-0.741387
-0.722445
-0.752211
-0.578688
-0.583931
-0.600680
-0.566624
-0.437030
-0.762375
-0.704137
-0.729472
-0.721830
-0.753921
-0.724514
-0.746311
-0.708238
-0.798794
-0.774241
-0.776601
-0.720742
-0.801608
-0.686430
-0.660212
-0.743892
-0.603779
-0.595645
-0.587233
-0.571176
-0.612120
-0.539109
-0.622448
-0.561801
-0.813463
-0.818073
-0.835810
-0.664980
-0.690908
-0.392952
-0.713265
-0.518945
-0.546002
-0.541154
-0.510158
-0.537427
-0.807219
-0.604245
-0.515069
-0.824378
-0.730426
-0.888969
-0.498669
-0.472118