# vtk DataFile Version 2.0
Test
ASCII
DATASET POLYDATA
POINTS 1445 float
0.000000 0.000000 0.000000
1.000000 0.000000 0.000000
1.000000 1.000000 0.000000
0.000000 1.000000 0.000000
0.000000 0.400000 0.000000
1.000000 0.600000 0.000000
0.029412 0.000000 0.000000
0.058824 0.000000 0.000000
0.088235 0.000000 0.000000
0.117647 0.000000 0.000000
0.147059 0.000000 0.000000
0.176471 0.000000 0.000000
0.205882 0.000000 0.000000
0.235294 0.000000 0.000000
0.264706 0.000000 0.000000
0.294118 0.000000 0.000000
0.323529 0.000000 0.000000
0.352941 0.000000 0.000000
0.382353 0.000000 0.000000
0.411765 0.000000 0.000000
0.441176 0.000000 0.000000
0.470588 0.000000 0.000000
0.500000 0.000000 0.000000
0.529412 0.000000 0.000000
0.558824 0.000000 0.000000
0.588235 0.000000 0.000000
0.617647 0.000000 0.000000
0.647059 0.000000 0.000000
0.676471 0.000000 0.000000
0.705882 0.000000 0.000000
0.735294 0.000000 0.000000
0.764706 0.000000 0.000000
0.794118 0.000000 0.000000
0.823529 0.000000 0.000000
0.852941 0.000000 0.000000
0.882353 0.000000 0.000000
0.911765 0.000000 0.000000
0.941176 0.000000 0.000000
0.970588 0.000000 0.000000
1.000000 0.030000 0.000000
1.000000 0.060000 0.000000
1.000000 0.090000 0.000000
1.000000 0.120000 0.000000
1.000000 0.150000 0.000000
1.000000 0.180000 0.000000
1.000000 0.210000 0.000000
1.000000 0.240000 0.000000
1.000000 0.270000 0.000000
1.000000 0.300000 0.000000
1.000000 0.330000 0.000000
1.000000 0.360000 0.000000
1.000000 0.390000 0.000000
1.000000 0.420000 0.000000
1.000000 0.450000 0.000000
1.000000 0.480000 0.000000
1.000000 0.510000 0.000000
1.000000 0.540000 0.000000
1.000000 0.570000 0.000000
1.000000 0.628571 0.000000
1.000000 0.657143 0.000000
1.000000 0.685714 0.000000
1.000000 0.714286 0.000000
1.000000 0.742857 0.000000
1.000000 0.771429 0.000000
1.000000 0.800000 0.000000
1.000000 0.828571 0.000000
1.000000 0.857143 0.000000
1.000000 0.885714 0.000000
1.000000 0.914286 0.000000
1.000000 0.942857 0.000000
1.000000 0.971429 0.000000
0.970588 1.000000 0.000000
0.941176 1.000000 0.000000
0.911765 1.000000 0.000000
0.882353 1.000000 0.000000
0.852941 1.000000 0.000000
0.823529 1.000000 0.000000
0.794118 1.000000 0.000000
0.764706 1.000000 0.000000
0.735294 1.000000 0.000000
0.705882 1.000000 0.000000
0.676471 1.000000 0.000000
0.647059 1.000000 0.000000
0.617647 1.000000 0.000000
0.588235 1.000000 0.000000
0.558824 1.000000 0.000000
0.529412 1.000000 0.000000
0.500000 1.000000 0.000000
0.470588 1.000000 0.000000
0.441176 1.000000 0.000000
0.411765 1.000000 0.000000
0.382353 1.000000 0.000000
0.352941 1.000000 0.000000
0.323529 1.000000 0.000000
0.294118 1.000000 0.000000
0.264706 1.000000 0.000000
0.235294 1.000000 0.000000
0.205882 1.000000 0.000000
0.176471 1.000000 0.000000
0.147059 1.000000 0.000000
0.117647 1.000000 0.000000
0.088235 1.000000 0.000000
0.058824 1.000000 0.000000
0.029412 1.000000 0.000000
0.000000 0.970000 0.000000
0.000000 0.940000 0.000000
0.000000 0.910000 0.000000
0.000000 0.880000 0.000000
0.000000 0.850000 0.000000
0.000000 0.820000 0.000000
0.000000 0.790000 0.000000
0.000000 0.760000 0.000000
0.000000 0.730000 0.000000
0.000000 0.700000 0.000000
0.000000 0.670000 0.000000
0.000000 0.640000 0.000000
0.000000 0.610000 0.000000
0.000000 0.580000 0.000000
0.000000 0.550000 0.000000
0.000000 0.520000 0.000000
0.000000 0.490000 0.000000
0.000000 0.460000 0.000000
0.000000 0.430000 0.000000
0.000000 0.371429 0.000000
0.000000 0.342857 0.000000
0.000000 0.314286 0.000000
0.000000 0.285714 0.000000
0.000000 0.257143 0.000000
0.000000 0.228571 0.000000
0.000000 0.200000 0.000000
0.000000 0.171429 0.000000
0.000000 0.142857 0.000000
0.000000 0.114286 0.000000
0.000000 0.085714 0.000000
0.000000 0.057143 0.000000
0.000000 0.028571 0.000000
0.029412 0.405882 0.000000
0.058824 0.411765 0.000000
0.088235 0.417647 0.000000
0.117647 0.423529 0.000000
0.147059 0.429412 0.000000
0.176471 0.435294 0.000000
0.205882 0.441176 0.000000
0.235294 0.447059 0.000000
0.264706 0.452941 0.000000
0.294118 0.458824 0.000000
0.323529 0.464706 0.000000
0.352941 0.470588 0.000000
0.382353 0.476471 0.000000
0.411765 0.482353 0.000000
0.441176 0.488235 0.000000
0.470588 0.494118 0.000000
0.500000 0.500000 0.000000
0.529412 0.505882 0.000000
0.558824 0.511765 0.000000
0.588235 0.517647 0.000000
0.617647 0.523529 0.000000
0.647059 0.529412 0.000000
0.676471 0.535294 0.000000
0.705882 0.541176 0.000000
0.735294 0.547059 0.000000
0.764706 0.552941 0.000000
0.794118 0.558824 0.000000
0.823529 0.564706 0.000000
0.852941 0.570588 0.000000
0.882353 0.576471 0.000000
0.911765 0.582353 0.000000
0.941176 0.588235 0.000000
0.970588 0.594118 0.000000
0.948492 0.617586 0.000000
0.918239 0.609871 0.000000
0.126115 0.454845 0.000000
0.100318 0.465379 0.000000
0.103006 0.442114 0.000000
0.117916 0.480680 0.000000
0.029145 0.895585 0.000000
0.046774 0.918032 0.000000
0.024990 0.926329 0.000000
0.056315 0.899171 0.000000
0.977770 0.695981 0.000000
0.963577 0.714729 0.000000
0.973827 0.736127 0.000000
0.605253 0.549394 0.000000
0.579370 0.549801 0.000000
0.570019 0.533816 0.000000
0.896809 0.971959 0.000000
0.919426 0.957680 0.000000
0.927686 0.976215 0.000000
0.899487 0.944624 0.000000
0.974081 0.924646 0.000000
0.977161 0.898750 0.000000
0.076578 0.973587 0.000000
0.102577 0.974440 0.000000
0.861693 0.698664 0.000000
0.848870 0.723174 0.000000
0.839521 0.701504 0.000000
0.820447 0.720618 0.000000
0.872237 0.675719 0.000000
0.882611 0.694724 0.000000
0.895344 0.672729 0.000000
0.606326 0.947716 0.000000
0.624868 0.973015 0.000000
0.599776 0.977307 0.000000
0.167986 0.944019 0.000000
0.199183 0.948746 0.000000
0.187884 0.972901 0.000000
0.787752 0.856005 0.000000
0.754801 0.854462 0.000000
0.778588 0.832828 0.000000
0.191471 0.922393 0.000000
0.801312 0.812216 0.000000
0.829867 0.817276 0.000000
0.805526 0.837896 0.000000
0.812775 0.791772 0.000000
0.822869 0.769821 0.000000
0.833826 0.791773 0.000000
0.849982 0.772760 0.000000
0.791421 0.791198 0.000000
0.772962 0.808877 0.000000
0.180049 0.621172 0.000000
0.160680 0.621098 0.000000
0.172158 0.598185 0.000000
0.588124 0.962489 0.000000
0.142171 0.602810 0.000000
0.827587 0.748015 0.000000
0.859778 0.745080 0.000000
0.882413 0.743965 0.000000
0.872759 0.762938 0.000000
0.894601 0.765041 0.000000
0.910115 0.745588 0.000000
0.901004 0.726420 0.000000
0.877058 0.719626 0.000000
0.632694 0.945006 0.000000
0.818411 0.883232 0.000000
0.787667 0.883633 0.000000
0.812018 0.862064 0.000000
0.808649 0.907835 0.000000
0.066636 0.534974 0.000000
0.083909 0.552665 0.000000
0.058224 0.565435 0.000000
0.037551 0.542621 0.000000
0.025720 0.565794 0.000000
0.304619 0.971425 0.000000
0.276072 0.975195 0.000000
0.284125 0.946285 0.000000
0.795087 0.737757 0.000000
0.797357 0.768346 0.000000
0.869843 0.656802 0.000000
0.840870 0.648068 0.000000
0.865462 0.630915 0.000000
0.043233 0.441011 0.000000
0.028792 0.469222 0.000000
0.020751 0.443790 0.000000
0.846918 0.676414 0.000000
0.058991 0.463368 0.000000
0.051906 0.966804 0.000000
0.071758 0.947609 0.000000
0.048298 0.939447 0.000000
0.026398 0.956010 0.000000
0.967109 0.949068 0.000000
0.946807 0.928411 0.000000
0.940173 0.953295 0.000000
0.956764 0.974357 0.000000
0.076722 0.471546 0.000000
0.082324 0.449317 0.000000
0.066669 0.435847 0.000000
0.114035 0.946088 0.000000
0.091278 0.952186 0.000000
0.128453 0.974235 0.000000
0.027019 0.501643 0.000000
0.047138 0.487417 0.000000
0.943388 0.639892 0.000000
0.923239 0.630552 0.000000
0.974491 0.618278 0.000000
0.972785 0.673666 0.000000
0.943930 0.664809 0.000000
0.968693 0.642530 0.000000
0.780685 0.976970 0.000000
0.756289 0.951349 0.000000
0.776857 0.951460 0.000000
0.935276 0.890540 0.000000
0.927168 0.867561 0.000000
0.954227 0.882176 0.000000
0.745760 0.974977 0.000000
0.952002 0.907568 0.000000
0.068063 0.489215 0.000000
0.051512 0.513895 0.000000
0.027757 0.982136 0.000000
0.023217 0.525632 0.000000
0.982410 0.972952 0.000000
0.951072 0.692907 0.000000
0.957020 0.857438 0.000000
0.937630 0.840379 0.000000
0.966912 0.834149 0.000000
0.923427 0.933924 0.000000
0.982257 0.848323 0.000000
0.092881 0.488189 0.000000
0.976737 0.871201 0.000000
0.067960 0.921895 0.000000
0.886538 0.603532 0.000000
0.918896 0.656866 0.000000
0.898227 0.636966 0.000000
0.092880 0.930380 0.000000
0.929071 0.911440 0.000000
0.081137 0.510877 0.000000
0.592772 0.576158 0.000000
0.150419 0.835159 0.000000
0.138607 0.859733 0.000000
0.125762 0.835294 0.000000
0.155304 0.458505 0.000000
0.139466 0.476317 0.000000
0.134858 0.496115 0.000000
0.109061 0.504849 0.000000
0.112238 0.859343 0.000000
0.866826 0.974780 0.000000
0.026919 0.865848 0.000000
0.348411 0.871602 0.000000
0.339654 0.840899 0.000000
0.369544 0.848927 0.000000
0.925986 0.818235 0.000000
0.909684 0.842117 0.000000
0.929360 0.717495 0.000000
0.924028 0.685311 0.000000
0.879688 0.955544 0.000000
0.875200 0.929284 0.000000
0.903901 0.918287 0.000000
0.950764 0.819790 0.000000
0.047492 0.878635 0.000000
0.069665 0.880314 0.000000
0.081712 0.904992 0.000000
0.573454 0.980624 0.000000
0.556694 0.550113 0.000000
0.094318 0.530060 0.000000
0.563246 0.571677 0.000000
0.563825 0.961795 0.000000
0.155902 0.972929 0.000000
0.577162 0.940912 0.000000
0.545227 0.533787 0.000000
0.864670 0.884377 0.000000
0.860690 0.911575 0.000000
0.840756 0.895862 0.000000
0.137227 0.926016 0.000000
0.139814 0.950758 0.000000
0.109156 0.913646 0.000000
0.884976 0.899786 0.000000
0.910807 0.890052 0.000000
0.830819 0.844574 0.000000
0.157710 0.484545 0.000000
0.180718 0.468069 0.000000
0.154331 0.510861 0.000000
0.124262 0.522394 0.000000
0.341085 0.732964 0.000000
0.323736 0.758404 0.000000
0.312899 0.730066 0.000000
0.857321 0.949854 0.000000
0.839840 0.975483 0.000000
0.053549 0.857833 0.000000
0.031143 0.832960 0.000000
0.840338 0.925315 0.000000
0.300796 0.756054 0.000000
0.080783 0.856286 0.000000
0.096939 0.884378 0.000000
0.544800 0.977874 0.000000
0.949430 0.731579 0.000000
0.955247 0.752582 0.000000
0.934712 0.748859 0.000000
0.030153 0.591093 0.000000
[...]
POINT_DATA 1445
SCALARS UX float 1
LOOKUP_TABLE default
-0.046678
0.000422
-0.000000
-0.047135
-0.046921
0.000000
-0.045293
-0.043908
-0.042523
-0.041138
-0.039753
-0.038368
-0.036983
-0.035598
-0.034212
-0.032827
-0.031442
-0.030057
-0.028672
-0.027286
-0.025901
-0.024516
-0.023131
-0.021745
-0.020360
-0.018975
-0.017589
-0.016204
-0.014818
-0.013433
-0.012047
-0.010662
-0.009276
-0.007891
-0.006505
-0.005120
-0.003734
-0.002349
-0.000963
0.000422
0.000422
0.000422
0.000422
0.000422
0.000421
0.000421
0.000420
0.000420
0.000419
0.000418
0.000417
0.000415
0.000413
0.000410
0.000406
0.000400
0.000389
0.000354
-0.000000
0.000000
-0.000000
-0.000000
-0.000000
-0.000000
-0.000000
-0.000000
-0.000000
-0.000000
-0.000000
-0.000000
-0.000000
-0.001387
-0.002773
-0.004160
-0.005547
-0.006934
-0.008320
-0.009707
-0.011094
-0.012481
-0.013868
-0.015255
-0.016642
-0.018029
-0.019415
-0.020802
-0.022189
-0.023575
-0.024961
-0.026348
-0.027734
-0.029120
-0.030506
-0.031892
-0.033278
-0.034663
-0.036049
-0.037435
-0.038821
-0.040206
-0.041592
-0.042978
-0.044363
-0.045749
-0.047135
-0.047135
-0.047135
-0.047136
-0.047136
-0.047137
-0.047138
-0.047139
-0.047140
-0.047141
-0.047142
-0.047144
-0.047145
-0.047146
-0.047148
-0.047150
-0.047152
-0.047152
-0.047135
-0.046686
-0.046674
-0.046673
-0.046674
-0.046675
-0.046676
-0.046676
-0.046677
-0.046677
-0.046678
-0.046678
-0.046678
-0.046678
-0.045531
-0.044160
-0.042777
-0.041384
-0.039993
-0.038609
-0.037223
-0.035838
-0.034451
-0.033066
-0.031673
-0.030287
-0.028899
-0.027506
-0.026126
-0.024738
-0.023362
-0.021985
-0.020597
-0.019218
-0.017827
-0.016439
-0.015055
-0.013664
-0.012281
-0.010898
-0.009518
-0.008138
-0.006762
-0.005384
-0.004009
-0.002652
-0.001323
-0.002467
-0.003885
-0.041196
-0.042422
-0.042238
-0.041595
-0.045762
-0.044931
-0.045958
-0.044482
-0.001051
-0.001721
-0.001236
-0.018618
-0.019853
-0.020222
-0.004865
-0.003799
-0.003409
-0.004739
-0.001222
-0.001077
-0.043527
-0.042302
-0.006539
-0.007139
-0.007584
-0.008481
-0.006047
-0.005552
-0.004957
-0.018563
-0.017688
-0.018871
-0.039221
-0.037751
-0.038283
-0.010011
-0.011565
-0.010444
-0.038114
-0.009374
-0.008026
-0.009173
-0.008835
-0.008360
-0.007841
-0.007081
-0.009842
-0.010711
-0.038663
-0.039576
-0.039036
-0.019421
-0.040448
-0.008140
-0.006621
-0.005553
-0.006007
-0.004975
-0.004245
-0.004677
-0.005809
-0.017320
-0.008564
-0.010014
-0.008866
-0.009023
-0.044010
-0.043195
-0.044405
-0.045380
-0.045936
-0.032783
-0.034128
-0.033749
-0.009675
-0.009564
-0.006165
-0.007533
-0.006379
-0.045099
-0.045796
-0.046165
-0.007241
-0.044374
-0.044689
-0.043754
-0.044859
-0.045891
-0.001551
-0.002508
-0.002821
-0.002038
-0.043538
-0.043257
-0.043952
-0.041762
-0.042834
-0.041083
-0.045878
-0.044932
-0.002696
-0.003653
-0.001229
-0.001290
-0.002662
-0.001494
-0.010341
-0.011492
-0.010522
-0.003052
-0.003435
-0.002158
-0.011988
-0.002263
-0.043946
-0.044724
-0.045827
-0.046056
-0.000829
-0.002315
-0.002027
-0.002942
-0.001561
-0.003610
-0.000837
-0.042776
-0.001097
-0.043933
-0.005378
-0.003850
-0.004833
-0.042759
-0.003344
-0.043328
-0.019225
-0.040050
-0.040606
-0.041212
-0.039812
-0.040576
-0.040798
-0.042013
-0.041848
-0.006279
-0.045868
-0.030721
-0.031135
-0.029726
-0.003491
-0.004260
-0.003338
-0.003597
-0.005673
-0.005884
-0.004531
-0.002322
-0.044898
-0.043854
-0.043286
-0.020112
-0.020915
-0.042706
-0.020618
-0.020567
-0.039790
-0.019938
-0.021426
-0.006382
-0.006569
-0.007509
-0.040670
-0.040548
-0.041993
-0.005424
-0.004206
-0.007980
-0.039720
-0.038632
-0.039880
-0.041296
-0.031072
-0.031888
-0.032400
-0.006727
-0.007551
-0.044613
-0.045670
-0.007528
-0.032969
-0.043330
-0.042569
-0.021463
-0.002389
-0.002113
-0.003083
-0.045725
-0.042846
-0.041968
-0.003842
-0.024753
-0.024649
-0.026136
-0.025726
-0.039588
-0.040909
-0.009952
-0.010967
-0.038522
-0.037074
-0.038641
-0.040410
-0.001236
-0.002550
-0.001242
-0.044061
-0.046076
-0.042548
-0.005037
-0.034564
-0.035522
-0.034849
-0.044230
-0.045491
-0.035946
-0.041237
-0.041932
-0.033313
-0.034386
-0.033170
-0.030562
-0.031444
-0.031816
-0.030368
-0.036633
-0.032968
-0.032132
-0.038347
-0.032371
-0.032888
-0.033589
-0.034397
-0.037218
-0.031344
-0.030625
-0.041755
-0.041468
-0.042859
-0.037852
-0.039410
-0.035898
-0.033574
-0.032934
-0.031729
-0.034197
-0.034919
-0.043838
-0.035609
-0.045899
-0.005484
-0.006297
-0.006741
-0.033638
-0.032378
-0.031552
-0.035139
-0.033990
-0.035748
-0.034288
-0.032859
-0.035778
-0.003723
-0.034675
-0.004735
-0.034793
-0.035779
-0.034735
-0.035704
-0.034371
-0.036492
-0.034545
-0.035643
-0.036515
-0.032202
-0.032020
-0.033563
-0.030907
-0.030996
-0.045768
-0.044818
-0.044395
-0.043687
-0.038419
-0.037060
-0.037263
-0.033084
-0.034827
-0.034252
-0.038075
-0.037606
-0.035442
-0.036752
-0.041305
-0.042411
-0.042721
-0.042926
-0.039846
-0.039784
-0.038535
-0.039816
-0.040620
-0.040640
-0.035187
-0.036502
-0.035835
-0.035403
-0.038431
-0.039173
-0.039607
-0.045097
-0.032445
-0.031022
-0.031480
-0.036940
-0.035467
-0.036238
-0.044724
-0.041475
-0.042509
-0.041654
-0.043075
-0.035686
-0.030102
-0.011139
-0.010959
-0.012423
-0.043578
-0.043931
-0.012119
-0.001194
-0.037825
-0.038637
-0.037094
-0.002571
-0.039235
-0.029638
-0.030152
-0.042624
-0.044796
-0.009036
-0.010431
-0.009336
-0.010106
-0.038243
-0.031691
-0.037874
-0.012669
-0.011214
-0.012283
-0.028546
-0.028073
-0.045876
-0.029195
-0.016376
-0.016087
-0.017772
-0.017436
-0.037095
-0.007455
-0.042898
-0.036504
-0.039636
-0.005790
-0.009415
-0.037222
-0.032371
-0.032435
-0.031392
-0.006676
-0.019000
-0.020305
-0.019995
-0.018710
-0.011718
-0.010958
-0.012536
-0.011618
-0.021391
-0.045736
-0.021588
-0.030284
-0.028884
-0.040474
-0.013393
-0.013127
-0.039224
-0.030932
-0.011832
-0.015064
-0.014764
-0.027669
-0.028497
-0.027036
-0.037230
-0.006791
-0.020980
-0.021831
-0.020828
-0.021338
-0.022252
-0.018483
-0.019785
-0.018830
-0.019466
-0.019941
-0.017268
-0.017483
-0.018070
-0.033552
-0.034610
-0.013703
-0.014621
-0.014564
-0.013706
-0.012842
-0.010780
-0.015875
-0.016100
-0.016676
-0.015319
-0.005151
-0.004655
-0.007784
-0.008718
-0.028935
-0.030478
-0.029323
-0.030024
-0.029999
-0.029453
-0.010859
-0.011991
-0.010615
-0.012282
-0.013400
-0.013128
-0.028205
-0.028543
-0.012986
-0.013332
-0.012605
-0.011763
-0.013118
-0.013700
-0.014533
-0.010833
-0.008108
-0.027003
-0.026572
-0.027688
-0.026869
-0.025455
-0.026088
-0.012005
-0.013424
-0.031828
-0.014128
-0.013812
-0.027397
-0.034027
-0.032988
-0.029550
-0.027449
-0.028416
-0.008628
-0.027477
-0.027853
-0.028532
-0.014803
-0.014482
-0.026756
-0.027079
-0.015871
-0.015105
-0.015922
-0.023844
-0.025114
-0.023937
-0.024850
-0.014867
-0.014456
-0.022890
-0.022572
-0.023927
-0.013421
-0.013976
-0.026052
-0.026421
-0.027098
-0.025962
-0.026254
-0.028123
-0.008878
-0.016494
-0.017313
-0.025334
-0.025660
-0.045874
-0.044355
-0.041554
-0.041726
-0.024642
-0.024999
-0.025689
-0.009505
-0.040324
-0.023237
-0.023597
-0.045407
-0.024281
-0.026718
-0.017263
-0.016230
-0.009969
-0.023925
-0.040852
-0.024251
-0.021835
-0.022183
-0.015542
-0.015212
-0.033057
-0.022523
-0.022850
-0.008170
-0.025320
-0.025545
-0.021120
-0.021457
-0.020782
-0.019721
-0.020056
-0.031837
-0.017887
-0.018708
-0.016266
-0.015932
-0.037520
-0.042134
-0.018658
-0.017624
-0.015632
-0.014237
-0.014812
-0.019385
-0.018325
-0.018148
-0.019543
-0.043928
-0.033097
-0.020936
-0.020104
-0.023181
-0.022340
-0.023697
-0.022896
-0.016757
-0.017589
-0.017656
-0.019047
-0.017990
-0.016932
-0.040446
-0.015367
-0.016601
-0.009774
-0.036597
-0.022849
-0.022739
-0.016200
-0.020436
-0.021503
-0.019282
-0.023577
-0.023500
-0.024594
-0.023202
-0.046107
-0.021386
-0.029929
-0.029282
-0.016879
-0.012842
-0.019020
-0.011496
-0.020679
-0.020417
-0.022075
-0.021812
-0.023406
-0.026698
-0.027789
-0.027362
-0.017991
-0.023606
-0.022523
-0.023345
-0.024641
-0.024827
-0.024297
-0.024489
-0.014054
-0.037891
-0.036883
-0.014436
-0.029529
-0.028854
-0.026787
-0.026094
-0.025875
-0.015205
-0.027600
-0.038584
-0.025260
-0.008816
-0.015948
-0.028580
-0.028301
-0.022508
-0.022028
-0.029141
-0.024340
-0.016706
-0.029855
-0.025626
-0.030759
-0.039512
-0.044259
-0.042843
-0.005561
-0.004336
-0.004528
-0.005157
-0.000951
-0.001781
-0.000755
-0.002231
-0.045627
-0.044959
-0.045442
-0.028103
-0.026868
-0.026500
-0.041819
-0.042884
-0.043273
-0.041945
-0.045457
-0.045602
-0.003185
-0.004410
-0.040160
-0.039557
-0.039116
-0.038219
-0.040656
-0.041145
-0.041743
-0.028138
-0.029012
-0.027830
-0.007491
-0.008961
-0.008428
-0.036682
-0.035130
-0.036250
-0.008598
-0.037320
-0.038665
-0.037519
-0.037859
-0.038334
-0.038851
-0.039611
-0.036853
-0.035984
-0.008065
-0.007153
-0.007695
-0.027281
-0.006283
-0.038556
-0.040071
-0.041137
-0.040683
-0.041712
-0.042442
-0.042012
-0.040884
-0.029380
-0.038126
-0.036678
-0.037825
-0.037667
-0.002731
-0.003543
-0.002331
-0.001360
-0.000800
-0.013928
-0.012583
-0.012962
-0.037025
-0.037132
-0.040542
-0.039178
-0.040336
-0.001679
-0.000963
-0.000608
-0.039464
-0.002389
-0.002023
-0.002958
-0.001853
-0.000821
-0.045129
-0.044173
-0.043861
-0.044642
-0.003221
-0.003509
-0.002826
-0.004950
-0.003878
-0.005629
-0.000870
-0.001822
-0.044009
-0.043062
-0.045507
-0.045391
-0.044032
-0.045202
-0.036350
-0.035201
-0.036170
-0.043630
-0.043248
-0.044522
-0.034705
-0.044418
-0.002807
-0.002022
-0.000885
-0.000687
-0.045850
-0.044369
-0.044653
-0.043740
-0.045119
-0.043072
-0.045842
-0.003976
-0.045582
-0.002779
-0.041350
-0.042852
-0.041879
-0.003953
-0.043338
-0.003418
-0.027495
-0.006664
-0.006108
-0.005503
-0.006938
-0.006175
-0.005950
-0.004734
-0.004865
-0.040407
-0.000846
-0.015990
-0.015578
-0.016986
-0.043191
-0.042424
-0.043347
-0.043095
-0.041013
-0.040801
-0.042153
-0.044358
-0.001815
-0.002860
-0.003427
-0.026590
-0.025806
-0.004036
-0.026102
-0.026137
-0.006922
-0.026765
-0.025296
-0.040305
-0.040118
-0.039179
-0.006042
-0.006164
-0.004720
-0.041261
-0.042477
-0.038710
-0.007026
-0.008114
-0.006863
-0.005447
-0.015646
-0.014829
-0.014318
-0.039959
-0.039136
-0.002101
-0.001046
-0.039159
-0.013748
-0.003384
-0.004145
-0.025241
-0.044293
-0.044568
-0.043600
-0.001007
-0.003889
-0.004770
-0.042842
-0.021970
-0.022073
-0.020588
-0.020998
-0.007125
-0.005804
-0.036739
-0.035725
-0.008220
-0.009666
-0.008098
-0.006328
-0.045443
-0.044131
-0.045436
-0.002654
-0.000640
-0.004167
-0.041648
-0.012168
-0.011211
-0.011884
-0.002501
-0.001237
-0.010790
-0.005498
-0.004800
-0.013417
-0.012343
-0.013558
-0.016162
-0.015279
-0.014908
-0.016353
-0.010078
-0.013757
-0.014594
-0.008365
-0.014344
-0.013827
-0.013127
-0.012318
-0.009520
-0.015371
-0.016091
-0.004967
-0.005251
-0.003861
-0.008882
-0.007325
-0.010839
-0.013145
-0.013786
-0.014991
-0.012520
-0.011800
-0.002889
-0.011109
-0.000827
-0.041201
-0.040389
-0.039947
-0.013076
-0.014335
-0.015162
-0.011589
-0.012737
-0.010983
-0.012438
-0.013864
-0.010948
-0.042960
-0.012059
-0.041950
-0.011924
-0.010935
-0.011979
-0.011010
-0.012342
-0.010232
-0.012179
-0.011079
-0.010205
-0.014527
-0.014708
-0.013168
-0.015821
-0.015732
-0.000955
-0.001906
-0.002328
-0.003038
-0.008301
-0.009658
-0.009459
-0.013628
-0.011884
-0.012460
-0.008649
-0.009120
-0.011271
-0.009961
-0.005414
-0.004307
-0.003997
-0.003796
-0.006873
-0.006933
-0.008182
-0.006900
-0.006097
-0.006075
-0.011524
-0.010209
-0.010877
-0.011308
-0.008291
-0.007551
-0.007115
-0.001624
-0.014265
-0.015688
-0.015231
-0.009775
-0.011249
-0.010479
-0.001992
-0.005254
-0.004219
-0.005073
-0.003655
-0.011051
-0.016611
-0.035562
-0.035738
-0.034277
-0.003138
-0.002786
-0.034580
-0.045484
-0.008889
-0.008077
-0.009620
-0.044110
-0.007479
-0.017079
-0.016567
-0.004092
-0.001930
-0.037677
-0.036284
-0.037382
-0.036605
-0.008490
-0.015031
-0.008856
-0.034027
-0.035480
-0.034411
-0.018172
-0.018643
-0.000932
-0.017520
-0.030346
-0.030632
-0.028947
-0.029285
-0.009637
-0.039234
-0.003828
-0.010230
-0.007077
-0.040898
-0.037275
-0.009514
-0.014360
-0.014295
-0.015336
-0.040048
-0.027718
-0.026413
-0.026722
-0.028007
-0.034994
-0.035750
-0.034174
-0.035088
-0.025329
-0.000981
-0.025130
-0.016431
-0.017829
-0.006253
-0.033302
-0.033568
-0.007502
-0.015793
-0.034865
-0.031657
-0.031955
-0.019055
-0.018228
-0.019689
-0.009482
-0.039898
-0.025729
-0.024880
-0.025882
-0.025374
-0.024457
-0.028224
-0.026925
-0.027879
-0.027242
-0.026769
-0.029439
-0.029225
-0.028636
-0.013181
-0.012124
-0.032999
-0.032082
-0.032141
-0.032995
-0.033861
-0.035913
-0.030829
-0.030607
-0.030029
-0.031384
-0.041534
-0.042038
-0.038933
-0.037991
-0.017775
-0.016233
-0.017387
-0.016686
-0.016728
-0.017273
-0.035860
-0.034731
-0.036112
-0.034436
-0.033319
-0.033595
-0.018506
-0.018170
-0.033711
-0.033367
-0.034100
-0.034940
-0.033590
-0.033006
-0.032176
-0.035870
-0.038616
-0.019713
-0.020143
-0.019026
-0.019854
-0.021267
-0.020633
-0.034688
-0.033271
-0.014883
-0.032570
-0.032884
-0.019316
-0.012694
-0.013733
-0.017160
-0.019274
-0.018308
-0.038076
-0.019232
-0.018857
-0.018177
-0.031897
-0.032218
-0.019954
-0.019632
-0.030830
-0.031603
-0.030788
-0.022868
-0.021600
-0.022777
-0.021862
-0.031831
-0.032240
-0.023815
-0.024133
-0.022779
-0.033291
-0.032735
-0.020656
-0.020288
-0.019610
-0.020749
-0.020459
-0.018585
-0.037811
-0.030215
-0.029398
-0.021375
-0.021050
-0.000845
-0.002364
-0.005162
-0.004990
-0.022065
-0.021710
-0.021018
-0.037219
-0.006396
-0.023469
-0.023110
-0.001311
-0.022426
-0.019990
-0.029440
-0.030472
-0.036735
-0.022783
-0.005871
-0.022459
-0.024870
-0.024523
-0.031158
-0.031486
-0.013655
-0.024184
-0.023858
-0.038518
-0.021386
-0.021170
-0.025585
-0.025250
-0.025922
-0.026983
-0.026649
-0.014875
-0.028824
-0.028005
-0.030433
-0.030766
-0.009197
-0.004590
-0.028046
-0.029081
-0.031084
-0.032479
-0.031902
-0.027318
-0.028378
-0.028566
-0.027172
-0.002793
-0.013615
-0.025780
-0.026609
-0.023538
-0.024377
-0.023021
-0.023819
-0.029956
-0.029126
-0.029045
-0.027655
-0.028711
-0.029769
-0.006279
-0.031345
-0.030099
-0.036933
-0.010132
-0.023863
-0.023974
-0.030515
-0.026268
-0.025212
-0.027429
-0.023134
-0.023222
-0.022117
-0.023508
-0.000614
-0.025318
-0.016797
-0.017442
-0.029838
-0.033873
-0.027686
-0.035220
-0.026034
-0.026290
-0.024639
-0.024897
-0.023309
-0.020022
-0.018932
-0.019357
-0.028727
-0.023114
-0.024197
-0.023376
-0.022079
-0.021891
-0.022420
-0.022226
-0.032667
-0.008824
-0.009830
-0.032261
-0.017193
-0.017867
-0.019931
-0.020623
-0.020844
-0.031492
-0.019118
-0.008132
-0.021456
-0.037873
-0.030750
-0.018142
-0.018418
-0.024213
-0.024693
-0.017578
-0.022381
-0.029993
-0.016865
-0.021094
-0.015961
-0.007203
SCALARS UY float 1
LOOKUP_TABLE default
-0.000000
-0.000000
-0.110000
-0.110000
-0.044000
-0.066006
-0.000000
-0.000000
-0.000000
-0.000000
-0.000000
-0.000000
-0.000000
-0.000000
-0.000000
-0.000000
-0.000000
-0.000000
-0.000000
-0.000000
-0.000000
-0.000000
-0.000000
-0.000000
-0.000000
-0.000000
-0.000000
-0.000000
-0.000000
-0.000000
-0.000000
-0.000000
-0.000000
-0.000000
-0.000000
-0.000000
-0.000000
-0.000000
-0.000000
-0.003297
-0.006595
-0.009892
-0.013189
-0.016486
-0.019784
-0.023081
-0.026378
-0.029675
-0.032972
-0.036269
-0.039566
-0.042863
-0.046160
-0.049457
-0.052753
-0.056050
-0.059348
-0.062651
-0.069179
-0.072324
-0.075463
-0.078603
-0.081742
-0.084882
-0.088022
-0.091162
-0.094301
-0.097441
-0.100581
-0.103721
-0.106860
-0.110000
-0.110000
-0.110000
-0.110000
-0.110000
-0.110000
-0.110000
-0.110000
-0.110000
-0.110000
-0.110000
-0.110000
-0.110000
-0.110000
-0.110000
-0.110000
-0.110000
-0.110000
-0.110000
-0.110000
-0.110000
-0.110000
-0.110000
-0.110000
-0.110000
-0.110000
-0.110000
-0.110000
-0.110000
-0.110000
-0.110000
-0.110000
-0.110000
-0.106702
-0.103404
-0.100106
-0.096808
-0.093510
-0.090212
-0.086914
-0.083616
-0.080318
-0.077020
-0.073723
-0.070425
-0.067128
-0.063830
-0.060533
-0.057235
-0.053938
-0.050640
-0.047337
-0.040815
-0.037672
-0.034533
-0.031393
-0.028254
-0.025115
-0.021975
-0.018836
-0.015697
-0.012557
-0.009418
-0.006279
-0.003139
-0.044645
-0.045299
-0.045947
-0.046586
-0.047243
-0.047884
-0.048538
-0.049179
-0.049827
-0.050472
-0.051118
-0.051764
-0.052404
-0.053059
-0.053706
-0.054344
-0.054997
-0.055649
-0.056288
-0.056935
-0.057590
-0.058230
-0.058877
-0.059523
-0.060168
-0.060816
-0.061459
-0.062113
-0.062755
-0.063413
-0.064054
-0.064706
-0.065365
-0.067953
-0.067110
-0.050076
-0.051234
-0.048667
-0.052919
-0.098521
-0.100989
-0.101901
-0.098916
-0.076589
-0.078649
-0.081002
-0.060466
-0.060512
-0.058741
-0.106918
-0.105349
-0.107386
-0.103914
-0.101719
-0.098874
-0.107096
-0.107190
-0.076876
-0.079570
-0.077188
-0.079289
-0.074354
-0.076443
-0.074024
-0.104252
-0.107033
-0.107505
-0.103846
-0.104366
-0.107021
-0.094172
-0.094002
-0.091624
-0.101469
-0.089358
-0.089915
-0.092182
-0.087111
-0.084698
-0.087112
-0.085022
-0.087048
-0.088991
-0.068361
-0.068353
-0.065835
-0.105876
-0.066342
-0.082301
-0.081979
-0.081858
-0.083943
-0.084176
-0.082038
-0.079929
-0.079181
-0.103955
-0.097165
-0.097209
-0.094838
-0.099870
-0.058884
-0.060829
-0.062232
-0.059724
-0.062270
-0.106859
-0.107273
-0.104096
-0.081173
-0.084536
-0.072274
-0.071314
-0.069430
-0.048557
-0.051657
-0.048858
-0.074430
-0.051014
-0.106351
-0.104241
-0.103343
-0.105164
-0.104403
-0.102133
-0.104867
-0.107182
-0.051913
-0.049466
-0.047976
-0.104074
-0.104744
-0.107168
-0.055220
-0.053657
-0.070409
-0.069382
-0.068026
-0.074134
-0.073154
-0.070703
-0.107468
-0.104652
-0.104664
-0.097971
-0.095445
-0.097052
-0.107249
-0.099842
-0.053855
-0.056567
-0.108036
-0.057856
-0.107028
-0.076247
-0.094333
-0.092458
-0.091774
-0.102738
-0.093332
-0.053743
-0.095846
-0.101414
-0.066417
-0.072279
-0.070092
-0.102347
-0.100268
-0.056237
-0.063414
-0.091880
-0.094581
-0.091895
-0.050480
-0.052440
-0.054616
-0.055575
-0.094538
-0.107228
-0.095252
-0.095886
-0.092512
-0.093394
-0.090024
-0.092649
-0.078950
-0.075409
-0.105114
-0.102228
-0.101020
-0.090196
-0.096658
-0.096843
-0.099556
-0.107870
-0.060547
-0.058345
-0.062919
-0.105800
-0.107024
-0.103505
-0.058747
-0.097292
-0.100281
-0.098554
-0.101867
-0.104587
-0.100507
-0.098986
-0.097917
-0.092916
-0.053343
-0.051536
-0.056236
-0.057504
-0.080648
-0.083444
-0.080330
-0.104489
-0.107305
-0.094372
-0.091637
-0.101791
-0.083186
-0.094202
-0.097290
-0.107568
-0.080500
-0.082809
-0.082399
-0.065051
-0.063795
-0.060508
-0.084914
-0.057500
-0.060568
-0.059898
-0.056750
-0.100278
-0.097912
-0.102050
-0.102477
-0.054701
-0.052374
-0.058554
-0.059741
-0.089164
-0.087825
-0.086617
-0.091637
-0.088799
-0.091404
-0.095546
-0.060825
-0.060327
-0.058490
-0.066077
-0.068769
-0.057902
-0.063053
-0.066266
-0.061223
-0.063725
-0.064636
-0.068466
-0.070709
-0.068055
-0.072042
-0.106696
-0.067766
-0.065480
-0.097847
-0.086180
-0.089349
-0.085932
-0.088967
-0.056172
-0.085835
-0.083480
-0.077491
-0.080649
-0.079582
-0.061391
-0.062664
-0.054536
-0.080090
-0.077897
-0.077480
-0.082664
-0.079614
-0.069612
-0.082493
-0.072270
-0.092978
-0.094998
-0.092060
-0.092159
-0.092289
-0.089331
-0.066910
-0.066517
-0.063523
-0.069548
-0.071090
-0.070061
-0.087360
-0.055795
-0.086558
-0.085288
-0.090438
-0.091984
-0.093600
-0.094815
-0.073475
-0.073413
-0.076388
-0.079414
-0.059023
-0.062425
-0.057660
-0.060770
-0.057293
-0.075672
-0.073806
-0.076176
-0.073288
-0.079610
-0.082644
-0.076544
-0.100984
-0.101887
-0.098228
-0.073608
-0.070148
-0.096624
-0.096473
-0.083460
-0.085146
-0.082647
-0.076764
-0.082081
-0.085220
-0.083839
-0.087708
-0.086467
-0.089059
-0.105086
-0.102798
-0.099325
-0.107850
-0.076772
-0.074159
-0.076322
-0.078582
-0.104008
-0.106374
-0.102039
-0.088390
-0.087613
-0.085377
-0.088889
-0.068404
-0.069023
-0.071001
-0.066979
-0.051667
-0.090091
-0.083213
-0.086205
-0.085302
-0.089092
-0.085620
-0.088193
-0.083706
-0.094391
-0.091492
-0.091771
-0.085181
-0.094723
-0.081125
-0.078030
-0.087908
-0.071364
-0.070404
-0.069411
-0.067516
-0.072348
-0.063733
-0.073572
-0.066412
-0.096122
-0.096667
-0.098761
-0.078593
-0.081654
-0.046454
-0.084293
-0.061350
-0.064546
-0.063974
-0.060309
-0.063535
-0.095387
-0.071421
-0.060896
-0.097411
-0.086321
-0.105038
-0.058960
-0.055826
-0.052956