# vtk DataFile Version 2.0
Test
ASCII
DATASET POLYDATA
POINTS 1445 float
0.000000 0.000000 0.000000
1.000000 0.000000 0.000000
1.000000 1.000000 0.000000
0.000000 1.000000 0.000000
0.000000 0.400000 0.000000
1.000000 0.600000 0.000000
0.029412 0.000000 0.000000
0.058824 0.000000 0.000000
0.088235 0.000000 0.000000
0.117647 0.000000 0.000000
0.147059 0.000000 0.000000
0.176471 0.000000 0.000000
0.205882 0.000000 0.000000
0.235294 0.000000 0.000000
0.264706 0.000000 0.000000
0.294118 0.000000 0.000000
0.323529 0.000000 0.000000
0.352941 0.000000 0.000000
0.382353 0.000000 0.000000
0.411765 0.000000 0.000000
0.441176 0.000000 0.000000
0.470588 0.000000 0.000000
0.500000 0.000000 0.000000
0.529412 0.000000 0.000000
0.558824 0.000000 0.000000
0.588235 0.000000 0.000000
0.617647 0.000000 0.000000
0.647059 0.000000 0.000000
0.676471 0.000000 0.000000
0.705882 0.000000 0.000000
0.735294 0.000000 0.000000
0.764706 0.000000 0.000000
0.794118 0.000000 0.000000
0.823529 0.000000 0.000000
0.852941 0.000000 0.000000
0.882353 0.000000 0.000000
0.911765 0.000000 0.000000
0.941176 0.000000 0.000000
0.970588 0.000000 0.000000
1.000000 0.030000 0.000000
1.000000 0.060000 0.000000
1.000000 0.090000 0.000000
1.000000 0.120000 0.000000
1.000000 0.150000 0.000000
1.000000 0.180000 0.000000
1.000000 0.210000 0.000000
1.000000 0.240000 0.000000
1.000000 0.270000 0.000000
1.000000 0.300000 0.000000
1.000000 0.330000 0.000000
1.000000 0.360000 0.000000
1.000000 0.390000 0.000000
1.000000 0.420000 0.000000
1.000000 0.450000 0.000000
1.000000 0.480000 0.000000
1.000000 0.510000 0.000000
1.000000 0.540000 0.000000
1.000000 0.570000 0.000000
1.000000 0.628571 0.000000
1.000000 0.657143 0.000000
1.000000 0.685714 0.000000
1.000000 0.714286 0.000000
1.000000 0.742857 0.000000
1.000000 0.771429 0.000000
1.000000 0.800000 0.000000
1.000000 0.828571 0.000000
1.000000 0.857143 0.000000
1.000000 0.885714 0.000000
1.000000 0.914286 0.000000
1.000000 0.942857 0.000000
1.000000 0.971429 0.000000
0.970588 1.000000 0.000000
0.941176 1.000000 0.000000
0.911765 1.000000 0.000000
0.882353 1.000000 0.000000
0.852941 1.000000 0.000000
0.823529 1.000000 0.000000
0.794118 1.000000 0.000000
0.764706 1.000000 0.000000
0.735294 1.000000 0.000000
0.705882 1.000000 0.000000
0.676471 1.000000 0.000000
0.647059 1.000000 0.000000
0.617647 1.000000 0.000000
0.588235 1.000000 0.000000
0.558824 1.000000 0.000000
0.529412 1.000000 0.000000
0.500000 1.000000 0.000000
0.470588 1.000000 0.000000
0.441176 1.000000 0.000000
0.411765 1.000000 0.000000
0.382353 1.000000 0.000000
0.352941 1.000000 0.000000
0.323529 1.000000 0.000000
0.294118 1.000000 0.000000
0.264706 1.000000 0.000000
0.235294 1.000000 0.000000
0.205882 1.000000 0.000000
0.176471 1.000000 0.000000
0.147059 1.000000 0.000000
0.117647 1.000000 0.000000
0.088235 1.000000 0.000000
0.058824 1.000000 0.000000
0.029412 1.000000 0.000000
0.000000 0.970000 0.000000
0.000000 0.940000 0.000000
0.000000 0.910000 0.000000
0.000000 0.880000 0.000000
0.000000 0.850000 0.000000
0.000000 0.820000 0.000000
0.000000 0.790000 0.000000
0.000000 0.760000 0.000000
0.000000 0.730000 0.000000
0.000000 0.700000 0.000000
0.000000 0.670000 0.000000
0.000000 0.640000 0.000000
0.000000 0.610000 0.000000
0.000000 0.580000 0.000000
0.000000 0.550000 0.000000
0.000000 0.520000 0.000000
0.000000 0.490000 0.000000
0.000000 0.460000 0.000000
0.000000 0.430000 0.000000
0.000000 0.371429 0.000000
0.000000 0.342857 0.000000
0.000000 0.314286 0.000000
0.000000 0.285714 0.000000
0.000000 0.257143 0.000000
0.000000 0.228571 0.000000
0.000000 0.200000 0.000000
0.000000 0.171429 0.000000
0.000000 0.142857 0.000000
0.000000 0.114286 0.000000
0.000000 0.085714 0.000000
0.000000 0.057143 0.000000
0.000000 0.028571 0.000000
0.029412 0.405882 0.000000
0.058824 0.411765 0.000000
0.088235 0.417647 0.000000
0.117647 0.423529 0.000000
0.147059 0.429412 0.000000
0.176471 0.435294 0.000000
0.205882 0.441176 0.000000
0.235294 0.447059 0.000000
0.264706 0.452941 0.000000
0.294118 0.458824 0.000000
0.323529 0.464706 0.000000
0.352941 0.470588 0.000000
0.382353 0.476471 0.000000
0.411765 0.482353 0.000000
0.441176 0.488235 0.000000
0.470588 0.494118 0.000000
0.500000 0.500000 0.000000
0.529412 0.505882 0.000000
0.558824 0.511765 0.000000
0.588235 0.517647 0.000000
0.617647 0.523529 0.000000
0.647059 0.529412 0.000000
0.676471 0.535294 0.000000
0.705882 0.541176 0.000000
0.735294 0.547059 0.000000
0.764706 0.552941 0.000000
0.794118 0.558824 0.000000
0.823529 0.564706 0.000000
0.852941 0.570588 0.000000
0.882353 0.576471 0.000000
0.911765 0.582353 0.000000
0.941176 0.588235 0.000000
0.970588 0.594118 0.000000
0.948492 0.617586 0.000000
0.918239 0.609871 0.000000
0.126115 0.454845 0.000000
0.100318 0.465379 0.000000
0.103006 0.442114 0.000000
0.117916 0.480680 0.000000
0.029145 0.895585 0.000000
0.046774 0.918032 0.000000
0.024990 0.926329 0.000000
0.056315 0.899171 0.000000
0.977770 0.695981 0.000000
0.963577 0.714729 0.000000
0.973827 0.736127 0.000000
0.605253 0.549394 0.000000
0.579370 0.549801 0.000000
0.570019 0.533816 0.000000
0.896809 0.971959 0.000000
0.919426 0.957680 0.000000
0.927686 0.976215 0.000000
0.899487 0.944624 0.000000
0.974081 0.924646 0.000000
0.977161 0.898750 0.000000
0.076578 0.973587 0.000000
0.102577 0.974440 0.000000
0.861693 0.698664 0.000000
0.848870 0.723174 0.000000
0.839521 0.701504 0.000000
0.820447 0.720618 0.000000
0.872237 0.675719 0.000000
0.882611 0.694724 0.000000
0.895344 0.672729 0.000000
0.606326 0.947716 0.000000
0.624868 0.973015 0.000000
0.599776 0.977307 0.000000
0.167986 0.944019 0.000000
0.199183 0.948746 0.000000
0.187884 0.972901 0.000000
0.787752 0.856005 0.000000
0.754801 0.854462 0.000000
0.778588 0.832828 0.000000
0.191471 0.922393 0.000000
0.801312 0.812216 0.000000
0.829867 0.817276 0.000000
0.805526 0.837896 0.000000
0.812775 0.791772 0.000000
0.822869 0.769821 0.000000
0.833826 0.791773 0.000000
0.849982 0.772760 0.000000
0.791421 0.791198 0.000000
0.772962 0.808877 0.000000
0.180049 0.621172 0.000000
0.160680 0.621098 0.000000
0.172158 0.598185 0.000000
0.588124 0.962489 0.000000
0.142171 0.602810 0.000000
0.827587 0.748015 0.000000
0.859778 0.745080 0.000000
0.882413 0.743965 0.000000
0.872759 0.762938 0.000000
0.894601 0.765041 0.000000
0.910115 0.745588 0.000000
0.901004 0.726420 0.000000
0.877058 0.719626 0.000000
0.632694 0.945006 0.000000
0.818411 0.883232 0.000000
0.787667 0.883633 0.000000
0.812018 0.862064 0.000000
0.808649 0.907835 0.000000
0.066636 0.534974 0.000000
0.083909 0.552665 0.000000
0.058224 0.565435 0.000000
0.037551 0.542621 0.000000
0.025720 0.565794 0.000000
0.304619 0.971425 0.000000
0.276072 0.975195 0.000000
0.284125 0.946285 0.000000
0.795087 0.737757 0.000000
0.797357 0.768346 0.000000
0.869843 0.656802 0.000000
0.840870 0.648068 0.000000
0.865462 0.630915 0.000000
0.043233 0.441011 0.000000
0.028792 0.469222 0.000000
0.020751 0.443790 0.000000
0.846918 0.676414 0.000000
0.058991 0.463368 0.000000
0.051906 0.966804 0.000000
0.071758 0.947609 0.000000
0.048298 0.939447 0.000000
0.026398 0.956010 0.000000
0.967109 0.949068 0.000000
0.946807 0.928411 0.000000
0.940173 0.953295 0.000000
0.956764 0.974357 0.000000
0.076722 0.471546 0.000000
0.082324 0.449317 0.000000
0.066669 0.435847 0.000000
0.114035 0.946088 0.000000
0.091278 0.952186 0.000000
0.128453 0.974235 0.000000
0.027019 0.501643 0.000000
0.047138 0.487417 0.000000
0.943388 0.639892 0.000000
0.923239 0.630552 0.000000
0.974491 0.618278 0.000000
0.972785 0.673666 0.000000
0.943930 0.664809 0.000000
0.968693 0.642530 0.000000
0.780685 0.976970 0.000000
0.756289 0.951349 0.000000
0.776857 0.951460 0.000000
0.935276 0.890540 0.000000
0.927168 0.867561 0.000000
0.954227 0.882176 0.000000
0.745760 0.974977 0.000000
0.952002 0.907568 0.000000
0.068063 0.489215 0.000000
0.051512 0.513895 0.000000
0.027757 0.982136 0.000000
0.023217 0.525632 0.000000
0.982410 0.972952 0.000000
0.951072 0.692907 0.000000
0.957020 0.857438 0.000000
0.937630 0.840379 0.000000
0.966912 0.834149 0.000000
0.923427 0.933924 0.000000
0.982257 0.848323 0.000000
0.092881 0.488189 0.000000
0.976737 0.871201 0.000000
0.067960 0.921895 0.000000
0.886538 0.603532 0.000000
0.918896 0.656866 0.000000
0.898227 0.636966 0.000000
0.092880 0.930380 0.000000
0.929071 0.911440 0.000000
0.081137 0.510877 0.000000
0.592772 0.576158 0.000000
0.150419 0.835159 0.000000
0.138607 0.859733 0.000000
0.125762 0.835294 0.000000
0.155304 0.458505 0.000000
0.139466 0.476317 0.000000
0.134858 0.496115 0.000000
0.109061 0.504849 0.000000
0.112238 0.859343 0.000000
0.866826 0.974780 0.000000
0.026919 0.865848 0.000000
0.348411 0.871602 0.000000
0.339654 0.840899 0.000000
0.369544 0.848927 0.000000
0.925986 0.818235 0.000000
0.909684 0.842117 0.000000
0.929360 0.717495 0.000000
0.924028 0.685311 0.000000
0.879688 0.955544 0.000000
0.875200 0.929284 0.000000
0.903901 0.918287 0.000000
0.950764 0.819790 0.000000
0.047492 0.878635 0.000000
0.069665 0.880314 0.000000
0.081712 0.904992 0.000000
0.573454 0.980624 0.000000
0.556694 0.550113 0.000000
0.094318 0.530060 0.000000
0.563246 0.571677 0.000000
0.563825 0.961795 0.000000
0.155902 0.972929 0.000000
0.577162 0.940912 0.000000
0.545227 0.533787 0.000000
0.864670 0.884377 0.000000
0.860690 0.911575 0.000000
0.840756 0.895862 0.000000
0.137227 0.926016 0.000000
0.139814 0.950758 0.000000
0.109156 0.913646 0.000000
0.884976 0.899786 0.000000
0.910807 0.890052 0.000000
0.830819 0.844574 0.000000
0.157710 0.484545 0.000000
0.180718 0.468069 0.000000
0.154331 0.510861 0.000000
0.124262 0.522394 0.000000
0.341085 0.732964 0.000000
0.323736 0.758404 0.000000
0.312899 0.730066 0.000000
0.857321 0.949854 0.000000
0.839840 0.975483 0.000000
0.053549 0.857833 0.000000
0.031143 0.832960 0.000000
0.840338 0.925315 0.000000
0.300796 0.756054 0.000000
0.080783 0.856286 0.000000
0.096939 0.884378 0.000000
0.544800 0.977874 0.000000
0.949430 0.731579 0.000000
0.955247 0.752582 0.000000
0.934712 0.748859 0.000000
0.030153 0.591093 0.000000
[...]
POINT_DATA 1445
SCALARS UX float 1
LOOKUP_TABLE default
-0.266142
-0.000000
0.000000
-0.266142
-0.266142
0.000000
-0.258315
-0.250487
-0.242659
-0.234832
-0.227004
-0.219176
-0.211348
-0.203521
-0.195693
-0.187865
-0.180038
-0.172210
-0.164382
-0.156554
-0.148727
-0.140899
-0.133071
-0.125244
-0.117416
-0.109588
-0.101760
-0.093933
-0.086105
-0.078277
-0.070449
-0.062622
-0.054794
-0.046966
-0.039139
-0.031311
-0.023483
-0.015655
-0.007828
-0.000000
-0.000000
-0.000000
-0.000000
-0.000000
-0.000000
-0.000000
-0.000000
-0.000000
-0.000000
-0.000000
-0.000000
-0.000000
-0.000000
-0.000000
-0.000000
-0.000000
0.000000
0.000000
-0.000000
-0.000000
0.000000
-0.000000
-0.000000
-0.000000
-0.000000
0.000000
-0.000000
0.000000
-0.000000
0.000000
-0.000000
-0.007828
-0.015655
-0.023483
-0.031311
-0.039139
-0.046966
-0.054794
-0.062622
-0.070449
-0.078277
-0.086105
-0.093933
-0.101760
-0.109588
-0.117416
-0.125244
-0.133071
-0.140899
-0.148727
-0.156554
-0.164382
-0.172210
-0.180038
-0.187865
-0.195693
-0.203521
-0.211348
-0.219176
-0.227004
-0.234832
-0.242659
-0.250487
-0.258315
-0.266142
-0.266142
-0.266142
-0.266142
-0.266142
-0.266142
-0.266142
-0.266142
-0.266142
-0.266142
-0.266142
-0.266142
-0.266142
-0.266142
-0.266142
-0.266142
-0.266142
-0.266142
-0.266142
-0.266142
-0.266142
-0.266142
-0.266142
-0.266142
-0.266142
-0.266142
-0.266142
-0.266142
-0.266142
-0.266142
-0.266142
-0.266142
-0.258315
-0.250487
-0.242659
-0.234832
-0.227004
-0.219176
-0.211348
-0.203521
-0.195693
-0.187865
-0.180038
-0.172210
-0.164382
-0.156554
-0.148727
-0.140899
-0.133071
-0.125244
-0.117416
-0.109588
-0.101760
-0.093933
-0.086105
-0.078277
-0.070449
-0.062622
-0.054794
-0.046966
-0.039139
-0.031311
-0.023483
-0.015655
-0.007828
-0.013709
-0.021760
-0.232578
-0.239444
-0.238728
-0.234760
-0.258386
-0.253694
-0.259492
-0.251155
-0.005916
-0.009694
-0.006966
-0.105059
-0.111948
-0.114436
-0.027463
-0.021444
-0.019246
-0.026751
-0.006898
-0.006079
-0.245762
-0.238842
-0.036809
-0.040222
-0.042710
-0.047787
-0.034003
-0.031242
-0.027853
-0.104773
-0.099839
-0.106517
-0.221434
-0.213131
-0.216139
-0.056488
-0.065258
-0.058927
-0.215184
-0.052879
-0.045280
-0.051758
-0.049828
-0.047142
-0.044226
-0.039926
-0.055512
-0.060425
-0.218224
-0.223379
-0.220324
-0.109618
-0.228305
-0.045887
-0.037319
-0.031295
-0.033864
-0.028051
-0.023922
-0.026347
-0.032720
-0.097756
-0.048328
-0.056511
-0.050030
-0.050927
-0.248408
-0.243811
-0.250647
-0.256148
-0.259297
-0.185071
-0.192668
-0.190525
-0.054536
-0.053932
-0.034640
-0.042351
-0.035806
-0.254636
-0.258480
-0.260620
-0.040742
-0.250442
-0.252328
-0.247045
-0.253288
-0.259117
-0.008754
-0.014157
-0.015922
-0.011507
-0.245724
-0.244233
-0.248399
-0.235793
-0.241849
-0.231956
-0.258951
-0.253597
-0.015067
-0.020429
-0.006789
-0.007243
-0.014923
-0.008332
-0.058369
-0.064862
-0.059388
-0.017226
-0.019384
-0.012182
-0.067664
-0.012774
-0.248028
-0.252433
-0.258755
-0.259964
-0.004681
-0.013022
-0.011439
-0.016599
-0.008806
-0.020379
-0.004722
-0.241423
-0.006191
-0.248056
-0.030197
-0.021585
-0.027086
-0.241423
-0.018877
-0.244549
-0.108381
-0.226110
-0.229253
-0.232672
-0.224809
-0.229025
-0.230251
-0.237117
-0.236271
-0.035443
-0.258978
-0.173416
-0.175746
-0.167791
-0.019698
-0.024037
-0.018800
-0.020219
-0.032020
-0.033215
-0.025576
-0.013104
-0.253503
-0.247602
-0.244395
-0.113522
-0.117983
-0.241041
-0.116239
-0.116085
-0.224650
-0.112535
-0.121035
-0.036017
-0.037076
-0.042382
-0.229620
-0.228932
-0.237092
-0.030613
-0.023738
-0.045026
-0.224169
-0.218046
-0.225069
-0.233071
-0.175365
-0.179983
-0.182867
-0.037973
-0.042625
-0.251891
-0.257854
-0.042493
-0.186088
-0.244643
-0.240343
-0.121148
-0.013459
-0.011911
-0.017376
-0.258118
-0.241842
-0.236877
-0.021664
-0.139718
-0.139032
-0.147429
-0.145267
-0.223505
-0.230967
-0.056173
-0.061900
-0.217391
-0.209226
-0.218072
-0.228073
-0.006972
-0.014385
-0.007008
-0.248766
-0.260149
-0.240218
-0.028426
-0.195038
-0.200451
-0.196646
-0.249673
-0.256804
-0.202836
-0.232751
-0.236685
-0.187969
-0.194043
-0.187172
-0.172449
-0.177437
-0.179535
-0.171366
-0.206821
-0.186043
-0.181312
-0.216496
-0.182720
-0.185643
-0.189596
-0.194169
-0.210028
-0.176915
-0.172848
-0.235714
-0.234101
-0.241956
-0.213623
-0.222426
-0.202589
-0.189501
-0.185876
-0.179067
-0.193027
-0.197099
-0.247467
-0.201002
-0.259113
-0.030946
-0.035538
-0.038032
-0.189884
-0.182768
-0.178097
-0.198308
-0.191814
-0.201736
-0.193502
-0.185437
-0.201924
-0.021002
-0.195665
-0.026706
-0.196396
-0.201980
-0.196080
-0.201557
-0.194032
-0.205971
-0.194965
-0.201180
-0.206115
-0.181689
-0.180667
-0.189385
-0.174369
-0.174884
-0.258381
-0.253013
-0.250626
-0.246618
-0.216871
-0.209198
-0.210330
-0.186765
-0.196616
-0.193364
-0.214912
-0.212257
-0.200083
-0.207485
-0.233181
-0.239433
-0.241185
-0.242330
-0.224936
-0.224596
-0.217538
-0.224780
-0.229319
-0.229439
-0.198648
-0.206079
-0.202308
-0.199871
-0.216933
-0.221117
-0.223578
-0.254596
-0.183163
-0.175124
-0.177709
-0.208533
-0.200211
-0.204562
-0.252509
-0.234108
-0.239956
-0.235127
-0.243148
-0.201696
-0.169911
-0.062808
-0.061812
-0.070068
-0.246033
-0.248025
-0.068363
-0.006731
-0.213540
-0.218127
-0.209410
-0.014499
-0.221505
-0.167267
-0.170161
-0.240646
-0.252882
-0.050825
-0.058699
-0.052505
-0.056891
-0.215837
-0.178844
-0.213759
-0.071493
-0.063281
-0.069323
-0.161088
-0.158427
-0.259390
-0.164773
-0.092391
-0.090661
-0.100176
-0.098501
-0.209349
-0.042068
-0.242160
-0.206001
-0.223775
-0.032652
-0.053141
-0.210053
-0.182682
-0.183411
-0.177366
-0.037469
-0.107114
-0.114483
-0.112744
-0.105486
-0.065992
-0.061727
-0.070637
-0.065477
-0.120605
-0.258221
-0.121741
-0.170928
-0.163026
-0.228460
-0.075592
-0.074091
-0.221401
-0.174530
-0.066755
-0.084969
-0.083169
-0.156077
-0.160790
-0.152581
-0.210188
-0.038306
-0.118378
-0.123177
-0.117512
-0.120383
-0.125566
-0.104275
-0.111620
-0.106221
-0.109829
-0.112494
-0.097412
-0.098616
-0.101948
-0.189359
-0.195489
-0.077289
-0.082474
-0.082136
-0.077318
-0.072417
-0.060839
-0.089553
-0.090804
-0.094079
-0.086420
-0.029062
-0.026197
-0.043733
-0.049063
-0.163333
-0.172046
-0.165522
-0.169484
-0.169315
-0.166149
-0.061119
-0.067590
-0.060028
-0.069145
-0.075457
-0.074198
-0.159203
-0.161102
-0.073277
-0.075219
-0.071061
-0.066315
-0.073939
-0.077243
-0.081928
-0.061061
-0.045620
-0.152378
-0.149950
-0.156260
-0.151562
-0.143575
-0.147161
-0.067758
-0.075765
-0.179672
-0.079724
-0.077951
-0.154623
-0.192049
-0.186177
-0.166809
-0.154851
-0.160306
-0.048586
-0.155099
-0.157220
-0.161063
-0.083522
-0.081715
-0.151017
-0.152837
-0.089555
-0.085174
-0.089772
-0.134546
-0.141713
-0.135060
-0.140234
-0.083906
-0.081594
-0.129202
-0.127406
-0.135060
-0.075616
-0.078767
-0.147051
-0.149129
-0.152964
-0.146522
-0.148164
-0.158754
-0.050113
-0.093014
-0.097629
-0.142987
-0.144824
-0.258993
-0.250413
-0.234598
-0.235570
-0.139091
-0.141099
-0.145008
-0.053554
-0.227635
-0.131160
-0.133186
-0.256359
-0.137054
-0.150819
-0.097411
-0.091576
-0.056170
-0.135031
-0.230606
-0.136864
-0.123244
-0.125200
-0.087706
-0.085851
-0.186609
-0.127114
-0.128957
-0.046118
-0.142926
-0.144143
-0.119196
-0.121087
-0.117294
-0.111297
-0.113182
-0.179717
-0.100880
-0.105504
-0.091805
-0.089923
-0.211806
-0.237850
-0.105289
-0.099440
-0.088085
-0.080200
-0.083466
-0.109406
-0.103415
-0.102330
-0.110206
-0.247995
-0.186836
-0.118073
-0.113392
-0.130742
-0.126008
-0.133672
-0.129161
-0.094471
-0.099158
-0.099647
-0.107502
-0.101533
-0.095552
-0.228306
-0.086620
-0.093689
-0.055043
-0.206543
-0.128926
-0.128296
-0.091309
-0.115343
-0.121290
-0.108760
-0.133047
-0.132608
-0.138794
-0.130934
-0.260305
-0.120709
-0.168851
-0.165207
-0.095134
-0.072320
-0.107321
-0.064710
-0.116647
-0.115211
-0.124534
-0.123086
-0.132049
-0.150621
-0.156784
-0.154384
-0.101414
-0.133131
-0.127008
-0.131641
-0.138990
-0.140056
-0.137074
-0.138169
-0.079214
-0.213909
-0.208220
-0.081478
-0.166617
-0.162811
-0.151143
-0.147233
-0.145982
-0.085823
-0.155737
-0.217819
-0.142520
-0.049760
-0.090015
-0.161254
-0.159693
-0.126943
-0.124186
-0.164445
-0.137274
-0.094293
-0.168473
-0.144562
-0.173582
-0.223067
-0.252434
-0.244383
-0.033565
-0.026699
-0.027414
-0.031382
-0.007757
-0.012449
-0.006651
-0.014988
-0.260226
-0.256449
-0.259177
-0.161084
-0.154195
-0.151706
-0.238679
-0.244698
-0.246897
-0.239392
-0.259244
-0.260064
-0.020381
-0.027300
-0.229333
-0.225920
-0.223432
-0.218356
-0.232139
-0.234900
-0.238289
-0.161369
-0.166304
-0.159626
-0.044708
-0.053011
-0.050004
-0.209654
-0.200885
-0.207215
-0.050958
-0.213263
-0.220863
-0.214385
-0.216314
-0.219000
-0.221917
-0.226216
-0.210631
-0.205718
-0.047919
-0.042764
-0.045818
-0.156525
-0.037838
-0.220256
-0.228823
-0.234847
-0.232278
-0.238091
-0.242220
-0.239795
-0.233422
-0.168387
-0.217814
-0.209632
-0.216113
-0.215216
-0.017735
-0.022332
-0.015496
-0.009994
-0.006845
-0.081072
-0.073474
-0.075618
-0.211606
-0.212210
-0.231502
-0.223791
-0.230336
-0.011506
-0.007663
-0.005523
-0.225401
-0.015700
-0.013814
-0.019098
-0.012854
-0.007026
-0.257389
-0.251986
-0.250220
-0.254636
-0.020419
-0.021910
-0.017743
-0.030350
-0.024293
-0.034187
-0.007191
-0.012545
-0.251076
-0.245713
-0.259353
-0.258899
-0.251220
-0.257810
-0.207774
-0.201281
-0.206755
-0.248917
-0.246759
-0.253960
-0.198478
-0.253368
-0.018115
-0.013710
-0.007387
-0.006179
-0.261461
-0.253121
-0.254704
-0.249543
-0.257336
-0.245763
-0.261420
-0.024719
-0.259951
-0.018087
-0.235945
-0.244557
-0.239056
-0.024719
-0.247265
-0.021594
-0.157762
-0.040033
-0.036889
-0.033471
-0.041333
-0.037118
-0.035891
-0.029026
-0.029871
-0.230699
-0.007164
-0.092727
-0.090396
-0.098351
-0.246444
-0.242106
-0.247342
-0.245923
-0.234122
-0.232928
-0.240567
-0.253039
-0.012640
-0.018541
-0.021747
-0.152620
-0.148160
-0.025102
-0.149904
-0.150058
-0.041492
-0.153607
-0.145108
-0.230125
-0.229066
-0.223761
-0.036522
-0.037211
-0.029051
-0.235530
-0.242404
-0.221116
-0.041973
-0.048097
-0.041074
-0.033071
-0.090777
-0.086160
-0.083276
-0.228169
-0.223517
-0.014252
-0.008288
-0.223650
-0.080055
-0.021500
-0.025800
-0.144994
-0.252684
-0.254232
-0.248767
-0.008025
-0.024300
-0.029265
-0.244478
-0.126425
-0.127111
-0.118714
-0.120876
-0.042637
-0.035176
-0.209970
-0.204242
-0.048751
-0.056916
-0.048070
-0.038069
-0.259170
-0.251757
-0.259134
-0.017377
-0.005994
-0.025925
-0.237717
-0.071104
-0.065691
-0.069497
-0.016470
-0.009338
-0.063306
-0.033392
-0.029458
-0.078174
-0.072099
-0.078970
-0.093694
-0.088705
-0.086608
-0.094777
-0.059322
-0.080099
-0.084830
-0.049647
-0.083422
-0.080499
-0.076547
-0.071973
-0.056115
-0.089227
-0.093294
-0.030428
-0.032041
-0.024186
-0.052519
-0.043716
-0.063554
-0.076642
-0.080267
-0.087076
-0.073116
-0.069044
-0.018676
-0.065140
-0.007029
-0.235196
-0.230605
-0.228110
-0.076259
-0.083375
-0.088045
-0.067835
-0.074329
-0.064407
-0.072640
-0.080706
-0.064218
-0.245140
-0.070477
-0.239437
-0.069747
-0.064162
-0.070062
-0.064586
-0.072110
-0.060172
-0.071177
-0.064962
-0.060027
-0.084454
-0.085476
-0.076758
-0.091773
-0.091258
-0.007761
-0.013129
-0.015517
-0.019524
-0.049271
-0.056944
-0.055812
-0.079377
-0.069526
-0.072779
-0.051231
-0.053886
-0.066059
-0.058658
-0.032961
-0.026710
-0.024957
-0.023813
-0.041206
-0.041547
-0.048605
-0.041362
-0.036824
-0.036703
-0.067494
-0.060063
-0.063835
-0.066272
-0.049209
-0.045025
-0.042564
-0.011547
-0.082979
-0.091019
-0.088434
-0.057609
-0.065932
-0.061580
-0.013634
-0.032034
-0.026187
-0.031015
-0.022995
-0.064447
-0.096231
-0.203335
-0.204331
-0.196075
-0.020110
-0.018117
-0.197779
-0.259412
-0.052602
-0.048016
-0.056733
-0.251643
-0.044637
-0.098876
-0.095982
-0.025496
-0.013261
-0.215317
-0.207444
-0.213637
-0.209251
-0.050305
-0.087298
-0.052384
-0.194650
-0.202861
-0.196820
-0.105054
-0.107715
-0.006752
-0.101369
-0.173752
-0.175482
-0.165967
-0.167641
-0.056794
-0.224075
-0.023983
-0.060142
-0.042367
-0.233490
-0.213002
-0.056089
-0.083460
-0.082732
-0.088776
-0.228674
-0.159029
-0.151659
-0.153398
-0.160656
-0.200151
-0.204416
-0.195506
-0.200666
-0.145538
-0.007921
-0.144401
-0.095214
-0.103117
-0.037682
-0.190550
-0.192052
-0.044742
-0.091612
-0.199387
-0.181173
-0.182974
-0.110066
-0.105352
-0.113561
-0.055954
-0.227837
-0.147764
-0.142966
-0.148630
-0.145760
-0.140577
-0.161868
-0.154522
-0.159921
-0.156313
-0.153648
-0.168730
-0.167526
-0.164194
-0.076783
-0.070653
-0.188853
-0.183668
-0.184006
-0.188824
-0.193725
-0.205304
-0.176590
-0.175339
-0.172064
-0.179722
-0.237081
-0.239945
-0.222410
-0.217080
-0.102809
-0.094097
-0.100621
-0.096659
-0.096828
-0.099993
-0.205024
-0.198553
-0.206114
-0.196998
-0.190685
-0.191945
-0.106939
-0.105040
-0.192866
-0.190923
-0.195081
-0.199827
-0.192203
-0.188899
-0.184214
-0.205081
-0.220522
-0.113764
-0.116193
-0.109882
-0.114580
-0.122568
-0.118982
-0.198384
-0.190377
-0.086471
-0.186418
-0.188191
-0.111519
-0.074093
-0.079966
-0.099333
-0.111292
-0.105837
-0.217557
-0.111043
-0.108923
-0.105080
-0.182620
-0.184427
-0.115126
-0.113305
-0.176587
-0.180968
-0.176371
-0.131596
-0.124430
-0.131082
-0.125909
-0.182237
-0.184549
-0.136941
-0.138737
-0.131083
-0.190527
-0.187375
-0.119092
-0.117013
-0.113179
-0.119620
-0.117979
-0.107389
-0.216029
-0.173128
-0.168514
-0.123156
-0.121318
-0.007149
-0.015729
-0.031544
-0.030572
-0.127052
-0.125043
-0.121135
-0.212588
-0.038508
-0.134983
-0.132956
-0.009783
-0.129089
-0.115324
-0.168731
-0.174567
-0.209973
-0.131111
-0.035536
-0.129278
-0.142899
-0.140943
-0.178436
-0.180292
-0.079533
-0.139029
-0.137186
-0.220025
-0.123217
-0.122000
-0.146947
-0.145055
-0.148848
-0.154845
-0.152960
-0.086426
-0.165262
-0.160638
-0.174338
-0.176220
-0.054336
-0.028293
-0.160853
-0.166703
-0.178058
-0.185942
-0.182676
-0.156737
-0.162727
-0.163812
-0.155937
-0.018148
-0.079306
-0.148070
-0.152751
-0.135400
-0.140134
-0.132471
-0.136981
-0.171672
-0.166984
-0.166496
-0.158640
-0.164610
-0.170591
-0.037837
-0.179522
-0.172454
-0.211099
-0.059599
-0.137216
-0.137846
-0.174834
-0.150800
-0.144853
-0.157383
-0.133095
-0.133535
-0.127349
-0.135208
-0.005837
-0.145434
-0.097292
-0.100936
-0.171009
-0.193823
-0.158821
-0.201433
-0.149495
-0.150932
-0.141608
-0.143057
-0.134093
-0.115522
-0.109358
-0.111758
-0.164729
-0.133011
-0.139135
-0.134501
-0.127152
-0.126087
-0.129069
-0.127973
-0.186928
-0.052233
-0.057922
-0.184664
-0.099525
-0.103332
-0.115000
-0.118909
-0.120161
-0.180319
-0.110405
-0.048323
-0.123622
-0.216382
-0.176127
-0.104889
-0.106449
-0.139200
-0.141956
-0.101697
-0.128869
-0.171849
-0.097670
-0.121581
-0.092561
-0.043075
SCALARS UY float 1
LOOKUP_TABLE default
-0.000000
-0.000000
-0.621000
-0.621000
-0.248400
-0.372600
-0.000000
-0.000000
-0.000000
-0.000000
-0.000000
-0.000000
-0.000000
-0.000000
-0.000000
-0.000000
-0.000000
-0.000000
-0.000000
-0.000000
-0.000000
-0.000000
-0.000000
-0.000000
-0.000000
-0.000000
-0.000000
-0.000000
-0.000000
-0.000000
-0.000000
-0.000000
-0.000000
-0.000000
-0.000000
-0.000000
-0.000000
-0.000000
-0.000000
-0.018630
-0.037260
-0.055890
-0.074520
-0.093150
-0.111780
-0.130410
-0.149040
-0.167670
-0.186300
-0.204930
-0.223560
-0.242190
-0.260820
-0.279450
-0.298080
-0.316710
-0.335340
-0.353970
-0.390343
-0.408086
-0.425828
-0.443571
-0.461314
-0.479057
-0.496800
-0.514543
-0.532285
-0.550028
-0.567771
-0.585514
-0.603257
-0.621000
-0.621000
-0.621000
-0.621000
-0.621000
-0.621000
-0.621000
-0.621000
-0.621000
-0.621000
-0.621000
-0.621000
-0.621000
-0.621000
-0.621000
-0.621000
-0.621000
-0.621000
-0.621000
-0.621000
-0.621000
-0.621000
-0.621000
-0.621000
-0.621000
-0.621000
-0.621000
-0.621000
-0.621000
-0.621000
-0.621000
-0.621000
-0.621000
-0.602370
-0.583740
-0.565110
-0.546480
-0.527850
-0.509220
-0.490590
-0.471960
-0.453330
-0.434700
-0.416070
-0.397440
-0.378810
-0.360180
-0.341550
-0.322920
-0.304290
-0.285660
-0.267030
-0.230657
-0.212914
-0.195172
-0.177429
-0.159686
-0.141943
-0.124200
-0.106457
-0.088715
-0.070972
-0.053229
-0.035486
-0.017743
-0.252053
-0.255706
-0.259359
-0.263012
-0.266665
-0.270318
-0.273971
-0.277624
-0.281277
-0.284929
-0.288582
-0.292235
-0.295888
-0.299541
-0.303194
-0.306847
-0.310500
-0.314153
-0.317806
-0.321459
-0.325112
-0.328765
-0.332418
-0.336071
-0.339723
-0.343376
-0.347029
-0.350682
-0.354335
-0.357988
-0.361641
-0.365294
-0.368947
-0.383521
-0.378730
-0.282459
-0.289000
-0.274553
-0.298503
-0.556158
-0.570097
-0.575250
-0.558385
-0.432204
-0.443847
-0.457135
-0.341174
-0.341426
-0.331500
-0.603586
-0.594719
-0.606229
-0.586611
-0.574205
-0.558123
-0.604597
-0.605127
-0.433870
-0.449091
-0.435634
-0.447504
-0.419621
-0.431424
-0.417765
-0.588531
-0.604242
-0.606907
-0.586236
-0.589171
-0.604171
-0.531579
-0.530621
-0.517186
-0.572806
-0.504386
-0.507528
-0.520333
-0.491690
-0.478059
-0.491691
-0.479883
-0.491334
-0.502312
-0.385747
-0.385702
-0.371473
-0.597705
-0.374345
-0.464517
-0.462694
-0.462002
-0.473784
-0.475090
-0.463010
-0.451107
-0.446888
-0.586849
-0.548487
-0.548736
-0.535342
-0.563765
-0.332219
-0.343205
-0.351135
-0.336968
-0.351358
-0.603255
-0.605596
-0.587643
-0.458147
-0.477143
-0.407874
-0.402450
-0.391798
-0.273868
-0.291387
-0.275594
-0.420053
-0.287752
-0.600385
-0.588465
-0.583396
-0.593682
-0.589371
-0.576543
-0.591996
-0.605075
-0.292830
-0.279026
-0.270661
-0.587520
-0.591307
-0.604999
-0.311520
-0.302686
-0.397373
-0.391572
-0.383951
-0.418347
-0.412846
-0.399011
-0.606698
-0.590787
-0.590856
-0.553025
-0.538755
-0.547831
-0.605460
-0.563599
-0.303803
-0.319129
-0.609906
-0.326417
-0.604203
-0.430295
-0.532469
-0.521875
-0.518006
-0.579966
-0.526808
-0.303166
-0.541015
-0.572497
-0.374793
-0.407914
-0.395556
-0.577766
-0.566004
-0.317255
-0.357794
-0.518633
-0.533894
-0.518717
-0.284731
-0.295793
-0.308087
-0.313511
-0.533652
-0.605338
-0.537691
-0.541265
-0.522198
-0.527183
-0.508124
-0.522954
-0.445564
-0.425578
-0.593392
-0.577085
-0.570256
-0.509089
-0.545632
-0.546675
-0.562000
-0.608967
-0.341620
-0.329167
-0.355012
-0.597274
-0.604188
-0.584306
-0.331482
-0.549198
-0.566088
-0.556330
-0.575055
-0.590421
-0.567374
-0.558767
-0.552722
-0.524480
-0.300902
-0.290671
-0.317244
-0.324407
-0.455171
-0.470969
-0.453371
-0.589859
-0.605775
-0.532714
-0.517268
-0.574620
-0.469509
-0.531753
-0.549198
-0.607260
-0.454310
-0.467353
-0.465041
-0.367069
-0.359962
-0.341383
-0.479256
-0.324409
-0.341723
-0.337928
-0.320176
-0.566074
-0.552708
-0.576087
-0.578501
-0.308559
-0.295413
-0.330334
-0.337047
-0.503254
-0.495693
-0.488863
-0.517266
-0.501239
-0.515945
-0.539328
-0.343159
-0.340349
-0.329971
-0.372858
-0.388073
-0.326645
-0.355762
-0.373919
-0.345411
-0.359548
-0.364700
-0.386338
-0.399015
-0.384017
-0.406544
-0.602333
-0.382385
-0.369466
-0.552341
-0.486423
-0.504328
-0.485021
-0.502168
-0.316867
-0.484477
-0.471172
-0.437342
-0.455182
-0.449158
-0.346360
-0.353560
-0.307626
-0.452017
-0.439627
-0.437268
-0.466558
-0.449326
-0.392832
-0.465595
-0.407856
-0.524821
-0.536238
-0.519639
-0.520206
-0.520939
-0.504230
-0.377547
-0.375327
-0.358405
-0.392453
-0.401163
-0.395350
-0.493072
-0.314748
-0.488546
-0.481384
-0.510483
-0.519214
-0.528344
-0.535209
-0.414644
-0.414290
-0.431098
-0.448196
-0.332982
-0.352205
-0.325271
-0.342855
-0.323214
-0.427079
-0.416530
-0.429920
-0.413597
-0.449307
-0.466447
-0.431985
-0.570061
-0.575165
-0.554495
-0.415395
-0.395843
-0.545430
-0.544580
-0.471065
-0.480588
-0.466475
-0.433236
-0.463270
-0.481003
-0.473198
-0.495063
-0.488053
-0.502694
-0.593239
-0.580309
-0.560691
-0.608855
-0.433271
-0.418506
-0.430729
-0.443514
-0.587145
-0.600513
-0.576027
-0.498910
-0.494523
-0.481889
-0.501744
-0.385999
-0.389497
-0.400669
-0.377952
-0.291510
-0.508523
-0.469677
-0.486576
-0.481479
-0.502884
-0.483269
-0.497808
-0.472412
-0.532816
-0.516438
-0.518012
-0.480753
-0.534692
-0.457866
-0.440378
-0.496194
-0.402735
-0.397310
-0.391699
-0.380989
-0.408299
-0.359599
-0.415189
-0.374735
-0.542600
-0.545675
-0.557506
-0.443558
-0.460853
-0.262108
-0.475766
-0.346149
-0.364197
-0.360963
-0.340288
-0.358477
-0.538435
-0.403047
-0.343564
-0.549880
-0.487212
-0.592965
-0.332624
-0.314915