# vtk DataFile Version 2.0
Test
ASCII
DATASET POLYDATA
POINTS 1445 float
0.000000 0.000000 0.000000
1.000000 0.000000 0.000000
1.000000 1.000000 0.000000
0.000000 1.000000 0.000000
0.000000 0.400000 0.000000
1.000000 0.600000 0.000000
0.029412 0.000000 0.000000
0.058824 0.000000 0.000000
0.088235 0.000000 0.000000
0.117647 0.000000 0.000000
0.147059 0.000000 0.000000
0.176471 0.000000 0.000000
0.205882 0.000000 0.000000
0.235294 0.000000 0.000000
0.264706 0.000000 0.000000
0.294118 0.000000 0.000000
0.323529 0.000000 0.000000
0.352941 0.000000 0.000000
0.382353 0.000000 0.000000
0.411765 0.000000 0.000000
0.441176 0.000000 0.000000
0.470588 0.000000 0.000000
0.500000 0.000000 0.000000
0.529412 0.000000 0.000000
0.558824 0.000000 0.000000
0.588235 0.000000 0.000000
0.617647 0.000000 0.000000
0.647059 0.000000 0.000000
0.676471 0.000000 0.000000
0.705882 0.000000 0.000000
0.735294 0.000000 0.000000
0.764706 0.000000 0.000000
0.794118 0.000000 0.000000
0.823529 0.000000 0.000000
0.852941 0.000000 0.000000
0.882353 0.000000 0.000000
0.911765 0.000000 0.000000
0.941176 0.000000 0.000000
0.970588 0.000000 0.000000
1.000000 0.030000 0.000000
1.000000 0.060000 0.000000
1.000000 0.090000 0.000000
1.000000 0.120000 0.000000
1.000000 0.150000 0.000000
1.000000 0.180000 0.000000
1.000000 0.210000 0.000000
1.000000 0.240000 0.000000
1.000000 0.270000 0.000000
1.000000 0.300000 0.000000
1.000000 0.330000 0.000000
1.000000 0.360000 0.000000
1.000000 0.390000 0.000000
1.000000 0.420000 0.000000
1.000000 0.450000 0.000000
1.000000 0.480000 0.000000
1.000000 0.510000 0.000000
1.000000 0.540000 0.000000
1.000000 0.570000 0.000000
1.000000 0.628571 0.000000
1.000000 0.657143 0.000000
1.000000 0.685714 0.000000
1.000000 0.714286 0.000000
1.000000 0.742857 0.000000
1.000000 0.771429 0.000000
1.000000 0.800000 0.000000
1.000000 0.828571 0.000000
1.000000 0.857143 0.000000
1.000000 0.885714 0.000000
1.000000 0.914286 0.000000
1.000000 0.942857 0.000000
1.000000 0.971429 0.000000
0.970588 1.000000 0.000000
0.941176 1.000000 0.000000
0.911765 1.000000 0.000000
0.882353 1.000000 0.000000
0.852941 1.000000 0.000000
0.823529 1.000000 0.000000
0.794118 1.000000 0.000000
0.764706 1.000000 0.000000
0.735294 1.000000 0.000000
0.705882 1.000000 0.000000
0.676471 1.000000 0.000000
0.647059 1.000000 0.000000
0.617647 1.000000 0.000000
0.588235 1.000000 0.000000
0.558824 1.000000 0.000000
0.529412 1.000000 0.000000
0.500000 1.000000 0.000000
0.470588 1.000000 0.000000
0.441176 1.000000 0.000000
0.411765 1.000000 0.000000
0.382353 1.000000 0.000000
0.352941 1.000000 0.000000
0.323529 1.000000 0.000000
0.294118 1.000000 0.000000
0.264706 1.000000 0.000000
0.235294 1.000000 0.000000
0.205882 1.000000 0.000000
0.176471 1.000000 0.000000
0.147059 1.000000 0.000000
0.117647 1.000000 0.000000
0.088235 1.000000 0.000000
0.058824 1.000000 0.000000
0.029412 1.000000 0.000000
0.000000 0.970000 0.000000
0.000000 0.940000 0.000000
0.000000 0.910000 0.000000
0.000000 0.880000 0.000000
0.000000 0.850000 0.000000
0.000000 0.820000 0.000000
0.000000 0.790000 0.000000
0.000000 0.760000 0.000000
0.000000 0.730000 0.000000
0.000000 0.700000 0.000000
0.000000 0.670000 0.000000
0.000000 0.640000 0.000000
0.000000 0.610000 0.000000
0.000000 0.580000 0.000000
0.000000 0.550000 0.000000
0.000000 0.520000 0.000000
0.000000 0.490000 0.000000
0.000000 0.460000 0.000000
0.000000 0.430000 0.000000
0.000000 0.371429 0.000000
0.000000 0.342857 0.000000
0.000000 0.314286 0.000000
0.000000 0.285714 0.000000
0.000000 0.257143 0.000000
0.000000 0.228571 0.000000
0.000000 0.200000 0.000000
0.000000 0.171429 0.000000
0.000000 0.142857 0.000000
0.000000 0.114286 0.000000
0.000000 0.085714 0.000000
0.000000 0.057143 0.000000
0.000000 0.028571 0.000000
0.029412 0.405882 0.000000
0.058824 0.411765 0.000000
0.088235 0.417647 0.000000
0.117647 0.423529 0.000000
0.147059 0.429412 0.000000
0.176471 0.435294 0.000000
0.205882 0.441176 0.000000
0.235294 0.447059 0.000000
0.264706 0.452941 0.000000
0.294118 0.458824 0.000000
0.323529 0.464706 0.000000
0.352941 0.470588 0.000000
0.382353 0.476471 0.000000
0.411765 0.482353 0.000000
0.441176 0.488235 0.000000
0.470588 0.494118 0.000000
0.500000 0.500000 0.000000
0.529412 0.505882 0.000000
0.558824 0.511765 0.000000
0.588235 0.517647 0.000000
0.617647 0.523529 0.000000
0.647059 0.529412 0.000000
0.676471 0.535294 0.000000
0.705882 0.541176 0.000000
0.735294 0.547059 0.000000
0.764706 0.552941 0.000000
0.794118 0.558824 0.000000
0.823529 0.564706 0.000000
0.852941 0.570588 0.000000
0.882353 0.576471 0.000000
0.911765 0.582353 0.000000
0.941176 0.588235 0.000000
0.970588 0.594118 0.000000
0.948492 0.617586 0.000000
0.918239 0.609871 0.000000
0.126115 0.454845 0.000000
0.100318 0.465379 0.000000
0.103006 0.442114 0.000000
0.117916 0.480680 0.000000
0.029145 0.895585 0.000000
0.046774 0.918032 0.000000
0.024990 0.926329 0.000000
0.056315 0.899171 0.000000
0.977770 0.695981 0.000000
0.963577 0.714729 0.000000
0.973827 0.736127 0.000000
0.605253 0.549394 0.000000
0.579370 0.549801 0.000000
0.570019 0.533816 0.000000
0.896809 0.971959 0.000000
0.919426 0.957680 0.000000
0.927686 0.976215 0.000000
0.899487 0.944624 0.000000
0.974081 0.924646 0.000000
0.977161 0.898750 0.000000
0.076578 0.973587 0.000000
0.102577 0.974440 0.000000
0.861693 0.698664 0.000000
0.848870 0.723174 0.000000
0.839521 0.701504 0.000000
0.820447 0.720618 0.000000
0.872237 0.675719 0.000000
0.882611 0.694724 0.000000
0.895344 0.672729 0.000000
0.606326 0.947716 0.000000
0.624868 0.973015 0.000000
0.599776 0.977307 0.000000
0.167986 0.944019 0.000000
0.199183 0.948746 0.000000
0.187884 0.972901 0.000000
0.787752 0.856005 0.000000
0.754801 0.854462 0.000000
0.778588 0.832828 0.000000
0.191471 0.922393 0.000000
0.801312 0.812216 0.000000
0.829867 0.817276 0.000000
0.805526 0.837896 0.000000
0.812775 0.791772 0.000000
0.822869 0.769821 0.000000
0.833826 0.791773 0.000000
0.849982 0.772760 0.000000
0.791421 0.791198 0.000000
0.772962 0.808877 0.000000
0.180049 0.621172 0.000000
0.160680 0.621098 0.000000
0.172158 0.598185 0.000000
0.588124 0.962489 0.000000
0.142171 0.602810 0.000000
0.827587 0.748015 0.000000
0.859778 0.745080 0.000000
0.882413 0.743965 0.000000
0.872759 0.762938 0.000000
0.894601 0.765041 0.000000
0.910115 0.745588 0.000000
0.901004 0.726420 0.000000
0.877058 0.719626 0.000000
0.632694 0.945006 0.000000
0.818411 0.883232 0.000000
0.787667 0.883633 0.000000
0.812018 0.862064 0.000000
0.808649 0.907835 0.000000
0.066636 0.534974 0.000000
0.083909 0.552665 0.000000
0.058224 0.565435 0.000000
0.037551 0.542621 0.000000
0.025720 0.565794 0.000000
0.304619 0.971425 0.000000
0.276072 0.975195 0.000000
0.284125 0.946285 0.000000
0.795087 0.737757 0.000000
0.797357 0.768346 0.000000
0.869843 0.656802 0.000000
0.840870 0.648068 0.000000
0.865462 0.630915 0.000000
0.043233 0.441011 0.000000
0.028792 0.469222 0.000000
0.020751 0.443790 0.000000
0.846918 0.676414 0.000000
0.058991 0.463368 0.000000
0.051906 0.966804 0.000000
0.071758 0.947609 0.000000
0.048298 0.939447 0.000000
0.026398 0.956010 0.000000
0.967109 0.949068 0.000000
0.946807 0.928411 0.000000
0.940173 0.953295 0.000000
0.956764 0.974357 0.000000
0.076722 0.471546 0.000000
0.082324 0.449317 0.000000
0.066669 0.435847 0.000000
0.114035 0.946088 0.000000
0.091278 0.952186 0.000000
0.128453 0.974235 0.000000
0.027019 0.501643 0.000000
0.047138 0.487417 0.000000
0.943388 0.639892 0.000000
0.923239 0.630552 0.000000
0.974491 0.618278 0.000000
0.972785 0.673666 0.000000
0.943930 0.664809 0.000000
0.968693 0.642530 0.000000
0.780685 0.976970 0.000000
0.756289 0.951349 0.000000
0.776857 0.951460 0.000000
0.935276 0.890540 0.000000
0.927168 0.867561 0.000000
0.954227 0.882176 0.000000
0.745760 0.974977 0.000000
0.952002 0.907568 0.000000
0.068063 0.489215 0.000000
0.051512 0.513895 0.000000
0.027757 0.982136 0.000000
0.023217 0.525632 0.000000
0.982410 0.972952 0.000000
0.951072 0.692907 0.000000
0.957020 0.857438 0.000000
0.937630 0.840379 0.000000
0.966912 0.834149 0.000000
0.923427 0.933924 0.000000
0.982257 0.848323 0.000000
0.092881 0.488189 0.000000
0.976737 0.871201 0.000000
0.067960 0.921895 0.000000
0.886538 0.603532 0.000000
0.918896 0.656866 0.000000
0.898227 0.636966 0.000000
0.092880 0.930380 0.000000
0.929071 0.911440 0.000000
0.081137 0.510877 0.000000
0.592772 0.576158 0.000000
0.150419 0.835159 0.000000
0.138607 0.859733 0.000000
0.125762 0.835294 0.000000
0.155304 0.458505 0.000000
0.139466 0.476317 0.000000
0.134858 0.496115 0.000000
0.109061 0.504849 0.000000
0.112238 0.859343 0.000000
0.866826 0.974780 0.000000
0.026919 0.865848 0.000000
0.348411 0.871602 0.000000
0.339654 0.840899 0.000000
0.369544 0.848927 0.000000
0.925986 0.818235 0.000000
0.909684 0.842117 0.000000
0.929360 0.717495 0.000000
0.924028 0.685311 0.000000
0.879688 0.955544 0.000000
0.875200 0.929284 0.000000
0.903901 0.918287 0.000000
0.950764 0.819790 0.000000
0.047492 0.878635 0.000000
0.069665 0.880314 0.000000
0.081712 0.904992 0.000000
0.573454 0.980624 0.000000
0.556694 0.550113 0.000000
0.094318 0.530060 0.000000
0.563246 0.571677 0.000000
0.563825 0.961795 0.000000
0.155902 0.972929 0.000000
0.577162 0.940912 0.000000
0.545227 0.533787 0.000000
0.864670 0.884377 0.000000
0.860690 0.911575 0.000000
0.840756 0.895862 0.000000
0.137227 0.926016 0.000000
0.139814 0.950758 0.000000
0.109156 0.913646 0.000000
0.884976 0.899786 0.000000
0.910807 0.890052 0.000000
0.830819 0.844574 0.000000
0.157710 0.484545 0.000000
0.180718 0.468069 0.000000
0.154331 0.510861 0.000000
0.124262 0.522394 0.000000
0.341085 0.732964 0.000000
0.323736 0.758404 0.000000
0.312899 0.730066 0.000000
0.857321 0.949854 0.000000
0.839840 0.975483 0.000000
0.053549 0.857833 0.000000
0.031143 0.832960 0.000000
0.840338 0.925315 0.000000
0.300796 0.756054 0.000000
0.080783 0.856286 0.000000
0.096939 0.884378 0.000000
0.544800 0.977874 0.000000
0.949430 0.731579 0.000000
0.955247 0.752582 0.000000
0.934712 0.748859 0.000000
0.030153 0.591093 0.000000
[...]
POINT_DATA 1445
SCALARS UX float 1
LOOKUP_TABLE default
-0.304714
-0.000000
0.000000
-0.304714
-0.304714
0.000000
-0.295752
-0.286789
-0.277827
-0.268865
-0.259903
-0.250941
-0.241979
-0.233016
-0.224054
-0.215092
-0.206130
-0.197168
-0.188206
-0.179243
-0.170281
-0.161319
-0.152357
-0.143395
-0.134433
-0.125470
-0.116508
-0.107546
-0.098584
-0.089622
-0.080660
-0.071697
-0.062735
-0.053773
-0.044811
-0.035849
-0.026887
-0.017924
-0.008962
-0.000000
-0.000000
-0.000000
-0.000000
-0.000000
-0.000000
-0.000000
-0.000000
-0.000000
-0.000000
-0.000000
-0.000000
-0.000000
-0.000000
-0.000000
-0.000000
-0.000000
0.000000
0.000000
-0.000000
-0.000000
0.000000
-0.000000
-0.000000
-0.000000
-0.000000
0.000000
-0.000000
0.000000
-0.000000
0.000000
-0.000000
-0.008962
-0.017924
-0.026887
-0.035849
-0.044811
-0.053773
-0.062735
-0.071697
-0.080660
-0.089622
-0.098584
-0.107546
-0.116508
-0.125470
-0.134433
-0.143395
-0.152357
-0.161319
-0.170281
-0.179243
-0.188206
-0.197168
-0.206130
-0.215092
-0.224054
-0.233016
-0.241979
-0.250941
-0.259903
-0.268865
-0.277827
-0.286789
-0.295752
-0.304714
-0.304714
-0.304714
-0.304714
-0.304714
-0.304714
-0.304714
-0.304714
-0.304714
-0.304714
-0.304714
-0.304714
-0.304714
-0.304714
-0.304714
-0.304714
-0.304714
-0.304714
-0.304714
-0.304714
-0.304714
-0.304714
-0.304714
-0.304714
-0.304714
-0.304714
-0.304714
-0.304714
-0.304714
-0.304714
-0.304714
-0.304714
-0.295752
-0.286789
-0.277827
-0.268865
-0.259903
-0.250941
-0.241979
-0.233016
-0.224054
-0.215092
-0.206130
-0.197168
-0.188206
-0.179243
-0.170281
-0.161319
-0.152357
-0.143395
-0.134433
-0.125470
-0.116508
-0.107546
-0.098584
-0.089622
-0.080660
-0.071697
-0.062735
-0.053773
-0.044811
-0.035849
-0.026887
-0.017924
-0.008962
-0.015695
-0.024914
-0.266285
-0.274145
-0.273326
-0.268783
-0.295833
-0.290461
-0.297099
-0.287554
-0.006774
-0.011099
-0.007975
-0.120285
-0.128172
-0.131021
-0.031444
-0.024552
-0.022035
-0.030628
-0.007898
-0.006959
-0.281379
-0.273457
-0.042144
-0.046051
-0.048900
-0.054712
-0.038931
-0.035770
-0.031890
-0.119958
-0.114308
-0.121954
-0.253526
-0.244020
-0.247463
-0.064675
-0.074716
-0.067467
-0.246370
-0.060543
-0.051842
-0.059259
-0.057050
-0.053974
-0.050635
-0.045712
-0.063557
-0.069182
-0.249850
-0.255752
-0.252255
-0.125504
-0.261392
-0.052537
-0.042728
-0.035831
-0.038772
-0.032117
-0.027389
-0.030165
-0.037462
-0.111923
-0.055333
-0.064701
-0.057281
-0.058307
-0.284409
-0.279146
-0.286972
-0.293271
-0.296877
-0.211892
-0.220591
-0.218137
-0.062440
-0.061748
-0.039661
-0.048489
-0.040996
-0.291540
-0.295940
-0.298391
-0.046646
-0.286738
-0.288897
-0.282848
-0.289997
-0.296670
-0.010022
-0.016209
-0.018230
-0.013175
-0.281336
-0.279629
-0.284399
-0.269966
-0.276900
-0.265572
-0.296481
-0.290350
-0.017251
-0.023390
-0.007773
-0.008293
-0.017085
-0.009540
-0.066828
-0.074262
-0.067995
-0.019722
-0.022193
-0.013948
-0.077471
-0.014626
-0.283974
-0.289017
-0.296256
-0.297639
-0.005360
-0.014909
-0.013096
-0.019005
-0.010082
-0.023333
-0.005407
-0.276412
-0.007089
-0.284006
-0.034573
-0.024713
-0.031012
-0.276412
-0.021613
-0.279990
-0.124088
-0.258879
-0.262478
-0.266392
-0.257391
-0.262217
-0.263621
-0.271481
-0.270513
-0.040580
-0.296511
-0.198548
-0.201216
-0.192109
-0.022553
-0.027520
-0.021525
-0.023150
-0.036661
-0.038028
-0.029283
-0.015003
-0.290242
-0.283486
-0.279815
-0.129974
-0.135081
-0.275974
-0.133085
-0.132909
-0.257208
-0.128845
-0.138576
-0.041237
-0.042450
-0.048524
-0.262899
-0.262110
-0.271453
-0.035049
-0.027178
-0.051552
-0.256657
-0.249646
-0.257687
-0.266850
-0.200780
-0.206067
-0.209369
-0.043476
-0.048803
-0.288397
-0.295224
-0.048651
-0.213057
-0.280098
-0.275175
-0.138706
-0.015409
-0.013637
-0.019894
-0.295526
-0.276892
-0.271207
-0.024804
-0.159966
-0.159181
-0.168795
-0.166320
-0.255897
-0.264440
-0.064314
-0.070872
-0.248897
-0.239549
-0.249677
-0.261127
-0.007983
-0.016470
-0.008024
-0.284818
-0.297852
-0.275032
-0.032546
-0.223305
-0.229502
-0.225145
-0.285857
-0.294022
-0.232233
-0.266483
-0.270987
-0.215211
-0.222165
-0.214299
-0.197441
-0.203153
-0.205554
-0.196201
-0.236795
-0.213006
-0.207589
-0.247872
-0.209201
-0.212548
-0.217074
-0.222309
-0.240467
-0.202555
-0.197898
-0.269876
-0.268029
-0.277022
-0.244583
-0.254662
-0.231949
-0.216965
-0.212814
-0.205018
-0.221001
-0.225664
-0.283331
-0.230133
-0.296666
-0.035431
-0.040688
-0.043544
-0.217403
-0.209256
-0.203908
-0.227048
-0.219613
-0.230973
-0.221546
-0.212312
-0.231189
-0.024046
-0.224023
-0.030576
-0.224859
-0.231253
-0.224498
-0.230768
-0.222153
-0.235821
-0.223221
-0.230337
-0.235987
-0.208020
-0.206851
-0.216832
-0.199640
-0.200230
-0.295828
-0.289682
-0.286948
-0.282360
-0.248302
-0.239517
-0.240813
-0.213833
-0.225111
-0.221388
-0.246058
-0.243019
-0.229081
-0.237555
-0.266976
-0.274133
-0.276139
-0.277450
-0.257536
-0.257146
-0.249065
-0.257357
-0.262553
-0.262691
-0.227438
-0.235946
-0.231627
-0.228837
-0.248373
-0.253163
-0.255981
-0.291494
-0.209708
-0.200504
-0.203464
-0.238756
-0.229227
-0.234209
-0.289104
-0.268037
-0.274732
-0.269203
-0.278386
-0.230927
-0.194536
-0.071910
-0.070770
-0.080223
-0.281690
-0.283971
-0.078271
-0.007706
-0.244488
-0.249739
-0.239759
-0.016601
-0.253607
-0.191508
-0.194821
-0.275522
-0.289531
-0.058191
-0.067206
-0.060115
-0.065136
-0.247118
-0.204764
-0.244738
-0.081854
-0.072453
-0.079369
-0.184434
-0.181387
-0.296983
-0.188654
-0.105781
-0.103800
-0.114694
-0.112777
-0.239689
-0.048165
-0.277255
-0.235856
-0.256206
-0.037385
-0.060842
-0.240496
-0.209158
-0.209992
-0.203072
-0.042899
-0.122638
-0.131075
-0.129084
-0.120774
-0.075556
-0.070673
-0.080874
-0.074966
-0.138084
-0.295644
-0.139385
-0.195701
-0.186653
-0.261570
-0.086548
-0.084829
-0.253488
-0.199825
-0.076430
-0.097284
-0.095222
-0.178697
-0.184093
-0.174694
-0.240650
-0.043857
-0.135534
-0.141029
-0.134543
-0.137830
-0.143763
-0.119387
-0.127797
-0.121616
-0.125747
-0.128798
-0.111530
-0.112908
-0.116723
-0.216803
-0.223821
-0.088491
-0.094427
-0.094040
-0.088524
-0.082913
-0.069656
-0.102531
-0.103964
-0.107713
-0.098945
-0.033274
-0.029994
-0.050071
-0.056173
-0.187004
-0.196980
-0.189511
-0.194046
-0.193853
-0.190229
-0.069977
-0.077385
-0.068728
-0.079166
-0.086393
-0.084951
-0.182276
-0.184450
-0.083897
-0.086120
-0.081360
-0.075926
-0.084655
-0.088438
-0.093802
-0.069911
-0.052232
-0.174462
-0.171682
-0.178907
-0.173528
-0.164383
-0.168488
-0.077578
-0.086746
-0.205711
-0.091279
-0.089249
-0.177032
-0.219882
-0.213159
-0.190985
-0.177293
-0.183539
-0.055627
-0.177577
-0.180005
-0.184405
-0.095627
-0.093558
-0.172903
-0.174987
-0.102534
-0.097518
-0.102782
-0.154045
-0.162251
-0.154634
-0.160557
-0.096066
-0.093419
-0.147927
-0.145870
-0.154634
-0.086575
-0.090183
-0.168363
-0.170742
-0.175132
-0.167758
-0.169637
-0.181762
-0.057376
-0.106495
-0.111778
-0.163709
-0.165813
-0.296528
-0.286705
-0.268598
-0.269711
-0.159249
-0.161549
-0.166023
-0.061316
-0.260625
-0.150168
-0.152489
-0.293512
-0.156916
-0.172676
-0.111529
-0.104848
-0.064310
-0.154601
-0.264028
-0.156700
-0.141105
-0.143345
-0.100417
-0.098293
-0.213654
-0.145536
-0.147646
-0.052801
-0.163640
-0.165033
-0.136470
-0.138636
-0.134293
-0.127427
-0.129585
-0.205763
-0.115500
-0.120795
-0.105110
-0.102955
-0.242503
-0.272321
-0.120549
-0.113851
-0.100851
-0.091823
-0.095563
-0.125262
-0.118403
-0.117161
-0.126178
-0.283936
-0.213914
-0.135185
-0.129825
-0.149691
-0.144270
-0.153045
-0.147880
-0.108162
-0.113529
-0.114089
-0.123082
-0.116248
-0.109400
-0.261393
-0.099174
-0.107267
-0.063020
-0.236477
-0.147611
-0.146890
-0.104542
-0.132059
-0.138868
-0.124522
-0.152329
-0.151826
-0.158909
-0.149910
-0.298031
-0.138203
-0.193322
-0.189150
-0.108921
-0.082801
-0.122875
-0.074088
-0.133553
-0.131908
-0.142583
-0.140924
-0.151187
-0.172450
-0.179506
-0.176759
-0.116111
-0.152425
-0.145415
-0.150720
-0.159134
-0.160354
-0.156939
-0.158194
-0.090694
-0.244910
-0.238397
-0.093287
-0.190765
-0.186407
-0.173048
-0.168571
-0.167138
-0.098261
-0.178308
-0.249387
-0.163175
-0.056972
-0.103061
-0.184624
-0.182837
-0.145340
-0.142184
-0.188278
-0.157169
-0.107959
-0.192889
-0.165513
-0.198739
-0.255396
-0.289018
-0.279800
-0.038429
-0.030568
-0.031387
-0.035931
-0.008881
-0.014253
-0.007615
-0.017160
-0.297940
-0.293615
-0.296739
-0.184429
-0.176542
-0.173693
-0.273270
-0.280162
-0.282679
-0.274086
-0.296816
-0.297754
-0.023334
-0.031257
-0.262570
-0.258662
-0.255814
-0.250001
-0.265783
-0.268944
-0.272824
-0.184756
-0.190406
-0.182760
-0.051188
-0.060694
-0.057251
-0.240039
-0.229998
-0.237247
-0.058344
-0.244171
-0.252872
-0.245455
-0.247664
-0.250740
-0.254078
-0.259001
-0.241157
-0.235532
-0.054863
-0.048961
-0.052459
-0.179210
-0.043321
-0.252177
-0.261986
-0.268883
-0.265942
-0.272597
-0.277325
-0.274548
-0.267252
-0.192791
-0.249381
-0.240013
-0.247433
-0.246407
-0.020305
-0.025568
-0.017742
-0.011442
-0.007837
-0.092822
-0.084123
-0.086577
-0.242274
-0.242966
-0.265053
-0.256225
-0.263718
-0.013174
-0.008773
-0.006323
-0.258068
-0.017976
-0.015816
-0.021866
-0.014717
-0.008044
-0.294691
-0.288505
-0.286484
-0.291539
-0.023378
-0.025085
-0.020315
-0.034748
-0.027814
-0.039141
-0.008233
-0.014364
-0.287463
-0.281324
-0.296941
-0.296421
-0.287628
-0.295174
-0.237886
-0.230452
-0.236719
-0.284992
-0.282521
-0.290766
-0.227243
-0.290088
-0.020740
-0.015697
-0.008458
-0.007074
-0.299354
-0.289805
-0.291617
-0.285709
-0.294632
-0.281381
-0.299307
-0.028302
-0.297625
-0.020708
-0.270140
-0.280000
-0.273702
-0.028302
-0.283101
-0.024723
-0.180626
-0.045835
-0.042235
-0.038321
-0.047323
-0.042497
-0.041093
-0.033232
-0.034200
-0.264134
-0.008202
-0.106166
-0.103497
-0.112605
-0.282161
-0.277193
-0.283189
-0.281564
-0.268053
-0.266686
-0.275431
-0.289711
-0.014471
-0.021228
-0.024899
-0.174739
-0.169632
-0.028740
-0.171629
-0.171805
-0.047506
-0.175869
-0.166138
-0.263477
-0.262264
-0.256190
-0.041815
-0.042603
-0.033261
-0.269664
-0.277535
-0.253162
-0.048056
-0.055067
-0.047027
-0.037864
-0.103933
-0.098647
-0.095345
-0.261237
-0.255911
-0.016317
-0.009490
-0.256063
-0.091657
-0.024616
-0.029539
-0.166008
-0.289305
-0.291077
-0.284820
-0.009188
-0.027822
-0.033507
-0.279910
-0.144747
-0.145533
-0.135919
-0.138394
-0.048816
-0.040274
-0.240400
-0.233842
-0.055817
-0.065165
-0.055037
-0.043587
-0.296731
-0.288244
-0.296690
-0.019895
-0.006862
-0.029682
-0.272168
-0.081409
-0.075212
-0.079569
-0.018857
-0.010692
-0.072481
-0.038231
-0.033727
-0.089503
-0.082549
-0.090415
-0.107273
-0.101561
-0.099160
-0.108513
-0.067919
-0.091708
-0.097125
-0.056842
-0.095512
-0.092166
-0.087640
-0.082404
-0.064247
-0.102159
-0.106815
-0.034838
-0.036685
-0.027691
-0.060131
-0.050052
-0.072765
-0.087749
-0.091900
-0.099695
-0.083712
-0.079050
-0.021382
-0.074581
-0.008048
-0.269283
-0.264026
-0.261170
-0.087311
-0.095458
-0.100806
-0.077666
-0.085101
-0.073741
-0.083168
-0.092402
-0.073525
-0.280668
-0.080691
-0.274138
-0.079855
-0.073461
-0.080216
-0.073946
-0.082561
-0.068892
-0.081493
-0.074377
-0.068727
-0.096694
-0.097863
-0.087882
-0.105073
-0.104484
-0.008886
-0.015032
-0.017766
-0.022354
-0.056412
-0.065197
-0.063901
-0.090881
-0.079603
-0.083326
-0.058656
-0.061695
-0.075633
-0.067159
-0.037738
-0.030581
-0.028574
-0.027264
-0.047178
-0.047568
-0.055649
-0.047357
-0.042160
-0.042023
-0.077276
-0.068768
-0.073086
-0.075877
-0.056341
-0.051551
-0.048733
-0.013220
-0.095005
-0.104210
-0.101250
-0.065958
-0.075487
-0.070505
-0.015610
-0.036677
-0.029982
-0.035510
-0.026327
-0.073787
-0.110178
-0.232803
-0.233944
-0.224491
-0.023024
-0.020743
-0.226443
-0.297008
-0.060226
-0.054975
-0.064955
-0.288113
-0.051106
-0.113206
-0.109892
-0.029191
-0.015183
-0.246523
-0.237508
-0.244599
-0.239577
-0.057596
-0.099950
-0.059976
-0.222860
-0.232261
-0.225345
-0.120279
-0.123326
-0.007731
-0.116060
-0.198933
-0.200914
-0.190020
-0.191937
-0.065025
-0.256549
-0.027458
-0.068858
-0.048507
-0.267329
-0.243872
-0.064218
-0.095556
-0.094722
-0.101642
-0.261815
-0.182076
-0.173639
-0.175630
-0.183940
-0.229158
-0.234041
-0.223840
-0.229747
-0.166630
-0.009069
-0.165329
-0.109013
-0.118061
-0.043143
-0.218166
-0.219885
-0.051226
-0.104889
-0.228284
-0.207430
-0.209492
-0.126017
-0.120621
-0.130020
-0.064063
-0.260857
-0.169179
-0.163685
-0.170171
-0.166884
-0.160950
-0.185327
-0.176917
-0.183098
-0.178967
-0.175916
-0.193184
-0.191806
-0.187991
-0.087911
-0.080893
-0.216223
-0.210287
-0.210674
-0.216190
-0.221801
-0.235058
-0.202183
-0.200750
-0.197000
-0.205769
-0.271440
-0.274720
-0.254643
-0.248541
-0.117709
-0.107734
-0.115203
-0.110667
-0.110861
-0.114485
-0.234737
-0.227328
-0.235986
-0.225548
-0.218321
-0.219763
-0.122438
-0.120264
-0.220817
-0.218594
-0.223354
-0.228788
-0.220059
-0.216276
-0.210912
-0.234803
-0.252482
-0.130252
-0.133032
-0.125807
-0.131186
-0.140331
-0.136225
-0.227135
-0.217968
-0.099003
-0.213435
-0.215465
-0.127681
-0.084832
-0.091555
-0.113729
-0.127421
-0.121175
-0.249087
-0.127136
-0.124709
-0.120309
-0.209087
-0.211156
-0.131811
-0.129726
-0.202180
-0.207195
-0.201932
-0.150668
-0.142463
-0.150080
-0.144156
-0.208648
-0.211295
-0.156787
-0.158844
-0.150080
-0.218139
-0.214531
-0.136351
-0.133971
-0.129581
-0.136956
-0.135077
-0.122952
-0.247338
-0.198219
-0.192936
-0.141004
-0.138901
-0.008186
-0.018009
-0.036116
-0.035003
-0.145465
-0.143165
-0.138690
-0.243398
-0.044089
-0.154546
-0.152225
-0.011201
-0.147797
-0.132037
-0.193185
-0.199866
-0.240403
-0.150113
-0.040686
-0.148014
-0.163609
-0.161369
-0.204296
-0.206421
-0.091060
-0.159178
-0.157068
-0.251912
-0.141074
-0.139681
-0.168243
-0.166077
-0.170420
-0.177286
-0.175129
-0.098951
-0.189213
-0.183919
-0.199604
-0.201759
-0.062211
-0.032393
-0.184165
-0.190862
-0.203863
-0.212891
-0.209151
-0.179452
-0.186311
-0.187553
-0.178536
-0.020778
-0.090800
-0.169529
-0.174888
-0.155023
-0.160444
-0.151669
-0.156834
-0.196552
-0.191185
-0.190625
-0.181631
-0.188466
-0.195314
-0.043320
-0.205540
-0.197447
-0.241694
-0.068237
-0.157102
-0.157824
-0.200172
-0.172655
-0.165846
-0.180192
-0.152384
-0.152887
-0.145805
-0.154804
-0.006683
-0.166511
-0.111392
-0.115564
-0.195793
-0.221913
-0.181839
-0.230626
-0.171161
-0.172806
-0.162131
-0.163790
-0.153527
-0.132264
-0.125207
-0.127955
-0.188603
-0.152288
-0.159299
-0.153994
-0.145580
-0.144360
-0.147775
-0.146520
-0.214019
-0.059803
-0.066317
-0.211427
-0.113949
-0.118307
-0.131666
-0.136143
-0.137575
-0.206453
-0.126406
-0.055326
-0.141539
-0.247742
-0.201653
-0.120090
-0.121877
-0.159374
-0.162530
-0.116436
-0.147545
-0.196755
-0.111825
-0.139201
-0.105975
-0.049318
SCALARS UY float 1
LOOKUP_TABLE default
-0.000001
-0.000001
-0.710999
-0.710999
-0.284400
-0.426600
-0.000001
-0.000001
-0.000001
-0.000001
-0.000001
-0.000001
-0.000001
-0.000001
-0.000001
-0.000001
-0.000001
-0.000001
-0.000001
-0.000001
-0.000001
-0.000001
-0.000001
-0.000001
-0.000001
-0.000001
-0.000001
-0.000001
-0.000001
-0.000001
-0.000001
-0.000001
-0.000001
-0.000001
-0.000001
-0.000001
-0.000001
-0.000001
-0.000001
-0.021331
-0.042660
-0.063990
-0.085320
-0.106650
-0.127980
-0.149310
-0.170640
-0.191970
-0.213300
-0.234630
-0.255960
-0.277290
-0.298620
-0.319950
-0.341280
-0.362610
-0.383940
-0.405270
-0.446914
-0.467228
-0.487543
-0.507857
-0.528171
-0.548485
-0.568800
-0.589114
-0.609428
-0.629742
-0.650057
-0.670371
-0.690685
-0.710999
-0.710999
-0.710999
-0.710999
-0.710999
-0.710999
-0.710999
-0.710999
-0.710999
-0.710999
-0.710999
-0.710999
-0.710999
-0.710999
-0.710999
-0.710999
-0.710999
-0.710999
-0.710999
-0.710999
-0.710999
-0.710999
-0.710999
-0.710999
-0.710999
-0.710999
-0.710999
-0.710999
-0.710999
-0.710999
-0.710999
-0.710999
-0.710999
-0.689669
-0.668340
-0.647010
-0.625680
-0.604350
-0.583020
-0.561690
-0.540360
-0.519030
-0.497700
-0.476370
-0.455040
-0.433710
-0.412380
-0.391050
-0.369720
-0.348390
-0.327060
-0.305730
-0.264086
-0.243772
-0.223457
-0.203143
-0.182829
-0.162515
-0.142200
-0.121886
-0.101572
-0.081258
-0.060943
-0.040629
-0.020315
-0.288582
-0.292765
-0.296947
-0.301129
-0.305312
-0.309494
-0.313677
-0.317859
-0.322041
-0.326224
-0.330406
-0.334588
-0.338771
-0.342953
-0.347135
-0.351318
-0.355500
-0.359682
-0.363865
-0.368047
-0.372229
-0.376412
-0.380594
-0.384776
-0.388959
-0.393141
-0.397323
-0.401506
-0.405688
-0.409871
-0.414053
-0.418235
-0.422418
-0.439104
-0.433618
-0.323395
-0.330884
-0.314343
-0.341764
-0.636760
-0.652720
-0.658620
-0.639310
-0.494842
-0.508172
-0.523386
-0.390619
-0.390908
-0.379543
-0.691063
-0.680910
-0.694089
-0.671627
-0.657423
-0.639011
-0.692220
-0.692827
-0.496750
-0.514177
-0.498769
-0.512359
-0.480436
-0.493949
-0.478310
-0.673826
-0.691813
-0.694865
-0.671197
-0.674558
-0.691732
-0.608619
-0.607522
-0.592140
-0.655821
-0.577485
-0.581083
-0.595744
-0.562949
-0.547342
-0.562950
-0.549432
-0.562542
-0.575111
-0.441653
-0.441601
-0.425310
-0.684329
-0.428598
-0.531838
-0.529751
-0.528959
-0.542449
-0.543944
-0.530113
-0.516484
-0.511654
-0.671899
-0.627977
-0.628263
-0.612927
-0.645470
-0.380366
-0.392945
-0.402024
-0.385804
-0.402279
-0.690683
-0.693363
-0.672808
-0.524545
-0.546294
-0.466986
-0.460776
-0.448580
-0.313559
-0.333617
-0.315535
-0.480930
-0.329455
-0.687397
-0.673749
-0.667946
-0.679723
-0.674787
-0.660100
-0.677792
-0.692767
-0.335269
-0.319464
-0.309887
-0.672668
-0.677003
-0.692680
-0.356668
-0.346554
-0.454963
-0.448322
-0.439596
-0.478976
-0.472679
-0.456838
-0.694625
-0.676408
-0.676488
-0.633174
-0.616836
-0.627227
-0.693208
-0.645280
-0.347832
-0.365379
-0.698298
-0.373724
-0.691768
-0.492657
-0.609638
-0.597509
-0.593080
-0.664019
-0.603157
-0.347103
-0.619423
-0.655467
-0.429111
-0.467031
-0.452882
-0.661500
-0.648033
-0.363234
-0.409648
-0.593798
-0.611270
-0.593894
-0.325997
-0.338661
-0.352738
-0.358948
-0.610993
-0.693068
-0.615617
-0.619709
-0.597879
-0.603587
-0.581765
-0.598744
-0.510139
-0.487256
-0.679391
-0.660720
-0.652902
-0.582870
-0.624709
-0.625903
-0.643449
-0.697223
-0.391130
-0.376873
-0.406463
-0.683836
-0.691752
-0.668988
-0.379523
-0.628791
-0.648129
-0.636958
-0.658397
-0.675989
-0.649602
-0.639747
-0.632826
-0.600492
-0.344511
-0.332797
-0.363222
-0.371422
-0.521137
-0.539225
-0.519077
-0.675346
-0.693568
-0.609919
-0.592234
-0.657899
-0.537554
-0.608819
-0.628792
-0.695268
-0.520153
-0.535085
-0.532438
-0.420267
-0.412130
-0.390858
-0.548714
-0.371425
-0.391248
-0.386903
-0.366579
-0.648114
-0.632810
-0.659578
-0.662342
-0.353278
-0.338227
-0.378208
-0.385895
-0.576189
-0.567533
-0.559713
-0.592232
-0.573882
-0.590720
-0.617491
-0.392892
-0.389675
-0.377793
-0.426895
-0.444315
-0.373985
-0.407322
-0.428111
-0.395471
-0.411657
-0.417555
-0.442329
-0.456843
-0.439671
-0.465463
-0.689627
-0.437803
-0.423012
-0.632391
-0.556918
-0.577419
-0.555314
-0.574946
-0.362790
-0.554691
-0.539458
-0.500724
-0.521150
-0.514253
-0.396557
-0.404800
-0.352210
-0.517527
-0.503341
-0.500640
-0.534175
-0.514445
-0.449764
-0.533073
-0.466965
-0.600882
-0.613954
-0.594949
-0.595598
-0.596437
-0.577307
-0.432264
-0.429722
-0.410348
-0.449330
-0.459302
-0.452647
-0.564532
-0.360363
-0.559350
-0.551150
-0.584467
-0.594463
-0.604916
-0.612775
-0.474737
-0.474332
-0.493576
-0.513152
-0.381240
-0.403249
-0.372412
-0.392544
-0.370057
-0.488974
-0.476897
-0.492228
-0.473539
-0.514424
-0.534048
-0.494592
-0.652678
-0.658522
-0.634857
-0.475598
-0.453212
-0.624478
-0.623504
-0.539336
-0.550238
-0.534080
-0.496023
-0.530411
-0.550713
-0.541777
-0.566811
-0.558785
-0.575548
-0.679216
-0.664412
-0.641951
-0.697094
-0.496063
-0.479159
-0.493153
-0.507792
-0.672239
-0.687544
-0.659509
-0.571216
-0.566193
-0.551728
-0.574460
-0.441941
-0.445945
-0.458737
-0.432728
-0.333758
-0.582222
-0.537746
-0.557094
-0.551258
-0.575765
-0.553308
-0.569954
-0.540878
-0.610035
-0.591284
-0.593086
-0.550427
-0.612184
-0.524223
-0.504201
-0.568107
-0.461103
-0.454891
-0.448467
-0.436205
-0.467473
-0.411714
-0.475361
-0.429045
-0.621238
-0.624758
-0.638304
-0.507842
-0.527643
-0.300095
-0.544717
-0.396316
-0.416979
-0.413277
-0.389605
-0.410430
-0.616469
-0.461459
-0.393356
-0.629573
-0.557823
-0.678901
-0.380831
-0.360554