# vtk DataFile Version 2.0
Test
ASCII
DATASET POLYDATA
POINTS 1445 float
0.000000 0.000000 0.000000
1.000000 0.000000 0.000000
1.000000 1.000000 0.000000
0.000000 1.000000 0.000000
0.000000 0.400000 0.000000
1.000000 0.600000 0.000000
0.029412 0.000000 0.000000
0.058824 0.000000 0.000000
0.088235 0.000000 0.000000
0.117647 0.000000 0.000000
0.147059 0.000000 0.000000
0.176471 0.000000 0.000000
0.205882 0.000000 0.000000
0.235294 0.000000 0.000000
0.264706 0.000000 0.000000
0.294118 0.000000 0.000000
0.323529 0.000000 0.000000
0.352941 0.000000 0.000000
0.382353 0.000000 0.000000
0.411765 0.000000 0.000000
0.441176 0.000000 0.000000
0.470588 0.000000 0.000000
0.500000 0.000000 0.000000
0.529412 0.000000 0.000000
0.558824 0.000000 0.000000
0.588235 0.000000 0.000000
0.617647 0.000000 0.000000
0.647059 0.000000 0.000000
0.676471 0.000000 0.000000
0.705882 0.000000 0.000000
0.735294 0.000000 0.000000
0.764706 0.000000 0.000000
0.794118 0.000000 0.000000
0.823529 0.000000 0.000000
0.852941 0.000000 0.000000
0.882353 0.000000 0.000000
0.911765 0.000000 0.000000
0.941176 0.000000 0.000000
0.970588 0.000000 0.000000
1.000000 0.030000 0.000000
1.000000 0.060000 0.000000
1.000000 0.090000 0.000000
1.000000 0.120000 0.000000
1.000000 0.150000 0.000000
1.000000 0.180000 0.000000
1.000000 0.210000 0.000000
1.000000 0.240000 0.000000
1.000000 0.270000 0.000000
1.000000 0.300000 0.000000
1.000000 0.330000 0.000000
1.000000 0.360000 0.000000
1.000000 0.390000 0.000000
1.000000 0.420000 0.000000
1.000000 0.450000 0.000000
1.000000 0.480000 0.000000
1.000000 0.510000 0.000000
1.000000 0.540000 0.000000
1.000000 0.570000 0.000000
1.000000 0.628571 0.000000
1.000000 0.657143 0.000000
1.000000 0.685714 0.000000
1.000000 0.714286 0.000000
1.000000 0.742857 0.000000
1.000000 0.771429 0.000000
1.000000 0.800000 0.000000
1.000000 0.828571 0.000000
1.000000 0.857143 0.000000
1.000000 0.885714 0.000000
1.000000 0.914286 0.000000
1.000000 0.942857 0.000000
1.000000 0.971429 0.000000
0.970588 1.000000 0.000000
0.941176 1.000000 0.000000
0.911765 1.000000 0.000000
0.882353 1.000000 0.000000
0.852941 1.000000 0.000000
0.823529 1.000000 0.000000
0.794118 1.000000 0.000000
0.764706 1.000000 0.000000
0.735294 1.000000 0.000000
0.705882 1.000000 0.000000
0.676471 1.000000 0.000000
0.647059 1.000000 0.000000
0.617647 1.000000 0.000000
0.588235 1.000000 0.000000
0.558824 1.000000 0.000000
0.529412 1.000000 0.000000
0.500000 1.000000 0.000000
0.470588 1.000000 0.000000
0.441176 1.000000 0.000000
0.411765 1.000000 0.000000
0.382353 1.000000 0.000000
0.352941 1.000000 0.000000
0.323529 1.000000 0.000000
0.294118 1.000000 0.000000
0.264706 1.000000 0.000000
0.235294 1.000000 0.000000
0.205882 1.000000 0.000000
0.176471 1.000000 0.000000
0.147059 1.000000 0.000000
0.117647 1.000000 0.000000
0.088235 1.000000 0.000000
0.058824 1.000000 0.000000
0.029412 1.000000 0.000000
0.000000 0.970000 0.000000
0.000000 0.940000 0.000000
0.000000 0.910000 0.000000
0.000000 0.880000 0.000000
0.000000 0.850000 0.000000
0.000000 0.820000 0.000000
0.000000 0.790000 0.000000
0.000000 0.760000 0.000000
0.000000 0.730000 0.000000
0.000000 0.700000 0.000000
0.000000 0.670000 0.000000
0.000000 0.640000 0.000000
0.000000 0.610000 0.000000
0.000000 0.580000 0.000000
0.000000 0.550000 0.000000
0.000000 0.520000 0.000000
0.000000 0.490000 0.000000
0.000000 0.460000 0.000000
0.000000 0.430000 0.000000
0.000000 0.371429 0.000000
0.000000 0.342857 0.000000
0.000000 0.314286 0.000000
0.000000 0.285714 0.000000
0.000000 0.257143 0.000000
0.000000 0.228571 0.000000
0.000000 0.200000 0.000000
0.000000 0.171429 0.000000
0.000000 0.142857 0.000000
0.000000 0.114286 0.000000
0.000000 0.085714 0.000000
0.000000 0.057143 0.000000
0.000000 0.028571 0.000000
0.029412 0.405882 0.000000
0.058824 0.411765 0.000000
0.088235 0.417647 0.000000
0.117647 0.423529 0.000000
0.147059 0.429412 0.000000
0.176471 0.435294 0.000000
0.205882 0.441176 0.000000
0.235294 0.447059 0.000000
0.264706 0.452941 0.000000
0.294118 0.458824 0.000000
0.323529 0.464706 0.000000
0.352941 0.470588 0.000000
0.382353 0.476471 0.000000
0.411765 0.482353 0.000000
0.441176 0.488235 0.000000
0.470588 0.494118 0.000000
0.500000 0.500000 0.000000
0.529412 0.505882 0.000000
0.558824 0.511765 0.000000
0.588235 0.517647 0.000000
0.617647 0.523529 0.000000
0.647059 0.529412 0.000000
0.676471 0.535294 0.000000
0.705882 0.541176 0.000000
0.735294 0.547059 0.000000
0.764706 0.552941 0.000000
0.794118 0.558824 0.000000
0.823529 0.564706 0.000000
0.852941 0.570588 0.000000
0.882353 0.576471 0.000000
0.911765 0.582353 0.000000
0.941176 0.588235 0.000000
0.970588 0.594118 0.000000
0.948492 0.617586 0.000000
0.918239 0.609871 0.000000
0.126115 0.454845 0.000000
0.100318 0.465379 0.000000
0.103006 0.442114 0.000000
0.117916 0.480680 0.000000
0.029145 0.895585 0.000000
0.046774 0.918032 0.000000
0.024990 0.926329 0.000000
0.056315 0.899171 0.000000
0.977770 0.695981 0.000000
0.963577 0.714729 0.000000
0.973827 0.736127 0.000000
0.605253 0.549394 0.000000
0.579370 0.549801 0.000000
0.570019 0.533816 0.000000
0.896809 0.971959 0.000000
0.919426 0.957680 0.000000
0.927686 0.976215 0.000000
0.899487 0.944624 0.000000
0.974081 0.924646 0.000000
0.977161 0.898750 0.000000
0.076578 0.973587 0.000000
0.102577 0.974440 0.000000
0.861693 0.698664 0.000000
0.848870 0.723174 0.000000
0.839521 0.701504 0.000000
0.820447 0.720618 0.000000
0.872237 0.675719 0.000000
0.882611 0.694724 0.000000
0.895344 0.672729 0.000000
0.606326 0.947716 0.000000
0.624868 0.973015 0.000000
0.599776 0.977307 0.000000
0.167986 0.944019 0.000000
0.199183 0.948746 0.000000
0.187884 0.972901 0.000000
0.787752 0.856005 0.000000
0.754801 0.854462 0.000000
0.778588 0.832828 0.000000
0.191471 0.922393 0.000000
0.801312 0.812216 0.000000
0.829867 0.817276 0.000000
0.805526 0.837896 0.000000
0.812775 0.791772 0.000000
0.822869 0.769821 0.000000
0.833826 0.791773 0.000000
0.849982 0.772760 0.000000
0.791421 0.791198 0.000000
0.772962 0.808877 0.000000
0.180049 0.621172 0.000000
0.160680 0.621098 0.000000
0.172158 0.598185 0.000000
0.588124 0.962489 0.000000
0.142171 0.602810 0.000000
0.827587 0.748015 0.000000
0.859778 0.745080 0.000000
0.882413 0.743965 0.000000
0.872759 0.762938 0.000000
0.894601 0.765041 0.000000
0.910115 0.745588 0.000000
0.901004 0.726420 0.000000
0.877058 0.719626 0.000000
0.632694 0.945006 0.000000
0.818411 0.883232 0.000000
0.787667 0.883633 0.000000
0.812018 0.862064 0.000000
0.808649 0.907835 0.000000
0.066636 0.534974 0.000000
0.083909 0.552665 0.000000
0.058224 0.565435 0.000000
0.037551 0.542621 0.000000
0.025720 0.565794 0.000000
0.304619 0.971425 0.000000
0.276072 0.975195 0.000000
0.284125 0.946285 0.000000
0.795087 0.737757 0.000000
0.797357 0.768346 0.000000
0.869843 0.656802 0.000000
0.840870 0.648068 0.000000
0.865462 0.630915 0.000000
0.043233 0.441011 0.000000
0.028792 0.469222 0.000000
0.020751 0.443790 0.000000
0.846918 0.676414 0.000000
0.058991 0.463368 0.000000
0.051906 0.966804 0.000000
0.071758 0.947609 0.000000
0.048298 0.939447 0.000000
0.026398 0.956010 0.000000
0.967109 0.949068 0.000000
0.946807 0.928411 0.000000
0.940173 0.953295 0.000000
0.956764 0.974357 0.000000
0.076722 0.471546 0.000000
0.082324 0.449317 0.000000
0.066669 0.435847 0.000000
0.114035 0.946088 0.000000
0.091278 0.952186 0.000000
0.128453 0.974235 0.000000
0.027019 0.501643 0.000000
0.047138 0.487417 0.000000
0.943388 0.639892 0.000000
0.923239 0.630552 0.000000
0.974491 0.618278 0.000000
0.972785 0.673666 0.000000
0.943930 0.664809 0.000000
0.968693 0.642530 0.000000
0.780685 0.976970 0.000000
0.756289 0.951349 0.000000
0.776857 0.951460 0.000000
0.935276 0.890540 0.000000
0.927168 0.867561 0.000000
0.954227 0.882176 0.000000
0.745760 0.974977 0.000000
0.952002 0.907568 0.000000
0.068063 0.489215 0.000000
0.051512 0.513895 0.000000
0.027757 0.982136 0.000000
0.023217 0.525632 0.000000
0.982410 0.972952 0.000000
0.951072 0.692907 0.000000
0.957020 0.857438 0.000000
0.937630 0.840379 0.000000
0.966912 0.834149 0.000000
0.923427 0.933924 0.000000
0.982257 0.848323 0.000000
0.092881 0.488189 0.000000
0.976737 0.871201 0.000000
0.067960 0.921895 0.000000
0.886538 0.603532 0.000000
0.918896 0.656866 0.000000
0.898227 0.636966 0.000000
0.092880 0.930380 0.000000
0.929071 0.911440 0.000000
0.081137 0.510877 0.000000
0.592772 0.576158 0.000000
0.150419 0.835159 0.000000
0.138607 0.859733 0.000000
0.125762 0.835294 0.000000
0.155304 0.458505 0.000000
0.139466 0.476317 0.000000
0.134858 0.496115 0.000000
0.109061 0.504849 0.000000
0.112238 0.859343 0.000000
0.866826 0.974780 0.000000
0.026919 0.865848 0.000000
0.348411 0.871602 0.000000
0.339654 0.840899 0.000000
0.369544 0.848927 0.000000
0.925986 0.818235 0.000000
0.909684 0.842117 0.000000
0.929360 0.717495 0.000000
0.924028 0.685311 0.000000
0.879688 0.955544 0.000000
0.875200 0.929284 0.000000
0.903901 0.918287 0.000000
0.950764 0.819790 0.000000
0.047492 0.878635 0.000000
0.069665 0.880314 0.000000
0.081712 0.904992 0.000000
0.573454 0.980624 0.000000
0.556694 0.550113 0.000000
0.094318 0.530060 0.000000
0.563246 0.571677 0.000000
0.563825 0.961795 0.000000
0.155902 0.972929 0.000000
0.577162 0.940912 0.000000
0.545227 0.533787 0.000000
0.864670 0.884377 0.000000
0.860690 0.911575 0.000000
0.840756 0.895862 0.000000
0.137227 0.926016 0.000000
0.139814 0.950758 0.000000
0.109156 0.913646 0.000000
0.884976 0.899786 0.000000
0.910807 0.890052 0.000000
0.830819 0.844574 0.000000
0.157710 0.484545 0.000000
0.180718 0.468069 0.000000
0.154331 0.510861 0.000000
0.124262 0.522394 0.000000
0.341085 0.732964 0.000000
0.323736 0.758404 0.000000
0.312899 0.730066 0.000000
0.857321 0.949854 0.000000
0.839840 0.975483 0.000000
0.053549 0.857833 0.000000
0.031143 0.832960 0.000000
0.840338 0.925315 0.000000
0.300796 0.756054 0.000000
0.080783 0.856286 0.000000
0.096939 0.884378 0.000000
0.544800 0.977874 0.000000
0.949430 0.731579 0.000000
0.955247 0.752582 0.000000
0.934712 0.748859 0.000000
0.030153 0.591093 0.000000
[...]
POINT_DATA 1445
SCALARS UX float 1
LOOKUP_TABLE default
-0.347571
-0.000000
0.000000
-0.347571
-0.347571
0.000000
-0.337348
-0.327125
-0.316903
-0.306680
-0.296457
-0.286235
-0.276012
-0.265789
-0.255567
-0.245344
-0.235121
-0.224899
-0.214676
-0.204453
-0.194231
-0.184008
-0.173785
-0.163563
-0.153340
-0.143117
-0.132895
-0.122672
-0.112449
-0.102227
-0.092004
-0.081781
-0.071559
-0.061336
-0.051113
-0.040891
-0.030668
-0.020445
-0.010223
-0.000000
-0.000000
-0.000000
-0.000000
-0.000000
-0.000000
-0.000000
-0.000000
-0.000000
-0.000000
-0.000000
-0.000000
-0.000000
-0.000000
-0.000000
-0.000000
-0.000000
0.000000
0.000000
-0.000000
-0.000000
0.000000
-0.000000
-0.000000
-0.000000
-0.000000
0.000000
-0.000000
0.000000
-0.000000
0.000000
-0.000000
-0.010223
-0.020445
-0.030668
-0.040891
-0.051113
-0.061336
-0.071559
-0.081781
-0.092004
-0.102227
-0.112449
-0.122672
-0.132895
-0.143117
-0.153340
-0.163563
-0.173785
-0.184008
-0.194231
-0.204453
-0.214676
-0.224899
-0.235121
-0.245344
-0.255567
-0.265789
-0.276012
-0.286235
-0.296457
-0.306680
-0.316903
-0.327125
-0.337348
-0.347571
-0.347571
-0.347571
-0.347571
-0.347571
-0.347571
-0.347571
-0.347571
-0.347571
-0.347571
-0.347571
-0.347571
-0.347571
-0.347571
-0.347571
-0.347571
-0.347571
-0.347571
-0.347571
-0.347571
-0.347571
-0.347571
-0.347571
-0.347571
-0.347571
-0.347571
-0.347571
-0.347571
-0.347571
-0.347571
-0.347571
-0.347571
-0.337348
-0.327125
-0.316903
-0.306680
-0.296457
-0.286235
-0.276012
-0.265789
-0.255567
-0.245344
-0.235121
-0.224899
-0.214676
-0.204453
-0.194231
-0.184008
-0.173785
-0.163563
-0.153340
-0.143117
-0.132895
-0.122672
-0.112449
-0.102227
-0.092004
-0.081781
-0.071559
-0.061336
-0.051113
-0.040891
-0.030668
-0.020445
-0.010223
-0.017903
-0.028418
-0.303737
-0.312703
-0.311769
-0.306587
-0.337441
-0.331313
-0.338885
-0.327997
-0.007727
-0.012660
-0.009097
-0.137203
-0.146199
-0.149449
-0.035866
-0.028005
-0.025134
-0.034935
-0.009009
-0.007938
-0.320955
-0.311918
-0.048072
-0.052528
-0.055778
-0.062407
-0.044407
-0.040801
-0.036375
-0.136829
-0.130385
-0.139106
-0.289184
-0.278341
-0.282268
-0.073771
-0.085224
-0.076956
-0.281021
-0.069058
-0.059133
-0.067594
-0.065074
-0.061565
-0.057757
-0.052142
-0.072496
-0.078912
-0.284991
-0.291723
-0.287734
-0.143156
-0.298156
-0.059926
-0.048737
-0.040870
-0.044225
-0.036634
-0.031241
-0.034408
-0.042731
-0.127665
-0.063115
-0.073801
-0.065337
-0.066508
-0.324410
-0.318407
-0.327334
-0.334519
-0.338631
-0.241694
-0.251616
-0.248817
-0.071222
-0.070433
-0.045239
-0.055309
-0.046762
-0.332544
-0.337563
-0.340358
-0.053207
-0.327067
-0.329530
-0.322630
-0.330784
-0.338396
-0.011432
-0.018488
-0.020794
-0.015028
-0.320905
-0.318958
-0.324399
-0.307936
-0.315845
-0.302924
-0.338180
-0.331187
-0.019677
-0.026680
-0.008866
-0.009459
-0.019488
-0.010882
-0.076227
-0.084707
-0.077558
-0.022496
-0.025314
-0.015909
-0.088367
-0.016683
-0.323914
-0.329667
-0.337923
-0.339501
-0.006114
-0.017006
-0.014938
-0.021678
-0.011500
-0.026614
-0.006167
-0.315288
-0.008086
-0.323950
-0.039436
-0.028189
-0.035373
-0.315288
-0.024653
-0.319370
-0.141541
-0.295290
-0.299395
-0.303860
-0.293592
-0.299096
-0.300698
-0.309664
-0.308560
-0.046287
-0.338215
-0.226473
-0.229517
-0.219128
-0.025725
-0.031391
-0.024552
-0.026406
-0.041817
-0.043377
-0.033401
-0.017113
-0.331064
-0.323357
-0.319170
-0.148255
-0.154080
-0.314789
-0.151803
-0.151602
-0.293384
-0.146966
-0.158066
-0.047037
-0.048420
-0.055349
-0.299875
-0.298975
-0.309632
-0.039979
-0.031001
-0.058803
-0.292755
-0.284758
-0.293930
-0.304381
-0.229020
-0.235050
-0.238816
-0.049591
-0.055667
-0.328959
-0.336747
-0.055494
-0.243023
-0.319493
-0.313877
-0.158214
-0.017577
-0.015555
-0.022692
-0.337091
-0.315836
-0.309351
-0.028292
-0.182465
-0.181570
-0.192536
-0.189712
-0.291889
-0.301633
-0.073359
-0.080839
-0.283904
-0.273241
-0.284793
-0.297854
-0.009105
-0.018787
-0.009153
-0.324877
-0.339743
-0.313714
-0.037123
-0.254712
-0.261781
-0.256811
-0.326062
-0.335375
-0.264895
-0.303963
-0.309100
-0.245479
-0.253412
-0.244439
-0.225211
-0.231726
-0.234465
-0.223796
-0.270099
-0.242964
-0.236786
-0.282734
-0.238625
-0.242442
-0.247604
-0.253577
-0.274288
-0.231044
-0.225732
-0.307833
-0.305726
-0.315985
-0.278983
-0.290479
-0.264572
-0.247480
-0.242746
-0.233854
-0.252085
-0.257402
-0.323181
-0.262500
-0.338391
-0.040414
-0.046411
-0.049668
-0.247980
-0.238687
-0.232587
-0.258982
-0.250501
-0.263458
-0.252706
-0.242173
-0.263704
-0.027428
-0.255531
-0.034877
-0.256485
-0.263778
-0.256072
-0.263224
-0.253398
-0.268989
-0.254616
-0.262733
-0.269178
-0.237277
-0.235943
-0.247328
-0.227719
-0.228391
-0.337435
-0.330425
-0.327306
-0.322073
-0.283225
-0.273204
-0.274683
-0.243908
-0.256772
-0.252525
-0.280665
-0.277198
-0.261300
-0.270966
-0.304525
-0.312689
-0.314977
-0.316473
-0.293757
-0.293312
-0.284095
-0.293554
-0.299481
-0.299638
-0.259426
-0.269131
-0.264205
-0.261022
-0.283306
-0.288769
-0.291983
-0.332491
-0.239203
-0.228704
-0.232080
-0.272336
-0.261466
-0.267150
-0.329766
-0.305736
-0.313372
-0.307066
-0.317541
-0.263406
-0.221897
-0.082024
-0.080723
-0.091506
-0.321308
-0.323910
-0.089279
-0.008790
-0.278875
-0.284864
-0.273480
-0.018935
-0.289276
-0.218443
-0.222222
-0.314274
-0.330253
-0.066375
-0.076658
-0.068570
-0.074298
-0.281874
-0.233563
-0.279160
-0.093366
-0.082643
-0.090532
-0.210374
-0.206899
-0.338753
-0.215187
-0.120658
-0.118399
-0.130825
-0.128638
-0.273400
-0.054939
-0.316250
-0.269028
-0.292241
-0.042643
-0.069399
-0.274321
-0.238575
-0.239527
-0.231633
-0.048933
-0.139886
-0.149510
-0.147239
-0.137761
-0.086182
-0.080613
-0.092248
-0.085510
-0.157505
-0.337226
-0.158989
-0.223225
-0.212905
-0.298359
-0.098720
-0.096760
-0.289140
-0.227929
-0.087179
-0.110966
-0.108615
-0.203830
-0.209985
-0.199264
-0.274497
-0.050025
-0.154597
-0.160864
-0.153466
-0.157215
-0.163983
-0.136178
-0.145771
-0.138720
-0.143433
-0.146912
-0.127216
-0.128788
-0.133140
-0.247295
-0.255301
-0.100936
-0.107708
-0.107267
-0.100975
-0.094574
-0.079453
-0.116952
-0.118586
-0.122863
-0.112861
-0.037953
-0.034212
-0.057113
-0.064074
-0.213306
-0.224684
-0.216165
-0.221338
-0.221118
-0.216984
-0.079819
-0.088269
-0.078394
-0.090300
-0.098544
-0.096899
-0.207913
-0.210393
-0.095697
-0.098233
-0.092803
-0.086605
-0.096562
-0.100877
-0.106995
-0.079743
-0.059578
-0.198999
-0.195828
-0.204069
-0.197934
-0.187502
-0.192186
-0.088490
-0.098946
-0.234644
-0.104117
-0.101801
-0.201931
-0.250808
-0.243139
-0.217846
-0.202229
-0.209353
-0.063451
-0.202553
-0.205322
-0.210341
-0.109076
-0.106716
-0.197221
-0.199599
-0.116955
-0.111234
-0.117238
-0.175711
-0.185071
-0.176383
-0.183139
-0.109578
-0.106558
-0.168732
-0.166386
-0.176382
-0.098751
-0.102866
-0.192042
-0.194757
-0.199764
-0.191352
-0.193495
-0.207326
-0.065446
-0.121473
-0.127499
-0.186735
-0.189134
-0.338234
-0.327029
-0.306375
-0.307645
-0.181646
-0.184270
-0.189374
-0.069940
-0.297281
-0.171289
-0.173936
-0.334794
-0.178986
-0.196963
-0.127215
-0.119594
-0.073355
-0.176345
-0.301162
-0.178739
-0.160951
-0.163506
-0.114541
-0.112118
-0.243704
-0.166005
-0.168412
-0.060228
-0.186655
-0.188245
-0.155665
-0.158135
-0.153181
-0.145350
-0.147811
-0.234703
-0.131745
-0.137784
-0.119893
-0.117435
-0.276610
-0.310622
-0.137503
-0.129864
-0.115035
-0.104738
-0.109004
-0.142879
-0.135056
-0.133639
-0.143924
-0.323871
-0.244000
-0.154198
-0.148085
-0.170744
-0.164561
-0.174570
-0.168679
-0.123375
-0.129496
-0.130135
-0.140393
-0.132598
-0.124786
-0.298158
-0.113123
-0.122354
-0.071884
-0.269736
-0.168372
-0.167549
-0.119245
-0.150633
-0.158399
-0.142036
-0.173754
-0.173180
-0.181259
-0.170995
-0.339948
-0.157641
-0.220512
-0.215753
-0.124240
-0.094446
-0.140157
-0.084508
-0.152337
-0.150461
-0.162637
-0.160745
-0.172451
-0.196704
-0.204753
-0.201619
-0.132442
-0.173864
-0.165867
-0.171918
-0.181516
-0.182907
-0.179012
-0.180443
-0.103450
-0.279356
-0.271927
-0.106407
-0.217595
-0.212624
-0.197386
-0.192280
-0.190646
-0.112081
-0.203386
-0.284463
-0.186125
-0.064985
-0.117556
-0.210591
-0.208553
-0.165782
-0.162182
-0.214758
-0.179274
-0.123143
-0.220018
-0.188792
-0.226691
-0.291316
-0.329668
-0.319153
-0.043834
-0.034868
-0.035802
-0.040984
-0.010130
-0.016257
-0.008686
-0.019573
-0.339844
-0.334911
-0.338474
-0.210368
-0.201372
-0.198122
-0.311705
-0.319566
-0.322436
-0.312636
-0.338562
-0.339633
-0.026616
-0.035653
-0.299499
-0.295042
-0.291793
-0.285163
-0.303164
-0.306770
-0.311196
-0.210741
-0.217186
-0.208465
-0.058387
-0.069230
-0.065303
-0.273800
-0.262347
-0.270614
-0.066550
-0.278513
-0.288437
-0.279977
-0.282497
-0.286005
-0.289814
-0.295429
-0.275075
-0.268659
-0.062580
-0.055848
-0.059837
-0.204415
-0.049414
-0.287645
-0.298834
-0.306701
-0.303346
-0.310937
-0.316329
-0.313163
-0.304840
-0.219906
-0.284456
-0.273770
-0.282234
-0.281063
-0.023161
-0.029164
-0.020237
-0.013052
-0.008939
-0.105877
-0.095955
-0.098753
-0.276349
-0.277138
-0.302332
-0.292262
-0.300809
-0.015026
-0.010007
-0.007212
-0.294364
-0.020504
-0.018041
-0.024941
-0.016787
-0.009175
-0.336139
-0.329082
-0.326777
-0.332543
-0.026666
-0.028613
-0.023172
-0.039635
-0.031726
-0.044647
-0.009391
-0.016384
-0.327894
-0.320891
-0.338705
-0.338112
-0.328082
-0.336689
-0.271343
-0.262864
-0.270013
-0.325075
-0.322257
-0.331662
-0.259204
-0.330888
-0.023657
-0.017904
-0.009647
-0.008069
-0.341457
-0.330565
-0.332632
-0.325893
-0.336071
-0.320956
-0.341404
-0.032283
-0.339485
-0.023621
-0.308135
-0.319382
-0.312197
-0.032282
-0.322918
-0.028201
-0.206030
-0.052281
-0.048176
-0.043711
-0.053979
-0.048474
-0.046873
-0.037906
-0.039011
-0.301283
-0.009356
-0.121098
-0.118054
-0.128443
-0.321846
-0.316180
-0.323019
-0.321165
-0.305754
-0.304194
-0.314170
-0.330458
-0.016507
-0.024214
-0.028401
-0.199316
-0.193491
-0.032782
-0.195768
-0.195969
-0.054187
-0.200604
-0.189505
-0.300534
-0.299151
-0.292222
-0.047696
-0.048595
-0.037939
-0.307592
-0.316570
-0.288768
-0.054815
-0.062812
-0.053641
-0.043190
-0.118551
-0.112521
-0.108754
-0.297980
-0.291904
-0.018612
-0.010824
-0.292077
-0.104548
-0.028078
-0.033693
-0.189357
-0.329994
-0.332016
-0.324879
-0.010480
-0.031735
-0.038219
-0.319278
-0.165106
-0.166001
-0.155035
-0.157859
-0.055682
-0.045938
-0.274212
-0.266731
-0.063667
-0.074330
-0.062778
-0.049717
-0.338465
-0.328784
-0.338418
-0.022694
-0.007827
-0.033856
-0.310448
-0.092859
-0.085790
-0.090760
-0.021509
-0.012196
-0.082675
-0.043608
-0.038470
-0.102091
-0.094159
-0.103132
-0.122360
-0.115845
-0.113106
-0.123775
-0.077472
-0.104606
-0.110785
-0.064836
-0.108946
-0.105129
-0.099967
-0.093994
-0.073283
-0.116527
-0.121839
-0.039738
-0.041844
-0.031586
-0.068588
-0.057091
-0.082999
-0.100091
-0.104825
-0.113717
-0.095486
-0.090168
-0.024390
-0.085071
-0.009180
-0.307156
-0.301160
-0.297902
-0.099591
-0.108884
-0.114984
-0.088589
-0.097070
-0.084113
-0.094865
-0.105398
-0.083866
-0.320143
-0.092040
-0.312694
-0.091086
-0.083793
-0.091498
-0.084346
-0.094173
-0.078582
-0.092955
-0.084838
-0.078393
-0.110293
-0.111627
-0.100243
-0.119852
-0.119179
-0.010136
-0.017146
-0.020264
-0.025498
-0.064346
-0.074366
-0.072888
-0.103663
-0.090798
-0.095046
-0.066905
-0.070372
-0.086270
-0.076605
-0.043046
-0.034882
-0.032593
-0.031098
-0.053814
-0.054258
-0.063476
-0.054017
-0.048090
-0.047933
-0.088145
-0.078440
-0.083366
-0.086548
-0.064265
-0.058801
-0.055587
-0.015080
-0.108368
-0.118867
-0.115491
-0.075235
-0.086104
-0.080421
-0.017805
-0.041835
-0.034199
-0.040505
-0.030030
-0.084165
-0.125674
-0.265547
-0.266847
-0.256065
-0.026262
-0.023660
-0.258292
-0.338781
-0.068696
-0.062707
-0.074091
-0.328635
-0.058294
-0.129128
-0.125348
-0.033297
-0.017318
-0.281195
-0.270912
-0.279001
-0.273273
-0.065697
-0.114008
-0.068411
-0.254205
-0.264928
-0.257038
-0.137196
-0.140672
-0.008818
-0.132384
-0.226912
-0.229172
-0.216745
-0.218933
-0.074170
-0.292632
-0.031320
-0.078542
-0.055330
-0.304928
-0.278171
-0.073250
-0.108995
-0.108044
-0.115938
-0.298638
-0.207685
-0.198061
-0.200332
-0.209810
-0.261389
-0.266958
-0.255323
-0.262061
-0.190066
-0.010345
-0.188582
-0.124345
-0.134666
-0.049211
-0.248850
-0.250811
-0.058431
-0.119642
-0.260392
-0.236604
-0.238956
-0.143741
-0.137586
-0.148306
-0.073074
-0.297545
-0.192974
-0.186707
-0.194105
-0.190356
-0.183588
-0.211393
-0.201800
-0.208850
-0.204138
-0.200658
-0.220355
-0.218782
-0.214431
-0.100275
-0.092270
-0.246634
-0.239863
-0.240304
-0.246596
-0.252997
-0.268118
-0.230619
-0.228985
-0.224708
-0.234710
-0.309617
-0.313359
-0.290458
-0.283497
-0.134265
-0.122887
-0.131406
-0.126232
-0.126453
-0.130587
-0.267752
-0.259301
-0.269176
-0.257271
-0.249027
-0.250672
-0.139658
-0.137178
-0.251874
-0.249338
-0.254768
-0.260966
-0.251009
-0.246694
-0.240576
-0.267828
-0.287993
-0.148571
-0.151743
-0.143502
-0.149637
-0.160068
-0.155385
-0.259081
-0.248625
-0.112927
-0.243454
-0.245770
-0.145639
-0.096763
-0.104432
-0.129725
-0.145342
-0.138218
-0.284120
-0.145018
-0.142248
-0.137230
-0.238495
-0.240854
-0.150350
-0.147972
-0.230615
-0.236337
-0.230333
-0.171859
-0.162500
-0.171188
-0.164432
-0.237993
-0.241013
-0.178838
-0.181185
-0.171188
-0.248820
-0.244704
-0.155529
-0.152814
-0.147807
-0.156219
-0.154075
-0.140245
-0.282125
-0.226098
-0.220072
-0.160836
-0.158436
-0.009337
-0.020542
-0.041196
-0.039926
-0.165924
-0.163301
-0.158197
-0.277631
-0.050290
-0.176282
-0.173635
-0.012777
-0.168585
-0.150608
-0.220356
-0.227977
-0.274215
-0.171226
-0.046409
-0.168832
-0.186620
-0.184065
-0.233030
-0.235453
-0.103867
-0.181566
-0.179159
-0.287343
-0.160916
-0.159326
-0.191906
-0.189436
-0.194390
-0.202221
-0.199760
-0.112868
-0.215826
-0.209787
-0.227677
-0.230135
-0.070961
-0.036949
-0.210067
-0.217707
-0.232536
-0.242833
-0.238567
-0.204692
-0.212515
-0.213932
-0.203647
-0.023700
-0.103570
-0.193372
-0.199486
-0.176827
-0.183010
-0.173001
-0.178892
-0.224196
-0.218075
-0.217436
-0.207177
-0.214973
-0.222784
-0.049413
-0.234448
-0.225217
-0.275687
-0.077834
-0.179198
-0.180021
-0.228326
-0.196938
-0.189172
-0.205535
-0.173817
-0.174390
-0.166312
-0.176576
-0.007623
-0.189930
-0.127059
-0.131818
-0.223330
-0.253125
-0.207414
-0.263063
-0.195234
-0.197110
-0.184934
-0.186826
-0.175120
-0.150867
-0.142817
-0.145951
-0.215129
-0.173707
-0.181704
-0.175653
-0.166055
-0.164664
-0.168559
-0.167128
-0.244121
-0.068214
-0.075644
-0.241164
-0.129976
-0.134947
-0.150185
-0.155291
-0.156925
-0.235490
-0.144184
-0.063108
-0.161446
-0.282586
-0.230015
-0.136980
-0.139018
-0.181789
-0.185389
-0.132812
-0.168297
-0.224428
-0.127552
-0.158779
-0.120880
-0.056254
SCALARS UY float 1
LOOKUP_TABLE default
-0.000001
-0.000001
-0.810999
-0.810999
-0.324400
-0.486600
-0.000001
-0.000001
-0.000001
-0.000001
-0.000001
-0.000001
-0.000001
-0.000001
-0.000001
-0.000001
-0.000001
-0.000001
-0.000001
-0.000001
-0.000001
-0.000001
-0.000001
-0.000001
-0.000001
-0.000001
-0.000001
-0.000001
-0.000001
-0.000001
-0.000001
-0.000001
-0.000001
-0.000001
-0.000001
-0.000001
-0.000001
-0.000001
-0.000001
-0.024331
-0.048661
-0.072991
-0.097321
-0.121651
-0.145980
-0.170310
-0.194640
-0.218970
-0.243300
-0.267630
-0.291960
-0.316290
-0.340620
-0.364950
-0.389280
-0.413610
-0.437940
-0.462270
-0.509771
-0.532943
-0.556114
-0.579285
-0.602457
-0.625628
-0.648800
-0.671971
-0.695142
-0.718314
-0.741485
-0.764657
-0.787828
-0.810999
-0.810999
-0.810999
-0.810999
-0.810999
-0.810999
-0.810999
-0.810999
-0.810999
-0.810999
-0.810999
-0.810999
-0.810999
-0.810999
-0.810999
-0.810999
-0.810999
-0.810999
-0.810999
-0.810999
-0.810999
-0.810999
-0.810999
-0.810999
-0.810999
-0.810999
-0.810999
-0.810999
-0.810999
-0.810999
-0.810999
-0.810999
-0.810999
-0.786669
-0.762339
-0.738009
-0.713679
-0.689349
-0.665020
-0.640690
-0.616360
-0.592030
-0.567700
-0.543370
-0.519040
-0.494710
-0.470380
-0.446050
-0.421720
-0.397390
-0.373060
-0.348730
-0.301229
-0.278057
-0.254886
-0.231715
-0.208543
-0.185372
-0.162200
-0.139029
-0.115858
-0.092686
-0.069515
-0.046343
-0.023172
-0.329171
-0.333941
-0.338712
-0.343482
-0.348253
-0.353024
-0.357794
-0.362565
-0.367335
-0.372106
-0.376877
-0.381647
-0.386418
-0.391188
-0.395959
-0.400729
-0.405500
-0.410271
-0.415041
-0.419812
-0.424582
-0.429353
-0.434123
-0.438894
-0.443665
-0.448435
-0.453206
-0.457976
-0.462747
-0.467518
-0.472288
-0.477059
-0.481829
-0.500862
-0.494605
-0.368880
-0.377422
-0.358555
-0.389832
-0.726318
-0.744523
-0.751252
-0.729227
-0.564440
-0.579645
-0.596999
-0.445558
-0.445888
-0.432925
-0.788258
-0.776678
-0.791710
-0.766089
-0.749887
-0.728886
-0.789578
-0.790270
-0.566616
-0.586494
-0.568920
-0.584421
-0.548008
-0.563421
-0.545583
-0.768597
-0.789114
-0.792596
-0.765599
-0.769432
-0.789022
-0.694220
-0.692968
-0.675423
-0.748060
-0.658706
-0.662810
-0.679533
-0.642126
-0.624324
-0.642127
-0.626708
-0.641662
-0.655999
-0.503770
-0.503710
-0.485128
-0.780578
-0.488879
-0.606640
-0.604259
-0.603355
-0.618742
-0.620448
-0.604672
-0.589126
-0.583616
-0.766399
-0.716300
-0.716626
-0.699134
-0.736254
-0.433863
-0.448211
-0.458568
-0.440066
-0.458858
-0.787825
-0.790883
-0.767437
-0.598321
-0.623128
-0.532666
-0.525583
-0.511672
-0.357660
-0.380539
-0.359914
-0.548572
-0.375791
-0.784077
-0.768510
-0.761890
-0.775323
-0.769694
-0.752941
-0.773122
-0.790203
-0.382423
-0.364396
-0.353472
-0.767276
-0.772222
-0.790104
-0.406832
-0.395295
-0.518952
-0.511377
-0.501423
-0.546343
-0.539160
-0.521091
-0.792322
-0.771543
-0.771634
-0.722227
-0.703592
-0.715444
-0.790705
-0.736037
-0.396754
-0.416769
-0.796511
-0.426287
-0.789063
-0.561947
-0.695382
-0.681547
-0.676494
-0.757412
-0.687989
-0.395922
-0.706543
-0.747656
-0.489464
-0.532718
-0.516579
-0.754538
-0.739177
-0.414321
-0.467264
-0.677313
-0.697243
-0.677423
-0.371847
-0.386293
-0.402349
-0.409433
-0.696927
-0.790546
-0.702202
-0.706869
-0.681969
-0.688479
-0.663588
-0.682956
-0.581888
-0.555787
-0.774946
-0.753648
-0.744730
-0.664849
-0.712572
-0.713934
-0.733948
-0.795285
-0.446142
-0.429879
-0.463630
-0.780015
-0.789045
-0.763079
-0.432902
-0.717229
-0.739287
-0.726544
-0.750998
-0.771064
-0.740966
-0.729726
-0.721832
-0.684949
-0.392966
-0.379604
-0.414308
-0.423662
-0.594434
-0.615066
-0.592083
-0.770331
-0.791116
-0.695702
-0.675530
-0.750430
-0.613159
-0.694447
-0.717230
-0.793055
-0.593310
-0.610343
-0.607324
-0.479377
-0.470095
-0.445831
-0.625888
-0.423665
-0.446276
-0.441319
-0.418137
-0.739269
-0.721813
-0.752345
-0.755498
-0.402966
-0.385797
-0.431402
-0.440170
-0.657228
-0.647354
-0.638435
-0.675528
-0.654597
-0.673803
-0.704340
-0.448152
-0.444481
-0.430928
-0.486937
-0.506807
-0.426585
-0.464611
-0.488323
-0.451092
-0.469555
-0.476283
-0.504541
-0.521097
-0.501510
-0.530929
-0.786621
-0.499379
-0.482507
-0.721334
-0.635247
-0.658632
-0.633417
-0.655811
-0.413815
-0.632707
-0.615331
-0.571150
-0.594448
-0.586581
-0.452331
-0.461734
-0.401747
-0.590315
-0.574134
-0.571054
-0.609305
-0.586800
-0.513022
-0.608047
-0.532642
-0.685394
-0.700305
-0.678626
-0.679367
-0.680325
-0.658504
-0.493061
-0.490161
-0.468062
-0.512527
-0.523902
-0.516310
-0.643931
-0.411047
-0.638021
-0.628668
-0.666670
-0.678072
-0.689995
-0.698960
-0.541507
-0.541045
-0.562996
-0.585325
-0.434861
-0.459965
-0.424791
-0.447754
-0.422104
-0.557747
-0.543971
-0.561458
-0.540140
-0.586777
-0.609160
-0.564155
-0.744475
-0.751141
-0.724148
-0.542489
-0.516955
-0.712308
-0.711198
-0.615192
-0.627627
-0.609197
-0.565787
-0.605011
-0.628169
-0.617977
-0.646532
-0.637377
-0.656498
-0.774746
-0.757860
-0.732239
-0.795139
-0.565833
-0.546551
-0.562513
-0.579211
-0.766787
-0.784245
-0.752267
-0.651556
-0.645827
-0.629326
-0.655256
-0.504099
-0.508666
-0.523256
-0.493589
-0.380700
-0.664110
-0.613378
-0.635447
-0.628791
-0.656745
-0.631129
-0.650116
-0.616951
-0.695835
-0.674446
-0.676502
-0.627843
-0.698286
-0.597954
-0.575115
-0.648009
-0.525955
-0.518870
-0.511542
-0.497555
-0.533222
-0.469621
-0.542219
-0.489389
-0.708613
-0.712628
-0.728080
-0.579268
-0.601854
-0.342303
-0.621330
-0.452057
-0.475626
-0.471403
-0.444402
-0.468156
-0.703174
-0.526362
-0.448680
-0.718121
-0.636279
-0.774387
-0.434394
-0.411265