# vtk DataFile Version 2.0
Test
ASCII
DATASET POLYDATA
POINTS 1445 float
0.000000 0.000000 0.000000
1.000000 0.000000 0.000000
1.000000 1.000000 0.000000
0.000000 1.000000 0.000000
0.000000 0.400000 0.000000
1.000000 0.600000 0.000000
0.029412 0.000000 0.000000
0.058824 0.000000 0.000000
0.088235 0.000000 0.000000
0.117647 0.000000 0.000000
0.147059 0.000000 0.000000
0.176471 0.000000 0.000000
0.205882 0.000000 0.000000
0.235294 0.000000 0.000000
0.264706 0.000000 0.000000
0.294118 0.000000 0.000000
0.323529 0.000000 0.000000
0.352941 0.000000 0.000000
0.382353 0.000000 0.000000
0.411765 0.000000 0.000000
0.441176 0.000000 0.000000
0.470588 0.000000 0.000000
0.500000 0.000000 0.000000
0.529412 0.000000 0.000000
0.558824 0.000000 0.000000
0.588235 0.000000 0.000000
0.617647 0.000000 0.000000
0.647059 0.000000 0.000000
0.676471 0.000000 0.000000
0.705882 0.000000 0.000000
0.735294 0.000000 0.000000
0.764706 0.000000 0.000000
0.794118 0.000000 0.000000
0.823529 0.000000 0.000000
0.852941 0.000000 0.000000
0.882353 0.000000 0.000000
0.911765 0.000000 0.000000
0.941176 0.000000 0.000000
0.970588 0.000000 0.000000
1.000000 0.030000 0.000000
1.000000 0.060000 0.000000
1.000000 0.090000 0.000000
1.000000 0.120000 0.000000
1.000000 0.150000 0.000000
1.000000 0.180000 0.000000
1.000000 0.210000 0.000000
1.000000 0.240000 0.000000
1.000000 0.270000 0.000000
1.000000 0.300000 0.000000
1.000000 0.330000 0.000000
1.000000 0.360000 0.000000
1.000000 0.390000 0.000000
1.000000 0.420000 0.000000
1.000000 0.450000 0.000000
1.000000 0.480000 0.000000
1.000000 0.510000 0.000000
1.000000 0.540000 0.000000
1.000000 0.570000 0.000000
1.000000 0.628571 0.000000
1.000000 0.657143 0.000000
1.000000 0.685714 0.000000
1.000000 0.714286 0.000000
1.000000 0.742857 0.000000
1.000000 0.771429 0.000000
1.000000 0.800000 0.000000
1.000000 0.828571 0.000000
1.000000 0.857143 0.000000
1.000000 0.885714 0.000000
1.000000 0.914286 0.000000
1.000000 0.942857 0.000000
1.000000 0.971429 0.000000
0.970588 1.000000 0.000000
0.941176 1.000000 0.000000
0.911765 1.000000 0.000000
0.882353 1.000000 0.000000
0.852941 1.000000 0.000000
0.823529 1.000000 0.000000
0.794118 1.000000 0.000000
0.764706 1.000000 0.000000
0.735294 1.000000 0.000000
0.705882 1.000000 0.000000
0.676471 1.000000 0.000000
0.647059 1.000000 0.000000
0.617647 1.000000 0.000000
0.588235 1.000000 0.000000
0.558824 1.000000 0.000000
0.529412 1.000000 0.000000
0.500000 1.000000 0.000000
0.470588 1.000000 0.000000
0.441176 1.000000 0.000000
0.411765 1.000000 0.000000
0.382353 1.000000 0.000000
0.352941 1.000000 0.000000
0.323529 1.000000 0.000000
0.294118 1.000000 0.000000
0.264706 1.000000 0.000000
0.235294 1.000000 0.000000
0.205882 1.000000 0.000000
0.176471 1.000000 0.000000
0.147059 1.000000 0.000000
0.117647 1.000000 0.000000
0.088235 1.000000 0.000000
0.058824 1.000000 0.000000
0.029412 1.000000 0.000000
0.000000 0.970000 0.000000
0.000000 0.940000 0.000000
0.000000 0.910000 0.000000
0.000000 0.880000 0.000000
0.000000 0.850000 0.000000
0.000000 0.820000 0.000000
0.000000 0.790000 0.000000
0.000000 0.760000 0.000000
0.000000 0.730000 0.000000
0.000000 0.700000 0.000000
0.000000 0.670000 0.000000
0.000000 0.640000 0.000000
0.000000 0.610000 0.000000
0.000000 0.580000 0.000000
0.000000 0.550000 0.000000
0.000000 0.520000 0.000000
0.000000 0.490000 0.000000
0.000000 0.460000 0.000000
0.000000 0.430000 0.000000
0.000000 0.371429 0.000000
0.000000 0.342857 0.000000
0.000000 0.314286 0.000000
0.000000 0.285714 0.000000
0.000000 0.257143 0.000000
0.000000 0.228571 0.000000
0.000000 0.200000 0.000000
0.000000 0.171429 0.000000
0.000000 0.142857 0.000000
0.000000 0.114286 0.000000
0.000000 0.085714 0.000000
0.000000 0.057143 0.000000
0.000000 0.028571 0.000000
0.029412 0.405882 0.000000
0.058824 0.411765 0.000000
0.088235 0.417647 0.000000
0.117647 0.423529 0.000000
0.147059 0.429412 0.000000
0.176471 0.435294 0.000000
0.205882 0.441176 0.000000
0.235294 0.447059 0.000000
0.264706 0.452941 0.000000
0.294118 0.458824 0.000000
0.323529 0.464706 0.000000
0.352941 0.470588 0.000000
0.382353 0.476471 0.000000
0.411765 0.482353 0.000000
0.441176 0.488235 0.000000
0.470588 0.494118 0.000000
0.500000 0.500000 0.000000
0.529412 0.505882 0.000000
0.558824 0.511765 0.000000
0.588235 0.517647 0.000000
0.617647 0.523529 0.000000
0.647059 0.529412 0.000000
0.676471 0.535294 0.000000
0.705882 0.541176 0.000000
0.735294 0.547059 0.000000
0.764706 0.552941 0.000000
0.794118 0.558824 0.000000
0.823529 0.564706 0.000000
0.852941 0.570588 0.000000
0.882353 0.576471 0.000000
0.911765 0.582353 0.000000
0.941176 0.588235 0.000000
0.970588 0.594118 0.000000
0.948492 0.617586 0.000000
0.918239 0.609871 0.000000
0.126115 0.454845 0.000000
0.100318 0.465379 0.000000
0.103006 0.442114 0.000000
0.117916 0.480680 0.000000
0.029145 0.895585 0.000000
0.046774 0.918032 0.000000
0.024990 0.926329 0.000000
0.056315 0.899171 0.000000
0.977770 0.695981 0.000000
0.963577 0.714729 0.000000
0.973827 0.736127 0.000000
0.605253 0.549394 0.000000
0.579370 0.549801 0.000000
0.570019 0.533816 0.000000
0.896809 0.971959 0.000000
0.919426 0.957680 0.000000
0.927686 0.976215 0.000000
0.899487 0.944624 0.000000
0.974081 0.924646 0.000000
0.977161 0.898750 0.000000
0.076578 0.973587 0.000000
0.102577 0.974440 0.000000
0.861693 0.698664 0.000000
0.848870 0.723174 0.000000
0.839521 0.701504 0.000000
0.820447 0.720618 0.000000
0.872237 0.675719 0.000000
0.882611 0.694724 0.000000
0.895344 0.672729 0.000000
0.606326 0.947716 0.000000
0.624868 0.973015 0.000000
0.599776 0.977307 0.000000
0.167986 0.944019 0.000000
0.199183 0.948746 0.000000
0.187884 0.972901 0.000000
0.787752 0.856005 0.000000
0.754801 0.854462 0.000000
0.778588 0.832828 0.000000
0.191471 0.922393 0.000000
0.801312 0.812216 0.000000
0.829867 0.817276 0.000000
0.805526 0.837896 0.000000
0.812775 0.791772 0.000000
0.822869 0.769821 0.000000
0.833826 0.791773 0.000000
0.849982 0.772760 0.000000
0.791421 0.791198 0.000000
0.772962 0.808877 0.000000
0.180049 0.621172 0.000000
0.160680 0.621098 0.000000
0.172158 0.598185 0.000000
0.588124 0.962489 0.000000
0.142171 0.602810 0.000000
0.827587 0.748015 0.000000
0.859778 0.745080 0.000000
0.882413 0.743965 0.000000
0.872759 0.762938 0.000000
0.894601 0.765041 0.000000
0.910115 0.745588 0.000000
0.901004 0.726420 0.000000
0.877058 0.719626 0.000000
0.632694 0.945006 0.000000
0.818411 0.883232 0.000000
0.787667 0.883633 0.000000
0.812018 0.862064 0.000000
0.808649 0.907835 0.000000
0.066636 0.534974 0.000000
0.083909 0.552665 0.000000
0.058224 0.565435 0.000000
0.037551 0.542621 0.000000
0.025720 0.565794 0.000000
0.304619 0.971425 0.000000
0.276072 0.975195 0.000000
0.284125 0.946285 0.000000
0.795087 0.737757 0.000000
0.797357 0.768346 0.000000
0.869843 0.656802 0.000000
0.840870 0.648068 0.000000
0.865462 0.630915 0.000000
0.043233 0.441011 0.000000
0.028792 0.469222 0.000000
0.020751 0.443790 0.000000
0.846918 0.676414 0.000000
0.058991 0.463368 0.000000
0.051906 0.966804 0.000000
0.071758 0.947609 0.000000
0.048298 0.939447 0.000000
0.026398 0.956010 0.000000
0.967109 0.949068 0.000000
0.946807 0.928411 0.000000
0.940173 0.953295 0.000000
0.956764 0.974357 0.000000
0.076722 0.471546 0.000000
0.082324 0.449317 0.000000
0.066669 0.435847 0.000000
0.114035 0.946088 0.000000
0.091278 0.952186 0.000000
0.128453 0.974235 0.000000
0.027019 0.501643 0.000000
0.047138 0.487417 0.000000
0.943388 0.639892 0.000000
0.923239 0.630552 0.000000
0.974491 0.618278 0.000000
0.972785 0.673666 0.000000
0.943930 0.664809 0.000000
0.968693 0.642530 0.000000
0.780685 0.976970 0.000000
0.756289 0.951349 0.000000
0.776857 0.951460 0.000000
0.935276 0.890540 0.000000
0.927168 0.867561 0.000000
0.954227 0.882176 0.000000
0.745760 0.974977 0.000000
0.952002 0.907568 0.000000
0.068063 0.489215 0.000000
0.051512 0.513895 0.000000
0.027757 0.982136 0.000000
0.023217 0.525632 0.000000
0.982410 0.972952 0.000000
0.951072 0.692907 0.000000
0.957020 0.857438 0.000000
0.937630 0.840379 0.000000
0.966912 0.834149 0.000000
0.923427 0.933924 0.000000
0.982257 0.848323 0.000000
0.092881 0.488189 0.000000
0.976737 0.871201 0.000000
0.067960 0.921895 0.000000
0.886538 0.603532 0.000000
0.918896 0.656866 0.000000
0.898227 0.636966 0.000000
0.092880 0.930380 0.000000
0.929071 0.911440 0.000000
0.081137 0.510877 0.000000
0.592772 0.576158 0.000000
0.150419 0.835159 0.000000
0.138607 0.859733 0.000000
0.125762 0.835294 0.000000
0.155304 0.458505 0.000000
0.139466 0.476317 0.000000
0.134858 0.496115 0.000000
0.109061 0.504849 0.000000
0.112238 0.859343 0.000000
0.866826 0.974780 0.000000
0.026919 0.865848 0.000000
0.348411 0.871602 0.000000
0.339654 0.840899 0.000000
0.369544 0.848927 0.000000
0.925986 0.818235 0.000000
0.909684 0.842117 0.000000
0.929360 0.717495 0.000000
0.924028 0.685311 0.000000
0.879688 0.955544 0.000000
0.875200 0.929284 0.000000
0.903901 0.918287 0.000000
0.950764 0.819790 0.000000
0.047492 0.878635 0.000000
0.069665 0.880314 0.000000
0.081712 0.904992 0.000000
0.573454 0.980624 0.000000
0.556694 0.550113 0.000000
0.094318 0.530060 0.000000
0.563246 0.571677 0.000000
0.563825 0.961795 0.000000
0.155902 0.972929 0.000000
0.577162 0.940912 0.000000
0.545227 0.533787 0.000000
0.864670 0.884377 0.000000
0.860690 0.911575 0.000000
0.840756 0.895862 0.000000
0.137227 0.926016 0.000000
0.139814 0.950758 0.000000
0.109156 0.913646 0.000000
0.884976 0.899786 0.000000
0.910807 0.890052 0.000000
0.830819 0.844574 0.000000
0.157710 0.484545 0.000000
0.180718 0.468069 0.000000
0.154331 0.510861 0.000000
0.124262 0.522394 0.000000
0.341085 0.732964 0.000000
0.323736 0.758404 0.000000
0.312899 0.730066 0.000000
0.857321 0.949854 0.000000
0.839840 0.975483 0.000000
0.053549 0.857833 0.000000
0.031143 0.832960 0.000000
0.840338 0.925315 0.000000
0.300796 0.756054 0.000000
0.080783 0.856286 0.000000
0.096939 0.884378 0.000000
0.544800 0.977874 0.000000
0.949430 0.731579 0.000000
0.955247 0.752582 0.000000
0.934712 0.748859 0.000000
0.030153 0.591093 0.000000
[...]
POINT_DATA 1445
SCALARS UX float 1
LOOKUP_TABLE default
-0.356142
-0.000000
0.000000
-0.356142
-0.356142
0.000000
-0.345667
-0.335193
-0.324718
-0.314243
-0.303768
-0.293294
-0.282819
-0.272344
-0.261869
-0.251394
-0.240920
-0.230445
-0.219970
-0.209495
-0.199021
-0.188546
-0.178071
-0.167596
-0.157122
-0.146647
-0.136172
-0.125697
-0.115222
-0.104748
-0.094273
-0.083798
-0.073323
-0.062849
-0.052374
-0.041899
-0.031424
-0.020950
-0.010475
-0.000000
-0.000000
-0.000000
-0.000000
-0.000000
-0.000000
-0.000000
-0.000000
-0.000000
-0.000000
-0.000000
-0.000000
-0.000000
-0.000000
-0.000000
-0.000000
-0.000000
0.000000
0.000000
-0.000000
-0.000000
0.000000
-0.000000
-0.000000
-0.000000
-0.000000
0.000000
-0.000000
0.000000
-0.000000
0.000000
-0.000000
-0.010475
-0.020950
-0.031424
-0.041899
-0.052374
-0.062849
-0.073323
-0.083798
-0.094273
-0.104748
-0.115222
-0.125697
-0.136172
-0.146647
-0.157122
-0.167596
-0.178071
-0.188546
-0.199021
-0.209495
-0.219970
-0.230445
-0.240920
-0.251394
-0.261869
-0.272344
-0.282819
-0.293294
-0.303768
-0.314243
-0.324718
-0.335193
-0.345667
-0.356142
-0.356142
-0.356142
-0.356142
-0.356142
-0.356142
-0.356142
-0.356142
-0.356142
-0.356142
-0.356142
-0.356142
-0.356142
-0.356142
-0.356142
-0.356142
-0.356142
-0.356142
-0.356142
-0.356142
-0.356142
-0.356142
-0.356142
-0.356142
-0.356142
-0.356142
-0.356142
-0.356142
-0.356142
-0.356142
-0.356142
-0.356142
-0.345667
-0.335193
-0.324718
-0.314243
-0.303768
-0.293294
-0.282819
-0.272344
-0.261869
-0.251394
-0.240920
-0.230445
-0.219970
-0.209495
-0.199021
-0.188546
-0.178071
-0.167596
-0.157122
-0.146647
-0.136172
-0.125697
-0.115222
-0.104748
-0.094273
-0.083798
-0.073323
-0.062849
-0.052374
-0.041899
-0.031424
-0.020950
-0.010475
-0.018344
-0.029118
-0.311227
-0.320415
-0.319457
-0.314147
-0.345763
-0.339484
-0.347242
-0.336086
-0.007917
-0.012972
-0.009321
-0.140586
-0.149804
-0.153134
-0.036751
-0.028696
-0.025754
-0.035797
-0.009231
-0.008134
-0.328870
-0.319610
-0.049257
-0.053824
-0.057153
-0.063946
-0.045502
-0.041807
-0.037272
-0.140204
-0.133600
-0.142537
-0.296315
-0.285205
-0.289229
-0.075591
-0.087326
-0.078854
-0.287951
-0.070761
-0.060592
-0.069260
-0.066679
-0.063084
-0.059181
-0.053428
-0.074284
-0.080858
-0.292019
-0.298917
-0.294830
-0.146686
-0.305509
-0.061404
-0.049939
-0.041878
-0.045316
-0.037537
-0.032012
-0.035257
-0.043785
-0.130813
-0.064671
-0.075621
-0.066948
-0.068148
-0.332410
-0.326259
-0.335406
-0.342769
-0.346982
-0.247655
-0.257821
-0.254953
-0.072978
-0.072170
-0.046354
-0.056673
-0.047915
-0.340745
-0.345888
-0.348752
-0.054519
-0.335133
-0.337656
-0.330586
-0.338941
-0.346741
-0.011714
-0.018944
-0.021307
-0.015398
-0.328818
-0.326823
-0.332399
-0.315530
-0.323634
-0.310395
-0.346519
-0.339354
-0.020162
-0.027338
-0.009085
-0.009692
-0.019969
-0.011150
-0.078107
-0.086796
-0.079471
-0.023051
-0.025938
-0.016302
-0.090546
-0.017094
-0.331902
-0.337796
-0.346257
-0.347874
-0.006264
-0.017425
-0.015307
-0.022213
-0.011784
-0.027271
-0.006319
-0.323063
-0.008285
-0.331939
-0.040409
-0.028884
-0.036246
-0.323064
-0.025261
-0.327246
-0.145031
-0.302572
-0.306778
-0.311353
-0.300832
-0.306472
-0.308114
-0.317301
-0.316170
-0.047429
-0.346555
-0.232058
-0.235177
-0.224532
-0.026359
-0.032165
-0.025158
-0.027057
-0.042848
-0.044447
-0.034225
-0.017535
-0.339228
-0.331331
-0.327041
-0.151911
-0.157880
-0.322552
-0.155547
-0.155340
-0.300619
-0.150591
-0.161964
-0.048197
-0.049614
-0.056714
-0.307270
-0.306348
-0.317267
-0.040965
-0.031765
-0.060253
-0.299975
-0.291781
-0.301179
-0.311887
-0.234667
-0.240846
-0.244706
-0.050814
-0.057040
-0.337071
-0.345051
-0.056862
-0.249016
-0.327372
-0.321618
-0.162116
-0.018010
-0.015939
-0.023252
-0.345404
-0.323624
-0.316980
-0.028990
-0.186965
-0.186047
-0.197284
-0.194390
-0.299087
-0.309071
-0.075168
-0.082833
-0.290905
-0.279979
-0.291816
-0.305199
-0.009330
-0.019250
-0.009378
-0.332889
-0.348122
-0.321451
-0.038038
-0.260993
-0.268237
-0.263144
-0.334103
-0.343646
-0.271428
-0.311459
-0.316723
-0.251533
-0.259661
-0.250467
-0.230765
-0.237440
-0.240247
-0.229315
-0.276760
-0.248956
-0.242625
-0.289707
-0.244510
-0.248421
-0.253710
-0.259830
-0.281052
-0.236742
-0.231299
-0.315424
-0.313266
-0.323777
-0.285863
-0.297643
-0.271097
-0.253583
-0.248732
-0.239621
-0.258301
-0.263750
-0.331151
-0.268974
-0.346736
-0.041411
-0.047555
-0.050893
-0.254095
-0.244573
-0.238323
-0.265368
-0.256678
-0.269955
-0.258938
-0.248145
-0.270208
-0.028105
-0.261832
-0.035737
-0.262810
-0.270283
-0.262387
-0.269716
-0.259647
-0.275622
-0.260895
-0.269212
-0.275816
-0.243129
-0.241762
-0.253427
-0.233335
-0.234024
-0.345757
-0.338573
-0.335378
-0.330015
-0.290209
-0.279942
-0.281456
-0.249923
-0.263105
-0.258752
-0.287587
-0.284034
-0.267744
-0.277648
-0.312035
-0.320400
-0.322745
-0.324277
-0.301001
-0.300546
-0.291101
-0.300793
-0.306866
-0.307027
-0.265824
-0.275768
-0.270721
-0.267459
-0.290292
-0.295891
-0.299184
-0.340691
-0.245102
-0.234344
-0.237804
-0.279052
-0.267914
-0.273738
-0.337898
-0.313275
-0.321100
-0.314639
-0.325371
-0.269902
-0.227369
-0.084047
-0.082714
-0.093762
-0.329232
-0.331898
-0.091481
-0.009007
-0.285752
-0.291889
-0.280224
-0.019402
-0.296410
-0.223830
-0.227703
-0.322024
-0.338397
-0.068012
-0.078549
-0.070261
-0.076130
-0.288825
-0.239323
-0.286044
-0.095669
-0.084681
-0.092765
-0.215562
-0.212001
-0.347107
-0.220494
-0.123634
-0.121319
-0.134052
-0.131811
-0.280143
-0.056294
-0.324049
-0.275663
-0.299448
-0.043694
-0.071111
-0.281086
-0.244459
-0.245434
-0.237345
-0.050139
-0.143336
-0.153197
-0.150870
-0.141158
-0.088308
-0.082601
-0.094523
-0.087619
-0.161389
-0.345542
-0.162909
-0.228730
-0.218155
-0.305717
-0.101155
-0.099146
-0.296271
-0.233550
-0.089329
-0.113703
-0.111293
-0.208856
-0.215164
-0.204178
-0.281267
-0.051259
-0.158409
-0.164831
-0.157250
-0.161092
-0.168027
-0.139536
-0.149366
-0.142141
-0.146970
-0.150535
-0.130353
-0.131964
-0.136423
-0.253394
-0.261597
-0.103426
-0.110364
-0.109912
-0.103465
-0.096906
-0.081412
-0.119836
-0.121510
-0.125893
-0.115645
-0.038889
-0.035056
-0.058522
-0.065654
-0.218566
-0.230225
-0.221495
-0.226797
-0.226571
-0.222335
-0.081787
-0.090446
-0.080328
-0.092527
-0.100974
-0.099288
-0.213040
-0.215581
-0.098057
-0.100655
-0.095091
-0.088741
-0.098943
-0.103364
-0.109633
-0.081710
-0.061047
-0.203907
-0.200658
-0.209102
-0.202815
-0.192126
-0.196925
-0.090672
-0.101386
-0.240430
-0.106684
-0.104312
-0.206911
-0.256993
-0.249135
-0.223218
-0.207216
-0.214516
-0.065016
-0.207548
-0.210386
-0.215528
-0.111766
-0.109348
-0.202085
-0.204521
-0.119840
-0.113977
-0.120129
-0.180045
-0.189635
-0.180733
-0.187656
-0.112280
-0.109186
-0.172893
-0.170490
-0.180732
-0.101187
-0.105403
-0.196778
-0.199560
-0.204690
-0.196071
-0.198267
-0.212439
-0.067060
-0.124469
-0.130643
-0.191340
-0.193799
-0.346575
-0.335094
-0.313931
-0.315232
-0.186126
-0.188814
-0.194044
-0.071665
-0.304612
-0.175513
-0.178225
-0.343050
-0.183400
-0.201820
-0.130352
-0.122544
-0.075164
-0.180694
-0.308589
-0.183147
-0.164920
-0.167538
-0.117366
-0.114882
-0.249714
-0.170099
-0.172565
-0.061713
-0.191258
-0.192887
-0.159503
-0.162035
-0.156959
-0.148934
-0.151456
-0.240491
-0.134994
-0.141182
-0.122850
-0.120331
-0.283431
-0.318282
-0.140894
-0.133067
-0.117872
-0.107321
-0.111692
-0.146403
-0.138387
-0.136935
-0.147473
-0.331857
-0.250018
-0.158001
-0.151737
-0.174955
-0.168619
-0.178875
-0.172839
-0.126417
-0.132690
-0.133344
-0.143856
-0.135868
-0.127864
-0.305510
-0.115912
-0.125371
-0.073657
-0.276388
-0.172525
-0.171681
-0.122186
-0.154348
-0.162305
-0.145539
-0.178039
-0.177451
-0.185729
-0.175212
-0.348331
-0.161528
-0.225950
-0.221074
-0.127304
-0.096775
-0.143613
-0.086592
-0.156093
-0.154171
-0.166647
-0.164709
-0.176703
-0.201555
-0.209803
-0.206591
-0.135708
-0.178151
-0.169957
-0.176157
-0.185992
-0.187418
-0.183427
-0.184893
-0.106001
-0.286245
-0.278633
-0.109031
-0.222961
-0.217868
-0.202254
-0.197022
-0.195347
-0.114845
-0.208402
-0.291478
-0.190715
-0.066587
-0.120455
-0.215784
-0.213696
-0.169870
-0.166181
-0.220055
-0.183695
-0.126179
-0.225444
-0.193447
-0.232281
-0.298500
-0.337798
-0.327024
-0.044915
-0.035728
-0.036685
-0.041995
-0.010380
-0.016658
-0.008900
-0.020056
-0.348225
-0.343170
-0.346821
-0.215556
-0.206338
-0.203008
-0.319392
-0.327446
-0.330388
-0.320345
-0.346911
-0.348008
-0.027273
-0.036532
-0.306885
-0.302318
-0.298989
-0.292196
-0.310640
-0.314335
-0.318870
-0.215938
-0.222542
-0.213605
-0.059827
-0.070938
-0.066913
-0.280552
-0.268816
-0.277288
-0.068191
-0.285381
-0.295551
-0.286882
-0.289464
-0.293058
-0.296961
-0.302715
-0.281858
-0.275284
-0.064123
-0.057225
-0.061313
-0.209456
-0.050633
-0.294739
-0.306203
-0.314264
-0.310826
-0.318605
-0.324130
-0.320886
-0.312357
-0.225329
-0.291471
-0.280522
-0.289194
-0.287994
-0.023732
-0.029883
-0.020736
-0.013374
-0.009160
-0.108488
-0.098321
-0.101189
-0.283164
-0.283972
-0.309788
-0.299469
-0.308228
-0.015397
-0.010254
-0.007390
-0.301623
-0.021009
-0.018486
-0.025556
-0.017201
-0.009401
-0.344428
-0.337198
-0.334835
-0.340744
-0.027324
-0.029319
-0.023743
-0.040613
-0.032508
-0.045748
-0.009623
-0.016788
-0.335980
-0.328804
-0.347057
-0.346450
-0.336173
-0.344992
-0.278035
-0.269347
-0.276672
-0.333091
-0.330204
-0.339841
-0.265596
-0.339048
-0.024240
-0.018346
-0.009885
-0.008268
-0.349878
-0.338717
-0.340835
-0.333930
-0.344358
-0.328871
-0.349823
-0.033079
-0.347857
-0.024203
-0.315734
-0.327258
-0.319897
-0.033078
-0.330881
-0.028896
-0.211111
-0.053570
-0.049364
-0.044789
-0.055310
-0.049670
-0.048029
-0.038841
-0.039973
-0.308713
-0.009587
-0.124084
-0.120965
-0.131610
-0.329783
-0.323977
-0.330984
-0.329085
-0.313294
-0.311696
-0.321917
-0.338607
-0.016914
-0.024811
-0.029101
-0.204231
-0.198262
-0.033591
-0.200596
-0.200802
-0.055523
-0.205552
-0.194178
-0.307945
-0.306528
-0.299429
-0.048872
-0.049794
-0.038875
-0.315177
-0.324377
-0.295890
-0.056167
-0.064361
-0.054964
-0.044255
-0.121475
-0.115296
-0.111436
-0.305328
-0.299103
-0.019071
-0.011091
-0.299280
-0.107126
-0.028770
-0.034524
-0.194026
-0.338132
-0.340204
-0.332890
-0.010739
-0.032518
-0.039162
-0.327152
-0.169177
-0.170095
-0.158859
-0.161752
-0.057055
-0.047071
-0.280974
-0.273309
-0.065237
-0.076163
-0.064326
-0.050943
-0.346812
-0.336892
-0.346764
-0.023253
-0.008020
-0.034691
-0.318104
-0.095149
-0.087906
-0.092998
-0.022039
-0.012496
-0.084714
-0.044683
-0.039419
-0.104609
-0.096481
-0.105675
-0.125378
-0.118702
-0.115895
-0.126827
-0.079382
-0.107186
-0.113517
-0.066435
-0.111633
-0.107721
-0.102432
-0.096312
-0.075090
-0.119401
-0.124843
-0.040718
-0.042876
-0.032365
-0.070280
-0.058499
-0.085045
-0.102559
-0.107410
-0.116522
-0.097841
-0.092392
-0.024991
-0.087169
-0.009406
-0.314731
-0.308587
-0.305249
-0.102047
-0.111569
-0.117819
-0.090774
-0.099464
-0.086187
-0.097205
-0.107997
-0.085935
-0.328038
-0.094310
-0.320405
-0.093332
-0.085860
-0.093755
-0.086426
-0.096495
-0.080520
-0.095247
-0.086930
-0.080326
-0.113013
-0.114380
-0.102715
-0.122807
-0.122118
-0.010385
-0.017569
-0.020764
-0.026127
-0.065933
-0.076200
-0.074686
-0.106219
-0.093038
-0.097390
-0.068555
-0.072108
-0.088398
-0.078494
-0.044107
-0.035742
-0.033397
-0.031865
-0.055141
-0.055596
-0.065041
-0.055349
-0.049276
-0.049115
-0.090319
-0.080375
-0.085422
-0.088683
-0.065850
-0.060251
-0.056958
-0.015452
-0.111040
-0.121798
-0.118339
-0.077090
-0.088228
-0.082404
-0.018244
-0.042867
-0.035042
-0.041504
-0.030771
-0.086241
-0.128773
-0.272095
-0.273428
-0.262380
-0.026910
-0.024244
-0.264661
-0.347135
-0.070390
-0.064253
-0.075918
-0.336740
-0.059732
-0.132312
-0.128440
-0.034118
-0.017745
-0.288130
-0.277593
-0.285882
-0.280012
-0.067317
-0.116819
-0.070098
-0.260474
-0.271461
-0.263377
-0.140580
-0.144141
-0.009035
-0.135648
-0.232508
-0.234823
-0.222090
-0.224332
-0.076000
-0.299848
-0.032093
-0.080479
-0.056694
-0.312448
-0.285031
-0.075056
-0.111683
-0.110708
-0.118797
-0.306003
-0.212806
-0.202945
-0.205272
-0.214984
-0.267835
-0.273542
-0.261619
-0.268523
-0.194753
-0.010600
-0.193233
-0.127412
-0.137987
-0.050425
-0.254987
-0.256997
-0.059872
-0.122592
-0.266813
-0.242439
-0.244849
-0.147286
-0.140978
-0.151964
-0.074876
-0.304883
-0.197733
-0.191311
-0.198892
-0.195050
-0.188115
-0.216606
-0.206776
-0.214001
-0.209172
-0.205607
-0.225789
-0.224178
-0.219719
-0.102748
-0.094545
-0.252717
-0.245778
-0.246230
-0.252677
-0.259236
-0.274730
-0.236306
-0.234632
-0.230249
-0.240498
-0.317253
-0.321086
-0.297621
-0.290488
-0.137576
-0.125917
-0.134647
-0.129345
-0.129572
-0.133807
-0.274355
-0.265696
-0.275814
-0.263615
-0.255168
-0.256854
-0.143102
-0.140561
-0.258086
-0.255487
-0.261051
-0.267402
-0.257199
-0.252778
-0.246509
-0.274432
-0.295095
-0.152235
-0.155485
-0.147040
-0.153327
-0.164016
-0.159217
-0.265470
-0.254756
-0.115712
-0.249458
-0.251831
-0.149231
-0.099149
-0.107007
-0.132924
-0.148927
-0.141627
-0.291127
-0.148594
-0.145756
-0.140614
-0.244376
-0.246794
-0.154057
-0.151621
-0.236303
-0.242165
-0.236013
-0.176098
-0.166507
-0.175410
-0.168487
-0.243862
-0.246956
-0.183249
-0.185653
-0.175410
-0.254956
-0.250739
-0.159364
-0.156583
-0.151452
-0.160071
-0.157875
-0.143703
-0.289082
-0.231674
-0.225499
-0.164803
-0.162344
-0.009567
-0.021048
-0.042212
-0.040911
-0.170016
-0.167328
-0.162098
-0.284478
-0.051530
-0.180629
-0.177917
-0.013092
-0.172742
-0.154322
-0.225790
-0.233599
-0.280978
-0.175448
-0.047553
-0.172995
-0.191222
-0.188604
-0.238777
-0.241260
-0.106428
-0.186043
-0.183577
-0.294429
-0.164884
-0.163255
-0.196639
-0.194107
-0.199183
-0.207208
-0.204686
-0.115652
-0.221148
-0.214960
-0.233292
-0.235811
-0.072711
-0.037860
-0.215248
-0.223076
-0.238270
-0.248821
-0.244450
-0.209740
-0.217755
-0.219208
-0.208669
-0.024285
-0.106125
-0.198141
-0.204405
-0.181187
-0.187523
-0.177267
-0.183303
-0.229725
-0.223453
-0.222798
-0.212287
-0.220275
-0.228278
-0.050632
-0.240230
-0.230771
-0.282486
-0.079754
-0.183618
-0.184461
-0.233956
-0.201794
-0.193837
-0.210604
-0.178103
-0.178691
-0.170414
-0.180931
-0.007811
-0.194614
-0.130192
-0.135068
-0.228838
-0.259367
-0.212529
-0.269550
-0.200049
-0.201971
-0.189495
-0.191433
-0.179439
-0.154587
-0.146339
-0.149551
-0.220434
-0.177991
-0.186185
-0.179985
-0.170150
-0.168725
-0.172715
-0.171249
-0.250141
-0.069897
-0.077510
-0.247111
-0.133181
-0.138275
-0.153888
-0.159120
-0.160795
-0.241297
-0.147740
-0.064664
-0.165427
-0.289555
-0.235687
-0.140358
-0.142447
-0.186272
-0.189961
-0.136088
-0.172447
-0.229963
-0.130698
-0.162695
-0.123861
-0.057642
SCALARS UY float 1
LOOKUP_TABLE default
-0.000001
-0.000001
-0.830999
-0.830999
-0.332400
-0.498600
-0.000001
-0.000001
-0.000001
-0.000001
-0.000001
-0.000001
-0.000001
-0.000001
-0.000001
-0.000001
-0.000001
-0.000001
-0.000001
-0.000001
-0.000001
-0.000001
-0.000001
-0.000001
-0.000001
-0.000001
-0.000001
-0.000001
-0.000001
-0.000001
-0.000001
-0.000001
-0.000001
-0.000001
-0.000001
-0.000001
-0.000001
-0.000001
-0.000001
-0.024931
-0.049861
-0.074791
-0.099721
-0.124651
-0.149580
-0.174510
-0.199440
-0.224370
-0.249300
-0.274230
-0.299160
-0.324090
-0.349020
-0.373950
-0.398880
-0.423810
-0.448740
-0.473670
-0.522343
-0.546085
-0.569828
-0.593571
-0.617314
-0.641057
-0.664800
-0.688542
-0.712285
-0.736028
-0.759771
-0.783514
-0.807256
-0.830999
-0.830999
-0.830999
-0.830999
-0.830999
-0.830999
-0.830999
-0.830999
-0.830999
-0.830999
-0.830999
-0.830999
-0.830999
-0.830999
-0.830999
-0.830999
-0.830999
-0.830999
-0.830999
-0.830999
-0.830999
-0.830999
-0.830999
-0.830999
-0.830999
-0.830999
-0.830999
-0.830999
-0.830999
-0.830999
-0.830999
-0.830999
-0.830999
-0.806069
-0.781139
-0.756209
-0.731279
-0.706349
-0.681420
-0.656490
-0.631560
-0.606630
-0.581700
-0.556770
-0.531840
-0.506910
-0.481980
-0.457050
-0.432120
-0.407190
-0.382260
-0.357330
-0.308657
-0.284915
-0.261172
-0.237429
-0.213686
-0.189943
-0.166200
-0.142458
-0.118715
-0.094972
-0.071229
-0.047486
-0.023744
-0.337288
-0.342177
-0.347065
-0.351953
-0.356841
-0.361730
-0.366618
-0.371506
-0.376394
-0.381282
-0.386171
-0.391059
-0.395947
-0.400835
-0.405724
-0.410612
-0.415500
-0.420388
-0.425276
-0.430165
-0.435053
-0.439941
-0.444829
-0.449718
-0.454606
-0.459494
-0.464382
-0.469270
-0.474159
-0.479047
-0.483935
-0.488823
-0.493712
-0.513214
-0.506802
-0.377976
-0.386730
-0.367397
-0.399445
-0.744230
-0.762884
-0.769779
-0.747210
-0.578360
-0.593940
-0.611721
-0.456546
-0.456884
-0.443601
-0.807697
-0.795832
-0.811234
-0.784982
-0.768380
-0.746861
-0.809050
-0.809759
-0.580589
-0.600957
-0.582950
-0.598834
-0.561522
-0.577316
-0.559038
-0.787551
-0.808575
-0.812142
-0.784479
-0.788407
-0.808480
-0.711340
-0.710058
-0.692079
-0.766508
-0.674951
-0.679156
-0.696291
-0.657962
-0.639721
-0.657963
-0.642163
-0.657485
-0.672176
-0.516193
-0.516132
-0.497092
-0.799828
-0.500935
-0.621600
-0.619161
-0.618235
-0.634001
-0.635748
-0.619583
-0.603655
-0.598009
-0.785300
-0.733965
-0.734299
-0.716375
-0.754410
-0.444563
-0.459264
-0.469876
-0.450918
-0.470174
-0.807254
-0.810387
-0.786363
-0.613076
-0.638495
-0.545802
-0.538544
-0.524290
-0.366480
-0.389924
-0.368789
-0.562100
-0.385059
-0.803413
-0.787462
-0.780679
-0.794444
-0.788675
-0.771509
-0.792188
-0.809690
-0.391854
-0.373382
-0.362189
-0.786198
-0.791266
-0.809588
-0.416865
-0.405044
-0.531750
-0.523988
-0.513789
-0.559816
-0.552456
-0.533942
-0.811862
-0.790570
-0.790663
-0.740038
-0.720943
-0.733088
-0.810205
-0.754188
-0.406538
-0.427047
-0.816154
-0.436800
-0.808522
-0.575805
-0.712530
-0.698354
-0.693177
-0.776090
-0.704956
-0.405685
-0.723967
-0.766094
-0.501535
-0.545855
-0.529318
-0.773145
-0.757406
-0.424539
-0.478787
-0.694017
-0.714438
-0.694129
-0.381017
-0.395819
-0.412272
-0.419530
-0.714114
-0.810042
-0.719519
-0.724301
-0.698787
-0.705458
-0.679953
-0.699798
-0.596238
-0.569493
-0.794056
-0.772234
-0.763096
-0.681245
-0.730145
-0.731540
-0.752048
-0.814898
-0.457144
-0.440480
-0.475064
-0.799251
-0.808503
-0.781897
-0.443577
-0.734917
-0.757518
-0.744461
-0.769518
-0.790080
-0.759239
-0.747722
-0.739633
-0.701840
-0.402657
-0.388965
-0.424525
-0.434109
-0.609093
-0.630234
-0.606684
-0.789328
-0.810626
-0.712859
-0.692189
-0.768936
-0.628280
-0.711573
-0.734917
-0.812613
-0.607942
-0.625395
-0.622301
-0.491198
-0.481688
-0.456826
-0.641323
-0.434113
-0.457281
-0.452202
-0.428448
-0.757500
-0.739614
-0.770899
-0.774129
-0.412903
-0.395311
-0.442041
-0.451025
-0.673436
-0.663319
-0.654179
-0.692187
-0.670740
-0.690419
-0.721709
-0.459203
-0.455443
-0.441555
-0.498945
-0.519305
-0.437104
-0.476068
-0.500366
-0.462217
-0.481135
-0.488028
-0.516983
-0.533948
-0.513877
-0.544023
-0.806020
-0.511694
-0.494406
-0.739123
-0.650913
-0.674874
-0.649038
-0.671983
-0.424020
-0.648310
-0.630506
-0.585235
-0.609108
-0.601047
-0.463486
-0.473121
-0.411654
-0.604873
-0.588293
-0.585136
-0.624331
-0.601271
-0.525674
-0.623042
-0.545778
-0.702297
-0.717575
-0.695362
-0.696120
-0.697102
-0.674743
-0.505220
-0.502249
-0.479605
-0.525167
-0.536822
-0.529043
-0.659811
-0.421184
-0.653755
-0.644171
-0.683111
-0.694794
-0.707011
-0.716197
-0.554861
-0.554388
-0.576880
-0.599760
-0.445585
-0.471308
-0.435267
-0.458796
-0.432514
-0.571501
-0.557386
-0.575304
-0.553461
-0.601247
-0.624183
-0.578067
-0.762835
-0.769665
-0.742006
-0.555867
-0.529703
-0.729875
-0.728737
-0.630363
-0.643105
-0.624220
-0.579740
-0.619932
-0.643661
-0.633217
-0.662476
-0.653095
-0.672687
-0.793852
-0.776549
-0.750297
-0.814747
-0.579787
-0.560030
-0.576385
-0.593495
-0.785697
-0.803585
-0.770818
-0.667624
-0.661753
-0.644846
-0.671415
-0.516530
-0.521210
-0.536160
-0.505762
-0.390088
-0.680487
-0.628505
-0.651118
-0.644298
-0.672941
-0.646693
-0.666149
-0.632165
-0.712995
-0.691079
-0.693185
-0.643326
-0.715506
-0.612700
-0.589298
-0.663990
-0.538926
-0.531666
-0.524158
-0.509826
-0.546371
-0.481202
-0.555590
-0.501457
-0.726088
-0.730202
-0.746035
-0.593553
-0.616697
-0.350744
-0.636652
-0.463205
-0.487355
-0.483028
-0.455361
-0.479701
-0.720515
-0.539342
-0.459745
-0.735830
-0.651970
-0.793484
-0.445106
-0.421407