# vtk DataFile Version 2.0
Test
ASCII
DATASET POLYDATA
POINTS 1445 float
0.000000 0.000000 0.000000
1.000000 0.000000 0.000000
1.000000 1.000000 0.000000
0.000000 1.000000 0.000000
0.000000 0.400000 0.000000
1.000000 0.600000 0.000000
0.029412 0.000000 0.000000
0.058824 0.000000 0.000000
0.088235 0.000000 0.000000
0.117647 0.000000 0.000000
0.147059 0.000000 0.000000
0.176471 0.000000 0.000000
0.205882 0.000000 0.000000
0.235294 0.000000 0.000000
0.264706 0.000000 0.000000
0.294118 0.000000 0.000000
0.323529 0.000000 0.000000
0.352941 0.000000 0.000000
0.382353 0.000000 0.000000
0.411765 0.000000 0.000000
0.441176 0.000000 0.000000
0.470588 0.000000 0.000000
0.500000 0.000000 0.000000
0.529412 0.000000 0.000000
0.558824 0.000000 0.000000
0.588235 0.000000 0.000000
0.617647 0.000000 0.000000
0.647059 0.000000 0.000000
0.676471 0.000000 0.000000
0.705882 0.000000 0.000000
0.735294 0.000000 0.000000
0.764706 0.000000 0.000000
0.794118 0.000000 0.000000
0.823529 0.000000 0.000000
0.852941 0.000000 0.000000
0.882353 0.000000 0.000000
0.911765 0.000000 0.000000
0.941176 0.000000 0.000000
0.970588 0.000000 0.000000
1.000000 0.030000 0.000000
1.000000 0.060000 0.000000
1.000000 0.090000 0.000000
1.000000 0.120000 0.000000
1.000000 0.150000 0.000000
1.000000 0.180000 0.000000
1.000000 0.210000 0.000000
1.000000 0.240000 0.000000
1.000000 0.270000 0.000000
1.000000 0.300000 0.000000
1.000000 0.330000 0.000000
1.000000 0.360000 0.000000
1.000000 0.390000 0.000000
1.000000 0.420000 0.000000
1.000000 0.450000 0.000000
1.000000 0.480000 0.000000
1.000000 0.510000 0.000000
1.000000 0.540000 0.000000
1.000000 0.570000 0.000000
1.000000 0.628571 0.000000
1.000000 0.657143 0.000000
1.000000 0.685714 0.000000
1.000000 0.714286 0.000000
1.000000 0.742857 0.000000
1.000000 0.771429 0.000000
1.000000 0.800000 0.000000
1.000000 0.828571 0.000000
1.000000 0.857143 0.000000
1.000000 0.885714 0.000000
1.000000 0.914286 0.000000
1.000000 0.942857 0.000000
1.000000 0.971429 0.000000
0.970588 1.000000 0.000000
0.941176 1.000000 0.000000
0.911765 1.000000 0.000000
0.882353 1.000000 0.000000
0.852941 1.000000 0.000000
0.823529 1.000000 0.000000
0.794118 1.000000 0.000000
0.764706 1.000000 0.000000
0.735294 1.000000 0.000000
0.705882 1.000000 0.000000
0.676471 1.000000 0.000000
0.647059 1.000000 0.000000
0.617647 1.000000 0.000000
0.588235 1.000000 0.000000
0.558824 1.000000 0.000000
0.529412 1.000000 0.000000
0.500000 1.000000 0.000000
0.470588 1.000000 0.000000
0.441176 1.000000 0.000000
0.411765 1.000000 0.000000
0.382353 1.000000 0.000000
0.352941 1.000000 0.000000
0.323529 1.000000 0.000000
0.294118 1.000000 0.000000
0.264706 1.000000 0.000000
0.235294 1.000000 0.000000
0.205882 1.000000 0.000000
0.176471 1.000000 0.000000
0.147059 1.000000 0.000000
0.117647 1.000000 0.000000
0.088235 1.000000 0.000000
0.058824 1.000000 0.000000
0.029412 1.000000 0.000000
0.000000 0.970000 0.000000
0.000000 0.940000 0.000000
0.000000 0.910000 0.000000
0.000000 0.880000 0.000000
0.000000 0.850000 0.000000
0.000000 0.820000 0.000000
0.000000 0.790000 0.000000
0.000000 0.760000 0.000000
0.000000 0.730000 0.000000
0.000000 0.700000 0.000000
0.000000 0.670000 0.000000
0.000000 0.640000 0.000000
0.000000 0.610000 0.000000
0.000000 0.580000 0.000000
0.000000 0.550000 0.000000
0.000000 0.520000 0.000000
0.000000 0.490000 0.000000
0.000000 0.460000 0.000000
0.000000 0.430000 0.000000
0.000000 0.371429 0.000000
0.000000 0.342857 0.000000
0.000000 0.314286 0.000000
0.000000 0.285714 0.000000
0.000000 0.257143 0.000000
0.000000 0.228571 0.000000
0.000000 0.200000 0.000000
0.000000 0.171429 0.000000
0.000000 0.142857 0.000000
0.000000 0.114286 0.000000
0.000000 0.085714 0.000000
0.000000 0.057143 0.000000
0.000000 0.028571 0.000000
0.029412 0.405882 0.000000
0.058824 0.411765 0.000000
0.088235 0.417647 0.000000
0.117647 0.423529 0.000000
0.147059 0.429412 0.000000
0.176471 0.435294 0.000000
0.205882 0.441176 0.000000
0.235294 0.447059 0.000000
0.264706 0.452941 0.000000
0.294118 0.458824 0.000000
0.323529 0.464706 0.000000
0.352941 0.470588 0.000000
0.382353 0.476471 0.000000
0.411765 0.482353 0.000000
0.441176 0.488235 0.000000
0.470588 0.494118 0.000000
0.500000 0.500000 0.000000
0.529412 0.505882 0.000000
0.558824 0.511765 0.000000
0.588235 0.517647 0.000000
0.617647 0.523529 0.000000
0.647059 0.529412 0.000000
0.676471 0.535294 0.000000
0.705882 0.541176 0.000000
0.735294 0.547059 0.000000
0.764706 0.552941 0.000000
0.794118 0.558824 0.000000
0.823529 0.564706 0.000000
0.852941 0.570588 0.000000
0.882353 0.576471 0.000000
0.911765 0.582353 0.000000
0.941176 0.588235 0.000000
0.970588 0.594118 0.000000
0.948492 0.617586 0.000000
0.918239 0.609871 0.000000
0.126115 0.454845 0.000000
0.100318 0.465379 0.000000
0.103006 0.442114 0.000000
0.117916 0.480680 0.000000
0.029145 0.895585 0.000000
0.046774 0.918032 0.000000
0.024990 0.926329 0.000000
0.056315 0.899171 0.000000
0.977770 0.695981 0.000000
0.963577 0.714729 0.000000
0.973827 0.736127 0.000000
0.605253 0.549394 0.000000
0.579370 0.549801 0.000000
0.570019 0.533816 0.000000
0.896809 0.971959 0.000000
0.919426 0.957680 0.000000
0.927686 0.976215 0.000000
0.899487 0.944624 0.000000
0.974081 0.924646 0.000000
0.977161 0.898750 0.000000
0.076578 0.973587 0.000000
0.102577 0.974440 0.000000
0.861693 0.698664 0.000000
0.848870 0.723174 0.000000
0.839521 0.701504 0.000000
0.820447 0.720618 0.000000
0.872237 0.675719 0.000000
0.882611 0.694724 0.000000
0.895344 0.672729 0.000000
0.606326 0.947716 0.000000
0.624868 0.973015 0.000000
0.599776 0.977307 0.000000
0.167986 0.944019 0.000000
0.199183 0.948746 0.000000
0.187884 0.972901 0.000000
0.787752 0.856005 0.000000
0.754801 0.854462 0.000000
0.778588 0.832828 0.000000
0.191471 0.922393 0.000000
0.801312 0.812216 0.000000
0.829867 0.817276 0.000000
0.805526 0.837896 0.000000
0.812775 0.791772 0.000000
0.822869 0.769821 0.000000
0.833826 0.791773 0.000000
0.849982 0.772760 0.000000
0.791421 0.791198 0.000000
0.772962 0.808877 0.000000
0.180049 0.621172 0.000000
0.160680 0.621098 0.000000
0.172158 0.598185 0.000000
0.588124 0.962489 0.000000
0.142171 0.602810 0.000000
0.827587 0.748015 0.000000
0.859778 0.745080 0.000000
0.882413 0.743965 0.000000
0.872759 0.762938 0.000000
0.894601 0.765041 0.000000
0.910115 0.745588 0.000000
0.901004 0.726420 0.000000
0.877058 0.719626 0.000000
0.632694 0.945006 0.000000
0.818411 0.883232 0.000000
0.787667 0.883633 0.000000
0.812018 0.862064 0.000000
0.808649 0.907835 0.000000
0.066636 0.534974 0.000000
0.083909 0.552665 0.000000
0.058224 0.565435 0.000000
0.037551 0.542621 0.000000
0.025720 0.565794 0.000000
0.304619 0.971425 0.000000
0.276072 0.975195 0.000000
0.284125 0.946285 0.000000
0.795087 0.737757 0.000000
0.797357 0.768346 0.000000
0.869843 0.656802 0.000000
0.840870 0.648068 0.000000
0.865462 0.630915 0.000000
0.043233 0.441011 0.000000
0.028792 0.469222 0.000000
0.020751 0.443790 0.000000
0.846918 0.676414 0.000000
0.058991 0.463368 0.000000
0.051906 0.966804 0.000000
0.071758 0.947609 0.000000
0.048298 0.939447 0.000000
0.026398 0.956010 0.000000
0.967109 0.949068 0.000000
0.946807 0.928411 0.000000
0.940173 0.953295 0.000000
0.956764 0.974357 0.000000
0.076722 0.471546 0.000000
0.082324 0.449317 0.000000
0.066669 0.435847 0.000000
0.114035 0.946088 0.000000
0.091278 0.952186 0.000000
0.128453 0.974235 0.000000
0.027019 0.501643 0.000000
0.047138 0.487417 0.000000
0.943388 0.639892 0.000000
0.923239 0.630552 0.000000
0.974491 0.618278 0.000000
0.972785 0.673666 0.000000
0.943930 0.664809 0.000000
0.968693 0.642530 0.000000
0.780685 0.976970 0.000000
0.756289 0.951349 0.000000
0.776857 0.951460 0.000000
0.935276 0.890540 0.000000
0.927168 0.867561 0.000000
0.954227 0.882176 0.000000
0.745760 0.974977 0.000000
0.952002 0.907568 0.000000
0.068063 0.489215 0.000000
0.051512 0.513895 0.000000
0.027757 0.982136 0.000000
0.023217 0.525632 0.000000
0.982410 0.972952 0.000000
0.951072 0.692907 0.000000
0.957020 0.857438 0.000000
0.937630 0.840379 0.000000
0.966912 0.834149 0.000000
0.923427 0.933924 0.000000
0.982257 0.848323 0.000000
0.092881 0.488189 0.000000
0.976737 0.871201 0.000000
0.067960 0.921895 0.000000
0.886538 0.603532 0.000000
0.918896 0.656866 0.000000
0.898227 0.636966 0.000000
0.092880 0.930380 0.000000
0.929071 0.911440 0.000000
0.081137 0.510877 0.000000
0.592772 0.576158 0.000000
0.150419 0.835159 0.000000
0.138607 0.859733 0.000000
0.125762 0.835294 0.000000
0.155304 0.458505 0.000000
0.139466 0.476317 0.000000
0.134858 0.496115 0.000000
0.109061 0.504849 0.000000
0.112238 0.859343 0.000000
0.866826 0.974780 0.000000
0.026919 0.865848 0.000000
0.348411 0.871602 0.000000
0.339654 0.840899 0.000000
0.369544 0.848927 0.000000
0.925986 0.818235 0.000000
0.909684 0.842117 0.000000
0.929360 0.717495 0.000000
0.924028 0.685311 0.000000
0.879688 0.955544 0.000000
0.875200 0.929284 0.000000
0.903901 0.918287 0.000000
0.950764 0.819790 0.000000
0.047492 0.878635 0.000000
0.069665 0.880314 0.000000
0.081712 0.904992 0.000000
0.573454 0.980624 0.000000
0.556694 0.550113 0.000000
0.094318 0.530060 0.000000
0.563246 0.571677 0.000000
0.563825 0.961795 0.000000
0.155902 0.972929 0.000000
0.577162 0.940912 0.000000
0.545227 0.533787 0.000000
0.864670 0.884377 0.000000
0.860690 0.911575 0.000000
0.840756 0.895862 0.000000
0.137227 0.926016 0.000000
0.139814 0.950758 0.000000
0.109156 0.913646 0.000000
0.884976 0.899786 0.000000
0.910807 0.890052 0.000000
0.830819 0.844574 0.000000
0.157710 0.484545 0.000000
0.180718 0.468069 0.000000
0.154331 0.510861 0.000000
0.124262 0.522394 0.000000
0.341085 0.732964 0.000000
0.323736 0.758404 0.000000
0.312899 0.730066 0.000000
0.857321 0.949854 0.000000
0.839840 0.975483 0.000000
0.053549 0.857833 0.000000
0.031143 0.832960 0.000000
0.840338 0.925315 0.000000
0.300796 0.756054 0.000000
0.080783 0.856286 0.000000
0.096939 0.884378 0.000000
0.544800 0.977874 0.000000
0.949430 0.731579 0.000000
0.955247 0.752582 0.000000
0.934712 0.748859 0.000000
0.030153 0.591093 0.000000
[...]
POINT_DATA 1445
SCALARS UX float 1
LOOKUP_TABLE default
-0.049222
0.000447
-0.000000
-0.049706
-0.049480
0.000000
-0.047762
-0.046301
-0.044841
-0.043380
-0.041919
-0.040459
-0.038998
-0.037537
-0.036077
-0.034616
-0.033155
-0.031694
-0.030234
-0.028773
-0.027312
-0.025851
-0.024390
-0.022929
-0.021469
-0.020008
-0.018547
-0.017086
-0.015625
-0.014164
-0.012703
-0.011242
-0.009780
-0.008319
-0.006858
-0.005397
-0.003936
-0.002475
-0.001014
0.000447
0.000447
0.000447
0.000447
0.000446
0.000446
0.000446
0.000445
0.000444
0.000444
0.000442
0.000441
0.000439
0.000437
0.000434
0.000429
0.000423
0.000412
0.000375
-0.000000
0.000000
-0.000000
-0.000000
-0.000000
-0.000000
-0.000000
-0.000000
-0.000000
-0.000000
-0.000000
-0.000000
-0.000000
-0.001462
-0.002925
-0.004387
-0.005849
-0.007312
-0.008774
-0.010237
-0.011700
-0.013162
-0.014625
-0.016087
-0.017550
-0.019012
-0.020475
-0.021937
-0.023399
-0.024861
-0.026323
-0.027785
-0.029246
-0.030708
-0.032170
-0.033631
-0.035093
-0.036554
-0.038015
-0.039477
-0.040938
-0.042399
-0.043861
-0.045322
-0.046783
-0.048244
-0.049706
-0.049706
-0.049706
-0.049707
-0.049707
-0.049708
-0.049709
-0.049710
-0.049711
-0.049712
-0.049714
-0.049715
-0.049717
-0.049718
-0.049720
-0.049722
-0.049724
-0.049724
-0.049706
-0.049232
-0.049219
-0.049217
-0.049218
-0.049219
-0.049219
-0.049220
-0.049221
-0.049221
-0.049222
-0.049222
-0.049222
-0.049222
-0.048014
-0.046568
-0.045109
-0.043640
-0.042174
-0.040714
-0.039253
-0.037792
-0.036329
-0.034869
-0.033400
-0.031938
-0.030474
-0.029005
-0.027551
-0.026086
-0.024635
-0.023184
-0.021720
-0.020266
-0.018798
-0.017335
-0.015875
-0.014408
-0.012950
-0.011492
-0.010036
-0.008581
-0.007131
-0.005677
-0.004227
-0.002796
-0.001395
-0.002601
-0.004097
-0.043442
-0.044736
-0.044542
-0.043863
-0.048258
-0.047382
-0.048464
-0.046909
-0.001109
-0.001815
-0.001303
-0.019633
-0.020935
-0.021325
-0.005131
-0.004006
-0.003595
-0.004998
-0.001289
-0.001136
-0.045901
-0.044609
-0.006896
-0.007529
-0.007998
-0.008944
-0.006377
-0.005855
-0.005227
-0.019576
-0.018653
-0.019901
-0.041360
-0.039810
-0.040371
-0.010557
-0.012196
-0.011014
-0.040193
-0.009885
-0.008464
-0.009674
-0.009317
-0.008816
-0.008269
-0.007467
-0.010379
-0.011296
-0.040772
-0.041734
-0.041166
-0.020480
-0.042655
-0.008584
-0.006983
-0.005856
-0.006334
-0.005247
-0.004476
-0.004932
-0.006126
-0.018265
-0.009031
-0.010560
-0.009350
-0.009515
-0.046411
-0.045552
-0.046827
-0.047855
-0.048441
-0.034571
-0.035989
-0.035590
-0.010203
-0.010086
-0.006502
-0.007944
-0.006727
-0.047558
-0.048294
-0.048683
-0.007636
-0.046794
-0.047127
-0.046141
-0.047306
-0.048394
-0.001635
-0.002645
-0.002974
-0.002150
-0.045912
-0.045616
-0.046349
-0.044040
-0.045171
-0.043324
-0.048381
-0.047383
-0.002843
-0.003852
-0.001296
-0.001361
-0.002807
-0.001575
-0.010905
-0.012118
-0.011096
-0.003218
-0.003622
-0.002276
-0.012642
-0.002387
-0.046343
-0.047163
-0.048327
-0.048568
-0.000875
-0.002442
-0.002137
-0.003102
-0.001646
-0.003807
-0.000882
-0.045110
-0.001157
-0.046330
-0.005671
-0.004060
-0.005097
-0.045091
-0.003527
-0.045692
-0.020273
-0.042235
-0.042821
-0.043460
-0.041983
-0.042789
-0.043023
-0.044305
-0.044131
-0.006621
-0.048370
-0.032397
-0.032833
-0.031347
-0.003682
-0.004492
-0.003521
-0.003794
-0.005982
-0.006205
-0.004778
-0.002449
-0.047347
-0.046246
-0.045647
-0.021210
-0.022055
-0.045036
-0.021742
-0.021688
-0.041960
-0.021026
-0.022594
-0.006730
-0.006927
-0.007919
-0.042888
-0.042759
-0.044283
-0.005720
-0.004435
-0.008415
-0.041886
-0.040739
-0.042056
-0.043549
-0.032767
-0.033627
-0.034167
-0.007094
-0.007963
-0.047047
-0.048161
-0.007939
-0.034767
-0.045694
-0.044891
-0.022634
-0.002519
-0.002228
-0.003251
-0.048220
-0.045183
-0.044258
-0.004052
-0.026103
-0.025994
-0.027561
-0.027129
-0.041747
-0.043140
-0.010495
-0.011566
-0.040623
-0.039096
-0.040749
-0.042615
-0.001303
-0.002689
-0.001310
-0.046464
-0.048590
-0.044869
-0.005312
-0.036449
-0.037460
-0.036750
-0.046643
-0.047973
-0.037906
-0.043486
-0.044219
-0.035130
-0.036262
-0.034979
-0.032229
-0.033159
-0.033552
-0.032025
-0.038632
-0.034767
-0.033885
-0.040439
-0.034137
-0.034682
-0.035421
-0.036273
-0.039248
-0.033054
-0.032296
-0.044033
-0.043730
-0.045197
-0.039917
-0.041559
-0.037855
-0.035406
-0.034730
-0.033459
-0.036063
-0.036824
-0.046230
-0.037551
-0.048402
-0.005783
-0.006641
-0.007108
-0.035472
-0.034144
-0.033273
-0.037056
-0.035844
-0.037698
-0.036158
-0.034652
-0.037729
-0.003927
-0.036566
-0.004994
-0.036691
-0.037731
-0.036629
-0.037651
-0.036246
-0.038483
-0.036429
-0.037587
-0.038507
-0.033959
-0.033767
-0.035394
-0.032593
-0.032687
-0.048264
-0.047263
-0.046816
-0.046070
-0.040515
-0.039081
-0.039295
-0.034888
-0.036727
-0.036121
-0.040152
-0.039658
-0.037375
-0.038757
-0.043558
-0.044724
-0.045052
-0.045268
-0.042019
-0.041954
-0.040637
-0.041988
-0.042836
-0.042857
-0.037106
-0.038494
-0.037790
-0.037334
-0.040528
-0.041310
-0.041768
-0.047556
-0.034215
-0.032714
-0.033197
-0.038955
-0.037402
-0.038215
-0.047164
-0.043737
-0.044828
-0.043926
-0.045425
-0.037632
-0.031744
-0.011746
-0.011557
-0.013101
-0.045955
-0.046328
-0.012780
-0.001259
-0.039888
-0.040745
-0.039118
-0.002711
-0.041375
-0.031255
-0.031797
-0.044949
-0.047240
-0.009529
-0.011000
-0.009845
-0.010657
-0.040329
-0.033420
-0.039940
-0.013360
-0.011825
-0.012953
-0.030103
-0.029604
-0.048377
-0.030788
-0.017269
-0.016965
-0.018741
-0.018387
-0.039118
-0.007861
-0.045238
-0.038495
-0.041798
-0.006106
-0.009928
-0.039252
-0.034136
-0.034203
-0.033104
-0.007040
-0.020037
-0.021413
-0.021086
-0.019730
-0.012358
-0.011556
-0.013220
-0.012252
-0.022558
-0.048231
-0.022766
-0.031936
-0.030460
-0.042682
-0.014123
-0.013843
-0.041364
-0.032620
-0.012477
-0.015886
-0.015569
-0.029178
-0.030051
-0.028510
-0.039261
-0.007161
-0.022124
-0.023022
-0.021965
-0.022502
-0.023466
-0.019492
-0.020864
-0.019858
-0.020527
-0.021029
-0.018210
-0.018437
-0.019055
-0.035382
-0.036498
-0.014451
-0.015419
-0.015358
-0.014454
-0.013543
-0.011368
-0.016741
-0.016978
-0.017585
-0.016154
-0.005432
-0.004909
-0.008209
-0.009193
-0.030513
-0.032140
-0.030923
-0.031661
-0.031635
-0.031059
-0.011452
-0.012645
-0.011193
-0.012952
-0.014131
-0.013844
-0.029744
-0.030100
-0.013695
-0.014059
-0.013293
-0.012405
-0.013833
-0.014447
-0.015325
-0.011424
-0.008550
-0.028477
-0.028021
-0.029198
-0.028334
-0.026844
-0.027511
-0.012660
-0.014157
-0.033564
-0.014898
-0.014566
-0.028891
-0.035883
-0.034788
-0.031162
-0.028946
-0.029966
-0.009098
-0.028976
-0.029373
-0.030089
-0.015611
-0.015272
-0.028215
-0.028556
-0.016737
-0.015929
-0.016791
-0.025145
-0.026483
-0.025243
-0.026206
-0.015678
-0.015245
-0.024139
-0.023803
-0.025232
-0.014154
-0.014738
-0.027473
-0.027862
-0.028576
-0.027378
-0.027686
-0.029657
-0.009362
-0.017393
-0.018258
-0.026716
-0.027060
-0.048376
-0.046775
-0.043821
-0.044002
-0.025986
-0.026362
-0.027091
-0.010023
-0.042524
-0.024505
-0.024884
-0.047884
-0.025605
-0.028176
-0.018204
-0.017116
-0.010513
-0.025230
-0.043080
-0.025574
-0.023027
-0.023393
-0.016390
-0.016042
-0.034860
-0.023751
-0.024097
-0.008616
-0.026702
-0.026939
-0.022272
-0.022627
-0.021916
-0.020797
-0.021150
-0.033574
-0.018863
-0.019728
-0.017153
-0.016801
-0.039567
-0.044433
-0.019676
-0.018585
-0.016485
-0.015014
-0.015620
-0.020443
-0.019325
-0.019139
-0.020609
-0.046324
-0.034902
-0.022078
-0.021201
-0.024445
-0.023559
-0.024990
-0.024146
-0.017671
-0.018549
-0.018619
-0.020086
-0.018972
-0.017856
-0.042652
-0.016205
-0.017506
-0.010307
-0.038593
-0.024095
-0.023980
-0.017084
-0.021551
-0.022676
-0.020334
-0.024863
-0.024781
-0.025935
-0.024467
-0.048622
-0.022552
-0.031561
-0.030879
-0.017800
-0.013543
-0.020057
-0.012123
-0.021807
-0.021531
-0.023280
-0.023002
-0.024683
-0.028155
-0.029305
-0.028855
-0.018972
-0.024894
-0.023751
-0.024619
-0.025986
-0.026182
-0.025623
-0.025825
-0.014821
-0.039958
-0.038895
-0.015223
-0.031140
-0.030428
-0.028248
-0.027518
-0.027286
-0.016035
-0.029105
-0.040689
-0.026638
-0.009297
-0.016818
-0.030140
-0.029844
-0.023736
-0.023229
-0.030731
-0.025668
-0.017617
-0.031483
-0.027024
-0.032437
-0.041668
-0.046672
-0.045179
-0.005863
-0.004572
-0.004774
-0.005437
-0.001001
-0.001877
-0.000795
-0.002351
-0.048113
-0.047409
-0.047919
-0.029635
-0.028332
-0.027944
-0.044098
-0.045221
-0.045631
-0.044231
-0.047935
-0.048088
-0.003357
-0.004649
-0.042349
-0.041713
-0.041248
-0.040301
-0.042871
-0.043387
-0.044018
-0.029671
-0.030592
-0.029346
-0.007898
-0.009448
-0.008886
-0.038681
-0.037044
-0.038225
-0.009065
-0.039353
-0.040772
-0.039563
-0.039922
-0.040423
-0.040968
-0.041770
-0.038862
-0.037945
-0.008503
-0.007542
-0.008113
-0.028767
-0.006624
-0.040657
-0.042255
-0.043379
-0.042900
-0.043985
-0.044755
-0.044302
-0.043112
-0.030981
-0.040204
-0.038677
-0.039886
-0.039719
-0.002879
-0.003734
-0.002457
-0.001433
-0.000842
-0.014685
-0.013267
-0.013667
-0.039042
-0.039156
-0.042752
-0.041313
-0.042534
-0.001769
-0.001014
-0.000640
-0.041614
-0.002519
-0.002132
-0.003118
-0.001952
-0.000864
-0.047589
-0.046581
-0.046251
-0.047075
-0.003395
-0.003700
-0.002979
-0.005218
-0.004087
-0.005934
-0.000916
-0.001919
-0.046408
-0.045409
-0.047988
-0.047865
-0.046432
-0.047666
-0.038331
-0.037119
-0.038141
-0.046008
-0.045605
-0.046949
-0.036596
-0.046838
-0.002958
-0.002131
-0.000932
-0.000723
-0.048349
-0.046787
-0.047087
-0.046124
-0.047578
-0.045420
-0.048340
-0.004191
-0.048066
-0.002929
-0.043604
-0.045188
-0.044162
-0.004167
-0.045700
-0.003603
-0.028993
-0.007026
-0.006439
-0.005801
-0.007315
-0.006510
-0.006272
-0.004991
-0.005129
-0.042609
-0.000891
-0.016861
-0.016426
-0.017911
-0.045545
-0.044736
-0.045710
-0.045444
-0.043248
-0.043025
-0.044450
-0.046776
-0.001913
-0.003014
-0.003612
-0.028039
-0.027212
-0.004255
-0.027524
-0.027560
-0.007298
-0.028223
-0.026674
-0.042501
-0.042304
-0.041314
-0.006370
-0.006498
-0.004976
-0.043510
-0.044793
-0.040819
-0.007408
-0.008555
-0.007235
-0.005742
-0.016497
-0.015636
-0.015098
-0.042137
-0.041269
-0.002214
-0.001101
-0.041293
-0.014496
-0.003566
-0.004369
-0.026615
-0.046707
-0.046997
-0.045977
-0.001060
-0.004099
-0.005029
-0.045177
-0.023167
-0.023275
-0.021709
-0.022142
-0.007512
-0.006119
-0.038741
-0.037672
-0.008667
-0.010192
-0.008538
-0.006672
-0.047919
-0.046536
-0.047912
-0.002797
-0.000673
-0.004393
-0.043917
-0.012830
-0.011821
-0.012530
-0.002635
-0.001303
-0.011376
-0.005796
-0.005060
-0.014147
-0.013015
-0.014296
-0.017041
-0.016111
-0.015720
-0.017244
-0.010626
-0.014506
-0.015388
-0.008820
-0.015125
-0.014579
-0.013842
-0.012988
-0.010038
-0.016208
-0.016967
-0.005236
-0.005536
-0.004070
-0.009365
-0.007723
-0.011429
-0.013860
-0.014536
-0.015807
-0.013202
-0.012442
-0.003045
-0.011713
-0.000870
-0.043447
-0.042590
-0.042124
-0.013787
-0.015115
-0.015987
-0.012219
-0.013430
-0.011581
-0.013115
-0.014619
-0.011544
-0.045301
-0.012715
-0.044237
-0.012573
-0.011530
-0.012631
-0.011609
-0.013013
-0.010788
-0.012841
-0.011681
-0.010759
-0.015318
-0.015508
-0.013885
-0.016682
-0.016589
-0.001005
-0.002008
-0.002453
-0.003202
-0.008752
-0.010184
-0.009974
-0.014369
-0.012530
-0.013138
-0.009119
-0.009616
-0.011883
-0.010502
-0.005707
-0.004540
-0.004213
-0.004001
-0.007246
-0.007309
-0.008627
-0.007274
-0.006428
-0.006405
-0.012151
-0.010764
-0.011468
-0.011923
-0.008741
-0.007961
-0.007501
-0.001711
-0.015041
-0.016542
-0.016059
-0.010307
-0.011860
-0.011048
-0.002099
-0.005539
-0.004447
-0.005348
-0.003853
-0.011652
-0.017515
-0.037499
-0.037686
-0.036145
-0.003307
-0.002936
-0.036464
-0.047963
-0.009372
-0.008516
-0.010143
-0.046514
-0.007885
-0.018008
-0.017468
-0.004313
-0.002033
-0.039731
-0.038261
-0.039420
-0.038600
-0.008951
-0.015849
-0.009337
-0.035881
-0.037413
-0.036286
-0.019161
-0.019658
-0.000982
-0.018474
-0.031999
-0.032301
-0.030524
-0.030881
-0.010161
-0.041372
-0.004035
-0.010786
-0.007461
-0.043127
-0.039307
-0.010032
-0.015141
-0.015074
-0.016172
-0.042231
-0.029228
-0.027852
-0.028178
-0.029532
-0.036901
-0.037698
-0.036036
-0.037000
-0.026709
-0.001033
-0.026499
-0.017325
-0.018800
-0.006593
-0.035117
-0.035397
-0.007909
-0.016653
-0.036764
-0.033382
-0.033696
-0.020093
-0.019221
-0.020761
-0.009997
-0.042073
-0.027131
-0.026235
-0.027292
-0.026756
-0.025790
-0.029762
-0.028391
-0.029398
-0.028726
-0.028228
-0.031042
-0.030817
-0.030197
-0.013898
-0.012784
-0.034797
-0.033830
-0.033892
-0.034793
-0.035706
-0.037870
-0.032509
-0.032275
-0.031665
-0.033094
-0.043798
-0.044329
-0.041055
-0.040061
-0.018743
-0.017116
-0.018334
-0.017595
-0.017639
-0.018214
-0.037814
-0.036624
-0.038080
-0.036313
-0.035135
-0.035426
-0.019513
-0.019159
-0.035548
-0.035185
-0.035958
-0.036844
-0.035420
-0.034805
-0.033930
-0.037824
-0.040721
-0.020786
-0.021239
-0.020062
-0.020935
-0.022425
-0.021757
-0.036579
-0.035084
-0.015693
-0.034345
-0.034676
-0.020368
-0.013385
-0.014480
-0.018094
-0.020323
-0.019305
-0.040151
-0.020279
-0.019883
-0.019166
-0.033635
-0.033973
-0.021041
-0.020701
-0.032510
-0.033325
-0.032466
-0.024114
-0.022776
-0.024017
-0.023053
-0.033565
-0.033997
-0.025112
-0.025448
-0.024019
-0.035105
-0.034519
-0.021781
-0.021393
-0.020678
-0.021879
-0.021573
-0.019597
-0.039872
-0.031862
-0.031000
-0.022540
-0.022196
-0.000890
-0.002491
-0.005442
-0.005260
-0.023267
-0.022892
-0.022163
-0.039248
-0.006743
-0.024747
-0.024369
-0.001381
-0.023647
-0.021078
-0.031044
-0.032133
-0.038736
-0.024024
-0.006190
-0.023682
-0.026224
-0.025859
-0.032855
-0.033202
-0.014398
-0.025502
-0.025157
-0.040617
-0.022551
-0.022323
-0.026979
-0.026626
-0.027334
-0.028453
-0.028101
-0.015685
-0.030394
-0.029531
-0.032091
-0.032442
-0.009696
-0.004838
-0.029574
-0.030665
-0.032778
-0.034249
-0.033641
-0.028806
-0.029924
-0.030122
-0.028653
-0.002943
-0.014356
-0.027185
-0.028059
-0.024820
-0.025704
-0.024275
-0.025117
-0.031588
-0.030713
-0.030628
-0.029162
-0.030276
-0.031391
-0.006620
-0.033053
-0.031739
-0.038946
-0.010683
-0.025162
-0.025279
-0.032177
-0.027699
-0.026585
-0.028924
-0.024394
-0.024488
-0.023322
-0.024788
-0.000646
-0.026697
-0.017711
-0.018392
-0.031463
-0.035719
-0.029194
-0.037139
-0.027452
-0.027722
-0.025981
-0.026253
-0.024579
-0.021112
-0.019963
-0.020411
-0.030292
-0.024373
-0.025515
-0.024649
-0.023281
-0.023083
-0.023641
-0.023437
-0.034447
-0.009303
-0.010365
-0.034018
-0.018129
-0.018839
-0.021016
-0.021746
-0.021979
-0.033208
-0.020159
-0.008574
-0.022625
-0.039937
-0.032425
-0.019129
-0.019421
-0.025533
-0.026039
-0.018535
-0.023600
-0.031627
-0.017783
-0.022242
-0.016830
-0.007594
SCALARS UY float 1
LOOKUP_TABLE default
-0.000000
-0.000000
-0.116000
-0.116000
-0.046400
-0.069606
-0.000000
-0.000000
-0.000000
-0.000000
-0.000000
-0.000000
-0.000000
-0.000000
-0.000000
-0.000000
-0.000000
-0.000000
-0.000000
-0.000000
-0.000000
-0.000000
-0.000000
-0.000000
-0.000000
-0.000000
-0.000000
-0.000000
-0.000000
-0.000000
-0.000000
-0.000000
-0.000000
-0.000000
-0.000000
-0.000000
-0.000000
-0.000000
-0.000000
-0.003477
-0.006954
-0.010432
-0.013909
-0.017386
-0.020863
-0.024340
-0.027817
-0.031294
-0.034771
-0.038247
-0.041724
-0.045201
-0.048678
-0.052154
-0.055631
-0.059107
-0.062585
-0.066068
-0.072952
-0.076269
-0.079580
-0.082890
-0.086201
-0.089512
-0.092823
-0.096134
-0.099445
-0.102756
-0.106067
-0.109378
-0.112689
-0.116000
-0.116000
-0.116000
-0.116000
-0.116000
-0.116000
-0.116000
-0.116000
-0.116000
-0.116000
-0.116000
-0.116000
-0.116000
-0.116000
-0.116000
-0.116000
-0.116000
-0.116000
-0.116000
-0.116000
-0.116000
-0.116000
-0.116000
-0.116000
-0.116000
-0.116000
-0.116000
-0.116000
-0.116000
-0.116000
-0.116000
-0.116000
-0.116000
-0.112522
-0.109044
-0.105566
-0.102088
-0.098610
-0.095132
-0.091654
-0.088177
-0.084699
-0.081222
-0.077744
-0.074267
-0.070789
-0.067312
-0.063835
-0.060357
-0.056880
-0.053402
-0.049919
-0.043041
-0.039727
-0.036416
-0.033105
-0.029795
-0.026484
-0.023174
-0.019863
-0.016553
-0.013242
-0.009932
-0.006621
-0.003311
-0.047080
-0.047770
-0.048453
-0.049127
-0.049820
-0.050496
-0.051185
-0.051861
-0.052545
-0.053225
-0.053906
-0.054588
-0.055263
-0.055953
-0.056636
-0.057308
-0.057997
-0.058685
-0.059358
-0.060040
-0.060731
-0.061406
-0.062088
-0.062769
-0.063450
-0.064133
-0.064811
-0.065501
-0.066178
-0.066872
-0.067548
-0.068236
-0.068930
-0.071659
-0.070771
-0.052808
-0.054028
-0.051322
-0.055805
-0.103895
-0.106498
-0.107459
-0.104311
-0.080767
-0.082939
-0.085420
-0.063764
-0.063812
-0.061945
-0.112750
-0.111095
-0.113244
-0.109582
-0.107268
-0.104267
-0.112938
-0.113037
-0.081069
-0.083911
-0.081398
-0.083614
-0.078410
-0.080613
-0.078062
-0.109939
-0.112872
-0.113369
-0.109511
-0.110059
-0.112859
-0.099309
-0.099129
-0.096622
-0.107004
-0.094232
-0.094820
-0.097210
-0.091863
-0.089318
-0.091863
-0.089660
-0.091796
-0.093845
-0.072090
-0.072081
-0.069426
-0.111652
-0.069961
-0.086790
-0.086451
-0.086323
-0.088522
-0.088767
-0.086513
-0.084289
-0.083500
-0.109625
-0.102465
-0.102511
-0.100011
-0.105317
-0.062096
-0.064148
-0.065627
-0.062982
-0.065667
-0.112688
-0.113125
-0.109774
-0.085600
-0.089147
-0.076217
-0.075204
-0.073218
-0.051206
-0.054475
-0.051523
-0.078489
-0.053797
-0.112152
-0.109926
-0.108980
-0.110900
-0.110098
-0.107704
-0.110587
-0.113028
-0.054745
-0.052165
-0.050593
-0.109750
-0.110457
-0.113013
-0.058232
-0.056584
-0.074250
-0.073167
-0.071737
-0.078178
-0.077144
-0.074560
-0.113330
-0.110360
-0.110373
-0.103315
-0.100652
-0.102346
-0.113099
-0.105288
-0.056793
-0.059653
-0.113929
-0.061012
-0.112865
-0.080406
-0.099479
-0.097502
-0.096780
-0.108342
-0.098423
-0.056675
-0.101074
-0.106946
-0.070040
-0.076221
-0.073915
-0.107929
-0.105737
-0.059304
-0.066873
-0.096892
-0.099740
-0.096907
-0.053233
-0.055301
-0.057595
-0.058607
-0.099695
-0.113077
-0.100448
-0.101117
-0.097558
-0.098488
-0.094935
-0.097702
-0.083256
-0.079522
-0.110848
-0.107804
-0.106530
-0.095116
-0.101930
-0.102125
-0.104986
-0.113754
-0.063850
-0.061528
-0.066351
-0.111571
-0.112862
-0.109150
-0.061952
-0.102599
-0.105751
-0.103930
-0.107424
-0.110292
-0.105990
-0.104385
-0.103258
-0.097984
-0.056253
-0.054347
-0.059304
-0.060641
-0.085047
-0.087996
-0.084711
-0.110188
-0.113158
-0.099519
-0.096635
-0.107344
-0.087724
-0.099340
-0.102597
-0.113435
-0.084891
-0.087326
-0.086893
-0.068599
-0.067275
-0.063808
-0.089546
-0.060637
-0.063872
-0.063165
-0.059846
-0.105747
-0.103252
-0.107617
-0.108067
-0.057685
-0.055231
-0.061748
-0.063000
-0.094027
-0.092616
-0.091342
-0.096636
-0.093643
-0.096390
-0.100758
-0.064142
-0.063618
-0.061681
-0.069681
-0.072520
-0.061061
-0.066493
-0.069881
-0.064563
-0.067201
-0.068162
-0.072200
-0.074566
-0.071767
-0.075972
-0.112516
-0.071463
-0.069052
-0.103184
-0.090880
-0.094222
-0.090619
-0.093819
-0.059236
-0.090517
-0.088034
-0.081718
-0.085048
-0.083923
-0.064739
-0.066082
-0.057511
-0.084459
-0.082146
-0.081706
-0.087173
-0.083956
-0.073409
-0.086993
-0.076212
-0.098050
-0.100180
-0.097082
-0.097186
-0.097323
-0.094204
-0.070560
-0.070146
-0.066988
-0.073342
-0.074967
-0.073882
-0.092125
-0.058838
-0.091279
-0.089940
-0.095371
-0.097001
-0.098705
-0.099986
-0.077483
-0.077417
-0.080554
-0.083745
-0.062243
-0.065830
-0.060805
-0.064085
-0.060418
-0.079800
-0.077832
-0.080332
-0.077285
-0.083953
-0.087152
-0.080720
-0.106492
-0.107444
-0.103586
-0.077623
-0.073974
-0.101894
-0.101735
-0.088013
-0.089790
-0.087156
-0.080951
-0.086558
-0.089868
-0.088412
-0.092493
-0.091184
-0.093917
-0.110818
-0.108405
-0.104743
-0.113733
-0.080959
-0.078204
-0.080485
-0.082868
-0.109681
-0.112176
-0.107605
-0.093211
-0.092392
-0.090034
-0.093738
-0.072136
-0.072788
-0.074873
-0.070633
-0.054485
-0.095005
-0.087752
-0.090907
-0.089955
-0.093951
-0.090290
-0.093004
-0.088272
-0.099540
-0.096482
-0.096776
-0.089827
-0.099890
-0.085550
-0.082286
-0.092703
-0.075257
-0.074244
-0.073197
-0.071198
-0.076295
-0.067210
-0.077585
-0.070035
-0.101365
-0.101939
-0.104148
-0.082880
-0.086107
-0.048988
-0.088891
-0.064697
-0.068067
-0.067464
-0.063598
-0.067001
-0.100590
-0.075317
-0.064218
-0.102725
-0.091029
-0.110767
-0.062176
-0.058871
-0.055844