# vtk DataFile Version 2.0
Test
ASCII
DATASET POLYDATA
POINTS 1445 float
0.000000 0.000000 0.000000
1.000000 0.000000 0.000000
1.000000 1.000000 0.000000
0.000000 1.000000 0.000000
0.000000 0.400000 0.000000
1.000000 0.600000 0.000000
0.029412 0.000000 0.000000
0.058824 0.000000 0.000000
0.088235 0.000000 0.000000
0.117647 0.000000 0.000000
0.147059 0.000000 0.000000
0.176471 0.000000 0.000000
0.205882 0.000000 0.000000
0.235294 0.000000 0.000000
0.264706 0.000000 0.000000
0.294118 0.000000 0.000000
0.323529 0.000000 0.000000
0.352941 0.000000 0.000000
0.382353 0.000000 0.000000
0.411765 0.000000 0.000000
0.441176 0.000000 0.000000
0.470588 0.000000 0.000000
0.500000 0.000000 0.000000
0.529412 0.000000 0.000000
0.558824 0.000000 0.000000
0.588235 0.000000 0.000000
0.617647 0.000000 0.000000
0.647059 0.000000 0.000000
0.676471 0.000000 0.000000
0.705882 0.000000 0.000000
0.735294 0.000000 0.000000
0.764706 0.000000 0.000000
0.794118 0.000000 0.000000
0.823529 0.000000 0.000000
0.852941 0.000000 0.000000
0.882353 0.000000 0.000000
0.911765 0.000000 0.000000
0.941176 0.000000 0.000000
0.970588 0.000000 0.000000
1.000000 0.030000 0.000000
1.000000 0.060000 0.000000
1.000000 0.090000 0.000000
1.000000 0.120000 0.000000
1.000000 0.150000 0.000000
1.000000 0.180000 0.000000
1.000000 0.210000 0.000000
1.000000 0.240000 0.000000
1.000000 0.270000 0.000000
1.000000 0.300000 0.000000
1.000000 0.330000 0.000000
1.000000 0.360000 0.000000
1.000000 0.390000 0.000000
1.000000 0.420000 0.000000
1.000000 0.450000 0.000000
1.000000 0.480000 0.000000
1.000000 0.510000 0.000000
1.000000 0.540000 0.000000
1.000000 0.570000 0.000000
1.000000 0.628571 0.000000
1.000000 0.657143 0.000000
1.000000 0.685714 0.000000
1.000000 0.714286 0.000000
1.000000 0.742857 0.000000
1.000000 0.771429 0.000000
1.000000 0.800000 0.000000
1.000000 0.828571 0.000000
1.000000 0.857143 0.000000
1.000000 0.885714 0.000000
1.000000 0.914286 0.000000
1.000000 0.942857 0.000000
1.000000 0.971429 0.000000
0.970588 1.000000 0.000000
0.941176 1.000000 0.000000
0.911765 1.000000 0.000000
0.882353 1.000000 0.000000
0.852941 1.000000 0.000000
0.823529 1.000000 0.000000
0.794118 1.000000 0.000000
0.764706 1.000000 0.000000
0.735294 1.000000 0.000000
0.705882 1.000000 0.000000
0.676471 1.000000 0.000000
0.647059 1.000000 0.000000
0.617647 1.000000 0.000000
0.588235 1.000000 0.000000
0.558824 1.000000 0.000000
0.529412 1.000000 0.000000
0.500000 1.000000 0.000000
0.470588 1.000000 0.000000
0.441176 1.000000 0.000000
0.411765 1.000000 0.000000
0.382353 1.000000 0.000000
0.352941 1.000000 0.000000
0.323529 1.000000 0.000000
0.294118 1.000000 0.000000
0.264706 1.000000 0.000000
0.235294 1.000000 0.000000
0.205882 1.000000 0.000000
0.176471 1.000000 0.000000
0.147059 1.000000 0.000000
0.117647 1.000000 0.000000
0.088235 1.000000 0.000000
0.058824 1.000000 0.000000
0.029412 1.000000 0.000000
0.000000 0.970000 0.000000
0.000000 0.940000 0.000000
0.000000 0.910000 0.000000
0.000000 0.880000 0.000000
0.000000 0.850000 0.000000
0.000000 0.820000 0.000000
0.000000 0.790000 0.000000
0.000000 0.760000 0.000000
0.000000 0.730000 0.000000
0.000000 0.700000 0.000000
0.000000 0.670000 0.000000
0.000000 0.640000 0.000000
0.000000 0.610000 0.000000
0.000000 0.580000 0.000000
0.000000 0.550000 0.000000
0.000000 0.520000 0.000000
0.000000 0.490000 0.000000
0.000000 0.460000 0.000000
0.000000 0.430000 0.000000
0.000000 0.371429 0.000000
0.000000 0.342857 0.000000
0.000000 0.314286 0.000000
0.000000 0.285714 0.000000
0.000000 0.257143 0.000000
0.000000 0.228571 0.000000
0.000000 0.200000 0.000000
0.000000 0.171429 0.000000
0.000000 0.142857 0.000000
0.000000 0.114286 0.000000
0.000000 0.085714 0.000000
0.000000 0.057143 0.000000
0.000000 0.028571 0.000000
0.029412 0.405882 0.000000
0.058824 0.411765 0.000000
0.088235 0.417647 0.000000
0.117647 0.423529 0.000000
0.147059 0.429412 0.000000
0.176471 0.435294 0.000000
0.205882 0.441176 0.000000
0.235294 0.447059 0.000000
0.264706 0.452941 0.000000
0.294118 0.458824 0.000000
0.323529 0.464706 0.000000
0.352941 0.470588 0.000000
0.382353 0.476471 0.000000
0.411765 0.482353 0.000000
0.441176 0.488235 0.000000
0.470588 0.494118 0.000000
0.500000 0.500000 0.000000
0.529412 0.505882 0.000000
0.558824 0.511765 0.000000
0.588235 0.517647 0.000000
0.617647 0.523529 0.000000
0.647059 0.529412 0.000000
0.676471 0.535294 0.000000
0.705882 0.541176 0.000000
0.735294 0.547059 0.000000
0.764706 0.552941 0.000000
0.794118 0.558824 0.000000
0.823529 0.564706 0.000000
0.852941 0.570588 0.000000
0.882353 0.576471 0.000000
0.911765 0.582353 0.000000
0.941176 0.588235 0.000000
0.970588 0.594118 0.000000
0.948492 0.617586 0.000000
0.918239 0.609871 0.000000
0.126115 0.454845 0.000000
0.100318 0.465379 0.000000
0.103006 0.442114 0.000000
0.117916 0.480680 0.000000
0.029145 0.895585 0.000000
0.046774 0.918032 0.000000
0.024990 0.926329 0.000000
0.056315 0.899171 0.000000
0.977770 0.695981 0.000000
0.963577 0.714729 0.000000
0.973827 0.736127 0.000000
0.605253 0.549394 0.000000
0.579370 0.549801 0.000000
0.570019 0.533816 0.000000
0.896809 0.971959 0.000000
0.919426 0.957680 0.000000
0.927686 0.976215 0.000000
0.899487 0.944624 0.000000
0.974081 0.924646 0.000000
0.977161 0.898750 0.000000
0.076578 0.973587 0.000000
0.102577 0.974440 0.000000
0.861693 0.698664 0.000000
0.848870 0.723174 0.000000
0.839521 0.701504 0.000000
0.820447 0.720618 0.000000
0.872237 0.675719 0.000000
0.882611 0.694724 0.000000
0.895344 0.672729 0.000000
0.606326 0.947716 0.000000
0.624868 0.973015 0.000000
0.599776 0.977307 0.000000
0.167986 0.944019 0.000000
0.199183 0.948746 0.000000
0.187884 0.972901 0.000000
0.787752 0.856005 0.000000
0.754801 0.854462 0.000000
0.778588 0.832828 0.000000
0.191471 0.922393 0.000000
0.801312 0.812216 0.000000
0.829867 0.817276 0.000000
0.805526 0.837896 0.000000
0.812775 0.791772 0.000000
0.822869 0.769821 0.000000
0.833826 0.791773 0.000000
0.849982 0.772760 0.000000
0.791421 0.791198 0.000000
0.772962 0.808877 0.000000
0.180049 0.621172 0.000000
0.160680 0.621098 0.000000
0.172158 0.598185 0.000000
0.588124 0.962489 0.000000
0.142171 0.602810 0.000000
0.827587 0.748015 0.000000
0.859778 0.745080 0.000000
0.882413 0.743965 0.000000
0.872759 0.762938 0.000000
0.894601 0.765041 0.000000
0.910115 0.745588 0.000000
0.901004 0.726420 0.000000
0.877058 0.719626 0.000000
0.632694 0.945006 0.000000
0.818411 0.883232 0.000000
0.787667 0.883633 0.000000
0.812018 0.862064 0.000000
0.808649 0.907835 0.000000
0.066636 0.534974 0.000000
0.083909 0.552665 0.000000
0.058224 0.565435 0.000000
0.037551 0.542621 0.000000
0.025720 0.565794 0.000000
0.304619 0.971425 0.000000
0.276072 0.975195 0.000000
0.284125 0.946285 0.000000
0.795087 0.737757 0.000000
0.797357 0.768346 0.000000
0.869843 0.656802 0.000000
0.840870 0.648068 0.000000
0.865462 0.630915 0.000000
0.043233 0.441011 0.000000
0.028792 0.469222 0.000000
0.020751 0.443790 0.000000
0.846918 0.676414 0.000000
0.058991 0.463368 0.000000
0.051906 0.966804 0.000000
0.071758 0.947609 0.000000
0.048298 0.939447 0.000000
0.026398 0.956010 0.000000
0.967109 0.949068 0.000000
0.946807 0.928411 0.000000
0.940173 0.953295 0.000000
0.956764 0.974357 0.000000
0.076722 0.471546 0.000000
0.082324 0.449317 0.000000
0.066669 0.435847 0.000000
0.114035 0.946088 0.000000
0.091278 0.952186 0.000000
0.128453 0.974235 0.000000
0.027019 0.501643 0.000000
0.047138 0.487417 0.000000
0.943388 0.639892 0.000000
0.923239 0.630552 0.000000
0.974491 0.618278 0.000000
0.972785 0.673666 0.000000
0.943930 0.664809 0.000000
0.968693 0.642530 0.000000
0.780685 0.976970 0.000000
0.756289 0.951349 0.000000
0.776857 0.951460 0.000000
0.935276 0.890540 0.000000
0.927168 0.867561 0.000000
0.954227 0.882176 0.000000
0.745760 0.974977 0.000000
0.952002 0.907568 0.000000
0.068063 0.489215 0.000000
0.051512 0.513895 0.000000
0.027757 0.982136 0.000000
0.023217 0.525632 0.000000
0.982410 0.972952 0.000000
0.951072 0.692907 0.000000
0.957020 0.857438 0.000000
0.937630 0.840379 0.000000
0.966912 0.834149 0.000000
0.923427 0.933924 0.000000
0.982257 0.848323 0.000000
0.092881 0.488189 0.000000
0.976737 0.871201 0.000000
0.067960 0.921895 0.000000
0.886538 0.603532 0.000000
0.918896 0.656866 0.000000
0.898227 0.636966 0.000000
0.092880 0.930380 0.000000
0.929071 0.911440 0.000000
0.081137 0.510877 0.000000
0.592772 0.576158 0.000000
0.150419 0.835159 0.000000
0.138607 0.859733 0.000000
0.125762 0.835294 0.000000
0.155304 0.458505 0.000000
0.139466 0.476317 0.000000
0.134858 0.496115 0.000000
0.109061 0.504849 0.000000
0.112238 0.859343 0.000000
0.866826 0.974780 0.000000
0.026919 0.865848 0.000000
0.348411 0.871602 0.000000
0.339654 0.840899 0.000000
0.369544 0.848927 0.000000
0.925986 0.818235 0.000000
0.909684 0.842117 0.000000
0.929360 0.717495 0.000000
0.924028 0.685311 0.000000
0.879688 0.955544 0.000000
0.875200 0.929284 0.000000
0.903901 0.918287 0.000000
0.950764 0.819790 0.000000
0.047492 0.878635 0.000000
0.069665 0.880314 0.000000
0.081712 0.904992 0.000000
0.573454 0.980624 0.000000
0.556694 0.550113 0.000000
0.094318 0.530060 0.000000
0.563246 0.571677 0.000000
0.563825 0.961795 0.000000
0.155902 0.972929 0.000000
0.577162 0.940912 0.000000
0.545227 0.533787 0.000000
0.864670 0.884377 0.000000
0.860690 0.911575 0.000000
0.840756 0.895862 0.000000
0.137227 0.926016 0.000000
0.139814 0.950758 0.000000
0.109156 0.913646 0.000000
0.884976 0.899786 0.000000
0.910807 0.890052 0.000000
0.830819 0.844574 0.000000
0.157710 0.484545 0.000000
0.180718 0.468069 0.000000
0.154331 0.510861 0.000000
0.124262 0.522394 0.000000
0.341085 0.732964 0.000000
0.323736 0.758404 0.000000
0.312899 0.730066 0.000000
0.857321 0.949854 0.000000
0.839840 0.975483 0.000000
0.053549 0.857833 0.000000
0.031143 0.832960 0.000000
0.840338 0.925315 0.000000
0.300796 0.756054 0.000000
0.080783 0.856286 0.000000
0.096939 0.884378 0.000000
0.544800 0.977874 0.000000
0.949430 0.731579 0.000000
0.955247 0.752582 0.000000
0.934712 0.748859 0.000000
0.030153 0.591093 0.000000
[...]
POINT_DATA 1445
SCALARS UX float 1
LOOKUP_TABLE default
-0.351857
-0.000000
0.000000
-0.351857
-0.351857
0.000000
-0.341508
-0.331159
-0.320810
-0.310462
-0.300113
-0.289764
-0.279415
-0.269067
-0.258718
-0.248369
-0.238021
-0.227672
-0.217323
-0.206974
-0.196626
-0.186277
-0.175928
-0.165580
-0.155231
-0.144882
-0.134533
-0.124185
-0.113836
-0.103487
-0.093138
-0.082790
-0.072441
-0.062092
-0.051744
-0.041395
-0.031046
-0.020697
-0.010349
-0.000000
-0.000000
-0.000000
-0.000000
-0.000000
-0.000000
-0.000000
-0.000000
-0.000000
-0.000000
-0.000000
-0.000000
-0.000000
-0.000000
-0.000000
-0.000000
-0.000000
0.000000
0.000000
-0.000000
-0.000000
0.000000
-0.000000
-0.000000
-0.000000
-0.000000
0.000000
-0.000000
0.000000
-0.000000
0.000000
-0.000000
-0.010349
-0.020697
-0.031046
-0.041395
-0.051744
-0.062092
-0.072441
-0.082790
-0.093138
-0.103487
-0.113836
-0.124185
-0.134533
-0.144882
-0.155231
-0.165580
-0.175928
-0.186277
-0.196626
-0.206974
-0.217323
-0.227672
-0.238021
-0.248369
-0.258718
-0.269067
-0.279415
-0.289764
-0.300113
-0.310462
-0.320810
-0.331159
-0.341508
-0.351857
-0.351857
-0.351857
-0.351857
-0.351857
-0.351857
-0.351857
-0.351857
-0.351857
-0.351857
-0.351857
-0.351857
-0.351857
-0.351857
-0.351857
-0.351857
-0.351857
-0.351857
-0.351857
-0.351857
-0.351857
-0.351857
-0.351857
-0.351857
-0.351857
-0.351857
-0.351857
-0.351857
-0.351857
-0.351857
-0.351857
-0.351857
-0.341508
-0.331159
-0.320810
-0.310462
-0.300113
-0.289764
-0.279415
-0.269067
-0.258718
-0.248369
-0.238021
-0.227672
-0.217323
-0.206974
-0.196626
-0.186277
-0.175928
-0.165580
-0.155231
-0.144882
-0.134533
-0.124185
-0.113836
-0.103487
-0.093138
-0.082790
-0.072441
-0.062092
-0.051744
-0.041395
-0.031046
-0.020697
-0.010349
-0.018124
-0.028768
-0.307482
-0.316559
-0.315613
-0.310367
-0.341602
-0.335399
-0.343064
-0.332042
-0.007822
-0.012816
-0.009209
-0.138894
-0.148001
-0.151292
-0.036308
-0.028350
-0.025444
-0.035366
-0.009120
-0.008036
-0.324912
-0.315764
-0.048664
-0.053176
-0.056465
-0.063177
-0.044954
-0.041304
-0.036824
-0.138517
-0.131993
-0.140822
-0.292750
-0.281773
-0.285748
-0.074681
-0.086275
-0.077905
-0.284486
-0.069910
-0.059862
-0.068427
-0.065876
-0.062325
-0.058469
-0.052785
-0.073390
-0.079885
-0.288505
-0.295320
-0.291282
-0.144921
-0.301833
-0.060665
-0.049338
-0.041374
-0.044771
-0.037085
-0.031627
-0.034832
-0.043258
-0.129239
-0.063893
-0.074711
-0.066143
-0.067328
-0.328410
-0.322333
-0.331370
-0.338644
-0.342807
-0.244674
-0.254719
-0.251885
-0.072100
-0.071301
-0.045797
-0.055991
-0.047338
-0.336645
-0.341726
-0.344555
-0.053863
-0.331100
-0.333593
-0.326608
-0.334863
-0.342568
-0.011573
-0.018716
-0.021050
-0.015213
-0.324861
-0.322890
-0.328399
-0.311733
-0.319740
-0.306659
-0.342350
-0.335271
-0.019919
-0.027009
-0.008976
-0.009576
-0.019729
-0.011016
-0.077167
-0.085751
-0.078514
-0.022773
-0.025626
-0.016105
-0.089456
-0.016889
-0.327908
-0.333732
-0.342090
-0.343688
-0.006189
-0.017216
-0.015123
-0.021945
-0.011642
-0.026943
-0.006243
-0.319176
-0.008185
-0.327944
-0.039922
-0.028537
-0.035809
-0.319176
-0.024957
-0.323308
-0.143286
-0.298931
-0.303087
-0.307606
-0.297212
-0.302784
-0.304406
-0.313483
-0.312365
-0.046858
-0.342385
-0.229266
-0.232347
-0.221830
-0.026042
-0.031778
-0.024855
-0.026731
-0.042333
-0.043912
-0.033813
-0.017324
-0.335146
-0.327344
-0.323106
-0.150083
-0.155980
-0.318670
-0.153675
-0.153471
-0.297001
-0.148778
-0.160015
-0.047617
-0.049017
-0.056031
-0.303572
-0.302662
-0.313449
-0.040472
-0.031383
-0.059528
-0.296365
-0.288270
-0.297554
-0.308134
-0.231843
-0.237948
-0.241761
-0.050203
-0.056353
-0.333015
-0.340899
-0.056178
-0.246019
-0.323433
-0.317748
-0.160165
-0.017793
-0.015747
-0.022972
-0.341247
-0.319730
-0.313166
-0.028641
-0.184715
-0.183808
-0.194910
-0.192051
-0.295488
-0.305352
-0.074264
-0.081836
-0.287404
-0.276610
-0.288304
-0.301526
-0.009218
-0.019018
-0.009265
-0.328883
-0.343933
-0.317583
-0.037581
-0.257852
-0.265009
-0.259978
-0.330082
-0.339510
-0.268162
-0.307711
-0.312912
-0.248506
-0.256537
-0.247453
-0.227988
-0.234583
-0.237356
-0.226556
-0.273430
-0.245960
-0.239706
-0.286221
-0.241567
-0.245431
-0.250657
-0.256703
-0.277670
-0.233893
-0.228516
-0.311628
-0.309496
-0.319881
-0.282423
-0.294061
-0.267834
-0.250531
-0.245739
-0.236737
-0.255193
-0.260576
-0.327166
-0.265737
-0.342564
-0.040913
-0.046983
-0.050281
-0.251038
-0.241630
-0.235455
-0.262175
-0.253589
-0.266707
-0.255822
-0.245159
-0.266956
-0.027767
-0.258682
-0.035307
-0.259647
-0.267030
-0.259230
-0.266470
-0.256522
-0.272306
-0.257756
-0.265972
-0.272497
-0.240203
-0.238853
-0.250378
-0.230527
-0.231208
-0.341596
-0.334499
-0.331342
-0.326044
-0.286717
-0.276573
-0.278070
-0.246915
-0.259938
-0.255639
-0.284126
-0.280616
-0.264522
-0.274307
-0.308280
-0.316545
-0.318861
-0.320375
-0.297379
-0.296929
-0.287598
-0.297173
-0.303174
-0.303332
-0.262625
-0.272449
-0.267463
-0.264241
-0.286799
-0.292330
-0.295584
-0.336591
-0.242153
-0.231524
-0.234942
-0.275694
-0.264690
-0.270444
-0.333832
-0.309506
-0.317236
-0.310852
-0.321456
-0.266654
-0.224633
-0.083036
-0.081719
-0.092634
-0.325270
-0.327904
-0.090380
-0.008898
-0.282313
-0.288377
-0.276852
-0.019169
-0.292843
-0.221137
-0.224963
-0.318149
-0.334325
-0.067194
-0.077604
-0.069415
-0.075214
-0.285350
-0.236443
-0.282602
-0.094517
-0.083662
-0.091649
-0.212968
-0.209450
-0.342930
-0.217840
-0.122146
-0.119859
-0.132439
-0.130224
-0.276771
-0.055616
-0.320150
-0.272346
-0.295845
-0.043169
-0.070255
-0.277703
-0.241517
-0.242480
-0.234489
-0.049536
-0.141611
-0.151354
-0.149055
-0.139459
-0.087245
-0.081607
-0.093386
-0.086564
-0.159447
-0.341384
-0.160949
-0.225978
-0.215530
-0.302038
-0.099938
-0.097953
-0.292705
-0.230740
-0.088254
-0.112335
-0.109954
-0.206343
-0.212574
-0.201721
-0.277882
-0.050642
-0.156503
-0.162847
-0.155358
-0.159154
-0.166005
-0.137857
-0.147569
-0.140431
-0.145201
-0.148724
-0.128785
-0.130376
-0.134782
-0.250345
-0.258449
-0.102181
-0.109036
-0.108589
-0.102220
-0.095740
-0.080433
-0.118394
-0.120048
-0.124378
-0.114253
-0.038421
-0.034634
-0.057817
-0.064864
-0.215936
-0.227455
-0.218830
-0.224068
-0.223844
-0.219659
-0.080803
-0.089358
-0.079361
-0.091414
-0.099759
-0.098094
-0.210476
-0.212987
-0.096877
-0.099444
-0.093947
-0.087673
-0.097752
-0.102120
-0.108314
-0.080727
-0.060313
-0.201453
-0.198243
-0.206585
-0.200375
-0.189814
-0.194556
-0.089581
-0.100166
-0.237537
-0.105400
-0.103056
-0.204421
-0.253901
-0.246137
-0.220532
-0.204722
-0.211934
-0.064233
-0.205051
-0.207854
-0.212935
-0.110421
-0.108032
-0.199653
-0.202060
-0.118397
-0.112606
-0.118684
-0.177878
-0.187353
-0.178558
-0.185397
-0.110929
-0.107872
-0.170813
-0.168438
-0.178557
-0.099969
-0.104135
-0.194410
-0.197158
-0.202227
-0.193712
-0.195881
-0.209882
-0.066253
-0.122971
-0.129071
-0.189037
-0.191466
-0.342405
-0.331062
-0.310153
-0.311438
-0.183886
-0.186542
-0.191709
-0.070802
-0.300947
-0.173401
-0.176081
-0.338922
-0.181193
-0.199391
-0.128784
-0.121069
-0.074260
-0.178519
-0.304876
-0.180943
-0.162936
-0.165522
-0.115953
-0.113500
-0.246709
-0.168052
-0.170489
-0.060970
-0.188957
-0.190566
-0.157584
-0.160085
-0.155070
-0.147142
-0.149634
-0.237597
-0.133370
-0.139483
-0.121372
-0.118883
-0.280021
-0.314452
-0.139199
-0.131465
-0.116453
-0.106029
-0.110348
-0.144641
-0.136721
-0.135287
-0.145699
-0.327864
-0.247009
-0.156100
-0.149911
-0.172849
-0.166590
-0.176722
-0.170759
-0.124896
-0.131093
-0.131739
-0.142125
-0.134233
-0.126325
-0.301834
-0.114517
-0.123862
-0.072770
-0.273062
-0.170449
-0.169615
-0.120715
-0.152490
-0.160352
-0.143787
-0.175897
-0.175316
-0.183494
-0.173103
-0.344139
-0.159584
-0.223231
-0.218413
-0.125772
-0.095611
-0.141885
-0.085550
-0.154215
-0.152316
-0.164642
-0.162727
-0.174577
-0.199130
-0.207278
-0.204105
-0.134075
-0.176007
-0.167912
-0.174038
-0.183754
-0.185162
-0.181220
-0.182668
-0.104726
-0.282801
-0.275280
-0.107719
-0.220278
-0.215246
-0.199820
-0.194651
-0.192997
-0.113463
-0.205894
-0.287970
-0.188420
-0.065786
-0.119006
-0.213188
-0.211124
-0.167826
-0.164182
-0.217406
-0.181484
-0.124661
-0.222731
-0.191120
-0.229486
-0.294908
-0.333733
-0.323089
-0.044374
-0.035298
-0.036243
-0.041490
-0.010255
-0.016458
-0.008793
-0.019815
-0.344035
-0.339041
-0.342647
-0.212962
-0.203855
-0.200565
-0.315548
-0.323506
-0.326412
-0.316490
-0.342737
-0.343820
-0.026944
-0.036092
-0.303192
-0.298680
-0.295391
-0.288680
-0.306902
-0.310552
-0.315033
-0.213340
-0.219864
-0.211035
-0.059107
-0.070084
-0.066108
-0.277176
-0.265582
-0.273951
-0.067370
-0.281947
-0.291994
-0.283430
-0.285980
-0.289532
-0.293387
-0.299072
-0.278467
-0.271972
-0.063351
-0.056536
-0.060575
-0.206935
-0.050024
-0.291192
-0.302519
-0.310483
-0.307086
-0.314771
-0.320230
-0.317024
-0.308599
-0.222618
-0.287963
-0.277146
-0.285714
-0.284529
-0.023446
-0.029524
-0.020486
-0.013213
-0.009050
-0.107182
-0.097138
-0.099971
-0.279757
-0.280555
-0.306060
-0.295866
-0.304518
-0.015212
-0.010131
-0.007301
-0.297994
-0.020757
-0.018263
-0.025249
-0.016994
-0.009288
-0.340283
-0.333140
-0.330806
-0.336644
-0.026995
-0.028966
-0.023458
-0.040124
-0.032117
-0.045197
-0.009507
-0.016586
-0.331937
-0.324848
-0.342881
-0.342281
-0.332128
-0.340841
-0.274689
-0.266105
-0.273342
-0.329083
-0.326230
-0.335751
-0.262400
-0.334968
-0.023949
-0.018125
-0.009766
-0.008169
-0.345667
-0.334641
-0.336734
-0.329911
-0.340214
-0.324914
-0.345613
-0.032681
-0.343671
-0.023912
-0.311934
-0.323320
-0.316047
-0.032680
-0.326900
-0.028548
-0.208571
-0.052926
-0.048770
-0.044250
-0.054645
-0.049072
-0.047451
-0.038374
-0.039492
-0.304998
-0.009471
-0.122591
-0.119510
-0.130027
-0.325814
-0.320078
-0.327001
-0.325125
-0.309524
-0.307945
-0.318044
-0.334533
-0.016710
-0.024512
-0.028751
-0.201774
-0.195876
-0.033186
-0.198182
-0.198385
-0.054855
-0.203078
-0.191842
-0.304240
-0.302839
-0.295825
-0.048284
-0.049195
-0.038407
-0.311385
-0.320473
-0.292329
-0.055491
-0.063587
-0.054302
-0.043722
-0.120013
-0.113909
-0.110095
-0.301654
-0.295503
-0.018841
-0.010958
-0.295678
-0.105837
-0.028424
-0.034109
-0.191691
-0.334063
-0.336110
-0.328885
-0.010609
-0.032126
-0.038691
-0.323215
-0.167141
-0.168048
-0.156947
-0.159805
-0.056369
-0.046505
-0.277593
-0.270020
-0.064452
-0.075247
-0.063552
-0.050330
-0.342639
-0.332838
-0.342591
-0.022973
-0.007924
-0.034274
-0.314276
-0.094004
-0.086848
-0.091879
-0.021774
-0.012346
-0.083695
-0.044146
-0.038945
-0.103350
-0.095320
-0.104403
-0.123869
-0.117274
-0.114501
-0.125301
-0.078427
-0.105896
-0.112151
-0.065636
-0.110289
-0.106425
-0.101199
-0.095153
-0.074187
-0.117964
-0.123341
-0.040228
-0.042360
-0.031975
-0.069434
-0.057795
-0.084022
-0.101325
-0.106118
-0.115119
-0.096664
-0.091280
-0.024690
-0.086120
-0.009293
-0.310944
-0.304873
-0.301576
-0.100819
-0.110226
-0.116401
-0.089682
-0.098267
-0.085150
-0.096035
-0.106698
-0.084900
-0.324090
-0.093175
-0.316550
-0.092209
-0.084826
-0.092627
-0.085386
-0.095334
-0.079551
-0.094101
-0.085884
-0.079359
-0.111653
-0.113004
-0.101479
-0.121330
-0.120649
-0.010261
-0.017358
-0.020514
-0.025812
-0.065139
-0.075283
-0.073787
-0.104941
-0.091918
-0.096218
-0.067730
-0.071240
-0.087334
-0.077549
-0.043577
-0.035312
-0.032995
-0.031482
-0.054477
-0.054927
-0.064258
-0.054683
-0.048683
-0.048524
-0.089232
-0.079407
-0.084394
-0.087616
-0.065057
-0.059526
-0.056273
-0.015266
-0.109704
-0.120332
-0.116915
-0.076163
-0.087166
-0.081413
-0.018025
-0.042351
-0.034621
-0.041004
-0.030401
-0.085203
-0.127223
-0.268821
-0.270138
-0.259222
-0.026586
-0.023952
-0.261476
-0.342958
-0.069543
-0.063480
-0.075004
-0.332688
-0.059013
-0.130720
-0.126894
-0.033708
-0.017532
-0.284663
-0.274253
-0.282441
-0.276643
-0.066507
-0.115414
-0.069255
-0.257339
-0.268195
-0.260208
-0.138888
-0.142406
-0.008927
-0.134016
-0.229710
-0.231997
-0.219418
-0.221632
-0.075085
-0.296240
-0.031707
-0.079511
-0.056012
-0.308688
-0.281601
-0.074153
-0.110339
-0.109376
-0.117367
-0.302321
-0.210245
-0.200503
-0.202802
-0.212397
-0.264612
-0.270250
-0.258471
-0.265292
-0.192410
-0.010472
-0.190907
-0.125879
-0.136327
-0.049818
-0.251919
-0.253904
-0.059151
-0.121117
-0.263602
-0.239522
-0.241902
-0.145514
-0.139282
-0.150135
-0.073975
-0.301214
-0.195353
-0.189009
-0.196498
-0.192703
-0.185851
-0.213999
-0.204288
-0.211426
-0.206655
-0.203133
-0.223072
-0.221480
-0.217075
-0.101512
-0.093408
-0.249675
-0.242821
-0.243267
-0.249637
-0.256116
-0.271424
-0.233463
-0.231808
-0.227479
-0.237604
-0.313435
-0.317222
-0.294039
-0.286993
-0.135920
-0.124402
-0.133026
-0.127789
-0.128012
-0.132197
-0.271054
-0.262499
-0.272495
-0.260443
-0.252097
-0.253763
-0.141380
-0.138870
-0.254980
-0.252412
-0.257910
-0.264184
-0.254104
-0.249736
-0.243542
-0.271130
-0.291544
-0.150403
-0.153614
-0.145271
-0.151482
-0.162042
-0.157301
-0.262276
-0.251690
-0.114320
-0.246456
-0.248800
-0.147435
-0.097956
-0.105719
-0.131324
-0.147134
-0.139922
-0.287623
-0.146806
-0.144002
-0.138922
-0.241435
-0.243824
-0.152204
-0.149796
-0.233459
-0.239251
-0.233173
-0.173978
-0.164504
-0.173299
-0.166459
-0.240928
-0.243984
-0.181044
-0.183419
-0.173299
-0.251888
-0.247722
-0.157446
-0.154698
-0.149629
-0.158145
-0.155975
-0.141974
-0.285604
-0.228886
-0.222785
-0.162819
-0.160390
-0.009452
-0.020795
-0.041704
-0.040418
-0.167970
-0.165315
-0.160147
-0.281054
-0.050910
-0.178456
-0.175776
-0.012934
-0.170663
-0.152465
-0.223073
-0.230788
-0.277597
-0.173337
-0.046981
-0.170914
-0.188921
-0.186335
-0.235903
-0.238356
-0.105148
-0.183805
-0.181368
-0.290886
-0.162900
-0.161291
-0.194273
-0.191772
-0.196786
-0.204715
-0.202223
-0.114260
-0.218487
-0.212374
-0.230485
-0.232973
-0.071836
-0.037405
-0.212658
-0.220391
-0.235403
-0.245827
-0.241509
-0.207216
-0.215135
-0.216570
-0.206158
-0.023993
-0.104847
-0.195757
-0.201946
-0.179007
-0.185266
-0.175134
-0.181098
-0.226960
-0.220764
-0.220117
-0.209732
-0.217624
-0.225531
-0.050023
-0.237339
-0.227994
-0.279086
-0.078794
-0.181408
-0.182241
-0.231141
-0.199366
-0.191504
-0.208069
-0.175960
-0.176541
-0.168363
-0.178753
-0.007717
-0.192272
-0.128625
-0.133443
-0.226084
-0.256246
-0.209972
-0.266306
-0.197642
-0.199541
-0.187214
-0.189130
-0.177280
-0.152727
-0.144578
-0.147751
-0.217782
-0.175849
-0.183944
-0.177819
-0.168103
-0.166694
-0.170637
-0.169188
-0.247131
-0.069056
-0.076577
-0.244137
-0.131578
-0.136611
-0.152036
-0.157205
-0.158860
-0.238393
-0.145962
-0.063886
-0.163436
-0.286070
-0.232851
-0.138669
-0.140732
-0.184031
-0.187675
-0.134450
-0.170372
-0.227195
-0.129125
-0.160737
-0.122371
-0.056948
SCALARS UY float 1
LOOKUP_TABLE default
-0.000001
-0.000001
-0.820999
-0.820999
-0.328400
-0.492600
-0.000001
-0.000001
-0.000001
-0.000001
-0.000001
-0.000001
-0.000001
-0.000001
-0.000001
-0.000001
-0.000001
-0.000001
-0.000001
-0.000001
-0.000001
-0.000001
-0.000001
-0.000001
-0.000001
-0.000001
-0.000001
-0.000001
-0.000001
-0.000001
-0.000001
-0.000001
-0.000001
-0.000001
-0.000001
-0.000001
-0.000001
-0.000001
-0.000001
-0.024631
-0.049261
-0.073891
-0.098521
-0.123151
-0.147780
-0.172410
-0.197040
-0.221670
-0.246300
-0.270930
-0.295560
-0.320190
-0.344820
-0.369450
-0.394080
-0.418710
-0.443340
-0.467970
-0.516057
-0.539514
-0.562971
-0.586428
-0.609885
-0.633342
-0.656800
-0.680257
-0.703714
-0.727171
-0.750628
-0.774085
-0.797542
-0.820999
-0.820999
-0.820999
-0.820999
-0.820999
-0.820999
-0.820999
-0.820999
-0.820999
-0.820999
-0.820999
-0.820999
-0.820999
-0.820999
-0.820999
-0.820999
-0.820999
-0.820999
-0.820999
-0.820999
-0.820999
-0.820999
-0.820999
-0.820999
-0.820999
-0.820999
-0.820999
-0.820999
-0.820999
-0.820999
-0.820999
-0.820999
-0.820999
-0.796369
-0.771739
-0.747109
-0.722479
-0.697849
-0.673220
-0.648590
-0.623960
-0.599330
-0.574700
-0.550070
-0.525440
-0.500810
-0.476180
-0.451550
-0.426920
-0.402290
-0.377660
-0.353030
-0.304943
-0.281486
-0.258029
-0.234572
-0.211115
-0.187658
-0.164200
-0.140743
-0.117286
-0.093829
-0.070372
-0.046915
-0.023458
-0.333230
-0.338059
-0.342888
-0.347718
-0.352547
-0.357377
-0.362206
-0.367035
-0.371865
-0.376694
-0.381524
-0.386353
-0.391182
-0.396012
-0.400841
-0.405671
-0.410500
-0.415329
-0.420159
-0.424988
-0.429818
-0.434647
-0.439476
-0.444306
-0.449135
-0.453965
-0.458794
-0.463623
-0.468453
-0.473282
-0.478112
-0.482941
-0.487770
-0.507038
-0.500704
-0.373428
-0.382076
-0.362976
-0.394639
-0.735274
-0.753704
-0.760516
-0.738218
-0.571400
-0.586792
-0.604360
-0.451052
-0.451386
-0.438263
-0.797978
-0.786255
-0.801472
-0.775535
-0.759133
-0.737873
-0.799314
-0.800015
-0.573603
-0.593726
-0.575935
-0.591627
-0.554765
-0.570369
-0.552311
-0.778074
-0.798844
-0.802369
-0.775039
-0.778920
-0.798751
-0.702780
-0.701513
-0.683751
-0.757284
-0.666829
-0.670983
-0.687912
-0.650044
-0.632023
-0.650045
-0.634435
-0.649573
-0.664088
-0.509982
-0.509921
-0.491110
-0.790203
-0.494907
-0.614120
-0.611710
-0.610795
-0.626372
-0.628098
-0.612128
-0.596390
-0.590813
-0.775850
-0.725133
-0.725462
-0.707754
-0.745332
-0.439213
-0.453738
-0.464222
-0.445492
-0.464516
-0.797539
-0.800635
-0.776900
-0.605698
-0.630812
-0.539234
-0.532064
-0.517981
-0.362070
-0.385231
-0.364352
-0.555336
-0.380425
-0.793745
-0.777986
-0.771285
-0.784884
-0.779184
-0.762225
-0.782655
-0.799946
-0.387139
-0.368889
-0.357831
-0.776737
-0.781744
-0.799846
-0.411849
-0.400169
-0.525351
-0.517683
-0.507606
-0.553080
-0.545808
-0.527517
-0.802092
-0.781056
-0.781148
-0.731133
-0.712267
-0.724266
-0.800455
-0.745113
-0.401646
-0.421908
-0.806333
-0.431544
-0.798793
-0.568876
-0.703956
-0.689950
-0.684836
-0.766751
-0.696473
-0.400804
-0.715255
-0.756875
-0.495500
-0.539287
-0.522949
-0.763841
-0.748291
-0.419430
-0.473025
-0.685665
-0.705840
-0.685776
-0.376432
-0.391056
-0.407310
-0.414481
-0.705520
-0.800294
-0.710861
-0.715585
-0.690378
-0.696969
-0.671771
-0.691377
-0.589063
-0.562640
-0.784501
-0.762941
-0.753913
-0.673047
-0.721359
-0.722737
-0.742998
-0.805091
-0.451643
-0.435179
-0.469347
-0.789633
-0.798774
-0.772488
-0.438239
-0.726073
-0.748402
-0.735502
-0.760258
-0.780572
-0.750103
-0.738724
-0.730732
-0.693395
-0.397811
-0.384284
-0.419416
-0.428886
-0.601763
-0.622650
-0.599384
-0.779830
-0.800871
-0.704281
-0.683860
-0.759683
-0.620720
-0.703010
-0.726074
-0.802834
-0.600626
-0.617869
-0.614813
-0.485287
-0.475892
-0.451329
-0.633606
-0.428889
-0.451779
-0.446761
-0.423293
-0.748385
-0.730713
-0.761622
-0.764813
-0.407934
-0.390554
-0.436721
-0.445597
-0.665332
-0.655336
-0.646307
-0.683858
-0.662668
-0.682111
-0.713025
-0.453678
-0.449962
-0.436242
-0.492941
-0.513056
-0.431845
-0.470340
-0.494344
-0.456654
-0.475345
-0.482156
-0.510762
-0.527522
-0.507693
-0.537476
-0.796321
-0.505536
-0.488457
-0.730229
-0.643080
-0.666753
-0.641228
-0.663897
-0.418918
-0.640508
-0.622919
-0.578192
-0.601778
-0.593814
-0.457909
-0.467428
-0.406701
-0.597594
-0.581213
-0.578095
-0.616818
-0.594036
-0.519348
-0.615545
-0.539210
-0.693846
-0.708940
-0.686994
-0.687744
-0.688713
-0.666623
-0.499141
-0.496205
-0.473833
-0.518847
-0.530362
-0.522676
-0.651871
-0.416116
-0.645888
-0.636420
-0.674890
-0.686433
-0.698503
-0.707579
-0.548184
-0.547717
-0.569938
-0.592543
-0.440223
-0.465636
-0.430029
-0.453275
-0.427309
-0.564624
-0.550678
-0.568381
-0.546801
-0.594012
-0.616671
-0.571111
-0.753655
-0.760403
-0.733077
-0.549178
-0.523329
-0.721091
-0.719967
-0.622777
-0.635366
-0.616708
-0.572764
-0.612471
-0.635915
-0.625597
-0.654504
-0.645236
-0.664592
-0.784299
-0.767204
-0.741268
-0.804943
-0.572810
-0.553291
-0.569449
-0.586353
-0.776242
-0.793915
-0.761542
-0.659590
-0.653790
-0.637086
-0.663336
-0.510314
-0.514938
-0.529708
-0.499676
-0.385394
-0.672298
-0.620942
-0.643283
-0.636544
-0.664843
-0.638911
-0.658132
-0.624558
-0.704415
-0.682762
-0.684843
-0.635585
-0.706896
-0.605327
-0.582207
-0.655999
-0.532441
-0.525268
-0.517850
-0.503691
-0.539797
-0.475411
-0.548905
-0.495423
-0.717350
-0.721415
-0.737057
-0.586411
-0.609275
-0.346523
-0.628991
-0.457631
-0.481490
-0.477215
-0.449881
-0.473928
-0.711844
-0.532852
-0.454212
-0.726975
-0.644124
-0.783935
-0.439750
-0.416336