# vtk DataFile Version 2.0
Test
ASCII
DATASET POLYDATA
POINTS 1445 float
0.000000 0.000000 0.000000
1.000000 0.000000 0.000000
1.000000 1.000000 0.000000
0.000000 1.000000 0.000000
0.000000 0.400000 0.000000
1.000000 0.600000 0.000000
0.029412 0.000000 0.000000
0.058824 0.000000 0.000000
0.088235 0.000000 0.000000
0.117647 0.000000 0.000000
0.147059 0.000000 0.000000
0.176471 0.000000 0.000000
0.205882 0.000000 0.000000
0.235294 0.000000 0.000000
0.264706 0.000000 0.000000
0.294118 0.000000 0.000000
0.323529 0.000000 0.000000
0.352941 0.000000 0.000000
0.382353 0.000000 0.000000
0.411765 0.000000 0.000000
0.441176 0.000000 0.000000
0.470588 0.000000 0.000000
0.500000 0.000000 0.000000
0.529412 0.000000 0.000000
0.558824 0.000000 0.000000
0.588235 0.000000 0.000000
0.617647 0.000000 0.000000
0.647059 0.000000 0.000000
0.676471 0.000000 0.000000
0.705882 0.000000 0.000000
0.735294 0.000000 0.000000
0.764706 0.000000 0.000000
0.794118 0.000000 0.000000
0.823529 0.000000 0.000000
0.852941 0.000000 0.000000
0.882353 0.000000 0.000000
0.911765 0.000000 0.000000
0.941176 0.000000 0.000000
0.970588 0.000000 0.000000
1.000000 0.030000 0.000000
1.000000 0.060000 0.000000
1.000000 0.090000 0.000000
1.000000 0.120000 0.000000
1.000000 0.150000 0.000000
1.000000 0.180000 0.000000
1.000000 0.210000 0.000000
1.000000 0.240000 0.000000
1.000000 0.270000 0.000000
1.000000 0.300000 0.000000
1.000000 0.330000 0.000000
1.000000 0.360000 0.000000
1.000000 0.390000 0.000000
1.000000 0.420000 0.000000
1.000000 0.450000 0.000000
1.000000 0.480000 0.000000
1.000000 0.510000 0.000000
1.000000 0.540000 0.000000
1.000000 0.570000 0.000000
1.000000 0.628571 0.000000
1.000000 0.657143 0.000000
1.000000 0.685714 0.000000
1.000000 0.714286 0.000000
1.000000 0.742857 0.000000
1.000000 0.771429 0.000000
1.000000 0.800000 0.000000
1.000000 0.828571 0.000000
1.000000 0.857143 0.000000
1.000000 0.885714 0.000000
1.000000 0.914286 0.000000
1.000000 0.942857 0.000000
1.000000 0.971429 0.000000
0.970588 1.000000 0.000000
0.941176 1.000000 0.000000
0.911765 1.000000 0.000000
0.882353 1.000000 0.000000
0.852941 1.000000 0.000000
0.823529 1.000000 0.000000
0.794118 1.000000 0.000000
0.764706 1.000000 0.000000
0.735294 1.000000 0.000000
0.705882 1.000000 0.000000
0.676471 1.000000 0.000000
0.647059 1.000000 0.000000
0.617647 1.000000 0.000000
0.588235 1.000000 0.000000
0.558824 1.000000 0.000000
0.529412 1.000000 0.000000
0.500000 1.000000 0.000000
0.470588 1.000000 0.000000
0.441176 1.000000 0.000000
0.411765 1.000000 0.000000
0.382353 1.000000 0.000000
0.352941 1.000000 0.000000
0.323529 1.000000 0.000000
0.294118 1.000000 0.000000
0.264706 1.000000 0.000000
0.235294 1.000000 0.000000
0.205882 1.000000 0.000000
0.176471 1.000000 0.000000
0.147059 1.000000 0.000000
0.117647 1.000000 0.000000
0.088235 1.000000 0.000000
0.058824 1.000000 0.000000
0.029412 1.000000 0.000000
0.000000 0.970000 0.000000
0.000000 0.940000 0.000000
0.000000 0.910000 0.000000
0.000000 0.880000 0.000000
0.000000 0.850000 0.000000
0.000000 0.820000 0.000000
0.000000 0.790000 0.000000
0.000000 0.760000 0.000000
0.000000 0.730000 0.000000
0.000000 0.700000 0.000000
0.000000 0.670000 0.000000
0.000000 0.640000 0.000000
0.000000 0.610000 0.000000
0.000000 0.580000 0.000000
0.000000 0.550000 0.000000
0.000000 0.520000 0.000000
0.000000 0.490000 0.000000
0.000000 0.460000 0.000000
0.000000 0.430000 0.000000
0.000000 0.371429 0.000000
0.000000 0.342857 0.000000
0.000000 0.314286 0.000000
0.000000 0.285714 0.000000
0.000000 0.257143 0.000000
0.000000 0.228571 0.000000
0.000000 0.200000 0.000000
0.000000 0.171429 0.000000
0.000000 0.142857 0.000000
0.000000 0.114286 0.000000
0.000000 0.085714 0.000000
0.000000 0.057143 0.000000
0.000000 0.028571 0.000000
0.029412 0.405882 0.000000
0.058824 0.411765 0.000000
0.088235 0.417647 0.000000
0.117647 0.423529 0.000000
0.147059 0.429412 0.000000
0.176471 0.435294 0.000000
0.205882 0.441176 0.000000
0.235294 0.447059 0.000000
0.264706 0.452941 0.000000
0.294118 0.458824 0.000000
0.323529 0.464706 0.000000
0.352941 0.470588 0.000000
0.382353 0.476471 0.000000
0.411765 0.482353 0.000000
0.441176 0.488235 0.000000
0.470588 0.494118 0.000000
0.500000 0.500000 0.000000
0.529412 0.505882 0.000000
0.558824 0.511765 0.000000
0.588235 0.517647 0.000000
0.617647 0.523529 0.000000
0.647059 0.529412 0.000000
0.676471 0.535294 0.000000
0.705882 0.541176 0.000000
0.735294 0.547059 0.000000
0.764706 0.552941 0.000000
0.794118 0.558824 0.000000
0.823529 0.564706 0.000000
0.852941 0.570588 0.000000
0.882353 0.576471 0.000000
0.911765 0.582353 0.000000
0.941176 0.588235 0.000000
0.970588 0.594118 0.000000
0.948492 0.617586 0.000000
0.918239 0.609871 0.000000
0.126115 0.454845 0.000000
0.100318 0.465379 0.000000
0.103006 0.442114 0.000000
0.117916 0.480680 0.000000
0.029145 0.895585 0.000000
0.046774 0.918032 0.000000
0.024990 0.926329 0.000000
0.056315 0.899171 0.000000
0.977770 0.695981 0.000000
0.963577 0.714729 0.000000
0.973827 0.736127 0.000000
0.605253 0.549394 0.000000
0.579370 0.549801 0.000000
0.570019 0.533816 0.000000
0.896809 0.971959 0.000000
0.919426 0.957680 0.000000
0.927686 0.976215 0.000000
0.899487 0.944624 0.000000
0.974081 0.924646 0.000000
0.977161 0.898750 0.000000
0.076578 0.973587 0.000000
0.102577 0.974440 0.000000
0.861693 0.698664 0.000000
0.848870 0.723174 0.000000
0.839521 0.701504 0.000000
0.820447 0.720618 0.000000
0.872237 0.675719 0.000000
0.882611 0.694724 0.000000
0.895344 0.672729 0.000000
0.606326 0.947716 0.000000
0.624868 0.973015 0.000000
0.599776 0.977307 0.000000
0.167986 0.944019 0.000000
0.199183 0.948746 0.000000
0.187884 0.972901 0.000000
0.787752 0.856005 0.000000
0.754801 0.854462 0.000000
0.778588 0.832828 0.000000
0.191471 0.922393 0.000000
0.801312 0.812216 0.000000
0.829867 0.817276 0.000000
0.805526 0.837896 0.000000
0.812775 0.791772 0.000000
0.822869 0.769821 0.000000
0.833826 0.791773 0.000000
0.849982 0.772760 0.000000
0.791421 0.791198 0.000000
0.772962 0.808877 0.000000
0.180049 0.621172 0.000000
0.160680 0.621098 0.000000
0.172158 0.598185 0.000000
0.588124 0.962489 0.000000
0.142171 0.602810 0.000000
0.827587 0.748015 0.000000
0.859778 0.745080 0.000000
0.882413 0.743965 0.000000
0.872759 0.762938 0.000000
0.894601 0.765041 0.000000
0.910115 0.745588 0.000000
0.901004 0.726420 0.000000
0.877058 0.719626 0.000000
0.632694 0.945006 0.000000
0.818411 0.883232 0.000000
0.787667 0.883633 0.000000
0.812018 0.862064 0.000000
0.808649 0.907835 0.000000
0.066636 0.534974 0.000000
0.083909 0.552665 0.000000
0.058224 0.565435 0.000000
0.037551 0.542621 0.000000
0.025720 0.565794 0.000000
0.304619 0.971425 0.000000
0.276072 0.975195 0.000000
0.284125 0.946285 0.000000
0.795087 0.737757 0.000000
0.797357 0.768346 0.000000
0.869843 0.656802 0.000000
0.840870 0.648068 0.000000
0.865462 0.630915 0.000000
0.043233 0.441011 0.000000
0.028792 0.469222 0.000000
0.020751 0.443790 0.000000
0.846918 0.676414 0.000000
0.058991 0.463368 0.000000
0.051906 0.966804 0.000000
0.071758 0.947609 0.000000
0.048298 0.939447 0.000000
0.026398 0.956010 0.000000
0.967109 0.949068 0.000000
0.946807 0.928411 0.000000
0.940173 0.953295 0.000000
0.956764 0.974357 0.000000
0.076722 0.471546 0.000000
0.082324 0.449317 0.000000
0.066669 0.435847 0.000000
0.114035 0.946088 0.000000
0.091278 0.952186 0.000000
0.128453 0.974235 0.000000
0.027019 0.501643 0.000000
0.047138 0.487417 0.000000
0.943388 0.639892 0.000000
0.923239 0.630552 0.000000
0.974491 0.618278 0.000000
0.972785 0.673666 0.000000
0.943930 0.664809 0.000000
0.968693 0.642530 0.000000
0.780685 0.976970 0.000000
0.756289 0.951349 0.000000
0.776857 0.951460 0.000000
0.935276 0.890540 0.000000
0.927168 0.867561 0.000000
0.954227 0.882176 0.000000
0.745760 0.974977 0.000000
0.952002 0.907568 0.000000
0.068063 0.489215 0.000000
0.051512 0.513895 0.000000
0.027757 0.982136 0.000000
0.023217 0.525632 0.000000
0.982410 0.972952 0.000000
0.951072 0.692907 0.000000
0.957020 0.857438 0.000000
0.937630 0.840379 0.000000
0.966912 0.834149 0.000000
0.923427 0.933924 0.000000
0.982257 0.848323 0.000000
0.092881 0.488189 0.000000
0.976737 0.871201 0.000000
0.067960 0.921895 0.000000
0.886538 0.603532 0.000000
0.918896 0.656866 0.000000
0.898227 0.636966 0.000000
0.092880 0.930380 0.000000
0.929071 0.911440 0.000000
0.081137 0.510877 0.000000
0.592772 0.576158 0.000000
0.150419 0.835159 0.000000
0.138607 0.859733 0.000000
0.125762 0.835294 0.000000
0.155304 0.458505 0.000000
0.139466 0.476317 0.000000
0.134858 0.496115 0.000000
0.109061 0.504849 0.000000
0.112238 0.859343 0.000000
0.866826 0.974780 0.000000
0.026919 0.865848 0.000000
0.348411 0.871602 0.000000
0.339654 0.840899 0.000000
0.369544 0.848927 0.000000
0.925986 0.818235 0.000000
0.909684 0.842117 0.000000
0.929360 0.717495 0.000000
0.924028 0.685311 0.000000
0.879688 0.955544 0.000000
0.875200 0.929284 0.000000
0.903901 0.918287 0.000000
0.950764 0.819790 0.000000
0.047492 0.878635 0.000000
0.069665 0.880314 0.000000
0.081712 0.904992 0.000000
0.573454 0.980624 0.000000
0.556694 0.550113 0.000000
0.094318 0.530060 0.000000
0.563246 0.571677 0.000000
0.563825 0.961795 0.000000
0.155902 0.972929 0.000000
0.577162 0.940912 0.000000
0.545227 0.533787 0.000000
0.864670 0.884377 0.000000
0.860690 0.911575 0.000000
0.840756 0.895862 0.000000
0.137227 0.926016 0.000000
0.139814 0.950758 0.000000
0.109156 0.913646 0.000000
0.884976 0.899786 0.000000
0.910807 0.890052 0.000000
0.830819 0.844574 0.000000
0.157710 0.484545 0.000000
0.180718 0.468069 0.000000
0.154331 0.510861 0.000000
0.124262 0.522394 0.000000
0.341085 0.732964 0.000000
0.323736 0.758404 0.000000
0.312899 0.730066 0.000000
0.857321 0.949854 0.000000
0.839840 0.975483 0.000000
0.053549 0.857833 0.000000
0.031143 0.832960 0.000000
0.840338 0.925315 0.000000
0.300796 0.756054 0.000000
0.080783 0.856286 0.000000
0.096939 0.884378 0.000000
0.544800 0.977874 0.000000
0.949430 0.731579 0.000000
0.955247 0.752582 0.000000
0.934712 0.748859 0.000000
0.030153 0.591093 0.000000
[...]
POINT_DATA 1445
SCALARS UX float 1
LOOKUP_TABLE default
-0.057699
0.000533
-0.000000
-0.058276
-0.058006
0.000000
-0.055987
-0.054275
-0.052562
-0.050850
-0.049137
-0.047425
-0.045712
-0.044000
-0.042287
-0.040575
-0.038862
-0.037149
-0.035437
-0.033724
-0.032012
-0.030299
-0.028586
-0.026874
-0.025161
-0.023448
-0.021735
-0.020022
-0.018310
-0.016597
-0.014884
-0.013171
-0.011458
-0.009745
-0.008032
-0.006319
-0.004606
-0.002893
-0.001180
0.000533
0.000533
0.000533
0.000532
0.000532
0.000532
0.000531
0.000531
0.000530
0.000529
0.000528
0.000526
0.000524
0.000521
0.000517
0.000512
0.000504
0.000489
0.000444
-0.000000
0.000000
-0.000000
-0.000000
-0.000000
-0.000000
-0.000000
-0.000000
-0.000000
-0.000000
-0.000000
-0.000000
-0.000000
-0.001714
-0.003429
-0.005143
-0.006858
-0.008572
-0.010287
-0.012002
-0.013717
-0.015432
-0.017147
-0.018861
-0.020576
-0.022290
-0.024005
-0.025719
-0.027434
-0.029148
-0.030862
-0.032576
-0.034289
-0.036003
-0.037717
-0.039430
-0.041143
-0.042857
-0.044570
-0.046283
-0.047997
-0.049710
-0.051423
-0.053136
-0.054849
-0.056562
-0.058276
-0.058276
-0.058276
-0.058277
-0.058278
-0.058279
-0.058280
-0.058281
-0.058282
-0.058284
-0.058285
-0.058287
-0.058289
-0.058291
-0.058293
-0.058295
-0.058297
-0.058296
-0.058273
-0.057713
-0.057696
-0.057692
-0.057694
-0.057695
-0.057696
-0.057697
-0.057697
-0.057698
-0.057698
-0.057699
-0.057699
-0.057699
-0.056287
-0.054593
-0.052882
-0.051160
-0.049441
-0.047730
-0.046016
-0.044303
-0.042589
-0.040876
-0.039154
-0.037441
-0.035724
-0.034002
-0.032296
-0.030580
-0.028878
-0.027177
-0.025461
-0.023756
-0.022035
-0.020320
-0.018608
-0.016889
-0.015180
-0.013470
-0.011763
-0.010058
-0.008357
-0.006653
-0.004953
-0.003276
-0.001635
-0.003049
-0.004802
-0.050930
-0.052447
-0.052218
-0.051424
-0.056579
-0.055552
-0.056821
-0.054996
-0.001300
-0.002128
-0.001528
-0.023016
-0.024543
-0.024999
-0.006015
-0.004697
-0.004215
-0.005859
-0.001511
-0.001331
-0.053815
-0.052301
-0.008085
-0.008828
-0.009378
-0.010486
-0.007477
-0.006866
-0.006130
-0.022951
-0.021870
-0.023332
-0.048491
-0.046674
-0.047332
-0.012377
-0.014299
-0.012913
-0.047124
-0.011590
-0.009924
-0.011342
-0.010923
-0.010337
-0.009695
-0.008755
-0.012169
-0.013244
-0.047803
-0.048931
-0.048264
-0.024012
-0.050010
-0.010065
-0.008187
-0.006866
-0.007427
-0.006152
-0.005248
-0.005783
-0.007183
-0.021414
-0.010588
-0.012381
-0.010962
-0.011156
-0.054413
-0.053406
-0.054901
-0.056106
-0.056794
-0.040532
-0.042195
-0.041726
-0.011962
-0.011825
-0.007624
-0.009315
-0.007886
-0.055755
-0.056619
-0.057075
-0.008954
-0.054860
-0.055252
-0.054096
-0.055463
-0.056738
-0.001917
-0.003101
-0.003487
-0.002520
-0.053827
-0.053479
-0.054337
-0.051634
-0.052959
-0.050794
-0.056723
-0.055552
-0.003333
-0.004516
-0.001520
-0.001596
-0.003292
-0.001847
-0.012785
-0.014208
-0.013009
-0.003773
-0.004246
-0.002669
-0.014822
-0.002798
-0.054333
-0.055296
-0.056659
-0.056942
-0.001025
-0.002863
-0.002506
-0.003637
-0.001929
-0.004464
-0.001035
-0.052886
-0.001356
-0.054318
-0.006648
-0.004760
-0.005975
-0.052866
-0.004135
-0.053571
-0.023768
-0.049517
-0.050204
-0.050953
-0.049220
-0.050164
-0.050440
-0.051944
-0.051740
-0.007763
-0.056709
-0.037983
-0.038494
-0.036753
-0.004317
-0.005267
-0.004128
-0.004449
-0.007013
-0.007275
-0.005602
-0.002871
-0.055511
-0.054219
-0.053517
-0.024867
-0.025856
-0.052801
-0.025490
-0.025428
-0.049195
-0.024651
-0.026488
-0.007890
-0.008122
-0.009284
-0.050283
-0.050132
-0.051918
-0.006706
-0.005200
-0.009866
-0.049107
-0.047760
-0.049307
-0.051058
-0.038417
-0.039426
-0.040059
-0.008317
-0.009336
-0.055159
-0.056464
-0.009308
-0.040762
-0.053572
-0.052630
-0.026537
-0.002954
-0.002612
-0.003811
-0.056534
-0.052973
-0.051889
-0.004750
-0.030602
-0.030474
-0.032312
-0.031804
-0.048945
-0.050578
-0.012305
-0.013560
-0.047626
-0.045835
-0.047775
-0.049963
-0.001528
-0.003153
-0.001536
-0.054475
-0.056967
-0.052605
-0.006228
-0.042734
-0.043919
-0.043087
-0.054685
-0.056244
-0.044442
-0.050984
-0.051843
-0.041188
-0.042515
-0.041011
-0.037786
-0.038877
-0.039337
-0.037547
-0.045293
-0.040762
-0.039728
-0.047411
-0.040023
-0.040662
-0.041528
-0.042528
-0.046014
-0.038753
-0.037864
-0.051625
-0.051270
-0.052990
-0.046800
-0.048725
-0.044381
-0.041511
-0.040719
-0.039229
-0.042281
-0.043174
-0.054201
-0.044026
-0.056748
-0.006781
-0.007786
-0.008334
-0.041589
-0.040031
-0.039010
-0.043446
-0.042025
-0.044198
-0.042393
-0.040627
-0.044235
-0.004604
-0.042869
-0.005855
-0.043017
-0.044237
-0.042945
-0.044143
-0.042496
-0.045118
-0.042710
-0.044069
-0.045147
-0.039813
-0.039589
-0.041496
-0.038212
-0.038321
-0.056586
-0.055412
-0.054889
-0.054013
-0.047500
-0.045820
-0.046071
-0.040904
-0.043060
-0.042349
-0.047075
-0.046496
-0.043820
-0.045440
-0.051068
-0.052435
-0.052820
-0.053073
-0.049264
-0.049188
-0.047644
-0.049228
-0.050221
-0.050247
-0.043504
-0.045131
-0.044306
-0.043771
-0.047516
-0.048432
-0.048970
-0.055756
-0.040115
-0.038355
-0.038921
-0.045672
-0.043851
-0.044804
-0.055295
-0.051278
-0.052557
-0.051500
-0.053257
-0.044117
-0.037218
-0.013772
-0.013550
-0.015360
-0.053878
-0.054315
-0.014984
-0.001476
-0.046765
-0.047770
-0.045862
-0.003179
-0.048509
-0.036644
-0.037279
-0.052700
-0.055385
-0.011173
-0.012897
-0.011542
-0.012496
-0.047283
-0.039183
-0.046827
-0.015664
-0.013864
-0.015187
-0.035293
-0.034709
-0.056715
-0.036096
-0.020244
-0.019889
-0.021972
-0.021555
-0.045864
-0.009217
-0.053038
-0.045133
-0.049005
-0.007159
-0.011640
-0.046020
-0.040020
-0.040097
-0.038809
-0.008253
-0.023492
-0.025106
-0.024722
-0.023133
-0.014489
-0.013549
-0.015500
-0.014365
-0.026448
-0.056546
-0.026692
-0.037442
-0.035712
-0.050042
-0.016558
-0.016230
-0.048496
-0.038245
-0.014629
-0.018623
-0.018252
-0.034208
-0.035231
-0.033423
-0.046031
-0.008396
-0.025939
-0.026992
-0.025752
-0.026383
-0.027513
-0.022853
-0.024462
-0.023282
-0.024067
-0.024656
-0.021350
-0.021617
-0.022341
-0.041480
-0.042788
-0.016943
-0.018078
-0.018007
-0.016946
-0.015879
-0.013328
-0.019628
-0.019906
-0.020618
-0.018940
-0.006369
-0.005756
-0.009624
-0.010779
-0.035775
-0.037682
-0.036255
-0.037120
-0.037087
-0.036413
-0.013425
-0.014824
-0.013121
-0.015184
-0.016566
-0.016229
-0.034873
-0.035290
-0.016056
-0.016484
-0.015585
-0.014544
-0.016219
-0.016939
-0.017969
-0.013394
-0.010023
-0.033387
-0.032853
-0.034233
-0.033220
-0.031473
-0.032255
-0.014843
-0.016598
-0.039352
-0.017467
-0.017078
-0.033873
-0.042070
-0.040786
-0.036535
-0.033937
-0.035134
-0.010668
-0.033972
-0.034437
-0.035277
-0.018303
-0.017905
-0.033080
-0.033480
-0.019623
-0.018676
-0.019686
-0.029481
-0.031050
-0.029596
-0.030724
-0.018381
-0.017874
-0.028301
-0.027907
-0.029583
-0.016595
-0.017280
-0.032210
-0.032666
-0.033504
-0.032099
-0.032460
-0.034771
-0.010977
-0.020393
-0.021407
-0.031322
-0.031726
-0.056717
-0.054840
-0.051376
-0.051588
-0.030467
-0.030908
-0.031762
-0.011750
-0.049856
-0.028730
-0.029175
-0.056140
-0.030020
-0.033034
-0.021344
-0.020067
-0.012326
-0.029580
-0.050508
-0.029983
-0.026997
-0.027426
-0.019216
-0.018808
-0.040871
-0.027847
-0.028252
-0.010102
-0.031306
-0.031584
-0.026113
-0.026529
-0.025695
-0.024383
-0.024798
-0.039362
-0.022115
-0.023131
-0.020111
-0.019698
-0.046389
-0.052094
-0.023069
-0.021790
-0.019329
-0.017603
-0.018314
-0.023968
-0.022657
-0.022439
-0.024163
-0.054312
-0.040920
-0.025885
-0.024857
-0.028661
-0.027622
-0.029299
-0.028309
-0.020719
-0.021748
-0.021829
-0.023550
-0.022243
-0.020934
-0.050006
-0.019000
-0.020525
-0.012086
-0.045248
-0.028250
-0.028115
-0.020030
-0.025267
-0.026586
-0.023841
-0.029151
-0.029052
-0.030407
-0.028686
-0.057006
-0.026441
-0.037003
-0.036204
-0.020870
-0.015878
-0.023516
-0.014213
-0.025567
-0.025244
-0.027294
-0.026968
-0.028939
-0.033010
-0.034358
-0.033831
-0.022244
-0.029187
-0.027847
-0.028863
-0.030467
-0.030697
-0.030041
-0.030278
-0.017374
-0.046848
-0.045601
-0.017848
-0.036510
-0.035675
-0.033119
-0.032263
-0.031991
-0.018800
-0.034124
-0.047704
-0.031232
-0.010900
-0.019718
-0.035337
-0.034991
-0.027826
-0.027233
-0.036030
-0.030094
-0.020655
-0.036912
-0.031684
-0.038030
-0.048852
-0.054712
-0.052961
-0.006869
-0.005354
-0.005592
-0.006369
-0.001165
-0.002191
-0.000923
-0.002747
-0.056399
-0.055573
-0.056171
-0.034738
-0.033211
-0.032756
-0.051691
-0.053008
-0.053489
-0.051847
-0.056190
-0.056369
-0.003927
-0.005441
-0.049641
-0.048895
-0.048350
-0.047240
-0.050253
-0.050858
-0.051598
-0.034778
-0.035857
-0.034396
-0.009251
-0.011068
-0.010410
-0.045340
-0.043422
-0.044806
-0.010619
-0.046129
-0.047792
-0.046375
-0.046796
-0.047383
-0.048021
-0.048962
-0.045552
-0.044478
-0.009961
-0.008833
-0.009503
-0.033718
-0.007757
-0.047657
-0.049531
-0.050849
-0.050287
-0.051559
-0.052462
-0.051930
-0.050536
-0.036313
-0.047126
-0.045336
-0.046753
-0.046558
-0.003366
-0.004370
-0.002872
-0.001671
-0.000978
-0.017208
-0.015546
-0.016015
-0.045764
-0.045897
-0.050113
-0.048426
-0.049860
-0.002070
-0.001183
-0.000745
-0.048780
-0.002947
-0.002490
-0.003646
-0.002280
-0.001005
-0.055784
-0.054602
-0.054216
-0.055182
-0.003975
-0.004333
-0.003489
-0.006109
-0.004783
-0.006948
-0.001066
-0.002243
-0.054402
-0.053231
-0.056255
-0.056108
-0.054428
-0.055877
-0.044930
-0.043510
-0.044707
-0.053930
-0.053458
-0.055034
-0.042897
-0.054904
-0.003461
-0.002489
-0.001084
-0.000839
-0.056675
-0.054844
-0.055196
-0.054066
-0.055771
-0.053241
-0.056665
-0.004907
-0.056344
-0.003425
-0.051115
-0.052970
-0.051768
-0.004877
-0.053569
-0.004216
-0.033984
-0.008228
-0.007540
-0.006792
-0.008572
-0.007627
-0.007347
-0.005843
-0.006004
-0.049946
-0.001035
-0.019759
-0.019249
-0.020989
-0.053388
-0.052439
-0.053581
-0.053269
-0.050695
-0.050433
-0.052104
-0.054831
-0.002233
-0.003525
-0.004226
-0.032864
-0.031897
-0.004980
-0.032262
-0.032303
-0.008547
-0.033079
-0.031267
-0.049819
-0.049588
-0.048427
-0.007459
-0.007610
-0.005824
-0.051002
-0.052506
-0.047848
-0.008679
-0.010024
-0.008475
-0.006724
-0.019333
-0.018322
-0.017692
-0.049392
-0.048375
-0.002586
-0.001282
-0.048403
-0.016987
-0.004172
-0.005113
-0.031195
-0.054750
-0.055090
-0.053894
-0.001234
-0.004797
-0.005887
-0.052957
-0.027155
-0.027281
-0.025445
-0.025953
-0.008798
-0.007165
-0.045410
-0.044157
-0.010155
-0.011944
-0.010001
-0.007814
-0.056172
-0.054550
-0.056163
-0.003271
-0.000780
-0.005141
-0.051480
-0.015033
-0.013850
-0.014682
-0.003081
-0.001518
-0.013330
-0.006787
-0.005923
-0.016577
-0.015250
-0.016751
-0.019970
-0.018880
-0.018421
-0.020208
-0.012449
-0.016998
-0.018032
-0.010332
-0.017723
-0.017084
-0.016219
-0.015218
-0.011761
-0.018993
-0.019883
-0.006130
-0.006481
-0.004763
-0.010971
-0.009046
-0.013393
-0.016240
-0.017034
-0.018523
-0.015469
-0.014578
-0.003561
-0.013724
-0.001011
-0.050928
-0.049924
-0.049378
-0.016156
-0.017713
-0.018735
-0.014317
-0.015736
-0.013568
-0.015367
-0.017130
-0.013525
-0.053102
-0.014901
-0.051854
-0.014731
-0.013509
-0.014800
-0.013601
-0.015248
-0.012639
-0.015046
-0.013686
-0.012606
-0.017951
-0.018173
-0.016271
-0.019549
-0.019442
-0.001170
-0.002345
-0.002867
-0.003745
-0.010252
-0.011930
-0.011684
-0.016837
-0.014682
-0.015394
-0.010683
-0.011265
-0.013923
-0.012304
-0.006682
-0.005314
-0.004931
-0.004682
-0.008487
-0.008561
-0.010105
-0.008520
-0.007527
-0.007500
-0.014237
-0.012611
-0.013436
-0.013970
-0.010239
-0.009325
-0.008786
-0.001997
-0.017626
-0.019385
-0.018819
-0.012075
-0.013896
-0.012944
-0.002452
-0.006485
-0.005205
-0.006261
-0.004508
-0.013656
-0.020526
-0.043955
-0.044174
-0.042367
-0.003869
-0.003433
-0.042741
-0.056223
-0.010979
-0.009975
-0.011883
-0.054524
-0.009236
-0.021104
-0.020471
-0.005048
-0.002375
-0.046571
-0.044849
-0.046208
-0.045245
-0.010485
-0.018572
-0.010938
-0.042058
-0.043855
-0.042533
-0.022456
-0.023038
-0.001149
-0.021650
-0.037510
-0.037863
-0.035780
-0.036200
-0.011904
-0.048495
-0.004722
-0.012637
-0.008739
-0.050553
-0.046074
-0.011752
-0.017745
-0.017668
-0.018954
-0.049505
-0.034258
-0.032645
-0.033027
-0.034614
-0.043254
-0.044188
-0.042239
-0.043369
-0.031304
-0.001202
-0.031058
-0.020303
-0.022032
-0.007720
-0.041162
-0.041490
-0.009264
-0.019515
-0.043094
-0.039132
-0.039499
-0.023550
-0.022529
-0.024335
-0.011712
-0.049317
-0.031799
-0.030749
-0.031988
-0.031359
-0.030227
-0.034884
-0.033277
-0.034457
-0.033669
-0.033085
-0.036385
-0.036121
-0.035393
-0.016288
-0.014983
-0.040787
-0.039653
-0.039726
-0.040782
-0.041853
-0.044389
-0.038105
-0.037830
-0.037115
-0.038791
-0.051339
-0.051962
-0.048126
-0.046959
-0.021965
-0.020058
-0.021486
-0.020619
-0.020674
-0.021347
-0.044327
-0.042932
-0.044640
-0.042566
-0.041185
-0.041528
-0.022868
-0.022453
-0.041667
-0.041242
-0.042148
-0.043187
-0.041518
-0.040796
-0.039770
-0.044336
-0.047735
-0.024361
-0.024892
-0.023512
-0.024536
-0.026282
-0.025499
-0.042876
-0.041124
-0.018390
-0.040257
-0.040645
-0.023870
-0.015683
-0.016968
-0.021204
-0.023818
-0.022624
-0.047064
-0.023766
-0.023302
-0.022462
-0.039425
-0.039821
-0.024660
-0.024261
-0.038106
-0.039061
-0.038054
-0.028262
-0.026694
-0.028149
-0.027018
-0.039343
-0.039849
-0.029433
-0.029826
-0.028151
-0.041149
-0.040460
-0.025527
-0.025073
-0.024234
-0.025643
-0.025283
-0.022967
-0.046736
-0.037346
-0.036335
-0.026416
-0.026014
-0.001034
-0.002912
-0.006371
-0.006158
-0.027269
-0.026829
-0.025975
-0.046008
-0.007897
-0.029004
-0.028561
-0.001610
-0.027715
-0.024703
-0.036387
-0.037663
-0.045405
-0.028157
-0.007248
-0.027756
-0.030736
-0.030308
-0.038511
-0.038917
-0.016872
-0.029889
-0.029486
-0.047610
-0.026430
-0.026162
-0.031621
-0.031207
-0.032038
-0.033349
-0.032937
-0.018380
-0.035625
-0.034613
-0.037615
-0.038027
-0.011359
-0.005664
-0.034663
-0.035943
-0.038420
-0.040144
-0.039431
-0.033764
-0.035074
-0.035306
-0.033583
-0.003442
-0.016822
-0.031862
-0.032887
-0.029090
-0.030127
-0.028450
-0.029438
-0.037025
-0.035999
-0.035899
-0.034180
-0.035486
-0.036794
-0.007752
-0.038742
-0.037202
-0.045651
-0.012516
-0.029491
-0.029629
-0.037716
-0.032465
-0.031160
-0.033901
-0.028590
-0.028703
-0.027333
-0.029053
-0.000748
-0.031291
-0.020756
-0.021553
-0.036878
-0.041868
-0.034219
-0.043534
-0.032176
-0.032492
-0.030451
-0.030770
-0.028807
-0.024743
-0.023396
-0.023921
-0.035505
-0.028566
-0.029905
-0.028891
-0.027286
-0.027054
-0.027707
-0.027468
-0.040379
-0.010898
-0.012143
-0.039874
-0.021246
-0.022078
-0.024630
-0.025486
-0.025759
-0.038924
-0.023626
-0.010043
-0.026517
-0.046813
-0.038007
-0.022418
-0.022760
-0.029928
-0.030521
-0.021721
-0.027659
-0.037071
-0.020840
-0.026068
-0.019723
-0.008894
SCALARS UY float 1
LOOKUP_TABLE default
-0.000000
-0.000000
-0.136000
-0.136000
-0.054400
-0.081607
-0.000000
-0.000000
-0.000000
-0.000000
-0.000000
-0.000000
-0.000000
-0.000000
-0.000000
-0.000000
-0.000000
-0.000000
-0.000000
-0.000000
-0.000000
-0.000000
-0.000000
-0.000000
-0.000000
-0.000000
-0.000000
-0.000000
-0.000000
-0.000000
-0.000000
-0.000000
-0.000000
-0.000000
-0.000000
-0.000000
-0.000000
-0.000000
-0.000000
-0.004077
-0.008153
-0.012230
-0.016306
-0.020383
-0.024459
-0.028536
-0.032612
-0.036689
-0.040765
-0.044841
-0.048917
-0.052994
-0.057070
-0.061146
-0.065221
-0.069297
-0.073375
-0.077458
-0.085531
-0.089420
-0.093302
-0.097183
-0.101064
-0.104946
-0.108828
-0.112710
-0.116591
-0.120473
-0.124355
-0.128236
-0.132118
-0.136000
-0.136000
-0.136000
-0.136000
-0.136000
-0.136000
-0.136000
-0.136000
-0.136000
-0.136000
-0.136000
-0.136000
-0.136000
-0.136000
-0.136000
-0.136000
-0.136000
-0.136000
-0.136000
-0.136000
-0.136000
-0.136000
-0.136000
-0.136000
-0.136000
-0.136000
-0.136000
-0.136000
-0.136000
-0.136000
-0.136000
-0.136000
-0.136000
-0.131922
-0.127845
-0.123767
-0.119689
-0.115612
-0.111535
-0.107457
-0.103380
-0.099303
-0.095226
-0.091149
-0.087072
-0.082995
-0.078918
-0.074841
-0.070765
-0.066688
-0.062610
-0.058526
-0.050461
-0.046576
-0.042694
-0.038813
-0.034931
-0.031050
-0.027169
-0.023287
-0.019406
-0.015525
-0.011644
-0.007763
-0.003881
-0.055197
-0.056006
-0.056807
-0.057597
-0.058410
-0.059202
-0.060010
-0.060803
-0.061604
-0.062401
-0.063200
-0.064000
-0.064791
-0.065600
-0.066400
-0.067189
-0.067996
-0.068803
-0.069592
-0.070392
-0.071201
-0.071993
-0.072793
-0.073592
-0.074390
-0.075191
-0.075985
-0.076794
-0.077588
-0.078401
-0.079195
-0.080001
-0.080815
-0.084015
-0.082973
-0.061913
-0.063344
-0.060171
-0.065427
-0.121808
-0.124859
-0.125987
-0.122296
-0.094693
-0.097239
-0.100148
-0.074758
-0.074815
-0.072625
-0.132190
-0.130250
-0.132768
-0.128476
-0.125762
-0.122244
-0.132410
-0.132526
-0.095047
-0.098378
-0.095433
-0.098030
-0.091929
-0.094512
-0.091521
-0.128894
-0.132332
-0.132916
-0.128392
-0.129034
-0.132317
-0.116431
-0.116221
-0.113281
-0.125453
-0.110480
-0.111168
-0.113970
-0.107701
-0.104718
-0.107702
-0.105119
-0.107623
-0.110025
-0.084520
-0.084509
-0.081396
-0.130902
-0.082024
-0.101754
-0.101357
-0.101206
-0.103785
-0.104072
-0.101429
-0.098822
-0.097897
-0.128526
-0.120132
-0.120186
-0.117255
-0.123475
-0.072804
-0.075208
-0.076942
-0.073841
-0.076989
-0.132117
-0.132629
-0.128700
-0.100359
-0.104517
-0.089358
-0.088170
-0.085842
-0.060035
-0.063868
-0.060407
-0.092022
-0.063073
-0.131488
-0.128879
-0.127770
-0.130021
-0.129080
-0.126274
-0.129654
-0.132516
-0.064184
-0.061159
-0.059316
-0.128673
-0.129501
-0.132498
-0.068273
-0.066341
-0.087052
-0.085782
-0.084105
-0.091657
-0.090445
-0.087415
-0.132870
-0.129388
-0.129403
-0.121128
-0.118006
-0.119992
-0.132599
-0.123442
-0.066586
-0.069939
-0.133572
-0.071532
-0.132325
-0.094270
-0.116631
-0.114313
-0.113467
-0.127022
-0.115393
-0.066447
-0.118501
-0.125385
-0.082116
-0.089363
-0.086659
-0.126538
-0.123967
-0.069530
-0.078403
-0.113598
-0.116937
-0.113616
-0.062412
-0.064836
-0.067526
-0.068712
-0.116884
-0.132573
-0.117767
-0.118551
-0.114378
-0.115469
-0.111303
-0.114548
-0.097611
-0.093233
-0.129959
-0.126391
-0.124897
-0.111516
-0.119505
-0.119733
-0.123088
-0.133366
-0.074859
-0.072137
-0.077791
-0.130807
-0.132321
-0.127969
-0.072633
-0.120289
-0.123984
-0.121849
-0.125945
-0.129308
-0.124264
-0.122383
-0.121061
-0.114878
-0.065952
-0.063717
-0.069530
-0.071097
-0.099711
-0.103168
-0.099317
-0.129186
-0.132668
-0.116678
-0.113297
-0.125851
-0.102849
-0.116468
-0.120286
-0.132993
-0.099528
-0.102383
-0.101876
-0.080427
-0.078875
-0.074811
-0.104986
-0.071091
-0.074884
-0.074056
-0.070164
-0.123980
-0.121055
-0.126171
-0.126699
-0.067631
-0.064754
-0.072395
-0.073863
-0.110239
-0.108584
-0.107091
-0.113297
-0.109789
-0.113009
-0.118130
-0.075202
-0.074587
-0.072316
-0.081696
-0.085024
-0.071589
-0.077958
-0.081930
-0.075695
-0.078788
-0.079915
-0.084649
-0.087423
-0.084142
-0.089071
-0.131915
-0.083785
-0.080958
-0.120975
-0.106550
-0.110468
-0.106243
-0.109995
-0.069450
-0.106124
-0.103212
-0.095808
-0.099712
-0.098393
-0.075902
-0.077477
-0.067427
-0.099021
-0.096310
-0.095794
-0.102203
-0.098432
-0.086067
-0.101992
-0.089352
-0.114955
-0.117453
-0.113820
-0.113942
-0.114103
-0.110447
-0.082726
-0.082240
-0.078538
-0.085988
-0.087893
-0.086621
-0.108009
-0.068983
-0.107018
-0.105447
-0.111815
-0.113726
-0.115723
-0.117226
-0.090843
-0.090766
-0.094444
-0.098185
-0.072975
-0.077181
-0.071289
-0.075134
-0.070835
-0.093559
-0.091252
-0.094182
-0.090611
-0.098428
-0.102178
-0.094637
-0.124852
-0.125969
-0.121446
-0.091007
-0.086729
-0.119462
-0.119276
-0.103188
-0.105271
-0.102183
-0.094909
-0.101483
-0.105363
-0.103655
-0.108440
-0.106906
-0.110110
-0.129925
-0.127095
-0.122802
-0.133342
-0.094918
-0.091688
-0.094362
-0.097157
-0.128591
-0.131517
-0.126158
-0.109282
-0.108322
-0.105558
-0.109900
-0.084573
-0.085338
-0.087783
-0.082811
-0.063879
-0.111386
-0.102882
-0.106581
-0.105465
-0.110150
-0.105857
-0.109039
-0.103492
-0.116702
-0.113118
-0.113462
-0.105315
-0.117112
-0.100301
-0.096474
-0.108687
-0.088233
-0.087045
-0.085817
-0.083474
-0.089449
-0.078799
-0.090962
-0.082111
-0.118842
-0.119515
-0.122104
-0.097170
-0.100954
-0.057434
-0.104217
-0.075852
-0.079803
-0.079096
-0.074564
-0.078553
-0.117933
-0.088303
-0.075291
-0.120436
-0.106724
-0.129865
-0.072897
-0.069022
-0.065473