# vtk DataFile Version 2.0
Test
ASCII
DATASET POLYDATA
POINTS 1445 float
0.000000 0.000000 0.000000
1.000000 0.000000 0.000000
1.000000 1.000000 0.000000
0.000000 1.000000 0.000000
0.000000 0.400000 0.000000
1.000000 0.600000 0.000000
0.029412 0.000000 0.000000
0.058824 0.000000 0.000000
0.088235 0.000000 0.000000
0.117647 0.000000 0.000000
0.147059 0.000000 0.000000
0.176471 0.000000 0.000000
0.205882 0.000000 0.000000
0.235294 0.000000 0.000000
0.264706 0.000000 0.000000
0.294118 0.000000 0.000000
0.323529 0.000000 0.000000
0.352941 0.000000 0.000000
0.382353 0.000000 0.000000
0.411765 0.000000 0.000000
0.441176 0.000000 0.000000
0.470588 0.000000 0.000000
0.500000 0.000000 0.000000
0.529412 0.000000 0.000000
0.558824 0.000000 0.000000
0.588235 0.000000 0.000000
0.617647 0.000000 0.000000
0.647059 0.000000 0.000000
0.676471 0.000000 0.000000
0.705882 0.000000 0.000000
0.735294 0.000000 0.000000
0.764706 0.000000 0.000000
0.794118 0.000000 0.000000
0.823529 0.000000 0.000000
0.852941 0.000000 0.000000
0.882353 0.000000 0.000000
0.911765 0.000000 0.000000
0.941176 0.000000 0.000000
0.970588 0.000000 0.000000
1.000000 0.030000 0.000000
1.000000 0.060000 0.000000
1.000000 0.090000 0.000000
1.000000 0.120000 0.000000
1.000000 0.150000 0.000000
1.000000 0.180000 0.000000
1.000000 0.210000 0.000000
1.000000 0.240000 0.000000
1.000000 0.270000 0.000000
1.000000 0.300000 0.000000
1.000000 0.330000 0.000000
1.000000 0.360000 0.000000
1.000000 0.390000 0.000000
1.000000 0.420000 0.000000
1.000000 0.450000 0.000000
1.000000 0.480000 0.000000
1.000000 0.510000 0.000000
1.000000 0.540000 0.000000
1.000000 0.570000 0.000000
1.000000 0.628571 0.000000
1.000000 0.657143 0.000000
1.000000 0.685714 0.000000
1.000000 0.714286 0.000000
1.000000 0.742857 0.000000
1.000000 0.771429 0.000000
1.000000 0.800000 0.000000
1.000000 0.828571 0.000000
1.000000 0.857143 0.000000
1.000000 0.885714 0.000000
1.000000 0.914286 0.000000
1.000000 0.942857 0.000000
1.000000 0.971429 0.000000
0.970588 1.000000 0.000000
0.941176 1.000000 0.000000
0.911765 1.000000 0.000000
0.882353 1.000000 0.000000
0.852941 1.000000 0.000000
0.823529 1.000000 0.000000
0.794118 1.000000 0.000000
0.764706 1.000000 0.000000
0.735294 1.000000 0.000000
0.705882 1.000000 0.000000
0.676471 1.000000 0.000000
0.647059 1.000000 0.000000
0.617647 1.000000 0.000000
0.588235 1.000000 0.000000
0.558824 1.000000 0.000000
0.529412 1.000000 0.000000
0.500000 1.000000 0.000000
0.470588 1.000000 0.000000
0.441176 1.000000 0.000000
0.411765 1.000000 0.000000
0.382353 1.000000 0.000000
0.352941 1.000000 0.000000
0.323529 1.000000 0.000000
0.294118 1.000000 0.000000
0.264706 1.000000 0.000000
0.235294 1.000000 0.000000
0.205882 1.000000 0.000000
0.176471 1.000000 0.000000
0.147059 1.000000 0.000000
0.117647 1.000000 0.000000
0.088235 1.000000 0.000000
0.058824 1.000000 0.000000
0.029412 1.000000 0.000000
0.000000 0.970000 0.000000
0.000000 0.940000 0.000000
0.000000 0.910000 0.000000
0.000000 0.880000 0.000000
0.000000 0.850000 0.000000
0.000000 0.820000 0.000000
0.000000 0.790000 0.000000
0.000000 0.760000 0.000000
0.000000 0.730000 0.000000
0.000000 0.700000 0.000000
0.000000 0.670000 0.000000
0.000000 0.640000 0.000000
0.000000 0.610000 0.000000
0.000000 0.580000 0.000000
0.000000 0.550000 0.000000
0.000000 0.520000 0.000000
0.000000 0.490000 0.000000
0.000000 0.460000 0.000000
0.000000 0.430000 0.000000
0.000000 0.371429 0.000000
0.000000 0.342857 0.000000
0.000000 0.314286 0.000000
0.000000 0.285714 0.000000
0.000000 0.257143 0.000000
0.000000 0.228571 0.000000
0.000000 0.200000 0.000000
0.000000 0.171429 0.000000
0.000000 0.142857 0.000000
0.000000 0.114286 0.000000
0.000000 0.085714 0.000000
0.000000 0.057143 0.000000
0.000000 0.028571 0.000000
0.029412 0.405882 0.000000
0.058824 0.411765 0.000000
0.088235 0.417647 0.000000
0.117647 0.423529 0.000000
0.147059 0.429412 0.000000
0.176471 0.435294 0.000000
0.205882 0.441176 0.000000
0.235294 0.447059 0.000000
0.264706 0.452941 0.000000
0.294118 0.458824 0.000000
0.323529 0.464706 0.000000
0.352941 0.470588 0.000000
0.382353 0.476471 0.000000
0.411765 0.482353 0.000000
0.441176 0.488235 0.000000
0.470588 0.494118 0.000000
0.500000 0.500000 0.000000
0.529412 0.505882 0.000000
0.558824 0.511765 0.000000
0.588235 0.517647 0.000000
0.617647 0.523529 0.000000
0.647059 0.529412 0.000000
0.676471 0.535294 0.000000
0.705882 0.541176 0.000000
0.735294 0.547059 0.000000
0.764706 0.552941 0.000000
0.794118 0.558824 0.000000
0.823529 0.564706 0.000000
0.852941 0.570588 0.000000
0.882353 0.576471 0.000000
0.911765 0.582353 0.000000
0.941176 0.588235 0.000000
0.970588 0.594118 0.000000
0.948492 0.617586 0.000000
0.918239 0.609871 0.000000
0.126115 0.454845 0.000000
0.100318 0.465379 0.000000
0.103006 0.442114 0.000000
0.117916 0.480680 0.000000
0.029145 0.895585 0.000000
0.046774 0.918032 0.000000
0.024990 0.926329 0.000000
0.056315 0.899171 0.000000
0.977770 0.695981 0.000000
0.963577 0.714729 0.000000
0.973827 0.736127 0.000000
0.605253 0.549394 0.000000
0.579370 0.549801 0.000000
0.570019 0.533816 0.000000
0.896809 0.971959 0.000000
0.919426 0.957680 0.000000
0.927686 0.976215 0.000000
0.899487 0.944624 0.000000
0.974081 0.924646 0.000000
0.977161 0.898750 0.000000
0.076578 0.973587 0.000000
0.102577 0.974440 0.000000
0.861693 0.698664 0.000000
0.848870 0.723174 0.000000
0.839521 0.701504 0.000000
0.820447 0.720618 0.000000
0.872237 0.675719 0.000000
0.882611 0.694724 0.000000
0.895344 0.672729 0.000000
0.606326 0.947716 0.000000
0.624868 0.973015 0.000000
0.599776 0.977307 0.000000
0.167986 0.944019 0.000000
0.199183 0.948746 0.000000
0.187884 0.972901 0.000000
0.787752 0.856005 0.000000
0.754801 0.854462 0.000000
0.778588 0.832828 0.000000
0.191471 0.922393 0.000000
0.801312 0.812216 0.000000
0.829867 0.817276 0.000000
0.805526 0.837896 0.000000
0.812775 0.791772 0.000000
0.822869 0.769821 0.000000
0.833826 0.791773 0.000000
0.849982 0.772760 0.000000
0.791421 0.791198 0.000000
0.772962 0.808877 0.000000
0.180049 0.621172 0.000000
0.160680 0.621098 0.000000
0.172158 0.598185 0.000000
0.588124 0.962489 0.000000
0.142171 0.602810 0.000000
0.827587 0.748015 0.000000
0.859778 0.745080 0.000000
0.882413 0.743965 0.000000
0.872759 0.762938 0.000000
0.894601 0.765041 0.000000
0.910115 0.745588 0.000000
0.901004 0.726420 0.000000
0.877058 0.719626 0.000000
0.632694 0.945006 0.000000
0.818411 0.883232 0.000000
0.787667 0.883633 0.000000
0.812018 0.862064 0.000000
0.808649 0.907835 0.000000
0.066636 0.534974 0.000000
0.083909 0.552665 0.000000
0.058224 0.565435 0.000000
0.037551 0.542621 0.000000
0.025720 0.565794 0.000000
0.304619 0.971425 0.000000
0.276072 0.975195 0.000000
0.284125 0.946285 0.000000
0.795087 0.737757 0.000000
0.797357 0.768346 0.000000
0.869843 0.656802 0.000000
0.840870 0.648068 0.000000
0.865462 0.630915 0.000000
0.043233 0.441011 0.000000
0.028792 0.469222 0.000000
0.020751 0.443790 0.000000
0.846918 0.676414 0.000000
0.058991 0.463368 0.000000
0.051906 0.966804 0.000000
0.071758 0.947609 0.000000
0.048298 0.939447 0.000000
0.026398 0.956010 0.000000
0.967109 0.949068 0.000000
0.946807 0.928411 0.000000
0.940173 0.953295 0.000000
0.956764 0.974357 0.000000
0.076722 0.471546 0.000000
0.082324 0.449317 0.000000
0.066669 0.435847 0.000000
0.114035 0.946088 0.000000
0.091278 0.952186 0.000000
0.128453 0.974235 0.000000
0.027019 0.501643 0.000000
0.047138 0.487417 0.000000
0.943388 0.639892 0.000000
0.923239 0.630552 0.000000
0.974491 0.618278 0.000000
0.972785 0.673666 0.000000
0.943930 0.664809 0.000000
0.968693 0.642530 0.000000
0.780685 0.976970 0.000000
0.756289 0.951349 0.000000
0.776857 0.951460 0.000000
0.935276 0.890540 0.000000
0.927168 0.867561 0.000000
0.954227 0.882176 0.000000
0.745760 0.974977 0.000000
0.952002 0.907568 0.000000
0.068063 0.489215 0.000000
0.051512 0.513895 0.000000
0.027757 0.982136 0.000000
0.023217 0.525632 0.000000
0.982410 0.972952 0.000000
0.951072 0.692907 0.000000
0.957020 0.857438 0.000000
0.937630 0.840379 0.000000
0.966912 0.834149 0.000000
0.923427 0.933924 0.000000
0.982257 0.848323 0.000000
0.092881 0.488189 0.000000
0.976737 0.871201 0.000000
0.067960 0.921895 0.000000
0.886538 0.603532 0.000000
0.918896 0.656866 0.000000
0.898227 0.636966 0.000000
0.092880 0.930380 0.000000
0.929071 0.911440 0.000000
0.081137 0.510877 0.000000
0.592772 0.576158 0.000000
0.150419 0.835159 0.000000
0.138607 0.859733 0.000000
0.125762 0.835294 0.000000
0.155304 0.458505 0.000000
0.139466 0.476317 0.000000
0.134858 0.496115 0.000000
0.109061 0.504849 0.000000
0.112238 0.859343 0.000000
0.866826 0.974780 0.000000
0.026919 0.865848 0.000000
0.348411 0.871602 0.000000
0.339654 0.840899 0.000000
0.369544 0.848927 0.000000
0.925986 0.818235 0.000000
0.909684 0.842117 0.000000
0.929360 0.717495 0.000000
0.924028 0.685311 0.000000
0.879688 0.955544 0.000000
0.875200 0.929284 0.000000
0.903901 0.918287 0.000000
0.950764 0.819790 0.000000
0.047492 0.878635 0.000000
0.069665 0.880314 0.000000
0.081712 0.904992 0.000000
0.573454 0.980624 0.000000
0.556694 0.550113 0.000000
0.094318 0.530060 0.000000
0.563246 0.571677 0.000000
0.563825 0.961795 0.000000
0.155902 0.972929 0.000000
0.577162 0.940912 0.000000
0.545227 0.533787 0.000000
0.864670 0.884377 0.000000
0.860690 0.911575 0.000000
0.840756 0.895862 0.000000
0.137227 0.926016 0.000000
0.139814 0.950758 0.000000
0.109156 0.913646 0.000000
0.884976 0.899786 0.000000
0.910807 0.890052 0.000000
0.830819 0.844574 0.000000
0.157710 0.484545 0.000000
0.180718 0.468069 0.000000
0.154331 0.510861 0.000000
0.124262 0.522394 0.000000
0.341085 0.732964 0.000000
0.323736 0.758404 0.000000
0.312899 0.730066 0.000000
0.857321 0.949854 0.000000
0.839840 0.975483 0.000000
0.053549 0.857833 0.000000
0.031143 0.832960 0.000000
0.840338 0.925315 0.000000
0.300796 0.756054 0.000000
0.080783 0.856286 0.000000
0.096939 0.884378 0.000000
0.544800 0.977874 0.000000
0.949430 0.731579 0.000000
0.955247 0.752582 0.000000
0.934712 0.748859 0.000000
0.030153 0.591093 0.000000
[...]
POINT_DATA 1445
SCALARS UX float 1
LOOKUP_TABLE default
-0.055581
0.000511
-0.000000
-0.056133
-0.055875
0.000000
-0.053931
-0.052282
-0.050632
-0.048983
-0.047333
-0.045684
-0.044034
-0.042385
-0.040735
-0.039085
-0.037436
-0.035786
-0.034137
-0.032487
-0.030837
-0.029187
-0.027538
-0.025888
-0.024238
-0.022588
-0.020939
-0.019289
-0.017639
-0.015989
-0.014339
-0.012689
-0.011039
-0.009389
-0.007739
-0.006089
-0.004439
-0.002789
-0.001139
0.000511
0.000511
0.000511
0.000510
0.000510
0.000510
0.000509
0.000509
0.000508
0.000507
0.000506
0.000504
0.000502
0.000500
0.000496
0.000491
0.000484
0.000470
0.000426
-0.000000
0.000000
-0.000000
-0.000000
-0.000000
-0.000000
-0.000000
-0.000000
-0.000000
-0.000000
-0.000000
-0.000000
-0.000000
-0.001651
-0.003303
-0.004954
-0.006606
-0.008257
-0.009909
-0.011561
-0.013213
-0.014864
-0.016516
-0.018168
-0.019819
-0.021471
-0.023122
-0.024774
-0.026425
-0.028076
-0.029727
-0.031378
-0.033029
-0.034679
-0.036330
-0.037980
-0.039631
-0.041281
-0.042931
-0.044582
-0.046232
-0.047882
-0.049532
-0.051182
-0.052833
-0.054483
-0.056133
-0.056133
-0.056134
-0.056134
-0.056135
-0.056136
-0.056137
-0.056138
-0.056140
-0.056141
-0.056142
-0.056144
-0.056146
-0.056147
-0.056149
-0.056152
-0.056154
-0.056153
-0.056131
-0.055592
-0.055577
-0.055574
-0.055575
-0.055576
-0.055577
-0.055578
-0.055579
-0.055579
-0.055580
-0.055580
-0.055580
-0.055581
-0.054219
-0.052587
-0.050939
-0.049280
-0.047624
-0.045976
-0.044325
-0.042676
-0.041024
-0.039374
-0.037716
-0.036065
-0.034411
-0.032753
-0.031110
-0.029457
-0.027818
-0.026179
-0.024526
-0.022884
-0.021226
-0.019574
-0.017925
-0.016269
-0.014622
-0.012975
-0.011332
-0.009689
-0.008051
-0.006409
-0.004772
-0.003156
-0.001575
-0.002937
-0.004626
-0.049058
-0.050519
-0.050299
-0.049534
-0.054499
-0.053509
-0.054731
-0.052974
-0.001252
-0.002050
-0.001472
-0.022170
-0.023641
-0.024081
-0.005794
-0.004524
-0.004060
-0.005644
-0.001455
-0.001282
-0.051837
-0.050378
-0.007788
-0.008503
-0.009033
-0.010101
-0.007202
-0.006613
-0.005904
-0.022107
-0.021066
-0.022474
-0.046708
-0.044958
-0.045592
-0.011922
-0.013773
-0.012438
-0.045391
-0.011164
-0.009559
-0.010925
-0.010521
-0.009957
-0.009339
-0.008433
-0.011721
-0.012757
-0.046045
-0.047131
-0.046489
-0.023129
-0.048171
-0.009695
-0.007886
-0.006613
-0.007154
-0.005926
-0.005055
-0.005571
-0.006919
-0.020627
-0.010199
-0.011925
-0.010559
-0.010746
-0.052413
-0.051442
-0.052882
-0.054043
-0.054706
-0.039042
-0.040643
-0.040192
-0.011522
-0.011390
-0.007343
-0.008972
-0.007596
-0.053706
-0.054538
-0.054977
-0.008624
-0.052843
-0.053221
-0.052107
-0.053424
-0.054652
-0.001847
-0.002987
-0.003359
-0.002428
-0.051848
-0.051514
-0.052340
-0.049735
-0.051012
-0.048926
-0.054637
-0.053510
-0.003211
-0.004350
-0.001464
-0.001537
-0.003171
-0.001779
-0.012315
-0.013686
-0.012531
-0.003635
-0.004090
-0.002570
-0.014277
-0.002695
-0.052336
-0.053263
-0.054576
-0.054849
-0.000988
-0.002758
-0.002414
-0.003503
-0.001859
-0.004300
-0.000997
-0.050942
-0.001306
-0.052321
-0.006404
-0.004585
-0.005756
-0.050922
-0.003983
-0.051601
-0.022894
-0.047696
-0.048358
-0.049080
-0.047411
-0.048320
-0.048586
-0.050034
-0.049838
-0.007478
-0.054624
-0.036586
-0.037079
-0.035401
-0.004158
-0.005073
-0.003976
-0.004285
-0.006756
-0.007008
-0.005396
-0.002766
-0.053470
-0.052226
-0.051549
-0.023952
-0.024906
-0.050860
-0.024553
-0.024493
-0.047386
-0.023745
-0.025515
-0.007600
-0.007823
-0.008943
-0.048434
-0.048289
-0.050009
-0.006459
-0.005009
-0.009503
-0.047302
-0.046005
-0.047494
-0.049181
-0.037004
-0.037976
-0.038586
-0.008012
-0.008993
-0.053131
-0.054388
-0.008966
-0.039263
-0.051603
-0.050695
-0.025561
-0.002845
-0.002516
-0.003671
-0.054455
-0.051026
-0.049981
-0.004576
-0.029477
-0.029354
-0.031124
-0.030635
-0.047145
-0.048719
-0.011853
-0.013061
-0.045875
-0.044150
-0.046018
-0.048126
-0.001472
-0.003037
-0.001480
-0.052472
-0.054873
-0.050671
-0.005999
-0.041163
-0.042304
-0.041503
-0.052675
-0.054176
-0.042808
-0.049110
-0.049937
-0.039673
-0.040951
-0.039503
-0.036397
-0.037447
-0.037891
-0.036166
-0.043627
-0.039263
-0.038267
-0.045668
-0.038552
-0.039167
-0.040001
-0.040964
-0.044323
-0.037328
-0.036472
-0.049727
-0.049385
-0.051042
-0.045079
-0.046934
-0.042749
-0.039984
-0.039221
-0.037786
-0.040726
-0.041586
-0.052208
-0.042407
-0.054661
-0.006531
-0.007500
-0.008028
-0.040060
-0.038559
-0.037576
-0.041848
-0.040480
-0.042573
-0.040834
-0.039133
-0.042609
-0.004434
-0.041293
-0.005639
-0.041435
-0.042610
-0.041366
-0.042520
-0.040933
-0.043460
-0.041140
-0.042448
-0.043487
-0.038350
-0.038134
-0.039971
-0.036808
-0.036912
-0.054506
-0.053375
-0.052870
-0.052027
-0.045754
-0.044135
-0.044377
-0.039400
-0.041476
-0.040791
-0.045344
-0.044786
-0.042209
-0.043769
-0.049190
-0.050507
-0.050878
-0.051122
-0.047453
-0.047380
-0.045892
-0.047418
-0.048375
-0.048399
-0.041904
-0.043471
-0.042677
-0.042162
-0.045768
-0.046652
-0.047169
-0.053706
-0.038640
-0.036944
-0.037490
-0.043993
-0.042238
-0.043157
-0.053262
-0.049393
-0.050625
-0.049606
-0.051299
-0.042496
-0.035850
-0.013266
-0.013052
-0.014795
-0.051897
-0.052318
-0.014433
-0.001422
-0.045046
-0.046014
-0.044176
-0.003062
-0.046725
-0.035297
-0.035909
-0.050762
-0.053348
-0.010762
-0.012423
-0.011118
-0.012036
-0.045545
-0.037742
-0.045105
-0.015088
-0.013355
-0.014629
-0.033996
-0.033433
-0.054631
-0.034769
-0.019500
-0.019158
-0.021164
-0.020763
-0.044177
-0.008878
-0.051088
-0.043473
-0.047203
-0.006895
-0.011212
-0.044328
-0.038549
-0.038624
-0.037383
-0.007950
-0.022628
-0.024183
-0.023813
-0.022282
-0.013956
-0.013051
-0.014930
-0.013837
-0.025475
-0.054467
-0.025710
-0.036066
-0.034399
-0.048202
-0.015950
-0.015633
-0.046713
-0.036838
-0.014091
-0.017938
-0.017581
-0.032950
-0.033936
-0.032195
-0.044338
-0.008087
-0.024986
-0.026000
-0.024805
-0.025413
-0.026501
-0.022013
-0.023562
-0.022426
-0.023182
-0.023749
-0.020565
-0.020822
-0.021520
-0.039955
-0.041215
-0.016320
-0.017413
-0.017345
-0.016323
-0.015295
-0.012838
-0.018907
-0.019174
-0.019859
-0.018244
-0.006135
-0.005544
-0.009270
-0.010383
-0.034459
-0.036296
-0.034922
-0.035756
-0.035724
-0.035075
-0.012932
-0.014279
-0.012639
-0.014626
-0.015957
-0.015633
-0.033590
-0.033992
-0.015466
-0.015878
-0.015012
-0.014009
-0.015622
-0.016316
-0.017308
-0.012901
-0.009655
-0.032159
-0.031645
-0.032974
-0.031999
-0.030315
-0.031069
-0.014297
-0.015987
-0.037905
-0.016825
-0.016450
-0.032627
-0.040523
-0.039287
-0.035191
-0.032689
-0.033842
-0.010276
-0.032723
-0.033171
-0.033980
-0.017630
-0.017247
-0.031864
-0.032249
-0.018901
-0.017989
-0.018962
-0.028397
-0.029908
-0.028508
-0.029595
-0.017705
-0.017216
-0.027260
-0.026881
-0.028496
-0.015985
-0.016645
-0.031026
-0.031465
-0.032272
-0.030919
-0.031267
-0.033493
-0.010573
-0.019643
-0.020619
-0.030171
-0.030559
-0.054632
-0.052823
-0.049488
-0.049692
-0.029347
-0.029771
-0.030594
-0.011318
-0.048023
-0.027674
-0.028102
-0.054076
-0.028916
-0.031819
-0.020559
-0.019329
-0.011873
-0.028493
-0.048651
-0.028881
-0.026004
-0.026418
-0.018509
-0.018117
-0.039368
-0.026823
-0.027213
-0.009730
-0.030155
-0.030423
-0.025153
-0.025553
-0.024750
-0.023487
-0.023886
-0.037915
-0.021302
-0.022280
-0.019372
-0.018974
-0.044684
-0.050179
-0.022221
-0.020988
-0.018618
-0.016956
-0.017640
-0.023086
-0.021824
-0.021614
-0.023274
-0.052315
-0.039415
-0.024933
-0.023943
-0.027607
-0.026606
-0.028222
-0.027268
-0.019957
-0.020948
-0.021026
-0.022684
-0.021425
-0.020165
-0.048167
-0.018301
-0.019770
-0.011641
-0.043584
-0.027211
-0.027081
-0.019294
-0.024338
-0.025609
-0.022964
-0.028079
-0.027985
-0.029289
-0.027632
-0.054910
-0.025469
-0.035643
-0.034873
-0.020103
-0.015295
-0.022651
-0.013691
-0.024627
-0.024315
-0.026290
-0.025976
-0.027875
-0.031796
-0.033094
-0.032587
-0.021426
-0.028113
-0.026823
-0.027802
-0.029347
-0.029568
-0.028937
-0.029165
-0.016736
-0.045125
-0.043925
-0.017192
-0.035167
-0.034363
-0.031901
-0.031076
-0.030815
-0.018108
-0.032869
-0.045950
-0.030083
-0.010499
-0.018993
-0.034037
-0.033704
-0.026804
-0.026232
-0.034705
-0.028988
-0.019896
-0.035555
-0.030519
-0.036632
-0.047056
-0.052702
-0.051016
-0.006618
-0.005159
-0.005388
-0.006136
-0.001124
-0.002113
-0.000891
-0.002649
-0.054328
-0.053533
-0.054108
-0.033462
-0.031991
-0.031553
-0.049794
-0.051062
-0.051525
-0.049944
-0.054127
-0.054299
-0.003785
-0.005243
-0.047818
-0.047100
-0.046575
-0.045506
-0.048408
-0.048991
-0.049704
-0.033501
-0.034541
-0.033134
-0.008913
-0.010663
-0.010029
-0.043676
-0.041828
-0.043162
-0.010231
-0.044436
-0.046037
-0.044672
-0.045078
-0.045643
-0.046259
-0.047164
-0.043880
-0.042845
-0.009597
-0.008511
-0.009156
-0.032481
-0.007474
-0.045907
-0.047713
-0.048982
-0.048441
-0.049666
-0.050535
-0.050024
-0.048681
-0.034980
-0.045396
-0.043672
-0.045037
-0.044849
-0.003245
-0.004211
-0.002768
-0.001612
-0.000945
-0.016578
-0.014977
-0.015428
-0.044084
-0.044212
-0.048273
-0.046648
-0.048029
-0.001995
-0.001141
-0.000719
-0.046989
-0.002840
-0.002401
-0.003515
-0.002199
-0.000970
-0.053736
-0.052597
-0.052225
-0.053156
-0.003830
-0.004175
-0.003362
-0.005886
-0.004610
-0.006695
-0.001029
-0.002162
-0.052404
-0.051276
-0.054188
-0.054048
-0.052429
-0.053824
-0.043281
-0.041912
-0.043066
-0.051950
-0.051495
-0.053013
-0.041322
-0.052888
-0.003336
-0.002400
-0.001046
-0.000810
-0.054594
-0.052831
-0.053169
-0.052081
-0.053723
-0.051286
-0.054584
-0.004728
-0.054275
-0.003302
-0.049237
-0.051025
-0.049867
-0.004700
-0.051602
-0.004063
-0.032737
-0.007928
-0.007265
-0.006545
-0.008258
-0.007348
-0.007078
-0.005630
-0.005786
-0.048112
-0.001000
-0.019035
-0.018544
-0.020220
-0.051428
-0.050514
-0.051614
-0.051313
-0.048833
-0.048581
-0.050191
-0.052817
-0.002154
-0.003398
-0.004073
-0.031658
-0.030726
-0.004799
-0.031078
-0.031118
-0.008235
-0.031866
-0.030119
-0.047990
-0.047767
-0.046649
-0.007187
-0.007333
-0.005613
-0.049129
-0.050578
-0.046091
-0.008362
-0.009657
-0.008165
-0.006479
-0.018624
-0.017651
-0.017044
-0.047579
-0.046599
-0.002494
-0.001237
-0.046626
-0.016365
-0.004021
-0.004928
-0.030051
-0.052740
-0.053067
-0.051915
-0.001191
-0.004623
-0.005673
-0.051012
-0.026158
-0.026280
-0.024511
-0.025001
-0.008477
-0.006904
-0.043743
-0.042536
-0.009783
-0.011506
-0.009636
-0.007529
-0.054109
-0.052547
-0.054101
-0.003153
-0.000754
-0.004954
-0.049590
-0.014482
-0.013343
-0.014145
-0.002970
-0.001465
-0.012841
-0.006540
-0.005708
-0.015970
-0.014691
-0.016138
-0.019239
-0.018188
-0.017746
-0.019467
-0.011993
-0.016375
-0.017372
-0.009954
-0.017074
-0.016458
-0.015625
-0.014661
-0.011331
-0.018297
-0.019155
-0.005906
-0.006246
-0.004590
-0.010570
-0.008715
-0.012902
-0.015646
-0.016410
-0.017844
-0.014902
-0.014045
-0.003433
-0.013222
-0.000976
-0.049058
-0.048091
-0.047565
-0.015564
-0.017064
-0.018048
-0.013793
-0.015160
-0.013072
-0.014804
-0.016503
-0.013030
-0.051152
-0.014355
-0.049950
-0.014192
-0.013014
-0.014258
-0.013103
-0.014689
-0.012177
-0.014495
-0.013185
-0.012144
-0.017293
-0.017507
-0.015675
-0.018833
-0.018729
-0.001129
-0.002261
-0.002764
-0.003610
-0.009878
-0.011494
-0.011257
-0.016221
-0.014144
-0.014830
-0.010292
-0.010853
-0.013414
-0.011854
-0.006439
-0.005121
-0.004752
-0.004512
-0.008177
-0.008248
-0.009736
-0.008209
-0.007252
-0.007227
-0.013716
-0.012150
-0.012945
-0.013458
-0.009865
-0.008984
-0.008465
-0.001926
-0.016980
-0.018675
-0.018130
-0.011633
-0.013388
-0.012471
-0.002364
-0.006249
-0.005016
-0.006033
-0.004345
-0.013156
-0.019773
-0.042342
-0.042552
-0.040812
-0.003729
-0.003309
-0.041172
-0.054159
-0.010577
-0.009611
-0.011448
-0.052522
-0.008898
-0.020331
-0.019721
-0.004865
-0.002290
-0.044861
-0.043202
-0.044512
-0.043584
-0.010102
-0.017892
-0.010539
-0.040514
-0.042245
-0.040972
-0.021632
-0.022193
-0.001107
-0.020856
-0.036133
-0.036472
-0.034466
-0.034870
-0.011469
-0.046715
-0.004550
-0.012175
-0.008420
-0.048697
-0.044383
-0.011323
-0.017095
-0.017020
-0.018259
-0.047687
-0.033001
-0.031447
-0.031815
-0.033344
-0.041666
-0.042566
-0.040689
-0.041777
-0.030156
-0.001160
-0.029919
-0.019559
-0.021224
-0.007439
-0.039651
-0.039968
-0.008926
-0.018800
-0.041512
-0.037695
-0.038048
-0.022686
-0.021702
-0.023442
-0.011284
-0.047506
-0.030632
-0.029621
-0.030814
-0.030209
-0.029118
-0.033604
-0.032056
-0.033193
-0.032434
-0.031871
-0.035050
-0.034796
-0.034095
-0.015691
-0.014433
-0.039290
-0.038198
-0.038268
-0.039285
-0.040316
-0.042760
-0.036706
-0.036442
-0.035753
-0.037367
-0.049455
-0.050054
-0.046358
-0.045235
-0.021160
-0.019323
-0.020698
-0.019863
-0.019916
-0.020564
-0.042699
-0.041355
-0.043000
-0.041003
-0.039673
-0.040003
-0.022030
-0.021630
-0.040138
-0.039728
-0.040601
-0.041602
-0.039994
-0.039298
-0.038310
-0.042709
-0.045982
-0.023468
-0.023980
-0.022650
-0.023636
-0.025318
-0.024564
-0.041302
-0.039614
-0.017716
-0.038779
-0.039153
-0.022995
-0.015109
-0.016347
-0.020427
-0.022944
-0.021795
-0.045336
-0.022895
-0.022448
-0.021638
-0.037978
-0.038360
-0.023755
-0.023372
-0.036707
-0.037627
-0.036657
-0.027225
-0.025715
-0.027116
-0.026027
-0.037899
-0.038386
-0.028353
-0.028732
-0.027119
-0.039638
-0.038975
-0.024591
-0.024153
-0.023345
-0.024702
-0.024356
-0.022125
-0.045021
-0.035975
-0.035002
-0.025448
-0.025060
-0.000999
-0.002807
-0.006140
-0.005934
-0.026269
-0.025846
-0.025022
-0.044318
-0.007609
-0.027940
-0.027513
-0.001553
-0.026698
-0.023797
-0.035052
-0.036281
-0.043739
-0.027124
-0.006984
-0.026738
-0.029609
-0.029196
-0.037097
-0.037489
-0.016254
-0.028793
-0.028404
-0.045862
-0.025461
-0.025203
-0.030461
-0.030062
-0.030862
-0.032126
-0.031728
-0.017707
-0.034318
-0.033342
-0.036234
-0.036631
-0.010944
-0.005458
-0.033392
-0.034624
-0.037010
-0.038671
-0.037984
-0.032525
-0.033787
-0.034010
-0.032351
-0.003318
-0.016206
-0.030693
-0.031681
-0.028023
-0.029022
-0.027407
-0.028358
-0.035666
-0.034678
-0.034582
-0.032926
-0.034184
-0.035444
-0.007470
-0.037320
-0.035837
-0.043975
-0.012058
-0.028409
-0.028542
-0.036331
-0.031274
-0.030017
-0.032657
-0.027542
-0.027650
-0.026331
-0.027987
-0.000723
-0.030143
-0.019995
-0.020763
-0.035525
-0.040331
-0.032963
-0.041936
-0.030995
-0.031300
-0.029334
-0.029641
-0.027750
-0.023836
-0.022538
-0.023044
-0.034202
-0.027518
-0.028808
-0.027831
-0.026285
-0.026062
-0.026691
-0.026461
-0.038897
-0.010500
-0.011699
-0.038411
-0.020467
-0.021269
-0.023727
-0.024551
-0.024814
-0.037495
-0.022759
-0.009676
-0.025544
-0.045095
-0.036612
-0.021596
-0.021926
-0.028830
-0.029401
-0.020925
-0.026645
-0.035710
-0.020076
-0.025112
-0.019000
-0.008570
SCALARS UY float 1
LOOKUP_TABLE default
-0.000000
-0.000000
-0.131000
-0.131000
-0.052400
-0.078607
-0.000000
-0.000000
-0.000000
-0.000000
-0.000000
-0.000000
-0.000000
-0.000000
-0.000000
-0.000000
-0.000000
-0.000000
-0.000000
-0.000000
-0.000000
-0.000000
-0.000000
-0.000000
-0.000000
-0.000000
-0.000000
-0.000000
-0.000000
-0.000000
-0.000000
-0.000000
-0.000000
-0.000000
-0.000000
-0.000000
-0.000000
-0.000000
-0.000000
-0.003927
-0.007854
-0.011780
-0.015707
-0.019634
-0.023560
-0.027487
-0.031413
-0.035340
-0.039266
-0.043193
-0.047119
-0.051046
-0.054972
-0.058898
-0.062824
-0.066750
-0.070677
-0.074611
-0.082386
-0.086132
-0.089871
-0.093609
-0.097348
-0.101087
-0.104827
-0.108566
-0.112305
-0.116044
-0.119783
-0.123522
-0.127261
-0.131000
-0.131000
-0.131000
-0.131000
-0.131000
-0.131000
-0.131000
-0.131000
-0.131000
-0.131000
-0.131000
-0.131000
-0.131000
-0.131000
-0.131000
-0.131000
-0.131000
-0.131000
-0.131000
-0.131000
-0.131000
-0.131000
-0.131000
-0.131000
-0.131000
-0.131000
-0.131000
-0.131000
-0.131000
-0.131000
-0.131000
-0.131000
-0.131000
-0.127072
-0.123144
-0.119217
-0.115289
-0.111362
-0.107434
-0.103507
-0.099579
-0.095652
-0.091725
-0.087797
-0.083870
-0.079943
-0.076016
-0.072090
-0.068163
-0.064236
-0.060308
-0.056374
-0.048606
-0.044864
-0.041125
-0.037386
-0.033647
-0.029909
-0.026170
-0.022431
-0.018693
-0.014954
-0.011216
-0.007477
-0.003739
-0.053168
-0.053947
-0.054718
-0.055480
-0.056262
-0.057025
-0.057804
-0.058568
-0.059339
-0.060107
-0.060876
-0.061647
-0.062409
-0.063188
-0.063959
-0.064719
-0.065496
-0.066273
-0.067033
-0.067804
-0.068584
-0.069346
-0.070117
-0.070886
-0.071655
-0.072426
-0.073191
-0.073970
-0.074735
-0.075519
-0.076283
-0.077059
-0.077844
-0.080926
-0.079922
-0.059636
-0.061015
-0.057959
-0.063022
-0.117330
-0.120269
-0.121355
-0.117800
-0.091211
-0.093664
-0.096466
-0.072010
-0.072064
-0.069955
-0.127330
-0.125461
-0.127887
-0.123752
-0.121139
-0.117750
-0.127542
-0.127654
-0.091553
-0.094761
-0.091924
-0.094426
-0.088549
-0.091037
-0.088157
-0.124155
-0.127467
-0.128029
-0.123672
-0.124290
-0.127452
-0.112150
-0.111948
-0.109116
-0.120841
-0.106418
-0.107081
-0.109780
-0.103742
-0.100868
-0.103743
-0.101254
-0.103666
-0.105980
-0.081412
-0.081402
-0.078404
-0.126089
-0.079008
-0.098013
-0.097630
-0.097486
-0.099969
-0.100246
-0.097700
-0.095189
-0.094298
-0.123800
-0.115715
-0.115767
-0.112944
-0.118936
-0.070127
-0.072443
-0.074113
-0.071126
-0.074159
-0.127259
-0.127753
-0.123968
-0.096669
-0.100674
-0.086073
-0.084929
-0.082686
-0.057827
-0.061520
-0.058186
-0.088639
-0.060754
-0.126654
-0.124141
-0.123072
-0.125241
-0.124335
-0.121631
-0.124888
-0.127644
-0.061824
-0.058910
-0.057135
-0.123942
-0.124740
-0.127627
-0.065762
-0.063902
-0.083851
-0.082628
-0.081013
-0.088287
-0.087120
-0.084201
-0.127985
-0.124631
-0.124646
-0.116675
-0.113667
-0.115580
-0.127724
-0.118903
-0.064138
-0.067367
-0.128661
-0.068902
-0.127460
-0.090804
-0.112343
-0.110110
-0.109295
-0.122352
-0.111150
-0.064003
-0.114144
-0.120775
-0.079097
-0.086078
-0.083473
-0.121886
-0.119410
-0.066973
-0.075520
-0.109421
-0.112638
-0.109439
-0.060117
-0.062452
-0.065043
-0.066186
-0.112587
-0.127699
-0.113437
-0.114192
-0.110173
-0.111224
-0.107211
-0.110336
-0.094022
-0.089805
-0.125181
-0.121744
-0.120306
-0.107416
-0.115111
-0.115331
-0.118562
-0.128463
-0.072107
-0.069485
-0.074931
-0.125998
-0.127456
-0.123265
-0.069963
-0.115866
-0.119426
-0.117369
-0.121315
-0.124554
-0.119695
-0.117884
-0.116610
-0.110655
-0.063528
-0.061375
-0.066973
-0.068483
-0.096045
-0.099375
-0.095666
-0.124436
-0.127791
-0.112388
-0.109132
-0.121224
-0.099067
-0.112186
-0.115864
-0.128103
-0.095869
-0.098619
-0.098130
-0.077470
-0.075975
-0.072060
-0.101126
-0.068478
-0.072131
-0.071333
-0.067585
-0.119422
-0.116604
-0.121533
-0.122041
-0.065145
-0.062373
-0.069734
-0.071147
-0.106186
-0.104592
-0.103154
-0.109132
-0.105752
-0.108854
-0.113787
-0.072437
-0.071845
-0.069657
-0.078692
-0.081898
-0.068957
-0.075091
-0.078918
-0.072912
-0.075891
-0.076977
-0.081537
-0.084209
-0.081048
-0.085796
-0.127065
-0.080704
-0.077981
-0.116527
-0.102632
-0.106407
-0.102337
-0.105951
-0.066897
-0.102222
-0.099418
-0.092286
-0.096046
-0.094776
-0.073111
-0.074628
-0.064948
-0.095380
-0.092769
-0.092272
-0.098445
-0.094813
-0.082902
-0.098242
-0.086067
-0.110729
-0.113135
-0.109635
-0.109753
-0.109908
-0.106386
-0.079685
-0.079217
-0.075650
-0.082826
-0.084662
-0.083437
-0.104038
-0.066447
-0.103083
-0.101570
-0.107704
-0.109544
-0.111469
-0.112916
-0.087503
-0.087429
-0.090971
-0.094575
-0.070292
-0.074343
-0.068668
-0.072372
-0.068231
-0.090119
-0.087897
-0.090720
-0.087279
-0.094809
-0.098422
-0.091158
-0.120262
-0.121338
-0.116981
-0.087661
-0.083540
-0.115070
-0.114891
-0.099394
-0.101401
-0.098426
-0.091419
-0.097752
-0.101489
-0.099844
-0.104453
-0.102975
-0.106061
-0.125148
-0.122423
-0.118287
-0.128440
-0.091429
-0.088317
-0.090893
-0.093584
-0.123864
-0.126681
-0.121520
-0.105264
-0.104340
-0.101677
-0.105859
-0.081464
-0.082200
-0.084556
-0.079767
-0.061531
-0.107291
-0.099100
-0.102662
-0.101588
-0.106100
-0.101965
-0.105030
-0.099687
-0.112411
-0.108959
-0.109291
-0.101443
-0.112807
-0.096613
-0.092927
-0.104691
-0.084989
-0.083845
-0.082662
-0.080405
-0.086161
-0.075901
-0.087618
-0.079092
-0.114473
-0.115121
-0.117615
-0.093597
-0.097242
-0.055322
-0.100386
-0.073063
-0.076869
-0.076188
-0.071822
-0.075665
-0.113597
-0.085056
-0.072522
-0.116008
-0.102800
-0.125090
-0.070217
-0.066484
-0.063066