# vtk DataFile Version 2.0
Test
ASCII
DATASET POLYDATA
POINTS 1445 float
0.000000 0.000000 0.000000
1.000000 0.000000 0.000000
1.000000 1.000000 0.000000
0.000000 1.000000 0.000000
0.000000 0.400000 0.000000
1.000000 0.600000 0.000000
0.029412 0.000000 0.000000
0.058824 0.000000 0.000000
0.088235 0.000000 0.000000
0.117647 0.000000 0.000000
0.147059 0.000000 0.000000
0.176471 0.000000 0.000000
0.205882 0.000000 0.000000
0.235294 0.000000 0.000000
0.264706 0.000000 0.000000
0.294118 0.000000 0.000000
0.323529 0.000000 0.000000
0.352941 0.000000 0.000000
0.382353 0.000000 0.000000
0.411765 0.000000 0.000000
0.441176 0.000000 0.000000
0.470588 0.000000 0.000000
0.500000 0.000000 0.000000
0.529412 0.000000 0.000000
0.558824 0.000000 0.000000
0.588235 0.000000 0.000000
0.617647 0.000000 0.000000
0.647059 0.000000 0.000000
0.676471 0.000000 0.000000
0.705882 0.000000 0.000000
0.735294 0.000000 0.000000
0.764706 0.000000 0.000000
0.794118 0.000000 0.000000
0.823529 0.000000 0.000000
0.852941 0.000000 0.000000
0.882353 0.000000 0.000000
0.911765 0.000000 0.000000
0.941176 0.000000 0.000000
0.970588 0.000000 0.000000
1.000000 0.030000 0.000000
1.000000 0.060000 0.000000
1.000000 0.090000 0.000000
1.000000 0.120000 0.000000
1.000000 0.150000 0.000000
1.000000 0.180000 0.000000
1.000000 0.210000 0.000000
1.000000 0.240000 0.000000
1.000000 0.270000 0.000000
1.000000 0.300000 0.000000
1.000000 0.330000 0.000000
1.000000 0.360000 0.000000
1.000000 0.390000 0.000000
1.000000 0.420000 0.000000
1.000000 0.450000 0.000000
1.000000 0.480000 0.000000
1.000000 0.510000 0.000000
1.000000 0.540000 0.000000
1.000000 0.570000 0.000000
1.000000 0.628571 0.000000
1.000000 0.657143 0.000000
1.000000 0.685714 0.000000
1.000000 0.714286 0.000000
1.000000 0.742857 0.000000
1.000000 0.771429 0.000000
1.000000 0.800000 0.000000
1.000000 0.828571 0.000000
1.000000 0.857143 0.000000
1.000000 0.885714 0.000000
1.000000 0.914286 0.000000
1.000000 0.942857 0.000000
1.000000 0.971429 0.000000
0.970588 1.000000 0.000000
0.941176 1.000000 0.000000
0.911765 1.000000 0.000000
0.882353 1.000000 0.000000
0.852941 1.000000 0.000000
0.823529 1.000000 0.000000
0.794118 1.000000 0.000000
0.764706 1.000000 0.000000
0.735294 1.000000 0.000000
0.705882 1.000000 0.000000
0.676471 1.000000 0.000000
0.647059 1.000000 0.000000
0.617647 1.000000 0.000000
0.588235 1.000000 0.000000
0.558824 1.000000 0.000000
0.529412 1.000000 0.000000
0.500000 1.000000 0.000000
0.470588 1.000000 0.000000
0.441176 1.000000 0.000000
0.411765 1.000000 0.000000
0.382353 1.000000 0.000000
0.352941 1.000000 0.000000
0.323529 1.000000 0.000000
0.294118 1.000000 0.000000
0.264706 1.000000 0.000000
0.235294 1.000000 0.000000
0.205882 1.000000 0.000000
0.176471 1.000000 0.000000
0.147059 1.000000 0.000000
0.117647 1.000000 0.000000
0.088235 1.000000 0.000000
0.058824 1.000000 0.000000
0.029412 1.000000 0.000000
0.000000 0.970000 0.000000
0.000000 0.940000 0.000000
0.000000 0.910000 0.000000
0.000000 0.880000 0.000000
0.000000 0.850000 0.000000
0.000000 0.820000 0.000000
0.000000 0.790000 0.000000
0.000000 0.760000 0.000000
0.000000 0.730000 0.000000
0.000000 0.700000 0.000000
0.000000 0.670000 0.000000
0.000000 0.640000 0.000000
0.000000 0.610000 0.000000
0.000000 0.580000 0.000000
0.000000 0.550000 0.000000
0.000000 0.520000 0.000000
0.000000 0.490000 0.000000
0.000000 0.460000 0.000000
0.000000 0.430000 0.000000
0.000000 0.371429 0.000000
0.000000 0.342857 0.000000
0.000000 0.314286 0.000000
0.000000 0.285714 0.000000
0.000000 0.257143 0.000000
0.000000 0.228571 0.000000
0.000000 0.200000 0.000000
0.000000 0.171429 0.000000
0.000000 0.142857 0.000000
0.000000 0.114286 0.000000
0.000000 0.085714 0.000000
0.000000 0.057143 0.000000
0.000000 0.028571 0.000000
0.029412 0.405882 0.000000
0.058824 0.411765 0.000000
0.088235 0.417647 0.000000
0.117647 0.423529 0.000000
0.147059 0.429412 0.000000
0.176471 0.435294 0.000000
0.205882 0.441176 0.000000
0.235294 0.447059 0.000000
0.264706 0.452941 0.000000
0.294118 0.458824 0.000000
0.323529 0.464706 0.000000
0.352941 0.470588 0.000000
0.382353 0.476471 0.000000
0.411765 0.482353 0.000000
0.441176 0.488235 0.000000
0.470588 0.494118 0.000000
0.500000 0.500000 0.000000
0.529412 0.505882 0.000000
0.558824 0.511765 0.000000
0.588235 0.517647 0.000000
0.617647 0.523529 0.000000
0.647059 0.529412 0.000000
0.676471 0.535294 0.000000
0.705882 0.541176 0.000000
0.735294 0.547059 0.000000
0.764706 0.552941 0.000000
0.794118 0.558824 0.000000
0.823529 0.564706 0.000000
0.852941 0.570588 0.000000
0.882353 0.576471 0.000000
0.911765 0.582353 0.000000
0.941176 0.588235 0.000000
0.970588 0.594118 0.000000
0.948492 0.617586 0.000000
0.918239 0.609871 0.000000
0.126115 0.454845 0.000000
0.100318 0.465379 0.000000
0.103006 0.442114 0.000000
0.117916 0.480680 0.000000
0.029145 0.895585 0.000000
0.046774 0.918032 0.000000
0.024990 0.926329 0.000000
0.056315 0.899171 0.000000
0.977770 0.695981 0.000000
0.963577 0.714729 0.000000
0.973827 0.736127 0.000000
0.605253 0.549394 0.000000
0.579370 0.549801 0.000000
0.570019 0.533816 0.000000
0.896809 0.971959 0.000000
0.919426 0.957680 0.000000
0.927686 0.976215 0.000000
0.899487 0.944624 0.000000
0.974081 0.924646 0.000000
0.977161 0.898750 0.000000
0.076578 0.973587 0.000000
0.102577 0.974440 0.000000
0.861693 0.698664 0.000000
0.848870 0.723174 0.000000
0.839521 0.701504 0.000000
0.820447 0.720618 0.000000
0.872237 0.675719 0.000000
0.882611 0.694724 0.000000
0.895344 0.672729 0.000000
0.606326 0.947716 0.000000
0.624868 0.973015 0.000000
0.599776 0.977307 0.000000
0.167986 0.944019 0.000000
0.199183 0.948746 0.000000
0.187884 0.972901 0.000000
0.787752 0.856005 0.000000
0.754801 0.854462 0.000000
0.778588 0.832828 0.000000
0.191471 0.922393 0.000000
0.801312 0.812216 0.000000
0.829867 0.817276 0.000000
0.805526 0.837896 0.000000
0.812775 0.791772 0.000000
0.822869 0.769821 0.000000
0.833826 0.791773 0.000000
0.849982 0.772760 0.000000
0.791421 0.791198 0.000000
0.772962 0.808877 0.000000
0.180049 0.621172 0.000000
0.160680 0.621098 0.000000
0.172158 0.598185 0.000000
0.588124 0.962489 0.000000
0.142171 0.602810 0.000000
0.827587 0.748015 0.000000
0.859778 0.745080 0.000000
0.882413 0.743965 0.000000
0.872759 0.762938 0.000000
0.894601 0.765041 0.000000
0.910115 0.745588 0.000000
0.901004 0.726420 0.000000
0.877058 0.719626 0.000000
0.632694 0.945006 0.000000
0.818411 0.883232 0.000000
0.787667 0.883633 0.000000
0.812018 0.862064 0.000000
0.808649 0.907835 0.000000
0.066636 0.534974 0.000000
0.083909 0.552665 0.000000
0.058224 0.565435 0.000000
0.037551 0.542621 0.000000
0.025720 0.565794 0.000000
0.304619 0.971425 0.000000
0.276072 0.975195 0.000000
0.284125 0.946285 0.000000
0.795087 0.737757 0.000000
0.797357 0.768346 0.000000
0.869843 0.656802 0.000000
0.840870 0.648068 0.000000
0.865462 0.630915 0.000000
0.043233 0.441011 0.000000
0.028792 0.469222 0.000000
0.020751 0.443790 0.000000
0.846918 0.676414 0.000000
0.058991 0.463368 0.000000
0.051906 0.966804 0.000000
0.071758 0.947609 0.000000
0.048298 0.939447 0.000000
0.026398 0.956010 0.000000
0.967109 0.949068 0.000000
0.946807 0.928411 0.000000
0.940173 0.953295 0.000000
0.956764 0.974357 0.000000
0.076722 0.471546 0.000000
0.082324 0.449317 0.000000
0.066669 0.435847 0.000000
0.114035 0.946088 0.000000
0.091278 0.952186 0.000000
0.128453 0.974235 0.000000
0.027019 0.501643 0.000000
0.047138 0.487417 0.000000
0.943388 0.639892 0.000000
0.923239 0.630552 0.000000
0.974491 0.618278 0.000000
0.972785 0.673666 0.000000
0.943930 0.664809 0.000000
0.968693 0.642530 0.000000
0.780685 0.976970 0.000000
0.756289 0.951349 0.000000
0.776857 0.951460 0.000000
0.935276 0.890540 0.000000
0.927168 0.867561 0.000000
0.954227 0.882176 0.000000
0.745760 0.974977 0.000000
0.952002 0.907568 0.000000
0.068063 0.489215 0.000000
0.051512 0.513895 0.000000
0.027757 0.982136 0.000000
0.023217 0.525632 0.000000
0.982410 0.972952 0.000000
0.951072 0.692907 0.000000
0.957020 0.857438 0.000000
0.937630 0.840379 0.000000
0.966912 0.834149 0.000000
0.923427 0.933924 0.000000
0.982257 0.848323 0.000000
0.092881 0.488189 0.000000
0.976737 0.871201 0.000000
0.067960 0.921895 0.000000
0.886538 0.603532 0.000000
0.918896 0.656866 0.000000
0.898227 0.636966 0.000000
0.092880 0.930380 0.000000
0.929071 0.911440 0.000000
0.081137 0.510877 0.000000
0.592772 0.576158 0.000000
0.150419 0.835159 0.000000
0.138607 0.859733 0.000000
0.125762 0.835294 0.000000
0.155304 0.458505 0.000000
0.139466 0.476317 0.000000
0.134858 0.496115 0.000000
0.109061 0.504849 0.000000
0.112238 0.859343 0.000000
0.866826 0.974780 0.000000
0.026919 0.865848 0.000000
0.348411 0.871602 0.000000
0.339654 0.840899 0.000000
0.369544 0.848927 0.000000
0.925986 0.818235 0.000000
0.909684 0.842117 0.000000
0.929360 0.717495 0.000000
0.924028 0.685311 0.000000
0.879688 0.955544 0.000000
0.875200 0.929284 0.000000
0.903901 0.918287 0.000000
0.950764 0.819790 0.000000
0.047492 0.878635 0.000000
0.069665 0.880314 0.000000
0.081712 0.904992 0.000000
0.573454 0.980624 0.000000
0.556694 0.550113 0.000000
0.094318 0.530060 0.000000
0.563246 0.571677 0.000000
0.563825 0.961795 0.000000
0.155902 0.972929 0.000000
0.577162 0.940912 0.000000
0.545227 0.533787 0.000000
0.864670 0.884377 0.000000
0.860690 0.911575 0.000000
0.840756 0.895862 0.000000
0.137227 0.926016 0.000000
0.139814 0.950758 0.000000
0.109156 0.913646 0.000000
0.884976 0.899786 0.000000
0.910807 0.890052 0.000000
0.830819 0.844574 0.000000
0.157710 0.484545 0.000000
0.180718 0.468069 0.000000
0.154331 0.510861 0.000000
0.124262 0.522394 0.000000
0.341085 0.732964 0.000000
0.323736 0.758404 0.000000
0.312899 0.730066 0.000000
0.857321 0.949854 0.000000
0.839840 0.975483 0.000000
0.053549 0.857833 0.000000
0.031143 0.832960 0.000000
0.840338 0.925315 0.000000
0.300796 0.756054 0.000000
0.080783 0.856286 0.000000
0.096939 0.884378 0.000000
0.544800 0.977874 0.000000
0.949430 0.731579 0.000000
0.955247 0.752582 0.000000
0.934712 0.748859 0.000000
0.030153 0.591093 0.000000
[...]
POINT_DATA 1445
SCALARS UX float 1
LOOKUP_TABLE default
-0.257571
-0.000000
0.000000
-0.257571
-0.257571
0.000000
-0.249995
-0.242420
-0.234844
-0.227269
-0.219693
-0.212117
-0.204542
-0.196966
-0.189391
-0.181815
-0.174239
-0.166664
-0.159088
-0.151512
-0.143937
-0.136361
-0.128786
-0.121210
-0.113634
-0.106059
-0.098483
-0.090907
-0.083332
-0.075756
-0.068181
-0.060605
-0.053029
-0.045454
-0.037878
-0.030302
-0.022727
-0.015151
-0.007576
-0.000000
-0.000000
-0.000000
-0.000000
-0.000000
-0.000000
-0.000000
-0.000000
-0.000000
-0.000000
-0.000000
-0.000000
-0.000000
-0.000000
-0.000000
-0.000000
-0.000000
0.000000
0.000000
-0.000000
-0.000000
0.000000
-0.000000
-0.000000
-0.000000
-0.000000
0.000000
-0.000000
0.000000
-0.000000
0.000000
-0.000000
-0.007576
-0.015151
-0.022727
-0.030302
-0.037878
-0.045454
-0.053029
-0.060605
-0.068181
-0.075756
-0.083332
-0.090907
-0.098483
-0.106059
-0.113634
-0.121210
-0.128786
-0.136361
-0.143937
-0.151512
-0.159088
-0.166664
-0.174239
-0.181815
-0.189391
-0.196966
-0.204542
-0.212117
-0.219693
-0.227269
-0.234844
-0.242420
-0.249995
-0.257571
-0.257571
-0.257571
-0.257571
-0.257571
-0.257571
-0.257571
-0.257571
-0.257571
-0.257571
-0.257571
-0.257571
-0.257571
-0.257571
-0.257571
-0.257571
-0.257571
-0.257571
-0.257571
-0.257571
-0.257571
-0.257571
-0.257571
-0.257571
-0.257571
-0.257571
-0.257571
-0.257571
-0.257571
-0.257571
-0.257571
-0.257571
-0.249995
-0.242420
-0.234844
-0.227269
-0.219693
-0.212117
-0.204542
-0.196966
-0.189391
-0.181815
-0.174239
-0.166664
-0.159088
-0.151512
-0.143937
-0.136361
-0.128786
-0.121210
-0.113634
-0.106059
-0.098483
-0.090907
-0.083332
-0.075756
-0.068181
-0.060605
-0.053029
-0.045454
-0.037878
-0.030302
-0.022727
-0.015151
-0.007576
-0.013267
-0.021059
-0.225087
-0.231732
-0.231040
-0.227199
-0.250064
-0.245523
-0.251134
-0.243066
-0.005726
-0.009382
-0.006741
-0.101675
-0.108342
-0.110751
-0.026579
-0.020753
-0.018626
-0.025889
-0.006676
-0.005883
-0.237847
-0.231150
-0.035624
-0.038927
-0.041335
-0.046248
-0.032908
-0.030236
-0.026956
-0.101399
-0.096623
-0.103086
-0.214303
-0.206267
-0.209178
-0.054669
-0.063156
-0.057029
-0.208254
-0.051176
-0.043821
-0.050091
-0.048224
-0.045624
-0.042802
-0.038640
-0.053724
-0.058479
-0.211196
-0.216185
-0.213228
-0.106087
-0.220952
-0.044409
-0.036117
-0.030287
-0.032774
-0.027148
-0.023152
-0.025498
-0.031666
-0.094607
-0.046772
-0.054691
-0.048419
-0.049286
-0.240408
-0.235959
-0.242574
-0.247899
-0.250946
-0.179110
-0.186463
-0.184389
-0.052780
-0.052195
-0.033525
-0.040987
-0.034653
-0.246436
-0.250155
-0.252226
-0.039429
-0.242377
-0.244202
-0.239088
-0.245131
-0.250772
-0.008472
-0.013701
-0.015410
-0.011136
-0.237810
-0.236367
-0.240399
-0.228199
-0.234060
-0.224485
-0.250612
-0.245430
-0.014582
-0.019771
-0.006570
-0.007010
-0.014442
-0.008064
-0.056489
-0.062773
-0.057475
-0.016671
-0.018759
-0.011790
-0.065485
-0.012363
-0.240040
-0.244303
-0.250422
-0.251591
-0.004531
-0.012603
-0.011070
-0.016065
-0.008522
-0.019723
-0.004570
-0.233648
-0.005992
-0.240067
-0.029225
-0.020890
-0.026214
-0.233648
-0.018269
-0.236673
-0.104890
-0.218828
-0.221870
-0.225178
-0.217569
-0.221649
-0.222836
-0.229480
-0.228662
-0.034302
-0.250638
-0.167830
-0.170086
-0.162387
-0.019064
-0.023263
-0.018195
-0.019568
-0.030989
-0.032145
-0.024752
-0.012682
-0.245339
-0.239627
-0.236524
-0.109866
-0.114183
-0.233278
-0.112495
-0.112346
-0.217415
-0.108911
-0.117136
-0.034857
-0.035882
-0.041017
-0.222225
-0.221559
-0.229456
-0.029627
-0.022974
-0.043576
-0.216950
-0.211023
-0.217820
-0.225565
-0.169717
-0.174186
-0.176977
-0.036750
-0.041253
-0.243778
-0.249550
-0.041124
-0.180095
-0.236764
-0.232602
-0.117246
-0.013025
-0.011527
-0.016816
-0.249805
-0.234053
-0.229248
-0.020966
-0.135218
-0.134554
-0.142681
-0.140588
-0.216307
-0.223528
-0.054364
-0.059907
-0.210390
-0.202488
-0.211049
-0.220728
-0.006748
-0.013922
-0.006783
-0.240754
-0.251771
-0.232481
-0.027510
-0.188757
-0.193996
-0.190313
-0.241632
-0.248533
-0.196304
-0.225255
-0.229062
-0.181915
-0.187794
-0.181144
-0.166895
-0.171723
-0.173753
-0.165847
-0.200160
-0.180051
-0.175473
-0.209523
-0.176836
-0.179664
-0.183490
-0.187916
-0.203264
-0.171218
-0.167281
-0.228123
-0.226562
-0.234164
-0.206743
-0.215263
-0.196064
-0.183398
-0.179889
-0.173300
-0.186810
-0.190751
-0.239497
-0.194529
-0.250768
-0.029949
-0.034393
-0.036807
-0.183768
-0.176882
-0.172361
-0.191921
-0.185636
-0.195239
-0.187270
-0.179465
-0.195421
-0.020326
-0.189364
-0.025846
-0.190071
-0.195475
-0.189765
-0.195065
-0.187783
-0.199337
-0.188686
-0.194701
-0.199477
-0.175837
-0.174848
-0.183285
-0.168754
-0.169252
-0.250060
-0.244865
-0.242554
-0.238676
-0.209887
-0.202461
-0.203556
-0.180750
-0.190284
-0.187136
-0.207990
-0.205421
-0.193640
-0.200802
-0.225671
-0.231722
-0.233417
-0.234525
-0.217692
-0.217362
-0.210532
-0.217541
-0.221933
-0.222050
-0.192250
-0.199442
-0.195792
-0.193433
-0.209947
-0.213996
-0.216377
-0.246396
-0.177264
-0.169484
-0.171986
-0.201817
-0.193763
-0.197974
-0.244377
-0.226569
-0.232228
-0.227555
-0.235317
-0.195200
-0.164439
-0.060785
-0.059821
-0.067811
-0.238109
-0.240037
-0.066161
-0.006514
-0.206663
-0.211102
-0.202665
-0.014032
-0.214371
-0.161880
-0.164680
-0.232896
-0.244737
-0.049188
-0.056808
-0.050814
-0.055059
-0.208886
-0.173084
-0.206874
-0.069190
-0.061243
-0.067090
-0.155900
-0.153325
-0.251037
-0.159467
-0.089415
-0.087741
-0.096950
-0.095329
-0.202606
-0.040713
-0.234361
-0.199366
-0.216568
-0.031601
-0.051429
-0.203288
-0.176799
-0.177504
-0.171654
-0.036262
-0.103664
-0.110796
-0.109113
-0.102089
-0.063866
-0.059739
-0.068362
-0.063368
-0.116721
-0.249905
-0.117820
-0.165424
-0.157775
-0.221102
-0.073158
-0.071705
-0.214270
-0.168909
-0.064605
-0.082233
-0.080490
-0.151050
-0.155612
-0.147667
-0.203419
-0.037072
-0.114566
-0.119210
-0.113727
-0.116506
-0.121522
-0.100916
-0.108025
-0.102800
-0.106292
-0.108871
-0.094275
-0.095440
-0.098665
-0.183261
-0.189194
-0.074800
-0.079818
-0.079491
-0.074828
-0.070085
-0.058880
-0.086668
-0.087879
-0.091049
-0.083637
-0.028126
-0.025353
-0.042324
-0.047483
-0.158073
-0.166505
-0.160191
-0.164025
-0.163862
-0.160798
-0.059151
-0.065413
-0.058095
-0.066918
-0.073027
-0.071808
-0.154076
-0.155914
-0.070917
-0.072796
-0.068772
-0.064179
-0.071558
-0.074756
-0.079290
-0.059095
-0.044151
-0.147471
-0.145121
-0.151228
-0.146681
-0.138951
-0.142421
-0.065576
-0.073325
-0.173885
-0.077157
-0.075441
-0.149644
-0.185864
-0.180181
-0.161437
-0.149864
-0.155143
-0.047021
-0.150104
-0.152156
-0.155876
-0.080832
-0.079083
-0.146153
-0.147915
-0.086671
-0.082431
-0.086881
-0.130213
-0.137149
-0.130710
-0.135717
-0.081204
-0.078966
-0.125041
-0.123302
-0.130710
-0.073181
-0.076230
-0.142315
-0.144327
-0.148037
-0.141804
-0.143392
-0.153641
-0.048499
-0.090019
-0.094485
-0.138382
-0.140160
-0.250652
-0.242348
-0.227043
-0.227983
-0.134611
-0.136555
-0.140338
-0.051830
-0.220303
-0.126935
-0.128897
-0.248103
-0.132640
-0.145961
-0.094274
-0.088627
-0.054361
-0.130682
-0.223179
-0.132456
-0.119274
-0.121168
-0.084882
-0.083086
-0.180599
-0.123020
-0.124804
-0.044632
-0.138323
-0.139501
-0.115357
-0.117188
-0.113517
-0.107713
-0.109537
-0.173929
-0.097631
-0.102106
-0.088848
-0.087027
-0.204985
-0.230190
-0.101898
-0.096237
-0.085248
-0.077617
-0.080778
-0.105882
-0.100085
-0.099035
-0.106657
-0.240008
-0.180819
-0.114270
-0.109740
-0.126532
-0.121950
-0.129367
-0.125001
-0.091428
-0.095965
-0.096438
-0.104040
-0.098263
-0.092474
-0.220953
-0.083831
-0.090671
-0.053270
-0.199891
-0.124774
-0.124164
-0.088368
-0.111628
-0.117383
-0.105257
-0.128762
-0.128337
-0.134324
-0.126717
-0.251922
-0.116821
-0.163413
-0.159886
-0.092070
-0.069990
-0.103865
-0.062626
-0.112891
-0.111500
-0.120524
-0.119122
-0.127796
-0.145770
-0.151735
-0.149412
-0.098147
-0.128844
-0.122917
-0.127402
-0.134514
-0.135545
-0.132659
-0.133719
-0.076663
-0.207020
-0.201514
-0.078854
-0.161251
-0.157567
-0.146275
-0.142491
-0.141280
-0.083059
-0.150722
-0.210804
-0.137930
-0.048158
-0.087116
-0.156061
-0.154550
-0.122854
-0.120187
-0.159149
-0.132853
-0.091256
-0.163047
-0.139906
-0.167992
-0.215883
-0.244304
-0.236512
-0.032484
-0.025839
-0.026531
-0.030372
-0.007507
-0.012048
-0.006437
-0.014505
-0.251845
-0.248189
-0.250830
-0.155896
-0.149229
-0.146820
-0.230992
-0.236818
-0.238945
-0.231682
-0.250895
-0.251688
-0.019724
-0.026421
-0.221947
-0.218644
-0.216236
-0.211323
-0.224663
-0.227335
-0.230615
-0.156172
-0.160948
-0.154485
-0.043268
-0.051304
-0.048394
-0.202902
-0.194415
-0.200542
-0.049317
-0.206395
-0.213750
-0.207480
-0.209347
-0.211947
-0.214770
-0.218931
-0.203847
-0.199093
-0.046375
-0.041387
-0.044343
-0.151484
-0.036619
-0.213162
-0.221454
-0.227284
-0.224798
-0.230423
-0.234419
-0.232073
-0.225905
-0.162964
-0.210799
-0.202880
-0.209152
-0.208285
-0.017163
-0.021612
-0.014997
-0.009672
-0.006625
-0.078461
-0.071108
-0.073182
-0.204791
-0.205376
-0.224046
-0.216584
-0.222918
-0.011136
-0.007416
-0.005345
-0.218142
-0.015195
-0.013369
-0.018483
-0.012440
-0.006799
-0.249099
-0.243870
-0.242161
-0.246435
-0.019761
-0.021204
-0.017172
-0.029372
-0.023511
-0.033086
-0.006959
-0.012141
-0.242989
-0.237800
-0.251001
-0.250561
-0.243129
-0.249507
-0.201082
-0.194798
-0.200096
-0.240900
-0.238812
-0.245781
-0.192086
-0.245208
-0.017531
-0.013268
-0.007149
-0.005980
-0.253040
-0.244969
-0.246501
-0.241506
-0.249049
-0.237848
-0.253001
-0.023923
-0.251579
-0.017504
-0.228347
-0.236681
-0.231357
-0.023923
-0.239302
-0.020898
-0.152681
-0.038743
-0.035701
-0.032393
-0.040002
-0.035922
-0.034735
-0.028091
-0.028909
-0.223269
-0.006933
-0.089741
-0.087485
-0.095184
-0.238507
-0.234308
-0.239376
-0.238003
-0.226582
-0.225426
-0.232819
-0.244889
-0.012233
-0.017944
-0.021047
-0.147705
-0.143388
-0.024294
-0.145076
-0.145225
-0.040156
-0.148660
-0.140435
-0.222714
-0.221689
-0.216554
-0.035346
-0.036012
-0.028115
-0.227944
-0.234598
-0.213995
-0.040622
-0.046548
-0.039751
-0.032006
-0.087854
-0.083385
-0.080594
-0.220821
-0.216319
-0.013793
-0.008021
-0.216447
-0.077476
-0.020807
-0.024969
-0.140325
-0.244546
-0.246044
-0.240755
-0.007766
-0.023518
-0.028323
-0.236605
-0.122353
-0.123017
-0.114891
-0.116983
-0.041264
-0.034043
-0.203208
-0.197664
-0.047181
-0.055083
-0.046522
-0.036843
-0.250823
-0.243649
-0.250788
-0.016817
-0.005801
-0.025090
-0.230061
-0.068814
-0.063575
-0.067258
-0.015939
-0.009038
-0.061268
-0.032316
-0.028509
-0.075656
-0.069777
-0.076427
-0.090676
-0.085848
-0.083818
-0.091725
-0.057411
-0.077520
-0.082098
-0.048048
-0.080735
-0.077907
-0.074081
-0.069655
-0.054307
-0.086354
-0.090290
-0.029448
-0.031009
-0.023407
-0.050828
-0.042308
-0.061507
-0.074173
-0.077682
-0.084271
-0.070761
-0.066820
-0.018074
-0.063043
-0.006803
-0.227622
-0.223178
-0.220764
-0.073803
-0.080690
-0.085210
-0.065650
-0.071935
-0.062333
-0.070301
-0.078106
-0.062150
-0.237245
-0.068207
-0.231725
-0.067500
-0.062096
-0.067806
-0.062506
-0.069788
-0.058234
-0.068885
-0.062870
-0.058094
-0.081734
-0.082723
-0.074286
-0.088817
-0.088319
-0.007511
-0.012706
-0.015017
-0.018896
-0.047684
-0.055110
-0.054015
-0.076821
-0.067287
-0.070435
-0.049581
-0.052150
-0.063932
-0.056769
-0.031900
-0.025849
-0.024154
-0.023046
-0.039879
-0.040209
-0.047039
-0.040030
-0.035638
-0.035521
-0.065321
-0.058129
-0.061779
-0.064138
-0.047624
-0.043575
-0.041194
-0.011175
-0.080307
-0.088087
-0.085586
-0.055754
-0.063809
-0.059597
-0.013195
-0.031002
-0.025344
-0.030016
-0.022254
-0.062371
-0.093132
-0.196786
-0.197750
-0.189760
-0.019462
-0.017534
-0.191410
-0.251057
-0.050908
-0.046469
-0.054906
-0.243539
-0.043200
-0.095692
-0.092891
-0.024675
-0.012834
-0.208383
-0.200763
-0.206757
-0.202512
-0.048685
-0.084487
-0.050697
-0.188381
-0.196328
-0.190481
-0.101671
-0.104246
-0.006535
-0.098104
-0.168156
-0.169830
-0.160621
-0.162242
-0.054965
-0.216858
-0.023210
-0.058205
-0.041003
-0.225970
-0.206142
-0.054283
-0.080772
-0.080067
-0.085917
-0.221309
-0.153907
-0.146775
-0.148458
-0.155482
-0.193705
-0.197832
-0.189209
-0.194203
-0.140850
-0.007666
-0.139751
-0.092148
-0.099796
-0.036469
-0.184413
-0.185866
-0.043301
-0.088662
-0.192966
-0.175338
-0.177081
-0.106521
-0.101959
-0.109904
-0.054152
-0.220499
-0.143005
-0.138361
-0.143844
-0.141065
-0.136050
-0.156655
-0.149546
-0.154771
-0.151279
-0.148700
-0.163296
-0.162131
-0.158906
-0.074310
-0.068378
-0.182771
-0.177753
-0.178080
-0.182743
-0.187486
-0.198692
-0.170903
-0.169692
-0.166522
-0.173934
-0.229445
-0.232218
-0.215247
-0.210089
-0.099498
-0.091066
-0.097380
-0.093546
-0.093710
-0.096773
-0.198421
-0.192158
-0.199476
-0.190653
-0.184544
-0.185763
-0.103495
-0.101657
-0.186654
-0.184775
-0.188799
-0.193392
-0.186013
-0.182815
-0.178281
-0.198476
-0.213420
-0.110100
-0.112450
-0.106343
-0.110890
-0.118620
-0.115150
-0.191995
-0.184246
-0.083686
-0.180414
-0.182130
-0.107928
-0.071707
-0.077390
-0.096134
-0.107707
-0.102428
-0.210550
-0.107467
-0.105415
-0.101695
-0.176739
-0.178488
-0.111418
-0.109656
-0.170900
-0.175140
-0.170690
-0.127358
-0.120422
-0.126861
-0.121854
-0.176367
-0.178605
-0.132530
-0.134269
-0.126861
-0.184390
-0.181341
-0.115256
-0.113245
-0.109534
-0.115768
-0.114179
-0.103930
-0.209072
-0.167552
-0.163086
-0.119189
-0.117411
-0.006919
-0.015223
-0.030528
-0.029588
-0.122960
-0.121016
-0.117233
-0.205741
-0.037268
-0.130636
-0.128674
-0.009468
-0.124931
-0.111610
-0.163297
-0.168944
-0.203210
-0.126889
-0.034392
-0.125115
-0.138297
-0.136403
-0.172689
-0.174485
-0.076972
-0.134551
-0.132767
-0.212939
-0.119248
-0.118070
-0.142214
-0.140383
-0.144054
-0.149858
-0.148034
-0.083642
-0.159940
-0.155465
-0.168723
-0.170544
-0.052586
-0.027381
-0.155673
-0.161334
-0.172323
-0.179954
-0.176793
-0.151689
-0.157486
-0.158537
-0.150915
-0.017563
-0.076752
-0.143301
-0.147831
-0.131039
-0.135621
-0.128204
-0.132570
-0.166143
-0.161607
-0.161133
-0.153531
-0.159308
-0.165097
-0.036618
-0.173740
-0.166900
-0.204301
-0.057680
-0.132797
-0.133407
-0.169203
-0.145943
-0.140188
-0.152314
-0.128809
-0.129234
-0.123247
-0.130854
-0.005649
-0.140750
-0.094158
-0.097685
-0.165501
-0.187581
-0.153706
-0.194945
-0.144680
-0.146071
-0.137047
-0.138449
-0.129775
-0.111801
-0.105836
-0.108159
-0.159424
-0.128728
-0.134654
-0.130170
-0.123057
-0.122026
-0.124912
-0.123852
-0.180908
-0.050551
-0.056057
-0.178717
-0.096320
-0.100004
-0.111296
-0.115080
-0.116291
-0.174512
-0.106849
-0.046767
-0.119641
-0.209413
-0.170455
-0.101510
-0.103021
-0.134717
-0.137384
-0.098422
-0.124718
-0.166315
-0.094524
-0.117665
-0.089580
-0.041688
SCALARS UY float 1
LOOKUP_TABLE default
-0.000000
-0.000000
-0.601000
-0.601000
-0.240400
-0.360600
-0.000000
-0.000000
-0.000000
-0.000000
-0.000000
-0.000000
-0.000000
-0.000000
-0.000000
-0.000000
-0.000000
-0.000000
-0.000000
-0.000000
-0.000000
-0.000000
-0.000000
-0.000000
-0.000000
-0.000000
-0.000000
-0.000000
-0.000000
-0.000000
-0.000000
-0.000000
-0.000000
-0.000000
-0.000000
-0.000000
-0.000000
-0.000000
-0.000000
-0.018030
-0.036060
-0.054090
-0.072120
-0.090150
-0.108180
-0.126210
-0.144240
-0.162270
-0.180300
-0.198330
-0.216360
-0.234390
-0.252420
-0.270450
-0.288480
-0.306510
-0.324540
-0.342570
-0.377771
-0.394943
-0.412114
-0.429286
-0.446457
-0.463628
-0.480800
-0.497971
-0.515143
-0.532314
-0.549485
-0.566657
-0.583828
-0.601000
-0.601000
-0.601000
-0.601000
-0.601000
-0.601000
-0.601000
-0.601000
-0.601000
-0.601000
-0.601000
-0.601000
-0.601000
-0.601000
-0.601000
-0.601000
-0.601000
-0.601000
-0.601000
-0.601000
-0.601000
-0.601000
-0.601000
-0.601000
-0.601000
-0.601000
-0.601000
-0.601000
-0.601000
-0.601000
-0.601000
-0.601000
-0.601000
-0.582970
-0.564940
-0.546910
-0.528880
-0.510850
-0.492820
-0.474790
-0.456760
-0.438730
-0.420700
-0.402670
-0.384640
-0.366610
-0.348580
-0.330550
-0.312520
-0.294490
-0.276460
-0.258430
-0.223229
-0.206057
-0.188886
-0.171714
-0.154543
-0.137372
-0.120200
-0.103029
-0.085857
-0.068686
-0.051515
-0.034343
-0.017172
-0.243935
-0.247471
-0.251006
-0.254541
-0.258077
-0.261612
-0.265147
-0.268682
-0.272218
-0.275753
-0.279288
-0.282824
-0.286359
-0.289894
-0.293429
-0.296965
-0.300500
-0.304035
-0.307571
-0.311106
-0.314641
-0.318176
-0.321712
-0.325247
-0.328782
-0.332318
-0.335853
-0.339388
-0.342923
-0.346459
-0.349994
-0.353529
-0.357065
-0.371169
-0.366532
-0.273362
-0.279693
-0.265711
-0.288889
-0.538246
-0.551737
-0.556724
-0.540401
-0.418284
-0.429552
-0.442412
-0.330186
-0.330430
-0.320823
-0.584147
-0.575566
-0.586705
-0.567718
-0.555712
-0.540148
-0.585125
-0.585638
-0.419897
-0.434628
-0.421604
-0.433091
-0.406107
-0.417529
-0.404310
-0.569577
-0.584782
-0.587361
-0.567355
-0.570196
-0.584713
-0.514459
-0.513532
-0.500529
-0.554358
-0.488141
-0.491183
-0.503575
-0.475855
-0.462662
-0.475855
-0.464428
-0.475510
-0.486135
-0.373324
-0.373280
-0.359509
-0.578456
-0.362289
-0.449557
-0.447793
-0.447123
-0.458525
-0.459789
-0.448098
-0.436578
-0.432495
-0.567948
-0.530822
-0.531063
-0.518100
-0.545609
-0.321519
-0.332152
-0.339826
-0.326115
-0.340042
-0.583826
-0.586092
-0.568717
-0.443392
-0.461776
-0.394738
-0.389489
-0.379180
-0.265048
-0.282003
-0.266718
-0.406525
-0.278484
-0.581049
-0.569513
-0.564607
-0.574562
-0.570390
-0.557975
-0.572930
-0.585588
-0.283399
-0.270039
-0.261944
-0.568598
-0.572263
-0.585515
-0.301487
-0.292938
-0.384575
-0.378961
-0.371585
-0.404873
-0.399550
-0.386160
-0.587159
-0.571760
-0.571827
-0.535214
-0.521404
-0.530188
-0.585961
-0.545448
-0.294018
-0.308851
-0.590263
-0.315905
-0.584744
-0.416437
-0.515320
-0.505067
-0.501323
-0.561288
-0.509842
-0.293402
-0.523591
-0.554059
-0.362723
-0.394776
-0.382816
-0.559158
-0.547775
-0.307037
-0.346271
-0.501930
-0.516699
-0.502011
-0.275561
-0.286266
-0.298165
-0.303414
-0.516465
-0.585843
-0.520374
-0.523833
-0.505380
-0.510205
-0.491759
-0.506112
-0.431214
-0.411872
-0.574282
-0.558499
-0.551890
-0.492693
-0.528059
-0.529068
-0.543900
-0.589354
-0.330618
-0.318566
-0.343578
-0.578038
-0.584730
-0.565488
-0.320806
-0.531510
-0.547856
-0.538413
-0.556535
-0.571405
-0.549101
-0.540771
-0.534921
-0.507589
-0.291211
-0.281309
-0.307027
-0.313959
-0.440511
-0.455801
-0.438769
-0.570862
-0.586265
-0.515558
-0.500609
-0.556114
-0.454388
-0.514628
-0.531511
-0.587702
-0.439679
-0.452301
-0.450064
-0.355247
-0.348369
-0.330388
-0.463821
-0.313961
-0.330717
-0.327044
-0.309865
-0.547843
-0.534907
-0.557533
-0.559870
-0.298622
-0.285899
-0.319695
-0.326192
-0.487046
-0.479729
-0.473119
-0.500607
-0.485096
-0.499329
-0.521958
-0.332107
-0.329387
-0.319344
-0.360849
-0.375574
-0.316125
-0.344305
-0.361877
-0.334287
-0.347969
-0.352954
-0.373895
-0.386164
-0.371649
-0.393451
-0.582934
-0.370070
-0.357567
-0.534553
-0.470757
-0.488086
-0.469401
-0.485995
-0.306662
-0.468874
-0.455998
-0.423256
-0.440522
-0.434692
-0.335205
-0.342173
-0.297719
-0.437459
-0.425468
-0.423185
-0.451532
-0.434855
-0.380181
-0.450600
-0.394720
-0.507919
-0.518968
-0.502903
-0.503452
-0.504162
-0.487991
-0.365388
-0.363239
-0.346862
-0.379814
-0.388243
-0.382617
-0.477192
-0.304611
-0.472812
-0.465881
-0.494043
-0.502493
-0.511328
-0.517972
-0.401290
-0.400947
-0.417214
-0.433761
-0.322258
-0.340862
-0.314796
-0.331813
-0.312805
-0.413324
-0.403115
-0.416074
-0.400277
-0.434837
-0.451425
-0.418073
-0.551701
-0.556641
-0.536637
-0.402017
-0.383095
-0.527864
-0.527041
-0.455894
-0.465110
-0.451452
-0.419283
-0.448350
-0.465512
-0.457958
-0.479119
-0.472335
-0.486504
-0.574134
-0.561620
-0.542633
-0.589246
-0.419317
-0.405028
-0.416856
-0.429230
-0.568236
-0.581173
-0.557475
-0.482842
-0.478597
-0.466369
-0.485584
-0.373568
-0.376952
-0.387765
-0.365780
-0.282122
-0.492145
-0.454551
-0.470905
-0.465972
-0.486688
-0.467705
-0.481775
-0.457198
-0.515656
-0.499805
-0.501329
-0.465270
-0.517472
-0.443120
-0.426195
-0.480214
-0.389765
-0.384514
-0.379084
-0.368719
-0.395150
-0.348017
-0.401817
-0.362666
-0.525125
-0.528101
-0.539551
-0.429273
-0.446010
-0.253667
-0.460443
-0.335001
-0.352467
-0.349338
-0.329328
-0.346932
-0.521094
-0.390066
-0.332499
-0.532171
-0.471521
-0.573868
-0.321912
-0.304772