# vtk DataFile Version 2.0
Test
ASCII
DATASET POLYDATA
POINTS 1445 float
0.000000 0.000000 0.000000
1.000000 0.000000 0.000000
1.000000 1.000000 0.000000
0.000000 1.000000 0.000000
0.000000 0.400000 0.000000
1.000000 0.600000 0.000000
0.029412 0.000000 0.000000
0.058824 0.000000 0.000000
0.088235 0.000000 0.000000
0.117647 0.000000 0.000000
0.147059 0.000000 0.000000
0.176471 0.000000 0.000000
0.205882 0.000000 0.000000
0.235294 0.000000 0.000000
0.264706 0.000000 0.000000
0.294118 0.000000 0.000000
0.323529 0.000000 0.000000
0.352941 0.000000 0.000000
0.382353 0.000000 0.000000
0.411765 0.000000 0.000000
0.441176 0.000000 0.000000
0.470588 0.000000 0.000000
0.500000 0.000000 0.000000
0.529412 0.000000 0.000000
0.558824 0.000000 0.000000
0.588235 0.000000 0.000000
0.617647 0.000000 0.000000
0.647059 0.000000 0.000000
0.676471 0.000000 0.000000
0.705882 0.000000 0.000000
0.735294 0.000000 0.000000
0.764706 0.000000 0.000000
0.794118 0.000000 0.000000
0.823529 0.000000 0.000000
0.852941 0.000000 0.000000
0.882353 0.000000 0.000000
0.911765 0.000000 0.000000
0.941176 0.000000 0.000000
0.970588 0.000000 0.000000
1.000000 0.030000 0.000000
1.000000 0.060000 0.000000
1.000000 0.090000 0.000000
1.000000 0.120000 0.000000
1.000000 0.150000 0.000000
1.000000 0.180000 0.000000
1.000000 0.210000 0.000000
1.000000 0.240000 0.000000
1.000000 0.270000 0.000000
1.000000 0.300000 0.000000
1.000000 0.330000 0.000000
1.000000 0.360000 0.000000
1.000000 0.390000 0.000000
1.000000 0.420000 0.000000
1.000000 0.450000 0.000000
1.000000 0.480000 0.000000
1.000000 0.510000 0.000000
1.000000 0.540000 0.000000
1.000000 0.570000 0.000000
1.000000 0.628571 0.000000
1.000000 0.657143 0.000000
1.000000 0.685714 0.000000
1.000000 0.714286 0.000000
1.000000 0.742857 0.000000
1.000000 0.771429 0.000000
1.000000 0.800000 0.000000
1.000000 0.828571 0.000000
1.000000 0.857143 0.000000
1.000000 0.885714 0.000000
1.000000 0.914286 0.000000
1.000000 0.942857 0.000000
1.000000 0.971429 0.000000
0.970588 1.000000 0.000000
0.941176 1.000000 0.000000
0.911765 1.000000 0.000000
0.882353 1.000000 0.000000
0.852941 1.000000 0.000000
0.823529 1.000000 0.000000
0.794118 1.000000 0.000000
0.764706 1.000000 0.000000
0.735294 1.000000 0.000000
0.705882 1.000000 0.000000
0.676471 1.000000 0.000000
0.647059 1.000000 0.000000
0.617647 1.000000 0.000000
0.588235 1.000000 0.000000
0.558824 1.000000 0.000000
0.529412 1.000000 0.000000
0.500000 1.000000 0.000000
0.470588 1.000000 0.000000
0.441176 1.000000 0.000000
0.411765 1.000000 0.000000
0.382353 1.000000 0.000000
0.352941 1.000000 0.000000
0.323529 1.000000 0.000000
0.294118 1.000000 0.000000
0.264706 1.000000 0.000000
0.235294 1.000000 0.000000
0.205882 1.000000 0.000000
0.176471 1.000000 0.000000
0.147059 1.000000 0.000000
0.117647 1.000000 0.000000
0.088235 1.000000 0.000000
0.058824 1.000000 0.000000
0.029412 1.000000 0.000000
0.000000 0.970000 0.000000
0.000000 0.940000 0.000000
0.000000 0.910000 0.000000
0.000000 0.880000 0.000000
0.000000 0.850000 0.000000
0.000000 0.820000 0.000000
0.000000 0.790000 0.000000
0.000000 0.760000 0.000000
0.000000 0.730000 0.000000
0.000000 0.700000 0.000000
0.000000 0.670000 0.000000
0.000000 0.640000 0.000000
0.000000 0.610000 0.000000
0.000000 0.580000 0.000000
0.000000 0.550000 0.000000
0.000000 0.520000 0.000000
0.000000 0.490000 0.000000
0.000000 0.460000 0.000000
0.000000 0.430000 0.000000
0.000000 0.371429 0.000000
0.000000 0.342857 0.000000
0.000000 0.314286 0.000000
0.000000 0.285714 0.000000
0.000000 0.257143 0.000000
0.000000 0.228571 0.000000
0.000000 0.200000 0.000000
0.000000 0.171429 0.000000
0.000000 0.142857 0.000000
0.000000 0.114286 0.000000
0.000000 0.085714 0.000000
0.000000 0.057143 0.000000
0.000000 0.028571 0.000000
0.029412 0.405882 0.000000
0.058824 0.411765 0.000000
0.088235 0.417647 0.000000
0.117647 0.423529 0.000000
0.147059 0.429412 0.000000
0.176471 0.435294 0.000000
0.205882 0.441176 0.000000
0.235294 0.447059 0.000000
0.264706 0.452941 0.000000
0.294118 0.458824 0.000000
0.323529 0.464706 0.000000
0.352941 0.470588 0.000000
0.382353 0.476471 0.000000
0.411765 0.482353 0.000000
0.441176 0.488235 0.000000
0.470588 0.494118 0.000000
0.500000 0.500000 0.000000
0.529412 0.505882 0.000000
0.558824 0.511765 0.000000
0.588235 0.517647 0.000000
0.617647 0.523529 0.000000
0.647059 0.529412 0.000000
0.676471 0.535294 0.000000
0.705882 0.541176 0.000000
0.735294 0.547059 0.000000
0.764706 0.552941 0.000000
0.794118 0.558824 0.000000
0.823529 0.564706 0.000000
0.852941 0.570588 0.000000
0.882353 0.576471 0.000000
0.911765 0.582353 0.000000
0.941176 0.588235 0.000000
0.970588 0.594118 0.000000
0.948492 0.617586 0.000000
0.918239 0.609871 0.000000
0.126115 0.454845 0.000000
0.100318 0.465379 0.000000
0.103006 0.442114 0.000000
0.117916 0.480680 0.000000
0.029145 0.895585 0.000000
0.046774 0.918032 0.000000
0.024990 0.926329 0.000000
0.056315 0.899171 0.000000
0.977770 0.695981 0.000000
0.963577 0.714729 0.000000
0.973827 0.736127 0.000000
0.605253 0.549394 0.000000
0.579370 0.549801 0.000000
0.570019 0.533816 0.000000
0.896809 0.971959 0.000000
0.919426 0.957680 0.000000
0.927686 0.976215 0.000000
0.899487 0.944624 0.000000
0.974081 0.924646 0.000000
0.977161 0.898750 0.000000
0.076578 0.973587 0.000000
0.102577 0.974440 0.000000
0.861693 0.698664 0.000000
0.848870 0.723174 0.000000
0.839521 0.701504 0.000000
0.820447 0.720618 0.000000
0.872237 0.675719 0.000000
0.882611 0.694724 0.000000
0.895344 0.672729 0.000000
0.606326 0.947716 0.000000
0.624868 0.973015 0.000000
0.599776 0.977307 0.000000
0.167986 0.944019 0.000000
0.199183 0.948746 0.000000
0.187884 0.972901 0.000000
0.787752 0.856005 0.000000
0.754801 0.854462 0.000000
0.778588 0.832828 0.000000
0.191471 0.922393 0.000000
0.801312 0.812216 0.000000
0.829867 0.817276 0.000000
0.805526 0.837896 0.000000
0.812775 0.791772 0.000000
0.822869 0.769821 0.000000
0.833826 0.791773 0.000000
0.849982 0.772760 0.000000
0.791421 0.791198 0.000000
0.772962 0.808877 0.000000
0.180049 0.621172 0.000000
0.160680 0.621098 0.000000
0.172158 0.598185 0.000000
0.588124 0.962489 0.000000
0.142171 0.602810 0.000000
0.827587 0.748015 0.000000
0.859778 0.745080 0.000000
0.882413 0.743965 0.000000
0.872759 0.762938 0.000000
0.894601 0.765041 0.000000
0.910115 0.745588 0.000000
0.901004 0.726420 0.000000
0.877058 0.719626 0.000000
0.632694 0.945006 0.000000
0.818411 0.883232 0.000000
0.787667 0.883633 0.000000
0.812018 0.862064 0.000000
0.808649 0.907835 0.000000
0.066636 0.534974 0.000000
0.083909 0.552665 0.000000
0.058224 0.565435 0.000000
0.037551 0.542621 0.000000
0.025720 0.565794 0.000000
0.304619 0.971425 0.000000
0.276072 0.975195 0.000000
0.284125 0.946285 0.000000
0.795087 0.737757 0.000000
0.797357 0.768346 0.000000
0.869843 0.656802 0.000000
0.840870 0.648068 0.000000
0.865462 0.630915 0.000000
0.043233 0.441011 0.000000
0.028792 0.469222 0.000000
0.020751 0.443790 0.000000
0.846918 0.676414 0.000000
0.058991 0.463368 0.000000
0.051906 0.966804 0.000000
0.071758 0.947609 0.000000
0.048298 0.939447 0.000000
0.026398 0.956010 0.000000
0.967109 0.949068 0.000000
0.946807 0.928411 0.000000
0.940173 0.953295 0.000000
0.956764 0.974357 0.000000
0.076722 0.471546 0.000000
0.082324 0.449317 0.000000
0.066669 0.435847 0.000000
0.114035 0.946088 0.000000
0.091278 0.952186 0.000000
0.128453 0.974235 0.000000
0.027019 0.501643 0.000000
0.047138 0.487417 0.000000
0.943388 0.639892 0.000000
0.923239 0.630552 0.000000
0.974491 0.618278 0.000000
0.972785 0.673666 0.000000
0.943930 0.664809 0.000000
0.968693 0.642530 0.000000
0.780685 0.976970 0.000000
0.756289 0.951349 0.000000
0.776857 0.951460 0.000000
0.935276 0.890540 0.000000
0.927168 0.867561 0.000000
0.954227 0.882176 0.000000
0.745760 0.974977 0.000000
0.952002 0.907568 0.000000
0.068063 0.489215 0.000000
0.051512 0.513895 0.000000
0.027757 0.982136 0.000000
0.023217 0.525632 0.000000
0.982410 0.972952 0.000000
0.951072 0.692907 0.000000
0.957020 0.857438 0.000000
0.937630 0.840379 0.000000
0.966912 0.834149 0.000000
0.923427 0.933924 0.000000
0.982257 0.848323 0.000000
0.092881 0.488189 0.000000
0.976737 0.871201 0.000000
0.067960 0.921895 0.000000
0.886538 0.603532 0.000000
0.918896 0.656866 0.000000
0.898227 0.636966 0.000000
0.092880 0.930380 0.000000
0.929071 0.911440 0.000000
0.081137 0.510877 0.000000
0.592772 0.576158 0.000000
0.150419 0.835159 0.000000
0.138607 0.859733 0.000000
0.125762 0.835294 0.000000
0.155304 0.458505 0.000000
0.139466 0.476317 0.000000
0.134858 0.496115 0.000000
0.109061 0.504849 0.000000
0.112238 0.859343 0.000000
0.866826 0.974780 0.000000
0.026919 0.865848 0.000000
0.348411 0.871602 0.000000
0.339654 0.840899 0.000000
0.369544 0.848927 0.000000
0.925986 0.818235 0.000000
0.909684 0.842117 0.000000
0.929360 0.717495 0.000000
0.924028 0.685311 0.000000
0.879688 0.955544 0.000000
0.875200 0.929284 0.000000
0.903901 0.918287 0.000000
0.950764 0.819790 0.000000
0.047492 0.878635 0.000000
0.069665 0.880314 0.000000
0.081712 0.904992 0.000000
0.573454 0.980624 0.000000
0.556694 0.550113 0.000000
0.094318 0.530060 0.000000
0.563246 0.571677 0.000000
0.563825 0.961795 0.000000
0.155902 0.972929 0.000000
0.577162 0.940912 0.000000
0.545227 0.533787 0.000000
0.864670 0.884377 0.000000
0.860690 0.911575 0.000000
0.840756 0.895862 0.000000
0.137227 0.926016 0.000000
0.139814 0.950758 0.000000
0.109156 0.913646 0.000000
0.884976 0.899786 0.000000
0.910807 0.890052 0.000000
0.830819 0.844574 0.000000
0.157710 0.484545 0.000000
0.180718 0.468069 0.000000
0.154331 0.510861 0.000000
0.124262 0.522394 0.000000
0.341085 0.732964 0.000000
0.323736 0.758404 0.000000
0.312899 0.730066 0.000000
0.857321 0.949854 0.000000
0.839840 0.975483 0.000000
0.053549 0.857833 0.000000
0.031143 0.832960 0.000000
0.840338 0.925315 0.000000
0.300796 0.756054 0.000000
0.080783 0.856286 0.000000
0.096939 0.884378 0.000000
0.544800 0.977874 0.000000
0.949430 0.731579 0.000000
0.955247 0.752582 0.000000
0.934712 0.748859 0.000000
0.030153 0.591093 0.000000
[...]
POINT_DATA 1445
SCALARS UX float 1
LOOKUP_TABLE default
-0.009000
-0.000000
0.000000
-0.009000
-0.009000
0.000000
-0.008735
-0.008471
-0.008206
-0.007941
-0.007676
-0.007412
-0.007147
-0.006882
-0.006618
-0.006353
-0.006088
-0.005824
-0.005559
-0.005294
-0.005029
-0.004765
-0.004500
-0.004235
-0.003971
-0.003706
-0.003441
-0.003176
-0.002912
-0.002647
-0.002382
-0.002118
-0.001853
-0.001588
-0.001324
-0.001059
-0.000794
-0.000529
-0.000265
-0.000000
-0.000000
-0.000000
-0.000000
-0.000000
-0.000000
-0.000000
-0.000000
-0.000000
-0.000000
-0.000000
-0.000000
-0.000000
-0.000000
-0.000000
-0.000000
-0.000000
0.000000
0.000000
-0.000000
-0.000000
0.000000
-0.000000
-0.000000
-0.000000
-0.000000
0.000000
-0.000000
0.000000
-0.000000
0.000000
-0.000000
-0.000265
-0.000529
-0.000794
-0.001059
-0.001324
-0.001588
-0.001853
-0.002118
-0.002382
-0.002647
-0.002912
-0.003176
-0.003441
-0.003706
-0.003971
-0.004235
-0.004500
-0.004765
-0.005029
-0.005294
-0.005559
-0.005824
-0.006088
-0.006353
-0.006618
-0.006882
-0.007147
-0.007412
-0.007676
-0.007941
-0.008206
-0.008471
-0.008735
-0.009000
-0.009000
-0.009000
-0.009000
-0.009000
-0.009000
-0.009000
-0.009000
-0.009000
-0.009000
-0.009000
-0.009000
-0.009000
-0.009000
-0.009000
-0.009000
-0.009000
-0.009000
-0.009000
-0.009000
-0.009000
-0.009000
-0.009000
-0.009000
-0.009000
-0.009000
-0.009000
-0.009000
-0.009000
-0.009000
-0.009000
-0.009000
-0.008735
-0.008471
-0.008206
-0.007941
-0.007676
-0.007412
-0.007147
-0.006882
-0.006618
-0.006353
-0.006088
-0.005824
-0.005559
-0.005294
-0.005029
-0.004765
-0.004500
-0.004235
-0.003971
-0.003706
-0.003441
-0.003176
-0.002912
-0.002647
-0.002382
-0.002118
-0.001853
-0.001588
-0.001324
-0.001059
-0.000794
-0.000529
-0.000265
-0.000464
-0.000736
-0.007865
-0.008097
-0.008073
-0.007939
-0.008738
-0.008579
-0.008775
-0.008493
-0.000200
-0.000328
-0.000236
-0.003553
-0.003786
-0.003870
-0.000929
-0.000725
-0.000651
-0.000905
-0.000233
-0.000206
-0.008311
-0.008077
-0.001245
-0.001360
-0.001444
-0.001616
-0.001150
-0.001057
-0.000942
-0.003543
-0.003376
-0.003602
-0.007488
-0.007207
-0.007309
-0.001910
-0.002207
-0.001993
-0.007277
-0.001788
-0.001531
-0.001750
-0.001685
-0.001594
-0.001496
-0.001350
-0.001877
-0.002043
-0.007380
-0.007554
-0.007451
-0.003707
-0.007720
-0.001552
-0.001262
-0.001058
-0.001145
-0.000949
-0.000809
-0.000891
-0.001106
-0.003306
-0.001634
-0.001911
-0.001692
-0.001722
-0.008400
-0.008245
-0.008476
-0.008662
-0.008769
-0.006258
-0.006515
-0.006443
-0.001844
-0.001824
-0.001171
-0.001432
-0.001211
-0.008611
-0.008741
-0.008813
-0.001378
-0.008469
-0.008533
-0.008354
-0.008565
-0.008762
-0.000296
-0.000479
-0.000538
-0.000389
-0.008310
-0.008259
-0.008400
-0.007974
-0.008178
-0.007844
-0.008757
-0.008576
-0.000510
-0.000691
-0.000230
-0.000245
-0.000505
-0.000282
-0.001974
-0.002193
-0.002008
-0.000583
-0.000655
-0.000412
-0.002288
-0.000432
-0.008387
-0.008536
-0.008750
-0.008791
-0.000158
-0.000440
-0.000387
-0.000561
-0.000298
-0.000689
-0.000160
-0.008164
-0.000209
-0.008388
-0.001021
-0.000730
-0.000916
-0.008164
-0.000638
-0.008270
-0.003665
-0.007646
-0.007753
-0.007868
-0.007602
-0.007745
-0.007786
-0.008018
-0.007990
-0.001199
-0.008758
-0.005864
-0.005943
-0.005674
-0.000666
-0.000813
-0.000636
-0.000684
-0.001083
-0.001123
-0.000865
-0.000443
-0.008573
-0.008373
-0.008265
-0.003839
-0.003990
-0.008151
-0.003931
-0.003926
-0.007597
-0.003806
-0.004093
-0.001218
-0.001254
-0.001433
-0.007765
-0.007742
-0.008018
-0.001035
-0.000803
-0.001523
-0.007581
-0.007374
-0.007611
-0.007882
-0.005930
-0.006086
-0.006184
-0.001284
-0.001441
-0.008518
-0.008720
-0.001437
-0.006293
-0.008273
-0.008128
-0.004097
-0.000455
-0.000403
-0.000588
-0.008729
-0.008178
-0.008010
-0.000733
-0.004725
-0.004702
-0.004986
-0.004912
-0.007558
-0.007810
-0.001900
-0.002093
-0.007351
-0.007075
-0.007374
-0.007713
-0.000236
-0.000486
-0.000237
-0.008412
-0.008797
-0.008123
-0.000961
-0.006596
-0.006779
-0.006650
-0.008443
-0.008684
-0.006859
-0.007871
-0.008004
-0.006356
-0.006562
-0.006330
-0.005832
-0.006000
-0.006071
-0.005795
-0.006994
-0.006291
-0.006131
-0.007321
-0.006179
-0.006278
-0.006411
-0.006566
-0.007102
-0.005983
-0.005845
-0.007971
-0.007916
-0.008182
-0.007224
-0.007522
-0.006851
-0.006408
-0.006286
-0.006055
-0.006527
-0.006665
-0.008368
-0.006797
-0.008762
-0.001046
-0.001202
-0.001286
-0.006421
-0.006181
-0.006023
-0.006706
-0.006486
-0.006822
-0.006544
-0.006271
-0.006828
-0.000710
-0.006617
-0.000903
-0.006641
-0.006830
-0.006631
-0.006816
-0.006561
-0.006965
-0.006593
-0.006803
-0.006970
-0.006144
-0.006110
-0.006404
-0.005897
-0.005914
-0.008738
-0.008556
-0.008475
-0.008340
-0.007334
-0.007074
-0.007113
-0.006316
-0.006649
-0.006539
-0.007268
-0.007178
-0.006766
-0.007016
-0.007885
-0.008097
-0.008156
-0.008195
-0.007607
-0.007595
-0.007356
-0.007601
-0.007755
-0.007759
-0.006718
-0.006969
-0.006841
-0.006759
-0.007336
-0.007477
-0.007561
-0.008610
-0.006194
-0.005922
-0.006009
-0.007052
-0.006770
-0.006918
-0.008539
-0.007917
-0.008114
-0.007951
-0.008222
-0.006821
-0.005746
-0.002124
-0.002090
-0.002369
-0.008320
-0.008387
-0.002312
-0.000228
-0.007221
-0.007376
-0.007081
-0.000490
-0.007491
-0.005656
-0.005754
-0.008138
-0.008552
-0.001719
-0.001985
-0.001776
-0.001924
-0.007299
-0.006048
-0.007229
-0.002418
-0.002140
-0.002344
-0.005447
-0.005357
-0.008772
-0.005572
-0.003124
-0.003066
-0.003388
-0.003331
-0.007079
-0.001423
-0.008189
-0.006966
-0.007567
-0.001104
-0.001797
-0.007103
-0.006178
-0.006202
-0.005998
-0.001267
-0.003622
-0.003871
-0.003813
-0.003567
-0.002232
-0.002087
-0.002389
-0.002214
-0.004078
-0.008732
-0.004117
-0.005780
-0.005513
-0.007726
-0.002556
-0.002505
-0.007487
-0.005902
-0.002257
-0.002873
-0.002812
-0.005278
-0.005437
-0.005160
-0.007108
-0.001295
-0.004003
-0.004165
-0.003974
-0.004071
-0.004246
-0.003526
-0.003775
-0.003592
-0.003714
-0.003804
-0.003294
-0.003335
-0.003448
-0.006403
-0.006611
-0.002614
-0.002789
-0.002778
-0.002615
-0.002449
-0.002057
-0.003028
-0.003071
-0.003181
-0.002922
-0.000983
-0.000886
-0.001479
-0.001659
-0.005523
-0.005818
-0.005597
-0.005731
-0.005726
-0.005619
-0.002067
-0.002286
-0.002030
-0.002338
-0.002552
-0.002509
-0.005384
-0.005448
-0.002478
-0.002544
-0.002403
-0.002243
-0.002500
-0.002612
-0.002771
-0.002065
-0.001543
-0.005153
-0.005071
-0.005284
-0.005125
-0.004855
-0.004976
-0.002291
-0.002562
-0.006076
-0.002696
-0.002636
-0.005229
-0.006494
-0.006296
-0.005641
-0.005237
-0.005421
-0.001643
-0.005245
-0.005317
-0.005447
-0.002824
-0.002763
-0.005107
-0.005168
-0.003028
-0.002880
-0.003036
-0.004550
-0.004792
-0.004567
-0.004742
-0.002837
-0.002759
-0.004369
-0.004308
-0.004567
-0.002557
-0.002664
-0.004973
-0.005043
-0.005173
-0.004955
-0.005010
-0.005368
-0.001695
-0.003145
-0.003301
-0.004835
-0.004897
-0.008758
-0.008468
-0.007933
-0.007966
-0.004704
-0.004771
-0.004904
-0.001811
-0.007698
-0.004435
-0.004504
-0.008669
-0.004635
-0.005100
-0.003294
-0.003097
-0.001899
-0.004566
-0.007798
-0.004628
-0.004168
-0.004234
-0.002966
-0.002903
-0.006310
-0.004299
-0.004361
-0.001560
-0.004833
-0.004874
-0.004031
-0.004095
-0.003966
-0.003764
-0.003827
-0.006077
-0.003411
-0.003568
-0.003105
-0.003041
-0.007163
-0.008043
-0.003561
-0.003363
-0.002979
-0.002712
-0.002823
-0.003700
-0.003497
-0.003460
-0.003727
-0.008386
-0.006318
-0.003993
-0.003835
-0.004421
-0.004261
-0.004520
-0.004368
-0.003195
-0.003353
-0.003370
-0.003635
-0.003433
-0.003231
-0.007720
-0.002929
-0.003168
-0.001861
-0.006985
-0.004360
-0.004339
-0.003088
-0.003900
-0.004102
-0.003678
-0.004499
-0.004484
-0.004694
-0.004428
-0.008803
-0.004082
-0.005710
-0.005587
-0.003217
-0.002446
-0.003629
-0.002188
-0.003945
-0.003896
-0.004211
-0.004162
-0.004465
-0.005093
-0.005302
-0.005221
-0.003429
-0.004502
-0.004295
-0.004452
-0.004700
-0.004736
-0.004635
-0.004672
-0.002679
-0.007234
-0.007041
-0.002755
-0.005634
-0.005506
-0.005111
-0.004979
-0.004937
-0.002902
-0.005266
-0.007366
-0.004820
-0.001683
-0.003044
-0.005453
-0.005400
-0.004293
-0.004200
-0.005561
-0.004642
-0.003189
-0.005697
-0.004889
-0.005870
-0.007543
-0.008536
-0.008264
-0.001135
-0.000903
-0.000927
-0.001061
-0.000262
-0.000421
-0.000225
-0.000507
-0.008800
-0.008672
-0.008764
-0.005447
-0.005214
-0.005130
-0.008071
-0.008275
-0.008349
-0.008095
-0.008767
-0.008794
-0.000689
-0.000923
-0.007755
-0.007640
-0.007556
-0.007384
-0.007850
-0.007943
-0.008058
-0.005457
-0.005624
-0.005398
-0.001512
-0.001793
-0.001691
-0.007090
-0.006793
-0.007007
-0.001723
-0.007212
-0.007469
-0.007250
-0.007315
-0.007406
-0.007504
-0.007650
-0.007123
-0.006957
-0.001620
-0.001446
-0.001549
-0.005293
-0.001280
-0.007448
-0.007738
-0.007942
-0.007855
-0.008051
-0.008191
-0.008109
-0.007894
-0.005694
-0.007366
-0.007089
-0.007308
-0.007278
-0.000600
-0.000755
-0.000524
-0.000338
-0.000231
-0.002742
-0.002485
-0.002557
-0.007156
-0.007176
-0.007829
-0.007568
-0.007789
-0.000389
-0.000259
-0.000187
-0.007622
-0.000531
-0.000467
-0.000646
-0.000435
-0.000238
-0.008704
-0.008521
-0.008462
-0.008611
-0.000690
-0.000741
-0.000600
-0.001026
-0.000822
-0.001156
-0.000243
-0.000424
-0.008490
-0.008309
-0.008770
-0.008755
-0.008495
-0.008718
-0.007026
-0.006807
-0.006992
-0.008417
-0.008345
-0.008588
-0.006712
-0.008568
-0.000613
-0.000464
-0.000250
-0.000209
-0.008842
-0.008560
-0.008613
-0.008439
-0.008702
-0.008311
-0.008840
-0.000836
-0.008791
-0.000612
-0.007979
-0.008270
-0.008084
-0.000836
-0.008362
-0.000730
-0.005335
-0.001354
-0.001247
-0.001132
-0.001398
-0.001255
-0.001214
-0.000982
-0.001010
-0.007801
-0.000242
-0.003136
-0.003057
-0.003326
-0.008334
-0.008187
-0.008364
-0.008316
-0.007917
-0.007877
-0.008135
-0.008557
-0.000427
-0.000627
-0.000735
-0.005161
-0.005010
-0.000849
-0.005069
-0.005074
-0.001403
-0.005194
-0.004907
-0.007782
-0.007746
-0.007567
-0.001235
-0.001258
-0.000982
-0.007965
-0.008197
-0.007477
-0.001419
-0.001626
-0.001389
-0.001118
-0.003070
-0.002914
-0.002816
-0.007716
-0.007559
-0.000482
-0.000280
-0.007563
-0.002707
-0.000727
-0.000872
-0.004903
-0.008545
-0.008597
-0.008412
-0.000271
-0.000822
-0.000990
-0.008267
-0.004275
-0.004298
-0.004014
-0.004088
-0.001442
-0.001190
-0.007100
-0.006907
-0.001649
-0.001925
-0.001626
-0.001287
-0.008764
-0.008514
-0.008763
-0.000588
-0.000203
-0.000877
-0.008039
-0.002404
-0.002221
-0.002350
-0.000557
-0.000316
-0.002141
-0.001129
-0.000996
-0.002644
-0.002438
-0.002670
-0.003168
-0.003000
-0.002929
-0.003205
-0.002006
-0.002709
-0.002869
-0.001679
-0.002821
-0.002722
-0.002589
-0.002434
-0.001898
-0.003017
-0.003155
-0.001029
-0.001084
-0.000818
-0.001776
-0.001478
-0.002149
-0.002592
-0.002714
-0.002945
-0.002473
-0.002335
-0.000632
-0.002203
-0.000238
-0.007954
-0.007798
-0.007714
-0.002579
-0.002819
-0.002977
-0.002294
-0.002514
-0.002178
-0.002456
-0.002729
-0.002172
-0.008290
-0.002383
-0.008097
-0.002359
-0.002170
-0.002369
-0.002184
-0.002439
-0.002035
-0.002407
-0.002197
-0.002030
-0.002856
-0.002890
-0.002596
-0.003103
-0.003086
-0.000262
-0.000444
-0.000525
-0.000660
-0.001666
-0.001926
-0.001887
-0.002684
-0.002351
-0.002461
-0.001732
-0.001822
-0.002234
-0.001984
-0.001115
-0.000903
-0.000844
-0.000805
-0.001393
-0.001405
-0.001644
-0.001399
-0.001245
-0.001241
-0.002282
-0.002031
-0.002159
-0.002241
-0.001664
-0.001523
-0.001439
-0.000390
-0.002806
-0.003078
-0.002991
-0.001948
-0.002230
-0.002082
-0.000461
-0.001083
-0.000886
-0.001049
-0.000778
-0.002179
-0.003254
-0.006876
-0.006910
-0.006631
-0.000680
-0.000613
-0.006688
-0.008772
-0.001779
-0.001624
-0.001919
-0.008510
-0.001509
-0.003344
-0.003246
-0.000862
-0.000448
-0.007281
-0.007015
-0.007224
-0.007076
-0.001701
-0.002952
-0.001771
-0.006582
-0.006860
-0.006656
-0.003553
-0.003643
-0.000228
-0.003428
-0.005876
-0.005934
-0.005612
-0.005669
-0.001921
-0.007577
-0.000811
-0.002034
-0.001433
-0.007896
-0.007203
-0.001897
-0.002822
-0.002798
-0.003002
-0.007733
-0.005378
-0.005129
-0.005187
-0.005433
-0.006768
-0.006913
-0.006611
-0.006786
-0.004922
-0.000268
-0.004883
-0.003220
-0.003487
-0.001274
-0.006444
-0.006495
-0.001513
-0.003098
-0.006743
-0.006127
-0.006188
-0.003722
-0.003563
-0.003840
-0.001892
-0.007705
-0.004997
-0.004835
-0.005026
-0.004929
-0.004754
-0.005474
-0.005225
-0.005408
-0.005286
-0.005196
-0.005706
-0.005665
-0.005552
-0.002597
-0.002389
-0.006386
-0.006211
-0.006222
-0.006385
-0.006551
-0.006943
-0.005972
-0.005929
-0.005819
-0.006078
-0.008017
-0.008114
-0.007521
-0.007341
-0.003477
-0.003182
-0.003403
-0.003269
-0.003274
-0.003381
-0.006933
-0.006714
-0.006970
-0.006662
-0.006448
-0.006491
-0.003616
-0.003552
-0.006522
-0.006456
-0.006597
-0.006757
-0.006500
-0.006388
-0.006229
-0.006935
-0.007457
-0.003847
-0.003929
-0.003716
-0.003875
-0.004145
-0.004024
-0.006709
-0.006438
-0.002924
-0.006304
-0.006364
-0.003771
-0.002506
-0.002704
-0.003359
-0.003763
-0.003579
-0.007357
-0.003755
-0.003683
-0.003553
-0.006176
-0.006237
-0.003893
-0.003832
-0.005972
-0.006120
-0.005964
-0.004450
-0.004208
-0.004433
-0.004258
-0.006163
-0.006241
-0.004631
-0.004692
-0.004433
-0.006443
-0.006336
-0.004027
-0.003957
-0.003827
-0.004045
-0.003990
-0.003632
-0.007305
-0.005855
-0.005699
-0.004165
-0.004103
-0.000242
-0.000532
-0.001067
-0.001034
-0.004296
-0.004229
-0.004096
-0.007189
-0.001302
-0.004565
-0.004496
-0.000331
-0.004365
-0.003900
-0.005706
-0.005903
-0.007101
-0.004434
-0.001202
-0.004372
-0.004832
-0.004766
-0.006034
-0.006097
-0.002690
-0.004701
-0.004639
-0.007440
-0.004167
-0.004126
-0.004969
-0.004905
-0.005034
-0.005236
-0.005173
-0.002923
-0.005589
-0.005432
-0.005895
-0.005959
-0.001837
-0.000957
-0.005439
-0.005637
-0.006021
-0.006288
-0.006177
-0.005300
-0.005503
-0.005540
-0.005273
-0.000614
-0.002682
-0.005007
-0.005165
-0.004579
-0.004739
-0.004480
-0.004632
-0.005805
-0.005647
-0.005630
-0.005365
-0.005567
-0.005769
-0.001280
-0.006071
-0.005832
-0.007139
-0.002015
-0.004640
-0.004661
-0.005912
-0.005100
-0.004898
-0.005322
-0.004501
-0.004516
-0.004306
-0.004572
-0.000197
-0.004918
-0.003290
-0.003413
-0.005783
-0.006554
-0.005371
-0.006812
-0.005055
-0.005104
-0.004789
-0.004838
-0.004535
-0.003907
-0.003698
-0.003779
-0.005571
-0.004498
-0.004705
-0.004548
-0.004300
-0.004264
-0.004365
-0.004328
-0.006321
-0.001766
-0.001959
-0.006245
-0.003366
-0.003494
-0.003889
-0.004021
-0.004063
-0.006098
-0.003734
-0.001634
-0.004180
-0.007317
-0.005956
-0.003547
-0.003600
-0.004707
-0.004800
-0.003439
-0.004358
-0.005811
-0.003303
-0.004111
-0.003130
-0.001457
SCALARS UY float 1
LOOKUP_TABLE default
-0.000000
-0.000000
-0.021000
-0.021000
-0.008400
-0.012600
-0.000000
-0.000000
-0.000000
-0.000000
-0.000000
-0.000000
-0.000000
-0.000000
-0.000000
-0.000000
-0.000000
-0.000000
-0.000000
-0.000000
-0.000000
-0.000000
-0.000000
-0.000000
-0.000000
-0.000000
-0.000000
-0.000000
-0.000000
-0.000000
-0.000000
-0.000000
-0.000000
-0.000000
-0.000000
-0.000000
-0.000000
-0.000000
-0.000000
-0.000630
-0.001260
-0.001890
-0.002520
-0.003150
-0.003780
-0.004410
-0.005040
-0.005670
-0.006300
-0.006930
-0.007560
-0.008190
-0.008820
-0.009450
-0.010080
-0.010710
-0.011340
-0.011970
-0.013200
-0.013800
-0.014400
-0.015000
-0.015600
-0.016200
-0.016800
-0.017400
-0.018000
-0.018600
-0.019200
-0.019800
-0.020400
-0.021000
-0.021000
-0.021000
-0.021000
-0.021000
-0.021000
-0.021000
-0.021000
-0.021000
-0.021000
-0.021000
-0.021000
-0.021000
-0.021000
-0.021000
-0.021000
-0.021000
-0.021000
-0.021000
-0.021000
-0.021000
-0.021000
-0.021000
-0.021000
-0.021000
-0.021000
-0.021000
-0.021000
-0.021000
-0.021000
-0.021000
-0.021000
-0.021000
-0.020370
-0.019740
-0.019110
-0.018480
-0.017850
-0.017220
-0.016590
-0.015960
-0.015330
-0.014700
-0.014070
-0.013440
-0.012810
-0.012180
-0.011550
-0.010920
-0.010290
-0.009660
-0.009030
-0.007800
-0.007200
-0.006600
-0.006000
-0.005400
-0.004800
-0.004200
-0.003600
-0.003000
-0.002400
-0.001800
-0.001200
-0.000600
-0.008524
-0.008647
-0.008771
-0.008894
-0.009018
-0.009141
-0.009265
-0.009388
-0.009512
-0.009635
-0.009759
-0.009882
-0.010006
-0.010129
-0.010253
-0.010376
-0.010500
-0.010624
-0.010747
-0.010871
-0.010994
-0.011118
-0.011241
-0.011365
-0.011488
-0.011612
-0.011735
-0.011859
-0.011982
-0.012106
-0.012229
-0.012353
-0.012476
-0.012969
-0.012807
-0.009552
-0.009773
-0.009284
-0.010094
-0.018807
-0.019279
-0.019453
-0.018883
-0.014616
-0.015009
-0.015459
-0.011537
-0.011546
-0.011210
-0.020411
-0.020111
-0.020501
-0.019837
-0.019418
-0.018874
-0.020445
-0.020463
-0.014672
-0.015187
-0.014732
-0.015133
-0.014190
-0.014589
-0.014127
-0.019902
-0.020433
-0.020523
-0.019824
-0.019924
-0.020431
-0.017976
-0.017944
-0.017489
-0.019370
-0.017057
-0.017163
-0.017596
-0.016627
-0.016166
-0.016627
-0.016228
-0.016615
-0.016986
-0.013045
-0.013043
-0.012562
-0.020212
-0.012659
-0.015708
-0.015647
-0.015623
-0.016022
-0.016066
-0.015657
-0.015255
-0.015112
-0.019845
-0.018548
-0.018556
-0.018103
-0.019065
-0.011234
-0.011606
-0.011874
-0.011395
-0.011882
-0.020400
-0.020479
-0.019872
-0.015493
-0.016135
-0.013793
-0.013609
-0.013249
-0.009261
-0.009854
-0.009320
-0.014205
-0.009731
-0.020303
-0.019900
-0.019728
-0.020076
-0.019930
-0.019497
-0.020019
-0.020461
-0.009902
-0.009436
-0.009153
-0.019868
-0.019996
-0.020459
-0.010534
-0.010236
-0.013438
-0.013242
-0.012984
-0.014147
-0.013961
-0.013493
-0.020516
-0.019978
-0.019981
-0.018701
-0.018219
-0.018526
-0.020475
-0.019059
-0.010274
-0.010792
-0.020625
-0.011038
-0.020432
-0.014551
-0.018006
-0.017648
-0.017517
-0.019612
-0.017815
-0.010252
-0.018295
-0.019360
-0.012674
-0.013794
-0.013376
-0.019538
-0.019140
-0.010728
-0.012099
-0.017538
-0.018054
-0.017541
-0.009629
-0.010003
-0.010418
-0.010602
-0.018046
-0.020470
-0.018183
-0.018304
-0.017659
-0.017827
-0.017183
-0.017684
-0.015067
-0.014392
-0.020066
-0.019515
-0.019284
-0.017216
-0.018451
-0.018487
-0.019005
-0.020593
-0.011552
-0.011131
-0.012005
-0.020198
-0.020432
-0.019759
-0.011210
-0.018572
-0.019143
-0.018813
-0.019446
-0.019966
-0.019187
-0.018896
-0.018691
-0.017736
-0.010175
-0.009829
-0.010728
-0.010970
-0.015392
-0.015926
-0.015331
-0.019947
-0.020485
-0.018015
-0.017492
-0.019432
-0.015877
-0.017982
-0.018572
-0.020535
-0.015363
-0.015804
-0.015726
-0.012413
-0.012173
-0.011544
-0.016207
-0.010970
-0.011556
-0.011428
-0.010827
-0.019143
-0.018691
-0.019481
-0.019563
-0.010434
-0.009990
-0.011171
-0.011398
-0.017018
-0.016763
-0.016532
-0.017492
-0.016950
-0.017447
-0.018238
-0.011604
-0.011509
-0.011158
-0.012609
-0.013123
-0.011046
-0.012031
-0.012645
-0.011681
-0.012159
-0.012333
-0.013065
-0.013493
-0.012986
-0.013748
-0.020369
-0.012931
-0.012494
-0.018678
-0.016449
-0.017055
-0.016402
-0.016982
-0.010715
-0.016383
-0.015933
-0.014789
-0.015393
-0.015189
-0.011713
-0.011956
-0.010403
-0.015286
-0.014867
-0.014787
-0.015777
-0.015195
-0.013284
-0.015745
-0.013792
-0.017748
-0.018134
-0.017572
-0.017592
-0.017616
-0.017051
-0.012767
-0.012692
-0.012120
-0.013271
-0.013566
-0.013369
-0.016674
-0.010644
-0.016521
-0.016279
-0.017263
-0.017558
-0.017867
-0.018099
-0.014022
-0.014010
-0.014578
-0.015156
-0.011260
-0.011910
-0.011000
-0.011594
-0.010930
-0.014442
-0.014086
-0.014538
-0.013986
-0.015194
-0.015774
-0.014608
-0.019277
-0.019450
-0.018751
-0.014047
-0.013386
-0.018444
-0.018416
-0.015930
-0.016252
-0.015775
-0.014650
-0.015666
-0.016266
-0.016002
-0.016741
-0.016504
-0.016999
-0.020061
-0.019624
-0.018961
-0.020589
-0.014652
-0.014152
-0.014566
-0.014998
-0.019855
-0.020307
-0.019479
-0.016871
-0.016723
-0.016296
-0.016967
-0.013053
-0.013171
-0.013549
-0.012781
-0.009858
-0.017196
-0.015883
-0.016454
-0.016282
-0.017006
-0.016342
-0.016834
-0.015975
-0.018018
-0.017464
-0.017517
-0.016257
-0.018081
-0.015483
-0.014892
-0.016780
-0.013619
-0.013436
-0.013246
-0.012884
-0.013807
-0.012160
-0.014040
-0.012672
-0.018349
-0.018453
-0.018853
-0.015000
-0.015584
-0.008864
-0.016089
-0.011706
-0.012316
-0.012206
-0.011507
-0.012122
-0.018208
-0.013630
-0.011618
-0.018595
-0.016476
-0.020052
-0.011248
-0.010649