# vtk DataFile Version 2.0
Test
ASCII
DATASET POLYDATA
POINTS 1445 float
0.000000 0.000000 0.000000
1.000000 0.000000 0.000000
1.000000 1.000000 0.000000
0.000000 1.000000 0.000000
0.000000 0.400000 0.000000
1.000000 0.600000 0.000000
0.029412 0.000000 0.000000
0.058824 0.000000 0.000000
0.088235 0.000000 0.000000
0.117647 0.000000 0.000000
0.147059 0.000000 0.000000
0.176471 0.000000 0.000000
0.205882 0.000000 0.000000
0.235294 0.000000 0.000000
0.264706 0.000000 0.000000
0.294118 0.000000 0.000000
0.323529 0.000000 0.000000
0.352941 0.000000 0.000000
0.382353 0.000000 0.000000
0.411765 0.000000 0.000000
0.441176 0.000000 0.000000
0.470588 0.000000 0.000000
0.500000 0.000000 0.000000
0.529412 0.000000 0.000000
0.558824 0.000000 0.000000
0.588235 0.000000 0.000000
0.617647 0.000000 0.000000
0.647059 0.000000 0.000000
0.676471 0.000000 0.000000
0.705882 0.000000 0.000000
0.735294 0.000000 0.000000
0.764706 0.000000 0.000000
0.794118 0.000000 0.000000
0.823529 0.000000 0.000000
0.852941 0.000000 0.000000
0.882353 0.000000 0.000000
0.911765 0.000000 0.000000
0.941176 0.000000 0.000000
0.970588 0.000000 0.000000
1.000000 0.030000 0.000000
1.000000 0.060000 0.000000
1.000000 0.090000 0.000000
1.000000 0.120000 0.000000
1.000000 0.150000 0.000000
1.000000 0.180000 0.000000
1.000000 0.210000 0.000000
1.000000 0.240000 0.000000
1.000000 0.270000 0.000000
1.000000 0.300000 0.000000
1.000000 0.330000 0.000000
1.000000 0.360000 0.000000
1.000000 0.390000 0.000000
1.000000 0.420000 0.000000
1.000000 0.450000 0.000000
1.000000 0.480000 0.000000
1.000000 0.510000 0.000000
1.000000 0.540000 0.000000
1.000000 0.570000 0.000000
1.000000 0.628571 0.000000
1.000000 0.657143 0.000000
1.000000 0.685714 0.000000
1.000000 0.714286 0.000000
1.000000 0.742857 0.000000
1.000000 0.771429 0.000000
1.000000 0.800000 0.000000
1.000000 0.828571 0.000000
1.000000 0.857143 0.000000
1.000000 0.885714 0.000000
1.000000 0.914286 0.000000
1.000000 0.942857 0.000000
1.000000 0.971429 0.000000
0.970588 1.000000 0.000000
0.941176 1.000000 0.000000
0.911765 1.000000 0.000000
0.882353 1.000000 0.000000
0.852941 1.000000 0.000000
0.823529 1.000000 0.000000
0.794118 1.000000 0.000000
0.764706 1.000000 0.000000
0.735294 1.000000 0.000000
0.705882 1.000000 0.000000
0.676471 1.000000 0.000000
0.647059 1.000000 0.000000
0.617647 1.000000 0.000000
0.588235 1.000000 0.000000
0.558824 1.000000 0.000000
0.529412 1.000000 0.000000
0.500000 1.000000 0.000000
0.470588 1.000000 0.000000
0.441176 1.000000 0.000000
0.411765 1.000000 0.000000
0.382353 1.000000 0.000000
0.352941 1.000000 0.000000
0.323529 1.000000 0.000000
0.294118 1.000000 0.000000
0.264706 1.000000 0.000000
0.235294 1.000000 0.000000
0.205882 1.000000 0.000000
0.176471 1.000000 0.000000
0.147059 1.000000 0.000000
0.117647 1.000000 0.000000
0.088235 1.000000 0.000000
0.058824 1.000000 0.000000
0.029412 1.000000 0.000000
0.000000 0.970000 0.000000
0.000000 0.940000 0.000000
0.000000 0.910000 0.000000
0.000000 0.880000 0.000000
0.000000 0.850000 0.000000
0.000000 0.820000 0.000000
0.000000 0.790000 0.000000
0.000000 0.760000 0.000000
0.000000 0.730000 0.000000
0.000000 0.700000 0.000000
0.000000 0.670000 0.000000
0.000000 0.640000 0.000000
0.000000 0.610000 0.000000
0.000000 0.580000 0.000000
0.000000 0.550000 0.000000
0.000000 0.520000 0.000000
0.000000 0.490000 0.000000
0.000000 0.460000 0.000000
0.000000 0.430000 0.000000
0.000000 0.371429 0.000000
0.000000 0.342857 0.000000
0.000000 0.314286 0.000000
0.000000 0.285714 0.000000
0.000000 0.257143 0.000000
0.000000 0.228571 0.000000
0.000000 0.200000 0.000000
0.000000 0.171429 0.000000
0.000000 0.142857 0.000000
0.000000 0.114286 0.000000
0.000000 0.085714 0.000000
0.000000 0.057143 0.000000
0.000000 0.028571 0.000000
0.029412 0.405882 0.000000
0.058824 0.411765 0.000000
0.088235 0.417647 0.000000
0.117647 0.423529 0.000000
0.147059 0.429412 0.000000
0.176471 0.435294 0.000000
0.205882 0.441176 0.000000
0.235294 0.447059 0.000000
0.264706 0.452941 0.000000
0.294118 0.458824 0.000000
0.323529 0.464706 0.000000
0.352941 0.470588 0.000000
0.382353 0.476471 0.000000
0.411765 0.482353 0.000000
0.441176 0.488235 0.000000
0.470588 0.494118 0.000000
0.500000 0.500000 0.000000
0.529412 0.505882 0.000000
0.558824 0.511765 0.000000
0.588235 0.517647 0.000000
0.617647 0.523529 0.000000
0.647059 0.529412 0.000000
0.676471 0.535294 0.000000
0.705882 0.541176 0.000000
0.735294 0.547059 0.000000
0.764706 0.552941 0.000000
0.794118 0.558824 0.000000
0.823529 0.564706 0.000000
0.852941 0.570588 0.000000
0.882353 0.576471 0.000000
0.911765 0.582353 0.000000
0.941176 0.588235 0.000000
0.970588 0.594118 0.000000
0.948492 0.617586 0.000000
0.918239 0.609871 0.000000
0.126115 0.454845 0.000000
0.100318 0.465379 0.000000
0.103006 0.442114 0.000000
0.117916 0.480680 0.000000
0.029145 0.895585 0.000000
0.046774 0.918032 0.000000
0.024990 0.926329 0.000000
0.056315 0.899171 0.000000
0.977770 0.695981 0.000000
0.963577 0.714729 0.000000
0.973827 0.736127 0.000000
0.605253 0.549394 0.000000
0.579370 0.549801 0.000000
0.570019 0.533816 0.000000
0.896809 0.971959 0.000000
0.919426 0.957680 0.000000
0.927686 0.976215 0.000000
0.899487 0.944624 0.000000
0.974081 0.924646 0.000000
0.977161 0.898750 0.000000
0.076578 0.973587 0.000000
0.102577 0.974440 0.000000
0.861693 0.698664 0.000000
0.848870 0.723174 0.000000
0.839521 0.701504 0.000000
0.820447 0.720618 0.000000
0.872237 0.675719 0.000000
0.882611 0.694724 0.000000
0.895344 0.672729 0.000000
0.606326 0.947716 0.000000
0.624868 0.973015 0.000000
0.599776 0.977307 0.000000
0.167986 0.944019 0.000000
0.199183 0.948746 0.000000
0.187884 0.972901 0.000000
0.787752 0.856005 0.000000
0.754801 0.854462 0.000000
0.778588 0.832828 0.000000
0.191471 0.922393 0.000000
0.801312 0.812216 0.000000
0.829867 0.817276 0.000000
0.805526 0.837896 0.000000
0.812775 0.791772 0.000000
0.822869 0.769821 0.000000
0.833826 0.791773 0.000000
0.849982 0.772760 0.000000
0.791421 0.791198 0.000000
0.772962 0.808877 0.000000
0.180049 0.621172 0.000000
0.160680 0.621098 0.000000
0.172158 0.598185 0.000000
0.588124 0.962489 0.000000
0.142171 0.602810 0.000000
0.827587 0.748015 0.000000
0.859778 0.745080 0.000000
0.882413 0.743965 0.000000
0.872759 0.762938 0.000000
0.894601 0.765041 0.000000
0.910115 0.745588 0.000000
0.901004 0.726420 0.000000
0.877058 0.719626 0.000000
0.632694 0.945006 0.000000
0.818411 0.883232 0.000000
0.787667 0.883633 0.000000
0.812018 0.862064 0.000000
0.808649 0.907835 0.000000
0.066636 0.534974 0.000000
0.083909 0.552665 0.000000
0.058224 0.565435 0.000000
0.037551 0.542621 0.000000
0.025720 0.565794 0.000000
0.304619 0.971425 0.000000
0.276072 0.975195 0.000000
0.284125 0.946285 0.000000
0.795087 0.737757 0.000000
0.797357 0.768346 0.000000
0.869843 0.656802 0.000000
0.840870 0.648068 0.000000
0.865462 0.630915 0.000000
0.043233 0.441011 0.000000
0.028792 0.469222 0.000000
0.020751 0.443790 0.000000
0.846918 0.676414 0.000000
0.058991 0.463368 0.000000
0.051906 0.966804 0.000000
0.071758 0.947609 0.000000
0.048298 0.939447 0.000000
0.026398 0.956010 0.000000
0.967109 0.949068 0.000000
0.946807 0.928411 0.000000
0.940173 0.953295 0.000000
0.956764 0.974357 0.000000
0.076722 0.471546 0.000000
0.082324 0.449317 0.000000
0.066669 0.435847 0.000000
0.114035 0.946088 0.000000
0.091278 0.952186 0.000000
0.128453 0.974235 0.000000
0.027019 0.501643 0.000000
0.047138 0.487417 0.000000
0.943388 0.639892 0.000000
0.923239 0.630552 0.000000
0.974491 0.618278 0.000000
0.972785 0.673666 0.000000
0.943930 0.664809 0.000000
0.968693 0.642530 0.000000
0.780685 0.976970 0.000000
0.756289 0.951349 0.000000
0.776857 0.951460 0.000000
0.935276 0.890540 0.000000
0.927168 0.867561 0.000000
0.954227 0.882176 0.000000
0.745760 0.974977 0.000000
0.952002 0.907568 0.000000
0.068063 0.489215 0.000000
0.051512 0.513895 0.000000
0.027757 0.982136 0.000000
0.023217 0.525632 0.000000
0.982410 0.972952 0.000000
0.951072 0.692907 0.000000
0.957020 0.857438 0.000000
0.937630 0.840379 0.000000
0.966912 0.834149 0.000000
0.923427 0.933924 0.000000
0.982257 0.848323 0.000000
0.092881 0.488189 0.000000
0.976737 0.871201 0.000000
0.067960 0.921895 0.000000
0.886538 0.603532 0.000000
0.918896 0.656866 0.000000
0.898227 0.636966 0.000000
0.092880 0.930380 0.000000
0.929071 0.911440 0.000000
0.081137 0.510877 0.000000
0.592772 0.576158 0.000000
0.150419 0.835159 0.000000
0.138607 0.859733 0.000000
0.125762 0.835294 0.000000
0.155304 0.458505 0.000000
0.139466 0.476317 0.000000
0.134858 0.496115 0.000000
0.109061 0.504849 0.000000
0.112238 0.859343 0.000000
0.866826 0.974780 0.000000
0.026919 0.865848 0.000000
0.348411 0.871602 0.000000
0.339654 0.840899 0.000000
0.369544 0.848927 0.000000
0.925986 0.818235 0.000000
0.909684 0.842117 0.000000
0.929360 0.717495 0.000000
0.924028 0.685311 0.000000
0.879688 0.955544 0.000000
0.875200 0.929284 0.000000
0.903901 0.918287 0.000000
0.950764 0.819790 0.000000
0.047492 0.878635 0.000000
0.069665 0.880314 0.000000
0.081712 0.904992 0.000000
0.573454 0.980624 0.000000
0.556694 0.550113 0.000000
0.094318 0.530060 0.000000
0.563246 0.571677 0.000000
0.563825 0.961795 0.000000
0.155902 0.972929 0.000000
0.577162 0.940912 0.000000
0.545227 0.533787 0.000000
0.864670 0.884377 0.000000
0.860690 0.911575 0.000000
0.840756 0.895862 0.000000
0.137227 0.926016 0.000000
0.139814 0.950758 0.000000
0.109156 0.913646 0.000000
0.884976 0.899786 0.000000
0.910807 0.890052 0.000000
0.830819 0.844574 0.000000
0.157710 0.484545 0.000000
0.180718 0.468069 0.000000
0.154331 0.510861 0.000000
0.124262 0.522394 0.000000
0.341085 0.732964 0.000000
0.323736 0.758404 0.000000
0.312899 0.730066 0.000000
0.857321 0.949854 0.000000
0.839840 0.975483 0.000000
0.053549 0.857833 0.000000
0.031143 0.832960 0.000000
0.840338 0.925315 0.000000
0.300796 0.756054 0.000000
0.080783 0.856286 0.000000
0.096939 0.884378 0.000000
0.544800 0.977874 0.000000
0.949430 0.731579 0.000000
0.955247 0.752582 0.000000
0.934712 0.748859 0.000000
0.030153 0.591093 0.000000
[...]
POINT_DATA 1445
SCALARS UX float 1
LOOKUP_TABLE default
-0.060241
0.000560
-0.000000
-0.060847
-0.060563
0.000000
-0.058453
-0.056665
-0.054877
-0.053089
-0.051301
-0.049513
-0.047725
-0.045937
-0.044149
-0.042361
-0.040573
-0.038785
-0.036997
-0.035208
-0.033420
-0.031632
-0.029844
-0.028056
-0.026267
-0.024479
-0.022691
-0.020902
-0.019114
-0.017325
-0.015537
-0.013748
-0.011960
-0.010171
-0.008383
-0.006594
-0.004806
-0.003017
-0.001229
0.000560
0.000560
0.000560
0.000559
0.000559
0.000559
0.000558
0.000558
0.000557
0.000556
0.000554
0.000553
0.000550
0.000547
0.000544
0.000538
0.000530
0.000513
0.000465
-0.000000
0.000000
-0.000000
-0.000000
-0.000000
-0.000000
-0.000000
-0.000000
-0.000000
-0.000000
-0.000000
-0.000000
-0.000000
-0.001790
-0.003580
-0.005370
-0.007160
-0.008951
-0.010741
-0.012532
-0.014322
-0.016113
-0.017903
-0.019693
-0.021484
-0.023274
-0.025064
-0.026854
-0.028644
-0.030434
-0.032223
-0.034013
-0.035802
-0.037592
-0.039381
-0.041170
-0.042959
-0.044748
-0.046537
-0.048325
-0.050114
-0.051903
-0.053692
-0.055480
-0.057269
-0.059058
-0.060847
-0.060847
-0.060848
-0.060848
-0.060849
-0.060850
-0.060851
-0.060852
-0.060854
-0.060855
-0.060857
-0.060859
-0.060861
-0.060863
-0.060865
-0.060867
-0.060869
-0.060867
-0.060843
-0.060256
-0.060239
-0.060234
-0.060235
-0.060236
-0.060237
-0.060238
-0.060239
-0.060239
-0.060240
-0.060240
-0.060241
-0.060241
-0.058769
-0.056999
-0.055213
-0.053415
-0.051620
-0.049833
-0.048044
-0.046256
-0.044466
-0.042678
-0.040880
-0.039091
-0.037298
-0.035500
-0.033720
-0.031927
-0.030151
-0.028374
-0.026582
-0.024802
-0.023006
-0.021215
-0.019428
-0.017633
-0.015848
-0.014063
-0.012281
-0.010500
-0.008725
-0.006945
-0.005171
-0.003420
-0.001707
-0.003184
-0.005014
-0.053176
-0.054760
-0.054521
-0.053692
-0.059075
-0.058003
-0.059327
-0.057423
-0.001358
-0.002222
-0.001596
-0.024031
-0.025625
-0.026101
-0.006281
-0.004904
-0.004401
-0.006118
-0.001578
-0.001390
-0.056189
-0.054608
-0.008443
-0.009218
-0.009792
-0.010949
-0.007808
-0.007169
-0.006401
-0.023964
-0.022835
-0.024362
-0.050631
-0.048733
-0.049420
-0.012923
-0.014930
-0.013483
-0.049203
-0.012101
-0.010362
-0.011842
-0.011405
-0.010793
-0.010123
-0.009141
-0.012706
-0.013828
-0.049912
-0.051090
-0.050393
-0.025071
-0.052216
-0.010509
-0.008549
-0.007169
-0.007755
-0.006423
-0.005480
-0.006039
-0.007501
-0.022359
-0.011055
-0.012927
-0.011445
-0.011648
-0.056814
-0.055762
-0.057323
-0.058582
-0.059300
-0.042320
-0.044057
-0.043567
-0.012490
-0.012347
-0.007961
-0.009726
-0.008234
-0.058214
-0.059116
-0.059591
-0.009349
-0.057279
-0.057690
-0.056483
-0.057910
-0.059241
-0.002002
-0.003238
-0.003641
-0.002631
-0.056201
-0.055837
-0.056733
-0.053912
-0.055296
-0.053035
-0.059226
-0.058002
-0.003480
-0.004715
-0.001587
-0.001666
-0.003437
-0.001928
-0.013349
-0.014835
-0.013583
-0.003940
-0.004434
-0.002786
-0.015476
-0.002922
-0.056729
-0.057736
-0.059159
-0.059455
-0.001071
-0.002990
-0.002617
-0.003797
-0.002015
-0.004661
-0.001080
-0.055219
-0.001416
-0.056714
-0.006941
-0.004970
-0.006239
-0.055198
-0.004317
-0.055934
-0.024816
-0.051702
-0.052419
-0.053201
-0.051390
-0.052376
-0.052665
-0.054235
-0.054023
-0.008106
-0.059211
-0.039659
-0.040193
-0.038374
-0.004507
-0.005499
-0.004311
-0.004645
-0.007323
-0.007596
-0.005849
-0.002998
-0.057960
-0.056611
-0.055878
-0.025964
-0.026996
-0.055131
-0.026614
-0.026550
-0.051365
-0.025739
-0.027655
-0.008238
-0.008480
-0.009694
-0.052502
-0.052344
-0.054209
-0.007002
-0.005429
-0.010302
-0.051272
-0.049866
-0.051482
-0.053311
-0.040112
-0.041165
-0.041826
-0.008684
-0.009748
-0.057592
-0.058956
-0.009719
-0.042561
-0.055936
-0.054953
-0.027708
-0.003084
-0.002728
-0.003980
-0.059028
-0.055311
-0.054178
-0.004960
-0.031951
-0.031818
-0.033737
-0.033206
-0.051104
-0.052810
-0.012848
-0.014158
-0.049726
-0.047856
-0.049883
-0.052167
-0.001595
-0.003292
-0.001604
-0.056879
-0.059481
-0.054926
-0.006502
-0.044620
-0.045857
-0.044987
-0.057098
-0.058726
-0.046402
-0.053234
-0.054131
-0.043005
-0.044391
-0.042821
-0.039454
-0.040592
-0.041073
-0.039204
-0.047291
-0.042560
-0.041481
-0.049503
-0.041789
-0.042456
-0.043361
-0.044404
-0.048044
-0.040463
-0.039535
-0.053903
-0.053532
-0.055328
-0.048865
-0.050875
-0.046338
-0.043342
-0.042515
-0.040960
-0.044146
-0.045079
-0.056592
-0.045969
-0.059252
-0.007080
-0.008130
-0.008702
-0.043424
-0.041797
-0.040731
-0.045363
-0.043880
-0.046148
-0.044263
-0.042420
-0.046187
-0.004807
-0.044760
-0.006113
-0.044915
-0.046189
-0.044840
-0.046091
-0.044371
-0.047109
-0.044595
-0.046013
-0.047139
-0.041570
-0.041336
-0.043326
-0.039898
-0.040011
-0.059083
-0.057857
-0.057310
-0.056396
-0.049596
-0.047842
-0.048104
-0.042708
-0.044959
-0.044217
-0.049152
-0.048548
-0.045753
-0.047444
-0.053321
-0.054749
-0.055150
-0.055415
-0.051438
-0.051358
-0.049746
-0.051400
-0.052437
-0.052464
-0.045423
-0.047122
-0.046261
-0.045703
-0.049612
-0.050569
-0.051130
-0.058216
-0.041885
-0.040047
-0.040638
-0.047687
-0.045785
-0.046781
-0.057735
-0.053541
-0.054876
-0.053772
-0.055607
-0.046062
-0.038860
-0.014380
-0.014148
-0.016038
-0.056255
-0.056712
-0.015645
-0.001541
-0.048829
-0.049878
-0.047886
-0.003319
-0.050649
-0.038261
-0.038924
-0.055025
-0.057828
-0.011665
-0.013466
-0.012051
-0.013048
-0.049369
-0.040911
-0.048893
-0.016355
-0.014476
-0.015857
-0.036851
-0.036241
-0.059216
-0.037689
-0.021136
-0.020766
-0.022940
-0.022505
-0.047887
-0.009624
-0.055379
-0.047124
-0.051167
-0.007475
-0.012154
-0.048051
-0.041785
-0.041865
-0.040520
-0.008616
-0.024529
-0.026214
-0.025813
-0.024154
-0.015129
-0.014147
-0.016184
-0.014999
-0.027614
-0.059041
-0.027870
-0.039094
-0.037288
-0.052250
-0.017289
-0.016946
-0.050636
-0.039932
-0.015274
-0.019443
-0.019057
-0.035716
-0.036784
-0.034897
-0.048062
-0.008767
-0.027084
-0.028183
-0.026889
-0.027547
-0.028727
-0.023862
-0.025541
-0.024309
-0.025129
-0.025744
-0.022292
-0.022571
-0.023327
-0.043309
-0.044674
-0.017691
-0.018876
-0.018802
-0.017694
-0.016579
-0.013916
-0.020495
-0.020784
-0.021527
-0.019776
-0.006650
-0.006011
-0.010048
-0.011256
-0.037353
-0.039344
-0.037854
-0.038758
-0.038723
-0.038019
-0.014017
-0.015477
-0.013699
-0.015854
-0.017296
-0.016944
-0.036411
-0.036847
-0.016765
-0.017211
-0.016273
-0.015186
-0.016935
-0.017687
-0.018762
-0.013985
-0.010465
-0.034860
-0.034303
-0.035743
-0.034686
-0.032862
-0.033679
-0.015498
-0.017330
-0.041088
-0.018238
-0.017831
-0.035367
-0.043926
-0.042586
-0.038147
-0.035435
-0.036684
-0.011139
-0.035471
-0.035957
-0.036833
-0.019111
-0.018695
-0.034540
-0.034958
-0.020489
-0.019500
-0.020555
-0.030782
-0.032420
-0.030902
-0.032080
-0.019192
-0.018662
-0.029550
-0.029139
-0.030889
-0.017328
-0.018043
-0.033631
-0.034107
-0.034982
-0.033516
-0.033893
-0.036305
-0.011461
-0.021293
-0.022351
-0.032704
-0.033126
-0.059220
-0.057259
-0.053643
-0.053864
-0.031811
-0.032272
-0.033163
-0.012268
-0.052056
-0.029998
-0.030463
-0.058617
-0.031345
-0.034491
-0.022285
-0.020953
-0.012871
-0.030886
-0.052737
-0.031306
-0.028188
-0.028637
-0.020064
-0.019638
-0.042674
-0.029075
-0.029498
-0.010547
-0.032687
-0.032978
-0.027265
-0.027699
-0.026829
-0.025459
-0.025892
-0.041099
-0.023091
-0.024151
-0.020999
-0.020567
-0.048436
-0.054393
-0.024087
-0.022751
-0.020182
-0.018380
-0.019122
-0.025025
-0.023657
-0.023429
-0.025229
-0.056708
-0.042725
-0.027027
-0.025954
-0.029926
-0.028841
-0.030592
-0.029559
-0.021633
-0.022708
-0.022792
-0.024589
-0.023225
-0.021858
-0.052212
-0.019839
-0.021431
-0.012619
-0.047244
-0.029497
-0.029356
-0.020914
-0.026382
-0.027759
-0.024893
-0.030437
-0.030333
-0.031749
-0.029952
-0.059521
-0.027608
-0.038636
-0.037801
-0.021791
-0.016579
-0.024553
-0.014840
-0.026696
-0.026358
-0.028498
-0.028158
-0.030216
-0.034466
-0.035874
-0.035323
-0.023226
-0.030475
-0.029076
-0.030136
-0.031811
-0.032051
-0.031367
-0.031614
-0.018140
-0.048915
-0.047613
-0.018635
-0.038121
-0.037249
-0.034581
-0.033686
-0.033403
-0.019629
-0.035630
-0.049809
-0.032610
-0.011381
-0.020588
-0.036896
-0.036535
-0.029053
-0.028434
-0.037620
-0.031422
-0.021566
-0.038541
-0.033082
-0.039708
-0.051007
-0.057123
-0.055295
-0.007170
-0.005588
-0.005837
-0.006647
-0.001213
-0.002285
-0.000960
-0.002865
-0.058883
-0.058021
-0.058645
-0.036268
-0.034673
-0.034199
-0.053968
-0.055343
-0.055845
-0.054131
-0.058665
-0.058852
-0.004097
-0.005678
-0.051827
-0.051048
-0.050479
-0.049320
-0.052466
-0.053098
-0.053870
-0.036308
-0.037435
-0.035910
-0.009655
-0.011552
-0.010865
-0.047337
-0.045334
-0.046779
-0.011083
-0.048160
-0.049896
-0.048417
-0.048856
-0.049469
-0.050136
-0.051118
-0.047558
-0.046437
-0.010397
-0.009219
-0.009919
-0.035202
-0.008095
-0.049755
-0.051712
-0.053088
-0.052502
-0.053830
-0.054772
-0.054217
-0.052762
-0.037911
-0.049201
-0.047332
-0.048812
-0.048608
-0.003511
-0.004559
-0.002995
-0.001741
-0.001018
-0.017964
-0.016228
-0.016718
-0.047779
-0.047918
-0.052320
-0.050559
-0.052057
-0.002159
-0.001233
-0.000776
-0.050928
-0.003075
-0.002596
-0.003804
-0.002377
-0.001045
-0.058241
-0.057007
-0.056604
-0.057613
-0.004148
-0.004522
-0.003641
-0.006374
-0.004991
-0.007251
-0.001109
-0.002339
-0.056799
-0.055577
-0.058734
-0.058580
-0.056826
-0.058339
-0.046909
-0.045425
-0.046676
-0.056306
-0.055812
-0.057458
-0.044785
-0.057323
-0.003611
-0.002595
-0.001128
-0.000872
-0.059172
-0.057260
-0.057627
-0.056448
-0.058228
-0.055586
-0.059161
-0.005121
-0.058826
-0.003573
-0.053367
-0.055304
-0.054049
-0.005088
-0.055929
-0.004398
-0.035481
-0.008588
-0.007869
-0.007088
-0.008948
-0.007961
-0.007668
-0.006098
-0.006266
-0.052145
-0.001078
-0.020627
-0.020094
-0.021912
-0.055739
-0.054749
-0.055941
-0.055615
-0.052927
-0.052654
-0.054399
-0.057246
-0.002328
-0.003677
-0.004409
-0.034310
-0.033302
-0.005196
-0.033683
-0.033724
-0.008920
-0.034535
-0.032644
-0.052013
-0.051772
-0.050560
-0.007785
-0.007942
-0.006078
-0.053248
-0.054818
-0.049955
-0.009060
-0.010464
-0.008846
-0.007017
-0.020182
-0.019127
-0.018469
-0.051567
-0.050505
-0.002697
-0.001335
-0.050535
-0.017732
-0.004353
-0.005335
-0.032568
-0.057162
-0.057516
-0.056268
-0.001285
-0.005005
-0.006143
-0.055289
-0.028350
-0.028482
-0.026565
-0.027096
-0.009182
-0.007477
-0.047410
-0.046102
-0.010601
-0.012469
-0.010439
-0.008155
-0.058646
-0.056952
-0.058637
-0.003411
-0.000811
-0.005364
-0.053747
-0.015692
-0.014457
-0.015327
-0.003214
-0.001582
-0.013915
-0.007083
-0.006181
-0.017305
-0.015919
-0.017487
-0.020848
-0.019709
-0.019230
-0.021095
-0.012994
-0.017744
-0.018824
-0.010784
-0.018502
-0.017834
-0.016931
-0.015886
-0.012278
-0.019828
-0.020757
-0.006396
-0.006764
-0.004969
-0.011451
-0.009441
-0.013982
-0.016953
-0.017782
-0.019337
-0.016148
-0.015218
-0.003715
-0.014326
-0.001052
-0.053171
-0.052123
-0.051552
-0.016865
-0.018490
-0.019557
-0.014945
-0.016427
-0.014163
-0.016041
-0.017882
-0.014118
-0.055441
-0.015556
-0.054138
-0.015377
-0.014101
-0.015449
-0.014198
-0.015917
-0.013193
-0.015706
-0.014286
-0.013158
-0.018740
-0.018971
-0.016986
-0.020408
-0.020297
-0.001218
-0.002445
-0.002990
-0.003907
-0.010701
-0.012453
-0.012196
-0.017577
-0.015326
-0.016069
-0.011151
-0.011758
-0.014534
-0.012843
-0.006973
-0.005545
-0.005145
-0.004885
-0.008858
-0.008935
-0.010548
-0.008892
-0.007855
-0.007827
-0.014862
-0.013164
-0.014026
-0.014582
-0.010688
-0.009733
-0.009170
-0.002082
-0.018400
-0.020236
-0.019646
-0.012604
-0.014506
-0.013512
-0.002556
-0.006768
-0.005432
-0.006534
-0.004704
-0.014257
-0.021427
-0.045891
-0.046119
-0.044233
-0.004036
-0.003581
-0.044623
-0.058699
-0.011459
-0.010412
-0.012403
-0.056926
-0.009640
-0.022032
-0.021371
-0.005267
-0.002477
-0.048623
-0.046825
-0.048244
-0.047237
-0.010944
-0.019388
-0.011417
-0.043910
-0.045785
-0.044406
-0.023443
-0.024051
-0.001198
-0.022601
-0.039163
-0.039530
-0.037356
-0.037794
-0.012426
-0.050631
-0.004926
-0.013191
-0.009121
-0.052779
-0.048103
-0.012267
-0.018526
-0.018445
-0.019788
-0.051686
-0.035765
-0.034082
-0.034480
-0.036138
-0.045158
-0.046134
-0.044099
-0.045279
-0.032682
-0.001252
-0.032425
-0.021195
-0.023000
-0.008057
-0.042974
-0.043317
-0.009669
-0.020372
-0.044991
-0.040855
-0.041238
-0.024586
-0.023520
-0.025406
-0.012225
-0.051489
-0.033198
-0.032102
-0.033395
-0.032739
-0.031557
-0.036419
-0.034741
-0.035974
-0.035151
-0.034541
-0.037987
-0.037711
-0.036951
-0.017005
-0.015642
-0.042583
-0.041399
-0.041475
-0.042577
-0.043695
-0.046344
-0.039782
-0.039495
-0.038749
-0.040498
-0.053601
-0.054250
-0.050246
-0.049026
-0.022930
-0.020940
-0.022430
-0.021525
-0.021584
-0.022286
-0.046279
-0.044823
-0.046607
-0.044441
-0.042999
-0.043358
-0.023874
-0.023440
-0.043502
-0.043057
-0.044004
-0.045088
-0.043345
-0.042592
-0.041521
-0.046288
-0.049838
-0.025432
-0.025987
-0.024546
-0.025614
-0.027438
-0.026620
-0.044763
-0.042934
-0.019197
-0.042029
-0.042435
-0.024920
-0.016372
-0.017713
-0.022136
-0.024865
-0.023619
-0.049137
-0.024811
-0.024327
-0.023449
-0.041161
-0.041574
-0.025744
-0.025328
-0.039783
-0.040780
-0.039729
-0.029505
-0.027868
-0.029387
-0.028206
-0.041075
-0.041603
-0.030728
-0.031138
-0.029389
-0.042960
-0.042242
-0.026650
-0.026175
-0.025299
-0.026770
-0.026395
-0.023976
-0.048794
-0.038989
-0.037934
-0.027578
-0.027158
-0.001076
-0.003037
-0.006649
-0.006426
-0.028468
-0.028009
-0.027117
-0.048035
-0.008242
-0.030280
-0.029817
-0.001678
-0.028934
-0.025789
-0.037989
-0.039321
-0.047405
-0.029395
-0.007564
-0.028977
-0.032089
-0.031641
-0.040206
-0.040630
-0.017613
-0.031204
-0.030783
-0.049707
-0.027592
-0.027313
-0.033013
-0.032580
-0.033447
-0.034817
-0.034386
-0.019187
-0.037193
-0.036136
-0.039270
-0.039700
-0.011857
-0.005910
-0.036189
-0.037525
-0.040111
-0.041912
-0.041167
-0.035249
-0.036617
-0.036860
-0.035061
-0.003590
-0.017561
-0.033264
-0.034334
-0.030370
-0.031452
-0.029702
-0.030733
-0.038655
-0.037583
-0.037479
-0.035684
-0.037048
-0.038414
-0.008091
-0.040448
-0.038840
-0.047661
-0.013065
-0.030789
-0.030932
-0.039376
-0.033893
-0.032531
-0.035393
-0.029848
-0.029967
-0.028536
-0.030331
-0.000777
-0.032668
-0.021668
-0.022501
-0.038502
-0.043712
-0.035724
-0.045452
-0.033592
-0.033922
-0.031790
-0.032124
-0.030074
-0.025831
-0.024424
-0.024973
-0.037067
-0.029823
-0.031221
-0.030163
-0.028486
-0.028244
-0.028926
-0.028677
-0.042158
-0.011376
-0.012675
-0.041630
-0.022179
-0.023049
-0.025713
-0.026606
-0.026891
-0.040637
-0.024664
-0.010483
-0.027683
-0.048875
-0.039680
-0.023404
-0.023761
-0.031246
-0.031864
-0.022676
-0.028876
-0.038702
-0.021756
-0.027214
-0.020589
-0.009283
SCALARS UY float 1
LOOKUP_TABLE default
-0.000000
-0.000000
-0.142000
-0.142000
-0.056800
-0.085208
-0.000000
-0.000000
-0.000000
-0.000000
-0.000000
-0.000000
-0.000000
-0.000000
-0.000000
-0.000000
-0.000000
-0.000000
-0.000000
-0.000000
-0.000000
-0.000000
-0.000000
-0.000000
-0.000000
-0.000000
-0.000000
-0.000000
-0.000000
-0.000000
-0.000000
-0.000000
-0.000000
-0.000000
-0.000000
-0.000000
-0.000000
-0.000000
-0.000000
-0.004257
-0.008513
-0.012769
-0.017026
-0.021282
-0.025538
-0.029795
-0.034051
-0.038307
-0.042563
-0.046819
-0.051075
-0.055331
-0.059587
-0.063843
-0.068099
-0.072354
-0.076612
-0.080876
-0.089305
-0.093366
-0.097419
-0.101471
-0.105523
-0.109576
-0.113629
-0.117682
-0.121735
-0.125788
-0.129841
-0.133894
-0.137947
-0.142000
-0.142000
-0.142000
-0.142000
-0.142000
-0.142000
-0.142000
-0.142000
-0.142000
-0.142000
-0.142000
-0.142000
-0.142000
-0.142000
-0.142000
-0.142000
-0.142000
-0.142000
-0.142000
-0.142000
-0.142000
-0.142000
-0.142000
-0.142000
-0.142000
-0.142000
-0.142000
-0.142000
-0.142000
-0.142000
-0.142000
-0.142000
-0.142000
-0.137742
-0.133485
-0.129227
-0.124970
-0.120713
-0.116455
-0.112198
-0.107941
-0.103684
-0.099427
-0.095170
-0.090913
-0.086657
-0.082400
-0.078143
-0.073887
-0.069630
-0.065372
-0.061108
-0.052687
-0.048631
-0.044577
-0.040524
-0.036472
-0.032419
-0.028367
-0.024314
-0.020262
-0.016210
-0.012157
-0.008105
-0.004053
-0.057632
-0.058477
-0.059313
-0.060139
-0.060987
-0.061814
-0.062658
-0.063486
-0.064322
-0.065154
-0.065988
-0.066823
-0.067649
-0.068494
-0.069330
-0.070153
-0.070996
-0.071838
-0.072662
-0.073498
-0.074343
-0.075169
-0.076004
-0.076838
-0.077671
-0.078508
-0.079337
-0.080182
-0.081011
-0.081860
-0.082689
-0.083530
-0.084381
-0.087721
-0.086633
-0.064644
-0.066139
-0.062826
-0.068314
-0.127182
-0.130368
-0.131545
-0.127691
-0.098871
-0.101530
-0.104567
-0.078057
-0.078115
-0.075830
-0.138022
-0.135996
-0.138626
-0.134144
-0.131311
-0.127637
-0.138252
-0.138373
-0.099240
-0.102719
-0.099643
-0.102355
-0.095985
-0.098682
-0.095559
-0.134581
-0.138170
-0.138780
-0.134056
-0.134727
-0.138155
-0.121568
-0.121348
-0.118278
-0.130988
-0.115354
-0.116073
-0.118998
-0.112453
-0.109338
-0.112454
-0.109756
-0.112371
-0.114879
-0.088249
-0.088238
-0.084988
-0.136677
-0.085643
-0.106244
-0.105828
-0.105672
-0.108364
-0.108664
-0.105904
-0.103182
-0.102216
-0.134196
-0.125432
-0.125488
-0.122428
-0.128923
-0.076016
-0.078527
-0.080337
-0.077099
-0.080386
-0.137945
-0.138480
-0.134378
-0.104787
-0.109128
-0.093300
-0.092060
-0.089629
-0.062683
-0.066685
-0.063072
-0.096082
-0.065856
-0.137289
-0.134565
-0.133407
-0.135757
-0.134775
-0.131844
-0.135374
-0.138362
-0.067016
-0.063857
-0.061933
-0.134350
-0.135215
-0.138344
-0.071285
-0.069268
-0.090893
-0.089567
-0.087816
-0.095701
-0.094435
-0.091272
-0.138732
-0.135096
-0.135112
-0.126472
-0.123212
-0.125286
-0.138449
-0.128888
-0.069524
-0.073025
-0.139465
-0.074688
-0.138163
-0.098429
-0.121777
-0.119356
-0.118473
-0.132626
-0.120484
-0.069378
-0.123729
-0.130916
-0.085739
-0.093306
-0.090482
-0.132121
-0.129437
-0.072598
-0.081862
-0.118610
-0.122096
-0.118628
-0.065166
-0.067696
-0.070506
-0.071744
-0.122041
-0.138422
-0.122962
-0.123781
-0.119425
-0.120564
-0.116214
-0.119601
-0.101918
-0.097347
-0.135693
-0.131967
-0.130408
-0.116436
-0.124777
-0.125016
-0.128518
-0.139250
-0.078161
-0.075320
-0.081223
-0.136578
-0.138158
-0.133615
-0.075838
-0.125596
-0.129454
-0.127225
-0.131502
-0.135013
-0.129746
-0.127782
-0.126402
-0.119947
-0.068862
-0.066529
-0.072598
-0.074234
-0.104110
-0.107720
-0.103699
-0.134885
-0.138521
-0.121826
-0.118295
-0.131404
-0.107386
-0.121606
-0.125593
-0.138860
-0.103920
-0.106901
-0.106370
-0.083976
-0.082355
-0.078112
-0.109618
-0.074228
-0.078188
-0.077323
-0.073260
-0.129450
-0.126395
-0.131738
-0.132289
-0.070615
-0.067611
-0.075590
-0.077122
-0.115103
-0.113375
-0.111816
-0.118296
-0.114632
-0.117995
-0.123342
-0.078521
-0.077878
-0.075507
-0.085300
-0.088775
-0.074747
-0.081397
-0.085545
-0.079035
-0.082264
-0.083441
-0.088384
-0.091281
-0.087854
-0.093001
-0.137735
-0.087481
-0.084530
-0.126312
-0.111251
-0.115342
-0.110930
-0.114848
-0.072514
-0.110806
-0.107766
-0.100035
-0.104111
-0.102734
-0.079251
-0.080895
-0.070402
-0.103390
-0.100559
-0.100020
-0.106712
-0.102775
-0.089864
-0.106492
-0.093295
-0.120027
-0.122635
-0.118842
-0.118969
-0.119137
-0.115319
-0.086376
-0.085869
-0.082003
-0.089782
-0.091771
-0.090443
-0.112775
-0.072027
-0.111739
-0.110100
-0.116748
-0.118743
-0.120829
-0.122397
-0.094851
-0.094770
-0.098610
-0.102517
-0.076195
-0.080586
-0.074434
-0.078449
-0.073960
-0.097687
-0.095278
-0.098338
-0.094609
-0.102770
-0.106687
-0.098813
-0.130361
-0.131527
-0.126804
-0.095023
-0.090556
-0.124733
-0.124538
-0.107741
-0.109916
-0.106691
-0.099096
-0.105960
-0.110012
-0.108229
-0.113224
-0.111622
-0.114968
-0.135657
-0.132702
-0.128220
-0.139225
-0.099106
-0.095733
-0.098525
-0.101443
-0.134264
-0.137319
-0.131724
-0.114104
-0.113101
-0.110215
-0.114749
-0.088305
-0.089103
-0.091656
-0.086465
-0.066698
-0.116300
-0.107421
-0.111283
-0.110118
-0.115010
-0.110528
-0.113850
-0.108058
-0.121850
-0.118108
-0.118468
-0.109962
-0.122279
-0.104726
-0.100730
-0.113482
-0.092126
-0.090885
-0.089603
-0.087157
-0.093396
-0.082275
-0.094976
-0.085733
-0.124085
-0.124788
-0.127491
-0.101457
-0.105408
-0.059968
-0.108815
-0.079198
-0.083324
-0.082585
-0.077853
-0.082019
-0.123136
-0.092199
-0.078613
-0.125749
-0.111433
-0.135594
-0.076114
-0.072067
-0.068361