# vtk DataFile Version 2.0
Test
ASCII
DATASET POLYDATA
POINTS 1445 float
0.000000 0.000000 0.000000
1.000000 0.000000 0.000000
1.000000 1.000000 0.000000
0.000000 1.000000 0.000000
0.000000 0.400000 0.000000
1.000000 0.600000 0.000000
0.029412 0.000000 0.000000
0.058824 0.000000 0.000000
0.088235 0.000000 0.000000
0.117647 0.000000 0.000000
0.147059 0.000000 0.000000
0.176471 0.000000 0.000000
0.205882 0.000000 0.000000
0.235294 0.000000 0.000000
0.264706 0.000000 0.000000
0.294118 0.000000 0.000000
0.323529 0.000000 0.000000
0.352941 0.000000 0.000000
0.382353 0.000000 0.000000
0.411765 0.000000 0.000000
0.441176 0.000000 0.000000
0.470588 0.000000 0.000000
0.500000 0.000000 0.000000
0.529412 0.000000 0.000000
0.558824 0.000000 0.000000
0.588235 0.000000 0.000000
0.617647 0.000000 0.000000
0.647059 0.000000 0.000000
0.676471 0.000000 0.000000
0.705882 0.000000 0.000000
0.735294 0.000000 0.000000
0.764706 0.000000 0.000000
0.794118 0.000000 0.000000
0.823529 0.000000 0.000000
0.852941 0.000000 0.000000
0.882353 0.000000 0.000000
0.911765 0.000000 0.000000
0.941176 0.000000 0.000000
0.970588 0.000000 0.000000
1.000000 0.030000 0.000000
1.000000 0.060000 0.000000
1.000000 0.090000 0.000000
1.000000 0.120000 0.000000
1.000000 0.150000 0.000000
1.000000 0.180000 0.000000
1.000000 0.210000 0.000000
1.000000 0.240000 0.000000
1.000000 0.270000 0.000000
1.000000 0.300000 0.000000
1.000000 0.330000 0.000000
1.000000 0.360000 0.000000
1.000000 0.390000 0.000000
1.000000 0.420000 0.000000
1.000000 0.450000 0.000000
1.000000 0.480000 0.000000
1.000000 0.510000 0.000000
1.000000 0.540000 0.000000
1.000000 0.570000 0.000000
1.000000 0.628571 0.000000
1.000000 0.657143 0.000000
1.000000 0.685714 0.000000
1.000000 0.714286 0.000000
1.000000 0.742857 0.000000
1.000000 0.771429 0.000000
1.000000 0.800000 0.000000
1.000000 0.828571 0.000000
1.000000 0.857143 0.000000
1.000000 0.885714 0.000000
1.000000 0.914286 0.000000
1.000000 0.942857 0.000000
1.000000 0.971429 0.000000
0.970588 1.000000 0.000000
0.941176 1.000000 0.000000
0.911765 1.000000 0.000000
0.882353 1.000000 0.000000
0.852941 1.000000 0.000000
0.823529 1.000000 0.000000
0.794118 1.000000 0.000000
0.764706 1.000000 0.000000
0.735294 1.000000 0.000000
0.705882 1.000000 0.000000
0.676471 1.000000 0.000000
0.647059 1.000000 0.000000
0.617647 1.000000 0.000000
0.588235 1.000000 0.000000
0.558824 1.000000 0.000000
0.529412 1.000000 0.000000
0.500000 1.000000 0.000000
0.470588 1.000000 0.000000
0.441176 1.000000 0.000000
0.411765 1.000000 0.000000
0.382353 1.000000 0.000000
0.352941 1.000000 0.000000
0.323529 1.000000 0.000000
0.294118 1.000000 0.000000
0.264706 1.000000 0.000000
0.235294 1.000000 0.000000
0.205882 1.000000 0.000000
0.176471 1.000000 0.000000
0.147059 1.000000 0.000000
0.117647 1.000000 0.000000
0.088235 1.000000 0.000000
0.058824 1.000000 0.000000
0.029412 1.000000 0.000000
0.000000 0.970000 0.000000
0.000000 0.940000 0.000000
0.000000 0.910000 0.000000
0.000000 0.880000 0.000000
0.000000 0.850000 0.000000
0.000000 0.820000 0.000000
0.000000 0.790000 0.000000
0.000000 0.760000 0.000000
0.000000 0.730000 0.000000
0.000000 0.700000 0.000000
0.000000 0.670000 0.000000
0.000000 0.640000 0.000000
0.000000 0.610000 0.000000
0.000000 0.580000 0.000000
0.000000 0.550000 0.000000
0.000000 0.520000 0.000000
0.000000 0.490000 0.000000
0.000000 0.460000 0.000000
0.000000 0.430000 0.000000
0.000000 0.371429 0.000000
0.000000 0.342857 0.000000
0.000000 0.314286 0.000000
0.000000 0.285714 0.000000
0.000000 0.257143 0.000000
0.000000 0.228571 0.000000
0.000000 0.200000 0.000000
0.000000 0.171429 0.000000
0.000000 0.142857 0.000000
0.000000 0.114286 0.000000
0.000000 0.085714 0.000000
0.000000 0.057143 0.000000
0.000000 0.028571 0.000000
0.029412 0.405882 0.000000
0.058824 0.411765 0.000000
0.088235 0.417647 0.000000
0.117647 0.423529 0.000000
0.147059 0.429412 0.000000
0.176471 0.435294 0.000000
0.205882 0.441176 0.000000
0.235294 0.447059 0.000000
0.264706 0.452941 0.000000
0.294118 0.458824 0.000000
0.323529 0.464706 0.000000
0.352941 0.470588 0.000000
0.382353 0.476471 0.000000
0.411765 0.482353 0.000000
0.441176 0.488235 0.000000
0.470588 0.494118 0.000000
0.500000 0.500000 0.000000
0.529412 0.505882 0.000000
0.558824 0.511765 0.000000
0.588235 0.517647 0.000000
0.617647 0.523529 0.000000
0.647059 0.529412 0.000000
0.676471 0.535294 0.000000
0.705882 0.541176 0.000000
0.735294 0.547059 0.000000
0.764706 0.552941 0.000000
0.794118 0.558824 0.000000
0.823529 0.564706 0.000000
0.852941 0.570588 0.000000
0.882353 0.576471 0.000000
0.911765 0.582353 0.000000
0.941176 0.588235 0.000000
0.970588 0.594118 0.000000
0.948492 0.617586 0.000000
0.918239 0.609871 0.000000
0.126115 0.454845 0.000000
0.100318 0.465379 0.000000
0.103006 0.442114 0.000000
0.117916 0.480680 0.000000
0.029145 0.895585 0.000000
0.046774 0.918032 0.000000
0.024990 0.926329 0.000000
0.056315 0.899171 0.000000
0.977770 0.695981 0.000000
0.963577 0.714729 0.000000
0.973827 0.736127 0.000000
0.605253 0.549394 0.000000
0.579370 0.549801 0.000000
0.570019 0.533816 0.000000
0.896809 0.971959 0.000000
0.919426 0.957680 0.000000
0.927686 0.976215 0.000000
0.899487 0.944624 0.000000
0.974081 0.924646 0.000000
0.977161 0.898750 0.000000
0.076578 0.973587 0.000000
0.102577 0.974440 0.000000
0.861693 0.698664 0.000000
0.848870 0.723174 0.000000
0.839521 0.701504 0.000000
0.820447 0.720618 0.000000
0.872237 0.675719 0.000000
0.882611 0.694724 0.000000
0.895344 0.672729 0.000000
0.606326 0.947716 0.000000
0.624868 0.973015 0.000000
0.599776 0.977307 0.000000
0.167986 0.944019 0.000000
0.199183 0.948746 0.000000
0.187884 0.972901 0.000000
0.787752 0.856005 0.000000
0.754801 0.854462 0.000000
0.778588 0.832828 0.000000
0.191471 0.922393 0.000000
0.801312 0.812216 0.000000
0.829867 0.817276 0.000000
0.805526 0.837896 0.000000
0.812775 0.791772 0.000000
0.822869 0.769821 0.000000
0.833826 0.791773 0.000000
0.849982 0.772760 0.000000
0.791421 0.791198 0.000000
0.772962 0.808877 0.000000
0.180049 0.621172 0.000000
0.160680 0.621098 0.000000
0.172158 0.598185 0.000000
0.588124 0.962489 0.000000
0.142171 0.602810 0.000000
0.827587 0.748015 0.000000
0.859778 0.745080 0.000000
0.882413 0.743965 0.000000
0.872759 0.762938 0.000000
0.894601 0.765041 0.000000
0.910115 0.745588 0.000000
0.901004 0.726420 0.000000
0.877058 0.719626 0.000000
0.632694 0.945006 0.000000
0.818411 0.883232 0.000000
0.787667 0.883633 0.000000
0.812018 0.862064 0.000000
0.808649 0.907835 0.000000
0.066636 0.534974 0.000000
0.083909 0.552665 0.000000
0.058224 0.565435 0.000000
0.037551 0.542621 0.000000
0.025720 0.565794 0.000000
0.304619 0.971425 0.000000
0.276072 0.975195 0.000000
0.284125 0.946285 0.000000
0.795087 0.737757 0.000000
0.797357 0.768346 0.000000
0.869843 0.656802 0.000000
0.840870 0.648068 0.000000
0.865462 0.630915 0.000000
0.043233 0.441011 0.000000
0.028792 0.469222 0.000000
0.020751 0.443790 0.000000
0.846918 0.676414 0.000000
0.058991 0.463368 0.000000
0.051906 0.966804 0.000000
0.071758 0.947609 0.000000
0.048298 0.939447 0.000000
0.026398 0.956010 0.000000
0.967109 0.949068 0.000000
0.946807 0.928411 0.000000
0.940173 0.953295 0.000000
0.956764 0.974357 0.000000
0.076722 0.471546 0.000000
0.082324 0.449317 0.000000
0.066669 0.435847 0.000000
0.114035 0.946088 0.000000
0.091278 0.952186 0.000000
0.128453 0.974235 0.000000
0.027019 0.501643 0.000000
0.047138 0.487417 0.000000
0.943388 0.639892 0.000000
0.923239 0.630552 0.000000
0.974491 0.618278 0.000000
0.972785 0.673666 0.000000
0.943930 0.664809 0.000000
0.968693 0.642530 0.000000
0.780685 0.976970 0.000000
0.756289 0.951349 0.000000
0.776857 0.951460 0.000000
0.935276 0.890540 0.000000
0.927168 0.867561 0.000000
0.954227 0.882176 0.000000
0.745760 0.974977 0.000000
0.952002 0.907568 0.000000
0.068063 0.489215 0.000000
0.051512 0.513895 0.000000
0.027757 0.982136 0.000000
0.023217 0.525632 0.000000
0.982410 0.972952 0.000000
0.951072 0.692907 0.000000
0.957020 0.857438 0.000000
0.937630 0.840379 0.000000
0.966912 0.834149 0.000000
0.923427 0.933924 0.000000
0.982257 0.848323 0.000000
0.092881 0.488189 0.000000
0.976737 0.871201 0.000000
0.067960 0.921895 0.000000
0.886538 0.603532 0.000000
0.918896 0.656866 0.000000
0.898227 0.636966 0.000000
0.092880 0.930380 0.000000
0.929071 0.911440 0.000000
0.081137 0.510877 0.000000
0.592772 0.576158 0.000000
0.150419 0.835159 0.000000
0.138607 0.859733 0.000000
0.125762 0.835294 0.000000
0.155304 0.458505 0.000000
0.139466 0.476317 0.000000
0.134858 0.496115 0.000000
0.109061 0.504849 0.000000
0.112238 0.859343 0.000000
0.866826 0.974780 0.000000
0.026919 0.865848 0.000000
0.348411 0.871602 0.000000
0.339654 0.840899 0.000000
0.369544 0.848927 0.000000
0.925986 0.818235 0.000000
0.909684 0.842117 0.000000
0.929360 0.717495 0.000000
0.924028 0.685311 0.000000
0.879688 0.955544 0.000000
0.875200 0.929284 0.000000
0.903901 0.918287 0.000000
0.950764 0.819790 0.000000
0.047492 0.878635 0.000000
0.069665 0.880314 0.000000
0.081712 0.904992 0.000000
0.573454 0.980624 0.000000
0.556694 0.550113 0.000000
0.094318 0.530060 0.000000
0.563246 0.571677 0.000000
0.563825 0.961795 0.000000
0.155902 0.972929 0.000000
0.577162 0.940912 0.000000
0.545227 0.533787 0.000000
0.864670 0.884377 0.000000
0.860690 0.911575 0.000000
0.840756 0.895862 0.000000
0.137227 0.926016 0.000000
0.139814 0.950758 0.000000
0.109156 0.913646 0.000000
0.884976 0.899786 0.000000
0.910807 0.890052 0.000000
0.830819 0.844574 0.000000
0.157710 0.484545 0.000000
0.180718 0.468069 0.000000
0.154331 0.510861 0.000000
0.124262 0.522394 0.000000
0.341085 0.732964 0.000000
0.323736 0.758404 0.000000
0.312899 0.730066 0.000000
0.857321 0.949854 0.000000
0.839840 0.975483 0.000000
0.053549 0.857833 0.000000
0.031143 0.832960 0.000000
0.840338 0.925315 0.000000
0.300796 0.756054 0.000000
0.080783 0.856286 0.000000
0.096939 0.884378 0.000000
0.544800 0.977874 0.000000
0.949430 0.731579 0.000000
0.955247 0.752582 0.000000
0.934712 0.748859 0.000000
0.030153 0.591093 0.000000
[...]
POINT_DATA 1445
SCALARS UX float 1
LOOKUP_TABLE default
-0.390428
-0.000000
0.000000
-0.390428
-0.390428
0.000000
-0.378945
-0.367461
-0.355978
-0.344495
-0.333012
-0.321529
-0.310046
-0.298562
-0.287079
-0.275596
-0.264113
-0.252630
-0.241147
-0.229663
-0.218180
-0.206697
-0.195214
-0.183731
-0.172248
-0.160764
-0.149281
-0.137798
-0.126315
-0.114832
-0.103349
-0.091865
-0.080382
-0.068899
-0.057416
-0.045933
-0.034450
-0.022966
-0.011483
-0.000000
-0.000000
-0.000000
-0.000000
-0.000000
-0.000000
-0.000000
-0.000000
-0.000000
-0.000000
-0.000000
-0.000000
-0.000000
-0.000000
-0.000000
-0.000000
-0.000000
0.000000
0.000000
-0.000000
-0.000000
0.000000
-0.000000
-0.000000
-0.000000
-0.000000
0.000000
-0.000000
0.000000
-0.000000
0.000000
-0.000000
-0.011483
-0.022966
-0.034450
-0.045933
-0.057416
-0.068899
-0.080382
-0.091865
-0.103349
-0.114832
-0.126315
-0.137798
-0.149281
-0.160764
-0.172248
-0.183731
-0.195214
-0.206697
-0.218180
-0.229663
-0.241147
-0.252630
-0.264113
-0.275596
-0.287079
-0.298562
-0.310046
-0.321529
-0.333012
-0.344495
-0.355978
-0.367461
-0.378945
-0.390428
-0.390428
-0.390428
-0.390428
-0.390428
-0.390428
-0.390428
-0.390428
-0.390428
-0.390428
-0.390428
-0.390428
-0.390428
-0.390428
-0.390428
-0.390428
-0.390428
-0.390428
-0.390428
-0.390428
-0.390428
-0.390428
-0.390428
-0.390428
-0.390428
-0.390428
-0.390428
-0.390428
-0.390428
-0.390428
-0.390428
-0.390428
-0.378945
-0.367461
-0.355978
-0.344495
-0.333012
-0.321529
-0.310046
-0.298562
-0.287079
-0.275596
-0.264113
-0.252630
-0.241147
-0.229663
-0.218180
-0.206697
-0.195214
-0.183731
-0.172248
-0.160764
-0.149281
-0.137798
-0.126315
-0.114832
-0.103349
-0.091865
-0.080382
-0.068899
-0.057416
-0.045933
-0.034450
-0.022966
-0.011483
-0.020110
-0.031922
-0.341189
-0.351261
-0.350211
-0.344390
-0.379049
-0.372166
-0.380671
-0.368441
-0.008679
-0.014221
-0.010219
-0.154120
-0.164226
-0.167877
-0.040289
-0.031458
-0.028234
-0.039243
-0.010120
-0.008917
-0.360530
-0.350379
-0.053999
-0.059005
-0.062655
-0.070103
-0.049882
-0.045832
-0.040860
-0.153701
-0.146462
-0.156259
-0.324842
-0.312661
-0.317073
-0.082868
-0.095733
-0.086445
-0.315672
-0.077573
-0.066425
-0.075928
-0.073098
-0.069157
-0.064879
-0.058571
-0.081435
-0.088642
-0.320132
-0.327694
-0.323213
-0.160808
-0.334920
-0.067315
-0.054747
-0.045909
-0.049678
-0.041151
-0.035094
-0.038651
-0.048000
-0.143406
-0.070897
-0.082901
-0.073393
-0.074709
-0.364411
-0.357667
-0.367696
-0.375767
-0.380386
-0.271496
-0.282642
-0.279498
-0.080004
-0.079118
-0.050817
-0.062129
-0.052527
-0.373548
-0.379186
-0.382326
-0.059767
-0.367396
-0.370162
-0.362411
-0.371571
-0.380121
-0.012842
-0.020768
-0.023358
-0.016880
-0.360473
-0.358286
-0.364399
-0.345905
-0.354790
-0.340276
-0.379879
-0.372024
-0.022103
-0.029970
-0.009959
-0.010626
-0.021891
-0.012223
-0.085627
-0.095151
-0.087121
-0.025270
-0.028435
-0.017871
-0.099263
-0.018740
-0.363854
-0.370316
-0.379591
-0.381363
-0.006868
-0.019103
-0.016780
-0.024351
-0.012918
-0.029896
-0.006927
-0.354165
-0.009083
-0.363894
-0.044299
-0.031665
-0.039735
-0.354165
-0.027693
-0.358750
-0.158993
-0.331700
-0.336312
-0.341327
-0.329793
-0.335976
-0.337776
-0.347847
-0.346607
-0.051995
-0.379918
-0.254398
-0.257817
-0.246147
-0.028897
-0.035262
-0.027580
-0.029662
-0.046973
-0.048725
-0.037520
-0.019223
-0.371886
-0.363228
-0.358525
-0.166535
-0.173079
-0.353603
-0.170521
-0.170295
-0.329559
-0.165088
-0.177556
-0.052837
-0.054391
-0.062173
-0.336850
-0.335840
-0.347810
-0.044909
-0.034823
-0.066053
-0.328853
-0.319870
-0.330173
-0.341913
-0.257259
-0.264032
-0.268263
-0.055706
-0.062531
-0.369521
-0.378269
-0.062337
-0.272989
-0.358888
-0.352580
-0.177723
-0.019744
-0.017473
-0.025490
-0.378655
-0.354780
-0.347496
-0.031781
-0.204964
-0.203958
-0.216276
-0.213104
-0.327880
-0.338825
-0.082405
-0.090807
-0.318910
-0.306932
-0.319909
-0.334580
-0.010228
-0.021103
-0.010281
-0.364936
-0.381635
-0.352397
-0.041700
-0.286119
-0.294060
-0.288477
-0.366267
-0.376728
-0.297558
-0.341443
-0.347214
-0.275748
-0.284659
-0.274579
-0.252980
-0.260298
-0.263375
-0.251391
-0.303404
-0.272923
-0.265983
-0.317597
-0.268048
-0.272336
-0.278135
-0.284844
-0.308108
-0.259533
-0.253566
-0.345790
-0.343424
-0.354947
-0.313382
-0.326297
-0.297195
-0.277995
-0.272677
-0.262689
-0.283168
-0.289141
-0.363031
-0.294868
-0.380116
-0.045398
-0.052133
-0.055793
-0.278557
-0.268118
-0.261266
-0.290915
-0.281388
-0.295944
-0.283865
-0.272034
-0.296220
-0.030810
-0.287039
-0.039177
-0.288111
-0.296302
-0.287647
-0.295681
-0.284643
-0.302156
-0.286011
-0.295129
-0.302369
-0.266535
-0.265036
-0.277825
-0.255798
-0.256553
-0.379043
-0.371167
-0.367665
-0.361786
-0.318148
-0.306892
-0.308552
-0.273983
-0.288433
-0.283662
-0.315273
-0.311378
-0.293520
-0.304377
-0.342074
-0.351245
-0.353816
-0.355495
-0.329979
-0.329479
-0.319125
-0.329750
-0.336408
-0.336584
-0.291414
-0.302316
-0.296783
-0.293208
-0.318239
-0.324376
-0.327986
-0.373489
-0.268698
-0.256904
-0.260697
-0.305916
-0.293706
-0.300091
-0.370427
-0.343434
-0.352012
-0.344929
-0.356695
-0.295885
-0.249258
-0.092138
-0.090677
-0.102789
-0.360927
-0.363850
-0.100288
-0.009874
-0.313261
-0.319989
-0.307201
-0.021270
-0.324946
-0.245378
-0.249623
-0.353025
-0.370974
-0.074560
-0.086111
-0.077025
-0.083459
-0.316630
-0.262362
-0.313581
-0.104879
-0.092833
-0.101695
-0.236315
-0.232411
-0.380523
-0.241721
-0.135536
-0.132998
-0.146957
-0.144500
-0.307112
-0.061713
-0.355245
-0.302201
-0.328276
-0.047901
-0.077957
-0.308146
-0.267993
-0.269061
-0.260194
-0.054966
-0.157135
-0.167945
-0.165394
-0.154747
-0.096809
-0.090553
-0.103623
-0.096054
-0.176926
-0.378807
-0.178593
-0.250750
-0.239157
-0.335148
-0.110893
-0.108690
-0.324792
-0.256034
-0.097929
-0.124649
-0.122008
-0.228963
-0.235877
-0.223834
-0.308344
-0.056194
-0.173659
-0.180699
-0.172389
-0.176600
-0.184203
-0.152969
-0.163745
-0.155825
-0.161119
-0.165027
-0.142902
-0.144668
-0.149557
-0.277788
-0.286781
-0.113382
-0.120988
-0.120493
-0.113425
-0.106235
-0.089250
-0.131373
-0.133208
-0.138012
-0.126778
-0.042633
-0.038431
-0.064155
-0.071974
-0.239608
-0.252389
-0.242819
-0.248630
-0.248382
-0.243739
-0.089661
-0.099153
-0.088061
-0.101435
-0.110695
-0.108847
-0.233549
-0.236335
-0.107496
-0.110345
-0.104246
-0.097284
-0.108468
-0.113315
-0.120188
-0.089576
-0.066924
-0.223537
-0.219975
-0.229232
-0.222340
-0.210622
-0.215883
-0.099401
-0.111147
-0.263576
-0.116955
-0.114354
-0.226831
-0.281734
-0.273119
-0.244707
-0.227164
-0.235167
-0.071275
-0.227529
-0.230640
-0.236277
-0.122526
-0.119875
-0.221539
-0.224210
-0.131376
-0.124950
-0.131694
-0.197377
-0.207891
-0.198132
-0.205721
-0.123089
-0.119697
-0.189538
-0.186902
-0.198131
-0.110928
-0.115550
-0.215722
-0.218771
-0.224396
-0.214947
-0.217354
-0.232890
-0.073516
-0.136451
-0.143220
-0.209760
-0.212455
-0.379940
-0.367353
-0.344153
-0.345579
-0.204044
-0.206991
-0.212725
-0.078564
-0.333937
-0.192410
-0.195383
-0.376076
-0.201056
-0.221249
-0.142901
-0.134341
-0.082401
-0.198089
-0.338297
-0.200778
-0.180797
-0.183667
-0.128664
-0.125942
-0.273754
-0.186474
-0.189178
-0.067654
-0.209671
-0.211456
-0.174859
-0.177634
-0.172069
-0.163272
-0.166037
-0.263642
-0.147990
-0.154773
-0.134677
-0.131916
-0.310717
-0.348923
-0.154458
-0.145877
-0.129219
-0.117653
-0.122444
-0.160497
-0.151709
-0.150117
-0.161671
-0.363805
-0.274087
-0.173212
-0.166344
-0.191798
-0.184852
-0.196095
-0.189478
-0.138587
-0.145464
-0.146181
-0.157705
-0.148947
-0.140173
-0.334922
-0.127071
-0.137440
-0.080747
-0.302996
-0.189133
-0.188209
-0.133949
-0.169207
-0.177930
-0.159549
-0.195179
-0.194534
-0.203609
-0.192079
-0.381865
-0.177078
-0.247702
-0.242356
-0.139560
-0.106092
-0.157439
-0.094928
-0.171120
-0.169013
-0.182690
-0.180565
-0.193714
-0.220959
-0.230000
-0.226480
-0.148772
-0.195302
-0.186319
-0.193116
-0.203897
-0.205460
-0.201085
-0.202693
-0.116206
-0.313802
-0.305456
-0.119528
-0.244425
-0.238842
-0.221725
-0.215989
-0.214153
-0.125901
-0.228465
-0.319538
-0.209075
-0.072998
-0.132051
-0.236558
-0.234268
-0.186223
-0.182180
-0.241239
-0.201379
-0.138327
-0.247148
-0.212070
-0.254643
-0.327237
-0.370317
-0.358506
-0.049239
-0.039167
-0.040216
-0.046038
-0.011379
-0.018262
-0.009757
-0.021987
-0.381748
-0.376207
-0.380209
-0.236308
-0.226202
-0.222551
-0.350139
-0.358970
-0.362194
-0.351185
-0.380308
-0.381511
-0.029898
-0.040049
-0.336429
-0.331422
-0.327772
-0.320325
-0.340546
-0.344596
-0.349567
-0.236727
-0.243966
-0.234169
-0.065586
-0.077767
-0.073355
-0.307560
-0.294695
-0.303982
-0.074755
-0.312855
-0.324003
-0.314500
-0.317330
-0.321271
-0.325549
-0.331857
-0.308993
-0.301786
-0.070296
-0.062734
-0.067215
-0.229620
-0.055507
-0.323113
-0.335681
-0.344518
-0.340749
-0.349277
-0.355334
-0.351777
-0.342428
-0.247021
-0.319531
-0.307527
-0.317034
-0.315719
-0.026016
-0.032760
-0.022732
-0.014661
-0.010042
-0.118932
-0.107786
-0.110930
-0.310424
-0.311310
-0.339611
-0.328299
-0.337900
-0.016879
-0.011241
-0.008102
-0.330661
-0.023032
-0.020266
-0.028016
-0.018857
-0.010307
-0.377586
-0.369660
-0.367070
-0.373547
-0.029954
-0.032141
-0.026029
-0.044522
-0.035638
-0.050152
-0.010549
-0.018404
-0.368325
-0.360458
-0.380468
-0.379802
-0.368536
-0.378204
-0.304801
-0.295276
-0.303307
-0.365158
-0.361992
-0.372557
-0.291165
-0.371688
-0.026574
-0.020112
-0.010837
-0.009064
-0.383560
-0.371325
-0.373647
-0.366077
-0.377509
-0.360532
-0.383500
-0.036263
-0.381345
-0.026533
-0.346129
-0.358763
-0.350693
-0.036263
-0.362735
-0.031678
-0.231435
-0.058728
-0.054116
-0.049101
-0.060635
-0.054451
-0.052652
-0.042581
-0.043821
-0.338433
-0.010510
-0.136029
-0.132610
-0.144280
-0.361531
-0.355166
-0.362848
-0.360766
-0.343455
-0.341702
-0.352908
-0.371205
-0.018542
-0.027199
-0.031903
-0.223892
-0.217349
-0.036824
-0.219907
-0.220133
-0.060869
-0.225340
-0.212872
-0.337591
-0.336037
-0.328254
-0.053577
-0.054587
-0.042617
-0.345519
-0.355604
-0.324375
-0.061574
-0.070557
-0.060255
-0.048515
-0.133169
-0.126396
-0.122164
-0.334722
-0.327897
-0.020907
-0.012159
-0.328091
-0.117439
-0.031540
-0.037848
-0.212705
-0.370684
-0.372955
-0.364938
-0.011772
-0.035648
-0.042932
-0.358647
-0.185464
-0.186470
-0.174152
-0.177324
-0.062548
-0.051603
-0.308023
-0.299621
-0.071518
-0.083495
-0.070519
-0.055847
-0.380200
-0.369325
-0.380147
-0.025492
-0.008793
-0.038031
-0.348727
-0.104309
-0.096368
-0.101951
-0.024161
-0.013699
-0.092870
-0.048985
-0.043214
-0.114680
-0.105769
-0.115848
-0.137448
-0.130129
-0.127053
-0.139037
-0.087024
-0.117505
-0.124445
-0.072831
-0.122379
-0.118092
-0.112293
-0.105584
-0.082319
-0.130895
-0.136862
-0.044638
-0.047004
-0.035481
-0.077045
-0.064131
-0.093233
-0.112432
-0.117751
-0.127739
-0.107260
-0.101287
-0.027397
-0.095560
-0.010312
-0.345030
-0.338294
-0.334635
-0.111871
-0.122310
-0.129162
-0.099513
-0.109039
-0.094484
-0.106562
-0.118394
-0.094207
-0.359617
-0.103389
-0.351251
-0.102317
-0.094125
-0.102781
-0.094747
-0.105785
-0.088272
-0.104416
-0.095299
-0.088059
-0.123893
-0.125392
-0.112603
-0.134630
-0.133875
-0.011385
-0.019260
-0.022763
-0.028642
-0.072280
-0.083536
-0.081876
-0.116445
-0.101994
-0.106765
-0.075155
-0.079050
-0.096908
-0.086050
-0.048354
-0.039183
-0.036612
-0.034933
-0.060449
-0.060949
-0.071303
-0.060678
-0.054020
-0.053843
-0.099014
-0.088112
-0.093645
-0.097220
-0.072189
-0.066052
-0.062442
-0.016939
-0.121730
-0.133523
-0.129731
-0.084512
-0.096721
-0.090337
-0.020000
-0.046994
-0.038416
-0.045499
-0.033733
-0.094543
-0.141170
-0.298290
-0.299751
-0.287639
-0.029501
-0.026578
-0.290140
-0.380554
-0.077167
-0.070439
-0.083226
-0.369158
-0.065482
-0.145050
-0.140804
-0.037403
-0.019453
-0.315868
-0.304317
-0.313403
-0.306969
-0.073797
-0.128065
-0.076847
-0.285549
-0.297595
-0.288732
-0.154113
-0.158017
-0.009905
-0.148707
-0.254892
-0.257429
-0.243471
-0.245928
-0.083316
-0.328715
-0.035182
-0.088227
-0.062152
-0.342527
-0.312471
-0.082282
-0.122435
-0.121366
-0.130233
-0.335462
-0.233293
-0.222482
-0.225033
-0.235681
-0.293619
-0.299875
-0.286805
-0.294374
-0.213502
-0.011620
-0.211835
-0.139678
-0.151271
-0.055279
-0.279535
-0.281737
-0.065635
-0.134394
-0.292499
-0.265779
-0.268420
-0.161465
-0.154550
-0.166593
-0.082084
-0.334234
-0.216768
-0.209729
-0.218039
-0.213827
-0.206225
-0.237458
-0.226682
-0.234603
-0.229309
-0.225400
-0.247526
-0.245759
-0.240871
-0.112640
-0.103647
-0.277045
-0.269439
-0.269935
-0.277003
-0.284193
-0.301178
-0.259055
-0.257220
-0.252415
-0.263650
-0.347794
-0.351997
-0.326272
-0.318454
-0.150820
-0.138039
-0.147609
-0.141797
-0.142045
-0.146689
-0.300767
-0.291274
-0.302367
-0.288993
-0.279733
-0.281581
-0.156879
-0.154093
-0.282931
-0.280082
-0.286182
-0.293144
-0.281960
-0.277113
-0.270240
-0.300852
-0.323503
-0.166891
-0.170453
-0.161196
-0.168088
-0.179806
-0.174545
-0.291027
-0.279281
-0.126852
-0.273473
-0.276074
-0.163597
-0.108694
-0.117308
-0.145720
-0.163264
-0.155261
-0.319153
-0.162899
-0.159788
-0.154151
-0.267902
-0.270553
-0.168888
-0.166217
-0.259051
-0.265478
-0.258734
-0.193050
-0.182537
-0.192296
-0.184707
-0.267339
-0.270730
-0.200890
-0.203525
-0.192297
-0.279500
-0.274877
-0.174706
-0.171657
-0.166032
-0.175481
-0.173074
-0.157538
-0.316912
-0.253977
-0.247207
-0.180668
-0.177972
-0.010488
-0.023075
-0.046275
-0.044849
-0.186384
-0.183437
-0.177703
-0.311864
-0.056491
-0.198018
-0.195045
-0.014352
-0.189372
-0.169179
-0.247527
-0.256087
-0.308027
-0.192339
-0.052131
-0.189650
-0.209631
-0.206761
-0.261764
-0.264486
-0.116674
-0.203954
-0.201250
-0.322774
-0.180757
-0.178972
-0.215569
-0.212794
-0.218359
-0.227156
-0.224391
-0.126785
-0.242438
-0.235655
-0.255751
-0.258512
-0.079711
-0.041505
-0.235970
-0.244551
-0.261208
-0.272775
-0.267983
-0.229931
-0.238719
-0.240311
-0.228757
-0.026623
-0.116341
-0.217216
-0.224083
-0.198630
-0.205575
-0.194333
-0.200950
-0.251840
-0.244964
-0.244247
-0.232723
-0.241480
-0.250255
-0.055506
-0.263357
-0.252988
-0.309680
-0.087432
-0.201294
-0.202219
-0.256479
-0.221221
-0.212497
-0.230878
-0.195249
-0.195893
-0.186819
-0.198349
-0.008563
-0.213349
-0.142726
-0.148071
-0.250868
-0.284336
-0.232989
-0.295500
-0.219308
-0.221415
-0.207737
-0.209863
-0.196713
-0.169469
-0.160427
-0.163948
-0.241655
-0.195126
-0.204109
-0.197312
-0.186530
-0.184968
-0.189343
-0.187735
-0.274222
-0.076626
-0.084971
-0.270900
-0.146002
-0.151586
-0.168703
-0.174439
-0.176275
-0.264526
-0.161963
-0.070889
-0.181353
-0.317430
-0.258376
-0.153870
-0.156160
-0.204204
-0.208248
-0.149189
-0.189049
-0.252101
-0.143280
-0.178357
-0.135785
-0.063191
SCALARS UY float 1
LOOKUP_TABLE default
-0.000001
-0.000001
-0.910999
-0.910999
-0.364400
-0.546600
-0.000001
-0.000001
-0.000001
-0.000001
-0.000001
-0.000001
-0.000001
-0.000001
-0.000001
-0.000001
-0.000001
-0.000001
-0.000001
-0.000001
-0.000001
-0.000001
-0.000001
-0.000001
-0.000001
-0.000001
-0.000001
-0.000001
-0.000001
-0.000001
-0.000001
-0.000001
-0.000001
-0.000001
-0.000001
-0.000001
-0.000001
-0.000001
-0.000001
-0.027331
-0.054661
-0.081991
-0.109321
-0.136651
-0.163981
-0.191311
-0.218640
-0.245970
-0.273300
-0.300630
-0.327960
-0.355290
-0.382620
-0.409950
-0.437280
-0.464610
-0.491940
-0.519270
-0.572628
-0.598657
-0.624685
-0.650714
-0.676742
-0.702771
-0.728799
-0.754828
-0.780856
-0.806885
-0.832914
-0.858942
-0.884971
-0.910999
-0.910999
-0.910999
-0.910999
-0.910999
-0.910999
-0.910999
-0.910999
-0.910999
-0.910999
-0.910999
-0.910999
-0.910999
-0.910999
-0.910999
-0.910999
-0.910999
-0.910999
-0.910999
-0.910999
-0.910999
-0.910999
-0.910999
-0.910999
-0.910999
-0.910999
-0.910999
-0.910999
-0.910999
-0.910999
-0.910999
-0.910999
-0.910999
-0.883669
-0.856339
-0.829009
-0.801679
-0.774349
-0.747019
-0.719689
-0.692360
-0.665030
-0.637700
-0.610370
-0.583040
-0.555710
-0.528380
-0.501050
-0.473720
-0.446390
-0.419060
-0.391730
-0.338372
-0.312343
-0.286315
-0.260286
-0.234258
-0.208229
-0.182201
-0.156172
-0.130144
-0.104115
-0.078086
-0.052058
-0.026029
-0.369759
-0.375118
-0.380477
-0.385835
-0.391194
-0.396553
-0.401912
-0.407271
-0.412629
-0.417988
-0.423347
-0.428706
-0.434065
-0.439424
-0.444782
-0.450141
-0.455500
-0.460859
-0.466218
-0.471576
-0.476935
-0.482294
-0.487653
-0.493012
-0.498371
-0.503729
-0.509088
-0.514447
-0.519806
-0.525165
-0.530523
-0.535882
-0.541241
-0.562621
-0.555592
-0.414364
-0.423960
-0.402766
-0.437900
-0.815877
-0.836326
-0.843885
-0.819144
-0.634038
-0.651118
-0.670611
-0.500498
-0.500868
-0.486306
-0.885454
-0.872446
-0.889331
-0.860551
-0.842351
-0.818760
-0.886937
-0.887714
-0.636482
-0.658811
-0.639070
-0.656483
-0.615580
-0.632894
-0.612856
-0.863369
-0.886416
-0.890326
-0.860001
-0.864307
-0.886312
-0.779820
-0.778415
-0.758705
-0.840300
-0.739928
-0.744538
-0.763322
-0.721303
-0.701306
-0.721304
-0.703983
-0.720781
-0.736886
-0.565887
-0.565820
-0.544947
-0.876827
-0.549160
-0.681441
-0.678767
-0.677752
-0.695036
-0.696952
-0.679230
-0.661768
-0.655579
-0.860900
-0.804623
-0.804989
-0.785340
-0.827037
-0.487361
-0.503478
-0.515111
-0.494328
-0.515438
-0.884967
-0.888402
-0.862065
-0.672096
-0.699963
-0.598346
-0.590390
-0.574763
-0.401761
-0.427461
-0.404293
-0.616213
-0.422128
-0.880757
-0.863271
-0.855835
-0.870924
-0.864600
-0.845781
-0.868451
-0.887638
-0.429578
-0.409328
-0.397057
-0.861885
-0.867440
-0.887527
-0.456996
-0.444037
-0.582942
-0.574432
-0.563251
-0.613710
-0.605641
-0.585344
-0.890019
-0.866678
-0.866780
-0.811281
-0.790348
-0.803662
-0.888203
-0.826793
-0.445675
-0.468158
-0.894725
-0.478851
-0.886358
-0.631238
-0.781125
-0.765584
-0.759909
-0.850804
-0.772822
-0.444741
-0.793663
-0.839846
-0.549817
-0.598404
-0.580275
-0.847575
-0.830321
-0.465409
-0.524879
-0.760829
-0.783216
-0.760952
-0.417698
-0.433925
-0.451961
-0.459917
-0.782861
-0.888024
-0.788787
-0.794029
-0.766058
-0.773372
-0.745412
-0.767168
-0.653637
-0.624318
-0.870500
-0.846577
-0.836559
-0.746828
-0.800436
-0.801965
-0.824447
-0.893347
-0.501153
-0.482885
-0.520798
-0.876194
-0.886337
-0.857170
-0.486280
-0.805667
-0.830444
-0.816130
-0.843600
-0.866140
-0.832331
-0.819704
-0.810837
-0.769406
-0.441420
-0.426411
-0.465394
-0.475901
-0.667730
-0.690906
-0.665090
-0.865316
-0.888664
-0.781486
-0.758826
-0.842961
-0.688765
-0.780076
-0.805668
-0.890843
-0.666468
-0.685601
-0.682210
-0.538486
-0.528060
-0.500805
-0.703063
-0.475905
-0.501304
-0.495736
-0.469695
-0.830425
-0.810816
-0.845113
-0.848654
-0.452653
-0.433368
-0.484596
-0.494445
-0.738267
-0.727176
-0.717156
-0.758824
-0.735311
-0.756886
-0.791188
-0.503411
-0.499288
-0.484064
-0.546978
-0.569298
-0.479184
-0.521899
-0.548536
-0.506714
-0.527454
-0.535011
-0.566753
-0.585350
-0.563348
-0.596395
-0.883615
-0.560955
-0.542003
-0.810278
-0.713576
-0.739844
-0.711521
-0.736675
-0.464840
-0.710722
-0.691204
-0.641575
-0.667746
-0.658909
-0.508106
-0.518668
-0.451284
-0.663104
-0.644927
-0.641467
-0.684435
-0.659155
-0.576280
-0.683022
-0.598320
-0.769906
-0.786655
-0.762304
-0.763136
-0.764212
-0.739700
-0.553858
-0.550600
-0.525776
-0.575724
-0.588501
-0.579973
-0.723331
-0.461731
-0.716692
-0.706185
-0.748873
-0.761681
-0.775075
-0.785145
-0.608277
-0.607759
-0.632416
-0.657499
-0.488481
-0.516680
-0.477169
-0.502964
-0.474151
-0.626519
-0.611045
-0.630688
-0.606742
-0.659129
-0.684272
-0.633717
-0.836272
-0.843760
-0.813438
-0.609380
-0.580697
-0.800139
-0.798892
-0.691048
-0.705016
-0.684313
-0.635552
-0.679612
-0.705626
-0.694176
-0.726252
-0.715968
-0.737447
-0.870275
-0.851307
-0.822527
-0.893183
-0.635603
-0.613944
-0.631874
-0.650630
-0.861335
-0.880945
-0.845024
-0.731896
-0.725460
-0.706925
-0.736052
-0.566256
-0.571387
-0.587776
-0.554451
-0.427642
-0.745997
-0.689011
-0.713801
-0.706324
-0.737725
-0.708950
-0.730278
-0.693024
-0.781634
-0.757608
-0.759918
-0.705259
-0.784387
-0.671684
-0.646030
-0.727911
-0.590808
-0.582849
-0.574618
-0.558906
-0.598970
-0.527527
-0.609077
-0.549732
-0.795988
-0.800499
-0.817855
-0.650694
-0.676066
-0.384510
-0.697943
-0.507797
-0.534273
-0.529529
-0.499198
-0.525882
-0.789878
-0.591265
-0.504004
-0.806668
-0.714735
-0.869872
-0.487956
-0.461976