# vtk DataFile Version 2.0
Test
ASCII
DATASET POLYDATA
POINTS 1445 float
0.000000 0.000000 0.000000
1.000000 0.000000 0.000000
1.000000 1.000000 0.000000
0.000000 1.000000 0.000000
0.000000 0.400000 0.000000
1.000000 0.600000 0.000000
0.029412 0.000000 0.000000
0.058824 0.000000 0.000000
0.088235 0.000000 0.000000
0.117647 0.000000 0.000000
0.147059 0.000000 0.000000
0.176471 0.000000 0.000000
0.205882 0.000000 0.000000
0.235294 0.000000 0.000000
0.264706 0.000000 0.000000
0.294118 0.000000 0.000000
0.323529 0.000000 0.000000
0.352941 0.000000 0.000000
0.382353 0.000000 0.000000
0.411765 0.000000 0.000000
0.441176 0.000000 0.000000
0.470588 0.000000 0.000000
0.500000 0.000000 0.000000
0.529412 0.000000 0.000000
0.558824 0.000000 0.000000
0.588235 0.000000 0.000000
0.617647 0.000000 0.000000
0.647059 0.000000 0.000000
0.676471 0.000000 0.000000
0.705882 0.000000 0.000000
0.735294 0.000000 0.000000
0.764706 0.000000 0.000000
0.794118 0.000000 0.000000
0.823529 0.000000 0.000000
0.852941 0.000000 0.000000
0.882353 0.000000 0.000000
0.911765 0.000000 0.000000
0.941176 0.000000 0.000000
0.970588 0.000000 0.000000
1.000000 0.030000 0.000000
1.000000 0.060000 0.000000
1.000000 0.090000 0.000000
1.000000 0.120000 0.000000
1.000000 0.150000 0.000000
1.000000 0.180000 0.000000
1.000000 0.210000 0.000000
1.000000 0.240000 0.000000
1.000000 0.270000 0.000000
1.000000 0.300000 0.000000
1.000000 0.330000 0.000000
1.000000 0.360000 0.000000
1.000000 0.390000 0.000000
1.000000 0.420000 0.000000
1.000000 0.450000 0.000000
1.000000 0.480000 0.000000
1.000000 0.510000 0.000000
1.000000 0.540000 0.000000
1.000000 0.570000 0.000000
1.000000 0.628571 0.000000
1.000000 0.657143 0.000000
1.000000 0.685714 0.000000
1.000000 0.714286 0.000000
1.000000 0.742857 0.000000
1.000000 0.771429 0.000000
1.000000 0.800000 0.000000
1.000000 0.828571 0.000000
1.000000 0.857143 0.000000
1.000000 0.885714 0.000000
1.000000 0.914286 0.000000
1.000000 0.942857 0.000000
1.000000 0.971429 0.000000
0.970588 1.000000 0.000000
0.941176 1.000000 0.000000
0.911765 1.000000 0.000000
0.882353 1.000000 0.000000
0.852941 1.000000 0.000000
0.823529 1.000000 0.000000
0.794118 1.000000 0.000000
0.764706 1.000000 0.000000
0.735294 1.000000 0.000000
0.705882 1.000000 0.000000
0.676471 1.000000 0.000000
0.647059 1.000000 0.000000
0.617647 1.000000 0.000000
0.588235 1.000000 0.000000
0.558824 1.000000 0.000000
0.529412 1.000000 0.000000
0.500000 1.000000 0.000000
0.470588 1.000000 0.000000
0.441176 1.000000 0.000000
0.411765 1.000000 0.000000
0.382353 1.000000 0.000000
0.352941 1.000000 0.000000
0.323529 1.000000 0.000000
0.294118 1.000000 0.000000
0.264706 1.000000 0.000000
0.235294 1.000000 0.000000
0.205882 1.000000 0.000000
0.176471 1.000000 0.000000
0.147059 1.000000 0.000000
0.117647 1.000000 0.000000
0.088235 1.000000 0.000000
0.058824 1.000000 0.000000
0.029412 1.000000 0.000000
0.000000 0.970000 0.000000
0.000000 0.940000 0.000000
0.000000 0.910000 0.000000
0.000000 0.880000 0.000000
0.000000 0.850000 0.000000
0.000000 0.820000 0.000000
0.000000 0.790000 0.000000
0.000000 0.760000 0.000000
0.000000 0.730000 0.000000
0.000000 0.700000 0.000000
0.000000 0.670000 0.000000
0.000000 0.640000 0.000000
0.000000 0.610000 0.000000
0.000000 0.580000 0.000000
0.000000 0.550000 0.000000
0.000000 0.520000 0.000000
0.000000 0.490000 0.000000
0.000000 0.460000 0.000000
0.000000 0.430000 0.000000
0.000000 0.371429 0.000000
0.000000 0.342857 0.000000
0.000000 0.314286 0.000000
0.000000 0.285714 0.000000
0.000000 0.257143 0.000000
0.000000 0.228571 0.000000
0.000000 0.200000 0.000000
0.000000 0.171429 0.000000
0.000000 0.142857 0.000000
0.000000 0.114286 0.000000
0.000000 0.085714 0.000000
0.000000 0.057143 0.000000
0.000000 0.028571 0.000000
0.029412 0.405882 0.000000
0.058824 0.411765 0.000000
0.088235 0.417647 0.000000
0.117647 0.423529 0.000000
0.147059 0.429412 0.000000
0.176471 0.435294 0.000000
0.205882 0.441176 0.000000
0.235294 0.447059 0.000000
0.264706 0.452941 0.000000
0.294118 0.458824 0.000000
0.323529 0.464706 0.000000
0.352941 0.470588 0.000000
0.382353 0.476471 0.000000
0.411765 0.482353 0.000000
0.441176 0.488235 0.000000
0.470588 0.494118 0.000000
0.500000 0.500000 0.000000
0.529412 0.505882 0.000000
0.558824 0.511765 0.000000
0.588235 0.517647 0.000000
0.617647 0.523529 0.000000
0.647059 0.529412 0.000000
0.676471 0.535294 0.000000
0.705882 0.541176 0.000000
0.735294 0.547059 0.000000
0.764706 0.552941 0.000000
0.794118 0.558824 0.000000
0.823529 0.564706 0.000000
0.852941 0.570588 0.000000
0.882353 0.576471 0.000000
0.911765 0.582353 0.000000
0.941176 0.588235 0.000000
0.970588 0.594118 0.000000
0.948492 0.617586 0.000000
0.918239 0.609871 0.000000
0.126115 0.454845 0.000000
0.100318 0.465379 0.000000
0.103006 0.442114 0.000000
0.117916 0.480680 0.000000
0.029145 0.895585 0.000000
0.046774 0.918032 0.000000
0.024990 0.926329 0.000000
0.056315 0.899171 0.000000
0.977770 0.695981 0.000000
0.963577 0.714729 0.000000
0.973827 0.736127 0.000000
0.605253 0.549394 0.000000
0.579370 0.549801 0.000000
0.570019 0.533816 0.000000
0.896809 0.971959 0.000000
0.919426 0.957680 0.000000
0.927686 0.976215 0.000000
0.899487 0.944624 0.000000
0.974081 0.924646 0.000000
0.977161 0.898750 0.000000
0.076578 0.973587 0.000000
0.102577 0.974440 0.000000
0.861693 0.698664 0.000000
0.848870 0.723174 0.000000
0.839521 0.701504 0.000000
0.820447 0.720618 0.000000
0.872237 0.675719 0.000000
0.882611 0.694724 0.000000
0.895344 0.672729 0.000000
0.606326 0.947716 0.000000
0.624868 0.973015 0.000000
0.599776 0.977307 0.000000
0.167986 0.944019 0.000000
0.199183 0.948746 0.000000
0.187884 0.972901 0.000000
0.787752 0.856005 0.000000
0.754801 0.854462 0.000000
0.778588 0.832828 0.000000
0.191471 0.922393 0.000000
0.801312 0.812216 0.000000
0.829867 0.817276 0.000000
0.805526 0.837896 0.000000
0.812775 0.791772 0.000000
0.822869 0.769821 0.000000
0.833826 0.791773 0.000000
0.849982 0.772760 0.000000
0.791421 0.791198 0.000000
0.772962 0.808877 0.000000
0.180049 0.621172 0.000000
0.160680 0.621098 0.000000
0.172158 0.598185 0.000000
0.588124 0.962489 0.000000
0.142171 0.602810 0.000000
0.827587 0.748015 0.000000
0.859778 0.745080 0.000000
0.882413 0.743965 0.000000
0.872759 0.762938 0.000000
0.894601 0.765041 0.000000
0.910115 0.745588 0.000000
0.901004 0.726420 0.000000
0.877058 0.719626 0.000000
0.632694 0.945006 0.000000
0.818411 0.883232 0.000000
0.787667 0.883633 0.000000
0.812018 0.862064 0.000000
0.808649 0.907835 0.000000
0.066636 0.534974 0.000000
0.083909 0.552665 0.000000
0.058224 0.565435 0.000000
0.037551 0.542621 0.000000
0.025720 0.565794 0.000000
0.304619 0.971425 0.000000
0.276072 0.975195 0.000000
0.284125 0.946285 0.000000
0.795087 0.737757 0.000000
0.797357 0.768346 0.000000
0.869843 0.656802 0.000000
0.840870 0.648068 0.000000
0.865462 0.630915 0.000000
0.043233 0.441011 0.000000
0.028792 0.469222 0.000000
0.020751 0.443790 0.000000
0.846918 0.676414 0.000000
0.058991 0.463368 0.000000
0.051906 0.966804 0.000000
0.071758 0.947609 0.000000
0.048298 0.939447 0.000000
0.026398 0.956010 0.000000
0.967109 0.949068 0.000000
0.946807 0.928411 0.000000
0.940173 0.953295 0.000000
0.956764 0.974357 0.000000
0.076722 0.471546 0.000000
0.082324 0.449317 0.000000
0.066669 0.435847 0.000000
0.114035 0.946088 0.000000
0.091278 0.952186 0.000000
0.128453 0.974235 0.000000
0.027019 0.501643 0.000000
0.047138 0.487417 0.000000
0.943388 0.639892 0.000000
0.923239 0.630552 0.000000
0.974491 0.618278 0.000000
0.972785 0.673666 0.000000
0.943930 0.664809 0.000000
0.968693 0.642530 0.000000
0.780685 0.976970 0.000000
0.756289 0.951349 0.000000
0.776857 0.951460 0.000000
0.935276 0.890540 0.000000
0.927168 0.867561 0.000000
0.954227 0.882176 0.000000
0.745760 0.974977 0.000000
0.952002 0.907568 0.000000
0.068063 0.489215 0.000000
0.051512 0.513895 0.000000
0.027757 0.982136 0.000000
0.023217 0.525632 0.000000
0.982410 0.972952 0.000000
0.951072 0.692907 0.000000
0.957020 0.857438 0.000000
0.937630 0.840379 0.000000
0.966912 0.834149 0.000000
0.923427 0.933924 0.000000
0.982257 0.848323 0.000000
0.092881 0.488189 0.000000
0.976737 0.871201 0.000000
0.067960 0.921895 0.000000
0.886538 0.603532 0.000000
0.918896 0.656866 0.000000
0.898227 0.636966 0.000000
0.092880 0.930380 0.000000
0.929071 0.911440 0.000000
0.081137 0.510877 0.000000
0.592772 0.576158 0.000000
0.150419 0.835159 0.000000
0.138607 0.859733 0.000000
0.125762 0.835294 0.000000
0.155304 0.458505 0.000000
0.139466 0.476317 0.000000
0.134858 0.496115 0.000000
0.109061 0.504849 0.000000
0.112238 0.859343 0.000000
0.866826 0.974780 0.000000
0.026919 0.865848 0.000000
0.348411 0.871602 0.000000
0.339654 0.840899 0.000000
0.369544 0.848927 0.000000
0.925986 0.818235 0.000000
0.909684 0.842117 0.000000
0.929360 0.717495 0.000000
0.924028 0.685311 0.000000
0.879688 0.955544 0.000000
0.875200 0.929284 0.000000
0.903901 0.918287 0.000000
0.950764 0.819790 0.000000
0.047492 0.878635 0.000000
0.069665 0.880314 0.000000
0.081712 0.904992 0.000000
0.573454 0.980624 0.000000
0.556694 0.550113 0.000000
0.094318 0.530060 0.000000
0.563246 0.571677 0.000000
0.563825 0.961795 0.000000
0.155902 0.972929 0.000000
0.577162 0.940912 0.000000
0.545227 0.533787 0.000000
0.864670 0.884377 0.000000
0.860690 0.911575 0.000000
0.840756 0.895862 0.000000
0.137227 0.926016 0.000000
0.139814 0.950758 0.000000
0.109156 0.913646 0.000000
0.884976 0.899786 0.000000
0.910807 0.890052 0.000000
0.830819 0.844574 0.000000
0.157710 0.484545 0.000000
0.180718 0.468069 0.000000
0.154331 0.510861 0.000000
0.124262 0.522394 0.000000
0.341085 0.732964 0.000000
0.323736 0.758404 0.000000
0.312899 0.730066 0.000000
0.857321 0.949854 0.000000
0.839840 0.975483 0.000000
0.053549 0.857833 0.000000
0.031143 0.832960 0.000000
0.840338 0.925315 0.000000
0.300796 0.756054 0.000000
0.080783 0.856286 0.000000
0.096939 0.884378 0.000000
0.544800 0.977874 0.000000
0.949430 0.731579 0.000000
0.955247 0.752582 0.000000
0.934712 0.748859 0.000000
0.030153 0.591093 0.000000
[...]
POINT_DATA 1445
SCALARS UX float 1
LOOKUP_TABLE default
-0.120428
-0.000000
0.000000
-0.120428
-0.120428
0.000000
-0.116886
-0.113344
-0.109802
-0.106260
-0.102718
-0.099176
-0.095634
-0.092092
-0.088550
-0.085008
-0.081466
-0.077924
-0.074382
-0.070840
-0.067298
-0.063756
-0.060214
-0.056672
-0.053130
-0.049588
-0.046046
-0.042504
-0.038962
-0.035420
-0.031878
-0.028336
-0.024794
-0.021252
-0.017710
-0.014168
-0.010626
-0.007084
-0.003542
-0.000000
-0.000000
-0.000000
-0.000000
-0.000000
-0.000000
-0.000000
-0.000000
-0.000000
-0.000000
-0.000000
-0.000000
-0.000000
-0.000000
-0.000000
-0.000000
-0.000000
0.000000
0.000000
-0.000000
-0.000000
0.000000
-0.000000
-0.000000
-0.000000
-0.000000
0.000000
-0.000000
0.000000
-0.000000
0.000000
-0.000000
-0.003542
-0.007084
-0.010626
-0.014168
-0.017710
-0.021252
-0.024794
-0.028336
-0.031878
-0.035420
-0.038962
-0.042504
-0.046046
-0.049588
-0.053130
-0.056672
-0.060214
-0.063756
-0.067298
-0.070840
-0.074382
-0.077924
-0.081466
-0.085008
-0.088550
-0.092092
-0.095634
-0.099176
-0.102718
-0.106260
-0.109802
-0.113344
-0.116886
-0.120428
-0.120428
-0.120428
-0.120428
-0.120428
-0.120428
-0.120428
-0.120428
-0.120428
-0.120428
-0.120428
-0.120428
-0.120428
-0.120428
-0.120428
-0.120428
-0.120428
-0.120428
-0.120428
-0.120428
-0.120428
-0.120428
-0.120428
-0.120428
-0.120428
-0.120428
-0.120428
-0.120428
-0.120428
-0.120428
-0.120428
-0.120428
-0.116886
-0.113344
-0.109802
-0.106260
-0.102718
-0.099176
-0.095634
-0.092092
-0.088550
-0.085008
-0.081466
-0.077924
-0.074382
-0.070840
-0.067298
-0.063756
-0.060214
-0.056672
-0.053130
-0.049588
-0.046046
-0.042504
-0.038962
-0.035420
-0.031878
-0.028336
-0.024794
-0.021252
-0.017710
-0.014168
-0.010626
-0.007084
-0.003542
-0.006203
-0.009846
-0.105241
-0.108347
-0.108024
-0.106228
-0.116919
-0.114796
-0.117419
-0.113647
-0.002677
-0.004386
-0.003152
-0.047539
-0.050656
-0.051782
-0.012427
-0.009703
-0.008709
-0.012105
-0.003121
-0.002751
-0.111206
-0.108075
-0.016656
-0.018200
-0.019326
-0.021623
-0.015386
-0.014137
-0.012604
-0.047410
-0.045177
-0.048198
-0.100198
-0.096441
-0.097802
-0.025561
-0.029529
-0.026664
-0.097370
-0.023928
-0.020489
-0.023420
-0.022547
-0.021332
-0.020012
-0.018066
-0.025119
-0.027342
-0.098745
-0.101078
-0.099696
-0.049602
-0.103307
-0.020763
-0.016887
-0.014161
-0.015323
-0.012693
-0.010825
-0.011922
-0.014806
-0.044234
-0.021868
-0.025571
-0.022638
-0.023044
-0.112404
-0.110323
-0.113417
-0.115906
-0.117331
-0.083744
-0.087182
-0.086212
-0.024677
-0.024404
-0.015675
-0.019164
-0.016202
-0.115222
-0.116961
-0.117929
-0.018435
-0.113324
-0.114178
-0.111787
-0.114612
-0.117249
-0.003961
-0.006406
-0.007205
-0.005207
-0.111189
-0.110514
-0.112400
-0.106695
-0.109436
-0.104959
-0.117175
-0.114752
-0.006818
-0.009244
-0.003072
-0.003277
-0.006752
-0.003770
-0.026412
-0.029350
-0.026873
-0.007795
-0.008771
-0.005512
-0.030618
-0.005780
-0.112232
-0.114225
-0.117086
-0.117633
-0.002118
-0.005892
-0.005176
-0.007511
-0.003985
-0.009222
-0.002137
-0.109243
-0.002802
-0.112244
-0.013664
-0.009767
-0.012256
-0.109243
-0.008542
-0.110657
-0.049042
-0.102314
-0.103736
-0.105283
-0.101725
-0.103633
-0.104188
-0.107294
-0.106912
-0.016038
-0.117187
-0.078470
-0.079524
-0.075925
-0.008913
-0.010877
-0.008507
-0.009149
-0.014489
-0.015029
-0.011573
-0.005929
-0.114709
-0.112039
-0.110588
-0.051368
-0.053387
-0.109070
-0.052598
-0.052528
-0.101653
-0.050922
-0.054768
-0.016298
-0.016777
-0.019178
-0.103902
-0.103591
-0.107283
-0.013852
-0.010741
-0.020374
-0.101436
-0.098665
-0.101843
-0.105464
-0.079352
-0.081441
-0.082747
-0.017183
-0.019288
-0.113980
-0.116678
-0.019228
-0.084204
-0.110700
-0.108754
-0.054819
-0.006090
-0.005390
-0.007863
-0.116797
-0.109433
-0.107186
-0.009803
-0.063222
-0.062911
-0.066711
-0.065733
-0.101135
-0.104512
-0.025418
-0.028010
-0.098369
-0.094674
-0.098677
-0.103202
-0.003155
-0.006509
-0.003171
-0.112566
-0.117716
-0.108698
-0.012863
-0.088254
-0.090703
-0.088982
-0.112976
-0.116203
-0.091783
-0.105319
-0.107099
-0.085055
-0.087804
-0.084695
-0.078032
-0.080290
-0.081239
-0.077542
-0.093586
-0.084184
-0.082043
-0.097964
-0.082680
-0.084003
-0.085791
-0.087861
-0.095037
-0.080054
-0.078213
-0.106660
-0.105930
-0.109484
-0.096664
-0.100647
-0.091671
-0.085748
-0.084108
-0.081027
-0.087344
-0.089186
-0.111978
-0.090953
-0.117248
-0.014003
-0.016081
-0.017209
-0.085922
-0.082702
-0.080588
-0.089734
-0.086795
-0.091285
-0.087559
-0.083910
-0.091370
-0.009504
-0.088538
-0.012084
-0.088868
-0.091395
-0.088726
-0.091204
-0.087799
-0.093201
-0.088221
-0.091033
-0.093266
-0.082213
-0.081751
-0.085696
-0.078902
-0.079134
-0.116917
-0.114488
-0.113407
-0.111594
-0.098133
-0.094662
-0.095174
-0.084511
-0.088968
-0.087496
-0.097247
-0.096045
-0.090537
-0.093886
-0.105514
-0.108343
-0.109135
-0.109653
-0.101783
-0.101629
-0.098435
-0.101712
-0.103766
-0.103820
-0.089887
-0.093250
-0.091543
-0.090441
-0.098162
-0.100055
-0.101168
-0.115204
-0.082881
-0.079243
-0.080413
-0.094361
-0.090595
-0.092564
-0.114259
-0.105933
-0.108579
-0.106394
-0.110023
-0.091266
-0.076884
-0.028420
-0.027970
-0.031705
-0.111329
-0.112231
-0.030934
-0.003046
-0.096626
-0.098702
-0.094757
-0.006561
-0.100230
-0.075688
-0.076997
-0.108892
-0.114428
-0.022998
-0.026561
-0.023758
-0.025743
-0.097666
-0.080926
-0.096725
-0.032350
-0.028635
-0.031368
-0.072892
-0.071688
-0.117373
-0.074559
-0.041807
-0.041024
-0.045329
-0.044571
-0.094729
-0.019036
-0.109576
-0.093215
-0.101258
-0.014775
-0.024046
-0.095048
-0.082663
-0.082993
-0.080258
-0.016954
-0.048469
-0.051803
-0.051016
-0.047732
-0.029861
-0.027931
-0.031963
-0.029628
-0.054573
-0.116844
-0.055087
-0.077345
-0.073769
-0.103377
-0.034205
-0.033526
-0.100183
-0.078974
-0.030206
-0.038448
-0.037634
-0.070624
-0.072757
-0.069042
-0.095109
-0.017333
-0.053566
-0.055737
-0.053174
-0.054473
-0.056818
-0.047184
-0.050508
-0.048065
-0.049697
-0.050903
-0.044079
-0.044623
-0.046131
-0.085684
-0.088458
-0.034973
-0.037319
-0.037166
-0.034986
-0.032769
-0.027529
-0.040522
-0.041088
-0.042570
-0.039105
-0.013150
-0.011854
-0.019789
-0.022201
-0.073908
-0.077850
-0.074898
-0.076691
-0.076614
-0.075182
-0.027656
-0.030584
-0.027163
-0.031288
-0.034144
-0.033574
-0.072039
-0.072898
-0.033158
-0.034036
-0.032155
-0.030007
-0.033457
-0.034952
-0.037072
-0.027630
-0.020643
-0.068951
-0.067852
-0.070707
-0.068581
-0.064967
-0.066590
-0.030660
-0.034284
-0.081301
-0.036075
-0.035273
-0.069966
-0.086901
-0.084244
-0.075481
-0.070069
-0.072538
-0.021985
-0.070182
-0.071141
-0.072880
-0.037793
-0.036976
-0.068334
-0.069158
-0.040523
-0.038541
-0.040621
-0.060882
-0.064125
-0.061114
-0.063455
-0.037967
-0.036921
-0.058463
-0.057651
-0.061114
-0.034216
-0.035642
-0.066540
-0.067481
-0.069216
-0.066301
-0.067043
-0.071836
-0.022676
-0.042089
-0.044177
-0.064701
-0.065532
-0.117193
-0.113311
-0.106155
-0.106595
-0.062938
-0.063847
-0.065615
-0.024233
-0.103004
-0.059349
-0.060266
-0.116002
-0.062016
-0.068245
-0.044078
-0.041438
-0.025417
-0.061101
-0.104349
-0.061931
-0.055767
-0.056653
-0.039687
-0.038847
-0.084440
-0.057518
-0.058352
-0.020868
-0.064673
-0.065224
-0.053936
-0.054792
-0.053075
-0.050362
-0.051214
-0.081321
-0.045648
-0.047740
-0.041541
-0.040690
-0.095842
-0.107626
-0.047643
-0.044996
-0.039858
-0.036290
-0.037768
-0.049506
-0.046795
-0.046304
-0.049868
-0.112217
-0.084543
-0.053428
-0.051309
-0.059160
-0.057018
-0.060486
-0.058445
-0.042748
-0.044869
-0.045090
-0.048644
-0.045943
-0.043237
-0.103307
-0.039195
-0.042394
-0.024907
-0.093460
-0.058339
-0.058054
-0.041317
-0.052192
-0.054883
-0.049213
-0.060203
-0.060005
-0.062804
-0.059247
-0.117787
-0.054620
-0.076404
-0.074755
-0.043048
-0.032724
-0.048562
-0.029281
-0.052783
-0.052133
-0.056351
-0.055696
-0.059752
-0.068155
-0.070944
-0.069858
-0.045889
-0.060241
-0.057471
-0.059567
-0.062893
-0.063375
-0.062025
-0.062521
-0.035844
-0.096793
-0.094219
-0.036869
-0.075394
-0.073671
-0.068392
-0.066622
-0.066056
-0.038835
-0.070471
-0.098562
-0.064490
-0.022516
-0.040732
-0.072967
-0.072261
-0.057441
-0.056194
-0.074411
-0.062116
-0.042667
-0.076233
-0.065414
-0.078545
-0.100937
-0.114225
-0.110582
-0.015188
-0.012081
-0.012405
-0.014200
-0.003510
-0.005633
-0.003010
-0.006782
-0.117751
-0.116042
-0.117277
-0.072890
-0.069773
-0.068647
-0.108001
-0.110725
-0.111720
-0.108324
-0.117307
-0.117678
-0.009222
-0.012353
-0.103772
-0.102228
-0.101102
-0.098805
-0.105042
-0.106292
-0.107825
-0.073019
-0.075252
-0.072230
-0.020230
-0.023987
-0.022627
-0.094868
-0.090900
-0.093764
-0.023059
-0.096501
-0.099940
-0.097008
-0.097881
-0.099097
-0.100416
-0.102362
-0.095310
-0.093087
-0.021683
-0.019350
-0.020733
-0.070827
-0.017121
-0.099665
-0.103542
-0.106268
-0.105105
-0.107735
-0.109604
-0.108507
-0.105623
-0.076194
-0.098560
-0.094858
-0.097790
-0.097384
-0.008025
-0.010105
-0.007012
-0.004522
-0.003097
-0.036685
-0.033247
-0.034217
-0.095751
-0.096024
-0.104754
-0.101265
-0.104226
-0.005206
-0.003467
-0.002499
-0.101993
-0.007104
-0.006251
-0.008642
-0.005816
-0.003179
-0.116467
-0.114023
-0.113224
-0.115222
-0.009239
-0.009914
-0.008029
-0.013733
-0.010993
-0.015469
-0.003254
-0.005677
-0.113611
-0.111184
-0.117356
-0.117151
-0.113676
-0.116658
-0.094017
-0.091079
-0.093556
-0.112634
-0.111657
-0.114916
-0.089811
-0.114648
-0.008197
-0.006204
-0.003343
-0.002796
-0.118310
-0.114536
-0.115253
-0.112917
-0.116444
-0.111207
-0.118292
-0.011185
-0.117627
-0.008184
-0.106764
-0.110661
-0.108172
-0.011185
-0.111887
-0.009771
-0.071387
-0.018115
-0.016692
-0.015145
-0.018703
-0.016796
-0.016241
-0.013134
-0.013517
-0.104391
-0.003242
-0.041959
-0.040904
-0.044504
-0.111515
-0.109552
-0.111921
-0.111279
-0.105940
-0.105399
-0.108855
-0.114499
-0.005719
-0.008390
-0.009840
-0.069060
-0.067042
-0.011359
-0.067831
-0.067901
-0.018775
-0.069507
-0.065661
-0.104131
-0.103652
-0.101251
-0.016526
-0.016838
-0.013145
-0.106576
-0.109687
-0.100054
-0.018993
-0.021764
-0.018586
-0.014965
-0.041076
-0.038987
-0.037682
-0.103246
-0.101141
-0.006449
-0.003750
-0.101201
-0.036224
-0.009729
-0.011674
-0.065609
-0.114338
-0.115039
-0.112566
-0.003631
-0.010996
-0.013243
-0.110626
-0.057207
-0.057517
-0.053718
-0.054696
-0.019293
-0.015917
-0.095011
-0.092419
-0.022060
-0.025754
-0.021752
-0.017226
-0.117274
-0.113919
-0.117257
-0.007863
-0.002712
-0.011731
-0.107566
-0.032174
-0.029725
-0.031447
-0.007453
-0.004226
-0.028646
-0.015110
-0.013329
-0.035373
-0.032625
-0.035734
-0.042396
-0.040139
-0.039190
-0.042886
-0.026843
-0.036245
-0.038385
-0.022465
-0.037748
-0.036426
-0.034637
-0.032568
-0.025392
-0.040375
-0.042215
-0.013769
-0.014499
-0.010944
-0.023765
-0.019781
-0.028758
-0.034680
-0.036320
-0.039401
-0.033085
-0.031242
-0.008451
-0.029476
-0.003181
-0.106425
-0.104348
-0.103219
-0.034507
-0.037727
-0.039840
-0.030695
-0.033634
-0.029144
-0.032869
-0.036519
-0.029059
-0.110925
-0.031891
-0.108344
-0.031560
-0.029033
-0.031703
-0.029225
-0.032630
-0.027228
-0.032207
-0.029395
-0.027162
-0.038215
-0.038677
-0.034733
-0.041527
-0.041294
-0.003512
-0.005941
-0.007021
-0.008835
-0.022295
-0.025767
-0.025255
-0.035918
-0.031460
-0.032932
-0.023182
-0.024383
-0.029891
-0.026542
-0.014915
-0.012086
-0.011293
-0.010775
-0.018646
-0.018800
-0.021993
-0.018716
-0.016663
-0.016608
-0.030541
-0.027178
-0.028885
-0.029988
-0.022267
-0.020374
-0.019260
-0.005225
-0.037548
-0.041186
-0.040016
-0.026068
-0.029834
-0.027865
-0.006169
-0.014495
-0.011849
-0.014034
-0.010405
-0.029162
-0.043544
-0.092008
-0.092459
-0.088723
-0.009100
-0.008198
-0.089494
-0.117383
-0.023802
-0.021727
-0.025671
-0.113868
-0.020198
-0.044741
-0.043431
-0.011537
-0.006000
-0.097430
-0.093867
-0.096670
-0.094685
-0.022763
-0.039502
-0.023704
-0.088078
-0.091794
-0.089060
-0.047537
-0.048741
-0.003055
-0.045869
-0.078622
-0.079405
-0.075099
-0.075857
-0.025699
-0.101393
-0.010852
-0.027214
-0.019171
-0.105653
-0.096383
-0.025380
-0.037765
-0.037436
-0.040171
-0.103474
-0.071960
-0.068625
-0.069412
-0.072696
-0.090568
-0.092497
-0.088466
-0.090800
-0.065855
-0.003584
-0.065341
-0.043084
-0.046660
-0.017051
-0.086223
-0.086903
-0.020245
-0.041454
-0.090222
-0.081980
-0.082795
-0.049804
-0.047671
-0.051386
-0.025319
-0.103095
-0.066863
-0.064691
-0.067255
-0.065956
-0.063611
-0.073245
-0.069921
-0.072364
-0.070731
-0.069525
-0.076350
-0.075805
-0.074297
-0.034744
-0.031970
-0.085455
-0.083109
-0.083262
-0.085442
-0.087660
-0.092899
-0.079906
-0.079340
-0.077858
-0.081324
-0.107278
-0.108574
-0.100640
-0.098228
-0.046521
-0.042579
-0.045530
-0.043738
-0.043814
-0.045247
-0.092772
-0.089844
-0.093266
-0.089141
-0.086284
-0.086854
-0.048390
-0.047530
-0.087271
-0.086392
-0.088274
-0.090421
-0.086971
-0.085476
-0.083356
-0.092799
-0.099786
-0.051478
-0.052577
-0.049721
-0.051847
-0.055462
-0.053839
-0.089768
-0.086145
-0.039128
-0.084354
-0.085156
-0.050462
-0.033527
-0.036184
-0.044948
-0.050359
-0.047891
-0.098444
-0.050247
-0.049287
-0.047548
-0.082635
-0.083453
-0.052094
-0.051270
-0.079905
-0.081887
-0.079807
-0.059547
-0.056304
-0.059314
-0.056973
-0.082461
-0.083508
-0.061965
-0.062778
-0.059314
-0.086213
-0.084787
-0.053888
-0.052948
-0.051213
-0.054128
-0.053385
-0.048593
-0.097752
-0.078340
-0.076252
-0.055728
-0.054896
-0.003235
-0.007117
-0.014274
-0.013834
-0.057491
-0.056582
-0.054813
-0.096195
-0.017425
-0.061079
-0.060162
-0.004427
-0.058412
-0.052184
-0.076350
-0.078991
-0.095012
-0.059327
-0.016080
-0.058498
-0.064661
-0.063776
-0.080742
-0.081581
-0.035988
-0.062910
-0.062076
-0.099560
-0.055755
-0.055204
-0.066493
-0.065637
-0.067353
-0.070067
-0.069214
-0.039107
-0.074781
-0.072688
-0.078887
-0.079739
-0.024587
-0.012802
-0.072785
-0.075432
-0.080570
-0.084138
-0.082660
-0.070923
-0.073633
-0.074124
-0.070561
-0.008212
-0.035886
-0.067001
-0.069119
-0.061268
-0.063410
-0.059942
-0.061984
-0.077681
-0.075560
-0.075339
-0.071784
-0.074485
-0.077192
-0.017121
-0.081233
-0.078035
-0.095522
-0.026969
-0.062090
-0.062375
-0.079112
-0.068236
-0.065545
-0.071215
-0.060225
-0.060424
-0.057625
-0.061181
-0.002641
-0.065808
-0.044024
-0.045673
-0.077381
-0.087704
-0.071866
-0.091148
-0.067646
-0.068296
-0.064077
-0.064733
-0.060677
-0.052273
-0.049484
-0.050570
-0.074539
-0.060187
-0.062958
-0.060861
-0.057536
-0.057054
-0.058403
-0.057907
-0.084584
-0.023635
-0.026210
-0.083560
-0.045035
-0.046757
-0.052037
-0.053806
-0.054372
-0.081594
-0.049958
-0.021866
-0.055939
-0.097912
-0.079697
-0.047462
-0.048168
-0.062987
-0.064235
-0.046018
-0.058313
-0.077761
-0.044195
-0.055015
-0.041883
-0.019491
SCALARS UY float 1
LOOKUP_TABLE default
-0.000000
-0.000000
-0.281000
-0.281000
-0.112400
-0.168600
-0.000000
-0.000000
-0.000000
-0.000000
-0.000000
-0.000000
-0.000000
-0.000000
-0.000000
-0.000000
-0.000000
-0.000000
-0.000000
-0.000000
-0.000000
-0.000000
-0.000000
-0.000000
-0.000000
-0.000000
-0.000000
-0.000000
-0.000000
-0.000000
-0.000000
-0.000000
-0.000000
-0.000000
-0.000000
-0.000000
-0.000000
-0.000000
-0.000000
-0.008430
-0.016860
-0.025290
-0.033720
-0.042150
-0.050580
-0.059010
-0.067440
-0.075870
-0.084300
-0.092730
-0.101160
-0.109590
-0.118020
-0.126450
-0.134880
-0.143310
-0.151740
-0.160170
-0.176629
-0.184657
-0.192686
-0.200714
-0.208743
-0.216771
-0.224800
-0.232829
-0.240857
-0.248886
-0.256914
-0.264943
-0.272971
-0.281000
-0.281000
-0.281000
-0.281000
-0.281000
-0.281000
-0.281000
-0.281000
-0.281000
-0.281000
-0.281000
-0.281000
-0.281000
-0.281000
-0.281000
-0.281000
-0.281000
-0.281000
-0.281000
-0.281000
-0.281000
-0.281000
-0.281000
-0.281000
-0.281000
-0.281000
-0.281000
-0.281000
-0.281000
-0.281000
-0.281000
-0.281000
-0.281000
-0.272570
-0.264140
-0.255710
-0.247280
-0.238850
-0.230420
-0.221990
-0.213560
-0.205130
-0.196700
-0.188270
-0.179840
-0.171410
-0.162980
-0.154550
-0.146120
-0.137690
-0.129260
-0.120830
-0.104371
-0.096343
-0.088314
-0.080286
-0.072257
-0.064229
-0.056200
-0.048171
-0.040143
-0.032114
-0.024086
-0.016057
-0.008029
-0.114053
-0.115706
-0.117359
-0.119012
-0.120665
-0.122318
-0.123971
-0.125624
-0.127276
-0.128929
-0.130582
-0.132235
-0.133888
-0.135541
-0.137194
-0.138847
-0.140500
-0.142153
-0.143806
-0.145459
-0.147112
-0.148765
-0.150418
-0.152071
-0.153724
-0.155376
-0.157029
-0.158682
-0.160335
-0.161988
-0.163641
-0.165294
-0.166947
-0.173542
-0.171374
-0.127812
-0.130771
-0.124234
-0.135071
-0.251659
-0.257967
-0.260298
-0.252667
-0.195571
-0.200839
-0.206852
-0.154380
-0.154494
-0.150002
-0.273120
-0.269108
-0.274316
-0.265439
-0.259825
-0.252549
-0.273578
-0.273818
-0.196324
-0.203212
-0.197123
-0.202494
-0.189877
-0.195218
-0.189037
-0.266308
-0.273417
-0.274623
-0.265269
-0.266598
-0.273385
-0.240537
-0.240104
-0.234025
-0.259192
-0.228233
-0.229654
-0.235449
-0.222488
-0.216320
-0.222488
-0.217145
-0.222327
-0.227294
-0.174549
-0.174529
-0.168090
-0.270459
-0.169390
-0.210192
-0.209367
-0.209054
-0.214386
-0.214976
-0.209510
-0.204124
-0.202215
-0.265547
-0.248188
-0.248301
-0.242240
-0.255102
-0.150328
-0.155299
-0.158887
-0.152477
-0.158988
-0.272970
-0.274030
-0.265906
-0.207310
-0.215905
-0.184561
-0.182107
-0.177287
-0.123924
-0.131851
-0.124705
-0.190072
-0.130206
-0.271672
-0.266278
-0.263984
-0.268639
-0.266688
-0.260883
-0.267876
-0.273794
-0.132504
-0.126258
-0.122473
-0.265851
-0.267564
-0.273760
-0.140962
-0.136964
-0.179810
-0.177185
-0.173736
-0.189300
-0.186811
-0.180551
-0.274529
-0.267329
-0.267360
-0.250242
-0.243785
-0.247891
-0.273968
-0.255026
-0.137470
-0.144405
-0.275980
-0.147703
-0.273399
-0.194707
-0.240940
-0.236146
-0.234396
-0.262433
-0.238379
-0.137181
-0.244807
-0.259053
-0.169592
-0.184579
-0.178987
-0.261437
-0.256114
-0.143556
-0.161900
-0.234680
-0.241585
-0.234718
-0.128840
-0.133845
-0.139408
-0.141863
-0.241475
-0.273913
-0.243303
-0.244920
-0.236293
-0.238548
-0.229924
-0.236635
-0.201616
-0.192572
-0.268508
-0.261129
-0.258039
-0.230361
-0.246896
-0.247368
-0.254303
-0.275555
-0.154582
-0.148947
-0.160641
-0.270264
-0.273393
-0.264396
-0.149994
-0.248510
-0.256152
-0.251737
-0.260210
-0.267163
-0.256735
-0.252840
-0.250105
-0.237325
-0.136157
-0.131527
-0.143552
-0.146793
-0.205963
-0.213112
-0.205148
-0.266909
-0.274111
-0.241051
-0.234062
-0.260014
-0.212451
-0.240616
-0.248510
-0.274783
-0.205574
-0.211475
-0.210429
-0.166097
-0.162881
-0.154474
-0.216862
-0.146794
-0.154628
-0.152911
-0.144878
-0.256146
-0.250098
-0.260677
-0.261769
-0.139622
-0.133673
-0.149475
-0.152513
-0.227720
-0.224299
-0.221209
-0.234061
-0.226809
-0.233463
-0.244044
-0.155278
-0.154006
-0.149311
-0.168717
-0.175601
-0.147805
-0.160981
-0.169197
-0.156297
-0.162694
-0.165025
-0.174816
-0.180553
-0.173766
-0.183960
-0.272553
-0.173028
-0.167182
-0.249932
-0.220104
-0.228207
-0.219470
-0.227229
-0.143381
-0.219224
-0.213204
-0.197895
-0.205968
-0.203242
-0.156726
-0.159984
-0.139200
-0.204536
-0.198929
-0.197862
-0.211116
-0.203318
-0.177755
-0.210680
-0.184553
-0.237480
-0.242646
-0.235135
-0.235391
-0.235723
-0.228162
-0.170839
-0.169834
-0.162177
-0.177583
-0.181525
-0.178894
-0.223113
-0.142422
-0.221065
-0.217825
-0.230992
-0.234942
-0.239074
-0.242180
-0.187625
-0.187465
-0.195070
-0.202807
-0.150673
-0.159371
-0.147184
-0.155141
-0.146253
-0.193251
-0.188478
-0.194537
-0.187151
-0.203310
-0.211065
-0.195472
-0.257950
-0.260260
-0.250907
-0.187965
-0.179117
-0.246805
-0.246420
-0.213155
-0.217464
-0.211078
-0.196037
-0.209628
-0.217652
-0.214120
-0.224014
-0.220842
-0.227467
-0.268439
-0.262588
-0.253711
-0.275504
-0.196053
-0.189372
-0.194903
-0.200688
-0.265681
-0.271730
-0.260650
-0.225755
-0.223770
-0.218053
-0.227037
-0.174663
-0.176246
-0.181301
-0.171022
-0.131907
-0.230105
-0.212527
-0.220174
-0.217867
-0.227553
-0.218677
-0.225256
-0.213765
-0.241097
-0.233686
-0.234398
-0.217539
-0.241946
-0.207183
-0.199269
-0.224526
-0.182236
-0.179781
-0.177242
-0.172396
-0.184754
-0.162717
-0.187871
-0.169566
-0.245524
-0.246916
-0.252269
-0.200708
-0.208534
-0.118603
-0.215282
-0.156631
-0.164798
-0.163334
-0.153979
-0.162209
-0.243640
-0.182377
-0.155461
-0.248819
-0.220462
-0.268314
-0.150511
-0.142498