# vtk DataFile Version 2.0
Test
ASCII
DATASET POLYDATA
POINTS 1445 float
0.000000 0.000000 0.000000
1.000000 0.000000 0.000000
1.000000 1.000000 0.000000
0.000000 1.000000 0.000000
0.000000 0.400000 0.000000
1.000000 0.600000 0.000000
0.029412 0.000000 0.000000
0.058824 0.000000 0.000000
0.088235 0.000000 0.000000
0.117647 0.000000 0.000000
0.147059 0.000000 0.000000
0.176471 0.000000 0.000000
0.205882 0.000000 0.000000
0.235294 0.000000 0.000000
0.264706 0.000000 0.000000
0.294118 0.000000 0.000000
0.323529 0.000000 0.000000
0.352941 0.000000 0.000000
0.382353 0.000000 0.000000
0.411765 0.000000 0.000000
0.441176 0.000000 0.000000
0.470588 0.000000 0.000000
0.500000 0.000000 0.000000
0.529412 0.000000 0.000000
0.558824 0.000000 0.000000
0.588235 0.000000 0.000000
0.617647 0.000000 0.000000
0.647059 0.000000 0.000000
0.676471 0.000000 0.000000
0.705882 0.000000 0.000000
0.735294 0.000000 0.000000
0.764706 0.000000 0.000000
0.794118 0.000000 0.000000
0.823529 0.000000 0.000000
0.852941 0.000000 0.000000
0.882353 0.000000 0.000000
0.911765 0.000000 0.000000
0.941176 0.000000 0.000000
0.970588 0.000000 0.000000
1.000000 0.030000 0.000000
1.000000 0.060000 0.000000
1.000000 0.090000 0.000000
1.000000 0.120000 0.000000
1.000000 0.150000 0.000000
1.000000 0.180000 0.000000
1.000000 0.210000 0.000000
1.000000 0.240000 0.000000
1.000000 0.270000 0.000000
1.000000 0.300000 0.000000
1.000000 0.330000 0.000000
1.000000 0.360000 0.000000
1.000000 0.390000 0.000000
1.000000 0.420000 0.000000
1.000000 0.450000 0.000000
1.000000 0.480000 0.000000
1.000000 0.510000 0.000000
1.000000 0.540000 0.000000
1.000000 0.570000 0.000000
1.000000 0.628571 0.000000
1.000000 0.657143 0.000000
1.000000 0.685714 0.000000
1.000000 0.714286 0.000000
1.000000 0.742857 0.000000
1.000000 0.771429 0.000000
1.000000 0.800000 0.000000
1.000000 0.828571 0.000000
1.000000 0.857143 0.000000
1.000000 0.885714 0.000000
1.000000 0.914286 0.000000
1.000000 0.942857 0.000000
1.000000 0.971429 0.000000
0.970588 1.000000 0.000000
0.941176 1.000000 0.000000
0.911765 1.000000 0.000000
0.882353 1.000000 0.000000
0.852941 1.000000 0.000000
0.823529 1.000000 0.000000
0.794118 1.000000 0.000000
0.764706 1.000000 0.000000
0.735294 1.000000 0.000000
0.705882 1.000000 0.000000
0.676471 1.000000 0.000000
0.647059 1.000000 0.000000
0.617647 1.000000 0.000000
0.588235 1.000000 0.000000
0.558824 1.000000 0.000000
0.529412 1.000000 0.000000
0.500000 1.000000 0.000000
0.470588 1.000000 0.000000
0.441176 1.000000 0.000000
0.411765 1.000000 0.000000
0.382353 1.000000 0.000000
0.352941 1.000000 0.000000
0.323529 1.000000 0.000000
0.294118 1.000000 0.000000
0.264706 1.000000 0.000000
0.235294 1.000000 0.000000
0.205882 1.000000 0.000000
0.176471 1.000000 0.000000
0.147059 1.000000 0.000000
0.117647 1.000000 0.000000
0.088235 1.000000 0.000000
0.058824 1.000000 0.000000
0.029412 1.000000 0.000000
0.000000 0.970000 0.000000
0.000000 0.940000 0.000000
0.000000 0.910000 0.000000
0.000000 0.880000 0.000000
0.000000 0.850000 0.000000
0.000000 0.820000 0.000000
0.000000 0.790000 0.000000
0.000000 0.760000 0.000000
0.000000 0.730000 0.000000
0.000000 0.700000 0.000000
0.000000 0.670000 0.000000
0.000000 0.640000 0.000000
0.000000 0.610000 0.000000
0.000000 0.580000 0.000000
0.000000 0.550000 0.000000
0.000000 0.520000 0.000000
0.000000 0.490000 0.000000
0.000000 0.460000 0.000000
0.000000 0.430000 0.000000
0.000000 0.371429 0.000000
0.000000 0.342857 0.000000
0.000000 0.314286 0.000000
0.000000 0.285714 0.000000
0.000000 0.257143 0.000000
0.000000 0.228571 0.000000
0.000000 0.200000 0.000000
0.000000 0.171429 0.000000
0.000000 0.142857 0.000000
0.000000 0.114286 0.000000
0.000000 0.085714 0.000000
0.000000 0.057143 0.000000
0.000000 0.028571 0.000000
0.029412 0.405882 0.000000
0.058824 0.411765 0.000000
0.088235 0.417647 0.000000
0.117647 0.423529 0.000000
0.147059 0.429412 0.000000
0.176471 0.435294 0.000000
0.205882 0.441176 0.000000
0.235294 0.447059 0.000000
0.264706 0.452941 0.000000
0.294118 0.458824 0.000000
0.323529 0.464706 0.000000
0.352941 0.470588 0.000000
0.382353 0.476471 0.000000
0.411765 0.482353 0.000000
0.441176 0.488235 0.000000
0.470588 0.494118 0.000000
0.500000 0.500000 0.000000
0.529412 0.505882 0.000000
0.558824 0.511765 0.000000
0.588235 0.517647 0.000000
0.617647 0.523529 0.000000
0.647059 0.529412 0.000000
0.676471 0.535294 0.000000
0.705882 0.541176 0.000000
0.735294 0.547059 0.000000
0.764706 0.552941 0.000000
0.794118 0.558824 0.000000
0.823529 0.564706 0.000000
0.852941 0.570588 0.000000
0.882353 0.576471 0.000000
0.911765 0.582353 0.000000
0.941176 0.588235 0.000000
0.970588 0.594118 0.000000
0.948492 0.617586 0.000000
0.918239 0.609871 0.000000
0.126115 0.454845 0.000000
0.100318 0.465379 0.000000
0.103006 0.442114 0.000000
0.117916 0.480680 0.000000
0.029145 0.895585 0.000000
0.046774 0.918032 0.000000
0.024990 0.926329 0.000000
0.056315 0.899171 0.000000
0.977770 0.695981 0.000000
0.963577 0.714729 0.000000
0.973827 0.736127 0.000000
0.605253 0.549394 0.000000
0.579370 0.549801 0.000000
0.570019 0.533816 0.000000
0.896809 0.971959 0.000000
0.919426 0.957680 0.000000
0.927686 0.976215 0.000000
0.899487 0.944624 0.000000
0.974081 0.924646 0.000000
0.977161 0.898750 0.000000
0.076578 0.973587 0.000000
0.102577 0.974440 0.000000
0.861693 0.698664 0.000000
0.848870 0.723174 0.000000
0.839521 0.701504 0.000000
0.820447 0.720618 0.000000
0.872237 0.675719 0.000000
0.882611 0.694724 0.000000
0.895344 0.672729 0.000000
0.606326 0.947716 0.000000
0.624868 0.973015 0.000000
0.599776 0.977307 0.000000
0.167986 0.944019 0.000000
0.199183 0.948746 0.000000
0.187884 0.972901 0.000000
0.787752 0.856005 0.000000
0.754801 0.854462 0.000000
0.778588 0.832828 0.000000
0.191471 0.922393 0.000000
0.801312 0.812216 0.000000
0.829867 0.817276 0.000000
0.805526 0.837896 0.000000
0.812775 0.791772 0.000000
0.822869 0.769821 0.000000
0.833826 0.791773 0.000000
0.849982 0.772760 0.000000
0.791421 0.791198 0.000000
0.772962 0.808877 0.000000
0.180049 0.621172 0.000000
0.160680 0.621098 0.000000
0.172158 0.598185 0.000000
0.588124 0.962489 0.000000
0.142171 0.602810 0.000000
0.827587 0.748015 0.000000
0.859778 0.745080 0.000000
0.882413 0.743965 0.000000
0.872759 0.762938 0.000000
0.894601 0.765041 0.000000
0.910115 0.745588 0.000000
0.901004 0.726420 0.000000
0.877058 0.719626 0.000000
0.632694 0.945006 0.000000
0.818411 0.883232 0.000000
0.787667 0.883633 0.000000
0.812018 0.862064 0.000000
0.808649 0.907835 0.000000
0.066636 0.534974 0.000000
0.083909 0.552665 0.000000
0.058224 0.565435 0.000000
0.037551 0.542621 0.000000
0.025720 0.565794 0.000000
0.304619 0.971425 0.000000
0.276072 0.975195 0.000000
0.284125 0.946285 0.000000
0.795087 0.737757 0.000000
0.797357 0.768346 0.000000
0.869843 0.656802 0.000000
0.840870 0.648068 0.000000
0.865462 0.630915 0.000000
0.043233 0.441011 0.000000
0.028792 0.469222 0.000000
0.020751 0.443790 0.000000
0.846918 0.676414 0.000000
0.058991 0.463368 0.000000
0.051906 0.966804 0.000000
0.071758 0.947609 0.000000
0.048298 0.939447 0.000000
0.026398 0.956010 0.000000
0.967109 0.949068 0.000000
0.946807 0.928411 0.000000
0.940173 0.953295 0.000000
0.956764 0.974357 0.000000
0.076722 0.471546 0.000000
0.082324 0.449317 0.000000
0.066669 0.435847 0.000000
0.114035 0.946088 0.000000
0.091278 0.952186 0.000000
0.128453 0.974235 0.000000
0.027019 0.501643 0.000000
0.047138 0.487417 0.000000
0.943388 0.639892 0.000000
0.923239 0.630552 0.000000
0.974491 0.618278 0.000000
0.972785 0.673666 0.000000
0.943930 0.664809 0.000000
0.968693 0.642530 0.000000
0.780685 0.976970 0.000000
0.756289 0.951349 0.000000
0.776857 0.951460 0.000000
0.935276 0.890540 0.000000
0.927168 0.867561 0.000000
0.954227 0.882176 0.000000
0.745760 0.974977 0.000000
0.952002 0.907568 0.000000
0.068063 0.489215 0.000000
0.051512 0.513895 0.000000
0.027757 0.982136 0.000000
0.023217 0.525632 0.000000
0.982410 0.972952 0.000000
0.951072 0.692907 0.000000
0.957020 0.857438 0.000000
0.937630 0.840379 0.000000
0.966912 0.834149 0.000000
0.923427 0.933924 0.000000
0.982257 0.848323 0.000000
0.092881 0.488189 0.000000
0.976737 0.871201 0.000000
0.067960 0.921895 0.000000
0.886538 0.603532 0.000000
0.918896 0.656866 0.000000
0.898227 0.636966 0.000000
0.092880 0.930380 0.000000
0.929071 0.911440 0.000000
0.081137 0.510877 0.000000
0.592772 0.576158 0.000000
0.150419 0.835159 0.000000
0.138607 0.859733 0.000000
0.125762 0.835294 0.000000
0.155304 0.458505 0.000000
0.139466 0.476317 0.000000
0.134858 0.496115 0.000000
0.109061 0.504849 0.000000
0.112238 0.859343 0.000000
0.866826 0.974780 0.000000
0.026919 0.865848 0.000000
0.348411 0.871602 0.000000
0.339654 0.840899 0.000000
0.369544 0.848927 0.000000
0.925986 0.818235 0.000000
0.909684 0.842117 0.000000
0.929360 0.717495 0.000000
0.924028 0.685311 0.000000
0.879688 0.955544 0.000000
0.875200 0.929284 0.000000
0.903901 0.918287 0.000000
0.950764 0.819790 0.000000
0.047492 0.878635 0.000000
0.069665 0.880314 0.000000
0.081712 0.904992 0.000000
0.573454 0.980624 0.000000
0.556694 0.550113 0.000000
0.094318 0.530060 0.000000
0.563246 0.571677 0.000000
0.563825 0.961795 0.000000
0.155902 0.972929 0.000000
0.577162 0.940912 0.000000
0.545227 0.533787 0.000000
0.864670 0.884377 0.000000
0.860690 0.911575 0.000000
0.840756 0.895862 0.000000
0.137227 0.926016 0.000000
0.139814 0.950758 0.000000
0.109156 0.913646 0.000000
0.884976 0.899786 0.000000
0.910807 0.890052 0.000000
0.830819 0.844574 0.000000
0.157710 0.484545 0.000000
0.180718 0.468069 0.000000
0.154331 0.510861 0.000000
0.124262 0.522394 0.000000
0.341085 0.732964 0.000000
0.323736 0.758404 0.000000
0.312899 0.730066 0.000000
0.857321 0.949854 0.000000
0.839840 0.975483 0.000000
0.053549 0.857833 0.000000
0.031143 0.832960 0.000000
0.840338 0.925315 0.000000
0.300796 0.756054 0.000000
0.080783 0.856286 0.000000
0.096939 0.884378 0.000000
0.544800 0.977874 0.000000
0.949430 0.731579 0.000000
0.955247 0.752582 0.000000
0.934712 0.748859 0.000000
0.030153 0.591093 0.000000
[...]
POINT_DATA 1445
SCALARS UX float 1
LOOKUP_TABLE default
-0.051342
0.000468
-0.000000
-0.051848
-0.051612
0.000000
-0.049819
-0.048295
-0.046772
-0.045248
-0.043725
-0.042201
-0.040677
-0.039154
-0.037630
-0.036106
-0.034583
-0.033059
-0.031535
-0.030011
-0.028488
-0.026964
-0.025440
-0.023916
-0.022392
-0.020868
-0.019345
-0.017821
-0.016297
-0.014773
-0.013249
-0.011725
-0.010200
-0.008676
-0.007152
-0.005628
-0.004104
-0.002580
-0.001056
0.000468
0.000468
0.000467
0.000467
0.000467
0.000467
0.000466
0.000466
0.000465
0.000464
0.000463
0.000462
0.000460
0.000457
0.000454
0.000450
0.000443
0.000431
0.000392
-0.000000
0.000000
-0.000000
-0.000000
-0.000000
-0.000000
-0.000000
-0.000000
-0.000000
-0.000000
-0.000000
-0.000000
-0.000000
-0.001525
-0.003051
-0.004576
-0.006101
-0.007627
-0.009153
-0.010678
-0.012204
-0.013730
-0.015255
-0.016781
-0.018306
-0.019832
-0.021357
-0.022882
-0.024408
-0.025933
-0.027458
-0.028982
-0.030507
-0.032032
-0.033556
-0.035081
-0.036605
-0.038130
-0.039654
-0.041178
-0.042703
-0.044227
-0.045751
-0.047275
-0.048800
-0.050324
-0.051848
-0.051848
-0.051849
-0.051849
-0.051850
-0.051851
-0.051852
-0.051853
-0.051854
-0.051855
-0.051857
-0.051858
-0.051860
-0.051861
-0.051863
-0.051865
-0.051867
-0.051867
-0.051848
-0.051352
-0.051338
-0.051336
-0.051337
-0.051338
-0.051339
-0.051340
-0.051341
-0.051341
-0.051342
-0.051342
-0.051342
-0.051342
-0.050082
-0.048575
-0.047053
-0.045520
-0.043991
-0.042468
-0.040944
-0.039420
-0.037895
-0.036371
-0.034839
-0.033314
-0.031787
-0.030255
-0.028737
-0.027210
-0.025696
-0.024182
-0.022655
-0.021139
-0.019608
-0.018082
-0.016559
-0.015029
-0.013508
-0.011986
-0.010468
-0.008951
-0.007437
-0.005921
-0.004409
-0.002916
-0.001455
-0.002713
-0.004273
-0.045314
-0.046664
-0.046461
-0.045754
-0.050339
-0.049425
-0.050553
-0.048930
-0.001156
-0.001893
-0.001360
-0.020479
-0.021837
-0.022244
-0.005352
-0.004179
-0.003750
-0.005213
-0.001344
-0.001185
-0.047880
-0.046532
-0.007193
-0.007854
-0.008343
-0.009329
-0.006652
-0.006108
-0.005453
-0.020419
-0.019457
-0.020759
-0.043143
-0.041526
-0.042111
-0.011012
-0.012722
-0.011489
-0.041926
-0.010311
-0.008829
-0.010091
-0.009718
-0.009197
-0.008626
-0.007789
-0.010826
-0.011783
-0.042530
-0.043533
-0.042940
-0.021363
-0.044493
-0.008954
-0.007284
-0.006108
-0.006607
-0.005473
-0.004669
-0.005145
-0.006391
-0.019052
-0.009420
-0.011015
-0.009753
-0.009926
-0.048411
-0.047515
-0.048845
-0.049918
-0.050529
-0.036061
-0.037541
-0.037124
-0.010643
-0.010521
-0.006782
-0.008287
-0.007017
-0.049608
-0.050376
-0.050781
-0.007965
-0.048810
-0.049158
-0.048129
-0.049345
-0.050480
-0.001706
-0.002759
-0.003103
-0.002242
-0.047891
-0.047582
-0.048346
-0.045939
-0.047118
-0.045191
-0.050467
-0.049425
-0.002966
-0.004018
-0.001352
-0.001419
-0.002928
-0.001643
-0.011375
-0.012641
-0.011574
-0.003357
-0.003778
-0.002374
-0.013187
-0.002489
-0.048341
-0.049196
-0.050410
-0.050662
-0.000912
-0.002547
-0.002230
-0.003236
-0.001717
-0.003971
-0.000920
-0.047054
-0.001207
-0.048327
-0.005916
-0.004235
-0.005316
-0.047035
-0.003679
-0.047662
-0.021147
-0.044055
-0.044667
-0.045333
-0.043793
-0.044633
-0.044877
-0.046215
-0.046033
-0.006907
-0.050455
-0.033793
-0.034248
-0.032699
-0.003841
-0.004686
-0.003672
-0.003957
-0.006240
-0.006473
-0.004984
-0.002555
-0.049388
-0.048239
-0.047614
-0.022124
-0.023006
-0.046977
-0.022680
-0.022623
-0.043769
-0.021932
-0.023568
-0.007020
-0.007226
-0.008260
-0.044737
-0.044603
-0.046192
-0.005966
-0.004626
-0.008778
-0.043692
-0.042494
-0.043869
-0.045426
-0.034179
-0.035077
-0.035640
-0.007400
-0.008307
-0.049075
-0.050237
-0.008281
-0.036266
-0.047663
-0.046825
-0.023610
-0.002628
-0.002324
-0.003391
-0.050298
-0.047130
-0.046165
-0.004226
-0.027228
-0.027114
-0.028749
-0.028298
-0.043546
-0.045000
-0.010948
-0.012064
-0.042374
-0.040781
-0.042505
-0.044452
-0.001359
-0.002805
-0.001367
-0.048467
-0.050684
-0.046803
-0.005541
-0.038020
-0.039074
-0.038334
-0.048653
-0.050041
-0.039540
-0.045361
-0.046125
-0.036644
-0.037825
-0.036487
-0.033618
-0.034588
-0.034998
-0.033405
-0.040297
-0.036265
-0.035346
-0.042182
-0.035609
-0.036177
-0.036948
-0.037837
-0.040940
-0.034479
-0.033688
-0.045931
-0.045615
-0.047145
-0.041638
-0.043351
-0.039487
-0.036932
-0.036227
-0.034902
-0.037617
-0.038411
-0.048222
-0.039170
-0.050489
-0.006033
-0.006927
-0.007415
-0.037001
-0.035616
-0.034707
-0.038654
-0.037390
-0.039323
-0.037717
-0.036145
-0.039356
-0.004096
-0.038142
-0.005209
-0.038272
-0.039357
-0.038208
-0.039274
-0.037808
-0.040142
-0.037999
-0.039208
-0.040167
-0.035423
-0.035222
-0.036920
-0.033998
-0.034095
-0.050345
-0.049300
-0.048834
-0.048055
-0.042261
-0.040766
-0.040989
-0.036392
-0.038310
-0.037677
-0.041882
-0.041367
-0.038986
-0.040428
-0.045435
-0.046652
-0.046994
-0.047219
-0.043830
-0.043763
-0.042389
-0.043798
-0.044682
-0.044704
-0.038705
-0.040153
-0.039419
-0.038943
-0.042274
-0.043090
-0.043568
-0.049606
-0.035690
-0.034124
-0.034628
-0.040634
-0.039014
-0.039862
-0.049196
-0.045622
-0.046760
-0.045819
-0.047383
-0.039253
-0.033113
-0.012253
-0.012055
-0.013666
-0.047935
-0.048324
-0.013331
-0.001313
-0.041607
-0.042501
-0.040804
-0.002828
-0.043158
-0.032602
-0.033167
-0.046887
-0.049276
-0.009940
-0.011474
-0.010269
-0.011117
-0.042068
-0.034860
-0.041662
-0.013936
-0.012335
-0.013512
-0.031400
-0.030880
-0.050462
-0.032115
-0.018013
-0.017696
-0.019549
-0.019179
-0.040805
-0.008200
-0.047188
-0.040154
-0.043600
-0.006369
-0.010356
-0.040944
-0.035607
-0.035677
-0.034531
-0.007343
-0.020901
-0.022336
-0.021995
-0.020581
-0.012890
-0.012054
-0.013790
-0.012780
-0.023530
-0.050310
-0.023747
-0.033312
-0.031773
-0.044522
-0.014732
-0.014440
-0.043147
-0.034026
-0.013015
-0.016570
-0.016240
-0.030436
-0.031346
-0.029739
-0.040953
-0.007470
-0.023078
-0.024015
-0.022911
-0.023472
-0.024478
-0.020332
-0.021763
-0.020714
-0.021412
-0.021936
-0.018995
-0.019232
-0.019877
-0.036906
-0.038070
-0.015074
-0.016083
-0.016020
-0.015077
-0.014127
-0.011858
-0.017463
-0.017710
-0.018343
-0.016851
-0.005667
-0.005121
-0.008563
-0.009590
-0.031829
-0.033526
-0.032256
-0.033026
-0.032998
-0.032398
-0.011945
-0.013190
-0.011675
-0.013510
-0.014740
-0.014440
-0.031026
-0.031397
-0.014285
-0.014665
-0.013866
-0.012940
-0.014430
-0.015070
-0.015986
-0.011916
-0.008919
-0.029704
-0.029229
-0.030457
-0.029556
-0.028001
-0.028697
-0.013206
-0.014767
-0.035011
-0.015540
-0.015194
-0.030136
-0.037430
-0.036287
-0.032505
-0.030194
-0.031258
-0.009491
-0.030225
-0.030639
-0.031386
-0.016284
-0.015930
-0.029431
-0.029787
-0.017458
-0.016616
-0.017514
-0.026229
-0.027625
-0.026331
-0.027335
-0.016353
-0.015902
-0.025179
-0.024829
-0.026320
-0.014764
-0.015374
-0.028657
-0.029063
-0.029808
-0.028559
-0.028880
-0.030936
-0.009766
-0.018143
-0.019045
-0.027867
-0.028226
-0.050462
-0.048791
-0.045710
-0.045898
-0.027106
-0.027499
-0.028258
-0.010455
-0.044357
-0.025561
-0.025957
-0.049948
-0.026709
-0.029390
-0.018989
-0.017854
-0.010966
-0.026318
-0.044937
-0.026676
-0.024019
-0.024401
-0.017096
-0.016733
-0.036363
-0.024775
-0.025136
-0.008987
-0.027853
-0.028100
-0.023232
-0.023602
-0.022861
-0.021694
-0.022062
-0.035021
-0.019676
-0.020579
-0.017893
-0.017525
-0.041272
-0.046348
-0.020524
-0.019386
-0.017196
-0.015661
-0.016293
-0.021324
-0.020158
-0.019964
-0.021497
-0.048321
-0.036406
-0.023029
-0.022115
-0.025499
-0.024575
-0.026067
-0.025186
-0.018433
-0.019349
-0.019421
-0.020952
-0.019790
-0.018625
-0.044490
-0.016904
-0.018261
-0.010752
-0.040257
-0.025134
-0.025014
-0.017820
-0.022480
-0.023653
-0.021211
-0.025935
-0.025849
-0.027053
-0.025522
-0.050718
-0.023525
-0.032922
-0.032210
-0.018568
-0.014127
-0.020922
-0.012646
-0.022747
-0.022459
-0.024283
-0.023993
-0.025747
-0.029368
-0.030568
-0.030099
-0.019790
-0.025967
-0.024775
-0.025680
-0.027106
-0.027310
-0.026727
-0.026938
-0.015459
-0.041680
-0.040571
-0.015879
-0.032482
-0.031740
-0.029466
-0.028704
-0.028462
-0.016726
-0.030360
-0.042442
-0.027786
-0.009698
-0.017543
-0.031439
-0.031131
-0.024759
-0.024230
-0.032056
-0.026775
-0.018377
-0.032841
-0.028189
-0.033835
-0.043464
-0.048682
-0.047125
-0.006115
-0.004767
-0.004979
-0.005670
-0.001043
-0.001956
-0.000827
-0.002451
-0.050185
-0.049451
-0.049982
-0.030911
-0.029552
-0.029147
-0.045997
-0.047169
-0.047597
-0.046136
-0.049999
-0.050159
-0.003500
-0.004847
-0.044172
-0.043509
-0.043024
-0.042037
-0.044717
-0.045255
-0.045914
-0.030948
-0.031909
-0.030609
-0.008237
-0.009853
-0.009268
-0.040346
-0.038639
-0.039871
-0.009454
-0.041048
-0.042527
-0.041267
-0.041641
-0.042164
-0.042732
-0.043568
-0.040535
-0.039579
-0.008868
-0.007865
-0.008461
-0.030005
-0.006907
-0.042407
-0.044075
-0.045247
-0.044748
-0.045879
-0.046682
-0.046210
-0.044969
-0.032314
-0.041935
-0.040342
-0.041604
-0.041430
-0.003001
-0.003894
-0.002561
-0.001493
-0.000877
-0.015317
-0.013838
-0.014255
-0.040723
-0.040842
-0.044593
-0.043092
-0.044366
-0.001845
-0.001057
-0.000666
-0.043406
-0.002626
-0.002222
-0.003251
-0.002035
-0.000900
-0.049639
-0.048587
-0.048243
-0.049103
-0.003541
-0.003858
-0.003107
-0.005441
-0.004262
-0.006188
-0.000954
-0.002001
-0.048407
-0.047365
-0.050055
-0.049926
-0.048432
-0.049719
-0.039981
-0.038717
-0.039783
-0.047989
-0.047569
-0.048971
-0.038172
-0.048856
-0.003084
-0.002221
-0.000970
-0.000752
-0.050431
-0.048802
-0.049115
-0.048110
-0.049627
-0.047376
-0.050422
-0.004370
-0.050136
-0.003054
-0.045482
-0.047134
-0.046064
-0.004345
-0.047668
-0.003757
-0.030241
-0.007327
-0.006715
-0.006050
-0.007630
-0.006790
-0.006541
-0.005204
-0.005348
-0.044444
-0.000928
-0.017586
-0.017132
-0.018681
-0.047506
-0.046663
-0.047678
-0.047401
-0.045110
-0.044877
-0.046364
-0.048790
-0.001993
-0.003142
-0.003766
-0.029246
-0.028384
-0.004436
-0.028709
-0.028747
-0.007611
-0.029437
-0.027823
-0.044331
-0.044126
-0.043093
-0.006643
-0.006777
-0.005188
-0.045384
-0.046722
-0.042577
-0.007726
-0.008923
-0.007546
-0.005988
-0.017207
-0.016308
-0.015747
-0.043951
-0.043046
-0.002307
-0.001147
-0.043071
-0.015120
-0.003719
-0.004556
-0.027761
-0.048718
-0.049020
-0.047957
-0.001104
-0.004274
-0.005244
-0.047123
-0.024164
-0.024277
-0.022643
-0.023095
-0.007834
-0.006381
-0.040409
-0.039294
-0.009039
-0.010631
-0.008904
-0.006958
-0.049983
-0.048540
-0.049976
-0.002916
-0.000700
-0.004580
-0.045809
-0.013381
-0.012328
-0.013069
-0.002748
-0.001357
-0.011865
-0.006045
-0.005276
-0.014755
-0.013574
-0.014910
-0.017774
-0.016804
-0.016396
-0.017985
-0.011082
-0.015130
-0.016050
-0.009199
-0.015775
-0.015206
-0.014437
-0.013546
-0.010469
-0.016905
-0.017697
-0.005460
-0.005773
-0.004244
-0.009767
-0.008054
-0.011920
-0.014456
-0.015161
-0.016487
-0.013769
-0.012977
-0.003175
-0.012217
-0.000906
-0.045318
-0.044424
-0.043938
-0.014380
-0.015765
-0.016675
-0.012744
-0.014007
-0.012078
-0.013678
-0.015247
-0.012040
-0.047252
-0.013262
-0.046142
-0.013113
-0.012025
-0.013174
-0.012107
-0.013572
-0.011251
-0.013393
-0.012183
-0.011222
-0.015976
-0.016175
-0.014482
-0.017399
-0.017302
-0.001047
-0.002093
-0.002557
-0.003338
-0.009128
-0.010621
-0.010402
-0.014987
-0.013069
-0.013702
-0.009511
-0.010029
-0.012394
-0.010953
-0.005951
-0.004734
-0.004393
-0.004172
-0.007557
-0.007623
-0.008997
-0.007586
-0.006703
-0.006679
-0.012673
-0.011226
-0.011961
-0.012435
-0.009116
-0.008303
-0.007823
-0.001783
-0.015688
-0.017253
-0.016750
-0.010750
-0.012370
-0.011523
-0.002188
-0.005776
-0.004638
-0.005577
-0.004017
-0.012154
-0.018268
-0.039114
-0.039309
-0.037701
-0.003448
-0.003061
-0.038034
-0.050029
-0.009774
-0.008881
-0.010579
-0.048517
-0.008223
-0.018783
-0.018220
-0.004497
-0.002120
-0.041441
-0.039909
-0.041117
-0.040262
-0.009335
-0.016530
-0.009738
-0.037426
-0.039024
-0.037849
-0.019985
-0.020503
-0.001024
-0.019268
-0.033377
-0.033692
-0.031839
-0.032211
-0.010597
-0.043153
-0.004207
-0.011249
-0.007781
-0.044984
-0.040999
-0.010462
-0.015793
-0.015723
-0.016868
-0.044050
-0.030486
-0.029051
-0.029391
-0.030803
-0.038490
-0.039322
-0.037587
-0.038593
-0.027858
-0.001076
-0.027640
-0.018070
-0.019609
-0.006875
-0.036629
-0.036921
-0.008249
-0.017369
-0.038347
-0.034820
-0.035147
-0.020958
-0.020049
-0.021655
-0.010427
-0.043885
-0.028298
-0.027364
-0.028467
-0.027907
-0.026900
-0.031043
-0.029613
-0.030664
-0.029962
-0.029443
-0.032379
-0.032144
-0.031496
-0.014496
-0.013334
-0.036296
-0.035287
-0.035352
-0.036291
-0.037243
-0.039500
-0.033909
-0.033664
-0.033028
-0.034519
-0.045684
-0.046238
-0.042823
-0.041786
-0.019549
-0.017853
-0.019123
-0.018351
-0.018398
-0.018998
-0.039443
-0.038201
-0.039720
-0.037877
-0.036648
-0.036952
-0.020353
-0.019983
-0.037078
-0.036700
-0.037506
-0.038430
-0.036945
-0.036303
-0.035390
-0.039453
-0.042475
-0.021680
-0.022153
-0.020925
-0.021836
-0.023390
-0.022693
-0.038153
-0.036595
-0.016368
-0.035824
-0.036169
-0.021244
-0.013960
-0.015103
-0.018872
-0.021197
-0.020135
-0.041880
-0.021152
-0.020739
-0.019991
-0.035084
-0.035436
-0.021946
-0.021592
-0.033910
-0.034759
-0.033864
-0.025151
-0.023756
-0.025051
-0.024045
-0.035010
-0.035460
-0.026193
-0.026543
-0.025053
-0.036617
-0.036005
-0.022718
-0.022314
-0.021567
-0.022821
-0.022501
-0.020440
-0.041588
-0.033233
-0.032334
-0.023509
-0.023152
-0.000927
-0.002597
-0.005675
-0.005485
-0.024268
-0.023877
-0.023116
-0.040938
-0.007033
-0.025812
-0.025417
-0.001439
-0.024665
-0.021985
-0.032380
-0.033516
-0.040404
-0.025058
-0.006455
-0.024701
-0.027353
-0.026972
-0.034270
-0.034631
-0.015017
-0.026599
-0.026240
-0.042366
-0.023522
-0.023283
-0.028140
-0.027772
-0.028511
-0.029678
-0.029311
-0.016359
-0.031702
-0.030802
-0.033473
-0.033839
-0.010113
-0.005045
-0.030847
-0.031985
-0.034189
-0.035724
-0.035089
-0.030046
-0.031212
-0.031419
-0.029886
-0.003068
-0.014973
-0.028355
-0.029267
-0.025888
-0.026811
-0.025319
-0.026198
-0.032948
-0.032035
-0.031946
-0.030417
-0.031579
-0.032743
-0.006904
-0.034476
-0.033106
-0.040623
-0.011142
-0.026245
-0.026367
-0.033563
-0.028891
-0.027730
-0.030169
-0.025443
-0.025542
-0.024325
-0.025855
-0.000672
-0.027846
-0.018473
-0.019183
-0.032818
-0.037257
-0.030451
-0.038739
-0.028634
-0.028915
-0.027099
-0.027383
-0.025636
-0.022021
-0.020822
-0.021289
-0.031595
-0.025422
-0.026613
-0.025710
-0.024283
-0.024077
-0.024658
-0.024445
-0.035930
-0.009703
-0.010810
-0.035483
-0.018909
-0.019650
-0.021920
-0.022681
-0.022924
-0.034637
-0.021026
-0.008942
-0.023598
-0.041657
-0.033821
-0.019952
-0.020257
-0.026632
-0.027160
-0.019332
-0.024615
-0.032989
-0.018548
-0.023200
-0.017554
-0.007920
SCALARS UY float 1
LOOKUP_TABLE default
-0.000000
-0.000000
-0.121000
-0.121000
-0.048400
-0.072606
-0.000000
-0.000000
-0.000000
-0.000000
-0.000000
-0.000000
-0.000000
-0.000000
-0.000000
-0.000000
-0.000000
-0.000000
-0.000000
-0.000000
-0.000000
-0.000000
-0.000000
-0.000000
-0.000000
-0.000000
-0.000000
-0.000000
-0.000000
-0.000000
-0.000000
-0.000000
-0.000000
-0.000000
-0.000000
-0.000000
-0.000000
-0.000000
-0.000000
-0.003627
-0.007254
-0.010881
-0.014508
-0.018135
-0.021762
-0.025389
-0.029016
-0.032642
-0.036269
-0.039896
-0.043523
-0.047149
-0.050776
-0.054402
-0.058029
-0.061655
-0.065282
-0.068916
-0.076097
-0.079557
-0.083010
-0.086463
-0.089917
-0.093371
-0.096824
-0.100278
-0.103732
-0.107185
-0.110639
-0.114093
-0.117546
-0.121000
-0.121000
-0.121000
-0.121000
-0.121000
-0.121000
-0.121000
-0.121000
-0.121000
-0.121000
-0.121000
-0.121000
-0.121000
-0.121000
-0.121000
-0.121000
-0.121000
-0.121000
-0.121000
-0.121000
-0.121000
-0.121000
-0.121000
-0.121000
-0.121000
-0.121000
-0.121000
-0.121000
-0.121000
-0.121000
-0.121000
-0.121000
-0.121000
-0.117372
-0.113744
-0.110116
-0.106488
-0.102861
-0.099233
-0.095605
-0.091978
-0.088350
-0.084723
-0.081095
-0.077468
-0.073841
-0.070213
-0.066586
-0.062959
-0.059332
-0.055704
-0.052070
-0.044896
-0.041439
-0.037985
-0.034532
-0.031079
-0.027626
-0.024172
-0.020719
-0.017266
-0.013813
-0.010360
-0.006906
-0.003453
-0.049109
-0.049829
-0.050542
-0.051245
-0.051968
-0.052672
-0.053392
-0.054097
-0.054810
-0.055519
-0.056229
-0.056941
-0.057645
-0.058365
-0.059077
-0.059779
-0.060497
-0.061214
-0.061916
-0.062628
-0.063348
-0.064053
-0.064764
-0.065475
-0.066185
-0.066898
-0.067604
-0.068324
-0.069030
-0.069754
-0.070460
-0.071177
-0.071902
-0.074748
-0.073821
-0.055084
-0.056357
-0.053534
-0.058211
-0.108373
-0.111088
-0.112091
-0.108807
-0.084248
-0.086514
-0.089102
-0.066513
-0.066563
-0.064615
-0.117610
-0.115884
-0.118125
-0.114306
-0.111891
-0.108761
-0.117806
-0.117909
-0.084564
-0.087528
-0.084907
-0.087218
-0.081789
-0.084088
-0.081427
-0.114678
-0.117737
-0.118256
-0.114231
-0.114803
-0.117723
-0.103589
-0.103402
-0.100786
-0.111616
-0.098294
-0.098907
-0.101400
-0.095822
-0.093168
-0.095823
-0.093524
-0.095753
-0.097890
-0.075197
-0.075188
-0.072418
-0.116464
-0.072977
-0.090531
-0.090177
-0.090044
-0.092338
-0.092593
-0.090242
-0.087923
-0.087099
-0.114350
-0.106882
-0.106930
-0.104322
-0.109857
-0.064773
-0.066913
-0.068456
-0.065696
-0.068497
-0.117545
-0.118001
-0.114505
-0.089290
-0.092989
-0.079502
-0.078445
-0.076374
-0.053413
-0.056823
-0.053744
-0.081873
-0.056116
-0.116986
-0.114665
-0.113678
-0.115680
-0.114843
-0.112346
-0.115354
-0.117900
-0.057105
-0.054413
-0.052773
-0.114481
-0.115218
-0.117884
-0.060742
-0.059023
-0.077451
-0.076321
-0.074829
-0.081547
-0.080469
-0.077773
-0.118215
-0.115117
-0.115131
-0.107768
-0.104990
-0.106757
-0.117974
-0.109827
-0.059241
-0.062224
-0.118840
-0.063642
-0.117730
-0.083872
-0.103767
-0.101704
-0.100952
-0.113012
-0.102666
-0.059118
-0.105431
-0.111555
-0.073059
-0.079507
-0.077101
-0.112582
-0.110294
-0.061861
-0.069755
-0.101068
-0.104040
-0.101085
-0.055528
-0.057685
-0.060078
-0.061133
-0.103992
-0.117951
-0.104778
-0.105475
-0.101763
-0.102733
-0.099027
-0.101914
-0.086845
-0.082950
-0.115626
-0.112451
-0.111122
-0.099216
-0.106324
-0.106527
-0.109512
-0.118657
-0.066602
-0.064180
-0.069211
-0.116380
-0.117727
-0.113855
-0.064622
-0.107021
-0.110310
-0.108409
-0.112054
-0.115046
-0.110558
-0.108885
-0.107709
-0.102208
-0.058678
-0.056690
-0.061860
-0.063255
-0.088713
-0.091789
-0.088363
-0.114937
-0.118036
-0.103809
-0.100801
-0.111970
-0.091505
-0.103622
-0.107019
-0.118324
-0.088551
-0.091091
-0.090639
-0.071556
-0.070175
-0.066559
-0.093406
-0.063250
-0.066625
-0.065888
-0.062425
-0.110306
-0.107703
-0.112255
-0.112725
-0.060172
-0.057612
-0.064410
-0.065716
-0.098080
-0.096608
-0.095279
-0.100801
-0.097679
-0.100544
-0.105101
-0.066907
-0.066360
-0.064339
-0.072685
-0.075646
-0.063693
-0.069359
-0.072893
-0.067346
-0.070098
-0.071100
-0.075313
-0.077781
-0.074861
-0.079246
-0.117365
-0.074543
-0.072028
-0.107632
-0.094798
-0.098284
-0.094525
-0.097863
-0.061790
-0.094419
-0.091828
-0.085241
-0.088714
-0.087541
-0.067530
-0.068931
-0.059990
-0.088099
-0.085687
-0.085228
-0.090930
-0.087575
-0.076574
-0.090743
-0.079497
-0.102276
-0.104498
-0.101266
-0.101375
-0.101518
-0.098265
-0.073602
-0.073169
-0.069875
-0.076503
-0.078199
-0.077067
-0.096096
-0.061374
-0.095214
-0.093817
-0.099482
-0.101182
-0.102960
-0.104296
-0.080823
-0.080754
-0.084027
-0.087355
-0.064926
-0.068668
-0.063426
-0.066847
-0.063022
-0.083240
-0.081187
-0.083794
-0.080617
-0.087571
-0.090908
-0.084199
-0.111082
-0.112076
-0.108051
-0.080969
-0.077163
-0.106286
-0.106121
-0.091807
-0.093660
-0.090912
-0.084441
-0.090289
-0.093742
-0.092223
-0.096479
-0.095114
-0.097965
-0.115595
-0.113077
-0.109258
-0.118635
-0.084449
-0.081575
-0.083954
-0.086440
-0.114408
-0.117011
-0.112243
-0.097229
-0.096375
-0.093915
-0.097778
-0.075245
-0.075925
-0.078101
-0.073677
-0.056834
-0.099100
-0.091535
-0.094826
-0.093833
-0.098001
-0.094182
-0.097012
-0.092077
-0.103830
-0.100641
-0.100948
-0.093699
-0.104195
-0.089238
-0.085833
-0.096699
-0.078501
-0.077444
-0.076352
-0.074267
-0.079583
-0.070107
-0.080929
-0.073054
-0.105734
-0.106333
-0.108637
-0.086452
-0.089819
-0.051099
-0.092723
-0.067486
-0.071001
-0.070372
-0.066340
-0.069889
-0.104925
-0.078563
-0.066986
-0.107152
-0.094953
-0.115542
-0.064857
-0.061409
-0.058251